Gromacs Runs On Most of All Computer Systems in water
11622
    1U      O5'    1   3.224   2.110   4.547  0.0573  0.0393 -0.0332
    1U      H5T    2   3.206   2.202   4.567 -1.1082 -0.1492 -0.1784
    1U      C5'    3   3.126   2.072   4.453 -0.2929  0.2538 -0.5154
    1U     H5'1    4   3.179   2.017   4.375  1.3937 -1.6258  1.8704
    1U     H5'2    5   3.076   2.159   4.409  0.0132  0.8221  0.2558
    1U      C4'    6   3.019   1.977   4.508  0.2374  0.0794 -0.4239
    1U      H4'    7   2.940   1.974   4.433  0.2249 -2.6630 -0.3515
    1U      O4'    8   3.081   1.852   4.533 -0.2014  0.3105 -0.1933
    1U      C1'    9   3.022   1.781   4.638  0.0198  0.1639  0.3507
    1U      H1'   10   2.942   1.724   4.591  1.6328 -2.1269  0.3069
    1U       N1   11   3.125   1.709   4.711 -0.3684 -0.6072  0.2981
    1U       C6   12   3.222   1.777   4.785  0.2112  0.3291 -0.2142
    1U       H6   13   3.214   1.884   4.795  0.0778  0.3322 -0.3571
    1U       C5   14   3.326   1.706   4.841  0.4419  0.0253  0.0394
    1U       H5   15   3.400   1.757   4.901  0.5684 -1.7081  1.3929
    1U       C4   16   3.336   1.562   4.835 -0.4574 -0.4201 -0.2911
    1U       O4   17   3.424   1.491   4.885 -0.0879  0.4543  0.1012
    1U       N3   18   3.240   1.507   4.754 -0.1783  0.3626 -0.5526
    1U       H3   19   3.259   1.412   4.727  0.5317  0.2307  0.3701
    1U       C2   20   3.131   1.568   4.698 -0.1101 -0.0816 -0.2042
    1U       O2   21   3.051   1.501   4.632  0.1755  0.1730  0.3099
    1U      C3'   22   2.958   2.012   4.645 -0.0434 -0.0437 -0.4114
    1U      H3'   23   3.017   2.084   4.703 -0.2675  0.5882 -0.9609
    1U      C2'   24   2.951   1.883   4.727  0.1124  0.4091 -0.1916
    1U     H2'1   25   2.985   1.896   4.829  1.1691 -0.2652 -0.4594
    1U      O2'   26   2.819   1.834   4.739 -0.1196 -0.6749 -0.2426
    1U     HO'2   27   2.761   1.910   4.755 -0.4306 -0.4789 -2.1398
    1U      O3'   28   2.826   2.059   4.615  0.3009 -0.1436  0.1054
    2RG3      P   29   2.791   2.208   4.603 -0.4159 -0.0468  0.1400
    2RG3    O1P   30   2.643   2.209   4.585 -0.4330 -0.1594  0.3773
    2RG3    O2P   31   2.876   2.274   4.501  0.5274  0.1294  0.2767
    2RG3    O5'   32   2.831   2.271   4.746  0.4744 -0.0681  0.2307
    2RG3    C5'   33   2.776   2.389   4.800 -0.2913 -0.2028  0.3289
    2RG3   H5'1   34   2.693   2.357   4.864 -0.3244 -0.4521  0.1621
    2RG3   H5'2   35   2.736   2.449   4.718  0.3287 -1.7814 -1.1451
    2RG3    C4'   36   2.870   2.490   4.871 -0.2348  0.0419 -0.4109
    2RG3    H4'   37   2.810   2.574   4.906  2.4783  1.1728  1.6820
    2RG3    O4'   38   2.933   2.436   4.987 -0.4588 -0.0018  0.4212
    2RG3    C1'   39   3.071   2.467   4.982 -0.6673 -0.4784  0.0690
    2RG3    H1'   40   3.105   2.512   5.076 -2.4759  1.5342 -0.2025
    2RG3     N9   41   3.140   2.339   4.950  0.7996  0.5595 -0.2196
    2RG3     C8   42   3.081   2.217   4.937 -0.4359  0.6032 -0.6083
    2RG3     H8   43   2.975   2.204   4.945 -0.1814 -1.6133 -0.5665
    2RG3     N7   44   3.158   2.117   4.916  0.3046 -0.4747  0.2659
    2RG3     C5   45   3.285   2.173   4.914 -0.4879  0.3387 -0.1853
    2RG3     C6   46   3.417   2.118   4.893  0.0677 -0.9903  0.0446
    2RG3     O6   47   3.451   2.008   4.861  0.2666 -0.3404  0.1787
    2RG3     N1   48   3.515   2.209   4.909 -0.5362  0.2264 -0.0139
    2RG3     H1   49   3.606   2.184   4.872 -0.7418 -0.7794  0.1399
    2RG3     C2   50   3.492   2.339   4.936  0.3974 -0.3429 -0.5578
    2RG3     N2   51   3.595   2.418   4.927 -0.0992  0.0672 -0.0872
    2RG3    H21   52   3.684   2.379   4.901 -0.8738 -1.8840  0.0659
    2RG3    H22   53   3.577   2.516   4.913  0.5153 -0.0074 -1.4833
    2RG3     N3   54   3.375   2.399   4.952  0.5396  0.2032  0.4191
    2RG3     C4   55   3.271   2.310   4.943  0.3999  0.1408  0.0337
    2RG3    C3'   56   2.981   2.543   4.773  0.0573 -0.4777  0.3258
    2RG3    H3'   57   3.015   2.460   4.711 -3.2231  0.7690 -3.3322
    2RG3    C2'   58   3.096   2.567   4.870 -0.0985 -0.2311 -0.1358
    2RG3   H2'1   59   3.192   2.541   4.825 -0.4985 -0.8161 -0.6575
    2RG3    O2'   60   3.095   2.701   4.925 -0.0290  0.0949  0.3236
    2RG3   HO'2   61   3.084   2.763   4.852  2.4587 -0.6295 -0.7390
    2RG3    O3'   62   2.951   2.661   4.692 -0.5244 -0.3705  0.4894
    2RG3    H3T   63   3.021   2.660   4.626 -2.6164 -0.2583 -1.8107
    3RG35     P   64   3.171   2.674   4.379 -0.2369 -0.0637  0.3837
    3RG35   O1P   65   3.237   2.793   4.331  0.2812 -0.1040  0.3279
    3RG35   O2P   66   3.041   2.645   4.313 -0.1356  0.3487 -0.0226
    3RG35   O5'   67   3.262   2.558   4.323 -0.1680  0.1089 -0.0315
    3RG35   C5'   68   3.283   2.541   4.183  0.7122  0.2760  0.3883
    3RG35  H5'1   69   3.345   2.613   4.130 -0.1825  0.7957  0.0404
    3RG35  H5'2   70   3.187   2.551   4.132  0.7600 -0.0653  0.2309
    3RG35   C4'   71   3.342   2.400   4.156  0.7323  0.1514  0.0443
    3RG35   H4'   72   3.341   2.387   4.048 -1.4478  0.5448  0.0078
    3RG35   O4'   73   3.475   2.401   4.204 -0.6427  0.1898 -0.0642
    3RG35   C1'   74   3.523   2.275   4.241  0.0982  0.5872 -0.1321
    3RG35   H1'   75   3.604   2.245   4.175  0.4788  2.2277 -0.4502
    3RG35    N9   76   3.551   2.263   4.385  0.4571 -0.1208 -0.6342
    3RG35    C8   77   3.475   2.312   4.486 -0.7401 -0.3626  0.5731
    3RG35    H8   78   3.375   2.351   4.472 -1.0415 -1.2034  0.3688
    3RG35    N7   79   3.527   2.303   4.605 -0.0690  0.4145 -0.2068
    3RG35    C5   80   3.654   2.243   4.578 -0.0450  0.0094  0.4782
    3RG35    C6   81   3.754   2.191   4.666  0.3283 -0.5643 -0.0091
    3RG35    O6   82   3.758   2.181   4.791  0.3508  0.1578 -0.0270
    3RG35    N1   83   3.862   2.142   4.600  0.1801  0.3365  0.3124
    3RG35    H1   84   3.935   2.100   4.655 -0.8371 -1.9239  0.0032
    3RG35    C2   85   3.873   2.132   4.466  0.3900  0.4187  0.2010
    3RG35    N2   86   3.996   2.104   4.424  0.1089 -0.4656 -0.0385
    3RG35   H21   87   4.081   2.101   4.478 -0.3367 -0.8495  0.6526
    3RG35   H22   88   4.007   2.081   4.327  1.6000 -0.1668  0.0505
    3RG35    N3   89   3.774   2.155   4.381  0.1537  0.0894 -0.0501
    3RG35    C4   90   3.665   2.212   4.443  0.1727  0.1561 -0.3484
    3RG35   C3'   91   3.278   2.281   4.220  0.0833  0.5673  0.0827
    3RG35   H3'   92   3.248   2.302   4.323  0.4604  0.3862  0.2273
    3RG35   C2'   93   3.401   2.181   4.214 -0.1997 -0.3407  0.1135
    3RG35  H2'1   94   3.390   2.102   4.288 -1.3525 -0.1976  0.1142
    3RG35   O2'   95   3.411   2.112   4.093 -0.2211  0.3234 -0.0857
    3RG35  HO'2   96   3.463   2.032   4.107  1.5916  1.1631 -1.6683
    3RG35   O3'   97   3.162   2.247   4.148  0.4306 -0.1197  0.4382
    3RG35   H3T   98   3.099   2.319   4.152  1.5329  0.8042  1.9243
    3RG35   O3P   99   3.166   2.656   4.524  0.1323  0.2108  0.5433
    7SOL     OW  100   3.003   4.361   0.460 -0.0131 -0.0775  0.2178
    7SOL    HW2  101   3.094   4.389   0.460 -0.2429  0.7862  2.3396
    7SOL    HW3  102   2.958   4.424   0.405  0.2792  0.9567  1.1368
    7SOL    MW4  103   3.009   4.373   0.453 -0.0050  0.1731  0.6190
    8SOL     OW  104   0.594   0.955   0.372 -0.5821 -0.0751 -0.2824
    8SOL    HW2  105   0.598   1.050   0.366 -0.4793 -0.1394 -1.5329
    8SOL    HW3  106   0.682   0.926   0.345 -0.6816 -0.5246 -0.1281
    8SOL    MW4  107   0.606   0.963   0.367 -0.5817 -0.1429 -0.4270
    9SOL     OW  108   3.494   1.644   0.509  0.2192 -0.0252  0.4812
    9SOL    HW2  109   3.586   1.661   0.491  0.2946 -0.8372  0.0826
    9SOL    HW3  110   3.483   1.669   0.601  0.6752  0.6938  0.3467
    9SOL    MW4  111   3.505   1.650   0.519  0.2892 -0.0376  0.4109
   10SOL     OW  112   1.769   3.527   0.806 -0.2127  0.1686  0.2800
   10SOL    HW2  113   1.857   3.558   0.785 -0.9697  0.6649 -2.4113
   10SOL    HW3  114   1.757   3.449   0.752 -1.6900  0.5382  0.0496
   10SOL    MW4  115   1.779   3.521   0.796 -0.5075  0.2828 -0.1054
   11SOL     OW  116   2.579   4.588   0.653  0.2943 -0.3267  0.1889
   11SOL    HW2  117   2.605   4.520   0.715  1.7931 -0.6422 -0.7445
   11SOL    HW3  118   2.586   4.546   0.567  0.8624  0.8971 -0.3783
   11SOL    MW4  119   2.583   4.574   0.650  0.5667 -0.2069 -0.0091
   12SOL     OW  120   1.395   1.363   0.512  0.1053 -0.5134  0.0028
   12SOL    HW2  121   1.384   1.377   0.606 -0.8994 -0.1680 -0.1636
   12SOL    HW3  122   1.315   1.398   0.473 -0.4194 -2.5385 -0.8040
   12SOL    MW4  123   1.383   1.369   0.519 -0.0966 -0.7350 -0.1256
   13SOL     OW  124   1.353   1.958   0.327 -0.1953  0.3230  0.2854
   13SOL    HW2  125   1.363   1.882   0.385  0.0943  1.0975  1.2670
   13SOL    HW3  126   1.388   1.929   0.243 -0.1632 -0.6538  0.6305
   13SOL    MW4  127   1.359   1.944   0.324 -0.1528  0.2962  0.4604
   14SOL     OW  128   1.067   2.025   0.321 -0.1642  0.1932  0.0062
   14SOL    HW2  129   1.147   1.977   0.300  0.2818  1.8676 -2.3319
   14SOL    HW3  130   0.996   1.968   0.290  0.2644 -0.0310 -0.5816
   14SOL    MW4  131   1.068   2.011   0.314 -0.0488  0.3843 -0.3798
   15SOL     OW  132   4.234   4.616   0.818  0.0831  0.1850  0.6534
   15SOL    HW2  133   4.227   4.534   0.770  0.1209 -0.2582  1.3987
   15SOL    HW3  134   4.167   4.672   0.779  1.3788  0.5033 -1.2106
   15SOL    MW4  135   4.224   4.613   0.806  0.2589  0.1688  0.5059
   16SOL     OW  136   4.003   1.941   0.193  0.0606  0.3361 -0.2000
   16SOL    HW2  137   4.000   2.008   0.125 -0.5592  0.4934 -0.0165
   16SOL    HW3  138   3.912   1.926   0.216  0.3578  2.3009  2.5825
   16SOL    MW4  139   3.991   1.948   0.187  0.0179  0.6161  0.1913
   17SOL     OW  140   3.761   1.651   0.374 -0.0054  0.1173 -0.2524
   17SOL    HW2  141   3.712   1.598   0.310  0.1041  0.3102 -0.4988
   17SOL    HW3  142   3.767   1.738   0.333 -0.2907  0.3522  0.2054
   17SOL    MW4  143   3.755   1.655   0.360 -0.0286  0.1738 -0.2245
   18SOL     OW  144   4.449   0.063   0.696  0.1077 -0.1113 -0.4425
   18SOL    HW2  145   4.529   0.016   0.718  0.0150  0.2390  0.6670
   18SOL    HW3  146   4.381   0.021   0.748 -0.0064  1.1358  0.4429
   18SOL    MW4  147   4.451   0.051   0.706  0.0801  0.0995 -0.1793
   19SOL     OW  148   0.643   4.401   1.264 -0.3525 -0.1390 -0.2548
   19SOL    HW2  149   0.577   4.338   1.236  0.1371 -0.1385 -1.4672
   19SOL    HW3  150   0.642   4.397   1.360 -0.9736 -1.2998 -0.3075
   19SOL    MW4  151   0.634   4.392   1.273 -0.3699 -0.2923 -0.4219
   20SOL     OW  152   1.823   2.190   0.468  0.3257  0.2565  0.3608
   20SOL    HW2  153   1.756   2.125   0.446  0.0264  0.0204  1.9170
   20SOL    HW3  154   1.778   2.274   0.465  0.8175  0.4831 -2.1041
   20SOL    MW4  155   1.809   2.193   0.465  0.3511  0.2553  0.2410
   21SOL     OW  156   2.161   2.230   0.873  0.1019  0.2514 -0.0673
   21SOL    HW2  157   2.223   2.294   0.838  0.8313  0.4126  1.4524
   21SOL    HW3  158   2.136   2.266   0.958 -1.4010 -0.2657 -0.2794
   21SOL    MW4  159   2.166   2.243   0.880 -0.0002  0.2043  0.1053
   22SOL     OW  160   4.122   3.754   0.274 -0.1683  0.0267 -0.0222
   22SOL    HW2  161   4.059   3.820   0.301  0.0294  0.0964  0.2696
   22SOL    HW3  162   4.160   3.722   0.355  1.3862  1.1758 -0.2650
   22SOL    MW4  163   4.119   3.758   0.288  0.0629  0.1874 -0.0157
   23SOL     OW  164   1.088   4.635   1.097  0.0325 -0.2415 -0.3270
   23SOL    HW2  165   1.014   4.692   1.118  0.6012  0.0749  0.8048
   23SOL    HW3  166   1.101   4.647   1.003 -1.0872  0.0147 -0.4591
   23SOL    MW4  167   1.080   4.644   1.087 -0.0402 -0.1659 -0.1951
   24SOL     OW  168   0.220   2.658   0.324  0.1243 -0.3131  0.2635
   24SOL    HW2  169   0.296   2.706   0.356  0.0012 -0.2852  0.5086
   24SOL    HW3  170   0.221   2.673   0.229 -1.7941  2.8927  0.7028
   24SOL    MW4  171   0.231   2.666   0.316 -0.1450  0.1135  0.3538
   25SOL     OW  172   0.922   0.964   0.536 -0.0900 -0.0040 -0.1073
   25SOL    HW2  173   0.893   0.893   0.593 -0.0230 -0.6908 -0.9071
   25SOL    HW3  174   1.018   0.964   0.544 -0.2148  1.6773  1.8440
   25SOL    MW4  175   0.931   0.954   0.544 -0.0976  0.1272  0.0446
   26SOL     OW  176   0.364   0.009   0.451  0.2109 -0.2682  0.1049
   26SOL    HW2  177   0.423  -0.065   0.440  0.5881 -0.0414  0.6076
   26SOL    HW3  178   0.281  -0.021   0.412 -0.4180 -1.9349  2.6418
   26SOL    MW4  179   0.361  -0.004   0.444  0.1777 -0.4587  0.5059
   27SOL     OW  180   2.717   3.215   0.703 -0.1588  0.1467  0.3877
   27SOL    HW2  181   2.638   3.175   0.738 -0.6806  0.6518 -0.1894
   27SOL    HW3  182   2.726   3.177   0.615  0.0114  0.3793  0.3023
   27SOL    MW4  183   2.708   3.205   0.696 -0.2055  0.2439  0.3002
   28SOL     OW  184   3.354   2.859   0.702 -0.2486  0.1780  0.1993
   28SOL    HW2  185   3.442   2.831   0.729 -1.0493 -1.8367  0.8548
   28SOL    HW3  186   3.345   2.824   0.613 -0.1183  0.9965 -0.1334
   28SOL    MW4  187   3.365   2.850   0.694 -0.3371  0.0203  0.2419
   29SOL     OW  188   1.656   1.737   0.490  0.2319  0.5515  0.4514
   29SOL    HW2  189   1.562   1.738   0.471  0.1924  0.1999  0.6294
   29SOL    HW3  190   1.680   1.645   0.485  0.3643  0.5316  1.3935
   29SOL    MW4  191   1.647   1.725   0.487  0.2441  0.5023  0.5991
   30SOL     OW  192   1.796   1.221   0.399 -0.1812  0.2498  0.0386
   30SOL    HW2  193   1.767   1.195   0.311 -0.4141 -0.7464  0.4008
   30SOL    HW3  194   1.753   1.159   0.458  0.7498  0.2853  0.7753
   30SOL    MW4  195   1.786   1.209   0.395 -0.0889  0.1231  0.1836
   31SOL     OW  196   1.614   2.009   0.430 -0.3163  0.1528  0.4438
   31SOL    HW2  197   1.526   2.001   0.392 -0.3652  0.0266  0.5848
   31SOL    HW3  198   1.641   1.918   0.447 -0.2090  0.1988  0.5181
   31SOL    MW4  199   1.606   1.996   0.427 -0.3085  0.1423  0.4722
   32SOL     OW  200   3.150   3.540   0.838  0.1591  0.0149  0.1329
   32SOL    HW2  201   3.220   3.580   0.785  0.1297  0.1455  0.1936
   32SOL    HW3  202   3.069   3.572   0.799  0.1492  1.7012  1.4785
   32SOL    MW4  203   3.149   3.550   0.826  0.1535  0.2546  0.3184
   33SOL     OW  204   4.454   0.755   0.680 -0.0677 -0.2329  0.1532
   33SOL    HW2  205   4.435   0.834   0.628 -1.6382 -0.8351 -0.2241
   33SOL    HW3  206   4.450   0.683   0.617 -0.3165 -0.7867  0.7912
   33SOL    MW4  207   4.451   0.756   0.665 -0.3076 -0.3853  0.1875
   34SOL     OW  208   1.637   4.656   0.644 -0.1532  0.3083 -0.0953
   34SOL    HW2  209   1.596   4.662   0.730 -0.1210 -1.3082  0.0644
   34SOL    HW3  210   1.626   4.564   0.619  1.4158  0.3543 -1.0238
   34SOL    MW4  211   1.630   4.644   0.652  0.0581  0.1016 -0.1968
   35SOL     OW  212   1.136   4.135   0.468  0.1058  0.0046 -0.0204
   35SOL    HW2  213   1.075   4.171   0.403 -0.3380  0.0166  0.4109
   35SOL    HW3  214   1.098   4.158   0.552  0.2230 -0.8163  0.2514
   35SOL    MW4  215   1.123   4.143   0.470  0.0627 -0.1025  0.0724
   36SOL     OW  216   3.813   1.543   0.836  0.1419  0.6490 -0.0023
   36SOL    HW2  217   3.828   1.515   0.926  0.8961 -1.9261 -0.8808
   36SOL    HW3  218   3.895   1.586   0.810  0.2494  0.5864  0.2344
   36SOL    MW4  219   3.826   1.545   0.845  0.2561  0.3010 -0.0870
   37SOL     OW  220   2.563   1.617   0.382 -0.2243  0.1493 -0.5516
   37SOL    HW2  221   2.659   1.609   0.384 -0.2634 -0.1084  0.7276
   37SOL    HW3  222   2.532   1.527   0.395 -0.6386  0.3943  0.1559
   37SOL    MW4  223   2.572   1.604   0.384 -0.2842  0.1476 -0.2894
   38SOL     OW  224   3.477   0.401   0.529 -0.3958  0.0289  0.0609
   38SOL    HW2  225   3.387   0.412   0.500 -0.0884  0.2883 -0.8165
   38SOL    HW3  226   3.493   0.307   0.524 -0.8434 -0.0995  0.9226
   38SOL    MW4  227   3.467   0.390   0.525 -0.4144  0.0462  0.0588
   39SOL     OW  228   1.356   1.936   1.134  0.3329  0.5212  0.0482
   39SOL    HW2  229   1.380   1.936   1.041 -0.4191 -1.2652 -0.1781
   39SOL    HW3  230   1.290   2.005   1.142 -0.1776  0.1563 -0.9135
   39SOL    MW4  231   1.350   1.945   1.123  0.1663  0.2372 -0.1086
   40SOL     OW  232   2.488   3.100   0.842  0.0322 -0.5457 -0.2444
   40SOL    HW2  233   2.488   3.100   0.938 -0.4411 -2.4562 -0.2220
   40SOL    HW3  234   2.458   3.012   0.818  1.6551 -0.6183 -2.1451
   40SOL    MW4  235   2.484   3.088   0.851  0.1838 -0.8073 -0.4922
   41SOL     OW  236   3.840   0.783   1.107 -0.0641  0.5849 -0.3594
   41SOL    HW2  237   3.838   0.827   1.021  0.2194  0.6768 -0.3188
   41SOL    HW3  238   3.906   0.831   1.156 -0.4918  0.7691  0.0400
   41SOL    MW4  239   3.848   0.795   1.102 -0.0830  0.6213 -0.3012
   42SOL     OW  240   0.089   1.350   0.567  0.2723  0.2229  0.2794
   42SOL    HW2  241   0.115   1.336   0.658  3.3179  1.1180 -0.4016
   42SOL    HW3  242   0.077   1.445   0.560  1.1499  0.2801 -0.5190
   42SOL    MW4  243   0.091   1.360   0.578  0.7899  0.3486  0.0843
   43SOL     OW  244   1.643   0.472   0.804 -0.2335  0.0877  0.1895
   43SOL    HW2  245   1.692   0.433   0.876  0.3365 -0.7861 -0.6698
   43SOL    HW3  246   1.700   0.463   0.728 -1.0947  0.4310 -0.5022
   43SOL    MW4  247   1.657   0.466   0.804 -0.2719  0.0177 -0.0152
   44SOL     OW  248   1.382   2.732   1.099 -0.0372 -0.5917  0.3203
   44SOL    HW2  249   1.456   2.771   1.147 -0.1979 -1.3532  1.1978
   44SOL    HW3  250   1.305   2.775   1.136  0.0104  0.9638 -1.3180
   44SOL    MW4  251   1.382   2.743   1.110 -0.0521 -0.4869  0.2201
   45SOL     OW  252   2.480   3.596   0.421  0.3633 -0.0062  0.0677
   45SOL    HW2  253   2.473   3.690   0.408  1.1293  0.0362 -0.0072
   45SOL    HW3  254   2.570   3.574   0.398  0.2944 -0.6994  0.4334
   45SOL    MW4  255   2.491   3.605   0.417  0.4554 -0.0920  0.1060
   46SOL     OW  256   0.825   4.308   0.836  0.5386 -0.1700 -0.0417
   46SOL    HW2  257   0.849   4.399   0.851  1.5595 -0.4606  0.1544
   46SOL    HW3  258   0.818   4.270   0.923 -0.3428 -0.1699 -0.1088
   46SOL    MW4  259   0.827   4.315   0.849  0.5571 -0.2089 -0.0247
   47SOL     OW  260   3.721   4.340   0.458  0.6051  0.3565  0.4242
   47SOL    HW2  261   3.739   4.352   0.552  0.5823  0.2818  0.4388
   47SOL    HW3  262   3.793   4.284   0.428 -1.4760 -2.8880  1.2335
   47SOL    MW4  263   3.733   4.334   0.467  0.3278 -0.0811  0.5329
   48SOL     OW  264   1.408   2.190   0.743 -0.0291  0.1937 -0.0644
   48SOL    HW2  265   1.346   2.250   0.786  1.4675  2.3508 -0.8427
   48SOL    HW3  266   1.377   2.185   0.653 -1.4018 -1.9400  0.4994
   48SOL    MW4  267   1.396   2.197   0.737 -0.0128  0.1969 -0.0928
   49SOL     OW  268   2.990   0.737   0.674 -0.1393 -0.4852  0.2871
   49SOL    HW2  269   3.063   0.796   0.695  0.0667 -0.5901 -0.1194
   49SOL    HW3  270   2.920   0.763   0.733  0.3576 -0.6398  0.9556
   49SOL    MW4  271   2.990   0.748   0.685 -0.0467 -0.5194  0.3217
   50SOL     OW  272   0.662   3.081   1.131  0.3074 -0.1268  0.1515
   50SOL    HW2  273   0.583   3.132   1.147  0.7650  0.8469 -0.6327
   50SOL    HW3  274   0.645   3.034   1.049  0.2303 -0.5581  0.4107
   50SOL    MW4  275   0.650   3.081   1.122  0.3577 -0.0551  0.0821
   51SOL     OW  276   2.316   4.557   0.420  0.0563 -0.9427  0.4321
   51SOL    HW2  277   2.246   4.494   0.405 -0.5015 -0.0774 -0.7764
   51SOL    HW3  278   2.276   4.626   0.473  0.5375 -1.3923  1.3773
   51SOL    MW4  279   2.301   4.558   0.425  0.0463 -0.8879  0.3973
   52SOL     OW  280   2.308   1.994   0.777  0.0383  0.3640  0.3637
   52SOL    HW2  281   2.272   2.078   0.805 -1.0811 -0.3096  0.9667
   52SOL    HW3  282   2.233   1.935   0.774  0.9905 -0.9031  1.0316
   52SOL    MW4  283   2.293   1.998   0.780  0.0160  0.1079  0.5314
   53SOL     OW  284   3.589   3.456   1.120 -0.2530 -0.1075 -0.1407
   53SOL    HW2  285   3.511   3.501   1.154 -1.7569 -0.3258 -3.1517
   53SOL    HW3  286   3.584   3.467   1.025  1.6283 -2.9696 -0.6458
   53SOL    MW4  287   3.578   3.463   1.112 -0.2031 -0.5140 -0.6046
   54SOL     OW  288   2.330   4.280   0.820  0.1755  0.1003  0.2645
   54SOL    HW2  289   2.321   4.283   0.915  1.2544  0.6022  0.3617
   54SOL    HW3  290   2.423   4.295   0.804  0.0403 -0.1651 -0.8648
   54SOL    MW4  291   2.341   4.282   0.830  0.2999  0.1321  0.1283
   55SOL     OW  292   3.278   0.938   0.475  0.4255  0.0933  0.3863
   55SOL    HW2  293   3.372   0.949   0.462  0.4039  1.3423  1.1493
   55SOL    HW3  294   3.258   0.854   0.436  1.5755  0.5689 -1.2654
   55SOL    MW4  295   3.288   0.928   0.468  0.5744  0.3209  0.2690
   56SOL     OW  296   0.673   1.164   0.699 -0.0467 -0.4372  0.2859
   56SOL    HW2  297   0.649   1.071   0.698 -0.7914 -0.2571  0.7476
   56SOL    HW3  298   0.597   1.208   0.738  0.2548  0.3765 -0.0255
   56SOL    MW4  299   0.660   1.158   0.704 -0.1052 -0.3061  0.3058
   57SOL     OW  300   1.558   3.073   1.057  0.3163  0.1294  0.1913
   57SOL    HW2  301   1.481   3.110   1.100  0.2893 -1.5609  1.6613
   57SOL    HW3  302   1.530   3.056   0.967 -0.4295  1.2771  0.1983
   57SOL    MW4  303   1.544   3.076   1.051  0.2142  0.0577  0.3862
   58SOL     OW  304   1.881   1.927   0.871  0.1189 -0.1043  0.3262
   58SOL    HW2  305   1.966   1.894   0.844  0.4961  0.9493  0.2144
   58SOL    HW3  306   1.880   2.018   0.844 -1.2539 -0.2386 -0.1406
   58SOL    MW4  307   1.892   1.935   0.864 -0.0124  0.0168  0.2499
   59SOL     OW  308   4.082   0.932   0.477 -0.5729 -0.3228 -0.0520
   59SOL    HW2  309   4.177   0.932   0.485 -0.5969  0.5197  0.2055
   59SOL    HW3  310   4.053   0.864   0.539 -0.3286  1.5566  2.1660
   59SOL    MW4  311   4.091   0.923   0.486 -0.5436  0.0364  0.2746
   60SOL     OW  312   1.163   1.536   0.833 -0.0230 -0.2479  0.5593
   60SOL    HW2  313   1.137   1.558   0.922  0.1903  0.5867  0.4230
   60SOL    HW3  314   1.192   1.620   0.795 -0.3020 -0.5553 -0.3538
   60SOL    MW4  315   1.163   1.550   0.840 -0.0316 -0.1782  0.4209
   61SOL     OW  316   1.332   3.720   0.508 -0.0697  0.0511 -0.3674
   61SOL    HW2  317   1.308   3.664   0.435  1.8605  1.0833 -1.8370
   61SOL    HW3  318   1.406   3.677   0.550  0.9024  1.0669 -1.0091
   61SOL    MW4  319   1.339   3.707   0.504  0.3133  0.3214 -0.6460
   62SOL     OW  320   3.328   4.434   0.753  0.3042 -0.1964  0.4230
   62SOL    HW2  321   3.324   4.455   0.659 -0.8262  0.0134  0.5055
   62SOL    HW3  322   3.334   4.520   0.796  0.0441 -0.2493  0.5691
   62SOL    MW4  323   3.328   4.448   0.746  0.1209 -0.1760  0.4532
   63SOL     OW  324   4.040   0.085   0.643 -0.2317  0.5108  0.3227
   63SOL    HW2  325   3.959   0.094   0.692  1.5203  0.1910  3.4382
   63SOL    HW3  326   4.054   0.170   0.602 -1.1610  1.1590  1.3385
   63SOL    MW4  327   4.031   0.097   0.644 -0.1230  0.5541  0.8678
   64SOL     OW  328   1.648   2.279   0.840 -0.5606 -0.1748  0.1596
   64SOL    HW2  329   1.574   2.240   0.793 -0.5263 -0.1651  0.0967
   64SOL    HW3  330   1.725   2.237   0.801 -0.5812 -0.9434  0.9382
   64SOL    MW4  331   1.649   2.268   0.828 -0.5589 -0.2749  0.2540
   65SOL     OW  332   0.796   2.864   0.671  0.2199  0.3295  0.0291
   65SOL    HW2  333   0.774   2.877   0.579  0.3140 -0.5439 -0.1199
   65SOL    HW3  334   0.891   2.870   0.675  0.4099 -2.0606 -0.3380
   65SOL    MW4  335   0.806   2.866   0.660  0.2574 -0.1013 -0.0390
   66SOL     OW  336   1.779   0.114   1.212 -0.6279  0.2901 -0.1843
   66SOL    HW2  337   1.784   0.190   1.153 -1.6317 -0.2939 -1.0254
   66SOL    HW3  338   1.703   0.065   1.181 -0.2597 -0.8124  0.6627
   66SOL    MW4  339   1.770   0.118   1.200 -0.7118  0.0676 -0.1835
   67SOL     OW  340   1.382   1.733   0.494  0.2156 -0.3072 -0.0193
   67SOL    HW2  341   1.328   1.663   0.458 -1.2562  1.1689 -0.7756
   67SOL    HW3  342   1.336   1.762   0.572 -0.0787  0.9262 -0.6348
   67SOL    MW4  343   1.369   1.728   0.499 -0.0174  0.0503 -0.2003
   68SOL     OW  344   3.137   2.686   1.081  0.1712  0.2250  0.1917
   68SOL    HW2  345   3.123   2.687   0.987 -0.2800 -1.0120  0.2314
   68SOL    HW3  346   3.070   2.744   1.117 -1.6798 -1.7255 -0.0195
   68SOL    MW4  347   3.126   2.694   1.074 -0.1323 -0.1955  0.1690
   69SOL     OW  348   1.285   4.352   0.795 -0.1536 -0.1522  0.9269
   69SOL    HW2  349   1.352   4.304   0.746 -0.6314 -0.0095  0.1254
   69SOL    HW3  350   1.202   4.314   0.766 -0.6514  2.2726 -0.9725
   69SOL    MW4  351   1.283   4.341   0.785 -0.2823  0.1864  0.5705
   70SOL     OW  352   0.608   4.299   0.661 -0.5754  0.4828 -0.3067
   70SOL    HW2  353   0.539   4.280   0.724 -0.8656  0.1233 -0.7263
   70SOL    HW3  354   0.689   4.295   0.711 -0.6638 -1.4460 -0.2909
   70SOL    MW4  355   0.609   4.296   0.676 -0.6254  0.1807 -0.3600
   71SOL     OW  356   3.648   0.642   0.496 -0.2399  0.7558 -0.0967
   71SOL    HW2  357   3.734   0.612   0.524 -0.1778  1.7250  0.7873
   71SOL    HW3  358   3.597   0.561   0.484  0.7307  0.1935 -0.4584
   71SOL    MW4  359   3.652   0.627   0.498 -0.1037  0.8096 -0.0278
   72SOL     OW  360   3.996   3.312   0.801  0.2030 -0.4545 -0.0839
   72SOL    HW2  361   3.938   3.241   0.828  1.1764 -1.3209 -0.2175
   72SOL    HW3  362   4.084   3.275   0.812  0.6716 -0.4579 -3.3685
   72SOL    MW4  363   4.000   3.298   0.806  0.3932 -0.5693 -0.5348
   73SOL     OW  364   0.682   1.473   0.345 -0.4548  0.0095 -0.0392
   73SOL    HW2  365   0.748   1.406   0.362 -2.0077 -1.7203 -0.5999
   73SOL    HW3  366   0.658   1.506   0.431 -0.3180 -0.8167  0.3251
   73SOL    MW4  367   0.687   1.468   0.358 -0.6416 -0.3277 -0.0651
   74SOL     OW  368   0.398   2.964   0.559 -0.4308  0.1597 -0.1649
   74SOL    HW2  369   0.418   2.894   0.497  1.0288  0.0121  0.4511
   74SOL    HW3  370   0.412   2.925   0.645 -2.7340  0.2752  0.3044
   74SOL    MW4  371   0.402   2.950   0.562 -0.5421  0.1554 -0.0216
   75SOL     OW  372   3.257   1.218   0.468  0.0918 -0.1702 -0.2389
   75SOL    HW2  373   3.255   1.123   0.458 -0.3324 -0.0917 -0.9686
   75SOL    HW3  374   3.345   1.243   0.442  0.1240 -0.3398 -0.2963
   75SOL    MW4  375   3.268   1.209   0.464  0.0403 -0.1822 -0.3428
   76SOL     OW  376   4.367   0.964   0.494  0.8470 -0.2779 -0.2903
   76SOL    HW2  377   4.360   1.057   0.518 -1.4610 -0.4671 -0.1101
   76SOL    HW3  378   4.457   0.954   0.461  1.3922  1.8205  0.4849
   76SOL    MW4  379   4.378   0.975   0.493  0.6142 -0.0260 -0.1643
   77SOL     OW  380   4.042   1.664   0.744  0.1439  0.0131 -0.3850
   77SOL    HW2  381   4.106   1.597   0.766 -0.4424 -0.4994 -0.2205
   77SOL    HW3  382   4.024   1.652   0.651 -2.3803 -2.1809  0.3416
   77SOL    MW4  383   4.048   1.654   0.735 -0.2666 -0.3439 -0.2676
   78SOL     OW  384   2.555   4.188   0.383 -0.7049 -0.4827  0.0840
   78SOL    HW2  385   2.467   4.152   0.391 -0.5861 -0.8784 -0.3565
   78SOL    HW3  386   2.603   4.151   0.456 -0.6144 -1.1394 -0.3030
   78SOL    MW4  387   2.550   4.178   0.393 -0.6773 -0.6213 -0.0252
   79SOL     OW  388   2.090   0.426   0.807  0.4859  0.3793 -0.1645
   79SOL    HW2  389   2.185   0.417   0.807  0.6139  1.7243 -0.1199
   79SOL    HW3  390   2.058   0.342   0.840  1.6462 -0.1328 -0.3302
   79SOL    MW4  391   2.098   0.413   0.811  0.6557  0.4892 -0.1805
   80SOL     OW  392   3.940   1.271   0.653 -0.0041  0.0401  0.0774
   80SOL    HW2  393   4.001   1.307   0.589  0.5161 -0.8054  0.0987
   80SOL    HW3  394   3.862   1.327   0.646  0.3884  0.4947 -0.6567
   80SOL    MW4  395   3.937   1.283   0.644  0.1166 -0.0116 -0.0166
   81SOL     OW  396   2.630   3.316   0.280 -0.0808 -0.4697  0.0224
   81SOL    HW2  397   2.642   3.409   0.260  1.4537 -0.8859 -1.0835
   81SOL    HW3  398   2.535   3.303   0.280 -0.3328  1.2086  0.7577
   81SOL    MW4  399   2.619   3.326   0.277  0.0885 -0.3030 -0.0265
   82SOL     OW  400   2.713   2.759   0.803  0.1160  0.1385 -0.3598
   82SOL    HW2  401   2.731   2.729   0.892 -0.9542 -0.5682 -0.3672
   82SOL    HW3  402   2.792   2.805   0.776  0.6291 -0.0641  0.7781
   82SOL    MW4  403   2.726   2.761   0.811  0.0424  0.0186 -0.2106
   83SOL     OW  404   2.468   2.088   0.308 -0.1913  0.0562 -0.2959
   83SOL    HW2  405   2.405   2.090   0.235  0.2391  0.6859 -0.6526
   83SOL    HW3  406   2.482   2.180   0.330 -1.1438 -0.1582  1.3100
   83SOL    MW4  407   2.461   2.100   0.301 -0.2601  0.1111 -0.1311
   84SOL     OW  408   1.470   4.179   0.666  0.2289 -0.3170 -0.2665
   84SOL    HW2  409   1.490   4.107   0.725  2.2406 -1.0231 -1.7471
   84SOL    HW3  410   1.452   4.138   0.581 -1.1362  0.7716 -0.5379
   84SOL    MW4  411   1.470   4.164   0.662  0.3142 -0.2670 -0.4976
   85SOL     OW  412   1.225   1.086   0.203 -0.5109  0.1456 -0.2903
   85SOL    HW2  413   1.190   1.019   0.145  0.4268 -1.2586  0.7261
   85SOL    HW3  414   1.162   1.158   0.198 -0.6549 -0.1247 -2.6881
   85SOL    MW4  415   1.212   1.087   0.195 -0.4060 -0.0753 -0.4725
   86SOL     OW  416   2.765   1.030   0.423  0.4758  0.1631  0.1397
   86SOL    HW2  417   2.780   1.107   0.368 -0.2275  0.9204  1.0176
   86SOL    HW3  418   2.673   1.034   0.447  0.6792 -0.3824  1.0526
   86SOL    MW4  419   2.755   1.041   0.419  0.4098  0.1911  0.3760
   87SOL     OW  420   3.141   1.722   0.762  0.0560  0.1186  0.0764
   87SOL    HW2  421   3.189   1.670   0.827 -0.1190  1.4415  1.2958
   87SOL    HW3  422   3.205   1.738   0.692  1.2842  1.4634  1.4604
   87SOL    MW4  423   3.156   1.717   0.761  0.1950  0.4706  0.4198
   88SOL     OW  424   4.359   2.008   0.353 -0.3546  0.7141  0.0875
   88SOL    HW2  425   4.320   1.923   0.335 -0.1864  0.6711 -0.0774
   88SOL    HW3  426   4.285   2.068   0.357 -0.4562  0.5969 -0.0079
   88SOL    MW4  427   4.344   2.005   0.351 -0.3457  0.6931  0.0532
   89SOL     OW  428   0.612   4.072   0.493 -0.2875  0.2852  0.3918
   89SOL    HW2  429   0.541   4.009   0.506  0.3988 -0.1129  2.3017
   89SOL    HW3  430   0.601   4.135   0.564  0.6325  0.8274  0.0547
   89SOL    MW4  431   0.601   4.072   0.504 -0.0756  0.3042  0.5993
   90SOL     OW  432   0.857   0.741   0.685 -0.1049  0.1356  0.4044
   90SOL    HW2  433   0.785   0.713   0.741 -0.0598 -0.5399  0.1280
   90SOL    HW3  434   0.935   0.709   0.729 -0.1036 -0.8783 -0.3190
   90SOL    MW4  435   0.858   0.733   0.698 -0.0988 -0.0873  0.2725
   91SOL     OW  436   2.418   3.853   0.826 -0.3291  0.1537 -0.0774
   91SOL    HW2  437   2.423   3.766   0.785 -1.2403  0.2505 -0.4213
   91SOL    HW3  438   2.369   3.906   0.763  0.6176  1.0494 -0.0734
   91SOL    MW4  439   2.412   3.848   0.813 -0.3242  0.2847 -0.1222
   92SOL     OW  440   0.427   2.850   0.810 -0.1351 -0.1345  0.0943
   92SOL    HW2  441   0.345   2.874   0.853 -0.4135  2.7672 -1.8514
   92SOL    HW3  442   0.493   2.905   0.851  0.3089 -0.3644 -0.3058
   92SOL    MW4  443   0.425   2.861   0.821 -0.1132  0.2179 -0.2152
   93SOL     OW  444   2.773   0.377   0.647  0.1330  0.0188  0.2380
   93SOL    HW2  445   2.769   0.282   0.643 -0.3628  0.0479  0.0894
   93SOL    HW3  446   2.867   0.397   0.647  0.2353 -0.4653  0.1859
   93SOL    MW4  447   2.785   0.367   0.646  0.0813 -0.0412  0.2115
   94SOL     OW  448   0.361   3.934   0.837  0.0385 -0.4186 -0.4897
   94SOL    HW2  449   0.448   3.894   0.838  0.9406  1.4791  0.7778
   94SOL    HW3  450   0.329   3.923   0.927 -0.4930 -0.0046 -0.6248
   94SOL    MW4  451   0.368   3.927   0.849  0.0874 -0.1137 -0.3402
   95SOL     OW  452   3.158   1.985   0.862 -0.1735 -0.2777  0.3029
   95SOL    HW2  453   3.142   1.968   0.955 -0.3759  0.5775  0.4285
   95SOL    HW3  454   3.151   1.899   0.820 -2.8257 -0.3040  0.6992
   95SOL    MW4  455   3.155   1.972   0.869 -0.5500 -0.1683  0.3717
   96SOL     OW  456   0.888   3.376   0.716 -0.4033 -0.0508  0.1393
   96SOL    HW2  457   0.947   3.306   0.745 -2.0536 -1.5336  0.0371
   96SOL    HW3  458   0.884   3.366   0.621  0.8162  1.4097 -0.0886
   96SOL    MW4  459   0.895   3.365   0.707 -0.4601 -0.0536  0.0957
   97SOL     OW  460   1.109   0.065   0.823  0.4176 -0.1936  0.2176
   97SOL    HW2  461   1.104   0.160   0.815 -1.2102 -0.3383 -0.6767
   97SOL    HW3  462   1.180   0.040   0.764  0.8566  0.4540  0.4620
   97SOL    MW4  463   1.118   0.074   0.814  0.2606 -0.1273  0.1318
   98SOL     OW  464   2.870   4.613   0.396  0.1267  0.0289 -0.2378
   98SOL    HW2  465   2.854   4.665   0.475  1.2002  0.7340 -0.4593
   98SOL    HW3  466   2.783   4.589   0.365 -0.3591  0.8620  0.4322
   98SOL    MW4  467   2.857   4.617   0.402  0.2041  0.2322 -0.1786
   99SOL     OW  468   4.324   1.219   0.585 -0.3274  0.7845 -0.3859
   99SOL    HW2  469   4.408   1.263   0.579  0.3971 -0.5873 -0.3491
   99SOL    HW3  470   4.313   1.200   0.678 -0.5062  0.6171 -0.4406
   99SOL    MW4  471   4.333   1.222   0.596 -0.2551  0.5814 -0.3883
  100SOL     OW  472   0.791   0.292   0.907 -0.3097 -0.2320  0.1819
  100SOL    HW2  473   0.738   0.349   0.850 -0.2733  0.5476  0.9181
  100SOL    HW3  474   0.755   0.204   0.893  0.8984 -0.3636 -2.4489
  100SOL    MW4  475   0.779   0.288   0.898 -0.1456 -0.1465 -0.0681
  101SOL     OW  476   4.294   4.665   1.086  0.0077  0.8728 -0.3163
  101SOL    HW2  477   4.222   4.720   1.117 -0.2318  0.6402 -0.4611
  101SOL    HW3  478   4.282   4.662   0.991 -0.3231  0.0938 -0.2553
  101SOL    MW4  479   4.283   4.672   1.077 -0.0672  0.7391 -0.3275
  102SOL     OW  480   2.472   3.602   0.715 -0.0863  0.2323 -0.1307
  102SOL    HW2  481   2.558   3.568   0.737 -1.0370 -1.4756  1.0686
  102SOL    HW3  482   2.467   3.597   0.620  1.7407  1.8982 -0.3392
  102SOL    MW4  483   2.483   3.597   0.705  0.0293  0.2270  0.0001
  103SOL     OW  484   0.258   2.380   0.369  0.1862 -0.1673  0.4871
  103SOL    HW2  485   0.234   2.471   0.358 -0.0320 -0.3880 -0.8694
  103SOL    HW3  486   0.175   2.332   0.369  0.4338 -0.6359 -1.4545
  103SOL    MW4  487   0.244   2.385   0.368  0.1900 -0.2580  0.0519
  104SOL     OW  488   4.126   3.103   0.495 -0.0166  0.2169 -0.6470
  104SOL    HW2  489   4.145   3.048   0.419  1.5077 -0.2380  0.0359
  104SOL    HW3  490   4.076   3.176   0.460  0.0662 -0.3470 -1.9723
  104SOL    MW4  491   4.122   3.105   0.481  0.1955  0.0823 -0.7318
  105SOL     OW  492   2.297   2.234   0.521 -0.4107 -0.2314  0.1713
  105SOL    HW2  493   2.215   2.210   0.479  0.0604 -1.1070 -0.2666
  105SOL    HW3  494   2.342   2.290   0.457 -1.7964  2.4379  1.4526
  105SOL    MW4  495   2.292   2.239   0.507 -0.5314  0.0052  0.2825
  106SOL     OW  496   2.244   0.376   1.116 -0.3659  0.3083 -0.1465
  106SOL    HW2  497   2.315   0.423   1.159 -0.5223  0.2937  0.1258
  106SOL    HW3  498   2.270   0.372   1.024  0.1427  0.0107  0.0122
  106SOL    MW4  499   2.256   0.382   1.109 -0.3192  0.2671 -0.0896
  107SOL     OW  500   1.649   1.005   0.502  0.2106 -0.0504  0.1527
  107SOL    HW2  501   1.640   0.995   0.597 -1.2678 -0.1688  0.0065
  107SOL    HW3  502   1.568   1.048   0.475  0.7151  0.1598 -1.0347
  107SOL    MW4  503   1.637   1.009   0.511  0.0820 -0.0381 -0.0232
  108SOL     OW  504   4.265   3.712   0.566  0.0776  0.0573  0.0534
  108SOL    HW2  505   4.259   3.762   0.648  1.0701  1.3181 -0.6330
  108SOL    HW3  506   4.228   3.626   0.588 -1.4072  0.9886  1.3243
  108SOL    MW4  507   4.259   3.707   0.580  0.0134  0.3467  0.1305
  109SOL     OW  508   3.844   3.610   0.267  0.0716  0.2327  0.4649
  109SOL    HW2  509   3.936   3.627   0.246 -0.5080  1.8949 -0.7838
  109SOL    HW3  510   3.821   3.533   0.215  1.0086 -0.7691  1.5095
  109SOL    MW4  511   3.853   3.602   0.257  0.1185  0.3197  0.4379
  110SOL     OW  512   3.497   3.366   0.441 -0.0230 -0.1582 -0.0607
  110SOL    HW2  513   3.410   3.326   0.435  0.0905 -0.1622 -2.1105
  110SOL    HW3  514   3.480   3.458   0.463 -0.3613 -0.8556  2.8503
  110SOL    MW4  515   3.483   3.373   0.443 -0.0529 -0.2506  0.0530
  111SOL     OW  516   2.437   1.277   1.156  0.9778  0.5347  0.5145
  111SOL    HW2  517   2.524   1.239   1.148  0.7362 -0.1727  1.1706
  111SOL    HW3  518   2.377   1.202   1.155  0.3454  1.0373 -0.3490
  111SOL    MW4  519   2.440   1.262   1.155  0.8624  0.5077  0.4872
  112SOL     OW  520   3.817   3.079   0.825  0.2074 -0.0358 -0.4746
  112SOL    HW2  521   3.744   3.110   0.771 -1.2327 -0.7945  0.9832
  112SOL    HW3  522   3.841   2.995   0.787  0.0776  0.0493 -0.7477
  112SOL    MW4  523   3.810   3.072   0.813  0.0002 -0.1249 -0.3183
  113SOL     OW  524   1.816   3.368   0.135  0.1432 -0.0105 -0.2426
  113SOL    HW2  525   1.805   3.405   0.047 -0.6744 -0.5516 -0.3776
  113SOL    HW3  526   1.739   3.398   0.183  0.1775 -0.3835  0.0465
  113SOL    MW4  527   1.804   3.377   0.129  0.0398 -0.1311 -0.2223
  114SOL     OW  528   0.409   2.442   0.625 -0.6215  0.7579  0.0043
  114SOL    HW2  529   0.352   2.399   0.562 -1.2497 -0.2267  1.2094
  114SOL    HW3  530   0.358   2.444   0.706  0.3440  1.5652  0.6097
  114SOL    MW4  531   0.395   2.437   0.627 -0.5770  0.7346  0.2431
  115SOL     OW  532   1.767   3.229   1.171 -0.2984 -0.1963 -0.6635
  115SOL    HW2  533   1.704   3.169   1.131 -0.2098 -0.9956  0.3793
  115SOL    HW3  534   1.750   3.223   1.265  0.6888  0.3156 -0.4430
  115SOL    MW4  535   1.756   3.220   1.178 -0.1565 -0.2344 -0.4967
  116SOL     OW  536   3.799   4.307   0.126 -0.1131  0.0282 -0.2814
  116SOL    HW2  537   3.723   4.312   0.067 -0.8262 -0.0177  0.6287
  116SOL    HW3  538   3.824   4.398   0.141 -0.2417  0.0598 -0.2584
  116SOL    MW4  539   3.792   4.320   0.120 -0.2241  0.0262 -0.1583
  117SOL     OW  540   1.623   2.545   0.735  0.0104  0.3429  0.0515
  117SOL    HW2  541   1.633   2.458   0.774 -0.4368 -0.7696 -2.2312
  117SOL    HW3  542   1.532   2.547   0.705  0.1909  1.3871 -0.4188
  117SOL    MW4  543   1.612   2.534   0.736 -0.0249  0.3340 -0.3117
  118SOL     OW  544   4.270   4.040   0.484 -0.0375 -0.0504  0.4096
  118SOL    HW2  545   4.325   4.017   0.559  1.1493 -1.7716 -0.9705
  118SOL    HW3  546   4.308   4.120   0.450  1.1296 -0.7825 -0.0337
  118SOL    MW4  547   4.282   4.047   0.489  0.2728 -0.3743  0.1691
  119SOL     OW  548   1.246   3.123   0.346  0.1588  0.0629  0.0663
  119SOL    HW2  549   1.338   3.149   0.349  0.0604  0.5939 -1.1531
  119SOL    HW3  550   1.247   3.028   0.338  0.5555 -0.1849  2.8190
  119SOL    MW4  551   1.258   3.114   0.345  0.1980  0.1004  0.2686
  120SOL     OW  552   3.982   2.352   0.294  0.3119 -0.1523  0.0456
  120SOL    HW2  553   3.889   2.370   0.310  0.2618  0.6178 -1.1339
  120SOL    HW3  554   4.028   2.425   0.336  0.3892 -0.4689  0.5213
  120SOL    MW4  555   3.976   2.364   0.302  0.3154 -0.0925 -0.0473
  121SOL     OW  556   0.458   1.849   0.497 -0.5133 -0.3479  0.1476
  121SOL    HW2  557   0.500   1.851   0.583 -1.3923 -2.0857  0.6461
  121SOL    HW3  558   0.454   1.756   0.475 -1.4319  0.0046 -1.2149
  121SOL    MW4  559   0.463   1.837   0.506 -0.7505 -0.5306  0.0337
  122SOL     OW  560   4.370   1.496   0.318 -0.2218 -0.2158 -0.2842
  122SOL    HW2  561   4.299   1.442   0.352  0.4064 -1.1136 -0.3808
  122SOL    HW3  562   4.325   1.567   0.271 -1.0578 -0.2186  0.5008
  122SOL    MW4  563   4.354   1.498   0.316 -0.2499 -0.3347 -0.1934
  123SOL     OW  564   0.475   2.789   0.363 -0.1030  0.3482  0.2784
  123SOL    HW2  565   0.543   2.856   0.369 -0.0089  0.3786 -0.9741
  123SOL    HW3  566   0.514   2.711   0.404  1.7235 -0.4225 -2.7788
  123SOL    MW4  567   0.489   2.787   0.369  0.1504  0.2503 -0.2902
  124SOL     OW  568   1.410   0.331   0.814  0.3556  0.5784  0.0198
  124SOL    HW2  569   1.493   0.379   0.817  0.6882 -0.0577  2.2968
  124SOL    HW3  570   1.435   0.239   0.820 -0.3854  0.2006 -2.2229
  124SOL    MW4  571   1.424   0.325   0.815  0.3018  0.4446  0.0243
  125SOL     OW  572   0.607   2.591   0.485  0.4687  0.5968  0.7005
  125SOL    HW2  573   0.689   2.583   0.534  0.6047 -1.8691  0.1540
  125SOL    HW3  574   0.541   2.552   0.543  0.2949 -0.5408 -0.2477
  125SOL    MW4  575   0.609   2.585   0.499  0.4638  0.1214  0.5033
  126SOL     OW  576   0.211   0.808   0.789 -0.1077 -0.1280  0.3288
  126SOL    HW2  577   0.198   0.813   0.884 -0.4617 -0.5643  0.3036
  126SOL    HW3  578   0.125   0.786   0.754  0.0013  0.1280 -0.1048
  126SOL    MW4  579   0.198   0.806   0.797 -0.1400 -0.1518  0.2682
  127SOL     OW  580   0.392   0.784   0.357  0.0705  0.3001  0.2042
  127SOL    HW2  581   0.463   0.848   0.362 -0.1328  0.4522  1.1550
  127SOL    HW3  582   0.436   0.701   0.341  0.4088  0.5185 -0.0017
  127SOL    MW4  583   0.407   0.781   0.356  0.0883  0.3490  0.3024
  128SOL     OW  584   2.224   0.982   0.417  0.0844 -0.0420 -0.1632
  128SOL    HW2  585   2.313   1.000   0.448  0.4396 -1.1662 -0.4826
  128SOL    HW3  586   2.204   0.895   0.453 -1.5961  0.9710  1.4416
  128SOL    MW4  587   2.233   0.973   0.426 -0.0904 -0.0567  0.0064
  129SOL     OW  588   3.681   3.669   0.492  0.1620 -0.0694 -0.0371
  129SOL    HW2  589   3.607   3.724   0.466 -0.5214 -0.9251  0.0841
  129SOL    HW3  590   3.710   3.627   0.410  0.8102  0.6135 -0.1647
  129SOL    MW4  591   3.675   3.671   0.477  0.1574 -0.0920 -0.0379
  130SOL     OW  592   2.922   2.932   0.421 -0.0227 -0.1806 -0.2259
  130SOL    HW2  593   2.877   3.016   0.417  0.7507  0.3204  1.0671
  130SOL    HW3  594   2.931   2.914   0.515  1.2174 -0.9423 -0.4777
  130SOL    MW4  595   2.917   2.941   0.433  0.2432 -0.2151 -0.0885
  131SOL     OW  596   2.627   0.595   0.554  0.2060 -0.2306 -0.8184
  131SOL    HW2  597   2.671   0.511   0.568 -1.4738 -1.0652 -0.4382
  131SOL    HW3  598   2.691   0.647   0.505  1.9223 -1.1188  0.3967
  131SOL    MW4  599   2.642   0.591   0.550  0.2108 -0.4579 -0.6080
  132SOL     OW  600   3.923   4.204   0.345  0.2161  0.2942 -0.2308
  132SOL    HW2  601   4.014   4.233   0.347 -0.4384  2.5524 -1.3409
  132SOL    HW3  602   3.894   4.225   0.256 -1.5912  0.2407  0.3343
  132SOL    MW4  603   3.931   4.211   0.333 -0.1090  0.5846 -0.3028
  133SOL     OW  604   1.843   4.286   0.789  0.6332 -0.2099  0.1215
  133SOL    HW2  605   1.845   4.193   0.766  0.4562 -0.1562 -0.1106
  133SOL    HW3  606   1.831   4.287   0.884 -1.4728 -0.4013 -0.1196
  133SOL    MW4  607   1.842   4.274   0.798  0.3319 -0.2284  0.0590
  134SOL     OW  608   3.121   1.931   1.135  0.3915 -0.3824  0.2210
  134SOL    HW2  609   3.039   1.976   1.156 -0.7786 -1.5828 -1.6756
  134SOL    HW3  610   3.110   1.843   1.170 -0.2949 -1.4110 -2.4770
  134SOL    MW4  611   3.109   1.926   1.142  0.1466 -0.6764 -0.3850
  135SOL     OW  612   3.589   1.952   0.857  0.1563  0.3531  0.0936
  135SOL    HW2  613   3.670   1.977   0.813  0.0294 -1.1566 -1.0356
  135SOL    HW3  614   3.614   1.940   0.949  0.5490  2.9365  0.3573
  135SOL    MW4  615   3.603   1.954   0.864  0.1915  0.4947 -0.0207
  136SOL     OW  616   1.829   2.736   1.051  0.1152  0.1705 -0.4515
  136SOL    HW2  617   1.903   2.778   1.095 -0.3637  1.3043 -0.7172
  136SOL    HW3  618   1.833   2.645   1.080  1.4840  0.2621 -0.2896
  136SOL    MW4  619   1.840   2.729   1.060  0.2326  0.3324 -0.4650
  137SOL     OW  620   0.032   1.873   0.575 -0.1771  0.5713 -0.0907
  137SOL    HW2  621  -0.038   1.906   0.520  0.7973  0.7540 -1.2630
  137SOL    HW3  622   0.101   1.939   0.569  0.4299 -0.0105  0.3378
  137SOL    MW4  623   0.032   1.886   0.567  0.0315  0.5186 -0.1888
  138SOL     OW  624   0.717   1.485   0.618  0.4990  0.5962  0.5227
  138SOL    HW2  625   0.809   1.473   0.640  0.6826  1.0252 -0.0131
  138SOL    HW3  626   0.670   1.458   0.697  1.1083  1.1415  1.0773
  138SOL    MW4  627   0.723   1.480   0.631  0.6036  0.7249  0.5252
  139SOL     OW  628   0.751   2.942   0.403  0.1202 -0.1088  0.2541
  139SOL    HW2  629   0.734   3.026   0.360 -0.7057  0.0667  0.9094
  139SOL    HW3  630   0.828   2.907   0.358 -0.0718  0.5802 -0.6317
  139SOL    MW4  631   0.759   2.948   0.391 -0.0141  0.0052  0.2237
  140SOL     OW  632   2.821   0.822   0.894 -0.1006  0.3089 -0.0374
  140SOL    HW2  633   2.751   0.757   0.892  0.3849 -0.2375  0.4070
  140SOL    HW3  634   2.854   0.819   0.984  1.2844 -0.3215 -0.5414
  140SOL    MW4  635   2.816   0.813   0.905  0.1464  0.1537 -0.0453
  141SOL     OW  636   2.264   1.395   0.828  0.1157  0.4124 -0.2490
  141SOL    HW2  637   2.254   1.378   0.735 -0.5163  0.7955 -0.2515
  141SOL    HW3  638   2.359   1.395   0.842  0.1901 -0.4980 -0.7249
  141SOL    MW4  639   2.275   1.393   0.818  0.0422  0.3428 -0.3122
  142SOL     OW  640   1.557   3.224   0.680 -0.5174 -0.0591  0.2209
  142SOL    HW2  641   1.550   3.132   0.704  0.5522  0.0202  0.8423
  142SOL    HW3  642   1.650   3.245   0.690 -0.7311  1.0526 -0.0529
  142SOL    MW4  643   1.568   3.215   0.684 -0.4045  0.0978  0.2668
  143SOL     OW  644   3.863   2.733   0.456 -0.1159  0.1140 -0.2008
  143SOL    HW2  645   3.926   2.662   0.451  0.2915  0.5362 -1.1596
  143SOL    HW3  646   3.778   2.689   0.463  0.2194 -0.4539  0.3427
  143SOL    MW4  647   3.860   2.718   0.457 -0.0181  0.0949 -0.2556
  144SOL     OW  648   2.775   3.158   0.454 -0.4744  0.0274  0.2044
  144SOL    HW2  649   2.710   3.205   0.401 -0.8902 -0.3456  0.3836
  144SOL    HW3  650   2.852   3.215   0.453 -0.1140 -0.4642 -1.6717
  144SOL    MW4  651   2.776   3.172   0.447 -0.4816 -0.0865 -0.0195
  145SOL     OW  652   3.314   3.915   0.820 -0.5018 -0.0653 -0.1135
  145SOL    HW2  653   3.385   3.960   0.775 -0.9942  0.0452 -0.7804
  145SOL    HW3  654   3.338   3.921   0.913  0.3901 -0.0957 -0.3337
  145SOL    MW4  655   3.327   3.922   0.827 -0.4489 -0.0544 -0.2305
  146SOL     OW  656   3.170   2.448   0.774 -0.2043 -0.3806 -0.5886
  146SOL    HW2  657   3.225   2.415   0.844 -1.4721  0.0704  0.6330
  146SOL    HW3  658   3.087   2.402   0.784 -0.9177  0.8340 -0.8209
  146SOL    MW4  659   3.167   2.438   0.784 -0.4656 -0.1609 -0.4581
  147SOL     OW  660   4.086   3.491   1.106  0.1527 -0.0942 -0.0541
  147SOL    HW2  661   4.107   3.504   1.013  0.0950  0.7091  0.0475
  147SOL    HW3  662   4.003   3.538   1.118  0.0509 -0.3834  0.3552
  147SOL    MW4  663   4.078   3.499   1.095  0.1316 -0.0262  0.0132
  148SOL     OW  664   0.447   4.196   0.871 -0.6493 -0.1500 -0.1032
  148SOL    HW2  665   0.418   4.105   0.857 -1.3270 -0.1889  1.3692
  148SOL    HW3  666   0.456   4.203   0.966  0.7193  0.9424 -0.2994
  148SOL    MW4  667   0.444   4.185   0.882 -0.5581 -0.0110  0.0652
  149SOL     OW  668   0.869   3.837   0.773  0.0445 -0.4731 -0.0094
  149SOL    HW2  669   0.928   3.899   0.816 -1.1516 -0.1766  1.2682
  149SOL    HW3  670   0.881   3.853   0.680  1.1898  0.3224  0.2683
  149SOL    MW4  671   0.878   3.848   0.767  0.0378 -0.3290  0.1957
  150SOL     OW  672   3.715   2.371   0.351 -0.0444  0.5995 -0.4788
  150SOL    HW2  673   3.702   2.297   0.410 -0.1237  0.1348 -1.0666
  150SOL    HW3  674   3.667   2.443   0.391 -0.1844  0.2617 -0.0339
  150SOL    MW4  675   3.707   2.371   0.364 -0.0734  0.4938 -0.4976
  151SOL     OW  676   3.837   2.849   1.202 -0.3818  0.1622 -0.2624
  151SOL    HW2  677   3.762   2.812   1.156 -0.8842 -0.1434  0.8001
  151SOL    HW3  678   3.818   2.835   1.295  0.3192  1.3730  0.0716
  151SOL    MW4  679   3.825   2.842   1.208 -0.3557  0.2813 -0.0781
  152SOL     OW  680   0.662   0.057   0.866  0.0173  0.0723 -0.1138
  152SOL    HW2  681   0.582   0.051   0.814 -0.6742  0.3435  0.9220
  152SOL    HW3  682   0.633   0.048   0.957  1.0204  1.2873  0.3446
  152SOL    MW4  683   0.648   0.055   0.871  0.0584  0.2684  0.0833
  153SOL     OW  684   0.847   1.526   0.139 -0.1102  0.0115 -0.0659
  153SOL    HW2  685   0.791   1.517   0.062  1.0384  0.2874 -0.9451
  153SOL    HW3  686   0.788   1.512   0.213 -1.3103  0.1600 -0.9785
  153SOL    MW4  687   0.832   1.523   0.138 -0.1170  0.0675 -0.3023
  154SOL     OW  688   0.483   2.237   0.235  0.0683  0.2789  0.5023
  154SOL    HW2  689   0.552   2.297   0.261  1.4245 -1.3675  0.7606
  154SOL    HW3  690   0.402   2.282   0.259  1.0818  1.6467  1.4312
  154SOL    MW4  691   0.481   2.250   0.241  0.3810  0.2422  0.6589
  155SOL     OW  692   3.368   2.743   0.443  0.1053 -0.2369 -0.0343
  155SOL    HW2  693   3.319   2.819   0.411  0.5502  1.0937  2.2898
  155SOL    HW3  694   3.301   2.677   0.460 -0.9230  1.3894  2.6198
  155SOL    MW4  695   3.352   2.744   0.441  0.0286  0.1533  0.6225
  156SOL     OW  696   3.564   0.908   0.794 -0.3148  0.0900  0.1232
  156SOL    HW2  697   3.571   0.889   0.700  0.7832 -1.1476  0.4392
  156SOL    HW3  698   3.543   1.001   0.798 -0.2850  0.1799 -1.3515
  156SOL    MW4  699   3.562   0.918   0.782 -0.1659 -0.0614 -0.0297
  157SOL     OW  700   4.125   4.617   0.404  0.3990  0.1449  0.0951
  157SOL    HW2  701   4.096   4.643   0.492  0.3307  0.0252  0.1069
  157SOL    HW3  702   4.206   4.666   0.391  1.0533 -0.7470  0.7127
  157SOL    MW4  703   4.132   4.627   0.414  0.4764  0.0114  0.1781
  158SOL     OW  704   4.189   1.778   0.293  0.2788  0.6090  0.1625
  158SOL    HW2  705   4.139   1.723   0.354  0.4182  1.6146  1.2124
  158SOL    HW3  706   4.122   1.820   0.239  0.1285  0.0598 -0.0840
  158SOL    MW4  707   4.174   1.776   0.294  0.2775  0.6692  0.2685
  159SOL     OW  708   3.350   4.659   0.309 -0.6178  0.9592  0.1150
  159SOL    HW2  709   3.260   4.691   0.315 -0.8395  0.7241 -1.6160
  159SOL    HW3  710   3.379   4.686   0.222 -0.3720 -2.3796 -0.9255
  159SOL    MW4  711   3.342   4.667   0.298 -0.6146  0.4873 -0.2507
  160SOL     OW  712   0.547   3.530   0.843 -0.2681  0.0047  0.2411
  160SOL    HW2  713   0.590   3.446   0.825 -0.2035  0.4710 -1.8775
  160SOL    HW3  714   0.468   3.528   0.791 -0.0158  1.4745 -0.2279
  160SOL    MW4  715   0.543   3.518   0.834 -0.2263  0.2604 -0.1003
  161SOL     OW  716   1.245   1.797   0.727  0.0670  0.0920  0.3754
  161SOL    HW2  717   1.166   1.850   0.711  0.4870  0.4913 -0.4007
  161SOL    HW3  718   1.294   1.846   0.793 -0.6986 -0.5462  1.4374
  161SOL    MW4  719   1.241   1.810   0.734  0.0213  0.0604  0.4131
  162SOL     OW  720   3.895   1.285   0.263 -0.3638  0.0896 -0.1888
  162SOL    HW2  721   3.856   1.221   0.323 -0.2152  0.7784  0.6521
  162SOL    HW3  722   3.822   1.335   0.228 -0.6260 -1.4922 -1.9926
  162SOL    MW4  723   3.880   1.283   0.266 -0.3788 -0.0283 -0.3158
  163SOL     OW  724   3.728   1.944   0.238 -0.6798 -0.1324  0.0370
  163SOL    HW2  725   3.719   2.006   0.310 -1.8036  0.1086 -0.2968
  163SOL    HW3  726   3.734   1.998   0.160 -1.1406 -0.4170 -0.2032
  163SOL    MW4  727   3.727   1.959   0.237 -0.8888 -0.1382 -0.0387
  164SOL     OW  728   3.033   1.809   0.352  0.5317 -0.2339 -0.2361
  164SOL    HW2  729   3.021   1.903   0.363  0.0866 -0.3720  0.5203
  164SOL    HW3  730   3.119   1.791   0.390 -0.4373 -0.4989  1.9509
  164SOL    MW4  731   3.043   1.819   0.359  0.3452 -0.2871  0.1522
  165SOL     OW  732   0.094   2.979   0.629  0.2170 -0.0942  0.0992
  165SOL    HW2  733   0.108   2.940   0.715  0.6486 -1.6372 -0.6521
  165SOL    HW3  734   0.181   3.008   0.601 -0.0336  1.0553  0.4710
  165SOL    MW4  735   0.107   2.978   0.637  0.2409 -0.1462  0.0491
  166SOL     OW  736   1.433   1.943   0.870 -0.1486  0.1020 -0.2694
  166SOL    HW2  737   1.516   1.906   0.842 -0.4721  0.1856 -1.3977
  166SOL    HW3  738   1.430   2.029   0.828  0.3640  1.1941  1.9006
  166SOL    MW4  739   1.443   1.949   0.861 -0.1237  0.2571 -0.1319
  167SOL     OW  740   0.542   1.241   0.452 -0.2181 -0.6502  0.5022
  167SOL    HW2  741   0.585   1.308   0.399 -1.0531 -0.3118  0.2517
  167SOL    HW3  742   0.603   1.226   0.525  1.5841 -2.1207 -1.2628
  167SOL    MW4  743   0.556   1.248   0.455 -0.0905 -0.7995  0.2363
  168SOL     OW  744   1.520   2.886   0.486 -0.0341  0.4473 -0.5219
  168SOL    HW2  745   1.519   2.887   0.582 -1.7523  1.2989 -0.5310
  168SOL    HW3  746   1.611   2.864   0.463 -0.0430 -1.6811  1.3072
  168SOL    MW4  747   1.532   2.883   0.496 -0.2619  0.2789 -0.2818
  169SOL     OW  748   1.196   0.719   0.380  0.5288  0.4063  0.3186
  169SOL    HW2  749   1.205   0.796   0.435 -0.7911  0.7761  0.0306
  169SOL    HW3  750   1.202   0.752   0.291  1.3137 -0.0113  0.2131
  169SOL    MW4  751   1.198   0.733   0.376  0.4582  0.4000  0.2667
  170SOL     OW  752   1.650   3.921   0.308  0.1735 -0.6239 -0.1814
  170SOL    HW2  753   1.571   3.958   0.348  0.6734 -1.3829  1.5367
  170SOL    HW3  754   1.650   3.829   0.334  1.9629 -0.4835  0.3746
  170SOL    MW4  755   1.639   3.914   0.316  0.4754 -0.7057  0.1186
  171SOL     OW  756   0.600   3.796   0.848  0.1480  0.3759  0.7230
  171SOL    HW2  757   0.690   3.814   0.822 -0.2071 -0.3670 -1.1134
  171SOL    HW3  758   0.596   3.701   0.855 -0.3350  0.4471  1.3756
  171SOL    MW4  759   0.611   3.786   0.845  0.0374  0.2873  0.5668
  172SOL     OW  760   3.160   0.111   0.655  0.0521  0.8051  0.6261
  172SOL    HW2  761   3.078   0.090   0.702 -0.4774 -1.5637 -1.2929
  172SOL    HW3  762   3.229   0.085   0.716 -0.6158  1.3142  1.6205
  172SOL    MW4  763   3.158   0.105   0.670 -0.1061  0.5598  0.5041
  173SOL     OW  764   1.273   2.196   0.494 -0.1041  0.5014 -0.0632
  173SOL    HW2  765   1.302   2.144   0.419  1.3264  0.5610  0.4148
  173SOL    HW3  766   1.331   2.272   0.494 -0.0084  0.4475  1.1460
  173SOL    MW4  767   1.285   2.199   0.484  0.0973  0.5021  0.1594
  174SOL     OW  768   3.003   1.375   0.462  0.1272 -0.1902 -0.2104
  174SOL    HW2  769   3.090   1.342   0.439 -0.2089 -0.8768 -0.5122
  174SOL    HW3  770   2.967   1.309   0.521 -0.3670 -0.1271 -0.4390
  174SOL    MW4  771   3.010   1.362   0.467  0.0179 -0.2725 -0.2804
  175SOL     OW  772   1.618   0.996   0.775 -0.3643 -0.2744 -0.3389
  175SOL    HW2  773   1.621   0.902   0.792 -0.6615 -0.0467  1.1062
  175SOL    HW3  774   1.692   1.031   0.824 -0.0250  0.2040 -1.1880
  175SOL    MW4  775   1.628   0.988   0.784 -0.3588 -0.1813 -0.2603
  176SOL     OW  776   2.703   2.460   0.725 -0.1582 -0.3157 -0.1690
  176SOL    HW2  777   2.787   2.438   0.764  0.0739  0.9931  0.0860
  176SOL    HW3  778   2.693   2.554   0.741 -1.1972 -0.2632 -1.0823
  176SOL    MW4  779   2.713   2.469   0.732 -0.2646 -0.1364 -0.2559
  177SOL     OW  780   1.866   0.412   0.621 -0.3335  0.4164 -0.1192
  177SOL    HW2  781   1.871   0.453   0.535 -0.7470  0.2434 -0.2267
  177SOL    HW3  782   1.955   0.419   0.656 -0.6486  2.4613  0.3663
  177SOL    MW4  783   1.879   0.418   0.614 -0.4296  0.6634 -0.0694
  178SOL     OW  784   4.388   3.877   0.284 -0.0984  0.0247 -0.4273
  178SOL    HW2  785   4.345   3.920   0.359 -1.0260 -2.5732  0.5765
  178SOL    HW3  786   4.316   3.839   0.234  0.4898  2.0260 -2.9004
  178SOL    MW4  787   4.373   3.878   0.287 -0.1435 -0.0541 -0.6212
  179SOL     OW  788   4.435   4.192   0.819 -0.2119 -0.0300 -0.3190
  179SOL    HW2  789   4.359   4.224   0.771  0.4036  0.1572 -1.2077
  179SOL    HW3  790   4.427   4.229   0.906 -1.4921 -0.5730 -0.1955
  179SOL    MW4  791   4.424   4.201   0.824 -0.2995 -0.0763 -0.4200
  180SOL     OW  792   2.914   2.322   0.832  0.2804  0.6748  0.1329
  180SOL    HW2  793   2.941   2.239   0.791  0.7781  0.3743  1.0552
  180SOL    HW3  794   2.926   2.307   0.926 -1.4026  1.1493  0.4486
  180SOL    MW4  795   2.919   2.309   0.839  0.1240  0.6976  0.2963
  181SOL     OW  796   3.253   3.230   0.476  0.2813 -0.1391  0.2208
  181SOL    HW2  797   3.223   3.218   0.566  0.7978  1.1038  0.5695
  181SOL    HW3  798   3.177   3.264   0.429  0.4002  0.5102  0.5001
  181SOL    MW4  799   3.239   3.233   0.482  0.3650  0.1104  0.3037
  182SOL     OW  800   0.323   3.542   0.681  0.3965 -0.3465  0.4088
  182SOL    HW2  801   0.281   3.460   0.654  1.3051 -0.5612 -0.3781
  182SOL    HW3  802   0.381   3.564   0.608 -0.2652  1.3023  0.3738
  182SOL    MW4  803   0.325   3.534   0.668  0.4291 -0.1571  0.3003
  183SOL     OW  804   2.913   2.634   0.403  0.2320  0.1911 -0.1751
  183SOL    HW2  805   3.001   2.618   0.436  0.1799  0.3603  0.0417
  183SOL    HW3  806   2.902   2.729   0.408 -1.4029 -0.1333  3.4427
  183SOL    MW4  807   2.923   2.644   0.408  0.0095  0.1707  0.3309
  184SOL     OW  808   3.503   1.376   0.420  0.1655  0.5010  0.1169
  184SOL    HW2  809   3.570   1.357   0.486 -1.3461  0.4712  1.6615
  184SOL    HW3  810   3.469   1.462   0.444 -0.3148  0.5373 -0.6879
  184SOL    MW4  811   3.507   1.385   0.432 -0.0973  0.5018  0.2145
  185SOL     OW  812   3.601   0.154   0.773  0.4212 -0.0761  0.2626
  185SOL    HW2  813   3.659   0.230   0.768 -0.4516  0.5093 -1.6799
  185SOL    HW3  814   3.577   0.137   0.682 -1.9723 -0.6718  0.9598
  185SOL    MW4  815   3.605   0.162   0.760 -0.0095 -0.0775  0.0983
  186SOL     OW  816   2.722   1.867   1.050  0.2795 -0.2067  0.2661
  186SOL    HW2  817   2.796   1.917   1.085  0.8435 -0.7990 -0.0721
  186SOL    HW3  818   2.720   1.787   1.102  0.3827 -0.5565 -0.2643
  186SOL    MW4  819   2.731   1.863   1.061  0.3674 -0.3308  0.1515
  187SOL     OW  820   0.656   3.502   0.206  0.0226  0.4836  0.5110
  187SOL    HW2  821   0.657   3.411   0.238  0.4019  0.0092 -0.8182
  187SOL    HW3  822   0.697   3.552   0.276  0.1609 -0.4283  1.0981
  187SOL    MW4  823   0.661   3.496   0.219  0.0908  0.3009  0.4131
  188SOL     OW  824   1.905   2.198   0.751 -0.0320 -0.1129 -0.2057
  188SOL    HW2  825   1.993   2.205   0.788 -0.2060 -1.0140  0.4264
  188SOL    HW3  826   1.918   2.202   0.657  0.7652 -0.8271 -0.1433
  188SOL    MW4  827   1.918   2.199   0.744  0.0502 -0.3257 -0.1141
  189SOL     OW  828   0.036   2.537   0.762  0.3301  0.4959 -0.1799
  189SOL    HW2  829   0.114   2.529   0.816  0.3332  0.7545 -0.1428
  189SOL    HW3  830   0.064   2.590   0.687  0.0868  0.9341  0.0400
  189SOL    MW4  831   0.050   2.543   0.759  0.2984  0.5882 -0.1460
  190SOL     OW  832   1.320   3.556   0.277 -0.1823  0.3374  0.3298
  190SOL    HW2  833   1.288   3.586   0.192  0.8799 -1.0348 -0.5732
  190SOL    HW3  834   1.268   3.478   0.296 -0.0523  0.3389  0.7001
  190SOL    MW4  835   1.309   3.550   0.268 -0.0250  0.1566  0.2595
  191SOL     OW  836   3.273   4.432   0.453 -0.0133 -0.2586  0.2391
  191SOL    HW2  837   3.328   4.356   0.433 -0.2015 -0.3924  0.2172
  191SOL    HW3  838   3.316   4.506   0.412  0.1521 -0.3620  0.2277
  191SOL    MW4  839   3.286   4.431   0.445 -0.0162 -0.2899  0.2347
  192SOL     OW  840   0.018   3.989   0.630  0.0517  0.4606  0.2509
  192SOL    HW2  841   0.049   3.901   0.652  1.1414  0.9146  0.5781
  192SOL    HW3  842   0.015   4.035   0.714 -1.6001  0.4126  0.2402
  192SOL    MW4  843   0.021   3.984   0.644 -0.0224  0.5140  0.2927
  193SOL     OW  844   2.021   1.037   0.728 -0.1247  0.2830 -0.0753
  193SOL    HW2  845   2.039   1.082   0.645 -1.6009  1.6699  0.3444
  193SOL    HW3  846   1.980   0.954   0.701 -0.1336  0.5006 -0.7475
  193SOL    MW4  847   2.018   1.032   0.713 -0.3207  0.4947 -0.1087
  194SOL     OW  848   4.011   4.254   0.855  0.2598  0.1483  0.1213
  194SOL    HW2  849   3.986   4.164   0.832  2.2411 -0.0658 -1.3864
  194SOL    HW3  850   4.040   4.248   0.946 -1.9515 -0.2144  0.8380
  194SOL    MW4  851   4.012   4.241   0.864  0.2294  0.0725  0.0170
  195SOL     OW  852   2.008   0.000   1.147 -0.5433 -0.2361 -1.0044
  195SOL    HW2  853   1.920   0.029   1.173 -1.0709 -1.5024 -1.3310
  195SOL    HW3  854   2.005  -0.095   1.155  1.3428 -0.1672  0.6204
  195SOL    MW4  855   1.996  -0.009   1.151 -0.3642 -0.3941 -0.8330
  196SOL     OW  856   2.584   4.468   0.395  0.1283 -0.3858  0.6368
  196SOL    HW2  857   2.582   4.374   0.379 -0.8354  0.0058 -1.7169
  196SOL    HW3  858   2.492   4.494   0.393  0.3343  0.5124  2.0336
  196SOL    MW4  859   2.572   4.459   0.393  0.0286 -0.2155  0.5106
  197SOL     OW  860   2.490   2.379   0.357  0.3946 -0.1379 -0.0767
  197SOL    HW2  861   2.572   2.410   0.396  0.3753  1.9075 -1.5378
  197SOL    HW3  862   2.439   2.459   0.343 -1.3248 -1.2588 -0.3798
  197SOL    MW4  863   2.494   2.394   0.361  0.1650 -0.0160 -0.3094
  198SOL     OW  864   0.183   4.612   0.796  0.1128  0.5914  0.2839
  198SOL    HW2  865   0.271   4.638   0.770  0.2369  1.0691  1.1672
  198SOL    HW3  866   0.188   4.518   0.811  0.5088  0.6429  0.4743
  198SOL    MW4  867   0.195   4.603   0.794  0.1814  0.6614  0.4255
  199SOL     OW  868   3.796   4.389   0.742  0.3268  0.2048 -0.2589
  199SOL    HW2  869   3.711   4.363   0.778  0.4030 -0.7230 -0.7171
  199SOL    HW3  870   3.860   4.342   0.796  0.4517 -0.9907 -1.4049
  199SOL    MW4  871   3.793   4.379   0.754  0.3533 -0.0753 -0.4706
  200SOL     OW  872   0.757   0.203   0.524  0.1406  0.3386 -0.3663
  200SOL    HW2  873   0.844   0.222   0.491 -0.1232  0.1074 -1.1866
  200SOL    HW3  874   0.756   0.108   0.536  0.7566  0.5746  1.7760
  200SOL    MW4  875   0.768   0.193   0.522  0.1871  0.3393 -0.1919
  201SOL     OW  876   0.491   0.263   0.435 -0.2391  0.0829  0.1920
  201SOL    HW2  877   0.584   0.245   0.444 -0.4586 -1.2478 -0.0370
  201SOL    HW3  878   0.450   0.177   0.434 -1.4239  0.6377 -0.2383
  201SOL    MW4  879   0.498   0.249   0.436 -0.4243 -0.0194  0.1050
  202SOL     OW  880   2.726   2.427   0.465 -0.1167  0.4711  0.2620
  202SOL    HW2  881   2.767   2.510   0.441 -0.7942  0.6640 -0.2266
  202SOL    HW3  882   2.717   2.431   0.560 -1.8467  1.7410  0.0551
  202SOL    MW4  883   2.730   2.438   0.474 -0.4342  0.6642  0.1702
  203SOL     OW  884   2.968   0.531   1.243  0.1460  0.4753  0.2053
  203SOL    HW2  885   2.880   0.497   1.231 -0.4795  1.2438  2.2692
  203SOL    HW3  886   2.966   0.618   1.202  0.4097 -0.1159 -1.0834
  203SOL    MW4  887   2.956   0.538   1.236  0.0982  0.4987  0.3077
  204SOL     OW  888   4.262   2.547   0.853 -0.4365 -0.3052 -0.2747
  204SOL    HW2  889   4.354   2.568   0.838 -0.1688 -0.1485  1.4253
  204SOL    HW3  890   4.218   2.632   0.854 -0.1064 -0.1183  1.8375
  204SOL    MW4  891   4.268   2.561   0.851 -0.3572 -0.2599  0.2283
  205SOL     OW  892   3.022   3.824   0.272 -0.0812 -0.1538  0.0852
  205SOL    HW2  893   2.943   3.876   0.289 -0.5790 -0.6635 -0.6650
  205SOL    HW3  894   3.093   3.888   0.276 -0.5029  0.2779  0.9622
  205SOL    MW4  895   3.021   3.840   0.275 -0.2022 -0.1640  0.1019
  206SOL     OW  896   1.440   0.607   0.469 -0.5046  0.0920 -0.1482
  206SOL    HW2  897   1.408   0.519   0.487 -0.1291 -0.6643 -2.9449
  206SOL    HW3  898   1.369   0.649   0.420  0.6002  0.2129 -1.6928
  206SOL    MW4  899   1.426   0.601   0.465 -0.3093  0.0082 -0.7210
  207SOL     OW  900   1.015   1.378   0.671 -0.6565 -0.0575  0.4916
  207SOL    HW2  901   1.076   1.429   0.724 -0.6395  0.9810 -0.5105
  207SOL    HW3  902   0.978   1.314   0.733  1.3373 -0.6380  1.1250
  207SOL    MW4  903   1.018   1.376   0.686 -0.3911  0.0030  0.4429
  208SOL     OW  904   3.774   3.902   1.098 -0.3133  0.3844 -0.0891
  208SOL    HW2  905   3.754   3.816   1.134 -0.5364 -0.0212 -1.1572
  208SOL    HW3  906   3.708   3.960   1.135  0.9045  0.4555  2.0229
  208SOL    MW4  907   3.763   3.899   1.108 -0.1819  0.3405  0.0488
  209SOL     OW  908   2.304   1.917   1.076 -0.0267  0.1654 -0.3401
  209SOL    HW2  909   2.226   1.965   1.102 -0.0291  0.0875 -0.2043
  209SOL    HW3  910   2.303   1.920   0.980  0.1242  0.6753 -0.3240
  209SOL    MW4  911   2.294   1.924   1.067 -0.0069  0.2223 -0.3201
  210SOL     OW  912   0.994   2.346   0.360 -0.0251  0.3478 -0.4369
  210SOL    HW2  913   1.025   2.322   0.273 -0.3109 -0.3019 -0.3633
  210SOL    HW3  914   0.898   2.343   0.352 -0.0470 -0.4717  0.1072
  210SOL    MW4  915   0.985   2.342   0.347 -0.0656  0.1540 -0.3554
  211SOL     OW  916   3.039   2.080   0.426 -0.0943  0.2184 -0.2041
  211SOL    HW2  917   3.047   2.075   0.521  1.0024  3.3614 -0.0822
  211SOL    HW3  918   2.950   2.110   0.411 -0.4503 -0.8279 -0.1980
  211SOL    MW4  919   3.028   2.083   0.437  0.0033  0.4950 -0.1872
  212SOL     OW  920   2.842   0.744   0.427  0.4551  0.2206  0.1105
  212SOL    HW2  921   2.893   0.758   0.506 -0.0269  0.8615  0.3144
  212SOL    HW3  922   2.815   0.832   0.400 -2.1833 -0.2374  1.1278
  212SOL    MW4  923   2.845   0.758   0.434  0.0434  0.2447  0.2716
  213SOL     OW  924   2.929   2.910   0.701 -0.4606 -0.3567  0.5675
  213SOL    HW2  925   3.004   2.860   0.733  0.0292 -0.7076 -1.0850
  213SOL    HW3  926   2.930   2.991   0.751  1.8690  0.2552 -0.4118
  213SOL    MW4  927   2.939   2.914   0.712 -0.0885 -0.3226  0.2202
  214SOL     OW  928   1.327   3.824   0.783 -0.3508  0.2706 -0.4854
  214SOL    HW2  929   1.413   3.865   0.784 -0.2644  0.0944 -0.7881
  214SOL    HW3  930   1.317   3.790   0.694 -1.0135  0.8941 -0.6593
  214SOL    MW4  931   1.337   3.825   0.771 -0.4268  0.3297 -0.5483
  215SOL     OW  932   0.364   2.107   0.837  0.3476 -0.0418  0.0718
  215SOL    HW2  933   0.388   2.020   0.869  0.3039 -0.1777 -0.2626
  215SOL    HW3  934   0.317   2.147   0.910 -0.3963 -0.6258 -0.0861
  215SOL    MW4  935   0.361   2.101   0.851  0.2437 -0.1369  0.0069
  216SOL     OW  936   3.513   0.136   0.498 -0.0921  0.1946  0.1855
  216SOL    HW2  937   3.452   0.080   0.450  0.3165 -1.0307  1.0873
  216SOL    HW3  938   3.595   0.130   0.449  0.4698 -1.4562  1.2828
  216SOL    MW4  939   3.515   0.128   0.485  0.0358 -0.1848  0.4492
  217SOL     OW  940   0.340   1.032   0.704  0.1735 -0.4662  0.1849
  217SOL    HW2  941   0.283   0.957   0.723 -0.2356  0.4038  2.5659
  217SOL    HW3  942   0.300   1.074   0.628 -0.2583 -1.9688 -0.4462
  217SOL    MW4  943   0.327   1.027   0.696  0.0626 -0.5497  0.4158
  218SOL     OW  944   3.361   0.031   0.846  0.8463 -0.5275 -0.3715
  218SOL    HW2  945   3.355   0.024   0.942  0.7042 -0.8972 -0.4087
  218SOL    HW3  946   3.445   0.074   0.831 -0.1269  1.5685  0.0197
  218SOL    MW4  947   3.371   0.036   0.857  0.6990 -0.2997 -0.3248
  219SOL     OW  948   3.702   3.337   0.245 -0.5773  0.8512 -0.0214
  219SOL    HW2  949   3.701   3.271   0.175 -1.3239  0.1992  0.5884
  219SOL    HW3  950   3.618   3.324   0.290  0.3705  0.5297  1.6634
  219SOL    MW4  951   3.690   3.326   0.241 -0.5507  0.7226  0.2813
  220SOL     OW  952   0.887   4.575   0.796 -0.6201  0.4061 -0.2736
  220SOL    HW2  953   0.815   4.628   0.831 -0.0441  0.3268  1.0647
  220SOL    HW3  954   0.966   4.626   0.817 -0.0694 -0.8901  0.8817
  220SOL    MW4  955   0.888   4.589   0.804 -0.4715  0.2246  0.0554
  221SOL     OW  956   0.524   0.526   0.323 -0.1320  0.4461 -0.0489
  221SOL    HW2  957   0.615   0.543   0.347 -0.2586  0.0439  0.7372
  221SOL    HW3  958   0.505   0.440   0.359 -0.3464 -0.1657 -1.5883
  221SOL    MW4  959   0.533   0.517   0.331 -0.1770  0.3123 -0.1483
  222SOL     OW  960   2.669   0.897   1.283  0.1504  0.1636  0.4526
  222SOL    HW2  961   2.666   0.987   1.251 -2.1466  0.2874  0.9119
  222SOL    HW3  962   2.591   0.856   1.245  1.7375 -1.9304 -0.6008
  222SOL    MW4  963   2.658   0.903   1.274  0.0565 -0.0964  0.3742
  223SOL     OW  964   1.466   0.032   0.853  0.1748  0.1549  0.0692
  223SOL    HW2  965   1.488   0.007   0.943  2.0744 -1.1234 -0.7125
  223SOL    HW3  966   1.411  -0.040   0.822 -0.5766  0.6523  0.2389
  223SOL    MW4  967   1.462   0.019   0.860  0.3263  0.0518 -0.0115
  224SOL     OW  968   2.011   3.645   0.726  0.3342 -0.0294  0.2906
  224SOL    HW2  969   2.078   3.585   0.757  0.5391  0.6648  1.2103
  224SOL    HW3  970   2.015   3.638   0.630  0.5360 -1.2691  0.3924
  224SOL    MW4  971   2.021   3.636   0.717  0.3877 -0.1013  0.4253
  225SOL     OW  972   2.957   2.087   0.705 -0.1428  0.3573 -0.1053
  225SOL    HW2  973   2.886   2.023   0.706 -2.2257  2.5871  0.9784
  225SOL    HW3  974   3.015   2.059   0.775 -1.0713 -0.3184  0.4125
  225SOL    MW4  975   2.955   2.075   0.714 -0.5403  0.5624  0.1060
  226SOL     OW  976   1.018   1.917   0.610  0.1491  0.0032  0.4710
  226SOL    HW2  977   1.009   1.826   0.581  2.8336 -0.0290 -0.3523
  226SOL    HW3  978   0.953   1.926   0.681  0.7744 -2.9375  1.4909
  226SOL    MW4  979   1.008   1.906   0.616  0.5858 -0.3892  0.4969
  227SOL     OW  980   3.628   1.878   1.110  0.0863 -0.2434  0.3021
  227SOL    HW2  981   3.554   1.905   1.164 -0.1105 -0.3987  0.1074
  227SOL    HW3  982   3.697   1.941   1.131  0.9610 -1.9641  2.8856
  227SOL    MW4  983   3.627   1.890   1.120  0.1757 -0.4911  0.6173
  228SOL     OW  984   1.334   0.364   0.542  0.0978 -0.1239  0.2674
  228SOL    HW2  985   1.376   0.292   0.495  1.0978  0.8050 -0.2926
  228SOL    HW3  986   1.358   0.349   0.634  0.8392 -0.1563  0.0775
  228SOL    MW4  987   1.343   0.352   0.548  0.3276 -0.0056  0.1686
  229SOL     OW  988   3.779   2.333   0.834 -0.3437  0.0958  0.0578
  229SOL    HW2  989   3.787   2.347   0.928 -0.6430  0.1986  0.0678
  229SOL    HW3  990   3.863   2.363   0.798 -0.6821  1.1920  0.1572
  229SOL    MW4  991   3.791   2.339   0.842 -0.4280  0.2539  0.0723
  230SOL     OW  992   0.603   4.229   0.252  0.1250 -0.1687  0.1357
  230SOL    HW2  993   0.551   4.183   0.186 -0.6492 -0.1640  0.7366
  230SOL    HW3  994   0.596   4.174   0.330 -0.7789  0.9363  0.8483
  230SOL    MW4  995   0.595   4.216   0.254 -0.0964 -0.0215  0.3090
  231SOL     OW  996   1.189   1.528   0.367 -0.3141 -0.3542 -0.0920
  231SOL    HW2  997   1.152   1.473   0.298 -0.1661  0.8346 -1.1350
  231SOL    HW3  998   1.114   1.566   0.411 -0.3872  0.3871 -0.8411
  231SOL    MW4  999   1.174   1.525   0.363 -0.3043 -0.0997 -0.3285
  232SOL     OW 1000   3.384   3.635   0.732  0.3195 -0.2197 -0.1607
  232SOL    HW2 1001   3.371   3.724   0.765  1.0559  0.1187 -0.7662
  232SOL    HW3 1002   3.364   3.641   0.639  1.1435 -0.5051 -0.3629
  232SOL    MW4 1003   3.380   3.648   0.724  0.5252 -0.2127 -0.2673
  233SOL     OW 1004   3.540   1.190   0.831 -0.3904  0.1108 -0.1450
  233SOL    HW2 1005   3.541   1.185   0.926  1.2288 -2.2381 -0.2572
  233SOL    HW3 1006   3.448   1.206   0.809 -0.8026  0.5336  1.7773
  233SOL    MW4 1007   3.528   1.192   0.841 -0.2313 -0.1434  0.0938
  234SOL     OW 1008   3.273   1.814   0.493 -0.2040 -0.2548  0.1766
  234SOL    HW2 1009   3.308   1.903   0.489  0.2317 -0.4749 -1.2074
  234SOL    HW3 1010   3.348   1.758   0.476 -0.2847 -0.9452  1.9792
  234SOL    MW4 1011   3.287   1.818   0.491 -0.1574 -0.3749  0.2318
  235SOL     OW 1012   1.978   3.223   0.454 -0.4007 -0.3171  0.0123
  235SOL    HW2 1013   2.064   3.181   0.448 -0.7426 -0.8950 -0.9137
  235SOL    HW3 1014   1.985   3.301   0.399 -0.4967 -0.4137 -0.1368
  235SOL    MW4 1015   1.991   3.228   0.446 -0.4585 -0.4063 -0.1295
  236SOL     OW 1016   3.207   0.920   0.738 -0.1730 -0.1698  0.1672
  236SOL    HW2 1017   3.247   0.848   0.787 -0.8033 -0.3701  0.3872
  236SOL    HW3 1018   3.249   0.915   0.652 -1.3308 -1.7925 -0.3333
  236SOL    MW4 1019   3.218   0.910   0.733 -0.4089 -0.4104  0.1302
  237SOL     OW 1020   2.595   3.847   0.310  0.0426 -0.0063 -0.3842
  237SOL    HW2 1021   2.622   3.892   0.390 -1.6798  0.6881 -0.1747
  237SOL    HW3 1022   2.545   3.912   0.261 -1.9111 -1.4723 -0.3884
  237SOL    MW4 1023   2.592   3.862   0.314 -0.4425 -0.1080 -0.3571
  238SOL     OW 1024   1.106   2.596   0.490 -0.0024  0.2977  0.0015
  238SOL    HW2 1025   1.097   2.525   0.427  2.4053  0.5914 -0.7433
  238SOL    HW3 1026   1.060   2.670   0.450  0.2354  0.0563 -0.7249
  238SOL    MW4 1027   1.099   2.596   0.476  0.3464  0.3045 -0.1926
  239SOL     OW 1028   3.833   0.890   0.851 -0.2375 -0.2832 -0.0663
  239SOL    HW2 1029   3.878   0.828   0.794 -1.5932 -0.2880 -1.1744
  239SOL    HW3 1030   3.740   0.881   0.826 -0.5527  1.4537  0.4644
  239SOL    MW4 1031   3.826   0.880   0.840 -0.4580 -0.0547 -0.1425
  240SOL     OW 1032   1.553   0.728   0.878  0.0360  0.5962  0.4845
  240SOL    HW2 1033   1.564   0.747   0.971  1.6045  0.1895  0.3972
  240SOL    HW3 1034   1.595   0.642   0.865 -1.6179 -0.1198 -0.2807
  240SOL    MW4 1035   1.560   0.719   0.888  0.0248  0.4482  0.3721
  241SOL     OW 1036   3.576   0.906   0.503  0.0606 -0.0310  0.0500
  241SOL    HW2 1037   3.587   0.815   0.477  0.2456  0.1544 -0.5330
  241SOL    HW3 1038   3.653   0.951   0.468 -0.3077  0.4508 -0.1665
  241SOL    MW4 1039   3.587   0.900   0.495  0.0362  0.0570 -0.0554
  242SOL     OW 1040   4.122   2.132   0.395  0.1364 -0.2180  0.0963
  242SOL    HW2 1041   4.087   2.064   0.337  1.0356  0.3700 -1.1350
  242SOL    HW3 1042   4.079   2.212   0.367  0.9867  0.1653 -0.1281
  242SOL    MW4 1043   4.112   2.133   0.384  0.3672 -0.0896 -0.0957
  243SOL     OW 1044   4.006   0.744   0.665 -0.5276  0.0199  0.3426
  243SOL    HW2 1045   3.951   0.666   0.655 -0.0344 -0.2817 -0.0191
  243SOL    HW3 1046   4.074   0.718   0.727 -0.9791  0.4939  1.0334
  243SOL    MW4 1047   4.008   0.730   0.672 -0.5221  0.0426  0.3861
  244SOL     OW 1048   3.832   3.582   0.892 -0.2336  0.2150 -0.1585
  244SOL    HW2 1049   3.753   3.532   0.872  1.4771 -2.6180 -0.0675
  244SOL    HW3 1050   3.824   3.602   0.985 -0.2998 -1.0616  0.1150
  244SOL    MW4 1051   3.821   3.578   0.902 -0.0172 -0.3271 -0.1104
  245SOL     OW 1052   2.026   1.558   0.855 -0.2992 -0.1319  0.3120
  245SOL    HW2 1053   2.002   1.556   0.948 -0.1832  1.0480  0.3776
  245SOL    HW3 1054   2.109   1.511   0.850  0.2956  0.8183  1.0088
  245SOL    MW4 1055   2.034   1.552   0.867 -0.2055  0.1491  0.4126
  246SOL     OW 1056   4.446   0.330   0.812 -0.7245 -0.0756 -0.4535
  246SOL    HW2 1057   4.457   0.238   0.790  0.6315  0.0986 -0.5262
  246SOL    HW3 1058   4.470   0.336   0.905 -0.6947  0.2193 -0.4772
  246SOL    MW4 1059   4.450   0.319   0.821 -0.5417 -0.0137 -0.4663
  247SOL     OW 1060   3.727   3.861   0.809  0.8752 -0.2888 -0.4080
  247SOL    HW2 1061   3.728   3.895   0.898  0.4115 -0.6233 -0.2717
  247SOL    HW3 1062   3.765   3.774   0.816 -0.1003 -0.7207 -0.3602
  247SOL    MW4 1063   3.732   3.854   0.822  0.6852 -0.3898 -0.3837
  248SOL     OW 1064   2.541   1.365   0.498 -0.3006 -0.1114  0.8372
  248SOL    HW2 1065   2.626   1.341   0.460 -0.2946  1.8079 -0.4246
  248SOL    HW3 1066   2.561   1.388   0.588  0.2763 -1.1068  0.9802
  248SOL    MW4 1067   2.555   1.365   0.505 -0.2236  0.0105  0.6896
  249SOL     OW 1068   0.686   1.787   0.725  0.8546  0.0639 -0.2660
  249SOL    HW2 1069   0.706   1.713   0.783  0.5395 -0.4111 -0.7516
  249SOL    HW3 1070   0.731   1.862   0.764  1.6518 -0.5060 -0.0769
  249SOL    MW4 1071   0.695   1.787   0.738  0.9182 -0.0740 -0.3051
  250SOL     OW 1072   2.485   1.068   0.468  0.4136  0.3389 -0.5284
  250SOL    HW2 1073   2.451   1.158   0.475  0.8583  0.3289  2.3986
  250SOL    HW3 1074   2.465   1.028   0.552  1.4678 -1.8908 -1.2962
  250SOL    MW4 1075   2.478   1.075   0.480  0.6113  0.0435 -0.2435
  251SOL     OW 1076   0.879   3.923   0.490 -0.2284  0.2564 -0.2191
  251SOL    HW2 1077   0.966   3.957   0.469 -0.5459 -0.2258 -2.5093
  251SOL    HW3 1078   0.821   3.999   0.482 -0.2966  0.1487 -0.8017
  251SOL    MW4 1079   0.883   3.938   0.486 -0.2793  0.1788 -0.5982
  252SOL     OW 1080   3.610   2.591   0.490 -0.3477 -0.4129 -0.6746
  252SOL    HW2 1081   3.543   2.658   0.476  0.0832  0.1200 -0.2042
  252SOL    HW3 1082   3.594   2.558   0.578 -0.3634 -0.7131 -0.7883
  252SOL    MW4 1083   3.599   2.596   0.500 -0.2933 -0.3824 -0.6276
  253SOL     OW 1084   4.319   0.355   0.390 -0.0804  0.0129 -0.0223
  253SOL    HW2 1085   4.363   0.419   0.446 -0.6738  0.8076 -0.4372
  253SOL    HW3 1086   4.336   0.387   0.301 -1.3101  0.2203 -0.1903
  253SOL    MW4 1087   4.327   0.368   0.386 -0.3214  0.1451 -0.0992
  254SOL     OW 1088   2.931   3.115   0.879  0.7371  0.5495  0.1104
  254SOL    HW2 1089   2.852   3.156   0.843  0.9184 -0.5647 -1.6216
  254SOL    HW3 1090   3.003   3.163   0.838  0.9501 -0.1846 -0.3777
  254SOL    MW4 1091   2.930   3.127   0.868  0.7892  0.3057 -0.1825
  255SOL     OW 1092   2.351   0.765   0.901  0.4863  0.3463  0.0867
  255SOL    HW2 1093   2.264   0.729   0.888  1.1321 -0.9093 -0.9162
  255SOL    HW3 1094   2.366   0.821   0.825 -0.4069  2.5796  1.5067
  255SOL    MW4 1095   2.342   0.768   0.889  0.4535  0.4752  0.1417
  256SOL     OW 1096   2.592   1.431   0.762  0.0367  0.5345  0.4601
  256SOL    HW2 1097   2.581   1.525   0.776 -1.3640  0.0643  2.7037
  256SOL    HW3 1098   2.675   1.410   0.804  0.8442  0.9039 -0.8962
  256SOL    MW4 1099   2.602   1.441   0.769 -0.0412  0.5212  0.5772
  257SOL     OW 1100   1.247   3.562   0.859 -0.2041  0.1267  0.2160
  257SOL    HW2 1101   1.155   3.587   0.870 -0.5389 -1.6515  1.7223
  257SOL    HW3 1102   1.294   3.645   0.852 -1.8529  1.0667  0.0498
  257SOL    MW4 1103   1.241   3.576   0.860 -0.4658  0.0160  0.3928
  258SOL     OW 1104   2.076   2.214   0.310  0.0260  0.0892  0.0731
  258SOL    HW2 1105   2.061   2.286   0.250  1.0678 -1.2975 -1.9177
  258SOL    HW3 1106   1.992   2.200   0.354 -1.3319 -0.1659 -2.5301
  258SOL    MW4 1107   2.063   2.222   0.308 -0.0157 -0.1276 -0.5330
  259SOL     OW 1108   2.073   1.188   0.494  0.2772  0.1603  0.4377
  259SOL    HW2 1109   1.990   1.198   0.448  0.5025  1.0785  0.2173
  259SOL    HW3 1110   2.122   1.124   0.442  0.5818  1.2843 -0.6798
  259SOL    MW4 1111   2.069   1.181   0.481  0.3469  0.4297  0.2612
  260SOL     OW 1112   2.766   2.159   0.415  0.2875 -0.1916  0.0242
  260SOL    HW2 1113   2.757   2.254   0.416  0.0930 -0.2110  0.0105
  260SOL    HW3 1114   2.709   2.130   0.344  0.9543 -0.2539 -0.4898
  260SOL    MW4 1115   2.757   2.168   0.406  0.3498 -0.2024 -0.0454
  261SOL     OW 1116   1.798   1.397   0.796  0.0839 -0.5547  0.3394
  261SOL    HW2 1117   1.780   1.423   0.706 -0.7060  0.0234  0.6484
  261SOL    HW3 1118   1.879   1.443   0.819 -0.6123  0.6468  0.4579
  261SOL    MW4 1119   1.806   1.407   0.787 -0.1121 -0.3198  0.3958
  262SOL     OW 1120   0.896   1.805   0.274 -0.1188 -0.7885 -0.2024
  262SOL    HW2 1121   0.884   1.727   0.218  0.7457 -0.8517 -0.3017
  262SOL    HW3 1122   0.815   1.855   0.261 -0.0002 -0.8746 -1.3993
  262SOL    MW4 1123   0.883   1.801   0.265  0.0109 -0.8082 -0.3734
  263SOL     OW 1124   3.653   1.425   0.210  0.2163  0.2396 -0.3029
  263SOL    HW2 1125   3.598   1.402   0.135 -0.4788 -0.0017  0.2707
  263SOL    HW3 1126   3.601   1.398   0.287  1.4084 -0.6204  0.2277
  263SOL    MW4 1127   3.639   1.418   0.211  0.2818  0.0943 -0.1572
  264SOL     OW 1128   4.215   2.135   0.677  0.1692 -0.1355 -0.4860
  264SOL    HW2 1129   4.288   2.196   0.686  0.3505 -0.5121  0.5881
  264SOL    HW3 1130   4.192   2.139   0.584  1.3740  0.1839 -0.7767
  264SOL    MW4 1131   4.221   2.144   0.666  0.3524 -0.1431 -0.3827
  265SOL     OW 1132   1.122   0.768   1.107  0.0403  0.0757 -0.2149
  265SOL    HW2 1133   1.125   0.678   1.140 -0.7930  0.0455 -0.2155
  265SOL    HW3 1134   1.047   0.807   1.150 -0.9205  0.1036 -1.8723
  265SOL    MW4 1135   1.113   0.761   1.117 -0.1965  0.0755 -0.4337
  266SOL     OW 1136   3.819   1.088   0.457 -0.0693 -0.0177 -0.1732
  266SOL    HW2 1137   3.899   1.035   0.452 -0.4156 -0.4604 -1.3250
  266SOL    HW3 1138   3.837   1.153   0.524  0.9105 -0.7051  0.2384
  266SOL    MW4 1139   3.832   1.089   0.465  0.0143 -0.1667 -0.2708
  267SOL     OW 1140   0.842   2.665   0.867  0.0455 -0.2355  0.2679
  267SOL    HW2 1141   0.826   2.741   0.811  0.4899  0.3478  0.9175
  267SOL    HW3 1142   0.866   2.703   0.952 -2.1662 -1.1006  1.3022
  267SOL    MW4 1143   0.843   2.680   0.871 -0.1876 -0.2728  0.4901
  268SOL     OW 1144   2.892   1.183   0.618 -0.2385 -0.0238  0.2028
  268SOL    HW2 1145   2.854   1.130   0.548 -0.4762 -1.4231  1.3492
  268SOL    HW3 1146   2.965   1.130   0.651  0.0808  0.7688  0.7840
  268SOL    MW4 1147   2.897   1.169   0.613 -0.2277 -0.1038  0.4307
  269SOL     OW 1148   1.201   0.957   0.547 -0.0863  0.1367 -0.3455
  269SOL    HW2 1149   1.208   0.959   0.642  2.5013 -0.4484 -0.4875
  269SOL    HW3 1150   1.270   1.017   0.517 -1.4351  0.9664 -1.8406
  269SOL    MW4 1151   1.211   0.966   0.556  0.0771  0.1690 -0.5615
  270SOL     OW 1152   1.844   4.331   0.360  0.0296 -0.9184  0.1954
  270SOL    HW2 1153   1.814   4.397   0.298  1.8204 -0.6457 -0.3867
  270SOL    HW3 1154   1.800   4.355   0.442 -1.3035 -0.5088 -0.6092
  270SOL    MW4 1155   1.834   4.343   0.363  0.0899 -0.8287  0.0125
  271SOL     OW 1156   3.393   2.095   0.487  0.2905 -0.1198 -0.1231
  271SOL    HW2 1157   3.371   2.118   0.577  0.4786  0.2397 -0.1676
  271SOL    HW3 1158   3.325   2.137   0.434  0.0942 -0.4552 -0.1400
  271SOL    MW4 1159   3.381   2.103   0.492  0.2894 -0.1168 -0.1312
  272SOL     OW 1160   1.094   0.833   0.124 -0.4705  0.8006 -0.0244
  272SOL    HW2 1161   1.079   0.809   0.032  1.1534  1.3943 -0.4523
  272SOL    HW3 1162   1.006   0.843   0.160 -1.2298 -3.2810 -0.4724
  272SOL    MW4 1163   1.080   0.831   0.117 -0.3566  0.3404 -0.1399
  273SOL     OW 1164   1.335   0.092   1.237 -0.3649 -0.4120  0.2854
  273SOL    HW2 1165   1.256   0.051   1.203 -1.0810  0.5628  0.7335
  273SOL    HW3 1166   1.335   0.180   1.199  0.0452 -0.1083  0.9700
  273SOL    MW4 1167   1.324   0.098   1.227 -0.4052 -0.2433  0.4349
  274SOL     OW 1168   1.950   2.931   0.664 -0.1754 -0.0272  0.0842
  274SOL    HW2 1169   1.878   2.882   0.703  1.1868 -0.6669  1.8931
  274SOL    HW3 1170   2.015   2.863   0.641 -0.1605  0.5259 -1.5549
  274SOL    MW4 1171   1.949   2.915   0.666  0.0063 -0.0386  0.1066
  275SOL     OW 1172   2.260   3.121   0.450  0.4219  0.1572  0.0407
  275SOL    HW2 1173   2.297   3.183   0.387  2.2026 -0.7314  0.1896
  275SOL    HW3 1174   2.266   3.165   0.534 -1.6083  1.1930 -0.3294
  275SOL    MW4 1175   2.265   3.135   0.453  0.3891  0.1767  0.0115
  276SOL     OW 1176   1.516   3.198   0.373  0.4702 -0.2664 -0.2486
  276SOL    HW2 1177   1.594   3.165   0.328  1.5382  1.0795  0.5723
  276SOL    HW3 1178   1.542   3.201   0.466 -0.1568  1.2953 -0.1201
  276SOL    MW4 1179   1.530   3.194   0.380  0.5283  0.1175 -0.1234
  277SOL     OW 1180   2.874   3.851   0.860 -0.6271  0.2927  0.0547
  277SOL    HW2 1181   2.803   3.915   0.856 -2.4764 -1.6333  1.1296
  277SOL    HW3 1182   2.882   3.828   0.953 -0.2113 -1.2547 -0.3373
  277SOL    MW4 1183   2.866   3.856   0.872 -0.8161 -0.1657  0.1448
  278SOL     OW 1184   1.071   0.303   0.520 -0.0460 -0.2059  0.5825
  278SOL    HW2 1185   1.166   0.313   0.519 -0.1849  1.2793  1.1160
  278SOL    HW3 1186   1.044   0.335   0.606 -1.0597 -0.2471  0.2857
  278SOL    MW4 1187   1.080   0.309   0.531 -0.1980 -0.0154  0.6137
  279SOL     OW 1188   1.694   0.736   0.524  0.4571 -0.2471 -0.6620
  279SOL    HW2 1189   1.680   0.830   0.512  0.4629 -0.3446 -1.4416
  279SOL    HW3 1190   1.606   0.698   0.527  0.4619 -0.2929 -1.0114
  279SOL    MW4 1191   1.681   0.743   0.523  0.4586 -0.2660 -0.8110
  280SOL     OW 1192   1.672   3.680   0.418 -0.4348 -0.0668 -0.2301
  280SOL    HW2 1193   1.635   3.677   0.507 -0.8009  0.8233 -0.3516
  280SOL    HW3 1194   1.631   3.606   0.373 -1.6101  0.5546 -0.1879
  280SOL    MW4 1195   1.661   3.670   0.424 -0.6382  0.1323 -0.2405
  281SOL     OW 1196   0.944   1.941   1.113  0.2109  0.1807 -0.0700
  281SOL    HW2 1197   0.879   1.987   1.167  0.4982  1.5227 -0.8577
  281SOL    HW3 1198   1.026   1.986   1.130  0.4561  0.0957 -1.0179
  281SOL    MW4 1199   0.946   1.953   1.122  0.2812  0.3465 -0.2990
  282SOL     OW 1200   0.368   1.565   0.458  0.5197 -0.3310 -0.0417
  282SOL    HW2 1201   0.392   1.509   0.385 -0.8751 -0.4479 -0.4231
  282SOL    HW3 1202   0.276   1.586   0.443  0.7875  1.3469  0.5714
  282SOL    MW4 1203   0.359   1.561   0.447  0.3710 -0.1251 -0.0111
  283SOL     OW 1204   2.987   3.591   0.415  0.1206  0.3179  0.3880
  283SOL    HW2 1205   3.007   3.671   0.366 -2.7852  0.5809 -0.4422
  283SOL    HW3 1206   2.969   3.622   0.504 -0.5426  0.5255  0.1807
  283SOL    MW4 1207   2.988   3.606   0.421 -0.3502  0.3798  0.2511
  284SOL     OW 1208   3.593   3.218   0.695  0.5678 -0.2392  0.5192
  284SOL    HW2 1209   3.575   3.234   0.603 -1.1731  2.0079  1.2030
  284SOL    HW3 1210   3.517   3.170   0.727  0.5792  0.1019  1.0661
  284SOL    MW4 1211   3.581   3.214   0.687  0.3397  0.1023  0.6816
  285SOL     OW 1212   0.861   1.968   0.846 -0.1443  0.1229  0.1328
  285SOL    HW2 1213   0.891   1.931   0.929  0.9306  0.4284 -0.1183
  285SOL    HW3 1214   0.823   2.053   0.869 -0.9555 -0.3195  0.4640
  285SOL    MW4 1215   0.860   1.974   0.860 -0.1095  0.1049  0.1433
  286SOL     OW 1216   3.041   0.474   0.681  0.0787 -0.0540 -0.1838
  286SOL    HW2 1217   3.019   0.567   0.691 -1.0741 -0.4523  1.1479
  286SOL    HW3 1218   3.108   0.457   0.748  1.0464  0.0430 -1.1080
  286SOL    MW4 1219   3.047   0.484   0.691  0.0541 -0.0937 -0.1300
  287SOL     OW 1220   1.828   3.263   0.678  0.1007  0.1853  0.0212
  287SOL    HW2 1221   1.887   3.237   0.749  0.0427  0.7609  0.2794
  287SOL    HW3 1222   1.872   3.231   0.599  1.0149  1.0438  0.1654
  287SOL    MW4 1223   1.842   3.255   0.677  0.2137  0.3743  0.0743
  288SOL     OW 1224   2.065   3.898   0.374  0.0509  0.6377 -0.3132
  288SOL    HW2 1225   2.133   3.966   0.373  0.6412  0.0528 -0.5762
  288SOL    HW3 1226   1.987   3.943   0.404  0.3418  1.5326 -0.8727
  288SOL    MW4 1227   2.064   3.913   0.378  0.1671  0.6785 -0.4217
  289SOL     OW 1228   4.304   2.980   0.674 -0.0327  0.3213  0.2892
  289SOL    HW2 1229   4.392   3.009   0.648 -0.1232 -0.8172 -1.3751
  289SOL    HW3 1230   4.245   3.035   0.622 -0.2632 -0.0219  0.1870
  289SOL    MW4 1231   4.308   2.991   0.663 -0.0749  0.1256  0.0561
  290SOL     OW 1232   1.027   2.848   0.406 -0.1906 -0.1766  0.1197
  290SOL    HW2 1233   1.115   2.841   0.370 -0.7138  0.1823 -1.2541
  290SOL    HW3 1234   1.039   2.892   0.490  0.7908  1.1197 -0.6803
  290SOL    MW4 1235   1.040   2.853   0.413 -0.1302  0.0420 -0.1671
  291SOL     OW 1236   0.915   1.179   0.839 -0.3689  0.0436 -0.0063
  291SOL    HW2 1237   0.833   1.154   0.795  0.2119  0.8616 -1.6040
  291SOL    HW3 1238   0.971   1.102   0.827 -0.3297  0.1309 -0.3892
  291SOL    MW4 1239   0.911   1.165   0.831 -0.2872  0.1631 -0.2676
  292SOL     OW 1240   4.147   2.808   0.856 -0.2510 -0.2722 -0.0521
  292SOL    HW2 1241   4.205   2.875   0.820 -1.0091  0.5909  0.3148
  292SOL    HW3 1242   4.071   2.808   0.797 -0.2119 -0.8594 -0.0990
  292SOL    MW4 1243   4.144   2.817   0.843 -0.3457 -0.2358 -0.0098
  293SOL     OW 1244   0.623   1.991   0.320  0.0258  0.1381  0.1515
  293SOL    HW2 1245   0.561   2.055   0.286 -0.1833  0.0985  0.4522
  293SOL    HW3 1246   0.570   1.935   0.378  0.5189  0.6493  1.0976
  293SOL    MW4 1247   0.608   1.992   0.324  0.0633  0.2004  0.3160
  294SOL     OW 1248   1.793   2.896   0.428  0.0510  0.1315  0.2777
  294SOL    HW2 1249   1.852   2.912   0.502 -0.2727 -0.2113  0.6166
  294SOL    HW3 1250   1.782   2.981   0.387 -0.1961  0.4278  0.9470
  294SOL    MW4 1251   1.799   2.909   0.433 -0.0242  0.1254  0.4108
  295SOL     OW 1252   0.903   4.189   0.281  0.1637  0.5463  0.2597
  295SOL    HW2 1253   0.908   4.106   0.232  0.7212  0.0638  1.1146
  295SOL    HW3 1254   0.814   4.220   0.267 -0.2428 -0.5095  0.4220
  295SOL    MW4 1255   0.892   4.182   0.272  0.1836  0.3428  0.3939
  296SOL     OW 1256   1.974   0.174   0.913 -0.1739 -0.0241  0.6147
  296SOL    HW2 1257   1.996   0.097   0.966 -1.7569 -0.1188  1.1730
  296SOL    HW3 1258   1.924   0.139   0.839 -0.8897  0.4445  0.8641
  296SOL    MW4 1259   1.970   0.159   0.911 -0.4772  0.0253  0.7212
  297SOL     OW 1260   0.424   0.046   0.710  0.0587  0.1781  0.5344
  297SOL    HW2 1261   0.413   0.138   0.733 -0.7595 -0.2384  1.8601
  297SOL    HW3 1262   0.406   0.042   0.616 -0.4553  1.2846  0.5821
  297SOL    MW4 1263   0.420   0.058   0.701 -0.1171  0.2692  0.7156
  298SOL     OW 1264   1.825   4.058   0.454 -0.5072  0.5395  0.2714
  298SOL    HW2 1265   1.767   4.008   0.398  1.8272 -1.4900 -0.4398
  298SOL    HW3 1266   1.840   4.140   0.406 -1.8755  0.6083 -0.0471
  298SOL    MW4 1267   1.820   4.062   0.440 -0.3798  0.2804  0.1355
  299SOL     OW 1268   4.240   3.172   0.846  0.0825  0.2386  0.5971
  299SOL    HW2 1269   4.260   3.092   0.797  0.2175  1.0983 -0.7887
  299SOL    HW3 1270   4.264   3.152   0.936  0.1114 -1.2808  0.2648
  299SOL    MW4 1271   4.246   3.159   0.851  0.1040  0.1519  0.3704
  300SOL     OW 1272   1.931   0.782   0.673  0.2726 -0.1370 -0.1558
  300SOL    HW2 1273   1.848   0.744   0.644  0.7381 -1.3554  0.0493
  300SOL    HW3 1274   1.991   0.767   0.599  0.7484 -0.8089  0.3564
  300SOL    MW4 1275   1.928   0.775   0.659  0.3968 -0.3865 -0.0611
  301SOL     OW 1276   4.086   2.557   0.468  0.6100  0.2724  0.0928
  301SOL    HW2 1277   4.072   2.526   0.557 -0.0153 -1.0783 -0.4534
  301SOL    HW3 1278   4.149   2.629   0.477  1.8879 -0.9702  1.4390
  301SOL    MW4 1279   4.092   2.562   0.481  0.6962 -0.0699  0.1983
  302SOL     OW 1280   4.180   0.409   0.803 -0.7387 -0.1781 -0.0741
  302SOL    HW2 1281   4.198   0.503   0.805 -0.1644 -0.3015  1.9411
  302SOL    HW3 1282   4.264   0.369   0.825 -1.1564 -1.1532 -0.2268
  302SOL    MW4 1283   4.194   0.416   0.806 -0.7181 -0.3231  0.1717
  303SOL     OW 1284   4.475   4.272   0.405  0.1861  0.0562  0.1218
  303SOL    HW2 1285   4.551   4.282   0.462  0.3956  1.2205 -0.3361
  303SOL    HW3 1286   4.507   4.219   0.332  0.6003  0.6222 -0.1172
  303SOL    MW4 1287   4.490   4.266   0.403  0.2685  0.2842  0.0299
  304SOL     OW 1288   3.573   2.480   0.753  0.1510  0.6523 -0.2550
  304SOL    HW2 1289   3.496   2.449   0.801  0.9258  1.5446  1.6516
  304SOL    HW3 1290   3.640   2.414   0.770  0.2632  0.6919 -0.5471
  304SOL    MW4 1291   3.572   2.468   0.762  0.2680  0.7751 -0.0420
  305SOL     OW 1292   4.009   3.964   0.453  0.4312  0.0532 -0.1248
  305SOL    HW2 1293   3.961   4.039   0.419 -1.1973 -0.2727  1.3513
  305SOL    HW3 1294   4.098   3.996   0.467  0.0719  1.3331 -0.7276
  305SOL    MW4 1295   4.014   3.978   0.450  0.1693  0.1788 -0.0096
  306SOL     OW 1296   0.302   2.481   0.867 -0.4381 -0.1494  0.2844
  306SOL    HW2 1297   0.289   2.413   0.933 -0.5843  0.2831  0.7148
  306SOL    HW3 1298   0.383   2.525   0.893 -0.6489  0.2086  0.3508
  306SOL    MW4 1299   0.311   2.478   0.879 -0.4852 -0.0451  0.3499
  307SOL     OW 1300   0.138   0.936   0.422 -0.0629 -0.2433 -0.0926
  307SOL    HW2 1301   0.173   1.024   0.403 -1.0795 -0.1823 -1.7791
  307SOL    HW3 1302   0.216   0.881   0.432  0.5771  0.4157 -1.2389
  307SOL    MW4 1303   0.153   0.941   0.420 -0.1126 -0.1482 -0.4664
  308SOL     OW 1304   3.154   3.264   0.762  0.0832 -0.6572 -0.1958
  308SOL    HW2 1305   3.239   3.237   0.798  0.6662  0.8539 -0.3662
  308SOL    HW3 1306   3.151   3.358   0.779 -1.2506 -0.5830 -0.8404
  308SOL    MW4 1307   3.165   3.273   0.769 -0.0160 -0.4482 -0.3033
  309SOL     OW 1308   0.415   0.315   0.788  0.3381 -0.1987 -0.1806
  309SOL    HW2 1309   0.355   0.389   0.780 -0.9781 -1.3381 -0.8888
  309SOL    HW3 1310   0.491   0.341   0.735 -0.3019  0.4513 -0.7923
  309SOL    MW4 1311   0.417   0.329   0.779  0.0801 -0.2632 -0.3548
  310SOL     OW 1312   3.379   2.362   0.917 -0.6096 -0.2626 -0.3286
  310SOL    HW2 1313   3.390   2.344   1.010  0.3048  0.7459 -0.2316
  310SOL    HW3 1314   3.397   2.278   0.874  0.6613 -0.3226  0.2955
  310SOL    MW4 1315   3.383   2.349   0.923 -0.3214 -0.1373 -0.2334
  311SOL     OW 1316   0.432   1.835   0.906 -0.4650  0.1000  0.0210
  311SOL    HW2 1317   0.505   1.800   0.854 -0.0387 -0.5581  1.0377
  311SOL    HW3 1318   0.472   1.857   0.991 -1.1487  1.1626  0.0816
  311SOL    MW4 1319   0.447   1.833   0.910 -0.4990  0.1532  0.1631
  312SOL     OW 1320   0.200   3.086   1.090 -0.1122 -0.0920  0.1351
  312SOL    HW2 1321   0.232   3.006   1.132  0.7085  0.5366  0.7263
  312SOL    HW3 1322   0.274   3.147   1.096 -0.7145  0.6918 -0.3589
  312SOL    MW4 1323   0.214   3.083   1.096 -0.0834  0.0944  0.1478
  313SOL     OW 1324   1.581   3.455   0.286  0.8455  0.1649  0.6192
  313SOL    HW2 1325   1.559   3.372   0.330  1.2758  0.1531  0.8198
  313SOL    HW3 1326   1.498   3.487   0.253  0.5598  0.0161  1.1756
  313SOL    MW4 1327   1.567   3.448   0.288  0.8646  0.1440  0.7191
  314SOL     OW 1328   0.786   2.238   0.884 -0.0885 -0.3765 -0.7666
  314SOL    HW2 1329   0.765   2.265   0.973 -0.4318 -1.5658 -0.4737
  314SOL    HW3 1330   0.710   2.262   0.832 -0.3651 -0.7164 -0.5211
  314SOL    MW4 1331   0.773   2.244   0.889 -0.1702 -0.5782 -0.6956
  315SOL     OW 1332   2.595   0.652   0.833  0.3056  0.0657 -0.2741
  315SOL    HW2 1333   2.501   0.666   0.844  0.3170 -0.5652  0.7152
  315SOL    HW3 1334   2.608   0.647   0.738 -0.8223 -0.8933 -0.3880
  315SOL    MW4 1335   2.584   0.653   0.822  0.1581 -0.1441 -0.1586
  316SOL     OW 1336   3.730   0.412   0.859  0.8470 -0.2771  0.2388
  316SOL    HW2 1337   3.643   0.446   0.839  0.8461 -0.5932 -0.3091
  316SOL    HW3 1338   3.746   0.437   0.950  0.1414 -0.3110  0.3703
  316SOL    MW4 1339   3.721   0.420   0.868  0.7539 -0.3232  0.1839
  317SOL     OW 1340   2.975   4.084   0.468 -0.1688 -0.3116 -0.3834
  317SOL    HW2 1341   2.997   4.051   0.555  1.0424  1.2236 -0.0963
  317SOL    HW3 1342   2.985   4.179   0.475 -2.2808  0.0457 -1.5695
  317SOL    MW4 1343   2.979   4.093   0.481 -0.2875 -0.0620 -0.5020
  318SOL     OW 1344   0.951   1.666   0.503  0.2479 -0.0871  0.1713
  318SOL    HW2 1345   0.921   1.708   0.423  1.2750 -0.4174 -0.3928
  318SOL    HW3 1346   0.872   1.652   0.555 -0.2699  1.2638 -0.2480
  318SOL    MW4 1347   0.937   1.670   0.500  0.3151  0.0474  0.0415
  319SOL     OW 1348   0.998   0.498   0.341  0.3644  0.1424  0.0798
  319SOL    HW2 1349   1.069   0.562   0.348  0.4901 -0.0015  0.1079
  319SOL    HW3 1350   1.035   0.417   0.375  0.0163  0.2034  0.6130
  319SOL    MW4 1351   1.012   0.496   0.346  0.3350  0.1314  0.1539
  320SOL     OW 1352   3.833   4.661   0.825 -0.0929  0.1556  0.2360
  320SOL    HW2 1353   3.752   4.712   0.826 -0.2931 -0.1658  0.9267
  320SOL    HW3 1354   3.805   4.572   0.801  0.1374  0.1797 -0.1249
  320SOL    MW4 1355   3.819   4.656   0.822 -0.0889  0.1159  0.2795
  321SOL     OW 1356   1.062   0.012   0.494  0.1921  0.0323  0.0066
  321SOL    HW2 1357   0.968  -0.010   0.494  0.2475 -0.3064 -1.9535
  321SOL    HW3 1358   1.065   0.107   0.495 -0.1228  0.0571  2.0892
  321SOL    MW4 1359   1.050   0.021   0.495  0.1577 -0.0092  0.0228
  322SOL     OW 1360   1.391   1.119   0.875  0.1774 -0.1634  0.2026
  322SOL    HW2 1361   1.469   1.077   0.838  0.5334  0.0238  0.7269
  322SOL    HW3 1362   1.394   1.208   0.841  0.4649 -0.0124  0.6239
  322SOL    MW4 1363   1.402   1.125   0.866  0.2624 -0.1187  0.3274
  323SOL     OW 1364   1.891   0.577   0.404  0.3590 -0.2379 -0.2061
  323SOL    HW2 1365   1.835   0.643   0.444  0.1263 -1.1329  0.9500
  323SOL    HW3 1366   1.861   0.573   0.313 -2.2155 -1.4987  0.6526
  323SOL    MW4 1367   1.880   0.585   0.397 -0.0114 -0.5223  0.0597
  324SOL     OW 1368   1.918   2.630   0.403 -0.1759  0.3306 -0.0676
  324SOL    HW2 1369   1.863   2.705   0.381  1.3192  0.8072 -2.3546
  324SOL    HW3 1370   1.978   2.662   0.470 -0.0649  0.9752 -0.4709
  324SOL    MW4 1371   1.919   2.644   0.409  0.0359  0.4787 -0.4226
  325SOL     OW 1372   1.102   3.971   0.860  0.4150  0.0850 -0.6254
  325SOL    HW2 1373   1.127   3.979   0.953 -1.2931  1.5791 -0.2595
  325SOL    HW3 1374   1.177   3.928   0.819  1.5918  0.2334  1.2866
  325SOL    MW4 1375   1.115   3.967   0.867  0.3450  0.3018 -0.3248
  326SOL     OW 1376   2.021   3.823   1.097  0.0568 -0.2767 -0.4916
  326SOL    HW2 1377   1.947   3.859   1.146 -0.8614 -0.7047 -1.5393
  326SOL    HW3 1378   2.026   3.732   1.126 -0.8238 -0.6800 -1.5464
  326SOL    MW4 1379   2.012   3.816   1.108 -0.1807 -0.3865 -0.7691
  327SOL     OW 1380   0.060   2.709   0.551 -0.0266  0.2945  0.2245
  327SOL    HW2 1381   0.071   2.802   0.567  0.0164  0.3791 -0.3080
  327SOL    HW3 1382   0.101   2.693   0.466  1.1865 -0.4570  0.9270
  327SOL    MW4 1383   0.067   2.719   0.542  0.1391  0.2067  0.2470
  328SOL     OW 1384   3.798   3.429   0.595  0.1131 -0.0668  0.1753
  328SOL    HW2 1385   3.743   3.504   0.573  1.3855  0.7339 -0.3189
  328SOL    HW3 1386   3.738   3.366   0.636 -0.7676  1.6355  1.5586
  328SOL    MW4 1387   3.783   3.431   0.598  0.1650  0.2637  0.2925
  329SOL     OW 1388   4.444   2.270   0.724 -0.1538 -0.2574 -0.5464
  329SOL    HW2 1389   4.461   2.363   0.737  0.3251 -0.4561  0.3122
  329SOL    HW3 1390   4.475   2.251   0.635  1.3811  0.0247 -0.0848
  329SOL    MW4 1391   4.450   2.280   0.714  0.1125 -0.2460 -0.3722
  330SOL     OW 1392   1.053   3.160   0.766 -0.1654  0.2723  0.5286
  330SOL    HW2 1393   1.082   3.138   0.854  0.1788 -0.6026  0.1948
  330SOL    HW3 1394   1.121   3.219   0.733  0.7391 -0.9681  0.1241
  330SOL    MW4 1395   1.066   3.165   0.773 -0.0006 -0.0067  0.4312
  331SOL     OW 1396   0.276   1.168   0.475 -0.3767 -0.6922  0.1401
  331SOL    HW2 1397   0.247   1.254   0.506 -0.9386 -1.4312  1.7555
  331SOL    HW3 1398   0.371   1.175   0.468 -0.5443  0.4589 -1.0276
  331SOL    MW4 1399   0.285   1.180   0.478 -0.4730 -0.6378  0.1992
  332SOL     OW 1400   0.844   2.532   0.622 -0.2472  0.2233  0.4398
  332SOL    HW2 1401   0.926   2.555   0.577 -0.8405  0.0813 -0.7157
  332SOL    HW3 1402   0.848   2.581   0.704  0.9155  0.3651  0.3147
  332SOL    MW4 1403   0.856   2.541   0.627 -0.1720  0.2234  0.2709
  333SOL     OW 1404   0.627   1.563   0.880  0.0704 -0.2608 -0.2004
  333SOL    HW2 1405   0.533   1.567   0.866  0.2127  0.5012 -1.0831
  333SOL    HW3 1406   0.639   1.579   0.973 -0.6086  1.0173 -0.3189
  333SOL    MW4 1407   0.617   1.566   0.890 -0.0004  0.0085 -0.3325
  334SOL     OW 1408   0.625   0.712   0.831 -0.4232 -0.4247 -0.1127
  334SOL    HW2 1409   0.556   0.649   0.810 -2.0039  0.7228  1.5475
  334SOL    HW3 1410   0.605   0.789   0.779 -0.1759 -0.2205  0.0896
  334SOL    MW4 1411   0.614   0.714   0.822 -0.5991 -0.2463  0.1330
  335SOL     OW 1412   0.455   3.649   0.474  0.5397  0.2327  0.2967
  335SOL    HW2 1413   0.429   3.738   0.498  0.1345  0.2827 -0.3225
  335SOL    HW3 1414   0.432   3.641   0.381 -1.0215 -1.0952  0.7798
  335SOL    MW4 1415   0.449   3.660   0.465  0.2803  0.0641  0.2788
  336SOL     OW 1416   0.185   1.675   0.882 -0.5045 -0.1662 -0.4856
  336SOL    HW2 1417   0.197   1.637   0.969 -1.2143  0.3766 -0.1437
  336SOL    HW3 1418   0.240   1.754   0.883  0.2418 -0.6809 -0.8681
  336SOL    MW4 1419   0.194   1.681   0.893 -0.4997 -0.1625 -0.4910
  337SOL     OW 1420   0.093   4.548   0.374 -0.4196  0.2928  0.6562
  337SOL    HW2 1421   0.036   4.623   0.391 -1.0601 -0.1618  0.5146
  337SOL    HW3 1422   0.036   4.482   0.336  0.1607 -0.2506  0.7136
  337SOL    MW4 1423   0.078   4.549   0.371 -0.4276  0.1612  0.6451
  338SOL     OW 1424   3.882   4.532   0.287  0.6331 -0.1315 -0.4062
  338SOL    HW2 1425   3.836   4.483   0.355  0.1526  0.2765 -0.4406
  338SOL    HW3 1426   3.971   4.543   0.321 -0.1366  1.7961  1.0442
  338SOL    MW4 1427   3.888   4.527   0.300  0.4680  0.1769 -0.2193
  339SOL     OW 1428   2.342   2.379   0.749  0.0494 -0.5809  0.1210
  339SOL    HW2 1429   2.325   2.335   0.666  1.2287  0.5472 -0.7421
  339SOL    HW3 1430   2.424   2.342   0.780  0.5847  0.3264 -0.1690
  339SOL    MW4 1431   2.351   2.368   0.742  0.2756 -0.3123 -0.0311
  340SOL     OW 1432   4.156   3.464   0.579  0.4258 -0.0775 -0.1112
  340SOL    HW2 1433   4.233   3.416   0.610 -0.0440 -0.9692 -0.2945
  340SOL    HW3 1434   4.123   3.411   0.506 -1.0642 -0.3486  0.7476
  340SOL    MW4 1435   4.162   3.450   0.573  0.1674 -0.2310 -0.0221
  341SOL     OW 1436   1.350   4.312   1.093 -0.3173  0.1181 -0.2531
  341SOL    HW2 1437   1.333   4.323   1.000  2.0972  0.3899 -0.7108
  341SOL    HW3 1438   1.269   4.338   1.136 -1.4718 -0.0392 -2.2745
  341SOL    MW4 1439   1.337   4.317   1.086 -0.1510  0.1335 -0.5802
  342SOL     OW 1440   2.154   0.012   0.660 -0.4554  0.2259 -0.1817
  342SOL    HW2 1441   2.076   0.067   0.658 -0.3553  0.3234 -2.9364
  342SOL    HW3 1442   2.120  -0.078   0.665 -0.7329  0.3332 -0.1519
  342SOL    MW4 1443   2.139   0.007   0.660 -0.4790  0.2529 -0.5412
  343SOL     OW 1444   0.372   1.515   0.733 -0.3581 -0.6936  0.2932
  343SOL    HW2 1445   0.361   1.531   0.639  1.5881 -0.8204  0.0284
  343SOL    HW3 1446   0.300   1.562   0.774  0.3947  1.7077 -1.0722
  343SOL    MW4 1447   0.361   1.523   0.726 -0.0020 -0.3934  0.0781
  344SOL     OW 1448   3.227   0.384   0.846 -0.4513 -0.4280 -0.1901
  344SOL    HW2 1449   3.187   0.377   0.933  0.5574 -0.8162  0.2418
  344SOL    HW3 1450   3.207   0.301   0.803  0.1187 -0.7290  0.1239
  344SOL    MW4 1451   3.219   0.372   0.852 -0.2429 -0.5189 -0.0917
  345SOL     OW 1452   2.104   4.409   0.705 -0.1388 -0.6129 -0.7305
  345SOL    HW2 1453   2.179   4.363   0.742  0.3269 -0.2802 -1.2461
  345SOL    HW3 1454   2.028   4.358   0.732  0.2530 -0.8074  0.0115
  345SOL    MW4 1455   2.104   4.397   0.713 -0.0257 -0.5946 -0.7007
  346SOL     OW 1456   3.675   2.114   0.480  0.0545 -0.1766 -0.2898
  346SOL    HW2 1457   3.714   2.098   0.566 -0.3413  1.9137  0.3057
  346SOL    HW3 1458   3.584   2.085   0.489 -0.0034  0.1013  0.0075
  346SOL    MW4 1459   3.668   2.108   0.493 -0.0055  0.1359 -0.1720
  347SOL     OW 1460   0.199   3.273   0.609  0.2049  0.0084  0.1993
  347SOL    HW2 1461   0.162   3.300   0.525  1.3116  0.0597 -0.2794
  347SOL    HW3 1462   0.126   3.234   0.656 -0.2405 -0.7146 -1.0854
  347SOL    MW4 1463   0.185   3.272   0.604  0.2922 -0.0801 -0.0334
  348SOL     OW 1464   1.553   0.756   1.147  0.0929 -0.0599  0.2857
  348SOL    HW2 1465   1.569   0.662   1.152  0.4790  0.1271  4.2773
  348SOL    HW3 1466   1.633   0.796   1.181 -0.8609  1.5993  0.6466
  348SOL    MW4 1467   1.566   0.749   1.152  0.0180  0.1837  0.8599
  349SOL     OW 1468   4.047   2.700   1.104 -0.0758  0.3851 -0.1076
  349SOL    HW2 1469   4.072   2.748   1.026 -0.1017 -1.1859 -1.1205
  349SOL    HW3 1470   3.981   2.755   1.146  0.6866  1.7228 -0.6370
  349SOL    MW4 1471   4.041   2.713   1.099  0.0215  0.3543 -0.3110
  350SOL     OW 1472   4.249   1.487   0.828 -0.0100  0.1200  0.0950
  350SOL    HW2 1473   4.307   1.528   0.764 -0.4278  0.7738  0.1319
  350SOL    HW3 1474   4.279   1.396   0.832  0.3576  0.2004 -0.6434
  350SOL    MW4 1475   4.261   1.480   0.820 -0.0172  0.2167  0.0024
  351SOL     OW 1476   3.549   1.683   0.786  0.2269 -0.2832  0.7995
  351SOL    HW2 1477   3.637   1.646   0.800  0.3616  0.2275  1.3212
  351SOL    HW3 1478   3.555   1.772   0.819 -0.2888 -0.0086  0.1570
  351SOL    MW4 1479   3.562   1.690   0.792  0.1767 -0.1795  0.7836
  352SOL     OW 1480   2.158   0.715   0.524  0.5284  0.1625  0.0409
  352SOL    HW2 1481   2.102   0.652   0.478 -0.2041 -0.0308  1.1693
  352SOL    HW3 1482   2.224   0.662   0.567  0.8869  0.2977 -0.3441
  352SOL    MW4 1483   2.159   0.700   0.523  0.4787  0.1549  0.1390
  353SOL     OW 1484   3.214   0.404   0.432  0.3694 -0.4932  0.0741
  353SOL    HW2 1485   3.164   0.404   0.513  0.8740  2.0139  0.4460
  353SOL    HW3 1486   3.179   0.331   0.381 -3.5370  1.0109  0.3949
  353SOL    MW4 1487   3.203   0.394   0.436 -0.0796  0.0360  0.1655
  354SOL     OW 1488   2.039   3.110   0.844  0.0346  0.2321 -0.2448
  354SOL    HW2 1489   2.007   3.054   0.773  0.9753  0.4219 -0.8251
  354SOL    HW3 1490   2.123   3.142   0.813 -0.1101  1.2959  0.4469
  354SOL    MW4 1491   2.046   3.107   0.830  0.1397  0.3977 -0.2301
  355SOL     OW 1492   2.258   3.461   0.815  0.4263  0.1399  0.0247
  355SOL    HW2 1493   2.269   3.434   0.906 -0.5621  0.7177  0.3268
  355SOL    HW3 1494   2.339   3.508   0.793  0.0059  1.3875  1.1143
  355SOL    MW4 1495   2.270   3.463   0.824  0.2406  0.3808  0.2083
  356SOL     OW 1496   2.764   1.278   0.325 -0.2551  0.7712  0.2732
  356SOL    HW2 1497   2.840   1.334   0.342  0.1761  0.3399 -0.2154
  356SOL    HW3 1498   2.730   1.309   0.241  1.1255 -0.9460 -0.9376
  356SOL    MW4 1499   2.769   1.290   0.316 -0.0160  0.4879  0.0489
  357SOL     OW 1500   1.301   4.571   0.643  0.0145  0.5646  0.4967
  357SOL    HW2 1501   1.284   4.481   0.668  0.6174  0.8354  1.9266
  357SOL    HW3 1502   1.224   4.597   0.592  0.0266 -0.8686 -0.2650
  357SOL    MW4 1503   1.289   4.563   0.640  0.0957  0.4110  0.5848
  358SOL     OW 1504   0.649   3.006   0.871  0.2943 -0.5877  0.1909
  358SOL    HW2 1505   0.715   2.967   0.815 -0.4404  0.3972 -1.3767
  358SOL    HW3 1506   0.650   3.099   0.849 -2.2183 -0.6963 -0.4995
  358SOL    MW4 1507   0.658   3.013   0.861 -0.1342 -0.4723 -0.1070
  359SOL     OW 1508   1.073   0.642   0.839  0.3100 -0.3402 -0.1955
  359SOL    HW2 1509   1.076   0.685   0.925 -0.1524  0.4425 -0.5620
  359SOL    HW3 1510   1.163   0.649   0.806  0.7267 -1.5598  0.6585
  359SOL    MW4 1511   1.085   0.649   0.846  0.3040 -0.3979 -0.1312
  360SOL     OW 1512   0.803   4.576   0.511 -0.0202  0.0122 -0.0865
  360SOL    HW2 1513   0.732   4.517   0.486  1.6492 -2.2575  0.3717
  360SOL    HW3 1514   0.824   4.551   0.601  0.6901  1.3393  0.1308
  360SOL    MW4 1515   0.796   4.565   0.520  0.2937 -0.1121  0.0027
  361SOL     OW 1516   0.251   4.333   0.515 -0.4167  0.1659  0.0610
  361SOL    HW2 1517   0.240   4.422   0.482 -0.1639  0.0634 -0.3009
  361SOL    HW3 1518   0.251   4.343   0.610  0.1004  0.6117  0.0188
  361SOL    MW4 1519   0.250   4.346   0.523 -0.3151  0.2108  0.0077
  362SOL     OW 1520   3.474   3.849   0.473  0.1683  0.2256  0.6076
  362SOL    HW2 1521   3.516   3.894   0.547 -0.2274  2.1530 -0.3204
  362SOL    HW3 1522   3.405   3.908   0.445 -0.2196 -0.8692 -0.8014
  362SOL    MW4 1523   3.470   3.863   0.479  0.0648  0.3352  0.2993
  363SOL     OW 1524   2.113   2.501   0.202  0.3776 -0.6422  0.0532
  363SOL    HW2 1525   2.194   2.540   0.235 -0.4371  0.1320  1.1766
  363SOL    HW3 1526   2.045   2.538   0.258 -0.8968 -0.2855 -1.6907
  363SOL    MW4 1527   2.115   2.511   0.213  0.1020 -0.4928 -0.0287
  364SOL     OW 1528   4.023   1.608   0.452  0.0033 -0.4196  0.0584
  364SOL    HW2 1529   3.931   1.593   0.430 -0.1880 -1.1518  1.3080
  364SOL    HW3 1530   4.069   1.531   0.420  0.0825 -0.3757  0.0648
  364SOL    MW4 1531   4.017   1.596   0.445 -0.0114 -0.5105  0.2241
  365SOL     OW 1532   1.831   1.141   0.881 -0.2780  0.3204  0.0007
  365SOL    HW2 1533   1.820   1.228   0.843  0.4154 -0.1803 -1.3549
  365SOL    HW3 1534   1.892   1.096   0.822 -1.9857 -1.6873 -0.2774
  365SOL    MW4 1535   1.838   1.146   0.869 -0.4120 -0.0106 -0.2149
  366SOL     OW 1536   2.893   1.292   1.235  0.1548 -0.2275 -0.1758
  366SOL    HW2 1537   2.892   1.277   1.330 -1.3199 -2.6974 -0.5490
  366SOL    HW3 1538   2.973   1.249   1.205 -1.0154 -2.2339 -0.4583
  366SOL    MW4 1539   2.903   1.284   1.244 -0.1941 -0.8181 -0.2624
  367SOL     OW 1540   0.142   1.309   0.848  0.7274  0.2081 -0.0851
  367SOL    HW2 1541   0.228   1.276   0.875  1.0419  0.5316 -0.6868
  367SOL    HW3 1542   0.080   1.266   0.908  1.2512 -0.4667 -0.0185
  367SOL    MW4 1543   0.145   1.299   0.859  0.8380  0.1619 -0.1556
  368SOL     OW 1544   1.670   4.361   0.576 -0.0712  0.2260  0.2155
  368SOL    HW2 1545   1.730   4.353   0.650  1.2414 -2.0926 -1.0848
  368SOL    HW3 1546   1.594   4.309   0.602 -0.3191  0.7739  0.6139
  368SOL    MW4 1547   1.668   4.353   0.589  0.0691 -0.0086  0.0965
  369SOL     OW 1548   0.987   2.301   0.692 -0.3183  0.4007 -0.2771
  369SOL    HW2 1549   0.934   2.268   0.765  0.1583 -1.2803 -0.6686
  369SOL    HW3 1550   0.942   2.381   0.664 -1.5348  0.0655  0.6709
  369SOL    MW4 1551   0.974   2.307   0.698 -0.4159  0.1347 -0.2037
  370SOL     OW 1552   3.124   1.652   1.214 -0.4522 -0.1342 -0.4570
  370SOL    HW2 1553   3.126   1.662   1.309  0.0713  0.6937 -0.5530
  370SOL    HW3 1554   3.046   1.599   1.197 -1.7790  1.5532  0.2701
  370SOL    MW4 1555   3.114   1.646   1.224 -0.5581  0.1978 -0.3737
  371SOL     OW 1556   2.430   1.776   0.564 -0.1286  0.2563  0.6194
  371SOL    HW2 1557   2.465   1.757   0.651  0.0432 -1.6851  0.1460
  371SOL    HW3 1558   2.490   1.731   0.504 -0.5516  1.1284 -0.4678
  371SOL    MW4 1559   2.443   1.767   0.567 -0.1619  0.1153  0.4135
  372SOL     OW 1560   3.350   0.725   1.138 -0.2508  0.3735 -0.2197
  372SOL    HW2 1561   3.433   0.763   1.165  0.2486 -0.9994  0.2526
  372SOL    HW3 1562   3.351   0.730   1.043 -0.4150  1.9690 -0.1439
  372SOL    MW4 1563   3.361   0.730   1.129 -0.2065  0.4028 -0.1473
  373SOL     OW 1564   3.591   3.474   0.830 -0.0499 -0.1095  0.3800
  373SOL    HW2 1565   3.586   3.389   0.787 -0.1130  0.0739  0.0251
  373SOL    HW3 1566   3.521   3.526   0.789  0.1922  0.2115  0.3763
  373SOL    MW4 1567   3.581   3.470   0.819 -0.0262 -0.0432  0.3327
  374SOL     OW 1568   0.477   3.214   0.605 -0.3826 -0.3167  0.3067
  374SOL    HW2 1569   0.465   3.124   0.575 -0.8723 -0.8782  2.1293
  374SOL    HW3 1570   0.391   3.255   0.594 -0.7050 -0.6794  1.4293
  374SOL    MW4 1571   0.464   3.208   0.600 -0.4897 -0.4387  0.6953
  375SOL     OW 1572   1.821   4.224   1.068  0.3895  0.0187 -0.3766
  375SOL    HW2 1573   1.740   4.261   1.104  0.4236 -0.7004  0.4583
  375SOL    HW3 1574   1.818   4.132   1.092  1.6305  0.0598 -0.0267
  375SOL    MW4 1575   1.810   4.217   1.076  0.5578 -0.0710 -0.2203
  376SOL     OW 1576   3.909   2.165   0.076 -0.9607 -0.2025  0.6588
  376SOL    HW2 1577   3.871   2.235   0.023 -2.6214 -1.1160  0.6171
  376SOL    HW3 1578   3.933   2.208   0.158  0.6912  1.0004 -0.4110
  376SOL    MW4 1579   3.907   2.180   0.080 -0.9620 -0.1640  0.5121
  377SOL     OW 1580   4.444   3.546   0.820  0.1883 -0.2307 -0.4366
  377SOL    HW2 1581   4.470   3.531   0.911 -1.7266  1.4278  0.4347
  377SOL    HW3 1582   4.506   3.612   0.788  0.4950 -0.3762 -0.1455
  377SOL    MW4 1583   4.456   3.553   0.828 -0.0238 -0.0308 -0.2833
  378SOL     OW 1584   1.128   3.379   0.404  0.2712  0.0751 -0.5838
  378SOL    HW2 1585   1.160   3.383   0.494 -0.1605  0.2708 -0.4357
  378SOL    HW3 1586   1.140   3.288   0.379 -0.1932 -0.1274 -0.1016
  378SOL    MW4 1587   1.134   3.367   0.413  0.1528  0.0744 -0.5006
  379SOL     OW 1588   3.151   2.571   0.517  0.0544  0.3702  0.7328
  379SOL    HW2 1589   3.161   2.518   0.597  1.7466  1.0340  0.9858
  379SOL    HW3 1590   3.180   2.513   0.447  1.9430  0.9217  1.0136
  379SOL    MW4 1591   3.157   2.557   0.518  0.5269  0.5307  0.8032
  380SOL     OW 1592   1.313   2.808   0.817  0.0711 -0.0912  0.5123
  380SOL    HW2 1593   1.339   2.737   0.758  0.3528 -0.2164  0.7856
  380SOL    HW3 1594   1.319   2.770   0.904 -1.4925 -0.2628  0.5560
  380SOL    MW4 1595   1.318   2.794   0.820 -0.0981 -0.1302  0.5541
  381SOL     OW 1596   1.059   4.210   0.728 -0.2635 -0.1456  0.3402
  381SOL    HW2 1597   1.080   4.139   0.789  1.0023  0.6809  0.8920
  381SOL    HW3 1598   0.977   4.247   0.761 -0.2669 -0.5380  0.7732
  381SOL    MW4 1599   1.051   4.206   0.740 -0.0970 -0.0887  0.4702
  382SOL     OW 1600   2.117   2.714   0.599  0.1043 -0.2511  0.1213
  382SOL    HW2 1601   2.158   2.682   0.680 -1.3804  0.5121  1.2053
  382SOL    HW3 1602   2.188   2.759   0.552  1.7332 -3.3619 -0.4918
  382SOL    MW4 1603   2.132   2.716   0.604  0.1233 -0.5605  0.1834
  383SOL     OW 1604   2.244   4.038   0.681  0.4099  0.0375 -0.3041
  383SOL    HW2 1605   2.176   3.992   0.731  0.6019 -0.2992 -0.3436
  383SOL    HW3 1606   2.251   4.124   0.723  1.1105 -0.5181  0.7615
  383SOL    MW4 1607   2.236   4.043   0.693  0.5276 -0.0801 -0.1686
  384SOL     OW 1608   1.966   3.635   0.428  0.2191 -0.3880  0.1052
  384SOL    HW2 1609   1.871   3.651   0.428  0.2391  0.1499  3.6424
  384SOL    HW3 1610   2.004   3.720   0.407 -0.0505  0.2767  2.1782
  384SOL    MW4 1611   1.958   3.649   0.425  0.1861 -0.2291  0.8454
  385SOL     OW 1612   0.358   0.582   0.729  0.5048 -0.0891  0.0850
  385SOL    HW2 1613   0.341   0.570   0.635 -1.4176 -0.3569  0.4287
  385SOL    HW3 1614   0.301   0.655   0.754  0.0800 -0.8100  1.2629
  385SOL    MW4 1615   0.348   0.590   0.720  0.1951 -0.2196  0.2857
  386SOL     OW 1616   2.098   1.809   0.753 -0.1229 -0.2795 -0.0925
  386SOL    HW2 1617   2.100   1.789   0.659  1.8633 -0.0955 -0.1113
  386SOL    HW3 1618   2.100   1.724   0.796  0.6625 -0.3349 -0.2236
  386SOL    MW4 1619   2.099   1.795   0.746  0.2429 -0.2625 -0.1122
  387SOL     OW 1620   2.408   2.854   0.728  0.7552 -0.5663  0.2935
  387SOL    HW2 1621   2.355   2.797   0.784 -0.9338  0.2956 -0.4051
  387SOL    HW3 1622   2.495   2.812   0.727 -0.4333 -3.1435 -0.2211
  387SOL    MW4 1623   2.413   2.841   0.735  0.3753 -0.7925  0.1334
  388SOL     OW 1624   2.273   3.213   0.726 -0.1191 -0.3136  0.0790
  388SOL    HW2 1625   2.278   3.304   0.752  4.5043 -0.0652 -1.2958
  388SOL    HW3 1626   2.347   3.171   0.770  0.0474 -2.5652 -2.2543
  388SOL    MW4 1627   2.283   3.219   0.735  0.5131 -0.5777 -0.4102
  389SOL     OW 1628   2.888   1.513   1.074 -0.1693  0.0581 -0.0664
  389SOL    HW2 1629   2.884   1.472   0.987  1.3065  0.1741 -0.1923
  389SOL    HW3 1630   2.860   1.443   1.134 -2.0891  0.2454 -0.6863
  389SOL    MW4 1631   2.883   1.498   1.070 -0.2277  0.0981 -0.1647
  390SOL     OW 1632   0.007   3.651   0.422  0.3575  0.1820 -0.3638
  390SOL    HW2 1633   0.016   3.720   0.356  0.1770  0.5483 -0.0067
  390SOL    HW3 1634  -0.074   3.671   0.468  0.9927  0.5106  0.6363
  390SOL    MW4 1635  -0.002   3.663   0.419  0.4172  0.2737 -0.1847
  391SOL     OW 1636   3.220   4.019   0.340  0.4663 -0.0369  0.2333
  391SOL    HW2 1637   3.136   4.042   0.379  1.6175  0.1257  2.7216
  391SOL    HW3 1638   3.269   4.101   0.337  1.3793 -0.5404  0.9537
  391SOL    MW4 1639   3.216   4.033   0.344  0.7386 -0.0825  0.6567
  392SOL     OW 1640   4.009   1.121   0.875 -0.2338 -0.3276 -0.0729
  392SOL    HW2 1641   4.000   1.176   0.798  0.5170  1.0177  0.7745
  392SOL    HW3 1642   3.953   1.045   0.857 -1.4464  0.7931 -1.1823
  392SOL    MW4 1643   4.000   1.118   0.863 -0.2947 -0.0021 -0.1074
  393SOL     OW 1644   0.388   3.906   0.547  0.0280  0.0883  0.3087
  393SOL    HW2 1645   0.363   3.911   0.639 -0.9963 -1.4885  0.1274
  393SOL    HW3 1646   0.322   3.958   0.501  0.4192  0.6996  0.4243
  393SOL    MW4 1647   0.376   3.914   0.553 -0.0555 -0.0391  0.3000
  394SOL     OW 1648   0.243   0.583   0.487 -0.0952 -0.1555  0.1346
  394SOL    HW2 1649   0.242   0.523   0.412 -0.2313  0.2295 -0.1728
  394SOL    HW3 1650   0.289   0.660   0.455  1.2590 -0.6198  0.9449
  394SOL    MW4 1651   0.249   0.585   0.473  0.0655 -0.1659  0.2010
  395SOL     OW 1652   2.487   0.505   1.230 -0.1160 -0.0940  0.4112
  395SOL    HW2 1653   2.472   0.516   1.324  0.4027 -0.2076  0.5091
  395SOL    HW3 1654   2.576   0.470   1.224 -0.0472  0.1730 -0.1343
  395SOL    MW4 1655   2.497   0.502   1.241 -0.0384 -0.0737  0.3521
  396SOL     OW 1656   0.130   3.396   0.363  0.2577  0.5755  0.3781
  396SOL    HW2 1657   0.217   3.420   0.332  0.4305  0.1729  0.5507
  396SOL    HW3 1658   0.083   3.479   0.372  0.3426  0.7330 -0.5648
  396SOL    MW4 1659   0.135   3.410   0.360  0.2917  0.5431  0.2765
  397SOL     OW 1660   2.914   3.640   0.690  0.4816 -0.2207 -0.0920
  397SOL    HW2 1661   2.908   3.716   0.748  1.1006 -0.3656  0.1710
  397SOL    HW3 1662   2.836   3.588   0.711 -0.7178  1.0510 -1.3157
  397SOL    MW4 1663   2.903   3.643   0.701  0.4051 -0.0720 -0.2187
  398SOL     OW 1664   2.445   3.879   1.088 -0.5390  0.0524  0.2140
  398SOL    HW2 1665   2.371   3.933   1.116 -0.1997  1.3129 -1.2971
  398SOL    HW3 1666   2.426   3.855   0.998  0.7559  0.1610 -0.1036
  398SOL    MW4 1667   2.433   3.883   1.080 -0.3231  0.2332 -0.0272
  399SOL     OW 1668   3.548   4.289   0.854  0.1661  0.2083  0.1708
  399SOL    HW2 1669   3.526   4.268   0.945 -0.7215 -1.2580 -0.3721
  399SOL    HW3 1670   3.474   4.343   0.824  0.5858  0.9128  0.3882
  399SOL    MW4 1671   3.535   4.293   0.862  0.1044  0.1082  0.1279
  400SOL     OW 1672   3.090   1.139   1.138  0.1163 -0.4767  0.0552
  400SOL    HW2 1673   3.165   1.185   1.174  0.5637  0.0660 -1.5268
  400SOL    HW3 1674   3.087   1.056   1.185  1.7333 -0.5165  0.0914
  400SOL    MW4 1675   3.099   1.134   1.149  0.3889 -0.4103 -0.1488
  401SOL     OW 1676   3.884   2.813   0.730 -0.2138  0.3816 -0.3657
  401SOL    HW2 1677   3.805   2.776   0.769  0.4289  0.3113  0.9066
  401SOL    HW3 1678   3.868   2.811   0.636 -1.6859  0.2918 -0.1215
  401SOL    MW4 1679   3.871   2.808   0.723 -0.3231  0.3603 -0.1657
  402SOL     OW 1680   1.532   2.966   0.768 -0.1431 -0.2927 -0.2611
  402SOL    HW2 1681   1.452   2.919   0.789 -0.8331  1.2791  0.7264
  402SOL    HW3 1682   1.602   2.902   0.786 -0.9832 -0.5795  2.3113
  402SOL    MW4 1683   1.531   2.951   0.773 -0.3451 -0.1228  0.2086
  403SOL     OW 1684   1.074   1.313   0.205  0.1000 -0.0017  0.0817
  403SOL    HW2 1685   0.997   1.323   0.261 -0.3343  0.6470 -0.6317
  403SOL    HW3 1686   1.044   1.336   0.118  0.6510 -1.4900 -0.5202
  403SOL    MW4 1687   1.060   1.317   0.201  0.1153 -0.1124 -0.0919
  404SOL     OW 1688   4.042   1.954   0.824  0.1646 -0.0167  0.0622
  404SOL    HW2 1689   4.113   2.002   0.780 -0.6681 -0.3513 -1.7002
  404SOL    HW3 1690   4.058   1.862   0.801 -0.4794 -0.1578  0.1707
  404SOL    MW4 1691   4.054   1.948   0.815 -0.0300 -0.0795 -0.1560
  405SOL     OW 1692   0.655   3.234   0.366 -0.0306  0.3172  0.1169
  405SOL    HW2 1693   0.734   3.287   0.379 -0.8050  1.6980 -0.6354
  405SOL    HW3 1694   0.614   3.231   0.453  0.0787  0.8748  0.1932
  405SOL    MW4 1695   0.660   3.241   0.379 -0.1184  0.5732  0.0277
  406SOL     OW 1696   2.974   0.018   0.830  0.6807 -0.5029 -0.2037
  406SOL    HW2 1697   2.953  -0.069   0.796  1.3207 -0.4490 -0.7386
  406SOL    HW3 1698   2.964   0.010   0.925  2.7270 -1.7196 -0.0559
  406SOL    MW4 1699   2.970   0.005   0.838  1.0352 -0.6563 -0.2548
  407SOL     OW 1700   3.983   3.330   0.400  0.1077 -0.6536 -0.2891
  407SOL    HW2 1701   3.940   3.349   0.316 -0.2857  0.4172  0.1397
  407SOL    HW3 1702   3.926   3.372   0.465  1.8883  0.9476  0.2746
  407SOL    MW4 1703   3.970   3.338   0.398  0.2906 -0.3011 -0.1581
  408SOL     OW 1704   1.337   0.663   0.740 -0.1541 -0.4876  0.0645
  408SOL    HW2 1705   1.370   0.650   0.652 -0.8210  0.0315 -0.2668
  408SOL    HW3 1706   1.414   0.682   0.793  0.1255  0.1807 -0.5939
  408SOL    MW4 1707   1.351   0.663   0.736 -0.2053 -0.3309 -0.0660
  409SOL     OW 1708   1.791   3.131   0.269 -0.5024 -0.0671  0.0280
  409SOL    HW2 1709   1.798   3.193   0.196 -1.1283  0.1208  0.1225
  409SOL    HW3 1710   1.866   3.151   0.325  0.2849 -0.5716 -0.8362
  409SOL    MW4 1711   1.802   3.142   0.267 -0.4811 -0.1090 -0.0736
  410SOL     OW 1712   0.059   4.085   0.190 -0.0044 -0.6405 -0.0083
  410SOL    HW2 1713  -0.002   4.017   0.219  0.6953 -0.3993  2.1308
  410SOL    HW3 1714   0.140   4.067   0.237  1.1703 -0.1430 -1.7771
  410SOL    MW4 1715   0.062   4.074   0.200  0.2430 -0.5436  0.0405
  411SOL     OW 1716   1.044   0.359   0.805  0.4611 -0.0010  0.1007
  411SOL    HW2 1717   0.957   0.349   0.844  0.7761  0.3581  0.9088
  411SOL    HW3 1718   1.075   0.443   0.838  1.3989 -0.4547  0.3729
  411SOL    MW4 1719   1.037   0.369   0.815  0.6264 -0.0134  0.2432
  412SOL     OW 1720   3.212   2.966   0.374  0.1816  0.1988 -0.0188
  412SOL    HW2 1721   3.233   3.052   0.408  0.1226  0.3583 -0.3832
  412SOL    HW3 1722   3.116   2.965   0.367  0.2013  0.2123 -0.2949
  412SOL    MW4 1723   3.202   2.977   0.378  0.1767  0.2217 -0.1033
  413SOL     OW 1724   3.006   3.320   0.366 -0.5290 -0.3778  0.1957
  413SOL    HW2 1725   2.994   3.414   0.373  0.7358 -0.3327  2.1637
  413SOL    HW3 1726   2.963   3.296   0.284 -0.7814  1.9139 -0.3672
  413SOL    MW4 1727   2.999   3.329   0.356 -0.3955 -0.0691  0.3811
  414SOL     OW 1728   0.674   3.817   1.106 -0.2963 -0.0100 -0.1343
  414SOL    HW2 1729   0.651   3.836   1.015 -0.0633 -1.1694 -0.4357
  414SOL    HW3 1730   0.744   3.879   1.126 -0.5841  0.4887 -0.6260
  414SOL    MW4 1731   0.680   3.828   1.097 -0.3035 -0.0968 -0.2391
  415SOL     OW 1732   4.258   3.091   1.126 -0.0706 -0.0248 -0.2958
  415SOL    HW2 1733   4.331   3.128   1.177 -0.1546  1.5772 -1.3122
  415SOL    HW3 1734   4.180   3.125   1.169 -0.1327  2.5302 -2.2867
  415SOL    MW4 1735   4.258   3.101   1.138 -0.0901  0.5233 -0.6926
  416SOL     OW 1736   0.126   3.745   0.683  0.1287 -0.5976  0.1241
  416SOL    HW2 1737   0.213   3.712   0.704 -0.6936 -2.1836  1.1668
  416SOL    HW3 1738   0.112   3.719   0.592  1.2249  0.7602 -0.4411
  416SOL    MW4 1739   0.136   3.737   0.674  0.1648 -0.6275  0.1871
  417SOL     OW 1740   1.231   2.390   0.828 -0.0660  0.2842 -0.2573
  417SOL    HW2 1741   1.151   2.365   0.780  0.7558  0.9182 -2.0232
  417SOL    HW3 1742   1.209   2.378   0.920 -1.9960 -0.1557 -0.7542
  417SOL    MW4 1743   1.217   2.385   0.834 -0.2122  0.3097 -0.5559
  418SOL     OW 1744   4.267   2.766   0.502  0.2024  0.4506 -0.1636
  418SOL    HW2 1745   4.354   2.725   0.506 -0.1780 -0.2794  0.7682
  418SOL    HW3 1746   4.274   2.843   0.557  0.5881  1.0242 -1.0063
  418SOL    MW4 1747   4.279   2.770   0.510  0.2031  0.4301 -0.1519
  419SOL     OW 1748   3.958   4.017   0.735  0.1662  0.6724  0.2018
  419SOL    HW2 1749   3.878   3.966   0.751  0.9354 -0.8441 -0.6960
  419SOL    HW3 1750   3.967   4.018   0.640  2.2911 -0.8710  0.3666
  419SOL    MW4 1751   3.949   4.010   0.725  0.5479  0.2685  0.1050
  420SOL     OW 1752   3.123   0.100   0.383  0.2237 -0.2548  0.5854
  420SOL    HW2 1753   3.049   0.040   0.380 -0.9254  1.0276  2.4408
  420SOL    HW3 1754   3.143   0.110   0.476  1.3351  1.1052  0.2230
  420SOL    MW4 1755   3.116   0.094   0.395  0.2186  0.0939  0.7824
  421SOL     OW 1756   2.640   4.272   1.105  0.0120 -0.0627  0.1194
  421SOL    HW2 1757   2.579   4.309   1.169  1.3903  3.3889 -0.4298
  421SOL    HW3 1758   2.658   4.184   1.137 -0.9294  0.8425  3.3712
  421SOL    MW4 1759   2.634   4.266   1.118  0.0696  0.5121  0.4760
  422SOL     OW 1760   0.574   4.441   0.437 -0.2838  0.0659  0.5721
  422SOL    HW2 1761   0.576   4.389   0.518  0.7493 -0.3490  0.2841
  422SOL    HW3 1762   0.573   4.376   0.367  0.4451  0.4361  0.2174
  422SOL    MW4 1763   0.574   4.425   0.439 -0.0514  0.0591  0.4873
  423SOL     OW 1764   3.847   1.490   1.115 -0.0634 -0.3207 -0.0980
  423SOL    HW2 1765   3.918   1.553   1.128  0.6081 -0.9313 -0.8061
  423SOL    HW3 1766   3.767   1.540   1.133  0.4645  0.7236 -0.6177
  423SOL    MW4 1767   3.846   1.505   1.119  0.0949 -0.2636 -0.2601
  424SOL     OW 1768   4.172   3.595   0.859  0.1350  0.0836 -0.2516
  424SOL    HW2 1769   4.169   3.691   0.855  1.2891  0.1586  0.4644
  424SOL    HW3 1770   4.265   3.574   0.851  0.0557 -0.8934  1.1591
  424SOL    MW4 1771   4.184   3.605   0.857  0.2766 -0.0353  0.0290
  425SOL     OW 1772   3.389   1.965   1.230 -0.1595 -0.0609 -0.0017
  425SOL    HW2 1773   3.402   2.057   1.210 -0.0094 -0.6021 -2.4955
  425SOL    HW3 1774   3.302   1.944   1.194 -0.4340 -0.7637  1.0413
  425SOL    MW4 1775   3.379   1.974   1.223 -0.1757 -0.2251 -0.1931
  426SOL     OW 1776   0.255   2.041   0.558 -0.0082 -0.0538 -0.2671
  426SOL    HW2 1777   0.295   2.047   0.645 -0.0630 -0.8762 -0.1823
  426SOL    HW3 1778   0.315   1.986   0.508 -0.1446  0.1517 -0.6579
  426SOL    MW4 1779   0.268   2.034   0.563 -0.0334 -0.1352 -0.3075
  427SOL     OW 1780   2.247   2.655   0.834  0.0984  0.2005  0.0377
  427SOL    HW2 1781   2.279   2.566   0.823 -0.8308 -0.2904  1.1854
  427SOL    HW3 1782   2.246   2.669   0.929 -1.7330  0.6833 -0.0253
  427SOL    MW4 1783   2.251   2.645   0.845 -0.2656  0.1996  0.1808
  428SOL     OW 1784   2.360   0.544   0.616 -0.0844 -0.3492 -0.0361
  428SOL    HW2 1785   2.438   0.571   0.569  0.1086 -0.3327  0.2935
  428SOL    HW3 1786   2.374   0.452   0.636 -0.8595 -0.7715 -1.3935
  428SOL    MW4 1787   2.372   0.536   0.612 -0.1612 -0.4027 -0.1717
  429SOL     OW 1788   0.887   1.277   0.422 -1.0579  0.0803 -0.0743
  429SOL    HW2 1789   0.940   1.314   0.493  1.2623  0.3110 -1.9043
  429SOL    HW3 1790   0.881   1.184   0.442  0.0303  0.0549  0.1577
  429SOL    MW4 1791   0.893   1.270   0.434 -0.6083  0.1073 -0.2851
  430SOL     OW 1792   2.352   2.606   0.293 -0.3621 -0.5385 -0.1183
  430SOL    HW2 1793   2.396   2.650   0.220 -1.5336  0.0847 -0.4757
  430SOL    HW3 1794   2.330   2.677   0.354 -2.6505 -0.5111 -0.9054
  430SOL    MW4 1795   2.355   2.621   0.291 -0.8185 -0.4528 -0.2693
  431SOL     OW 1796   4.207   4.351   0.693 -0.3136 -0.5185  0.4555
  431SOL    HW2 1797   4.190   4.331   0.601  0.0944 -0.6941  0.4167
  431SOL    HW3 1798   4.127   4.324   0.738 -1.1301  1.0194 -0.0385
  431SOL    MW4 1799   4.194   4.344   0.687 -0.3676 -0.3390  0.3852
  432SOL     OW 1800   2.341   2.849   0.455 -0.0537 -0.1640 -0.0971
  432SOL    HW2 1801   2.313   2.938   0.435  1.0609  0.1099 -0.4566
  432SOL    HW3 1802   2.375   2.853   0.545 -0.4881 -0.3419  0.0774
  432SOL    MW4 1803   2.342   2.861   0.464  0.0360 -0.1512 -0.1215
  433SOL     OW 1804   0.765   0.606   0.432 -0.2555 -0.2742 -0.5113
  433SOL    HW2 1805   0.801   0.643   0.513  0.2541 -0.1894 -0.7759
  433SOL    HW3 1806   0.839   0.564   0.390 -0.5719 -0.5243 -0.8249
  433SOL    MW4 1807   0.779   0.605   0.437 -0.2301 -0.2961 -0.5877
  434SOL     OW 1808   4.182   3.867   0.823 -0.2503 -0.6796  0.4606
  434SOL    HW2 1809   4.102   3.917   0.804  0.2959  0.2967  0.7082
  434SOL    HW3 1810   4.211   3.901   0.908 -0.2850 -1.9475  0.9803
  434SOL    MW4 1811   4.175   3.878   0.832 -0.1826 -0.7179  0.5618
  435SOL     OW 1812   0.040   2.209   0.481  0.0106  0.6035 -0.1843
  435SOL    HW2 1813  -0.032   2.155   0.450 -0.9941  2.1328 -0.5459
  435SOL    HW3 1814   0.115   2.149   0.486 -0.8669 -0.6058 -1.4249
  435SOL    MW4 1815   0.040   2.194   0.478 -0.2377  0.6456 -0.3956
  436SOL     OW 1816   3.185   2.304   0.359 -0.0420  0.4011  0.3106
  436SOL    HW2 1817   3.185   2.308   0.264 -0.1702 -0.5101  0.2661
  436SOL    HW3 1818   3.128   2.230   0.380 -0.5468  1.0073  1.1143
  436SOL    MW4 1819   3.177   2.295   0.349 -0.1256  0.3607  0.4108
  437SOL     OW 1820   1.564   3.956   0.814  0.5699 -0.2404 -0.5928
  437SOL    HW2 1821   1.565   3.939   0.908  0.9033  0.1753 -0.5222
  437SOL    HW3 1822   1.654   3.978   0.792  0.4562 -0.1526 -0.9753
  437SOL    MW4 1823   1.576   3.956   0.823  0.5989 -0.1738 -0.6340
  438SOL     OW 1824   2.651   4.027   0.813  0.0693  0.1849 -0.6221
  438SOL    HW2 1825   2.625   4.118   0.826  0.0174 -0.0627  1.1400
  438SOL    HW3 1826   2.575   3.976   0.840  0.4112 -0.3958 -0.7420
  438SOL    MW4 1827   2.638   4.032   0.819  0.1075  0.0749 -0.4054
  439SOL     OW 1828   1.826   4.001   0.724  0.6333  0.0885  0.0134
  439SOL    HW2 1829   1.906   3.967   0.765  1.4809  1.7958 -0.2064
  439SOL    HW3 1830   1.845   3.999   0.631 -0.1914 -0.9805 -0.1440
  439SOL    MW4 1831   1.839   3.996   0.717  0.6363  0.1726 -0.0364
  440SOL     OW 1832   1.748   2.796   0.805  0.6598 -0.6463 -0.5498
  440SOL    HW2 1833   1.793   2.793   0.890  1.3678 -0.2603 -0.9004
  440SOL    HW3 1834   1.707   2.710   0.796 -0.0072 -0.4485  0.4935
  440SOL    MW4 1835   1.749   2.784   0.815  0.6652 -0.5693 -0.4584
  441SOL     OW 1836   0.438   1.268   0.825 -0.1584 -0.1539 -0.3119
  441SOL    HW2 1837   0.411   1.201   0.762 -1.5072 -0.3072  0.4105
  441SOL    HW3 1838   0.419   1.351   0.781  2.8288 -0.1895 -1.7773
  441SOL    MW4 1839   0.432   1.270   0.811  0.0578 -0.1788 -0.4100
  442SOL     OW 1840   2.056   3.420   0.292 -0.1734  0.1087  0.2431
  442SOL    HW2 1841   1.988   3.428   0.225 -1.0445  0.2322  1.1372
  442SOL    HW3 1842   2.047   3.499   0.345  0.4195 -0.0621  0.6010
  442SOL    MW4 1843   2.046   3.431   0.290 -0.2100  0.1023  0.4082
  443SOL     OW 1844   1.438   2.418   0.463  0.3291 -0.3344 -0.0667
  443SOL    HW2 1845   1.406   2.483   0.525 -0.0148  0.6355 -1.2496
  443SOL    HW3 1846   1.532   2.436   0.456  0.3845 -0.4990  0.2208
  443SOL    MW4 1847   1.446   2.429   0.470  0.2912 -0.2282 -0.1848
  444SOL     OW 1848   2.791   0.117   0.629  0.3721  0.0389  0.2511
  444SOL    HW2 1849   2.718   0.056   0.634  1.7812 -1.6720  0.6833
  444SOL    HW3 1850   2.845   0.096   0.706  1.1763  1.4455  0.0865
  444SOL    MW4 1851   2.789   0.106   0.640  0.6642 -0.0013  0.2864
  445SOL     OW 1852   0.713   2.364   0.352  0.1984  0.1217 -0.0998
  445SOL    HW2 1853   0.722   2.310   0.431  1.2617  0.8542  0.2878
  445SOL    HW3 1854   0.680   2.448   0.384  0.7757  0.4700 -0.4236
  445SOL    MW4 1855   0.710   2.368   0.367  0.4149  0.2642 -0.0915
  446SOL     OW 1856   2.727   3.589   0.314 -0.1901  0.2602 -0.4326
  446SOL    HW2 1857   2.815   3.587   0.350 -0.6505 -0.4236  0.6793
  446SOL    HW3 1858   2.714   3.681   0.288  0.9401  0.2992 -0.8733
  446SOL    MW4 1859   2.737   3.601   0.316 -0.1016  0.1752 -0.3441
  447SOL     OW 1860   3.385   2.108   0.769 -0.0448  0.2074 -0.4496
  447SOL    HW2 1861   3.306   2.063   0.800 -0.7254  1.0362 -0.9788
  447SOL    HW3 1862   3.457   2.062   0.812 -0.6932 -1.7474 -1.3890
  447SOL    MW4 1863   3.384   2.096   0.779 -0.2203  0.0587 -0.6434
  448SOL     OW 1864   2.631   4.350   0.831  0.0070  0.3337  0.2098
  448SOL    HW2 1865   2.722   4.371   0.809 -0.1521  2.4693  1.4385
  448SOL    HW3 1866   2.635   4.321   0.922 -0.4713 -0.0851  0.0966
  448SOL    MW4 1867   2.644   4.349   0.840 -0.0772  0.5603  0.3569
  449SOL     OW 1868   3.609   1.612   1.184  0.4362 -0.1384  0.2502
  449SOL    HW2 1869   3.621   1.701   1.152  0.3489  0.2547  1.2967
  449SOL    HW3 1870   3.527   1.583   1.144  0.5148  0.2115 -0.1658
  449SOL    MW4 1871   3.600   1.620   1.175  0.4354 -0.0403  0.3333
  450SOL     OW 1872   2.372   0.340   0.864  0.3503 -0.0593 -0.2348
  450SOL    HW2 1873   2.459   0.374   0.884  0.1986 -0.8241  1.9068
  450SOL    HW3 1874   2.385   0.245   0.856 -0.2960 -0.1946  0.2522
  450SOL    MW4 1875   2.385   0.332   0.866  0.2446 -0.1781  0.1120
  451SOL     OW 1876   3.130   2.730   0.797 -0.3519  0.3272 -0.2294
  451SOL    HW2 1877   3.145   2.635   0.790 -0.6284  0.0573  2.3136
  451SOL    HW3 1878   3.214   2.769   0.771 -0.3228 -0.5895 -1.5683
  451SOL    MW4 1879   3.143   2.722   0.793 -0.3846  0.1709 -0.0706
  452SOL     OW 1880   1.403   1.117   0.417  0.0148  0.0455  0.7780
  452SOL    HW2 1881   1.400   1.211   0.438  2.1715  0.3082  0.0268
  452SOL    HW3 1882   1.337   1.107   0.348  1.1592  1.4167 -0.5492
  452SOL    MW4 1883   1.394   1.128   0.410  0.4504  0.2611  0.5037
  453SOL     OW 1884   2.719   3.483   0.791 -0.0099  0.1223  0.1359
  453SOL    HW2 1885   2.730   3.480   0.886  0.0618 -0.1814  0.1180
  453SOL    HW3 1886   2.718   3.391   0.764  1.0078  0.2324 -0.2828
  453SOL    MW4 1887   2.720   3.470   0.800  0.1338  0.0968  0.0783
  454SOL     OW 1888   2.566   2.258   0.845 -0.1995 -0.5476  0.3529
  454SOL    HW2 1889   2.618   2.329   0.808 -1.8659  0.6506  0.2689
  454SOL    HW3 1890   2.591   2.181   0.794 -0.0103  0.4257 -1.0609
  454SOL    MW4 1891   2.576   2.257   0.833 -0.3943 -0.2611  0.1553
  455SOL     OW 1892   2.078   3.889   0.848  0.6861  0.2002 -0.1964
  455SOL    HW2 1893   2.059   3.799   0.822 -0.8413  0.2719  0.6355
  455SOL    HW3 1894   2.084   3.886   0.944 -0.4102  1.1648 -0.0906
  455SOL    MW4 1895   2.076   3.877   0.857  0.3400  0.3371 -0.0727
  456SOL     OW 1896   0.961   3.588   0.886  0.6407 -0.1588  0.3780
  456SOL    HW2 1897   0.932   3.676   0.865 -2.2372 -0.6524  2.0868
  456SOL    HW3 1898   0.924   3.533   0.817  1.5191 -0.2039 -0.0731
  456SOL    MW4 1899   0.952   3.592   0.874  0.3769 -0.2301  0.5440
  457SOL     OW 1900   3.293   1.269   0.755  0.5359 -0.3029 -0.2019
  457SOL    HW2 1901   3.219   1.220   0.790 -1.4142  1.1830 -2.1183
  457SOL    HW3 1902   3.278   1.272   0.661  2.3560  1.1160 -0.4823
  457SOL    MW4 1903   3.281   1.263   0.748  0.5186  0.0802 -0.4918
  458SOL     OW 1904   2.690   1.060   0.863 -0.2337  0.4152  0.0910
  458SOL    HW2 1905   2.753   1.094   0.799 -0.3319  0.4548  0.0161
  458SOL    HW3 1906   2.728   0.976   0.890 -0.4617  0.1505 -0.4195
  458SOL    MW4 1907   2.703   1.053   0.858 -0.2770  0.3855  0.0138
  459SOL     OW 1908   3.277   3.603   0.468  0.1451 -0.2466 -0.1496
  459SOL    HW2 1909   3.290   3.682   0.415 -0.5377  0.7857  1.2100
  459SOL    HW3 1910   3.190   3.572   0.443  0.3479 -0.4919 -0.5648
  459SOL    MW4 1911   3.267   3.610   0.458  0.0818 -0.1428 -0.0250
  460SOL     OW 1912   0.741   3.674   0.437  0.2285  0.7487  0.2459
  460SOL    HW2 1913   0.784   3.756   0.461 -0.7283  1.0921  0.8085
  460SOL    HW3 1914   0.651   3.684   0.468  0.2330 -0.7223  0.7727
  460SOL    MW4 1915   0.735   3.686   0.444  0.1028  0.6001  0.3896
  461SOL     OW 1916   4.089   0.343   0.546 -0.0097  0.1227  0.1638
  461SOL    HW2 1917   4.145   0.358   0.623  0.1652 -0.4337  0.1476
  461SOL    HW3 1918   4.150   0.344   0.472  0.1504 -1.6816  0.2605
  461SOL    MW4 1919   4.105   0.345   0.546  0.0348 -0.1887  0.1745
  462SOL     OW 1920   1.338   2.591   0.663  0.0593  0.1441 -0.0153
  462SOL    HW2 1921   1.297   2.544   0.735 -0.5436 -0.2638 -0.6277
  462SOL    HW3 1922   1.266   2.617   0.606  0.3768  1.8246  0.3188
  462SOL    MW4 1923   1.323   2.588   0.665  0.0217  0.3119 -0.0520
  463SOL     OW 1924   2.190   1.932   0.412  0.1747  0.0806  0.0473
  463SOL    HW2 1925   2.121   1.976   0.362 -0.4317  1.5872  2.1469
  463SOL    HW3 1926   2.164   1.840   0.413 -2.1941  0.7330  1.3707
  463SOL    MW4 1927   2.177   1.926   0.405 -0.2177  0.3654  0.4990
  464SOL     OW 1928   1.408   3.995   0.451  0.5268  0.2793  0.2092
  464SOL    HW2 1929   1.380   3.904   0.462  1.7462 -0.0592  0.5790
  464SOL    HW3 1930   1.326   4.044   0.442 -0.1316 -0.9119 -0.4895
  464SOL    MW4 1931   1.393   3.989   0.451  0.6009  0.0775  0.1658
  465SOL     OW 1932   3.681   1.361   0.656  0.5297  0.0035 -0.2485
  465SOL    HW2 1933   3.635   1.293   0.706  0.0137 -0.1554 -0.9282
  465SOL    HW3 1934   3.714   1.422   0.723 -0.2354 -0.1518  0.2776
  465SOL    MW4 1935   3.679   1.360   0.671  0.3607 -0.0380 -0.2687
  466SOL     OW 1936   2.880   4.435   0.739 -0.2942  0.3438 -0.4132
  466SOL    HW2 1937   2.919   4.434   0.652  0.2517 -0.5306 -0.1676
  466SOL    HW3 1938   2.934   4.374   0.790  0.4769  2.1816  1.0019
  466SOL    MW4 1939   2.892   4.427   0.734 -0.1204  0.4706 -0.1941
  467SOL     OW 1940   4.378   0.076   0.412  0.1639  0.6068  0.4708
  467SOL    HW2 1941   4.357   0.162   0.377 -1.2129  0.0163 -0.2092
  467SOL    HW3 1942   4.401   0.091   0.504 -2.1167  1.4556  0.9325
  467SOL    MW4 1943   4.378   0.089   0.420 -0.3190  0.6409  0.4420
  468SOL     OW 1944   3.610   2.775   0.813  0.4201 -0.2459 -0.5338
  468SOL    HW2 1945   3.596   2.683   0.791 -0.7472 -0.1601 -0.1981
  468SOL    HW3 1946   3.602   2.778   0.908  1.2106  0.0812 -0.4766
  468SOL    MW4 1947   3.607   2.763   0.822  0.3705 -0.1915 -0.4820
  469SOL     OW 1948   0.569   0.909   0.645 -0.6437 -0.8551  0.2984
  469SOL    HW2 1949   0.573   0.895   0.550 -0.0102  0.5782  0.0986
  469SOL    HW3 1950   0.482   0.945   0.661  0.4398  2.1392 -0.2246
  469SOL    MW4 1951   0.558   0.912   0.635 -0.4171 -0.2710  0.2031
  470SOL     OW 1952   0.664   3.259   0.814 -0.1266 -0.1904 -0.2014
  470SOL    HW2 1953   0.739   3.308   0.782  0.7033 -1.0166  0.4475
  470SOL    HW3 1954   0.601   3.260   0.741  0.4559  0.6124 -0.6954
  470SOL    MW4 1955   0.666   3.265   0.800  0.0598 -0.1934 -0.1810
  471SOL     OW 1956   2.473   4.662   1.103 -0.2900  0.2866 -0.0668
  471SOL    HW2 1957   2.462   4.674   1.009 -1.0341 -0.5289 -0.0871
  471SOL    HW3 1958   2.407   4.720   1.143  0.6255  1.3164 -0.0175
  471SOL    MW4 1959   2.463   4.671   1.096 -0.2677  0.3152 -0.0629
  472SOL     OW 1960   3.318   1.534   0.841 -0.0258  0.3243 -0.2082
  472SOL    HW2 1961   3.316   1.447   0.802 -0.4259  0.2591 -0.0473
  472SOL    HW3 1962   3.406   1.567   0.823  0.1179 -0.1050 -0.2851
  472SOL    MW4 1963   3.330   1.527   0.833 -0.0598  0.2590 -0.1971
  473SOL     OW 1964   3.535   1.142   1.112  0.2017  0.2709  0.2510
  473SOL    HW2 1965   3.454   1.182   1.144 -0.5398 -0.8416 -0.1819
  473SOL    HW3 1966   3.605   1.189   1.156 -0.7630 -0.4001  2.5615
  473SOL    MW4 1967   3.533   1.153   1.122 -0.0231  0.0355  0.4988
  474SOL     OW 1968   2.673   0.383   0.912  0.0388 -0.3601  0.0793
  474SOL    HW2 1969   2.716   0.367   0.828 -1.9478 -1.1212 -0.8374
  474SOL    HW3 1970   2.661   0.478   0.914  0.2100 -0.3237 -0.4439
  474SOL    MW4 1971   2.677   0.394   0.901 -0.2007 -0.4557 -0.1106
  475SOL     OW 1972   4.262   2.383   1.086  0.1998 -0.1771 -0.2424
  475SOL    HW2 1973   4.178   2.401   1.130  0.4393  0.7966 -0.1615
  475SOL    HW3 1974   4.257   2.433   1.005  1.4354  1.3963  0.6092
  475SOL    MW4 1975   4.250   2.392   1.081  0.3943  0.1590 -0.1193
  476SOL     OW 1976   2.383   0.044   0.832 -0.6503 -0.2786  0.1055
  476SOL    HW2 1977   2.301   0.047   0.784  0.0817 -0.3991 -1.1720
  476SOL    HW3 1978   2.445   0.004   0.771  0.5581  0.5887  0.7502
  476SOL    MW4 1979   2.381   0.039   0.818 -0.3941 -0.1800  0.0220
  477SOL     OW 1980   1.144   0.989   0.823  0.1185  0.0481 -0.4179
  477SOL    HW2 1981   1.121   0.919   0.885  1.8075  0.7411  1.0191
  477SOL    HW3 1982   1.225   1.027   0.858  0.0505  1.7249 -2.0082
  477SOL    MW4 1983   1.151   0.985   0.836  0.3325  0.3607 -0.4382
  478SOL     OW 1984   3.471   0.495   0.781  0.2958  0.5302  0.1516
  478SOL    HW2 1985   3.469   0.468   0.689 -0.8634 -1.3706  0.7106
  478SOL    HW3 1986   3.394   0.453   0.820  0.1416  2.2220  1.7533
  478SOL    MW4 1987   3.460   0.486   0.774  0.1225  0.5026  0.4367
  479SOL     OW 1988   1.442   0.119   0.456  0.1567  0.1823  0.2793
  479SOL    HW2 1989   1.513   0.091   0.514 -0.5014 -0.0441  0.9990
  479SOL    HW3 1990   1.383   0.044   0.453  0.2345  0.1624 -0.7736
  479SOL    MW4 1991   1.444   0.106   0.464  0.0801  0.1498  0.2353
  480SOL     OW 1992   0.044   1.989   0.838  0.3800  0.4815  0.5827
  480SOL    HW2 1993   0.020   1.940   0.759  0.4933  1.1509  0.1209
  480SOL    HW3 1994   0.039   2.081   0.811  0.8734  0.7027  1.2255
  480SOL    MW4 1995   0.040   1.995   0.824  0.4597  0.5989  0.6067
  481SOL     OW 1996   4.483   0.501   0.578  0.3434  0.4114  0.3839
  481SOL    HW2 1997   4.488   0.466   0.668 -0.5961 -0.2311  0.1925
  481SOL    HW3 1998   4.571   0.533   0.561  0.8560 -0.5538  1.1071
  481SOL    MW4 1999   4.495   0.500   0.588  0.2871  0.1993  0.4540
  482SOL     OW 2000   4.282   1.186   0.871 -0.1976  0.4309 -0.2397
  482SOL    HW2 2001   4.326   1.118   0.922  1.2002  0.0361 -1.9513
  482SOL    HW3 2002   4.189   1.166   0.882  0.1913 -2.5096 -1.6743
  482SOL    MW4 2003   4.275   1.174   0.879  0.0386 -0.0091 -0.6549
  483SOL     OW 2004   2.583   2.080   0.615 -0.0071  0.7636 -0.0494
  483SOL    HW2 2005   2.652   2.103   0.553  0.1529  2.4986  0.7363
  483SOL    HW3 2006   2.615   2.002   0.660 -0.7133 -1.3416 -3.0462
  483SOL    MW4 2007   2.596   2.073   0.613 -0.0792  0.7148 -0.3411
  484SOL     OW 2008   2.212   1.116   0.893  0.1635 -0.0968  0.0852
  484SOL    HW2 2009   2.139   1.084   0.840 -0.2663 -1.1941  1.3019
  484SOL    HW3 2010   2.213   1.210   0.878 -1.2252 -0.1358 -0.3089
  484SOL    MW4 2011   2.202   1.124   0.884 -0.0761 -0.2468  0.1938
  485SOL     OW 2012   3.363   0.743   0.872  0.2955 -0.3002  0.1896
  485SOL    HW2 2013   3.425   0.809   0.842 -1.2180  0.0321 -2.3092
  485SOL    HW3 2014   3.398   0.660   0.838  0.9803 -0.5191  1.3957
  485SOL    MW4 2015   3.376   0.741   0.864  0.1864 -0.2853  0.0190
  486SOL     OW 2016   2.260   0.115   1.235 -0.1017  0.2856 -0.1136
  486SOL    HW2 2017   2.262   0.202   1.196 -1.7544  0.9964  1.3345
  486SOL    HW3 2018   2.180   0.074   1.200 -0.2007 -0.0429  0.4898
  486SOL    MW4 2019   2.250   0.121   1.225 -0.3328  0.3361  0.1572
  487SOL     OW 2020   0.241   4.623   1.076 -0.4431 -0.0516 -0.1844
  487SOL    HW2 2021   0.303   4.689   1.106  0.2419 -1.1960  0.9419
  487SOL    HW3 2022   0.237   4.635   0.981  0.0206  1.2928 -0.0380
  487SOL    MW4 2023   0.249   4.633   1.067 -0.2916 -0.0248 -0.0163
  488SOL     OW 2024   0.030   0.123   1.184  0.2959 -0.1466 -0.5355
  488SOL    HW2 2025   0.104   0.078   1.145  0.9681 -0.4686  1.0488
  488SOL    HW3 2026  -0.047   0.075   1.152  0.9436 -1.7323  0.2105
  488SOL    MW4 2027   0.029   0.111   1.175  0.4702 -0.3983 -0.2280
  489SOL     OW 2028   0.006   0.372   1.089 -0.7743  0.2017 -0.0042
  489SOL    HW2 2029  -0.075   0.410   1.122 -1.3236 -0.6621 -0.3345
  489SOL    HW3 2030   0.006   0.282   1.123  0.1788  0.2736  0.2178
  489SOL    MW4 2031  -0.005   0.365   1.098 -0.7211  0.0972 -0.0186
  490SOL     OW 2032   0.235   0.512   1.163  0.1581 -0.1639  0.1809
  490SOL    HW2 2033   0.224   0.604   1.141 -2.9937 -0.2081  1.2431
  490SOL    HW3 2034   0.151   0.472   1.141  0.5095 -2.2114  2.3301
  490SOL    MW4 2035   0.223   0.519   1.157 -0.2113 -0.4399  0.6045
  491SOL     OW 2036   0.222   0.785   1.076 -0.0978  0.2571  0.1013
  491SOL    HW2 2037   0.294   0.843   1.098 -1.0892  1.9572 -1.0256
  491SOL    HW3 2038   0.144   0.831   1.105 -0.9180 -0.3881 -1.0222
  491SOL    MW4 2039   0.221   0.798   1.083 -0.3368  0.3963 -0.1957
  492SOL     OW 2040   0.004   0.913   1.164 -0.0654  0.2231 -0.8107
  492SOL    HW2 2041   0.008   0.902   1.259  2.5477 -0.0504 -0.9164
  492SOL    HW3 2042  -0.075   0.865   1.137 -0.9675  0.5112  1.2239
  492SOL    MW4 2043  -0.006   0.905   1.173  0.1607  0.2251 -0.5562
  493SOL     OW 2044   0.005   1.168   1.084  0.0496  0.2413  0.0803
  493SOL    HW2 2045   0.011   1.078   1.115 -0.8783 -0.0036 -0.4264
  493SOL    HW3 2046  -0.073   1.204   1.127  0.8102  1.0241  0.8237
  493SOL    MW4 2047  -0.005   1.161   1.094  0.0277  0.3122  0.1117
  494SOL     OW 2048   0.205   1.305   1.237 -0.0854  0.6168  0.1615
  494SOL    HW2 2049   0.290   1.262   1.229  0.2410  1.2309  0.2493
  494SOL    HW3 2050   0.145   1.249   1.188  0.6312  0.8843 -1.0429
  494SOL    MW4 2051   0.209   1.292   1.230  0.0523  0.7333  0.0141
  495SOL     OW 2052   0.208   1.572   1.134 -0.1043 -0.2948 -0.3415
  495SOL    HW2 2053   0.223   1.483   1.165  0.6835 -0.0215  0.0681
  495SOL    HW3 2054   0.117   1.591   1.157 -0.3260 -1.0563 -0.5919
  495SOL    MW4 2055   0.198   1.563   1.141 -0.0296 -0.3593 -0.3206
  496SOL     OW 2056   4.452   1.663   1.231  0.0897 -0.0742  0.2899
  496SOL    HW2 2057   4.371   1.635   1.188 -0.8677  0.3267  1.8032
  496SOL    HW3 2058   4.468   1.751   1.196  1.0024 -0.9199 -1.5347
  496SOL    MW4 2059   4.443   1.671   1.220  0.0839 -0.1328  0.2489
  497SOL     OW 2060   0.023   1.925   1.107 -0.4836 -0.1387 -0.2334
  497SOL    HW2 2061  -0.042   1.986   1.140  0.4591  0.7582  0.0073
  497SOL    HW3 2062   0.021   1.935   1.012  0.2888  0.9346 -0.1477
  497SOL    MW4 2063   0.014   1.935   1.099 -0.2575  0.1212 -0.1904
  498SOL     OW 2064   0.266   2.035   1.198  0.0271  0.0008 -0.1761
  498SOL    HW2 2065   0.275   2.121   1.157  2.4394 -0.4667 -0.6926
  498SOL    HW3 2066   0.183   2.002   1.165  0.1545  1.1827 -1.7680
  498SOL    MW4 2067   0.257   2.042   1.188  0.3622  0.0951 -0.4543
  499SOL     OW 2068   0.292   2.274   1.050 -0.2523  0.6772  0.0062
  499SOL    HW2 2069   0.353   2.316   1.111 -0.6637  0.1448  0.7966
  499SOL    HW3 2070   0.205   2.297   1.083 -0.4828 -0.6850  0.3856
  499SOL    MW4 2071   0.289   2.282   1.062 -0.3370  0.4270  0.1606
  500SOL     OW 2072   0.061   2.425   1.146 -0.1664 -0.4101 -0.2839
  500SOL    HW2 2073   0.056   2.418   1.241  0.5862 -0.8079 -0.2668
  500SOL    HW3 2074  -0.030   2.419   1.117 -0.5909  1.6205  0.5181
  500SOL    MW4 2075   0.048   2.423   1.155 -0.1231 -0.1945 -0.1758
  501SOL     OW 2076   0.114   1.623   0.409 -0.3866  0.4031 -0.9572
  501SOL    HW2 2077   0.062   1.680   0.465  0.1497  0.2628 -0.3083
  501SOL    HW3 2078   0.050   1.569   0.363 -0.7669 -1.1146  1.2835
  501SOL    MW4 2079   0.099   1.623   0.410 -0.3660  0.1843 -0.5759
  502SOL     OW 2080   0.276   2.836   1.194 -0.4673  0.1649  0.4742
  502SOL    HW2 2081   0.255   2.825   1.286 -3.1807 -0.0692 -0.1173
  502SOL    HW3 2082   0.227   2.767   1.150  1.3028 -0.1387 -1.1085
  502SOL    MW4 2083   0.267   2.825   1.200 -0.5918  0.0939  0.1873
  503SOL     OW 2084   4.484   3.241   1.200  0.4358 -0.2900  0.3469
  503SOL    HW2 2085   4.545   3.188   1.149  0.2018 -0.2087 -0.0188
  503SOL    HW3 2086   4.511   3.228   1.291 -0.0112 -1.5252  0.3102
  503SOL    MW4 2087   4.496   3.232   1.205  0.3457 -0.4420  0.2939
  504SOL     OW 2088   3.869   0.499   0.626 -0.0331 -0.0110  0.0656
  504SOL    HW2 2089   3.822   0.460   0.700  0.0963 -0.5873 -0.1621
  504SOL    HW3 2090   3.939   0.437   0.606 -0.6105 -0.2864 -1.1179
  504SOL    MW4 2091   3.872   0.486   0.633 -0.0923 -0.1233 -0.1205
  505SOL     OW 2092   0.214   3.627   1.223  0.2125 -0.0393 -0.3663
  505SOL    HW2 2093   0.219   3.600   1.314 -0.4026 -0.3114 -0.4146
  505SOL    HW3 2094   0.292   3.589   1.182  1.7101  1.9668  0.5319
  505SOL    MW4 2095   0.225   3.619   1.229  0.3289  0.1895 -0.2540
  506SOL     OW 2096   0.445   3.508   1.129  0.2259  0.8030 -0.0637
  506SOL    HW2 2097   0.532   3.524   1.167  0.5107  1.7086 -1.0628
  506SOL    HW3 2098   0.457   3.526   1.036 -0.7896 -0.0934 -0.3681
  506SOL    MW4 2099   0.458   3.512   1.122  0.1296  0.8042 -0.2358
  507SOL     OW 2100   0.255   3.872   1.108  0.4061  0.4330 -0.5997
  507SOL    HW2 2101   0.174   3.921   1.121  0.0900 -0.4667  0.9100
  507SOL    HW3 2102   0.241   3.790   1.155  2.4724  0.5741  0.3249
  507SOL    MW4 2103   0.242   3.868   1.116  0.6370  0.3326 -0.2785
  508SOL     OW 2104   0.004   4.019   1.187 -0.2017  0.0552 -0.0015
  508SOL    HW2 2105  -0.074   3.971   1.163 -0.2129 -0.0236  0.1969
  508SOL    HW3 2106   0.005   4.018   1.282  0.3403 -0.4277 -0.0074
  508SOL    MW4 2107  -0.006   4.013   1.196 -0.1311 -0.0191  0.0238
  509SOL     OW 2108   4.478   4.275   1.086 -0.0157 -0.1650 -0.4977
  509SOL    HW2 2109   4.551   4.315   1.134  0.6107  0.2916 -1.8037
  509SOL    HW3 2110   4.483   4.182   1.108  0.6263 -0.0527 -0.1434
  509SOL    MW4 2111   4.488   4.268   1.096  0.1516 -0.0901 -0.6233
  510SOL     OW 2112   0.227   4.385   1.201  0.0569  0.1182 -0.2830
  510SOL    HW2 2113   0.227   4.387   1.297  2.2672 -1.4566 -0.2145
  510SOL    HW3 2114   0.233   4.477   1.175 -1.8430  0.6386  1.0571
  510SOL    MW4 2115   0.228   4.397   1.210  0.0979 -0.0205 -0.0970
  511SOL     OW 2116   0.409   0.143   1.200  0.1489 -0.2840  0.4394
  511SOL    HW2 2117   0.485   0.091   1.174  0.5567 -0.2987  1.6571
  511SOL    HW3 2118   0.420   0.226   1.154  1.3789  0.0504  1.3113
  511SOL    MW4 2119   0.420   0.147   1.190  0.3650 -0.2418  0.7150
  512SOL     OW 2120   0.795   4.236   1.107 -0.3159 -0.1552 -0.1503
  512SOL    HW2 2121   0.884   4.254   1.136 -0.0254 -2.1347  0.2727
  512SOL    HW3 2122   0.739   4.285   1.168  0.4754  1.5820 -0.7971
  512SOL    MW4 2123   0.799   4.245   1.119 -0.1731 -0.1869 -0.1798
  513SOL     OW 2124   0.466   0.387   1.056 -0.5830  0.4378  0.4701
  513SOL    HW2 2125   0.441   0.354   0.970 -1.0306 -1.9708  1.5053
  513SOL    HW3 2126   0.389   0.434   1.087 -1.2600 -0.7174  0.5526
  513SOL    MW4 2127   0.453   0.389   1.049 -0.7314 -0.0323  0.6176
  514SOL     OW 2128   0.618   0.544   1.222  0.6510 -0.2333  0.0482
  514SOL    HW2 2129   0.612   0.631   1.183 -2.6165  0.0522  1.0310
  514SOL    HW3 2130   0.567   0.488   1.163  0.6124 -0.9643  0.7715
  514SOL    MW4 2131   0.610   0.548   1.209  0.2148 -0.2921  0.2733
  515SOL     OW 2132   0.657   0.795   1.090 -0.1971 -0.0821 -0.0626
  515SOL    HW2 2133   0.664   0.785   0.995 -1.0578 -0.3490 -0.0964
  515SOL    HW3 2134   0.581   0.851   1.102  0.4295  0.6742  0.4386
  515SOL    MW4 2135   0.648   0.801   1.079 -0.2280 -0.0175 -0.0008
  516SOL     OW 2136   0.431   0.938   1.170 -0.3691  0.1735 -0.3059
  516SOL    HW2 2137   0.440   0.931   1.265  2.7135 -0.5220 -0.5969
  516SOL    HW3 2138   0.446   1.031   1.152  1.2942 -0.0757 -0.2869
  516SOL    MW4 2139   0.434   0.949   1.180  0.2571  0.0488 -0.3418
  517SOL     OW 2140   0.456   1.207   1.113 -0.0024 -0.2651  0.2265
  517SOL    HW2 2141   0.461   1.230   1.020 -1.9627  0.8446  0.3686
  517SOL    HW3 2142   0.533   1.250   1.152 -0.5486  1.3815 -0.4741
  517SOL    MW4 2143   0.467   1.216   1.106 -0.3331  0.0986  0.1527
  518SOL     OW 2144   0.685   1.321   1.211 -0.1743 -0.0425  0.1649
  518SOL    HW2 2145   0.765   1.295   1.164  0.8849  1.0126  1.3321
  518SOL    HW3 2146   0.680   1.416   1.199 -2.0789 -0.2779 -1.1213
  518SOL    MW4 2147   0.695   1.330   1.203 -0.2858  0.0657  0.1493
  519SOL     OW 2148   3.383   3.110   0.835 -0.4761  0.5282  0.2071
  519SOL    HW2 2149   3.390   3.087   0.928 -0.3424 -1.9010 -0.3686
  519SOL    HW3 2150   3.358   3.028   0.792  1.9793  0.9660 -2.2330
  519SOL    MW4 2151   3.381   3.096   0.841 -0.1345  0.2654 -0.1907
  520SOL     OW 2152   0.454   1.661   1.254 -0.7065 -0.1774 -0.4637
  520SOL    HW2 2153   0.443   1.652   1.348 -0.8094  1.9014 -0.2564
  520SOL    HW3 2154   0.367   1.646   1.217 -0.7184 -0.7315 -0.2130
  520SOL    MW4 2155   0.441   1.658   1.262 -0.7216  0.0238 -0.4034
  521SOL     OW 2156   0.509   1.925   1.168  0.0922 -0.0082  0.4182
  521SOL    HW2 2157   0.421   1.952   1.196 -0.4025 -1.4867  0.3462
  521SOL    HW3 2158   0.516   1.834   1.197  1.8768  0.3191  1.0368
  521SOL    MW4 2159   0.498   1.916   1.176  0.2624 -0.1601  0.4904
  522SOL     OW 2160   0.724   2.061   1.249  0.2927 -0.2985  0.2703
  522SOL    HW2 2161   0.712   2.059   1.343 -0.2983 -0.7932  0.1838
  522SOL    HW3 2162   0.652   2.009   1.214 -1.5086  2.6889 -0.6522
  522SOL    MW4 2163   0.713   2.054   1.256 -0.0229  0.0300  0.1372
  523SOL     OW 2164   0.708   2.326   1.150 -0.0281 -0.6062 -0.0273
  523SOL    HW2 2165   0.625   2.367   1.177  0.5703  1.0680 -0.6895
  523SOL    HW3 2166   0.707   2.241   1.193 -1.4074  0.0099  1.2118
  523SOL    MW4 2167   0.697   2.321   1.159 -0.1311 -0.3040  0.0490
  524SOL     OW 2168   0.459   2.421   1.210  0.1990 -0.7980 -0.1472
  524SOL    HW2 2169   0.470   2.435   1.304  2.5418 -0.1875 -0.4628
  524SOL    HW3 2170   0.476   2.507   1.171  0.0153 -1.2168 -1.1749
  524SOL    MW4 2171   0.463   2.434   1.217  0.4838 -0.7725 -0.3245
  525SOL     OW 2172   0.538   2.693   1.144  0.4984 -0.1618  0.2039
  525SOL    HW2 2173   0.456   2.737   1.169  0.6323  0.0785  0.2244
  525SOL    HW3 2174   0.533   2.688   1.049  0.2779 -0.5053  0.2341
  525SOL    MW4 2175   0.526   2.698   1.135  0.4871 -0.1755  0.2105
  526SOL     OW 2176   0.736   2.845   1.244  0.5313 -0.5696 -0.3691
  526SOL    HW2 2177   0.669   2.792   1.202 -0.1171 -1.3126  1.5344
  526SOL    HW3 2178   0.725   2.932   1.205 -1.9108 -0.5347  0.2738
  526SOL    MW4 2179   0.726   2.849   1.233  0.1236 -0.6633 -0.0333
  527SOL     OW 2180   0.431   3.218   1.170  0.1169 -0.3448 -0.5258
  527SOL    HW2 2181   0.432   3.312   1.155  0.4604 -0.2480  0.0781
  527SOL    HW3 2182   0.412   3.209   1.264  0.1658 -0.8701 -0.5636
  527SOL    MW4 2183   0.428   3.229   1.180  0.1687 -0.4010 -0.4511
  528SOL     OW 2184   0.533   2.612   0.890 -0.5081  0.0150  0.2681
  528SOL    HW2 2185   0.507   2.689   0.839  0.6786  0.1421 -0.1757
  528SOL    HW3 2186   0.626   2.600   0.870 -0.5531 -1.2418  0.7181
  528SOL    MW4 2187   0.542   2.620   0.881 -0.3574 -0.1340  0.2689
  529SOL     OW 2188   0.207   4.333   0.802  0.4984  0.2350 -0.0932
  529SOL    HW2 2189   0.266   4.269   0.841 -0.1377  1.3335  2.7293
  529SOL    HW3 2190   0.121   4.292   0.805  0.3139  0.6559  0.4484
  529SOL    MW4 2191   0.204   4.319   0.807  0.3901  0.4349  0.3507
  530SOL     OW 2192   0.679   3.590   1.250  0.2578  0.0963  0.0170
  530SOL    HW2 2193   0.670   3.592   1.346 -0.6443  0.6437 -0.0687
  530SOL    HW3 2194   0.666   3.681   1.224  0.8931  0.0077 -0.5914
  530SOL    MW4 2195   0.676   3.602   1.260  0.2226  0.1569 -0.0746
  531SOL     OW 2196   1.402   1.404   0.802 -0.1706  0.1150 -0.5264
  531SOL    HW2 2197   1.316   1.431   0.836 -0.2128 -2.0989  1.2820
  531SOL    HW3 2198   1.465   1.455   0.853 -0.3539 -0.4071  0.2402
  531SOL    MW4 2199   1.399   1.414   0.813 -0.2002 -0.2459 -0.1866
  532SOL     OW 2200   0.484   3.980   1.245 -0.1396  0.0545 -0.4978
  532SOL    HW2 2201   0.550   3.921   1.209  0.5354  1.7261 -2.0588
  532SOL    HW3 2202   0.403   3.957   1.200 -0.2906 -0.9301  0.2660
  532SOL    MW4 2203   0.482   3.969   1.235 -0.0705  0.1452 -0.6031
  533SOL     OW 2204   0.471   4.234   1.136 -0.2372  0.4047 -0.4842
  533SOL    HW2 2205   0.484   4.153   1.185  2.1050  0.3394 -1.1724
  533SOL    HW3 2206   0.390   4.270   1.171 -0.3644 -1.3368  1.0786
  533SOL    MW4 2207   0.462   4.228   1.147  0.0550  0.1659 -0.3687
  534SOL     OW 2208   1.605   1.566   0.912 -0.3873 -0.0038 -0.3446
  534SOL    HW2 2209   1.683   1.515   0.889 -1.0245 -0.8355 -0.6783
  534SOL    HW3 2210   1.612   1.646   0.859 -0.2133 -0.4737 -1.0315
  534SOL    MW4 2211   1.617   1.570   0.902 -0.4486 -0.1755 -0.4793
  535SOL     OW 2212   3.165   0.705   0.363  0.1075  0.1758  0.1149
  535SOL    HW2 2213   3.174   0.615   0.393 -0.4091 -0.1555 -0.6890
  535SOL    HW3 2214   3.070   0.718   0.355  0.1958  0.6082 -0.2857
  535SOL    MW4 2215   3.154   0.695   0.366  0.0510  0.1891 -0.0440
  536SOL     OW 2216   0.632   0.003   1.132 -0.0673 -0.3233  0.0799
  536SOL    HW2 2217   0.719   0.030   1.160 -0.4031 -0.3124  1.1696
  536SOL    HW3 2218   0.619  -0.083   1.174 -0.7674 -0.1002  0.3350
  536SOL    MW4 2219   0.642  -0.005   1.141 -0.2040 -0.2923  0.2574
  537SOL     OW 2220   2.191   1.128   1.171 -0.0948  0.2507  0.0970
  537SOL    HW2 2221   2.205   1.043   1.212 -1.1753 -0.2969 -0.6519
  537SOL    HW3 2222   2.181   1.109   1.078 -2.6729  0.9124  0.1946
  537SOL    MW4 2223   2.191   1.114   1.164 -0.5777  0.2658  0.0111
  538SOL     OW 2224   0.886   0.123   1.211  0.5290  0.0500 -0.1267
  538SOL    HW2 2225   0.866   0.120   1.305 -1.1481  0.3812 -0.4514
  538SOL    HW3 2226   0.871   0.215   1.186  1.4194  0.0655 -0.6256
  538SOL    MW4 2227   0.881   0.135   1.220  0.4252  0.0957 -0.2353
  539SOL     OW 2228   1.129   0.499   1.194 -0.1995  0.1731  0.0740
  539SOL    HW2 2229   1.043   0.462   1.177 -0.5790  1.1885 -0.2660
  539SOL    HW3 2230   1.134   0.509   1.289 -0.3174 -0.2271  0.1182
  539SOL    MW4 2231   1.118   0.496   1.204 -0.2651  0.2543  0.0350
  540SOL     OW 2232   0.899   0.885   1.202 -0.0672 -0.2849  0.1264
  540SOL    HW2 2233   0.894   0.980   1.193  2.7442 -0.2989 -2.3157
  540SOL    HW3 2234   0.823   0.853   1.154  0.2558  0.6830 -1.0723
  540SOL    MW4 2235   0.888   0.894   1.195  0.3464 -0.1591 -0.3541
  541SOL     OW 2236   0.903   1.176   1.106  0.4147  0.3707  0.1982
  541SOL    HW2 2237   0.982   1.218   1.141 -0.0687  1.9107 -0.5309
  541SOL    HW3 2238   0.911   1.187   1.011  0.5645 -1.7127 -0.0450
  541SOL    MW4 2239   0.915   1.183   1.098  0.3706  0.2991  0.0700
  542SOL     OW 2240   1.114   1.309   1.215  0.2161 -0.1972  0.1274
  542SOL    HW2 2241   1.103   1.314   1.310 -1.0855  1.6712 -0.0834
  542SOL    HW3 2242   1.199   1.268   1.203 -0.1553 -1.6009  2.0827
  542SOL    MW4 2243   1.124   1.304   1.226 -0.0046 -0.1359  0.3574
  543SOL     OW 2244   1.115   1.552   1.113 -0.3519  0.7631  0.7153
  543SOL    HW2 2245   1.185   1.598   1.160 -0.3159  0.0283  1.3949
  543SOL    HW3 2246   1.119   1.462   1.146 -2.0489  0.8673  1.2491
  543SOL    MW4 2247   1.125   1.546   1.124 -0.5711  0.6799  0.8755
  544SOL     OW 2248   0.697   1.593   1.153 -0.0240  0.1288 -0.0534
  544SOL    HW2 2249   0.617   1.622   1.197 -0.0263  1.2005 -0.7283
  544SOL    HW3 2250   0.767   1.643   1.195  0.0060  0.9640 -1.0635
  544SOL    MW4 2251   0.696   1.604   1.164 -0.0204  0.3804 -0.2757
  545SOL     OW 2252   0.928   1.704   1.262 -0.1021  0.4051  0.0309
  545SOL    HW2 2253   0.945   1.784   1.212  1.1707  0.1604  0.0413
  545SOL    HW3 2254   0.975   1.635   1.214 -0.3691 -0.1563  0.5633
  545SOL    MW4 2255   0.937   1.705   1.249  0.0307  0.2987  0.1025
  546SOL     OW 2256   1.150   2.111   1.194  0.2045 -0.0846  0.1846
  546SOL    HW2 2257   1.154   2.117   1.289 -0.5921  0.0512  0.2126
  546SOL    HW3 2258   1.158   2.201   1.164 -1.6224  0.0991  0.2095
  546SOL    MW4 2259   1.152   2.124   1.202 -0.1416 -0.0424  0.1915
  547SOL     OW 2260   1.176   2.376   1.095  0.5605  0.3192 -0.1598
  547SOL    HW2 2261   1.103   2.412   1.145  0.4619 -1.9335  1.4551
  547SOL    HW3 2262   1.252   2.427   1.123 -0.0066  1.0583  0.0333
  547SOL    MW4 2263   1.177   2.387   1.105  0.4727  0.1194  0.0786
  548SOL     OW 2264   0.954   2.467   1.216  0.0712 -0.6608 -0.4766
  548SOL    HW2 2265   0.881   2.413   1.186 -0.0389 -1.7810  1.6899
  548SOL    HW3 2266   0.945   2.468   1.312  1.0838  1.7853 -0.3676
  548SOL    MW4 2267   0.943   2.460   1.225  0.1903 -0.4859 -0.1763
  549SOL     OW 2268   0.946   2.716   1.106  0.3824  0.1191 -0.3957
  549SOL    HW2 2269   0.946   2.632   1.152 -0.5965  0.3850  0.1161
  549SOL    HW3 2270   0.884   2.770   1.155 -0.0545  0.6822 -1.5361
  549SOL    MW4 2271   0.938   2.712   1.119  0.1956  0.2286 -0.4787
  550SOL     OW 2272   1.158   2.877   1.162  0.2563  0.2656 -0.0299
  550SOL    HW2 2273   1.153   2.874   1.257  2.0359 -1.9099  0.0284
  550SOL    HW3 2274   1.090   2.817   1.132 -0.1409  0.7662 -0.1548
  550SOL    MW4 2275   1.148   2.869   1.170  0.4388  0.0443 -0.0386
  551SOL     OW 2276   1.126   3.122   1.033 -0.0936 -0.4737 -0.0082
  551SOL    HW2 2277   1.148   3.033   1.059 -0.1646 -0.3352  0.5347
  551SOL    HW3 2278   1.056   3.148   1.093 -0.0278 -0.0311 -0.1223
  551SOL    MW4 2279   1.119   3.114   1.044 -0.0943 -0.3972  0.0482
  552SOL     OW 2280   0.915   3.174   1.177  0.0461 -0.5918 -0.4389
  552SOL    HW2 2281   0.824   3.151   1.163 -0.6086  1.5740  0.1156
  552SOL    HW3 2282   0.916   3.270   1.181  1.9040 -0.6631  2.5541
  552SOL    MW4 2283   0.903   3.184   1.176  0.2049 -0.3157  0.0292
  553SOL     OW 2284   0.911   3.453   1.129  0.4117 -0.4834  0.0307
  553SOL    HW2 2285   0.834   3.489   1.173  0.9032 -0.2193  0.6812
  553SOL    HW3 2286   0.895   3.468   1.036 -0.3339 -0.4570  0.1612
  553SOL    MW4 2287   0.899   3.460   1.123  0.3781 -0.4454  0.1338
  554SOL     OW 2288   1.153   3.644   1.192  0.8587 -0.2154 -0.0757
  554SOL    HW2 2289   1.221   3.583   1.163  0.0417  0.0791 -2.6695
  554SOL    HW3 2290   1.071   3.596   1.180  0.4643  0.0335  1.4852
  554SOL    MW4 2291   1.151   3.629   1.187  0.6989 -0.1438 -0.2120
  555SOL     OW 2292   1.132   3.909   1.131 -0.0250  0.1168 -0.2731
  555SOL    HW2 2293   1.038   3.902   1.143  0.1877 -0.8734  0.8187
  555SOL    HW3 2294   1.165   3.820   1.141  1.1353  0.5903  0.2911
  555SOL    MW4 2295   1.124   3.896   1.134  0.1562  0.0489 -0.0546
  556SOL     OW 2296   0.867   3.963   1.230 -0.0293 -0.3565 -0.3661
  556SOL    HW2 2297   0.840   4.053   1.214 -1.3163 -0.8852 -1.2953
  556SOL    HW3 2298   0.881   3.958   1.324 -0.1471  0.7645 -0.2857
  556SOL    MW4 2299   0.865   3.974   1.240 -0.2146 -0.2780 -0.4781
  557SOL     OW 2300   1.880   0.141   0.655  0.5860 -0.2590 -0.1768
  557SOL    HW2 2301   1.857   0.232   0.639  0.2263 -0.3857 -0.3907
  557SOL    HW3 2302   1.798   0.093   0.644  0.9280 -0.7046 -0.8400
  557SOL    MW4 2303   1.866   0.146   0.651  0.5838 -0.3345 -0.2925
  558SOL     OW 2304   1.056   4.338   1.186 -0.1834 -0.4715  0.0636
  558SOL    HW2 2305   1.060   4.420   1.136  0.5978 -0.7791 -0.4043
  558SOL    HW3 2306   1.063   4.366   1.278  0.7043 -0.0444 -0.1212
  558SOL    MW4 2307   1.058   4.353   1.192  0.0368 -0.4559 -0.0226
  559SOL     OW 2308   1.799   0.349   1.047 -0.2291  0.0339 -0.2530
  559SOL    HW2 2309   1.863   0.291   1.005  0.5107  1.2531 -0.8335
  559SOL    HW3 2310   1.849   0.393   1.115 -1.0511 -0.7762  0.8980
  559SOL    MW4 2311   1.814   0.347   1.050 -0.2398  0.0879 -0.1777
  560SOL     OW 2312   1.344   0.343   1.114 -0.1796  0.1676 -0.1781
  560SOL    HW2 2313   1.271   0.399   1.143 -0.8384 -0.6908 -0.1402
  560SOL    HW3 2314   1.337   0.343   1.018 -1.0511 -0.9548 -0.1354
  560SOL    MW4 2315   1.333   0.350   1.105 -0.3815 -0.0938 -0.1674
  561SOL     OW 2316   0.879   0.413   1.151 -0.0830  0.3928  0.2521
  561SOL    HW2 2317   0.839   0.395   1.066  1.3286  1.2427 -0.6107
  561SOL    HW3 2318   0.811   0.460   1.199 -1.2897 -1.0411  0.0172
  561SOL    MW4 2319   0.865   0.417   1.146 -0.0559  0.3158  0.1073
  562SOL     OW 2320   1.586   0.460   1.198  0.0701 -0.8408 -0.0476
  562SOL    HW2 2321   1.501   0.425   1.172  0.2204 -0.9661 -0.3651
  562SOL    HW3 2322   1.649   0.413   1.144  0.3180 -0.5221 -0.0359
  562SOL    MW4 2323   1.583   0.449   1.188  0.1225 -0.8153 -0.0880
  563SOL     OW 2324   1.345   0.910   1.213 -0.1717 -0.1348  0.0628
  563SOL    HW2 2325   1.415   0.852   1.182  0.2495  0.1257  0.5301
  563SOL    HW3 2326   1.267   0.879   1.166  0.2247 -0.5079 -0.3633
  563SOL    MW4 2327   1.344   0.898   1.202 -0.0639 -0.1497  0.0681
  564SOL     OW 2328   1.354   1.185   1.139 -0.1910  0.2689  0.0553
  564SOL    HW2 2329   1.362   1.098   1.178  0.3944  0.4014  0.2377
  564SOL    HW3 2330   1.373   1.171   1.046 -0.5850  0.1204 -0.0028
  564SOL    MW4 2331   1.358   1.171   1.132 -0.1657  0.2668  0.0716
  565SOL     OW 2332   3.798   2.058   0.719 -0.1960  0.8209 -0.0396
  565SOL    HW2 2333   3.797   2.144   0.760 -0.5607  0.3806  0.8893
  565SOL    HW3 2334   3.888   2.027   0.730 -0.0554  1.0997 -0.4070
  565SOL    MW4 2335   3.810   2.065   0.726 -0.2253  0.7994  0.0344
  566SOL     OW 2336   1.559   1.329   1.233 -0.3270  0.0902  0.3481
  566SOL    HW2 2337   1.639   1.280   1.214 -1.1059 -0.3395 -2.0185
  566SOL    HW3 2338   1.488   1.270   1.207 -1.3980  0.7100  1.8236
  566SOL    MW4 2339   1.561   1.315   1.227 -0.5710  0.1153  0.2306
  567SOL     OW 2340   1.766   1.658   1.291  0.6164  0.5154 -0.1789
  567SOL    HW2 2341   1.786   1.745   1.258 -0.3730  0.3562 -1.2139
  567SOL    HW3 2342   1.674   1.644   1.269  0.7406 -0.7488  0.0612
  567SOL    MW4 2343   1.757   1.667   1.284  0.5021  0.3276 -0.2837
  568SOL     OW 2344   1.309   1.703   1.261 -0.0259  0.6074  0.3604
  568SOL    HW2 2345   1.387   1.658   1.229 -0.7653 -0.5810  0.2027
  568SOL    HW3 2346   1.310   1.788   1.216  1.4059  0.7761  0.6992
  568SOL    MW4 2347   1.319   1.708   1.251  0.0654  0.4728  0.3842
  569SOL     OW 2348   1.068   2.907   0.678 -0.2416 -0.0414  0.0443
  569SOL    HW2 2349   1.140   2.872   0.730 -0.2503  0.1527  0.1901
  569SOL    HW3 2350   1.062   2.999   0.704 -0.3196  0.0293 -0.2185
  569SOL    MW4 2351   1.077   2.914   0.689 -0.2532 -0.0064  0.0288
  570SOL     OW 2352   0.581   2.238   0.696  0.1077  0.3450 -0.3798
  570SOL    HW2 2353   0.518   2.300   0.659 -0.4834  0.3555  0.6250
  570SOL    HW3 2354   0.528   2.179   0.749  1.0293  0.8361  1.1329
  570SOL    MW4 2355   0.566   2.238   0.698  0.1513  0.4113 -0.0476
  571SOL     OW 2356   1.652   2.283   1.125 -0.4331 -0.5149 -0.0153
  571SOL    HW2 2357   1.580   2.342   1.149 -2.2258 -2.1020 -1.3158
  571SOL    HW3 2358   1.651   2.282   1.029  0.7969 -1.2267 -0.0271
  571SOL    MW4 2359   1.642   2.291   1.115 -0.5074 -0.8185 -0.1885
  572SOL     OW 2360   0.387   3.548   0.227  0.2725  0.2597 -0.1097
  572SOL    HW2 2361   0.479   3.535   0.203 -0.0229 -0.4828 -0.8593
  572SOL    HW3 2362   0.338   3.528   0.148 -0.5239  0.9378  0.2083
  572SOL    MW4 2363   0.393   3.543   0.214  0.1285  0.2511 -0.1667
  573SOL     OW 2364   1.608   2.851   1.204 -0.2599  0.0013  0.2661
  573SOL    HW2 2365   1.667   2.803   1.146 -0.1492 -0.3437  0.6602
  573SOL    HW3 2366   1.591   2.933   1.159  0.5576  0.1222  0.1700
  573SOL    MW4 2367   1.613   2.855   1.190 -0.1374 -0.0281  0.3054
  574SOL     OW 2368   2.029   2.839   1.197 -0.9596 -0.3356 -0.6066
  574SOL    HW2 2369   2.029   2.832   1.292  0.4225 -0.5324 -0.6218
  574SOL    HW3 2370   2.032   2.933   1.180 -0.6983 -0.3193 -0.4637
  574SOL    MW4 2371   2.029   2.850   1.207 -0.7429 -0.3595 -0.5897
  575SOL     OW 2372   1.426   2.485   1.186 -0.2860 -0.0726 -0.1186
  575SOL    HW2 2373   1.411   2.573   1.149  1.0179  0.3822  0.4302
  575SOL    HW3 2374   1.401   2.494   1.278  1.0888  0.0792  0.2504
  575SOL    MW4 2375   1.420   2.498   1.193  0.0675  0.0074  0.0025
  576SOL     OW 2376   1.347   3.212   1.173  0.1830 -0.3742  0.4375
  576SOL    HW2 2377   1.329   3.210   1.267  0.3609 -0.7832  0.4625
  576SOL    HW3 2378   1.269   3.174   1.133  1.0615 -2.3875  0.5612
  576SOL    MW4 2379   1.334   3.207   1.181  0.3225 -0.6936  0.4572
  577SOL     OW 2380   1.364   3.473   1.095  0.2505 -0.0783 -0.0248
  577SOL    HW2 2381   1.362   3.380   1.120  1.6480 -0.3166 -0.7067
  577SOL    HW3 2382   1.320   3.476   1.010  1.2865 -0.3291 -0.5820
  577SOL    MW4 2383   1.358   3.461   1.087  0.5716 -0.1431 -0.1881
  578SOL     OW 2384   1.714   2.456   0.492  0.5116 -0.0567 -0.9079
  578SOL    HW2 2385   1.793   2.503   0.467  2.4378 -2.3034  0.7786
  578SOL    HW3 2386   1.695   2.485   0.581 -0.5094  0.3961 -1.2647
  578SOL    MW4 2387   1.722   2.466   0.501  0.6310 -0.2935 -0.7325
  579SOL     OW 2388   1.557   3.886   1.069 -0.0172 -0.5988  0.1573
  579SOL    HW2 2389   1.549   3.795   1.098 -0.2669 -0.8389 -0.6295
  579SOL    HW3 2390   1.482   3.931   1.107  0.7742 -0.4381  1.5587
  579SOL    MW4 2391   1.546   3.880   1.078  0.0542 -0.6092  0.2384
  580SOL     OW 2392   1.370   4.052   1.196 -0.2730  0.3199  0.3508
  580SOL    HW2 2393   1.351   4.141   1.164 -0.7614 -0.0494 -0.4086
  580SOL    HW3 2394   1.287   4.005   1.186 -0.2651  0.0116  1.5853
  580SOL    MW4 2395   1.356   4.058   1.191 -0.3363  0.2303  0.4135
  581SOL     OW 2396   0.773   2.133   0.510 -0.1846  0.4524  0.0516
  581SOL    HW2 2397   0.710   2.159   0.577  1.2419  0.1718  1.5231
  581SOL    HW3 2398   0.721   2.083   0.447 -1.7001  1.4225  0.5108
  581SOL    MW4 2399   0.758   2.130   0.510 -0.1963  0.5436  0.3063
  582SOL     OW 2400   1.604   4.352   1.203 -0.2355 -0.4813  0.1903
  582SOL    HW2 2401   1.593   4.341   1.297  0.8582 -0.8345  0.2835
  582SOL    HW3 2402   1.518   4.330   1.166 -1.3354  1.8502  1.2529
  582SOL    MW4 2403   1.591   4.348   1.210 -0.2363 -0.2208  0.3428
  583SOL     OW 2404   2.852   1.603   0.396 -0.8057 -0.1964  0.6562
  583SOL    HW2 2405   2.905   1.526   0.420 -1.3830 -1.3829 -1.7045
  583SOL    HW3 2406   2.916   1.668   0.366 -0.4005 -0.1673  1.5633
  583SOL    MW4 2407   2.868   1.601   0.396 -0.8283 -0.3490  0.4644
  584SOL     OW 2408   1.562   4.642   1.103 -0.1149  0.3263  0.2157
  584SOL    HW2 2409   1.498   4.683   1.160  0.0824  1.0082 -0.0510
  584SOL    HW3 2410   1.578   4.557   1.143 -0.0703  0.7450  1.1004
  584SOL    MW4 2411   1.556   4.636   1.115 -0.0829  0.4716  0.2972
  585SOL     OW 2412   1.589   3.706   0.691 -0.0497  0.4209 -0.4517
  585SOL    HW2 2413   1.597   3.797   0.719 -0.2856  0.2930  0.0412
  585SOL    HW3 2414   1.653   3.659   0.745  0.8549  0.4590 -1.4793
  585SOL    MW4 2415   1.599   3.712   0.702  0.0385  0.4089 -0.5223
  586SOL     OW 2416   2.252   1.403   0.553 -0.0395  0.0763  0.1125
  586SOL    HW2 2417   2.183   1.348   0.517  0.4408 -0.9237  0.6825
  586SOL    HW3 2418   2.326   1.391   0.493  0.1865 -0.2039  0.4435
  586SOL    MW4 2419   2.253   1.394   0.540  0.0539 -0.0926  0.2313
  587SOL     OW 2420   1.982   0.697   1.134 -0.3096  0.0778  0.2172
  587SOL    HW2 2421   1.980   0.607   1.168 -0.0141  0.5895  1.6180
  587SOL    HW3 2422   1.996   0.686   1.040 -2.9353 -1.4437 -0.0669
  587SOL    MW4 2423   1.984   0.683   1.126 -0.6170 -0.0554  0.3645
  588SOL     OW 2424   1.800   0.884   1.210 -0.1212 -0.3160  0.5233
  588SOL    HW2 2425   1.801   0.879   1.305 -1.0657  0.8826  0.6132
  588SOL    HW3 2426   1.862   0.818   1.181  1.1695  0.2430  1.9994
  588SOL    MW4 2427   1.808   0.875   1.219 -0.0756 -0.0840  0.7298
  589SOL     OW 2428   1.761   1.158   1.145 -0.0337  0.6706 -0.0632
  589SOL    HW2 2429   1.775   1.067   1.172 -0.9192  0.7968  0.8166
  589SOL    HW3 2430   1.786   1.159   1.053  1.8880 -0.0250  0.4137
  589SOL    MW4 2431   1.766   1.146   1.137  0.1030  0.5955  0.1159
  590SOL     OW 2432   1.977   1.274   1.274 -0.3623  0.2545  0.1928
  590SOL    HW2 2433   2.056   1.235   1.236 -1.6951 -2.1672 -0.2141
  590SOL    HW3 2434   1.904   1.229   1.230 -1.9737  1.8836  1.1104
  590SOL    MW4 2435   1.978   1.263   1.263 -0.7508  0.1500  0.2602
  591SOL     OW 2436   1.944   1.517   1.143  0.0950  0.1907  0.0200
  591SOL    HW2 2437   1.963   1.438   1.193  0.9590  0.0014 -0.6058
  591SOL    HW3 2438   1.874   1.560   1.192 -1.7830 -1.9623 -0.6992
  591SOL    MW4 2439   1.937   1.513   1.156 -0.0387 -0.1185 -0.1574
  592SOL     OW 2440   1.536   1.587   1.169  0.6093 -0.2506  0.7044
  592SOL    HW2 2441   1.558   1.496   1.186 -2.8139 -1.3787 -0.3061
  592SOL    HW3 2442   1.553   1.599   1.075  1.4853  0.3016  0.9275
  592SOL    MW4 2443   1.541   1.577   1.159  0.2732 -0.3268  0.6005
  593SOL     OW 2444   1.620   2.039   1.244  0.0894 -0.1269  0.3619
  593SOL    HW2 2445   1.546   2.000   1.198 -0.8507  0.9413  0.9435
  593SOL    HW3 2446   1.633   2.123   1.201  0.3017  0.1309  0.9267
  593SOL    MW4 2447   1.612   2.045   1.232 -0.0067  0.0479  0.5131
  594SOL     OW 2448   1.849   1.895   1.168  0.2409  0.4020 -0.1243
  594SOL    HW2 2449   1.775   1.948   1.197 -1.1614 -2.4562  1.7986
  594SOL    HW3 2450   1.833   1.881   1.075 -0.5650  1.4587 -0.1612
  594SOL    MW4 2451   1.837   1.900   1.160 -0.0505  0.1643  0.1246
  595SOL     OW 2452   2.082   2.318   1.114 -0.1969 -0.1736  0.1147
  595SOL    HW2 2453   2.148   2.364   1.166 -0.9512  0.9624  0.1055
  595SOL    HW3 2454   2.067   2.237   1.162  0.0606  0.2794  0.9815
  595SOL    MW4 2455   2.088   2.314   1.127 -0.2625  0.0360  0.2278
  596SOL     OW 2456   1.856   2.484   1.161 -0.4733 -0.1510 -0.0866
  596SOL    HW2 2457   1.782   2.425   1.147 -0.7921  0.3405 -0.5011
  596SOL    HW3 2458   1.933   2.431   1.141 -0.6192 -1.0781  1.6974
  596SOL    MW4 2459   1.856   2.469   1.156 -0.5344 -0.2086  0.0939
  597SOL     OW 2460   4.374   3.337   0.643 -0.2594  0.0671 -0.3164
  597SOL    HW2 2461   4.407   3.412   0.693  1.4740 -0.9967  0.1667
  597SOL    HW3 2462   4.327   3.284   0.707  0.5760 -0.4708 -0.1389
  597SOL    MW4 2463   4.372   3.340   0.658  0.0796 -0.1445 -0.2292
  598SOL     OW 2464   2.282   2.694   1.110 -0.1413 -0.7290 -0.2944
  598SOL    HW2 2465   2.198   2.739   1.122  0.8339  1.1335 -0.2394
  598SOL    HW3 2466   2.269   2.608   1.149 -2.3270 -0.8163 -1.1342
  598SOL    MW4 2467   2.269   2.689   1.117 -0.3009 -0.4947 -0.3980
  599SOL     OW 2468   2.003   3.111   1.126 -0.1646  0.3409 -0.3680
  599SOL    HW2 2469   1.928   3.166   1.148 -0.9068 -0.8223  0.0473
  599SOL    HW3 2470   1.993   3.093   1.033 -1.0996 -0.8213 -0.0632
  599SOL    MW4 2471   1.992   3.116   1.117 -0.3858  0.0343 -0.2730
  600SOL     OW 2472   1.790   3.485   1.086  0.1116 -0.0456 -0.2234
  600SOL    HW2 2473   1.761   3.399   1.115 -0.3135  0.0887 -0.2348
  600SOL    HW3 2474   1.787   3.480   0.990 -1.6957  0.5534 -0.2256
  600SOL    MW4 2475   1.785   3.473   1.077 -0.1830  0.0510 -0.2253
  601SOL     OW 2476   1.581   3.630   1.174 -0.2108  0.2565  0.2856
  601SOL    HW2 2477   1.662   3.588   1.144 -0.0636  0.0213  0.9936
  601SOL    HW3 2478   1.511   3.580   1.132 -0.0184 -0.3833  0.7091
  601SOL    MW4 2479   1.583   3.618   1.165 -0.1659  0.1409  0.4348
  602SOL     OW 2480   1.259   3.344   0.668  0.5450 -0.0233  0.2524
  602SOL    HW2 2481   1.351   3.337   0.641  0.7228  0.3143  0.7444
  602SOL    HW3 2482   1.261   3.405   0.742 -0.0653 -0.0942  0.3309
  602SOL    MW4 2483   1.272   3.351   0.674  0.4880  0.0117  0.3276
  603SOL     OW 2484   2.061   3.557   1.186 -0.2133 -0.5097 -0.4141
  603SOL    HW2 2485   1.980   3.519   1.151 -1.3931  1.6738 -0.1372
  603SOL    HW3 2486   2.045   3.565   1.280 -0.7921  2.4820 -0.7249
  603SOL    MW4 2487   2.048   3.553   1.193 -0.4454  0.1731 -0.4185
  604SOL     OW 2488   1.816   3.979   1.183  0.2625  0.1247 -0.4437
  604SOL    HW2 2489   1.801   4.010   1.272  2.4242 -1.5224  0.5492
  604SOL    HW3 2490   1.732   3.942   1.155  0.3359 -2.0565  2.0697
  604SOL    MW4 2491   1.803   3.978   1.191  0.5574 -0.3805  0.0188
  605SOL     OW 2492   2.279   4.082   0.386 -0.4140  0.1083  0.3542
  605SOL    HW2 2493   2.263   4.176   0.373 -0.3917  0.0931  0.2181
  605SOL    HW3 2494   2.260   4.068   0.479  0.1123  0.3580  0.5020
  605SOL    MW4 2495   2.274   4.093   0.397 -0.3417  0.1397  0.3558
  606SOL     OW 2496   2.020   4.394   1.174 -0.0346 -0.1220  0.6929
  606SOL    HW2 2497   1.970   4.315   1.156 -0.0841  0.1361 -0.3100
  606SOL    HW3 2498   2.047   4.385   1.266 -1.1930 -0.6598  0.9926
  606SOL    MW4 2499   2.017   4.383   1.184 -0.1941 -0.1593  0.6002
  607SOL     OW 2500   2.436   4.398   1.240 -0.0045  0.4927 -0.1004
  607SOL    HW2 2501   2.369   4.363   1.182 -1.8757  1.3473  1.4695
  607SOL    HW3 2502   2.454   4.486   1.206  0.1063  0.3680 -0.3619
  607SOL    MW4 2503   2.430   4.405   1.228 -0.2367  0.5884  0.0721
  608SOL     OW 2504   2.094   0.685   0.874 -0.1473  0.0991 -0.0818
  608SOL    HW2 2505   2.085   0.592   0.856 -0.5139  0.0857  0.1791
  608SOL    HW3 2506   2.034   0.728   0.813  0.9024  0.2427 -1.0378
  608SOL    MW4 2507   2.085   0.678   0.863 -0.0572  0.1163 -0.1735
  609SOL     OW 2508   1.998   0.436   1.233 -0.1214  0.2620 -0.3572
  609SOL    HW2 2509   2.015   0.456   1.325  0.2684 -1.8678  0.0516
  609SOL    HW3 2510   2.083   0.412   1.197 -0.2864  0.9828 -1.2688
  609SOL    MW4 2511   2.011   0.435   1.240 -0.0918  0.0761 -0.4236
  610SOL     OW 2512   2.674   1.140   1.139 -0.3660 -0.6969  0.3286
  610SOL    HW2 2513   2.688   1.128   1.045  0.2877  0.3423  0.2852
  610SOL    HW3 2514   2.755   1.180   1.171 -0.8561 -0.3783  1.2100
  610SOL    MW4 2515   2.687   1.144   1.131 -0.3445 -0.5178  0.4392
  611SOL     OW 2516   2.442   0.772   1.187  0.4758  0.5581  0.4652
  611SOL    HW2 2517   2.462   0.679   1.200  1.4314  0.7530  0.3988
  611SOL    HW3 2518   2.417   0.779   1.095 -0.5428  0.2021  0.7073
  611SOL    MW4 2519   2.441   0.760   1.177  0.4675  0.5368  0.4884
  612SOL     OW 2520   2.197   0.873   1.272  0.3098  0.1805  0.8410
  612SOL    HW2 2521   2.129   0.819   1.231  0.3150  0.3554  0.6012
  612SOL    HW3 2522   2.277   0.849   1.226  0.4781 -0.2824  1.3582
  612SOL    MW4 2523   2.198   0.862   1.261  0.3324  0.1425  0.8775
  613SOL     OW 2524   2.188   1.662   0.463  0.1529 -0.0288  0.1617
  613SOL    HW2 2525   2.205   1.577   0.505  0.3828  0.1427  0.4173
  613SOL    HW3 2526   2.270   1.710   0.473  0.8200 -0.6497 -2.0848
  613SOL    MW4 2527   2.201   1.657   0.470  0.2711 -0.0880 -0.1010
  614SOL     OW 2528   0.672   0.431   0.658  0.0347 -0.5347 -0.1193
  614SOL    HW2 2529   0.676   0.504   0.597 -0.0183  0.1596  0.6961
  614SOL    HW3 2530   0.696   0.354   0.606  2.3776  0.3879 -0.4229
  614SOL    MW4 2531   0.675   0.431   0.643  0.3369 -0.3214 -0.0517
  615SOL     OW 2532   2.668   1.639   1.215 -0.3642  0.5336 -0.6050
  615SOL    HW2 2533   2.739   1.597   1.166  1.2558  1.1013  1.1895
  615SOL    HW3 2534   2.588   1.606   1.175  0.8709 -2.3813 -0.7991
  615SOL    MW4 2535   2.667   1.629   1.203  0.0124  0.2240 -0.3937
  616SOL     OW 2536   2.206   1.642   1.206 -0.0906  0.2191  0.2805
  616SOL    HW2 2537   2.215   1.729   1.169 -0.8159  0.4638  0.6840
  616SOL    HW3 2538   2.133   1.603   1.159  1.6119 -0.9839 -1.4540
  616SOL    MW4 2539   2.198   1.648   1.195  0.0386  0.0926  0.1050
  617SOL     OW 2540   2.079   2.054   1.191  0.0208  0.0949 -0.0958
  617SOL    HW2 2541   2.084   2.054   1.287  1.2456 -1.5674 -0.1183
  617SOL    HW3 2542   2.005   1.996   1.171  0.1532 -0.0572 -0.1498
  617SOL    MW4 2543   2.070   2.046   1.201  0.2000 -0.1442 -0.1059
  618SOL     OW 2544   2.520   1.990   1.230 -0.0915 -0.1223  0.0441
  618SOL    HW2 2545   2.443   1.965   1.178 -0.8394  0.9182  0.6380
  618SOL    HW3 2546   2.594   1.950   1.184 -0.6603  1.4019 -2.2661
  618SOL    MW4 2547   2.519   1.981   1.217 -0.2649  0.2162 -0.1823
  619SOL     OW 2548   2.527   2.313   1.132  0.0824 -0.1184  0.2141
  619SOL    HW2 2549   2.532   2.226   1.171 -1.3035 -0.2782  0.0453
  619SOL    HW3 2550   2.544   2.299   1.039  1.0524 -0.0440  0.3749
  619SOL    MW4 2551   2.530   2.300   1.125  0.0277 -0.1295  0.2131
  620SOL     OW 2552   2.290   2.447   1.238  0.0433 -0.0309  0.1518
  620SOL    HW2 2553   2.310   2.445   1.332  1.6980  0.0482 -0.1768
  620SOL    HW3 2554   2.369   2.412   1.197 -0.4292  0.5515 -1.2576
  620SOL    MW4 2555   2.303   2.442   1.245  0.1991  0.0563 -0.0775
  621SOL     OW 2556   4.046   2.373   0.712  0.1333 -0.3066  0.0494
  621SOL    HW2 2557   4.076   2.282   0.700  0.1349 -0.1021 -1.6833
  621SOL    HW3 2558   4.122   2.418   0.749  0.1007 -1.0315  1.0152
  621SOL    MW4 2559   4.060   2.367   0.715  0.1292 -0.3750 -0.0518
  622SOL     OW 2560   2.511   2.800   1.188 -0.0549  0.1285  0.2100
  622SOL    HW2 2561   2.506   2.807   1.284 -0.5008  0.9468  0.1312
  622SOL    HW3 2562   2.426   2.764   1.163  0.1212 -0.2341  0.1319
  622SOL    MW4 2563   2.499   2.796   1.198 -0.0904  0.1886  0.1892
  623SOL     OW 2564   2.480   3.066   1.112 -0.1005 -0.1968  0.5962
  623SOL    HW2 2565   2.405   3.087   1.167 -1.0392 -1.1158 -0.3168
  623SOL    HW3 2566   2.495   2.973   1.126  0.1938 -0.2525 -0.0502
  623SOL    MW4 2567   2.472   3.057   1.121 -0.1855 -0.3254  0.3904
  624SOL     OW 2568   2.256   3.178   1.217  0.0813  0.5223 -0.3902
  624SOL    HW2 2569   2.285   3.260   1.176  0.7024 -0.4788 -2.0417
  624SOL    HW3 2570   2.171   3.160   1.176 -1.2234  1.5701  1.7661
  624SOL    MW4 2571   2.249   3.186   1.206 -0.0091  0.5286 -0.3237
  625SOL     OW 2572   2.286   3.423   1.083  0.1876  0.7763 -0.0419
  625SOL    HW2 2573   2.349   3.488   1.112 -0.4894  1.8996 -1.0550
  625SOL    HW3 2574   2.202   3.455   1.113 -0.2066  0.6224 -0.9658
  625SOL    MW4 2575   2.284   3.436   1.091  0.0463  0.9043 -0.2974
  626SOL     OW 2576   2.498   3.617   1.167  0.0094  0.5665 -0.1718
  626SOL    HW2 2577   2.502   3.615   1.262  0.9171  2.1546 -0.1519
  626SOL    HW3 2578   2.470   3.707   1.146 -0.3721  0.1800 -1.3995
  626SOL    MW4 2579   2.495   3.629   1.177  0.0787  0.7253 -0.3312
  627SOL     OW 2580   1.673   1.450   0.534 -0.0149  0.2644  0.2116
  627SOL    HW2 2581   1.579   1.432   0.533 -0.1604  0.9620  1.1998
  627SOL    HW3 2582   1.710   1.387   0.472 -0.9163 -1.2080  1.1368
  627SOL    MW4 2583   1.666   1.439   0.526 -0.1532  0.1622  0.4640
  628SOL     OW 2584   2.219   4.011   1.205  0.0650  0.1296  0.4405
  628SOL    HW2 2585   2.171   3.934   1.173 -0.5735  0.6914  0.0339
  628SOL    HW3 2586   2.219   4.002   1.300  0.8084 -0.8605  0.3578
  628SOL    MW4 2587   2.213   4.000   1.213  0.0789  0.0730  0.3760
  629SOL     OW 2588   0.205   4.054   0.441  0.0528  0.1593  0.4385
  629SOL    HW2 2589   0.138   4.023   0.502  0.5917 -1.0383  0.4294
  629SOL    HW3 2590   0.218   4.146   0.464 -0.2697 -0.0978  1.6377
  629SOL    MW4 2591   0.198   4.062   0.452  0.0813 -0.0329  0.5955
  630SOL     OW 2592   2.242   4.267   1.074  0.3109 -0.3501  0.2572
  630SOL    HW2 2593   2.214   4.179   1.099 -0.7412  0.6478  2.6828
  630SOL    HW3 2594   2.171   4.325   1.103  1.9016  1.5059  0.5717
  630SOL    MW4 2595   2.229   4.263   1.081  0.3822  0.0267  0.6186
  631SOL     OW 2596   1.290   2.836   0.340  0.0665  0.0508 -0.5758
  631SOL    HW2 2597   1.359   2.856   0.403 -0.5646 -1.5754  0.6465
  631SOL    HW3 2598   1.328   2.769   0.283 -0.8067 -1.5866  0.7164
  631SOL    MW4 2599   1.304   2.830   0.341 -0.1318 -0.3798 -0.2440
  632SOL     OW 2600   2.731   0.392   1.196  0.3393 -0.2241  0.3823
  632SOL    HW2 2601   2.713   0.382   1.103  1.0319  0.0255  0.2233
  632SOL    HW3 2602   2.738   0.302   1.228 -1.9997 -0.3448  0.6087
  632SOL    MW4 2603   2.729   0.378   1.188  0.1221 -0.2071  0.3911
  633SOL     OW 2604   2.694   0.108   1.217 -0.1743 -0.7812  0.4560
  633SOL    HW2 2605   2.671   0.097   1.310  0.6880  2.0211  1.0533
  633SOL    HW3 2606   2.614   0.082   1.170 -1.6960  0.6508  2.1455
  633SOL    MW4 2607   2.680   0.103   1.223 -0.2613 -0.2226  0.7576
  634SOL     OW 2608   2.334   3.356   0.297 -0.0256  0.3582 -0.3710
  634SOL    HW2 2609   2.372   3.426   0.350  0.4201  0.0990 -0.3394
  634SOL    HW3 2610   2.253   3.393   0.262  0.7460  1.2543 -1.2347
  634SOL    MW4 2611   2.329   3.370   0.300  0.1352  0.4420 -0.4808
  635SOL     OW 2612   3.123   0.879   1.269 -0.0837 -0.3595  0.0507
  635SOL    HW2 2613   3.138   0.888   1.363 -0.2357  0.8554 -0.0418
  635SOL    HW3 2614   3.207   0.847   1.234 -0.4381 -2.1583  0.7734
  635SOL    MW4 2615   3.136   0.876   1.277 -0.1504 -0.4365  0.1339
  636SOL     OW 2616   3.131   0.110   1.232 -0.3516  0.1158 -0.0895
  636SOL    HW2 2617   3.040   0.096   1.206 -0.1530 -1.4583  0.0216
  636SOL    HW3 2618   3.128   0.112   1.327  0.0096 -2.1693  0.0011
  636SOL    MW4 2619   3.118   0.108   1.241 -0.2775 -0.3934 -0.0628
  637SOL     OW 2620   3.063   1.144   0.841  0.0598 -0.2297  0.1855
  637SOL    HW2 2621   3.110   1.062   0.822 -0.3615 -0.6976  1.1333
  637SOL    HW3 2622   3.063   1.150   0.936  0.7279  1.2650  0.1090
  637SOL    MW4 2623   3.069   1.134   0.851  0.0923 -0.0941  0.3005
  638SOL     OW 2624   4.199   4.345   0.410 -0.5870  0.4969 -0.5250
  638SOL    HW2 2625   4.295   4.342   0.403 -0.5273  0.8895  0.1188
  638SOL    HW3 2626   4.178   4.439   0.411 -1.0666  0.4132 -1.8222
  638SOL    MW4 2627   4.209   4.357   0.409 -0.6423  0.5379 -0.6112
  639SOL     OW 2628   2.439   1.552   1.065 -0.0449 -0.2194 -0.1996
  639SOL    HW2 2629   2.454   1.458   1.077 -0.2823 -0.2006  0.2726
  639SOL    HW3 2630   2.355   1.568   1.108 -0.4313  0.0484 -1.0505
  639SOL    MW4 2631   2.430   1.541   1.072 -0.1271 -0.1816 -0.2496
  640SOL     OW 2632   3.463   4.196   0.425  0.3847  0.4147  0.1875
  640SOL    HW2 2633   3.531   4.263   0.423  0.1890  0.6090 -0.0668
  640SOL    HW3 2634   3.506   4.119   0.461  1.0890  0.1620 -1.1729
  640SOL    MW4 2635   3.477   4.195   0.429  0.4518  0.4072 -0.0255
  641SOL     OW 2636   2.426   0.993   0.738 -0.3084  0.4973  0.0110
  641SOL    HW2 2637   2.364   1.048   0.787 -1.0467  2.1298 -2.6384
  641SOL    HW3 2638   2.511   1.010   0.778 -1.0232  1.0750  1.3110
  641SOL    MW4 2639   2.429   1.002   0.750 -0.5002  0.7889 -0.1670
  642SOL     OW 2640   2.876   2.047   1.207  0.1838  0.1398 -0.1071
  642SOL    HW2 2641   2.886   2.065   1.301  0.9891 -1.4819  0.1365
  642SOL    HW3 2642   2.884   2.132   1.165  1.1991  0.6976  1.1932
  642SOL    MW4 2643   2.878   2.061   1.214  0.4241 -0.0007  0.0964
  643SOL     OW 2644   2.930   2.286   1.103  0.0658 -0.0616 -0.3046
  643SOL    HW2 2645   3.016   2.316   1.132  0.3219 -1.0631  0.0168
  643SOL    HW3 2646   2.868   2.345   1.145  0.5502 -0.0179  0.3521
  643SOL    MW4 2647   2.933   2.298   1.112  0.1638 -0.1879 -0.1755
  644SOL     OW 2648   2.736   2.445   1.218 -0.2625 -0.3323  0.6571
  644SOL    HW2 2649   2.718   2.450   1.312 -2.6299  1.9109  0.1459
  644SOL    HW3 2650   2.659   2.402   1.180 -0.8509  1.7428 -0.6033
  644SOL    MW4 2651   2.724   2.440   1.225 -0.6526  0.2372  0.4233
  645SOL     OW 2652   2.732   2.674   1.063  0.5952 -0.2169  0.2606
  645SOL    HW2 2653   2.663   2.724   1.106 -0.7337 -0.9059 -1.0167
  645SOL    HW3 2654   2.728   2.588   1.104 -0.1391 -0.6269 -0.6370
  645SOL    MW4 2655   2.722   2.669   1.074  0.3231 -0.3622 -0.0263
  646SOL     OW 2656   2.909   2.832   1.230 -0.3458  0.6438  0.1760
  646SOL    HW2 2657   2.894   2.809   1.322 -0.2103 -0.6971 -0.1249
  646SOL    HW3 2658   2.853   2.771   1.181  1.4981 -0.3457 -0.7190
  646SOL    MW4 2659   2.899   2.821   1.236 -0.0846  0.3362  0.0182
  647SOL     OW 2660   2.905   3.096   1.158  0.2266 -0.2761 -0.0917
  647SOL    HW2 2661   2.916   3.095   1.063 -1.9446  0.5649 -0.3602
  647SOL    HW3 2662   2.916   3.004   1.184 -0.1931 -0.6665 -1.2682
  647SOL    MW4 2663   2.908   3.084   1.149 -0.1156 -0.2165 -0.2824
  648SOL     OW 2664   2.678   3.231   1.226 -0.4276 -0.2797  0.4200
  648SOL    HW2 2665   2.758   3.181   1.208 -0.7843 -0.5492 -0.4102
  648SOL    HW3 2666   2.610   3.188   1.176 -0.4753  1.8290 -1.4190
  648SOL    MW4 2667   2.680   3.219   1.217 -0.4811 -0.0370  0.0678
  649SOL     OW 2668   2.713   3.460   1.066  0.1132  0.2523 -0.4771
  649SOL    HW2 2669   2.706   3.378   1.114  0.1150  0.5204 -0.0117
  649SOL    HW3 2670   2.636   3.510   1.093 -0.7288 -0.2167 -1.9666
  649SOL    MW4 2671   2.702   3.456   1.076  0.0024  0.2258 -0.6121
  650SOL     OW 2672   2.922   3.543   1.215  0.0602  0.9695 -0.1539
  650SOL    HW2 2673   3.005   3.508   1.181  1.0927  2.1909  1.0382
  650SOL    HW3 2674   2.855   3.500   1.162  1.3592 -1.3616 -0.0214
  650SOL    MW4 2675   2.924   3.532   1.204  0.3676  0.8230  0.0210
  651SOL     OW 2676   2.875   3.812   1.137  0.0896 -0.3449  0.0036
  651SOL    HW2 2677   2.947   3.872   1.156  0.9795 -0.5311 -2.5974
  651SOL    HW3 2678   2.904   3.728   1.172  1.2989 -0.4799 -1.2662
  651SOL    MW4 2679   2.889   3.809   1.144  0.3667 -0.3872 -0.5071
  652SOL     OW 2680   2.674   4.009   1.194 -0.3390  0.7074  0.5473
  652SOL    HW2 2681   2.741   3.941   1.187 -1.7168 -0.8110  1.6990
  652SOL    HW3 2682   2.594   3.967   1.163 -1.3789  1.5279  2.0722
  652SOL    MW4 2683   2.672   3.994   1.189 -0.6578  0.6156  0.9004
  653SOL     OW 2684   2.770   1.876   0.776  0.2775 -0.1320 -0.5055
  653SOL    HW2 2685   2.768   1.877   0.871  2.6255 -1.2102 -0.3981
  653SOL    HW3 2686   2.804   1.789   0.754  0.9569  0.5528 -2.2685
  653SOL    MW4 2687   2.774   1.865   0.785  0.6771 -0.1839 -0.7240
  654SOL     OW 2688   2.892   4.407   1.173 -0.3086  0.2660 -0.1209
  654SOL    HW2 2689   2.961   4.346   1.147 -0.9247 -0.8617  0.8369
  654SOL    HW3 2690   2.811   4.368   1.141 -0.6655  0.8117  0.0923
  654SOL    MW4 2691   2.891   4.394   1.166 -0.4370  0.1893  0.0336
  655SOL     OW 2692   3.338   4.652   1.118 -0.2656 -0.1607 -0.4084
  655SOL    HW2 2693   3.416   4.694   1.153 -0.6274 -2.1328  3.0498
  655SOL    HW3 2694   3.265   4.697   1.160 -0.8234 -0.9197 -0.5333
  655SOL    MW4 2695   3.338   4.663   1.128 -0.3870 -0.5212  0.0315
  656SOL     OW 2696   2.923   0.018   1.096  0.2015 -0.7646 -0.0497
  656SOL    HW2 2697   2.922  -0.072   1.128  0.8165 -0.4409  0.8952
  656SOL    HW3 2698   2.843   0.057   1.131  1.1575 -0.2482  1.5793
  656SOL    MW4 2699   2.912   0.011   1.105  0.4086 -0.6537  0.2898
  657SOL     OW 2700   2.894   1.625   0.685 -0.4750 -0.3168 -0.5142
  657SOL    HW2 2701   2.896   1.628   0.590  0.3580 -0.2629 -0.5037
  657SOL    HW3 2702   2.983   1.651   0.711 -1.0189  0.7401  0.2986
  657SOL    MW4 2703   2.906   1.629   0.676 -0.4368 -0.1701 -0.4055
  658SOL     OW 2704   3.139   0.377   1.101  0.3951  0.0829  0.4656
  658SOL    HW2 2705   3.075   0.427   1.153  0.8156 -0.0963  1.1668
  658SOL    HW3 2706   3.146   0.293   1.148  0.1688 -0.3914 -0.3453
  658SOL    MW4 2707   3.131   0.372   1.114  0.4208 -0.0033  0.4512
  659SOL     OW 2708   3.593   0.884   1.198 -0.3035  0.2166  0.2097
  659SOL    HW2 2709   3.575   0.971   1.163 -0.8924 -0.4253 -1.0958
  659SOL    HW3 2710   3.670   0.854   1.151 -0.6791 -0.3628 -0.0397
  659SOL    MW4 2711   3.601   0.891   1.187 -0.4308  0.0555  0.0045
  660SOL     OW 2712   2.893   0.791   1.152  0.2645  0.1103 -0.0244
  660SOL    HW2 2713   2.978   0.820   1.187  0.8335 -2.0584  0.4423
  660SOL    HW3 2714   2.828   0.835   1.208  1.1428 -1.9155  2.6919
  660SOL    MW4 2715   2.896   0.801   1.164  0.4556 -0.4432  0.3957
  661SOL     OW 2716   4.231   0.675   0.833  0.1869  0.2759 -0.0812
  661SOL    HW2 2717   4.246   0.702   0.924 -1.2027  0.1705  0.1974
  661SOL    HW3 2718   4.309   0.704   0.786  1.7391 -1.2953  1.4719
  661SOL    MW4 2719   4.243   0.682   0.839  0.2089  0.0547  0.1605
  662SOL     OW 2720   3.306   1.273   1.238 -0.1356  0.1529  0.0736
  662SOL    HW2 2721   3.311   1.275   1.333  1.6661 -1.4307  0.0704
  662SOL    HW3 2722   3.340   1.358   1.210 -0.3205  0.4813  0.8436
  662SOL    MW4 2723   3.311   1.284   1.247  0.0780 -0.0126  0.1748
  663SOL     OW 2724   4.461   1.600   0.688  0.2135 -0.2795  0.5728
  663SOL    HW2 2725   4.446   1.690   0.660  1.0453 -0.3644 -0.1825
  663SOL    HW3 2726   4.524   1.608   0.759 -0.6455 -0.1819  1.3298
  663SOL    MW4 2727   4.468   1.613   0.693  0.2098 -0.2778  0.5731
  664SOL     OW 2728   3.770   0.122   0.414  0.3104 -0.0510  0.7465
  664SOL    HW2 2729   3.795   0.061   0.345  0.5455 -0.0433  0.8233
  664SOL    HW3 2730   3.828   0.197   0.402 -0.7028  0.6303 -0.0193
  664SOL    MW4 2731   3.781   0.124   0.404  0.2077  0.0399  0.6556
  665SOL     OW 2732   3.938   3.722   0.590 -0.5133  0.2767  0.1219
  665SOL    HW2 2733   3.987   3.790   0.544  0.4496 -0.0942  0.6028
  665SOL    HW3 2734   3.855   3.717   0.542 -0.2046  1.0983 -0.5206
  665SOL    MW4 2735   3.933   3.730   0.577 -0.3457  0.3362  0.1006
  666SOL     OW 2736   2.527   1.714   0.827 -0.2977 -0.0057 -0.3309
  666SOL    HW2 2737   2.584   1.786   0.854 -0.3408  0.3322 -1.1256
  666SOL    HW3 2738   2.494   1.677   0.909  1.2734 -0.3739  0.1373
  666SOL    MW4 2739   2.530   1.718   0.841 -0.0963 -0.0097 -0.3741
  667SOL     OW 2740   3.370   2.281   1.188  0.5715  0.2949  0.1469
  667SOL    HW2 2741   3.434   2.350   1.202 -0.0625  1.0751 -0.7734
  667SOL    HW3 2742   3.285   2.323   1.199  0.1894 -0.4312  0.0230
  667SOL    MW4 2743   3.368   2.295   1.191  0.4373  0.3023  0.0092
  668SOL     OW 2744   3.135   2.422   1.189  0.1838 -0.2553 -0.3421
  668SOL    HW2 2745   3.133   2.429   1.284 -0.1057  1.1940 -0.4336
  668SOL    HW3 2746   3.143   2.513   1.158 -2.0412 -0.4618 -1.7225
  668SOL    MW4 2747   3.136   2.435   1.197 -0.1481 -0.0916 -0.5363
  669SOL     OW 2748   1.650   1.784   0.772 -0.3480  0.4813 -0.0266
  669SOL    HW2 2749   1.729   1.832   0.797 -0.6915  0.8146  0.4330
  669SOL    HW3 2750   1.657   1.775   0.677  0.7562 -0.4103  0.1236
  669SOL    MW4 2751   1.662   1.790   0.762 -0.2476  0.4077  0.0538
  670SOL     OW 2752   3.383   2.833   1.234  0.3373  0.4194 -0.1877
  670SOL    HW2 2753   3.383   2.920   1.193 -0.2350  1.2111  1.4641
  670SOL    HW3 2754   3.301   2.793   1.204 -0.9881  1.7083  1.6224
  670SOL    MW4 2755   3.372   2.840   1.224  0.0870  0.6938  0.2691
  671SOL     OW 2756   3.392   3.069   1.097  0.4188 -0.0869 -0.1268
  671SOL    HW2 2757   3.456   3.120   1.146  1.2600 -0.9681 -0.3009
  671SOL    HW3 2758   3.307   3.104   1.125  0.9483  0.5834  0.6565
  671SOL    MW4 2759   3.389   3.080   1.107  0.5996 -0.1147 -0.0464
  672SOL     OW 2760   3.181   3.463   1.100  0.1269  0.1834  0.7270
  672SOL    HW2 2761   3.164   3.459   1.006 -0.4382 -0.9014  0.8764
  672SOL    HW3 2762   3.171   3.373   1.131  3.1933 -0.0040  1.3445
  672SOL    MW4 2763   3.177   3.451   1.092  0.4570  0.0157  0.8283
  673SOL     OW 2764   3.165   3.195   1.186  0.0903 -0.1935 -0.1879
  673SOL    HW2 2765   3.179   3.200   1.281  2.2223  2.3850 -0.5711
  673SOL    HW3 2766   3.074   3.165   1.177 -0.3978  0.2466  2.6868
  673SOL    MW4 2767   3.155   3.192   1.197  0.3073  0.2048  0.1408
  674SOL     OW 2768   3.386   3.628   1.220 -0.0892 -0.4917  0.2396
  674SOL    HW2 2769   3.306   3.578   1.205 -0.0504 -0.5334  0.1732
  674SOL    HW3 2770   3.393   3.633   1.315 -0.6594  0.2844  0.2564
  674SOL    MW4 2771   3.376   3.622   1.231 -0.1593 -0.3948  0.2332
  675SOL     OW 2772   3.318   3.893   1.106 -0.6288  0.3365 -0.6605
  675SOL    HW2 2773   3.228   3.906   1.135 -0.6052 -1.2400  0.2096
  675SOL    HW3 2774   3.339   3.803   1.133  0.6651  0.1293 -2.2884
  675SOL    MW4 2775   3.309   3.883   1.114 -0.4549  0.1011 -0.7603
  676SOL     OW 2776   3.075   3.983   1.218  0.2013 -0.1972  0.6903
  676SOL    HW2 2777   3.076   3.990   1.313  0.2073  0.0254  0.6761
  676SOL    HW3 2778   3.100   4.071   1.188  0.4259 -0.3289  0.4863
  676SOL    MW4 2779   3.079   3.996   1.226  0.2315 -0.1855  0.6616
  677SOL     OW 2780   3.119   4.230   1.109  0.0176  0.2751 -0.2910
  677SOL    HW2 2781   3.186   4.291   1.141  0.4916  0.2435 -1.2344
  677SOL    HW3 2782   3.116   4.244   1.015  0.5103 -1.5588 -0.5845
  677SOL    MW4 2783   3.127   4.240   1.101  0.1454  0.0286 -0.4542
  678SOL     OW 2784   3.305   4.399   1.229  0.5371  0.1117 -0.3455
  678SOL    HW2 2785   3.392   4.363   1.212  0.5598 -0.1873  0.3890
  678SOL    HW3 2786   3.312   4.491   1.201  1.6240  0.5732  1.3351
  678SOL    MW4 2787   3.318   4.407   1.223  0.6835  0.1330 -0.0267
  679SOL     OW 2788   3.825   4.633   1.108  0.0380 -0.2011 -0.3958
  679SOL    HW2 2789   3.750   4.675   1.150  0.1892  0.2903 -0.6025
  679SOL    HW3 2790   3.813   4.651   1.015 -0.7392 -2.0083 -0.6533
  679SOL    MW4 2791   3.814   4.641   1.101 -0.0448 -0.3747 -0.4570
  680SOL     OW 2792   3.573   0.099   1.218 -0.5116 -0.0470 -0.1122
  680SOL    HW2 2793   3.603   0.190   1.212  0.4392 -0.2747  1.0352
  680SOL    HW3 2794   3.578   0.078   1.311 -1.5108 -1.0200 -0.2678
  680SOL    MW4 2795   3.578   0.109   1.229 -0.5178 -0.2054  0.0186
  681SOL     OW 2796   3.381   0.464   1.231 -0.2403 -0.3831  0.2306
  681SOL    HW2 2797   3.305   0.424   1.189  0.2743 -0.5424 -0.5640
  681SOL    HW3 2798   3.382   0.554   1.196 -1.0414  0.1425  1.5411
  681SOL    MW4 2799   3.371   0.471   1.221 -0.2782 -0.3348  0.2989
  682SOL     OW 2800   3.797   0.517   1.100  0.0866 -0.4780  0.3605
  682SOL    HW2 2801   3.821   0.609   1.096  0.5095 -0.5280  1.6310
  682SOL    HW3 2802   3.880   0.470   1.087  0.1979 -0.6591  1.6400
  682SOL    MW4 2803   3.811   0.523   1.098  0.1569 -0.5084  0.6969
  683SOL     OW 2804   3.633   0.370   1.251  0.4079  0.4000 -0.2155
  683SOL    HW2 2805   3.546   0.409   1.251  0.2786  0.1134  0.1497
  683SOL    HW3 2806   3.682   0.419   1.185 -0.5507 -0.5843 -1.6940
  683SOL    MW4 2807   3.628   0.381   1.242  0.2642  0.2323 -0.3624
  684SOL     OW 2808   3.992   1.109   1.143 -0.1035 -0.5126 -0.4614
  684SOL    HW2 2809   3.908   1.143   1.173  1.7489  3.7015  0.3380
  684SOL    HW3 2810   3.990   1.122   1.048 -0.4391 -0.6447 -0.4739
  684SOL    MW4 2811   3.981   1.115   1.135  0.0963  0.0259 -0.3576
  685SOL     OW 2812   4.120   1.362   0.407  0.1554 -0.1889 -0.0366
  685SOL    HW2 2813   4.070   1.318   0.338  0.8618 -0.2070 -0.5350
  685SOL    HW3 2814   4.180   1.295   0.440 -0.1731 -0.1797  0.5923
  685SOL    MW4 2815   4.121   1.347   0.402  0.2050 -0.1901 -0.0194
  686SOL     OW 2816   4.262   0.759   1.092  0.3225 -0.5792 -0.3024
  686SOL    HW2 2817   4.281   0.687   1.152  0.5959 -0.1574  0.1180
  686SOL    HW3 2818   4.182   0.799   1.127  0.2392 -0.5986 -0.4658
  686SOL    MW4 2819   4.254   0.755   1.104  0.3471 -0.5260 -0.2683
  687SOL     OW 2820   3.753   1.254   1.220  0.2576  0.3222 -0.2851
  687SOL    HW2 2821   3.759   1.279   1.312  3.0134 -0.3287 -0.2338
  687SOL    HW3 2822   3.783   1.332   1.172  2.0907 -0.4443 -0.4387
  687SOL    MW4 2823   3.758   1.268   1.225  0.8628  0.1352 -0.2985
  688SOL     OW 2824   3.357   1.509   1.113  0.0293 -0.0696 -0.8711
  688SOL    HW2 2825   3.293   1.569   1.151  0.8022  0.1591  0.0899
  688SOL    HW3 2826   3.327   1.495   1.023 -1.1679  0.3135 -0.5360
  688SOL    MW4 2827   3.345   1.515   1.106 -0.0267  0.0111 -0.7002
  689SOL     OW 2828   2.139   4.344   0.431  0.4688 -0.4555  0.5084
  689SOL    HW2 2829   2.137   4.346   0.527 -1.1470  0.0624  0.4782
  689SOL    HW3 2830   2.047   4.345   0.405  0.8392 -2.8708 -1.0229
  689SOL    MW4 2831   2.126   4.344   0.440  0.3045 -0.7062  0.3024
  690SOL     OW 2832   3.820   2.059   1.167 -0.1320  0.4522  0.2077
  690SOL    HW2 2833   3.814   2.047   1.262  0.2765 -0.0629  0.1740
  690SOL    HW3 2834   3.894   2.004   1.141  0.0114  0.9094 -0.3554
  690SOL    MW4 2835   3.829   2.050   1.176 -0.0589  0.4444  0.1290
  691SOL     OW 2836   3.788   2.333   1.102 -0.1045  0.3201  0.4394
  691SOL    HW2 2837   3.814   2.242   1.122  0.8319  0.1410 -1.4559
  691SOL    HW3 2838   3.860   2.386   1.137  0.1905  0.2026  0.0158
  691SOL    MW4 2839   3.801   2.328   1.110  0.0579  0.2809  0.1334
  692SOL     OW 2840   3.576   2.464   1.196 -0.4401  0.1007  0.0882
  692SOL    HW2 2841   3.602   2.482   1.287  0.0018  1.6625 -0.3235
  692SOL    HW3 2842   3.650   2.417   1.159 -0.1372  0.4739  0.2162
  692SOL    MW4 2843   3.589   2.460   1.203 -0.3417  0.3560  0.0508
  693SOL     OW 2844   3.607   2.725   1.121  0.4238  0.5273 -0.1022
  693SOL    HW2 2845   3.588   2.632   1.134 -0.7788  0.7912  0.0839
  693SOL    HW3 2846   3.534   2.771   1.163  0.5678  1.5380 -0.9318
  693SOL    MW4 2847   3.594   2.719   1.128  0.2842  0.6957 -0.1870
  694SOL     OW 2848   4.287   2.804   1.173 -0.3665 -0.0292  0.2283
  694SOL    HW2 2849   4.204   2.758   1.159 -0.1455 -0.2132 -0.5056
  694SOL    HW3 2850   4.278   2.886   1.126 -0.1426 -0.0345  0.1744
  694SOL    MW4 2851   4.275   2.808   1.165 -0.3080 -0.0541  0.1245
  695SOL     OW 2852   4.019   3.220   1.224 -0.0988 -0.2896 -0.3987
  695SOL    HW2 2853   3.933   3.187   1.198 -1.1441  1.4001  0.8462
  695SOL    HW3 2854   4.024   3.307   1.185  0.5963  0.0582  0.4626
  695SOL    MW4 2855   4.008   3.227   1.215 -0.1445 -0.0210 -0.1208
  696SOL     OW 2856   3.594   3.184   1.248 -0.3643 -0.5672  0.1333
  696SOL    HW2 2857   3.606   3.276   1.222 -2.3898 -0.4672 -0.5064
  696SOL    HW3 2858   3.666   3.138   1.205  1.6824  0.9309  1.8139
  696SOL    MW4 2859   3.605   3.190   1.239 -0.3614 -0.3564  0.2706
  697SOL     OW 2860   3.825   3.585   1.168  0.3662 -0.0428  0.0159
  697SOL    HW2 2861   3.830   3.607   1.261 -1.0610 -0.6089  0.2394
  697SOL    HW3 2862   3.747   3.530   1.160  0.9381 -0.6867 -1.3845
  697SOL    MW4 2863   3.816   3.581   1.179  0.2532 -0.2024 -0.1394
  698SOL     OW 2864   2.716   4.000   0.537 -0.0346  0.3978 -0.1646
  698SOL    HW2 2865   2.707   4.013   0.631  1.4039  2.4766 -0.2899
  698SOL    HW3 2866   2.805   4.030   0.516  0.3580 -1.7912 -1.8987
  698SOL    MW4 2867   2.727   4.005   0.546  0.2069  0.3834 -0.4098
  699SOL     OW 2868   3.557   4.013   1.212  0.4313 -0.4135 -0.2294
  699SOL    HW2 2869   3.545   4.017   1.307 -1.7337 -0.0703 -0.4864
  699SOL    HW3 2870   3.480   3.967   1.180  1.4838 -1.1302 -1.7698
  699SOL    MW4 2871   3.545   4.008   1.220  0.2844 -0.4625 -0.4665
  700SOL     OW 2872   3.540   4.041   0.691  0.2355  0.0864 -0.1749
  700SOL    HW2 2873   3.601   3.984   0.737  0.0547  0.5174  0.6056
  700SOL    HW3 2874   3.541   4.122   0.742 -1.7395 -0.2413  0.4035
  700SOL    MW4 2875   3.548   4.044   0.704 -0.0491  0.1006  0.0045
  701SOL     OW 2876   3.546   4.277   1.123  0.3133 -0.0560  0.4455
  701SOL    HW2 2877   3.638   4.301   1.124  0.5865 -0.7139 -2.9429
  701SOL    HW3 2878   3.543   4.189   1.159  1.2315 -0.6134 -0.8101
  701SOL    MW4 2879   3.558   4.269   1.128  0.4706 -0.2160 -0.1674
  702SOL     OW 2880   3.804   4.359   1.175 -0.1484 -0.6839  0.2231
  702SOL    HW2 2881   3.805   4.346   1.269 -1.1890  0.8263  0.4529
  702SOL    HW3 2882   3.817   4.453   1.163 -0.4867 -0.7929 -1.1139
  702SOL    MW4 2883   3.806   4.370   1.186 -0.3304 -0.4988  0.0769
  703SOL     OW 2884   2.849   1.376   0.827 -0.5868 -0.3439 -0.4426
  703SOL    HW2 2885   2.883   1.298   0.783 -0.2522 -0.0620 -0.6834
  703SOL    HW3 2886   2.870   1.449   0.767 -0.3508  0.0063  0.0659
  703SOL    MW4 2887   2.856   1.375   0.813 -0.5114 -0.2604 -0.4072
  704SOL     OW 2888   4.055   0.104   1.201 -0.0683 -0.4048 -0.3510
  704SOL    HW2 2889   4.035   0.123   1.293  1.3017  1.4400 -0.3961
  704SOL    HW3 2890   3.978   0.058   1.168 -0.5480 -1.1366  1.7369
  704SOL    MW4 2891   4.042   0.100   1.209  0.0496 -0.2579 -0.0813
  705SOL     OW 2892   4.041   0.378   1.085 -0.1844 -0.0199  0.1370
  705SOL    HW2 2893   4.023   0.291   1.121  0.2389 -0.1513  0.0300
  705SOL    HW3 2894   4.065   0.362   0.994 -0.7128  0.2662 -0.0546
  705SOL    MW4 2895   4.042   0.364   1.078 -0.1979  0.0005  0.0975
  706SOL     OW 2896   4.286   0.490   1.218  0.1952 -0.1945 -0.2326
  706SOL    HW2 2897   4.285   0.522   1.309  0.1535  0.4218 -0.4448
  706SOL    HW3 2898   4.210   0.433   1.212  0.3347 -0.4308  0.1878
  706SOL    MW4 2899   4.276   0.487   1.229  0.2079 -0.1443 -0.2050
  707SOL     OW 2900   4.058   0.868   1.242 -0.0357 -0.0144 -0.7859
  707SOL    HW2 2901   4.052   0.962   1.222  2.9660  0.5751  0.7095
  707SOL    HW3 2902   4.042   0.863   1.336  0.2878 -0.9516 -0.7762
  707SOL    MW4 2903   4.055   0.880   1.252  0.4034 -0.0602 -0.5875
  708SOL     OW 2904   3.084   4.263   0.834  0.1202 -0.1119 -0.5406
  708SOL    HW2 2905   3.147   4.300   0.772 -1.2439  1.5306 -1.0012
  708SOL    HW3 2906   3.066   4.175   0.802  0.1517  0.3807 -1.9189
  708SOL    MW4 2907   3.090   4.257   0.822 -0.0558  0.1698 -0.7833
  709SOL     OW 2908   3.066   3.999   0.720 -0.3653 -0.0607 -0.1766
  709SOL    HW2 2909   3.014   3.942   0.776  0.2668  1.2551  1.7979
  709SOL    HW3 2910   3.156   3.985   0.749  0.1260 -0.4281 -1.8470
  709SOL    MW4 2911   3.071   3.990   0.731 -0.2170  0.0644 -0.1366
  710SOL     OW 2912   4.210   1.253   1.200 -0.1386  0.6268  0.5933
  710SOL    HW2 2913   4.223   1.262   1.294  1.2994 -2.0707  0.6911
  710SOL    HW3 2914   4.133   1.195   1.192 -0.4071  1.0451  0.1025
  710SOL    MW4 2915   4.201   1.246   1.211  0.0157  0.3262  0.5416
  711SOL     OW 2916   4.228   1.514   1.113 -0.4491 -1.1005 -0.0172
  711SOL    HW2 2917   4.229   1.428   1.155  1.2698 -1.2211 -0.2705
  711SOL    HW3 2918   4.251   1.496   1.021  0.6265 -0.3163  0.0853
  711SOL    MW4 2919   4.231   1.500   1.106 -0.0806 -1.0130 -0.0372
  712SOL     OW 2920   4.031   1.683   1.171 -0.0770  0.2304 -0.4695
  712SOL    HW2 2921   4.029   1.683   1.266  0.4555 -1.1711 -0.4485
  712SOL    HW3 2922   4.108   1.632   1.148 -0.2806  0.4373 -1.6511
  712SOL    MW4 2923   4.041   1.677   1.180 -0.0339  0.0728 -0.6226
  713SOL     OW 2924   4.087   1.947   1.092 -0.1241 -0.1147  0.2691
  713SOL    HW2 2925   4.068   1.854   1.107 -1.3489  0.2180  0.8501
  713SOL    HW3 2926   4.072   1.959   0.998  1.0173 -0.7116 -0.0081
  713SOL    MW4 2927   4.083   1.936   1.081 -0.1354 -0.1496  0.3092
  714SOL     OW 2928   4.282   2.099   1.204  0.3468  0.6284 -0.7654
  714SOL    HW2 2929   4.268   2.183   1.160 -0.0623  1.2863  0.6086
  714SOL    HW3 2930   4.215   2.042   1.168 -0.5056  1.3979 -0.4140
  714SOL    MW4 2931   4.272   2.103   1.193  0.1802  0.8168 -0.5378
  715SOL     OW 2932   0.851   3.409   0.434  0.1533  0.3103 -0.0763
  715SOL    HW2 2933   0.833   3.503   0.425  1.5605  0.3583 -2.6914
  715SOL    HW3 2934   0.945   3.401   0.420  0.0137 -1.5252  0.0026
  715SOL    MW4 2935   0.861   3.421   0.431  0.3206  0.0744 -0.4109
  716SOL     OW 2936   4.015   2.437   1.202 -0.6188 -0.2964  0.4845
  716SOL    HW2 2937   3.999   2.442   1.296  1.2254  0.0128  0.7856
  716SOL    HW3 2938   4.016   2.529   1.173  1.3681 -0.2746  0.6039
  716SOL    MW4 2939   4.013   2.450   1.210 -0.1135 -0.2527  0.5401
  717SOL     OW 2940   0.853   0.845   0.300  0.3462 -0.4208  0.5064
  717SOL    HW2 2941   0.824   0.760   0.334 -1.7070 -0.1217 -0.4006
  717SOL    HW3 2942   0.883   0.893   0.378 -1.5900 -0.7982  1.5281
  717SOL    MW4 2943   0.853   0.840   0.315 -0.1802 -0.4312  0.5215
  718SOL     OW 2944   0.058   2.690   1.076  0.3335  0.3484 -0.2095
  718SOL    HW2 2945  -0.030   2.722   1.096  0.5941  1.1680 -0.3401
  718SOL    HW3 2946   0.055   2.597   1.094 -0.3719  0.4969  0.4436
  718SOL    MW4 2947   0.046   2.682   1.081  0.2748  0.4761 -0.1404
  719SOL     OW 2948   0.152   2.886   0.881 -0.0370 -0.2831 -0.4271
  719SOL    HW2 2949   0.114   2.813   0.930 -0.7252 -0.0918 -0.6832
  719SOL    HW3 2950   0.150   2.959   0.943  0.6274 -0.4631 -0.1800
  719SOL    MW4 2951   0.147   2.886   0.896 -0.0401 -0.2813 -0.4283
  720SOL     OW 2952   3.799   3.093   1.110 -0.3091 -0.3651  0.0552
  720SOL    HW2 2953   3.824   3.006   1.140  1.8651  0.3504  0.4022
  720SOL    HW3 2954   3.803   3.088   1.015  2.5558  0.0992  0.1209
  720SOL    MW4 2955   3.803   3.081   1.101  0.3557 -0.2096  0.1096
  721SOL     OW 2956   4.281   3.635   1.212  0.3155 -0.2941 -0.1697
  721SOL    HW2 2957   4.362   3.595   1.181  0.2968 -1.4362  1.1994
  721SOL    HW3 2958   4.212   3.580   1.176  0.2547 -0.8687  0.7875
  721SOL    MW4 2959   4.283   3.622   1.203  0.3052 -0.5202  0.1371
  722SOL     OW 2960   4.486   3.496   1.094 -0.0716 -0.1948 -0.1932
  722SOL    HW2 2961   4.570   3.535   1.118  0.3358 -1.3628  0.3292
  722SOL    HW3 2962   4.486   3.411   1.138 -0.1313 -1.5789 -2.7716
  722SOL    MW4 2963   4.497   3.490   1.103 -0.0257 -0.5314 -0.4644
  723SOL     OW 2964   4.268   3.904   1.090  0.5556  0.6920  0.1056
  723SOL    HW2 2965   4.282   3.813   1.116  1.8995  0.9145  0.1988
  723SOL    HW3 2966   4.198   3.935   1.147  1.9220  0.5020  1.9114
  723SOL    MW4 2967   4.261   3.896   1.101  0.9131  0.6959  0.3561
  724SOL     OW 2968   4.027   3.971   1.233 -0.4343 -0.1745 -0.1314
  724SOL    HW2 2969   4.039   4.064   1.216  1.8257 -0.4098  0.0743
  724SOL    HW3 2970   3.946   3.949   1.187  0.1588  1.4251 -2.0160
  724SOL    MW4 2971   4.018   3.980   1.224 -0.0582  0.0057 -0.3529
  725SOL     OW 2972   4.030   4.221   1.123 -0.0176 -0.2474 -0.0380
  725SOL    HW2 2973   3.956   4.279   1.141  1.2184  1.3041  0.0673
  725SOL    HW3 2974   4.106   4.267   1.156  0.8734 -2.3946  0.9871
  725SOL    MW4 2975   4.030   4.234   1.129  0.2627 -0.3257  0.1111
  726SOL     OW 2976   4.232   4.392   1.191  0.4309  0.1412 -0.5823
  726SOL    HW2 2977   4.226   4.482   1.159  1.7574  0.0459 -1.1268
  726SOL    HW3 2978   4.322   4.366   1.173  0.7055 -0.5478  1.5896
  726SOL    MW4 2979   4.243   4.400   1.185  0.6423  0.0377 -0.3675
  727SOL     OW 2980   0.259   4.597   1.593  0.2368  0.0340 -0.0992
  727SOL    HW2 2981   0.338   4.629   1.550 -0.0010  0.4639 -0.2199
  727SOL    HW3 2982   0.187   4.644   1.550  0.0208  0.7064  0.9803
  727SOL    MW4 2983   0.260   4.608   1.582  0.1769  0.1793  0.0273
  728SOL     OW 2984   0.041   0.095   1.488  0.4719 -0.0672 -0.0082
  728SOL    HW2 2985  -0.040   0.063   1.526  1.1826  0.6225  2.1605
  728SOL    HW3 2986   0.021   0.107   1.395 -2.0893  0.6828  0.6054
  728SOL    MW4 2987   0.028   0.092   1.481  0.2278  0.1228  0.3589
  729SOL     OW 2988   0.039   0.374   1.554  0.3256 -0.2109 -0.1229
  729SOL    HW2 2989   0.046   0.367   1.649  0.8550 -1.6424 -0.2507
  729SOL    HW3 2990   0.039   0.283   1.523  0.2154  0.2380 -1.4972
  729SOL    MW4 2991   0.040   0.361   1.562  0.3809 -0.3405 -0.3210
  730SOL     OW 2992   0.226   0.535   1.442 -0.3037 -0.5083 -0.3643
  730SOL    HW2 2993   0.152   0.480   1.470  0.5079 -1.0487  0.7465
  730SOL    HW3 2994   0.238   0.513   1.349 -0.0547 -2.1451  0.0367
  730SOL    MW4 2995   0.218   0.525   1.433 -0.1637 -0.7955 -0.1649
  731SOL     OW 2996   0.241   0.802   1.560  0.3283  0.2667  0.0865
  731SOL    HW2 2997   0.322   0.842   1.530  0.9436 -0.4859  0.7312
  731SOL    HW3 2998   0.238   0.716   1.517 -0.3851  0.5050 -0.3476
  731SOL    MW4 2999   0.251   0.796   1.550  0.3154  0.1988  0.1142
  732SOL     OW 3000   0.000   0.891   1.438 -0.6689  0.0900 -0.3994
  732SOL    HW2 3001  -0.024   0.972   1.482 -0.6851  0.1892 -0.5887
  732SOL    HW3 3002   0.090   0.874   1.467 -0.2995  0.7155 -1.1328
  732SOL    MW4 3003   0.009   0.900   1.448 -0.6223  0.1855 -0.5211
  733SOL     OW 3004   4.461   1.114   1.594  0.0740 -0.0954  0.4685
  733SOL    HW2 3005   4.463   1.123   1.690  0.3264 -0.0868  0.4645
  733SOL    HW3 3006   4.532   1.171   1.564 -1.0715  1.1951  0.1703
  733SOL    MW4 3007   4.471   1.123   1.603 -0.0443  0.0762  0.4286
  734SOL     OW 3008   0.210   1.248   1.520 -0.3926  0.1571  0.0678
  734SOL    HW2 3009   0.198   1.340   1.546  0.2787 -0.5625  3.1387
  734SOL    HW3 3010   0.223   1.252   1.425  0.6878  3.3423  0.2643
  734SOL    MW4 3011   0.210   1.261   1.511 -0.1615  0.4824  0.4989
  735SOL     OW 3012   0.171   1.500   1.626 -0.2920  0.2677 -0.1184
  735SOL    HW2 3013   0.196   1.516   1.717  0.2484  2.0076 -0.5615
  735SOL    HW3 3014   0.094   1.555   1.611 -0.9000 -0.6587 -0.4719
  735SOL    MW4 3015   0.164   1.509   1.636 -0.3009  0.3750 -0.2235
  736SOL     OW 3016   4.448   1.664   1.515  0.0780 -0.4464  0.0994
  736SOL    HW2 3017   4.459   1.757   1.534  0.9027 -1.0436  2.6906
  736SOL    HW3 3018   4.450   1.659   1.419 -1.2195  2.3260 -0.1104
  736SOL    MW4 3019   4.450   1.675   1.505  0.0157 -0.1594  0.4134
  737SOL     OW 3020   4.474   1.934   1.582  0.2941 -0.5355 -0.3978
  737SOL    HW2 3021   4.486   1.953   1.675  1.0538  0.1241 -0.6267
  737SOL    HW3 3022   4.383   1.958   1.564  0.5479  0.6482 -0.1414
  737SOL    MW4 3023   4.464   1.939   1.592  0.4277 -0.2922 -0.3942
  738SOL     OW 3024   0.249   2.011   1.483 -0.3696  0.0871  0.3273
  738SOL    HW2 3025   0.161   1.987   1.510  0.1928 -1.8895  0.4629
  738SOL    HW3 3026   0.251   1.992   1.389  0.7416 -2.5968  0.8327
  738SOL    MW4 3027   0.238   2.005   1.474 -0.1488 -0.5279  0.4119
  739SOL     OW 3028   0.231   2.273   1.539 -0.0848 -0.0502  0.0100
  739SOL    HW2 3029   0.233   2.263   1.634 -0.8026  0.4759  0.0893
  739SOL    HW3 3030   0.236   2.184   1.505 -0.0297 -0.2513  0.5507
  739SOL    MW4 3031   0.232   2.260   1.547 -0.1723 -0.0074  0.0919
  740SOL     OW 3032   0.003   2.399   1.422  0.2353 -0.7131  0.1251
  740SOL    HW2 3033  -0.067   2.369   1.480  0.3864 -1.6529 -0.1695
  740SOL    HW3 3034   0.082   2.358   1.457  0.9442  1.8592  1.5853
  740SOL    MW4 3035   0.004   2.389   1.434  0.3488 -0.4976  0.2788
  741SOL     OW 3036   4.488   2.644   1.549  0.3916 -0.1937  0.1882
  741SOL    HW2 3037   4.413   2.695   1.519  0.4363 -0.3072 -0.1202
  741SOL    HW3 3038   4.472   2.556   1.517 -1.1107 -1.0887  3.1907
  741SOL    MW4 3039   4.476   2.639   1.541  0.1993 -0.3266  0.5436
  742SOL     OW 3040   0.230   2.811   1.473  0.2136 -0.1619  0.0083
  742SOL    HW2 3041   0.304   2.770   1.518 -0.0341 -1.9116 -1.1626
  742SOL    HW3 3042   0.154   2.761   1.502 -0.5117  1.4961  1.0402
  742SOL    MW4 3043   0.230   2.799   1.483  0.0852 -0.1743 -0.0101
  743SOL     OW 3044   0.208   3.058   1.590  0.4202  0.0297  0.3923
  743SOL    HW2 3045   0.138   3.101   1.541  0.7825  0.7388  0.4834
  743SOL    HW3 3046   0.225   2.977   1.542 -0.3933 -0.0979  0.3177
  743SOL    MW4 3047   0.201   3.053   1.577  0.3607  0.1068  0.3946
  744SOL     OW 3048   0.006   3.218   1.467  0.0608 -0.1248 -0.2533
  744SOL    HW2 3049  -0.003   3.307   1.501 -0.5422  0.0223 -0.7958
  744SOL    HW3 3050  -0.056   3.166   1.519  1.8668 -0.6225  1.4496
  744SOL    MW4 3051  -0.003   3.223   1.478  0.2198 -0.1712 -0.1001
  745SOL     OW 3052   4.488   3.479   1.597  0.3213  0.2960 -0.1288
  745SOL    HW2 3053   4.412   3.528   1.563  1.2680  1.3064 -0.8135
  745SOL    HW3 3054   4.470   3.470   1.691 -2.1262 -2.1461 -0.7761
  745SOL    MW4 3055   4.475   3.485   1.605  0.1230  0.1073 -0.3046
  746SOL     OW 3056   0.232   3.584   1.504 -0.1792 -0.2382 -0.2104
  746SOL    HW2 3057   0.232   3.673   1.540  0.7612 -0.1818 -0.3570
  746SOL    HW3 3058   0.146   3.550   1.529 -0.4591  0.6261  0.0526
  746SOL    MW4 3059   0.221   3.592   1.512 -0.0921 -0.1163 -0.1950
  747SOL     OW 3060   0.172   3.850   1.607  0.1219  0.1458  0.1190
  747SOL    HW2 3061   0.172   3.859   1.702  0.5503  0.3859  0.0948
  747SOL    HW3 3062   0.255   3.886   1.579 -0.5946  1.3556 -0.4735
  747SOL    MW4 3063   0.183   3.856   1.616  0.0839  0.3371  0.0377
  748SOL     OW 3064   0.001   4.010   1.462 -0.2811  0.3481  0.3331
  748SOL    HW2 3065  -0.017   4.082   1.524  0.4028  0.1226  0.7983
  748SOL    HW3 3066   0.079   3.968   1.497  0.1015  0.2082 -0.6875
  748SOL    MW4 3067   0.009   4.014   1.475 -0.1407  0.2995  0.2599
  749SOL     OW 3068   4.465   4.276   1.571  0.3770 -0.5203  0.1497
  749SOL    HW2 3069   4.474   4.283   1.666  1.7430  0.0992 -0.0039
  749SOL    HW3 3070   4.385   4.326   1.551  0.2898 -0.3349  0.9323
  749SOL    MW4 3071   4.456   4.284   1.581  0.5460 -0.4139  0.2327
  750SOL     OW 3072   0.230   4.356   1.476 -0.6608 -0.1046  0.1514
  750SOL    HW2 3073   0.148   4.322   1.512 -0.9846  0.6293  0.1152
  750SOL    HW3 3074   0.251   4.432   1.530 -0.2803  0.0250 -0.1726
  750SOL    MW4 3075   0.222   4.362   1.488 -0.6533  0.0095  0.1038
  751SOL     OW 3076   0.660   4.652   1.597 -0.1407 -0.2093  0.5038
  751SOL    HW2 3077   0.730   4.707   1.562  0.8055 -1.6850  0.0294
  751SOL    HW3 3078   0.579   4.694   1.567  0.5888  0.2937 -0.7978
  751SOL    MW4 3079   0.659   4.665   1.589  0.0804 -0.3376  0.2694
  752SOL     OW 3080   0.444   0.091   1.462 -0.1766 -0.4394 -0.1937
  752SOL    HW2 3081   0.434   0.178   1.501  1.5143 -0.2643 -0.1103
  752SOL    HW3 3082   0.409   0.100   1.374 -2.5934 -0.4207  0.7350
  752SOL    MW4 3083   0.438   0.104   1.456 -0.2724 -0.4138 -0.0602
  753SOL     OW 3084   0.425   0.367   1.574 -0.0563 -0.3548  0.2480
  753SOL    HW2 3085   0.504   0.403   1.536 -1.2269  0.1367 -1.7821
  753SOL    HW3 3086   0.353   0.415   1.533 -1.4836 -2.1469  0.5322
  753SOL    MW4 3087   0.426   0.378   1.564 -0.3991 -0.5264  0.0175
  754SOL     OW 3088   0.645   0.531   1.493  0.0781 -0.5942 -0.0635
  754SOL    HW2 3089   0.619   0.612   1.539 -0.2726 -0.0195 -1.2436
  754SOL    HW3 3090   0.631   0.551   1.400 -0.0851 -2.0488 -0.3611
  754SOL    MW4 3091   0.639   0.545   1.487  0.0103 -0.7103 -0.2584
  755SOL     OW 3092   0.642   0.792   1.579 -0.4490  0.1572  0.0260
  755SOL    HW2 3093   0.649   0.802   1.674  0.0328 -0.1787  0.0293
  755SOL    HW3 3094   0.730   0.812   1.547 -0.0018 -2.0306 -0.1459
  755SOL    MW4 3095   0.655   0.796   1.587 -0.3265 -0.1758  0.0037
  756SOL     OW 3096   0.457   0.955   1.469  0.0276  0.4849 -0.1513
  756SOL    HW2 3097   0.460   1.034   1.522  2.4571  0.8799 -0.8250
  756SOL    HW3 3098   0.533   0.904   1.496  0.4426 -0.0072 -2.1231
  756SOL    MW4 3099   0.467   0.958   1.479  0.4029  0.4721 -0.5003
  757SOL     OW 3100   0.448   1.170   1.627  0.0395  0.1996 -0.0312
  757SOL    HW2 3101   0.520   1.202   1.572 -0.0669  0.4258 -0.0404
  757SOL    HW3 3102   0.369   1.196   1.580 -0.0506 -0.6287 -0.3533
  757SOL    MW4 3103   0.447   1.178   1.614  0.0136  0.1203 -0.0750
  758SOL     OW 3104   0.640   1.280   1.476 -0.4155 -0.0941 -0.0472
  758SOL    HW2 3105   0.641   1.367   1.516 -0.3523 -0.2373  0.2606
  758SOL    HW3 3106   0.654   1.297   1.383  2.1434  0.0483  0.3221
  758SOL    MW4 3107   0.642   1.294   1.469 -0.0696 -0.0944  0.0422
  759SOL     OW 3108   0.676   1.555   1.582  0.5142 -0.3572 -0.0375
  759SOL    HW2 3109   0.738   1.626   1.563  0.0571 -0.2970 -1.3363
  759SOL    HW3 3110   0.591   1.591   1.560  0.2118 -1.1000 -0.0912
  759SOL    MW4 3111   0.673   1.569   1.577  0.4140 -0.4473 -0.2161
  760SOL     OW 3112   0.413   1.629   1.542  0.1483 -0.2031  0.1227
  760SOL    HW2 3113   0.407   1.702   1.604 -0.4633  1.7531 -2.1571
  760SOL    HW3 3114   0.327   1.587   1.545  0.0292  0.0630  0.4340
  760SOL    MW4 3115   0.401   1.633   1.550  0.0519  0.0900 -0.1370
  761SOL     OW 3116   0.477   1.890   1.635  0.2225  0.2008 -0.0483
  761SOL    HW2 3117   0.468   1.901   1.729 -1.3194  0.2697 -0.1993
  761SOL    HW3 3118   0.405   1.940   1.597  0.7308  0.0467 -1.2629
  761SOL    MW4 3119   0.467   1.898   1.642  0.0861  0.1895 -0.2285
  762SOL     OW 3120   0.704   2.044   1.530  0.3508 -0.6956  0.0374
  762SOL    HW2 3121   0.791   2.017   1.560  1.0458  0.4985 -0.8446
  762SOL    HW3 3122   0.644   1.983   1.573  1.4179 -0.0344  2.5962
  762SOL    MW4 3123   0.708   2.032   1.540  0.5834 -0.4508  0.2587
  763SOL     OW 3124   0.693   2.328   1.591 -0.0811 -0.4226 -0.3771
  763SOL    HW2 3125   0.618   2.354   1.537 -1.3109  0.7315  1.8381
  763SOL    HW3 3126   0.707   2.236   1.568 -1.6372 -0.4255 -1.4342
  763SOL    MW4 3127   0.685   2.319   1.581 -0.4486 -0.2706 -0.2242
  764SOL     OW 3128   0.444   2.442   1.482 -0.0243  0.1951  0.2342
  764SOL    HW2 3129   0.432   2.530   1.517 -0.6207  0.2300 -0.0410
  764SOL    HW3 3130   0.368   2.393   1.514 -0.7077  0.2924 -1.1741
  764SOL    MW4 3131   0.432   2.447   1.490 -0.1932  0.2127  0.0123
  765SOL     OW 3132   0.472   2.694   1.587  0.0596  0.1707  0.3603
  765SOL    HW2 3133   0.473   2.693   1.683  0.9045  0.0623  0.3548
  765SOL    HW3 3134   0.552   2.741   1.562  0.2712 -0.5173 -0.2929
  765SOL    MW4 3135   0.483   2.700   1.596  0.1990  0.0656  0.2735
  766SOL     OW 3136   0.698   2.837   1.518  0.0813 -0.4428  0.1760
  766SOL    HW2 3137   0.699   2.929   1.544  0.3114 -0.4560  0.2126
  766SOL    HW3 3138   0.701   2.839   1.422  0.7924 -0.4262  0.1975
  766SOL    MW4 3139   0.699   2.849   1.509  0.2055 -0.4423  0.1838
  767SOL     OW 3140   0.667   3.095   1.572 -0.1330 -0.3154 -0.5190
  767SOL    HW2 3141   0.730   3.155   1.532  0.5293 -1.3207 -1.0049
  767SOL    HW3 3142   0.581   3.125   1.541 -0.1575  2.6198  2.1556
  767SOL    MW4 3143   0.664   3.107   1.562 -0.0488 -0.0610 -0.2302
  768SOL     OW 3144   0.426   3.189   1.459  0.6665  0.0585  0.5209
  768SOL    HW2 3145   0.345   3.147   1.485  1.4220 -1.6597  0.1604
  768SOL    HW3 3146   0.435   3.263   1.519 -0.4695 -0.5411  1.4436
  768SOL    MW4 3147   0.417   3.193   1.470  0.6162 -0.2472  0.5951
  769SOL     OW 3148   0.466   3.442   1.589 -0.1164  0.0404  0.1510
  769SOL    HW2 3149   0.464   3.444   1.684 -0.1087  0.3184  0.1433
  769SOL    HW3 3150   0.387   3.488   1.562  1.1653  2.1865 -0.0171
  769SOL    MW4 3151   0.455   3.448   1.598  0.0537  0.3605  0.1277
  770SOL     OW 3152   0.686   3.604   1.524  0.0209  0.2591 -0.1265
  770SOL    HW2 3153   0.768   3.558   1.540  0.2089  0.3186 -0.8755
  770SOL    HW3 3154   0.618   3.538   1.538  0.1729  0.3179  0.8987
  770SOL    MW4 3155   0.687   3.589   1.528  0.0657  0.2744 -0.0899
  771SOL     OW 3156   0.654   3.857   1.618 -0.5000 -0.0924  0.3234
  771SOL    HW2 3157   0.734   3.898   1.587  0.5080 -1.1446  1.4552
  771SOL    HW3 3158   0.650   3.773   1.572 -0.5111 -0.3976  0.8694
  771SOL    MW4 3159   0.664   3.851   1.608 -0.3685 -0.2716  0.5448
  772SOL     OW 3160   0.422   3.981   1.546 -0.0888  0.3993 -0.3158
  772SOL    HW2 3161   0.488   3.925   1.586  0.2633  1.8555  1.2058
  772SOL    HW3 3162   0.435   3.969   1.452  1.4220 -0.4109 -0.0274
  772SOL    MW4 3163   0.433   3.972   1.539  0.1570  0.4847 -0.0769
  773SOL     OW 3164   0.434   4.242   1.635 -0.0777 -0.2236 -0.1856
  773SOL    HW2 3165   0.439   4.149   1.610  1.2240 -0.3431  0.4858
  773SOL    HW3 3166   0.374   4.280   1.571 -1.0543 -1.6401 -0.1393
  773SOL    MW4 3167   0.427   4.235   1.623 -0.0348 -0.4258 -0.0910
  774SOL     OW 3168   0.662   4.371   1.557  0.6293  0.4144 -0.5205
  774SOL    HW2 3169   0.585   4.329   1.596  1.5754 -1.7586 -0.9084
  774SOL    HW3 3170   0.655   4.463   1.582 -2.0825  0.2503 -0.5453
  774SOL    MW4 3171   0.651   4.378   1.565  0.3963  0.1059 -0.5751
  775SOL     OW 3172   1.084   4.640   1.555  0.3034  0.0368  0.8276
  775SOL    HW2 3173   1.071   4.630   1.649  2.2797 -1.7578  0.9456
  775SOL    HW3 3174   1.175   4.667   1.546  0.3760 -0.6565 -0.6195
  775SOL    MW4 3175   1.094   4.643   1.566  0.5739 -0.2914  0.6523
  776SOL     OW 3176   0.880   0.159   1.491 -0.0591  0.1761  0.1943
  776SOL    HW2 3177   0.886   0.242   1.538  0.3098 -0.5914  1.5225
  776SOL    HW3 3178   0.960   0.111   1.515  0.1950 -0.2001 -1.2954
  776SOL    MW4 3179   0.892   0.163   1.500  0.0232  0.0252  0.1731
  777SOL     OW 3180   0.890   0.413   1.599 -0.2096  0.3310  0.0020
  777SOL    HW2 3181   0.860   0.397   1.688 -0.5271  0.5281 -0.0676
  777SOL    HW3 3182   0.814   0.451   1.555  0.0270  0.4778 -0.2806
  777SOL    MW4 3183   0.876   0.416   1.605 -0.2204  0.3764 -0.0446
  778SOL     OW 3184   1.115   0.521   1.489  0.2687 -0.2233 -0.3785
  778SOL    HW2 3185   1.109   0.607   1.529 -0.1088  0.6996 -2.3667
  778SOL    HW3 3186   1.038   0.474   1.521  0.8724 -0.1027  1.3084
  778SOL    MW4 3187   1.104   0.526   1.498  0.2985 -0.0857 -0.4183
  779SOL     OW 3188   1.091   0.775   1.606 -0.0931  0.4183  0.5306
  779SOL    HW2 3189   1.104   0.778   1.701  0.1352 -1.3654  0.5722
  779SOL    HW3 3190   1.170   0.815   1.569 -0.4267  1.6124  1.1019
  779SOL    MW4 3191   1.103   0.780   1.614 -0.1069  0.3405  0.6114
  780SOL     OW 3192   0.876   0.888   1.472 -0.1218 -0.2555 -0.0531
  780SOL    HW2 3193   0.955   0.856   1.515 -0.8777 -0.5602  1.1049
  780SOL    HW3 3194   0.884   0.857   1.382  1.4046  0.2893 -0.1268
  780SOL    MW4 3195   0.888   0.880   1.466 -0.0201 -0.2239  0.0899
  781SOL     OW 3196   0.852   1.140   1.590  0.0722 -0.4675  0.2460
  781SOL    HW2 3197   0.847   1.049   1.560  0.1182  0.1711 -1.7653
  781SOL    HW3 3198   0.781   1.185   1.544  1.3016  0.9407 -0.3156
  781SOL    MW4 3199   0.842   1.134   1.580  0.2405 -0.1973 -0.0935
  782SOL     OW 3200   1.085   1.290   1.479 -0.4862 -0.4642 -0.2129
  782SOL    HW2 3201   1.149   1.228   1.514 -0.4595  0.0310  0.6453
  782SOL    HW3 3202   1.002   1.244   1.483 -0.4809 -0.4180  0.5025
  782SOL    MW4 3203   1.083   1.276   1.484 -0.4821 -0.3928 -0.0054
  783SOL     OW 3204   1.084   1.554   1.606 -0.1106  0.6243 -0.1100
  783SOL    HW2 3205   1.167   1.602   1.594  1.0686 -1.4523 -0.4607
  783SOL    HW3 3206   1.090   1.481   1.544 -2.8789  1.2669 -1.2034
  783SOL    MW4 3207   1.096   1.551   1.596 -0.3202  0.4352 -0.3005
  784SOL     OW 3208   0.883   1.731   1.546 -0.4250 -0.5485  0.3702
  784SOL    HW2 3209   0.947   1.673   1.589  0.2302 -0.4253 -0.4173
  784SOL    HW3 3210   0.893   1.712   1.453 -0.7431  0.2879  0.1622
  784SOL    MW4 3211   0.893   1.721   1.539 -0.3806 -0.4219  0.2389
  785SOL     OW 3212   0.966   1.974   1.610 -0.0516  0.1375  0.0255
  785SOL    HW2 3213   1.044   1.982   1.555  1.9634 -1.9715  2.3932
  785SOL    HW3 3214   0.930   1.888   1.588  0.4232 -0.4615  1.4952
  785SOL    MW4 3215   0.972   1.963   1.600  0.2769 -0.2198  0.5318
  786SOL     OW 3216   1.174   2.108   1.473 -0.0018 -0.3289  0.2761
  786SOL    HW2 3217   1.230   2.055   1.529 -0.0213  0.3311  0.9210
  786SOL    HW3 3218   1.160   2.189   1.522  2.7968  1.7059 -2.0946
  786SOL    MW4 3219   1.179   2.112   1.487  0.3648  0.0267  0.0484
  787SOL     OW 3220   1.159   2.352   1.586 -0.3575 -0.1560 -0.3774
  787SOL    HW2 3221   1.228   2.405   1.545 -0.5968  0.3846 -0.1013
  787SOL    HW3 3222   1.078   2.385   1.548 -0.5459  0.0331  0.1813
  787SOL    MW4 3223   1.158   2.364   1.576 -0.4140 -0.0596 -0.2673
  788SOL     OW 3224   0.918   2.445   1.492  0.3619  0.0223 -0.1451
  788SOL    HW2 3225   0.930   2.531   1.533  1.6724 -0.7974  1.2525
  788SOL    HW3 3226   0.837   2.411   1.531  0.4756  0.1380  0.1970
  788SOL    MW4 3227   0.909   2.452   1.503  0.5498 -0.0706  0.0844
  789SOL     OW 3228   0.948   2.708   1.597  0.3348  0.4194  0.1348
  789SOL    HW2 3229   0.952   2.684   1.689  0.9372  1.7686  0.4691
  789SOL    HW3 3230   0.868   2.761   1.590  0.8334  1.1859  0.1074
  789SOL    MW4 3231   0.938   2.712   1.608  0.4801  0.6986  0.1752
  790SOL     OW 3232   1.123   2.841   1.434  0.0581  0.3998  0.4532
  790SOL    HW2 3233   1.097   2.929   1.460  1.9806  1.0233  0.3424
  790SOL    HW3 3234   1.074   2.783   1.492 -3.0375  1.4185 -1.0016
  790SOL    MW4 3235   1.113   2.845   1.445 -0.0967  0.6166  0.2468
  791SOL     OW 3236   1.094   3.084   1.565 -0.3116  0.5138 -0.1387
  791SOL    HW2 3237   1.093   3.085   1.661  2.2102 -1.1278 -0.0695
  791SOL    HW3 3238   1.171   3.135   1.541  0.2336 -0.8109 -1.2454
  791SOL    MW4 3239   1.104   3.091   1.575  0.0931  0.1225 -0.2755
  792SOL     OW 3240   0.887   3.222   1.462 -0.0129 -0.1169 -0.4541
  792SOL    HW2 3241   0.944   3.161   1.510 -0.5204  0.4891  0.9299
  792SOL    HW3 3242   0.898   3.197   1.370  2.7175  0.1770 -0.2467
  792SOL    MW4 3243   0.896   3.211   1.456  0.2804  0.0021 -0.2440
  793SOL     OW 3244   0.910   3.464   1.580 -0.0242 -0.0526 -0.1831
  793SOL    HW2 3245   0.979   3.503   1.525 -2.2696  0.2043 -2.9502
  793SOL    HW3 3246   0.892   3.380   1.539  0.4891 -1.3112  2.1206
  793SOL    MW4 3247   0.917   3.458   1.567 -0.2527 -0.1848 -0.2444
  794SOL     OW 3248   1.129   3.612   1.470 -0.1722  0.0457 -0.3282
  794SOL    HW2 3249   1.200   3.550   1.486  0.4058  0.5373 -0.9814
  794SOL    HW3 3250   1.130   3.626   1.376 -0.8028  0.4666 -0.2764
  794SOL    MW4 3251   1.138   3.605   1.460 -0.1793  0.1662 -0.4076
  795SOL     OW 3252   1.120   3.871   1.572 -0.0748  0.5082 -0.1072
  795SOL    HW2 3253   1.205   3.911   1.554  0.4757 -0.0166  1.2598
  795SOL    HW3 3254   1.130   3.780   1.543 -0.3137  0.5568 -0.3435
  795SOL    MW4 3255   1.133   3.864   1.565 -0.0339  0.4454  0.0420
  796SOL     OW 3256   0.873   3.976   1.507 -0.4102  0.0289 -0.4711
  796SOL    HW2 3257   0.884   4.067   1.535 -1.4879 -0.3894  1.3573
  796SOL    HW3 3258   0.956   3.934   1.530 -0.9678 -0.1095  1.3525
  796SOL    MW4 3259   0.885   3.983   1.513 -0.6260 -0.0443  0.0107
  797SOL     OW 3260   0.911   4.244   1.598 -0.2132  0.2286 -0.4203
  797SOL    HW2 3261   0.920   4.231   1.693  0.7318  2.5258 -0.1567
  797SOL    HW3 3262   0.831   4.296   1.589 -0.1862  0.1882 -0.8544
  797SOL    MW4 3263   0.902   4.250   1.610 -0.0850  0.5264 -0.4427
  798SOL     OW 3264   1.104   4.392   1.441 -0.1013 -0.4186 -0.2717
  798SOL    HW2 3265   1.051   4.349   1.508 -0.5358  0.0700 -0.2971
  798SOL    HW3 3266   1.097   4.485   1.461  0.5226 -0.3288 -0.4451
  798SOL    MW4 3267   1.096   4.398   1.453 -0.0764 -0.3419 -0.2979
  799SOL     OW 3268   1.566   4.657   1.586 -0.0645  0.3518  0.0681
  799SOL    HW2 3269   1.555   4.633   1.678 -1.2562 -0.5241 -0.2951
  799SOL    HW3 3270   1.485   4.701   1.562 -1.1392 -2.3127 -1.4296
  799SOL    MW4 3271   1.554   4.660   1.595 -0.3636 -0.1154 -0.1776
  800SOL     OW 3272   1.323   0.092   1.510  0.0080 -0.6840 -0.6050
  800SOL    HW2 3273   1.313   0.180   1.546 -0.3969 -1.4300  1.1534
  800SOL    HW3 3274   1.311   0.103   1.416  0.1421  1.1646 -0.4267
  800SOL    MW4 3275   1.320   0.105   1.502 -0.0278 -0.5385 -0.3495
  801SOL     OW 3276   1.345   0.369   1.572 -0.3147 -0.1560  0.5089
  801SOL    HW2 3277   1.427   0.409   1.541  0.0516 -0.3287  1.2642
  801SOL    HW3 3278   1.277   0.424   1.533  0.0955 -1.3578 -2.0080
  801SOL    MW4 3279   1.347   0.382   1.563 -0.2122 -0.3374  0.2764
  802SOL     OW 3280   1.596   0.487   1.481  0.3306  0.0456 -0.0658
  802SOL    HW2 3281   1.666   0.442   1.529 -0.6096 -0.8953  0.4515
  802SOL    HW3 3282   1.615   0.470   1.389 -0.2164 -1.7657  0.1306
  802SOL    MW4 3283   1.608   0.479   1.475  0.1345 -0.3175  0.0284
  803SOL     OW 3284   1.566   0.750   1.580 -0.2820 -0.1091  0.2404
  803SOL    HW2 3285   1.565   0.739   1.675 -1.8732  1.6908  0.4670
  803SOL    HW3 3286   1.585   0.663   1.546  0.6314 -0.7099  2.2030
  803SOL    MW4 3287   1.568   0.737   1.588 -0.3715  0.0491  0.5292
  804SOL     OW 3288   1.333   0.871   1.496 -0.1303 -0.3189  0.1353
  804SOL    HW2 3289   1.419   0.837   1.524  0.4174 -0.7564 -1.9423
  804SOL    HW3 3290   1.340   0.874   1.401 -1.9670  0.9530  0.0373
  804SOL    MW4 3291   1.346   0.867   1.487 -0.3003 -0.2088 -0.1518
  805SOL     OW 3292   1.317   1.140   1.555 -0.0189  0.3024 -0.3447
  805SOL    HW2 3293   1.342   1.151   1.646  1.0203  0.8341 -0.6858
  805SOL    HW3 3294   1.327   1.046   1.539 -1.0545  0.0714  0.3234
  805SOL    MW4 3295   1.322   1.129   1.565 -0.0184  0.3421 -0.3016
  806SOL     OW 3296   1.567   1.280   1.516  0.0798 -0.0357  0.1120
  806SOL    HW2 3297   1.476   1.254   1.531 -0.0920  0.6561  0.2693
  806SOL    HW3 3298   1.574   1.286   1.420 -0.3370  0.9390  0.1310
  806SOL    MW4 3299   1.556   1.278   1.505  0.0021  0.1842  0.1353
  807SOL     OW 3300   1.521   1.525   1.619 -0.3178 -0.1906 -0.1994
  807SOL    HW2 3301   1.541   1.510   1.711  0.8176 -0.4798 -0.4871
  807SOL    HW3 3302   1.542   1.442   1.576  1.5380  0.7125 -1.0903
  807SOL    MW4 3303   1.526   1.512   1.625  0.0770 -0.1097 -0.3549
  808SOL     OW 3304   1.309   1.696   1.530  0.0104  0.3362 -0.2660
  808SOL    HW2 3305   1.387   1.643   1.542 -0.1278  0.4461  1.0961
  808SOL    HW3 3306   1.304   1.709   1.435  2.0067  0.8781 -0.3239
  808SOL    MW4 3307   1.318   1.691   1.519  0.2555  0.4222 -0.0938
  809SOL     OW 3308   1.352   1.965   1.628 -0.2038 -0.2479 -0.1325
  809SOL    HW2 3309   1.356   1.967   1.724 -1.3043  0.7473 -0.0973
  809SOL    HW3 3310   1.350   1.872   1.606  0.5400 -0.4907  0.7899
  809SOL    MW4 3311   1.352   1.953   1.638 -0.2508 -0.1487 -0.0061
  810SOL     OW 3312   1.596   2.093   1.539  0.6449  0.3260  0.0710
  810SOL    HW2 3313   1.596   2.062   1.449 -0.8292  1.0810 -0.2070
  810SOL    HW3 3314   1.509   2.072   1.572  0.7112  1.2945  0.8901
  810SOL    MW4 3315   1.585   2.086   1.532  0.4592  0.5534  0.1423
  811SOL     OW 3316   1.608   2.364   1.567 -1.1307  0.2152 -0.3721
  811SOL    HW2 3317   1.683   2.411   1.530 -0.3839  0.2303  1.1290
  811SOL    HW3 3318   1.619   2.274   1.537 -0.4310  0.1915 -0.0636
  811SOL    MW4 3319   1.620   2.359   1.558 -0.9400  0.2143 -0.1334
  812SOL     OW 3320   1.364   2.482   1.469  0.3559  0.5302 -0.3108
  812SOL    HW2 3321   1.362   2.577   1.485  2.0691  0.6254 -0.5660
  812SOL    HW3 3322   1.446   2.453   1.508  0.3975 -0.6668 -1.2538
  812SOL    MW4 3323   1.374   2.491   1.476  0.5875  0.3848 -0.4691
  813SOL     OW 3324   1.358   2.734   1.570  0.0148 -0.2994 -0.3733
  813SOL    HW2 3325   1.435   2.779   1.537 -0.9361  0.4522 -1.6184
  813SOL    HW3 3326   1.285   2.776   1.524 -1.2182 -0.2486  1.6023
  813SOL    MW4 3327   1.358   2.746   1.560 -0.2733 -0.1934 -0.2769
  814SOL     OW 3328   1.595   2.824   1.475 -0.5515 -0.2129  0.5515
  814SOL    HW2 3329   1.672   2.774   1.503  1.5107  2.0995 -0.8161
  814SOL    HW3 3330   1.611   2.843   1.383 -2.8876  0.1199  0.1950
  814SOL    MW4 3331   1.608   2.820   1.467 -0.5877  0.1361  0.3240
  815SOL     OW 3332   1.557   3.062   1.596 -0.1006 -0.1859  0.2029
  815SOL    HW2 3333   1.627   3.121   1.569 -0.9551  0.3840 -0.7984
  815SOL    HW3 3334   1.579   2.978   1.556 -0.5518  0.2687 -1.0177
  815SOL    MW4 3335   1.569   3.059   1.587 -0.2729 -0.0505 -0.0902
  816SOL     OW 3336   1.337   3.179   1.465 -0.3699 -0.4918  0.4240
  816SOL    HW2 3337   1.343   3.270   1.493 -1.1494  0.5643 -2.7090
  816SOL    HW3 3338   1.408   3.135   1.511  0.9024  1.9719  0.8889
  816SOL    MW4 3339   1.347   3.185   1.475 -0.3048 -0.0274  0.0721
  817SOL     OW 3340   1.347   3.463   1.524 -0.0843  0.1429 -0.1346
  817SOL    HW2 3341   1.364   3.469   1.619 -0.2165  0.3327 -0.1238
  817SOL    HW3 3342   1.419   3.513   1.485  0.6294 -0.9027 -0.1894
  817SOL    MW4 3343   1.359   3.470   1.532 -0.0076  0.0298 -0.1405
  818SOL     OW 3344   1.582   3.624   1.453  0.7108 -0.3179 -0.0935
  818SOL    HW2 3345   1.582   3.712   1.490  0.5256 -0.9684  1.5016
  818SOL    HW3 3346   1.587   3.638   1.359  0.6428  1.3993  0.1331
  818SOL    MW4 3347   1.583   3.637   1.446  0.6773 -0.1771  0.1470
  819SOL     OW 3348   1.561   3.878   1.556 -0.7695 -0.5857  0.3024
  819SOL    HW2 3349   1.571   3.895   1.650  0.2774  1.1631 -0.0944
  819SOL    HW3 3350   1.482   3.925   1.532  0.1748  0.8423 -0.0992
  819SOL    MW4 3351   1.552   3.887   1.565 -0.5068 -0.1664  0.1971
  820SOL     OW 3352   1.343   4.037   1.475  0.0574 -0.0830  0.2768
  820SOL    HW2 3353   1.320   4.127   1.501  0.5111  0.2175 -0.3418
  820SOL    HW3 3354   1.347   4.040   1.379  1.2669 -0.4614  0.3004
  820SOL    MW4 3355   1.341   4.050   1.466  0.2769 -0.0930  0.1984
  821SOL     OW 3356   1.307   4.291   1.612  0.5453 -0.4893  0.5214
  821SOL    HW2 3357   1.389   4.313   1.569  0.4594 -0.5807  0.3040
  821SOL    HW3 3358   1.241   4.343   1.565  0.6344  0.5262  1.5073
  821SOL    MW4 3359   1.309   4.301   1.600  0.5457 -0.3672  0.6229
  822SOL     OW 3360   1.593   4.366   1.500 -0.5379  0.1766 -0.2351
  822SOL    HW2 3361   1.677   4.338   1.538 -0.4094  0.0109 -0.6475
  822SOL    HW3 3362   1.575   4.450   1.542  0.5527  0.9095 -1.2116
  822SOL    MW4 3363   1.602   4.373   1.511 -0.3771  0.2513 -0.4185
  823SOL     OW 3364   2.047   4.635   1.591  0.3184 -0.6858 -0.1168
  823SOL    HW2 3365   2.037   4.636   1.686  1.4397 -0.5422  0.0055
  823SOL    HW3 3366   1.969   4.680   1.558  0.3291 -0.0172  0.7681
  823SOL    MW4 3367   2.036   4.641   1.599  0.4675 -0.5789  0.0160
  824SOL     OW 3368   1.805   0.112   1.493 -0.5274  0.0085 -0.2115
  824SOL    HW2 3369   1.728   0.063   1.522 -0.9776  0.8295  0.0039
  824SOL    HW3 3370   1.800   0.111   1.398 -0.7687 -0.0069 -0.2001
  824SOL    MW4 3371   1.794   0.106   1.484 -0.6187  0.1148 -0.1814
  825SOL     OW 3372   1.787   0.344   1.639  0.0022 -0.0645 -0.0134
  825SOL    HW2 3373   1.871   0.389   1.631 -1.1434  2.2140  0.3965
  825SOL    HW3 3374   1.802   0.258   1.599  2.2316  0.6644 -0.8379
  825SOL    MW4 3375   1.800   0.339   1.633  0.1452  0.3323 -0.0681
  826SOL     OW 3376   2.034   0.480   1.498 -0.4863 -0.2943 -0.1390
  826SOL    HW2 3377   2.104   0.442   1.551 -0.6865  0.2932  0.5577
  826SOL    HW3 3378   2.011   0.561   1.543  0.4364  1.0364 -1.9731
  826SOL    MW4 3379   2.040   0.486   1.511 -0.3910 -0.0412 -0.2891
  827SOL     OW 3380   1.980   0.735   1.628 -0.1152 -0.1848 -0.4072
  827SOL    HW2 3381   2.057   0.788   1.608  0.5058 -1.0020 -0.1893
  827SOL    HW3 3382   1.908   0.779   1.582  0.3132  1.0897  0.1074
  827SOL    MW4 3383   1.981   0.748   1.619  0.0232 -0.1245 -0.3107
  828SOL     OW 3384   1.793   0.868   1.490 -0.6485  0.1841 -0.2860
  828SOL    HW2 3385   1.801   0.949   1.541  0.3743  0.3295 -0.6616
  828SOL    HW3 3386   1.705   0.836   1.509 -1.3953  1.8571 -0.8336
  828SOL    MW4 3387   1.782   0.874   1.499 -0.6121  0.4239 -0.4079
  829SOL     OW 3388   1.777   1.115   1.617 -0.3797  0.4284 -0.5107
  829SOL    HW2 3389   1.859   1.156   1.591 -0.3830  0.9038  0.1880
  829SOL    HW3 3390   1.709   1.171   1.579 -0.3772  0.2230 -0.8132
  829SOL    MW4 3391   1.779   1.128   1.609 -0.3799  0.4641 -0.4585
  830SOL     OW 3392   2.021   1.213   1.536 -0.2740  0.3070  0.1920
  830SOL    HW2 3393   2.021   1.304   1.568 -0.2206  0.2218  0.4317
  830SOL    HW3 3394   1.994   1.221   1.444  0.4769  0.6478 -0.0066
  830SOL    MW4 3395   2.018   1.226   1.528 -0.1678  0.3408  0.1974
  831SOL     OW 3396   1.968   1.489   1.607 -0.2678 -0.3644 -0.2602
  831SOL    HW2 3397   2.037   1.539   1.565 -0.4272 -0.4016 -0.5620
  831SOL    HW3 3398   1.895   1.550   1.616 -0.5351 -0.6026 -0.8162
  831SOL    MW4 3399   1.967   1.503   1.603 -0.3242 -0.4008 -0.3735
  832SOL     OW 3400   1.750   1.669   1.559  0.0921  0.6221 -0.1326
  832SOL    HW2 3401   1.658   1.647   1.573 -0.0211  0.7716 -0.6225
  832SOL    HW3 3402   1.759   1.673   1.464  0.7871 -0.1513 -0.1082
  832SOL    MW4 3403   1.739   1.666   1.548  0.1689  0.5398 -0.1940
  833SOL     OW 3404   1.828   1.937   1.624  0.2043 -0.1795 -0.3432
  833SOL    HW2 3405   1.796   1.855   1.587 -0.7740 -0.4477  1.0293
  833SOL    HW3 3406   1.757   1.999   1.610  0.1040 -0.1088  0.4170
  833SOL    MW4 3407   1.814   1.934   1.618  0.0620 -0.2056 -0.0618
  834SOL     OW 3408   2.052   2.023   1.474 -0.1770 -0.2079  0.1992
  834SOL    HW2 3409   2.122   1.962   1.499  1.1874  0.6732 -1.3874
  834SOL    HW3 3410   1.979   2.000   1.531  0.6288 -2.7130  0.2975
  834SOL    MW4 3411   2.052   2.012   1.485  0.1092 -0.4220  0.0029
  835SOL     OW 3412   2.025   2.295   1.554  0.1950  0.0558 -0.4031
  835SOL    HW2 3413   2.031   2.290   1.650 -1.2230 -1.1193 -0.3685
  835SOL    HW3 3414   2.033   2.204   1.525 -1.6997  0.1476 -1.2559
  835SOL    MW4 3415   2.027   2.282   1.563 -0.2420 -0.0870 -0.5111
  836SOL     OW 3416   1.831   2.464   1.436 -0.7694  0.2195 -0.6759
  836SOL    HW2 3417   1.899   2.414   1.483 -1.3121  0.2418  0.1516
  836SOL    HW3 3418   1.864   2.471   1.347  0.0295 -0.3112 -0.4330
  836SOL    MW4 3419   1.845   2.458   1.431 -0.7356  0.1523 -0.5348
  837SOL     OW 3420   1.842   2.707   1.571  0.3556  0.0540  0.0285
  837SOL    HW2 3421   1.842   2.686   1.664 -1.3251  0.1822  0.0748
  837SOL    HW3 3422   1.839   2.621   1.528 -0.5881  0.0357  0.1244
  837SOL    MW4 3423   1.841   2.693   1.577  0.0094  0.0684  0.0472
  838SOL     OW 3424   2.041   2.849   1.460 -0.0637 -0.3565  0.3776
  838SOL    HW2 3425   2.019   2.936   1.493  2.0411  0.1419  0.5542
  838SOL    HW3 3426   1.970   2.792   1.492 -2.0581  1.4698 -0.7167
  838SOL    MW4 3427   2.029   2.853   1.469 -0.0491 -0.0496  0.2565
  839SOL     OW 3428   1.975   3.115   1.568 -0.5052 -0.3001 -0.3272
  839SOL    HW2 3429   1.999   3.115   1.661 -0.5710 -2.8198 -0.2781
  839SOL    HW3 3430   2.053   3.146   1.523  0.1087 -0.6939  0.4506
  839SOL    MW4 3431   1.989   3.119   1.574 -0.4330 -0.6845 -0.2183
  840SOL     OW 3432   1.751   3.205   1.449  0.2243 -0.0006  0.6883
  840SOL    HW2 3433   1.755   3.297   1.473 -0.4735  0.0620  0.5796
  840SOL    HW3 3434   1.825   3.164   1.493 -0.6218  0.2395  2.3475
  840SOL    MW4 3435   1.761   3.212   1.458  0.0205  0.0393  0.8928
  841SOL     OW 3436   1.784   3.460   1.518 -0.4363  0.1386  0.7120
  841SOL    HW2 3437   1.786   3.463   1.614 -1.9677  0.0416  0.7532
  841SOL    HW3 3438   1.713   3.520   1.493 -0.2805 -0.1079 -0.3478
  841SOL    MW4 3439   1.775   3.468   1.528 -0.6177  0.0930  0.5776
  842SOL     OW 3440   2.022   3.589   1.460  0.1002 -0.1084  0.5256
  842SOL    HW2 3441   2.092   3.536   1.498 -0.3538  0.0003  1.5210
  842SOL    HW3 3442   1.942   3.543   1.482 -0.1248 -0.5559 -1.1394
  842SOL    MW4 3443   2.021   3.576   1.468  0.0107 -0.1528  0.4373
  843SOL     OW 3444   1.981   3.825   1.574 -0.0385  0.0121 -0.1401
  843SOL    HW2 3445   2.001   3.810   1.666 -1.9538 -0.1982  0.2573
  843SOL    HW3 3446   2.018   3.750   1.529  1.1572  0.2534  0.4143
  843SOL    MW4 3447   1.989   3.813   1.580 -0.1335  0.0165 -0.0145
  844SOL     OW 3448   1.788   4.002   1.474  0.5286 -0.0308 -0.0418
  844SOL    HW2 3449   1.852   3.936   1.503  0.2604  0.3947  1.5795
  844SOL    HW3 3450   1.704   3.968   1.505  0.2482  0.5125 -0.2144
  844SOL    MW4 3451   1.786   3.989   1.482  0.4562  0.0970  0.1494
  845SOL     OW 3452   1.838   4.240   1.593 -0.2794  0.1916 -0.2659
  845SOL    HW2 3453   1.899   4.280   1.531  2.1222 -0.4797  1.5935
  845SOL    HW3 3454   1.813   4.157   1.552 -0.3226  0.6907 -1.2557
  845SOL    MW4 3455   1.843   4.234   1.579  0.0318  0.1688 -0.1513
  846SOL     OW 3456   2.043   4.393   1.465  0.2195 -0.0795 -0.4676
  846SOL    HW2 3457   2.100   4.327   1.505 -0.8949 -2.1273 -2.1190
  846SOL    HW3 3458   2.043   4.466   1.526  2.7899 -0.9601  0.6485
  846SOL    MW4 3459   2.050   4.394   1.478  0.4113 -0.4659 -0.5382
  847SOL     OW 3460   2.437   4.614   1.603  0.0426 -0.4405  0.6224
  847SOL    HW2 3461   2.437   4.656   1.689 -0.8559 -2.1194  1.4721
  847SOL    HW3 3462   2.386   4.673   1.547  2.6386  1.8771  0.5887
  847SOL    MW4 3463   2.431   4.627   1.607  0.2666 -0.3562  0.7300
  848SOL     OW 3464   2.264   0.119   1.505  0.3016 -0.0268 -0.1096
  848SOL    HW2 3465   2.202   0.051   1.529  1.3713 -0.8077  0.4908
  848SOL    HW3 3466   2.257   0.126   1.410 -0.6442 -0.1564 -0.0506
  848SOL    MW4 3467   2.255   0.111   1.496  0.3181 -0.1470 -0.0226
  849SOL     OW 3468   2.235   0.357   1.637  0.0826  0.3329  0.4277
  849SOL    HW2 3469   2.240   0.345   1.732  1.0031  1.5037  0.5410
  849SOL    HW3 3470   2.235   0.268   1.602 -1.2300 -0.1340  1.5584
  849SOL    MW4 3471   2.236   0.344   1.645  0.0308  0.4258  0.5918
  850SOL     OW 3472   2.435   0.502   1.522 -0.0229 -0.3786 -0.3604
  850SOL    HW2 3473   2.516   0.460   1.549 -0.5016 -0.6721  0.6538
  850SOL    HW3 3474   2.366   0.451   1.566 -0.7095  0.3306 -0.6065
  850SOL    MW4 3475   2.436   0.490   1.531 -0.1767 -0.3238 -0.2589
  851SOL     OW 3476   2.440   0.748   1.618  0.1704  0.0535 -0.0965
  851SOL    HW2 3477   2.357   0.784   1.587 -0.5343  0.0132  1.6985
  851SOL    HW3 3478   2.441   0.657   1.586  0.8315  0.8583 -2.5118
  851SOL    MW4 3479   2.429   0.741   1.609  0.1645  0.1544 -0.1782
  852SOL     OW 3480   2.190   0.884   1.542 -0.3104  0.1466 -0.2140
  852SOL    HW2 3481   2.208   0.965   1.589  1.1889  0.2728 -0.9473
  852SOL    HW3 3482   2.205   0.906   1.450 -0.6609 -0.7524 -0.4945
  852SOL    MW4 3483   2.195   0.898   1.536 -0.1588  0.0446 -0.3479
  853SOL     OW 3484   2.275   1.131   1.618  0.0168 -0.5583  0.2393
  853SOL    HW2 3485   2.269   1.132   1.713 -0.2958 -2.0775  0.2482
  853SOL    HW3 3486   2.190   1.162   1.587 -0.2720 -1.1370  0.4529
  853SOL    MW4 3487   2.263   1.135   1.626 -0.0625 -0.8349  0.2686
  854SOL     OW 3488   2.485   1.221   1.439  0.1821 -0.0323  0.0603
  854SOL    HW2 3489   2.408   1.193   1.488 -0.0028  0.8817  0.2988
  854SOL    HW3 3490   2.458   1.216   1.347  0.2670 -0.9573  0.0748
  854SOL    MW4 3491   2.471   1.217   1.433  0.1688 -0.0337  0.0937
  855SOL     OW 3492   2.455   1.484   1.580 -0.1399 -0.0728  0.2185
  855SOL    HW2 3493   2.534   1.535   1.562  0.2591  0.2378  2.6827
  855SOL    HW3 3494   2.459   1.410   1.520  1.1718  0.8408 -0.8190
  855SOL    MW4 3495   2.466   1.481   1.570  0.0858  0.0886  0.4067
  856SOL     OW 3496   2.201   1.589   1.512 -0.0257 -0.3820 -0.1289
  856SOL    HW2 3497   2.284   1.554   1.544  0.2411 -0.1430 -0.5599
  856SOL    HW3 3498   2.216   1.605   1.419 -0.7794 -1.0055 -0.3634
  856SOL    MW4 3499   2.214   1.586   1.504 -0.0899 -0.4327 -0.2167
  857SOL     OW 3500   2.250   1.865   1.579 -0.1420 -0.0937 -0.0588
  857SOL    HW2 3501   2.235   1.899   1.667 -0.5563  1.5884 -0.7538
  857SOL    HW3 3502   2.218   1.775   1.581  0.0189 -0.1143  1.5498
  857SOL    MW4 3503   2.244   1.857   1.591 -0.1755  0.1254  0.0616
  858SOL     OW 3504   2.491   2.007   1.502 -0.4194  0.5908 -0.1098
  858SOL    HW2 3505   2.413   1.952   1.516 -0.6788  0.5531 -1.6336
  858SOL    HW3 3506   2.513   1.993   1.410  1.6343  0.2903  0.4107
  858SOL    MW4 3507   2.483   1.998   1.492 -0.1829  0.5462 -0.2422
  859SOL     OW 3508   2.485   2.270   1.598  0.0448  0.0065 -0.0713
  859SOL    HW2 3509   2.494   2.270   1.694  0.5764 -0.3897 -0.1172
  859SOL    HW3 3510   2.491   2.178   1.574 -0.6156  0.0600 -0.4417
  859SOL    MW4 3511   2.487   2.258   1.608  0.0279 -0.0386 -0.1260
  860SOL     OW 3512   2.288   2.450   1.529  0.0950 -0.4382  0.0388
  860SOL    HW2 3513   2.360   2.396   1.561 -0.0840  0.4023  1.9501
  860SOL    HW3 3514   2.210   2.395   1.539  0.1573 -0.4896  0.2448
  860SOL    MW4 3515   2.287   2.436   1.535  0.0794 -0.3340  0.3182
  861SOL     OW 3516   2.245   2.704   1.597 -0.5135 -0.4492  0.1512
  861SOL    HW2 3517   2.255   2.624   1.546  0.7297  0.6036 -1.3310
  861SOL    HW3 3518   2.171   2.749   1.557 -1.7013 -1.1944  1.4724
  861SOL    MW4 3519   2.236   2.700   1.585 -0.5062 -0.4084  0.1301
  862SOL     OW 3520   2.471   2.820   1.465  0.4475  0.2337  0.4295
  862SOL    HW2 3521   2.475   2.905   1.509 -1.7798  1.1736 -1.0508
  862SOL    HW3 3522   2.398   2.775   1.506  0.8752 -0.4847  0.4046
  862SOL    MW4 3523   2.462   2.825   1.476  0.2103  0.2627  0.2310
  863SOL     OW 3524   2.464   3.034   1.630  0.2565 -0.1478  0.0662
  863SOL    HW2 3525   2.526   3.099   1.597  1.5247 -1.8032 -0.8584
  863SOL    HW3 3526   2.381   3.058   1.589  0.5614  1.2567  0.2310
  863SOL    MW4 3527   2.461   3.046   1.620  0.4642 -0.1810 -0.0341
  864SOL     OW 3528   2.236   3.186   1.502 -0.4190 -0.0660  0.2051
  864SOL    HW2 3529   2.245   3.280   1.518 -2.6162  0.1089  0.5663
  864SOL    HW3 3530   2.249   3.177   1.408  0.1062  0.5731  0.2158
  864SOL    MW4 3531   2.239   3.197   1.492 -0.6394  0.0415  0.2544
  865SOL     OW 3532   2.235   3.448   1.564  0.0022 -0.5585 -0.1613
  865SOL    HW2 3533   2.261   3.433   1.655  0.5351 -2.7643 -0.6442
  865SOL    HW3 3534   2.315   3.478   1.521 -0.5251  1.6198  0.3186
  865SOL    MW4 3535   2.249   3.450   1.570  0.0031 -0.5622 -0.1618
  866SOL     OW 3536   2.452   3.574   1.441  0.2667  0.2994 -0.1188
  866SOL    HW2 3537   2.519   3.537   1.498 -1.4636  0.4294  2.0416
  866SOL    HW3 3538   2.435   3.661   1.476 -0.2715  0.6942 -1.3124
  866SOL    MW4 3539   2.458   3.580   1.453 -0.0324  0.3686  0.0087
  867SOL     OW 3540   2.437   3.813   1.563  0.0140 -0.2706 -0.1277
  867SOL    HW2 3541   2.452   3.813   1.657 -0.5807  1.7374 -0.0133
  867SOL    HW3 3542   2.511   3.862   1.527 -0.0078 -0.6284 -0.6602
  867SOL    MW4 3543   2.448   3.820   1.571 -0.0672 -0.0529 -0.1830
  868SOL     OW 3544   2.223   3.964   1.490 -1.0557  0.1549 -0.0934
  868SOL    HW2 3545   2.154   3.902   1.511 -1.6352  0.8486  0.0598
  868SOL    HW3 3546   2.302   3.926   1.528 -1.2915 -0.7881 -0.5292
  868SOL    MW4 3547   2.224   3.951   1.498 -1.1630  0.1221 -0.1309
  869SOL     OW 3548   2.234   4.222   1.597  0.5512  0.0123  0.3962
  869SOL    HW2 3549   2.310   4.245   1.543  0.1639 -0.1583 -0.2192
  869SOL    HW3 3550   2.224   4.127   1.584  0.2489  0.0296  0.4988
  869SOL    MW4 3551   2.243   4.212   1.588  0.4601 -0.0076  0.3285
  870SOL     OW 3552   2.457   4.356   1.509 -0.3666 -0.2807 -0.0652
  870SOL    HW2 3553   2.441   4.445   1.542 -0.9777 -0.3979 -0.0442
  870SOL    HW3 3554   2.449   4.364   1.414 -2.8773 -0.7887  0.0616
  870SOL    MW4 3555   2.454   4.369   1.501 -0.7787 -0.3633 -0.0458
  871SOL     OW 3556   2.883   4.631   1.572  0.4689 -0.3044  0.0166
  871SOL    HW2 3557   2.874   4.621   1.667 -0.8729 -0.2717 -0.0939
  871SOL    HW3 3558   2.805   4.679   1.545  0.1606 -1.4937 -1.2928
  871SOL    MW4 3559   2.872   4.636   1.581  0.2511 -0.4568 -0.1707
  872SOL     OW 3560   2.644   0.094   1.493 -0.0697  0.0679 -0.0473
  872SOL    HW2 3561   2.642   0.188   1.511 -0.1899  0.2735 -1.1019
  872SOL    HW3 3562   2.568   0.059   1.539 -0.2771  0.5496 -0.0226
  872SOL    MW4 3563   2.634   0.102   1.502 -0.1130  0.1586 -0.1832
  873SOL     OW 3564   2.659   0.360   1.582  0.0701 -0.4002  0.1161
  873SOL    HW2 3565   2.671   0.359   1.677 -3.1212  1.6533  0.6120
  873SOL    HW3 3566   2.742   0.394   1.547  0.2087  1.7153  2.4052
  873SOL    MW4 3567   2.671   0.364   1.590 -0.3328  0.1499  0.4836
  874SOL     OW 3568   2.920   0.458   1.497 -0.0663  0.1665  0.3659
  874SOL    HW2 3569   2.939   0.483   1.407  0.2802 -0.9217  0.1362
  874SOL    HW3 3570   2.926   0.540   1.546 -0.2575  0.7611 -0.5953
  874SOL    MW4 3571   2.923   0.472   1.492 -0.0458  0.1014  0.2089
  875SOL     OW 3572   2.935   0.721   1.629 -0.2186 -0.3277  0.1481
  875SOL    HW2 3573   2.916   0.720   1.723  1.5700  0.8722  0.5412
  875SOL    HW3 3574   2.859   0.763   1.590 -0.3041  0.5398  1.2237
  875SOL    MW4 3575   2.922   0.726   1.636  0.0060 -0.0549  0.3418
  876SOL     OW 3576   2.686   0.848   1.544 -0.2082  0.1456 -0.4677
  876SOL    HW2 3577   2.598   0.827   1.576 -0.2597 -1.3685 -1.5622
  876SOL    HW3 3578   2.675   0.862   1.450  0.8314 -0.7040 -0.7248
  876SOL    MW4 3579   2.673   0.847   1.536 -0.0780 -0.1664 -0.6464
  877SOL     OW 3580   2.682   1.127   1.603 -0.0079 -0.1565  0.3864
  877SOL    HW2 3581   2.678   1.032   1.589  0.8194 -0.0393 -0.6444
  877SOL    HW3 3582   2.603   1.161   1.561  0.2887 -0.2702 -0.2691
  877SOL    MW4 3583   2.671   1.119   1.596  0.1400 -0.1560  0.1638
  878SOL     OW 3584   2.882   1.283   1.499  0.2677 -0.0876  0.1776
  878SOL    HW2 3585   2.965   1.241   1.522 -0.4394 -1.8180 -0.3840
  878SOL    HW3 3586   2.815   1.225   1.534 -0.7324  0.4589 -0.8085
  878SOL    MW4 3587   2.884   1.270   1.507  0.0424 -0.2438 -0.0263
  879SOL     OW 3588   2.906   1.579   1.529  0.5036 -0.1622  0.2193
  879SOL    HW2 3589   2.816   1.611   1.523  0.8020  1.4209  2.9998
  879SOL    HW3 3590   2.897   1.484   1.536 -1.0344  0.0164  1.1383
  879SOL    MW4 3591   2.893   1.570   1.529  0.3402  0.0702  0.7073
  880SOL     OW 3592   2.659   1.689   1.486  0.3972 -0.1346  0.2059
  880SOL    HW2 3593   2.681   1.781   1.502 -1.8965  0.7669 -1.6157
  880SOL    HW3 3594   2.678   1.676   1.393  2.0138 -1.9121  0.7623
  880SOL    MW4 3595   2.664   1.700   1.476  0.3076 -0.2502  0.0391
  881SOL     OW 3596   2.742   1.939   1.593  0.5715  0.1863 -0.3212
  881SOL    HW2 3597   2.738   1.921   1.686  0.2442  1.7407 -0.0124
  881SOL    HW3 3598   2.658   1.980   1.572  0.9902  0.6724 -1.1033
  881SOL    MW4 3599   2.731   1.942   1.602  0.5832  0.4556 -0.3836
  882SOL     OW 3600   2.925   2.101   1.466 -0.4875 -0.0400  0.0310
  882SOL    HW2 3601   2.918   2.184   1.513 -3.4367  0.6746 -1.5362
  882SOL    HW3 3602   2.876   2.039   1.520  1.7235 -0.8054  1.2076
  882SOL    MW4 3603   2.918   2.104   1.479 -0.5848 -0.0465 -0.0204
  883SOL     OW 3604   2.929   2.358   1.578 -0.6696 -0.2454 -0.5937
  883SOL    HW2 3605   2.928   2.336   1.671  0.7876  0.6502 -0.3483
  883SOL    HW3 3606   2.840   2.387   1.559 -0.8492  0.0465  0.6439
  883SOL    MW4 3607   2.917   2.359   1.588 -0.5009 -0.0887 -0.3979
  884SOL     OW 3608   2.682   2.443   1.489 -0.2793  0.1279 -0.5772
  884SOL    HW2 3609   2.677   2.522   1.543  1.0912 -0.6632  0.7358
  884SOL    HW3 3610   2.614   2.386   1.524  0.3376 -0.2205  0.0829
  884SOL    MW4 3611   2.672   2.446   1.501 -0.0169 -0.0226 -0.3169
  885SOL     OW 3612   2.669   2.682   1.624 -0.2922 -0.1677 -0.1784
  885SOL    HW2 3613   2.746   2.717   1.580 -0.3780  1.9541  1.2833
  885SOL    HW3 3614   2.595   2.718   1.576 -0.3746  0.6876  0.5721
  885SOL    MW4 3615   2.669   2.691   1.612 -0.3145  0.2251  0.1135
  886SOL     OW 3616   2.911   2.796   1.503 -0.6861  0.4512  0.2679
  886SOL    HW2 3617   2.988   2.750   1.537  1.8839  2.7401 -2.1479
  886SOL    HW3 3618   2.920   2.886   1.534 -1.8264  0.9914 -0.8922
  886SOL    MW4 3619   2.922   2.802   1.511 -0.4973  0.8242 -0.2040
  887SOL     OW 3620   2.903   3.069   1.568  0.5207 -0.0575 -0.0669
  887SOL    HW2 3621   2.888   3.077   1.662  0.8651 -0.3840  0.0139
  887SOL    HW3 3622   2.969   3.135   1.548  0.2772  0.1718 -0.1224
  887SOL    MW4 3623   2.910   3.078   1.578  0.5336 -0.0701 -0.0637
  888SOL     OW 3624   2.653   3.188   1.495 -0.2884 -0.1354 -0.7105
  888SOL    HW2 3625   2.736   3.148   1.518 -0.8152 -0.1568  1.2187
  888SOL    HW3 3626   2.654   3.191   1.399  2.1724  0.4309 -0.6948
  888SOL    MW4 3627   2.664   3.183   1.485 -0.0334 -0.0637 -0.4539
  889SOL     OW 3628   2.678   3.449   1.577  0.6838 -0.0958 -0.2772
  889SOL    HW2 3629   2.694   3.445   1.671  0.3232  0.3889 -0.1988
  889SOL    HW3 3630   2.673   3.357   1.550  0.2264 -0.2322  0.2697
  889SOL    MW4 3631   2.679   3.436   1.586  0.5758 -0.0498 -0.1948
  890SOL     OW 3632   2.881   3.603   1.487  0.3199  0.4248  0.3873
  890SOL    HW2 3633   2.816   3.548   1.530  1.6658 -1.2781  0.2967
  890SOL    HW3 3634   2.874   3.581   1.394 -0.3998  1.7712  0.1137
  890SOL    MW4 3635   2.872   3.593   1.481  0.4025  0.3777  0.3392
  891SOL     OW 3636   2.877   3.850   1.564 -0.4547 -0.0776 -0.0968
  891SOL    HW2 3637   2.788   3.881   1.545 -0.1369 -0.0360 -1.5386
  891SOL    HW3 3638   2.877   3.759   1.535 -0.2298 -0.2806  0.5379
  891SOL    MW4 3639   2.865   3.842   1.558 -0.3834 -0.0989 -0.2034
  892SOL     OW 3640   2.646   3.981   1.472 -0.5700 -0.5403 -0.5037
  892SOL    HW2 3641   2.666   4.060   1.523  0.1253 -1.0484  0.0120
  892SOL    HW3 3642   2.648   4.010   1.381 -0.2827  0.0303 -0.3182
  892SOL    MW4 3643   2.649   3.995   1.467 -0.4404 -0.5322 -0.4112
  893SOL     OW 3644   2.689   4.260   1.610 -0.3818 -0.6681  0.4190
  893SOL    HW2 3645   2.750   4.291   1.543 -0.7715 -0.0394  0.3528
  893SOL    HW3 3646   2.602   4.280   1.574 -0.6364 -1.7568  0.4122
  893SOL    MW4 3647   2.685   4.266   1.596 -0.4668 -0.7286  0.4092
  894SOL     OW 3648   2.880   4.381   1.444 -0.6074 -0.4025  0.4861
  894SOL    HW2 3649   2.884   4.470   1.480 -2.0709 -0.4552  0.8171
  894SOL    HW3 3650   2.888   4.393   1.350 -2.2141  0.2045  0.4194
  894SOL    MW4 3651   2.882   4.395   1.437 -1.0128 -0.3295  0.5208
  895SOL     OW 3652   3.365   4.591   1.612 -0.0078  0.1965 -0.0232
  895SOL    HW2 3653   3.381   4.602   1.706 -0.3107  0.5584 -0.0105
  895SOL    HW3 3654   3.349   4.498   1.600  0.1466  0.1342  0.2678
  895SOL    MW4 3655   3.365   4.580   1.623 -0.0272  0.2360  0.0168
  896SOL     OW 3656   3.158   0.093   1.535 -0.5225 -0.0741 -0.0740
  896SOL    HW2 3657   3.234   0.043   1.564 -0.6391 -0.1378  0.1240
  896SOL    HW3 3658   3.084   0.034   1.549 -1.0391  1.1915  2.9613
  896SOL    MW4 3659   3.158   0.079   1.541 -0.6063  0.0845  0.3527
  897SOL     OW 3660   3.128   0.361   1.633  0.0349 -0.3370  0.1685
  897SOL    HW2 3661   3.141   0.271   1.603 -1.0789 -0.4680  0.0734
  897SOL    HW3 3662   3.055   0.393   1.581 -0.4713  0.1650  1.1789
  897SOL    MW4 3663   3.120   0.353   1.622 -0.1791 -0.2880  0.2893
  898SOL     OW 3664   3.356   0.487   1.505 -0.8903 -0.2505 -0.0974
  898SOL    HW2 3665   3.272   0.456   1.539 -1.2203 -0.9609 -1.5381
  898SOL    HW3 3666   3.351   0.473   1.411  0.7038  0.0657 -0.2475
  898SOL    MW4 3667   3.344   0.481   1.497 -0.7236 -0.3025 -0.3073
  899SOL     OW 3668   3.388   0.751   1.611 -0.3780 -0.4979 -0.0531
  899SOL    HW2 3669   3.397   0.733   1.705  2.0139  0.3903 -0.0850
  899SOL    HW3 3670   3.368   0.665   1.573 -0.0516 -1.1105  1.1155
  899SOL    MW4 3671   3.387   0.737   1.619 -0.0196 -0.4615  0.0970
  900SOL     OW 3672   3.142   0.877   1.558  0.3477 -0.8229  0.1173
  900SOL    HW2 3673   3.223   0.830   1.578  0.1881 -2.2590 -2.3361
  900SOL    HW3 3674   3.072   0.816   1.582 -0.0078  0.2526  1.8490
  900SOL    MW4 3675   3.143   0.863   1.564  0.2794 -0.8705  0.0221
  901SOL     OW 3676   3.099   1.147   1.594  0.1818  0.1244  0.3644
  901SOL    HW2 3677   3.099   1.150   1.690 -1.2293  0.0880  0.3693
  901SOL    HW3 3678   3.105   1.054   1.573 -1.4242 -0.0098  0.4385
  901SOL    MW4 3679   3.100   1.135   1.604 -0.2160  0.1019  0.3749
  902SOL     OW 3680   3.320   1.271   1.517  0.1227  0.2387 -0.1927
  902SOL    HW2 3681   3.389   1.219   1.558 -0.6346  1.5371  2.8918
  902SOL    HW3 3682   3.239   1.228   1.543 -0.3720  0.8212 -0.7439
  902SOL    MW4 3683   3.319   1.258   1.526 -0.0424  0.4869  0.1415
  903SOL     OW 3684   3.337   1.539   1.604  0.3295  0.2179 -0.7409
  903SOL    HW2 3685   3.360   1.555   1.696 -0.5314  0.8747 -0.6401
  903SOL    HW3 3686   3.330   1.444   1.598  1.5746  0.0868 -0.4211
  903SOL    MW4 3687   3.339   1.528   1.616  0.3803  0.2873 -0.6856
  904SOL     OW 3688   3.161   1.703   1.486  0.1217  0.0859  0.2183
  904SOL    HW2 3689   3.221   1.651   1.541  0.4686 -0.7640 -0.9544
  904SOL    HW3 3690   3.074   1.674   1.511  0.2241  0.6225  1.2312
  904SOL    MW4 3691   3.158   1.693   1.497  0.1812  0.0446  0.1972
  905SOL     OW 3692   3.134   1.942   1.590 -0.3556  0.0105 -0.4387
  905SOL    HW2 3693   3.140   1.858   1.544 -0.3567  0.8607 -2.0195
  905SOL    HW3 3694   3.063   1.989   1.545 -0.8360  0.5826  0.8872
  905SOL    MW4 3695   3.125   1.937   1.578 -0.4189  0.1981 -0.4723
  906SOL     OW 3696   3.361   2.066   1.493 -0.2365 -0.3814  0.0589
  906SOL    HW2 3697   3.269   2.053   1.513 -0.7922  1.9752 -0.7372
  906SOL    HW3 3698   3.378   2.011   1.417 -1.7112  1.2115 -1.4616
  906SOL    MW4 3699   3.351   2.057   1.486 -0.5045  0.1400 -0.2468
  907SOL     OW 3700   3.418   2.331   1.566 -0.0110 -0.0974 -0.3590
  907SOL    HW2 3701   3.503   2.361   1.534  0.2056 -0.6461 -0.3020
  907SOL    HW3 3702   3.422   2.235   1.559 -0.4421 -0.1507  0.0957
  907SOL    MW4 3703   3.429   2.322   1.561 -0.0396 -0.1771 -0.2915
  908SOL     OW 3704   3.150   2.464   1.461 -0.0064  0.0853  0.0195
  908SOL    HW2 3705   3.229   2.417   1.486  0.1268 -0.0177 -0.5880
  908SOL    HW3 3706   3.081   2.426   1.516  0.1787 -0.5214 -0.1631
  908SOL    MW4 3707   3.151   2.453   1.471  0.0358 -0.0086 -0.0848
  909SOL     OW 3708   3.160   2.695   1.588  0.5557 -0.4511 -0.7310
  909SOL    HW2 3709   3.233   2.750   1.557  0.8504 -0.8160 -0.6902
  909SOL    HW3 3710   3.156   2.623   1.526  1.1988 -1.2269  0.1123
  909SOL    MW4 3711   3.169   2.693   1.576  0.6793 -0.6013 -0.6143
  910SOL     OW 3712   3.391   2.849   1.504 -1.0792 -0.2672 -0.0163
  910SOL    HW2 3713   3.370   2.940   1.528 -1.0384 -0.0140 -0.9346
  910SOL    HW3 3714   3.392   2.849   1.408  0.2328 -0.9408 -0.0152
  910SOL    MW4 3715   3.388   2.861   1.494 -0.9005 -0.3226 -0.1373
  911SOL     OW 3716   3.379   3.136   1.597 -0.0744  0.1211  0.1260
  911SOL    HW2 3717   3.386   3.139   1.692  0.9963  0.1204  0.0501
  911SOL    HW3 3718   3.452   3.189   1.566 -0.8767  0.7756 -0.6843
  911SOL    MW4 3719   3.389   3.144   1.605 -0.0391  0.2077  0.0091
  912SOL     OW 3720   3.144   3.217   1.480  0.1785  0.4791  0.1990
  912SOL    HW2 3721   3.228   3.186   1.513  0.9128  1.4585 -0.7249
  912SOL    HW3 3722   3.143   3.310   1.502 -0.2141  0.6938 -0.7031
  912SOL    MW4 3723   3.155   3.225   1.487  0.2234  0.6366 -0.0420
  913SOL     OW 3724   3.140   3.502   1.528  0.4197  0.3752  0.6378
  913SOL    HW2 3725   3.156   3.497   1.622 -2.1184 -1.7231  1.0356
  913SOL    HW3 3726   3.048   3.529   1.521  0.9806  1.8844 -1.2774
  913SOL    MW4 3727   3.130   3.505   1.540  0.1590  0.2975  0.4375
  914SOL     OW 3728   3.378   3.642   1.490 -0.3711  0.1397  0.2097
  914SOL    HW2 3729   3.441   3.578   1.523 -0.3244 -0.8588 -1.7537
  914SOL    HW3 3730   3.295   3.594   1.490 -0.4185  0.2179 -0.8217
  914SOL    MW4 3731   3.375   3.627   1.494 -0.3712  0.0184 -0.1855
  915SOL     OW 3732   3.349   3.882   1.604  0.0956 -0.1183  0.1472
  915SOL    HW2 3733   3.268   3.916   1.566  0.5797  1.4045  0.4536
  915SOL    HW3 3734   3.364   3.799   1.558 -0.2805  0.8349 -1.7258
  915SOL    MW4 3735   3.341   3.876   1.593  0.1099  0.2084 -0.0596
  916SOL     OW 3736   3.119   3.969   1.493 -0.2636  0.2869 -0.7589
  916SOL    HW2 3737   3.105   4.057   1.527 -1.1186  0.2125 -0.8926
  916SOL    HW3 3738   3.035   3.924   1.508 -0.0593 -0.2905 -1.3069
  916SOL    MW4 3739   3.106   3.974   1.499 -0.3493  0.2005 -0.8488
  917SOL     OW 3740   3.084   4.225   1.592  0.3621  0.1709  0.2515
  917SOL    HW2 3741   3.083   4.256   1.683 -1.8785  0.5131  0.1360
  917SOL    HW3 3742   3.019   4.278   1.548 -1.9335 -3.1150 -0.4884
  917SOL    MW4 3743   3.076   4.236   1.598 -0.2363 -0.2174  0.1386
  918SOL     OW 3744   3.326   4.328   1.495 -0.1452  0.0460 -0.1529
  918SOL    HW2 3745   3.252   4.272   1.520 -0.4931  0.5355 -0.0711
  918SOL    HW3 3746   3.303   4.361   1.408  0.1698 -0.1355 -0.3023
  918SOL    MW4 3747   3.313   4.325   1.487 -0.1497  0.0868 -0.1618
  919SOL     OW 3748   3.806   0.008   1.561 -0.3497  0.2304  0.0801
  919SOL    HW2 3749   3.822  -0.010   1.654 -0.6747 -0.6650 -0.0314
  919SOL    HW3 3750   3.885   0.051   1.531  0.7141 -1.6085  0.2011
  919SOL    MW4 3751   3.818   0.012   1.570 -0.2522 -0.1302  0.0815
  920SOL     OW 3752   3.542   0.114   1.515 -0.3705  0.6430 -0.0351
  920SOL    HW2 3753   3.632   0.089   1.538  0.1394  3.0097  0.6135
  920SOL    HW3 3754   3.488   0.043   1.552  1.1755 -0.5926 -0.0742
  920SOL    MW4 3755   3.547   0.101   1.523 -0.0992  0.7922  0.0453
  921SOL     OW 3756   3.541   0.343   1.650  0.4049 -0.4551  0.1191
  921SOL    HW2 3757   3.538   0.262   1.599  0.2265 -0.4622  0.1386
  921SOL    HW3 3758   3.460   0.389   1.626  0.4855 -0.3035  0.1405
  921SOL    MW4 3759   3.530   0.338   1.640  0.3924 -0.4360  0.1243
  922SOL     OW 3760   3.767   0.452   1.483  0.2992  0.3021  0.1877
  922SOL    HW2 3761   3.702   0.409   1.538 -0.6881  0.3920 -0.8932
  922SOL    HW3 3762   3.741   0.430   1.393  2.1802 -0.2691 -0.2379
  922SOL    MW4 3763   3.755   0.444   1.478  0.4172  0.2386 -0.0110
  923SOL     OW 3764   3.821   0.732   1.626  0.3882  0.0827 -0.3776
  923SOL    HW2 3765   3.770   0.797   1.578  0.0337  0.5889  0.6709
  923SOL    HW3 3766   3.795   0.648   1.588 -0.1920  0.4450 -0.7886
  923SOL    MW4 3767   3.811   0.730   1.614  0.2649  0.1973 -0.2935
  924SOL     OW 3768   3.596   0.880   1.487 -0.0019 -0.2966  0.2398
  924SOL    HW2 3769   3.532   0.819   1.522  0.0089 -0.3343  0.1928
  924SOL    HW3 3770   3.582   0.879   1.392 -1.7989  1.7704  0.4354
  924SOL    MW4 3771   3.586   0.872   1.479 -0.2375 -0.0288  0.2594
  925SOL     OW 3772   3.567   1.140   1.583 -0.8697  0.3634 -0.1779
  925SOL    HW2 3773   3.640   1.186   1.541 -0.9579  0.4813 -0.2026
  925SOL    HW3 3774   3.581   1.048   1.561 -1.7111  0.5736 -1.6996
  925SOL    MW4 3775   3.578   1.134   1.574 -0.9921  0.4066 -0.3819
  926SOL     OW 3776   3.777   1.292   1.493 -0.2921  0.4262  0.2452
  926SOL    HW2 3777   3.863   1.258   1.518 -0.2112 -0.2801 -0.9340
  926SOL    HW3 3778   3.780   1.385   1.513  0.7600  0.4033  0.1826
  926SOL    MW4 3779   3.789   1.300   1.499 -0.1426  0.3300  0.0813
  927SOL     OW 3780   3.794   1.558   1.567  0.1868  0.2432  0.0984
  927SOL    HW2 3781   3.799   1.570   1.662 -1.5660  0.7149  0.1552
  927SOL    HW3 3782   3.720   1.612   1.540  0.9956  0.5515 -1.6280
  927SOL    MW4 3783   3.785   1.567   1.576  0.0625  0.3461 -0.1220
  928SOL     OW 3784   3.560   1.653   1.471  0.2067 -0.0109 -0.1545
  928SOL    HW2 3785   3.479   1.607   1.491  1.1907 -2.0895 -0.8369
  928SOL    HW3 3786   3.563   1.656   1.375  0.4613  0.9480 -0.1258
  928SOL    MW4 3787   3.550   1.647   1.461  0.3700 -0.1587 -0.2408
  929SOL     OW 3788   3.566   1.918   1.583 -0.4334  0.4274 -0.1977
  929SOL    HW2 3789   3.554   1.830   1.548 -1.3631  0.3481  0.3088
  929SOL    HW3 3790   3.481   1.960   1.572  0.3855  1.7325 -1.7151
  929SOL    MW4 3791   3.553   1.912   1.577 -0.4478  0.5891 -0.3312
  930SOL     OW 3792   3.761   2.028   1.437 -0.5603 -0.2872  0.3535
  930SOL    HW2 3793   3.777   2.114   1.475 -1.1089 -0.1142  0.1937
  930SOL    HW3 3794   3.690   1.991   1.488 -2.8714  0.8697 -1.9190
  930SOL    MW4 3795   3.754   2.034   1.448 -0.9375 -0.1118  0.0325
  931SOL     OW 3796   3.809   2.260   1.574  0.1937 -0.0936  0.3048
  931SOL    HW2 3797   3.806   2.273   1.669  0.2554  1.2287  0.1295
  931SOL    HW3 3798   3.883   2.314   1.545 -0.9412  0.9347 -0.7197
  931SOL    MW4 3799   3.818   2.269   1.583  0.0522  0.2165  0.1465
  932SOL     OW 3800   3.653   2.472   1.471 -0.1456 -0.1342 -0.0773
  932SOL    HW2 3801   3.624   2.543   1.529  1.3314  1.4091 -1.1889
  932SOL    HW3 3802   3.726   2.431   1.518 -0.1735 -0.1056 -0.0078
  932SOL    MW4 3803   3.658   2.476   1.485  0.0455  0.0732 -0.2148
  933SOL     OW 3804   3.569   2.681   1.653 -0.2532  0.5425  0.1201
  933SOL    HW2 3805   3.544   2.671   1.745 -0.8293 -1.8295 -0.2699
  933SOL    HW3 3806   3.496   2.729   1.614 -1.4047 -0.9962  0.3106
  933SOL    MW4 3807   3.556   2.686   1.660 -0.4811  0.0267  0.0937
  934SOL     OW 3808   3.785   2.816   1.490 -0.1198 -0.4841 -0.0128
  934SOL    HW2 3809   3.862   2.781   1.535  0.3000  1.4694  0.8939
  934SOL    HW3 3810   3.711   2.780   1.538  0.2980 -0.2473  0.8372
  934SOL    MW4 3811   3.786   2.807   1.502 -0.0095 -0.1950  0.2190
  935SOL     OW 3812   3.832   3.086   1.585  0.4220  0.4165  0.2811
  935SOL    HW2 3813   3.916   3.116   1.552  1.1606 -0.9153  0.8984
  935SOL    HW3 3814   3.821   2.999   1.547 -0.0768  0.0689  1.2005
  935SOL    MW4 3815   3.841   3.078   1.576  0.4537  0.1948  0.4839
  936SOL     OW 3816   3.633   3.247   1.507 -0.4301 -0.1159  0.2763
  936SOL    HW2 3817   3.702   3.190   1.540 -0.1763  0.2840  0.4337
  936SOL    HW3 3818   3.631   3.230   1.413 -1.0247 -1.1145  0.4617
  936SOL    MW4 3819   3.642   3.237   1.499 -0.4752 -0.1950  0.3215
  937SOL     OW 3820   3.611   3.512   1.579  0.1653 -0.5484  0.1397
  937SOL    HW2 3821   3.682   3.549   1.526  0.4184  0.5733  1.2294
  937SOL    HW3 3822   3.619   3.418   1.567  1.2575 -0.3922 -0.4813
  937SOL    MW4 3823   3.621   3.505   1.570  0.3428 -0.3798  0.2015
  938SOL     OW 3824   3.842   3.622   1.438 -0.2241 -0.3899 -0.1338
  938SOL    HW2 3825   3.836   3.692   1.503 -0.1823 -0.6637  0.1641
  938SOL    HW3 3826   3.908   3.563   1.473  2.1107  1.0608 -1.9129
  938SOL    MW4 3827   3.850   3.624   1.451  0.0892 -0.2348 -0.3293
  939SOL     OW 3828   3.748   3.864   1.599 -0.6186 -0.1626  0.0848
  939SOL    HW2 3829   3.831   3.905   1.576 -0.2449 -0.9335  0.0694
  939SOL    HW3 3830   3.682   3.922   1.559 -0.0843  0.2398 -0.2272
  939SOL    MW4 3831   3.750   3.877   1.590 -0.4988 -0.2112  0.0416
  940SOL     OW 3832   3.547   4.059   1.520 -0.4226 -0.3458 -0.0538
  940SOL    HW2 3833   3.541   4.148   1.555 -0.1803 -1.2568  2.4262
  940SOL    HW3 3834   3.468   4.016   1.551  0.3732 -1.5227  0.3842
  940SOL    MW4 3835   3.536   4.065   1.529 -0.2856 -0.6208  0.3312
  941SOL     OW 3836   3.581   4.311   1.618  0.0059 -0.0520  0.1760
  941SOL    HW2 3837   3.571   4.304   1.713 -0.1333 -1.6740  0.0643
  941SOL    HW3 3838   3.491   4.311   1.584  0.0677 -0.0516  0.0108
  941SOL    MW4 3839   3.568   4.310   1.626 -0.0043 -0.2651  0.1395
  942SOL     OW 3840   3.798   4.407   1.472  0.5312  0.1305  0.0820
  942SOL    HW2 3841   3.736   4.354   1.522 -0.3884  0.4228 -0.7298
  942SOL    HW3 3842   3.774   4.498   1.492  2.3362  0.2732  1.7586
  942SOL    MW4 3843   3.787   4.412   1.481  0.6480  0.1879  0.1960
  943SOL     OW 3844   4.274   0.005   1.571 -0.2228 -0.0116 -0.1773
  943SOL    HW2 3845   4.283   0.004   1.667 -0.1241  1.0931 -0.1656
  943SOL    HW3 3846   4.272  -0.087   1.546  0.3749 -0.3061  0.8330
  943SOL    MW4 3847   4.275  -0.007   1.580 -0.1316  0.0954 -0.0424
  944SOL     OW 3848   4.031   0.122   1.488 -0.2089  0.0948 -0.1444
  944SOL    HW2 3849   4.037   0.212   1.518  1.8345  0.1093 -0.5668
  944SOL    HW3 3850   4.103   0.077   1.531  0.9249 -0.5496 -2.6290
  944SOL    MW4 3851   4.041   0.128   1.497  0.2103  0.0117 -0.5280
  945SOL     OW 3852   4.031   0.413   1.566  0.0582 -0.1230  0.0233
  945SOL    HW2 3853   4.020   0.383   1.656  0.8912 -1.6318 -0.3559
  945SOL    HW3 3854   3.942   0.433   1.536 -0.1895  0.6568  1.2635
  945SOL    MW4 3855   4.018   0.412   1.574  0.1359 -0.2192  0.1370
  946SOL     OW 3856   4.279   0.513   1.487  0.2081  0.2082  0.1341
  946SOL    HW2 3857   4.198   0.475   1.522  0.2695 -0.1497 -0.1166
  946SOL    HW3 3858   4.348   0.456   1.519  0.4343  0.9060  0.9302
  946SOL    MW4 3859   4.277   0.501   1.496  0.2460  0.2530  0.2060
  947SOL     OW 3860   4.298   0.756   1.615  0.3399 -0.6810  0.1119
  947SOL    HW2 3861   4.279   0.676   1.566  1.6483 -0.3424 -0.9836
  947SOL    HW3 3862   4.377   0.791   1.574  0.5486  0.4654  1.4538
  947SOL    MW4 3863   4.306   0.750   1.603  0.5403 -0.4851  0.1445
  948SOL     OW 3864   4.018   0.888   1.529 -0.0933  0.0318 -0.0048
  948SOL    HW2 3865   4.097   0.853   1.569 -0.2101  0.6906  0.8191
  948SOL    HW3 3866   3.946   0.843   1.575 -0.2103  0.1109 -0.1108
  948SOL    MW4 3867   4.019   0.877   1.540 -0.1235  0.1292  0.0898
  949SOL     OW 3868   4.009   1.175   1.571  0.6549  0.0478  0.1637
  949SOL    HW2 3869   4.020   1.170   1.666 -1.0495 -2.7189  0.2709
  949SOL    HW3 3870   4.010   1.083   1.542  1.3255  0.8607 -2.5223
  949SOL    MW4 3871   4.011   1.162   1.580  0.5183 -0.2099 -0.1764
  950SOL     OW 3872   4.256   1.291   1.464 -0.2598 -0.0632  0.3548
  950SOL    HW2 3873   4.177   1.265   1.511 -0.0975 -0.1629  0.5737
  950SOL    HW3 3874   4.322   1.228   1.491  0.1686  0.6405  0.9841
  950SOL    MW4 3875   4.254   1.279   1.474 -0.1817  0.0166  0.4668
  951SOL     OW 3876   4.231   1.535   1.614  0.4142  0.3684  0.3099
  951SOL    HW2 3877   4.237   1.451   1.569 -0.1215  0.6553 -0.3101
  951SOL    HW3 3878   4.302   1.587   1.578 -0.6106  0.9300 -0.9307
  951SOL    MW4 3879   4.241   1.531   1.603  0.2084  0.4804  0.0645
  952SOL     OW 3880   4.009   1.669   1.450 -0.0788  0.4126 -0.1488
  952SOL    HW2 3881   4.080   1.622   1.492 -0.8429 -1.9480 -1.3961
  952SOL    HW3 3882   3.930   1.619   1.471 -0.9920  1.4094 -1.0806
  952SOL    MW4 3883   4.008   1.656   1.458 -0.3004  0.2327 -0.4364
  953SOL     OW 3884   3.987   1.913   1.577 -0.7417  0.2513 -0.2799
  953SOL    HW2 3885   4.006   1.825   1.545  1.0064  0.7030 -0.5978
  953SOL    HW3 3886   3.908   1.939   1.531 -0.3894 -0.5733 -1.3779
  953SOL    MW4 3887   3.979   1.905   1.566 -0.4644  0.2021 -0.4666
  954SOL     OW 3888   4.228   2.065   1.503  0.0170 -0.7307  0.3189
  954SOL    HW2 3889   4.148   2.014   1.517 -0.9170  0.7632  0.5329
  954SOL    HW3 3890   4.230   2.081   1.409  0.8762 -2.0513  0.1013
  954SOL    MW4 3891   4.218   2.060   1.493  0.0072 -0.7076  0.3184
  955SOL     OW 3892   4.255   2.342   1.575 -0.0679  0.0338 -0.1130
  955SOL    HW2 3893   4.256   2.340   1.671  0.1860 -0.0885 -0.1176
  955SOL    HW3 3894   4.254   2.250   1.550 -1.4315  0.0612 -0.2194
  955SOL    MW4 3895   4.255   2.329   1.585 -0.2136  0.0215 -0.1277
  956SOL     OW 3896   4.019   2.438   1.498  0.0683  0.2079 -0.5491
  956SOL    HW2 3897   4.009   2.522   1.543  0.7376 -0.4522  0.8519
  956SOL    HW3 3898   4.108   2.410   1.519  0.1885 -0.3933 -1.8288
  956SOL    MW4 3899   4.029   2.446   1.506  0.1726  0.0415 -0.5332
  957SOL     OW 3900   4.016   2.698   1.609 -0.1643 -0.1820  0.2360
  957SOL    HW2 3901   4.007   2.700   1.704  1.2030 -2.4880  0.4473
  957SOL    HW3 3902   4.098   2.743   1.591 -0.4359  0.2781  0.1309
  957SOL    MW4 3903   4.026   2.704   1.619 -0.0200 -0.4256  0.2501
  958SOL     OW 3904   4.293   2.822   1.458 -0.1780  0.2664 -0.3999
  958SOL    HW2 3905   4.302   2.912   1.490 -1.2616  0.0424  0.5805
  958SOL    HW3 3906   4.281   2.831   1.363 -1.6704  1.2544 -0.1385
  958SOL    MW4 3907   4.293   2.835   1.450 -0.5178  0.3674 -0.2360
  959SOL     OW 3908   4.288   3.075   1.588  0.1652 -0.2524  0.3402
  959SOL    HW2 3909   4.204   3.112   1.563 -0.3556 -2.8781 -2.0008
  959SOL    HW3 3910   4.288   3.077   1.684 -1.6175  1.7525  0.3198
  959SOL    MW4 3911   4.277   3.080   1.597 -0.1388 -0.3345  0.0286
  960SOL     OW 3912   4.030   3.454   1.561 -0.1911 -0.2690  0.5571
  960SOL    HW2 3913   4.029   3.442   1.655 -1.2062  0.1663  0.6035
  960SOL    HW3 3914   4.108   3.507   1.544  0.6081 -1.2806  1.0256
  960SOL    MW4 3915   4.040   3.460   1.571 -0.2198 -0.3450  0.6251
  961SOL     OW 3916   4.268   3.602   1.493 -0.1854  0.2830 -0.2697
  961SOL    HW2 3917   4.255   3.693   1.519 -0.0613  0.3410 -0.4150
  961SOL    HW3 3918   4.271   3.604   1.397  2.0282  0.4085 -0.2193
  961SOL    MW4 3919   4.266   3.614   1.484  0.1230  0.3073 -0.2823
  962SOL     OW 3920   4.064   3.186   1.492 -0.5542 -0.5362  0.1740
  962SOL    HW2 3921   4.054   3.189   1.397 -0.3686 -0.5904  0.1522
  962SOL    HW3 3922   4.066   3.278   1.519  0.4359 -0.5036  0.0130
  962SOL    MW4 3923   4.063   3.199   1.483 -0.3991 -0.5391  0.1500
  963SOL     OW 3924   4.276   3.879   1.575 -0.0300 -0.0279  0.0902
  963SOL    HW2 3925   4.196   3.913   1.535 -0.6483 -0.5874  0.8360
  963SOL    HW3 3926   4.347   3.923   1.528 -0.7732  0.4975 -0.5529
  963SOL    MW4 3927   4.274   3.889   1.563 -0.2098 -0.0324  0.1036
  964SOL     OW 3928   4.004   3.960   1.501  0.0740  0.1157 -0.2158
  964SOL    HW2 3929   4.016   4.051   1.525  0.7270  0.1789 -0.7489
  964SOL    HW3 3930   4.004   3.960   1.405 -1.5655 -0.2378 -0.2320
  964SOL    MW4 3931   4.006   3.972   1.491 -0.0563  0.0775 -0.2882
  965SOL     OW 3932   4.015   4.252   1.579  0.0528  0.3467  0.2886
  965SOL    HW2 3933   3.994   4.253   1.673 -1.8730 -0.4302 -0.1188
  965SOL    HW3 3934   3.951   4.312   1.540  0.0131 -0.3264 -0.6941
  965SOL    MW4 3935   4.004   4.260   1.587 -0.2065  0.1554  0.1051
  966SOL     OW 3936   4.234   4.407   1.482  0.0007 -0.6480  0.1212
  966SOL    HW2 3937   4.152   4.370   1.513 -0.4230  0.7233  0.6322
  966SOL    HW3 3938   4.231   4.395   1.387  0.2007 -2.5747  0.3298
  966SOL    MW4 3939   4.223   4.400   1.473 -0.0286 -0.7210  0.2161
  967SOL     OW 3940   0.230   4.646   1.866  0.1386  0.0426 -0.2238
  967SOL    HW2 3941   0.298   4.704   1.900  1.0292 -0.9537 -0.2818
  967SOL    HW3 3942   0.248   4.641   1.772 -0.9068  0.9304 -0.4857
  967SOL    MW4 3943   0.242   4.653   1.858  0.1182  0.0281 -0.2661
  968SOL     OW 3944   0.001   0.113   1.940 -0.3121 -0.1938  0.3639
  968SOL    HW2 3945  -0.007   0.202   1.908  0.2036  0.0430  0.8942
  968SOL    HW3 3946   0.081   0.079   1.901 -0.5937 -0.4844  0.0305
  968SOL    MW4 3947   0.010   0.120   1.931 -0.2813 -0.2009  0.3898
  969SOL     OW 3948   4.458   0.358   1.851  0.0184  0.2490 -0.2207
  969SOL    HW2 3949   4.376   0.397   1.882 -0.0636 -0.9790  1.1685
  969SOL    HW3 3950   4.525   0.394   1.909 -0.0305 -1.4673  0.9507
  969SOL    MW4 3951   4.456   0.368   1.863  0.0014 -0.1395  0.1172
  970SOL     OW 3952   0.223   0.509   1.953 -0.1303 -0.0249 -0.1806
  970SOL    HW2 3953   0.296   0.464   1.911 -0.5776  0.0449 -1.0474
  970SOL    HW3 3954   0.234   0.601   1.929 -0.9059 -0.1183 -0.9357
  970SOL    MW4 3955   0.234   0.515   1.944 -0.2916 -0.0280 -0.3947
  971SOL     OW 3956   0.225   0.782   1.834 -0.1680  0.3251  0.4469
  971SOL    HW2 3957   0.299   0.836   1.859  0.7849 -0.8853  0.3029
  971SOL    HW3 3958   0.215   0.796   1.740  0.5895 -0.3374  0.2560
  971SOL    MW4 3959   0.233   0.791   1.825  0.0576  0.0780  0.4027
  972SOL     OW 3960   4.460   0.866   1.965  0.0510  0.0822  0.4992
  972SOL    HW2 3961   4.386   0.819   1.927 -0.7815  1.2417  0.6643
  972SOL    HW3 3962   4.536   0.833   1.917 -0.7629  0.1350 -0.8799
  972SOL    MW4 3963   4.460   0.855   1.953 -0.1664  0.2422  0.3392
  973SOL     OW 3964   0.013   1.116   1.874  0.2204 -0.6476 -0.5336
  973SOL    HW2 3965  -0.069   1.159   1.899 -0.2594 -1.3004 -0.9807
  973SOL    HW3 3966   0.011   1.031   1.918  1.0989 -0.2899  0.2177
  973SOL    MW4 3967   0.002   1.111   1.883  0.2732 -0.6866 -0.4935
  974SOL     OW 3968   0.215   1.286   2.017  0.2291  0.2283  0.0668
  974SOL    HW2 3969   0.216   1.377   1.986  0.1601  0.7068  1.4331
  974SOL    HW3 3970   0.152   1.242   1.960  1.4245  0.6640 -1.6189
  974SOL    MW4 3971   0.207   1.292   2.005  0.3777  0.3489  0.0248
  975SOL     OW 3972   0.206   1.554   1.906 -0.2492 -0.2404  0.5261
  975SOL    HW2 3973   0.287   1.594   1.937 -1.1684  1.3486  0.9224
  975SOL    HW3 3974   0.136   1.609   1.942 -1.4983 -1.2691 -0.2613
  975SOL    MW4 3975   0.207   1.566   1.915 -0.5353 -0.1664  0.4745
  976SOL     OW 3976   4.480   1.707   1.956 -0.1604  0.1210 -0.2722
  976SOL    HW2 3977   4.473   1.693   2.051  0.9893 -1.5122 -0.4130
  976SOL    HW3 3978   4.408   1.655   1.919  0.4480 -0.6425 -0.3981
  976SOL    MW4 3979   4.470   1.698   1.964  0.0720 -0.1951 -0.3076
  977SOL     OW 3980   0.009   1.953   1.856  0.1892 -0.1400  0.0876
  977SOL    HW2 3981  -0.072   1.994   1.889  0.9036  0.0730  1.6380
  977SOL    HW3 3982   0.008   1.865   1.892  1.1114  0.1783  0.9185
  977SOL    MW4 3983  -0.002   1.947   1.865  0.4053 -0.0700  0.4019
  978SOL     OW 3984   0.223   2.086   1.965  0.5375  0.6879 -0.2245
  978SOL    HW2 3985   0.233   2.157   1.901 -0.6705 -0.2499 -1.4969
  978SOL    HW3 3986   0.140   2.045   1.941  1.3632 -1.3244  0.3162
  978SOL    MW4 3987   0.213   2.090   1.953  0.4870  0.2985 -0.3210
  979SOL     OW 3988   0.253   2.302   1.815  0.4483 -0.1664 -0.1536
  979SOL    HW2 3989   0.330   2.351   1.843  0.2118  0.3465 -0.3926
  979SOL    HW3 3990   0.180   2.344   1.861  0.3759 -0.9799  0.4729
  979SOL    MW4 3991   0.253   2.314   1.825  0.4075 -0.2060 -0.1024
  980SOL     OW 3992   0.043   2.402   1.960  0.4859  0.1104 -0.3262
  980SOL    HW2 3993   0.025   2.413   2.054 -0.4239 -0.5579 -0.4196
  980SOL    HW3 3994   0.023   2.488   1.922 -0.9765 -0.1472 -0.1812
  980SOL    MW4 3995   0.038   2.415   1.968  0.1729 -0.0117 -0.3194
  981SOL     OW 3996   4.488   2.658   1.833 -0.1446  0.3639 -0.3962
  981SOL    HW2 3997   4.419   2.702   1.882 -0.7184 -0.7374 -0.1922
  981SOL    HW3 3998   4.451   2.646   1.745 -1.2373 -2.4291  0.3582
  981SOL    MW4 3999   4.474   2.662   1.828 -0.3643 -0.1497 -0.2698
  982SOL     OW 4000   0.243   2.798   1.933  0.2666 -0.5068 -0.4583
  982SOL    HW2 4001   0.209   2.809   2.022  1.1469  0.0982 -0.1909
  982SOL    HW3 4002   0.176   2.747   1.888 -0.6341  0.0002  0.2840
  982SOL    MW4 4003   0.230   2.793   1.939  0.2639 -0.3603 -0.3251
  983SOL     OW 4004   0.264   3.074   1.846 -0.2995  0.1172 -0.6205
  983SOL    HW2 4005   0.250   2.984   1.877  0.9907  0.0225 -0.3051
  983SOL    HW3 4006   0.231   3.074   1.756  1.6609 -1.2314 -1.3606
  983SOL    MW4 4007   0.258   3.062   1.838  0.1294 -0.0732 -0.6766
  984SOL     OW 4008   0.018   3.194   1.983 -0.0908 -0.1423  0.1462
  984SOL    HW2 4009  -0.056   3.153   1.939 -1.0121  1.4405  0.2049
  984SOL    HW3 4010   0.095   3.158   1.939 -0.9027 -1.3448 -0.3025
  984SOL    MW4 4011   0.019   3.184   1.972 -0.3195 -0.0920  0.0947
  985SOL     OW 4012   4.474   3.453   1.890  0.2509 -0.3733 -0.1885
  985SOL    HW2 4013   4.503   3.368   1.922  1.0997  0.1566  0.4621
  985SOL    HW3 4014   4.550   3.510   1.900 -0.3336  0.4856 -0.5532
  985SOL    MW4 4015   4.488   3.449   1.895  0.2856 -0.1900 -0.1507
  986SOL     OW 4016   0.195   3.606   1.953  0.0710 -0.4399  0.1513
  986SOL    HW2 4017   0.198   3.616   2.048 -0.7477  0.3445  0.1077
  986SOL    HW3 4018   0.286   3.601   1.926  0.3728  0.9823  0.8222
  986SOL    MW4 4019   0.207   3.607   1.962  0.0028 -0.1488  0.2340
  987SOL     OW 4020   0.204   3.863   1.886 -0.3744  0.5408 -1.0578
  987SOL    HW2 4021   0.279   3.899   1.932 -1.0923  0.5427  0.1248
  987SOL    HW3 4022   0.194   3.774   1.921 -0.2584  0.1526 -1.9992
  987SOL    MW4 4023   0.213   3.856   1.897 -0.4538  0.4897 -1.0259
  988SOL     OW 4024   4.467   3.997   1.970 -0.2560 -0.4033  0.2042
  988SOL    HW2 4025   4.483   4.088   1.947  0.5689 -0.6317 -0.1862
  988SOL    HW3 4026   4.536   3.949   1.924 -0.5252 -1.1951  0.6126
  988SOL    MW4 4027   4.478   4.002   1.961 -0.1831 -0.5379  0.2066
  989SOL     OW 4028   4.468   4.263   1.872  0.0927  0.1007 -0.5673
  989SOL    HW2 4029   4.380   4.300   1.875  0.4019  0.7845  0.2701
  989SOL    HW3 4030   4.524   4.331   1.910  0.7978 -0.8600  0.1316
  989SOL    MW4 4031   4.464   4.277   1.877  0.2270  0.0644 -0.3647
  990SOL     OW 4032   0.199   4.399   1.978  0.6261 -0.2152 -0.1816
  990SOL    HW2 4033   0.184   4.398   2.073 -0.9745 -0.4779 -0.4168
  990SOL    HW3 4034   0.207   4.492   1.956 -0.0435 -0.0942  0.0704
  990SOL    MW4 4035   0.198   4.411   1.988  0.3266 -0.2337 -0.1794
  991SOL     OW 4036   0.679   0.001   1.869 -0.0342  0.1452 -0.0746
  991SOL    HW2 4037   0.662  -0.088   1.900  0.5287  0.5685  1.4971
  991SOL    HW3 4038   0.704  -0.010   1.777  0.2500 -1.3389  0.1615
  991SOL    MW4 4039   0.680  -0.012   1.861  0.0775  0.0052  0.1638
  992SOL     OW 4040   0.431   0.137   1.964 -0.1413  0.2341 -0.0491
  992SOL    HW2 4041   0.442   0.223   1.923 -1.6270 -0.3915 -1.8479
  992SOL    HW3 4042   0.510   0.089   1.941 -0.3414  0.3580 -1.0212
  992SOL    MW4 4043   0.443   0.142   1.956 -0.3637  0.1679 -0.4146
  993SOL     OW 4044   0.435   0.388   1.839  0.4343 -0.8138 -0.1698
  993SOL    HW2 4045   0.503   0.451   1.865 -0.6117 -0.5254  2.0087
  993SOL    HW3 4046   0.440   0.384   1.744  0.5463  2.5533 -0.3540
  993SOL    MW4 4047   0.445   0.395   1.830  0.3111 -0.3316  0.0933
  994SOL     OW 4048   0.640   0.548   1.954  0.1066  0.3015 -0.4888
  994SOL    HW2 4049   0.635   0.559   2.049 -1.1191  0.4316 -0.5710
  994SOL    HW3 4050   0.713   0.487   1.941 -1.8350 -2.3509  0.7108
  994SOL    MW4 4051   0.649   0.542   1.965 -0.3113 -0.0312 -0.3414
  995SOL     OW 4052   0.684   0.810   1.843  0.2026 -0.5543  0.0974
  995SOL    HW2 4053   0.763   0.842   1.885  0.6151 -0.7224 -0.5452
  995SOL    HW3 4054   0.656   0.736   1.897  0.2235 -0.2045  0.5874
  995SOL    MW4 4055   0.691   0.804   1.856  0.2598 -0.5303  0.0771
  996SOL     OW 4056   0.440   0.923   1.926 -0.1559  0.1156  0.0520
  996SOL    HW2 4057   0.445   1.018   1.930  1.5570  0.0063  0.6728
  996SOL    HW3 4058   0.521   0.895   1.884  0.7331 -1.2191  2.5117
  996SOL    MW4 4059   0.451   0.932   1.921  0.1874 -0.0749  0.4585
  997SOL     OW 4060   0.480   1.198   1.899  0.2385  0.2274  0.0921
  997SOL    HW2 4061   0.394   1.224   1.933  0.3504  0.7393 -0.0113
  997SOL    HW3 4062   0.471   1.203   1.804  0.1937 -0.3445  0.0601
  997SOL    MW4 4063   0.467   1.202   1.891  0.2473  0.2195  0.0743
  998SOL     OW 4064   0.710   1.344   1.981  0.3799 -0.2775 -0.2890
  998SOL    HW2 4065   0.712   1.340   2.077 -0.0292 -0.5207 -0.2874
  998SOL    HW3 4066   0.628   1.300   1.958 -0.3959  1.3159 -0.6685
  998SOL    MW4 4067   0.699   1.338   1.991  0.2236 -0.0994 -0.3389
  999SOL     OW 4068   0.694   1.613   1.869 -0.0430  0.1099 -0.2856
  999SOL    HW2 4069   0.700   1.527   1.912 -1.1844  0.9013  1.5527
  999SOL    HW3 4070   0.697   1.594   1.776  0.9655 -1.8239  0.1150
  999SOL    MW4 4071   0.695   1.599   1.863 -0.0605 -0.0408  0.0098
 1000SOL     OW 4072   0.446   1.702   2.003  0.7800 -0.3711 -0.1988
 1000SOL    HW2 4073   0.456   1.698   2.098 -0.7238  0.6362  0.0142
 1000SOL    HW3 4074   0.531   1.674   1.969  1.6294  0.1488  1.4402
 1000SOL    MW4 4075   0.459   1.698   2.011  0.6936 -0.1695  0.0455
 1001SOL     OW 4076   0.465   1.956   1.915  0.1868 -0.3346  0.3272
 1001SOL    HW2 4077   0.446   1.869   1.952 -2.1240 -0.1447 -0.3402
 1001SOL    HW3 4078   0.382   2.002   1.919  1.0171  1.2946 -0.8438
 1001SOL    MW4 4079   0.452   1.950   1.920 -0.0085 -0.0947  0.0846
 1002SOL     OW 4080   0.718   2.049   1.963 -0.1718 -0.0639 -0.4359
 1002SOL    HW2 4081   0.702   2.066   2.056  1.2075 -0.3964 -0.1223
 1002SOL    HW3 4082   0.637   2.009   1.931 -0.2221 -1.0461  0.9019
 1002SOL    MW4 4083   0.705   2.046   1.971  0.0035 -0.2375 -0.2180
 1003SOL     OW 4084   0.706   2.303   1.877 -0.4976  0.9335  0.6949
 1003SOL    HW2 4085   0.695   2.214   1.911  0.0279  0.2022 -0.9701
 1003SOL    HW3 4086   0.700   2.293   1.782  1.1751  2.4309  0.4085
 1003SOL    MW4 4087   0.704   2.290   1.869 -0.2076  1.0345  0.4374
 1004SOL     OW 4088   0.471   2.442   1.942 -0.5300  0.1656  0.0217
 1004SOL    HW2 4089   0.458   2.451   2.036 -0.8350  0.5223 -0.0527
 1004SOL    HW3 4090   0.555   2.396   1.933 -0.4400  0.2443  0.4620
 1004SOL    MW4 4091   0.480   2.437   1.953 -0.5583  0.2229  0.0699
 1005SOL     OW 4092   0.484   2.711   1.855  0.0455 -0.2271  0.1578
 1005SOL    HW2 4093   0.472   2.622   1.888 -0.6765 -0.1401  0.1200
 1005SOL    HW3 4094   0.407   2.758   1.884  0.4216  0.3894  0.1632
 1005SOL    MW4 4095   0.472   2.705   1.863 -0.0001 -0.1342  0.1535
 1006SOL     OW 4096   0.696   2.875   1.969  0.0878  0.4391  0.0870
 1006SOL    HW2 4097   0.680   2.869   2.063 -0.3383  2.0831  0.1345
 1006SOL    HW3 4098   0.637   2.810   1.930  0.9498 -0.9168  1.0000
 1006SOL    MW4 4099   0.686   2.865   1.976  0.1453  0.4773  0.2136
 1007SOL     OW 4100   0.682   3.147   1.877 -0.6167 -0.2608  0.0012
 1007SOL    HW2 4101   0.687   3.060   1.917  1.2578  1.0077  2.6127
 1007SOL    HW3 4102   0.697   3.131   1.784  0.8902 -2.6082  0.6100
 1007SOL    MW4 4103   0.684   3.133   1.870 -0.1705 -0.4029  0.4261
 1008SOL     OW 4104   0.441   3.243   1.976 -0.0893 -0.3466 -0.4985
 1008SOL    HW2 4105   0.377   3.186   1.934 -0.7751  1.2670 -1.7394
 1008SOL    HW3 4106   0.526   3.216   1.940 -0.4959 -0.0761 -1.6748
 1008SOL    MW4 4107   0.444   3.232   1.966 -0.2334 -0.0978 -0.8175
 1009SOL     OW 4108   0.445   3.503   1.858 -0.6638  0.1164 -0.0428
 1009SOL    HW2 4109   0.425   3.429   1.916 -0.6033  0.7913  0.8643
 1009SOL    HW3 4110   0.522   3.544   1.898 -0.5724  0.5412 -0.6560
 1009SOL    MW4 4111   0.452   3.499   1.871 -0.6437  0.2615 -0.0041
 1010SOL     OW 4112   0.675   3.607   1.969 -0.2984  0.1990  0.4376
 1010SOL    HW2 4113   0.677   3.698   1.939 -0.2963  0.1867  0.4004
 1010SOL    HW3 4114   0.758   3.570   1.937  0.4988  0.6556  1.9308
 1010SOL    MW4 4115   0.686   3.614   1.961 -0.1930  0.2575  0.6298
 1011SOL     OW 4116   0.655   3.874   1.901  0.0659  0.1590 -0.4832
 1011SOL    HW2 4117   0.742   3.905   1.924 -0.4279  0.0105  1.6954
 1011SOL    HW3 4118   0.656   3.868   1.805  1.6269  2.4819 -0.6500
 1011SOL    MW4 4119   0.667   3.877   1.891  0.2066  0.4461 -0.2179
 1012SOL     OW 4120   0.417   3.991   2.021 -0.5631  0.0850 -0.3567
 1012SOL    HW2 4121   0.402   4.079   1.988 -0.8441  0.3815  0.5513
 1012SOL    HW3 4122   0.496   3.962   1.976 -0.0233  1.1007 -0.0804
 1012SOL    MW4 4123   0.426   3.999   2.011 -0.5289  0.2582 -0.2005
 1013SOL     OW 4124   0.420   4.269   1.917 -0.2382  0.1615  0.0625
 1013SOL    HW2 4125   0.336   4.311   1.933 -0.1154  0.9772 -1.3247
 1013SOL    HW3 4126   0.418   4.244   1.825  0.4626 -1.1485  0.3861
 1013SOL    MW4 4127   0.409   4.271   1.907 -0.1295  0.0963 -0.0778
 1014SOL     OW 4128   0.661   4.414   1.953  0.0023 -0.3697  0.5993
 1014SOL    HW2 4129   0.732   4.354   1.935 -0.5305 -1.0669  0.7840
 1014SOL    HW3 4130   0.581   4.364   1.932 -0.3996  0.7325 -0.5658
 1014SOL    MW4 4131   0.660   4.400   1.948 -0.1210 -0.3161  0.4699
 1015SOL     OW 4132   1.054   4.648   1.824 -0.1187  0.1562  0.3139
 1015SOL    HW2 4133   1.130   4.677   1.874  0.2990 -0.4694  0.0497
 1015SOL    HW3 4134   1.049   4.554   1.841 -0.0580 -0.0388 -0.6912
 1015SOL    MW4 4135   1.064   4.639   1.833 -0.0557  0.0477  0.1465
 1016SOL     OW 4136   0.894   0.119   2.003  0.3424 -0.4149 -0.1657
 1016SOL    HW2 4137   0.966   0.068   1.968 -0.2621 -1.4806  0.1168
 1016SOL    HW3 4138   0.816   0.080   1.964 -0.1302  0.3147  0.0330
 1016SOL    MW4 4139   0.893   0.107   1.993  0.2003 -0.4592 -0.1022
 1017SOL     OW 4140   0.870   0.379   1.889 -0.2931  0.0419  0.0839
 1017SOL    HW2 4141   0.959   0.407   1.912 -0.9813  1.6993  0.8056
 1017SOL    HW3 4142   0.857   0.298   1.938  0.8097 -0.1802  0.0120
 1017SOL    MW4 4143   0.880   0.372   1.898 -0.2384  0.2312  0.1695
 1018SOL     OW 4144   1.114   0.502   1.971  0.0487  0.6049 -0.1746
 1018SOL    HW2 4145   1.170   0.442   1.923 -0.1859  0.8103 -0.7008
 1018SOL    HW3 4146   1.139   0.589   1.940  0.4796  0.7996  0.6776
 1018SOL    MW4 4147   1.125   0.506   1.961  0.0746  0.6577 -0.1315
 1019SOL     OW 4148   1.143   0.755   1.881  0.0390 -0.1957 -0.2338
 1019SOL    HW2 4149   1.210   0.812   1.918  0.3774 -1.2867  0.8680
 1019SOL    HW3 4150   1.060   0.796   1.904  0.2885  0.0333  0.2466
 1019SOL    MW4 4151   1.141   0.768   1.889  0.1166 -0.3095 -0.0249
 1020SOL     OW 4152   0.922   0.897   1.959 -0.1386  0.2410 -0.2593
 1020SOL    HW2 4153   0.903   0.886   2.052 -1.0337 -0.2081 -0.4903
 1020SOL    HW3 4154   0.906   0.990   1.942  1.5842  0.6778  0.3752
 1020SOL    MW4 4155   0.918   0.908   1.969 -0.0294  0.2394 -0.2061
 1021SOL     OW 4156   0.874   1.146   1.866 -0.2033 -0.6130  0.1498
 1021SOL    HW2 4157   0.812   1.213   1.894 -2.5078 -1.8043 -1.8453
 1021SOL    HW3 4158   0.876   1.153   1.770  2.3943 -0.9302  0.1520
 1021SOL    MW4 4159   0.866   1.156   1.857 -0.1646 -0.8122 -0.1131
 1022SOL     OW 4160   1.124   1.252   1.961  0.0043 -0.8395  0.4400
 1022SOL    HW2 4161   1.125   1.343   1.931  1.2467 -0.7524  0.7187
 1022SOL    HW3 4162   1.053   1.212   1.911  0.5777 -0.1444 -0.9901
 1022SOL    MW4 4163   1.115   1.259   1.950  0.2438 -0.7364  0.2882
 1023SOL     OW 4164   1.104   1.520   1.885  0.3515 -0.1522 -0.2226
 1023SOL    HW2 4165   1.045   1.584   1.925 -0.2930 -0.5462 -0.5192
 1023SOL    HW3 4166   1.084   1.526   1.791 -0.6364 -1.6835 -0.1324
 1023SOL    MW4 4167   1.093   1.530   1.878  0.1361 -0.4061 -0.2499
 1024SOL     OW 4168   0.922   1.713   1.992  0.2120 -0.6106 -0.0221
 1024SOL    HW2 4169   0.938   1.801   1.959  0.3088 -0.5794  0.1062
 1024SOL    HW3 4170   0.837   1.688   1.955  0.2589 -0.5263 -0.1874
 1024SOL    MW4 4171   0.913   1.721   1.983  0.2310 -0.5953 -0.0269
 1025SOL     OW 4172   0.970   1.954   1.885  0.3745  0.2085 -0.4569
 1025SOL    HW2 4173   0.884   1.988   1.906 -0.1788 -0.9336 -0.8109
 1025SOL    HW3 4174   0.980   1.969   1.791  0.4476  0.1032 -0.4673
 1025SOL    MW4 4175   0.960   1.960   1.875  0.3112  0.0440 -0.5047
 1026SOL     OW 4176   1.153   2.103   2.026  0.0492 -0.1940 -0.1779
 1026SOL    HW2 4177   1.157   2.181   1.971 -1.0142  0.2428  0.3481
 1026SOL    HW3 4178   1.083   2.050   1.989 -0.5233  0.0002  0.6213
 1026SOL    MW4 4179   1.144   2.106   2.014 -0.1667 -0.1104 -0.0031
 1027SOL     OW 4180   1.148   2.357   1.860  0.3404 -0.2109  0.3206
 1027SOL    HW2 4181   1.218   2.409   1.899  0.0238  0.6675 -0.2905
 1027SOL    HW3 4182   1.173   2.346   1.769  0.5261 -1.3342  0.5016
 1027SOL    MW4 4183   1.160   2.362   1.853  0.3231 -0.2432  0.2639
 1028SOL     OW 4184   0.924   2.457   1.981  0.1396  0.5461 -0.6616
 1028SOL    HW2 4185   0.998   2.433   1.927 -0.5922 -0.1473 -1.3642
 1028SOL    HW3 4186   0.853   2.398   1.954  0.0876 -0.6186  1.8467
 1028SOL    MW4 4187   0.924   2.446   1.970  0.0362  0.3014 -0.4234
 1029SOL     OW 4188   0.910   2.712   1.891 -0.1125 -0.0833 -0.3296
 1029SOL    HW2 4189   0.896   2.625   1.930 -1.6731  0.3134  0.0347
 1029SOL    HW3 4190   0.835   2.764   1.922  0.9638  1.4777 -0.2976
 1029SOL    MW4 4191   0.898   2.707   1.900 -0.1764  0.1750 -0.2774
 1030SOL     OW 4192   1.139   2.861   1.954  0.0862 -0.0906  0.3309
 1030SOL    HW2 4193   1.126   2.869   2.048 -1.0971  0.9569  0.0985
 1030SOL    HW3 4194   1.074   2.796   1.926 -0.9322  1.0640 -0.0352
 1030SOL    MW4 4195   1.129   2.854   1.962 -0.2042  0.2000  0.2520
 1031SOL     OW 4196   1.127   3.117   1.832  0.1422  0.2210 -0.1446
 1031SOL    HW2 4197   1.058   3.164   1.880  2.8867  2.2238  1.9967
 1031SOL    HW3 4198   1.155   3.049   1.893  1.1031  0.3914 -0.4030
 1031SOL    MW4 4199   1.121   3.114   1.847  0.6311  0.5078  0.1038
 1032SOL     OW 4200   0.917   3.240   1.970  0.1434 -0.2399 -0.0662
 1032SOL    HW2 4201   0.913   3.210   2.061  0.5937 -1.0491 -0.3161
 1032SOL    HW3 4202   0.835   3.207   1.931  1.0172 -1.8758 -0.5594
 1032SOL    MW4 4203   0.905   3.232   1.977  0.3181 -0.5624 -0.1642
 1033SOL     OW 4204   0.927   3.494   1.865  0.0130  0.2871 -0.0403
 1033SOL    HW2 4205   0.931   3.406   1.902 -1.5439  0.7474  1.2737
 1033SOL    HW3 4206   0.934   3.480   1.770  0.7367 -1.1696  0.2192
 1033SOL    MW4 4207   0.928   3.480   1.857 -0.0970  0.1554  0.1673
 1034SOL     OW 4208   1.178   3.599   1.903 -0.0283  0.3605 -0.2991
 1034SOL    HW2 4209   1.163   3.606   1.997 -0.5308  1.7240 -0.4744
 1034SOL    HW3 4210   1.102   3.551   1.870  1.2201 -2.0647  0.2817
 1034SOL    MW4 4211   1.166   3.594   1.911  0.0701  0.2205 -0.2456
 1035SOL     OW 4212   1.132   3.864   1.832 -0.0977 -0.0953  0.0317
 1035SOL    HW2 4213   1.158   3.774   1.852  1.1368  0.2634  0.1101
 1035SOL    HW3 4214   1.123   3.866   1.737 -0.4181 -0.3727  0.0545
 1035SOL    MW4 4215   1.134   3.852   1.822  0.0229 -0.0846  0.0451
 1036SOL     OW 4216   0.895   3.974   1.959  0.1147  0.4697 -0.4285
 1036SOL    HW2 4217   0.908   4.007   2.048  0.4535  1.5354 -0.8514
 1036SOL    HW3 4218   0.973   3.922   1.941  0.9048  1.7305 -0.7304
 1036SOL    MW4 4219   0.907   3.972   1.968  0.2637  0.7765 -0.5242
 1037SOL     OW 4220   0.887   4.242   1.875 -0.6396 -0.4870  0.2131
 1037SOL    HW2 4221   0.967   4.282   1.908 -0.8438 -0.9466  1.2518
 1037SOL    HW3 4222   0.888   4.153   1.908 -1.4779 -0.5623  0.0478
 1037SOL    MW4 4223   0.897   4.236   1.884 -0.7771 -0.5574  0.3284
 1038SOL     OW 4224   1.091   4.401   1.976  0.0005 -0.0148  0.2006
 1038SOL    HW2 4225   1.078   4.402   2.071  0.6125  1.0897  0.2736
 1038SOL    HW3 4226   1.178   4.363   1.965 -0.4155 -0.9268  0.0374
 1038SOL    MW4 4227   1.101   4.396   1.987  0.0262  0.0110  0.1888
 1039SOL     OW 4228   1.545   4.584   1.853  0.1047  0.2039  0.1959
 1039SOL    HW2 4229   1.600   4.647   1.900 -1.1644  0.9105  0.7773
 1039SOL    HW3 4230   1.568   4.499   1.890  3.2819  0.0590 -1.9992
 1039SOL    MW4 4231   1.555   4.581   1.864  0.3564  0.2780 -0.0169
 1040SOL     OW 4232   1.307   0.068   1.936 -0.2554  0.1726 -0.2660
 1040SOL    HW2 4233   1.306   0.066   2.032 -1.3708 -1.2494 -0.2962
 1040SOL    HW3 4234   1.383   0.014   1.912 -1.1325 -1.1106 -0.2029
 1040SOL    MW4 4235   1.317   0.061   1.946 -0.5184 -0.1843 -0.2617
 1041SOL     OW 4236   1.312   0.352   1.860  0.3359  0.5235  0.0780
 1041SOL    HW2 4237   1.312   0.260   1.886 -2.8929  0.4728  0.0771
 1041SOL    HW3 4238   1.328   0.351   1.766  0.1912 -0.0403  0.0603
 1041SOL    MW4 4239   1.314   0.340   1.851 -0.1092  0.4424  0.0757
 1042SOL     OW 4240   1.531   0.513   1.985 -0.3624  0.1450  0.2494
 1042SOL    HW2 4241   1.600   0.469   1.935 -0.8708  1.1844 -1.3842
 1042SOL    HW3 4242   1.450   0.482   1.946 -0.7379  1.9580 -0.4382
 1042SOL    MW4 4243   1.530   0.503   1.974 -0.4790  0.5214 -0.0569
 1043SOL     OW 4244   1.546   0.745   1.861 -0.1354 -0.0306 -0.9676
 1043SOL    HW2 4245   1.619   0.788   1.906  0.3210 -0.2727 -1.4648
 1043SOL    HW3 4246   1.538   0.660   1.906  1.1899 -0.8273 -2.1796
 1043SOL    MW4 4247   1.555   0.739   1.873  0.0997 -0.1677 -1.1932
 1044SOL     OW 4248   1.363   0.924   1.973  0.2854  0.2191 -0.0020
 1044SOL    HW2 4249   1.366   0.919   2.069  0.8982 -0.1750 -0.0409
 1044SOL    HW3 4250   1.441   0.878   1.944  0.0010  0.1757 -0.7045
 1044SOL    MW4 4251   1.373   0.917   1.982  0.3288  0.1613 -0.0998
 1045SOL     OW 4252   1.345   1.163   1.836  0.2865 -0.4793 -0.1467
 1045SOL    HW2 4253   1.359   1.080   1.880  0.0420 -0.4342  0.0149
 1045SOL    HW3 4254   1.269   1.202   1.879  1.6386  0.7791  1.1884
 1045SOL    MW4 4255   1.337   1.157   1.847  0.4325 -0.3073  0.0507
 1046SOL     OW 4256   1.580   1.263   1.968 -0.9346  0.0005  0.7461
 1046SOL    HW2 4257   1.580   1.356   1.948  0.5293 -0.1580 -0.1467
 1046SOL    HW3 4258   1.498   1.230   1.934 -1.4120  0.9441  0.9795
 1046SOL    MW4 4259   1.569   1.271   1.961 -0.8043  0.1040  0.6591
 1047SOL     OW 4260   1.568   1.518   1.890 -0.4937 -0.2450  0.4734
 1047SOL    HW2 4261   1.644   1.572   1.911 -0.4330 -0.0252 -0.2955
 1047SOL    HW3 4262   1.495   1.560   1.935 -0.5214  0.7207 -0.4628
 1047SOL    MW4 4263   1.569   1.531   1.899 -0.4892 -0.0886  0.2486
 1048SOL     OW 4264   1.347   1.659   1.976 -0.0927  0.4792  0.5092
 1048SOL    HW2 4265   1.353   1.659   2.072  1.4153 -0.4380  0.4394
 1048SOL    HW3 4266   1.266   1.611   1.957 -0.1274  0.2011  1.3139
 1048SOL    MW4 4267   1.337   1.652   1.986  0.1017  0.3214  0.6062
 1049SOL     OW 4268   1.356   1.920   1.899  0.5705  0.0326  0.2237
 1049SOL    HW2 4269   1.342   1.832   1.936  0.3259  0.9918  2.4877
 1049SOL    HW3 4270   1.280   1.971   1.928 -0.1241  0.6193 -2.4389
 1049SOL    MW4 4271   1.344   1.915   1.908  0.4467  0.2365  0.1709
 1050SOL     OW 4272   1.581   2.076   1.958  0.4890 -0.2055  0.0331
 1050SOL    HW2 4273   1.565   2.161   1.916  1.6979 -0.0322 -0.0868
 1050SOL    HW3 4274   1.506   2.023   1.932  0.0342  0.6330 -0.4110
 1050SOL    MW4 4275   1.569   2.080   1.949  0.5884 -0.0722 -0.0412
 1051SOL     OW 4276   1.564   2.339   1.871 -0.0304 -0.1879 -0.0323
 1051SOL    HW2 4277   1.644   2.377   1.907  1.4320 -2.1240 -1.1641
 1051SOL    HW3 4278   1.560   2.370   1.781 -0.8559  0.3229  0.1677
 1051SOL    MW4 4279   1.574   2.348   1.864  0.0536 -0.3757 -0.1552
 1052SOL     OW 4280   1.333   2.469   2.015  0.0893 -0.1649  0.2647
 1052SOL    HW2 4281   1.342   2.553   1.970 -0.8182 -0.3610 -0.2960
 1052SOL    HW3 4282   1.409   2.419   1.987  1.3844  0.9433  1.6809
 1052SOL    MW4 4283   1.344   2.474   2.005  0.1404 -0.0446  0.3774
 1053SOL     OW 4284   1.356   2.715   1.846  0.1492 -0.0268 -0.1209
 1053SOL    HW2 4285   1.285   2.773   1.872  0.0216 -0.5369  0.7161
 1053SOL    HW3 4286   1.366   2.729   1.752 -0.4909  0.6670 -0.0925
 1053SOL    MW4 4287   1.348   2.725   1.837  0.0480 -0.0026 -0.0068
 1054SOL     OW 4288   1.603   2.809   1.930  0.2706 -0.0926 -0.0375
 1054SOL    HW2 4289   1.612   2.786   2.022 -0.5968  1.0264  0.3394
 1054SOL    HW3 4290   1.521   2.769   1.903 -0.2899  0.9231  0.1191
 1054SOL    MW4 4291   1.593   2.801   1.939  0.0821  0.1891  0.0330
 1055SOL     OW 4292   1.533   3.073   1.880 -0.0951 -0.2193  0.1920
 1055SOL    HW2 4293   1.565   2.988   1.912  1.6290 -0.1025 -1.1169
 1055SOL    HW3 4294   1.540   3.066   1.785 -0.7554  1.0894  0.0456
 1055SOL    MW4 4295   1.538   3.061   1.872  0.0453 -0.0315  0.0001
 1056SOL     OW 4296   1.332   3.263   1.947 -0.0788 -0.2967 -0.5427
 1056SOL    HW2 4297   1.396   3.195   1.930  0.0300 -0.1400 -0.7649
 1056SOL    HW3 4298   1.248   3.225   1.919 -0.0307 -0.3685 -0.5884
 1056SOL    MW4 4299   1.329   3.249   1.941 -0.0582 -0.2856 -0.5779
 1057SOL     OW 4300   1.383   3.482   1.793 -0.1901 -0.2680 -0.5324
 1057SOL    HW2 4301   1.365   3.400   1.838  0.0340 -1.2724 -2.2109
 1057SOL    HW3 4302   1.312   3.540   1.818 -0.2544 -0.9152  0.8119
 1057SOL    MW4 4303   1.371   3.479   1.802 -0.1689 -0.4861 -0.5766
 1058SOL     OW 4304   1.590   3.628   1.893  0.2691 -0.2762 -0.3102
 1058SOL    HW2 4305   1.567   3.636   1.986  0.2184 -0.6720 -0.2900
 1058SOL    HW3 4306   1.530   3.562   1.859  1.0975 -1.0089 -0.3539
 1058SOL    MW4 4307   1.579   3.621   1.901  0.3717 -0.4253 -0.3134
 1059SOL     OW 4308   1.577   3.899   1.844 -0.0961 -0.7041  0.5687
 1059SOL    HW2 4309   1.660   3.932   1.877  0.9409 -0.9894 -1.6773
 1059SOL    HW3 4310   1.583   3.804   1.855 -0.2879 -0.6951  0.7550
 1059SOL    MW4 4311   1.589   3.891   1.850  0.0154 -0.7405  0.2970
 1060SOL     OW 4312   1.345   3.984   1.945  0.2155 -0.1019  0.0216
 1060SOL    HW2 4313   1.425   3.956   1.901  0.0444 -1.0346  0.2936
 1060SOL    HW3 4314   1.275   3.950   1.889  0.0143  0.3528  0.0023
 1060SOL    MW4 4315   1.346   3.975   1.932  0.1663 -0.1652  0.0550
 1061SOL     OW 4316   1.336   4.264   1.894 -0.1982  0.0586  0.3692
 1061SOL    HW2 4317   1.327   4.170   1.909 -0.4626  0.1441  0.7689
 1061SOL    HW3 4318   1.326   4.275   1.800 -0.8077 -0.2437  0.3960
 1061SOL    MW4 4319   1.334   4.253   1.884 -0.3135  0.0305  0.4255
 1062SOL     OW 4320   1.585   4.321   1.972  0.1835  0.0205 -0.0938
 1062SOL    HW2 4321   1.571   4.344   2.063  0.1536  0.4435 -0.2036
 1062SOL    HW3 4322   1.505   4.274   1.946 -1.2318  2.7161 -0.8146
 1062SOL    MW4 4323   1.572   4.318   1.980 -0.0072  0.4320 -0.2034
 1063SOL     OW 4324   2.003   4.640   1.889 -0.1191  0.0961  0.1168
 1063SOL    HW2 4325   2.079   4.694   1.911  0.7511 -0.8950 -0.3814
 1063SOL    HW3 4326   2.024   4.553   1.925  0.5091 -1.0610 -2.8739
 1063SOL    MW4 4327   2.016   4.635   1.897  0.0784 -0.1884 -0.3436
 1064SOL     OW 4328   1.744   0.061   1.987  0.0859 -0.1393 -0.2007
 1064SOL    HW2 4329   1.750   0.066   2.082 -0.2366  1.1748 -0.2293
 1064SOL    HW3 4330   1.828   0.025   1.959 -0.2833 -1.6934  0.6444
 1064SOL    MW4 4331   1.756   0.057   1.996 -0.0054 -0.1710 -0.0930
 1065SOL     OW 4332   1.757   0.323   1.924  0.0813 -0.2176  0.2714
 1065SOL    HW2 4333   1.746   0.233   1.952  0.0482 -0.4298 -0.4164
 1065SOL    HW3 4334   1.762   0.319   1.829 -2.3104  0.7595  0.0665
 1065SOL    MW4 4335   1.756   0.311   1.915 -0.2387 -0.1167  0.1535
 1066SOL     OW 4336   1.986   0.463   1.989 -0.3108  0.6053  0.8364
 1066SOL    HW2 4337   1.997   0.549   1.950  2.0418 -0.0923 -0.1691
 1066SOL    HW3 4338   1.899   0.434   1.961 -0.1762  1.7031 -0.7676
 1066SOL    MW4 4339   1.976   0.470   1.980  0.0173  0.6581  0.4921
 1067SOL     OW 4340   1.967   0.722   1.917 -0.0416  0.3758 -0.3693
 1067SOL    HW2 4341   2.043   0.768   1.950 -0.6493  0.6366  0.6958
 1067SOL    HW3 4342   1.981   0.716   1.822  0.8739  1.1818 -0.2871
 1067SOL    MW4 4343   1.979   0.727   1.908 -0.0011  0.5165 -0.2179
 1068SOL     OW 4344   1.739   0.868   2.002  0.6693  0.0612  0.9037
 1068SOL    HW2 4345   1.746   0.960   1.976 -0.1872 -0.2885 -0.6911
 1068SOL    HW3 4346   1.814   0.825   1.960  0.6096 -0.1036  0.9622
 1068SOL    MW4 4347   1.750   0.874   1.993  0.5484 -0.0067  0.7011
 1069SOL     OW 4348   1.812   1.136   1.897 -0.7149  0.0413  0.3419
 1069SOL    HW2 4349   1.753   1.207   1.923 -0.5688 -0.3938  1.9726
 1069SOL    HW3 4350   1.790   1.118   1.806 -1.8324  1.1229  0.3810
 1069SOL    MW4 4351   1.801   1.143   1.889 -0.8430  0.1266  0.5623
 1070SOL     OW 4352   2.057   1.265   1.981  0.4294 -0.0173  0.7575
 1070SOL    HW2 4353   2.130   1.206   1.960  0.4213 -0.2870  1.4689
 1070SOL    HW3 4354   1.979   1.210   1.975  0.1246  0.6215 -1.4732
 1070SOL    MW4 4355   2.056   1.250   1.978  0.3884  0.0314  0.5569
 1071SOL     OW 4356   2.053   1.552   1.877  0.2650 -0.2159 -0.0649
 1071SOL    HW2 4357   2.053   1.466   1.919  0.0160 -0.6849 -1.0044
 1071SOL    HW3 4358   2.021   1.535   1.788 -1.7131  1.1491  0.3515
 1071SOL    MW4 4359   2.048   1.539   1.870 -0.0288 -0.0978 -0.1340
 1072SOL     OW 4360   1.792   1.651   1.979  0.2141 -0.0591  0.1936
 1072SOL    HW2 4361   1.790   1.741   1.948  0.5356 -0.0229  0.2761
 1072SOL    HW3 4362   1.877   1.618   1.951  0.1101 -0.3268  0.1920
 1072SOL    MW4 4363   1.803   1.658   1.971  0.2428 -0.0896  0.2042
 1073SOL     OW 4364   1.814   1.909   1.905  0.2051 -0.2186  0.3871
 1073SOL    HW2 4365   1.741   1.963   1.934 -0.1987 -0.5433 -0.0115
 1073SOL    HW3 4366   1.818   1.924   1.810 -0.8510 -2.0235  0.0440
 1073SOL    MW4 4367   1.805   1.918   1.896  0.0124 -0.4996  0.2893
 1074SOL     OW 4368   2.067   2.041   1.951 -0.6856  0.2675 -0.4340
 1074SOL    HW2 4369   2.145   1.993   1.923 -0.5378 -0.1090  0.6037
 1074SOL    HW3 4370   1.995   1.981   1.933 -0.4954 -0.3907  0.9233
 1074SOL    MW4 4371   2.068   2.027   1.945 -0.6409  0.1309 -0.1181
 1075SOL     OW 4372   2.016   2.298   1.840  0.3031 -0.1614 -0.2127
 1075SOL    HW2 4373   2.099   2.332   1.873  0.1069 -0.9771  1.1534
 1075SOL    HW3 4374   2.012   2.208   1.872 -1.1841 -0.0818 -0.1256
 1075SOL    MW4 4375   2.026   2.291   1.848  0.0811 -0.2587 -0.0210
 1076SOL     OW 4376   1.805   2.433   1.947 -0.4479  0.4111  0.4462
 1076SOL    HW2 4377   1.811   2.433   2.043 -0.8214 -0.5981  0.4827
 1076SOL    HW3 4378   1.877   2.377   1.919  0.4504  1.7571  0.0709
 1076SOL    MW4 4379   1.815   2.425   1.956 -0.3786  0.4554  0.4015
 1077SOL     OW 4380   1.834   2.683   1.844 -0.4325  0.2046  0.4024
 1077SOL    HW2 4381   1.827   2.595   1.880 -1.3132 -0.1214 -0.5515
 1077SOL    HW3 4382   1.755   2.728   1.873 -0.3194  0.4688  0.3098
 1077SOL    MW4 4383   1.823   2.677   1.853 -0.5339  0.1965  0.2643
 1078SOL     OW 4384   2.022   2.860   1.929 -0.0630 -0.1063 -0.0539
 1078SOL    HW2 4385   2.027   2.836   2.022 -0.0930 -1.0470 -0.2927
 1078SOL    HW3 4386   1.957   2.800   1.892  0.4177 -0.1566 -0.8232
 1078SOL    MW4 4387   2.014   2.849   1.937 -0.0036 -0.2370 -0.1870
 1079SOL     OW 4388   2.012   3.117   1.840 -0.2590  0.2730 -0.1042
 1079SOL    HW2 4389   1.928   3.152   1.869  0.6350  1.1971  1.4514
 1079SOL    HW3 4390   2.018   3.031   1.881 -0.1286  0.5091  0.3738
 1079SOL    MW4 4391   2.002   3.111   1.849 -0.1242  0.4261  0.1642
 1080SOL     OW 4392   1.759   3.227   1.910  0.0044  0.2614  0.2173
 1080SOL    HW2 4393   1.783   3.231   2.002  0.8953 -0.8370  0.0497
 1080SOL    HW3 4394   1.677   3.177   1.908  0.4428 -0.4779  0.3503
 1080SOL    MW4 4395   1.751   3.221   1.922  0.1800  0.0188  0.2127
 1081SOL     OW 4396   1.809   3.481   1.780  0.0364 -0.4439 -0.6054
 1081SOL    HW2 4397   1.792   3.392   1.810 -1.7118  0.0616 -0.0087
 1081SOL    HW3 4398   1.733   3.531   1.809  2.0725  1.7616  1.1410
 1081SOL    MW4 4399   1.797   3.476   1.787  0.0744 -0.0863 -0.2962
 1082SOL     OW 4400   2.044   3.557   1.929 -0.2565  0.0354 -0.4796
 1082SOL    HW2 4401   1.975   3.511   1.881  0.0213 -0.4172 -0.4520
 1082SOL    HW3 4402   2.009   3.567   2.017 -0.5325  0.3543 -0.6224
 1082SOL    MW4 4403   2.030   3.552   1.934 -0.2563  0.0179 -0.4950
 1083SOL     OW 4404   2.060   3.818   1.849 -0.3111  0.0580 -0.6201
 1083SOL    HW2 4405   2.140   3.860   1.881 -1.0665  1.3161 -0.3280
 1083SOL    HW3 4406   2.067   3.728   1.879  0.3510  0.4970  0.6058
 1083SOL    MW4 4407   2.072   3.812   1.857 -0.3233  0.2818 -0.4197
 1084SOL     OW 4408   1.823   3.963   1.949 -0.3116  0.3765  0.6175
 1084SOL    HW2 4409   1.834   4.053   1.920  0.0579 -0.2041 -1.0890
 1084SOL    HW3 4410   1.896   3.915   1.909 -2.7840 -1.4467 -1.8894
 1084SOL    MW4 4411   1.834   3.968   1.940 -0.5890  0.0594  0.0615
 1085SOL     OW 4412   1.845   4.226   1.886 -0.2504  0.2402 -0.7388
 1085SOL    HW2 4413   1.759   4.263   1.901 -0.8757 -1.7444  0.7292
 1085SOL    HW3 4414   1.852   4.218   1.791 -2.0614 -0.4491 -0.8233
 1085SOL    MW4 4415   1.835   4.229   1.875 -0.5720 -0.1130 -0.5563
 1086SOL     OW 4416   2.060   4.383   1.991 -0.3887 -0.3034 -0.1773
 1086SOL    HW2 4417   2.140   4.346   1.954  0.2360  0.9636 -0.1042
 1086SOL    HW3 4418   1.990   4.331   1.951  0.4323 -1.0052 -0.7343
 1086SOL    MW4 4419   2.061   4.372   1.981 -0.1979 -0.2294 -0.2412
 1087SOL     OW 4420   2.426   0.033   1.870  0.0138  0.5106  0.7480
 1087SOL    HW2 4421   2.517   0.061   1.882 -0.1169  0.7790  1.1343
 1087SOL    HW3 4422   2.426  -0.058   1.897 -0.0264  0.7777  1.6852
 1087SOL    MW4 4423   2.438   0.025   1.875 -0.0091  0.5813  0.9227
 1088SOL     OW 4424   2.215   0.117   2.012 -0.1862  0.4101  0.0793
 1088SOL    HW2 4425   2.220   0.079   2.099 -0.7496  1.9940  0.8301
 1088SOL    HW3 4426   2.297   0.091   1.970 -0.1576 -0.8199  0.8894
 1088SOL    MW4 4427   2.227   0.109   2.018 -0.2570  0.4568  0.2851
 1089SOL     OW 4428   2.230   0.375   1.911  0.4189  0.0601  0.0329
 1089SOL    HW2 4429   2.238   0.288   1.948 -0.8933 -0.4983 -0.9648
 1089SOL    HW3 4430   2.148   0.410   1.946  1.1811  1.1095  0.8309
 1089SOL    MW4 4431   2.220   0.368   1.920  0.3462  0.1249  0.0066
 1090SOL     OW 4432   2.464   0.501   2.003  0.0611  0.0650 -0.0156
 1090SOL    HW2 4433   2.464   0.476   2.096  1.1097  0.0773  0.0001
 1090SOL    HW3 4434   2.378   0.476   1.971  0.4296 -1.9099  0.4537
 1090SOL    MW4 4435   2.453   0.494   2.011  0.2480 -0.1939  0.0484
 1091SOL     OW 4436   2.445   0.771   1.906 -0.6255 -0.1226 -0.0706
 1091SOL    HW2 4437   2.476   0.688   1.943 -0.3366 -0.5352 -1.2105
 1091SOL    HW3 4438   2.454   0.759   1.812 -0.0935  1.4065 -0.2199
 1091SOL    MW4 4439   2.450   0.758   1.899 -0.5174  0.0247 -0.2406
 1092SOL     OW 4440   2.203   0.852   2.014  0.0084 -0.2334 -0.0506
 1092SOL    HW2 4441   2.205   0.850   2.110 -0.5208 -0.4079 -0.0433
 1092SOL    HW3 4442   2.290   0.822   1.988 -0.3075 -1.5254  0.3584
 1092SOL    MW4 4443   2.215   0.848   2.023 -0.1030 -0.4269  0.0041
 1093SOL     OW 4444   2.277   1.099   1.906 -0.0660  0.0634  0.1214
 1093SOL    HW2 4445   2.346   1.129   1.965 -0.1193 -0.3424  0.3945
 1093SOL    HW3 4446   2.253   1.012   1.940  0.6616 -0.6436 -1.1348
 1093SOL    MW4 4447   2.283   1.091   1.918  0.0231 -0.0834 -0.0083
 1094SOL     OW 4448   2.497   1.230   2.021  0.1940 -0.1194 -0.1957
 1094SOL    HW2 4449   2.474   1.235   2.114 -2.3445 -1.3153 -0.7245
 1094SOL    HW3 4450   2.479   1.317   1.987  0.0610  0.0074  0.1994
 1094SOL    MW4 4451   2.491   1.242   2.029 -0.1585 -0.2605 -0.2131
 1095SOL     OW 4452   2.491   1.476   1.861 -0.1468 -0.3989 -0.2169
 1095SOL    HW2 4453   2.419   1.531   1.893 -0.5489 -0.7144 -0.5797
 1095SOL    HW3 4454   2.474   1.464   1.768  0.5537 -0.2145 -0.3778
 1095SOL    MW4 4455   2.479   1.482   1.853 -0.1073 -0.4162 -0.2861
 1096SOL     OW 4456   2.301   1.638   1.964  0.3134 -0.2101 -0.4460
 1096SOL    HW2 4457   2.290   1.644   2.059 -1.2678  0.0019 -0.6384
 1096SOL    HW3 4458   2.216   1.608   1.931  0.3918  1.1319 -1.9256
 1096SOL    MW4 4459   2.289   1.635   1.972  0.1152 -0.0051 -0.6666
 1097SOL     OW 4460   2.286   1.892   1.865 -0.1037  0.1031 -0.2237
 1097SOL    HW2 4461   2.365   1.942   1.885  0.6091 -0.8178 -0.6819
 1097SOL    HW3 4462   2.301   1.807   1.907 -0.7119 -0.1821 -0.5866
 1097SOL    MW4 4463   2.299   1.887   1.874 -0.0899 -0.0560 -0.3320
 1098SOL     OW 4464   2.505   2.047   1.973 -0.2113  0.7571 -0.1162
 1098SOL    HW2 4465   2.592   2.022   1.942  0.5835  1.4278  1.5006
 1098SOL    HW3 4466   2.497   2.140   1.950  0.1229  1.0891  1.0620
 1098SOL    MW4 4467   2.515   2.056   1.966 -0.0622  0.8895  0.2526
 1099SOL     OW 4468   2.502   2.303   1.869  0.5812  0.2695 -0.1912
 1099SOL    HW2 4469   2.578   2.351   1.904  0.1111  1.5780 -0.9382
 1099SOL    HW3 4470   2.430   2.327   1.927  0.2449  0.8275 -0.8431
 1099SOL    MW4 4471   2.503   2.313   1.881  0.4749  0.5155 -0.3757
 1100SOL     OW 4472   2.262   2.407   1.977 -0.0009 -0.1611  0.1351
 1100SOL    HW2 4473   2.269   2.423   2.071 -0.6322  1.4955 -0.0903
 1100SOL    HW3 4474   2.235   2.491   1.940 -1.9833 -1.3552 -1.2506
 1100SOL    MW4 4475   2.259   2.420   1.985 -0.3459 -0.0999 -0.0775
 1101SOL     OW 4476   2.224   2.682   1.876  0.3568 -0.2970  0.1029
 1101SOL    HW2 4477   2.158   2.749   1.895  1.7858  0.7496  1.5351
 1101SOL    HW3 4478   2.235   2.686   1.781 -0.4283  0.6864  0.0407
 1101SOL    MW4 4479   2.216   2.691   1.866  0.4420 -0.0291  0.2837
 1102SOL     OW 4480   2.456   2.779   2.000  0.1263  0.1228 -0.1221
 1102SOL    HW2 4481   2.446   2.867   1.964 -1.0714  0.3806  0.8112
 1102SOL    HW3 4482   2.382   2.730   1.964  1.1969 -0.7255 -1.2284
 1102SOL    MW4 4483   2.445   2.784   1.990  0.1094  0.0451 -0.1450
 1103SOL     OW 4484   2.448   3.048   1.905  0.5282  0.3745  0.1650
 1103SOL    HW2 4485   2.382   3.114   1.928  1.0624  0.7905  0.5050
 1103SOL    HW3 4486   2.445   3.044   1.810 -1.1945 -0.8422  0.2380
 1103SOL    MW4 4487   2.439   3.057   1.896  0.3717  0.2689  0.2195
 1104SOL     OW 4488   2.234   3.225   1.939 -0.0597  0.1528  0.1787
 1104SOL    HW2 4489   2.215   3.230   2.032  1.1328  1.3793  0.3629
 1104SOL    HW3 4490   2.159   3.178   1.902 -0.8697  0.2658  1.6404
 1104SOL    MW4 4491   2.221   3.219   1.946 -0.0093  0.3295  0.3959
 1105SOL     OW 4492   2.292   3.471   1.823 -0.0323 -0.4466 -0.0800
 1105SOL    HW2 4493   2.285   3.382   1.857  0.7470 -0.5314 -0.1174
 1105SOL    HW3 4494   2.215   3.516   1.856  0.5225 -0.6357  1.5110
 1105SOL    MW4 4495   2.281   3.465   1.832  0.1438 -0.4828  0.1249
 1106SOL     OW 4496   2.519   3.571   1.975 -0.5749 -0.1300 -0.1406
 1106SOL    HW2 4497   2.484   3.576   2.064 -0.7642  0.3239 -0.2404
 1106SOL    HW3 4498   2.447   3.532   1.923 -0.3561 -0.6798 -0.0391
 1106SOL    MW4 4499   2.505   3.566   1.980 -0.5713 -0.1428 -0.1404
 1107SOL     OW 4500   2.481   3.816   1.830  0.5227 -0.3585  0.1200
 1107SOL    HW2 4501   2.412   3.857   1.882  0.4855  0.4161 -0.5262
 1107SOL    HW3 4502   2.488   3.727   1.865 -0.9038 -0.4875  0.1021
 1107SOL    MW4 4503   2.473   3.810   1.841  0.3295 -0.2732  0.0323
 1108SOL     OW 4504   2.282   3.961   1.954 -0.3393 -0.1503  0.1489
 1108SOL    HW2 4505   2.276   4.053   1.930 -1.6923 -0.5491 -1.1272
 1108SOL    HW3 4506   2.278   3.960   2.049  0.8360  1.1822  0.2207
 1108SOL    MW4 4507   2.281   3.973   1.963 -0.3626 -0.0272 -0.0100
 1109SOL     OW 4508   2.273   4.250   1.884 -0.2624 -0.6614 -0.2306
 1109SOL    HW2 4509   2.341   4.310   1.915 -1.0491  0.2480 -0.2413
 1109SOL    HW3 4510   2.275   4.258   1.789  1.3916 -2.6126 -0.3793
 1109SOL    MW4 4511   2.282   4.259   1.876 -0.1478 -0.7992 -0.2517
 1110SOL     OW 4512   2.468   4.449   1.962 -0.1405  0.5339  0.1816
 1110SOL    HW2 4513   2.473   4.440   2.057 -1.6028 -0.4519  0.1707
 1110SOL    HW3 4514   2.533   4.387   1.929  1.1513  1.6714  0.5575
 1110SOL    MW4 4515   2.477   4.440   1.970 -0.1631  0.5536  0.2297
 1111SOL     OW 4516   2.871   4.606   1.872  0.0200  0.0846 -0.2847
 1111SOL    HW2 4517   2.958   4.641   1.892 -0.7110  1.3244  0.8279
 1111SOL    HW3 4518   2.869   4.521   1.915  0.2523  0.5884  0.7408
 1111SOL    MW4 4519   2.882   4.600   1.880 -0.0455  0.3147 -0.0026
 1112SOL     OW 4520   2.692   0.124   1.972  0.4965  0.1746 -0.2871
 1112SOL    HW2 4521   2.692   0.126   2.067 -0.3149  0.8077 -0.2973
 1112SOL    HW3 4522   2.762   0.062   1.949  2.0954  1.6120  0.6623
 1112SOL    MW4 4523   2.702   0.116   1.981  0.6003  0.4478 -0.1632
 1113SOL     OW 4524   2.691   0.378   1.854 -0.1614  0.4952  0.0787
 1113SOL    HW2 4525   2.709   0.296   1.901 -1.6919 -0.5928 -1.1823
 1113SOL    HW3 4526   2.607   0.408   1.890  0.2600  1.3764  0.3388
 1113SOL    MW4 4527   2.682   0.371   1.865 -0.3078  0.4679 -0.0534
 1114SOL     OW 4528   2.886   0.514   2.015 -0.3164 -0.0404  0.1832
 1114SOL    HW2 4529   2.899   0.602   1.979  0.2948 -0.2012  0.0011
 1114SOL    HW3 4530   2.828   0.471   1.953 -2.2314  0.8678  1.2857
 1114SOL    MW4 4531   2.880   0.520   2.002 -0.4885  0.0582  0.3045
 1115SOL     OW 4532   2.907   0.777   1.910  0.3481 -0.5580  0.3683
 1115SOL    HW2 4533   2.985   0.824   1.939 -0.5340 -0.0142  1.9405
 1115SOL    HW3 4534   2.834   0.824   1.950 -0.6641 -2.2563  0.5858
 1115SOL    MW4 4535   2.908   0.790   1.919  0.0982 -0.7104  0.6044
 1116SOL     OW 4536   2.672   0.885   2.017 -0.0687  0.0051 -0.1292
 1116SOL    HW2 4537   2.663   0.974   1.982  0.7011  0.5537  1.0579
 1116SOL    HW3 4538   2.599   0.837   1.978 -0.6905  1.2379 -0.5148
 1116SOL    MW4 4539   2.661   0.890   2.007 -0.0494  0.2401 -0.0234
 1117SOL     OW 4540   2.708   1.127   1.880  0.0791  0.0022 -0.2539
 1117SOL    HW2 4541   2.634   1.180   1.909  0.3490 -0.4857  1.3567
 1117SOL    HW3 4542   2.704   1.131   1.784 -0.8797  1.5627 -0.1683
 1117SOL    MW4 4543   2.698   1.134   1.871 -0.0119  0.1438 -0.0302
 1118SOL     OW 4544   2.886   1.307   1.989  0.3246 -0.0676 -0.4861
 1118SOL    HW2 4545   2.881   1.386   1.937 -0.1611  0.9918  1.1299
 1118SOL    HW3 4546   2.814   1.252   1.957 -0.3621  0.8313 -0.4900
 1118SOL    MW4 4547   2.876   1.310   1.978  0.1700  0.1907 -0.2735
 1119SOL     OW 4548   2.915   1.553   1.833  0.2210 -0.0851  0.3739
 1119SOL    HW2 4549   2.983   1.602   1.880  0.2453  0.7374 -0.5096
 1119SOL    HW3 4550   2.914   1.591   1.745  0.3585 -1.7982 -0.3799
 1119SOL    MW4 4551   2.924   1.564   1.828  0.2422 -0.2027  0.1580
 1120SOL     OW 4552   2.697   1.654   1.986 -0.2896  0.4732 -0.0390
 1120SOL    HW2 4553   2.764   1.617   1.930  1.2019 -0.8515  2.5080
 1120SOL    HW3 4554   2.617   1.605   1.965  0.0150  0.6588 -1.6435
 1120SOL    MW4 4555   2.695   1.643   1.976 -0.0522  0.3229  0.0855
 1121SOL     OW 4556   2.712   1.892   1.856 -0.1977 -0.6778 -0.0668
 1121SOL    HW2 4557   2.792   1.931   1.891 -0.1848 -1.8779  1.2650
 1121SOL    HW3 4558   2.703   1.809   1.903 -2.0750 -0.6835 -0.4060
 1121SOL    MW4 4559   2.722   1.887   1.866 -0.4435 -0.8368  0.0641
 1122SOL     OW 4560   2.906   2.053   1.989  0.0864 -0.0448  0.0626
 1122SOL    HW2 4561   2.912   2.059   2.085 -0.7546  0.0805  0.1129
 1122SOL    HW3 4562   2.992   2.020   1.962  0.3557 -0.0150  0.8547
 1122SOL    MW4 4563   2.918   2.049   1.998  0.0107 -0.0246  0.1736
 1123SOL     OW 4564   2.922   2.299   1.843 -0.2237  0.3420 -0.3590
 1123SOL    HW2 4565   3.014   2.314   1.864 -0.1270 -1.8123  0.8749
 1123SOL    HW3 4566   2.901   2.216   1.885 -2.6265  0.5990 -0.9878
 1123SOL    MW4 4567   2.931   2.290   1.851 -0.5281  0.0918 -0.2791
 1124SOL     OW 4568   2.715   2.417   2.003 -0.1290 -0.5492  0.1646
 1124SOL    HW2 4569   2.704   2.507   1.973 -0.2726 -0.8387 -0.6590
 1124SOL    HW3 4570   2.800   2.390   1.966 -0.2482 -0.8641  0.1208
 1124SOL    MW4 4571   2.725   2.425   1.994 -0.1638 -0.6289  0.0502
 1125SOL     OW 4572   2.688   2.671   1.899 -0.0035 -0.5817 -0.6772
 1125SOL    HW2 4573   2.610   2.721   1.923  0.0053  0.0235 -1.9081
 1125SOL    HW3 4574   2.683   2.661   1.804  1.5093 -0.3856 -0.7940
 1125SOL    MW4 4575   2.677   2.676   1.890  0.1972 -0.4761 -0.8548
 1126SOL     OW 4576   2.896   2.836   1.962 -0.7215  0.0980  0.2132
 1126SOL    HW2 4577   2.842   2.913   1.981 -1.1613  0.7933 -3.5752
 1126SOL    HW3 4578   2.836   2.772   1.924  0.0921 -1.3312  1.2398
 1126SOL    MW4 4579   2.881   2.838   1.960 -0.6723  0.0012 -0.1512
 1127SOL     OW 4580   2.840   3.166   1.837 -0.3758 -0.2039  0.0868
 1127SOL    HW2 4581   2.806   3.256   1.843 -1.5183 -0.5873 -0.3859
 1127SOL    HW3 4582   2.793   3.119   1.905  1.3509 -0.1174  1.3571
 1127SOL    MW4 4583   2.829   3.172   1.847 -0.2987 -0.2429  0.1920
 1128SOL     OW 4584   2.697   3.034   2.035  0.2244  0.1342 -0.0885
 1128SOL    HW2 4585   2.617   3.046   1.984  1.0756  0.4035 -1.3771
 1128SOL    HW3 4586   2.688   3.096   2.107 -1.5472 -1.1193  0.8116
 1128SOL    MW4 4587   2.685   3.044   2.038  0.1028  0.0043 -0.1400
 1129SOL     OW 4588   2.728   3.439   1.847 -0.6990 -0.1789  0.1324
 1129SOL    HW2 4589   2.661   3.468   1.907 -0.2772 -1.3021  1.1713
 1129SOL    HW3 4590   2.804   3.494   1.866 -1.1578  0.7553 -0.7023
 1129SOL    MW4 4591   2.729   3.450   1.857 -0.7041 -0.2038  0.1594
 1130SOL     OW 4592   2.942   3.629   1.925  0.1830  0.0318  0.2542
 1130SOL    HW2 4593   2.945   3.616   2.019  0.3516  1.4771  0.4587
 1130SOL    HW3 4594   3.010   3.570   1.891  1.6570  1.1400  1.2339
 1130SOL    MW4 4595   2.952   3.619   1.933  0.3996  0.3686  0.4103
 1131SOL     OW 4596   2.924   3.897   1.833  0.0718  0.0310 -0.0834
 1131SOL    HW2 4597   2.927   3.803   1.853 -0.4865 -0.2886 -1.4638
 1131SOL    HW3 4598   2.910   3.901   1.739 -1.0858  1.5051  0.1311
 1131SOL    MW4 4599   2.923   3.885   1.824 -0.1547  0.1833 -0.2372
 1132SOL     OW 4600   2.684   3.977   1.945 -0.4614  0.3919 -0.3764
 1132SOL    HW2 4601   2.764   3.940   1.907 -0.2209 -1.4680  1.8106
 1132SOL    HW3 4602   2.615   3.915   1.920 -0.7976  0.6988 -0.2083
 1132SOL    MW4 4603   2.686   3.964   1.937 -0.4740  0.1872 -0.0656
 1133SOL     OW 4604   2.673   4.263   1.889  0.5876 -0.2888 -0.2410
 1133SOL    HW2 4605   2.663   4.172   1.914  0.3649 -0.0817  0.4258
 1133SOL    HW3 4606   2.700   4.260   1.797  0.7208 -1.0247 -0.1773
 1133SOL    MW4 4607   2.676   4.251   1.880  0.5755 -0.3586 -0.1446
 1134SOL     OW 4608   2.919   4.368   2.024 -0.3396 -0.3428 -0.3217
 1134SOL    HW2 4609   2.914   4.374   2.119 -1.1435 -0.0877 -0.3768
 1134SOL    HW3 4610   2.837   4.327   1.997  0.4415 -1.6236 -0.8150
 1134SOL    MW4 4611   2.908   4.364   2.033 -0.3426 -0.4783 -0.3943
 1135SOL     OW 4612   3.341   4.645   1.878 -0.4522 -0.3000  0.1215
 1135SOL    HW2 4613   3.348   4.564   1.928  1.0857  0.0970  0.5829
 1135SOL    HW3 4614   3.271   4.694   1.920  0.2709 -0.3330  1.3937
 1135SOL    MW4 4615   3.333   4.641   1.890 -0.1540 -0.2522  0.3502
 1136SOL     OW 4616   3.095   0.075   1.999 -0.2242  0.1574  0.0824
 1136SOL    HW2 4617   3.109   0.061   2.093 -0.2608  0.3782  0.1209
 1136SOL    HW3 4618   3.090   0.170   1.989 -1.1698  0.1023 -0.0144
 1136SOL    MW4 4619   3.096   0.085   2.010 -0.3536  0.1793  0.0746
 1137SOL     OW 4620   3.101   0.349   1.932 -0.1145  0.3619  0.2724
 1137SOL    HW2 4621   3.034   0.417   1.945 -0.5758  0.0886 -0.6061
 1137SOL    HW3 4622   3.100   0.333   1.837  0.6652 -0.1846  0.3553
 1137SOL    MW4 4623   3.092   0.356   1.921 -0.0725  0.2537  0.1674
 1138SOL     OW 4624   3.316   0.517   1.996  0.1962  0.2263 -0.5497
 1138SOL    HW2 4625   3.397   0.470   1.980 -1.1440 -1.9814 -1.1292
 1138SOL    HW3 4626   3.247   0.456   1.969 -1.6461  2.1848 -0.4667
 1138SOL    MW4 4627   3.317   0.503   1.990 -0.2236  0.1935 -0.6152
 1139SOL     OW 4628   3.359   0.762   1.893 -0.1436 -0.1964 -0.7856
 1139SOL    HW2 4629   3.282   0.815   1.915 -0.3743 -1.1036  0.6944
 1139SOL    HW3 4630   3.338   0.674   1.927  1.7905 -0.2998  0.2355
 1139SOL    MW4 4631   3.346   0.757   1.901  0.0813 -0.3297 -0.4557
 1140SOL     OW 4632   3.129   0.914   1.996  0.5389  0.3264 -0.2463
 1140SOL    HW2 4633   3.131   0.930   2.091  0.0224  0.3837 -0.2412
 1140SOL    HW3 4634   3.126   1.001   1.957 -0.3176  0.2830 -0.2803
 1140SOL    MW4 4635   3.129   0.928   2.004  0.3576  0.3282 -0.2501
 1141SOL     OW 4636   3.114   1.163   1.890 -0.2336 -0.1288 -0.0915
 1141SOL    HW2 4637   3.201   1.196   1.911 -0.1093  1.0363 -2.2349
 1141SOL    HW3 4638   3.054   1.217   1.941  0.2050  0.5459 -0.2864
 1141SOL    MW4 4639   3.118   1.174   1.899 -0.1595  0.1140 -0.3999
 1142SOL     OW 4640   3.352   1.276   1.968  0.4176 -0.1717  0.1190
 1142SOL    HW2 4641   3.356   1.273   2.063  2.6937  0.0768  0.0592
 1142SOL    HW3 4642   3.356   1.369   1.947 -3.1722 -0.0197 -0.1566
 1142SOL    MW4 4643   3.353   1.288   1.978  0.2444 -0.1189  0.0747
 1143SOL     OW 4644   3.353   1.543   1.883 -0.2997  0.3602 -0.1234
 1143SOL    HW2 4645   3.431   1.584   1.922  0.6049 -2.5030  1.1897
 1143SOL    HW3 4646   3.280   1.597   1.914  1.0314  2.2882 -0.2691
 1143SOL    MW4 4647   3.354   1.556   1.892 -0.0050  0.2367  0.0305
 1144SOL     OW 4648   3.133   1.689   1.967  0.3988 -0.1556 -0.7110
 1144SOL    HW2 4649   3.136   1.696   2.062 -0.1965  0.3528 -0.7286
 1144SOL    HW3 4650   3.154   1.777   1.936 -0.6787 -0.0030 -1.0290
 1144SOL    MW4 4651   3.136   1.701   1.975  0.1783 -0.0684 -0.7554
 1145SOL     OW 4652   3.140   1.960   1.875  0.2196 -0.3659  0.1045
 1145SOL    HW2 4653   3.222   1.997   1.908 -0.6785  0.9243  0.9758
 1145SOL    HW3 4654   3.154   1.950   1.781  1.2753  0.1510  0.2007
 1145SOL    MW4 4655   3.153   1.964   1.867  0.2403 -0.1274  0.2321
 1146SOL     OW 4656   3.386   2.072   1.965  0.5678 -0.0866 -0.1684
 1146SOL    HW2 4657   3.462   2.016   1.954  1.7352  1.4019  0.0974
 1146SOL    HW3 4658   3.411   2.155   1.923 -0.2460  0.9872  1.4091
 1146SOL    MW4 4659   3.399   2.076   1.958  0.6146  0.2515  0.0747
 1147SOL     OW 4660   3.405   2.322   1.840 -0.1647 -0.2510 -0.5288
 1147SOL    HW2 4661   3.316   2.353   1.858 -0.3241 -0.5549 -0.7809
 1147SOL    HW3 4662   3.410   2.318   1.745  0.6763  1.3366 -0.5531
 1147SOL    MW4 4663   3.394   2.325   1.830 -0.0746 -0.0815 -0.5653
 1148SOL     OW 4664   3.160   2.423   1.928  0.0108 -0.4941  0.1644
 1148SOL    HW2 4665   3.173   2.418   2.023 -2.0158 -1.4904  0.4217
 1148SOL    HW3 4666   3.145   2.516   1.912 -1.1664 -0.4972  1.0803
 1148SOL    MW4 4667   3.159   2.435   1.939 -0.4117 -0.6258  0.3192
 1149SOL     OW 4668   3.142   2.717   1.871 -0.7788 -0.1131  0.1196
 1149SOL    HW2 4669   3.056   2.754   1.891 -0.7358  0.8502 -1.3879
 1149SOL    HW3 4670   3.148   2.721   1.776  0.8105 -0.4696  0.1986
 1149SOL    MW4 4671   3.131   2.722   1.861 -0.5634 -0.0329 -0.0689
 1150SOL     OW 4672   3.364   2.843   2.000 -0.0199  0.0834  0.0648
 1150SOL    HW2 4673   3.367   2.842   2.096 -0.0854  0.6072  0.0757
 1150SOL    HW3 4674   3.287   2.791   1.978  0.2351 -0.3882  0.2832
 1150SOL    MW4 4675   3.355   2.836   2.010  0.0052  0.0906  0.0951
 1151SOL     OW 4676   3.337   3.095   1.873  0.3617 -0.3027  0.5936
 1151SOL    HW2 4677   3.409   3.152   1.903  0.0250  1.1443 -1.2601
 1151SOL    HW3 4678   3.360   3.009   1.907  1.6772  0.6251  2.1858
 1151SOL    MW4 4679   3.350   3.091   1.882  0.4909  0.0110  0.5591
 1152SOL     OW 4680   3.103   3.244   1.940  0.0303 -0.1370 -0.5347
 1152SOL    HW2 4681   3.025   3.199   1.908  0.0165  0.7796 -1.8295
 1152SOL    HW3 4682   3.172   3.178   1.934  0.0518  0.0288 -2.5873
 1152SOL    MW4 4683   3.102   3.229   1.935  0.0315  0.0057 -0.9764
 1153SOL     OW 4684   3.146   3.478   1.812 -0.0084  0.0018 -0.1776
 1153SOL    HW2 4685   3.128   3.398   1.861 -0.4604  0.3560  0.2521
 1153SOL    HW3 4686   3.207   3.527   1.867 -2.3343  1.4744  1.1987
 1153SOL    MW4 4687   3.151   3.474   1.826 -0.3748  0.2429  0.0607
 1154SOL     OW 4688   3.349   3.582   1.971  0.1101 -0.0366  0.3418
 1154SOL    HW2 4689   3.426   3.537   1.937 -0.1270  0.0983 -0.3871
 1154SOL    HW3 4690   3.352   3.668   1.930  0.0812  0.3029  1.0470
 1154SOL    MW4 4691   3.359   3.587   1.961  0.0749  0.0257  0.3387
 1155SOL     OW 4692   3.357   3.852   1.877  0.2785  0.5791 -0.1451
 1155SOL    HW2 4693   3.283   3.907   1.901 -0.2964  0.2553 -1.1471
 1155SOL    HW3 4694   3.364   3.861   1.782  0.0909 -1.1774 -0.3430
 1155SOL    MW4 4695   3.349   3.860   1.867  0.1779  0.3045 -0.3035
 1156SOL     OW 4696   3.152   4.036   1.975 -0.4799 -0.0405 -0.2590
 1156SOL    HW2 4697   3.138   4.046   2.069 -0.4669 -1.1561 -0.1216
 1156SOL    HW3 4698   3.071   3.997   1.942  0.0201 -0.9396 -0.4615
 1156SOL    MW4 4699   3.140   4.032   1.983 -0.4122 -0.3066 -0.2676
 1157SOL     OW 4700   3.142   4.283   1.869 -0.3462  0.3106 -0.7756
 1157SOL    HW2 4701   3.148   4.190   1.890 -1.8012  0.4924  0.5110
 1157SOL    HW3 4702   3.078   4.318   1.931  0.7848  2.3380 -0.7021
 1157SOL    MW4 4703   3.134   4.275   1.880 -0.3889  0.6027 -0.5962
 1158SOL     OW 4704   3.345   4.407   2.008 -0.1280 -0.7121  0.1329
 1158SOL    HW2 4705   3.419   4.358   1.973 -0.6851 -1.5184  0.0584
 1158SOL    HW3 4706   3.269   4.373   1.960 -0.2371  2.0795 -1.8454
 1158SOL    MW4 4707   3.345   4.396   1.997 -0.2160 -0.4501 -0.1378
 1159SOL     OW 4708   3.777   4.638   1.856 -0.0748 -0.4727  0.7430
 1159SOL    HW2 4709   3.795   4.553   1.894 -1.1998 -0.4888  1.2410
 1159SOL    HW3 4710   3.697   4.668   1.899 -1.1333 -0.3032 -1.2615
 1159SOL    MW4 4711   3.769   4.631   1.867 -0.3631 -0.4525  0.5442
 1160SOL     OW 4712   3.583   0.098   1.983  0.2464  0.1149  0.2919
 1160SOL    HW2 4713   3.570   0.080   2.076 -0.8801 -0.4696  0.0272
 1160SOL    HW3 4714   3.503   0.066   1.941  0.2537  1.3968 -0.7466
 1160SOL    MW4 4715   3.571   0.092   1.990  0.0989  0.2069  0.1199
 1161SOL     OW 4716   3.559   0.374   1.926 -0.0466  0.4246  0.0402
 1161SOL    HW2 4717   3.562   0.286   1.964 -0.4769  1.0180  1.4928
 1161SOL    HW3 4718   3.552   0.359   1.832 -3.0737 -1.1146  0.4389
 1161SOL    MW4 4719   3.559   0.360   1.919 -0.5028  0.2998  0.2844
 1162SOL     OW 4720   3.805   0.478   2.001  0.0698 -0.0991  0.1599
 1162SOL    HW2 4721   3.790   0.570   1.980  0.4011  0.2453  1.3588
 1162SOL    HW3 4722   3.719   0.437   1.992  0.4393 -0.2598 -3.0677
 1162SOL    MW4 4723   3.791   0.485   1.997  0.1621 -0.0749 -0.1076
 1163SOL     OW 4724   3.799   0.733   1.905  0.2782 -0.0227 -0.4192
 1163SOL    HW2 4725   3.716   0.778   1.925  0.5421 -0.2910  1.3533
 1163SOL    HW3 4726   3.800   0.726   1.810 -1.0920  1.2276 -0.5430
 1163SOL    MW4 4727   3.788   0.738   1.895  0.1321  0.1069 -0.2016
 1164SOL     OW 4728   3.585   0.880   1.992  0.2882 -0.2490  0.3921
 1164SOL    HW2 4729   3.593   0.963   1.945 -0.7137  0.1200  0.8541
 1164SOL    HW3 4730   3.517   0.833   1.945  0.2583 -0.4512  0.6370
 1164SOL    MW4 4731   3.577   0.885   1.980  0.1523 -0.2269  0.4854
 1165SOL     OW 4732   3.567   1.129   1.857 -0.6711  0.2983  0.0919
 1165SOL    HW2 4733   3.494   1.185   1.882 -0.2436  1.6183 -1.5454
 1165SOL    HW3 4734   3.557   1.117   1.762 -0.0079 -1.3420  0.1998
 1165SOL    MW4 4735   3.556   1.135   1.848 -0.5269  0.2559 -0.1098
 1166SOL     OW 4736   3.776   1.290   1.918 -0.4481  0.2463  0.0500
 1166SOL    HW2 4737   3.780   1.266   2.011 -0.7982  0.1273  0.0328
 1166SOL    HW3 4738   3.705   1.237   1.882 -0.6365  0.6533 -0.1804
 1166SOL    MW4 4739   3.768   1.280   1.925 -0.5193  0.2843  0.0173
 1167SOL     OW 4740   3.786   1.568   1.834  0.0212 -0.2384  0.2688
 1167SOL    HW2 4741   3.862   1.597   1.884  0.5959 -0.0288 -0.7015
 1167SOL    HW3 4742   3.782   1.474   1.848  0.3587 -0.2240  0.4623
 1167SOL    MW4 4743   3.796   1.560   1.842  0.1416 -0.2090  0.1662
 1168SOL     OW 4744   3.572   1.684   1.994 -0.2148 -0.4368 -0.0152
 1168SOL    HW2 4745   3.558   1.767   1.949  1.9590  0.7556  1.3972
 1168SOL    HW3 4746   3.644   1.643   1.946  1.1851  0.2190  1.4414
 1168SOL    MW4 4747   3.580   1.690   1.982  0.2565 -0.1930  0.3632
 1169SOL     OW 4748   3.594   1.925   1.861  0.2777 -0.1714 -0.1814
 1169SOL    HW2 4749   3.681   1.961   1.878 -0.0618  0.8125 -0.4870
 1169SOL    HW3 4750   3.588   1.918   1.766 -0.2185  0.4049 -0.2017
 1169SOL    MW4 4751   3.604   1.929   1.851  0.1674  0.0343 -0.2242
 1170SOL     OW 4752   3.845   2.027   1.960  0.1207 -0.0129 -0.2830
 1170SOL    HW2 4753   3.929   2.004   1.919 -0.1854  0.0954 -0.9825
 1170SOL    HW3 4754   3.828   2.117   1.931  0.0455  0.1729  0.3301
 1170SOL    MW4 4755   3.854   2.036   1.951  0.0701  0.0260 -0.2943
 1171SOL     OW 4756   3.815   2.287   1.852  0.2213  0.0349 -0.5091
 1171SOL    HW2 4757   3.756   2.329   1.915  0.7429 -2.1036  1.4617
 1171SOL    HW3 4758   3.898   2.334   1.862  0.0235  0.3599 -0.3518
 1171SOL    MW4 4759   3.818   2.299   1.862  0.2642 -0.2043 -0.2283
 1172SOL     OW 4760   3.618   2.412   1.990  0.0484  0.4668  0.2828
 1172SOL    HW2 4761   3.604   2.506   1.975  0.7898  0.3931 -0.8800
 1172SOL    HW3 4762   3.554   2.369   1.933  0.4712  0.2444 -0.0245
 1172SOL    MW4 4763   3.607   2.419   1.981  0.2019  0.4275  0.0888
 1173SOL     OW 4764   3.577   2.672   1.925  0.9786  0.2039  0.2072
 1173SOL    HW2 4765   3.641   2.743   1.931 -0.1331  1.4351 -1.9828
 1173SOL    HW3 4766   3.495   2.712   1.956  0.2441  0.0119 -1.4801
 1173SOL    MW4 4767   3.575   2.687   1.930  0.7350  0.3409 -0.3045
 1174SOL     OW 4768   3.800   2.837   1.939 -0.0360 -0.2291  0.3875
 1174SOL    HW2 4769   3.804   2.827   2.035  1.0685 -0.0272  0.3683
 1174SOL    HW3 4770   3.817   2.930   1.925 -1.0029 -0.1000  0.0336
 1174SOL    MW4 4771   3.802   2.848   1.950 -0.0176 -0.1853  0.3383
 1175SOL     OW 4772   3.818   3.103   1.878 -0.1282  0.0620 -0.2534
 1175SOL    HW2 4773   3.736   3.145   1.905  0.7034  0.9484  0.9358
 1175SOL    HW3 4774   3.809   3.093   1.783 -1.0029  1.5076 -0.3411
 1175SOL    MW4 4775   3.806   3.108   1.869 -0.1338  0.3695 -0.1081
 1176SOL     OW 4776   3.586   3.220   1.927  0.1261  0.5943 -0.3580
 1176SOL    HW2 4777   3.586   3.199   2.021 -2.1732 -2.0032 -0.8759
 1176SOL    HW3 4778   3.601   3.315   1.924 -1.4320  1.0104  2.7264
 1176SOL    MW4 4779   3.588   3.230   1.939 -0.3827  0.3066 -0.0193
 1177SOL     OW 4780   3.596   3.490   1.874  0.0003  0.3846  0.3832
 1177SOL    HW2 4781   3.676   3.517   1.919  0.1150  0.3440  0.2028
 1177SOL    HW3 4782   3.611   3.513   1.783  0.2525 -0.6450  0.1665
 1177SOL    MW4 4783   3.609   3.497   1.868  0.0486  0.2437  0.3307
 1178SOL     OW 4784   3.841   3.594   2.011  0.3947  0.0602  0.2670
 1178SOL    HW2 4785   3.915   3.558   1.963 -0.4173 -0.8466 -0.3465
 1178SOL    HW3 4786   3.835   3.685   1.984 -0.4725 -0.6131 -1.9071
 1178SOL    MW4 4787   3.850   3.601   2.001  0.1731 -0.1483 -0.1009
 1179SOL     OW 4788   3.777   3.848   1.880  0.1038 -0.3864 -0.1208
 1179SOL    HW2 4789   3.715   3.901   1.930  1.3141  1.8634 -0.9672
 1179SOL    HW3 4790   3.740   3.844   1.792  0.6292  0.0921 -0.3666
 1179SOL    MW4 4791   3.764   3.854   1.875  0.3331 -0.0265 -0.2649
 1180SOL     OW 4792   3.574   4.025   1.994  0.4956 -0.0125  0.1289
 1180SOL    HW2 4793   3.581   4.019   2.090  1.3233 -1.2985  0.0050
 1180SOL    HW3 4794   3.499   3.970   1.972  1.0114 -0.6494 -0.0527
 1180SOL    MW4 4795   3.565   4.017   2.004  0.6731 -0.2666  0.0885
 1181SOL     OW 4796   3.569   4.279   1.895  0.0085  0.2477  0.1013
 1181SOL    HW2 4797   3.655   4.312   1.925 -0.0958  0.1081  0.5604
 1181SOL    HW3 4798   3.566   4.189   1.926 -0.2005  0.1731 -0.1395
 1181SOL    MW4 4799   3.580   4.272   1.903 -0.0329  0.2193  0.1301
 1182SOL     OW 4800   3.813   4.418   2.011  0.1749 -0.3689  0.0195
 1182SOL    HW2 4801   3.812   4.400   2.105  0.0585  1.5235  0.3965
 1182SOL    HW3 4802   3.888   4.370   1.978  0.8728 -0.1537  1.2673
 1182SOL    MW4 4803   3.822   4.410   2.019  0.2515 -0.0901  0.2339
 1183SOL     OW 4804   4.237   0.005   1.862 -0.3855  0.4785 -0.4664
 1183SOL    HW2 4805   4.171   0.056   1.908 -0.0602  1.2828 -0.8676
 1183SOL    HW3 4806   4.320   0.034   1.900 -0.0384  1.9187 -2.2532
 1183SOL    MW4 4807   4.239   0.016   1.873 -0.2966  0.7744 -0.7551
 1184SOL     OW 4808   4.011   0.118   1.968  0.3615  0.1233 -0.2908
 1184SOL    HW2 4809   4.008   0.120   2.064  2.3642 -0.6232 -0.2031
 1184SOL    HW3 4810   3.924   0.088   1.943 -0.2372  0.4515  1.2787
 1184SOL    MW4 4811   3.999   0.114   1.978  0.5467  0.0681 -0.0721
 1185SOL     OW 4812   3.983   0.353   1.823  0.2378 -0.1712  0.5474
 1185SOL    HW2 4813   3.993   0.270   1.869  0.1769 -0.3575  0.2288
 1185SOL    HW3 4814   3.915   0.400   1.872  0.9178  0.0710  1.2555
 1185SOL    MW4 4815   3.975   0.348   1.835  0.3195 -0.1639  0.5987
 1186SOL     OW 4816   4.212   0.462   1.929 -0.1009  0.2329  0.1283
 1186SOL    HW2 4817   4.193   0.463   2.023  0.4052 -2.1652  0.2806
 1186SOL    HW3 4818   4.133   0.425   1.890  0.7769 -1.4495 -0.0946
 1186SOL    MW4 4819   4.199   0.457   1.936  0.0820 -0.3055  0.1191
 1187SOL     OW 4820   4.232   0.748   1.872  0.2628  0.3610 -0.1267
 1187SOL    HW2 4821   4.241   0.657   1.897  2.2287  0.9543  1.4037
 1187SOL    HW3 4822   4.244   0.749   1.777  0.7770 -0.8916 -0.0722
 1187SOL    MW4 4823   4.235   0.736   1.863  0.5898  0.2739  0.0824
 1188SOL     OW 4824   4.035   0.908   1.959 -0.4436 -0.2026  0.0310
 1188SOL    HW2 4825   4.107   0.851   1.934 -0.3942  0.1737 -0.7154
 1188SOL    HW3 4826   3.957   0.853   1.952 -0.4141 -0.1361 -0.8422
 1188SOL    MW4 4827   4.034   0.894   1.955 -0.4325 -0.1441 -0.1826
 1189SOL     OW 4828   4.035   1.164   1.849  0.2211 -0.1440 -0.3504
 1189SOL    HW2 4829   4.035   1.072   1.879 -0.8639 -0.3098 -0.8288
 1189SOL    HW3 4830   3.945   1.193   1.863  0.2413  0.4500 -1.4236
 1189SOL    MW4 4831   4.023   1.155   1.855  0.0806 -0.0875 -0.5552
 1190SOL     OW 4832   4.275   1.256   1.934  0.1920  0.6255  0.5723
 1190SOL    HW2 4833   4.265   1.252   2.029  1.4230 -0.8526  0.6482
 1190SOL    HW3 4834   4.191   1.225   1.899 -0.0143  0.5097  1.1760
 1190SOL    MW4 4835   4.263   1.252   1.942  0.3266  0.4152  0.6622
 1191SOL     OW 4836   4.264   1.523   1.886  0.3790 -0.2404 -0.3507
 1191SOL    HW2 4837   4.277   1.429   1.891 -0.6534 -0.4481 -1.5028
 1191SOL    HW3 4838   4.239   1.540   1.796 -2.9007  0.6908  0.6626
 1191SOL    MW4 4839   4.262   1.513   1.875 -0.1903 -0.1448 -0.3691
 1192SOL     OW 4840   4.013   1.656   1.964 -0.1762  0.3765  0.2041
 1192SOL    HW2 4841   4.013   1.655   2.060  0.7384  1.1485  0.2302
 1192SOL    HW3 4842   4.091   1.606   1.940 -0.1204  0.6240 -0.1289
 1192SOL    MW4 4843   4.024   1.649   1.973 -0.0486  0.5111  0.1634
 1193SOL     OW 4844   4.065   1.911   1.846  0.0169 -0.0029 -0.0924
 1193SOL    HW2 4845   4.030   1.831   1.886 -0.5828  0.7529  0.9258
 1193SOL    HW3 4846   4.039   1.905   1.754  0.0087 -1.0007 -0.0323
 1193SOL    MW4 4847   4.057   1.899   1.839 -0.0629 -0.0347  0.0497
 1194SOL     OW 4848   4.269   2.073   1.950  0.2252 -0.8351  0.2859
 1194SOL    HW2 4849   4.272   2.052   2.043 -0.0483 -0.2926  0.4196
 1194SOL    HW3 4850   4.203   2.015   1.914 -0.3973 -0.3352  0.6186
 1194SOL    MW4 4851   4.261   2.063   1.958  0.1068 -0.6976  0.3473
 1195SOL     OW 4852   4.273   2.335   1.860 -0.7205 -0.4806 -0.7857
 1195SOL    HW2 4853   4.267   2.242   1.882 -1.7192 -0.3673 -0.5775
 1195SOL    HW3 4854   4.357   2.363   1.898  0.1140 -1.5507 -1.8098
 1195SOL    MW4 4855   4.284   2.327   1.868 -0.7415 -0.6073 -0.8935
 1196SOL     OW 4856   4.048   2.430   1.962  0.1703 -0.0142  0.2541
 1196SOL    HW2 4857   4.048   2.428   2.057  1.4437 -0.4302  0.2475
 1196SOL    HW3 4858   4.132   2.393   1.936  0.7515  2.0815 -0.9917
 1196SOL    MW4 4859   4.059   2.425   1.971  0.4153  0.2072  0.0889
 1197SOL     OW 4860   4.022   2.698   1.891  0.2055 -0.0710  0.1878
 1197SOL    HW2 4861   4.007   2.607   1.917  0.7999  0.1333  1.2796
 1197SOL    HW3 4862   3.939   2.742   1.908  0.4775 -0.0185  1.4355
 1197SOL    MW4 4863   4.009   2.692   1.897  0.3200 -0.0370  0.4965
 1198SOL     OW 4864   4.274   2.804   1.956  0.3690  0.2178 -0.3024
 1198SOL    HW2 4865   4.293   2.813   2.049  0.4881 -2.0780 -0.0536
 1198SOL    HW3 4866   4.192   2.754   1.953  0.5011  0.0476 -1.4080
 1198SOL    MW4 4867   4.266   2.798   1.968  0.4025 -0.1075 -0.4156
 1199SOL     OW 4868   4.290   3.082   1.862 -0.0907 -0.4447 -0.1163
 1199SOL    HW2 4869   4.214   3.132   1.895 -0.2308 -1.0234  0.4541
 1199SOL    HW3 4870   4.271   2.992   1.886  0.1746 -0.7715 -1.1353
 1199SOL    MW4 4871   4.277   3.077   1.870 -0.0749 -0.5641 -0.1755
 1200SOL     OW 4872   4.049   3.207   1.975  0.5594 -0.9050  0.0487
 1200SOL    HW2 4873   4.036   3.221   2.069  1.7052 -0.7204  0.1789
 1200SOL    HW3 4874   3.980   3.145   1.951 -1.3548  0.9581  0.4968
 1200SOL    MW4 4875   4.038   3.201   1.984  0.4582 -0.6347  0.1249
 1201SOL     OW 4876   4.038   3.446   1.837 -0.0912  0.2536  0.0950
 1201SOL    HW2 4877   4.114   3.475   1.887  1.1776 -0.4736 -1.3773
 1201SOL    HW3 4878   4.026   3.355   1.863  0.4526 -0.0680 -0.7612
 1201SOL    MW4 4879   4.046   3.438   1.847  0.1473  0.1152 -0.2122
 1202SOL     OW 4880   4.251   3.605   1.940 -0.4157  0.6741  0.3685
 1202SOL    HW2 4881   4.265   3.692   1.903 -0.5177 -0.3330 -2.1297
 1202SOL    HW3 4882   4.332   3.558   1.922 -1.0130 -0.2813  0.1164
 1202SOL    MW4 4883   4.263   3.610   1.933 -0.5078  0.4153  0.0057
 1203SOL     OW 4884   4.234   3.895   1.851 -0.1710  0.2752  0.0226
 1203SOL    HW2 4885   4.312   3.943   1.880 -0.2690  1.0214 -0.9205
 1203SOL    HW3 4886   4.244   3.888   1.756  0.2006 -2.2432  0.2183
 1203SOL    MW4 4887   4.246   3.900   1.843 -0.1349  0.0415 -0.0761
 1204SOL     OW 4888   3.993   3.988   1.978  0.2351 -0.3642  0.3041
 1204SOL    HW2 4889   4.071   3.957   1.931 -0.1780  1.9422 -2.0390
 1204SOL    HW3 4890   3.921   3.938   1.940  0.2523 -0.6886  0.6893
 1204SOL    MW4 4891   3.994   3.977   1.967  0.1831 -0.1030  0.0457
 1205SOL     OW 4892   3.991   4.244   1.869 -0.2522 -0.0624 -0.3637
 1205SOL    HW2 4893   4.073   4.285   1.894 -0.4382  0.3974 -0.4986
 1205SOL    HW3 4894   3.992   4.158   1.912  0.1394  0.0845 -0.0878
 1205SOL    MW4 4895   4.002   4.238   1.878 -0.2255  0.0181 -0.3451
 1206SOL     OW 4896   4.223   4.393   1.906  0.2270  0.1797 -0.0873
 1206SOL    HW2 4897   4.229   4.390   2.002 -0.6033 -0.7938 -0.0549
 1206SOL    HW3 4898   4.227   4.486   1.884 -0.1654  0.4427  0.9353
 1206SOL    MW4 4899   4.224   4.405   1.916  0.0658  0.0858  0.0519
 1207SOL     OW 4900   0.240   0.022   2.301 -0.2838 -0.0317 -0.3748
 1207SOL    HW2 4901   0.235   0.031   2.396 -0.5479 -0.0367 -0.3866
 1207SOL    HW3 4902   0.307   0.084   2.274 -0.9319  0.7067 -0.2911
 1207SOL    MW4 4903   0.248   0.031   2.310 -0.4041  0.0651 -0.3653
 1208SOL     OW 4904   4.484   0.117   2.235 -0.0870  0.0680 -0.1882
 1208SOL    HW2 4905   4.569   0.087   2.265  0.5905  1.4478 -0.6887
 1208SOL    HW3 4906   4.489   0.114   2.139 -0.2062  1.1933 -0.2388
 1208SOL    MW4 4907   4.496   0.113   2.226 -0.0138  0.3985 -0.2608
 1209SOL     OW 4908   4.450   0.354   2.363 -0.3453  0.3996  0.0186
 1209SOL    HW2 4909   4.525   0.404   2.330  1.1465 -1.6499  0.1976
 1209SOL    HW3 4910   4.460   0.267   2.325 -1.1132 -0.6948  2.1947
 1209SOL    MW4 4911   4.462   0.349   2.354 -0.2499 -0.0152  0.3293
 1210SOL     OW 4912   0.167   0.507   2.227 -0.2206  0.2239 -0.1143
 1210SOL    HW2 4913   0.247   0.477   2.270 -0.5848 -0.6369 -0.0275
 1210SOL    HW3 4914   0.186   0.501   2.134 -0.3107 -0.3370 -0.0981
 1210SOL    MW4 4915   0.180   0.503   2.221 -0.2806  0.0364 -0.1006
 1211SOL     OW 4916   0.215   0.771   2.318  0.1082  0.1726  0.3264
 1211SOL    HW2 4917   0.201   0.767   2.413  1.0400 -0.4499  0.4465
 1211SOL    HW3 4918   0.213   0.679   2.290 -1.5959  0.4494 -0.4759
 1211SOL    MW4 4919   0.213   0.758   2.327  0.0063  0.1270  0.2363
 1212SOL     OW 4920   4.455   0.859   2.241  0.1666 -0.0034  0.1213
 1212SOL    HW2 4921   4.546   0.831   2.254 -0.0869 -0.3032  1.3018
 1212SOL    HW3 4922   4.441   0.852   2.147  1.3514 -0.0159 -0.0620
 1212SOL    MW4 4923   4.465   0.854   2.230  0.2894 -0.0445  0.2525
 1213SOL     OW 4924   4.433   1.132   2.317  0.3672 -0.7231 -0.1333
 1213SOL    HW2 4925   4.434   1.143   2.412  0.3970 -0.6297 -0.1443
 1213SOL    HW3 4926   4.451   1.039   2.303  0.3921 -0.7307 -0.0483
 1213SOL    MW4 4927   4.436   1.121   2.327  0.3743 -0.7118 -0.1235
 1214SOL     OW 4928   0.182   1.259   2.290  0.2914  0.0519  0.2329
 1214SOL    HW2 4929   0.100   1.214   2.313  0.5292 -0.7482 -0.4665
 1214SOL    HW3 4930   0.183   1.259   2.194  0.9157  0.4263  0.2391
 1214SOL    MW4 4931   0.171   1.253   2.280  0.4051 -0.0043  0.1414
 1215SOL     OW 4932   0.232   1.520   2.376 -0.2851  0.2141  0.1226
 1215SOL    HW2 4933   0.214   1.526   2.470  1.1872 -1.3804  0.5252
 1215SOL    HW3 4934   0.221   1.427   2.355  1.0834  0.2667 -0.9178
 1215SOL    MW4 4935   0.228   1.509   2.385  0.0897  0.0106  0.0384
 1216SOL     OW 4936   0.018   1.632   2.222 -0.0369 -0.1149  0.1881
 1216SOL    HW2 4937   0.011   1.721   2.258 -0.7017 -0.2372  0.3793
 1216SOL    HW3 4938   0.082   1.589   2.278  1.3042  0.6420 -0.7405
 1216SOL    MW4 4939   0.025   1.638   2.234  0.0523 -0.0314  0.0908
 1217SOL     OW 4940   0.016   1.894   2.348 -0.2781 -0.1633  0.3679
 1217SOL    HW2 4941  -0.054   1.944   2.306  0.2633 -0.3791 -0.7935
 1217SOL    HW3 4942   0.097   1.934   2.316  0.1550 -1.2792  0.0661
 1217SOL    MW4 4943   0.018   1.906   2.339 -0.1495 -0.3389  0.1750
 1218SOL     OW 4944   0.216   2.055   2.244  0.2872 -0.4041 -0.3603
 1218SOL    HW2 4945   0.299   2.016   2.267  0.1110 -0.9991 -0.7203
 1218SOL    HW3 4946   0.221   2.068   2.149 -0.3528 -1.2113 -0.5090
 1218SOL    MW4 4947   0.227   2.052   2.234  0.1795 -0.5891 -0.4275
 1219SOL     OW 4948   0.247   2.326   2.349  0.0425  0.0718 -0.1806
 1219SOL    HW2 4949   0.251   2.313   2.444  3.3631 -0.6906 -0.3809
 1219SOL    HW3 4950   0.241   2.238   2.313 -0.0166  0.3035 -0.7394
 1219SOL    MW4 4951   0.247   2.313   2.357  0.4728  0.0019 -0.2809
 1220SOL     OW 4952   0.026   2.453   2.228  0.0437  0.0496  0.1993
 1220SOL    HW2 4953   0.020   2.546   2.250  0.2833 -0.1097  0.9436
 1220SOL    HW3 4954   0.099   2.420   2.279  0.2387 -0.4600 -0.3937
 1220SOL    MW4 4955   0.035   2.461   2.237  0.1011 -0.0389  0.2191
 1221SOL     OW 4956   4.484   2.723   2.319 -0.0165 -0.2073 -0.0200
 1221SOL    HW2 4957   4.497   2.716   2.414 -0.7745 -2.0596 -0.0292
 1221SOL    HW3 4958   4.568   2.755   2.286 -0.5032  2.9461  1.5043
 1221SOL    MW4 4959   4.497   2.727   2.327 -0.1808 -0.0358  0.1798
 1222SOL     OW 4960   0.228   2.850   2.207  0.2282 -0.4216  0.1157
 1222SOL    HW2 4961   0.231   2.933   2.253 -0.2200 -1.3495  1.8685
 1222SOL    HW3 4962   0.288   2.793   2.255 -1.7211 -1.9956  0.7962
 1222SOL    MW4 4963   0.236   2.853   2.219 -0.0881 -0.7517  0.4368
 1223SOL     OW 4964   0.235   3.085   2.347  0.0824 -0.3566 -0.5746
 1223SOL    HW2 4965   0.162   3.140   2.319  1.9363  1.5419 -1.9558
 1223SOL    HW3 4966   0.229   3.084   2.442 -1.5119  0.0962 -0.6522
 1223SOL    MW4 4967   0.225   3.092   2.356  0.1166 -0.0463 -0.7672
 1224SOL     OW 4968   0.016   3.223   2.259 -0.4603  0.3405  0.5519
 1224SOL    HW2 4969   0.014   3.318   2.263 -0.1514  0.3778 -0.0683
 1224SOL    HW3 4970   0.033   3.203   2.167 -0.3911 -0.3089  0.6995
 1224SOL    MW4 4971   0.018   3.233   2.247 -0.4101  0.2594  0.4892
 1225SOL     OW 4972   4.463   3.497   2.301 -0.1005  0.0828 -0.1562
 1225SOL    HW2 4973   4.468   3.514   2.395  0.5477  0.0578 -0.1857
 1225SOL    HW3 4974   4.372   3.517   2.278  0.0703  1.3543  0.2336
 1225SOL    MW4 4975   4.452   3.502   2.310  0.0076  0.2472 -0.1085
 1226SOL     OW 4976   0.209   3.624   2.238 -0.2805  0.2527  0.0151
 1226SOL    HW2 4977   0.274   3.562   2.271  1.4125  1.8289 -0.2681
 1226SOL    HW3 4978   0.125   3.591   2.270  0.6571 -1.7801  0.4459
 1226SOL    MW4 4979   0.206   3.612   2.246  0.0666  0.1926  0.0343
 1227SOL     OW 4980   0.225   3.882   2.401  0.1943  0.1391 -0.0167
 1227SOL    HW2 4981   0.154   3.923   2.353  0.0673  0.0593  0.1020
 1227SOL    HW3 4982   0.242   3.800   2.353 -0.5962 -0.4207  0.6360
 1227SOL    MW4 4983   0.218   3.876   2.388  0.0733  0.0548  0.0851
 1228SOL     OW 4984   0.019   4.014   2.255 -0.2255  0.1721 -0.3911
 1228SOL    HW2 4985   0.003   4.105   2.277  0.7554  0.2563 -0.0171
 1228SOL    HW3 4986   0.007   4.009   2.161  1.8551  1.1387 -0.7248
 1228SOL    MW4 4987   0.015   4.025   2.246  0.1784  0.3104 -0.3858
 1229SOL     OW 4988   4.456   4.271   2.326 -0.3707  0.1561 -0.2816
 1229SOL    HW2 4989   4.454   4.262   2.421 -1.1544 -0.6952 -0.3687
 1229SOL    HW3 4990   4.534   4.324   2.308  0.4071 -0.6279  0.7463
 1229SOL    MW4 4991   4.466   4.277   2.336 -0.3714 -0.0596 -0.1574
 1230SOL     OW 4992   0.193   4.424   2.256 -0.2018 -0.2085  0.5749
 1230SOL    HW2 4993   0.269   4.374   2.285  1.4251  0.6463 -1.9600
 1230SOL    HW3 4994   0.210   4.513   2.285 -0.9875 -0.2876  1.3033
 1230SOL    MW4 4995   0.205   4.429   2.263 -0.0908 -0.1063  0.3366
 1231SOL     OW 4996   0.628   4.643   2.323  0.2139  0.2756 -0.2980
 1231SOL    HW2 4997   0.634   4.638   2.419 -1.1254 -0.2375 -0.2261
 1231SOL    HW3 4998   0.695   4.707   2.298  1.5609 -0.6645  0.8452
 1231SOL    MW4 4999   0.637   4.651   2.333  0.2150  0.0844 -0.1378
 1232SOL     OW 5000   0.471   0.193   2.233  0.5320  0.0767 -0.1031
 1232SOL    HW2 5001   0.523   0.119   2.263 -1.1061 -1.0962 -0.0469
 1232SOL    HW3 5002   0.446   0.169   2.144  0.6552  0.9322 -0.3669
 1232SOL    MW4 5003   0.474   0.180   2.225  0.3321  0.0348 -0.1304
 1233SOL     OW 5004   0.412   0.437   2.343  0.5882 -0.3015  0.9672
 1233SOL    HW2 5005   0.434   0.426   2.435  0.2416 -1.6287  0.9016
 1233SOL    HW3 5006   0.445   0.357   2.301 -1.3572 -0.7843  0.3214
 1233SOL    MW4 5007   0.419   0.425   2.350  0.2858 -0.5402  0.8731
 1234SOL     OW 5008   0.650   0.571   2.234 -0.2776 -0.4461  0.8740
 1234SOL    HW2 5009   0.673   0.650   2.284  0.1819 -0.1219  0.1694
 1234SOL    HW3 5010   0.576   0.533   2.281 -1.3555  1.1273  0.4938
 1234SOL    MW4 5011   0.644   0.577   2.247 -0.3591 -0.1957  0.7308
 1235SOL     OW 5012   0.691   0.788   2.384  0.3580  0.0621 -0.1462
 1235SOL    HW2 5013   0.676   0.775   2.478  0.9671  0.8275  0.0579
 1235SOL    HW3 5014   0.614   0.836   2.354  0.2380 -0.0440 -0.0117
 1235SOL    MW4 5015   0.679   0.793   2.393  0.4225  0.1491 -0.1013
 1236SOL     OW 5016   0.450   0.901   2.281 -0.3238  0.0311  0.3976
 1236SOL    HW2 5017   0.362   0.864   2.290 -0.2958  0.4637  2.8773
 1236SOL    HW3 5018   0.463   0.910   2.187 -2.9748  0.0498 -0.0096
 1236SOL    MW4 5019   0.440   0.897   2.270 -0.6698  0.0906  0.6711
 1237SOL     OW 5020   0.436   1.163   2.373  0.3086  0.5537  0.1716
 1237SOL    HW2 5021   0.448   1.077   2.333  1.4395  0.4495  0.7301
 1237SOL    HW3 5022   0.350   1.192   2.341 -1.1254 -1.7502  1.8150
 1237SOL    MW4 5023   0.426   1.155   2.363  0.2686  0.2359  0.4621
 1238SOL     OW 5024   0.685   1.287   2.265  0.2859  0.3790  0.1113
 1238SOL    HW2 5025   0.701   1.376   2.299  0.0837  0.8566 -1.0302
 1238SOL    HW3 5026   0.605   1.259   2.310  0.8264  0.4347  1.1247
 1238SOL    MW4 5027   0.677   1.295   2.276  0.3305  0.4494  0.0944
 1239SOL     OW 5028   0.668   1.551   2.323 -0.3216  0.5886 -0.1437
 1239SOL    HW2 5029   0.668   1.535   2.417 -0.6290  0.1685 -0.2130
 1239SOL    HW3 5030   0.748   1.601   2.307  0.9522 -1.3301  0.0092
 1239SOL    MW4 5031   0.678   1.556   2.333 -0.1941  0.2800 -0.1328
 1240SOL     OW 5032   0.427   1.675   2.265  0.6427  0.2079 -0.1629
 1240SOL    HW2 5033   0.508   1.631   2.288  0.1065 -0.2281  0.9104
 1240SOL    HW3 5034   0.358   1.620   2.302 -0.1750  0.2551 -1.5590
 1240SOL    MW4 5035   0.428   1.662   2.273  0.4641  0.1566 -0.2053
 1241SOL     OW 5036   0.454   1.959   2.339  0.4434  0.2619  0.4128
 1241SOL    HW2 5037   0.541   1.989   2.311  0.6817  1.1176  2.0295
 1241SOL    HW3 5038   0.449   1.868   2.308  1.3218  0.6610 -0.9753
 1241SOL    MW4 5039   0.465   1.951   2.331  0.5907  0.4274  0.4430
 1242SOL     OW 5040   0.673   2.094   2.233 -0.2133 -0.3060 -0.2548
 1242SOL    HW2 5041   0.737   2.034   2.270 -0.0926 -0.2283 -0.3395
 1242SOL    HW3 5042   0.691   2.178   2.274  0.3720 -0.0572 -1.0039
 1242SOL    MW4 5043   0.683   2.097   2.243 -0.1201 -0.2630 -0.3648
 1243SOL     OW 5044   0.703   2.370   2.347 -0.1037 -0.4541 -0.0292
 1243SOL    HW2 5045   0.708   2.362   2.442  0.4249 -1.4294 -0.1271
 1243SOL    HW3 5046   0.787   2.407   2.321 -1.1049  1.9955  0.0682
 1243SOL    MW4 5047   0.715   2.374   2.356 -0.1661 -0.2596 -0.0291
 1244SOL     OW 5048   0.460   2.461   2.225  0.4293 -0.0768  0.3089
 1244SOL    HW2 5049   0.541   2.423   2.257  0.3058 -0.6517 -0.0547
 1244SOL    HW3 5050   0.390   2.409   2.264  0.2662 -0.4014 -0.3930
 1244SOL    MW4 5051   0.461   2.449   2.234  0.3915 -0.1953  0.1686
 1245SOL     OW 5052   0.430   2.718   2.351 -0.0034 -0.1987  0.0177
 1245SOL    HW2 5053   0.449   2.731   2.443  0.4384 -1.7788  0.1572
 1245SOL    HW3 5054   0.457   2.628   2.332 -0.5354 -0.0647 -1.5308
 1245SOL    MW4 5055   0.436   2.708   2.360 -0.0153 -0.3896 -0.1681
 1246SOL     OW 5056   0.630   2.865   2.235  0.2075 -0.5895 -0.1210
 1246SOL    HW2 5057   0.706   2.815   2.265 -0.0405 -1.3344 -0.7118
 1246SOL    HW3 5058   0.556   2.808   2.251 -0.3599  0.5523  1.4217
 1246SOL    MW4 5059   0.630   2.851   2.241  0.0999 -0.5369  0.0045
 1247SOL     OW 5060   0.648   3.129   2.375  0.3694  0.0065 -0.5602
 1247SOL    HW2 5061   0.570   3.178   2.348  0.1020 -1.3720 -2.4382
 1247SOL    HW3 5062   0.647   3.052   2.319  2.8991 -0.2167 -0.3316
 1247SOL    MW4 5063   0.637   3.125   2.364  0.6679 -0.2048 -0.7782
 1248SOL     OW 5064   0.435   3.240   2.246  0.5082  0.1698  0.0292
 1248SOL    HW2 5065   0.373   3.175   2.281  1.0283 -0.0687  0.5282
 1248SOL    HW3 5066   0.435   3.225   2.152  0.6454 -0.5814  0.1429
 1248SOL    MW4 5067   0.427   3.230   2.238  0.5949  0.0391  0.1099
 1249SOL     OW 5068   0.450   3.503   2.332  0.0241  0.2852  0.0932
 1249SOL    HW2 5069   0.520   3.552   2.289 -1.2168 -0.1837 -2.5584
 1249SOL    HW3 5070   0.459   3.414   2.297 -1.2275 -0.0335  0.5634
 1249SOL    MW4 5071   0.460   3.497   2.322 -0.3047  0.1817 -0.1948
 1250SOL     OW 5072   0.684   3.609   2.234 -0.1480 -0.1413 -0.0674
 1250SOL    HW2 5073   0.688   3.700   2.264  1.5482 -0.2830  0.1783
 1250SOL    HW3 5074   0.689   3.615   2.139 -0.8798  0.0585 -0.0976
 1250SOL    MW4 5075   0.685   3.622   2.226 -0.0208 -0.1335 -0.0391
 1251SOL     OW 5076   0.704   3.880   2.323 -0.4855 -0.6382  0.3088
 1251SOL    HW2 5077   0.698   3.869   2.418 -0.6159  0.5250  0.4374
 1251SOL    HW3 5078   0.622   3.924   2.299  0.1130  0.2034 -0.1750
 1251SOL    MW4 5079   0.692   3.884   2.333 -0.4237 -0.3736  0.2618
 1252SOL     OW 5080   0.447   3.997   2.287  0.2319 -0.3851 -0.4187
 1252SOL    HW2 5081   0.364   3.969   2.326 -0.3480  1.1180 -0.5468
 1252SOL    HW3 5082   0.430   3.997   2.193  0.5282 -0.5531 -0.4721
 1252SOL    MW4 5083   0.434   3.993   2.280  0.1945 -0.2089 -0.4427
 1253SOL     OW 5084   0.411   4.272   2.334  0.3885 -0.2669  0.4013
 1253SOL    HW2 5085   0.486   4.305   2.285  0.1977 -1.1841 -0.5268
 1253SOL    HW3 5086   0.413   4.177   2.322 -0.3681 -0.3918  1.1606
 1253SOL    MW4 5087   0.421   4.264   2.326  0.2635 -0.4044  0.3791
 1254SOL     OW 5088   0.656   4.377   2.236 -0.5326  0.0638 -0.1224
 1254SOL    HW2 5089   0.645   4.467   2.269 -1.5878  0.0067 -0.2954
 1254SOL    HW3 5090   0.664   4.388   2.141 -0.3243  0.0000 -0.1120
 1254SOL    MW4 5091   0.655   4.391   2.228 -0.6443  0.0477 -0.1435
 1255SOL     OW 5092   1.058   0.009   2.352 -0.7768  0.0333  0.1724
 1255SOL    HW2 5093   1.075   0.003   2.446  0.0243  0.2271  0.0444
 1255SOL    HW3 5094   0.980   0.063   2.344  0.4221  1.8568  0.6241
 1255SOL    MW4 5095   1.050   0.015   2.363 -0.5130  0.2995  0.2151
 1256SOL     OW 5096   0.819   0.161   2.274  0.9554  0.8532 -0.2904
 1256SOL    HW2 5097   0.825   0.256   2.288 -0.7703  0.9515 -0.0719
 1256SOL    HW3 5098   0.853   0.147   2.186  0.1723  1.8231 -0.7547
 1256SOL    MW4 5099   0.824   0.172   2.264  0.6244  0.9941 -0.3228
 1257SOL     OW 5100   0.885   0.445   2.330  0.1067  0.2523  0.2320
 1257SOL    HW2 5101   0.819   0.494   2.282  0.9131  0.9388 -0.1924
 1257SOL    HW3 5102   0.969   0.473   2.293  0.7964  1.3074  2.4752
 1257SOL    MW4 5103   0.888   0.455   2.319  0.3041  0.4820  0.4718
 1258SOL     OW 5104   1.130   0.489   2.253  0.2836  0.2604  0.3093
 1258SOL    HW2 5105   1.209   0.442   2.280  0.9707  0.4757 -1.2790
 1258SOL    HW3 5106   1.125   0.476   2.159 -1.7650  0.0079  0.4342
 1258SOL    MW4 5107   1.140   0.481   2.244  0.1038  0.2555  0.1163
 1259SOL     OW 5108   1.149   0.762   2.328  0.4058  0.0233 -0.1481
 1259SOL    HW2 5109   1.066   0.793   2.291 -0.1308 -0.5104  0.5653
 1259SOL    HW3 5110   1.147   0.667   2.312 -0.4529 -0.4176  2.3793
 1259SOL    MW4 5111   1.138   0.753   2.321  0.2217 -0.1053  0.2797
 1260SOL     OW 5112   0.902   0.894   2.256  0.0943  0.2119 -0.3338
 1260SOL    HW2 5113   0.921   0.981   2.293 -0.7266  0.8669 -1.4446
 1260SOL    HW3 5114   0.839   0.856   2.317 -0.5997  0.9520 -0.5745
 1260SOL    MW4 5115   0.896   0.901   2.269 -0.1057  0.3959 -0.5126
 1261SOL     OW 5116   0.928   1.154   2.354  0.3887 -0.4008  0.0689
 1261SOL    HW2 5117   0.989   1.205   2.301 -0.5351  0.9923  0.3369
 1261SOL    HW3 5118   0.843   1.165   2.311 -0.0830 -0.5450  0.9482
 1261SOL    MW4 5119   0.925   1.162   2.341  0.2046 -0.2360  0.2203
 1262SOL     OW 5120   1.142   1.303   2.242  0.0312  0.0786  0.0981
 1262SOL    HW2 5121   1.213   1.246   2.273 -0.4684 -0.1856  0.7760
 1262SOL    HW3 5122   1.143   1.294   2.147 -0.2782 -1.3559  0.2212
 1262SOL    MW4 5123   1.152   1.294   2.234 -0.0755 -0.1454  0.2038
 1263SOL     OW 5124   1.149   1.552   2.370  0.2744  0.1245  0.0555
 1263SOL    HW2 5125   1.066   1.598   2.364  1.1149  1.7332  0.5870
 1263SOL    HW3 5126   1.136   1.473   2.317 -1.3879  0.6401 -0.3393
 1263SOL    MW4 5127   1.137   1.547   2.362  0.1659  0.4047  0.0737
 1264SOL     OW 5128   0.937   1.687   2.272 -0.5137  0.0053  0.3393
 1264SOL    HW2 5129   0.918   1.773   2.311 -0.0604  0.6967 -0.9258
 1264SOL    HW3 5130   0.948   1.705   2.178  3.4368 -0.8052  0.5738
 1264SOL    MW4 5131   0.936   1.701   2.265  0.0674 -0.0104  0.2034
 1265SOL     OW 5132   0.881   1.949   2.359  0.7976 -0.0306  0.3232
 1265SOL    HW2 5133   0.877   1.935   2.453  1.1405 -0.3368  0.2938
 1265SOL    HW3 5134   0.954   2.011   2.347  0.2035  0.6845  0.3306
 1265SOL    MW4 5135   0.890   1.956   2.370  0.7645  0.0234  0.3204
 1266SOL     OW 5136   1.132   2.049   2.296 -0.2602 -0.1930 -0.1002
 1266SOL    HW2 5137   1.211   1.999   2.317 -0.7586 -1.3386 -0.8962
 1266SOL    HW3 5138   1.139   2.065   2.201 -0.2212  1.0526  0.1089
 1266SOL    MW4 5139   1.144   2.044   2.286 -0.3208 -0.1795 -0.1776
 1267SOL     OW 5140   1.133   2.309   2.369 -1.0042  0.0990 -0.3169
 1267SOL    HW2 5141   1.211   2.348   2.329 -0.2719  0.3183  1.2850
 1267SOL    HW3 5142   1.134   2.218   2.339  0.4126 -0.1588  0.4343
 1267SOL    MW4 5143   1.144   2.302   2.360 -0.7205  0.0939 -0.0064
 1268SOL     OW 5144   0.949   2.471   2.255  0.1140  0.1443 -0.7343
 1268SOL    HW2 5145   1.021   2.420   2.292 -1.7331 -1.1046  1.2034
 1268SOL    HW3 5146   0.955   2.456   2.160  2.6705  0.4611 -0.6575
 1268SOL    MW4 5147   0.959   2.463   2.247  0.2076  0.0212 -0.4685
 1269SOL     OW 5148   0.872   2.722   2.340  0.1297  0.2420  0.1901
 1269SOL    HW2 5149   0.860   2.711   2.435 -0.4505 -0.1248  0.0751
 1269SOL    HW3 5150   0.898   2.635   2.309 -0.7330  0.1052 -0.1503
 1269SOL    MW4 5151   0.874   2.709   2.349 -0.0606  0.1755  0.1304
 1270SOL     OW 5152   1.117   2.841   2.228  0.1431  0.0860  0.3053
 1270SOL    HW2 5153   1.196   2.797   2.258 -0.0332 -0.3358  0.1540
 1270SOL    HW3 5154   1.045   2.792   2.268 -0.0039  1.6411  2.0199
 1270SOL    MW4 5155   1.117   2.829   2.237  0.1004  0.2353  0.5116
 1271SOL     OW 5156   1.104   3.103   2.314 -0.2371  0.2691  0.4627
 1271SOL    HW2 5157   1.015   3.139   2.313 -0.0933  0.6577 -2.5171
 1271SOL    HW3 5158   1.095   3.017   2.274  0.5157 -0.3211  1.5363
 1271SOL    MW4 5159   1.091   3.097   2.309 -0.1187  0.2425  0.2112
 1272SOL     OW 5160   0.855   3.225   2.244  0.1079 -0.4695 -0.4270
 1272SOL    HW2 5161   0.871   3.318   2.258 -0.2861 -0.3561 -0.7155
 1272SOL    HW3 5162   0.771   3.209   2.286 -0.3266 -0.4670 -1.2918
 1272SOL    MW4 5163   0.846   3.235   2.252 -0.0013 -0.4544 -0.5791
 1273SOL     OW 5164   0.913   3.478   2.318 -0.5100  0.0712 -0.1647
 1273SOL    HW2 5165   0.909   3.487   2.413 -0.8589  0.6090 -0.2280
 1273SOL    HW3 5166   0.840   3.530   2.286 -0.4710 -0.2134 -0.7227
 1273SOL    MW4 5167   0.903   3.486   2.326 -0.5509  0.1049 -0.2465
 1274SOL     OW 5168   1.134   3.589   2.184 -0.1351  0.0076 -0.1184
 1274SOL    HW2 5169   1.210   3.541   2.217  0.0433  0.6042  0.3517
 1274SOL    HW3 5170   1.059   3.547   2.227  0.0642  0.5053  0.7247
 1274SOL    MW4 5171   1.134   3.577   2.194 -0.0854  0.1521  0.0548
 1275SOL     OW 5172   1.134   3.841   2.306  0.2426  0.4322  0.1689
 1275SOL    HW2 5173   1.184   3.900   2.250  1.0826  0.7292  1.2126
 1275SOL    HW3 5174   1.147   3.754   2.267  0.7332  0.6456 -0.1449
 1275SOL    MW4 5175   1.142   3.837   2.293  0.4182  0.4995  0.2651
 1276SOL     OW 5176   0.920   4.016   2.243 -0.1627  0.0915 -0.4121
 1276SOL    HW2 5177   0.980   3.945   2.269  0.2989  0.9329  0.8820
 1276SOL    HW3 5178   0.833   3.980   2.262  0.0775 -0.0765  0.4355
 1276SOL    MW4 5179   0.916   4.002   2.249 -0.0701  0.1802 -0.1295
 1277SOL     OW 5180   0.899   4.255   2.371  0.1482  0.1049  0.3927
 1277SOL    HW2 5181   0.910   4.172   2.326  0.7019  0.1666  0.4184
 1277SOL    HW3 5182   0.806   4.277   2.357  0.0480 -0.4167  0.2266
 1277SOL    MW4 5183   0.888   4.247   2.363  0.2081  0.0443  0.3741
 1278SOL     OW 5184   1.082   4.430   2.247 -0.5358 -0.0250  0.1075
 1278SOL    HW2 5185   1.003   4.385   2.279 -0.1103  0.6932  2.2308
 1278SOL    HW3 5186   1.080   4.515   2.291  1.0774  0.2597 -0.3560
 1278SOL    MW4 5187   1.071   4.436   2.257 -0.2669  0.1073  0.3266
 1279SOL     OW 5188   1.541   4.593   2.315 -0.0261  0.1947 -0.7843
 1279SOL    HW2 5189   1.616   4.650   2.297 -0.9301  1.2347 -1.2730
 1279SOL    HW3 5190   1.469   4.630   2.264 -1.0589 -0.3861  0.2211
 1279SOL    MW4 5191   1.542   4.606   2.306 -0.2816  0.2556 -0.7162
 1280SOL     OW 5192   1.316   0.053   2.231 -0.3013 -0.7456 -0.1086
 1280SOL    HW2 5193   1.317   0.144   2.262 -0.5099 -0.5848 -0.5701
 1280SOL    HW3 5194   1.252   0.010   2.288 -0.8035 -0.4115 -0.4048
 1280SOL    MW4 5195   1.307   0.059   2.242 -0.3951 -0.6803 -0.2084
 1281SOL     OW 5196   1.327   0.318   2.329 -0.3148 -0.1640  0.0436
 1281SOL    HW2 5197   1.307   0.323   2.422  0.7508 -1.4599  0.3568
 1281SOL    HW3 5198   1.406   0.372   2.319 -1.2055  1.0817 -0.3564
 1281SOL    MW4 5199   1.335   0.326   2.340 -0.2918 -0.1706  0.0319
 1282SOL     OW 5200   1.559   0.480   2.253  0.2555  0.0689  0.2584
 1282SOL    HW2 5201   1.639   0.428   2.265  0.0166 -0.2578  0.4452
 1282SOL    HW3 5202   1.551   0.489   2.158  1.5730  1.7663  0.2646
 1282SOL    MW4 5203   1.569   0.474   2.242  0.3977  0.2498  0.2840
 1283SOL     OW 5204   1.597   0.721   2.384  0.4077  0.5150 -0.2150
 1283SOL    HW2 5205   1.675   0.760   2.343  2.1150 -0.3582  2.0950
 1283SOL    HW3 5206   1.592   0.634   2.346  0.5788  0.5637 -0.3540
 1283SOL    MW4 5207   1.607   0.715   2.373  0.6557  0.4063  0.0715
 1284SOL     OW 5208   1.377   0.896   2.269 -0.1423  0.6546  0.4029
 1284SOL    HW2 5209   1.440   0.831   2.300 -0.8596 -0.3366 -0.1883
 1284SOL    HW3 5210   1.292   0.856   2.286 -0.5772  1.1996 -0.4682
 1284SOL    MW4 5211   1.374   0.882   2.275 -0.2944  0.5957  0.2098
 1285SOL     OW 5212   1.360   1.160   2.337 -0.0044  0.7299 -0.1110
 1285SOL    HW2 5213   1.342   1.163   2.430 -1.9942  0.4532 -0.4669
 1285SOL    HW3 5214   1.373   1.067   2.318  2.2949  0.9599  0.2117
 1285SOL    MW4 5215   1.359   1.148   2.347  0.0366  0.7237 -0.1152
 1286SOL     OW 5216   1.602   1.285   2.265 -0.3447  0.2555 -0.3213
 1286SOL    HW2 5217   1.518   1.258   2.301  0.3216 -1.0530  0.2635
 1286SOL    HW3 5218   1.593   1.270   2.171 -1.5192  2.1928 -0.5611
 1286SOL    MW4 5219   1.589   1.280   2.257 -0.4117  0.3386 -0.2759
 1287SOL     OW 5220   1.623   1.551   2.399 -0.1346 -0.4446  0.2474
 1287SOL    HW2 5221   1.679   1.606   2.345 -1.9724  2.0528  0.8186
 1287SOL    HW3 5222   1.615   1.469   2.350  0.4261  0.7649 -1.9255
 1287SOL    MW4 5223   1.629   1.547   2.386 -0.3030  0.0445  0.0360
 1288SOL     OW 5224   1.379   1.654   2.259 -0.0438  0.5634 -0.3184
 1288SOL    HW2 5225   1.448   1.617   2.315 -0.4971  0.7338  0.3671
 1288SOL    HW3 5226   1.298   1.613   2.290 -0.3126  0.7230 -0.7977
 1288SOL    MW4 5227   1.377   1.644   2.271 -0.1390  0.6071 -0.2913
 1289SOL     OW 5228   1.362   1.925   2.361 -0.1322  0.0429  0.0071
 1289SOL    HW2 5229   1.432   1.979   2.324 -0.9665  0.4040 -1.0884
 1289SOL    HW3 5230   1.365   1.844   2.311 -0.4019  0.0003  0.0574
 1289SOL    MW4 5231   1.372   1.921   2.349 -0.2778  0.0849 -0.1309
 1290SOL     OW 5232   1.549   2.083   2.267 -0.5723  0.0631 -0.2592
 1290SOL    HW2 5233   1.630   2.033   2.273 -0.9790 -0.5987 -0.2632
 1290SOL    HW3 5234   1.531   2.090   2.174 -0.4316  0.3520 -0.2644
 1290SOL    MW4 5235   1.557   2.078   2.256 -0.6074  0.0138 -0.2601
 1291SOL     OW 5236   1.616   2.339   2.342 -0.3683  0.9447  0.1845
 1291SOL    HW2 5237   1.610   2.341   2.437  1.7723  0.8614  0.3350
 1291SOL    HW3 5238   1.596   2.248   2.319  1.0618  0.4852  0.7162
 1291SOL    MW4 5239   1.612   2.327   2.352  0.1029  0.8731  0.2744
 1292SOL     OW 5240   1.348   2.437   2.291 -0.1200 -0.0977  0.3723
 1292SOL    HW2 5241   1.436   2.403   2.309 -0.6113 -2.3168 -1.2327
 1292SOL    HW3 5242   1.345   2.447   2.196 -0.8124  2.2709  0.6117
 1292SOL    MW4 5243   1.359   2.434   2.281 -0.2761 -0.0777  0.1922
 1293SOL     OW 5244   1.337   2.710   2.345  0.3202 -0.4177  0.2486
 1293SOL    HW2 5245   1.407   2.747   2.292  1.0907 -1.1973  0.7067
 1293SOL    HW3 5246   1.340   2.616   2.328  0.8470 -0.7320  1.9642
 1293SOL    MW4 5247   1.346   2.703   2.336  0.4914 -0.5620  0.5357
 1294SOL     OW 5248   1.551   2.808   2.200 -0.4339 -0.6518  0.1987
 1294SOL    HW2 5249   1.531   2.899   2.222 -2.1424 -1.4276  2.0258
 1294SOL    HW3 5250   1.637   2.792   2.237  1.1268  0.9943 -2.5405
 1294SOL    MW4 5251   1.560   2.818   2.208 -0.4535 -0.5369  0.0784
 1295SOL     OW 5252   1.560   3.064   2.306 -0.0644 -0.1475 -0.1555
 1295SOL    HW2 5253   1.583   3.089   2.396  0.1951 -1.2333  0.0831
 1295SOL    HW3 5254   1.485   3.120   2.284 -1.0043 -0.8484  1.2267
 1295SOL    MW4 5255   1.553   3.075   2.315 -0.1540 -0.3834  0.0582
 1296SOL     OW 5256   1.350   3.213   2.210  0.2800 -0.0474  0.0443
 1296SOL    HW2 5257   1.266   3.175   2.236  0.5645 -0.6561  0.0634
 1296SOL    HW3 5258   1.341   3.231   2.116  0.2529 -0.4321 -0.0257
 1296SOL    MW4 5259   1.338   3.210   2.201  0.3138 -0.1786  0.0377
 1297SOL     OW 5260   1.346   3.470   2.287  0.1457 -0.2120  0.4115
 1297SOL    HW2 5261   1.324   3.467   2.380 -1.2010 -0.1389  0.1063
 1297SOL    HW3 5262   1.355   3.378   2.261  1.3046 -0.2053  0.7939
 1297SOL    MW4 5263   1.344   3.458   2.296  0.1210 -0.2015  0.4215
 1298SOL     OW 5264   1.544   3.620   2.172 -0.2339  0.4436 -0.0940
 1298SOL    HW2 5265   1.538   3.706   2.214 -1.0933 -0.5692  1.9407
 1298SOL    HW3 5266   1.471   3.570   2.210  0.1472 -1.1274 -1.3835
 1298SOL    MW4 5267   1.533   3.625   2.183 -0.2970  0.1023  0.0043
 1299SOL     OW 5268   1.549   3.869   2.315 -0.1694 -0.4584 -0.2140
 1299SOL    HW2 5269   1.543   3.856   2.409 -0.3914 -0.0384 -0.1700
 1299SOL    HW3 5270   1.641   3.886   2.298 -0.3551  0.8860  0.1096
 1299SOL    MW4 5271   1.560   3.869   2.325 -0.2232 -0.2258 -0.1657
 1300SOL     OW 5272   1.343   4.014   2.216  0.0701  0.1971 -0.4058
 1300SOL    HW2 5273   1.424   3.969   2.238  0.3722  1.7614  1.7431
 1300SOL    HW3 5274   1.340   4.011   2.120  1.9480 -1.0901 -0.4521
 1300SOL    MW4 5275   1.353   4.007   2.206  0.3577  0.2337 -0.1283
 1301SOL     OW 5276   1.321   4.273   2.342  0.4644 -0.5271 -0.4157
 1301SOL    HW2 5277   1.320   4.188   2.298 -0.2916 -0.6755 -0.1189
 1301SOL    HW3 5278   1.248   4.321   2.302  0.2334 -0.3996  0.1547
 1301SOL    MW4 5279   1.311   4.268   2.331  0.3341 -0.5298 -0.3011
 1302SOL     OW 5280   1.570   4.329   2.250  0.0508  0.0787 -0.0680
 1302SOL    HW2 5281   1.485   4.303   2.283  1.1317 -2.2919  0.9676
 1302SOL    HW3 5282   1.579   4.421   2.276 -2.2591  0.4127 -0.4064
 1302SOL    MW4 5283   1.560   4.338   2.258 -0.1115 -0.1903  0.0241
 1303SOL     OW 5284   1.980   4.610   2.350  0.2465  0.0069  0.4361
 1303SOL    HW2 5285   2.069   4.634   2.321  0.6519 -0.5045  1.2386
 1303SOL    HW3 5286   1.974   4.516   2.332  0.3706 -0.2412  1.6571
 1303SOL    MW4 5287   1.991   4.601   2.344  0.3163 -0.0935  0.7031
 1304SOL     OW 5288   1.763   0.085   2.268  0.1139 -0.2184 -0.0925
 1304SOL    HW2 5289   1.766   0.176   2.296 -1.1966 -0.1664 -0.1151
 1304SOL    HW3 5290   1.841   0.046   2.306 -0.0962  0.5595  1.1480
 1304SOL    MW4 5291   1.774   0.092   2.277 -0.0867 -0.1089  0.0682
 1305SOL     OW 5292   1.789   0.345   2.334  0.2301  0.7127 -0.2275
 1305SOL    HW2 5293   1.791   0.336   2.430 -0.7868  1.8996 -0.0889
 1305SOL    HW3 5294   1.875   0.379   2.311 -0.5875  3.3932  0.5825
 1305SOL    MW4 5295   1.801   0.348   2.344 -0.0118  1.2230 -0.1023
 1306SOL     OW 5296   2.034   0.466   2.265 -0.3216 -0.1849 -0.2466
 1306SOL    HW2 5297   2.029   0.555   2.300  1.9250 -0.7588  1.6925
 1306SOL    HW3 5298   2.010   0.475   2.173  0.8647  2.6018 -0.3369
 1306SOL    MW4 5299   2.030   0.479   2.257  0.1316  0.1070 -0.0026
 1307SOL     OW 5300   2.032   0.710   2.390  0.2049 -0.4853  0.4181
 1307SOL    HW2 5301   2.104   0.766   2.359 -0.2407  0.2688  0.7260
 1307SOL    HW3 5302   1.954   0.746   2.349 -0.5459  1.1878  3.1581
 1307SOL    MW4 5303   2.032   0.722   2.381  0.0472 -0.1650  0.8202
 1308SOL     OW 5304   1.818   0.818   2.266 -0.0166 -0.2209  0.1717
 1308SOL    HW2 5305   1.805   0.906   2.303  1.3988  0.0400  0.0477
 1308SOL    HW3 5306   1.802   0.829   2.172  2.4060  0.3976 -0.1932
 1308SOL    MW4 5307   1.814   0.831   2.258  0.4900 -0.1048  0.1070
 1309SOL     OW 5308   1.781   1.099   2.338 -0.2668 -0.2986  0.1262
 1309SOL    HW2 5309   1.859   1.143   2.304 -0.0854  0.1437  1.0793
 1309SOL    HW3 5310   1.710   1.161   2.325  0.0757  0.4927  1.9080
 1309SOL    MW4 5311   1.782   1.113   2.332 -0.1978 -0.1359  0.4871
 1310SOL     OW 5312   2.003   1.256   2.262  0.8034  0.6020  0.0527
 1310SOL    HW2 5313   2.001   1.345   2.298 -1.9447  0.8586 -0.5803
 1310SOL    HW3 5314   2.036   1.267   2.173  0.2936  1.0294 -0.0898
 1310SOL    MW4 5315   2.007   1.269   2.255  0.3736  0.6922 -0.0496
 1311SOL     OW 5316   2.026   1.520   2.356  0.0534 -0.4910  0.1944
 1311SOL    HW2 5317   2.023   1.523   2.451 -1.2148  0.9240  0.1345
 1311SOL    HW3 5318   1.946   1.565   2.328  0.6800 -0.4121 -1.5348
 1311SOL    MW4 5319   2.015   1.527   2.365 -0.0312 -0.2940 -0.0415
 1312SOL     OW 5320   1.822   1.690   2.268 -0.2325  0.1469  0.0039
 1312SOL    HW2 5321   1.811   1.783   2.287  1.3004  0.1477  0.8952
 1312SOL    HW3 5322   1.819   1.685   2.172  0.1337  1.1561 -0.0650
 1312SOL    MW4 5323   1.820   1.701   2.258  0.0180  0.2801  0.1125
 1313SOL     OW 5324   1.792   1.954   2.323 -0.2993  0.2985  0.1969
 1313SOL    HW2 5325   1.783   1.967   2.417 -1.2625  0.8969  0.0186
 1313SOL    HW3 5326   1.873   2.001   2.301  0.8481 -1.2346  0.9892
 1313SOL    MW4 5327   1.802   1.962   2.333 -0.2749  0.1751  0.2780
 1314SOL     OW 5328   2.024   2.070   2.238 -0.9348 -0.0560  0.6904
 1314SOL    HW2 5329   2.092   2.013   2.273  1.7212  2.5222 -0.0437
 1314SOL    HW3 5330   2.035   2.065   2.143 -1.1932  1.0728  0.5914
 1314SOL    MW4 5331   2.034   2.062   2.230 -0.6185  0.4330  0.5805
 1315SOL     OW 5332   2.016   2.325   2.379  0.1522  0.5728  0.3085
 1315SOL    HW2 5333   2.095   2.361   2.340  0.4605  0.2324  0.6152
 1315SOL    HW3 5334   2.019   2.232   2.358 -0.3410  0.6241  0.0215
 1315SOL    MW4 5335   2.027   2.317   2.371  0.1276  0.5345  0.3114
 1316SOL     OW 5336   1.831   2.458   2.220 -0.0655 -0.1834  0.2673
 1316SOL    HW2 5337   1.910   2.421   2.261  1.8338  2.0920 -1.2068
 1316SOL    HW3 5338   1.759   2.415   2.265  2.0094 -2.1383  1.8638
 1316SOL    MW4 5339   1.832   2.448   2.231  0.4591 -0.1411  0.2837
 1317SOL     OW 5340   1.792   2.710   2.293 -0.0636  0.0225 -0.1524
 1317SOL    HW2 5341   1.793   2.705   2.389  0.7480  0.0419 -0.1544
 1317SOL    HW3 5342   1.799   2.619   2.264  1.1621  0.1214 -0.1887
 1317SOL    MW4 5343   1.793   2.698   2.302  0.2053  0.0381 -0.1574
 1318SOL     OW 5344   2.028   2.824   2.223  0.1314 -0.3383 -0.1898
 1318SOL    HW2 5345   2.091   2.767   2.266  0.5097 -0.6985 -1.2162
 1318SOL    HW3 5346   1.943   2.796   2.257  0.3802 -1.0010 -0.1144
 1318SOL    MW4 5347   2.025   2.813   2.233  0.2141 -0.4733 -0.3152
 1319SOL     OW 5348   2.009   3.093   2.353 -0.0515  0.0212 -0.1698
 1319SOL    HW2 5349   2.080   3.152   2.327  0.7171 -0.5892  0.5308
 1319SOL    HW3 5350   2.040   3.006   2.328 -0.5261 -0.2565  0.2037
 1319SOL    MW4 5351   2.022   3.089   2.346 -0.0126 -0.0961 -0.0281
 1320SOL     OW 5352   1.788   3.219   2.203 -0.7591 -0.1828  0.0834
 1320SOL    HW2 5353   1.864   3.174   2.240 -0.4754 -1.8030 -2.3485
 1320SOL    HW3 5354   1.712   3.169   2.232 -0.9071  1.1651  2.1264
 1320SOL    MW4 5355   1.788   3.207   2.212 -0.7411 -0.2189  0.0322
 1321SOL     OW 5356   1.758   3.496   2.284  0.1681 -0.4967  0.2495
 1321SOL    HW2 5357   1.773   3.407   2.251  0.2488 -0.1223 -0.7510
 1321SOL    HW3 5358   1.682   3.528   2.236  1.3358  0.6881 -0.8715
 1321SOL    MW4 5359   1.750   3.489   2.273  0.3330 -0.2911 -0.0305
 1322SOL     OW 5360   2.002   3.620   2.195 -0.0308  0.3103 -0.1636
 1322SOL    HW2 5361   1.928   3.567   2.225 -0.3633 -0.1055 -1.6595
 1322SOL    HW3 5362   2.076   3.590   2.248 -0.5766 -0.4671  0.1772
 1322SOL    MW4 5363   2.002   3.609   2.206 -0.1466  0.1531 -0.3159
 1323SOL     OW 5364   2.044   3.855   2.314  0.0872  0.2869  0.0913
 1323SOL    HW2 5365   2.041   3.839   2.408 -0.7435  1.2538  0.2343
 1323SOL    HW3 5366   2.021   3.771   2.274 -0.3788  0.1020  0.7585
 1323SOL    MW4 5367   2.041   3.842   2.321 -0.0839  0.3903  0.1981
 1324SOL     OW 5368   1.797   3.938   2.231 -0.0839 -0.3672  0.1788
 1324SOL    HW2 5369   1.885   3.913   2.260 -0.2530 -2.2355 -0.8517
 1324SOL    HW3 5370   1.806   3.954   2.137 -0.5855  0.7756  0.3104
 1324SOL    MW4 5371   1.810   3.937   2.223 -0.1724 -0.4630  0.0601
 1325SOL     OW 5372   1.800   4.202   2.330 -0.5985 -0.2571  0.2303
 1325SOL    HW2 5373   1.795   4.108   2.309  0.0517  0.1287 -1.7471
 1325SOL    HW3 5374   1.724   4.240   2.287  0.2868  0.4242 -0.7517
 1325SOL    MW4 5375   1.789   4.195   2.322 -0.3960 -0.1159 -0.1602
 1326SOL     OW 5376   2.031   4.339   2.268  0.2474 -0.3434  0.2720
 1326SOL    HW2 5377   1.959   4.280   2.291  0.6523 -1.2421 -0.7194
 1326SOL    HW3 5378   2.024   4.349   2.173 -1.0627  2.8785  0.6526
 1326SOL    MW4 5379   2.021   4.332   2.259  0.1280 -0.0372  0.1915
 1327SOL     OW 5380   2.480   4.632   2.345  0.3753  0.6229  0.0751
 1327SOL    HW2 5381   2.570   4.660   2.329 -0.1550  1.2181 -2.0627
 1327SOL    HW3 5382   2.477   4.541   2.315  0.7989 -0.1554  2.2570
 1327SOL    MW4 5383   2.491   4.623   2.339  0.3612  0.5984  0.0808
 1328SOL     OW 5384   2.231   0.046   2.281  0.1421  0.0297 -0.0311
 1328SOL    HW2 5385   2.223   0.134   2.317  2.1412  1.0205 -1.8708
 1328SOL    HW3 5386   2.325   0.029   2.279 -0.0746 -1.1229 -1.9898
 1328SOL    MW4 5387   2.242   0.055   2.285  0.3772  0.0084 -0.5324
 1329SOL     OW 5388   2.231   0.314   2.377 -0.0907  0.1376 -0.0925
 1329SOL    HW2 5389   2.303   0.370   2.350 -1.1805  0.8699 -1.5777
 1329SOL    HW3 5390   2.153   0.356   2.340 -0.9596 -2.2387 -1.0379
 1329SOL    MW4 5391   2.230   0.327   2.369 -0.3490 -0.0794 -0.4132
 1330SOL     OW 5392   2.453   0.467   2.283 -0.1038 -0.1386 -0.2197
 1330SOL    HW2 5393   2.534   0.433   2.319  0.3545  0.7746 -0.3864
 1330SOL    HW3 5394   2.444   0.554   2.321 -1.0232 -0.2460 -0.1762
 1330SOL    MW4 5395   2.462   0.474   2.293 -0.1647 -0.0323 -0.2358
 1331SOL     OW 5396   2.465   0.749   2.352  0.0658  0.2627 -0.9666
 1331SOL    HW2 5397   2.540   0.794   2.313  1.0197 -0.6141 -0.1458
 1331SOL    HW3 5398   2.469   0.771   2.445 -0.3052 -0.3324 -0.8066
 1331SOL    MW4 5399   2.475   0.758   2.359  0.1428  0.0685 -0.8371
 1332SOL     OW 5400   2.230   0.886   2.295 -0.1618  0.0697  0.9088
 1332SOL    HW2 5401   2.231   0.977   2.325 -1.5881 -0.0169  1.2506
 1332SOL    HW3 5402   2.308   0.847   2.335 -0.1796  0.8454  1.7075
 1332SOL    MW4 5403   2.240   0.893   2.304 -0.3521  0.1606  1.0591
 1333SOL     OW 5404   2.234   1.136   2.387 -0.0933 -0.0519 -0.3677
 1333SOL    HW2 5405   2.317   1.178   2.366 -0.8081  0.6742 -1.8031
 1333SOL    HW3 5406   2.168   1.187   2.341 -1.3995 -0.3611  1.1019
 1333SOL    MW4 5407   2.236   1.148   2.378 -0.3603  0.0031 -0.3633
 1334SOL     OW 5408   2.465   1.264   2.286 -0.7055 -0.3408  0.1394
 1334SOL    HW2 5409   2.547   1.232   2.324 -0.2295 -0.5088 -1.0270
 1334SOL    HW3 5410   2.468   1.359   2.300 -0.8369 -0.4741  1.1048
 1334SOL    MW4 5411   2.476   1.272   2.293 -0.6599 -0.3805  0.1130
 1335SOL     OW 5412   2.484   1.534   2.371 -0.3095 -0.0604  0.2743
 1335SOL    HW2 5413   2.497   1.529   2.466 -1.0419  2.4869  0.5623
 1335SOL    HW3 5414   2.553   1.592   2.340 -0.4348 -0.4040 -0.6764
 1335SOL    MW4 5415   2.495   1.541   2.379 -0.4227  0.2303  0.1867
 1336SOL     OW 5416   2.243   1.665   2.244  0.3937  0.7584 -0.4267
 1336SOL    HW2 5417   2.316   1.627   2.293  0.8226  1.9630 -0.1198
 1336SOL    HW3 5418   2.165   1.631   2.288  0.7669  0.1360 -0.2377
 1336SOL    MW4 5419   2.242   1.656   2.256  0.4997  0.8351 -0.3617
 1337SOL     OW 5420   2.227   1.927   2.368  0.1902  0.5073 -0.0151
 1337SOL    HW2 5421   2.301   1.974   2.330  0.8347 -0.4076  0.0682
 1337SOL    HW3 5422   2.240   1.836   2.340 -0.0214  0.0516  1.3188
 1337SOL    MW4 5423   2.238   1.921   2.359  0.2472  0.3264  0.1717
 1338SOL     OW 5424   2.470   2.039   2.259 -0.3506  0.0786 -0.2253
 1338SOL    HW2 5425   2.554   2.003   2.287 -0.7619 -0.0269  0.9161
 1338SOL    HW3 5426   2.482   2.059   2.167  1.2105  0.8723  0.1311
 1338SOL    MW4 5427   2.483   2.037   2.251 -0.1988  0.1693 -0.0279
 1339SOL     OW 5428   2.460   2.277   2.374  0.0949  0.3082 -0.8317
 1339SOL    HW2 5429   2.532   2.322   2.330 -0.0797  0.3215 -1.1010
 1339SOL    HW3 5430   2.452   2.194   2.327  0.8777 -0.3119  0.0962
 1339SOL    MW4 5431   2.468   2.272   2.362  0.1750  0.2284 -0.7451
 1340SOL     OW 5432   2.249   2.436   2.268 -0.0782 -0.2718  0.2602
 1340SOL    HW2 5433   2.242   2.523   2.307 -1.6212  0.0909 -0.8022
 1340SOL    HW3 5434   2.314   2.391   2.323  1.2101  1.7288  0.4391
 1340SOL    MW4 5435   2.257   2.441   2.281 -0.1118  0.0401  0.1435
 1341SOL     OW 5436   2.219   2.696   2.367 -0.0359  0.0896 -0.3304
 1341SOL    HW2 5437   2.220   2.714   2.461 -1.2724 -3.1571  0.3714
 1341SOL    HW3 5438   2.299   2.738   2.334  1.8592 -0.9873  2.6493
 1341SOL    MW4 5439   2.230   2.704   2.375  0.0513 -0.4809  0.1552
 1342SOL     OW 5440   2.452   2.799   2.274 -0.2153  0.4519 -0.5304
 1342SOL    HW2 5441   2.532   2.763   2.312 -1.0409 -0.0752  0.7420
 1342SOL    HW3 5442   2.468   2.799   2.179  1.2327  0.2449 -0.3024
 1342SOL    MW4 5443   2.465   2.794   2.266 -0.1333  0.3552 -0.3324
 1343SOL     OW 5444   2.415   3.085   2.230 -0.0286  0.3298  0.0672
 1343SOL    HW2 5445   2.497   3.128   2.253 -0.2110  0.5310  0.3478
 1343SOL    HW3 5446   2.435   2.992   2.233  0.1136  0.3713  0.4223
 1343SOL    MW4 5447   2.429   3.078   2.233 -0.0339  0.3617  0.1512
 1344SOL     OW 5448   2.194   3.245   2.214  0.1519 -0.0943 -0.0689
 1344SOL    HW2 5449   2.230   3.330   2.239 -0.2401 -0.2445  1.0479
 1344SOL    HW3 5450   2.264   3.183   2.232  0.2233 -0.0744 -0.2876
 1344SOL    MW4 5451   2.208   3.248   2.220  0.1099 -0.1116  0.0496
 1345SOL     OW 5452   2.222   3.525   2.348 -0.2603 -0.1548  0.0593
 1345SOL    HW2 5453   2.225   3.496   2.439  1.1375  1.5067  0.5756
 1345SOL    HW3 5454   2.313   3.543   2.326 -0.9361  2.6931 -0.5799
 1345SOL    MW4 5455   2.234   3.523   2.357 -0.1647  0.4404  0.0429
 1346SOL     OW 5456   2.457   3.587   2.252 -0.1004 -0.3349  0.1906
 1346SOL    HW2 5457   2.484   3.678   2.260 -1.7569  0.0119  2.4661
 1346SOL    HW3 5458   2.531   3.537   2.285  0.5716  0.2045 -0.4791
 1346SOL    MW4 5459   2.470   3.592   2.257 -0.2303 -0.2177  0.4025
 1347SOL     OW 5460   2.498   3.862   2.311 -0.2880  0.5102  0.1708
 1347SOL    HW2 5461   2.493   3.866   2.406 -0.2163 -1.7215  0.3042
 1347SOL    HW3 5462   2.414   3.897   2.281 -0.6204  0.4960  1.0825
 1347SOL    MW4 5463   2.486   3.867   2.319 -0.3223  0.2139  0.3088
 1348SOL     OW 5464   2.265   3.976   2.219  0.3409  0.2413 -0.2472
 1348SOL    HW2 5465   2.278   4.058   2.266  0.3721  0.2811 -0.3253
 1348SOL    HW3 5466   2.188   3.937   2.260  0.0846  0.5023 -0.4714
 1348SOL    MW4 5467   2.256   3.982   2.230  0.3114  0.2811 -0.2871
 1349SOL     OW 5468   2.252   4.220   2.359  0.0751 -0.5597 -0.1010
 1349SOL    HW2 5469   2.261   4.255   2.448  0.8968  1.0054 -0.7867
 1349SOL    HW3 5470   2.166   4.252   2.329  0.1682 -0.3762 -0.1746
 1349SOL    MW4 5471   2.242   4.229   2.367  0.1960 -0.3285 -0.2012
 1350SOL     OW 5472   2.444   4.381   2.250  0.0011 -0.0002  0.2425
 1350SOL    HW2 5473   2.520   4.325   2.269 -0.6740 -1.0096  0.0193
 1350SOL    HW3 5474   2.370   4.335   2.289 -0.2978  1.7184  1.7513
 1350SOL    MW4 5475   2.445   4.368   2.258 -0.1278  0.0935  0.4117
 1351SOL     OW 5476   2.919   4.633   2.399 -0.0223  0.0344 -0.1732
 1351SOL    HW2 5477   2.989   4.678   2.351  1.4570 -0.7937  1.1955
 1351SOL    HW3 5478   2.918   4.545   2.363  0.8578 -0.4866  1.0598
 1351SOL    MW4 5479   2.928   4.628   2.388  0.2890 -0.1437  0.1702
 1352SOL     OW 5480   2.719   0.102   2.251 -0.2365  0.2373 -0.2199
 1352SOL    HW2 5481   2.709   0.180   2.305 -1.1843  0.1141 -0.2102
 1352SOL    HW3 5482   2.799   0.060   2.283  0.3567  1.2810 -0.3297
 1352SOL    MW4 5483   2.728   0.106   2.262 -0.2835  0.3587 -0.2332
 1353SOL     OW 5484   2.687   0.362   2.356 -0.1213  0.0538 -0.2071
 1353SOL    HW2 5485   2.687   0.366   2.452 -0.3361  0.7419 -0.2314
 1353SOL    HW3 5486   2.768   0.408   2.331  0.7462 -1.4973 -0.3121
 1353SOL    MW4 5487   2.698   0.369   2.366 -0.0353 -0.0601 -0.2241
 1354SOL     OW 5488   2.917   0.483   2.280 -0.5499 -0.2066 -0.6781
 1354SOL    HW2 5489   2.922   0.572   2.316 -3.2477 -0.3634  0.1587
 1354SOL    HW3 5490   2.905   0.496   2.186 -0.2005  0.2920 -0.6566
 1354SOL    MW4 5491   2.916   0.497   2.272 -0.8597 -0.1615 -0.5651
 1355SOL     OW 5492   2.905   0.752   2.402  0.3106  0.2209  0.2436
 1355SOL    HW2 5493   2.894   0.755   2.497 -1.7640 -0.2502  0.0322
 1355SOL    HW3 5494   2.824   0.788   2.366 -0.2447 -2.4723 -1.3762
 1355SOL    MW4 5495   2.893   0.757   2.410 -0.0365 -0.1967  0.0019
 1356SOL     OW 5496   2.693   0.878   2.282 -0.2413  0.0182 -0.2408
 1356SOL    HW2 5497   2.674   0.962   2.324 -1.9276  0.2101 -1.3483
 1356SOL    HW3 5498   2.690   0.897   2.188  0.0773 -1.1284 -0.4889
 1356SOL    MW4 5499   2.690   0.892   2.275 -0.4220 -0.1078 -0.4199
 1357SOL     OW 5500   2.679   1.133   2.379  0.0086 -0.1988 -0.3999
 1357SOL    HW2 5501   2.675   1.159   2.471  0.5807 -3.2302  0.5624
 1357SOL    HW3 5502   2.748   1.187   2.341 -0.6903  1.5665  0.7636
 1357SOL    MW4 5503   2.687   1.143   2.386 -0.0079 -0.3659 -0.1197
 1358SOL     OW 5504   2.874   1.301   2.289  0.2589  0.1199 -0.4259
 1358SOL    HW2 5505   2.950   1.255   2.325 -1.6757 -1.6438  1.5883
 1358SOL    HW3 5506   2.888   1.302   2.195  1.2388 -3.1312 -0.3713
 1358SOL    MW4 5507   2.886   1.295   2.281  0.1328 -0.5418 -0.1528
 1359SOL     OW 5508   2.904   1.557   2.368  0.1562 -0.0090  0.3141
 1359SOL    HW2 5509   2.910   1.550   2.463  0.2412 -1.5502  0.2099
 1359SOL    HW3 5510   2.908   1.466   2.337  0.8561  0.5199 -1.1924
 1359SOL    MW4 5511   2.906   1.544   2.376  0.2596 -0.1425  0.1016
 1360SOL     OW 5512   2.676   1.676   2.258  0.2782 -0.1644 -0.1977
 1360SOL    HW2 5513   2.757   1.638   2.293  0.3958 -0.2160 -0.5229
 1360SOL    HW3 5514   2.684   1.667   2.163  0.1900  0.4365 -0.2653
 1360SOL    MW4 5515   2.688   1.670   2.250  0.2820 -0.0920 -0.2494
 1361SOL     OW 5516   2.710   1.950   2.350 -0.1093  0.1493 -0.7176
 1361SOL    HW2 5517   2.705   1.954   2.445  2.5314 -0.0445 -0.5411
 1361SOL    HW3 5518   2.701   1.857   2.329  2.1360 -0.1705 -0.4208
 1361SOL    MW4 5519   2.708   1.938   2.360  0.5350  0.0814 -0.6549
 1362SOL     OW 5520   2.950   2.088   2.273 -0.1320  0.1467  0.3600
 1362SOL    HW2 5521   3.012   2.028   2.313 -0.7697 -1.3785 -0.8891
 1362SOL    HW3 5522   2.864   2.054   2.298 -0.4993  0.8656  0.0952
 1362SOL    MW4 5523   2.947   2.076   2.281 -0.2646  0.0403  0.1602
 1363SOL     OW 5524   2.922   2.343   2.371 -0.3166 -0.4333  0.0997
 1363SOL    HW2 5525   2.923   2.347   2.467 -2.4952 -0.3540  0.1355
 1363SOL    HW3 5526   2.942   2.252   2.351 -0.2710 -0.5427  0.6342
 1363SOL    MW4 5527   2.925   2.332   2.381 -0.5982 -0.4373  0.1750
 1364SOL     OW 5528   2.678   2.444   2.273  0.3923  0.1382  0.1289
 1364SOL    HW2 5529   2.767   2.424   2.301  0.4830 -0.3308 -0.4822
 1364SOL    HW3 5530   2.680   2.435   2.177 -0.2667  0.2852  0.0964
 1364SOL    MW4 5531   2.690   2.440   2.264  0.3176  0.0956  0.0439
 1365SOL     OW 5532   2.705   2.722   2.363 -0.0703  0.0211  0.0136
 1365SOL    HW2 5533   2.792   2.732   2.325 -0.0979  0.9977  0.1809
 1365SOL    HW3 5534   2.685   2.629   2.354  0.6603 -0.0713 -0.7436
 1365SOL    MW4 5535   2.714   2.711   2.357  0.0224  0.1378 -0.0644
 1366SOL     OW 5536   2.939   2.794   2.232  0.0415 -0.4701 -0.1603
 1366SOL    HW2 5537   2.912   2.881   2.263 -0.6173 -1.0465  0.9205
 1366SOL    HW3 5538   2.925   2.797   2.138 -1.0708  0.2341  0.0070
 1366SOL    MW4 5539   2.933   2.806   2.224 -0.1922 -0.4530  0.0043
 1367SOL     OW 5540   2.911   3.068   2.330 -0.0859  0.3317 -0.3453
 1367SOL    HW2 5541   2.989   3.111   2.295  0.3617 -0.2153 -0.0265
 1367SOL    HW3 5542   2.921   3.075   2.425  0.0429 -0.5744 -0.2880
 1367SOL    MW4 5543   2.923   3.075   2.338 -0.0098  0.1400 -0.2956
 1368SOL     OW 5544   2.672   3.199   2.267 -0.3273 -0.2191  0.3318
 1368SOL    HW2 5545   2.747   3.152   2.302  1.2710  0.8117 -1.5979
 1368SOL    HW3 5546   2.693   3.292   2.282 -1.4171  0.0573  0.1785
 1368SOL    MW4 5547   2.685   3.205   2.273 -0.2604 -0.0465  0.0570
 1369SOL     OW 5548   2.700   3.449   2.329 -0.5769  0.2251 -0.3235
 1369SOL    HW2 5549   2.758   3.515   2.290 -0.5816  0.1305 -0.4912
 1369SOL    HW3 5550   2.716   3.457   2.423  0.0253 -0.0896 -0.3968
 1369SOL    MW4 5551   2.710   3.459   2.336 -0.4981  0.1709 -0.3555
 1370SOL     OW 5552   2.889   3.600   2.205 -0.0333  0.3552  0.1217
 1370SOL    HW2 5553   2.965   3.550   2.236 -0.1649  0.9109  1.3704
 1370SOL    HW3 5554   2.879   3.671   2.268 -1.1643  0.7065 -0.4298
 1370SOL    MW4 5555   2.898   3.602   2.217 -0.1998  0.4749  0.2136
 1371SOL     OW 5556   2.918   3.846   2.345  0.0423 -0.4343  0.7379
 1371SOL    HW2 5557   2.911   3.858   2.440  1.8410  1.5649  0.6520
 1371SOL    HW3 5558   2.850   3.903   2.309  0.7867  0.5077  0.7802
 1371SOL    MW4 5559   2.908   3.855   2.353  0.3774 -0.0463  0.7322
 1372SOL     OW 5560   2.718   4.006   2.223 -0.0497  0.3300  0.1793
 1372SOL    HW2 5561   2.649   3.949   2.257 -1.2677  1.7478  0.1360
 1372SOL    HW3 5562   2.718   3.989   2.129 -1.0708  1.1026  0.0368
 1372SOL    MW4 5563   2.709   3.996   2.215 -0.3452  0.6189  0.1547
 1373SOL     OW 5564   2.666   4.267   2.339 -0.4311  0.2388  0.2655
 1373SOL    HW2 5565   2.674   4.265   2.435 -1.6612 -0.4857  0.3523
 1373SOL    HW3 5566   2.682   4.177   2.312 -1.6972  0.1162 -0.0842
 1373SOL    MW4 5567   2.669   4.255   2.348 -0.7603  0.1268  0.2310
 1374SOL     OW 5568   2.913   4.380   2.294  0.4633 -0.8967 -0.3196
 1374SOL    HW2 5569   2.984   4.331   2.336  0.4740  0.5172  1.3314
 1374SOL    HW3 5570   2.833   4.339   2.326  0.4912 -1.1168 -0.5246
 1374SOL    MW4 5571   2.912   4.368   2.303  0.4683 -0.7396 -0.1287
 1375SOL     OW 5572   3.348   4.634   2.411 -0.0859  0.1186  0.3077
 1375SOL    HW2 5573   3.371   4.617   2.502  0.6036 -1.2146 -0.0916
 1375SOL    HW3 5574   3.430   4.663   2.370 -0.5497  1.3977  0.2610
 1375SOL    MW4 5575   3.362   4.636   2.417 -0.0560  0.1116  0.2489
 1376SOL     OW 5576   3.127   0.116   2.289 -0.0653 -0.0545  0.2826
 1376SOL    HW2 5577   3.155   0.204   2.311  0.1145  0.0396 -0.3291
 1376SOL    HW3 5578   3.199   0.060   2.318  0.6314  0.1579 -0.9892
 1376SOL    MW4 5579   3.140   0.120   2.296  0.0508 -0.0141  0.0339
 1377SOL     OW 5580   3.147   0.421   2.410  0.3849  0.1828 -0.1114
 1377SOL    HW2 5581   3.213   0.463   2.355  0.1047  1.9000  0.8433
 1377SOL    HW3 5582   3.065   0.432   2.362  0.3175  0.6742  0.1203
 1377SOL    MW4 5583   3.145   0.428   2.396  0.3388  0.4742  0.0451
 1378SOL     OW 5584   3.359   0.554   2.285  0.0253 -0.2210 -0.6288
 1378SOL    HW2 5585   3.420   0.482   2.302 -0.7899 -0.6856  0.3442
 1378SOL    HW3 5586   3.342   0.549   2.191  0.3973 -0.9631 -0.6625
 1378SOL    MW4 5587   3.365   0.544   2.275 -0.0331 -0.3802 -0.5047
 1379SOL     OW 5588   3.303   0.819   2.349  0.1248  0.2011  0.2989
 1379SOL    HW2 5589   3.392   0.853   2.335  0.7299 -1.1249  0.7832
 1379SOL    HW3 5590   3.306   0.730   2.314 -1.3374  0.5135 -0.6678
 1379SOL    MW4 5591   3.315   0.812   2.343  0.0117  0.0673  0.2353
 1380SOL     OW 5592   3.067   0.953   2.272  0.2280 -0.0139 -0.4341
 1380SOL    HW2 5593   3.151   0.913   2.296  0.5562  0.4131 -0.8762
 1380SOL    HW3 5594   3.002   0.901   2.319  0.8753  0.9217  1.5422
 1380SOL    MW4 5595   3.070   0.941   2.281  0.3567  0.1658 -0.2317
 1381SOL     OW 5596   3.096   1.181   2.402 -0.6091  0.3982 -0.1699
 1381SOL    HW2 5597   3.179   1.217   2.369  0.2085 -0.4551  0.9440
 1381SOL    HW3 5598   3.089   1.095   2.360 -1.5778  0.9804 -1.2541
 1381SOL    MW4 5599   3.106   1.174   2.392 -0.6289  0.3625 -0.1657
 1382SOL     OW 5600   3.359   1.271   2.238 -0.0257  0.4317  0.3440
 1382SOL    HW2 5601   3.433   1.224   2.278 -0.1601  0.3116  0.4529
 1382SOL    HW3 5602   3.363   1.359   2.276  0.5641  0.6769 -0.2869
 1382SOL    MW4 5603   3.369   1.276   2.248  0.0346  0.4483  0.2754
 1383SOL     OW 5604   3.368   1.521   2.353 -0.1649 -0.2968 -0.3110
 1383SOL    HW2 5605   3.385   1.525   2.447 -1.2825  0.6042 -0.1390
 1383SOL    HW3 5606   3.285   1.567   2.341 -0.7747 -1.6767 -1.5568
 1383SOL    MW4 5607   3.360   1.527   2.364 -0.3929 -0.3599 -0.4528
 1384SOL     OW 5608   3.150   1.680   2.251 -0.2355  0.2796  0.0323
 1384SOL    HW2 5609   3.137   1.761   2.299 -1.2043 -0.2077  0.6192
 1384SOL    HW3 5610   3.080   1.622   2.283  0.2728 -0.6830 -0.5783
 1384SOL    MW4 5611   3.139   1.683   2.261 -0.2961  0.0882  0.0293
 1385SOL     OW 5612   3.139   1.929   2.376 -0.0600  0.0472  0.1479
 1385SOL    HW2 5613   3.162   1.927   2.469 -0.9870  1.0376  0.4071
 1385SOL    HW3 5614   3.220   1.958   2.332 -0.4004  2.2582  0.9225
 1385SOL    MW4 5615   3.153   1.932   2.382 -0.2270  0.4696  0.2842
 1386SOL     OW 5616   3.368   2.027   2.266  0.3332  0.2393  0.2104
 1386SOL    HW2 5617   3.448   1.985   2.297 -0.6128 -2.1833 -0.5242
 1386SOL    HW3 5618   3.381   2.036   2.171 -0.5119 -0.7809 -0.0128
 1386SOL    MW4 5619   3.381   2.023   2.257  0.0970 -0.2151  0.0844
 1387SOL     OW 5620   3.368   2.302   2.329 -0.2425  0.2281  0.1737
 1387SOL    HW2 5621   3.282   2.338   2.309 -1.1829 -1.2841  1.3919
 1387SOL    HW3 5622   3.360   2.208   2.311  1.6941  0.3434 -1.4131
 1387SOL    MW4 5623   3.356   2.294   2.324 -0.1113  0.0439  0.1252
 1388SOL     OW 5624   3.145   2.450   2.241 -0.1074 -0.4183  0.3051
 1388SOL    HW2 5625   3.160   2.536   2.280 -0.7307 -0.7020  1.1642
 1388SOL    HW3 5626   3.075   2.411   2.293 -2.0700 -0.1619 -2.0594
 1388SOL    MW4 5627   3.138   2.456   2.253 -0.4487 -0.4220  0.1068
 1389SOL     OW 5628   3.164   2.698   2.335  0.1547  0.1549 -0.3663
 1389SOL    HW2 5629   3.162   2.700   2.431  1.4671  0.4200 -0.3419
 1389SOL    HW3 5630   3.082   2.741   2.309 -0.1561  0.1813  0.6286
 1389SOL    MW4 5631   3.153   2.704   2.344  0.2868  0.1934 -0.2320
 1390SOL     OW 5632   3.400   2.828   2.282 -0.2902  0.2916  0.2063
 1390SOL    HW2 5633   3.397   2.918   2.316 -0.0374  0.0868  0.7835
 1390SOL    HW3 5634   3.322   2.786   2.318 -0.7563  0.4647 -0.5993
 1390SOL    MW4 5635   3.389   2.835   2.291 -0.3183  0.2875  0.1762
 1391SOL     OW 5636   3.381   3.099   2.351  0.0402 -0.0823  0.2559
 1391SOL    HW2 5637   3.458   3.132   2.304  0.3504  0.0272  0.8247
 1391SOL    HW3 5638   3.307   3.140   2.309  0.2236 -0.9312 -0.9278
 1391SOL    MW4 5639   3.382   3.108   2.340  0.1054 -0.1798  0.1748
 1392SOL     OW 5640   3.130   3.211   2.243 -0.2034 -0.1920 -0.7071
 1392SOL    HW2 5641   3.120   3.301   2.274 -0.8022 -0.6997  0.6120
 1392SOL    HW3 5642   3.147   3.219   2.149 -0.1810  1.2954 -0.5814
 1392SOL    MW4 5643   3.131   3.224   2.235 -0.2794 -0.0625 -0.5164
 1393SOL     OW 5644   3.114   3.469   2.306  0.0341 -0.2047  0.2505
 1393SOL    HW2 5645   3.132   3.467   2.401  1.6509  0.4283 -0.0260
 1393SOL    HW3 5646   3.176   3.533   2.272 -0.1541 -0.8474 -1.3227
 1393SOL    MW4 5647   3.125   3.477   2.314  0.2227 -0.2060  0.0062
 1394SOL     OW 5648   3.348   3.644   2.243 -0.5954 -0.2048 -0.6206
 1394SOL    HW2 5649   3.409   3.588   2.291 -0.6025 -0.1298 -0.5232
 1394SOL    HW3 5650   3.350   3.611   2.153 -0.9109 -0.6312 -0.4739
 1394SOL    MW4 5651   3.356   3.632   2.237 -0.6378 -0.2513 -0.5884
 1395SOL     OW 5652   3.334   3.895   2.331 -0.6054 -0.0139  0.1473
 1395SOL    HW2 5653   3.416   3.930   2.296  0.1870 -0.0097  1.9827
 1395SOL    HW3 5654   3.330   3.806   2.297  0.5805 -0.2935  0.7061
 1395SOL    MW4 5655   3.345   3.888   2.322 -0.3445 -0.0503  0.4635
 1396SOL     OW 5656   3.119   4.051   2.262  0.9056 -0.8895 -0.2984
 1396SOL    HW2 5657   3.189   3.994   2.292  0.7995 -0.0506  1.6386
 1396SOL    HW3 5658   3.038   4.007   2.288  0.8067 -0.3845  0.2915
 1396SOL    MW4 5659   3.117   4.038   2.270  0.8786 -0.7119  0.0350
 1397SOL     OW 5660   3.133   4.262   2.413 -0.0955  0.2257  0.7183
 1397SOL    HW2 5661   3.213   4.294   2.372  0.1271  1.0719  1.8098
 1397SOL    HW3 5662   3.117   4.177   2.371  0.8280  0.5014 -0.1960
 1397SOL    MW4 5663   3.141   4.255   2.402  0.0560  0.3738  0.7415
 1398SOL     OW 5664   3.371   4.375   2.296 -0.1511 -0.7344  0.3759
 1398SOL    HW2 5665   3.350   4.445   2.357 -0.9453 -1.1687  0.6112
 1398SOL    HW3 5666   3.344   4.409   2.210  0.0004 -0.5265  0.4113
 1398SOL    MW4 5667   3.364   4.388   2.293 -0.2360 -0.7639  0.4113
 1399SOL     OW 5668   3.811   0.017   2.344 -0.0417  0.0076 -0.1919
 1399SOL    HW2 5669   3.817   0.022   2.439  1.2549 -0.1546 -0.2501
 1399SOL    HW3 5670   3.878   0.077   2.312  1.5782 -2.1416 -0.9722
 1399SOL    MW4 5671   3.821   0.025   2.352  0.3433 -0.2975 -0.3026
 1400SOL     OW 5672   3.557   0.079   2.245 -0.5043 -0.0402 -0.0141
 1400SOL    HW2 5673   3.545   0.166   2.283  1.1924  0.5874 -0.8609
 1400SOL    HW3 5674   3.644   0.052   2.274 -1.3380 -1.8295  0.9232
 1400SOL    MW4 5675   3.567   0.087   2.254 -0.3905 -0.1934 -0.0024
 1401SOL     OW 5676   3.557   0.350   2.318  0.1727  0.4213 -0.5094
 1401SOL    HW2 5677   3.530   0.362   2.409 -0.6937  1.0583 -0.8429
 1401SOL    HW3 5678   3.644   0.390   2.313 -0.1647  1.1952 -0.1774
 1401SOL    MW4 5679   3.565   0.357   2.329  0.0138  0.6075 -0.5095
 1402SOL     OW 5680   3.820   0.460   2.285 -0.0534  0.2890 -0.6594
 1402SOL    HW2 5681   3.810   0.553   2.303 -0.0656  0.0292  0.7454
 1402SOL    HW3 5682   3.817   0.453   2.190 -2.1907  1.4905 -0.7097
 1402SOL    MW4 5683   3.818   0.471   2.275 -0.3369  0.4132 -0.4809
 1403SOL     OW 5684   3.798   0.731   2.319  0.1135  0.0360 -0.6214
 1403SOL    HW2 5685   3.816   0.737   2.413 -0.7344 -2.0128 -0.3052
 1403SOL    HW3 5686   3.868   0.782   2.278  1.0295  0.1799  1.0726
 1403SOL    MW4 5687   3.809   0.739   2.326  0.1225 -0.2154 -0.3562
 1404SOL     OW 5688   3.553   0.873   2.270 -0.6328 -0.1136  0.5223
 1404SOL    HW2 5689   3.616   0.808   2.300  0.4010  0.6159 -0.0518
 1404SOL    HW3 5690   3.557   0.869   2.174 -1.7541 -0.3552  0.4806
 1404SOL    MW4 5691   3.562   0.864   2.261 -0.6440 -0.0492  0.4411
 1405SOL     OW 5692   3.573   1.135   2.340 -0.0601  0.0534 -0.1808
 1405SOL    HW2 5693   3.572   1.145   2.436  1.4862  1.7772 -0.3103
 1405SOL    HW3 5694   3.568   1.040   2.326  0.6880 -0.2889  1.6402
 1405SOL    MW4 5695   3.572   1.124   2.351  0.2427  0.2357  0.0424
 1406SOL     OW 5696   3.759   1.257   2.192 -0.7406  0.5581 -0.2422
 1406SOL    HW2 5697   3.775   1.343   2.229  0.2266 -0.3089  1.3731
 1406SOL    HW3 5698   3.691   1.219   2.248  0.5703 -0.6661  0.5500
 1406SOL    MW4 5699   3.752   1.263   2.204 -0.4401  0.2822  0.0753
 1407SOL     OW 5700   3.815   1.477   2.333 -0.0667  0.2906 -0.2232
 1407SOL    HW2 5701   3.813   1.494   2.427 -0.9033 -1.7513  0.1545
 1407SOL    HW3 5702   3.736   1.518   2.299 -0.6860 -0.4800  0.2612
 1407SOL    MW4 5703   3.804   1.485   2.341 -0.2589 -0.0805 -0.1094
 1408SOL     OW 5704   3.589   1.637   2.273  0.2097  0.3539  0.1516
 1408SOL    HW2 5705   3.502   1.606   2.301  1.1723 -0.8507  1.8925
 1408SOL    HW3 5706   3.584   1.638   2.177 -0.0721 -4.8052 -0.0593
 1408SOL    MW4 5707   3.577   1.633   2.264  0.2995 -0.4858  0.3533
 1409SOL     OW 5708   3.599   1.909   2.388 -0.8129 -0.1918  0.5674
 1409SOL    HW2 5709   3.672   1.949   2.341 -1.6597  0.4216 -0.2204
 1409SOL    HW3 5710   3.597   1.818   2.357 -1.0982  0.0961 -0.2615
 1409SOL    MW4 5711   3.608   1.902   2.378 -0.9623 -0.0728  0.3543
 1410SOL     OW 5712   3.807   2.034   2.246  0.1553  0.1779 -0.4044
 1410SOL    HW2 5713   3.895   2.003   2.267  0.2999  0.9651  0.1415
 1410SOL    HW3 5714   3.797   2.017   2.152  0.3013 -1.3521 -0.1523
 1410SOL    MW4 5715   3.817   2.027   2.236  0.1936  0.0799 -0.2992
 1411SOL     OW 5716   3.860   2.280   2.345 -0.1843  0.0958 -0.3112
 1411SOL    HW2 5717   3.773   2.316   2.331  0.1807  0.6732 -1.1800
 1411SOL    HW3 5718   3.851   2.186   2.326 -0.6785  0.1002 -0.0901
 1411SOL    MW4 5719   3.847   2.272   2.340 -0.2012  0.1726 -0.3965
 1412SOL     OW 5720   3.613   2.395   2.286  0.0633  0.2041  0.4123
 1412SOL    HW2 5721   3.526   2.360   2.306  0.0290  0.4793  0.7649
 1412SOL    HW3 5722   3.613   2.408   2.191 -0.2487  0.1142  0.4004
 1412SOL    MW4 5723   3.602   2.392   2.276  0.0179  0.2284  0.4573
 1413SOL     OW 5724   3.635   2.657   2.335 -0.4113  0.2796 -0.1459
 1413SOL    HW2 5725   3.635   2.562   2.324 -1.0853  0.3519 -0.7868
 1413SOL    HW3 5726   3.550   2.685   2.302 -1.0062  0.8935  1.8484
 1413SOL    MW4 5727   3.624   2.648   2.329 -0.5786  0.3698  0.0331
 1414SOL     OW 5728   3.829   2.821   2.209 -0.0168 -0.0148  0.2695
 1414SOL    HW2 5729   3.824   2.901   2.262  0.1990  0.1492  0.0429
 1414SOL    HW3 5730   3.761   2.765   2.245 -1.7435  1.1685 -1.0506
 1414SOL    MW4 5731   3.820   2.824   2.221 -0.2160  0.1631  0.0653
 1415SOL     OW 5732   3.807   3.060   2.332 -0.2165  0.0053 -0.2068
 1415SOL    HW2 5733   3.803   3.071   2.427 -0.7932  0.5243 -0.2858
 1415SOL    HW3 5734   3.877   3.119   2.304 -1.9443  2.0097 -0.4044
 1415SOL    MW4 5735   3.816   3.069   2.341 -0.5205  0.3383 -0.2432
 1416SOL     OW 5736   3.600   3.210   2.210 -0.1178  0.7313 -0.1866
 1416SOL    HW2 5737   3.577   3.295   2.246 -0.9188 -0.4098  2.0791
 1416SOL    HW3 5738   3.661   3.173   2.273  1.2292  0.1410 -1.8103
 1416SOL    MW4 5739   3.605   3.216   2.223 -0.0458  0.5028 -0.1020
 1417SOL     OW 5740   3.540   3.446   2.349 -0.1981  0.3341  0.4970
 1417SOL    HW2 5741   3.544   3.430   2.443 -1.2678 -0.6737  0.3828
 1417SOL    HW3 5742   3.623   3.490   2.329 -0.0302  0.7086  1.9269
 1417SOL    MW4 5743   3.552   3.449   2.359 -0.3171  0.2506  0.6704
 1418SOL     OW 5744   3.770   3.577   2.277 -0.1238  0.7899  0.5369
 1418SOL    HW2 5745   3.790   3.667   2.304  0.3586  0.8224  0.0750
 1418SOL    HW3 5746   3.807   3.570   2.189 -1.5336  0.6271 -0.0466
 1418SOL    MW4 5747   3.778   3.588   2.269 -0.2460  0.7730  0.3989
 1419SOL     OW 5748   3.849   3.833   2.369 -0.1734  0.0400 -0.2545
 1419SOL    HW2 5749   3.836   3.839   2.464  1.2628  0.1516 -0.0530
 1419SOL    HW3 5750   3.921   3.894   2.352 -1.7919  1.5959 -1.7169
 1419SOL    MW4 5751   3.856   3.842   2.380 -0.1972  0.2599 -0.4210
 1420SOL     OW 5752   3.613   3.968   2.283  0.4979 -0.0799  0.1731
 1420SOL    HW2 5753   3.633   4.046   2.335 -1.8317 -1.5363  3.4717
 1420SOL    HW3 5754   3.690   3.911   2.294  0.8385  0.4314  0.4319
 1420SOL    MW4 5755   3.626   3.971   2.292  0.2356 -0.2046  0.6423
 1421SOL     OW 5756   3.614   4.244   2.366 -1.0648 -0.6356 -0.1308
 1421SOL    HW2 5757   3.681   4.311   2.348  0.0021 -1.4618  0.6745
 1421SOL    HW3 5758   3.533   4.282   2.333 -0.3171  0.6878 -0.4992
 1421SOL    MW4 5759   3.612   4.258   2.359 -0.8252 -0.5698 -0.0732
 1422SOL     OW 5760   3.833   4.399   2.294 -0.5578  0.5883  0.4791
 1422SOL    HW2 5761   3.918   4.363   2.319 -0.0273  1.3594 -0.1800
 1422SOL    HW3 5762   3.836   4.490   2.325 -1.4030  0.4276  1.0468
 1422SOL    MW4 5763   3.844   4.406   2.302 -0.5991  0.6690  0.4671
 1423SOL     OW 5764   4.271   4.639   2.321 -0.1183  0.5315  0.0487
 1423SOL    HW2 5765   4.283   4.614   2.412  1.8692  0.0627 -0.3099
 1423SOL    HW3 5766   4.347   4.694   2.301 -1.0304  1.4069 -1.0509
 1423SOL    MW4 5767   4.283   4.643   2.330  0.0243  0.5851 -0.1435
 1424SOL     OW 5768   4.037   0.140   2.253 -0.1426 -0.2585 -0.1370
 1424SOL    HW2 5769   4.052   0.220   2.303  0.9991  1.4472 -3.0426
 1424SOL    HW3 5770   4.103   0.079   2.284  0.1333  0.5398  0.8647
 1424SOL    MW4 5771   4.047   0.143   2.263  0.0448  0.0718 -0.3881
 1425SOL     OW 5772   4.062   0.369   2.384  0.0098  0.3544 -0.0515
 1425SOL    HW2 5773   4.135   0.423   2.355 -0.3044  1.6377  1.4604
 1425SOL    HW3 5774   3.985   0.409   2.344 -0.4356  2.1835  2.4785
 1425SOL    MW4 5775   4.061   0.381   2.375 -0.0901  0.7650  0.4818
 1426SOL     OW 5776   4.251   0.505   2.202  0.1791 -0.3807 -0.0122
 1426SOL    HW2 5777   4.236   0.583   2.255  0.7830 -0.3858  0.1730
 1426SOL    HW3 5778   4.326   0.462   2.244  1.1444 -0.0016 -1.2991
 1426SOL    MW4 5779   4.259   0.510   2.215  0.3862 -0.3313 -0.1576
 1427SOL     OW 5780   4.240   0.743   2.370 -0.1407 -0.4224  0.2922
 1427SOL    HW2 5781   4.167   0.777   2.318 -0.6662 -1.6889  0.2040
 1427SOL    HW3 5782   4.315   0.794   2.340 -0.4322 -1.1333 -1.7409
 1427SOL    MW4 5783   4.240   0.754   2.359 -0.2480 -0.6833  0.0124
 1428SOL     OW 5784   4.004   0.898   2.236 -0.0788  0.0305  0.3793
 1428SOL    HW2 5785   4.000   0.988   2.269  0.8766 -0.6060  2.3218
 1428SOL    HW3 5786   4.017   0.907   2.142  1.0878  1.9433  0.6991
 1428SOL    MW4 5787   4.005   0.911   2.228  0.2007  0.1989  0.6778
 1429SOL     OW 5788   3.992   1.161   2.328 -0.1016  0.4507  0.3926
 1429SOL    HW2 5789   3.974   1.167   2.422 -1.5643  1.8423  0.0284
 1429SOL    HW3 5790   3.914   1.197   2.286  1.5133  2.0342 -1.3202
 1429SOL    MW4 5791   3.979   1.166   2.335 -0.0818  0.8433  0.1185
 1430SOL     OW 5792   4.243   1.273   2.208 -0.0581  0.1327  0.2560
 1430SOL    HW2 5793   4.163   1.238   2.246 -0.3030  1.3298  0.8567
 1430SOL    HW3 5794   4.313   1.223   2.249 -0.4466 -0.2872  0.4141
 1430SOL    MW4 5795   4.242   1.262   2.218 -0.1416  0.2353  0.3562
 1431SOL     OW 5796   4.255   1.535   2.317 -0.1797  0.3544 -0.7121
 1431SOL    HW2 5797   4.258   1.451   2.272 -1.0846  0.5685 -1.1907
 1431SOL    HW3 5798   4.339   1.577   2.297  0.5368 -0.6874  0.0454
 1431SOL    MW4 5799   4.266   1.530   2.308 -0.2046  0.2452 -0.6752
 1432SOL     OW 5800   4.014   1.657   2.248  0.0236 -0.2101  0.3983
 1432SOL    HW2 5801   4.105   1.627   2.254 -0.3010 -1.8192 -1.9080
 1432SOL    HW3 5802   3.963   1.585   2.285 -0.3723  0.2307  0.7008
 1432SOL    MW4 5803   4.019   1.643   2.253 -0.0715 -0.3643  0.1340
 1433SOL     OW 5804   4.042   1.918   2.327 -0.3313  0.1272 -0.2154
 1433SOL    HW2 5805   4.042   1.933   2.421 -0.4452  1.0467 -0.3581
 1433SOL    HW3 5806   4.029   1.823   2.318  2.3183 -0.3699  0.7325
 1433SOL    MW4 5807   4.040   1.907   2.338  0.0029  0.1829 -0.1092
 1434SOL     OW 5808   4.273   2.031   2.233 -0.3347 -0.9515 -0.3620
 1434SOL    HW2 5809   4.268   2.126   2.249  1.2377 -0.7078 -1.2271
 1434SOL    HW3 5810   4.193   1.996   2.272 -0.9349  0.7368 -0.0393
 1434SOL    MW4 5811   4.262   2.039   2.240 -0.2065 -0.6969 -0.4332
 1435SOL     OW 5812   4.288   2.303   2.302  0.3521 -0.3341  0.6088
 1435SOL    HW2 5813   4.214   2.358   2.277  0.0971 -0.6387  0.6870
 1435SOL    HW3 5814   4.364   2.359   2.290 -0.0164  0.4810  2.0021
 1435SOL    MW4 5815   4.288   2.317   2.297  0.2699 -0.2666  0.8030
 1436SOL     OW 5816   4.056   2.461   2.246 -0.1527  0.4062  0.4640
 1436SOL    HW2 5817   4.042   2.549   2.282 -0.4139  0.8185 -0.6201
 1436SOL    HW3 5818   3.997   2.405   2.297 -1.8580  1.2750 -0.4904
 1436SOL    MW4 5819   4.046   2.465   2.258 -0.4120  0.5751  0.1950
 1437SOL     OW 5820   4.055   2.743   2.314  0.1441 -0.0616  0.4843
 1437SOL    HW2 5821   4.045   2.742   2.409  0.0310  0.1578  0.4758
 1437SOL    HW3 5822   3.971   2.776   2.282 -0.2861 -1.3979  0.2399
 1437SOL    MW4 5823   4.043   2.747   2.323  0.0725 -0.2091  0.4513
 1438SOL     OW 5824   4.281   2.872   2.230 -0.4290 -0.0465  0.3828
 1438SOL    HW2 5825   4.203   2.827   2.263 -0.5212 -0.2057 -0.0517
 1438SOL    HW3 5826   4.355   2.825   2.269 -0.5148 -0.8022 -0.3606
 1438SOL    MW4 5827   4.280   2.860   2.240 -0.4520 -0.1674  0.2275
 1439SOL     OW 5828   4.261   3.129   2.322  0.4490 -0.0909 -0.7024
 1439SOL    HW2 5829   4.276   3.039   2.292  0.9270  0.1028 -1.0647
 1439SOL    HW3 5830   4.343   3.174   2.303  0.1925  0.4351 -0.5705
 1439SOL    MW4 5831   4.274   3.123   2.315  0.4783  0.0038 -0.7327
 1440SOL     OW 5832   4.014   3.234   2.254  0.5033  0.0824 -0.6911
 1440SOL    HW2 5833   4.005   3.320   2.296  0.8242 -0.0811 -0.2855
 1440SOL    HW3 5834   4.096   3.199   2.288  0.6290 -0.1713 -1.2506
 1440SOL    MW4 5835   4.024   3.241   2.264  0.5622  0.0274 -0.7112
 1441SOL     OW 5836   4.003   3.476   2.369  0.4257  0.2464  0.0554
 1441SOL    HW2 5837   4.055   3.540   2.320 -0.3821  0.6618 -0.2743
 1441SOL    HW3 5838   3.914   3.511   2.366 -0.0701 -1.0494 -0.3589
 1441SOL    MW4 5839   3.998   3.489   2.362  0.2542  0.1304 -0.0429
 1442SOL     OW 5840   4.198   3.619   2.224  0.2469 -0.2128  0.0977
 1442SOL    HW2 5841   4.216   3.706   2.260 -0.4814 -0.7496  1.8249
 1442SOL    HW3 5842   4.217   3.627   2.131 -0.1031  1.8791  0.1862
 1442SOL    MW4 5843   4.203   3.631   2.217  0.1049 -0.0076  0.3369
 1443SOL     OW 5844   4.289   3.861   2.329 -0.4386 -0.1504  0.1781
 1443SOL    HW2 5845   4.283   3.865   2.424 -0.8357  0.3511  0.1393
 1443SOL    HW3 5846   4.358   3.924   2.307 -0.2980 -0.3195  0.1436
 1443SOL    MW4 5847   4.298   3.870   2.339 -0.4725 -0.1066  0.1683
 1444SOL     OW 5848   4.061   4.010   2.260  0.1112 -0.0509 -0.1709
 1444SOL    HW2 5849   4.145   3.965   2.272  0.5070  0.0345 -2.5431
 1444SOL    HW3 5850   4.037   3.993   2.169 -0.9636  2.4829 -0.3886
 1444SOL    MW4 5851   4.069   4.002   2.250  0.0215  0.2947 -0.5126
 1445SOL     OW 5852   4.095   4.261   2.369 -0.3938  0.5397 -0.2222
 1445SOL    HW2 5853   4.140   4.303   2.296  0.3071  1.3506  0.6558
 1445SOL    HW3 5854   4.076   4.172   2.338  1.3574  0.3402 -0.8021
 1445SOL    MW4 5855   4.099   4.255   2.356 -0.0701  0.6204 -0.1829
 1446SOL     OW 5856   4.247   4.392   2.182 -0.1340 -0.0828 -0.9294
 1446SOL    HW2 5857   4.251   4.484   2.209 -2.0341  0.2988 -1.8889
 1446SOL    HW3 5858   4.322   4.352   2.226  0.5391  1.8450 -0.2273
 1446SOL    MW4 5859   4.257   4.399   2.191 -0.2956  0.2222 -0.9637
 1447SOL     OW 5860   0.228   0.001   2.582  0.8802 -0.3602  0.3701
 1447SOL    HW2 5861   0.218  -0.089   2.615 -0.2499  0.5984  2.7205
 1447SOL    HW3 5862   0.152   0.047   2.616  2.2507  1.8749  0.4562
 1447SOL    MW4 5863   0.217  -0.005   2.591  0.9119  0.0612  0.6917
 1448SOL     OW 5864   4.475   0.130   2.662  0.6685 -0.1454 -0.2787
 1448SOL    HW2 5865   4.471   0.119   2.757  0.7695  0.4943 -0.1975
 1448SOL    HW3 5866   4.465   0.225   2.649  2.4979  0.0084 -0.7926
 1448SOL    MW4 5867   4.473   0.141   2.673  0.9232 -0.0407 -0.3357
 1449SOL     OW 5868   4.430   0.400   2.634 -0.4916 -0.3237 -0.7333
 1449SOL    HW2 5869   4.516   0.430   2.663 -0.6903  0.3259 -0.8163
 1449SOL    HW3 5870   4.437   0.398   2.539 -1.2067  1.6757 -0.8445
 1449SOL    MW4 5871   4.443   0.403   2.625 -0.6127  0.0258 -0.7586
 1450SOL     OW 5872   0.188   0.491   2.725 -0.1518  0.0502  0.1816
 1450SOL    HW2 5873   0.200   0.481   2.820 -1.3020  0.3066  0.3551
 1450SOL    HW3 5874   0.257   0.437   2.687 -1.4833 -2.3772  1.1496
 1450SOL    MW4 5875   0.199   0.483   2.733 -0.4792 -0.2362  0.3324
 1451SOL     OW 5876   0.220   0.741   2.597 -0.1918  0.3782 -0.0471
 1451SOL    HW2 5877   0.295   0.779   2.642  0.1722  0.2538 -0.5360
 1451SOL    HW3 5878   0.209   0.654   2.636  1.2357 -0.4471 -1.3981
 1451SOL    MW4 5879   0.228   0.734   2.608  0.0446  0.2530 -0.2897
 1452SOL     OW 5880   0.001   0.872   2.731  0.6084  0.1372 -0.5240
 1452SOL    HW2 5881  -0.081   0.842   2.691  0.1084  0.1634  0.4538
 1452SOL    HW3 5882   0.069   0.820   2.688  0.0602  0.0013 -1.2334
 1452SOL    MW4 5883  -0.001   0.861   2.720  0.4702  0.1227 -0.4885
 1453SOL     OW 5884   4.450   1.133   2.602 -0.3964 -0.5397 -0.0222
 1453SOL    HW2 5885   4.520   1.194   2.628 -0.9487  0.6476 -1.2451
 1453SOL    HW3 5886   4.472   1.051   2.647  2.0350 -0.3350 -0.7506
 1453SOL    MW4 5887   4.462   1.131   2.612 -0.1484 -0.3560 -0.2797
 1454SOL     OW 5888   0.170   1.240   2.745 -0.6137 -0.2613 -0.1630
 1454SOL    HW2 5889   0.247   1.194   2.709 -0.8152  0.2646 -1.2689
 1454SOL    HW3 5890   0.180   1.330   2.716 -2.0911 -0.3606 -1.0452
 1454SOL    MW4 5891   0.182   1.246   2.736 -0.8352 -0.2050 -0.4253
 1455SOL     OW 5892   0.181   1.507   2.663 -0.0692 -0.1843 -0.0653
 1455SOL    HW2 5893   0.260   1.558   2.681  0.3063 -0.5766 -0.5931
 1455SOL    HW3 5894   0.109   1.569   2.678  0.4183  0.8467 -1.8390
 1455SOL    MW4 5895   0.182   1.522   2.668  0.0447 -0.1000 -0.3688
 1456SOL     OW 5896   4.447   1.667   2.697 -0.1074 -0.6076 -0.0684
 1456SOL    HW2 5897   4.449   1.665   2.793 -2.2893 -0.5347 -0.0160
 1456SOL    HW3 5898   4.461   1.759   2.675  0.2501 -0.6006  0.1631
 1456SOL    MW4 5899   4.449   1.678   2.707 -0.3486 -0.5970 -0.0308
 1457SOL     OW 5900   4.479   1.941   2.623  0.2304  0.0901  0.4687
 1457SOL    HW2 5901   4.562   1.979   2.653 -0.5316  1.0960  1.3491
 1457SOL    HW3 5902   4.488   1.936   2.528  1.2522  0.3262  0.5507
 1457SOL    MW4 5903   4.491   1.946   2.615  0.2651  0.2538  0.5956
 1458SOL     OW 5904   0.220   2.027   2.760 -0.2248  0.6043  0.7113
 1458SOL    HW2 5905   0.291   1.974   2.722  1.8667  0.5653  4.4630
 1458SOL    HW3 5906   0.233   2.114   2.723  0.7150  0.1879  0.0392
 1458SOL    MW4 5907   0.231   2.032   2.750  0.1752  0.5445  1.1177
 1459SOL     OW 5908   0.240   2.272   2.620 -0.4141  0.1393  0.3226
 1459SOL    HW2 5909   0.317   2.326   2.635 -0.3938  0.2151 -0.0525
 1459SOL    HW3 5910   0.166   2.328   2.645 -0.3809  0.2724  0.1283
 1459SOL    MW4 5911   0.240   2.287   2.625 -0.4071  0.1669  0.2477
 1460SOL     OW 5912   0.026   2.422   2.718 -0.0896 -0.5673  0.0465
 1460SOL    HW2 5913   0.020   2.439   2.812  2.5694 -0.2385  0.1970
 1460SOL    HW3 5914  -0.061   2.388   2.694 -0.4059 -1.9186  2.8646
 1460SOL    MW4 5915   0.014   2.420   2.728  0.2198 -0.7021  0.4380
 1461SOL     OW 5916   4.487   2.679   2.599  0.3119  0.3167  0.1609
 1461SOL    HW2 5917   4.406   2.717   2.632  0.4883 -0.4034  1.4525
 1461SOL    HW3 5918   4.501   2.601   2.654  1.5142  0.0610 -0.4948
 1461SOL    MW4 5919   4.478   2.674   2.611  0.4935  0.1881  0.2444
 1462SOL     OW 5920   0.185   2.841   2.750  0.3599 -0.0308 -0.3131
 1462SOL    HW2 5921   0.191   2.922   2.699  0.3188 -0.0119 -0.2880
 1462SOL    HW3 5922   0.124   2.786   2.701  0.8866 -0.2958 -0.6672
 1462SOL    MW4 5923   0.177   2.845   2.737  0.4240 -0.0632 -0.3564
 1463SOL     OW 5924   0.206   3.091   2.617 -0.1327 -0.4160  0.2159
 1463SOL    HW2 5925   0.288   3.121   2.655 -0.3866 -0.8961  1.1784
 1463SOL    HW3 5926   0.140   3.150   2.652 -0.0470  0.8283 -1.6416
 1463SOL    MW4 5927   0.208   3.103   2.627 -0.1549 -0.3152  0.0978
 1464SOL     OW 5928   0.009   3.255   2.699 -0.0943 -0.2099 -0.1144
 1464SOL    HW2 5929  -0.061   3.198   2.668 -0.7399  0.5438 -0.0449
 1464SOL    HW3 5930  -0.009   3.340   2.658  0.3283  0.1933  0.5212
 1464SOL    MW4 5931  -0.002   3.259   2.689 -0.1238 -0.0572 -0.0215
 1465SOL     OW 5932   4.490   3.526   2.583  0.2287 -0.2637 -0.1329
 1465SOL    HW2 5933   4.414   3.564   2.628 -0.5028  0.3948 -1.8957
 1465SOL    HW3 5934   4.562   3.537   2.645 -0.8005  0.4052  0.9738
 1465SOL    MW4 5935   4.489   3.532   2.597 -0.0035 -0.0882 -0.2193
 1466SOL     OW 5936   0.234   3.578   2.728  0.2508  0.0451 -0.2745
 1466SOL    HW2 5937   0.240   3.577   2.824  0.7187 -1.3684 -0.3006
 1466SOL    HW3 5938   0.316   3.537   2.699 -0.0142  0.2245 -1.2732
 1466SOL    MW4 5939   0.246   3.572   2.737  0.2775 -0.1180 -0.4096
 1467SOL     OW 5940   0.205   3.845   2.675  0.4384  0.4256  0.1588
 1467SOL    HW2 5941   0.222   3.754   2.699  0.5911  0.2213 -0.7145
 1467SOL    HW3 5942   0.193   3.843   2.580 -2.7689  0.8058  0.4865
 1467SOL    MW4 5943   0.205   3.833   2.666  0.0353  0.4487  0.0868
 1468SOL     OW 5944   4.481   4.030   2.767  0.0516 -0.3284  0.1346
 1468SOL    HW2 5945   4.475   4.112   2.717  0.3489 -0.5393 -0.2436
 1468SOL    HW3 5946   4.558   3.986   2.731 -0.3203 -0.9391  0.0947
 1468SOL    MW4 5947   4.490   4.035   2.755  0.0418 -0.4368  0.0796
 1469SOL     OW 5948   4.477   4.264   2.618  0.2045 -0.0130  0.1134
 1469SOL    HW2 5949   4.395   4.309   2.638  0.4149 -0.0808  1.1584
 1469SOL    HW3 5950   4.546   4.326   2.642  0.4595 -0.0465 -0.5364
 1469SOL    MW4 5951   4.475   4.278   2.624  0.2666 -0.0272  0.1652
 1470SOL     OW 5952   0.207   4.427   2.704 -0.0431 -0.1320  0.3600
 1470SOL    HW2 5953   0.188   4.422   2.798  0.4857  0.3937  0.4933
 1470SOL    HW3 5954   0.269   4.356   2.688  0.2693  0.1112  0.5032
 1470SOL    MW4 5955   0.212   4.417   2.714  0.0679 -0.0305  0.3965
 1471SOL     OW 5956   0.652   4.654   2.604 -0.1370  0.6210 -0.0396
 1471SOL    HW2 5957   0.729   4.710   2.616  0.2391  0.2638 -0.7340
 1471SOL    HW3 5958   0.581   4.701   2.647  0.6814  0.4663  1.5347
 1471SOL    MW4 5959   0.653   4.668   2.611  0.0206  0.5536  0.0765
 1472SOL     OW 5960   0.458   0.148   2.722  0.0271  0.0680 -0.3440
 1472SOL    HW2 5961   0.475   0.150   2.817 -0.6774  0.0960 -0.2143
 1472SOL    HW3 5962   0.370   0.110   2.715  0.0731  0.0838 -0.9891
 1472SOL    MW4 5963   0.448   0.143   2.734 -0.0598  0.0737 -0.4117
 1473SOL     OW 5964   0.424   0.395   2.617  0.2911  0.0100 -0.1172
 1473SOL    HW2 5965   0.493   0.449   2.655  1.9385 -0.5710 -2.2234
 1473SOL    HW3 5966   0.438   0.308   2.653  0.7358 -0.1358 -0.6425
 1473SOL    MW4 5967   0.435   0.391   2.627  0.5671 -0.0859 -0.4644
 1474SOL     OW 5968   0.631   0.513   2.749 -0.1402 -0.3668 -0.2370
 1474SOL    HW2 5969   0.647   0.534   2.842 -1.1124 -1.1036  0.1040
 1474SOL    HW3 5970   0.713   0.473   2.720  0.0648 -0.4241  0.3910
 1474SOL    MW4 5971   0.644   0.510   2.758 -0.2414 -0.4715 -0.1092
 1475SOL     OW 5972   0.682   0.785   2.659  0.2225 -0.0611  0.6527
 1475SOL    HW2 5973   0.766   0.810   2.698  1.2996 -0.3495 -1.4396
 1475SOL    HW3 5974   0.674   0.692   2.677  1.1192 -0.3739 -0.4947
 1475SOL    MW4 5975   0.692   0.776   2.667  0.4829 -0.1405  0.2253
 1476SOL     OW 5976   0.428   0.913   2.724  0.4145  0.7080 -0.2270
 1476SOL    HW2 5977   0.443   1.002   2.691  1.4395  1.0219  1.0439
 1476SOL    HW3 5978   0.516   0.877   2.732 -0.0190 -0.5362 -1.0304
 1476SOL    MW4 5979   0.442   0.920   2.721  0.4926  0.5853 -0.1655
 1477SOL     OW 5980   0.429   1.164   2.659 -0.2280 -0.2823  0.5473
 1477SOL    HW2 5981   0.504   1.213   2.694  0.6377 -2.3075  1.6460
 1477SOL    HW3 5982   0.441   1.167   2.564 -0.0804  1.4155  0.6011
 1477SOL    MW4 5983   0.441   1.171   2.651 -0.0943 -0.3254  0.6995
 1478SOL     OW 5984   0.665   1.277   2.737 -0.1333  0.1249 -0.1355
 1478SOL    HW2 5985   0.667   1.282   2.832 -1.1125 -0.4374 -0.0834
 1478SOL    HW3 5986   0.741   1.223   2.714 -0.2838 -0.3016  0.3639
 1478SOL    MW4 5987   0.675   1.271   2.746 -0.2823 -0.0055 -0.0629
 1479SOL     OW 5988   0.659   1.519   2.613  0.1637 -0.7076  0.1446
 1479SOL    HW2 5989   0.573   1.552   2.638 -0.1182 -1.1642 -0.2138
 1479SOL    HW3 5990   0.662   1.430   2.648 -0.0394 -1.1708 -0.9653
 1479SOL    MW4 5991   0.648   1.512   2.621  0.0997 -0.8289 -0.0491
 1480SOL     OW 5992   0.414   1.641   2.709 -0.0496  0.2062 -0.6198
 1480SOL    HW2 5993   0.412   1.650   2.804 -0.5818 -0.4959 -0.5630
 1480SOL    HW3 5994   0.421   1.731   2.676  0.6569  0.4184  0.0929
 1480SOL    MW4 5995   0.415   1.654   2.717 -0.0266  0.1415 -0.5186
 1481SOL     OW 5996   0.434   1.910   2.616 -0.1190  0.4435  0.4841
 1481SOL    HW2 5997   0.507   1.951   2.662  0.0656 -0.7605  1.2796
 1481SOL    HW3 5998   0.443   1.940   2.526  0.7754  1.0936  0.7790
 1481SOL    MW4 5999   0.445   1.919   2.610  0.0234  0.3703  0.6278
 1482SOL     OW 6000   0.653   2.090   2.708 -0.7948  0.0203  0.2725
 1482SOL    HW2 6001   0.640   2.066   2.800 -2.1801  0.4768  0.2114
 1482SOL    HW3 6002   0.731   2.042   2.681 -0.7400 -0.5983  1.5159
 1482SOL    MW4 6003   0.661   2.081   2.716 -0.9703 -0.0010  0.4284
 1483SOL     OW 6004   0.718   2.343   2.614  0.3846 -0.3260  0.0760
 1483SOL    HW2 6005   0.785   2.377   2.674 -0.3617 -1.0311  1.3252
 1483SOL    HW3 6006   0.691   2.259   2.652 -0.6358 -0.4265 -0.8356
 1483SOL    MW4 6007   0.723   2.337   2.627  0.1515 -0.4323  0.1204
 1484SOL     OW 6008   0.485   2.444   2.688 -0.7378 -0.4040  0.1042
 1484SOL    HW2 6009   0.471   2.534   2.659 -1.5110 -1.0989 -1.6990
 1484SOL    HW3 6010   0.570   2.420   2.650 -1.0883 -0.8383 -0.4032
 1484SOL    MW4 6011   0.495   2.453   2.680 -0.8861 -0.5529 -0.2005
 1485SOL     OW 6012   0.425   2.705   2.631 -0.0849  0.1785 -0.7300
 1485SOL    HW2 6013   0.493   2.750   2.682 -0.5735 -1.6732  1.6629
 1485SOL    HW3 6014   0.343   2.742   2.663 -0.4169 -1.2927  0.1508
 1485SOL    MW4 6015   0.423   2.716   2.642 -0.1931 -0.2596 -0.2980
 1486SOL     OW 6016   0.660   2.803   2.748  0.2092 -0.3402  0.1820
 1486SOL    HW2 6017   0.672   2.826   2.840 -0.5343  1.3686 -0.1175
 1486SOL    HW3 6018   0.667   2.887   2.702  0.7721 -1.2040 -1.3399
 1486SOL    MW4 6019   0.663   2.817   2.754  0.1854 -0.2286 -0.0582
 1487SOL     OW 6020   0.703   3.052   2.625 -0.1955  0.2426 -0.3099
 1487SOL    HW2 6021   0.770   3.109   2.663  1.3046 -0.9971 -1.0343
 1487SOL    HW3 6022   0.692   3.084   2.535 -0.1448  0.0695 -0.3771
 1487SOL    MW4 6023   0.710   3.064   2.618  0.0091  0.0565 -0.4141
 1488SOL     OW 6024   0.471   3.192   2.716  0.1773  0.3985  0.1265
 1488SOL    HW2 6025   0.475   3.193   2.812  0.7213 -0.0220  0.1069
 1488SOL    HW3 6026   0.547   3.141   2.689  1.7593  3.0600 -0.6422
 1488SOL    MW4 6027   0.481   3.186   2.725  0.4578  0.6940  0.0224
 1489SOL     OW 6028   0.475   3.475   2.626 -0.2486  0.1210 -0.0871
 1489SOL    HW2 6029   0.469   3.385   2.657  1.0313  0.1017  0.1212
 1489SOL    HW3 6030   0.469   3.469   2.531 -1.6261 -0.0493  0.0057
 1489SOL    MW4 6031   0.473   3.462   2.618 -0.2614  0.0958 -0.0472
 1490SOL     OW 6032   0.684   3.617   2.725  0.1238 -0.2277  0.1686
 1490SOL    HW2 6033   0.696   3.600   2.819 -1.0542  0.2457  0.4091
 1490SOL    HW3 6034   0.601   3.575   2.704 -0.3610  0.9824 -0.3298
 1490SOL    MW4 6035   0.675   3.609   2.735 -0.0955 -0.0055  0.1347
 1491SOL     OW 6036   0.656   3.880   2.617 -0.1402 -0.4747  0.0220
 1491SOL    HW2 6037   0.577   3.907   2.664 -0.3412  1.2494 -1.2712
 1491SOL    HW3 6038   0.679   3.796   2.656 -2.0200 -0.5067  1.1321
 1491SOL    MW4 6039   0.649   3.872   2.628 -0.4148 -0.2515 -0.0024
 1492SOL     OW 6040   0.431   4.008   2.741  0.2531 -0.0532  0.2546
 1492SOL    HW2 6041   0.433   4.086   2.684 -3.4108  1.5984  2.2023
 1492SOL    HW3 6042   0.356   3.958   2.709 -0.9164  0.1409  2.5929
 1492SOL    MW4 6043   0.422   4.012   2.729 -0.3846  0.1903  0.8202
 1493SOL     OW 6044   0.408   4.266   2.612  0.2593  0.2197 -0.2616
 1493SOL    HW2 6045   0.491   4.310   2.630  0.7241 -0.3074 -1.0786
 1493SOL    HW3 6046   0.391   4.283   2.520  0.1551 -0.8291 -0.4416
 1493SOL    MW4 6047   0.416   4.274   2.603  0.3069  0.0119 -0.3932
 1494SOL     OW 6048   0.641   4.382   2.678  0.0729 -0.3898  0.3191
 1494SOL    HW2 6049   0.728   4.344   2.672  0.2776 -0.6331  3.7040
 1494SOL    HW3 6050   0.654   4.475   2.661  0.8218 -0.6054 -0.2894
 1494SOL    MW4 6051   0.654   4.389   2.675  0.1987 -0.4501  0.6852
 1495SOL     OW 6052   1.116   4.611   2.646 -0.4631  0.2071 -0.2954
 1495SOL    HW2 6053   1.189   4.659   2.686  0.4285 -1.1573 -0.2751
 1495SOL    HW3 6054   1.127   4.521   2.676 -1.8347 -0.1235 -0.7582
 1495SOL    MW4 6055   1.127   4.605   2.656 -0.5264 -0.0162 -0.3538
 1496SOL     OW 6056   0.904   0.142   2.670  0.2055  0.1074  0.4430
 1496SOL    HW2 6057   0.894   0.140   2.765 -0.5447 -0.4650  0.3588
 1496SOL    HW3 6058   0.982   0.089   2.653  0.0382 -0.2227  0.7036
 1496SOL    MW4 6059   0.913   0.135   2.680  0.0843 -0.0117  0.4661
 1497SOL     OW 6060   0.859   0.410   2.612 -0.1790 -0.2510 -0.1188
 1497SOL    HW2 6061   0.897   0.324   2.631  1.9337  0.5820 -0.4723
 1497SOL    HW3 6062   0.860   0.415   2.516 -0.9100 -0.0777 -0.1231
 1497SOL    MW4 6063   0.864   0.399   2.602  0.0032 -0.1182 -0.1662
 1498SOL     OW 6064   1.097   0.510   2.701 -0.1870  0.0939 -0.0039
 1498SOL    HW2 6065   1.085   0.602   2.679 -0.0451  0.0647 -0.2058
 1498SOL    HW3 6066   1.014   0.468   2.677 -0.1968  0.1419 -0.0522
 1498SOL    MW4 6067   1.085   0.516   2.695 -0.1695  0.0964 -0.0367
 1499SOL     OW 6068   1.120   0.792   2.601  0.1365 -0.0570 -0.0231
 1499SOL    HW2 6069   1.198   0.838   2.633 -0.2940 -0.4485  1.6646
 1499SOL    HW3 6070   1.135   0.781   2.507  1.3723  1.3051  0.0003
 1499SOL    MW4 6071   1.133   0.796   2.593  0.2427  0.0710  0.2027
 1500SOL     OW 6072   0.905   0.888   2.749 -0.0252 -0.2903  0.8948
 1500SOL    HW2 6073   0.925   0.894   2.842  1.8992 -1.5470  0.5758
 1500SOL    HW3 6074   0.981   0.846   2.710 -0.6872  0.4676 -1.3021
 1500SOL    MW4 6075   0.918   0.883   2.756  0.1414 -0.3561  0.5629
 1501SOL     OW 6076   0.885   1.142   2.625 -0.0219  0.1751 -0.1424
 1501SOL    HW2 6077   0.884   1.054   2.663 -0.4937  0.0475 -0.4550
 1501SOL    HW3 6078   0.907   1.128   2.533  0.0673  0.4014 -0.1558
 1501SOL    MW4 6079   0.888   1.128   2.618 -0.0724  0.1882 -0.1855
 1502SOL     OW 6080   1.119   1.272   2.750  0.3261  0.0083 -0.2552
 1502SOL    HW2 6081   1.108   1.358   2.710 -1.3584 -0.1025 -0.0665
 1502SOL    HW3 6082   1.044   1.221   2.719  1.7431 -1.6746 -1.0476
 1502SOL    MW4 6083   1.108   1.276   2.741  0.2908 -0.2284 -0.3350
 1503SOL     OW 6084   1.132   1.542   2.654 -0.4397 -0.3591  0.0452
 1503SOL    HW2 6085   1.051   1.592   2.657 -0.4977 -0.4339 -0.2688
 1503SOL    HW3 6086   1.148   1.528   2.561 -0.8163 -1.5663  0.1558
 1503SOL    MW4 6087   1.124   1.547   2.642 -0.4971 -0.5283  0.0184
 1504SOL     OW 6088   0.892   1.668   2.673 -0.0708 -0.1082 -0.0261
 1504SOL    HW2 6089   0.884   1.676   2.768 -0.1077  0.6069 -0.0882
 1504SOL    HW3 6090   0.818   1.612   2.647  0.2310 -0.7241  0.4201
 1504SOL    MW4 6091   0.881   1.662   2.682 -0.0358 -0.0950  0.0248
 1505SOL     OW 6092   0.881   1.935   2.637  0.0129  0.3950  0.1960
 1505SOL    HW2 6093   0.966   1.975   2.659  0.1132  0.0194  0.4902
 1505SOL    HW3 6094   0.890   1.844   2.663 -0.1027  0.0987 -0.7835
 1505SOL    MW4 6095   0.894   1.929   2.643  0.0108  0.3064  0.1056
 1506SOL     OW 6096   1.130   2.057   2.735  0.3962  0.5201  0.4479
 1506SOL    HW2 6097   1.213   2.023   2.702  0.6584  1.5386  0.0264
 1506SOL    HW3 6098   1.125   2.146   2.699 -1.0515  0.3366  0.1658
 1506SOL    MW4 6099   1.141   2.065   2.726  0.2400  0.6301  0.3552
 1507SOL     OW 6100   1.125   2.321   2.663 -0.3918  0.2622  0.0500
 1507SOL    HW2 6101   1.203   2.360   2.704  0.8559 -3.2270  1.2078
 1507SOL    HW3 6102   1.144   2.322   2.569  2.1753 -2.5329  0.4305
 1507SOL    MW4 6103   1.138   2.326   2.656  0.1115 -0.5670  0.2530
 1508SOL     OW 6104   0.907   2.466   2.749 -0.2660  0.1207  0.0372
 1508SOL    HW2 6105   0.883   2.548   2.705  0.9310 -0.3731 -1.5516
 1508SOL    HW3 6106   0.979   2.431   2.697  1.6325 -0.1515  2.7372
 1508SOL    MW4 6107   0.914   2.472   2.737  0.1424  0.0196  0.1841
 1509SOL     OW 6108   0.862   2.693   2.607 -0.0648  0.0851  0.1524
 1509SOL    HW2 6109   0.939   2.741   2.637  0.6608 -1.3483  0.6509
 1509SOL    HW3 6110   0.789   2.731   2.655  0.6496 -0.0414  1.3567
 1509SOL    MW4 6111   0.862   2.704   2.617  0.1252 -0.1209  0.3774
 1510SOL     OW 6112   1.083   2.832   2.683  0.0000  0.0000 -0.4494
 1510SOL    HW2 6113   1.106   2.825   2.775  0.0000  0.0000 -0.4506
 1510SOL    HW3 6114   1.158   2.795   2.637  0.0000  0.0000 -0.4544
 1510SOL    MW4 6115   1.096   2.826   2.689  0.0000  0.0000 -0.4501
 1511SOL     OW 6116   1.148   3.096   2.624  0.0000  0.0000  0.4566
 1511SOL    HW2 6117   1.122   3.007   2.647  0.0000  0.0000  0.4498
 1511SOL    HW3 6118   1.136   3.101   2.529  0.0000  0.0000  0.4565
 1511SOL    MW4 6119   1.143   3.085   2.615  0.0000  0.0000  0.4556
 1512SOL     OW 6120   0.919   3.208   2.727  0.0000  0.0000 -0.1109
 1512SOL    HW2 6121   0.903   3.287   2.675  0.0000  0.0000 -0.1229
 1512SOL    HW3 6122   1.006   3.179   2.698  0.0000  0.0000 -0.1035
 1512SOL    MW4 6123   0.928   3.215   2.716  0.0000  0.0000 -0.1116
 1513SOL     OW 6124   0.887   3.462   2.618  0.0000  0.0000 -0.2997
 1513SOL    HW2 6125   0.960   3.508   2.659  0.0000  0.0000 -0.2943
 1513SOL    HW3 6126   0.810   3.512   2.646  0.0000  0.0000 -0.2949
 1513SOL    MW4 6127   0.887   3.475   2.627  0.0000  0.0000 -0.2985
 1514SOL     OW 6128   1.102   3.599   2.718  0.0000  0.0000  0.4401
 1514SOL    HW2 6129   1.101   3.626   2.809  0.0000  0.0000  0.4405
 1514SOL    HW3 6130   1.100   3.681   2.668  0.0000  0.0000  0.4409
 1514SOL    MW4 6131   1.102   3.613   2.723  0.0000  0.0000  0.4404
 1515SOL     OW 6132   1.098   3.851   2.587  0.0000  0.0000  0.0513
 1515SOL    HW2 6133   1.178   3.889   2.625  0.0000  0.0000  0.0547
 1515SOL    HW3 6134   1.110   3.859   2.493  0.0000  0.0000  0.0519
 1515SOL    MW4 6135   1.110   3.857   2.580  0.0000  0.0000  0.0520
 1516SOL     OW 6136   0.893   4.008   2.735  0.0000  0.0000  0.2330
 1516SOL    HW2 6137   0.958   3.963   2.680  0.0000  0.0000  0.2273
 1516SOL    HW3 6138   0.809   3.969   2.708  0.0000  0.0000  0.2435
 1516SOL    MW4 6139   0.890   3.997   2.724  0.0000  0.0000  0.2337
 1517SOL     OW 6140   0.888   4.266   2.640  0.0000  0.0000  0.1595
 1517SOL    HW2 6141   0.892   4.174   2.665  0.0000  0.0000  0.1573
 1517SOL    HW3 6142   0.884   4.265   2.544  0.0000  0.0000  0.1594
 1517SOL    MW4 6143   0.888   4.254   2.630  0.0000  0.0000  0.1590
 1518SOL     OW 6144   1.144   4.351   2.744  0.0000  0.0000 -0.2245
 1518SOL    HW2 6145   1.137   4.378   2.836  0.0000  0.0000 -0.2257
 1518SOL    HW3 6146   1.055   4.327   2.719  0.0000  0.0000 -0.2207
 1518SOL    MW4 6147   1.131   4.351   2.753  0.0000  0.0000 -0.2244
 1519SOL     OW 6148   1.521   4.614   2.587  0.4058 -0.3968  0.2475
 1519SOL    HW2 6149   1.540   4.526   2.618  1.7066 -0.5550 -0.9607
 1519SOL    HW3 6150   1.523   4.608   2.492 -0.5898  0.7148  0.1284
 1519SOL    MW4 6151   1.524   4.602   2.579  0.4461 -0.2708  0.0722
 1520SOL     OW 6152   1.321   0.114   2.704  0.0775 -0.3135 -0.2041
 1520SOL    HW2 6153   1.334   0.202   2.668 -1.0988  0.8456  2.0724
 1520SOL    HW3 6154   1.397   0.064   2.673  0.9086  1.5727 -1.3210
 1520SOL    MW4 6155   1.333   0.119   2.695  0.0318  0.0883 -0.0510
 1521SOL     OW 6156   1.317   0.370   2.615 -0.6201 -0.3791  0.6475
 1521SOL    HW2 6157   1.392   0.426   2.637 -0.6256  0.3143 -1.0529
 1521SOL    HW3 6158   1.243   0.411   2.659 -0.7257  1.2993 -1.0210
 1521SOL    MW4 6159   1.317   0.383   2.624 -0.6348 -0.0662  0.2031
 1522SOL     OW 6160   1.542   0.500   2.729 -0.0221  0.2466  0.0082
 1522SOL    HW2 6161   1.629   0.462   2.713  0.0902 -0.0077  1.1383
 1522SOL    HW3 6162   1.553   0.593   2.713  0.1460  0.0465 -1.0657
 1522SOL    MW4 6163   1.555   0.507   2.725  0.0148  0.1867  0.0155
 1523SOL     OW 6164   1.588   0.759   2.645 -0.3795 -0.3720  0.0350
 1523SOL    HW2 6165   1.506   0.805   2.662 -0.0358 -0.3057  1.5257
 1523SOL    HW3 6166   1.592   0.752   2.549 -1.0246  1.6027 -0.1482
 1523SOL    MW4 6167   1.577   0.764   2.634 -0.4194 -0.1028  0.2077
 1524SOL     OW 6168   1.367   0.896   2.722 -0.3575  0.3787 -0.1945
 1524SOL    HW2 6169   1.357   0.912   2.816  2.6802  1.3266  0.0018
 1524SOL    HW3 6170   1.358   0.983   2.683  0.2523  0.2533 -0.6098
 1524SOL    MW4 6171   1.364   0.910   2.729  0.1237  0.4872 -0.2232
 1525SOL     OW 6172   1.351   1.159   2.621  0.2832 -0.6738 -0.1695
 1525SOL    HW2 6173   1.273   1.195   2.663  0.7976 -1.0598  1.1453
 1525SOL    HW3 6174   1.424   1.204   2.664  0.7953 -0.2910 -1.4173
 1525SOL    MW4 6175   1.350   1.170   2.633  0.4185 -0.6744 -0.1607
 1526SOL     OW 6176   1.571   1.291   2.749  0.1027  0.1940  0.1674
 1526SOL    HW2 6177   1.580   1.274   2.843  3.2678  0.1355 -0.0895
 1526SOL    HW3 6178   1.637   1.235   2.708 -1.1851  0.2748 -2.0975
 1526SOL    MW4 6179   1.581   1.281   2.756  0.3504  0.1969 -0.1652
 1527SOL     OW 6180   1.555   1.555   2.673  0.0071  0.0858  0.3118
 1527SOL    HW2 6181   1.581   1.468   2.703 -0.3552 -0.4653 -0.9270
 1527SOL    HW3 6182   1.578   1.556   2.580  1.0202  1.7217  0.5694
 1527SOL    MW4 6183   1.561   1.543   2.665  0.0930  0.2288  0.1824
 1528SOL     OW 6184   1.338   1.691   2.751  0.4980 -0.2690  0.3723
 1528SOL    HW2 6185   1.410   1.632   2.727 -0.0465 -1.4430  1.5471
 1528SOL    HW3 6186   1.259   1.646   2.722  0.1461  0.4501  0.1952
 1528SOL    MW4 6187   1.337   1.677   2.744  0.3799 -0.3290  0.5040
 1529SOL     OW 6188   1.352   1.924   2.629  0.7487 -0.1973  0.2306
 1529SOL    HW2 6189   1.346   1.835   2.663 -1.1142 -0.1950 -0.0763
 1529SOL    HW3 6190   1.354   1.913   2.534  0.7572  0.0798  0.2000
 1529SOL    MW4 6191   1.352   1.911   2.621  0.5040 -0.1606  0.1862
 1530SOL     OW 6192   1.567   2.066   2.733  0.5396 -0.6585 -0.4526
 1530SOL    HW2 6193   1.637   2.014   2.695  0.8311 -0.7070  0.1539
 1530SOL    HW3 6194   1.488   2.036   2.689  0.8896 -0.6324 -1.1073
 1530SOL    MW4 6195   1.566   2.055   2.722  0.6243 -0.6614 -0.4587
 1531SOL     OW 6196   1.576   2.315   2.609  0.5425 -0.0036 -0.3030
 1531SOL    HW2 6197   1.643   2.371   2.649  0.8088 -0.9935  0.6685
 1531SOL    HW3 6198   1.579   2.234   2.661 -0.7257 -0.4252 -0.8789
 1531SOL    MW4 6199   1.585   2.312   2.621  0.4103 -0.1898 -0.2511
 1532SOL     OW 6200   1.369   2.433   2.747 -0.0129  0.3100 -0.0173
 1532SOL    HW2 6201   1.355   2.520   2.710 -0.8413  0.9352  1.6950
 1532SOL    HW3 6202   1.444   2.398   2.700 -0.4470  1.4517 -1.5896
 1532SOL    MW4 6203   1.377   2.440   2.736 -0.1793  0.5431  0.0014
 1533SOL     OW 6204   1.342   2.678   2.617 -0.1097  0.5683  0.3853
 1533SOL    HW2 6205   1.406   2.743   2.645  2.4970 -2.2609  1.3599
 1533SOL    HW3 6206   1.337   2.687   2.522  1.5685  1.0111  0.3271
 1533SOL    MW4 6207   1.349   2.688   2.608  0.4556  0.2532  0.5062
 1534SOL     OW 6208   1.540   2.872   2.682  0.4886  0.2433  0.1202
 1534SOL    HW2 6209   1.534   2.876   2.778  2.0669  0.3900  0.2307
 1534SOL    HW3 6210   1.619   2.821   2.666  0.4502  0.5672 -1.1028
 1534SOL    MW4 6211   1.550   2.866   2.693  0.6915  0.3052 -0.0265
 1535SOL     OW 6212   1.614   3.108   2.572 -0.6306  0.2409  0.1378
 1535SOL    HW2 6213   1.684   3.145   2.625 -1.4776  1.1358  0.6438
 1535SOL    HW3 6214   1.591   3.026   2.616 -0.3636  0.2864  0.3599
 1535SOL    MW4 6215   1.620   3.102   2.584 -0.7070  0.3650  0.2334
 1536SOL     OW 6216   1.383   3.187   2.726 -0.3505 -0.8465  0.3016
 1536SOL    HW2 6217   1.458   3.157   2.675  0.0506 -3.3328  2.2868
 1536SOL    HW3 6218   1.308   3.141   2.687 -0.4129 -0.8042  0.3709
 1536SOL    MW4 6219   1.383   3.177   2.714 -0.3058 -1.1690  0.5727
 1537SOL     OW 6220   1.305   3.438   2.573  0.0623  0.6655  0.4676
 1537SOL    HW2 6221   1.324   3.362   2.629 -0.4272 -0.0916 -0.3828
 1537SOL    HW3 6222   1.238   3.486   2.621 -1.4042 -0.7430 -0.1057
 1537SOL    MW4 6223   1.299   3.434   2.587 -0.1957  0.3800  0.2799
 1538SOL     OW 6224   1.560   3.552   2.637  0.3170  0.2054 -0.1610
 1538SOL    HW2 6225   1.631   3.499   2.600  0.3248 -0.1783  0.3821
 1538SOL    HW3 6226   1.480   3.517   2.598  0.4911  1.3019 -1.5520
 1538SOL    MW4 6227   1.559   3.540   2.627  0.3411  0.2992 -0.2728
 1539SOL     OW 6228   1.570   3.848   2.588  0.1546 -0.1010  0.3045
 1539SOL    HW2 6229   1.497   3.887   2.636  0.2323  0.2598  0.1324
 1539SOL    HW3 6230   1.571   3.757   2.617 -0.3372 -0.0993  0.3409
 1539SOL    MW4 6231   1.560   3.842   2.598  0.0998 -0.0529  0.2866
 1540SOL     OW 6232   1.351   3.967   2.705 -0.5086  0.2994  0.0664
 1540SOL    HW2 6233   1.345   3.993   2.797  0.3788  0.5300  0.0623
 1540SOL    HW3 6234   1.350   4.050   2.656 -1.4514  0.1587 -0.1606
 1540SOL    MW4 6235   1.350   3.981   2.710 -0.5158  0.3111  0.0362
 1541SOL     OW 6236   1.361   4.219   2.616  0.4132 -0.1499 -0.5866
 1541SOL    HW2 6237   1.296   4.259   2.673  0.7591  0.0306 -0.3167
 1541SOL    HW3 6238   1.339   4.251   2.528 -0.2722 -0.6324 -0.5914
 1541SOL    MW4 6239   1.350   4.228   2.612  0.3685 -0.1898 -0.5515
 1542SOL     OW 6240   1.589   4.371   2.691  0.4121 -0.6871 -0.0796
 1542SOL    HW2 6241   1.607   4.387   2.783 -0.4366  0.3708 -0.0865
 1542SOL    HW3 6242   1.507   4.321   2.691 -0.8262  1.2905 -0.3250
 1542SOL    MW4 6243   1.581   4.367   2.703  0.1367 -0.2866 -0.1130
 1543SOL     OW 6244   1.992   4.609   2.652 -0.6156 -0.1759  0.2397
 1543SOL    HW2 6245   2.074   4.648   2.681  0.1765 -1.2873 -0.4746
 1543SOL    HW3 6246   1.997   4.608   2.557 -1.2532 -0.6531  0.2027
 1543SOL    MW4 6247   2.003   4.614   2.644 -0.5953 -0.3853  0.1402
 1544SOL     OW 6248   1.740   0.107   2.695 -0.1839  0.0742  0.3529
 1544SOL    HW2 6249   1.813   0.047   2.684  0.0093  0.4205 -0.2717
 1544SOL    HW3 6250   1.663   0.058   2.665 -0.2209 -0.2994  1.0375
 1544SOL    MW4 6251   1.739   0.093   2.690 -0.1633  0.0706  0.3605
 1545SOL     OW 6252   1.768   0.368   2.614  0.3498 -0.3499  0.2245
 1545SOL    HW2 6253   1.844   0.410   2.654 -1.1628  0.4855  2.3196
 1545SOL    HW3 6254   1.766   0.280   2.651  0.7914 -0.6781 -0.5174
 1545SOL    MW4 6255   1.778   0.362   2.624  0.2085 -0.2830  0.4027
 1546SOL     OW 6256   2.021   0.456   2.745  0.1992 -0.0340 -0.4692
 1546SOL    HW2 6257   2.100   0.411   2.718 -0.5009 -0.6954 -1.4561
 1546SOL    HW3 6258   2.027   0.543   2.706  0.2148 -0.2513 -0.9523
 1546SOL    MW4 6259   2.032   0.461   2.736  0.1087 -0.1499 -0.6630
 1547SOL     OW 6260   2.046   0.719   2.689 -0.7191  0.4575 -0.4123
 1547SOL    HW2 6261   1.971   0.766   2.726 -2.0341  0.1399 -2.5566
 1547SOL    HW3 6262   2.031   0.721   2.594  1.3839 -0.6430 -0.8020
 1547SOL    MW4 6263   2.034   0.725   2.681 -0.6151  0.2703 -0.7467
 1548SOL     OW 6264   1.807   0.894   2.757 -0.3055 -0.5151 -0.0926
 1548SOL    HW2 6265   1.812   0.970   2.699  0.0238 -0.6638 -0.2649
 1548SOL    HW3 6266   1.723   0.853   2.736 -0.5859 -0.0703  0.1637
 1548SOL    MW4 6267   1.797   0.898   2.746 -0.2990 -0.4761 -0.0813
 1549SOL     OW 6268   1.768   1.140   2.618  0.1830 -0.4922  0.2336
 1549SOL    HW2 6269   1.843   1.192   2.649 -0.2617  0.9854 -1.1020
 1549SOL    HW3 6270   1.781   1.134   2.523 -0.8629 -1.0869  0.1237
 1549SOL    MW4 6271   1.780   1.146   2.609 -0.0137 -0.3757  0.0429
 1550SOL     OW 6272   1.977   1.309   2.734  0.2201 -0.3141 -0.3743
 1550SOL    HW2 6273   1.981   1.297   2.828  1.3667  0.4978 -0.3020
 1550SOL    HW3 6274   2.061   1.275   2.702  0.9632  1.7956 -0.7944
 1550SOL    MW4 6275   1.989   1.303   2.742  0.4694  0.0713 -0.4203
 1551SOL     OW 6276   2.018   1.551   2.625  0.2571 -0.1066 -0.4154
 1551SOL    HW2 6277   1.947   1.607   2.656  1.1893  0.4569  0.7641
 1551SOL    HW3 6278   2.011   1.472   2.679  1.4298  0.5659  0.7319
 1551SOL    MW4 6279   2.008   1.548   2.636  0.5345  0.0563 -0.1085
 1552SOL     OW 6280   1.797   1.689   2.710  0.4859 -0.2989 -0.3553
 1552SOL    HW2 6281   1.799   1.707   2.804 -0.3300  2.4819 -0.8081
 1552SOL    HW3 6282   1.706   1.661   2.693 -0.2324  2.1446 -0.7519
 1552SOL    MW4 6283   1.785   1.688   2.720  0.2836  0.3903 -0.4675
 1553SOL     OW 6284   1.768   1.941   2.597  0.5029  0.0447  0.0643
 1553SOL    HW2 6285   1.850   1.972   2.638  0.6548  0.2372 -0.3857
 1553SOL    HW3 6286   1.773   1.846   2.603  0.2635  0.0842  1.0083
 1553SOL    MW4 6287   1.780   1.933   2.604  0.4914  0.0755  0.1297
 1554SOL     OW 6288   1.976   2.077   2.726  0.0056 -0.3037  0.4494
 1554SOL    HW2 6289   1.983   2.079   2.821  0.4012  0.6729  0.4067
 1554SOL    HW3 6290   1.991   2.168   2.699  3.4556 -1.1347 -0.7593
 1554SOL    MW4 6291   1.979   2.089   2.735  0.5130 -0.2847  0.2842
 1555SOL     OW 6292   1.991   2.352   2.638 -0.1338 -0.1928  0.7182
 1555SOL    HW2 6293   2.068   2.406   2.656 -0.3167  0.4008 -0.2435
 1555SOL    HW3 6294   1.991   2.340   2.544 -1.4627  0.1883  0.6536
 1555SOL    MW4 6295   2.001   2.358   2.628 -0.3333 -0.0644  0.5829
 1556SOL     OW 6296   1.753   2.465   2.735 -0.3916 -0.3807 -0.3624
 1556SOL    HW2 6297   1.766   2.473   2.830 -0.6782 -0.8498 -0.2831
 1556SOL    HW3 6298   1.834   2.424   2.703 -0.9790 -1.7632 -0.0936
 1556SOL    MW4 6299   1.766   2.461   2.743 -0.5069 -0.6251 -0.3164
 1557SOL     OW 6300   1.744   2.707   2.587  0.2115 -0.2731  0.2509
 1557SOL    HW2 6301   1.743   2.619   2.626 -0.7761 -0.3973 -0.0510
 1557SOL    HW3 6302   1.822   2.749   2.624 -0.9748 -0.2156  2.7240
 1557SOL    MW4 6303   1.754   2.701   2.597 -0.0753 -0.2820  0.5374
 1558SOL     OW 6304   1.972   2.827   2.706  0.0260  0.1234  0.0570
 1558SOL    HW2 6305   2.055   2.800   2.667  0.1684  0.2683  0.2528
 1558SOL    HW3 6306   1.988   2.822   2.801 -0.2249  0.0409  0.0952
 1558SOL    MW4 6307   1.985   2.823   2.714  0.0118  0.1316  0.0877
 1559SOL     OW 6308   2.023   3.095   2.624  0.1944  0.1445 -0.2161
 1559SOL    HW2 6309   1.998   3.004   2.639  0.0315  0.4164  1.3208
 1559SOL    HW3 6310   2.005   3.111   2.532  0.2098 -1.3748 -0.4873
 1559SOL    MW4 6311   2.017   3.085   2.614  0.1748 -0.0200 -0.0494
 1560SOL     OW 6312   1.809   3.220   2.731 -0.3938 -0.6133  0.6987
 1560SOL    HW2 6313   1.806   3.293   2.669 -1.7318 -0.5089  0.8645
 1560SOL    HW3 6314   1.884   3.168   2.704 -0.4128 -0.0638 -0.4337
 1560SOL    MW4 6315   1.819   3.223   2.719 -0.5729 -0.5271  0.5715
 1561SOL     OW 6316   1.814   3.446   2.565 -0.6424  0.6295  0.1064
 1561SOL    HW2 6317   1.890   3.496   2.595  0.2012 -0.4325 -0.2259
 1561SOL    HW3 6318   1.813   3.458   2.471 -0.9897  0.7803  0.1295
 1561SOL    MW4 6319   1.824   3.454   2.557 -0.5771  0.5095  0.0660
 1562SOL     OW 6320   2.028   3.593   2.695 -0.0168  0.1672 -0.0374
 1562SOL    HW2 6321   2.016   3.595   2.790  0.5269  0.5125  0.0273
 1562SOL    HW3 6322   2.109   3.543   2.683 -0.0906  0.1157 -0.3214
 1562SOL    MW4 6323   2.037   3.587   2.706  0.0453  0.2060 -0.0665
 1563SOL     OW 6324   2.041   3.853   2.601 -0.5856  0.0207 -0.1887
 1563SOL    HW2 6325   1.959   3.894   2.630 -0.3338  0.0016  0.5441
 1563SOL    HW3 6326   2.034   3.762   2.631  0.0195  0.2037  0.5056
 1563SOL    MW4 6327   2.029   3.846   2.608 -0.4723  0.0424 -0.0002
 1564SOL     OW 6328   1.806   3.971   2.684 -0.2891 -0.2136 -0.0062
 1564SOL    HW2 6329   1.799   4.059   2.647 -0.0061  0.1452  0.8001
 1564SOL    HW3 6330   1.736   3.922   2.641 -1.1400  0.6838  0.3402
 1564SOL    MW4 6331   1.796   3.976   2.673 -0.3642 -0.0479  0.1459
 1565SOL     OW 6332   1.804   4.223   2.602 -0.7092 -0.0455 -0.3496
 1565SOL    HW2 6333   1.717   4.254   2.626  0.1802  2.3172  0.0208
 1565SOL    HW3 6334   1.804   4.223   2.506 -0.9611  0.4629 -0.3514
 1565SOL    MW4 6335   1.793   4.227   2.593 -0.6251  0.3338 -0.3009
 1566SOL     OW 6336   2.016   4.346   2.719 -0.2455  0.4255  0.8029
 1566SOL    HW2 6337   1.939   4.310   2.674  0.9561  0.1912 -1.1311
 1566SOL    HW3 6338   2.014   4.440   2.698  2.0720 -0.1915 -2.5063
 1566SOL    MW4 6339   2.006   4.354   2.710  0.2191  0.3133  0.1109
 1567SOL     OW 6340   2.460   4.616   2.650 -0.3081 -0.4158  0.0603
 1567SOL    HW2 6341   2.526   4.679   2.679 -0.1059 -0.3570 -0.5125
 1567SOL    HW3 6342   2.462   4.622   2.554 -0.1025 -1.4764 -0.0087
 1567SOL    MW4 6343   2.469   4.625   2.641 -0.2542 -0.5484 -0.0246
 1568SOL     OW 6344   2.224   0.065   2.738 -0.0646 -0.2137  0.1936
 1568SOL    HW2 6345   2.223   0.076   2.833 -0.0957  0.6202  0.1058
 1568SOL    HW3 6346   2.312   0.032   2.719 -0.3938 -1.3371  0.6028
 1568SOL    MW4 6347   2.236   0.062   2.748 -0.1123 -0.2519  0.2360
 1569SOL     OW 6348   2.247   0.342   2.644 -0.3333  0.4023  0.4122
 1569SOL    HW2 6349   2.222   0.262   2.688  0.6486  0.6247  1.4116
 1569SOL    HW3 6350   2.236   0.324   2.551  0.0584 -0.9549  0.6270
 1569SOL    MW4 6351   2.242   0.329   2.638 -0.1521  0.2526  0.5724
 1570SOL     OW 6352   2.475   0.513   2.724  0.6726 -0.0959 -0.2360
 1570SOL    HW2 6353   2.485   0.496   2.818  2.0130 -0.3668 -0.4161
 1570SOL    HW3 6354   2.393   0.471   2.701 -0.6076  1.5261  1.1901
 1570SOL    MW4 6355   2.466   0.506   2.734  0.6804  0.0824 -0.0718
 1571SOL     OW 6356   2.471   0.783   2.612 -0.0307 -0.2093 -0.0663
 1571SOL    HW2 6357   2.403   0.826   2.664 -1.3950 -1.1045 -1.0462
 1571SOL    HW3 6358   2.478   0.695   2.649  0.9755  0.0378  0.3514
 1571SOL    MW4 6359   2.463   0.777   2.624 -0.0777 -0.2948 -0.1407
 1572SOL     OW 6360   2.256   0.909   2.746  0.5745 -0.0271 -0.4808
 1572SOL    HW2 6361   2.256   0.901   2.841  0.9579 -0.7366 -0.5317
 1572SOL    HW3 6362   2.195   0.841   2.717 -1.1968  1.6125 -0.6406
 1572SOL    MW4 6363   2.248   0.899   2.754  0.3912  0.0956 -0.5088
 1573SOL     OW 6364   2.217   1.162   2.652 -0.7416  0.3271  0.1071
 1573SOL    HW2 6365   2.234   1.071   2.679 -1.1754  0.6980  1.6852
 1573SOL    HW3 6366   2.216   1.158   2.556  0.1918 -1.1608  0.1281
 1573SOL    MW4 6367   2.219   1.149   2.643 -0.6754  0.1799  0.3181
 1574SOL     OW 6368   2.431   1.295   2.776  0.8122 -0.5464  0.0160
 1574SOL    HW2 6369   2.508   1.259   2.731  0.0214 -0.5089 -1.4082
 1574SOL    HW3 6370   2.357   1.252   2.733  0.0062  0.0048  0.8495
 1574SOL    MW4 6371   2.432   1.285   2.764  0.6018 -0.4687 -0.0620
 1575SOL     OW 6372   2.481   1.565   2.661  0.1216 -0.1963 -0.3095
 1575SOL    HW2 6373   2.403   1.616   2.681 -0.4861 -0.7685 -1.1983
 1575SOL    HW3 6374   2.470   1.484   2.711  0.9066  0.3634  0.8027
 1575SOL    MW4 6375   2.469   1.561   2.670  0.1445 -0.1980 -0.2799
 1576SOL     OW 6376   2.259   1.693   2.716  0.0629 -0.4351  0.2235
 1576SOL    HW2 6377   2.240   1.783   2.688  0.4949 -0.1985  0.6725
 1576SOL    HW3 6378   2.182   1.643   2.691 -0.3280  0.1359  0.2810
 1576SOL    MW4 6379   2.246   1.699   2.709  0.0684 -0.3285  0.2904
 1577SOL     OW 6380   2.213   1.950   2.642 -0.0331 -0.4840 -0.1970
 1577SOL    HW2 6381   2.136   1.994   2.678  1.8937  3.2714 -0.3425
 1577SOL    HW3 6382   2.193   1.938   2.549 -0.5730  0.2132 -0.1719
 1577SOL    MW4 6383   2.200   1.955   2.634  0.1500  0.1035 -0.2127
 1578SOL     OW 6384   2.469   2.067   2.717  0.2819  0.1849 -0.0366
 1578SOL    HW2 6385   2.461   2.158   2.689  0.4658  0.3551  0.4688
 1578SOL    HW3 6386   2.387   2.026   2.688 -0.7959  1.0324  1.7625
 1578SOL    MW4 6387   2.457   2.074   2.709  0.1640  0.3192  0.2670
 1579SOL     OW 6388   2.462   2.343   2.647  0.1372  0.4139  0.0807
 1579SOL    HW2 6389   2.543   2.388   2.668  0.7074 -0.5163 -0.0936
 1579SOL    HW3 6390   2.472   2.318   2.555  1.2380 -2.9027  1.0004
 1579SOL    MW4 6391   2.474   2.345   2.637  0.3576 -0.1466  0.1793
 1580SOL     OW 6392   2.231   2.475   2.743  0.0397 -0.1318  0.0523
 1580SOL    HW2 6393   2.230   2.476   2.839 -1.3976  0.4384  0.0494
 1580SOL    HW3 6394   2.310   2.427   2.720  0.4084 -0.2568  1.5291
 1580SOL    MW4 6395   2.241   2.469   2.753 -0.1013 -0.0730  0.2468
 1581SOL     OW 6396   2.214   2.739   2.631  0.3129  0.1183 -0.4582
 1581SOL    HW2 6397   2.281   2.793   2.671 -1.2526  1.5960  0.2534
 1581SOL    HW3 6398   2.221   2.655   2.675 -0.8820  1.4743  2.4715
 1581SOL    MW4 6399   2.223   2.735   2.642 -0.0513  0.4923  0.0224
 1582SOL     OW 6400   2.464   2.831   2.720 -0.0279 -0.1238 -0.0651
 1582SOL    HW2 6401   2.548   2.794   2.694 -0.5361 -0.6936 -0.9432
 1582SOL    HW3 6402   2.471   2.924   2.699  0.8899  0.1068  1.2020
 1582SOL    MW4 6403   2.476   2.839   2.713  0.0262 -0.1686 -0.0138
 1583SOL     OW 6404   2.462   3.095   2.638  0.0418 -0.0459 -0.5967
 1583SOL    HW2 6405   2.391   3.149   2.672 -1.0120 -0.8047 -1.5387
 1583SOL    HW3 6406   2.538   3.153   2.635 -0.5003  0.7266  0.5624
 1583SOL    MW4 6407   2.463   3.110   2.642 -0.1688 -0.0441 -0.5682
 1584SOL     OW 6408   2.250   3.210   2.747 -0.4988 -0.2101  0.0538
 1584SOL    HW2 6409   2.241   3.210   2.843 -1.5161 -0.7439 -0.0343
 1584SOL    HW3 6410   2.171   3.165   2.716 -0.5339  0.6292 -1.0768
 1584SOL    MW4 6411   2.238   3.204   2.756 -0.6378 -0.1698 -0.1073
 1585SOL     OW 6412   2.250   3.458   2.626  0.2534  0.4242  0.5062
 1585SOL    HW2 6413   2.331   3.506   2.645  0.1216  0.2771  1.4582
 1585SOL    HW3 6414   2.260   3.376   2.674 -0.5954  0.5314  0.8653
 1585SOL    MW4 6415   2.262   3.454   2.635  0.1237  0.4189  0.6793
 1586SOL     OW 6416   2.487   3.598   2.702  0.1936 -0.3065  0.0628
 1586SOL    HW2 6417   2.488   3.610   2.797  1.0965 -1.2210  0.1772
 1586SOL    HW3 6418   2.484   3.687   2.667 -2.7280 -0.0060  0.9346
 1586SOL    MW4 6419   2.487   3.611   2.710 -0.0730 -0.3874  0.1931
 1587SOL     OW 6420   2.503   3.855   2.589  0.0472 -0.5010  0.0674
 1587SOL    HW2 6421   2.575   3.903   2.629 -1.9063  1.3974  1.4479
 1587SOL    HW3 6422   2.425   3.885   2.636 -1.6875 -2.3144 -1.5277
 1587SOL    MW4 6423   2.502   3.865   2.600 -0.4394 -0.4900  0.0393
 1588SOL     OW 6424   2.261   3.941   2.718 -0.3670 -0.2248  0.1516
 1588SOL    HW2 6425   2.258   3.926   2.812 -0.9040 -0.2427  0.1358
 1588SOL    HW3 6426   2.180   3.901   2.685  0.3429 -1.1534 -0.4570
 1588SOL    MW4 6427   2.250   3.934   2.726 -0.3440 -0.3495  0.0691
 1589SOL     OW 6428   2.250   4.205   2.646  0.2019 -0.2823  0.0460
 1589SOL    HW2 6429   2.249   4.112   2.671 -1.3684 -0.6021 -1.0708
 1589SOL    HW3 6430   2.165   4.238   2.675  0.6404  0.7291  0.1739
 1589SOL    MW4 6431   2.239   4.197   2.653  0.0527 -0.1907 -0.0846
 1590SOL     OW 6432   2.481   4.334   2.735  0.4047 -0.1208  0.2556
 1590SOL    HW2 6433   2.403   4.290   2.701 -1.0740  1.4012  1.5956
 1590SOL    HW3 6434   2.472   4.425   2.708  0.5559  0.5542  2.3564
 1590SOL    MW4 6435   2.470   4.340   2.727  0.2291  0.1688  0.7091
 1591SOL     OW 6436   2.874   4.615   2.681 -0.0005  0.3990 -0.2960
 1591SOL    HW2 6437   2.957   4.646   2.717  0.2347 -0.9325  0.3641
 1591SOL    HW3 6438   2.876   4.642   2.589  0.9185  0.8499 -0.1530
 1591SOL    MW4 6439   2.885   4.623   2.673  0.1514  0.2823 -0.1900
 1592SOL     OW 6440   2.672   0.112   2.749 -0.0994  0.4622  0.2772
 1592SOL    HW2 6441   2.675   0.108   2.845  0.1254 -2.0206  0.1976
 1592SOL    HW3 6442   2.754   0.072   2.721 -0.8594 -0.2337 -0.9796
 1592SOL    MW4 6443   2.683   0.106   2.758 -0.1700  0.0428  0.1009
 1593SOL     OW 6444   2.689   0.375   2.639 -0.2968  0.4778 -0.2969
 1593SOL    HW2 6445   2.674   0.286   2.673 -1.7731 -0.1541 -2.4961
 1593SOL    HW3 6446   2.609   0.422   2.661 -0.3667  0.6728 -0.9818
 1593SOL    MW4 6447   2.677   0.369   2.646 -0.5009  0.4202 -0.6776
 1594SOL     OW 6448   2.901   0.504   2.765  0.2133  0.2572 -0.1147
 1594SOL    HW2 6449   2.912   0.594   2.734 -1.8044  0.1166 -1.3933
 1594SOL    HW3 6450   2.834   0.467   2.706 -0.3974 -1.4652  1.6077
 1594SOL    MW4 6451   2.893   0.511   2.753 -0.1335  0.0114 -0.0563
 1595SOL     OW 6452   2.907   0.768   2.670 -0.1941 -0.4689  0.4180
 1595SOL    HW2 6453   2.985   0.809   2.707  0.1280  1.0197 -1.8508
 1595SOL    HW3 6454   2.834   0.824   2.697 -0.1946 -0.4762  0.4317
 1595SOL    MW4 6455   2.908   0.780   2.679 -0.1514 -0.2735  0.1204
 1596SOL     OW 6456   2.677   0.929   2.728 -0.4138 -0.1055  0.4004
 1596SOL    HW2 6457   2.674   0.906   2.821  0.4267 -1.0771  0.1948
 1596SOL    HW3 6458   2.606   0.878   2.688 -0.4890 -0.0289  0.4365
 1596SOL    MW4 6459   2.667   0.919   2.735 -0.3126 -0.2236  0.3779
 1597SOL     OW 6460   2.663   1.188   2.651 -0.0800  0.1041  0.6863
 1597SOL    HW2 6461   2.740   1.234   2.683  0.8824  0.3541 -1.8265
 1597SOL    HW3 6462   2.675   1.098   2.680  0.6298  0.3698  1.2320
 1597SOL    MW4 6463   2.675   1.182   2.659  0.1407  0.1720  0.4268
 1598SOL     OW 6464   2.872   1.324   2.742  0.2413 -0.0531  0.0425
 1598SOL    HW2 6465   2.871   1.310   2.836  0.2158 -0.5382 -0.0301
 1598SOL    HW3 6466   2.953   1.282   2.712  0.9011  1.2045  0.0182
 1598SOL    MW4 6467   2.883   1.317   2.750  0.3247  0.0488  0.0296
 1599SOL     OW 6468   2.931   1.571   2.655 -0.1470 -0.0423 -0.3010
 1599SOL    HW2 6469   2.861   1.624   2.693  0.1787  0.7934 -0.8559
 1599SOL    HW3 6470   2.920   1.485   2.696 -1.0590  0.2734  0.1457
 1599SOL    MW4 6471   2.920   1.567   2.665 -0.2244  0.1097 -0.3152
 1600SOL     OW 6472   2.705   1.675   2.772 -0.2078 -0.2140  0.0650
 1600SOL    HW2 6473   2.690   1.685   2.866 -0.2289  0.6518 -0.0233
 1600SOL    HW3 6474   2.623   1.642   2.737 -0.5869  0.6174  0.1739
 1600SOL    MW4 6475   2.692   1.672   2.779 -0.2606  0.0099  0.0677
 1601SOL     OW 6476   2.705   1.940   2.626 -0.1352  0.2461 -0.0835
 1601SOL    HW2 6477   2.722   1.855   2.667 -0.3827 -0.4355 -1.3518
 1601SOL    HW3 6478   2.623   1.970   2.664 -0.9889 -0.9480 -0.9501
 1601SOL    MW4 6479   2.697   1.933   2.636 -0.2804 -0.0014 -0.3653
 1602SOL     OW 6480   2.938   2.068   2.714 -0.3757  0.1897 -0.1407
 1602SOL    HW2 6481   2.862   2.018   2.683 -1.5600  1.5668  0.4894
 1602SOL    HW3 6482   2.927   2.072   2.809  0.0914  1.0273 -0.1150
 1602SOL    MW4 6483   2.926   2.062   2.723 -0.4704  0.4821 -0.0544
 1603SOL     OW 6484   2.932   2.338   2.638  0.3241 -0.4977  0.0722
 1603SOL    HW2 6485   2.921   2.251   2.675 -0.1819  0.7850  3.1038
 1603SOL    HW3 6486   2.846   2.379   2.646  0.2286 -0.1330 -2.5183
 1603SOL    MW4 6487   2.919   2.332   2.644  0.2446 -0.2804  0.1304
 1604SOL     OW 6488   2.710   2.454   2.703 -0.3468 -0.1803  0.2276
 1604SOL    HW2 6489   2.692   2.464   2.797 -0.0771  2.1241  0.0648
 1604SOL    HW3 6490   2.716   2.543   2.670  1.9039 -0.9237 -1.5469
 1604SOL    MW4 6491   2.708   2.467   2.711 -0.0145  0.0257 -0.0279
 1605SOL     OW 6492   2.706   2.723   2.648 -0.2541 -0.1946 -0.6385
 1605SOL    HW2 6493   2.779   2.776   2.681 -2.7141  2.5902  0.6417
 1605SOL    HW3 6494   2.706   2.738   2.554 -0.9608  2.2813 -0.2872
 1605SOL    MW4 6495   2.716   2.732   2.640 -0.6719  0.4997 -0.4230
 1606SOL     OW 6496   2.925   2.845   2.733  0.1975  0.1353  0.0476
 1606SOL    HW2 6497   2.942   2.830   2.826 -1.1147 -0.3646  0.2268
 1606SOL    HW3 6498   3.000   2.806   2.688  0.4340 -0.3670  0.8666
 1606SOL    MW4 6499   2.937   2.838   2.739  0.0558  0.0033  0.1791
 1607SOL     OW 6500   2.943   3.086   2.593 -0.3526  0.0614 -0.0450
 1607SOL    HW2 6501   2.865   3.135   2.621 -1.9509 -2.0662 -0.6357
 1607SOL    HW3 6502   2.939   3.004   2.642  2.6658  0.7307  1.4415
 1607SOL    MW4 6503   2.932   3.082   2.603 -0.1650 -0.1307  0.0730
 1608SOL     OW 6504   2.712   3.218   2.658 -0.5581  0.2350 -0.4265
 1608SOL    HW2 6505   2.723   3.313   2.647  0.9001  0.1128 -0.1552
 1608SOL    HW3 6506   2.727   3.203   2.752 -1.3640 -0.1912 -0.3656
 1608SOL    MW4 6507   2.716   3.229   2.669 -0.4721  0.1626 -0.3829
 1609SOL     OW 6508   2.738   3.492   2.602  0.1362 -0.1254  0.3366
 1609SOL    HW2 6509   2.655   3.528   2.632 -0.1820  0.6364 -1.3629
 1609SOL    HW3 6510   2.805   3.537   2.653 -0.3509  1.6184 -0.5103
 1609SOL    MW4 6511   2.736   3.502   2.613  0.0303  0.2050  0.0007
 1610SOL     OW 6512   2.969   3.634   2.696 -0.5364  0.0775 -0.7422
 1610SOL    HW2 6513   2.980   3.622   2.790 -0.5984  2.2275 -0.4289
 1610SOL    HW3 6514   3.037   3.580   2.656 -0.2825 -0.5620  0.5450
 1610SOL    MW4 6515   2.980   3.625   2.703 -0.5112  0.2766 -0.5312
 1611SOL     OW 6516   2.932   3.880   2.609 -0.0531 -0.8282  0.3609
 1611SOL    HW2 6517   3.013   3.923   2.636 -0.2503 -1.0834  1.3871
 1611SOL    HW3 6518   2.945   3.788   2.630 -0.3178 -0.9896 -0.1781
 1611SOL    MW4 6519   2.944   3.873   2.615 -0.1140 -0.8831  0.4251
 1612SOL     OW 6520   2.705   3.986   2.742 -0.1414  0.6797  0.3447
 1612SOL    HW2 6521   2.700   4.067   2.693 -0.5672  0.1105 -0.5561
 1612SOL    HW3 6522   2.788   3.946   2.715  0.2519  0.9877  1.0701
 1612SOL    MW4 6523   2.715   3.991   2.732 -0.1457  0.6452  0.3219
 1613SOL     OW 6524   2.720   4.254   2.602 -0.6582 -0.0473 -0.0510
 1613SOL    HW2 6525   2.786   4.293   2.659  0.4529 -1.1536 -0.5421
 1613SOL    HW3 6526   2.637   4.272   2.645 -0.0091  1.1094  0.7358
 1613SOL    MW4 6527   2.718   4.261   2.615 -0.4258 -0.0405 -0.0119
 1614SOL     OW 6528   2.883   4.365   2.784 -0.2382 -0.1731 -0.2255
 1614SOL    HW2 6529   2.881   4.367   2.880  0.0040 -0.7727 -0.2043
 1614SOL    HW3 6530   2.886   4.457   2.759  1.0923 -0.0273  0.3862
 1614SOL    MW4 6531   2.883   4.377   2.794 -0.0305 -0.2332 -0.1419
 1615SOL     OW 6532   3.374   4.657   2.691 -0.1316  0.6688 -0.0075
 1615SOL    HW2 6533   3.371   4.564   2.712  1.3171  0.4077 -0.8749
 1615SOL    HW3 6534   3.293   4.693   2.728 -0.0748 -0.6876  1.4721
 1615SOL    MW4 6535   3.363   4.650   2.698  0.0670  0.4549  0.0732
 1616SOL     OW 6536   3.121   0.084   2.779 -0.0886  0.2196 -0.7602
 1616SOL    HW2 6537   3.121   0.079   2.875  2.7330 -0.8234 -0.7726
 1616SOL    HW3 6538   3.128   0.178   2.761 -1.1027  0.4652  0.0226
 1616SOL    MW4 6539   3.122   0.096   2.790  0.1497  0.1144 -0.6585
 1617SOL     OW 6540   3.117   0.352   2.675  0.0055  0.5032 -0.1561
 1617SOL    HW2 6541   3.041   0.403   2.704  0.8866  1.1286  1.1236
 1617SOL    HW3 6542   3.127   0.374   2.583 -1.3454  0.4333 -0.3327
 1617SOL    MW4 6543   3.108   0.362   2.667 -0.0565  0.5764 -0.0105
 1618SOL     OW 6544   3.323   0.514   2.735 -0.3725  0.2631  0.2704
 1618SOL    HW2 6545   3.312   0.596   2.688 -0.1619  0.4852  0.6044
 1618SOL    HW3 6546   3.248   0.460   2.709 -0.3770  0.4695 -0.1377
 1618SOL    MW4 6547   3.312   0.518   2.726 -0.3450  0.3197  0.2606
 1619SOL     OW 6548   3.325   0.784   2.666 -0.1002 -0.6647 -0.2572
 1619SOL    HW2 6549   3.418   0.799   2.684 -0.7314  1.7337  1.2368
 1619SOL    HW3 6550   3.319   0.786   2.570  1.6288 -2.4886 -0.4292
 1619SOL    MW4 6551   3.337   0.787   2.656  0.0446 -0.5889 -0.0825
 1620SOL     OW 6552   3.115   0.916   2.786  0.4869  0.4003 -0.2928
 1620SOL    HW2 6553   3.132   0.909   2.880  1.8000  0.1438 -0.5350
 1620SOL    HW3 6554   3.190   0.873   2.745  0.3368  1.2445 -1.4788
 1620SOL    MW4 6555   3.127   0.909   2.793  0.6404  0.4779 -0.4814
 1621SOL     OW 6556   3.098   1.182   2.669 -0.1175 -0.5373  0.0637
 1621SOL    HW2 6557   3.130   1.102   2.710  0.3471  0.1526  1.0572
 1621SOL    HW3 6558   3.092   1.161   2.576 -1.8437 -2.3437  0.5463
 1621SOL    MW4 6559   3.101   1.169   2.662 -0.2837 -0.6847  0.2584
 1622SOL     OW 6560   3.365   1.315   2.726 -0.2709  0.0952 -0.5101
 1622SOL    HW2 6561   3.359   1.314   2.821 -2.3408  1.9373 -0.6044
 1622SOL    HW3 6562   3.276   1.298   2.695  0.2258  0.3113 -2.1283
 1622SOL    MW4 6563   3.353   1.312   2.734 -0.4783  0.3669 -0.7360
 1623SOL     OW 6564   3.398   1.558   2.621  0.9096  0.1298  0.5367
 1623SOL    HW2 6565   3.317   1.599   2.651  1.0416  0.7790  0.0272
 1623SOL    HW3 6566   3.398   1.471   2.661  1.5251  1.2755  3.1282
 1623SOL    MW4 6567   3.387   1.552   2.630  1.0080  0.3667  0.8116
 1624SOL     OW 6568   3.165   1.655   2.744 -0.2297  0.0006  0.4723
 1624SOL    HW2 6569   3.168   1.747   2.719  0.2450 -0.0892  0.1950
 1624SOL    HW3 6570   3.080   1.624   2.712  0.5569 -0.2368 -1.5038
 1624SOL    MW4 6571   3.154   1.663   2.736 -0.0634 -0.0426  0.1750
 1625SOL     OW 6572   3.167   1.923   2.652  0.5030  0.4331 -0.4057
 1625SOL    HW2 6573   3.237   1.982   2.680  0.6317  1.1352 -2.1507
 1625SOL    HW3 6574   3.087   1.965   2.681  0.7379  0.1165  0.7312
 1625SOL    MW4 6575   3.166   1.936   2.659  0.5510  0.4840 -0.4857
 1626SOL     OW 6576   3.349   2.100   2.739 -0.0145  0.0914  0.0947
 1626SOL    HW2 6577   3.336   2.120   2.831  0.1309  0.4614  0.0343
 1626SOL    HW3 6578   3.341   2.184   2.694  1.2215  0.1204 -0.0838
 1626SOL    MW4 6579   3.346   2.114   2.745  0.1678  0.1440  0.0632
 1627SOL     OW 6580   3.374   2.354   2.619  0.0648 -0.1760 -0.3644
 1627SOL    HW2 6581   3.460   2.393   2.637  0.1253 -1.1731  1.6522
 1627SOL    HW3 6582   3.373   2.340   2.524  1.4866  1.3359 -0.6161
 1627SOL    MW4 6583   3.386   2.357   2.609  0.2604 -0.1082 -0.1316
 1628SOL     OW 6584   3.165   2.476   2.740 -0.1439 -0.7546  0.2460
 1628SOL    HW2 6585   3.087   2.432   2.707 -0.7871  1.3620 -1.1780
 1628SOL    HW3 6586   3.237   2.439   2.689 -0.5801 -0.7028 -0.4048
 1628SOL    MW4 6587   3.164   2.466   2.729 -0.2866 -0.4683 -0.0277
 1629SOL     OW 6588   3.150   2.726   2.621  0.3902  0.4213 -0.1991
 1629SOL    HW2 6589   3.204   2.788   2.670 -0.5275  0.4235  0.8323
 1629SOL    HW3 6590   3.163   2.642   2.667  0.5283  0.1509 -0.7317
 1629SOL    MW4 6591   3.159   2.723   2.634  0.2875  0.3860 -0.1333
 1630SOL     OW 6592   3.387   2.839   2.741 -0.2961  0.1161 -0.1196
 1630SOL    HW2 6593   3.393   2.827   2.836 -2.1101 -1.9090 -0.2231
 1630SOL    HW3 6594   3.447   2.773   2.705  0.0308  0.5610 -0.3918
 1630SOL    MW4 6595   3.396   2.829   2.749 -0.4923 -0.0923 -0.1690
 1631SOL     OW 6596   3.373   3.103   2.636  0.3664 -0.0456 -0.5029
 1631SOL    HW2 6597   3.390   3.010   2.656 -0.1389 -0.2552 -1.0550
 1631SOL    HW3 6598   3.381   3.108   2.541 -0.0232  0.4005 -0.5069
 1631SOL    MW4 6599   3.377   3.091   2.626  0.2484 -0.0143 -0.5760
 1632SOL     OW 6600   3.143   3.227   2.728  0.1926  0.5898 -0.3075
 1632SOL    HW2 6601   3.217   3.178   2.693  0.0920 -0.2096  0.5785
 1632SOL    HW3 6602   3.066   3.180   2.697  0.0929  0.3116  0.3558
 1632SOL    MW4 6603   3.143   3.214   2.719  0.1664  0.4478 -0.1032
 1633SOL     OW 6604   3.146   3.461   2.576 -0.2355 -0.0312 -0.2637
 1633SOL    HW2 6605   3.226   3.496   2.615 -0.2195 -0.3043 -0.0483
 1633SOL    HW3 6606   3.126   3.383   2.628  0.2495 -0.8650 -1.3214
 1633SOL    MW4 6607   3.154   3.455   2.588 -0.1695 -0.1771 -0.3746
 1634SOL     OW 6608   3.349   3.593   2.712  0.5418 -0.2192  0.0059
 1634SOL    HW2 6609   3.331   3.602   2.806  0.2446 -0.0448 -0.0681
 1634SOL    HW3 6610   3.329   3.679   2.675  0.2702 -0.4015 -0.2790
 1634SOL    MW4 6611   3.344   3.605   2.720  0.4671 -0.2201 -0.0415
 1635SOL     OW 6612   3.354   3.865   2.618  0.1346  0.0530 -0.1797
 1635SOL    HW2 6613   3.433   3.907   2.650 -2.6759  4.2754  1.7145
 1635SOL    HW3 6614   3.352   3.885   2.524 -0.1478  2.5691  0.3252
 1635SOL    MW4 6615   3.364   3.873   2.610 -0.2735  0.9422  0.1369
 1636SOL     OW 6616   3.145   4.019   2.741 -0.0483 -0.1353  0.1773
 1636SOL    HW2 6617   3.165   4.111   2.727 -0.5821 -0.4215 -2.5635
 1636SOL    HW3 6618   3.216   3.972   2.699 -1.1304 -1.0098 -0.6932
 1636SOL    MW4 6619   3.157   4.025   2.734 -0.2613 -0.2885 -0.2990
 1637SOL     OW 6620   3.135   4.291   2.683 -0.0138  0.2079  0.1248
 1637SOL    HW2 6621   3.053   4.315   2.727  0.1393 -0.6678  0.8879
 1637SOL    HW3 6622   3.116   4.304   2.590 -0.2844  2.2228  0.4241
 1637SOL    MW4 6623   3.121   4.296   2.677 -0.0296  0.3581  0.2649
 1638SOL     OW 6624   3.387   4.371   2.745  0.1373 -0.0026  0.2075
 1638SOL    HW2 6625   3.398   4.379   2.839 -0.3269 -0.4136  0.2993
 1638SOL    HW3 6626   3.297   4.340   2.734 -0.4224  1.7866 -0.4526
 1638SOL    MW4 6627   3.376   4.368   2.756  0.0019  0.1793  0.1326
 1639SOL     OW 6628   3.814   4.639   2.611 -0.4873  0.1734  0.2850
 1639SOL    HW2 6629   3.820   4.551   2.649  1.2131 -0.2848 -0.9920
 1639SOL    HW3 6630   3.741   4.680   2.658 -0.2189 -1.3202  2.0863
 1639SOL    MW4 6631   3.805   4.633   2.622 -0.2272 -0.0844  0.3543
 1640SOL     OW 6632   3.600   0.103   2.727 -0.1226 -0.0256  0.2485
 1640SOL    HW2 6633   3.592   0.191   2.692 -1.5756 -0.1299  0.2616
 1640SOL    HW3 6634   3.517   0.060   2.703  0.2248 -1.1214  0.9497
 1640SOL    MW4 6635   3.588   0.109   2.719 -0.2685 -0.1839  0.3426
 1641SOL     OW 6636   3.523   0.360   2.594 -0.7050  0.1519 -0.0088
 1641SOL    HW2 6637   3.609   0.387   2.626 -0.7846 -0.1726  0.4946
 1641SOL    HW3 6638   3.462   0.417   2.640 -0.7301  0.7417 -0.7664
 1641SOL    MW4 6639   3.526   0.371   2.605 -0.7188  0.1869 -0.0422
 1642SOL     OW 6640   3.762   0.478   2.723  0.1769 -0.2150 -0.3395
 1642SOL    HW2 6641   3.744   0.481   2.817  0.8878 -0.1957 -0.2017
 1642SOL    HW3 6642   3.837   0.419   2.715  0.2954  0.0038 -0.8626
 1642SOL    MW4 6643   3.770   0.471   2.734  0.2861 -0.1836 -0.3903
 1643SOL     OW 6644   3.807   0.732   2.607 -0.5190 -0.1613 -0.0649
 1643SOL    HW2 6645   3.733   0.781   2.642 -0.7359 -1.3168  1.1047
 1643SOL    HW3 6646   3.797   0.644   2.641  2.3679  0.0749  1.5833
 1643SOL    MW4 6647   3.796   0.727   2.616 -0.1669 -0.2826  0.3068
 1644SOL     OW 6648   3.601   0.861   2.734 -0.3110 -0.5236  0.0925
 1644SOL    HW2 6649   3.609   0.860   2.830  0.8164 -0.7268  0.0088
 1644SOL    HW3 6650   3.590   0.954   2.713  0.8152 -0.3214  0.3333
 1644SOL    MW4 6651   3.601   0.873   2.744 -0.0136 -0.5238  0.1132
 1645SOL     OW 6652   3.571   1.124   2.661 -0.2576 -0.0017  0.1485
 1645SOL    HW2 6653   3.650   1.175   2.681 -0.4948 -0.1372  1.4658
 1645SOL    HW3 6654   3.499   1.184   2.680 -0.4866 -0.0591 -0.5362
 1645SOL    MW4 6655   3.572   1.139   2.666 -0.3195 -0.0273  0.2317
 1646SOL     OW 6656   3.782   1.299   2.730 -0.0892 -0.2595  0.0412
 1646SOL    HW2 6657   3.836   1.231   2.690  1.9912  0.3723  1.7019
 1646SOL    HW3 6658   3.813   1.380   2.691  1.1049  0.2365  1.9795
 1646SOL    MW4 6659   3.793   1.300   2.720  0.3428 -0.1107  0.5159
 1647SOL     OW 6660   3.812   1.552   2.600  0.0173  0.2280 -0.0827
 1647SOL    HW2 6661   3.892   1.598   2.626 -0.9814  1.6080  0.6232
 1647SOL    HW3 6662   3.742   1.598   2.646 -1.2248 -0.7175 -0.9912
 1647SOL    MW4 6663   3.813   1.564   2.609 -0.2780  0.2853 -0.1097
 1648SOL     OW 6664   3.617   1.676   2.752  0.5047  0.1447  0.6711
 1648SOL    HW2 6665   3.596   1.764   2.721 -1.0562 -0.4856 -0.1203
 1648SOL    HW3 6666   3.545   1.622   2.720  0.5203 -1.1077  2.6753
 1648SOL    MW4 6667   3.605   1.681   2.744  0.3011 -0.1036  0.8314
 1649SOL     OW 6668   3.560   1.934   2.668 -0.1576 -0.1288 -0.3029
 1649SOL    HW2 6669   3.500   2.007   2.679 -0.5223 -0.3866 -0.5653
 1649SOL    HW3 6670   3.561   1.918   2.574 -1.6472 -1.7603 -0.0686
 1649SOL    MW4 6671   3.552   1.941   2.657 -0.4022 -0.3780 -0.3066
 1650SOL     OW 6672   3.810   2.058   2.684 -0.0391 -0.0792 -0.3345
 1650SOL    HW2 6673   3.880   2.000   2.653  0.6738  0.0008  1.0565
 1650SOL    HW3 6674   3.735   2.000   2.697 -0.2900 -0.1419 -1.9822
 1650SOL    MW4 6675   3.810   2.043   2.682  0.0217 -0.0770 -0.3686
 1651SOL     OW 6676   3.843   2.338   2.616  0.0445  0.2414  0.0203
 1651SOL    HW2 6677   3.842   2.256   2.664 -0.3542  0.4766  0.4247
 1651SOL    HW3 6678   3.834   2.313   2.524  0.7718 -0.2097  0.0634
 1651SOL    MW4 6679   3.842   2.324   2.610  0.0880  0.2129  0.0794
 1652SOL     OW 6680   3.618   2.459   2.720 -0.1435  0.4392 -0.1457
 1652SOL    HW2 6681   3.621   2.445   2.814 -1.6329 -0.4493 -0.2256
 1652SOL    HW3 6682   3.697   2.417   2.687  0.1358  0.3396  0.6484
 1652SOL    MW4 6683   3.629   2.452   2.728 -0.3033  0.3090 -0.0515
 1653SOL     OW 6684   3.580   2.708   2.606 -0.0082 -0.6061  0.4263
 1653SOL    HW2 6685   3.586   2.622   2.648 -1.2309 -0.9706 -0.1257
 1653SOL    HW3 6686   3.584   2.689   2.512  0.6562  0.0213  0.3289
 1653SOL    MW4 6687   3.581   2.694   2.599 -0.0820 -0.5717  0.3405
 1654SOL     OW 6688   3.789   2.830   2.715  0.1144  0.3605  0.0149
 1654SOL    HW2 6689   3.862   2.783   2.673  0.5341  1.7647 -0.8555
 1654SOL    HW3 6690   3.711   2.790   2.678  0.4469 -0.2573 -0.0417
 1654SOL    MW4 6691   3.789   2.819   2.705  0.2139  0.4642 -0.1073
 1655SOL     OW 6692   3.784   3.076   2.620  0.1990 -0.0237  0.1598
 1655SOL    HW2 6693   3.703   3.108   2.661 -0.5320 -0.7663 -0.6662
 1655SOL    HW3 6694   3.798   2.990   2.658  0.5849  0.0865  0.2701
 1655SOL    MW4 6695   3.775   3.069   2.630  0.1531 -0.1073  0.0653
 1656SOL     OW 6696   3.586   3.221   2.754  0.4542 -0.4206  0.1750
 1656SOL    HW2 6697   3.505   3.183   2.720  1.4665 -2.3148 -0.1433
 1656SOL    HW3 6698   3.577   3.217   2.849 -0.9908  1.9288  0.1870
 1656SOL    MW4 6699   3.574   3.216   2.762  0.3974 -0.3607  0.1347
 1657SOL     OW 6700   3.584   3.470   2.627 -0.1314 -0.1612 -0.1463
 1657SOL    HW2 6701   3.583   3.400   2.692 -0.5409  0.1464  0.1819
 1657SOL    HW3 6702   3.513   3.528   2.653 -0.0246  0.1893 -0.6248
 1657SOL    MW4 6703   3.574   3.468   2.639 -0.1712 -0.0746 -0.1659
 1658SOL     OW 6704   3.822   3.587   2.707  0.5029  0.6152  0.1224
 1658SOL    HW2 6705   3.738   3.554   2.675  1.6880 -1.7660 -0.6045
 1658SOL    HW3 6706   3.814   3.584   2.803 -0.5606  1.3153  0.0700
 1658SOL    MW4 6707   3.810   3.582   2.716  0.5190  0.3934  0.0193
 1659SOL     OW 6708   3.579   3.985   2.722 -0.1920 -0.2224  0.3004
 1659SOL    HW2 6709   3.614   4.067   2.687  2.3428 -0.4560  2.1962
 1659SOL    HW3 6710   3.646   3.920   2.703 -0.4294 -1.0724  2.3271
 1659SOL    MW4 6711   3.592   3.987   2.715  0.1113 -0.3655  0.8180
 1660SOL     OW 6712   3.818   3.851   2.646  0.0963 -0.0605 -0.4390
 1660SOL    HW2 6713   3.841   3.760   2.665 -0.2472  0.0770  0.6905
 1660SOL    HW3 6714   3.898   3.900   2.668 -0.5138  0.1725  1.3547
 1660SOL    MW4 6715   3.832   3.845   2.652 -0.0296 -0.0117 -0.0534
 1661SOL     OW 6716   3.620   4.249   2.650  0.4690  0.1084  0.2097
 1661SOL    HW2 6717   3.536   4.294   2.658  1.1942  1.8424 -1.5820
 1661SOL    HW3 6718   3.629   4.231   2.556  1.8819 -0.5012  0.4418
 1661SOL    MW4 6719   3.610   4.253   2.638  0.7510  0.2561  0.0043
 1662SOL     OW 6720   3.834   4.402   2.775 -0.0093  0.4596 -0.0018
 1662SOL    HW2 6721   3.910   4.359   2.735  0.9308  0.9980  1.1730
 1662SOL    HW3 6722   3.761   4.342   2.758  0.4486  0.4445 -2.0764
 1662SOL    MW4 6723   3.835   4.389   2.768  0.1752  0.5283 -0.1204
 1663SOL     OW 6724   4.279   4.614   2.584 -0.3986 -0.3773  0.0640
 1663SOL    HW2 6725   4.198   4.638   2.630 -0.8071  0.4399 -1.0768
 1663SOL    HW3 6726   4.338   4.687   2.600 -0.6626  0.0680 -1.0244
 1663SOL    MW4 6727   4.276   4.626   2.592 -0.4873 -0.2112 -0.2301
 1664SOL     OW 6728   4.062   0.059   2.713 -0.3669  0.0100  0.9174
 1664SOL    HW2 6729   4.043   0.067   2.807  0.4933 -1.1056  1.2001
 1664SOL    HW3 6730   3.982   0.021   2.677 -0.1404 -1.0132  1.4661
 1664SOL    MW4 6731   4.049   0.055   2.721 -0.2227 -0.2722  1.0271
 1665SOL     OW 6732   4.009   0.335   2.655  0.2186 -0.4169 -0.1208
 1665SOL    HW2 6733   4.046   0.249   2.676 -0.0903 -0.6475 -0.5125
 1665SOL    HW3 6734   4.027   0.346   2.561 -0.9525 -0.6500 -0.3761
 1665SOL    MW4 6735   4.016   0.325   2.645  0.0229 -0.4781 -0.2058
 1666SOL     OW 6736   4.195   0.530   2.718  0.0783 -0.5801  0.0812
 1666SOL    HW2 6737   4.129   0.461   2.716 -0.3549 -0.1678  0.0341
 1666SOL    HW3 6738   4.277   0.486   2.695 -0.2228 -1.0424 -0.1108
 1666SOL    MW4 6739   4.197   0.515   2.715 -0.0181 -0.5867  0.0496
 1667SOL     OW 6740   4.215   0.786   2.640  0.4028  0.2262  0.3579
 1667SOL    HW2 6741   4.211   0.691   2.652  1.1373  0.0772 -0.5090
 1667SOL    HW3 6742   4.221   0.798   2.545 -0.8133  1.1942  0.3930
 1667SOL    MW4 6743   4.216   0.775   2.629  0.3386  0.3343  0.2482
 1668SOL     OW 6744   3.989   0.899   2.737  0.0415 -0.3483 -0.0953
 1668SOL    HW2 6745   4.078   0.870   2.719  0.2958  0.7784 -0.6963
 1668SOL    HW3 6746   3.933   0.835   2.691  0.5514 -0.6833 -0.2540
 1668SOL    MW4 6747   3.993   0.887   2.728  0.1421 -0.2438 -0.1953
 1669SOL     OW 6748   3.960   1.129   2.602 -0.4995 -0.1641 -0.0939
 1669SOL    HW2 6749   4.031   1.181   2.640 -1.7356  1.0181  0.6419
 1669SOL    HW3 6750   3.965   1.045   2.647  1.3599 -0.6168 -1.1139
 1669SOL    MW4 6751   3.970   1.125   2.613 -0.4172 -0.0678 -0.1316
 1670SOL     OW 6752   4.217   1.249   2.728 -0.5770  0.0904  0.0284
 1670SOL    HW2 6753   4.242   1.337   2.698  0.5076  0.0793  0.8575
 1670SOL    HW3 6754   4.280   1.191   2.685 -1.2098 -0.2625 -0.4111
 1670SOL    MW4 6755   4.229   1.253   2.718 -0.5174  0.0423  0.0799
 1671SOL     OW 6756   4.266   1.489   2.591 -0.2959  0.3815  0.1857
 1671SOL    HW2 6757   4.320   1.566   2.611 -0.2317  0.6511 -0.9580
 1671SOL    HW3 6758   4.255   1.492   2.496 -1.0178 -0.5516  0.2319
 1671SOL    MW4 6759   4.272   1.499   2.581 -0.3824  0.2940  0.0408
 1672SOL     OW 6760   4.055   1.666   2.681  0.2812 -0.1564 -0.0857
 1672SOL    HW2 6761   4.043   1.655   2.776  0.8519  0.0284  0.0144
 1672SOL    HW3 6762   4.125   1.604   2.658  1.6289  1.2826  0.0085
 1672SOL    MW4 6763   4.063   1.657   2.691  0.5341  0.0579 -0.0603
 1673SOL     OW 6764   4.047   1.938   2.594 -0.0573  0.5919 -0.2779
 1673SOL    HW2 6765   4.116   1.980   2.645 -0.9055  0.9519  0.5863
 1673SOL    HW3 6766   4.056   1.845   2.613 -0.4981  0.7415  0.7143
 1673SOL    MW4 6767   4.057   1.931   2.603 -0.2270  0.6591 -0.0329
 1674SOL     OW 6768   4.250   2.071   2.739  0.3053  0.5640 -0.0403
 1674SOL    HW2 6769   4.249   2.155   2.693 -0.4858  0.5607 -0.0435
 1674SOL    HW3 6770   4.319   2.021   2.697 -0.8505  0.3123 -1.6793
 1674SOL    MW4 6771   4.259   2.076   2.728  0.0482  0.5305 -0.2568
 1675SOL     OW 6772   4.250   2.299   2.596  0.3700  0.4215 -0.7304
 1675SOL    HW2 6773   4.200   2.379   2.610  1.9578  1.4554 -0.7610
 1675SOL    HW3 6774   4.254   2.289   2.501 -1.1720 -0.5937 -0.7090
 1675SOL    MW4 6775   4.244   2.308   2.586  0.3762  0.4241 -0.7315
 1676SOL     OW 6776   4.083   2.481   2.726 -0.2571 -0.2596 -0.5171
 1676SOL    HW2 6777   4.081   2.459   2.819 -0.0789 -1.3294 -0.7645
 1676SOL    HW3 6778   4.012   2.430   2.687 -0.8156  0.7591 -0.8480
 1676SOL    MW4 6779   4.074   2.471   2.733 -0.3076 -0.2666 -0.5937
 1677SOL     OW 6780   4.050   2.729   2.605  0.5008  0.4438  0.2281
 1677SOL    HW2 6781   4.131   2.773   2.631  0.6260 -0.0025  0.5962
 1677SOL    HW3 6782   4.050   2.647   2.654 -0.0837  0.3574  0.0903
 1677SOL    MW4 6783   4.061   2.724   2.615  0.4406  0.3736  0.2587
 1678SOL     OW 6784   4.293   2.841   2.709 -0.1907 -0.1671  0.2488
 1678SOL    HW2 6785   4.265   2.847   2.800 -0.8909  0.6913 -0.0190
 1678SOL    HW3 6786   4.292   2.931   2.677  0.4467 -0.4126 -0.4919
 1678SOL    MW4 6787   4.289   2.854   2.717 -0.1984 -0.0861  0.1156
 1679SOL     OW 6788   4.280   3.104   2.608 -0.9547 -0.4230  0.6270
 1679SOL    HW2 6789   4.201   3.141   2.646 -0.9641 -0.7708  0.9477
 1679SOL    HW3 6790   4.288   3.147   2.523 -1.8614 -0.8939  0.2985
 1679SOL    MW4 6791   4.271   3.114   2.602 -1.0753 -0.5312  0.6261
 1680SOL     OW 6792   4.044   3.190   2.717 -0.0944 -0.3154  0.3628
 1680SOL    HW2 6793   4.046   3.281   2.685  0.8918 -0.4628 -0.0216
 1680SOL    HW3 6794   3.952   3.165   2.712 -0.3903  0.6994  0.5556
 1680SOL    MW4 6795   4.032   3.199   2.712 -0.0033 -0.2007  0.3376
 1681SOL     OW 6796   4.057   3.448   2.634 -0.0739 -0.2733  0.1964
 1681SOL    HW2 6797   3.989   3.505   2.670 -0.3947 -1.0530  0.8501
 1681SOL    HW3 6798   4.053   3.462   2.539 -0.3599  0.5469  0.3274
 1681SOL    MW4 6799   4.047   3.457   2.626 -0.1540 -0.2680  0.3002
 1682SOL     OW 6800   4.272   3.642   2.696 -0.4355 -0.2550  0.0602
 1682SOL    HW2 6801   4.214   3.565   2.692 -2.4497  1.2709 -1.3426
 1682SOL    HW3 6802   4.299   3.647   2.787 -1.9477 -1.4451  0.5938
 1682SOL    MW4 6803   4.268   3.632   2.707 -0.9007 -0.2105 -0.0544
 1683SOL     OW 6804   4.279   3.916   2.607 -0.1010  0.5971 -0.5212
 1683SOL    HW2 6805   4.271   3.822   2.626  0.0942  0.5314 -0.7629
 1683SOL    HW3 6806   4.352   3.945   2.661 -0.5811  0.7484  0.0530
 1683SOL    MW4 6807   4.288   3.907   2.616 -0.1388  0.6087 -0.4771
 1684SOL     OW 6808   4.046   3.987   2.705  0.0749 -0.1824  0.4445
 1684SOL    HW2 6809   4.064   3.996   2.799  0.1060  2.2447  0.2460
 1684SOL    HW3 6810   4.129   3.959   2.667 -0.0329 -1.5294  1.1691
 1684SOL    MW4 6811   4.059   3.985   2.713  0.0648 -0.0401  0.5138
 1685SOL     OW 6812   4.035   4.253   2.640 -0.4238 -0.2063  0.5661
 1685SOL    HW2 6813   4.042   4.160   2.661 -0.5799  0.0296  1.6676
 1685SOL    HW3 6814   4.052   4.257   2.546  2.6558 -1.0115  1.0174
 1685SOL    MW4 6815   4.038   4.241   2.630 -0.0386 -0.2813  0.7708
 1686SOL     OW 6816   4.265   4.393   2.733 -0.3252 -0.0717  0.0345
 1686SOL    HW2 6817   4.188   4.346   2.702  0.1975 -1.3890  0.7176
 1686SOL    HW3 6818   4.274   4.467   2.672 -0.1627 -1.7964 -2.0871
 1686SOL    MW4 6819   4.256   4.397   2.721 -0.2346 -0.4730 -0.1552
 1687SOL     OW 6820   0.192   4.662   3.079 -0.0411 -0.0666 -0.0513
 1687SOL    HW2 6821   0.174   4.665   3.173 -3.6507  0.7256 -0.7189
 1687SOL    HW3 6822   0.112   4.694   3.037  1.9766  0.8907 -3.3843
 1687SOL    MW4 6823   0.179   4.666   3.086 -0.2511  0.1636 -0.5791
 1688SOL     OW 6824   4.463   0.079   2.943 -0.2906 -0.5462  0.0024
 1688SOL    HW2 6825   4.384   0.032   2.970  0.2162 -0.8905  0.9257
 1688SOL    HW3 6826   4.450   0.168   2.977 -1.4615  0.1461 -2.1500
 1688SOL    MW4 6827   4.451   0.084   2.951 -0.3781 -0.5003 -0.1597
 1689SOL     OW 6828   4.472   0.330   3.092 -0.1191  0.0965 -0.1638
 1689SOL    HW2 6829   4.480   0.334   3.187 -0.9481  1.4788 -0.1342
 1689SOL    HW3 6830   4.385   0.366   3.074 -0.1887 -0.6548 -1.4073
 1689SOL    MW4 6831   4.461   0.335   3.102 -0.2375  0.1797 -0.3240
 1690SOL     OW 6832   0.206   0.497   3.006  0.4971 -0.0134 -0.0227
 1690SOL    HW2 6833   0.280   0.454   3.047  0.4192  1.0050  1.2296
 1690SOL    HW3 6834   0.130   0.466   3.055  0.3067  0.4888  0.0074
 1690SOL    MW4 6835   0.205   0.488   3.018  0.4617  0.1872  0.1466
 1691SOL     OW 6836   0.208   0.750   3.098 -0.1862 -0.2493  0.0885
 1691SOL    HW2 6837   0.222   0.744   3.193 -3.2511  0.2095  0.6425
 1691SOL    HW3 6838   0.211   0.660   3.067 -1.6779 -0.6736  1.0855
 1691SOL    MW4 6839   0.210   0.737   3.107 -0.7874 -0.2447  0.2930
 1692SOL     OW 6840   4.462   0.875   3.015  0.8988 -0.9482  0.0493
 1692SOL    HW2 6841   4.539   0.834   3.054  1.1899  0.7654  1.3657
 1692SOL    HW3 6842   4.476   0.868   2.921  3.1624  0.1635  0.2602
 1692SOL    MW4 6843   4.474   0.869   3.008  1.2360 -0.5754  0.2506
 1693SOL     OW 6844   4.453   1.126   3.138 -0.2688  0.3692  0.3830
 1693SOL    HW2 6845   4.381   1.181   3.108  0.4455  1.1408  0.0507
 1693SOL    HW3 6846   4.454   1.052   3.078  0.8720  1.6860 -1.2502
 1693SOL    MW4 6847   4.444   1.124   3.126 -0.0234  0.6447  0.1235
 1694SOL     OW 6848   0.194   1.274   3.019  0.2114  0.3541 -0.1252
 1694SOL    HW2 6849   0.116   1.235   3.060  0.4049 -1.3107 -1.2959
 1694SOL    HW3 6850   0.182   1.258   2.925  1.7928  0.4397 -0.3444
 1694SOL    MW4 6851   0.182   1.267   3.012  0.4456  0.1458 -0.3083
 1695SOL     OW 6852   0.205   1.535   3.131 -0.3722  0.1202  0.4811
 1695SOL    HW2 6853   0.131   1.579   3.089 -1.0172 -1.3672  0.0305
 1695SOL    HW3 6854   0.205   1.446   3.094  1.0383 -0.2030  1.2065
 1695SOL    MW4 6855   0.195   1.529   3.121 -0.2712 -0.1186  0.5171
 1696SOL     OW 6856   4.476   1.654   2.995 -0.1224 -0.1387  0.2835
 1696SOL    HW2 6857   4.405   1.595   3.022  0.5120 -0.6642  0.8015
 1696SOL    HW3 6858   4.459   1.735   3.042 -1.1285  0.1871 -0.6011
 1696SOL    MW4 6859   4.464   1.657   3.004 -0.1717 -0.1650  0.2353
 1697SOL     OW 6860   4.476   1.888   3.135  0.0116  0.1849 -0.3667
 1697SOL    HW2 6861   4.404   1.920   3.080 -0.6928  1.1357  1.0842
 1697SOL    HW3 6862   4.552   1.940   3.107 -0.4726  1.0654 -0.0681
 1697SOL    MW4 6863   4.476   1.899   3.124 -0.1450  0.4265 -0.1357
 1698SOL     OW 6864   0.212   2.036   3.066  0.1990  0.1332 -0.3219
 1698SOL    HW2 6865   0.222   2.128   3.093  0.0894 -0.2788  1.1895
 1698SOL    HW3 6866   0.207   2.039   2.971  1.3407  1.5976 -0.3580
 1698SOL    MW4 6867   0.213   2.049   3.057  0.3352  0.2720 -0.1273
 1699SOL     OW 6868   0.245   2.354   3.086 -0.4314 -0.1255 -0.1323
 1699SOL    HW2 6869   0.252   2.364   3.180 -0.3097 -1.7093  0.0549
 1699SOL    HW3 6870   0.314   2.408   3.050  1.0805 -1.3825  0.8224
 1699SOL    MW4 6871   0.255   2.362   3.093 -0.2159 -0.5000  0.0184
 1700SOL     OW 6872   0.005   2.459   2.999  0.2979  0.1225  0.2873
 1700SOL    HW2 6873  -0.010   2.545   3.039  1.3420 -0.2797  1.5688
 1700SOL    HW3 6874   0.085   2.426   3.040  0.4139 -1.0811 -0.8527
 1700SOL    MW4 6875   0.013   2.466   3.010  0.4509 -0.0894  0.3061
 1701SOL     OW 6876   4.475   2.716   3.110  0.4019  0.3351 -0.1590
 1701SOL    HW2 6877   4.484   2.699   3.204  0.3384 -2.7222 -0.6624
 1701SOL    HW3 6878   4.540   2.784   3.091  2.4586 -1.0983  1.5742
 1701SOL    MW4 6879   4.485   2.723   3.120  0.6652 -0.2573  0.0031
 1702SOL     OW 6880   0.224   2.825   3.031 -0.1816 -0.2755 -0.2254
 1702SOL    HW2 6881   0.305   2.792   3.072  0.3056 -0.9498 -1.6801
 1702SOL    HW3 6882   0.240   2.816   2.937 -1.6548  0.3290 -0.5428
 1702SOL    MW4 6883   0.237   2.819   3.024 -0.3117 -0.2847 -0.4592
 1703SOL     OW 6884   0.240   3.100   3.130  0.2338  0.2383 -0.0129
 1703SOL    HW2 6885   0.166   3.147   3.090  0.5998 -0.1738 -1.1979
 1703SOL    HW3 6886   0.237   3.013   3.091  0.6457 -0.1559  0.8235
 1703SOL    MW4 6887   0.230   3.095   3.120  0.3364  0.1318 -0.0589
 1704SOL     OW 6888   0.002   3.235   3.009 -0.0463 -0.2030 -0.0251
 1704SOL    HW2 6889  -0.075   3.185   3.035  0.1391 -0.5577 -0.1522
 1704SOL    HW3 6890   0.015   3.212   2.916  0.6588 -0.7409  0.1951
 1704SOL    MW4 6891  -0.006   3.225   3.000  0.0715 -0.3207 -0.0126
 1705SOL     OW 6892   0.000   3.485   3.127 -0.0883  0.1486 -0.3375
 1705SOL    HW2 6893  -0.068   3.533   3.080  0.0029  0.2192 -0.3970
 1705SOL    HW3 6894  -0.008   3.395   3.094  1.4392  0.6369 -2.1712
 1705SOL    MW4 6895  -0.010   3.479   3.116  0.1254  0.2224 -0.5875
 1706SOL     OW 6896   0.253   3.628   3.020  0.1766 -0.4351 -0.6419
 1706SOL    HW2 6897   0.243   3.706   3.075  0.4167 -1.7827  1.3638
 1706SOL    HW3 6898   0.176   3.575   3.039  0.0274 -0.7189 -1.9767
 1706SOL    MW4 6899   0.242   3.631   3.030  0.1886 -0.6504 -0.5531
 1707SOL     OW 6900   0.225   3.876   3.159  0.6062  0.0058  0.0642
 1707SOL    HW2 6901   0.227   3.880   3.254 -1.8457  2.8199  0.0321
 1707SOL    HW3 6902   0.301   3.927   3.131  0.7939 -0.0366  0.5002
 1707SOL    MW4 6903   0.235   3.883   3.168  0.3074  0.3712  0.1173
 1708SOL     OW 6904   4.488   3.990   3.041 -0.2244 -0.3786 -0.3130
 1708SOL    HW2 6905   4.576   3.958   3.059 -0.3843 -0.2684  0.6905
 1708SOL    HW3 6906   4.478   3.981   2.946  0.4600 -1.4169 -0.2948
 1708SOL    MW4 6907   4.498   3.985   3.031 -0.1550 -0.5012 -0.1781
 1709SOL     OW 6908   4.464   4.254   3.096 -0.2097  0.5148 -0.0036
 1709SOL    HW2 6909   4.488   4.262   3.188  3.4520  0.7459 -0.9190
 1709SOL    HW3 6910   4.458   4.159   3.081 -0.1721  0.4644  0.3049
 1709SOL    MW4 6911   4.466   4.242   3.106  0.2785  0.5388 -0.0837
 1710SOL     OW 6912   0.202   4.379   2.990  0.0418  0.0762 -0.1988
 1710SOL    HW2 6913   0.118   4.342   3.018  0.1683 -0.1952 -0.1720
 1710SOL    HW3 6914   0.198   4.471   3.015 -0.6410  0.2944 -1.0947
 1710SOL    MW4 6915   0.191   4.386   2.997 -0.0316  0.0691 -0.3135
 1711SOL     OW 6916   0.681   0.005   3.081  0.1869 -0.0005  0.0883
 1711SOL    HW2 6917   0.673  -0.088   3.058  0.5088  0.4285 -1.7940
 1711SOL    HW3 6918   0.596   0.043   3.059  0.0128  0.1508  0.9717
 1711SOL    MW4 6919   0.669  -0.002   3.075  0.2064  0.0758 -0.0434
 1712SOL     OW 6920   0.437   0.114   2.998  0.7313  0.3528  0.4104
 1712SOL    HW2 6921   0.451   0.201   3.036  0.2002  1.3869 -1.6688
 1712SOL    HW3 6922   0.358   0.082   3.042 -0.7632  2.1725 -0.8279
 1712SOL    MW4 6923   0.428   0.121   3.008  0.4640  0.7293 -0.0274
 1713SOL     OW 6924   0.424   0.389   3.108 -0.1713  0.0095  0.0394
 1713SOL    HW2 6925   0.433   0.384   3.203 -0.2117 -2.6178 -0.0476
 1713SOL    HW3 6926   0.500   0.439   3.079 -0.2136  0.9101  1.4671
 1713SOL    MW4 6927   0.436   0.395   3.116 -0.1822 -0.2183  0.2165
 1714SOL     OW 6928   0.647   0.548   3.044  0.0399 -0.3675  0.0537
 1714SOL    HW2 6929   0.732   0.516   3.074 -1.2107 -2.0839  1.9215
 1714SOL    HW3 6930   0.648   0.641   3.065  2.1083 -0.0018 -1.5365
 1714SOL    MW4 6931   0.659   0.556   3.051  0.1479 -0.5457  0.0901
 1715SOL     OW 6932   0.637   0.834   3.100 -0.4773 -0.2174  0.3475
 1715SOL    HW2 6933   0.621   0.832   3.194  0.5394 -0.8942  0.5068
 1715SOL    HW3 6934   0.553   0.860   3.062 -1.3255 -1.4478  1.3445
 1715SOL    MW4 6935   0.624   0.837   3.107 -0.4550 -0.4690  0.5000
 1716SOL     OW 6936   0.397   0.929   2.991  0.0042  0.3324  0.4416
 1716SOL    HW2 6937   0.324   0.876   3.022  0.0886  0.3122  0.6087
 1716SOL    HW3 6938   0.395   0.921   2.896  0.7040 -0.8834  0.5214
 1716SOL    MW4 6939   0.387   0.921   2.983  0.1077  0.1693  0.4742
 1717SOL     OW 6940   0.444   1.172   3.132 -0.3688  0.4277 -0.1249
 1717SOL    HW2 6941   0.423   1.081   3.109 -2.1040  0.0741  2.6019
 1717SOL    HW3 6942   0.367   1.222   3.106 -1.1130  0.4667  2.0720
 1717SOL    MW4 6943   0.431   1.166   3.125 -0.6959  0.3861  0.5250
 1718SOL     OW 6944   0.671   1.269   3.018 -0.2491  0.1153  0.1139
 1718SOL    HW2 6945   0.753   1.236   3.055  0.2681  2.0524  0.7546
 1718SOL    HW3 6946   0.603   1.232   3.074  0.0565 -2.6160 -1.2412
 1718SOL    MW4 6947   0.673   1.260   3.030 -0.1406  0.0106  0.0198
 1719SOL     OW 6948   0.604   1.535   3.094 -0.2088  0.0733 -0.1449
 1719SOL    HW2 6949   0.629   1.553   3.185  1.1722  1.3313 -0.7529
 1719SOL    HW3 6950   0.607   1.440   3.087 -0.5010 -0.0489  1.1693
 1719SOL    MW4 6951   0.607   1.525   3.105 -0.0651  0.2232 -0.0517
 1720SOL     OW 6952   0.414   1.687   2.981  0.6569 -0.1446  0.1796
 1720SOL    HW2 6953   0.480   1.633   3.024  0.0813 -2.0342 -1.2703
 1720SOL    HW3 6954   0.331   1.652   3.012  0.2795  0.5054 -0.0821
 1720SOL    MW4 6955   0.412   1.676   2.991  0.5311 -0.3082 -0.0465
 1721SOL     OW 6956   0.463   1.927   3.127  0.1340  0.1944 -0.2800
 1721SOL    HW2 6957   0.436   1.846   3.085 -0.1203  0.6510 -1.0045
 1721SOL    HW3 6958   0.387   1.985   3.119  1.0573  1.2501 -1.7213
 1721SOL    MW4 6959   0.449   1.924   3.120  0.2223  0.3939 -0.5658
 1722SOL     OW 6960   0.679   2.033   2.993 -0.2503 -0.1799 -0.2995
 1722SOL    HW2 6961   0.749   1.976   3.025 -0.4422  0.0764  0.5956
 1722SOL    HW3 6962   0.599   2.000   3.035 -0.4327  0.4558 -0.1334
 1722SOL    MW4 6963   0.678   2.021   3.003 -0.2997 -0.0625 -0.1595
 1723SOL     OW 6964   0.702   2.295   3.076  0.4280  0.3703  0.1002
 1723SOL    HW2 6965   0.690   2.287   3.171 -1.1163 -0.8158 -0.1655
 1723SOL    HW3 6966   0.700   2.205   3.044  3.0471  0.6187 -0.8491
 1723SOL    MW4 6967   0.700   2.282   3.085  0.5698  0.2463 -0.0603
 1724SOL     OW 6968   0.482   2.475   2.976  0.0897 -0.5347  0.0797
 1724SOL    HW2 6969   0.549   2.419   3.015  0.8111  0.3234  0.0805
 1724SOL    HW3 6970   0.483   2.453   2.883 -0.1312 -1.0357  0.1939
 1724SOL    MW4 6971   0.491   2.465   2.969  0.1557 -0.4876  0.0947
 1725SOL     OW 6972   0.463   2.723   3.116  0.0145  0.2128 -0.1564
 1725SOL    HW2 6973   0.539   2.774   3.087  1.7502 -1.0389  1.9819
 1725SOL    HW3 6974   0.477   2.636   3.080  0.3761 -0.4060  1.4303
 1725SOL    MW4 6975   0.475   2.719   3.108  0.2912 -0.0341  0.3352
 1726SOL     OW 6976   0.692   2.841   3.019 -0.2363  0.1491  0.8593
 1726SOL    HW2 6977   0.766   2.792   3.055  1.0409  0.5840 -1.1155
 1726SOL    HW3 6978   0.704   2.930   3.052  1.0557  0.5984 -0.7370
 1726SOL    MW4 6979   0.703   2.846   3.028  0.1027  0.2658  0.3881
 1727SOL     OW 6980   0.684   3.108   3.087 -0.4235 -0.2678 -0.0190
 1727SOL    HW2 6981   0.675   3.095   3.182 -1.2430 -0.2670 -0.0930
 1727SOL    HW3 6982   0.606   3.158   3.063 -0.1453 -0.1558 -0.6742
 1727SOL    MW4 6983   0.673   3.113   3.097 -0.4950 -0.2527 -0.1152
 1728SOL     OW 6984   0.442   3.232   2.993  0.0108  0.3854 -0.2318
 1728SOL    HW2 6985   0.441   3.322   3.025 -1.3993  0.5303 -0.6537
 1728SOL    HW3 6986   0.371   3.189   3.041  1.9751 -1.0549  1.4740
 1728SOL    MW4 6987   0.433   3.238   3.004  0.0839  0.2146 -0.0625
 1729SOL     OW 6988   0.478   3.477   3.117  0.1042 -0.2081  0.2126
 1729SOL    HW2 6989   0.474   3.482   3.213 -1.4761 -1.1424  0.2188
 1729SOL    HW3 6990   0.397   3.518   3.088  0.3022 -0.4610 -0.7095
 1729SOL    MW4 6991   0.467   3.483   3.126 -0.0782 -0.3645  0.0918
 1730SOL     OW 6992   0.702   3.607   2.998  0.3860  0.1762  0.2413
 1730SOL    HW2 6993   0.780   3.561   3.029  0.7106  0.4200 -0.2122
 1730SOL    HW3 6994   0.630   3.568   3.047  0.4683 -1.8634 -1.1748
 1730SOL    MW4 6995   0.703   3.595   3.008  0.4396 -0.0606 -0.0057
 1731SOL     OW 6996   0.631   3.846   3.094  0.1778 -0.7905  0.1213
 1731SOL    HW2 6997   0.662   3.846   3.185  0.9568 -1.6828 -0.1303
 1731SOL    HW3 6998   0.654   3.759   3.062 -0.2825 -0.5483 -0.8740
 1731SOL    MW4 6999   0.638   3.834   3.102  0.2198 -0.8762 -0.0432
 1732SOL     OW 7000   0.415   4.027   3.024 -0.5286  0.3733  0.5632
 1732SOL    HW2 7001   0.495   3.979   3.045 -0.9866 -0.2558  0.8869
 1732SOL    HW3 7002   0.405   4.018   2.929 -0.7978 -0.4698  0.6701
 1732SOL    MW4 7003   0.424   4.020   3.014 -0.6246  0.1793  0.6201
 1733SOL     OW 7004   0.446   4.299   3.101 -0.3168  0.5513  0.6403
 1733SOL    HW2 7005   0.429   4.209   3.073  1.8360  0.3142 -0.0010
 1733SOL    HW3 7006   0.377   4.351   3.059  0.3408 -0.3807 -1.6405
 1733SOL    MW4 7007   0.434   4.294   3.092  0.0540  0.3967  0.2546
 1734SOL     OW 7008   0.663   4.400   2.970 -0.3101 -0.2271 -0.2396
 1734SOL    HW2 7009   0.578   4.374   3.006 -1.2113 -1.2448 -2.9197
 1734SOL    HW3 7010   0.651   4.395   2.875  2.1987  1.4601 -0.7048
 1734SOL    MW4 7011   0.650   4.396   2.962 -0.0980 -0.1392 -0.6547
 1735SOL     OW 7012   1.096   4.666   3.091 -0.0683 -0.3335  0.2674
 1735SOL    HW2 7013   1.172   4.709   3.052  0.2925  0.2641  1.6041
 1735SOL    HW3 7014   1.021   4.715   3.056  0.2813  0.6178  0.8354
 1735SOL    MW4 7015   1.096   4.678   3.081  0.0254 -0.1287  0.5186
 1736SOL     OW 7016   0.885   0.165   2.939 -0.3358  0.1656  0.2298
 1736SOL    HW2 7017   0.873   0.243   2.993 -1.4865  0.7159 -0.8034
 1736SOL    HW3 7018   0.813   0.107   2.963 -0.3912  0.0775 -0.1378
 1736SOL    MW4 7019   0.874   0.167   2.949 -0.4950  0.2266  0.0451
 1737SOL     OW 7020   0.878   0.381   3.108  0.4307  0.4539  0.0972
 1737SOL    HW2 7021   0.882   0.355   3.200  0.1432 -0.7581 -0.2213
 1737SOL    HW3 7022   0.964   0.421   3.091  0.4355  0.8050  0.9234
 1737SOL    MW4 7023   0.890   0.383   3.118  0.3935  0.3403  0.1643
 1738SOL     OW 7024   1.087   0.524   2.973 -0.5461 -0.0593  0.0102
 1738SOL    HW2 7025   1.172   0.484   2.993 -0.4431 -1.0308 -2.2415
 1738SOL    HW3 7026   1.083   0.526   2.878 -3.1123 -0.1532  0.0735
 1738SOL    MW4 7027   1.098   0.519   2.963 -0.8711 -0.1999 -0.2787
 1739SOL     OW 7028   1.147   0.762   3.118  0.8408  0.0120 -0.5787
 1739SOL    HW2 7029   1.133   0.741   3.211 -1.1674  0.8107 -0.6753
 1739SOL    HW3 7030   1.134   0.680   3.072 -0.3051  0.0424 -0.3305
 1739SOL    MW4 7031   1.143   0.749   3.125  0.4247  0.1214 -0.5591
 1740SOL     OW 7032   0.911   0.913   3.027  0.1999  0.0263 -0.1908
 1740SOL    HW2 7033   0.984   0.860   3.057 -0.9477 -1.2980  0.2913
 1740SOL    HW3 7034   0.835   0.883   3.077 -0.8427  0.8520 -1.2051
 1740SOL    MW4 7035   0.910   0.902   3.037 -0.0891 -0.0395 -0.2611
 1741SOL     OW 7036   0.915   1.180   3.122 -0.3111 -0.1886 -0.1289
 1741SOL    HW2 7037   0.998   1.224   3.101 -0.9595  0.5662 -1.1595
 1741SOL    HW3 7038   0.927   1.090   3.094  0.2779 -0.1574  0.0233
 1741SOL    MW4 7039   0.928   1.174   3.116 -0.3189 -0.0850 -0.2451
 1742SOL     OW 7040   1.135   1.301   3.033  0.4839  0.0794 -0.3119
 1742SOL    HW2 7041   1.215   1.258   3.064 -1.1619 -2.0082  1.0922
 1742SOL    HW3 7042   1.138   1.290   2.938  1.3466 -0.9082 -0.1842
 1742SOL    MW4 7043   1.146   1.294   3.025  0.3806 -0.3263 -0.1099
 1743SOL     OW 7044   1.098   1.584   3.097  0.0587 -0.4516  0.4566
 1743SOL    HW2 7045   1.184   1.621   3.076 -0.1551  0.7089  1.5777
 1743SOL    HW3 7046   1.107   1.491   3.076  0.6458  0.1876 -2.2261
 1743SOL    MW4 7047   1.111   1.576   3.092  0.1080 -0.2142  0.2506
 1744SOL     OW 7048   0.848   1.628   2.957  0.2786 -0.3382 -0.3735
 1744SOL    HW2 7049   0.922   1.591   3.006  0.1703 -0.3454 -0.2140
 1744SOL    HW3 7050   0.772   1.578   2.987 -0.0249  0.6873  0.6032
 1744SOL    MW4 7051   0.848   1.617   2.968  0.2244 -0.2038 -0.2239
 1745SOL     OW 7052   0.894   1.885   3.085  0.3105  0.2976  0.5090
 1745SOL    HW2 7053   0.888   1.877   3.180  0.6853  1.5377  0.6504
 1745SOL    HW3 7054   0.873   1.798   3.052 -1.9174  0.3693  1.6355
 1745SOL    MW4 7055   0.891   1.873   3.093  0.0660  0.4706  0.6762
 1746SOL     OW 7056   1.113   2.057   3.027  0.2933  0.1359  0.1267
 1746SOL    HW2 7057   1.045   1.996   3.056 -0.4875  1.2293  0.6729
 1746SOL    HW3 7058   1.109   2.054   2.932  0.3354 -0.7411  0.1523
 1746SOL    MW4 7059   1.103   2.049   3.019  0.1957  0.1645  0.2022
 1747SOL     OW 7060   1.144   2.317   3.093  0.1404  0.1387  0.5470
 1747SOL    HW2 7061   1.060   2.359   3.073  0.3590  0.0593 -0.5943
 1747SOL    HW3 7062   1.131   2.226   3.067  0.2549 -0.1044  1.3331
 1747SOL    MW4 7063   1.131   2.311   3.087  0.1843  0.0961  0.5002
 1748SOL     OW 7064   0.915   2.443   3.018 -0.3600 -0.0686  0.5246
 1748SOL    HW2 7065   0.853   2.375   3.043 -0.7023 -0.5639 -1.5641
 1748SOL    HW3 7066   0.919   2.438   2.923  0.6194  1.9650  0.4270
 1748SOL    MW4 7067   0.907   2.434   3.009 -0.2759  0.1345  0.2363
 1749SOL     OW 7068   0.918   2.698   3.107  0.1272 -0.8770 -0.5776
 1749SOL    HW2 7069   0.919   2.707   3.202 -0.3782 -0.3540 -0.6157
 1749SOL    HW3 7070   0.907   2.604   3.092 -1.2040 -0.8019 -0.1129
 1749SOL    MW4 7071   0.917   2.687   3.118 -0.1152 -0.7982 -0.5214
 1750SOL     OW 7072   1.137   2.835   2.985 -0.0612  0.2959  0.0964
 1750SOL    HW2 7073   1.132   2.925   3.020  0.1442  0.7291 -0.9684
 1750SOL    HW3 7074   1.069   2.788   3.033 -1.6241  1.5480 -0.8319
 1750SOL    MW4 7075   1.127   2.841   2.996 -0.2404  0.5183 -0.1667
 1751SOL     OW 7076   1.165   3.077   3.105  0.0650 -0.3626 -0.2384
 1751SOL    HW2 7077   1.240   3.117   3.060  0.6033 -1.9259 -0.7755
 1751SOL    HW3 7078   1.089   3.122   3.069  0.6547  0.1005 -0.9297
 1751SOL    MW4 7079   1.165   3.088   3.094  0.2139 -0.5078 -0.4003
 1752SOL     OW 7080   0.935   3.208   3.006 -0.2592  0.6104  0.4089
 1752SOL    HW2 7081   0.849   3.177   3.037 -0.0825  0.2920  0.5900
 1752SOL    HW3 7082   0.927   3.208   2.911 -0.5192  0.7454  0.4298
 1752SOL    MW4 7083   0.922   3.204   2.998 -0.2701  0.5865  0.4356
 1753SOL     OW 7084   0.931   3.476   3.113  0.2354  0.1351 -0.5537
 1753SOL    HW2 7085   0.999   3.532   3.075 -0.6991  1.1712 -0.7230
 1753SOL    HW3 7086   0.956   3.387   3.088  0.2700  0.6900 -2.6369
 1753SOL    MW4 7087   0.943   3.472   3.104  0.1168  0.3448 -0.8509
 1754SOL     OW 7088   1.105   3.635   2.984  0.2151 -0.4398  0.4159
 1754SOL    HW2 7089   1.191   3.597   3.002  0.3833 -0.0759  0.3918
 1754SOL    HW3 7090   1.113   3.726   3.012  0.1453 -0.1526 -0.4697
 1754SOL    MW4 7091   1.118   3.642   2.990  0.2282 -0.3538  0.2961
 1755SOL     OW 7092   1.111   3.897   3.089  0.0482 -0.0122  0.2620
 1755SOL    HW2 7093   1.113   3.896   3.184  0.6013  1.8424  0.2953
 1755SOL    HW3 7094   1.028   3.940   3.067  0.7392  1.1882 -0.0539
 1755SOL    MW4 7095   1.100   3.903   3.099  0.2123  0.3908  0.2248
 1756SOL     OW 7096   0.861   3.964   3.002 -0.5714 -0.1114  0.3879
 1756SOL    HW2 7097   0.780   3.920   3.027 -0.5972 -0.7462 -0.7561
 1756SOL    HW3 7098   0.866   3.952   2.907  0.5535  0.4463  0.3699
 1756SOL    MW4 7099   0.851   3.957   2.992 -0.4263 -0.1214  0.2346
 1757SOL     OW 7100   0.864   4.246   3.074 -0.1408  0.0110 -0.4516
 1757SOL    HW2 7101   0.867   4.156   3.044 -0.4616 -0.2727  0.3571
 1757SOL    HW3 7102   0.799   4.288   3.018 -1.6135 -0.8100  0.6109
 1757SOL    MW4 7103   0.856   4.240   3.063 -0.3774 -0.1354 -0.2046
 1758SOL     OW 7104   1.110   4.397   3.002 -0.3342  0.0557  0.4190
 1758SOL    HW2 7105   1.043   4.338   3.036 -0.2035 -0.0201  0.5465
 1758SOL    HW3 7106   1.094   4.480   3.048 -1.0475  0.3705 -0.3773
 1758SOL    MW4 7107   1.099   4.400   3.013 -0.4110  0.0868  0.3309
 1759SOL     OW 7108   1.576   0.001   3.069  0.0252  0.4401  0.2869
 1759SOL    HW2 7109   1.579   0.003   3.165 -0.0787  1.3975  0.2797
 1759SOL    HW3 7110   1.489   0.036   3.048  0.7264  1.9290 -0.1950
 1759SOL    MW4 7111   1.565   0.006   3.079  0.1041  0.7629  0.2224
 1760SOL     OW 7112   1.318   0.128   2.974  0.0038  0.7778  0.3732
 1760SOL    HW2 7113   1.326   0.221   2.997 -2.8001  1.2292 -0.3147
 1760SOL    HW3 7114   1.313   0.128   2.878  0.4229 -0.1492  0.3480
 1760SOL    MW4 7115   1.319   0.141   2.964 -0.3109  0.7150  0.2789
 1761SOL     OW 7116   1.312   0.414   3.068  0.0950 -0.4151  0.3360
 1761SOL    HW2 7117   1.307   0.407   3.163 -0.0387 -0.9897  0.2865
 1761SOL    HW3 7118   1.396   0.458   3.052 -0.7393  1.3553  0.7916
 1761SOL    MW4 7119   1.323   0.419   3.078 -0.0327 -0.2573  0.3898
 1762SOL     OW 7120   1.567   0.507   3.017 -0.3454 -0.2464 -0.6818
 1762SOL    HW2 7121   1.567   0.600   3.041  1.3599 -0.5262  0.4571
 1762SOL    HW3 7122   1.568   0.508   2.921 -1.9276  0.8936 -0.7082
 1762SOL    MW4 7123   1.567   0.519   3.007 -0.3290 -0.1329 -0.5345
 1763SOL     OW 7124   1.556   0.783   3.098 -0.0900  0.2916 -0.2019
 1763SOL    HW2 7125   1.561   0.791   3.193  0.4413  0.5210 -0.2520
 1763SOL    HW3 7126   1.470   0.821   3.076 -0.5158 -0.3960  0.2488
 1763SOL    MW4 7127   1.545   0.789   3.107 -0.0761  0.2311 -0.1490
 1764SOL     OW 7128   1.345   0.904   2.989  0.2167  0.1607  0.6107
 1764SOL    HW2 7129   1.328   0.987   3.035 -0.7003  1.0018 -1.2063
 1764SOL    HW3 7130   1.271   0.848   3.014 -1.2030  1.1952 -1.1312
 1764SOL    MW4 7131   1.333   0.908   2.999 -0.0917  0.4082  0.1414
 1765SOL     OW 7132   1.345   1.143   3.130  0.0712 -0.7320  0.3214
 1765SOL    HW2 7133   1.334   1.138   3.225 -1.1234  1.5345  0.3578
 1765SOL    HW3 7134   1.426   1.194   3.119 -1.4690  1.7534  0.1774
 1765SOL    MW4 7135   1.355   1.149   3.141 -0.2896 -0.1051  0.3071
 1766SOL     OW 7136   1.578   1.266   3.035  0.0726  0.0562 -0.2438
 1766SOL    HW2 7137   1.647   1.219   3.082  0.0084  0.0643 -0.1408
 1766SOL    HW3 7138   1.598   1.358   3.048  0.1402  0.0577 -0.3591
 1766SOL    MW4 7139   1.590   1.272   3.043  0.0730  0.0576 -0.2456
 1767SOL     OW 7140   1.606   1.542   3.079 -0.2024  0.0166 -0.5024
 1767SOL    HW2 7141   1.677   1.602   3.057  0.0540 -0.4078 -0.8387
 1767SOL    HW3 7142   1.526   1.587   3.051 -0.1461  0.8384  0.5938
 1767SOL    MW4 7143   1.605   1.555   3.073 -0.1612  0.0689 -0.4020
 1768SOL     OW 7144   1.348   1.695   3.030  0.2059  0.1415 -0.2388
 1768SOL    HW2 7145   1.359   1.785   3.062  1.2878 -0.1042  0.0881
 1768SOL    HW3 7146   1.345   1.703   2.935 -1.8293  0.7470 -0.1530
 1768SOL    MW4 7147   1.349   1.708   3.022  0.0801  0.1888 -0.1845
 1769SOL     OW 7148   1.348   1.971   3.111 -0.6151 -0.6925 -0.1998
 1769SOL    HW2 7149   1.335   1.977   3.206 -0.3275 -1.7216 -0.0888
 1769SOL    HW3 7150   1.272   2.015   3.074 -0.1043  0.8280  0.5124
 1769SOL    MW4 7151   1.336   1.978   3.118 -0.5099 -0.6276 -0.0911
 1770SOL     OW 7152   1.561   2.087   3.002 -0.5852  1.0188  0.0099
 1770SOL    HW2 7153   1.483   2.044   3.037 -0.0760 -0.3815 -0.5790
 1770SOL    HW3 7154   1.550   2.084   2.907 -0.1669  1.4935 -0.0537
 1770SOL    MW4 7155   1.549   2.081   2.994 -0.4630  0.8969 -0.0761
 1771SOL     OW 7156   1.555   2.328   3.165 -0.0631  0.2913  0.0101
 1771SOL    HW2 7157   1.476   2.371   3.133  0.8067  2.4366  0.6790
 1771SOL    HW3 7158   1.564   2.250   3.109 -2.7805 -0.1474  0.1160
 1771SOL    MW4 7159   1.546   2.323   3.153 -0.3070  0.5164  0.1123
 1772SOL     OW 7160   1.366   2.482   3.028 -0.0631  0.1674  0.2704
 1772SOL    HW2 7161   1.281   2.441   3.039  0.8064 -1.3075  1.7779
 1772SOL    HW3 7162   1.389   2.466   2.937 -0.4670 -1.2992  0.4152
 1772SOL    MW4 7163   1.358   2.474   3.017 -0.0017 -0.2208  0.4885
 1773SOL     OW 7164   1.358   2.733   3.142  0.5012  0.0717 -0.2945
 1773SOL    HW2 7165   1.366   2.650   3.096  1.3409  0.8286 -1.5522
 1773SOL    HW3 7166   1.287   2.779   3.097 -0.0066  0.0229  0.4387
 1773SOL    MW4 7167   1.349   2.728   3.130  0.5450  0.1652 -0.3636
 1774SOL     OW 7168   1.544   2.877   2.977 -0.2133  0.0077 -0.1300
 1774SOL    HW2 7169   1.622   2.829   3.004 -0.5408 -0.5455 -0.1667
 1774SOL    HW3 7170   1.472   2.831   3.020 -0.5245  0.4758 -0.1509
 1774SOL    MW4 7171   1.545   2.865   2.986 -0.2975 -0.0033 -0.1378
 1775SOL     OW 7172   1.563   3.130   3.103  0.0830 -0.1976 -0.0396
 1775SOL    HW2 7173   1.571   3.123   3.198 -0.2024 -0.3112 -0.0224
 1775SOL    HW3 7174   1.565   3.039   3.072  0.8868 -0.1209 -0.2007
 1775SOL    MW4 7175   1.564   3.117   3.111  0.1514 -0.2024 -0.0587
 1776SOL     OW 7176   1.341   3.255   3.003 -0.0779  0.0458  0.3323
 1776SOL    HW2 7177   1.430   3.239   3.035  0.0524  1.0620  0.4755
 1776SOL    HW3 7178   1.343   3.225   2.912  0.8415  1.4887 -0.1363
 1776SOL    MW4 7179   1.353   3.249   2.995  0.0606  0.3703  0.2892
 1777SOL     OW 7180   1.337   3.527   3.037  0.3397 -0.4220  0.2769
 1777SOL    HW2 7181   1.325   3.536   3.131 -0.8551 -1.8483  0.2797
 1777SOL    HW3 7182   1.333   3.433   3.021  0.7179 -0.2076 -1.1700
 1777SOL    MW4 7183   1.335   3.516   3.047  0.2320 -0.5815  0.0865
 1778SOL     OW 7184   1.556   3.611   2.905 -0.1336 -0.0791 -0.4144
 1778SOL    HW2 7185   1.469   3.579   2.930  0.1745 -0.0920  0.6651
 1778SOL    HW3 7186   1.563   3.591   2.811 -1.8950  1.3025 -0.8629
 1778SOL    MW4 7187   1.545   3.604   2.896 -0.3253  0.1016 -0.3312
 1779SOL     OW 7188   1.558   3.848   3.086  0.4286  0.1644  0.7628
 1779SOL    HW2 7189   1.640   3.888   3.057  0.9771 -0.6504  1.1585
 1779SOL    HW3 7190   1.556   3.763   3.041 -0.2434  0.2183  0.6833
 1779SOL    MW4 7191   1.568   3.842   3.076  0.4123  0.0641  0.8047
 1780SOL     OW 7192   1.347   4.011   2.965  0.1551  0.2289  0.3906
 1780SOL    HW2 7193   1.417   3.950   2.986  1.0222  1.0646 -0.0420
 1780SOL    HW3 7194   1.267   3.967   2.996  0.7971 -0.9535  0.4176
 1780SOL    MW4 7195   1.345   3.997   2.972  0.3542  0.1831  0.3369
 1781SOL     OW 7196   1.357   4.296   3.050 -0.5923 -0.0808  0.2851
 1781SOL    HW2 7197   1.351   4.207   3.017 -0.4978  0.4521 -1.2406
 1781SOL    HW3 7198   1.268   4.331   3.040 -0.3165  0.4282 -0.4191
 1781SOL    MW4 7199   1.345   4.289   3.044 -0.5434  0.0563 -0.0091
 1782SOL     OW 7200   1.603   4.394   2.980 -0.0478  0.0809 -0.2402
 1782SOL    HW2 7201   1.520   4.364   3.015 -0.2589 -1.2024 -1.8112
 1782SOL    HW3 7202   1.603   4.488   2.997 -1.3633 -0.0657  0.6710
 1782SOL    MW4 7203   1.592   4.403   2.987 -0.2493 -0.1078 -0.3271
 1783SOL     OW 7204   2.010   4.618   3.100  0.2441  0.4743 -0.1694
 1783SOL    HW2 7205   2.014   4.625   3.195 -0.7524 -0.1228 -0.0701
 1783SOL    HW3 7206   1.951   4.689   3.073 -1.6194 -0.9831 -0.0798
 1783SOL    MW4 7207   2.002   4.628   3.109 -0.1333  0.2027 -0.1445
 1784SOL     OW 7208   1.799   0.135   2.984  0.5324  0.7283 -0.3791
 1784SOL    HW2 7209   1.718   0.097   3.018  0.7576  0.7172  0.1403
 1784SOL    HW3 7210   1.785   0.138   2.889  0.1606  0.1704 -0.3485
 1784SOL    MW4 7211   1.786   0.130   2.976  0.5131  0.6532 -0.3066
 1785SOL     OW 7212   1.816   0.409   3.117 -0.0189 -0.4121 -0.0334
 1785SOL    HW2 7213   1.824   0.324   3.073  0.1396 -0.0199 -0.7661
 1785SOL    HW3 7214   1.735   0.446   3.082  0.0396 -0.1556  0.1032
 1785SOL    MW4 7215   1.806   0.403   3.106  0.0098 -0.3265 -0.1121
 1786SOL     OW 7216   2.034   0.526   3.011 -0.4138 -0.1645  0.2261
 1786SOL    HW2 7217   1.954   0.485   3.042 -1.4931  1.6668 -0.0639
 1786SOL    HW3 7218   2.033   0.513   2.916 -0.4042 -0.0781  0.2140
 1786SOL    MW4 7219   2.023   0.519   3.003 -0.5550  0.0885  0.1864
 1787SOL     OW 7220   2.033   0.759   3.134  0.4585  0.0683 -0.2834
 1787SOL    HW2 7221   1.951   0.792   3.097  1.1236  0.9285 -1.0265
 1787SOL    HW3 7222   2.045   0.673   3.094  0.4925  0.4288 -1.0612
 1787SOL    MW4 7223   2.024   0.752   3.124  0.5507  0.2294 -0.4845
 1788SOL     OW 7224   1.799   0.879   3.034 -0.5047  0.1494  0.1947
 1788SOL    HW2 7225   1.715   0.839   3.056  0.0077 -0.7753  0.4937
 1788SOL    HW3 7226   1.796   0.892   2.940  0.4452 -3.2759 -0.3664
 1788SOL    MW4 7227   1.788   0.876   3.025 -0.3119 -0.4246  0.1602
 1789SOL     OW 7228   1.810   1.143   3.111  0.3105 -0.2907  0.0342
 1789SOL    HW2 7229   1.789   1.145   3.204  2.4965  1.2959  0.5337
 1789SOL    HW3 7230   1.803   1.051   3.086 -1.9594 -0.4916  1.3532
 1789SOL    MW4 7231   1.806   1.132   3.120  0.2995 -0.1078  0.2739
 1790SOL     OW 7232   2.017   1.297   3.008 -0.3079  0.2248  0.0776
 1790SOL    HW2 7233   2.092   1.239   3.015 -0.1320  0.4985  0.4594
 1790SOL    HW3 7234   1.946   1.251   3.053 -0.2949  0.0940 -0.0358
 1790SOL    MW4 7235   2.018   1.284   3.015 -0.2828  0.2437  0.1128
 1791SOL     OW 7236   2.046   1.577   3.091  0.0225  0.2745 -0.1669
 1791SOL    HW2 7237   2.028   1.580   3.185 -0.0384  0.1999 -0.1758
 1791SOL    HW3 7238   2.038   1.484   3.068 -3.2208  0.6850 -0.8851
 1791SOL    MW4 7239   2.043   1.565   3.100 -0.4134  0.3189 -0.2627
 1792SOL     OW 7240   1.825   1.698   2.993 -0.0138 -0.0996  0.0160
 1792SOL    HW2 7241   1.823   1.773   3.053  0.5357  0.4439 -0.6432
 1792SOL    HW3 7242   1.899   1.645   3.023 -0.2019 -0.2143  0.2801
 1792SOL    MW4 7243   1.835   1.701   3.005  0.0339 -0.0430 -0.0362
 1793SOL     OW 7244   1.775   1.925   3.145 -0.3901  0.0309 -0.0202
 1793SOL    HW2 7245   1.853   1.980   3.130  0.5933 -0.7611  1.9714
 1793SOL    HW3 7246   1.705   1.971   3.100  0.9864  1.4509 -0.7823
 1793SOL    MW4 7247   1.776   1.939   3.137 -0.0789  0.1137  0.1419
 1794SOL     OW 7248   1.989   2.050   3.003 -0.5136  0.0356 -0.4715
 1794SOL    HW2 7249   2.064   1.997   3.029  1.2709  1.5074 -2.4890
 1794SOL    HW3 7250   2.001   2.133   3.050 -1.2498  0.0597 -0.3093
 1794SOL    MW4 7251   2.000   2.054   3.013 -0.3753  0.2332 -0.7160
 1795SOL     OW 7252   1.996   2.316   3.100 -0.0867 -0.2957  0.2182
 1795SOL    HW2 7253   2.069   2.362   3.059 -0.9951 -0.0311 -1.1249
 1795SOL    HW3 7254   1.919   2.368   3.078 -0.4450  0.6172  3.4405
 1795SOL    MW4 7255   1.995   2.329   3.092 -0.2537 -0.1404  0.4663
 1796SOL     OW 7256   1.768   2.459   3.023 -0.2322 -0.1023 -0.2811
 1796SOL    HW2 7257   1.767   2.549   3.056  1.0948  0.1040 -0.7931
 1796SOL    HW3 7258   1.695   2.417   3.068 -0.6783  1.1486  0.1918
 1796SOL    MW4 7259   1.758   2.465   3.034 -0.1160  0.0899 -0.2863
 1797SOL     OW 7260   1.767   2.747   3.083 -0.2602 -0.3841  0.1121
 1797SOL    HW2 7261   1.778   2.738   3.178 -0.2568  2.1474  0.3880
 1797SOL    HW3 7262   1.853   2.775   3.051 -0.8734  1.0841 -0.2935
 1797SOL    MW4 7263   1.780   2.749   3.092 -0.3406  0.1435  0.0949
 1798SOL     OW 7264   2.020   2.838   2.981 -0.7436  0.6628  0.2459
 1798SOL    HW2 7265   2.029   2.930   3.007  0.3458  1.0279 -1.3549
 1798SOL    HW3 7266   2.090   2.793   3.027  0.5480  1.1384 -1.2233
 1798SOL    MW4 7267   2.030   2.844   2.990 -0.4294  0.7737 -0.1593
 1799SOL     OW 7268   2.029   3.086   3.090  0.4797 -0.2228 -0.1425
 1799SOL    HW2 7269   2.008   3.093   3.183  0.9633  1.9741 -0.1723
 1799SOL    HW3 7270   1.959   3.136   3.046  1.8185  1.1798 -0.7254
 1799SOL    MW4 7271   2.017   3.094   3.097  0.7198  0.2522 -0.2234
 1800SOL     OW 7272   1.806   3.247   3.002 -0.2029 -0.1131  0.3625
 1800SOL    HW2 7273   1.724   3.204   3.026  0.4099 -1.0981  0.7153
 1800SOL    HW3 7274   1.804   3.251   2.907 -0.3501 -0.7569  0.3371
 1800SOL    MW4 7275   1.795   3.242   2.993 -0.1415 -0.3283  0.4060
 1801SOL     OW 7276   1.758   3.529   3.081  0.0744  0.0199  0.3187
 1801SOL    HW2 7277   1.769   3.436   3.060  0.3517  0.1336 -0.0261
 1801SOL    HW3 7278   1.685   3.557   3.026 -0.2223 -0.0702  0.6596
 1801SOL    MW4 7279   1.749   3.520   3.071  0.0719  0.0234  0.3183
 1802SOL     OW 7280   1.990   3.610   2.959  0.2669 -0.0685 -0.7804
 1802SOL    HW2 7281   1.999   3.692   3.008 -0.8086  0.3679 -1.2943
 1802SOL    HW3 7282   1.913   3.568   2.997  0.3845 -0.4923 -1.0150
 1802SOL    MW4 7283   1.981   3.615   2.970  0.1405 -0.0668 -0.8790
 1803SOL     OW 7284   2.032   3.843   3.076  0.3683 -0.0968 -0.6323
 1803SOL    HW2 7285   2.016   3.861   3.169  2.2696  1.2764 -0.5416
 1803SOL    HW3 7286   1.958   3.884   3.031  0.8664  1.6811  0.1128
 1803SOL    MW4 7287   2.020   3.851   3.083  0.6847  0.3188 -0.5221
 1804SOL     OW 7288   1.803   3.952   2.966  0.8309 -0.0902 -0.5914
 1804SOL    HW2 7289   1.800   4.040   3.003  0.6178  0.0559 -0.9616
 1804SOL    HW3 7290   1.795   3.965   2.872  0.2574 -0.5399 -0.6096
 1804SOL    MW4 7291   1.802   3.965   2.958  0.7271 -0.1304 -0.6425
 1805SOL     OW 7292   1.788   4.202   3.089  0.4953 -0.2172 -0.3744
 1805SOL    HW2 7293   1.871   4.234   3.055  0.8122  0.1293  0.7316
 1805SOL    HW3 7294   1.726   4.273   3.070  1.1096  0.9209  1.6901
 1805SOL    MW4 7295   1.790   4.216   3.082  0.6181 -0.0210  0.0439
 1806SOL     OW 7296   2.018   4.349   3.000 -0.0075  0.0975  0.4194
 1806SOL    HW2 7297   2.027   4.433   3.044  3.1395 -0.5016  1.0522
 1806SOL    HW3 7298   2.016   4.370   2.907  2.6383  0.7965  0.4859
 1806SOL    MW4 7299   2.019   4.363   2.994  0.7567  0.1111  0.5119
 1807SOL     OW 7300   2.465   4.617   3.120 -0.3856 -0.2288  0.0939
 1807SOL    HW2 7301   2.454   4.525   3.095 -0.3370 -0.0091 -0.7496
 1807SOL    HW3 7302   2.401   4.664   3.067  0.9633  0.4517 -0.9709
 1807SOL    MW4 7303   2.455   4.611   3.110 -0.2010 -0.1097 -0.1576
 1808SOL     OW 7304   2.240   0.090   3.008 -0.5318  0.3750 -0.7786
 1808SOL    HW2 7305   2.216   0.175   3.044 -1.2046  0.7175 -2.0420
 1808SOL    HW3 7306   2.170   0.031   3.038 -1.0627  0.6497 -1.4720
 1808SOL    MW4 7307   2.228   0.093   3.017 -0.6907  0.4565 -1.0369
 1809SOL     OW 7308   2.236   0.367   3.137  0.2074 -0.3943 -0.0557
 1809SOL    HW2 7309   2.223   0.381   3.231  0.0259 -1.5193  0.0961
 1809SOL    HW3 7310   2.163   0.414   3.096  0.4384  0.3255  0.3377
 1809SOL    MW4 7311   2.224   0.375   3.144  0.2139 -0.4478  0.0165
 1810SOL     OW 7312   2.459   0.467   3.005 -0.2173 -0.0884  0.3793
 1810SOL    HW2 7313   2.377   0.429   3.036 -0.4754 -0.9058 -1.2143
 1810SOL    HW3 7314   2.527   0.427   3.060 -0.7324 -0.8713  0.4566
 1810SOL    MW4 7315   2.457   0.457   3.016 -0.3192 -0.2995  0.1793
 1811SOL     OW 7316   2.479   0.724   3.115 -0.0495 -0.0823 -0.1557
 1811SOL    HW2 7317   2.557   0.763   3.075  0.3697 -0.5230  0.2197
 1811SOL    HW3 7318   2.478   0.635   3.082 -1.5418  0.5149 -1.7707
 1811SOL    MW4 7319   2.489   0.718   3.105 -0.1910 -0.0616 -0.3192
 1812SOL     OW 7320   2.262   0.877   3.036  0.0224  0.4453 -0.6237
 1812SOL    HW2 7321   2.337   0.826   3.068  0.1926  1.7338  1.0885
 1812SOL    HW3 7322   2.186   0.837   3.079 -0.2795 -0.6147 -2.0657
 1812SOL    MW4 7323   2.262   0.865   3.046  0.0048  0.4755 -0.5882
 1813SOL     OW 7324   2.230   1.148   3.111  0.1198  0.3052  0.2349
 1813SOL    HW2 7325   2.240   1.141   3.206  2.0137  0.6329  0.0796
 1813SOL    HW3 7326   2.243   1.058   3.080  0.9066  0.4406  0.1714
 1813SOL    MW4 7327   2.233   1.135   3.119  0.4735  0.3662  0.2062
 1814SOL     OW 7328   2.465   1.274   3.043  0.7781 -0.7353 -0.0175
 1814SOL    HW2 7329   2.381   1.240   3.074  0.5267  2.2532  2.7615
 1814SOL    HW3 7330   2.448   1.302   2.953 -0.6989 -1.8047 -0.0921
 1814SOL    MW4 7331   2.452   1.273   3.035  0.5500 -0.4822  0.3390
 1815SOL     OW 7332   2.492   1.543   3.117  0.2969 -0.3592 -0.0466
 1815SOL    HW2 7333   2.420   1.581   3.067  1.0363  0.8463 -0.2207
 1815SOL    HW3 7334   2.482   1.449   3.108 -1.3199 -0.1945  0.0130
 1815SOL    MW4 7335   2.481   1.536   3.109  0.1812 -0.1783 -0.0615
 1816SOL     OW 7336   2.274   1.699   3.004 -0.2187 -0.0211  0.0191
 1816SOL    HW2 7337   2.191   1.665   3.036  0.3469  0.4970  2.1589
 1816SOL    HW3 7338   2.267   1.697   2.909 -2.1498 -1.2407  0.1775
 1816SOL    MW4 7339   2.262   1.694   2.996 -0.3989 -0.1138  0.3223
 1817SOL     OW 7340   2.231   1.954   3.115 -0.2742 -0.0396 -0.1517
 1817SOL    HW2 7341   2.299   2.003   3.068 -1.1118  1.4780  0.2028
 1817SOL    HW3 7342   2.252   1.862   3.097  1.8324  0.3964 -0.1104
 1817SOL    MW4 7343   2.243   1.948   3.106 -0.1068  0.2180 -0.0992
 1818SOL     OW 7344   2.452   2.081   2.984  0.1094 -0.1629  0.0652
 1818SOL    HW2 7345   2.530   2.040   3.021  0.8232  0.6310 -0.5506
 1818SOL    HW3 7346   2.466   2.080   2.889 -0.0736  1.0846  0.0164
 1818SOL    MW4 7347   2.464   2.076   2.976  0.1793  0.1063 -0.0224
 1819SOL     OW 7348   2.493   2.338   3.054  0.7286  0.2606 -0.0423
 1819SOL    HW2 7349   2.492   2.325   3.149  1.0801 -0.0740 -0.0845
 1819SOL    HW3 7350   2.483   2.251   3.017 -1.9982  0.6408 -0.3196
 1819SOL    MW4 7351   2.491   2.325   3.061  0.4148  0.2668 -0.0846
 1820SOL     OW 7352   2.241   2.447   3.005  0.3680 -0.3690  0.0742
 1820SOL    HW2 7353   2.235   2.522   3.063 -0.7893 -0.3304 -0.0807
 1820SOL    HW3 7354   2.324   2.406   3.027  0.8268  0.7305  0.4285
 1820SOL    MW4 7355   2.251   2.451   3.015  0.2759 -0.2186  0.1006
 1821SOL     OW 7356   2.234   2.724   3.119 -0.5584 -0.0863 -0.8029
 1821SOL    HW2 7357   2.323   2.741   3.088 -1.2319  3.0062 -1.1681
 1821SOL    HW3 7358   2.233   2.757   3.209 -1.5650  0.6211 -1.0654
 1821SOL    MW4 7359   2.246   2.730   3.127 -0.7801  0.4151 -0.8857
 1822SOL     OW 7360   2.459   2.816   2.994  0.0837 -0.1065  0.2607
 1822SOL    HW2 7361   2.451   2.908   3.021 -0.6852  0.0931 -0.6202
 1822SOL    HW3 7362   2.445   2.818   2.899  0.7085 -1.0539  0.1482
 1822SOL    MW4 7363   2.456   2.828   2.985  0.0648 -0.2055  0.1292
 1823SOL     OW 7364   2.502   3.084   3.079  0.0358  0.1712 -0.3621
 1823SOL    HW2 7365   2.565   3.152   3.055  0.0681  0.6156  0.9463
 1823SOL    HW3 7366   2.417   3.122   3.058  0.1656 -0.3364 -1.9045
 1823SOL    MW4 7367   2.499   3.098   3.073  0.0572  0.1631 -0.3929
 1824SOL     OW 7368   2.273   3.230   3.040 -0.0319  0.3892 -0.2731
 1824SOL    HW2 7369   2.261   3.325   3.042  0.9678  0.4995  1.9967
 1824SOL    HW3 7370   2.195   3.195   3.081  1.1003  0.4305  1.9930
 1824SOL    MW4 7371   2.261   3.238   3.046  0.2496  0.4091  0.3254
 1825SOL     OW 7372   2.252   3.514   3.047 -0.0294  0.0175 -0.5203
 1825SOL    HW2 7373   2.330   3.563   3.022  0.5563  0.7321  2.5252
 1825SOL    HW3 7374   2.179   3.561   3.006  0.6828  2.3585  0.8467
 1825SOL    MW4 7375   2.252   3.527   3.038  0.1421  0.4206  0.0618
 1826SOL     OW 7376   2.481   3.636   2.996  0.3231  0.2943  0.2147
 1826SOL    HW2 7377   2.560   3.592   3.026  0.6035  0.2307 -0.6102
 1826SOL    HW3 7378   2.479   3.718   3.045  0.9736  0.3551  0.1447
 1826SOL    MW4 7379   2.491   3.641   3.006  0.4458  0.2940  0.0970
 1827SOL     OW 7380   2.491   3.872   3.128 -0.4188  0.3234  0.4535
 1827SOL    HW2 7381   2.468   3.892   3.219 -0.2177  0.0849  0.5562
 1827SOL    HW3 7382   2.567   3.927   3.111 -0.0897 -0.0808  0.6198
 1827SOL    MW4 7383   2.498   3.882   3.138 -0.3488  0.2389  0.4892
 1828SOL     OW 7384   2.272   3.968   2.985  0.0705  0.3420 -0.0595
 1828SOL    HW2 7385   2.344   3.931   3.034 -0.2821  0.7209  0.7583
 1828SOL    HW3 7386   2.196   3.916   3.010  0.2814 -0.8433 -1.8618
 1828SOL    MW4 7387   2.271   3.957   2.995  0.0520  0.2353 -0.1893
 1829SOL     OW 7388   2.229   4.214   3.143  0.4598 -0.2101  0.0526
 1829SOL    HW2 7389   2.255   4.138   3.091  1.2846  0.6615 -0.8560
 1829SOL    HW3 7390   2.155   4.252   3.095 -0.0895 -0.5701  0.6211
 1829SOL    MW4 7391   2.223   4.209   3.130  0.4961 -0.1426  0.0079
 1830SOL     OW 7392   2.432   4.367   3.026  0.1625 -0.0947  0.2399
 1830SOL    HW2 7393   2.365   4.321   3.075 -0.8890  1.8990  0.7353
 1830SOL    HW3 7394   2.421   4.337   2.936 -0.5941 -0.6985  0.5304
 1830SOL    MW4 7395   2.422   4.357   3.020 -0.0758  0.0887  0.3436
 1831SOL     OW 7396   2.883   4.638   3.139  0.5185 -0.1222 -0.3039
 1831SOL    HW2 7397   2.902   4.633   3.233  0.6438 -1.7694 -0.4131
 1831SOL    HW3 7398   2.883   4.547   3.109  0.2485  0.3760 -1.8611
 1831SOL    MW4 7399   2.885   4.626   3.147  0.4995 -0.2737 -0.5240
 1832SOL     OW 7400   2.666   0.107   3.020  0.1530  0.3796 -0.7374
 1832SOL    HW2 7401   2.745   0.062   3.050 -0.3686 -0.8232 -1.1676
 1832SOL    HW3 7402   2.595   0.061   3.063 -0.4088  0.5475 -1.4844
 1832SOL    MW4 7403   2.667   0.095   3.030  0.0100  0.2430 -0.8926
 1833SOL     OW 7404   2.669   0.348   3.149 -0.1099  0.6899 -0.0935
 1833SOL    HW2 7405   2.658   0.267   3.099  1.0477  0.4365  0.0487
 1833SOL    HW3 7406   2.750   0.386   3.114 -0.9070  2.0458 -0.5143
 1833SOL    MW4 7407   2.678   0.343   3.138 -0.0622  0.8354 -0.1304
 1834SOL     OW 7408   2.893   0.478   3.044  0.1578 -0.5276  0.2349
 1834SOL    HW2 7409   2.979   0.444   3.068  0.2471 -1.3537 -1.2292
 1834SOL    HW3 7410   2.892   0.476   2.948  0.2083  3.6466  0.0381
 1834SOL    MW4 7411   2.905   0.474   3.035  0.1764 -0.0859  0.0155
 1835SOL     OW 7412   2.924   0.749   3.094  0.1796 -0.4498  0.4559
 1835SOL    HW2 7413   2.919   0.752   3.189  0.1690 -0.2017  0.4481
 1835SOL    HW3 7414   2.902   0.658   3.072  0.0280 -0.4695  0.6807
 1835SOL    MW4 7415   2.920   0.737   3.103  0.1583 -0.4197  0.4847
 1836SOL     OW 7416   2.691   0.861   3.011 -0.1045 -0.0569 -0.0239
 1836SOL    HW2 7417   2.697   0.949   3.049 -1.3775 -0.1102  0.3253
 1836SOL    HW3 7418   2.776   0.821   3.029 -0.3748  0.2263  2.0101
 1836SOL    MW4 7419   2.703   0.867   3.018 -0.3080 -0.0266  0.2906
 1837SOL     OW 7420   2.696   1.121   3.119  0.3119  0.2963  0.1593
 1837SOL    HW2 7421   2.765   1.175   3.080 -0.2043  0.7844 -0.0688
 1837SOL    HW3 7422   2.614   1.164   3.095 -0.1011 -0.5831 -0.0140
 1837SOL    MW4 7423   2.695   1.134   3.111  0.1891  0.2447  0.1063
 1838SOL     OW 7424   2.919   1.285   3.023 -0.1365 -0.3484 -0.0480
 1838SOL    HW2 7425   3.001   1.251   3.061 -0.4255 -0.5034  0.4491
 1838SOL    HW3 7426   2.905   1.369   3.068 -0.4371 -0.4917  0.1259
 1838SOL    MW4 7427   2.928   1.292   3.034 -0.2141 -0.3878  0.0405
 1839SOL     OW 7428   2.925   1.537   3.142  0.1086  0.0125 -0.0338
 1839SOL    HW2 7429   2.924   1.544   3.237  0.2118 -1.6642  0.1049
 1839SOL    HW3 7430   3.002   1.586   3.114 -0.2328  0.9718  0.6998
 1839SOL    MW4 7431   2.935   1.544   3.151  0.0772 -0.0821  0.0813
 1840SOL     OW 7432   2.704   1.689   3.040 -0.1484 -0.0652 -0.3482
 1840SOL    HW2 7433   2.782   1.638   3.065  0.7758  1.5821  0.2219
 1840SOL    HW3 7434   2.631   1.642   3.080  0.6241 -1.2635 -0.3265
 1840SOL    MW4 7435   2.705   1.676   3.049  0.0756 -0.0060 -0.2701
 1841SOL     OW 7436   2.664   1.970   3.097  0.2991 -0.5516  0.3398
 1841SOL    HW2 7437   2.737   2.018   3.057 -0.5849 -0.3071 -1.0382
 1841SOL    HW3 7438   2.680   1.879   3.071  0.2024 -0.5202  0.1676
 1841SOL    MW4 7439   2.676   1.964   3.088  0.1698 -0.5153  0.1349
 1842SOL     OW 7440   2.902   2.115   2.996 -0.1274 -0.2952  0.2532
 1842SOL    HW2 7441   2.894   2.192   3.053  0.1036 -0.2781  0.2669
 1842SOL    HW3 7442   2.968   2.061   3.039  0.5195  0.0174 -0.3276
 1842SOL    MW4 7443   2.910   2.118   3.009 -0.0117 -0.2518  0.1786
 1843SOL     OW 7444   2.907   2.353   3.130 -0.2802 -0.1623 -0.1425
 1843SOL    HW2 7445   2.994   2.375   3.096 -0.0625 -0.0553  0.4758
 1843SOL    HW3 7446   2.846   2.406   3.078  0.2288  1.9249  1.3280
 1843SOL    MW4 7447   2.911   2.363   3.119 -0.1843  0.1273  0.1330
 1844SOL     OW 7448   2.710   2.491   2.987  0.5072  0.2087 -0.3128
 1844SOL    HW2 7449   2.712   2.578   3.027 -0.4859 -0.0840  0.3958
 1844SOL    HW3 7450   2.632   2.450   3.025  0.7354 -0.8272 -0.9761
 1844SOL    MW4 7451   2.700   2.497   2.998  0.4063  0.0336 -0.3068
 1845SOL     OW 7452   2.699   2.723   3.111 -0.3009  0.0680 -0.5530
 1845SOL    HW2 7453   2.684   2.713   3.205  0.8250  1.1245 -0.2560
 1845SOL    HW3 7454   2.612   2.743   3.075 -1.1894 -2.6606 -0.0894
 1845SOL    MW4 7455   2.685   2.724   3.119 -0.2697 -0.1526 -0.4525
 1846SOL     OW 7456   2.952   2.829   3.011  0.3027 -0.1451  0.1098
 1846SOL    HW2 7457   3.023   2.786   3.058  0.3160 -1.4502 -1.0567
 1846SOL    HW3 7458   2.873   2.784   3.040  0.3717 -1.3779 -1.5297
 1846SOL    MW4 7459   2.951   2.817   3.021  0.3135 -0.4804 -0.2606
 1847SOL     OW 7460   2.925   3.102   3.111 -0.6682  0.1898 -0.2787
 1847SOL    HW2 7461   2.920   3.067   3.200  0.2742  0.7423 -0.0057
 1847SOL    HW3 7462   2.932   3.024   3.055 -1.1825 -0.1533  0.1267
 1847SOL    MW4 7463   2.925   3.087   3.115 -0.6118  0.2177 -0.1891
 1848SOL     OW 7464   2.717   3.244   2.978 -0.2750  0.7606  0.0223
 1848SOL    HW2 7465   2.696   3.333   3.009 -0.8086  0.5784  0.1841
 1848SOL    HW3 7466   2.783   3.213   3.039  0.3039  1.2455 -0.3452
 1848SOL    MW4 7467   2.723   3.252   2.990 -0.2692  0.8004 -0.0048
 1849SOL     OW 7468   2.702   3.500   3.082  0.1101 -0.3463  0.5267
 1849SOL    HW2 7469   2.703   3.502   3.178 -0.7448 -1.5369  0.5670
 1849SOL    HW3 7470   2.782   3.547   3.057 -0.4480  1.3697  1.7891
 1849SOL    MW4 7471   2.713   3.507   3.092 -0.0763 -0.2770  0.6986
 1850SOL     OW 7472   2.955   3.610   2.977  0.2003  0.3574  0.5833
 1850SOL    HW2 7473   3.032   3.571   3.018  0.8747  0.1098 -0.9004
 1850SOL    HW3 7474   2.951   3.698   3.012  0.4583 -0.0249  1.5889
 1850SOL    MW4 7475   2.965   3.616   2.987  0.3233  0.2742  0.5202
 1851SOL     OW 7476   2.902   3.863   3.094  0.5041 -0.0680 -0.4935
 1851SOL    HW2 7477   2.912   3.885   3.187  0.5460  3.2464 -1.2030
 1851SOL    HW3 7478   2.817   3.900   3.070  0.1497 -1.5735 -1.6320
 1851SOL    MW4 7479   2.892   3.871   3.103  0.4628  0.1707 -0.7372
 1852SOL     OW 7480   2.694   4.020   3.013 -0.2482  0.1769  0.5911
 1852SOL    HW2 7481   2.686   4.110   3.046  0.0911 -0.1126  1.4695
 1852SOL    HW3 7482   2.698   4.030   2.918 -0.8873  1.0478  0.6435
 1852SOL    MW4 7483   2.693   4.033   3.005 -0.2878  0.2537  0.7136
 1853SOL     OW 7484   2.676   4.268   3.140 -0.1774  0.0144 -0.0200
 1853SOL    HW2 7485   2.669   4.269   3.235 -0.3118  2.5291 -0.0196
 1853SOL    HW3 7486   2.596   4.311   3.110  0.6628  0.7944 -1.1913
 1853SOL    MW4 7487   2.664   4.273   3.148 -0.0842  0.4487 -0.1745
 1854SOL     OW 7488   2.931   4.376   3.051 -0.5410  0.2404  0.0367
 1854SOL    HW2 7489   3.009   4.334   3.086 -1.0489  0.5708  1.5721
 1854SOL    HW3 7490   2.858   4.325   3.087 -1.0315 -0.3510 -1.7467
 1854SOL    MW4 7491   2.931   4.363   3.060 -0.6728  0.2060  0.0041
 1855SOL     OW 7492   3.371   4.629   3.163  0.0059 -0.2487 -0.1132
 1855SOL    HW2 7493   3.424   4.681   3.103  0.4065  0.0264  0.4732
 1855SOL    HW3 7494   3.385   4.539   3.135 -0.5967 -0.0514 -1.0612
 1855SOL    MW4 7495   3.380   4.624   3.151 -0.0207 -0.1860 -0.1607
 1856SOL     OW 7496   3.131   0.083   3.057 -0.1566  0.3707 -0.3676
 1856SOL    HW2 7497   3.196   0.045   3.116 -1.6766 -0.1210  1.0230
 1856SOL    HW3 7498   3.047   0.050   3.089 -0.9761 -0.6480 -3.3173
 1856SOL    MW4 7499   3.129   0.073   3.069 -0.4654  0.1714 -0.5734
 1857SOL     OW 7500   3.144   0.357   3.135  0.3840  0.4503 -0.6012
 1857SOL    HW2 7501   3.216   0.409   3.098  0.3283  0.4488 -0.7115
 1857SOL    HW3 7502   3.151   0.272   3.092 -0.4165  0.8279 -1.5114
 1857SOL    MW4 7503   3.155   0.353   3.124  0.2711  0.4999 -0.7360
 1858SOL     OW 7504   3.332   0.497   3.012  0.0317 -0.2503 -0.6150
 1858SOL    HW2 7505   3.407   0.438   3.021  0.3675  0.2878  0.1532
 1858SOL    HW3 7506   3.322   0.508   2.918 -0.3927 -1.9811 -0.7893
 1858SOL    MW4 7507   3.341   0.491   3.001  0.0200 -0.4077 -0.5364
 1859SOL     OW 7508   3.352   0.760   3.139  0.2750 -0.1586  0.1329
 1859SOL    HW2 7509   3.358   0.766   3.234 -1.5981  0.0431  0.2466
 1859SOL    HW3 7510   3.373   0.669   3.119  2.9677  0.3399  0.5259
 1859SOL    MW4 7511   3.356   0.749   3.149  0.3834 -0.0662  0.1996
 1860SOL     OW 7512   3.133   0.912   3.058 -0.0423 -0.0232  0.5401
 1860SOL    HW2 7513   3.200   0.844   3.063 -0.6293 -0.6991 -0.5270
 1860SOL    HW3 7514   3.050   0.865   3.060 -0.4455  0.3965 -3.0123
 1860SOL    MW4 7515   3.131   0.897   3.059 -0.1729 -0.0570 -0.0694
 1861SOL     OW 7516   3.147   1.188   3.151 -0.4997  0.1687  0.0832
 1861SOL    HW2 7517   3.215   1.236   3.104 -0.9469  1.8217  1.0819
 1861SOL    HW3 7518   3.155   1.098   3.120  1.3131  0.5993 -0.7462
 1861SOL    MW4 7519   3.157   1.182   3.141 -0.3197  0.4435  0.1056
 1862SOL     OW 7520   3.363   1.296   3.008 -0.1037  0.2099  0.0727
 1862SOL    HW2 7521   3.430   1.245   3.053 -0.9141 -0.1411  0.8953
 1862SOL    HW3 7522   3.356   1.377   3.057 -0.3401  0.2139  0.0348
 1862SOL    MW4 7523   3.371   1.300   3.020 -0.2418  0.1642  0.1762
 1863SOL     OW 7524   3.352   1.541   3.134  0.0983  0.6250 -0.0505
 1863SOL    HW2 7525   3.340   1.540   3.229  0.5781  0.5202  0.0080
 1863SOL    HW3 7526   3.440   1.576   3.121  0.8175 -1.2605 -0.3793
 1863SOL    MW4 7527   3.362   1.546   3.145  0.2565  0.3625 -0.0863
 1864SOL     OW 7528   3.138   1.674   3.023  0.0188 -0.1002 -0.2868
 1864SOL    HW2 7529   3.210   1.638   3.075 -0.0023  0.4523  0.1219
 1864SOL    HW3 7530   3.161   1.652   2.933  0.0250 -1.1201 -0.0458
 1864SOL    MW4 7531   3.151   1.666   3.018  0.0167 -0.1618 -0.2010
 1865SOL     OW 7532   3.096   1.938   3.099 -0.0009  0.4062  0.2413
 1865SOL    HW2 7533   3.118   1.931   3.192  1.9040  1.1907 -0.1136
 1865SOL    HW3 7534   3.117   1.851   3.063  1.0768  0.6642  0.2135
 1865SOL    MW4 7535   3.102   1.926   3.107  0.3927  0.5437  0.1905
 1866SOL     OW 7536   3.305   2.096   3.027 -0.9138 -0.1942 -0.3395
 1866SOL    HW2 7537   3.382   2.046   3.055 -1.1215 -1.2926 -1.6560
 1866SOL    HW3 7538   3.230   2.045   3.056 -1.1409  0.1601 -0.2943
 1866SOL    MW4 7539   3.305   2.083   3.034 -0.9713 -0.2923 -0.5071
 1867SOL     OW 7540   3.402   2.340   3.130  0.1105 -0.4312  0.1566
 1867SOL    HW2 7541   3.392   2.330   3.225  0.4199 -2.6829 -0.0059
 1867SOL    HW3 7542   3.366   2.259   3.094  0.7411  0.0512 -1.5971
 1867SOL    MW4 7543   3.396   2.328   3.138  0.2346 -0.6645 -0.0963
 1868SOL     OW 7544   3.149   2.410   3.037  0.5467 -0.0968  0.2873
 1868SOL    HW2 7545   3.237   2.382   3.062  1.2949  2.3928  0.6103
 1868SOL    HW3 7546   3.151   2.415   2.942  0.7262 -0.1371  0.2894
 1868SOL    MW4 7547   3.161   2.407   3.028  0.6692  0.2263  0.3302
 1869SOL     OW 7548   3.174   2.686   3.128  0.3214  0.7211 -0.4233
 1869SOL    HW2 7549   3.167   2.667   3.222 -0.2762  0.8334 -0.4409
 1869SOL    HW3 7550   3.175   2.601   3.086  2.2685  0.6240 -0.2123
 1869SOL    MW4 7551   3.173   2.673   3.135  0.4995  0.7231 -0.3977
 1870SOL     OW 7552   3.394   2.806   3.007  0.0947 -0.1109  0.8347
 1870SOL    HW2 7553   3.385   2.893   3.047  0.1973 -0.3975  1.4927
 1870SOL    HW3 7554   3.326   2.753   3.050 -0.8739 -0.0221 -0.5286
 1870SOL    MW4 7555   3.384   2.811   3.018 -0.0196 -0.1369  0.7417
 1871SOL     OW 7556   3.381   3.073   3.131  0.0957 -0.1209 -0.0239
 1871SOL    HW2 7557   3.365   3.099   3.222 -0.6389 -0.6021 -0.0139
 1871SOL    HW3 7558   3.315   3.120   3.080  1.1930  0.9841 -0.4329
 1871SOL    MW4 7559   3.370   3.082   3.137  0.1435 -0.0386 -0.0763
 1872SOL     OW 7560   3.163   3.212   3.011 -0.5056  0.0370  0.3286
 1872SOL    HW2 7561   3.084   3.169   3.040 -0.4879 -0.2111  0.0141
 1872SOL    HW3 7562   3.152   3.222   2.916 -0.4706  0.6354  0.3841
 1872SOL    MW4 7563   3.151   3.208   3.002 -0.4988  0.0834  0.2944
 1873SOL     OW 7564   3.181   3.484   3.071 -0.1040  0.0464 -0.3868
 1873SOL    HW2 7565   3.151   3.496   3.161 -0.7826 -1.4302 -0.4023
 1873SOL    HW3 7566   3.175   3.390   3.056  0.6600  0.1993 -1.7555
 1873SOL    MW4 7567   3.177   3.474   3.081 -0.0927 -0.1280 -0.5696
 1874SOL     OW 7568   3.404   3.636   3.000  0.2311 -0.6365 -0.7440
 1874SOL    HW2 7569   3.394   3.725   3.032 -0.7631 -0.7435 -0.7512
 1874SOL    HW3 7570   3.325   3.590   3.030  1.5886 -1.9933  0.8737
 1874SOL    MW4 7571   3.392   3.641   3.008  0.2789 -0.8295 -0.5317
 1875SOL     OW 7572   3.376   3.887   3.114  0.7616  0.1065 -0.2268
 1875SOL    HW2 7573   3.353   3.866   3.205  0.6650  0.9239 -0.0533
 1875SOL    HW3 7574   3.300   3.936   3.082  0.4784 -0.8192 -0.9866
 1875SOL    MW4 7575   3.363   3.891   3.122  0.7117  0.0923 -0.3040
 1876SOL     OW 7576   3.148   4.012   3.021 -0.0835 -0.1925 -0.1586
 1876SOL    HW2 7577   3.067   3.971   3.052  0.1199 -1.2159 -0.9466
 1876SOL    HW3 7578   3.143   4.006   2.925  1.4174 -1.2597 -0.1954
 1876SOL    MW4 7579   3.137   4.006   3.012  0.1414 -0.4683 -0.2673
 1877SOL     OW 7580   3.147   4.263   3.163 -0.2526 -0.3356 -0.4100
 1877SOL    HW2 7581   3.155   4.254   3.258 -3.4395  1.1920  0.0714
 1877SOL    HW3 7582   3.141   4.173   3.131 -1.9612 -0.8287  1.1666
 1877SOL    MW4 7583   3.147   4.250   3.172 -0.8986 -0.1988 -0.1383
 1878SOL     OW 7584   3.374   4.371   3.045  0.4998  0.5033  0.4097
 1878SOL    HW2 7585   3.439   4.310   3.079 -1.0489 -1.9471 -0.8925
 1878SOL    HW3 7586   3.290   4.336   3.073 -0.4502  1.9371 -0.5291
 1878SOL    MW4 7587   3.371   4.358   3.053  0.1700  0.3691  0.1142
 1879SOL     OW 7588   3.785   0.000   3.137  0.4247 -0.0984 -0.1685
 1879SOL    HW2 7589   3.809  -0.088   3.109  1.1673  0.3410 -0.9240
 1879SOL    HW3 7590   3.694   0.010   3.107  0.5499 -0.3720 -0.6547
 1879SOL    MW4 7591   3.776  -0.010   3.129  0.5393 -0.0768 -0.3321
 1880SOL     OW 7592   3.551   0.097   3.010 -0.2747  0.1770 -0.3433
 1880SOL    HW2 7593   3.581   0.186   3.030  0.4107 -0.1358  0.0507
 1880SOL    HW3 7594   3.546   0.094   2.915 -0.4234  0.6784 -0.3523
 1880SOL    MW4 7595   3.554   0.108   3.000 -0.2038  0.2019 -0.2925
 1881SOL     OW 7596   3.579   0.352   3.091  0.3273 -0.1507 -0.3485
 1881SOL    HW2 7597   3.558   0.354   3.184 -0.9794  2.6337 -0.6435
 1881SOL    HW3 7598   3.659   0.406   3.083 -0.9691  1.7235 -1.1014
 1881SOL    MW4 7599   3.587   0.360   3.102 -0.0160  0.4639 -0.4866
 1882SOL     OW 7600   3.779   0.507   2.999  0.1320  0.1702 -0.0562
 1882SOL    HW2 7601   3.863   0.466   3.017  0.3437  1.0480  0.9763
 1882SOL    HW3 7602   3.777   0.584   3.055 -0.3203  1.5153 -1.8721
 1882SOL    MW4 7603   3.789   0.512   3.008  0.1004  0.4635 -0.1597
 1883SOL     OW 7604   3.776   0.741   3.147  0.2305  0.0412 -0.1636
 1883SOL    HW2 7605   3.806   0.731   3.237 -0.9579 -1.7099  0.0798
 1883SOL    HW3 7606   3.855   0.759   3.096  1.1413 -0.6256  0.9993
 1883SOL    MW4 7607   3.790   0.742   3.152  0.1936 -0.2779  0.0219
 1884SOL     OW 7608   3.576   0.878   3.022 -0.0101 -0.2003 -0.1481
 1884SOL    HW2 7609   3.654   0.848   3.069  0.3464  1.1347  0.1513
 1884SOL    HW3 7610   3.506   0.819   3.051  0.1776  0.6487  2.1913
 1884SOL    MW4 7611   3.577   0.866   3.032  0.0618  0.0879  0.2000
 1885SOL     OW 7612   3.566   1.156   3.147 -0.4615 -0.1453  0.1998
 1885SOL    HW2 7613   3.646   1.186   3.104 -1.2207  0.0456 -1.1182
 1885SOL    HW3 7614   3.561   1.063   3.125 -0.9215 -0.0167 -0.2536
 1885SOL    MW4 7615   3.576   1.148   3.138 -0.6223 -0.1032 -0.0341
 1886SOL     OW 7616   3.782   1.280   3.009 -0.1005  0.0855  0.2221
 1886SOL    HW2 7617   3.791   1.370   3.041 -0.6593  0.1158  0.3008
 1886SOL    HW3 7618   3.776   1.288   2.914 -1.7012  0.2669  0.3210
 1886SOL    MW4 7619   3.782   1.293   3.001 -0.3858  0.1135  0.2456
 1887SOL     OW 7620   3.795   1.537   3.097  0.8328  0.2121 -0.0583
 1887SOL    HW2 7621   3.812   1.563   3.188 -0.2511 -1.7244  0.7040
 1887SOL    HW3 7622   3.720   1.590   3.071  1.1021  0.7209  0.1825
 1887SOL    MW4 7623   3.788   1.548   3.106  0.7250  0.0237  0.0739
 1888SOL     OW 7624   3.563   1.677   3.022 -0.0846  0.4471  0.2031
 1888SOL    HW2 7625   3.550   1.769   3.043 -0.4287  0.3945  0.2272
 1888SOL    HW3 7626   3.584   1.676   2.929 -2.7857  0.3334 -0.4526
 1888SOL    MW4 7627   3.564   1.689   3.013 -0.4866  0.4251  0.1199
 1889SOL     OW 7628   3.549   1.960   3.082  0.2833 -0.2326  0.1725
 1889SOL    HW2 7629   3.570   1.938   3.172  0.6937  0.9392  0.3803
 1889SOL    HW3 7630   3.630   1.996   3.047  0.0884 -0.5611 -0.6274
 1889SOL    MW4 7631   3.563   1.962   3.089  0.3116 -0.1214  0.0944
 1890SOL     OW 7632   3.813   2.056   2.970  0.1558 -0.1958  0.3460
 1890SOL    HW2 7633   3.813   2.142   3.011 -0.7268 -0.7898  1.6439
 1890SOL    HW3 7634   3.817   2.074   2.876  0.6399  1.2337  0.6297
 1890SOL    MW4 7635   3.813   2.070   2.963  0.1032 -0.0856  0.5548
 1891SOL     OW 7636   3.837   2.308   3.078 -0.2750  0.0262 -0.0537
 1891SOL    HW2 7637   3.835   2.320   3.173  0.6511  0.7599 -0.1261
 1891SOL    HW3 7638   3.755   2.347   3.048  0.1135  1.1384  0.2975
 1891SOL    MW4 7639   3.826   2.315   3.086 -0.1016  0.2697 -0.0169
 1892SOL     OW 7640   3.614   2.415   2.979  0.1632 -0.1185 -0.2232
 1892SOL    HW2 7641   3.602   2.500   3.022  0.6338 -0.2400  0.1594
 1892SOL    HW3 7642   3.541   2.362   3.012  0.0635  0.0327 -0.1974
 1892SOL    MW4 7643   3.603   2.419   2.989  0.2120 -0.1147 -0.1693
 1893SOL     OW 7644   3.620   2.683   3.089 -0.0542 -0.0426 -0.4693
 1893SOL    HW2 7645   3.696   2.734   3.064 -0.5180  0.5871 -0.5976
 1893SOL    HW3 7646   3.545   2.732   3.055 -0.5381 -0.4700 -0.0341
 1893SOL    MW4 7647   3.620   2.696   3.081 -0.1791 -0.0157 -0.4289
 1894SOL     OW 7648   3.831   2.816   2.986 -0.1540 -0.0556 -0.1847
 1894SOL    HW2 7649   3.827   2.912   2.989  0.3793 -0.0540  0.8016
 1894SOL    HW3 7650   3.823   2.794   2.894 -0.5090  0.9348 -0.3946
 1894SOL    MW4 7651   3.829   2.826   2.974 -0.1307  0.0753 -0.0823
 1895SOL     OW 7652   3.824   3.086   3.037 -0.2119  0.1543  0.0585
 1895SOL    HW2 7653   3.901   3.136   3.009 -1.1118  1.4362 -0.1371
 1895SOL    HW3 7654   3.836   3.074   3.131 -0.4616  1.5427  0.2663
 1895SOL    MW4 7655   3.836   3.091   3.046 -0.3636  0.5069  0.0598
 1896SOL     OW 7656   3.590   3.224   3.049 -0.0220  0.0767 -0.1900
 1896SOL    HW2 7657   3.521   3.164   3.077 -1.1035  1.4262  0.1080
 1896SOL    HW3 7658   3.670   3.172   3.052 -0.5602 -0.6929  2.4059
 1896SOL    MW4 7659   3.591   3.209   3.053 -0.2358  0.1533  0.1919
 1897SOL     OW 7660   3.619   3.491   3.103 -0.2391 -0.4719  0.2254
 1897SOL    HW2 7661   3.539   3.529   3.066  0.0109 -0.8710 -0.7507
 1897SOL    HW3 7662   3.617   3.400   3.075  0.4758 -0.5276  0.3403
 1897SOL    MW4 7663   3.608   3.484   3.094 -0.1118 -0.5319  0.1118
 1898SOL     OW 7664   3.839   3.613   2.991  0.3148  0.1176 -0.5543
 1898SOL    HW2 7665   3.837   3.704   3.022  1.7585 -0.3589  1.0319
 1898SOL    HW3 7666   3.765   3.571   3.036  0.8719  0.0421  0.3150
 1898SOL    MW4 7667   3.829   3.619   3.001  0.5786  0.0448 -0.2303
 1899SOL     OW 7668   3.817   3.871   3.074 -0.1631 -0.5456  0.0863
 1899SOL    HW2 7669   3.795   3.864   3.167  1.5835  0.4049  0.6044
 1899SOL    HW3 7670   3.744   3.918   3.035 -1.5316 -2.1149  0.7199
 1899SOL    MW4 7671   3.805   3.876   3.081 -0.1130 -0.6275  0.2382
 1900SOL     OW 7672   3.598   4.014   2.992 -0.7429 -0.1005  0.0558
 1900SOL    HW2 7673   3.527   3.957   3.022  0.4448 -0.8717  1.4283
 1900SOL    HW3 7674   3.586   4.019   2.897 -1.6636 -1.5392  0.0917
 1900SOL    MW4 7675   3.587   4.007   2.983 -0.7076 -0.3924  0.2418
 1901SOL     OW 7676   3.589   4.248   3.160  0.0623  0.0531 -0.1666
 1901SOL    HW2 7677   3.667   4.301   3.143  0.4594 -0.5249 -0.1456
 1901SOL    HW3 7678   3.599   4.171   3.104 -0.4560 -0.0588 -0.1068
 1901SOL    MW4 7679   3.601   4.245   3.150  0.0465 -0.0377 -0.1559
 1902SOL     OW 7680   3.816   4.387   3.062  0.3204 -0.1519 -0.2846
 1902SOL    HW2 7681   3.885   4.321   3.075  0.7679  0.2330 -0.6559
 1902SOL    HW3 7682   3.820   4.407   2.969 -0.5280 -0.3697 -0.3685
 1902SOL    MW4 7683   3.826   4.381   3.051  0.2675 -0.1297 -0.3445
 1903SOL     OW 7684   4.230   4.658   3.076  0.3586  0.2161  0.0516
 1903SOL    HW2 7685   4.262   4.651   3.166 -1.3430  0.3754  0.6888
 1903SOL    HW3 7686   4.215   4.568   3.049 -0.6668  0.2422  0.5094
 1903SOL    MW4 7687   4.233   4.645   3.085 -0.0014  0.2403  0.1965
 1904SOL     OW 7688   3.985   0.112   2.982 -0.1891  0.3088 -0.1017
 1904SOL    HW2 7689   4.060   0.067   3.021 -0.0563  0.2385 -0.4325
 1904SOL    HW3 7690   3.910   0.083   3.034 -0.1163 -0.3726 -0.3632
 1904SOL    MW4 7691   3.985   0.102   2.994 -0.1621  0.2096 -0.1798
 1905SOL     OW 7692   4.012   0.372   3.058  0.0409  0.1247  0.4468
 1905SOL    HW2 7693   4.098   0.404   3.030  0.5973  0.1574  2.1206
 1905SOL    HW3 7694   4.006   0.283   3.021 -0.1213  0.9008 -1.4456
 1905SOL    MW4 7695   4.023   0.364   3.049  0.0925  0.2314  0.4179
 1906SOL     OW 7696   4.250   0.497   2.999 -0.3871  0.0076  0.2144
 1906SOL    HW2 7697   4.251   0.581   3.045  0.3000  0.2660 -0.2707
 1906SOL    HW3 7698   4.244   0.521   2.907  0.9250 -0.4537  0.0054
 1906SOL    MW4 7699   4.249   0.511   2.993 -0.1235 -0.0191  0.1228
 1907SOL     OW 7700   4.230   0.761   3.124 -0.4983 -0.0660 -0.0334
 1907SOL    HW2 7701   4.161   0.808   3.078  0.3398  0.0786 -1.1587
 1907SOL    HW3 7702   4.311   0.798   3.090  0.1431 -0.7756  0.7085
 1907SOL    MW4 7703   4.231   0.772   3.113 -0.3033 -0.1407 -0.0837
 1908SOL     OW 7704   3.997   0.856   3.012 -0.0392  0.1364 -0.0233
 1908SOL    HW2 7705   3.993   0.945   3.046 -2.3521 -0.2973  0.9073
 1908SOL    HW3 7706   4.003   0.866   2.917 -0.0867  1.2619  0.0893
 1908SOL    MW4 7707   3.998   0.869   3.004 -0.3507  0.2276  0.1142
 1909SOL     OW 7708   3.983   1.112   3.120  0.6202 -0.1042  0.1381
 1909SOL    HW2 7709   3.974   1.116   3.215  1.5905 -0.0751  0.2297
 1909SOL    HW3 7710   3.915   1.172   3.087  1.3209  1.0952  0.8531
 1909SOL    MW4 7711   3.973   1.120   3.128  0.8407  0.0579  0.2446
 1910SOL     OW 7712   4.207   1.251   3.021 -0.0607  0.4730  0.3300
 1910SOL    HW2 7713   4.136   1.197   3.055  0.8503 -1.0192 -0.0783
 1910SOL    HW3 7714   4.194   1.251   2.926  2.3011 -2.5103 -0.0558
 1910SOL    MW4 7715   4.196   1.244   3.013  0.3710 -0.1174  0.2251
 1911SOL     OW 7716   4.250   1.520   3.077 -0.2771  0.1975 -0.1110
 1911SOL    HW2 7717   4.160   1.548   3.058 -0.4844 -0.9864 -0.9025
 1911SOL    HW3 7718   4.246   1.425   3.076  0.7304  0.1392  1.1157
 1911SOL    MW4 7719   4.238   1.511   3.074 -0.1721  0.0336 -0.0534
 1912SOL     OW 7720   4.016   1.663   2.959 -0.2576  0.4190 -0.2079
 1912SOL    HW2 7721   4.032   1.744   3.008  3.1022 -1.4259  1.9889
 1912SOL    HW3 7722   3.940   1.624   3.002  0.9996  0.1572  1.8531
 1912SOL    MW4 7723   4.008   1.668   2.971  0.3514  0.1411  0.3541
 1913SOL     OW 7724   4.016   1.904   3.085 -0.0864 -0.9901  0.0382
 1913SOL    HW2 7725   4.102   1.936   3.056 -0.2200  1.0805  1.7885
 1913SOL    HW3 7726   3.953   1.960   3.040 -0.4975 -1.7406 -0.3348
 1913SOL    MW4 7727   4.019   1.915   3.075 -0.1583 -0.8160  0.2201
 1914SOL     OW 7728   4.272   2.021   3.012 -0.3071  0.0718  0.3171
 1914SOL    HW2 7729   4.289   2.105   3.054  0.1952  0.4376 -0.5853
 1914SOL    HW3 7730   4.276   2.040   2.918  0.7079 -1.1272  0.0983
 1914SOL    MW4 7731   4.275   2.035   3.005 -0.1068 -0.0381  0.1693
 1915SOL     OW 7732   4.296   2.291   3.086 -0.3077 -0.1441 -0.3229
 1915SOL    HW2 7733   4.217   2.328   3.046 -0.6331 -0.7608 -0.2613
 1915SOL    HW3 7734   4.368   2.342   3.048 -0.7236  0.2954 -0.5240
 1915SOL    MW4 7735   4.295   2.302   3.075 -0.4058 -0.1676 -0.3414
 1916SOL     OW 7736   4.075   2.417   2.986 -0.2021  0.1364  0.0344
 1916SOL    HW2 7737   4.077   2.506   3.020 -0.0844 -0.5467  1.8645
 1916SOL    HW3 7738   3.989   2.383   3.013  0.0733 -0.5668  0.0283
 1916SOL    MW4 7739   4.064   2.424   2.994 -0.1502 -0.0467  0.2751
 1917SOL     OW 7740   4.056   2.666   3.077 -0.1012  0.6866  0.2680
 1917SOL    HW2 7741   4.058   2.676   3.172  0.5712  1.7276  0.1494
 1917SOL    HW3 7742   3.977   2.714   3.049 -1.1791 -0.9317  0.4320
 1917SOL    MW4 7743   4.046   2.673   3.086 -0.1550  0.6104  0.2739
 1918SOL     OW 7744   4.250   2.825   2.995 -0.3787 -0.6844 -0.1408
 1918SOL    HW2 7745   4.180   2.767   3.026  1.0833 -1.0380  2.6382
 1918SOL    HW3 7746   4.328   2.796   3.042  0.6852  2.5929  0.2452
 1918SOL    MW4 7747   4.251   2.814   3.005 -0.0453 -0.2987  0.2768
 1919SOL     OW 7748   4.275   3.094   3.129 -0.2191  0.5957 -0.0549
 1919SOL    HW2 7749   4.191   3.137   3.109 -0.7973  0.3477  1.7343
 1919SOL    HW3 7750   4.267   3.007   3.091 -0.4106  0.8857 -0.6874
 1919SOL    MW4 7751   4.263   3.088   3.121 -0.3204  0.6011  0.0978
 1920SOL     OW 7752   4.049   3.218   3.005  0.4022  0.3271 -0.4359
 1920SOL    HW2 7753   4.054   3.310   3.029 -0.8389  0.3164 -0.0712
 1920SOL    HW3 7754   4.056   3.217   2.910  0.6456  0.7867 -0.4210
 1920SOL    MW4 7755   4.050   3.230   2.996  0.2708  0.3865 -0.3858
 1921SOL     OW 7756   4.074   3.473   3.052 -0.4306 -0.6555 -0.0050
 1921SOL    HW2 7757   4.055   3.469   3.146  0.3772  0.9868  0.2531
 1921SOL    HW3 7758   3.998   3.516   3.014 -0.9466 -1.7070 -0.1648
 1921SOL    MW4 7759   4.062   3.478   3.059 -0.3920 -0.5779  0.0081
 1922SOL     OW 7760   4.297   3.618   2.979  0.4130  0.0121  0.2299
 1922SOL    HW2 7761   4.281   3.706   3.013 -0.5478  0.3161 -0.9794
 1922SOL    HW3 7762   4.219   3.568   3.003 -1.0354  0.6739 -2.9375
 1922SOL    MW4 7763   4.285   3.623   2.987  0.0954  0.1395 -0.3474
 1923SOL     OW 7764   4.255   3.867   3.132  0.1227  0.5436  0.2966
 1923SOL    HW2 7765   4.188   3.909   3.078  1.8573  1.1564 -1.4049
 1923SOL    HW3 7766   4.335   3.918   3.116  1.4969 -1.4351  0.6895
 1923SOL    MW4 7767   4.257   3.879   3.123  0.5326  0.3633  0.1237
 1924SOL     OW 7768   4.061   3.979   2.988 -0.3600 -0.0237  0.0607
 1924SOL    HW2 7769   4.037   4.069   3.010 -1.3431 -0.3340  0.2796
 1924SOL    HW3 7770   3.982   3.928   3.004  0.1944 -0.9364 -0.0361
 1924SOL    MW4 7771   4.047   3.984   2.993 -0.4168 -0.1848  0.0770
 1925SOL     OW 7772   4.027   4.231   3.087  0.0849  0.0856 -0.2675
 1925SOL    HW2 7773   4.034   4.220   3.182 -0.6244  0.4185 -0.1747
 1925SOL    HW3 7774   4.101   4.287   3.064 -0.3505  0.8825  0.2458
 1925SOL    MW4 7775   4.038   4.237   3.096 -0.0663  0.2346 -0.1876
 1926SOL     OW 7776   4.246   4.388   3.003 -0.3084 -0.1872 -0.4315
 1926SOL    HW2 7777   4.329   4.356   3.039 -0.2060  1.1587  0.5579
 1926SOL    HW3 7778   4.257   4.381   2.908 -0.0938 -2.5731 -0.2661
 1926SOL    MW4 7779   4.259   4.382   2.995 -0.2666 -0.3242 -0.2787
 1927SOL     OW 7780   0.184   4.642   3.368  0.1709 -0.2936 -0.2074
 1927SOL    HW2 7781   0.262   4.684   3.405 -0.2796  0.1349  0.2617
 1927SOL    HW3 7782   0.194   4.549   3.392 -0.3439  0.0441  1.4191
 1927SOL    MW4 7783   0.196   4.635   3.376  0.0436 -0.1926  0.0691
 1928SOL     OW 7784   4.474   0.101   3.497  0.0820 -0.5232 -0.1045
 1928SOL    HW2 7785   4.460   0.184   3.452  0.5519  0.0933  0.8758
 1928SOL    HW3 7786   4.554   0.066   3.457  0.9870  0.4328  0.8138
 1928SOL    MW4 7787   4.483   0.107   3.486  0.2632 -0.3157  0.1462
 1929SOL     OW 7788   4.472   0.352   3.401 -1.0016  0.5802 -0.0018
 1929SOL    HW2 7789   4.392   0.395   3.432 -1.4117 -0.5600  0.5578
 1929SOL    HW3 7790   4.542   0.392   3.452 -1.3401  0.8116  0.2846
 1929SOL    MW4 7791   4.471   0.363   3.412 -1.1005  0.4603  0.1101
 1930SOL     OW 7792   0.206   0.495   3.505 -0.1770 -0.4561 -0.2312
 1930SOL    HW2 7793   0.282   0.450   3.468  0.9560  0.2542  1.1981
 1930SOL    HW3 7794   0.204   0.579   3.459  1.5943  0.6787  1.6766
 1930SOL    MW4 7795   0.216   0.500   3.494  0.2062 -0.2127  0.2093
 1931SOL     OW 7796   0.209   0.740   3.374 -0.2009  0.3808 -0.6561
 1931SOL    HW2 7797   0.272   0.784   3.431 -0.4666 -0.8628  0.6156
 1931SOL    HW3 7798   0.123   0.762   3.410 -0.3002 -2.3859  0.9517
 1931SOL    MW4 7799   0.206   0.748   3.386 -0.2490 -0.1483 -0.2763
 1932SOL     OW 7800   4.465   0.850   3.486  0.1803 -0.0525 -0.1894
 1932SOL    HW2 7801   4.450   0.843   3.581  1.1226  1.3826  0.0799
 1932SOL    HW3 7802   4.491   0.941   3.473 -0.4909 -0.1014 -1.9219
 1932SOL    MW4 7803   4.467   0.861   3.497  0.2160  0.1305 -0.3824
 1933SOL     OW 7804   0.003   1.108   3.417  0.1559 -0.1515 -0.1513
 1933SOL    HW2 7805   0.072   1.171   3.436 -1.5527  1.6206  0.2842
 1933SOL    HW3 7806  -0.011   1.115   3.323  0.6170 -0.5612 -0.2504
 1933SOL    MW4 7807   0.010   1.117   3.407 -0.0091  0.0284 -0.1070
 1934SOL     OW 7808   0.198   1.307   3.495 -0.2474 -0.0622  0.1276
 1934SOL    HW2 7809   0.280   1.262   3.474  0.4835  0.5814  1.5347
 1934SOL    HW3 7810   0.212   1.397   3.466 -0.7366 -0.1266 -0.3096
 1934SOL    MW4 7811   0.211   1.313   3.488 -0.2155  0.0142  0.2558
 1935SOL     OW 7812   0.213   1.566   3.389 -0.1195 -0.6418 -0.4059
 1935SOL    HW2 7813   0.298   1.604   3.410  0.1977 -1.1103 -0.8237
 1935SOL    HW3 7814   0.213   1.556   3.294 -0.5029 -0.9657 -0.3788
 1935SOL    MW4 7815   0.224   1.570   3.379 -0.1283 -0.7463 -0.4573
 1936SOL     OW 7816   4.461   1.673   3.482 -0.4925 -0.6622  0.2027
 1936SOL    HW2 7817   4.396   1.610   3.452 -1.4276  0.4522 -0.1581
 1936SOL    HW3 7818   4.545   1.640   3.449 -1.3534 -0.0439 -2.7418
 1936SOL    MW4 7819   4.464   1.660   3.474 -0.7300 -0.4336 -0.2334
 1937SOL     OW 7820   4.459   1.927   3.394 -0.0777 -0.0867 -0.0028
 1937SOL    HW2 7821   4.465   1.847   3.446  0.0310 -0.3532 -0.4210
 1937SOL    HW3 7822   4.454   1.897   3.303 -1.3164  0.3372 -0.0885
 1937SOL    MW4 7823   4.459   1.913   3.389 -0.2268 -0.0659 -0.0696
 1938SOL     OW 7824   0.200   2.052   3.468 -0.6045  0.0951  0.7554
 1938SOL    HW2 7825   0.186   2.056   3.562 -2.1042  0.7472  0.5252
 1938SOL    HW3 7826   0.121   2.012   3.433  0.0272 -0.3349 -0.2127
 1938SOL    MW4 7827   0.188   2.047   3.475 -0.7190  0.1245  0.5972
 1939SOL     OW 7828   0.264   2.314   3.377  0.1869  0.1561  0.1808
 1939SOL    HW2 7829   0.186   2.369   3.382  1.0799  1.3387  1.2858
 1939SOL    HW3 7830   0.236   2.230   3.415 -0.4435  0.6970  0.9419
 1939SOL    MW4 7831   0.250   2.310   3.383  0.2215  0.3834  0.4270
 1940SOL     OW 7832   0.047   2.444   3.465 -0.2734 -0.1873 -0.1002
 1940SOL    HW2 7833   0.049   2.418   3.557 -0.1299 -0.0191 -0.0547
 1940SOL    HW3 7834  -0.039   2.415   3.433  0.3437 -1.7710 -0.3642
 1940SOL    MW4 7835   0.036   2.437   3.473 -0.1730 -0.3741 -0.1290
 1941SOL     OW 7836   4.485   2.716   3.414  0.1103 -0.4425  0.3282
 1941SOL    HW2 7837   4.555   2.773   3.447 -0.2383 -1.1629  2.3993
 1941SOL    HW3 7838   4.503   2.630   3.452 -0.7870 -1.1201 -0.7284
 1941SOL    MW4 7839   4.496   2.712   3.423 -0.0544 -0.6270  0.4621
 1942SOL     OW 7840   0.231   2.863   3.504  0.7948  0.1801  0.6648
 1942SOL    HW2 7841   0.306   2.819   3.464  1.5542  1.4601  0.6412
 1942SOL    HW3 7842   0.240   2.955   3.479 -2.7764 -0.1767 -2.3398
 1942SOL    MW4 7843   0.242   2.869   3.496  0.4238  0.3021  0.2656
 1943SOL     OW 7844   0.240   3.135   3.422  0.0860 -0.0760  0.2712
 1943SOL    HW2 7845   0.174   3.180   3.475  0.9153  0.7480  0.6176
 1943SOL    HW3 7846   0.201   3.131   3.335 -0.7517 -0.3011  0.6403
 1943SOL    MW4 7847   0.226   3.141   3.418  0.0849  0.0031  0.3655
 1944SOL     OW 7848   0.001   3.260   3.538 -0.0382  0.2552 -0.0739
 1944SOL    HW2 7849  -0.059   3.199   3.495  0.0946 -0.4285  0.7023
 1944SOL    HW3 7850  -0.018   3.345   3.498 -0.1279 -0.3153 -1.2636
 1944SOL    MW4 7851  -0.009   3.264   3.527 -0.0326  0.0896 -0.1283
 1945SOL     OW 7852   4.465   3.493   3.400 -0.2373 -0.0492 -0.0998
 1945SOL    HW2 7853   4.382   3.534   3.422  0.0778  0.3897  0.2702
 1945SOL    HW3 7854   4.467   3.492   3.304 -0.7027 -0.1338 -0.1065
 1945SOL    MW4 7855   4.455   3.498   3.390 -0.2575 -0.0026 -0.0522
 1946SOL     OW 7856   0.241   3.576   3.506  0.4881  0.0503  0.1732
 1946SOL    HW2 7857   0.240   3.595   3.600 -0.9931  0.1064  0.1607
 1946SOL    HW3 7858   0.151   3.551   3.486  1.1730 -1.6384 -0.8996
 1946SOL    MW4 7859   0.229   3.575   3.516  0.3830 -0.1650  0.0300
 1947SOL     OW 7860   0.192   3.859   3.435 -0.3203  0.2449 -0.1481
 1947SOL    HW2 7861   0.101   3.886   3.445 -0.2563  0.7163 -0.7949
 1947SOL    HW3 7862   0.199   3.777   3.484 -0.9106  0.5797  0.5067
 1947SOL    MW4 7863   0.181   3.852   3.443 -0.3898  0.3512 -0.1471
 1948SOL     OW 7864   4.436   4.000   3.479  0.1578 -0.0912 -0.1600
 1948SOL    HW2 7865   4.468   4.015   3.568  1.7220 -0.3881 -0.6671
 1948SOL    HW3 7866   4.456   4.082   3.432  0.6297 -0.4657 -0.6137
 1948SOL    MW4 7867   4.443   4.013   3.484  0.4263 -0.1802 -0.2868
 1949SOL     OW 7868   0.008   4.242   3.358  0.0752  0.5783 -0.0412
 1949SOL    HW2 7869  -0.063   4.290   3.399 -1.4689 -0.6219 -1.2228
 1949SOL    HW3 7870   0.087   4.275   3.399 -1.1908  1.7482  1.4963
 1949SOL    MW4 7871   0.009   4.253   3.368 -0.2955  0.5741  0.0055
 1950SOL     OW 7872   0.228   4.371   3.470 -0.8466 -0.6331  0.0740
 1950SOL    HW2 7873   0.230   4.379   3.565 -1.4921 -1.5207  0.1712
 1950SOL    HW3 7874   0.318   4.346   3.446 -0.8783 -1.2146  0.5338
 1950SOL    MW4 7875   0.240   4.368   3.479 -0.9359 -0.8268  0.1473
 1951SOL     OW 7876   0.640   4.646   3.356  0.2413  0.6499  0.4835
 1951SOL    HW2 7877   0.713   4.679   3.409  0.0898  0.8905  0.5448
 1951SOL    HW3 7878   0.660   4.675   3.267 -0.1549  1.3719  0.6200
 1951SOL    MW4 7879   0.652   4.654   3.351  0.1690  0.7768  0.5095
 1952SOL     OW 7880   0.419   0.104   3.454  0.4903 -0.0885 -0.0064
 1952SOL    HW2 7881   0.416   0.087   3.549  1.3331  1.8160  0.3923
 1952SOL    HW3 7882   0.487   0.045   3.422  0.3793 -0.5679  0.6195
 1952SOL    MW4 7883   0.428   0.094   3.463  0.5868  0.0995  0.1290
 1953SOL     OW 7884   0.434   0.360   3.390  0.6778 -0.3994  0.4634
 1953SOL    HW2 7885   0.514   0.395   3.429  1.3476 -1.3250 -0.0580
 1953SOL    HW3 7886   0.427   0.271   3.424 -0.6231 -0.0291  1.2142
 1953SOL    MW4 7887   0.443   0.353   3.400  0.5945 -0.4727  0.4935
 1954SOL     OW 7888   0.657   0.513   3.473  0.5459 -0.1307  0.1610
 1954SOL    HW2 7889   0.643   0.498   3.566  0.5275 -1.1283  0.0033
 1954SOL    HW3 7890   0.738   0.467   3.453  0.8168  0.4998 -0.2144
 1954SOL    MW4 7891   0.666   0.505   3.482  0.5792 -0.1792  0.0906
 1955SOL     OW 7892   0.629   0.763   3.372 -0.1081  0.1505  0.1022
 1955SOL    HW2 7893   0.560   0.808   3.420 -0.7462 -0.5022 -0.1830
 1955SOL    HW3 7894   0.629   0.674   3.407  0.2784  0.0209 -0.2163
 1955SOL    MW4 7895   0.620   0.757   3.383 -0.1414  0.0473  0.0224
 1956SOL     OW 7896   0.415   0.891   3.484 -0.3335  0.4630  0.1021
 1956SOL    HW2 7897   0.405   0.887   3.579  0.5365  0.1592  0.1800
 1956SOL    HW3 7898   0.425   0.985   3.466 -1.8870  0.6607  0.1569
 1956SOL    MW4 7899   0.415   0.903   3.494 -0.4237  0.4491  0.1194
 1957SOL     OW 7900   0.456   1.153   3.411 -0.2933  0.1201 -0.0176
 1957SOL    HW2 7901   0.516   1.218   3.448  0.0568 -0.1053 -0.1823
 1957SOL    HW3 7902   0.458   1.169   3.317 -0.6643  0.2561 -0.0036
 1957SOL    MW4 7903   0.464   1.163   3.403 -0.2960  0.1084 -0.0374
 1958SOL     OW 7904   0.682   1.312   3.480  0.2994  0.1533 -0.3490
 1958SOL    HW2 7905   0.770   1.276   3.469  0.5851  0.4686  0.8555
 1958SOL    HW3 7906   0.685   1.396   3.434  0.1080 -0.5954 -1.7750
 1958SOL    MW4 7907   0.694   1.318   3.472  0.3119  0.0962 -0.3784
 1959SOL     OW 7908   0.686   1.550   3.345  0.1682 -0.0577  0.2023
 1959SOL    HW2 7909   0.760   1.587   3.393  0.5438  0.1304 -0.5144
 1959SOL    HW3 7910   0.609   1.593   3.382  0.1953 -1.9086  2.5402
 1959SOL    MW4 7911   0.685   1.561   3.356  0.2213 -0.2770  0.4160
 1960SOL     OW 7912   0.472   1.654   3.451 -0.1239 -0.1887 -0.3196
 1960SOL    HW2 7913   0.462   1.657   3.546  0.1613  0.2084 -0.2979
 1960SOL    HW3 7914   0.470   1.746   3.424 -0.8162 -0.3305 -0.7647
 1960SOL    MW4 7915   0.471   1.666   3.460 -0.1776 -0.1549 -0.3755
 1961SOL     OW 7916   0.459   1.929   3.408 -0.3714 -0.0247 -0.3522
 1961SOL    HW2 7917   0.383   1.979   3.438  1.4506  2.3394  0.4758
 1961SOL    HW3 7918   0.450   1.925   3.313 -1.5628  0.1982 -0.2515
 1961SOL    MW4 7919   0.448   1.935   3.400 -0.2882  0.3166 -0.2298
 1962SOL     OW 7920   0.681   2.090   3.486  0.0359 -0.4422 -0.0193
 1962SOL    HW2 7921   0.684   2.074   3.581 -0.9453  1.4942  0.3640
 1962SOL    HW3 7922   0.602   2.045   3.457 -0.4335  0.1404  0.3367
 1962SOL    MW4 7923   0.671   2.082   3.495 -0.1555 -0.1099  0.0784
 1963SOL     OW 7924   0.658   2.331   3.348  0.2110 -0.1250 -0.1110
 1963SOL    HW2 7925   0.733   2.381   3.379  0.6269  0.4984 -2.0212
 1963SOL    HW3 7926   0.666   2.246   3.390  0.3150  0.9190  2.0371
 1963SOL    MW4 7927   0.669   2.326   3.358  0.2797  0.0949 -0.0799
 1964SOL     OW 7928   0.472   2.467   3.503 -0.3744 -0.0299  0.0998
 1964SOL    HW2 7929   0.553   2.427   3.470  0.5737  1.0451  1.0723
 1964SOL    HW3 7930   0.402   2.416   3.462  0.7742 -0.1079 -1.8248
 1964SOL    MW4 7931   0.474   2.455   3.493 -0.0978  0.1018 -0.0260
 1965SOL     OW 7932   0.438   2.726   3.387 -0.0824  0.0964  0.0286
 1965SOL    HW2 7933   0.434   2.634   3.415 -0.7793  0.1263  0.0364
 1965SOL    HW3 7934   0.438   2.722   3.292  0.3230  0.0749  0.0272
 1965SOL    MW4 7935   0.437   2.713   3.378 -0.1208  0.0975  0.0296
 1966SOL     OW 7936   0.672   2.833   3.483  0.0727  0.2981 -0.4149
 1966SOL    HW2 7937   0.746   2.792   3.439  0.9887  0.1827  1.2112
 1966SOL    HW3 7938   0.595   2.797   3.438  0.9782  0.0069 -1.7528
 1966SOL    MW4 7939   0.671   2.823   3.471  0.3129  0.2444 -0.3767
 1967SOL     OW 7940   0.683   3.073   3.369  0.3091 -0.3166  0.3277
 1967SOL    HW2 7941   0.607   3.118   3.406  1.4461  1.2276  0.7890
 1967SOL    HW3 7942   0.681   2.986   3.409 -0.0003  0.4420  1.9770
 1967SOL    MW4 7943   0.672   3.067   3.379  0.4183 -0.0129  0.6063
 1968SOL     OW 7944   0.481   3.244   3.464  0.0074 -0.6750  0.2293
 1968SOL    HW2 7945   0.486   3.235   3.559 -0.5778  1.2093  0.4596
 1968SOL    HW3 7946   0.398   3.203   3.440 -0.2620 -0.3827  0.6454
 1968SOL    MW4 7947   0.471   3.237   3.473 -0.1054 -0.3879  0.3150
 1969SOL     OW 7948   0.486   3.520   3.399  0.4880  0.1668 -0.1971
 1969SOL    HW2 7949   0.496   3.426   3.415  2.6703  0.7254  2.0943
 1969SOL    HW3 7950   0.397   3.541   3.428  0.3844 -1.0054  0.3475
 1969SOL    MW4 7951   0.476   3.511   3.405  0.7623  0.0861  0.1769
 1970SOL     OW 7952   0.734   3.647   3.531  0.5182  0.0125 -0.6674
 1970SOL    HW2 7953   0.801   3.600   3.482 -1.2486 -3.0440 -0.3094
 1970SOL    HW3 7954   0.651   3.612   3.498 -0.8240  1.4896  1.0147
 1970SOL    MW4 7955   0.731   3.636   3.521  0.1081 -0.1960 -0.3984
 1971SOL     OW 7956   0.673   3.862   3.376 -0.3035  0.1420  0.1566
 1971SOL    HW2 7957   0.591   3.897   3.411 -0.5605 -0.4918  0.1969
 1971SOL    HW3 7958   0.698   3.794   3.438  0.4349  0.5640  0.3263
 1971SOL    MW4 7959   0.666   3.858   3.388 -0.2400  0.1137  0.1843
 1972SOL     OW 7960   0.448   3.995   3.459  0.0543  0.2076  0.1589
 1972SOL    HW2 7961   0.452   4.080   3.415 -0.3986  0.2933  0.2812
 1972SOL    HW3 7962   0.356   3.968   3.450  0.4616 -0.8733 -1.0181
 1972SOL    MW4 7963   0.436   4.003   3.452  0.0482  0.0763  0.0196
 1973SOL     OW 7964   0.467   4.276   3.374  0.4168  0.0048  0.2656
 1973SOL    HW2 7965   0.547   4.322   3.399  1.3405 -1.7077  0.5691
 1973SOL    HW3 7966   0.465   4.281   3.279  1.1351 -0.3154  0.2271
 1973SOL    MW4 7967   0.477   4.282   3.365  0.6334 -0.2632  0.3004
 1974SOL     OW 7968   0.709   4.408   3.445  0.0716  0.0386 -0.0810
 1974SOL    HW2 7969   0.792   4.368   3.416  0.0621 -0.7585  0.9703
 1974SOL    HW3 7970   0.707   4.492   3.400  0.8129 -0.5040 -1.1695
 1974SOL    MW4 7971   0.720   4.413   3.435  0.1681 -0.1383 -0.0858
 1975SOL     OW 7972   1.098   0.019   3.378 -0.1363  0.0744 -0.0487
 1975SOL    HW2 7973   1.185   0.054   3.393 -0.4332  0.2367  1.3485
 1975SOL    HW3 7974   1.094   0.005   3.283  1.1895  0.6050 -0.1950
 1975SOL    MW4 7975   1.109   0.022   3.368 -0.0007  0.1658  0.1163
 1976SOL     OW 7976   0.846   0.118   3.479  0.0364  0.4247  0.4184
 1976SOL    HW2 7977   0.848   0.117   3.574 -0.0856 -0.0246  0.4195
 1976SOL    HW3 7978   0.931   0.083   3.453  0.3039  1.1108  0.3576
 1976SOL    MW4 7979   0.857   0.113   3.488  0.0556  0.4560  0.4106
 1977SOL     OW 7980   0.872   0.374   3.402 -0.4183  0.2067  0.0121
 1977SOL    HW2 7981   0.959   0.407   3.425  0.2410 -0.8814 -0.8816
 1977SOL    HW3 7982   0.872   0.284   3.433 -1.1984  0.1740 -0.0786
 1977SOL    MW4 7983   0.884   0.366   3.409 -0.4342  0.0589 -0.1175
 1978SOL     OW 7984   1.107   0.498   3.454  0.1147 -0.0333 -0.3931
 1978SOL    HW2 7985   1.129   0.499   3.547 -0.0997 -2.2561 -0.2860
 1978SOL    HW3 7986   1.065   0.582   3.438  1.0014  0.7622  1.2981
 1978SOL    MW4 7987   1.105   0.509   3.464  0.2036 -0.2216 -0.1559
 1979SOL     OW 7988   1.059   0.770   3.389 -0.2257 -0.2917  0.0394
 1979SOL    HW2 7989   1.134   0.819   3.425  0.6308 -1.4963 -0.0772
 1979SOL    HW3 7990   0.982   0.820   3.418  0.6417  1.3784 -0.4670
 1979SOL    MW4 7991   1.059   0.783   3.398  0.0018 -0.2303 -0.0429
 1980SOL     OW 7992   0.850   0.889   3.508 -0.5672  0.6040  0.2257
 1980SOL    HW2 7993   0.861   0.975   3.466 -0.3005  0.3325 -0.2601
 1980SOL    HW3 7994   0.771   0.853   3.469 -1.3777  1.1555  1.3356
 1980SOL    MW4 7995   0.841   0.896   3.497 -0.6390  0.6409  0.3080
 1981SOL     OW 7996   0.904   1.147   3.392 -0.1359  0.5100  0.1001
 1981SOL    HW2 7997   0.980   1.195   3.424  0.0257  0.5219 -0.2887
 1981SOL    HW3 7998   0.907   1.160   3.297  0.1391 -0.6051 -0.0503
 1981SOL    MW4 7999   0.914   1.155   3.383 -0.0784  0.3643  0.0291
 1982SOL     OW 8000   1.109   1.319   3.464  0.2559 -0.1668 -1.0125
 1982SOL    HW2 8001   1.080   1.326   3.555  3.0234 -1.2370 -0.0224
 1982SOL    HW3 8002   1.115   1.410   3.435  0.6026  0.2263  0.2632
 1982SOL    MW4 8003   1.106   1.332   3.472  0.6669 -0.2562 -0.7136
 1983SOL     OW 8004   1.099   1.577   3.378  0.1257  0.3898 -0.2340
 1983SOL    HW2 8005   1.164   1.638   3.414  0.6984  0.7719 -1.8954
 1983SOL    HW3 8006   1.103   1.590   3.283 -1.6514 -0.3235 -0.4327
 1983SOL    MW4 8007   1.108   1.587   3.370 -0.0333  0.3462 -0.4795
 1984SOL     OW 8008   0.877   1.676   3.494 -0.3374  0.6403  0.2082
 1984SOL    HW2 8009   0.872   1.762   3.452  1.1781  0.8455  0.4390
 1984SOL    HW3 8010   0.953   1.634   3.455 -0.0295  0.0857  1.3823
 1984SOL    MW4 8011   0.886   1.682   3.483 -0.0968  0.5941  0.3936
 1985SOL     OW 8012   0.884   1.921   3.363 -0.0870  0.1333  0.4602
 1985SOL    HW2 8013   0.964   1.962   3.396 -0.1667  2.2645 -1.8917
 1985SOL    HW3 8014   0.813   1.973   3.402 -0.2514  0.3957 -0.1886
 1985SOL    MW4 8015   0.885   1.933   3.373 -0.1191  0.4491  0.0641
 1986SOL     OW 8016   1.095   2.047   3.476 -0.5356 -0.1301  0.1542
 1986SOL    HW2 8017   1.179   2.023   3.436  0.7388  0.9011  2.1084
 1986SOL    HW3 8018   1.083   2.139   3.452 -1.1453 -0.2969 -0.1855
 1986SOL    MW4 8019   1.105   2.056   3.468 -0.4478 -0.0162  0.3669
 1987SOL     OW 8020   1.138   2.310   3.384 -0.1035  0.2237 -0.0653
 1987SOL    HW2 8021   1.209   2.355   3.429 -1.1341  1.5628  0.2379
 1987SOL    HW3 8022   1.157   2.322   3.291 -0.8074  1.9811  0.0143
 1987SOL    MW4 8023   1.150   2.317   3.377 -0.3324  0.6323 -0.0145
 1988SOL     OW 8024   0.896   2.426   3.472  0.1789  0.0813 -0.3276
 1988SOL    HW2 8025   0.911   2.410   3.566 -1.6766 -1.2873 -0.2370
 1988SOL    HW3 8026   0.968   2.382   3.428  0.7634  0.2690  0.4233
 1988SOL    MW4 8027   0.907   2.418   3.479  0.0112 -0.0746 -0.2165
 1989SOL     OW 8028   0.901   2.696   3.393 -0.3440  0.3666  0.1927
 1989SOL    HW2 8029   0.977   2.742   3.430 -0.9020  0.1629  1.6208
 1989SOL    HW3 8030   0.913   2.605   3.418 -0.7053  0.2197 -0.1686
 1989SOL    MW4 8031   0.912   2.690   3.401 -0.4653  0.3204  0.3335
 1990SOL     OW 8032   1.118   2.816   3.502 -0.3183  0.1400  0.3290
 1990SOL    HW2 8033   1.137   2.832   3.595 -0.5744 -0.0621  0.4171
 1990SOL    HW3 8034   1.195   2.770   3.470 -0.6872 -0.7580  0.7071
 1990SOL    MW4 8035   1.130   2.812   3.510 -0.4005 -0.0052  0.3905
 1991SOL     OW 8036   1.120   3.070   3.386  0.2434 -0.0752  0.0478
 1991SOL    HW2 8037   1.112   2.982   3.422 -0.4829 -0.0228  0.0241
 1991SOL    HW3 8038   1.141   3.056   3.293  0.2189 -0.2261  0.0656
 1991SOL    MW4 8039   1.122   3.057   3.378  0.1444 -0.0885  0.0470
 1992SOL     OW 8040   0.889   3.240   3.472 -0.2981  0.2117  0.2410
 1992SOL    HW2 8041   0.969   3.190   3.453 -1.1011 -0.8121 -0.5254
 1992SOL    HW3 8042   0.818   3.179   3.451 -1.3399  2.1586 -2.0963
 1992SOL    MW4 8043   0.890   3.225   3.467 -0.5415  0.3335 -0.1683
 1993SOL     OW 8044   0.926   3.509   3.400  0.0605 -0.6255  0.3217
 1993SOL    HW2 8045   0.922   3.418   3.428 -1.2967 -0.7937 -0.3780
 1993SOL    HW3 8046   0.929   3.505   3.304 -0.3564  0.0631  0.2734
 1993SOL    MW4 8047   0.926   3.496   3.391 -0.1735 -0.5569  0.2232
 1994SOL     OW 8048   1.152   3.637   3.463  0.1268 -0.0686 -0.4696
 1994SOL    HW2 8049   1.142   3.639   3.559  0.1719 -1.6260 -0.4320
 1994SOL    HW3 8050   1.073   3.593   3.431  0.9063 -1.0673 -1.0319
 1994SOL    MW4 8051   1.140   3.632   3.472  0.2356 -0.4055 -0.5388
 1995SOL     OW 8052   1.137   3.923   3.369  0.0357  0.0847  0.0078
 1995SOL    HW2 8053   1.199   3.992   3.392  0.4431 -0.4559  0.5382
 1995SOL    HW3 8054   1.178   3.842   3.400 -0.5048 -0.3784 -0.4803
 1995SOL    MW4 8055   1.151   3.922   3.376  0.0182 -0.0479  0.0134
 1996SOL     OW 8056   0.896   4.037   3.492  0.1313  0.6365 -0.2310
 1996SOL    HW2 8057   0.968   3.979   3.467 -0.8340 -1.1233  0.9773
 1996SOL    HW3 8058   0.818   3.998   3.453 -0.3524  1.8522 -0.4952
 1996SOL    MW4 8059   0.895   4.024   3.484 -0.0598  0.5646 -0.1063
 1997SOL     OW 8060   0.919   4.257   3.332  0.1805 -0.1025 -0.7353
 1997SOL    HW2 8061   0.895   4.174   3.374  0.0537  0.2454 -0.1076
 1997SOL    HW3 8062   0.889   4.247   3.241 -0.2004 -0.5891 -0.5636
 1997SOL    MW4 8063   0.912   4.245   3.325  0.1135 -0.1206 -0.6299
 1998SOL     OW 8064   1.124   4.406   3.440 -0.4039  0.0265  0.1314
 1998SOL    HW2 8065   1.051   4.349   3.414  1.0227 -1.0825 -1.5789
 1998SOL    HW3 8066   1.098   4.493   3.412 -1.4711 -0.2160  0.3574
 1998SOL    MW4 8067   1.111   4.410   3.433 -0.3566 -0.1521 -0.0644
 1999SOL     OW 8068   1.579   4.648   3.347  0.0652 -0.0212  0.4678
 1999SOL    HW2 8069   1.557   4.564   3.387  0.8096  0.3889  1.7645
 1999SOL    HW3 8070   1.508   4.707   3.373  0.1256  0.0413  0.4916
 1999SOL    MW4 8071   1.567   4.645   3.355  0.1714  0.0410  0.6421
 2000SOL     OW 8072   1.344   0.120   3.428  0.3587 -0.6550  0.2365
 2000SOL    HW2 8073   1.344   0.118   3.524 -3.6393 -0.7281  0.3408
 2000SOL    HW3 8074   1.348   0.213   3.405  0.8040 -0.6146  0.4735
 2000SOL    MW4 8075   1.344   0.132   3.438 -0.1101 -0.6593  0.2816
 2001SOL     OW 8076   1.349   0.408   3.346 -0.3103  0.1916 -0.4323
 2001SOL    HW2 8077   1.426   0.439   3.393 -0.6439 -0.7984  0.7936
 2001SOL    HW3 8078   1.276   0.459   3.382 -0.6063 -0.7637  0.3441
 2001SOL    MW4 8079   1.349   0.419   3.357 -0.3935 -0.0650 -0.1681
 2002SOL     OW 8080   1.542   0.530   3.493 -0.2855 -0.1273 -0.0276
 2002SOL    HW2 8081   1.551   0.540   3.588  0.0069 -0.2637 -0.0431
 2002SOL    HW3 8082   1.623   0.489   3.465  0.5107  1.7737 -0.6076
 2002SOL    MW4 8083   1.554   0.526   3.502 -0.1419  0.1055 -0.1061
 2003SOL     OW 8084   1.543   0.783   3.390  0.4071  0.2819 -0.1588
 2003SOL    HW2 8085   1.456   0.821   3.402 -0.2705 -0.3531 -2.7808
 2003SOL    HW3 8086   1.533   0.691   3.414  0.7393  0.5303  0.9714
 2003SOL    MW4 8087   1.531   0.776   3.395  0.3616  0.2310 -0.3557
 2004SOL     OW 8088   1.294   0.910   3.475 -0.1979 -0.1139  0.0111
 2004SOL    HW2 8089   1.314   0.895   3.567 -0.7769  0.8251  0.2932
 2004SOL    HW3 8090   1.300   1.004   3.464 -1.1929 -0.1244 -0.6598
 2004SOL    MW4 8091   1.297   0.920   3.486 -0.4057  0.0086 -0.0398
 2005SOL     OW 8092   1.325   1.176   3.403 -0.1998  0.4727  0.0167
 2005SOL    HW2 8093   1.403   1.224   3.431 -0.1543 -0.0219  0.7617
 2005SOL    HW3 8094   1.252   1.233   3.429 -0.0966  0.8454 -0.5021
 2005SOL    MW4 8095   1.326   1.190   3.410 -0.1801  0.4566  0.0467
 2006SOL     OW 8096   1.557   1.322   3.476 -0.0682 -0.1940 -0.1206
 2006SOL    HW2 8097   1.567   1.318   3.571 -0.2433 -2.2477 -0.1723
 2006SOL    HW3 8098   1.638   1.285   3.441 -0.2235  0.0705 -0.7776
 2006SOL    MW4 8099   1.569   1.317   3.484 -0.1117 -0.4300 -0.2139
 2007SOL     OW 8100   1.585   1.568   3.361  0.3720 -0.0057  0.6251
 2007SOL    HW2 8101   1.574   1.486   3.409  0.3851  0.3473  1.2362
 2007SOL    HW3 8102   1.576   1.544   3.269 -3.0004 -0.1907  0.9257
 2007SOL    MW4 8103   1.582   1.554   3.355 -0.0713  0.0165  0.7453
 2008SOL     OW 8104   1.348   1.712   3.469 -0.3051  0.3797  0.1425
 2008SOL    HW2 8105   1.366   1.690   3.560 -1.9969  2.4192  1.0089
 2008SOL    HW3 8106   1.425   1.680   3.421  0.5968 -0.7421  2.2519
 2008SOL    MW4 8107   1.361   1.705   3.475 -0.4092  0.5007  0.5348
 2009SOL     OW 8108   1.333   1.967   3.392  0.1819 -0.1686  0.0764
 2009SOL    HW2 8109   1.410   1.997   3.441 -0.6611  0.9026  0.7618
 2009SOL    HW3 8110   1.316   1.878   3.425 -0.2195  0.4482  1.5440
 2009SOL    MW4 8111   1.341   1.959   3.403  0.0178  0.0540  0.3605
 2010SOL     OW 8112   1.563   2.040   3.532  0.3189 -0.1375 -0.2458
 2010SOL    HW2 8113   1.643   1.997   3.500  0.5538  0.2759 -0.2067
 2010SOL    HW3 8114   1.568   2.129   3.498 -0.4107 -0.2763 -0.7396
 2010SOL    MW4 8115   1.574   2.046   3.523  0.2536 -0.1011 -0.3059
 2011SOL     OW 8116   1.574   2.307   3.440  0.0049  0.0422  0.1315
 2011SOL    HW2 8117   1.493   2.346   3.473 -0.0051 -0.4475  0.7011
 2011SOL    HW3 8118   1.572   2.323   3.345 -0.7695  0.0001  0.1393
 2011SOL    MW4 8119   1.563   2.314   3.432 -0.0986 -0.0279  0.2077
 2012SOL     OW 8120   1.334   2.439   3.530 -0.0789 -0.0828  0.2745
 2012SOL    HW2 8121   1.330   2.442   3.626 -0.1379  0.8516  0.2485
 2012SOL    HW3 8122   1.339   2.531   3.504  1.0692 -0.3791 -0.5805
 2012SOL    MW4 8123   1.334   2.451   3.539  0.0648  0.0014  0.1583
 2013SOL     OW 8124   1.361   2.696   3.428  0.4349 -0.0361 -0.4331
 2013SOL    HW2 8125   1.439   2.741   3.460  0.6318  0.3456 -1.4506
 2013SOL    HW3 8126   1.363   2.708   3.333  0.2678 -1.8376 -0.6847
 2013SOL    MW4 8127   1.372   2.704   3.420  0.4389 -0.2232 -0.6006
 2014SOL     OW 8128   1.581   2.834   3.518 -0.7211  0.2322 -0.3856
 2014SOL    HW2 8129   1.642   2.791   3.458 -0.5695 -0.7328  0.4582
 2014SOL    HW3 8130   1.578   2.925   3.487 -0.8202 -0.3020 -1.9884
 2014SOL    MW4 8131   1.589   2.840   3.506 -0.7141  0.0343 -0.4857
 2015SOL     OW 8132   1.535   3.096   3.396 -0.2310  0.3697 -0.2279
 2015SOL    HW2 8133   1.606   3.140   3.443 -0.5621 -0.9515  1.5582
 2015SOL    HW3 8134   1.455   3.140   3.427 -0.6645 -2.0993  2.4217
 2015SOL    MW4 8135   1.534   3.107   3.407 -0.3318 -0.1304  0.3572
 2016SOL     OW 8136   1.324   3.234   3.459  0.0157 -0.3875 -0.4338
 2016SOL    HW2 8137   1.323   3.245   3.554 -2.4438  1.0492 -0.6012
 2016SOL    HW3 8138   1.249   3.178   3.440 -1.5823  2.1209 -1.8105
 2016SOL    MW4 8139   1.314   3.228   3.469 -0.5198  0.1330 -0.6378
 2017SOL     OW 8140   1.329   3.493   3.318 -0.3380 -0.3248 -0.2659
 2017SOL    HW2 8141   1.324   3.402   3.346  1.4029 -0.2928  0.1967
 2017SOL    HW3 8142   1.264   3.539   3.371 -0.2854 -1.0586  0.4335
 2017SOL    MW4 8143   1.319   3.487   3.328 -0.1013 -0.4175 -0.1125
 2018SOL     OW 8144   1.563   3.654   3.471  0.2324  0.0099  0.0993
 2018SOL    HW2 8145   1.558   3.655   3.567 -0.1706 -0.0561  0.0830
 2018SOL    HW3 8146   1.478   3.620   3.444  1.1213 -2.0005 -0.2217
 2018SOL    MW4 8147   1.551   3.650   3.480  0.2965 -0.2637  0.0548
 2019SOL     OW 8148   1.548   3.904   3.356  0.1305 -0.7059 -0.2565
 2019SOL    HW2 8149   1.547   3.815   3.392  1.5207 -0.9214 -0.6981
 2019SOL    HW3 8150   1.565   3.891   3.262 -3.0999 -0.1379 -0.9539
 2019SOL    MW4 8151   1.550   3.890   3.348 -0.1124 -0.6595 -0.4070
 2020SOL     OW 8152   1.339   4.076   3.472 -0.2583  0.0504 -0.2504
 2020SOL    HW2 8153   1.367   4.159   3.434  0.3160 -0.2282 -0.4489
 2020SOL    HW3 8154   1.409   4.015   3.450 -1.1920 -0.7538 -1.0669
 2020SOL    MW4 8155   1.352   4.079   3.464 -0.3055 -0.0925 -0.3843
 2021SOL     OW 8156   1.370   4.332   3.335  0.1020  0.0478  0.6052
 2021SOL    HW2 8157   1.281   4.356   3.363 -0.1371 -0.9551  0.7295
 2021SOL    HW3 8158   1.366   4.335   3.239 -0.0708 -0.0308  0.6105
 2021SOL    MW4 8159   1.357   4.336   3.326  0.0477 -0.0944  0.6220
 2022SOL     OW 8160   1.583   4.392   3.492  0.2544  0.1016 -0.3713
 2022SOL    HW2 8161   1.661   4.355   3.452  0.3035 -0.9280  0.6712
 2022SOL    HW3 8162   1.511   4.360   3.438  0.4278 -0.1486 -0.4528
 2022SOL    MW4 8163   1.584   4.383   3.480  0.2838 -0.0672 -0.2444
 2023SOL     OW 8164   2.017   0.026   3.374 -0.2909  0.2113 -0.4160
 2023SOL    HW2 8165   2.094   0.064   3.416 -0.3351 -0.2807  0.1094
 2023SOL    HW3 8166   1.943   0.076   3.408 -0.3992 -0.6845  0.6781
 2023SOL    MW4 8167   2.018   0.037   3.384 -0.3111  0.0282 -0.2019
 2024SOL     OW 8168   1.799   0.161   3.471  0.1147 -0.2676 -0.4545
 2024SOL    HW2 8169   1.797   0.141   3.565 -0.9015  0.4282 -0.3233
 2024SOL    HW3 8170   1.736   0.099   3.432 -1.7694  1.4783 -0.2659
 2024SOL    MW4 8171   1.790   0.150   3.478 -0.2679  0.0546 -0.4125
 2025SOL     OW 8172   1.775   0.429   3.393  0.4590 -0.0471 -0.1525
 2025SOL    HW2 8173   1.780   0.337   3.418  1.4317 -0.1546 -0.7194
 2025SOL    HW3 8174   1.806   0.431   3.302  1.3555  0.9547  0.1568
 2025SOL    MW4 8175   1.780   0.418   3.384  0.7055  0.0709 -0.1864
 2026SOL     OW 8176   1.985   0.542   3.520 -0.1013  0.5184 -0.8682
 2026SOL    HW2 8177   1.979   0.626   3.476 -2.3034  0.0780 -1.4688
 2026SOL    HW3 8178   1.906   0.495   3.493 -0.6064 -0.4458  2.1184
 2026SOL    MW4 8179   1.974   0.547   3.511 -0.4585  0.3331 -0.5534
 2027SOL     OW 8180   1.966   0.792   3.403  0.4998 -0.1169  0.3700
 2027SOL    HW2 8181   2.033   0.856   3.428 -0.1034  0.6801 -0.0338
 2027SOL    HW3 8182   1.978   0.780   3.308  0.5905 -0.5788  0.4382
 2027SOL    MW4 8183   1.976   0.799   3.393  0.4323 -0.0727  0.3259
 2028SOL     OW 8184   1.750   0.904   3.509  0.5597 -0.2425 -0.0264
 2028SOL    HW2 8185   1.824   0.854   3.474 -0.4150 -1.7238 -0.0072
 2028SOL    HW3 8186   1.672   0.856   3.479 -0.3450 -0.0520  1.9248
 2028SOL    MW4 8187   1.749   0.891   3.500  0.3117 -0.4128  0.2339
 2029SOL     OW 8188   1.764   1.152   3.383  0.1512  0.4499 -0.2067
 2029SOL    HW2 8189   1.847   1.185   3.416  1.2619 -0.8847 -1.6012
 2029SOL    HW3 8190   1.755   1.066   3.424  0.1330  0.0065 -1.1361
 2029SOL    MW4 8191   1.774   1.145   3.393  0.2954  0.2153 -0.5133
 2030SOL     OW 8192   1.993   1.293   3.442 -0.4578 -0.1157  0.1831
 2030SOL    HW2 8193   2.008   1.288   3.537 -0.0294 -0.1632  0.1128
 2030SOL    HW3 8194   2.001   1.387   3.422 -0.6562 -0.0924  0.2107
 2030SOL    MW4 8195   1.996   1.305   3.452 -0.4275 -0.1189  0.1774
 2031SOL     OW 8196   2.011   1.550   3.376 -0.3493 -0.3372  0.2606
 2031SOL    HW2 8197   2.091   1.581   3.419 -0.0915  1.1460 -1.2252
 2031SOL    HW3 8198   1.940   1.580   3.433  0.1065 -1.1247  1.2660
 2031SOL    MW4 8199   2.012   1.558   3.389 -0.2551 -0.2455  0.1969
 2032SOL     OW 8200   1.788   1.654   3.509 -0.2268  0.4337  0.6190
 2032SOL    HW2 8201   1.781   1.747   3.486  0.5006  0.2142 -0.5032
 2032SOL    HW3 8202   1.718   1.612   3.459  1.7232 -0.1271 -1.6950
 2032SOL    MW4 8203   1.778   1.661   3.499  0.1265  0.3307  0.1655
 2033SOL     OW 8204   1.789   1.933   3.431 -0.0214 -0.2105  0.4407
 2033SOL    HW2 8205   1.860   1.996   3.447 -0.0950 -0.4120  1.5705
 2033SOL    HW3 8206   1.789   1.921   3.336  0.7994  0.5618  0.3366
 2033SOL    MW4 8207   1.798   1.940   3.420  0.0771 -0.1353  0.5760
 2034SOL     OW 8208   1.983   2.113   3.505 -0.2611 -0.3543 -0.2267
 2034SOL    HW2 8209   2.055   2.061   3.469  0.1747  0.1424 -0.0802
 2034SOL    HW3 8210   1.986   2.194   3.455 -0.4551 -0.1665  0.0699
 2034SOL    MW4 8211   1.993   2.117   3.493 -0.2291 -0.2642 -0.1681
 2035SOL     OW 8212   2.024   2.368   3.382  0.6936  0.5709 -0.1808
 2035SOL    HW2 8213   2.109   2.407   3.403  2.0699 -2.3462 -0.1219
 2035SOL    HW3 8214   2.025   2.360   3.287  0.5344  0.4048 -0.1673
 2035SOL    MW4 8215   2.035   2.372   3.372  0.8543  0.1640 -0.1714
 2036SOL     OW 8216   1.781   2.473   3.534 -0.1892  0.3300  0.0788
 2036SOL    HW2 8217   1.858   2.449   3.481  0.2611 -2.0732  1.7296
 2036SOL    HW3 8218   1.721   2.400   3.522 -1.0365  0.8658  1.0585
 2036SOL    MW4 8219   1.783   2.460   3.525 -0.2416  0.0837  0.4261
 2037SOL     OW 8220   1.779   2.708   3.370  0.4602  0.6812 -0.5712
 2037SOL    HW2 8221   1.846   2.756   3.418 -1.3777  1.4589  1.3172
 2037SOL    HW3 8222   1.766   2.628   3.421  0.3330  0.2904 -1.2186
 2037SOL    MW4 8223   1.786   2.704   3.383  0.2010  0.7322 -0.4075
 2038SOL     OW 8224   1.995   2.825   3.487 -0.2977 -0.3510 -0.5469
 2038SOL    HW2 8225   1.971   2.840   3.578 -2.2632 -0.2639 -1.0454
 2038SOL    HW3 8226   2.008   2.913   3.451  0.7509 -0.3967 -0.2900
 2038SOL    MW4 8227   1.993   2.838   3.494 -0.4187 -0.3457 -0.5786
 2039SOL     OW 8228   1.979   3.092   3.373  0.1136  0.1474  0.4414
 2039SOL    HW2 8229   2.051   3.147   3.404 -0.6350  0.9359  0.7695
 2039SOL    HW3 8230   1.900   3.137   3.401 -0.5238 -0.5028 -0.3062
 2039SOL    MW4 8231   1.978   3.105   3.381 -0.0693  0.1657  0.3862
 2040SOL     OW 8232   1.754   3.242   3.479  0.1453  0.0152 -0.3585
 2040SOL    HW2 8233   1.740   3.259   3.572  1.3895 -0.7325 -0.0196
 2040SOL    HW3 8234   1.750   3.328   3.437 -0.6466  0.3253  0.3503
 2040SOL    MW4 8235   1.752   3.256   3.486  0.2049 -0.0424 -0.2203
 2041SOL     OW 8236   1.772   3.505   3.355 -0.4233 -0.4149  0.3716
 2041SOL    HW2 8237   1.710   3.566   3.396  0.6001  1.0592 -0.2190
 2041SOL    HW3 8238   1.760   3.518   3.261  0.0583 -0.8737  0.2455
 2041SOL    MW4 8239   1.762   3.515   3.348 -0.2247 -0.2811  0.2770
 2042SOL     OW 8240   2.018   3.589   3.477 -0.6612 -0.0732 -0.2936
 2042SOL    HW2 8241   2.092   3.561   3.424  0.1391  3.0809 -0.9227
 2042SOL    HW3 8242   1.941   3.566   3.425  0.0030  0.0731 -1.3460
 2042SOL    MW4 8243   2.018   3.582   3.463 -0.4680  0.3624 -0.5157
 2043SOL     OW 8244   2.004   3.859   3.357  0.0118  0.3645 -0.1554
 2043SOL    HW2 8245   1.929   3.908   3.390  0.4061  0.2864  0.8660
 2043SOL    HW3 8246   2.008   3.781   3.412  0.8276  0.3612 -0.2128
 2043SOL    MW4 8247   1.995   3.855   3.369  0.1713  0.3538 -0.0279
 2044SOL     OW 8248   1.783   4.009   3.454  0.2856 -0.3209  0.2213
 2044SOL    HW2 8249   1.775   3.995   3.548 -1.8155  0.2472  0.1588
 2044SOL    HW3 8250   1.702   3.971   3.418  0.6085  0.3540 -1.2388
 2044SOL    MW4 8251   1.771   4.002   3.462  0.0509 -0.1569  0.0203
 2045SOL     OW 8252   1.825   4.265   3.367 -0.5647  0.5829  0.5066
 2045SOL    HW2 8253   1.821   4.175   3.399  0.1299  0.5088  0.4043
 2045SOL    HW3 8254   1.787   4.261   3.279 -0.0298  0.2778  0.2823
 2045SOL    MW4 8255   1.820   4.252   3.359 -0.4025  0.5326  0.4635
 2046SOL     OW 8256   2.044   4.421   3.459 -0.1889 -0.2043  0.0441
 2046SOL    HW2 8257   1.969   4.371   3.427 -0.0555  0.6026 -1.6169
 2046SOL    HW3 8258   2.023   4.512   3.437  0.3278  0.2732  1.4800
 2046SOL    MW4 8259   2.031   4.427   3.452 -0.1032 -0.0348  0.0145
 2047SOL     OW 8260   2.502   4.652   3.382 -0.1869  0.0610  0.2284
 2047SOL    HW2 8261   2.489   4.565   3.419  0.0995  0.4864  1.3421
 2047SOL    HW3 8262   2.487   4.640   3.288 -0.0848 -1.1957  0.3605
 2047SOL    MW4 8263   2.498   4.639   3.375 -0.1359 -0.0486  0.3929
 2048SOL     OW 8264   2.264   0.137   3.490 -0.0881  0.0029  0.1737
 2048SOL    HW2 8265   2.265   0.228   3.460 -0.6480 -0.2189 -0.5420
 2048SOL    HW3 8266   2.346   0.100   3.457 -0.6006 -0.1814 -0.9294
 2048SOL    MW4 8267   2.275   0.144   3.481 -0.2294 -0.0507 -0.0665
 2049SOL     OW 8268   2.223   0.414   3.419  0.3432  0.0169 -0.3944
 2049SOL    HW2 8269   2.296   0.450   3.468 -0.3537 -0.1488  0.7756
 2049SOL    HW3 8270   2.146   0.456   3.456 -0.2602 -0.7252 -0.7900
 2049SOL    MW4 8271   2.223   0.424   3.430  0.1717 -0.1028 -0.2921
 2050SOL     OW 8272   2.448   0.534   3.549 -0.0559  0.0059 -0.1930
 2050SOL    HW2 8273   2.529   0.495   3.515 -1.4171 -0.5047 -2.9976
 2050SOL    HW3 8274   2.439   0.616   3.501 -0.4213  0.8100  1.2299
 2050SOL    MW4 8275   2.458   0.539   3.538 -0.2837  0.0446 -0.3750
 2051SOL     OW 8276   2.424   0.761   3.386  0.2020 -0.0283  0.2541
 2051SOL    HW2 8277   2.500   0.802   3.427 -0.8462  0.3590  1.8651
 2051SOL    HW3 8278   2.445   0.760   3.293  1.8631  0.7403  0.5955
 2051SOL    MW4 8279   2.437   0.766   3.379  0.2830  0.1242  0.5116
 2052SOL     OW 8280   2.214   0.913   3.492 -0.0084  0.3435  0.1424
 2052SOL    HW2 8281   2.231   1.001   3.460  1.6016  0.2304  0.6136
 2052SOL    HW3 8282   2.286   0.861   3.456  0.1969 -0.3593  1.5293
 2052SOL    MW4 8283   2.226   0.918   3.483  0.2310  0.2359  0.3874
 2053SOL     OW 8284   2.227   1.159   3.383 -0.4597  0.1880  0.2500
 2053SOL    HW2 8285   2.292   1.213   3.428 -1.6861  2.0329 -0.1618
 2053SOL    HW3 8286   2.143   1.198   3.406 -1.3059 -0.8997 -0.9309
 2053SOL    MW4 8287   2.225   1.171   3.392 -0.7331  0.2880  0.0398
 2054SOL     OW 8288   2.441   1.329   3.510 -0.1395  0.2829  0.0217
 2054SOL    HW2 8289   2.459   1.325   3.604  0.3479  0.2995 -0.0710
 2054SOL    HW3 8290   2.509   1.275   3.470  0.3198  1.1716 -0.4137
 2054SOL    MW4 8291   2.452   1.321   3.517 -0.0145  0.4023 -0.0479
 2055SOL     OW 8292   2.469   1.571   3.403 -0.1657 -0.4921  0.4972
 2055SOL    HW2 8293   2.460   1.487   3.447 -0.3929 -1.0428 -0.5732
 2055SOL    HW3 8294   2.463   1.550   3.310 -0.9231  0.7923  0.2384
 2055SOL    MW4 8295   2.467   1.557   3.396 -0.2954 -0.3953  0.3219
 2056SOL     OW 8296   2.240   1.697   3.470 -0.1942 -0.0443  0.0943
 2056SOL    HW2 8297   2.244   1.686   3.565 -0.6880 -2.0047 -0.0890
 2056SOL    HW3 8298   2.321   1.656   3.438 -0.7641 -0.7714 -0.4339
 2056SOL    MW4 8299   2.251   1.690   3.478 -0.3347 -0.3990  0.0002
 2057SOL     OW 8300   2.222   1.965   3.393  0.0322 -0.5764  0.2629
 2057SOL    HW2 8301   2.234   1.874   3.418  0.6799 -0.9211 -1.2648
 2057SOL    HW3 8302   2.230   1.965   3.298 -0.9237  0.9254  0.1657
 2057SOL    MW4 8303   2.224   1.953   3.384 -0.0086 -0.4238  0.0484
 2058SOL     OW 8304   2.457   2.075   3.482  0.5705 -0.3976 -0.1812
 2058SOL    HW2 8305   2.465   2.091   3.576  0.1219  0.0825 -0.2195
 2058SOL    HW3 8306   2.367   2.044   3.470  0.6649 -0.5794 -0.4339
 2058SOL    MW4 8307   2.446   2.073   3.493  0.5236 -0.3581 -0.2196
 2059SOL     OW 8308   2.472   2.312   3.328  0.3690  0.5626 -0.4155
 2059SOL    HW2 8309   2.548   2.351   3.373  0.4661 -0.0228 -0.0701
 2059SOL    HW3 8310   2.458   2.228   3.372 -0.4791  0.6644 -0.4820
 2059SOL    MW4 8311   2.480   2.306   3.340  0.2699  0.4988 -0.3786
 2060SOL     OW 8312   2.280   2.457   3.455  0.3834  0.0154  0.6574
 2060SOL    HW2 8313   2.353   2.416   3.409  0.9531  0.2616  1.3219
 2060SOL    HW3 8314   2.296   2.436   3.547 -0.5577 -0.1919  0.7683
 2060SOL    MW4 8315   2.292   2.449   3.461  0.3343  0.0207  0.7601
 2061SOL     OW 8316   2.246   2.714   3.402  0.5330 -0.5035 -0.6504
 2061SOL    HW2 8317   2.168   2.745   3.448  0.9517 -0.1203 -0.2034
 2061SOL    HW3 8318   2.254   2.622   3.429  0.9848 -0.1794  0.3202
 2061SOL    MW4 8319   2.237   2.706   3.411  0.6480 -0.4103 -0.4635
 2062SOL     OW 8320   2.473   2.851   3.546 -0.1851 -0.0962 -0.2369
 2062SOL    HW2 8321   2.468   2.937   3.504  0.4740 -0.3692 -0.8836
 2062SOL    HW3 8322   2.417   2.795   3.493  0.7180 -0.4624 -0.8187
 2062SOL    MW4 8323   2.465   2.855   3.534  0.0210 -0.1805 -0.3991
 2063SOL     OW 8324   2.467   3.086   3.379  0.0119 -0.0632  0.0494
 2063SOL    HW2 8325   2.535   3.151   3.400 -1.0531  1.4622 -1.0898
 2063SOL    HW3 8326   2.474   3.074   3.284 -1.9993  0.9247 -0.2411
 2063SOL    MW4 8327   2.477   3.093   3.369 -0.3941  0.2682 -0.1392
 2064SOL     OW 8328   2.223   3.223   3.434  0.4191 -0.5688  0.1008
 2064SOL    HW2 8329   2.223   3.218   3.529 -0.5890 -0.8320  0.1004
 2064SOL    HW3 8330   2.301   3.175   3.407  0.8305 -0.2933  0.8026
 2064SOL    MW4 8331   2.233   3.216   3.443  0.3407 -0.5672  0.1934
 2065SOL     OW 8332   2.240   3.483   3.330  0.1861  0.3162 -0.5403
 2065SOL    HW2 8333   2.218   3.394   3.358 -1.1569  0.8224  0.0222
 2065SOL    HW3 8334   2.256   3.475   3.236  0.0851 -0.5162 -0.4928
 2065SOL    MW4 8335   2.239   3.470   3.322 -0.0045  0.2732 -0.4597
 2066SOL     OW 8336   2.458   3.607   3.456  0.2370 -0.7547 -0.4259
 2066SOL    HW2 8337   2.453   3.699   3.434  0.3617 -0.4460  0.7915
 2066SOL    HW3 8338   2.379   3.568   3.418 -1.2464  0.3692  1.4332
 2066SOL    MW4 8339   2.447   3.614   3.448  0.0577 -0.5655 -0.0200
 2067SOL     OW 8340   2.449   3.880   3.398 -0.2856  0.1948  0.0278
 2067SOL    HW2 8341   2.525   3.918   3.442  0.4236  0.3283 -1.2875
 2067SOL    HW3 8342   2.374   3.926   3.436  0.3568  0.7359  0.6592
 2067SOL    MW4 8343   2.449   3.891   3.409 -0.1073  0.2840 -0.0622
 2068SOL     OW 8344   2.224   3.986   3.481  0.0088  0.0222 -0.4136
 2068SOL    HW2 8345   2.237   4.072   3.441 -0.7592  0.9850  1.3455
 2068SOL    HW3 8346   2.152   3.947   3.431 -2.2872  2.0252  1.2492
 2068SOL    MW4 8347   2.216   3.992   3.469 -0.3953  0.4137  0.0377
 2069SOL     OW 8348   2.252   4.255   3.405 -0.2808  0.2364  0.5229
 2069SOL    HW2 8349   2.180   4.316   3.423  0.5037  1.6117 -0.9383
 2069SOL    HW3 8350   2.257   4.250   3.310  1.6761  0.2779  0.6104
 2069SOL    MW4 8351   2.243   4.262   3.395  0.0808  0.4230  0.3414
 2070SOL     OW 8352   2.470   4.394   3.492 -0.2494  0.4615  0.0394
 2070SOL    HW2 8353   2.458   4.404   3.587 -0.6179  1.5727 -0.1191
 2070SOL    HW3 8354   2.393   4.345   3.464  1.0174 -1.9580  0.6528
 2070SOL    MW4 8355   2.458   4.389   3.501 -0.1309  0.2890  0.0994
 2071SOL     OW 8356   2.941   0.006   3.437  0.1894 -0.3932  0.3353
 2071SOL    HW2 8357   2.855   0.044   3.459 -0.6995 -0.6454 -2.5377
 2071SOL    HW3 8358   2.936  -0.084   3.468 -0.0675 -0.0231  1.3991
 2071SOL    MW4 8359   2.929  -0.001   3.444  0.0384 -0.3777  0.0963
 2072SOL     OW 8360   2.693   0.122   3.507 -0.0453 -0.1379  0.2199
 2072SOL    HW2 8361   2.688   0.217   3.493  1.2434 -0.3202 -1.6880
 2072SOL    HW3 8362   2.619   0.087   3.459 -0.2118 -0.1474  0.4819
 2072SOL    MW4 8363   2.683   0.130   3.499  0.1028 -0.1632  0.0029
 2073SOL     OW 8364   2.671   0.395   3.439  0.0627 -0.2700  0.1059
 2073SOL    HW2 8365   2.759   0.426   3.459  0.4817 -1.2082 -0.2348
 2073SOL    HW3 8366   2.668   0.391   3.343 -0.8790  1.2513  0.0604
 2073SOL    MW4 8367   2.682   0.398   3.429 -0.0062 -0.1931  0.0551
 2074SOL     OW 8368   2.903   0.513   3.489 -0.2719 -0.2335  0.3820
 2074SOL    HW2 8369   2.928   0.509   3.582  0.2912  0.3555  0.2567
 2074SOL    HW3 8370   2.899   0.607   3.470 -0.7492 -0.3519 -0.0938
 2074SOL    MW4 8371   2.906   0.525   3.499 -0.2608 -0.1715  0.3026
 2075SOL     OW 8372   2.891   0.782   3.365 -0.3020 -0.5133  0.4517
 2075SOL    HW2 8373   2.951   0.830   3.421 -0.6990  0.3772  0.1213
 2075SOL    HW3 8374   2.805   0.820   3.382 -0.3147  0.2939 -1.3023
 2075SOL    MW4 8375   2.888   0.793   3.374 -0.3560 -0.2894  0.1764
 2076SOL     OW 8376   2.649   0.924   3.488  0.1541  0.1106 -0.0449
 2076SOL    HW2 8377   2.655   0.926   3.584  0.4361 -0.7940 -0.0423
 2076SOL    HW3 8378   2.642   1.016   3.463  0.4850  0.3779  0.8194
 2076SOL    MW4 8379   2.649   0.937   3.498  0.2348  0.0265  0.0694
 2077SOL     OW 8380   2.644   1.179   3.398  0.4630 -0.3221  0.0900
 2077SOL    HW2 8381   2.728   1.200   3.441  0.3998 -0.5945  0.3538
 2077SOL    HW3 8382   2.669   1.151   3.310  0.5599  0.6686 -0.2058
 2077SOL    MW4 8383   2.658   1.178   3.392  0.4675 -0.2275  0.0858
 2078SOL     OW 8384   2.880   1.268   3.513  0.0267 -0.1218  0.0013
 2078SOL    HW2 8385   2.893   1.252   3.607 -0.6744 -0.0465  0.1182
 2078SOL    HW3 8386   2.958   1.231   3.471  0.5498  0.2399  0.6468
 2078SOL    MW4 8387   2.892   1.261   3.520  0.0033 -0.0643  0.1016
 2079SOL     OW 8388   2.930   1.539   3.420  0.0885 -0.1858  0.1753
 2079SOL    HW2 8389   2.852   1.591   3.438  1.0317  0.6828  1.9387
 2079SOL    HW3 8390   2.913   1.455   3.463  0.0027 -0.0971  0.3160
 2079SOL    MW4 8391   2.918   1.534   3.428  0.2019 -0.0596  0.4265
 2080SOL     OW 8392   2.719   1.687   3.514  0.2794  0.5750  0.3148
 2080SOL    HW2 8393   2.701   1.770   3.470 -2.0185 -0.2289 -0.3265
 2080SOL    HW3 8394   2.655   1.626   3.477  0.3858 -0.9013  2.4845
 2080SOL    MW4 8395   2.708   1.690   3.503 -0.0100  0.2742  0.5167
 2081SOL     OW 8396   2.664   1.923   3.380  0.4591 -0.0802 -0.2870
 2081SOL    HW2 8397   2.581   1.966   3.401  0.5833 -0.0166  0.0605
 2081SOL    HW3 8398   2.674   1.937   3.286  0.3453  0.3764 -0.2308
 2081SOL    MW4 8399   2.654   1.930   3.370  0.4604 -0.0114 -0.2337
 2082SOL     OW 8400   2.892   2.047   3.470  0.0613 -0.8151  0.4612
 2082SOL    HW2 8401   2.882   2.042   3.565 -1.8707 -0.0852  0.3218
 2082SOL    HW3 8402   2.818   1.998   3.435  0.2773 -0.3502 -0.6761
 2082SOL    MW4 8403   2.881   2.040   3.478 -0.1650 -0.6576  0.2928
 2083SOL     OW 8404   2.876   2.307   3.408 -0.2373 -0.1351 -0.3232
 2083SOL    HW2 8405   2.883   2.216   3.435 -0.0422 -0.2012 -0.5996
 2083SOL    HW3 8406   2.889   2.306   3.313 -0.2537  0.1763 -0.3317
 2083SOL    MW4 8407   2.878   2.295   3.399 -0.2136 -0.1030 -0.3610
 2084SOL     OW 8408   2.478   2.289   3.897 -0.3136 -0.1437  0.1480
 2084SOL    HW2 8409   2.548   2.344   3.861  0.6016 -0.3311  1.5961
 2084SOL    HW3 8410   2.490   2.204   3.855  1.0983 -0.5247  1.2773
 2084SOL    MW4 8411   2.489   2.285   3.887 -0.0069 -0.2186  0.4883
 2085SOL     OW 8412   2.665   2.722   3.389 -0.0497 -0.1641 -0.1849
 2085SOL    HW2 8413   2.654   2.633   3.422 -0.7067 -0.1825 -0.4395
 2085SOL    HW3 8414   2.620   2.777   3.453  0.1599 -0.0379 -0.1462
 2085SOL    MW4 8415   2.657   2.718   3.402 -0.1087 -0.1500 -0.2136
 2086SOL     OW 8416   2.926   2.798   3.475  0.3850 -0.2884  0.3267
 2086SOL    HW2 8417   2.935   2.813   3.570 -0.2383 -2.7226  0.7954
 2086SOL    HW3 8418   2.835   2.773   3.463  0.2537  0.8191 -1.0588
 2086SOL    MW4 8419   2.915   2.797   3.486  0.2856 -0.4635  0.2058
 2087SOL     OW 8420   2.880   3.054   3.399  0.0489  0.4363 -0.2013
 2087SOL    HW2 8421   2.888   2.962   3.423  0.1900  0.8182  1.2325
 2087SOL    HW3 8422   2.959   3.095   3.433 -1.3762  1.6265  1.7732
 2087SOL    MW4 8423   2.891   3.047   3.407 -0.1204  0.6437  0.2484
 2088SOL     OW 8424   2.684   3.237   3.469 -0.1931  0.1775  0.1639
 2088SOL    HW2 8425   2.663   3.241   3.562  0.8555 -0.4077  0.4284
 2088SOL    HW3 8426   2.757   3.176   3.463  0.1705  0.7075 -0.9651
 2088SOL    MW4 8427   2.691   3.230   3.481 -0.0067  0.1702  0.0496
 2089SOL     OW 8428   2.704   3.496   3.368 -0.0060  0.0130  0.4770
 2089SOL    HW2 8429   2.694   3.413   3.414 -1.8323  0.6786  1.3077
 2089SOL    HW3 8430   2.628   3.548   3.394  0.9404  1.8323 -0.2898
 2089SOL    MW4 8431   2.692   3.492   3.377 -0.1221  0.3412  0.4857
 2090SOL     OW 8432   2.918   3.636   3.454 -0.3412 -0.3141  0.4212
 2090SOL    HW2 8433   2.912   3.728   3.428  0.4128 -0.4683 -0.3098
 2090SOL    HW3 8434   2.834   3.598   3.425 -0.4122  0.0110  0.2007
 2090SOL    MW4 8435   2.906   3.643   3.447 -0.2508 -0.2916  0.2956
 2091SOL     OW 8436   2.904   3.900   3.384 -0.0285 -0.3608 -0.4009
 2091SOL    HW2 8437   2.985   3.939   3.418  0.5649 -1.0073 -1.0244
 2091SOL    HW3 8438   2.836   3.930   3.443  0.6805  0.1742  0.1596
 2091SOL    MW4 8439   2.906   3.909   3.396  0.1435 -0.3753 -0.4091
 2092SOL     OW 8440   2.669   3.985   3.498  0.2488  0.2556  0.3133
 2092SOL    HW2 8441   2.667   3.996   3.593 -0.5974 -1.6778  0.5474
 2092SOL    HW3 8442   2.678   4.074   3.464 -0.9059  1.1182  2.1583
 2092SOL    MW4 8443   2.670   3.998   3.506 -0.0153  0.1142  0.5877
 2093SOL     OW 8444   2.686   4.249   3.414  0.3320  0.0684  0.6471
 2093SOL    HW2 8445   2.752   4.308   3.452 -0.1974  1.7492 -0.9738
 2093SOL    HW3 8446   2.603   4.285   3.443  0.0195 -0.2105  0.0967
 2093SOL    MW4 8447   2.684   4.261   3.423  0.2210  0.2537  0.3607
 2094SOL     OW 8448   2.907   4.413   3.499 -0.2419  0.1873 -0.3164
 2094SOL    HW2 8449   2.979   4.366   3.458  0.7106  0.4025  1.0659
 2094SOL    HW3 8450   2.905   4.381   3.589 -1.6198  0.4870 -0.2186
 2094SOL    MW4 8451   2.916   4.403   3.505 -0.2978  0.2551 -0.1211
 2095SOL     OW 8452   3.372   4.644   3.433 -0.1841 -0.3876 -0.3800
 2095SOL    HW2 8453   3.285   4.675   3.458  0.1216  0.8143 -0.7745
 2095SOL    HW3 8454   3.371   4.644   3.337 -0.3103 -1.9815 -0.3838
 2095SOL    MW4 8455   3.361   4.648   3.424 -0.1605 -0.4393 -0.4325
 2096SOL     OW 8456   3.162   0.129   3.536  0.1935  0.0854  0.2147
 2096SOL    HW2 8457   3.166   0.214   3.491  0.9024 -0.7266 -1.2826
 2096SOL    HW3 8458   3.078   0.092   3.510  0.0307  0.1810  0.6015
 2096SOL    MW4 8459   3.152   0.136   3.526  0.2656 -0.0091  0.0682
 2097SOL     OW 8460   3.144   0.408   3.412 -0.1454  0.2823 -0.0131
 2097SOL    HW2 8461   3.071   0.469   3.420 -0.1822  0.1452  0.7044
 2097SOL    HW3 8462   3.142   0.381   3.320 -0.8149  0.5103 -0.0710
 2097SOL    MW4 8463   3.134   0.412   3.400 -0.2384  0.2943  0.0739
 2098SOL     OW 8464   3.383   0.484   3.502 -0.2203 -0.1062  0.4279
 2098SOL    HW2 8465   3.374   0.473   3.597  0.2431  0.0853  0.4954
 2098SOL    HW3 8466   3.297   0.462   3.467 -0.5059  0.1969  0.9304
 2098SOL    MW4 8467   3.371   0.480   3.510 -0.1969 -0.0409  0.5033
 2099SOL     OW 8468   3.359   0.746   3.425  0.0400 -0.1202 -0.3529
 2099SOL    HW2 8469   3.440   0.794   3.441 -0.3245  0.6052 -0.6517
 2099SOL    HW3 8470   3.373   0.660   3.466  0.0275  0.8531  1.7507
 2099SOL    MW4 8471   3.371   0.741   3.432 -0.0098  0.1040 -0.1149
 2100SOL     OW 8472   3.126   0.885   3.517 -0.3261 -0.4009  0.3302
 2100SOL    HW2 8473   3.140   0.975   3.486 -0.9725  0.0835  1.4101
 2100SOL    HW3 8474   3.208   0.840   3.498  0.5620  0.8284  1.1653
 2100SOL    MW4 8475   3.139   0.891   3.511 -0.2942 -0.1748  0.5827
 2101SOL     OW 8476   3.127   1.151   3.418  0.1747 -0.4953  0.0889
 2101SOL    HW2 8477   3.208   1.185   3.456  0.7071 -2.1216  0.4329
 2101SOL    HW3 8478   3.135   1.167   3.324 -0.1233  1.4152  0.3705
 2101SOL    MW4 8479   3.138   1.158   3.410  0.2060 -0.4576  0.1714
 2102SOL     OW 8480   3.361   1.293   3.518 -0.1199 -0.2281  0.0619
 2102SOL    HW2 8481   3.443   1.258   3.483  1.2489  2.2601  0.7117
 2102SOL    HW3 8482   3.359   1.384   3.489 -0.6294  0.9211  3.5053
 2102SOL    MW4 8483   3.372   1.300   3.509 -0.0064  0.2519  0.6020
 2103SOL     OW 8484   3.355   1.540   3.407  0.0606 -0.7438 -0.3767
 2103SOL    HW2 8485   3.437   1.580   3.437  0.1564 -1.2891  0.1069
 2103SOL    HW3 8486   3.286   1.596   3.443  0.1921 -1.0294  0.3362
 2103SOL    MW4 8487   3.357   1.553   3.416  0.0906 -0.8534 -0.2191
 2104SOL     OW 8488   3.148   1.689   3.503 -0.1818  0.2244  0.2732
 2104SOL    HW2 8489   3.067   1.642   3.483 -0.1373 -0.2170  1.1438
 2104SOL    HW3 8490   3.141   1.770   3.452 -0.3951 -0.5743 -0.9860
 2104SOL    MW4 8491   3.137   1.694   3.493 -0.2041  0.0607  0.2220
 2105SOL     OW 8492   3.131   1.924   3.369 -0.0425 -0.7025 -0.4309
 2105SOL    HW2 8493   3.065   1.980   3.410  0.1773  0.4301 -1.6007
 2105SOL    HW3 8494   3.215   1.958   3.400  0.0948 -0.2841 -1.2308
 2105SOL    MW4 8495   3.133   1.936   3.379  0.0048 -0.4979 -0.6909
 2106SOL     OW 8496   3.368   2.001   3.469  0.1230 -0.0926  0.3279
 2106SOL    HW2 8497   3.371   2.011   3.564  0.4929 -0.8233  0.3952
 2106SOL    HW3 8498   3.364   2.090   3.435 -0.9415  0.1529  1.0652
 2106SOL    MW4 8499   3.368   2.014   3.477  0.0315 -0.1569  0.4342
 2107SOL     OW 8500   3.337   2.266   3.401 -0.5719  0.2562 -0.3641
 2107SOL    HW2 8501   3.412   2.321   3.424 -1.0951  0.4315  0.9784
 2107SOL    HW3 8502   3.266   2.297   3.459 -1.3484 -0.6783 -0.8070
 2107SOL    MW4 8503   3.337   2.277   3.412 -0.7429  0.1559 -0.2453
 2108SOL     OW 8504   3.117   2.392   3.544  0.2322 -0.2573 -0.1043
 2108SOL    HW2 8505   3.127   2.476   3.498  0.5201  0.3803  1.1134
 2108SOL    HW3 8506   3.034   2.357   3.511  0.4186  0.2113 -1.0854
 2108SOL    MW4 8507   3.107   2.399   3.534  0.2949 -0.1118 -0.0730
 2109SOL     OW 8508   3.133   2.622   3.396  0.5636  0.1747 -0.1369
 2109SOL    HW2 8509   3.200   2.685   3.422 -0.2801  0.2884  1.9037
 2109SOL    HW3 8510   3.051   2.672   3.400  0.1528 -0.4398 -0.7926
 2109SOL    MW4 8511   3.131   2.637   3.400  0.3979  0.1085  0.0458
 2110SOL     OW 8512   3.353   2.786   3.451 -0.1055 -0.3374 -0.1654
 2110SOL    HW2 8513   3.435   2.748   3.418  0.5096  1.1484 -0.3989
 2110SOL    HW3 8514   3.358   2.776   3.546  0.1331 -0.6825 -0.2142
 2110SOL    MW4 8515   3.364   2.780   3.459  0.0072 -0.1869 -0.2027
 2111SOL     OW 8516   3.357   3.089   3.405 -0.0950  0.2882 -0.5261
 2111SOL    HW2 8517   3.349   2.995   3.424  0.3923  0.2683 -0.4071
 2111SOL    HW3 8518   3.276   3.127   3.439  0.2933  0.0987  0.6295
 2111SOL    MW4 8519   3.345   3.081   3.412  0.0207  0.2606 -0.3579
 2112SOL     OW 8520   3.109   3.212   3.456  0.2877  0.1410  0.5487
 2112SOL    HW2 8521   3.129   3.229   3.548  0.0010  0.5957  0.5266
 2112SOL    HW3 8522   3.109   3.298   3.415  1.6246 -0.1570 -0.1212
 2112SOL    MW4 8523   3.112   3.225   3.463  0.4263  0.1614  0.4575
 2113SOL     OW 8524   3.145   3.471   3.347  0.0552  0.2244 -0.4145
 2113SOL    HW2 8525   3.074   3.525   3.383  1.1493  0.4840  1.4416
 2113SOL    HW3 8526   3.224   3.507   3.388  1.1447 -0.6812 -1.7145
 2113SOL    MW4 8527   3.146   3.483   3.358  0.3433  0.1392 -0.3409
 2114SOL     OW 8528   3.346   3.577   3.502  0.2785 -0.0763  0.3030
 2114SOL    HW2 8529   3.423   3.538   3.462 -0.1824 -2.0072  1.2458
 2114SOL    HW3 8530   3.359   3.566   3.596 -0.7988  0.2243  0.5027
 2114SOL    MW4 8531   3.358   3.570   3.509  0.0756 -0.2916  0.4539
 2115SOL     OW 8532   3.352   3.835   3.381  0.3172 -0.1987  0.1704
 2115SOL    HW2 8533   3.436   3.872   3.409  0.3579 -0.3467  0.2402
 2115SOL    HW3 8534   3.345   3.752   3.428  0.7883 -0.8620 -0.9029
 2115SOL    MW4 8535   3.362   3.829   3.391  0.3848 -0.3059  0.0379
 2116SOL     OW 8536   3.142   3.970   3.508  0.2379 -0.1753  0.0653
 2116SOL    HW2 8537   3.144   3.951   3.602  0.5945 -1.5158 -0.2142
 2116SOL    HW3 8538   3.222   3.931   3.474 -0.0928 -0.0456 -0.8683
 2116SOL    MW4 8539   3.153   3.963   3.516  0.2410 -0.3352 -0.0949
 2117SOL     OW 8540   3.117   4.239   3.429 -0.3602  0.1245  0.0894
 2117SOL    HW2 8541   3.184   4.299   3.460 -0.2584  0.4274 -0.7122
 2117SOL    HW3 8542   3.135   4.157   3.475  0.3851  0.2917  0.0970
 2117SOL    MW4 8543   3.128   4.236   3.439 -0.2484  0.1869 -0.0157
 2118SOL     OW 8544   3.338   4.377   3.502 -0.3072 -0.2979 -0.0044
 2118SOL    HW2 8545   3.343   4.384   3.598  1.0226 -1.0026 -0.0011
 2118SOL    HW3 8546   3.358   4.465   3.470 -2.0500  0.2477  0.3941
 2118SOL    MW4 8547   3.342   4.389   3.511 -0.3617 -0.3185  0.0486
 2119SOL     OW 8548   3.844   4.643   3.399 -0.4804 -0.3283 -0.2774
 2119SOL    HW2 8549   3.769   4.671   3.451  0.9773  3.0844  0.1173
 2119SOL    HW3 8550   3.821   4.668   3.309 -0.1563  0.0203 -0.2653
 2119SOL    MW4 8551   3.831   4.650   3.394 -0.2451  0.1678 -0.2236
 2120SOL     OW 8552   3.631   0.092   3.517 -0.1585 -0.5448 -0.0106
 2120SOL    HW2 8553   3.627   0.172   3.466  1.5834 -0.7871 -0.5717
 2120SOL    HW3 8554   3.549   0.047   3.498 -0.9867  0.9202  0.0331
 2120SOL    MW4 8555   3.620   0.096   3.508 -0.0381 -0.3835 -0.0789
 2121SOL     OW 8556   3.585   0.347   3.375  0.4253 -0.3882  0.4811
 2121SOL    HW2 8557   3.655   0.406   3.403  0.5353  0.1954 -0.9656
 2121SOL    HW3 8558   3.504   0.389   3.404  0.5710 -0.0733  0.4309
 2121SOL    MW4 8559   3.584   0.360   3.382  0.4590 -0.2696  0.2832
 2122SOL     OW 8560   3.806   0.506   3.468  0.1739  0.5046 -0.1932
 2122SOL    HW2 8561   3.813   0.486   3.561  1.2759  0.5768 -0.2562
 2122SOL    HW3 8562   3.877   0.457   3.427 -1.7875 -1.5144 -1.3432
 2122SOL    MW4 8563   3.816   0.497   3.475  0.0606  0.2477 -0.3533
 2123SOL     OW 8564   3.807   0.774   3.411 -0.3904  0.7333 -0.5037
 2123SOL    HW2 8565   3.886   0.809   3.452  1.2290 -0.5292 -2.5153
 2123SOL    HW3 8566   3.805   0.682   3.436 -1.7501  0.9393  0.2683
 2123SOL    MW4 8567   3.817   0.767   3.420 -0.3560  0.5938 -0.6673
 2124SOL     OW 8568   3.573   0.897   3.492  0.3342 -0.1252  0.0113
 2124SOL    HW2 8569   3.581   0.880   3.586  1.1898  0.2091 -0.0021
 2124SOL    HW3 8570   3.656   0.867   3.455  0.5974  1.1448 -0.4431
 2124SOL    MW4 8571   3.585   0.890   3.499  0.4821  0.0865 -0.0505
 2125SOL     OW 8572   3.605   1.178   3.435 -0.1283 -0.0534  0.2890
 2125SOL    HW2 8573   3.591   1.090   3.469  1.0693 -0.0385  0.8677
 2125SOL    HW3 8574   3.592   1.170   3.340  0.4549 -0.9634  0.2778
 2125SOL    MW4 8575   3.602   1.166   3.427  0.1066 -0.1715  0.3641
 2126SOL     OW 8576   3.813   1.317   3.523 -0.2293  0.1762 -0.0201
 2126SOL    HW2 8577   3.817   1.319   3.618 -0.3669  1.2137 -0.0268
 2126SOL    HW3 8578   3.731   1.270   3.503  0.7388 -1.7016  0.3341
 2126SOL    MW4 8579   3.803   1.311   3.533 -0.1199  0.0653  0.0257
 2127SOL     OW 8580   3.822   1.545   3.373  0.1627  0.4018 -0.4656
 2127SOL    HW2 8581   3.904   1.589   3.398 -0.4282  1.2806 -0.0518
 2127SOL    HW3 8582   3.830   1.457   3.410  1.4545  0.0702 -1.4903
 2127SOL    MW4 8583   3.834   1.539   3.381  0.2551  0.4741 -0.5462
 2128SOL     OW 8584   3.595   1.657   3.464  0.2718 -0.5171 -0.0801
 2128SOL    HW2 8585   3.603   1.746   3.431  0.5815 -1.1249 -1.6753
 2128SOL    HW3 8586   3.672   1.611   3.429 -0.0921 -1.5155  0.4062
 2128SOL    MW4 8587   3.606   1.662   3.455  0.2649 -0.7291 -0.2263
 2129SOL     OW 8588   3.609   1.908   3.356 -0.2307  0.0076  0.0234
 2129SOL    HW2 8589   3.528   1.929   3.401  0.3516 -2.1263  2.1879
 2129SOL    HW3 8590   3.677   1.957   3.403  0.1408 -0.7423  0.2742
 2129SOL    MW4 8591   3.607   1.917   3.368 -0.1051 -0.3729  0.3417
 2130SOL     OW 8592   3.833   2.016   3.472  0.1563 -0.8203 -0.6903
 2130SOL    HW2 8593   3.839   2.020   3.567 -0.3438  1.3631 -0.7215
 2130SOL    HW3 8594   3.913   1.970   3.445  1.4210  0.5228  0.6737
 2130SOL    MW4 8595   3.845   2.010   3.481  0.2570 -0.3552 -0.5143
 2131SOL     OW 8596   3.785   2.289   3.343  0.1488  0.3263 -0.8162
 2131SOL    HW2 8597   3.781   2.203   3.384 -1.8464  0.4053 -0.7930
 2131SOL    HW3 8598   3.853   2.335   3.392  0.0981 -0.6891  0.2479
 2131SOL    MW4 8599   3.793   2.284   3.355 -0.1211  0.2027 -0.6728
 2132SOL     OW 8600   3.571   2.411   3.459  0.3462 -0.3392 -0.2779
 2132SOL    HW2 8601   3.647   2.369   3.419  1.1456 -0.3208  1.1879
 2132SOL    HW3 8602   3.576   2.502   3.431 -0.2821 -0.7799 -1.8464
 2132SOL    MW4 8603   3.582   2.417   3.450  0.3688 -0.3948 -0.2913
 2133SOL     OW 8604   3.597   2.682   3.374  0.0334 -0.2345  0.2745
 2133SOL    HW2 8605   3.678   2.713   3.415 -0.4465  0.0965  0.9847
 2133SOL    HW3 8606   3.614   2.686   3.280  0.4806  0.7947  0.3986
 2133SOL    MW4 8607   3.610   2.686   3.367  0.0288 -0.0551  0.3846
 2134SOL     OW 8608   3.814   2.820   3.460 -0.1887 -0.5666  0.2073
 2134SOL    HW2 8609   3.808   2.836   3.554  0.8618 -1.4349  0.4405
 2134SOL    HW3 8610   3.822   2.907   3.420 -0.7192 -0.1956  0.9140
 2134SOL    MW4 8611   3.814   2.833   3.467 -0.1199 -0.6323  0.3312
 2135SOL     OW 8612   3.837   3.075   3.308 -0.5041 -0.5435 -0.1063
 2135SOL    HW2 8613   3.907   3.121   3.354 -0.2254 -1.9088  0.8630
 2135SOL    HW3 8614   3.757   3.108   3.348 -0.2842 -1.2585  0.9526
 2135SOL    MW4 8615   3.836   3.085   3.320 -0.4382 -0.8180  0.1614
 2136SOL     OW 8616   3.620   3.189   3.430  0.0537 -0.5565  0.5418
 2136SOL    HW2 8617   3.534   3.147   3.429 -1.2517  1.9753  1.7120
 2136SOL    HW3 8618   3.638   3.205   3.523  1.6160 -0.7218  0.2759
 2136SOL    MW4 8619   3.611   3.186   3.442  0.0877 -0.2441  0.6611
 2137SOL     OW 8620   3.548   3.440   3.365 -0.1568  0.4207 -0.1555
 2137SOL    HW2 8621   3.565   3.348   3.383 -2.4535  0.1023  0.6261
 2137SOL    HW3 8622   3.558   3.449   3.271  3.1770  0.1022  0.1125
 2137SOL    MW4 8623   3.551   3.429   3.355 -0.0200  0.3366 -0.0172
 2138SOL     OW 8624   3.781   3.596   3.455 -0.0714 -0.5871 -0.4662
 2138SOL    HW2 8625   3.703   3.543   3.439 -0.3209 -0.2660 -0.3317
 2138SOL    HW3 8626   3.799   3.586   3.548 -0.2485 -0.2658 -0.3951
 2138SOL    MW4 8627   3.773   3.588   3.465 -0.1276 -0.5026 -0.4392
 2139SOL     OW 8628   3.779   3.861   3.347 -0.2265  0.4103  0.6766
 2139SOL    HW2 8629   3.707   3.912   3.384 -1.8689 -0.1705 -1.6233
 2139SOL    HW3 8630   3.769   3.774   3.387  0.0163  0.6899  1.3596
 2139SOL    MW4 8631   3.769   3.856   3.357 -0.4115  0.3703  0.4632
 2140SOL     OW 8632   3.563   3.972   3.491  0.0966  0.1327  0.3765
 2140SOL    HW2 8633   3.566   3.964   3.587 -0.4285 -0.3042  0.3565
 2140SOL    HW3 8634   3.567   4.067   3.476 -0.8654  0.2678  0.8811
 2140SOL    MW4 8635   3.564   3.984   3.502 -0.0997  0.0930  0.4404
 2141SOL     OW 8636   3.578   4.277   3.448  0.2090 -0.4168 -0.2705
 2141SOL    HW2 8637   3.489   4.308   3.459 -0.1661 -0.9363 -1.6734
 2141SOL    HW3 8638   3.586   4.260   3.354  1.5876 -0.9508 -0.0743
 2141SOL    MW4 8639   3.568   4.279   3.437  0.3417 -0.5555 -0.4296
 2142SOL     OW 8640   3.842   4.378   3.503  0.0884 -0.2322 -0.5802
 2142SOL    HW2 8641   3.750   4.359   3.490 -0.1158 -1.3825  2.2349
 2142SOL    HW3 8642   3.856   4.460   3.455 -2.2544 -0.2901 -1.4376
 2142SOL    MW4 8643   3.832   4.387   3.495 -0.2480 -0.3910 -0.3216
 2143SOL     OW 8644   4.291   4.617   3.328 -0.1361  0.0248 -0.2581
 2143SOL    HW2 8645   4.278   4.528   3.361  2.2352 -0.3936 -0.3365
 2143SOL    HW3 8646   4.348   4.658   3.393 -0.0864  1.0399 -0.9393
 2143SOL    MW4 8647   4.297   4.611   3.341  0.1836  0.1040 -0.3583
 2144SOL     OW 8648   4.072   0.116   3.433  0.2524 -0.1321  0.4344
 2144SOL    HW2 8649   4.138   0.057   3.397 -0.2403  0.5157 -1.6239
 2144SOL    HW3 8650   3.989   0.074   3.411 -0.0643  0.2734  0.8514
 2144SOL    MW4 8651   4.070   0.102   3.425  0.1454  0.0069  0.2179
 2145SOL     OW 8652   4.020   0.378   3.349  0.1464  0.4838 -0.0041
 2145SOL    HW2 8653   4.038   0.286   3.368 -2.4119  0.0380  0.4632
 2145SOL    HW3 8654   4.015   0.382   3.253  1.3446  0.3665 -0.0753
 2145SOL    MW4 8655   4.021   0.366   3.339 -0.0334  0.4095  0.0482
 2146SOL     OW 8656   4.235   0.493   3.474  0.7854  0.7662 -0.3647
 2146SOL    HW2 8657   4.241   0.582   3.440 -1.2082  0.7910 -0.7280
 2146SOL    HW3 8658   4.148   0.463   3.447  1.1640 -1.0473  0.3419
 2146SOL    MW4 8659   4.224   0.500   3.466  0.5722  0.5302 -0.3195
 2147SOL     OW 8660   4.221   0.769   3.390 -0.2967 -0.1005  0.5896
 2147SOL    HW2 8661   4.303   0.813   3.415  1.2722 -2.1764 -0.6762
 2147SOL    HW3 8662   4.220   0.774   3.294 -0.8356 -1.5083  0.5140
 2147SOL    MW4 8663   4.232   0.776   3.381 -0.1607 -0.5601  0.4127
 2148SOL     OW 8664   4.011   0.899   3.533 -0.0420 -0.5794 -0.2896
 2148SOL    HW2 8665   4.010   0.986   3.493 -0.5223 -0.7896 -0.7493
 2148SOL    HW3 8666   4.086   0.855   3.493  0.2978 -0.3214  0.0646
 2148SOL    MW4 8667   4.021   0.904   3.522 -0.0606 -0.5731 -0.3037
 2149SOL     OW 8668   3.984   1.144   3.404  0.4535 -0.3272 -0.2617
 2149SOL    HW2 8669   4.068   1.185   3.424 -0.0035  1.3530 -1.6869
 2149SOL    HW3 8670   3.920   1.192   3.457 -0.0342  0.6233 -1.6771
 2149SOL    MW4 8671   3.987   1.156   3.414  0.3290  0.0198 -0.6363
 2150SOL     OW 8672   4.249   1.246   3.518  0.3452 -0.2574 -0.0809
 2150SOL    HW2 8673   4.247   1.333   3.479 -0.0514 -0.2064  0.0443
 2150SOL    HW3 8674   4.326   1.204   3.481  0.8904  0.3662  0.3370
 2150SOL    MW4 8675   4.259   1.252   3.508  0.3648 -0.1683 -0.0093
 2151SOL     OW 8676   4.284   1.491   3.375  0.1722 -0.0220  0.0424
 2151SOL    HW2 8677   4.203   1.533   3.404 -0.3300  0.2905 -1.7530
 2151SOL    HW3 8678   4.292   1.516   3.283  1.6308 -1.1276 -0.1465
 2151SOL    MW4 8679   4.274   1.500   3.367  0.2985 -0.1266 -0.2198
 2152SOL     OW 8680   4.067   1.644   3.458  0.1250 -0.3067 -0.3049
 2152SOL    HW2 8681   4.065   1.641   3.553 -0.1853  1.2108 -0.2543
 2152SOL    HW3 8682   4.061   1.737   3.436  1.3174 -0.5488 -1.7781
 2152SOL    MW4 8683   4.066   1.656   3.467  0.2422 -0.1384 -0.4926
 2153SOL     OW 8684   4.048   1.895   3.367 -0.4699  0.3595  0.0520
 2153SOL    HW2 8685   4.111   1.957   3.405 -2.3966  1.8064  0.9408
 2153SOL    HW3 8686   4.052   1.912   3.273  0.8210  0.0873  0.0413
 2153SOL    MW4 8687   4.057   1.905   3.360 -0.5536  0.5144  0.1678
 2154SOL     OW 8688   4.234   2.066   3.465 -0.0591  0.7995  0.0624
 2154SOL    HW2 8689   4.259   2.153   3.435 -0.3592  0.4135 -1.3048
 2154SOL    HW3 8690   4.309   2.010   3.445 -0.2181  0.5604  0.1250
 2154SOL    MW4 8691   4.247   2.070   3.459 -0.1197  0.7169 -0.1094
 2155SOL     OW 8692   4.285   2.318   3.380 -0.5185 -0.1427 -0.2562
 2155SOL    HW2 8693   4.194   2.337   3.401 -0.1844  0.2391  0.9128
 2155SOL    HW3 8694   4.287   2.311   3.285 -1.5505  1.0369 -0.3842
 2155SOL    MW4 8695   4.274   2.320   3.370 -0.6108  0.0632 -0.1187
 2156SOL     OW 8696   4.028   2.422   3.452  0.1603  0.1771  0.2237
 2156SOL    HW2 8697   4.030   2.429   3.548  0.3964  1.3916  0.1391
 2156SOL    HW3 8698   4.050   2.510   3.421  1.9119 -0.6360 -0.9498
 2156SOL    MW4 8699   4.031   2.434   3.461  0.4230  0.2301  0.0579
 2157SOL     OW 8700   4.063   2.689   3.356 -0.3312  0.3111 -0.2649
 2157SOL    HW2 8701   4.131   2.746   3.392 -0.5754 -0.2792  1.1403
 2157SOL    HW3 8702   3.981   2.724   3.391 -0.5712 -0.2383 -0.2758
 2157SOL    MW4 8703   4.061   2.701   3.365 -0.3953  0.1609 -0.0811
 2158SOL     OW 8704   4.254   2.844   3.480 -0.1599 -0.2496  0.1987
 2158SOL    HW2 8705   4.248   2.835   3.575  1.5750  2.1595  0.5761
 2158SOL    HW3 8706   4.340   2.809   3.458  0.5288  1.6275 -0.1401
 2158SOL    MW4 8707   4.264   2.838   3.489  0.1593  0.3159  0.2038
 2159SOL     OW 8708   4.302   3.104   3.406  0.0591  0.3028 -0.3839
 2159SOL    HW2 8709   4.292   3.013   3.433 -0.8644  0.2781 -0.7644
 2159SOL    HW3 8710   4.299   3.101   3.310  2.2987  0.4935 -0.4855
 2159SOL    MW4 8711   4.300   3.092   3.397  0.2327  0.3247 -0.4475
 2160SOL     OW 8712   4.042   3.207   3.458 -0.4296  0.2664 -0.1249
 2160SOL    HW2 8713   4.033   3.297   3.427 -0.6735  0.6342  1.0046
 2160SOL    HW3 8714   4.134   3.186   3.445 -0.0763  1.1615  0.9049
 2160SOL    MW4 8715   4.053   3.216   3.452 -0.4148  0.4330  0.1597
 2161SOL     OW 8716   4.003   3.473   3.319 -0.2687 -0.1578 -0.0590
 2161SOL    HW2 8717   4.082   3.503   3.363  0.0891 -0.9257 -0.1564
 2161SOL    HW3 8718   3.931   3.510   3.369  0.1458 -0.1537  0.5366
 2161SOL    MW4 8719   4.004   3.481   3.331 -0.1669 -0.2587  0.0064
 2162SOL     OW 8720   4.205   3.595   3.470  0.0303  0.0843 -0.7076
 2162SOL    HW2 8721   4.209   3.610   3.564 -0.2215 -0.0401 -0.6758
 2162SOL    HW3 8722   4.199   3.682   3.431 -0.9166  0.0988 -0.5521
 2162SOL    MW4 8723   4.205   3.608   3.477 -0.1278  0.0699 -0.6831
 2163SOL     OW 8724   4.208   3.862   3.390  0.0935  0.4792 -0.0810
 2163SOL    HW2 8725   4.286   3.907   3.423  1.2295 -1.5590  0.0538
 2163SOL    HW3 8726   4.217   3.863   3.295  0.4586 -0.0622 -0.0522
 2163SOL    MW4 8727   4.220   3.868   3.382  0.2913  0.1388 -0.0594
 2164SOL     OW 8728   3.973   3.979   3.497 -0.0157  0.0029 -0.2930
 2164SOL    HW2 8729   3.899   3.937   3.452 -0.0203  0.5977 -0.8567
 2164SOL    HW3 8730   4.050   3.936   3.461 -0.1184 -1.3096  1.0223
 2164SOL    MW4 8731   3.973   3.968   3.486 -0.0298 -0.0916 -0.1938
 2165SOL     OW 8732   4.049   4.228   3.393  0.0636  0.2075  0.0316
 2165SOL    HW2 8733   4.038   4.136   3.417 -0.0476 -0.0950 -1.1359
 2165SOL    HW3 8734   3.981   4.273   3.441 -0.8691 -0.5377 -0.5567
 2165SOL    MW4 8735   4.039   4.222   3.402 -0.0739  0.0696 -0.2000
 2166SOL     OW 8736   4.277   4.374   3.461  0.4379 -0.0689  0.2928
 2166SOL    HW2 8737   4.280   4.360   3.555  0.5735 -0.7085  0.1924
 2166SOL    HW3 8738   4.200   4.325   3.432 -0.7917  1.7932  0.3581
 2166SOL    MW4 8739   4.267   4.366   3.469  0.2933  0.0930  0.2880
 2167SOL     OW 8740   0.174   4.580   3.857 -0.0567  0.0104 -0.0649
 2167SOL    HW2 8741   0.113   4.649   3.830 -0.8899 -0.4822  0.5453
 2167SOL    HW3 8742   0.178   4.587   3.952 -1.5582 -1.9560  0.1684
 2167SOL    MW4 8743   0.167   4.590   3.866 -0.3647 -0.3138  0.0463
 2168SOL     OW 8744   0.008   0.114   3.781  0.0157  0.2900 -0.3292
 2168SOL    HW2 8745   0.001   0.202   3.819 -1.1466 -0.0952  0.3793
 2168SOL    HW3 8746   0.022   0.129   3.688  1.2596  1.2410 -0.0076
 2168SOL    MW4 8747   0.009   0.128   3.774  0.0262  0.3647 -0.1934
 2169SOL     OW 8748   2.449   3.678   4.638  0.8615  0.0088 -0.7729
 2169SOL    HW2 8749   2.501   3.599   4.625  0.5331 -0.3045 -0.1817
 2169SOL    HW3 8750   2.369   3.663   4.586  0.3869 -0.4457  0.0770
 2169SOL    MW4 8751   2.445   3.666   4.629  0.7553 -0.0927 -0.5827
 2170SOL     OW 8752   0.216   0.526   3.787 -0.2682  0.0269 -0.5013
 2170SOL    HW2 8753   0.184   0.615   3.805  1.0466  0.0285  2.0860
 2170SOL    HW3 8754   0.223   0.522   3.692 -1.4467  2.3068 -0.7257
 2170SOL    MW4 8755   0.213   0.537   3.777 -0.2502  0.3279 -0.1895
 2171SOL     OW 8756   0.151   0.785   3.831  0.4286  0.5047 -0.0098
 2171SOL    HW2 8757   0.144   0.779   3.926  1.5071 -0.4544  0.0214
 2171SOL    HW3 8758   0.068   0.824   3.803 -0.2289  0.0314  1.2439
 2171SOL    MW4 8759   0.139   0.790   3.840  0.4841  0.3157  0.1597
 2172SOL     OW 8760   4.414   0.910   3.762 -0.2358 -0.0723 -0.2188
 2172SOL    HW2 8761   4.346   0.852   3.795  1.6797 -1.3982  1.4836
 2172SOL    HW3 8762   4.412   0.986   3.821 -0.0752 -0.2135 -0.0330
 2172SOL    MW4 8763   4.404   0.913   3.774  0.0377 -0.2659  0.0303
 2173SOL     OW 8764   4.445   1.145   3.891  0.3055  0.1636 -0.0881
 2173SOL    HW2 8765   4.376   1.204   3.862  0.0354 -0.5006 -0.8226
 2173SOL    HW3 8766   4.434   1.138   3.986  0.1672  1.0605 -0.0381
 2173SOL    MW4 8767   4.435   1.152   3.900  0.2518  0.1943 -0.1786
 2174SOL     OW 8768   0.173   1.271   3.781  0.6178 -0.3325  0.3538
 2174SOL    HW2 8769   0.101   1.222   3.821  0.1683  0.9948  1.1868
 2174SOL    HW3 8770   0.161   1.256   3.687 -1.7904  1.2670  0.3640
 2174SOL    MW4 8771   0.162   1.262   3.774  0.2407  0.0538  0.4649
 2175SOL     OW 8772   0.200   1.526   3.870 -0.1184  0.0792 -0.5692
 2175SOL    HW2 8773   0.128   1.581   3.838  0.6331  0.5740 -1.4233
 2175SOL    HW3 8774   0.189   1.443   3.824 -0.1806  0.1263 -0.6385
 2175SOL    MW4 8775   0.189   1.522   3.860 -0.0274  0.1507 -0.6907
 2176SOL     OW 8776   4.487   1.676   3.763  0.0158 -0.3220 -0.6406
 2176SOL    HW2 8777   4.481   1.769   3.785  0.5444 -0.3342 -0.4444
 2176SOL    HW3 8778   4.489   1.675   3.667  1.5605 -0.0309 -0.6195
 2176SOL    MW4 8779   4.487   1.688   3.753  0.2893 -0.2853 -0.6118
 2177SOL     OW 8780   4.466   1.946   3.825 -0.0472 -0.0976  0.2719
 2177SOL    HW2 8781   4.476   1.974   3.916 -1.4864 -0.4360  0.5448
 2177SOL    HW3 8782   4.382   1.984   3.797  0.4634  0.1520 -0.9683
 2177SOL    MW4 8783   4.456   1.955   3.833 -0.1698 -0.1094  0.1442
 2178SOL     OW 8784   0.213   2.089   3.738 -0.0449  0.4283  0.1943
 2178SOL    HW2 8785   0.236   2.177   3.768 -0.4307  0.8972 -0.8484
 2178SOL    HW3 8786   0.133   2.067   3.786 -0.8041  1.2787 -0.6388
 2178SOL    MW4 8787   0.205   2.097   3.748 -0.1960  0.6027 -0.0532
 2179SOL     OW 8788   0.267   2.332   3.888  0.0695 -0.0630  0.9202
 2179SOL    HW2 8789   0.274   2.340   3.983 -0.4303 -1.4209  1.0805
 2179SOL    HW3 8790   0.346   2.375   3.855 -0.6106  1.9665  1.8630
 2179SOL    MW4 8791   0.279   2.339   3.896 -0.0862  0.0257  1.0660
 2180SOL     OW 8792   0.017   2.705   3.849 -0.1864  0.0800 -0.0521
 2180SOL    HW2 8793   0.026   2.679   3.940  1.7660  1.4943  0.2029
 2180SOL    HW3 8794   0.090   2.766   3.834 -0.9470  0.4978 -2.3197
 2180SOL    MW4 8795   0.028   2.710   3.859 -0.0292  0.3219 -0.3176
 2181SOL     OW 8796   4.405   3.812   4.540  0.4622  0.2629  0.2767
 2181SOL    HW2 8797   4.359   3.893   4.522 -0.8293 -0.6220 -0.5285
 2181SOL    HW3 8798   4.442   3.785   4.456 -0.6605 -0.8951  0.1320
 2181SOL    MW4 8799   4.404   3.819   4.527  0.1435 -0.0067  0.1512
 2182SOL     OW 8800   0.213   2.877   3.782  0.0162  0.3167 -0.2629
 2182SOL    HW2 8801   0.299   2.839   3.803 -0.9442 -1.2328  0.9665
 2182SOL    HW3 8802   0.208   2.874   3.687  1.0519 -0.1858 -0.3102
 2182SOL    MW4 8803   0.224   2.872   3.773  0.0261  0.0460 -0.1070
 2183SOL     OW 8804   0.252   3.133   3.874  0.3364 -0.1543 -0.2896
 2183SOL    HW2 8805   0.233   3.041   3.856 -0.8112  0.3984 -2.0500
 2183SOL    HW3 8806   0.170   3.178   3.855  0.9629  1.2613  0.3219
 2183SOL    MW4 8807   0.238   3.127   3.869  0.2677  0.1054 -0.4411
 2184SOL     OW 8808   0.030   3.267   3.829 -0.3725  0.2220 -0.2787
 2184SOL    HW2 8809   0.040   3.300   3.740  0.4125  0.7089 -0.0191
 2184SOL    HW3 8810  -0.045   3.208   3.825  0.2513 -0.4945 -1.4568
 2184SOL    MW4 8811   0.021   3.264   3.817 -0.1864  0.1915 -0.4001
 2185SOL     OW 8812   4.490   3.527   3.909  0.2211 -0.2517  0.3297
 2185SOL    HW2 8813   4.493   3.546   4.002  0.1772  0.5418  0.1709
 2185SOL    HW3 8814   4.496   3.432   3.904  0.7939 -0.2628  1.1174
 2185SOL    MW4 8815   4.491   3.517   3.920  0.2909 -0.1483  0.4127
 2186SOL     OW 8816   0.223   3.626   3.781 -0.5259 -0.6466 -0.2506
 2186SOL    HW2 8817   0.289   3.573   3.825 -0.9081 -1.9788 -1.2364
 2186SOL    HW3 8818   0.139   3.587   3.806 -0.7898 -0.8415 -1.4167
 2186SOL    MW4 8819   0.220   3.614   3.790 -0.6111 -0.8478 -0.5348
 2187SOL     OW 8820   0.215   3.886   3.856 -0.0957  0.0939  0.1759
 2187SOL    HW2 8821   0.203   3.803   3.810 -0.6753  0.7776 -0.9533
 2187SOL    HW3 8822   0.292   3.925   3.815 -0.2699  0.4496  0.1819
 2187SOL    MW4 8823   0.223   3.880   3.844 -0.1952  0.2313  0.0277
 2188SOL     OW 8824   4.484   3.998   3.769 -0.4696  0.2320 -0.1399
 2188SOL    HW2 8825   4.416   3.939   3.801 -0.5173  0.5559  0.3654
 2188SOL    HW3 8826   4.565   3.964   3.806 -0.5286  0.6251  0.3515
 2188SOL    MW4 8827   4.486   3.986   3.778 -0.4835  0.3264 -0.0083
 2189SOL     OW 8828   4.469   4.251   3.859 -0.1112 -0.2036 -0.3586
 2189SOL    HW2 8829   4.475   4.167   3.814 -1.5369  0.4304 -1.7550
 2189SOL    HW3 8830   4.547   4.299   3.832 -0.4746 -0.1963 -1.4269
 2189SOL    MW4 8831   4.480   4.246   3.850 -0.3472 -0.1187 -0.6838
 2190SOL     OW 8832   0.228   4.339   3.749  0.3539 -0.7761  0.3368
 2190SOL    HW2 8833   0.294   4.285   3.793  0.2288 -0.3674  1.0414
 2190SOL    HW3 8834   0.224   4.419   3.802 -1.2064 -1.0926  0.7059
 2190SOL    MW4 8835   0.236   4.342   3.762  0.1315 -0.7639  0.4783
 2191SOL     OW 8836   0.649   4.651   3.828 -0.1614 -0.1939 -0.1543
 2191SOL    HW2 8837   0.567   4.682   3.789 -0.1350 -2.0500 -1.7425
 2191SOL    HW3 8838   0.658   4.561   3.797  2.2551 -0.1674  0.3859
 2191SOL    MW4 8839   0.639   4.643   3.819  0.1609 -0.4354 -0.2925
 2192SOL     OW 8840   0.401   0.070   3.732  0.4068 -0.1314  0.1356
 2192SOL    HW2 8841   0.399   0.154   3.776  0.9776  0.2090 -0.4731
 2192SOL    HW3 8842   0.328   0.021   3.770  0.5869  0.3263  1.0968
 2192SOL    MW4 8843   0.391   0.074   3.743  0.5059 -0.0261  0.1819
 2193SOL     OW 8844   0.416   0.343   3.844 -0.0625  0.2443  0.0744
 2193SOL    HW2 8845   0.348   0.409   3.829  0.8206  1.1057 -0.1971
 2193SOL    HW3 8846   0.498   0.388   3.823  0.6126 -0.7063  0.6395
 2193SOL    MW4 8847   0.417   0.358   3.839  0.1431  0.2325  0.1130
 2194SOL     OW 8848   0.645   0.476   3.739  0.0718  0.2934 -0.4887
 2194SOL    HW2 8849   0.729   0.445   3.772  0.9475  2.5044 -0.5433
 2194SOL    HW3 8850   0.636   0.564   3.776 -2.3606 -0.0222 -0.2463
 2194SOL    MW4 8851   0.655   0.483   3.748 -0.1336  0.5435 -0.4640
 2195SOL     OW 8852   0.610   0.746   3.866  0.2518  0.4108 -0.0455
 2195SOL    HW2 8853   0.689   0.789   3.833  0.1798  0.0008 -0.7744
 2195SOL    HW3 8854   0.538   0.799   3.833  0.1680 -0.1794 -0.8438
 2195SOL    MW4 8855   0.611   0.759   3.857  0.2312  0.2789 -0.2472
 2196SOL     OW 8856   0.394   0.882   3.760 -0.1058  0.1354 -0.2487
 2196SOL    HW2 8857   0.404   0.965   3.805 -0.2895  0.0094  0.0238
 2196SOL    HW3 8858   0.303   0.856   3.777  0.1264 -0.4080  0.1599
 2196SOL    MW4 8859   0.383   0.889   3.768 -0.0994  0.0471 -0.1590
 2197SOL     OW 8860   4.438   1.118   4.170  0.5280  0.0407  0.2114
 2197SOL    HW2 8861   4.521   1.081   4.200  0.5550 -0.2294 -0.1905
 2197SOL    HW3 8862   4.371   1.074   4.223  0.7009  0.9637  1.2135
 2197SOL    MW4 8863   4.440   1.108   4.181  0.5550  0.1270  0.2904
 2198SOL     OW 8864   0.621   1.278   3.753 -0.1088  0.2221 -0.2939
 2198SOL    HW2 8865   0.630   1.367   3.786 -1.4499 -0.3255  1.6542
 2198SOL    HW3 8866   0.634   1.285   3.659  0.0234  2.4456 -0.1181
 2198SOL    MW4 8867   0.624   1.291   3.745 -0.2682  0.4431 -0.0136
 2199SOL     OW 8868   0.653   1.536   3.829  0.2633  0.0299  0.5688
 2199SOL    HW2 8869   0.728   1.591   3.806  0.5805 -0.1151  1.2404
 2199SOL    HW3 8870   0.577   1.582   3.793  0.6060  0.5086  0.4538
 2199SOL    MW4 8871   0.653   1.549   3.821  0.3504  0.0738  0.6425
 2200SOL     OW 8872   0.436   1.661   3.732 -0.3926 -0.0382  0.2204
 2200SOL    HW2 8873   0.360   1.627   3.779  1.4481 -0.9317  2.6616
 2200SOL    HW3 8874   0.440   1.753   3.757 -0.0772 -0.2439  0.9481
 2200SOL    MW4 8875   0.427   1.669   3.742 -0.1081 -0.1832  0.6382
 2201SOL     OW 8876   0.426   1.920   3.806  0.2106  0.8313  0.0616
 2201SOL    HW2 8877   0.412   1.940   3.898 -0.5945  0.9644 -0.0804
 2201SOL    HW3 8878   0.347   1.954   3.762  0.4100  0.4308 -0.6202
 2201SOL    MW4 8879   0.413   1.927   3.812  0.1307  0.7960 -0.0467
 2202SOL     OW 8880   0.672   2.047   3.762  0.1939 -0.2246 -0.0816
 2202SOL    HW2 8881   0.739   1.993   3.805 -0.7405 -1.7538 -0.5443
 2202SOL    HW3 8882   0.590   2.001   3.777 -0.5427  0.7699 -0.9714
 2202SOL    MW4 8883   0.670   2.034   3.770 -0.0266 -0.2952 -0.2599
 2203SOL     OW 8884   0.695   2.295   3.865 -0.3078 -0.1498  0.3221
 2203SOL    HW2 8885   0.698   2.209   3.824  0.0164 -0.6360  1.3367
 2203SOL    HW3 8886   0.770   2.342   3.828  0.0314 -0.6083  0.4287
 2203SOL    MW4 8887   0.705   2.290   3.855 -0.2203 -0.2744  0.4699
 2204SOL     OW 8888   0.487   2.466   3.784  0.8122 -0.5473  0.0983
 2204SOL    HW2 8889   0.565   2.415   3.807  0.3400 -0.9865  0.7312
 2204SOL    HW3 8890   0.481   2.459   3.689  0.0116 -2.7795  0.2736
 2204SOL    MW4 8891   0.497   2.458   3.775  0.6442 -0.9000  0.2050
 2205SOL     OW 8892   0.454   2.748   3.832  0.0127  0.8669 -0.2785
 2205SOL    HW2 8893   0.547   2.770   3.827 -0.2329  1.7857 -0.8481
 2205SOL    HW3 8894   0.451   2.655   3.809  0.7350  0.9533 -0.7605
 2205SOL    MW4 8895   0.466   2.739   3.828  0.0756  0.9997 -0.4172
 2206SOL     OW 8896   0.708   2.823   3.774  0.0036  0.1777 -0.5481
 2206SOL    HW2 8897   0.775   2.757   3.792  0.1201  0.4079 -0.1353
 2206SOL    HW3 8898   0.693   2.817   3.680  0.8554  0.3655 -0.6985
 2206SOL    MW4 8899   0.715   2.813   3.764  0.1313  0.2329 -0.5133
 2207SOL     OW 8900   0.680   3.099   3.862 -0.1611  0.2882 -0.4111
 2207SOL    HW2 8901   0.688   3.109   3.957 -3.8547 -0.9441  0.1068
 2207SOL    HW3 8902   0.688   3.005   3.847  1.8885  0.6181 -1.5250
 2207SOL    MW4 8903   0.682   3.088   3.873 -0.3781  0.1690 -0.4895
 2208SOL     OW 8904   0.468   3.224   3.741 -0.1772  0.2110  0.5482
 2208SOL    HW2 8905   0.549   3.190   3.780  0.5525 -0.4746 -1.5285
 2208SOL    HW3 8906   0.398   3.187   3.796  0.7777 -1.6463  0.5534
 2208SOL    MW4 8907   0.470   3.215   3.754  0.0451 -0.1247  0.2749
 2209SOL     OW 8908   0.438   3.481   3.853  0.0762  0.5831 -1.0249
 2209SOL    HW2 8909   0.511   3.533   3.820  0.5954  0.5018 -0.0270
 2209SOL    HW3 8910   0.447   3.397   3.810  1.5123  0.0429  0.2775
 2209SOL    MW4 8911   0.448   3.477   3.843  0.3342  0.5014 -0.7215
 2210SOL     OW 8912   0.684   3.628   3.805 -0.1505 -0.2447  0.0954
 2210SOL    HW2 8913   0.688   3.716   3.842 -1.8591 -0.3828  0.6327
 2210SOL    HW3 8914   0.697   3.641   3.711 -0.3500  0.5795  0.1811
 2210SOL    MW4 8915   0.686   3.641   3.797 -0.4022 -0.1540  0.1776
 2211SOL     OW 8916   0.905   4.036   3.779 -0.5304  0.3199  0.0834
 2211SOL    HW2 8917   0.910   4.043   3.684  1.0849  0.6809  0.1786
 2211SOL    HW3 8918   0.976   3.976   3.802  0.3024  1.7101  1.2138
 2211SOL    MW4 8919   0.915   4.029   3.770 -0.2074  0.5507  0.2449
 2212SOL     OW 8920   0.443   3.981   3.735  0.2246 -0.0496 -0.1997
 2212SOL    HW2 8921   0.509   3.934   3.787  0.1245  0.5589  0.4889
 2212SOL    HW3 8922   0.480   3.986   3.647  1.6147  1.2795  0.4317
 2212SOL    MW4 8923   0.457   3.975   3.731  0.3948  0.2060 -0.0253
 2213SOL     OW 8924   0.482   4.234   3.828 -0.5076  0.6302  0.2424
 2213SOL    HW2 8925   0.482   4.145   3.793 -2.2036  0.7212 -0.0484
 2213SOL    HW3 8926   0.549   4.280   3.778 -1.5336  0.2346 -1.5312
 2213SOL    MW4 8927   0.491   4.228   3.817 -0.8667  0.5903 -0.0300
 2214SOL     OW 8928   0.668   4.389   3.725 -0.2458  0.5287  0.2693
 2214SOL    HW2 8929   0.742   4.344   3.767  0.4204  1.3083 -0.0660
 2214SOL    HW3 8930   0.698   4.405   3.635 -0.8748  0.7366  0.0969
 2214SOL    MW4 8931   0.682   4.385   3.718 -0.2409  0.6595  0.2024
 2215SOL     OW 8932   1.153   4.641   3.827  0.1451  0.0098  0.1193
 2215SOL    HW2 8933   1.191   4.703   3.765 -0.6701  1.9054  1.4709
 2215SOL    HW3 8934   1.173   4.555   3.791  4.3248  0.9581 -0.0233
 2215SOL    MW4 8935   1.160   4.638   3.814  0.5890  0.3848  0.2787
 2216SOL     OW 8936   0.883   0.112   3.756 -0.0286  0.2347 -0.1295
 2216SOL    HW2 8937   0.951   0.053   3.789  0.6217  1.0026 -0.0846
 2216SOL    HW3 8938   0.801   0.073   3.786  0.3489 -1.0275 -0.6899
 2216SOL    MW4 8939   0.881   0.099   3.764  0.1070  0.1695 -0.1974
 2217SOL     OW 8940   0.910   0.389   3.804  0.5812  0.0345 -0.3853
 2217SOL    HW2 8941   0.906   0.389   3.899  1.9350  0.7587 -0.3112
 2217SOL    HW3 8942   0.919   0.297   3.780  0.8553 -0.0998  0.2232
 2217SOL    MW4 8943   0.911   0.377   3.813  0.7960  0.1123 -0.2949
 2218SOL     OW 8944   1.141   0.507   3.730  0.1536  0.0850  0.3307
 2218SOL    HW2 8945   1.215   0.448   3.743 -0.0011 -0.4054 -0.8828
 2218SOL    HW3 8946   1.064   0.456   3.756  0.1265  0.1153  0.3104
 2218SOL    MW4 8947   1.140   0.493   3.735  0.1296  0.0243  0.1676
 2219SOL     OW 8948   1.070   0.775   3.857  0.0604 -0.1828  0.2238
 2219SOL    HW2 8949   1.079   0.754   3.950  1.4305  0.3037  0.2132
 2219SOL    HW3 8950   1.094   0.695   3.811 -1.4556 -0.6933  0.2865
 2219SOL    MW4 8951   1.074   0.762   3.863  0.0412 -0.1860  0.2306
 2220SOL     OW 8952   0.831   0.896   3.783 -0.4331 -0.7749  0.3199
 2220SOL    HW2 8953   0.833   0.881   3.688 -1.5981  0.0480  0.1549
 2220SOL    HW3 8954   0.915   0.863   3.814  1.0969  1.3175 -1.3666
 2220SOL    MW4 8955   0.842   0.890   3.774 -0.3849 -0.3902  0.0756
 2221SOL     OW 8956   0.840   1.158   3.842 -0.1545 -0.5359  0.8257
 2221SOL    HW2 8957   0.767   1.208   3.807  0.1034 -0.8471 -0.1663
 2221SOL    HW3 8958   0.819   1.067   3.823 -0.2548 -0.7458  1.9360
 2221SOL    MW4 8959   0.828   1.153   3.835 -0.1338 -0.6047  0.8414
 2222SOL     OW 8960   1.078   1.286   3.754  0.2937 -0.2027  0.6536
 2222SOL    HW2 8961   1.012   1.220   3.775  0.4014 -0.1932  1.0184
 2222SOL    HW3 8962   1.162   1.244   3.776  0.4733 -0.5371 -0.6108
 2222SOL    MW4 8963   1.081   1.271   3.759  0.3315 -0.2455  0.5350
 2223SOL     OW 8964   1.116   1.548   3.843 -0.4257 -0.0568 -0.3486
 2223SOL    HW2 8965   1.119   1.466   3.795 -1.5509 -0.2337 -0.1077
 2223SOL    HW3 8966   1.198   1.593   3.818 -1.2411  0.1085 -2.8671
 2223SOL    MW4 8967   1.127   1.543   3.834 -0.6816 -0.0584 -0.6490
 2224SOL     OW 8968   0.877   1.668   3.766  0.1145  0.0710 -0.1796
 2224SOL    HW2 8969   0.962   1.636   3.795  0.1623 -0.5631 -1.0148
 2224SOL    HW3 8970   0.880   1.663   3.670 -0.6112  0.6781 -0.2375
 2224SOL    MW4 8971   0.889   1.663   3.757  0.0251  0.0675 -0.2975
 2225SOL     OW 8972   0.872   1.924   3.872  0.0458 -0.0500  0.2165
 2225SOL    HW2 8973   0.863   1.915   3.967  0.5043  1.4560  0.4102
 2225SOL    HW3 8974   0.867   1.834   3.839 -0.1849 -0.5776  1.6534
 2225SOL    MW4 8975   0.870   1.911   3.880  0.0758  0.0792  0.4315
 2226SOL     OW 8976   1.108   1.961   3.737  0.2778  0.1496  0.2816
 2226SOL    HW2 8977   1.022   1.942   3.774  0.7134  1.9769  2.2773
 2226SOL    HW3 8978   1.088   1.998   3.651 -1.0878  2.9736  1.7434
 2226SOL    MW4 8979   1.094   1.964   3.730  0.1551  0.7632  0.7377
 2227SOL     OW 8980   1.095   2.249   3.895 -0.1849 -0.4972  0.0905
 2227SOL    HW2 8981   1.085   2.246   3.990 -0.3403  0.8781  0.1231
 2227SOL    HW3 8982   1.096   2.157   3.868  2.3239 -0.9746  1.6644
 2227SOL    MW4 8983   1.093   2.236   3.904  0.1256 -0.3786  0.3023
 2228SOL     OW 8984   0.929   2.421   3.760 -0.5078 -0.8008  0.1862
 2228SOL    HW2 8985   0.935   2.507   3.802  1.3724  0.7636 -3.0742
 2228SOL    HW3 8986   0.996   2.368   3.803 -0.9358 -0.3213  1.4694
 2228SOL    MW4 8987   0.939   2.426   3.771 -0.3161 -0.5310 -0.0749
 2229SOL     OW 8988   0.926   2.653   3.900  0.1061 -0.2779  0.5913
 2229SOL    HW2 8989   0.929   2.680   3.992  1.7721 -2.1106  1.1022
 2229SOL    HW3 8990   1.004   2.692   3.861 -0.1012 -0.2737  0.1783
 2229SOL    MW4 8991   0.937   2.662   3.907  0.2986 -0.5193  0.6042
 2230SOL     OW 8992   1.133   2.826   3.793 -0.3990  0.0026 -0.4029
 2230SOL    HW2 8993   1.216   2.779   3.798 -0.4989 -0.1404 -0.0845
 2230SOL    HW3 8994   1.152   2.912   3.831 -0.3028  0.1018 -0.6732
 2230SOL    MW4 8995   1.146   2.831   3.799 -0.3995 -0.0033 -0.3970
 2231SOL     OW 8996   1.367   3.276   3.770 -0.0330  0.4829  0.2917
 2231SOL    HW2 8997   1.441   3.237   3.817 -1.0660 -0.3436  1.2602
 2231SOL    HW3 8998   1.354   3.361   3.813  0.6251  0.8175 -0.1655
 2231SOL    MW4 8999   1.375   3.282   3.782 -0.0825  0.4179  0.3593
 2232SOL     OW 9000   0.928   3.207   3.738  0.4047  0.8485  0.8067
 2232SOL    HW2 9001   0.846   3.172   3.774 -0.1534  0.6473 -0.6442
 2232SOL    HW3 9002   0.910   3.221   3.645  1.6259  2.0091  0.7241
 2232SOL    MW4 9003   0.915   3.204   3.731  0.4922  0.9751  0.6044
 2233SOL     OW 9004   0.915   3.463   3.857  0.1094 -0.1702  0.0562
 2233SOL    HW2 9005   0.904   3.375   3.822 -0.1739 -0.2738  0.3998
 2233SOL    HW3 9006   0.830   3.504   3.847  0.2738  0.1042 -0.2093
 2233SOL    MW4 9007   0.903   3.457   3.851  0.0937 -0.1476  0.0665
 2234SOL     OW 9008   1.128   3.609   3.767 -0.2364  0.0474  0.4189
 2234SOL    HW2 9009   1.196   3.580   3.829 -0.1241  0.3118  0.4179
 2234SOL    HW3 9010   1.051   3.558   3.791 -0.5046  0.9592  1.4866
 2234SOL    MW4 9011   1.127   3.598   3.778 -0.2570  0.2027  0.5598
 2235SOL     OW 9012   1.127   3.872   3.862 -0.4496  0.0719 -0.2734
 2235SOL    HW2 9013   1.123   3.783   3.827  1.2203 -0.0373 -0.2523
 2235SOL    HW3 9014   1.207   3.909   3.823 -0.9554  1.4562 -0.0345
 2235SOL    MW4 9015   1.137   3.865   3.852 -0.2960  0.2401 -0.2389
 2236SOL     OW 9016   0.710   3.847   4.208 -0.2284  0.4412  0.6876
 2236SOL    HW2 9017   0.682   3.843   4.299  1.4993 -0.5900  1.2091
 2236SOL    HW3 9018   0.785   3.787   4.204  0.7988  1.7893 -0.9959
 2236SOL    MW4 9019   0.716   3.838   4.220  0.1351  0.4830  0.5345
 2237SOL     OW 9020   0.897   4.294   3.846  0.1048 -0.3589  0.2762
 2237SOL    HW2 9021   0.899   4.200   3.828 -0.3781  0.0161 -1.8180
 2237SOL    HW3 9022   0.977   4.328   3.807 -0.6220  0.3720 -0.6017
 2237SOL    MW4 9023   0.908   4.286   3.839 -0.0547 -0.2127 -0.1161
 2238SOL     OW 9024   1.106   0.247   4.222 -0.2661  0.2303  0.1187
 2238SOL    HW2 9025   1.102   0.155   4.198 -0.2694  0.2151  0.1783
 2238SOL    HW3 9026   1.179   0.282   4.169 -0.9697  0.4426 -0.7287
 2238SOL    MW4 9027   1.115   0.240   4.212 -0.3594  0.2563  0.0148
 2239SOL     OW 9028   1.526   0.019   3.856 -0.0034  0.0630  0.0786
 2239SOL    HW2 9029   1.534  -0.072   3.828  0.7038  0.5720 -1.4538
 2239SOL    HW3 9030   1.507   0.015   3.949 -1.1775 -1.6766 -0.2276
 2239SOL    MW4 9031   1.525   0.007   3.864 -0.0650 -0.0987 -0.1640
 2240SOL     OW 9032   1.330   0.122   3.693  0.1669  0.6147  0.3035
 2240SOL    HW2 9033   1.386   0.080   3.758 -0.6001  0.1975  0.6891
 2240SOL    HW3 9034   1.326   0.214   3.720  1.0897  0.7562 -0.0206
 2240SOL    MW4 9035   1.337   0.128   3.705  0.1874  0.5783  0.3116
 2241SOL     OW 9036   1.337   0.358   3.832 -0.3147  0.2643  0.4550
 2241SOL    HW2 9037   1.311   0.367   3.923 -1.4835  0.6930  0.0795
 2241SOL    HW3 9038   1.404   0.425   3.819  1.7075 -1.4327  1.6641
 2241SOL    MW4 9039   1.343   0.368   3.842 -0.2022  0.0969  0.5651
 2242SOL     OW 9040   1.866   2.647   4.266  0.2784  0.0661  0.2131
 2242SOL    HW2 9041   1.888   2.609   4.351  0.2117 -2.6244 -0.9293
 2242SOL    HW3 9042   1.925   2.605   4.204  1.3777  3.1024 -0.9342
 2242SOL    MW4 9043   1.877   2.637   4.269  0.4146  0.1118 -0.0887
 2243SOL     OW 9044   1.537   0.543   3.772  0.1789  0.4408 -0.1935
 2243SOL    HW2 9045   1.622   0.514   3.805 -0.3266  0.3667  1.1035
 2243SOL    HW3 9046   1.527   0.632   3.806 -0.4116  0.3194 -0.0383
 2243SOL    MW4 9047   1.547   0.551   3.781  0.0345  0.4150 -0.0024
 2244SOL     OW 9048   1.309   0.928   3.743  0.3792 -0.5367  0.1907
 2244SOL    HW2 9049   1.324   1.016   3.778  0.1588 -0.8422  1.0772
 2244SOL    HW3 9050   1.221   0.906   3.771 -0.0401 -0.5584 -1.1069
 2244SOL    MW4 9051   1.300   0.937   3.751  0.2948 -0.5799  0.1364
 2245SOL     OW 9052   2.007   0.761   4.138 -0.6322 -0.1516 -0.2987
 2245SOL    HW2 9053   1.926   0.714   4.157 -0.2337  0.0808  2.1471
 2245SOL    HW3 9054   2.075   0.707   4.177  0.1260  0.9796 -0.0481
 2245SOL    MW4 9055   2.005   0.748   4.146 -0.4797  0.0283  0.0567
 2246SOL     OW 9056   1.575   1.272   3.774  0.0338 -0.4124 -0.2676
 2246SOL    HW2 9057   1.659   1.235   3.801  0.2462  0.0547 -0.2930
 2246SOL    HW3 9058   1.566   1.352   3.825 -0.0374 -0.0546 -0.8357
 2246SOL    MW4 9059   1.585   1.278   3.784  0.0525 -0.3036 -0.3457
 2247SOL     OW 9060   1.783   1.690   3.793  0.3759  0.0978 -0.4025
 2247SOL    HW2 9061   1.804   1.783   3.807  2.0630 -0.1727 -0.9970
 2247SOL    HW3 9062   1.776   1.682   3.698 -0.9067 -0.1684 -0.2963
 2247SOL    MW4 9063   1.785   1.701   3.782  0.4293  0.0269 -0.4671
 2248SOL     OW 9064   1.350   1.657   3.754  0.3800 -0.1266  0.3768
 2248SOL    HW2 9065   1.342   1.745   3.789 -0.1354 -0.7039  1.7359
 2248SOL    HW3 9066   1.417   1.615   3.808 -0.1684 -0.9133  0.4519
 2248SOL    MW4 9067   1.358   1.663   3.766  0.2397 -0.3065  0.5662
 2249SOL     OW 9068   1.339   1.906   3.883 -0.1378  0.0299 -0.1352
 2249SOL    HW2 9069   1.310   1.894   3.974 -1.5084  0.6154 -0.4775
 2249SOL    HW3 9070   1.261   1.938   3.837  1.2661  2.5411 -0.8983
 2249SOL    MW4 9071   1.325   1.909   3.889 -0.1335  0.4385 -0.2813
 2250SOL     OW 9072   1.561   2.039   3.816 -0.0964  0.5266  0.3281
 2250SOL    HW2 9073   1.491   1.980   3.845  0.8110 -0.1159  1.2623
 2250SOL    HW3 9074   1.562   2.030   3.721 -1.5025  0.7933  0.2801
 2250SOL    MW4 9075   1.552   2.030   3.807 -0.1622  0.4773  0.4449
 2251SOL     OW 9076   1.533   2.315   3.891  0.0531  0.4256 -0.0942
 2251SOL    HW2 9077   1.606   2.360   3.848 -0.0889 -1.1591 -2.0623
 2251SOL    HW3 9078   1.546   2.223   3.869 -1.4137 -0.1153  1.2501
 2251SOL    MW4 9079   1.544   2.309   3.882 -0.1593  0.1450 -0.1767
 2252SOL     OW 9080   1.300   2.450   3.801 -0.1321  0.5338  0.6863
 2252SOL    HW2 9081   1.385   2.415   3.826  0.2552  0.4334 -0.7453
 2252SOL    HW3 9082   1.236   2.395   3.847  0.4592 -2.1378 -1.5777
 2252SOL    MW4 9083   1.302   2.438   3.810 -0.0030  0.1683  0.1984
 2253SOL     OW 9084   1.358   2.702   3.888  0.2836 -0.4437  0.3756
 2253SOL    HW2 9085   1.364   2.695   3.983  1.5278 -2.2152  0.1759
 2253SOL    HW3 9086   1.335   2.614   3.858 -1.3972  0.3937 -0.8777
 2253SOL    MW4 9087   1.356   2.690   3.897  0.2260 -0.5670  0.1841
 2254SOL     OW 9088   1.564   2.867   3.794 -0.5796  0.0151  0.2089
 2254SOL    HW2 9089   1.491   2.814   3.827  0.0197 -1.3588 -0.6187
 2254SOL    HW3 9090   1.572   2.841   3.702  0.0357  1.1979 -0.0708
 2254SOL    MW4 9091   1.555   2.856   3.786 -0.4193 -0.0100  0.0632
 2255SOL     OW 9092   1.564   3.143   3.898  0.0511 -0.2357  0.4467
 2255SOL    HW2 9093   1.587   3.131   3.991  0.4821  0.2245  0.4002
 2255SOL    HW3 9094   1.572   3.055   3.861 -2.4287 -0.8688  1.3398
 2255SOL    MW4 9095   1.568   3.130   3.906 -0.2193 -0.2584  0.5586
 2256SOL     OW 9096   1.343   3.518   3.898 -0.0564 -0.5054  0.0141
 2256SOL    HW2 9097   1.374   3.526   3.988 -0.3920  0.5582  0.0432
 2256SOL    HW3 9098   1.417   3.547   3.845 -0.1956 -0.1998 -0.0128
 2256SOL    MW4 9099   1.357   3.523   3.903 -0.1192 -0.3247  0.0145
 2257SOL     OW 9100   0.940   3.442   4.121 -0.2266 -0.4689  0.0604
 2257SOL    HW2 9101   0.921   3.440   4.027  0.5796  1.4062 -0.1586
 2257SOL    HW3 9102   0.860   3.409   4.162 -1.3212  0.5966 -1.1887
 2257SOL    MW4 9103   0.927   3.437   4.114 -0.2647 -0.0813 -0.1340
 2258SOL     OW 9104   1.555   3.652   3.745 -1.0190  0.0519 -0.1738
 2258SOL    HW2 9105   1.629   3.604   3.782 -1.8030 -1.2823 -0.3102
 2258SOL    HW3 9106   1.564   3.740   3.781 -0.3348 -0.5491  1.1852
 2258SOL    MW4 9107   1.566   3.657   3.754 -1.0320 -0.2034 -0.0124
 2259SOL     OW 9108   1.619   3.902   3.855  0.0528 -0.0192  0.3730
 2259SOL    HW2 9109   1.618   3.913   3.950 -1.2310 -0.6800  0.4488
 2259SOL    HW3 9110   1.537   3.942   3.826  0.6572  0.5879 -0.5082
 2259SOL    MW4 9111   1.608   3.908   3.864 -0.0368 -0.0262  0.2668
 2260SOL     OW 9112   1.373   3.990   3.743  0.4824 -0.4343 -0.0455
 2260SOL    HW2 9113   1.356   3.998   3.649 -0.0856 -1.2265 -0.0129
 2260SOL    HW3 9114   1.373   4.081   3.775 -1.0708 -0.2511 -0.5121
 2260SOL    MW4 9115   1.371   4.003   3.735  0.2025 -0.5145 -0.1028
 2261SOL     OW 9116   1.138   4.391   3.728  0.2859 -0.4424  0.2391
 2261SOL    HW2 9117   1.213   4.338   3.755 -0.5594 -1.1021  1.3857
 2261SOL    HW3 9118   1.144   4.396   3.633  1.3165 -1.1894  0.2633
 2261SOL    MW4 9119   1.149   4.384   3.719  0.3103 -0.6275  0.3934
 2262SOL     OW 9120   1.357   4.242   3.841 -0.0913 -0.0251 -0.3261
 2262SOL    HW2 9121   1.343   4.234   3.936  1.0382 -0.1998 -0.1687
 2262SOL    HW3 9122   1.442   4.285   3.833  1.6829 -3.5648 -1.2538
 2262SOL    MW4 9123   1.366   4.247   3.852  0.2918 -0.5155 -0.4277
 2263SOL     OW 9124   2.242   0.162   3.771 -0.0331 -0.0805 -0.1405
 2263SOL    HW2 9125   2.245   0.152   3.676  1.8225 -2.3922  0.1165
 2263SOL    HW3 9126   2.165   0.113   3.798 -1.1908  1.5078 -0.5488
 2263SOL    MW4 9127   2.233   0.154   3.762  0.0589 -0.1759 -0.1605
 2264SOL     OW 9128   1.793   0.118   3.755 -0.2364 -0.0045  0.2375
 2264SOL    HW2 9129   1.871   0.070   3.783 -0.8330 -0.3047  1.4348
 2264SOL    HW3 9130   1.722   0.080   3.806 -1.0304  0.8353 -0.2271
 2264SOL    MW4 9131   1.794   0.107   3.765 -0.4199  0.0667  0.3343
 2265SOL     OW 9132   1.767   0.391   3.827  0.1055  0.1853  0.1841
 2265SOL    HW2 9133   1.769   0.298   3.804  1.5771  0.2091  0.2098
 2265SOL    HW3 9134   1.779   0.393   3.922 -2.2304  0.3018  0.5261
 2265SOL    MW4 9135   1.769   0.379   3.836 -0.0086  0.2038  0.2327
 2266SOL     OW 9136   2.252   0.401   3.932 -0.1333 -0.1165  0.0646
 2266SOL    HW2 9137   2.249   0.319   3.883 -1.0723 -0.4799  0.7161
 2266SOL    HW3 9138   2.185   0.456   3.890  1.0075  0.6139 -0.8581
 2266SOL    MW4 9139   2.243   0.398   3.920 -0.1063 -0.0681  0.0286
 2267SOL     OW 9140   2.018   0.498   3.785  0.0215  0.0360  0.1107
 2267SOL    HW2 9141   1.931   0.459   3.797  0.6418 -0.9345  1.6555
 2267SOL    HW3 9142   2.027   0.507   3.691 -1.4152 -0.6500 -0.1126
 2267SOL    MW4 9143   2.008   0.494   3.774 -0.0863 -0.1825  0.2849
 2268SOL     OW 9144   1.776   3.116   4.434  0.4257 -0.1486 -0.4436
 2268SOL    HW2 9145   1.733   3.174   4.372 -1.0807 -1.2149 -0.4134
 2268SOL    HW3 9146   1.802   3.173   4.507 -2.4807  0.2235  0.3362
 2268SOL    MW4 9147   1.774   3.131   4.435 -0.1568 -0.2403 -0.3362
 2269SOL     OW 9148   1.332   1.169   3.856 -0.4203  0.6120  0.0010
 2269SOL    HW2 9149   1.421   1.193   3.833 -0.8427  3.1238  0.7807
 2269SOL    HW3 9150   1.334   1.161   3.952 -1.0928  1.0937  0.0635
 2269SOL    MW4 9151   1.344   1.171   3.866 -0.5648  1.0070  0.1118
 2270SOL     OW 9152   2.036   1.287   3.723  0.3301  0.3296 -0.1225
 2270SOL    HW2 9153   2.114   1.252   3.766 -0.0905  1.1010  1.2988
 2270SOL    HW3 9154   1.963   1.254   3.775 -0.2659  0.1348 -1.0717
 2270SOL    MW4 9155   2.037   1.278   3.735  0.1957  0.4057 -0.0606
 2271SOL     OW 9156   2.227   1.644   3.752  0.0992  0.3070  0.1946
 2271SOL    HW2 9157   2.308   1.602   3.782  0.6966  0.5099 -1.0904
 2271SOL    HW3 9158   2.160   1.614   3.813  0.5626 -2.2382 -0.4978
 2271SOL    MW4 9159   2.229   1.635   3.764  0.2391 -0.0020 -0.0668
 2272SOL     OW 9160   1.996   1.529   3.876 -0.0892  0.0982 -0.4865
 2272SOL    HW2 9161   1.910   1.566   3.854 -0.9424 -1.5343  0.0372
 2272SOL    HW3 9162   2.007   1.456   3.816  0.2799 -0.6080  0.4309
 2272SOL    MW4 9163   1.986   1.525   3.865 -0.1532 -0.2104 -0.2966
 2273SOL     OW 9164   1.829   1.963   3.843 -0.0006 -0.1754  0.3674
 2273SOL    HW2 9165   1.834   1.933   3.934  1.1167  1.7815  0.9685
 2273SOL    HW3 9166   1.740   1.999   3.834 -0.4623 -1.2892  0.3704
 2273SOL    MW4 9167   1.818   1.963   3.854  0.0859 -0.0641  0.4470
 2274SOL     OW 9168   2.063   2.110   3.760  0.7637 -0.0519  0.1413
 2274SOL    HW2 9169   2.045   2.104   3.667  0.9660 -0.1266  0.1048
 2274SOL    HW3 9170   1.986   2.074   3.803  1.0041 -0.7706 -0.0188
 2274SOL    MW4 9171   2.051   2.105   3.754  0.8221 -0.1566  0.1152
 2275SOL     OW 9172   1.839   1.498   4.559 -0.2264 -0.0218 -0.2406
 2275SOL    HW2 9173   1.831   1.592   4.542  0.0883  0.0397 -0.0624
 2275SOL    HW3 9174   1.814   1.457   4.476  0.0303  0.2355 -0.4496
 2275SOL    MW4 9175   1.835   1.505   4.546 -0.1510  0.0203 -0.2446
 2276SOL     OW 9176   1.780   2.733   3.891  0.3156  0.0534 -0.1659
 2276SOL    HW2 9177   1.766   2.638   3.900  0.2574  0.1154  0.4303
 2276SOL    HW3 9178   1.699   2.766   3.853  0.5900 -0.2304 -1.0013
 2276SOL    MW4 9179   1.767   2.725   3.887  0.3442  0.0241 -0.1972
 2277SOL     OW 9180   2.099   3.387   4.497 -0.5398 -0.6838 -0.4874
 2277SOL    HW2 9181   2.155   3.464   4.505 -1.6850  0.0247  0.9946
 2277SOL    HW3 9182   2.066   3.391   4.408  0.7542 -0.4083 -0.9682
 2277SOL    MW4 9183   2.102   3.398   4.486 -0.5202 -0.5538 -0.3557
 2278SOL     OW 9184   2.010   2.853   3.777 -0.2689 -0.7595  0.1553
 2278SOL    HW2 9185   1.934   2.815   3.822 -0.9830 -0.3004 -0.6485
 2278SOL    HW3 9186   2.083   2.796   3.801 -1.1824 -2.1966 -0.4411
 2278SOL    MW4 9187   2.010   2.841   3.786 -0.4835 -0.8883 -0.0293
 2279SOL     OW 9188   1.989   3.123   3.805  0.1135 -0.0387  0.0952
 2279SOL    HW2 9189   2.076   3.143   3.772  1.5583 -1.2121  2.9913
 2279SOL    HW3 9190   1.981   3.028   3.798 -0.9479  0.0594 -0.1609
 2279SOL    MW4 9191   1.999   3.113   3.800  0.1640 -0.1805  0.4435
 2280SOL     OW 9192   1.756   3.282   3.750 -0.2777  0.0762  0.3119
 2280SOL    HW2 9193   1.687   3.236   3.800 -0.2356  0.2362  0.5177
 2280SOL    HW3 9194   1.834   3.229   3.764 -0.3729 -0.1368  0.0328
 2280SOL    MW4 9195   1.757   3.269   3.759 -0.2848  0.0696  0.3026
 2281SOL     OW 9196   1.760   3.527   3.866 -0.6640  0.1536  0.1643
 2281SOL    HW2 9197   1.764   3.434   3.843 -0.0651  0.2251 -0.0205
 2281SOL    HW3 9198   1.837   3.565   3.825  1.0577  0.0985  3.1935
 2281SOL    MW4 9199   1.770   3.519   3.858 -0.3580  0.1559  0.5395
 2282SOL     OW 9200   2.016   3.629   3.751 -0.7706 -0.0935 -0.6279
 2282SOL    HW2 9201   2.097   3.581   3.772 -0.9603 -0.2899 -0.3426
 2282SOL    HW3 9202   2.003   3.613   3.658 -0.4233  0.0240 -0.6986
 2282SOL    MW4 9203   2.025   3.621   3.742 -0.7496 -0.1040 -0.5994
 2283SOL     OW 9204   2.036   3.895   3.846 -0.3248  0.0567 -0.0510
 2283SOL    HW2 9205   2.108   3.930   3.793  0.3251 -0.2472  0.6274
 2283SOL    HW3 9206   2.014   3.812   3.804 -1.5458  1.0246 -1.3745
 2283SOL    MW4 9207   2.042   3.888   3.833 -0.4003  0.1442 -0.1359
 2284SOL     OW 9208   1.829   4.014   3.726 -0.4506 -0.5227 -0.5629
 2284SOL    HW2 9209   1.906   3.963   3.752  0.5366  0.8100 -0.8646
 2284SOL    HW3 9210   1.757   3.975   3.776  0.5430 -1.2709  0.2998
 2284SOL    MW4 9211   1.829   4.002   3.736 -0.1892 -0.4454 -0.4890
 2285SOL     OW 9212   2.009   4.417   3.728  0.0236 -0.3663 -0.4825
 2285SOL    HW2 9213   2.078   4.363   3.769 -0.2053 -0.3711 -0.1069
 2285SOL    HW3 9214   2.033   4.419   3.635 -0.0325 -1.2260 -0.5198
 2285SOL    MW4 9215   2.021   4.410   3.721 -0.0141 -0.4807 -0.4377
 2286SOL     OW 9216   2.021   4.647   3.881  0.0787 -0.1417  0.0377
 2286SOL    HW2 9217   2.033   4.625   3.973 -0.3719  0.6945  0.2949
 2286SOL    HW3 9218   2.030   4.563   3.835 -1.3623 -0.8230  0.9979
 2286SOL    MW4 9219   2.024   4.633   3.887 -0.1709 -0.1212  0.1984
 2287SOL     OW 9220   2.502   4.633   4.155  0.4755 -0.3429 -0.0152
 2287SOL    HW2 9221   2.495   4.719   4.196  0.9197 -0.4704  0.3299
 2287SOL    HW3 9222   2.455   4.642   4.072 -0.0461  0.0441  0.3131
 2287SOL    MW4 9223   2.495   4.645   4.149  0.4652 -0.3085  0.0739
 2288SOL     OW 9224   2.450   0.008   3.872 -0.4848 -0.1266  0.4992
 2288SOL    HW2 9225   2.375   0.059   3.842 -0.7690  0.2101  1.7399
 2288SOL    HW3 9226   2.526   0.062   3.849 -0.7146  0.2515  0.6139
 2288SOL    MW4 9227   2.450   0.022   3.865 -0.5529 -0.0323  0.6781
 2289SOL     OW 9228   2.499   2.052   3.764 -0.2126 -0.4550  0.0186
 2289SOL    HW2 9229   2.425   1.999   3.794 -0.3229 -0.9201 -1.0200
 2289SOL    HW3 9230   2.574   2.017   3.811 -0.3859 -1.1460 -0.2026
 2289SOL    MW4 9231   2.499   2.040   3.774 -0.2501 -0.6077 -0.1478
 2290SOL     OW 9232   1.831   1.762   4.497  0.2344  0.0851 -0.1271
 2290SOL    HW2 9233   1.789   1.808   4.570 -0.7271 -0.3465 -0.3946
 2290SOL    HW3 9234   1.924   1.782   4.506 -0.0866  1.4473  0.1943
 2290SOL    MW4 9235   1.838   1.771   4.508  0.0652  0.2079 -0.1202
 2291SOL     OW 9236   2.464   0.771   3.894  0.3194 -0.0423  0.5166
 2291SOL    HW2 9237   2.376   0.794   3.862  0.1643  0.3768  1.2382
 2291SOL    HW3 9238   2.479   0.683   3.861 -0.0324  0.2037 -0.3235
 2291SOL    MW4 9239   2.454   0.763   3.885  0.2527  0.0455  0.5009
 2292SOL     OW 9240   1.759   0.900   3.794  0.1035  0.5546  0.0013
 2292SOL    HW2 9241   1.832   0.845   3.824 -0.0756  0.4667  0.2842
 2292SOL    HW3 9242   1.755   0.886   3.700  0.4946  0.6096 -0.0219
 2292SOL    MW4 9243   1.768   0.891   3.786  0.1315  0.5502  0.0355
 2293SOL     OW 9244   1.321   2.492   4.602  0.1730 -0.3441  0.1119
 2293SOL    HW2 9245   1.391   2.553   4.624  0.8520 -1.2839  0.5564
 2293SOL    HW3 9246   1.365   2.410   4.582 -0.8677 -1.2679  1.5022
 2293SOL    MW4 9247   1.336   2.489   4.602  0.1252 -0.5898  0.3533
 2294SOL     OW 9248   2.485   1.299   3.782  0.1570 -0.0293 -0.3025
 2294SOL    HW2 9249   2.479   1.387   3.818 -0.9554 -0.5030  0.6972
 2294SOL    HW3 9250   2.567   1.264   3.817  1.5068  1.2301 -2.1422
 2294SOL    MW4 9251   2.495   1.306   3.791  0.1886  0.0743 -0.4132
 2295SOL     OW 9252   0.689   0.007   4.111  0.0136 -0.4856 -0.1411
 2295SOL    HW2 9253   0.611  -0.045   4.133  0.3761 -0.6064  0.9085
 2295SOL    HW3 9254   0.697   0.000   4.016  0.2641 -2.6406  0.0139
 2295SOL    MW4 9255   0.680  -0.000   4.102  0.0946 -0.7858  0.0181
 2296SOL     OW 9256   2.006   1.533   4.159  0.2511  0.1175 -0.0199
 2296SOL    HW2 9257   2.033   1.621   4.184  1.8449 -0.4516  0.3244
 2296SOL    HW3 9258   2.016   1.532   4.063 -0.7801  0.6257 -0.1449
 2296SOL    MW4 9259   2.011   1.545   4.149  0.3257  0.1094  0.0086
 2297SOL     OW 9260   2.228   2.667   3.874 -0.3496 -0.2924 -0.2342
 2297SOL    HW2 9261   2.184   2.639   3.955 -0.4747  0.3245 -0.0914
 2297SOL    HW3 9262   2.236   2.586   3.823 -2.8023 -0.1924 -0.8223
 2297SOL    MW4 9263   2.223   2.652   3.878 -0.6897 -0.1976 -0.2928
 2298SOL     OW 9264   2.085   1.808   4.222 -0.2964  0.4092 -0.3716
 2298SOL    HW2 9265   2.158   1.850   4.175 -0.9719  2.0640  0.0288
 2298SOL    HW3 9266   2.100   1.831   4.314 -0.6204 -0.3327 -0.1330
 2298SOL    MW4 9267   2.097   1.817   4.228 -0.4282  0.5296 -0.2871
 2299SOL     OW 9268   0.797   1.952   4.583 -0.2353 -0.3487 -0.2177
 2299SOL    HW2 9269   0.717   1.914   4.547 -0.5230 -0.5221  0.5866
 2299SOL    HW3 9270   0.865   1.887   4.565 -0.8270 -1.5380  1.6349
 2299SOL    MW4 9271   0.795   1.938   4.576 -0.3514 -0.5285  0.1321
 2300SOL     OW 9272   0.277   2.587   4.294  0.3440  0.5196  0.8643
 2300SOL    HW2 9273   0.325   2.630   4.223 -0.4021  1.2360  0.8008
 2300SOL    HW3 9274   0.276   2.494   4.269  2.3808  0.3590  1.2514
 2300SOL    MW4 9275   0.283   2.580   4.282  0.5143  0.5927  0.9074
 2301SOL     OW 9276   2.215   2.296   4.529 -0.0770  0.3579 -0.1535
 2301SOL    HW2 9277   2.287   2.332   4.581 -0.4776  0.9495 -0.0034
 2301SOL    HW3 9278   2.258   2.250   4.458  0.4444  2.7756 -1.4637
 2301SOL    MW4 9279   2.230   2.295   4.527 -0.0610  0.7551 -0.3066
 2302SOL     OW 9280   2.421   2.868   3.831  0.3787 -0.3689  0.0384
 2302SOL    HW2 9281   2.422   2.864   3.735  0.2134 -0.8213  0.0541
 2302SOL    HW3 9282   2.340   2.823   3.856  0.7720 -0.8796  0.4178
 2302SOL    MW4 9283   2.411   2.861   3.822  0.4086 -0.4961  0.0906
 2303SOL     OW 9284   1.524   0.649   4.646  0.1221  0.0223  0.4506
 2303SOL    HW2 9285   1.436   0.633   4.612  0.1861 -0.0875  0.3401
 2303SOL    HW3 9286   1.545   0.570   4.697  0.6842 -0.5090 -0.5993
 2303SOL    MW4 9287   1.515   0.636   4.648  0.2047 -0.0622  0.2971
 2304SOL     OW 9288   2.237   3.212   3.714  0.4656  0.0564  0.2684
 2304SOL    HW2 9289   2.307   3.174   3.766  0.1168  0.2324  0.8638
 2304SOL    HW3 9290   2.237   3.305   3.737  1.1155  0.3820 -0.9551
 2304SOL    MW4 9291   2.246   3.219   3.724  0.5052  0.1228  0.1855
 2305SOL     OW 9292   2.235   3.451   3.798  0.2458 -0.0512 -0.3014
 2305SOL    HW2 9293   2.245   3.440   3.893  0.1535  0.7830 -0.1943
 2305SOL    HW3 9294   2.312   3.499   3.770 -0.5466  1.1959 -0.3834
 2305SOL    MW4 9295   2.246   3.456   3.807  0.1287  0.2236 -0.2978
 2306SOL     OW 9296   2.704   3.468   3.800  0.1048  0.1719 -0.3736
 2306SOL    HW2 9297   2.714   3.449   3.894 -0.5731 -0.2537 -0.3886
 2306SOL    HW3 9298   2.781   3.522   3.779  0.6457 -0.3332  0.2614
 2306SOL    MW4 9299   2.716   3.473   3.810  0.0868  0.0489 -0.2916
 2307SOL     OW 9300   2.457   3.579   3.728 -0.1544 -0.4531 -0.5809
 2307SOL    HW2 9301   2.467   3.583   3.633  0.7212  1.0031 -0.4461
 2307SOL    HW3 9302   2.539   3.540   3.760  0.8261  1.8181 -0.2287
 2307SOL    MW4 9303   2.469   3.575   3.720  0.0904  0.0389 -0.5167
 2308SOL     OW 9304   2.252   4.035   3.739  0.4360  0.0966  0.1197
 2308SOL    HW2 9305   2.323   3.973   3.756 -0.6625 -1.7221 -1.5664
 2308SOL    HW3 9306   2.238   4.028   3.644 -0.0414  2.6184 -0.0289
 2308SOL    MW4 9307   2.260   4.025   3.728  0.2282  0.1888 -0.1225
 2309SOL     OW 9308   2.224   4.289   3.830 -0.3427 -0.4080  0.1233
 2309SOL    HW2 9309   2.208   4.299   3.924 -0.2903  0.0878  0.0770
 2309SOL    HW3 9310   2.226   4.194   3.817 -1.0838 -0.4811  0.4959
 2309SOL    MW4 9311   2.222   4.278   3.841 -0.4334 -0.3524  0.1662
 2310SOL     OW 9312   2.463   4.418   3.769 -0.1671 -0.1759 -0.3619
 2310SOL    HW2 9313   2.386   4.370   3.799  0.8731 -2.1262 -0.7042
 2310SOL    HW3 9314   2.462   4.499   3.819 -1.8615 -0.6401  0.3917
 2310SOL    MW4 9315   2.453   4.422   3.779 -0.2532 -0.4950 -0.3076
 2311SOL     OW 9316   2.940   4.626   3.908  0.3306 -0.1502 -0.0971
 2311SOL    HW2 9317   2.940   4.625   4.004 -0.4965  0.1284 -0.0924
 2311SOL    HW3 9318   3.014   4.682   3.884  1.1273 -1.0010  0.3684
 2311SOL    MW4 9319   2.950   4.633   3.917  0.3264 -0.2255 -0.0348
 2312SOL     OW 9320   2.693   0.117   3.779  0.2281  0.0227  0.2631
 2312SOL    HW2 9321   2.765   0.059   3.805 -0.7197 -1.4204 -0.2875
 2312SOL    HW3 9322   2.695   0.117   3.684 -0.1227  0.4567  0.2537
 2312SOL    MW4 9323   2.703   0.109   3.770  0.0570 -0.1105  0.1895
 2313SOL     OW 9324   2.956   0.522   3.764 -0.0012 -0.0280  0.0876
 2313SOL    HW2 9325   2.889   0.459   3.790 -1.3108  1.2108 -0.2209
 2313SOL    HW3 9326   2.930   0.604   3.806  1.3923  0.4392  0.0661
 2313SOL    MW4 9327   2.944   0.524   3.773  0.0100  0.1971  0.0439
 2314SOL     OW 9328   2.914   0.773   3.854 -0.1755 -0.5311 -0.1619
 2314SOL    HW2 9329   2.983   0.838   3.848 -0.9927  0.2794 -1.2072
 2314SOL    HW3 9330   2.901   0.759   3.948  1.1150 -0.3968  0.0414
 2314SOL    MW4 9331   2.921   0.780   3.865 -0.1132 -0.4065 -0.2732
 2315SOL     OW 9332   2.684   0.942   3.784 -0.2863 -0.4826  0.7332
 2315SOL    HW2 9333   2.760   0.885   3.797 -0.4543 -0.7174  0.6952
 2315SOL    HW3 9334   2.612   0.896   3.829 -1.1255 -1.8231 -1.8556
 2315SOL    MW4 9335   2.684   0.928   3.792 -0.4191 -0.6905  0.3867
 2316SOL     OW 9336   2.006   0.166   4.500  0.2821 -0.0664  0.1593
 2316SOL    HW2 9337   2.006   0.157   4.405  0.2782  0.5771  0.0972
 2316SOL    HW3 9338   1.991   0.077   4.532 -0.1488 -0.2157 -0.4444
 2316SOL    MW4 9339   2.004   0.153   4.492  0.2246 -0.0012  0.0715
 2317SOL     OW 9340   2.703   1.192   3.917 -0.8225 -0.0328  0.3002
 2317SOL    HW2 9341   2.683   1.102   3.891  0.2392  0.1756 -1.3539
 2317SOL    HW3 9342   2.707   1.189   4.012  0.6693 -2.0894  0.2125
 2317SOL    MW4 9343   2.701   1.180   3.926 -0.4857 -0.2766  0.0701
 2318SOL     OW 9344   2.936   1.260   3.802 -0.1519  0.7585  0.1237
 2318SOL    HW2 9345   2.938   1.355   3.813  0.0582  0.5592  1.9181
 2318SOL    HW3 9346   2.858   1.232   3.848 -0.1326  0.0336 -0.2769
 2318SOL    MW4 9347   2.926   1.269   3.809 -0.1218  0.6365  0.3076
 2319SOL     OW 9348   1.768   1.425   4.289 -0.1231  0.5725  0.1253
 2319SOL    HW2 9349   1.827   1.473   4.230  0.9771 -0.3816  0.4310
 2319SOL    HW3 9350   1.770   1.335   4.256 -0.9485  0.4184  0.5025
 2319SOL    MW4 9351   1.776   1.419   4.277 -0.0868  0.4264  0.2155
 2320SOL     OW 9352   2.716   1.660   3.804 -0.1976 -0.3772  0.4421
 2320SOL    HW2 9353   2.800   1.619   3.824 -0.4294 -0.5272  1.1536
 2320SOL    HW3 9354   2.713   1.668   3.709  0.3526 -0.9345  0.3848
 2320SOL    MW4 9355   2.726   1.656   3.794 -0.1557 -0.4705  0.5286
 2321SOL     OW 9356   3.385   2.256   3.850 -0.4129 -0.1332  0.4092
 2321SOL    HW2 9357   3.322   2.327   3.841  0.7960  0.9731  0.4630
 2321SOL    HW3 9358   3.366   2.218   3.935 -2.6639 -1.4825 -0.6559
 2321SOL    MW4 9359   3.374   2.260   3.860 -0.5505 -0.1650  0.2761
 2322SOL     OW 9360   0.315   1.451   4.460 -0.2864 -0.1450 -0.1584
 2322SOL    HW2 9361   0.349   1.435   4.372  0.0602 -1.8710  0.2708
 2322SOL    HW3 9362   0.392   1.450   4.517 -0.7025 -0.9646  0.4055
 2322SOL    MW4 9363   0.329   1.449   4.456 -0.2956 -0.4809 -0.0272
 2323SOL     OW 9364   1.618   1.402   4.670  0.1117 -0.1825 -0.2291
 2323SOL    HW2 9365   1.626   1.316   4.629 -0.4433 -0.0090 -0.7120
 2323SOL    HW3 9366   1.693   1.452   4.638  0.1693 -0.3332 -0.3290
 2323SOL    MW4 9367   1.629   1.397   4.660  0.0461 -0.1795 -0.3066
 2324SOL     OW 9368   2.724   1.952   3.871 -0.8202  0.0611  0.3076
 2324SOL    HW2 9369   2.748   1.970   3.962 -0.5149  0.4527  0.1531
 2324SOL    HW3 9370   2.726   1.857   3.863  0.2017  0.0752  0.4270
 2324SOL    MW4 9371   2.727   1.942   3.882 -0.6449  0.1148  0.3030
 2325SOL     OW 9372   2.664   2.724   3.858 -0.0783  0.0102  0.0521
 2325SOL    HW2 9373   2.663   2.717   3.954 -0.0303 -0.4255  0.0257
 2325SOL    HW3 9374   2.584   2.771   3.837 -0.6166 -0.7943  0.2484
 2325SOL    MW4 9375   2.654   2.729   3.868 -0.1428 -0.1538  0.0746
 2326SOL     OW 9376   3.112   3.415   4.396 -0.2121 -0.0948  0.3159
 2326SOL    HW2 9377   3.029   3.380   4.364  0.6042 -0.9272 -0.9062
 2326SOL    HW3 9378   3.103   3.510   4.386 -0.8110 -0.2147 -0.3269
 2326SOL    MW4 9379   3.100   3.423   4.391 -0.1831 -0.2201  0.0701
 2327SOL     OW 9380   2.654   2.464   3.471 -0.1195  0.5456  0.1114
 2327SOL    HW2 9381   2.642   2.452   3.565  0.5025 -0.7187  0.0416
 2327SOL    HW3 9382   2.732   2.413   3.450  0.2500  1.5293 -0.9430
 2327SOL    MW4 9383   2.663   2.455   3.480  0.0114  0.5088 -0.0372
 2328SOL     OW 9384   2.664   3.206   3.743 -0.1144 -0.3525 -0.1095
 2328SOL    HW2 9385   2.744   3.159   3.761 -1.3696 -1.7349  2.0136
 2328SOL    HW3 9386   2.686   3.298   3.760  1.3613 -0.5469 -0.8724
 2328SOL    MW4 9387   2.677   3.212   3.747 -0.0856 -0.5603  0.0701
 2329SOL     OW 9388   2.675   3.668   4.222  0.7154 -0.2219 -0.0492
 2329SOL    HW2 9389   2.661   3.685   4.315 -2.4034 -2.6588 -0.0067
 2329SOL    HW3 9390   2.609   3.721   4.178 -0.0890 -1.6605 -0.6293
 2329SOL    MW4 9391   2.664   3.677   4.229  0.1979 -0.7331 -0.1197
 2330SOL     OW 9392   2.916   3.645   3.737  0.3974 -0.2096  0.5294
 2330SOL    HW2 9393   2.988   3.584   3.753  1.1165  0.6793  0.7351
 2330SOL    HW3 9394   2.912   3.654   3.642  0.1079 -0.7820  0.4838
 2330SOL    MW4 9395   2.925   3.638   3.727  0.4542 -0.1678  0.5505
 2331SOL     OW 9396   2.883   3.874   3.892 -0.3225 -0.0467 -0.0217
 2331SOL    HW2 9397   2.878   3.864   3.987 -0.6698  0.5385  0.0220
 2331SOL    HW3 9398   2.897   3.785   3.860  1.8574  0.0016  0.7043
 2331SOL    MW4 9399   2.884   3.861   3.900 -0.0803  0.0367  0.0801
 2332SOL     OW 9400   2.672   3.997   3.783  0.0397  0.1494  0.2913
 2332SOL    HW2 9401   2.665   4.083   3.824 -1.2935  0.1737  0.0289
 2332SOL    HW3 9402   2.750   3.958   3.822  1.4365  2.0016 -0.5663
 2332SOL    MW4 9403   2.682   4.003   3.794  0.0482  0.3967  0.1435
 2333SOL     OW 9404   2.671   4.249   3.874  0.4898  0.3152 -0.3236
 2333SOL    HW2 9405   2.745   4.302   3.843  0.6845  1.2099  1.5508
 2333SOL    HW3 9406   2.593   4.296   3.843  0.6811  1.1742  0.4509
 2333SOL    MW4 9407   2.671   4.263   3.866  0.5410  0.5465  0.0257
 2334SOL     OW 9408   2.907   4.376   3.786  0.4522 -0.5762 -0.0259
 2334SOL    HW2 9409   2.984   4.327   3.813  0.4152 -0.0084  1.1685
 2334SOL    HW3 9410   2.914   4.459   3.834 -0.9000 -0.5237  0.1025
 2334SOL    MW4 9411   2.918   4.381   3.796  0.2689 -0.4940  0.1488
 2335SOL     OW 9412   3.374   4.619   3.878 -0.0215  0.2183  0.5030
 2335SOL    HW2 9413   3.397   4.604   3.970  0.6459 -2.1539 -0.0217
 2335SOL    HW3 9414   3.451   4.663   3.841  0.3599 -0.2945  0.6886
 2335SOL    MW4 9415   3.387   4.623   3.886  0.1171 -0.1626  0.4585
 2336SOL     OW 9416   3.152   0.114   3.818 -0.2257 -0.3029 -0.1505
 2336SOL    HW2 9417   3.237   0.075   3.839  0.7084  1.1552 -1.1268
 2336SOL    HW3 9418   3.148   0.114   3.722 -0.3634  1.6362 -0.1653
 2336SOL    MW4 9419   3.163   0.109   3.808 -0.1204  0.1453 -0.2816
 2337SOL     OW 9420   3.148   0.393   3.922 -0.0552 -0.0551 -0.4644
 2337SOL    HW2 9421   3.087   0.450   3.876  0.3344 -0.8941 -2.0398
 2337SOL    HW3 9422   3.143   0.310   3.876  1.9940 -0.2557 -0.3775
 2337SOL    MW4 9423   3.139   0.390   3.910  0.2666 -0.1923 -0.6609
 2338SOL     OW 9424   3.351   0.480   3.772 -0.5733 -0.0648  0.1437
 2338SOL    HW2 9425   3.427   0.441   3.815 -0.1220  0.0643 -0.5175
 2338SOL    HW3 9426   3.275   0.442   3.817 -0.1322 -1.1729 -0.0263
 2338SOL    MW4 9427   3.351   0.470   3.783 -0.4556 -0.1940  0.0341
 2339SOL     OW 9428   3.357   0.743   3.876 -0.2269  0.0688  0.4810
 2339SOL    HW2 9429   3.353   0.724   3.970 -0.2657 -0.2965  0.4072
 2339SOL    HW3 9430   3.359   0.657   3.835 -0.3012  0.2304  0.1412
 2339SOL    MW4 9431   3.357   0.729   3.883 -0.2418  0.0419  0.4263
 2340SOL     OW 9432   3.158   0.912   3.789 -0.1957 -0.2089 -0.1740
 2340SOL    HW2 9433   3.224   0.850   3.822  0.0582  1.3555  2.4163
 2340SOL    HW3 9434   3.157   0.898   3.694  2.8964 -1.2229 -0.1256
 2340SOL    MW4 9435   3.167   0.902   3.781  0.2456 -0.1363  0.1740
 2341SOL     OW 9436   3.190   1.157   3.894  0.2265  0.4753  0.3148
 2341SOL    HW2 9437   3.191   1.065   3.868 -0.4886  0.5989 -0.1753
 2341SOL    HW3 9438   3.104   1.189   3.865  0.7934  1.5018 -0.2612
 2341SOL    MW4 9439   3.179   1.149   3.886  0.2067  0.6269  0.1740
 2342SOL     OW 9440   3.416   1.307   3.799  0.0965 -0.1312  0.4783
 2342SOL    HW2 9441   3.338   1.269   3.840  0.5505  0.5171  1.9448
 2342SOL    HW3 9442   3.396   1.306   3.705 -1.2286 -0.9759  0.7550
 2342SOL    MW4 9443   3.403   1.302   3.792 -0.0184 -0.1571  0.7086
 2343SOL     OW 9444   3.405   1.660   4.487  0.1015 -0.0443 -0.2899
 2343SOL    HW2 9445   3.394   1.738   4.541 -0.8096 -0.9750  0.9278
 2343SOL    HW3 9446   3.495   1.631   4.503 -0.6859 -1.2807  2.1175
 2343SOL    MW4 9447   3.415   1.666   4.496 -0.1225 -0.3303  0.1884
 2344SOL     OW 9448   3.160   0.345   4.196 -0.0153  0.0721  0.3586
 2344SOL    HW2 9449   3.128   0.431   4.224  0.3489  0.1224  0.6265
 2344SOL    HW3 9450   3.179   0.355   4.103 -1.2685 -0.1063  0.0763
 2344SOL    MW4 9451   3.158   0.358   4.188 -0.1326  0.0552  0.3562
 2345SOL     OW 9452   2.966   1.528   3.886 -0.1286 -0.2904  0.2531
 2345SOL    HW2 9453   2.968   1.535   3.981  0.8799 -0.0105  0.2088
 2345SOL    HW3 9454   3.051   1.561   3.857  0.0503 -1.5212 -0.6724
 2345SOL    MW4 9455   2.977   1.534   3.895  0.0279 -0.4158  0.1252
 2346SOL     OW 9456   3.187   1.673   3.786 -0.1901  0.0902 -0.1180
 2346SOL    HW2 9457   3.173   1.679   3.692 -0.7086  0.6891 -0.0013
 2346SOL    HW3 9458   3.170   1.761   3.819  0.9773  0.1256  0.4061
 2346SOL    MW4 9459   3.183   1.685   3.778 -0.1044  0.1738 -0.0334
 2347SOL     OW 9460   4.261   3.274   4.253  0.0976  0.2792 -0.0289
 2347SOL    HW2 9461   4.182   3.314   4.217  0.1225  0.6902  0.3632
 2347SOL    HW3 9462   4.242   3.264   4.346 -0.1380 -1.1832 -0.2241
 2347SOL    MW4 9463   4.248   3.278   4.261  0.0696  0.1404 -0.0033
 2348SOL     OW 9464   3.106   3.472   3.836  0.0258  0.4196  0.0005
 2348SOL    HW2 9465   3.113   3.466   3.931 -0.2520 -1.2074 -0.0697
 2348SOL    HW3 9466   3.190   3.508   3.807  1.0056 -1.2892  0.6748
 2348SOL    MW4 9467   3.118   3.476   3.845  0.1183 -0.0205  0.0801
 2349SOL     OW 9468   1.614   3.085   4.173 -0.1006 -0.6449 -0.5419
 2349SOL    HW2 9469   1.534   3.045   4.207  0.1084 -0.2390  0.4676
 2349SOL    HW3 9470   1.677   3.013   4.166 -0.7059 -1.0578 -1.8425
 2349SOL    MW4 9471   1.612   3.071   4.177 -0.1528 -0.6456 -0.5808
 2350SOL     OW 9472   3.380   3.079   3.769  0.4825 -0.2845 -0.0213
 2350SOL    HW2 9473   3.308   3.141   3.755  0.7383  0.0891  0.2910
 2350SOL    HW3 9474   3.408   3.095   3.859  2.8293  1.5984 -1.0337
 2350SOL    MW4 9475   3.374   3.090   3.779  0.8264  0.0131 -0.1135
 2351SOL     OW 9476   3.620   2.368   3.736  0.2477  0.1250 -0.2133
 2351SOL    HW2 9477   3.578   2.392   3.653  0.8056  0.7483 -0.3194
 2351SOL    HW3 9478   3.552   2.320   3.784 -0.0976 -0.1796 -0.9990
 2351SOL    MW4 9479   3.605   2.365   3.731  0.2759  0.1669 -0.3312
 2352SOL     OW 9480   0.607   1.792   4.481  0.1304  0.4423 -0.4764
 2352SOL    HW2 9481   0.608   1.794   4.386 -0.9029  0.8928 -0.4910
 2352SOL    HW3 9482   0.644   1.707   4.504  0.0464  0.1805 -1.2900
 2352SOL    MW4 9483   0.612   1.781   4.472 -0.0170  0.4672 -0.5856
 2353SOL     OW 9484   0.844   1.920   4.143  0.6457  0.0453  0.5742
 2353SOL    HW2 9485   0.849   2.005   4.187 -0.4154  0.0200  0.7612
 2353SOL    HW3 9486   0.761   1.883   4.172 -0.4791  0.3597 -2.0649
 2353SOL    MW4 9487   0.834   1.926   4.153  0.3572  0.0834  0.2508
 2354SOL     OW 9488   3.389   3.573   3.779 -0.2913 -0.0098  0.1750
 2354SOL    HW2 9489   3.378   3.666   3.799 -1.4537 -0.4847  1.9167
 2354SOL    HW3 9490   3.476   3.551   3.814  1.1106  0.9708 -2.5570
 2354SOL    MW4 9491   3.399   3.582   3.786 -0.2596  0.0567  0.0443
 2355SOL     OW 9492   3.593   3.946   3.777 -0.4306  0.2394 -0.0067
 2355SOL    HW2 9493   3.583   4.038   3.801  0.1080  1.4745 -4.1642
 2355SOL    HW3 9494   3.510   3.906   3.803 -0.5235  1.7522  2.2036
 2355SOL    MW4 9495   3.581   3.953   3.784 -0.3719  0.6015 -0.2635
 2356SOL     OW 9496   3.124   3.964   3.781 -0.1580 -0.0342 -0.4056
 2356SOL    HW2 9497   3.131   4.058   3.799  2.2568 -0.5267  1.5258
 2356SOL    HW3 9498   3.041   3.938   3.823 -0.2833  1.0194  0.0221
 2356SOL    MW4 9499   3.114   3.973   3.789  0.1440  0.0398 -0.0942
 2357SOL     OW 9500   3.125   4.222   3.855 -0.2345  0.6860 -0.4772
 2357SOL    HW2 9501   3.100   4.228   3.948 -0.9065  1.0955 -0.6767
 2357SOL    HW3 9502   3.206   4.274   3.849  0.2050  0.0666  0.0133
 2357SOL    MW4 9503   3.132   4.230   3.867 -0.2654  0.6585 -0.4389
 2358SOL     OW 9504   3.345   4.370   3.779  0.6675  0.3977  0.3734
 2358SOL    HW2 9505   3.356   4.457   3.818  3.6315 -0.0782  0.7429
 2358SOL    HW3 9506   3.408   4.315   3.826 -0.3708 -1.6831 -0.6311
 2358SOL    MW4 9507   3.355   4.374   3.790  0.9215  0.0610  0.2899
 2359SOL     OW 9508   0.929   4.527   4.216 -0.2186  0.0390 -0.0375
 2359SOL    HW2 9509   0.943   4.436   4.191  0.1288  0.1272 -0.1642
 2359SOL    HW3 9510   0.839   4.545   4.190 -0.2801 -0.2600 -0.0359
 2359SOL    MW4 9511   0.919   4.517   4.209 -0.1808  0.0114 -0.0539
 2360SOL     OW 9512   3.601   0.104   3.799 -0.7799 -0.2224  0.1779
 2360SOL    HW2 9513   3.670   0.055   3.845 -0.1358  0.3592 -0.1665
 2360SOL    HW3 9514   3.630   0.107   3.708  0.0810  2.3313  0.4968
 2360SOL    MW4 9515   3.614   0.098   3.793 -0.5815  0.1913  0.1745
 2361SOL     OW 9516   3.586   0.372   3.896 -0.3979  0.0125 -0.3062
 2361SOL    HW2 9517   3.657   0.398   3.836 -0.5407 -0.2661 -0.5938
 2361SOL    HW3 9518   3.572   0.279   3.878 -0.6888  0.0161 -0.0920
 2361SOL    MW4 9519   3.594   0.363   3.885 -0.4549 -0.0238 -0.3159
 2362SOL     OW 9520   3.834   0.494   3.735 -0.2273  0.1493  0.0634
 2362SOL    HW2 9521   3.917   0.453   3.759  0.5520  0.2287 -2.3179
 2362SOL    HW3 9522   3.823   0.566   3.797  0.8143 -0.6868  1.2329
 2362SOL    MW4 9523   3.844   0.498   3.746  0.0131  0.0494 -0.0966
 2363SOL     OW 9524   3.772   0.727   3.887 -0.1371 -0.0540  0.0106
 2363SOL    HW2 9525   3.708   0.777   3.835 -0.2722  0.1793  0.3993
 2363SOL    HW3 9526   3.853   0.776   3.880 -0.0272 -0.2898 -0.3903
 2363SOL    MW4 9527   3.774   0.740   3.879 -0.1404 -0.0543  0.0091
 2364SOL     OW 9528   3.586   0.892   3.765  0.2352  0.2627 -0.0390
 2364SOL    HW2 9529   3.599   0.980   3.801 -0.1094  1.2095 -2.1594
 2364SOL    HW3 9530   3.510   0.859   3.812 -0.0868  1.3982  0.2722
 2364SOL    MW4 9531   3.578   0.900   3.776  0.1473  0.5375 -0.2775
 2365SOL     OW 9532   3.627   1.149   3.876 -0.3072  0.4781 -0.3079
 2365SOL    HW2 9533   3.709   1.194   3.856 -0.2163  0.0217 -0.9503
 2365SOL    HW3 9534   3.560   1.200   3.831 -0.4970  1.3914  0.9688
 2365SOL    MW4 9535   3.629   1.162   3.868 -0.3204  0.5385 -0.2241
 2366SOL     OW 9536   3.835   1.319   3.794  0.1461  0.2855 -0.0523
 2366SOL    HW2 9537   3.899   1.261   3.836 -0.2713  0.1923  0.4523
 2366SOL    HW3 9538   3.851   1.405   3.834  0.2549  0.3619 -0.2543
 2366SOL    MW4 9539   3.846   1.323   3.805  0.1051  0.2835 -0.0124
 2367SOL     OW 9540   0.524   4.519   4.467  0.4435 -0.5716  0.2762
 2367SOL    HW2 9541   0.488   4.536   4.380  1.6351  0.0773 -0.1046
 2367SOL    HW3 9542   0.568   4.434   4.459  0.3306 -0.6330  0.3131
 2367SOL    MW4 9543   0.525   4.510   4.455  0.5859 -0.4940  0.2313
 2368SOL     OW 9544   3.871   1.572   3.906 -0.3777  0.5598  0.5741
 2368SOL    HW2 9545   3.800   1.614   3.857 -0.6782 -1.0369 -0.4085
 2368SOL    HW3 9546   3.950   1.593   3.856 -0.3946  0.7971  0.6466
 2368SOL    MW4 9547   3.872   1.580   3.893 -0.4199  0.3805  0.4539
 2369SOL     OW 9548   1.753   0.605   4.488  0.0211 -0.3103  0.1010
 2369SOL    HW2 9549   1.668   0.619   4.532 -0.5479 -0.7557 -0.8339
 2369SOL    HW3 9550   1.791   0.531   4.536  0.4264  0.6502  1.2902
 2369SOL    MW4 9551   1.747   0.597   4.500 -0.0006 -0.2423  0.1345
 2370SOL     OW 9552   4.072   1.908   3.888  0.4631 -0.4570  0.1392
 2370SOL    HW2 9553   4.054   1.943   3.976 -2.5720  1.6222 -1.2434
 2370SOL    HW3 9554   4.140   1.965   3.853 -1.3245  1.3975 -0.4130
 2370SOL    MW4 9555   4.079   1.920   3.895 -0.1731  0.0621 -0.1159
 2371SOL     OW 9556   3.618   2.610   4.084  0.2106 -0.1687 -0.4990
 2371SOL    HW2 9557   3.564   2.549   4.136 -0.6346 -0.0009 -1.1722
 2371SOL    HW3 9558   3.593   2.697   4.115  1.4033 -0.1521  0.4467
 2371SOL    MW4 9559   3.607   2.613   4.095  0.2565 -0.1445 -0.4635
 2372SOL     OW 9560   2.918   2.331   3.886  0.4702  0.0731  0.1037
 2372SOL    HW2 9561   3.003   2.364   3.858  0.8006 -0.1406  0.8253
 2372SOL    HW3 9562   2.905   2.367   3.974 -0.0010 -0.2133  0.1596
 2372SOL    MW4 9563   2.927   2.340   3.894  0.4516  0.0072  0.2065
 2373SOL     OW 9564   3.604   3.218   3.684 -0.9540  0.2177 -0.4309
 2373SOL    HW2 9565   3.524   3.171   3.709 -0.3964 -1.0994 -1.0388
 2373SOL    HW3 9566   3.673   3.174   3.735 -0.3439 -0.0081 -1.4494
 2373SOL    MW4 9567   3.603   3.206   3.694 -0.7999  0.0143 -0.6452
 2374SOL     OW 9568   3.120   2.698   3.856 -0.1155  0.1549 -0.1873
 2374SOL    HW2 9569   3.198   2.745   3.827  0.0024  0.1455  0.1083
 2374SOL    HW3 9570   3.094   2.743   3.937  0.7227 -1.0420  0.7733
 2374SOL    MW4 9571   3.127   2.710   3.863  0.0105 -0.0043 -0.0217
 2375SOL     OW 9572   3.813   2.839   3.733 -0.3141  0.1598  0.3291
 2375SOL    HW2 9573   3.742   2.778   3.750 -0.8288  1.2172  2.0937
 2375SOL    HW3 9574   3.891   2.795   3.767 -0.2728 -0.5319 -0.6266
 2375SOL    MW4 9575   3.814   2.825   3.739 -0.3767  0.2081  0.4358
 2376SOL     OW 9576   0.867   1.084   4.432  0.0431 -0.1104  0.0803
 2376SOL    HW2 9577   0.789   1.036   4.459  0.5591 -0.9819  0.0346
 2376SOL    HW3 9578   0.859   1.169   4.476 -0.9683 -0.1667  0.0077
 2376SOL    MW4 9579   0.856   1.089   4.442 -0.0223 -0.2329  0.0648
 2377SOL     OW 9580   3.672   1.544   4.535  0.2802  0.0109  0.6543
 2377SOL    HW2 9581   3.720   1.493   4.470 -1.1885  1.0538 -1.3152
 2377SOL    HW3 9582   3.707   1.632   4.528  0.2800  0.0701  1.4326
 2377SOL    MW4 9583   3.683   1.549   4.525  0.0863  0.1563  0.4978
 2378SOL     OW 9584   3.688   3.552   4.482  0.3997  0.2022  0.2438
 2378SOL    HW2 9585   3.780   3.574   4.495  0.4117  0.6083 -0.5136
 2378SOL    HW3 9586   3.667   3.588   4.396 -0.7761  1.1014  0.9044
 2378SOL    MW4 9587   3.698   3.560   4.472  0.2460  0.3746  0.2313
 2379SOL     OW 9588   3.376   3.586   4.559  0.5000  0.0014 -0.0231
 2379SOL    HW2 9589   3.469   3.594   4.537  0.5497  0.1008  0.2206
 2379SOL    HW3 9590   3.341   3.674   4.547  0.2352 -0.2425 -1.0322
 2379SOL    MW4 9591   3.384   3.599   4.555  0.4714 -0.0176 -0.1235
 2380SOL     OW 9592   1.843   2.523   4.695  0.0032 -0.1958 -0.0327
 2380SOL    HW2 9593   1.904   2.503   4.625 -0.2471 -3.0769  0.5384
 2380SOL    HW3 9594   1.762   2.547   4.650  0.2116 -0.7927 -0.7245
 2380SOL    MW4 9595   1.840   2.524   4.680 -0.0024 -0.6545 -0.0491
 2381SOL     OW 9596   4.310   4.293   4.656  0.5678 -0.0522  0.2464
 2381SOL    HW2 9597   4.238   4.318   4.714 -0.7339 -2.4453 -0.2646
 2381SOL    HW3 9598   4.341   4.375   4.619 -3.3817  0.9137 -1.2158
 2381SOL    MW4 9599   4.304   4.307   4.659 -0.1249 -0.2408 -0.0138
 2382SOL     OW 9600   3.803   4.363   3.784  0.2990 -0.4228 -0.1119
 2382SOL    HW2 9601   3.805   4.350   3.689  0.0559 -0.5721 -0.0986
 2382SOL    HW3 9602   3.885   4.324   3.815  0.6492  0.1453 -0.3206
 2382SOL    MW4 9603   3.814   4.356   3.776  0.3128 -0.3676 -0.1380
 2383SOL     OW 9604   4.234   4.657   3.790 -0.1271  0.0670 -0.6973
 2383SOL    HW2 9605   4.260   4.649   3.882 -0.0041 -1.5130 -0.8535
 2383SOL    HW3 9606   4.313   4.686   3.745  0.0038  0.1569 -0.4138
 2383SOL    MW4 9607   4.248   4.660   3.796 -0.0935 -0.1292 -0.6807
 2384SOL     OW 9608   3.806   4.616   3.884  0.1097 -0.0096  0.1225
 2384SOL    HW2 9609   3.884   4.648   3.839  0.2076 -1.2717 -0.5919
 2384SOL    HW3 9610   3.797   4.525   3.857 -2.2031  0.4056 -0.6249
 2384SOL    MW4 9611   3.815   4.609   3.875 -0.1826 -0.1216 -0.0701
 2385SOL     OW 9612   3.991   0.082   3.718  0.2139 -0.0235  0.5609
 2385SOL    HW2 9613   4.079   0.048   3.735 -0.1327 -1.4358 -0.3320
 2385SOL    HW3 9614   3.987   0.092   3.623  0.0549  1.8687  0.7534
 2385SOL    MW4 9615   4.002   0.079   3.708  0.1473  0.0398  0.4685
 2386SOL     OW 9616   4.221   0.520   3.739  0.2106 -0.0551  0.5053
 2386SOL    HW2 9617   4.164   0.450   3.771 -1.3090  1.2517  0.7045
 2386SOL    HW3 9618   4.224   0.507   3.644 -2.6215  1.4406  0.1618
 2386SOL    MW4 9619   4.214   0.509   3.731 -0.3643  0.3147  0.4861
 2387SOL     OW 9620   4.242   0.738   3.900 -0.3330 -0.4092  0.6849
 2387SOL    HW2 9621   4.241   0.658   3.847  2.2841  0.4783 -0.8269
 2387SOL    HW3 9622   4.159   0.781   3.881 -0.6855 -1.5559 -0.4247
 2387SOL    MW4 9623   4.231   0.733   3.890 -0.0348 -0.4435  0.3390
 2388SOL     OW 9624   4.019   0.867   3.814 -0.2060 -0.5681  0.6921
 2388SOL    HW2 9625   4.008   0.957   3.847  0.2718 -0.6426  1.0711
 2388SOL    HW3 9626   4.015   0.876   3.719  1.2310  0.0631  0.6760
 2388SOL    MW4 9627   4.017   0.880   3.806  0.0467 -0.4946  0.7401
 2389SOL     OW 9628   4.001   1.141   3.912  0.4475 -0.0128 -0.0903
 2389SOL    HW2 9629   3.998   1.143   4.007 -0.3670  2.8640 -0.1244
 2389SOL    HW3 9630   4.090   1.169   3.890  0.2901  0.4192 -0.1820
 2389SOL    MW4 9631   4.012   1.145   3.922  0.3195  0.4238 -0.1068
 2390SOL     OW 9632   4.225   1.267   3.796 -0.6221 -0.3990  0.2363
 2390SOL    HW2 9633   4.244   1.357   3.820 -1.3606 -0.4620  1.0455
 2390SOL    HW3 9634   4.231   1.266   3.700  2.4369 -0.1794  0.3690
 2390SOL    MW4 9635   4.228   1.278   3.786 -0.3157 -0.3784  0.3605
 2391SOL     OW 9636   4.286   1.520   3.862 -0.0418 -0.0588 -0.0568
 2391SOL    HW2 9637   4.293   1.531   3.957 -0.6190 -0.7734  0.0755
 2391SOL    HW3 9638   4.360   1.568   3.827  0.2242  0.1416  0.7669
 2391SOL    MW4 9639   4.297   1.527   3.870 -0.0830 -0.1266  0.0694
 2392SOL     OW 9640   4.084   1.659   3.742 -0.0333 -0.0722  0.2025
 2392SOL    HW2 9641   4.094   1.746   3.779 -0.9752 -0.1993  0.7756
 2392SOL    HW3 9642   4.161   1.611   3.773  0.8253  0.7385 -0.6640
 2392SOL    MW4 9643   4.095   1.664   3.751 -0.0448  0.0179  0.1638
 2393SOL     OW 9644   0.708   4.135   4.180  0.2313 -0.0577  0.0586
 2393SOL    HW2 9645   0.711   4.039   4.182 -1.1218 -0.0876  1.2448
 2393SOL    HW3 9646   0.795   4.161   4.151  0.3445 -1.6665 -1.1082
 2393SOL    MW4 9647   0.720   4.126   4.177  0.0677 -0.2742  0.0610
 2394SOL     OW 9648   4.252   2.076   3.741 -0.1962  0.3111  0.5689
 2394SOL    HW2 9649   4.263   2.168   3.766  1.5391  0.0831  0.6835
 2394SOL    HW3 9650   4.247   2.077   3.646  0.9606  0.4246  0.5020
 2394SOL    MW4 9651   4.253   2.088   3.732  0.1855  0.2961  0.5753
 2395SOL     OW 9652   4.390   1.164   4.566 -0.2150 -0.1662  0.2283
 2395SOL    HW2 9653   4.430   1.251   4.569 -1.1908  0.2726  0.6905
 2395SOL    HW3 9654   4.463   1.105   4.550  0.4812  0.7257  0.0801
 2395SOL    MW4 9655   4.405   1.168   4.565 -0.2518  0.0094  0.2694
 2396SOL     OW 9656   4.087   2.451   3.736 -0.2554  0.2285  0.1903
 2396SOL    HW2 9657   4.013   2.406   3.778  0.8595 -1.2438  0.5852
 2396SOL    HW3 9658   4.164   2.421   3.783  0.5595  2.2925  0.2197
 2396SOL    MW4 9659   4.087   2.441   3.747 -0.0010  0.3066  0.2465
 2397SOL     OW 9660   3.607   2.663   3.776 -0.1129 -0.1708  0.0489
 2397SOL    HW2 9661   3.619   2.659   3.871  0.4668 -0.8802 -0.0525
 2397SOL    HW3 9662   3.613   2.572   3.747 -0.0016  0.0741 -0.7054
 2397SOL    MW4 9663   3.609   2.651   3.785 -0.0217 -0.2320 -0.0641
 2398SOL     OW 9664   4.280   2.822   3.755 -0.3019 -0.1977 -0.1612
 2398SOL    HW2 9665   4.361   2.780   3.784  0.0570  0.1495 -0.6539
 2398SOL    HW3 9666   4.281   2.908   3.798 -0.7649 -0.4749  0.4081
 2398SOL    MW4 9667   4.291   2.828   3.765 -0.3152 -0.1886 -0.1512
 2399SOL     OW 9668   3.059   0.660   4.554 -0.4380 -0.2870  0.4294
 2399SOL    HW2 9669   3.147   0.695   4.542 -0.9244  1.3267  1.3746
 2399SOL    HW3 9670   3.073   0.571   4.587  0.8304 -0.2888 -0.0952
 2399SOL    MW4 9671   3.072   0.653   4.557 -0.3350 -0.0743  0.4845
 2400SOL     OW 9672   4.054   3.188   3.742 -0.0208 -0.2719  0.4630
 2400SOL    HW2 9673   3.978   3.147   3.783  0.0961  0.0205  0.9718
 2400SOL    HW3 9674   4.037   3.179   3.648 -0.6872 -0.2024  0.5715
 2400SOL    MW4 9675   4.041   3.181   3.735 -0.0935 -0.2239  0.5443
 2401SOL     OW 9676   3.797   3.834   4.149  0.0366 -0.0313  0.0644
 2401SOL    HW2 9677   3.818   3.829   4.055  1.2686 -1.9523  0.4188
 2401SOL    HW3 9678   3.798   3.928   4.168 -0.7122  0.4169 -1.9522
 2401SOL    MW4 9679   3.800   3.846   4.139  0.1006 -0.2255 -0.1550
 2402SOL     OW 9680   4.264   3.598   3.764 -0.2839  0.2757  0.3341
 2402SOL    HW2 9681   4.193   3.548   3.804 -0.7869  0.1964 -0.6513
 2402SOL    HW3 9682   4.343   3.564   3.807 -0.6117 -1.4237 -0.3489
 2402SOL    MW4 9683   4.265   3.587   3.775 -0.3939  0.0412  0.1140
 2403SOL     OW 9684   4.024   3.991   3.765 -0.2962 -0.5103  0.0187
 2403SOL    HW2 9685   4.001   4.001   3.673  0.5236  0.7495 -0.0604
 2403SOL    HW3 9686   3.956   3.934   3.801 -0.4957 -1.1907 -1.4106
 2403SOL    MW4 9687   4.012   3.984   3.758 -0.2141 -0.4337 -0.1800
 2404SOL     OW 9688   4.026   4.246   3.872  0.0830 -0.2158  0.5201
 2404SOL    HW2 9689   4.104   4.287   3.834 -0.7739  0.7130 -0.2539
 2404SOL    HW3 9690   4.025   4.158   3.835 -0.8217  0.7261 -1.7742
 2404SOL    MW4 9691   4.036   4.240   3.862 -0.1493  0.0310  0.1152
 2405SOL     OW 9692   1.101   2.844   4.504  0.0396 -0.3643 -0.2762
 2405SOL    HW2 9693   1.093   2.751   4.523  0.7015 -0.5512 -0.9134
 2405SOL    HW3 9694   1.186   2.869   4.541  0.7189 -0.4323 -1.7553
 2405SOL    MW4 9695   1.111   2.835   4.512  0.2165 -0.3977 -0.5560
 2406SOL     OW 9696   4.255   4.358   3.736  0.1066 -0.3487 -0.1591
 2406SOL    HW2 9697   4.265   4.452   3.748  0.0343 -0.2187 -1.0894
 2406SOL    HW3 9698   4.332   4.320   3.778  0.7120  0.1971 -0.7678
 2406SOL    MW4 9699   4.266   4.365   3.743  0.1774 -0.2594 -0.3622
 2407SOL     OW 9700   3.138   3.711   4.287 -0.4239 -0.3615  0.0833
 2407SOL    HW2 9701   3.196   3.747   4.220  0.9360 -0.2124  1.3041
 2407SOL    HW3 9702   3.051   3.747   4.266  0.0966  0.1346 -1.2474
 2407SOL    MW4 9703   3.134   3.721   4.276 -0.1755 -0.2766  0.0687
 2408SOL     OW 9704   1.514   0.203   4.175  0.4189 -0.4014 -0.4189
 2408SOL    HW2 9705   1.512   0.205   4.271  1.3668 -0.9150 -0.3760
 2408SOL    HW3 9706   1.586   0.262   4.152 -0.5136  0.5852 -0.8667
 2408SOL    MW4 9707   1.524   0.211   4.185  0.4209 -0.3390 -0.4721
 2409SOL     OW 9708   0.883   1.176   4.117  0.3006  0.1672  0.0856
 2409SOL    HW2 9709   0.881   1.166   4.022  1.3354  1.1257 -0.0522
 2409SOL    HW3 9710   0.945   1.110   4.147 -0.9910 -0.9962  0.2281
 2409SOL    MW4 9711   0.891   1.166   4.108  0.2667  0.1402  0.0863
 2410SOL     OW 9712   2.106   1.361   4.551  0.3086  0.5071 -0.5506
 2410SOL    HW2 9713   2.028   1.416   4.544  0.2519  0.4233 -0.5731
 2410SOL    HW3 9714   2.137   1.376   4.641  1.2041  1.7945 -1.0688
 2410SOL    MW4 9715   2.100   1.370   4.562  0.4196  0.6660 -0.6223
 2411SOL     OW 9716   3.108   0.405   4.633 -0.3365 -0.2833 -0.2524
 2411SOL    HW2 9717   3.197   0.384   4.605  0.0967  0.6378  0.4365
 2411SOL    HW3 9718   3.062   0.321   4.628  0.5523 -0.7636 -0.6303
 2411SOL    MW4 9719   3.114   0.391   4.628 -0.1621 -0.2252 -0.2112
 2412SOL     OW 9720   0.219   3.094   4.159 -0.1586  0.1379  0.2059
 2412SOL    HW2 9721   0.246   3.112   4.069  0.7178  0.2109  0.4805
 2412SOL    HW3 9722   0.293   3.047   4.198 -0.3878  0.4207  0.9981
 2412SOL    MW4 9723   0.232   3.090   4.153 -0.0732  0.1850  0.3467
 2413SOL     OW 9724   1.073   2.563   4.533  0.1897  0.0389 -0.3762
 2413SOL    HW2 9725   1.008   2.549   4.603  0.0066  1.3245 -0.2607
 2413SOL    HW3 9726   1.153   2.525   4.567  0.2497  1.1649  0.8186
 2413SOL    MW4 9727   1.075   2.556   4.547  0.1734  0.3574 -0.2036
 2414SOL     OW 9728   1.334   0.303   4.639 -0.1552  0.4690  0.3224
 2414SOL    HW2 9729   1.401   0.347   4.690  1.2153 -0.6779 -0.4658
 2414SOL    HW3 9730   1.337   0.212   4.667 -0.4689  0.1370 -0.6710
 2414SOL    MW4 9731   1.343   0.297   4.649 -0.0157  0.2739  0.0868
 2415SOL     OW 9732   3.030   3.042   4.564  0.5943  0.3764 -0.6820
 2415SOL    HW2 9733   2.968   2.986   4.517 -0.7208  0.8906  0.4243
 2415SOL    HW3 9734   3.094   3.067   4.498 -0.9166  0.6308 -2.0795
 2415SOL    MW4 9735   3.030   3.038   4.549  0.2213  0.4776 -0.7205
 2416SOL     OW 9736   0.199   2.184   4.616 -0.0201 -0.0090  0.0716
 2416SOL    HW2 9737   0.176   2.131   4.692 -0.3608  0.7934  0.5337
 2416SOL    HW3 9738   0.177   2.273   4.641  0.4709  0.3472 -0.7310
 2416SOL    MW4 9739   0.193   2.189   4.629 -0.0003  0.1438  0.0262
 2417SOL     OW 9740   3.463   4.439   4.532 -0.1520 -0.1916  0.2026
 2417SOL    HW2 9741   3.416   4.356   4.523  0.0802 -0.5935  2.4212
 2417SOL    HW3 9742   3.395   4.504   4.545 -0.2323 -0.4349  1.0628
 2417SOL    MW4 9743   3.448   4.436   4.533 -0.1321 -0.2770  0.6084
 2418SOL     OW 9744   3.220   3.069   4.368  0.0225  0.3458  0.1363
 2418SOL    HW2 9745   3.304   3.106   4.396 -0.2540  1.2446 -0.1855
 2418SOL    HW3 9746   3.231   2.975   4.376  1.3055  0.4221 -0.5913
 2418SOL    MW4 9747   3.232   3.062   4.373  0.1552  0.4745 -0.0024
 2419SOL     OW 9748   0.696   1.564   4.614  0.4270  0.0879 -0.1939
 2419SOL    HW2 9749   0.726   1.587   4.702  1.4829  1.2294 -0.8240
 2419SOL    HW3 9750   0.736   1.479   4.597  1.6048  0.6235 -0.1908
 2419SOL    MW4 9751   0.705   1.556   4.623  0.7217  0.3092 -0.2766
 2420SOL     OW 9752   4.242   2.375   4.918 -0.1418  0.2833  0.1685
 2420SOL    HW2 9753   4.322   2.417   4.950  0.4773 -1.0880  0.4863
 2420SOL    HW3 9754   4.236   2.401   4.826  1.4344 -0.7044 -0.2347
 2420SOL    MW4 9755   4.252   2.384   4.910  0.1478 -0.0279  0.1569
 2421SOL     OW 9756   3.293   3.829   4.492  0.5592  0.4762  0.2494
 2421SOL    HW2 9757   3.250   3.794   4.414  1.3035  1.3006 -0.5575
 2421SOL    HW3 9758   3.222   3.858   4.549  0.0101 -0.0515 -0.1648
 2421SOL    MW4 9759   3.278   3.828   4.489  0.5851  0.5155  0.0882
 2422SOL     OW 9760   3.969   3.621   4.494 -0.2508  0.2226  0.4156
 2422SOL    HW2 9761   3.979   3.634   4.399  1.2433 -0.6163  0.4429
 2422SOL    HW3 9762   3.975   3.709   4.530  0.6904  0.4072 -0.1583
 2422SOL    MW4 9763   3.971   3.634   4.486  0.0703  0.1364  0.3433
 2423SOL     OW 9764   0.610   1.776   4.213  0.7564 -0.6192 -0.5191
 2423SOL    HW2 9765   0.624   1.687   4.180  1.2125 -0.5653 -0.4825
 2423SOL    HW3 9766   0.528   1.804   4.174  0.3754 -1.2282 -0.1618
 2423SOL    MW4 9767   0.601   1.768   4.204  0.7663 -0.6924 -0.4673
 2424SOL     OW 9768   1.086   0.980   4.195  0.1499  0.1858  0.7004
 2424SOL    HW2 9769   1.112   0.978   4.287  0.8753 -2.4208  0.4811
 2424SOL    HW3 9770   1.084   0.888   4.168 -1.9498  0.7685 -1.3756
 2424SOL    MW4 9771   1.089   0.968   4.203 -0.0314 -0.0812  0.3967
 2425SOL     OW 9772   0.390   0.879   4.559 -0.1505  0.2961 -0.1261
 2425SOL    HW2 9773   0.311   0.934   4.561 -0.9471 -0.7377 -2.1788
 2425SOL    HW3 9774   0.358   0.792   4.536  1.4231 -0.4968  0.6383
 2425SOL    MW4 9775   0.375   0.875   4.556 -0.0480  0.0551 -0.2966
 2426SOL     OW 9776   4.083   2.672   4.341  0.2973  0.6508  0.2549
 2426SOL    HW2 9777   4.066   2.728   4.417 -3.1507 -0.2350  0.2345
 2426SOL    HW3 9778   3.999   2.629   4.325  1.8402 -1.5581 -2.1369
 2426SOL    MW4 9779   4.070   2.673   4.349  0.0458  0.2427 -0.0639
 2427SOL     OW 9780   2.440   2.281   4.946  0.2535 -0.2766  0.1560
 2427SOL    HW2 9781   2.498   2.212   4.914  0.4445 -0.5182  1.0023
 2427SOL    HW3 9782   2.385   2.237   5.011  0.8258  0.5165  1.1843
 2427SOL    MW4 9783   2.440   2.266   4.950  0.3541 -0.2038  0.4034
 2428SOL     OW 9784   2.898   0.753   4.137 -0.1676 -0.2595  0.0281
 2428SOL    HW2 9785   2.887   0.838   4.179 -0.7086 -0.8545  1.0996
 2428SOL    HW3 9786   2.833   0.697   4.178 -1.2015 -0.6907 -2.0970
 2428SOL    MW4 9787   2.888   0.757   4.148 -0.3753 -0.3948 -0.1101
 2429SOL     OW 9788   2.234   3.422   4.076 -0.2198  0.3682  0.3467
 2429SOL    HW2 9789   2.289   3.354   4.115 -0.7161 -0.5346 -0.5239
 2429SOL    HW3 9790   2.148   3.408   4.114 -0.5302 -0.0462 -0.5072
 2429SOL    MW4 9791   2.230   3.411   4.086 -0.3264  0.1945  0.1187
 2430SOL     OW 9792   4.027   3.897   4.522  0.2743 -0.0835  0.3456
 2430SOL    HW2 9793   4.103   3.955   4.527  0.8089 -0.5530 -1.8301
 2430SOL    HW3 9794   3.953   3.955   4.504  0.5975  0.0787 -0.4910
 2430SOL    MW4 9795   4.027   3.912   4.520  0.3877 -0.1240 -0.0515
 2431SOL     OW 9796   0.219   0.217   4.485 -0.7792 -0.1071 -0.3888
 2431SOL    HW2 9797   0.144   0.272   4.508 -1.4088 -0.5507 -1.3635
 2431SOL    HW3 9798   0.295   0.271   4.505 -1.3523  0.3638  0.5748
 2431SOL    MW4 9799   0.219   0.231   4.491 -0.9379 -0.1035 -0.3905
 2432SOL     OW 9800   2.424   0.773   4.596 -0.2575  0.5447 -0.1904
 2432SOL    HW2 9801   2.391   0.860   4.570 -1.4963 -0.1449 -0.9778
 2432SOL    HW3 9802   2.348   0.715   4.586  0.8137 -0.8033 -0.5696
 2432SOL    MW4 9803   2.409   0.777   4.591 -0.2797  0.2758 -0.3443
 2433SOL     OW 9804   2.356   1.894   4.601  0.1632 -0.0926  0.3748
 2433SOL    HW2 9805   2.396   1.806   4.601 -1.8069 -1.0240 -1.9318
 2433SOL    HW3 9806   2.405   1.942   4.535 -0.9078 -0.4983 -0.7327
 2433SOL    MW4 9807   2.368   1.888   4.592 -0.2382 -0.2691 -0.0753
 2434SOL     OW 9808   0.894   0.343   4.074 -0.1259  0.4050  0.0605
 2434SOL    HW2 9809   0.812   0.313   4.115  0.5282 -1.0009  0.3404
 2434SOL    HW3 9810   0.963   0.312   4.132  0.7243 -0.0545 -1.1791
 2434SOL    MW4 9811   0.892   0.335   4.087  0.0726  0.1588 -0.0668
 2435SOL     OW 9812   2.511   2.295   4.178  0.3243  0.0668 -0.0154
 2435SOL    HW2 9813   2.508   2.386   4.208 -2.9833 -0.3105  1.0391
 2435SOL    HW3 9814   2.523   2.301   4.083 -0.2391  1.6236 -0.0076
 2435SOL    MW4 9815   2.512   2.308   4.170 -0.1864  0.2222  0.1245
 2436SOL     OW 9816   0.629   0.773   4.147  0.3539 -0.5103 -0.5106
 2436SOL    HW2 9817   0.706   0.721   4.168 -0.0561 -1.1996 -0.6868
 2436SOL    HW3 9818   0.612   0.755   4.054  0.8054  0.7310 -0.8437
 2436SOL    MW4 9819   0.637   0.764   4.137  0.3594 -0.4374 -0.5784
 2437SOL     OW 9820   2.698   3.034   4.806  0.4728  0.1984  0.0541
 2437SOL    HW2 9821   2.787   3.065   4.825  0.7618  0.6482 -1.8802
 2437SOL    HW3 9822   2.709   2.943   4.779  0.5891  0.7575 -1.8796
 2437SOL    MW4 9823   2.711   3.026   4.805  0.5264  0.3316 -0.4563
 2438SOL     OW 9824   0.041   0.692   4.556 -0.0298 -0.1247 -0.1086
 2438SOL    HW2 9825   0.136   0.681   4.565  0.0402 -0.4437 -1.2282
 2438SOL    HW3 9826   0.023   0.673   4.464 -1.1956 -0.1592  0.1211
 2438SOL    MW4 9827   0.051   0.688   4.545 -0.1743 -0.1714 -0.2265
 2439SOL     OW 9828   1.346   2.971   4.557  0.0972  0.3069 -0.1149
 2439SOL    HW2 9829   1.435   2.938   4.564  0.2590  0.9355  0.9327
 2439SOL    HW3 9830   1.352   3.063   4.586 -0.9347  0.2636  0.2823
 2439SOL    MW4 9831   1.358   2.979   4.562 -0.0175  0.3843  0.0758
 2440SOL     OW 9832   4.478   0.360   4.530  0.2837 -0.2089 -0.2289
 2440SOL    HW2 9833   4.386   0.334   4.521  0.1498 -0.4590  1.7153
 2440SOL    HW3 9834   4.475   0.454   4.543  0.2900 -0.2411  0.0071
 2440SOL    MW4 9835   4.465   0.369   4.530  0.2668 -0.2461  0.0587
 2441SOL     OW 9836   3.902   1.751   4.806  0.2311 -0.1318 -0.5815
 2441SOL    HW2 9837   3.953   1.832   4.800  1.7050 -0.8753  1.6524
 2441SOL    HW3 9838   3.829   1.774   4.863 -0.5412  0.1950 -1.6771
 2441SOL    MW4 9839   3.899   1.765   4.812  0.3235 -0.1869 -0.4315
 2442SOL     OW 9840   0.654   1.039   4.185  0.3128 -0.5640 -0.1859
 2442SOL    HW2 9841   0.672   0.955   4.142 -0.5571 -0.9645  0.2148
 2442SOL    HW3 9842   0.733   1.091   4.170  1.3247 -1.8487  0.5028
 2442SOL    MW4 9843   0.667   1.035   4.178  0.3315 -0.7864 -0.0420
 2443SOL     OW 9844   2.472   4.616   4.608 -0.0059  0.0377 -0.0981
 2443SOL    HW2 9845   2.564   4.596   4.588 -0.1876 -0.4895 -0.4062
 2443SOL    HW3 9846   2.467   4.711   4.602  0.3965  0.0315 -0.6434
 2443SOL    MW4 9847   2.484   4.626   4.604  0.0234 -0.0324 -0.2108
 2444SOL     OW 9848   1.816   4.258   3.863 -0.0190 -0.0326  0.0774
 2444SOL    HW2 9849   1.818   4.175   3.815 -1.4166 -0.7606  1.2558
 2444SOL    HW3 9850   1.889   4.308   3.826  0.7617 -1.7267 -0.7429
 2444SOL    MW4 9851   1.826   4.254   3.852 -0.1005 -0.3519  0.1249
 2445SOL     OW 9852   2.309   4.195   4.634  0.6208  0.5443 -0.0741
 2445SOL    HW2 9853   2.372   4.143   4.584 -1.6515 -1.4571 -0.9737
 2445SOL    HW3 9854   2.343   4.194   4.724  1.8839 -0.4580 -0.5555
 2445SOL    MW4 9855   2.322   4.188   4.639  0.4876  0.1483 -0.2570
 2446SOL     OW 9856   1.580   3.918   4.134 -0.1352 -0.2783 -0.4657
 2446SOL    HW2 9857   1.505   3.871   4.170 -0.3556 -0.3227 -0.9834
 2446SOL    HW3 9858   1.580   4.002   4.180 -0.3761 -0.3586 -0.3189
 2446SOL    MW4 9859   1.570   3.923   4.145 -0.1961 -0.2949 -0.5145
 2447SOL     OW 9860   3.578   1.409   4.207 -0.2981 -0.8446  0.1855
 2447SOL    HW2 9861   3.578   1.316   4.188  1.4367 -0.7854 -0.1521
 2447SOL    HW3 9862   3.519   1.419   4.282 -0.4097 -2.2115  0.2776
 2447SOL    MW4 9863   3.570   1.398   4.214 -0.0842 -1.0172  0.1526
 2448SOL     OW 9864   0.865   0.479   4.506 -0.3449  0.5473  0.2737
 2448SOL    HW2 9865   0.864   0.563   4.551  0.1736 -0.1497  1.6339
 2448SOL    HW3 9866   0.958   0.456   4.501 -0.3668  0.8103 -1.5511
 2448SOL    MW4 9867   0.877   0.487   4.511 -0.2794  0.4900  0.2122
 2449SOL     OW 9868   0.584   2.630   4.510  0.3204 -0.4358  0.2784
 2449SOL    HW2 9869   0.491   2.615   4.530  0.6640 -1.6369  1.0925
 2449SOL    HW3 9870   0.594   2.725   4.511 -1.5190 -0.1564 -2.8415
 2449SOL    MW4 9871   0.573   2.640   4.513  0.1231 -0.5574 -0.0253
 2450SOL     OW 9872   2.482   3.820   4.112 -0.2962 -0.4357 -0.2196
 2450SOL    HW2 9873   2.459   3.827   4.019 -0.0596 -0.0778 -0.2564
 2450SOL    HW3 9874   2.408   3.776   4.152  0.3021 -2.0418 -0.8524
 2450SOL    MW4 9875   2.469   3.815   4.105 -0.1862 -0.6006 -0.3080
 2451SOL     OW 9876   4.006   0.577   4.244  0.5766  0.7904 -0.1509
 2451SOL    HW2 9877   3.926   0.623   4.220  0.6076  0.3167 -1.1758
 2451SOL    HW3 9878   4.075   0.643   4.239  0.6183  0.6455 -1.5902
 2451SOL    MW4 9879   4.005   0.592   4.240  0.5865  0.7088 -0.4759
 2452SOL     OW 9880   2.526   2.044   4.771 -0.1304 -0.0975 -0.3475
 2452SOL    HW2 9881   2.575   2.078   4.696 -1.6754  1.6857 -0.5853
 2452SOL    HW3 9882   2.454   1.994   4.733  0.0927 -0.6728 -0.0247
 2452SOL    MW4 9883   2.523   2.042   4.756 -0.3045  0.0618 -0.3362
 2453SOL     OW 9884   1.404   4.279   4.651  0.2330  0.2464  0.1067
 2453SOL    HW2 9885   1.457   4.338   4.705  2.3913  0.0876 -1.7574
 2453SOL    HW3 9886   1.345   4.338   4.603 -0.7007  0.4995  1.5379
 2453SOL    MW4 9887   1.403   4.295   4.652  0.3945  0.2589  0.0491
 2454SOL     OW 9888   1.231   4.494   4.511 -0.1516 -0.7421 -0.8176
 2454SOL    HW2 9889   1.265   4.501   4.422  0.3910  1.1425 -0.4967
 2454SOL    HW3 9890   1.141   4.525   4.505 -0.0176 -0.3110 -0.6752
 2454SOL    MW4 9891   1.224   4.499   4.499 -0.0623 -0.4363 -0.7563
 2455SOL     OW 9892   1.771   1.175   4.131 -0.7942  0.2807 -0.1327
 2455SOL    HW2 9893   1.849   1.119   4.142 -0.4003  0.8744  0.1145
 2455SOL    HW3 9894   1.698   1.117   4.154 -0.3389  0.0515  0.7933
 2455SOL    MW4 9895   1.772   1.160   4.136 -0.6821  0.3287  0.0219
 2456SOL     OW 9896   3.930   2.513   4.729 -0.0204  0.7599 -0.0942
 2456SOL    HW2 9897   3.910   2.478   4.815 -1.5121  0.2401 -0.6236
 2456SOL    HW3 9898   3.895   2.602   4.730 -0.9832  0.4034 -0.4793
 2456SOL    MW4 9899   3.922   2.520   4.740 -0.3443  0.6442 -0.2146
 2457SOL     OW 9900   4.452   3.366   4.616  0.5563  0.1749  0.3026
 2457SOL    HW2 9901   4.381   3.422   4.586  1.2846  0.2585 -1.3103
 2457SOL    HW3 9902   4.452   3.376   4.711 -3.0919 -1.6481  0.5972
 2457SOL    MW4 9903   4.443   3.375   4.625  0.1717 -0.0548  0.1287
 2458SOL     OW 9904   2.905   4.089   4.237 -0.2616 -0.4475  0.9153
 2458SOL    HW2 9905   2.827   4.140   4.216  0.4043 -0.0197 -0.5660
 2458SOL    HW3 9906   2.978   4.144   4.208  0.5591 -1.1895  1.5491
 2458SOL    MW4 9907   2.905   4.103   4.230 -0.0653 -0.4892  0.8035
 2459SOL     OW 9908   3.334   3.807   4.133  0.0393 -0.3247 -0.1408
 2459SOL    HW2 9909   3.344   3.901   4.152  1.6951 -0.6144  0.4875
 2459SOL    HW3 9910   3.406   3.765   4.180 -1.3366 -2.0403  0.4957
 2459SOL    MW4 9911   3.345   3.814   4.142  0.0763 -0.5891  0.0262
 2460SOL     OW 9912   0.589   3.850   4.466  0.0408 -0.4715  0.1221
 2460SOL    HW2 9913   0.534   3.782   4.426 -0.2439  0.2501 -0.7281
 2460SOL    HW3 9914   0.534   3.928   4.465  0.2961 -0.2710  1.2786
 2460SOL    MW4 9915   0.574   3.851   4.461  0.0370 -0.3500  0.1621
 2461SOL     OW 9916   1.325   1.133   4.122 -0.2655 -0.0228  0.0944
 2461SOL    HW2 9917   1.247   1.080   4.133 -1.3343  1.5596  0.3292
 2461SOL    HW3 9918   1.303   1.217   4.162  1.2349  0.7346 -0.6209
 2461SOL    MW4 9919   1.312   1.137   4.129 -0.2086  0.2859  0.0310
 2462SOL     OW 9920   2.867   3.073   4.090  0.0094  0.2689 -0.3958
 2462SOL    HW2 9921   2.922   2.996   4.077 -0.2973  0.0802 -0.5827
 2462SOL    HW3 9922   2.792   3.040   4.139 -1.0468  0.0645 -2.1247
 2462SOL    MW4 9923   2.864   3.058   4.095 -0.1705  0.2170 -0.6485
 2463SOL     OW 9924   3.565   4.222   4.141 -0.2076  0.1794 -0.0814
 2463SOL    HW2 9925   3.644   4.177   4.172  0.1568 -0.1819 -1.4849
 2463SOL    HW3 9926   3.574   4.311   4.175  1.5548  0.5550 -1.4161
 2463SOL    MW4 9927   3.577   4.228   4.149  0.0730  0.1812 -0.4420
 2464SOL     OW 9928   3.758   1.830   4.529  0.4034 -0.2652  0.5882
 2464SOL    HW2 9929   3.812   1.827   4.608  1.4269  0.5459 -0.0678
 2464SOL    HW3 9930   3.686   1.890   4.551  0.0404 -0.9493  1.2885
 2464SOL    MW4 9931   3.755   1.837   4.543  0.4904 -0.2487  0.5941
 2465SOL     OW 9932   1.576   3.349   4.268  0.4882  0.0398  0.5744
 2465SOL    HW2 9933   1.648   3.404   4.240  0.8767 -0.1908  1.1031
 2465SOL    HW3 9934   1.591   3.265   4.224  0.4309  0.0566  0.5224
 2465SOL    MW4 9935   1.588   3.345   4.258  0.5320  0.0117  0.6371
 2466SOL     OW 9936   3.296   0.019   4.545 -0.3950  0.0004 -0.1537
 2466SOL    HW2 9937   3.342   0.036   4.627 -1.6679 -0.1129  0.5995
 2466SOL    HW3 9938   3.339   0.076   4.481  0.2825  0.4585  0.7035
 2466SOL    MW4 9939   3.308   0.029   4.547 -0.4735  0.0459  0.0596
 2467SOL     OW 9940   2.310   2.128   4.271  0.1745 -0.2408 -0.2645
 2467SOL    HW2 9941   2.294   2.058   4.208 -1.3927  0.9006 -1.1812
 2467SOL    HW3 9942   2.376   2.183   4.230 -1.2581  0.8165 -1.2056
 2467SOL    MW4 9943   2.317   2.126   4.257 -0.2213  0.0494 -0.5102
 2468SOL     OW 9944   3.797   2.758   4.696 -0.3777  0.1433  0.2020
 2468SOL    HW2 9945   3.764   2.698   4.629  0.7968 -0.0913 -0.1730
 2468SOL    HW3 9946   3.722   2.773   4.754 -0.9295 -0.9590 -0.2205
 2468SOL    MW4 9947   3.783   2.752   4.695 -0.2954 -0.0331  0.0963
 2469SOL     OW 9948   1.377   3.768   4.229 -0.4749  0.2701  0.2904
 2469SOL    HW2 9949   1.380   3.674   4.212  0.1017  0.3185  0.1392
 2469SOL    HW3 9950   1.345   3.774   4.319  2.4925 -0.1771  1.4167
 2469SOL    MW4 9951   1.373   3.756   4.239 -0.0073  0.2172  0.4191
 2470SOL     OW 9952   0.440   2.746   4.139  0.1269  0.2132  0.6895
 2470SOL    HW2 9953   0.515   2.690   4.160  0.0253 -0.0694  0.2905
 2470SOL    HW3 9954   0.440   2.751   4.043 -0.1521  0.5053  0.7056
 2470SOL    MW4 9955   0.450   2.740   4.129  0.0767  0.2146  0.6394
 2471SOL     OW 9956   4.239   2.333   4.127  0.1329  0.0234  0.0256
 2471SOL    HW2 9957   4.145   2.315   4.136  0.6420 -2.6531  0.4325
 2471SOL    HW3 9958   4.254   2.411   4.181 -1.7035 -0.0093  0.6239
 2471SOL    MW4 9959   4.228   2.341   4.135 -0.0420 -0.3340  0.1578
 2472SOL     OW 9960   3.069   1.640   4.170  0.0467 -0.3925  0.1876
 2472SOL    HW2 9961   3.087   1.554   4.206  0.3926 -0.2556  0.3368
 2472SOL    HW3 9962   3.140   1.696   4.201 -0.3481  0.0229  0.3595
 2472SOL    MW4 9963   3.081   1.636   4.179  0.0403 -0.3197  0.2298
 2473SOL     OW 9964   0.859   1.408   4.247  0.3267  0.4548 -0.3078
 2473SOL    HW2 9965   0.866   1.330   4.192  3.0935  0.5093 -0.1097
 2473SOL    HW3 9966   0.798   1.465   4.201 -0.9369 -1.4026 -0.9593
 2473SOL    MW4 9967   0.852   1.405   4.234  0.5250  0.2170 -0.3681
 2474SOL     OW 9968   0.477   2.169   4.562  0.5944 -0.2133  0.2520
 2474SOL    HW2 9969   0.492   2.081   4.598  0.8180 -0.1756  0.2509
 2474SOL    HW3 9970   0.384   2.185   4.577  0.5642 -0.4289  0.3022
 2474SOL    MW4 9971   0.467   2.159   4.569  0.6199 -0.2370  0.2584
 2475SOL     OW 9972   1.853   4.293   4.615  0.3352 -0.4370  0.1242
 2475SOL    HW2 9973   1.926   4.234   4.599 -0.0665 -1.5172  2.1985
 2475SOL    HW3 9974   1.776   4.246   4.582  0.2449 -0.3135  0.1574
 2475SOL    MW4 9975   1.853   4.279   4.609  0.2702 -0.5627  0.4025
 2476SOL     OW 9976   0.915   3.221   4.645  0.5812 -0.3209 -0.0022
 2476SOL    HW2 9977   0.952   3.210   4.733  0.5570  1.4284  0.2606
 2476SOL    HW3 9978   0.977   3.279   4.601 -0.1698  0.0019 -0.6456
 2476SOL    MW4 9979   0.928   3.228   4.651  0.4789 -0.0474 -0.0525
 2477SOL     OW 9980   0.881   2.994   4.507 -0.6476 -0.1324  0.0061
 2477SOL    HW2 9981   0.896   3.071   4.561 -0.2322  0.9109 -1.5671
 2477SOL    HW3 9982   0.960   2.942   4.517 -0.3299  0.3376 -0.0513
 2477SOL    MW4 9983   0.893   2.997   4.515 -0.5509  0.0672 -0.2089
 2478SOL     OW 9984   2.113   2.278   4.152  0.0090  0.3125 -0.4750
 2478SOL    HW2 9985   2.025   2.245   4.169  0.6822 -0.3542  2.0048
 2478SOL    HW3 9986   2.172   2.211   4.188  1.5435  0.6860 -2.1942
 2478SOL    MW4 9987   2.110   2.265   4.159  0.3002  0.2739 -0.3743
 2479SOL     OW 9988   2.675   4.251   4.572  0.5416 -0.0546 -0.1009
 2479SOL    HW2 9989   2.617   4.198   4.517  0.8985 -0.6221  0.0624
 2479SOL    HW3 9990   2.762   4.214   4.556  0.6801 -0.0417  0.6378
 2479SOL    MW4 9991   2.679   4.239   4.562  0.6073 -0.1278  0.0181
 2480SOL     OW 9992   3.428   1.925   4.592 -0.4197  0.0718 -0.4287
 2480SOL    HW2 9993   3.359   1.988   4.571 -0.7800 -0.3068 -0.3688
 2480SOL    HW3 9994   3.447   1.939   4.685 -0.6621 -0.0680 -0.3584
 2480SOL    MW4 9995   3.422   1.935   4.601 -0.4992  0.0036 -0.4120
 2481SOL     OW 9996   3.632   1.934   3.860  0.7023  0.0679  0.1664
 2481SOL    HW2 9997   3.560   1.968   3.808  0.0643 -0.7152  0.5256
 2481SOL    HW3 9998   3.652   1.849   3.820  2.1523  0.7426 -0.6065
 2481SOL    MW4 9999   3.625   1.927   3.848  0.8097  0.0536  0.1116
 2482SOL     OW10000   3.504   2.840   4.428 -0.0776  0.2892  0.2176
 2482SOL    HW210001   3.497   2.861   4.521 -0.8265  0.9751  0.0098
 2482SOL    HW310002   3.417   2.809   4.404  0.0060  0.4823 -0.3437
 2482SOL    MW410003   3.492   2.839   4.437 -0.1655  0.4053  0.1159
 2483SOL     OW10004   0.164   1.514   4.137  0.2681  0.2320 -0.6281
 2483SOL    HW210005   0.184   1.517   4.043 -0.5588 -0.2293 -0.8249
 2483SOL    HW310006   0.162   1.606   4.163  2.3443  0.3081 -0.6501
 2483SOL    MW410007   0.166   1.527   4.128  0.4330  0.1811 -0.6576
 2484SOL     OW10008   3.189   3.444   4.094 -0.0909  0.1257 -0.2925
 2484SOL    HW210009   3.280   3.466   4.114 -0.0174  0.6767 -1.2287
 2484SOL    HW310010   3.138   3.482   4.166  0.3411  0.5592 -0.2176
 2484SOL    MW410011   3.194   3.452   4.106 -0.0241  0.2556 -0.4058
 2485SOL     OW10012   4.474   0.657   4.280 -0.0766 -0.2118 -0.2238
 2485SOL    HW210013   4.476   0.570   4.239  0.2911 -0.0882 -0.4744
 2485SOL    HW310014   4.387   0.691   4.260 -1.1287 -1.5180  1.9949
 2485SOL    MW410015   4.463   0.650   4.272 -0.1669 -0.3677  0.0362
 2486SOL     OW10016   3.571   1.344   4.705 -0.0332 -0.1485 -0.0858
 2486SOL    HW210017   3.532   1.385   4.782 -0.2634 -0.1736 -0.1867
 2486SOL    HW310018   3.622   1.414   4.663  0.4842 -0.2649  0.3518
 2486SOL    MW410019   3.573   1.358   4.709  0.0045 -0.1671 -0.0410
 2487SOL     OW10020   3.335   0.721   4.534  0.5003 -0.0829 -0.1048
 2487SOL    HW210021   3.386   0.675   4.600  0.4494 -0.1192 -0.0906
 2487SOL    HW310022   3.345   0.813   4.556  0.7078 -0.0796 -0.2081
 2487SOL    MW410023   3.343   0.727   4.545  0.5209 -0.0873 -0.1163
 2488SOL     OW10024   3.789   3.300   4.225  0.1000 -0.2068 -0.3991
 2488SOL    HW210025   3.782   3.288   4.319 -3.0118  0.1370 -0.5210
 2488SOL    HW310026   3.778   3.213   4.188  0.1809 -0.1839 -0.4766
 2488SOL    MW410027   3.786   3.287   4.232 -0.2997 -0.1585 -0.4249
 2489SOL     OW10028   4.021   2.834   4.559 -0.0424 -0.2662 -0.0523
 2489SOL    HW210029   3.946   2.803   4.609 -0.2655  0.7526  0.2586
 2489SOL    HW310030   4.004   2.927   4.546  0.3889 -0.3599 -1.3683
 2489SOL    MW410031   4.009   2.842   4.564 -0.0148 -0.1440 -0.1845
 2490SOL     OW10032   3.985   1.276   4.532 -0.3835  0.0576  0.6312
 2490SOL    HW210033   3.939   1.319   4.459  0.1746  0.0861  0.2895
 2490SOL    HW310034   4.023   1.348   4.582  1.1103 -0.0341 -0.3141
 2490SOL    MW410035   3.984   1.291   4.529 -0.1128  0.0495  0.4611
 2491SOL     OW10036   2.394   1.605   4.579 -0.2973 -0.3676 -0.5518
 2491SOL    HW210037   2.356   1.535   4.632 -0.7883 -0.3142 -0.8277
 2491SOL    HW310038   2.486   1.608   4.605 -1.0997  1.5300  2.3530
 2491SOL    MW410039   2.401   1.597   4.590 -0.4680 -0.1103 -0.2046
 2492SOL     OW10040   3.634   3.474   3.860  0.4838  0.4618 -0.0357
 2492SOL    HW210041   3.628   3.387   3.822  0.4481 -0.3992  1.8724
 2492SOL    HW310042   3.601   3.464   3.949  0.4354  2.4342  0.1984
 2492SOL    MW410043   3.629   3.461   3.867  0.4725  0.6082  0.2470
 2493SOL     OW10044   4.255   3.044   4.111  0.6937  0.0374 -0.1989
 2493SOL    HW210045   4.188   2.988   4.151  3.1679 -1.9217  1.3582
 2493SOL    HW310046   4.256   3.123   4.166 -1.1505  0.6321 -0.9772
 2493SOL    MW410047   4.246   3.047   4.124  0.7763 -0.1426 -0.0958
 2494SOL     OW10048   0.702   3.109   4.140 -0.2531  0.0233  0.0580
 2494SOL    HW210049   0.694   3.196   4.178  1.5103  0.1008  0.2930
 2494SOL    HW310050   0.635   3.056   4.184 -1.7539  1.3770 -0.5176
 2494SOL    MW410051   0.692   3.113   4.151 -0.2185  0.2122  0.0129
 2495SOL     OW10052   3.399   4.617   4.181  0.5627 -0.6551 -0.1499
 2495SOL    HW210053   3.483   4.582   4.211  1.0018  0.1149 -0.4562
 2495SOL    HW310054   3.399   4.707   4.213 -0.1289 -0.6389 -0.1936
 2495SOL    MW410055   3.410   4.624   4.189  0.5295 -0.5512 -0.1960
 2496SOL     OW10056   1.831   4.507   4.269 -0.1904 -0.2310  0.0189
 2496SOL    HW210057   1.888   4.511   4.345  0.8603  1.0071 -0.8105
 2496SOL    HW310058   1.818   4.413   4.255  1.7434 -0.5591  0.1763
 2496SOL    MW410059   1.837   4.495   4.277  0.2034 -0.1111 -0.0696
 2497SOL     OW10060   0.431   4.089   4.470 -0.3053 -0.1095  0.0584
 2497SOL    HW210061   0.368   4.083   4.542 -0.4922  1.5432  0.0590
 2497SOL    HW310062   0.378   4.114   4.394  0.5361  3.2668  0.4634
 2497SOL    MW410063   0.416   4.092   4.470 -0.2190  0.5536  0.1121
 2498SOL     OW10064   0.643   1.538   4.105  0.2371  0.0137  0.0207
 2498SOL    HW210065   0.637   1.545   4.010  0.0130 -0.1454  0.0230
 2498SOL    HW310066   0.576   1.474   4.129  0.7220 -0.4201  0.2271
 2498SOL    MW410067   0.633   1.531   4.096  0.2716 -0.0646  0.0482
 2499SOL     OW10068   3.754   4.397   4.506  0.1065 -0.0150 -0.0812
 2499SOL    HW210069   3.811   4.464   4.544 -0.2386  0.6130 -0.6552
 2499SOL    HW310070   3.669   4.412   4.547 -0.2043  0.4998 -0.8985
 2499SOL    MW410071   3.750   4.408   4.517  0.0198  0.1354 -0.2646
 2500SOL     OW10072   1.282   1.164   4.613  0.3634 -0.7898 -0.4888
 2500SOL    HW210073   1.254   1.247   4.575  0.3416 -0.3849  0.4091
 2500SOL    HW310074   1.284   1.180   4.707  1.6931 -1.4013 -0.4057
 2500SOL    MW410075   1.279   1.177   4.621  0.5360 -0.8169 -0.3591
 2501SOL     OW10076   2.690   4.225   4.142 -0.2174  0.0542 -0.5498
 2501SOL    HW210077   2.703   4.317   4.166  1.4351 -0.2035 -0.3560
 2501SOL    HW310078   2.684   4.225   4.047 -0.6282  0.4130 -0.5224
 2501SOL    MW410079   2.691   4.237   4.133 -0.0534  0.0672 -0.5202
 2502SOL     OW10080   2.523   3.199   4.688  0.1410  0.0392  0.3041
 2502SOL    HW210081   2.582   3.138   4.732  1.5512  2.4792  1.8922
 2502SOL    HW310082   2.437   3.181   4.726  0.7900 -0.0211  1.7720
 2502SOL    MW410083   2.519   3.189   4.699  0.4129  0.3533  0.7076
 2503SOL     OW10084   2.791   2.228   4.244  0.0475  0.0843 -0.0945
 2503SOL    HW210085   2.697   2.247   4.242  0.0094 -0.1033 -0.0750
 2503SOL    HW310086   2.814   2.231   4.337 -0.0764 -0.5417 -0.0416
 2503SOL    MW410087   2.782   2.231   4.256  0.0262 -0.0231 -0.0844
 2504SOL     OW10088   4.356   1.618   4.612 -0.1843  0.1030  0.0816
 2504SOL    HW210089   4.412   1.695   4.602  0.3538 -0.2842  0.0976
 2504SOL    HW310090   4.409   1.546   4.577  0.3800 -0.7146  2.5835
 2504SOL    MW410091   4.371   1.619   4.606 -0.0386 -0.0560  0.4134
 2505SOL     OW10092   2.109   2.766   4.621 -0.2653  0.5772 -0.2807
 2505SOL    HW210093   2.100   2.746   4.714 -0.0109 -0.4686 -0.4662
 2505SOL    HW310094   2.197   2.804   4.613  0.0670 -0.1647 -0.2216
 2505SOL    MW410095   2.120   2.768   4.632 -0.1879  0.3412 -0.2975
 2506SOL     OW10096   2.678   1.636   4.594 -0.1161  0.1310  0.2559
 2506SOL    HW210097   2.723   1.695   4.655 -2.3922  3.0210 -0.6930
 2506SOL    HW310098   2.723   1.650   4.511 -0.1315 -0.0957  0.2117
 2506SOL    MW410099   2.690   1.646   4.591 -0.4184  0.4823  0.1249
 2507SOL     OW10100   2.008   1.039   4.224 -0.7752 -0.7922 -0.5368
 2507SOL    HW210101   1.996   0.945   4.208  0.3707 -0.9609 -0.4567
 2507SOL    HW310102   2.078   1.064   4.165 -1.5959  0.1886 -1.0986
 2507SOL    MW410103   2.016   1.030   4.214 -0.7322 -0.6851 -0.6003
 2508SOL     OW10104   2.951   4.170   4.501  0.0860 -0.2009 -0.2033
 2508SOL    HW210105   2.944   4.152   4.408  0.0647  0.0280 -0.2459
 2508SOL    HW310106   3.003   4.250   4.506 -1.0902  0.5570 -0.0785
 2508SOL    MW410107   2.957   4.178   4.490 -0.0720 -0.0706 -0.1926
 2509SOL     OW10108   4.281   2.079   4.866 -0.6194  0.2502 -0.1398
 2509SOL    HW210109   4.374   2.056   4.871 -0.6424  0.0038 -0.8123
 2509SOL    HW310110   4.278   2.171   4.893 -0.1445  0.3417 -0.3836
 2509SOL    MW410111   4.293   2.088   4.870 -0.5598  0.2298 -0.2608
 2510SOL     OW10112   2.300   1.410   4.767  0.2352 -0.0201 -0.0469
 2510SOL    HW210113   2.368   1.343   4.756  0.6100  0.4313 -0.4897
 2510SOL    HW310114   2.297   1.424   4.862 -0.2570 -1.0843  0.0996
 2510SOL    MW410115   2.309   1.403   4.778  0.2198 -0.1011 -0.0858
 2511SOL     OW10116   3.669   1.847   4.978 -0.1295 -0.1148 -0.1899
 2511SOL    HW210117   3.606   1.907   4.938 -0.2376  0.4634  0.8248
 2511SOL    HW310118   3.618   1.798   5.043 -0.0428 -1.3212 -1.0260
 2511SOL    MW410119   3.654   1.849   4.982 -0.1318 -0.1978 -0.1659
 2512SOL     OW10120   1.500   1.527   4.171 -0.5811  0.2266 -0.0833
 2512SOL    HW210121   1.492   1.607   4.223 -1.0436  0.4621 -0.5206
 2512SOL    HW310122   1.569   1.478   4.215  0.1528  1.1501 -0.1740
 2512SOL    MW410123   1.508   1.531   4.184 -0.5453  0.3794 -0.1531
 2513SOL     OW10124   0.897   2.713   4.166  0.0296 -0.3165  0.0567
 2513SOL    HW210125   0.962   2.647   4.193  0.2783 -0.7617 -1.5652
 2513SOL    HW310126   0.940   2.797   4.182  0.9453 -0.6059 -0.8361
 2513SOL    MW410127   0.911   2.715   4.172  0.1832 -0.4134 -0.2751
 2514SOL     OW10128   3.448   0.138   4.750 -0.2941  0.4192 -0.3870
 2514SOL    HW210129   3.469   0.166   4.839  0.1450  1.9801 -0.9774
 2514SOL    HW310130   3.530   0.099   4.718 -0.2080  0.6067 -0.3961
 2514SOL    MW410131   3.462   0.136   4.758 -0.2248  0.6499 -0.4663
 2515SOL     OW10132   1.634   4.505   4.669  0.0023 -0.0284 -0.2261
 2515SOL    HW210133   1.716   4.468   4.702  0.2186  0.3605 -0.3256
 2515SOL    HW310134   1.638   4.490   4.574  0.6770  1.3829 -0.4342
 2515SOL    MW410135   1.645   4.498   4.661  0.1198  0.2093 -0.2670
 2516SOL     OW10136   2.509   1.213   4.671  0.2820  0.9716  0.1480
 2516SOL    HW210137   2.583   1.263   4.637  0.8095 -0.0260 -0.1994
 2516SOL    HW310138   2.547   1.131   4.701 -0.6068  0.6717  0.4870
 2516SOL    MW410139   2.524   1.209   4.670  0.2344  0.8005  0.1469
 2517SOL     OW10140   0.172   1.784   4.218 -0.0244 -0.2967  0.6789
 2517SOL    HW210141   0.204   1.795   4.308 -0.4483  0.1285  0.7821
 2517SOL    HW310142   0.114   1.859   4.204 -0.5375 -0.7571  0.3022
 2517SOL    MW410143   0.169   1.796   4.228 -0.1480 -0.3015  0.6428
 2518SOL     OW10144   2.258   1.932   3.843 -0.1955  0.6761 -0.0245
 2518SOL    HW210145   2.226   1.845   3.817  1.3578  0.6838 -2.0492
 2518SOL    HW310146   2.195   1.992   3.804  0.1163  0.5450 -0.7412
 2518SOL    MW410147   2.245   1.928   3.835  0.0508  0.6599 -0.3860
 2519SOL     OW10148   1.104   2.261   4.173  0.7029  0.5281 -0.0160
 2519SOL    HW210149   1.095   2.354   4.189 -0.5075  0.5729 -0.8995
 2519SOL    HW310150   1.021   2.223   4.200  0.3330  0.0156 -1.8163
 2519SOL    MW410151   1.092   2.268   4.179  0.4944  0.4663 -0.3695
 2520SOL     OW10152   2.047   4.103   4.235  0.0170 -0.0056 -0.0789
 2520SOL    HW210153   2.038   4.013   4.204  0.1031 -0.0863  0.1278
 2520SOL    HW310154   2.123   4.138   4.187 -0.1945  0.0499 -0.3731
 2520SOL    MW410155   2.056   4.096   4.225  0.0005 -0.0095 -0.0906
 2521SOL     OW10156   2.907   3.823   4.164 -0.2048  0.0103  0.4661
 2521SOL    HW210157   2.828   3.782   4.198  0.3743  0.5444  2.5192
 2521SOL    HW310158   2.908   3.911   4.202  1.7576 -0.2545  1.1207
 2521SOL    MW410159   2.897   3.829   4.173  0.1307  0.0460  0.8235
 2522SOL     OW10160   0.265   2.341   4.172 -0.7248 -0.3424  0.3646
 2522SOL    HW210161   0.171   2.322   4.165 -0.9113 -0.0606  1.8950
 2522SOL    HW310162   0.303   2.262   4.210 -0.6252  0.2000  1.4068
 2522SOL    MW410163   0.257   2.328   4.176 -0.7363 -0.2337  0.7043
 2523SOL     OW10164   4.072   1.515   4.657 -0.2600 -0.3507 -0.3519
 2523SOL    HW210165   4.161   1.541   4.680 -0.2431 -0.9569  0.2662
 2523SOL    HW310166   4.016   1.568   4.713 -0.2734 -0.3816 -0.3356
 2523SOL    MW410167   4.077   1.526   4.667 -0.2599 -0.4348 -0.2680
 2524SOL     OW10168   0.083   1.993   4.800 -0.2368 -0.1677  0.2303
 2524SOL    HW210169   0.069   1.939   4.722  0.5177  1.3180 -0.9714
 2524SOL    HW310170   0.124   1.933   4.863 -0.1034 -1.1906 -0.7998
 2524SOL    MW410171   0.087   1.978   4.798 -0.1196 -0.1065 -0.0644
 2525SOL     OW10172   3.641   2.618   4.496 -0.0839  0.6624  0.4057
 2525SOL    HW210173   3.570   2.562   4.527 -0.4989  0.4889 -0.8486
 2525SOL    HW310174   3.597   2.699   4.471  0.0897  0.3395 -0.9346
 2525SOL    MW410175   3.626   2.622   4.497 -0.1156  0.5965  0.0629
 2526SOL     OW10176   1.121   3.847   4.138  0.0464 -0.1226  0.4770
 2526SOL    HW210177   1.126   3.864   4.044 -0.7762 -1.7212  0.1270
 2526SOL    HW310178   1.208   3.815   4.161 -0.1869 -1.1514 -0.0449
 2526SOL    MW410179   1.133   3.845   4.129 -0.0930 -0.4692  0.3619
 2527SOL     OW10180   2.417   2.363   4.684 -0.3853  0.1535 -0.3790
 2527SOL    HW210181   2.403   2.340   4.775 -0.8714 -0.5740 -0.6303
 2527SOL    HW310182   2.497   2.317   4.659 -0.9069 -0.6224 -0.6499
 2527SOL    MW410183   2.426   2.354   4.692 -0.5186 -0.0451 -0.4478
 2528SOL     OW10184   0.039   1.386   4.512 -0.4724  0.3114 -0.2810
 2528SOL    HW210185   0.020   1.387   4.418 -2.1878  0.7899  0.0540
 2528SOL    HW310186   0.131   1.411   4.518 -0.4584  0.6889 -1.8059
 2528SOL    MW410187   0.049   1.390   4.500 -0.6969  0.4243 -0.4377
 2529SOL     OW10188   2.560   2.542   4.337  0.2097 -0.5036 -0.0685
 2529SOL    HW210189   2.653   2.536   4.357  0.7509  2.8646 -1.2994
 2529SOL    HW310190   2.553   2.611   4.270 -3.3278  0.8467  1.5104
 2529SOL    MW410191   2.571   2.551   4.331 -0.1857  0.1192 -0.0224
 2530SOL     OW10192   3.586   1.897   4.121 -0.2909 -0.3084 -0.1524
 2530SOL    HW210193   3.601   1.907   4.027 -2.3465  0.5218 -0.4171
 2530SOL    HW310194   3.538   1.815   4.129  0.1397 -0.5259  0.2000
 2530SOL    MW410195   3.581   1.888   4.110 -0.5052 -0.2277 -0.1407
 2531SOL     OW10196   1.990   0.769   3.863 -0.2253 -0.0705 -0.0351
 2531SOL    HW210197   1.997   0.770   3.958  0.0634 -0.8898 -0.0420
 2531SOL    HW310198   1.995   0.676   3.840  0.0712  0.1533 -0.8765
 2531SOL    MW410199   1.991   0.757   3.872 -0.1482 -0.1491 -0.1471
 2532SOL     OW10200   3.372   0.354   4.545 -0.2373 -0.1668  0.6308
 2532SOL    HW210201   3.382   0.295   4.620  1.1319 -0.2814  0.3615
 2532SOL    HW310202   3.369   0.296   4.469  0.2696  0.0609  0.4378
 2532SOL    MW410203   3.373   0.338   4.545  0.0103 -0.1519  0.5703
 2533SOL     OW10204   2.831   1.997   4.121 -0.5209  0.3264 -0.1100
 2533SOL    HW210205   2.826   2.083   4.162 -1.6757  0.7522 -1.1252
 2533SOL    HW310206   2.922   1.987   4.096 -0.0631  0.5996  1.3881
 2533SOL    MW410207   2.842   2.007   4.123 -0.6130  0.4187 -0.0467
 2534SOL     OW10208   1.679   1.933   4.303  0.9729  0.2392  0.2019
 2534SOL    HW210209   1.646   2.018   4.332  1.6813  0.4278  0.4705
 2534SOL    HW310210   1.707   1.890   4.384 -1.0197 -0.9748  0.2895
 2534SOL    MW410211   1.678   1.938   4.318  0.8036  0.1037  0.2489
 2535SOL     OW10212   2.433   4.089   4.185  0.3846  0.3129  0.0302
 2535SOL    HW210213   2.507   4.138   4.147 -0.0747 -0.0331 -1.3364
 2535SOL    HW310214   2.450   3.998   4.161 -0.2574  0.1749  0.1014
 2535SOL    MW410215   2.445   4.083   4.177  0.2391  0.2494 -0.1407
 2536SOL     OW10216   2.696   1.170   4.204 -0.1145 -0.2689  0.2497
 2536SOL    HW210217   2.614   1.128   4.232  0.4093 -1.0499  0.6148
 2536SOL    HW310218   2.693   1.257   4.245 -1.9688  0.7287 -1.8321
 2536SOL    MW410219   2.685   1.176   4.213 -0.2899 -0.2403  0.0234
 2537SOL     OW10220   2.062   3.839   4.116  0.2998 -0.3468 -0.2818
 2537SOL    HW210221   2.060   3.849   4.021  1.3742 -1.9626 -0.4959
 2537SOL    HW310222   1.970   3.827   4.141  0.0323 -0.1107 -1.1426
 2537SOL    MW410223   2.049   3.839   4.106  0.4063 -0.5291 -0.4234
 2538SOL     OW10224   0.706   2.349   4.550  0.4444  0.1232  0.1506
 2538SOL    HW210225   0.625   2.298   4.546  0.7484 -0.3865  0.4144
 2538SOL    HW310226   0.677   2.440   4.549 -0.1047 -0.0545 -0.3037
 2538SOL    MW410227   0.691   2.355   4.549  0.4121  0.0324  0.1254
 2539SOL     OW10228   2.253   4.462   4.563  0.1138  0.0753  0.1671
 2539SOL    HW210229   2.326   4.518   4.589  0.3456 -0.0537 -0.2105
 2539SOL    HW310230   2.275   4.376   4.598  0.6008 -0.1824 -0.7643
 2539SOL    MW410231   2.265   4.458   4.571  0.2089  0.0243 -0.0052
 2540SOL     OW10232   3.946   4.556   4.623 -0.0655 -0.7587 -0.3187
 2540SOL    HW210233   4.016   4.615   4.594 -0.8309 -0.9374 -2.6437
 2540SOL    HW310234   3.990   4.472   4.637  0.3943 -0.5618 -0.5679
 2540SOL    MW410235   3.961   4.553   4.621 -0.1059 -0.7563 -0.6590
 2541SOL     OW10236   1.910   0.841   4.597 -0.0029  0.1066  0.6164
 2541SOL    HW210237   1.948   0.927   4.580  0.2704  0.1724  1.5316
 2541SOL    HW310238   1.887   0.808   4.510 -2.7134  2.2843  0.4338
 2541SOL    MW410239   1.912   0.848   4.583 -0.3245  0.4026  0.7129
 2542SOL     OW10240   3.372   3.419   4.312 -0.6535 -0.1063  0.1329
 2542SOL    HW210241   3.396   3.489   4.372  0.5936  0.7386 -1.2937
 2542SOL    HW310242   3.283   3.394   4.338 -0.2230  0.3808  2.1478
 2542SOL    MW410243   3.363   3.425   4.323 -0.4323  0.0694  0.2103
 2543SOL     OW10244   3.827   3.077   3.841  0.2253 -0.2396  0.0766
 2543SOL    HW210245   3.827   2.990   3.802  0.4256 -0.0708 -0.3043
 2543SOL    HW310246   3.811   3.062   3.934 -0.7695 -0.6087 -0.1502
 2543SOL    MW410247   3.825   3.064   3.848  0.1202 -0.2661 -0.0036
 2544SOL     OW10248   1.602   2.588   4.561  0.3904  0.3390  0.4942
 2544SOL    HW210249   1.614   2.563   4.470 -0.3696  0.2791  0.4110
 2544SOL    HW310250   1.588   2.682   4.559  1.6884  0.5486  0.6715
 2544SOL    MW410251   1.602   2.597   4.549  0.4613  0.3586  0.5064
 2545SOL     OW10252   0.216   3.858   4.147  0.5188  0.1599 -0.2773
 2545SOL    HW210253   0.217   3.848   4.051  0.2031 -0.4747 -0.2169
 2545SOL    HW310254   0.236   3.950   4.161  0.4727  0.2825 -0.9611
 2545SOL    MW410255   0.219   3.869   4.136  0.4711  0.0923 -0.3600
 2546SOL     OW10256   1.982   2.706   4.871  0.1128 -0.1764  0.2555
 2546SOL    HW210257   1.929   2.648   4.817 -1.6196  1.4815  0.1186
 2546SOL    HW310258   1.954   2.687   4.961 -0.6972  0.6580  0.1872
 2546SOL    MW410259   1.972   2.696   4.876 -0.2227  0.1523  0.2289
 2547SOL     OW10260   2.273   4.491   4.276  0.6660 -0.7441 -0.1460
 2547SOL    HW210261   2.352   4.541   4.256  0.7839 -0.8922 -0.0619
 2547SOL    HW310262   2.277   4.477   4.371 -0.6754  1.2708  0.2232
 2547SOL    MW410263   2.284   4.496   4.286  0.5043 -0.4978 -0.0863
 2548SOL     OW10264   2.430   3.125   3.892 -0.2125  0.3410 -0.5422
 2548SOL    HW210265   2.511   3.164   3.861  0.5359 -0.0967  0.8215
 2548SOL    HW310266   2.435   3.033   3.863  0.6607 -0.1642  1.1436
 2548SOL    MW410267   2.441   3.118   3.884  0.0014  0.2165 -0.1400
 2549SOL     OW10268   2.875   3.520   4.663  0.1844 -0.1912 -0.1917
 2549SOL    HW210269   2.793   3.482   4.633 -0.3643 -0.8262  2.0564
 2549SOL    HW310270   2.928   3.445   4.690  0.5856  0.3734  0.6218
 2549SOL    MW410271   2.871   3.505   4.663  0.1650 -0.2007  0.2122
 2550SOL     OW10272   4.028   2.933   4.239  0.4616  0.0445 -0.7831
 2550SOL    HW210273   4.024   2.841   4.268  0.0547  0.3707  0.2332
 2550SOL    HW310274   4.036   2.983   4.321  0.2433  0.9381 -1.3058
 2550SOL    MW410275   4.028   2.927   4.254  0.3791  0.2055 -0.7176
 2551SOL     OW10276   4.270   0.210   4.163 -0.3836  0.2311 -0.6925
 2551SOL    HW210277   4.330   0.285   4.157  0.8309 -0.6074  0.7837
 2551SOL    HW310278   4.184   0.248   4.143  0.0366  2.2706  1.1212
 2551SOL    MW410279   4.266   0.225   4.159 -0.1678  0.3896 -0.2580
 2552SOL     OW10280   2.435   3.865   3.827 -0.4316  0.4300  0.1745
 2552SOL    HW210281   2.435   3.777   3.789 -2.7652  0.7686 -0.6471
 2552SOL    HW310282   2.521   3.900   3.804 -0.3167 -0.8182 -1.3861
 2552SOL    MW410283   2.447   3.858   3.819 -0.7243  0.3102 -0.1400
 2553SOL     OW10284   0.165   0.761   4.104  0.4617 -0.6598 -0.0456
 2553SOL    HW210285   0.244   0.727   4.145 -0.2664  0.2614  2.2110
 2553SOL    HW310286   0.093   0.728   4.158 -0.4022  2.0723  0.5711
 2553SOL    MW410287   0.166   0.752   4.117  0.2516 -0.1778  0.3333
 2554SOL     OW10288   3.451   3.183   4.032 -0.1980 -0.5409 -0.6469
 2554SOL    HW210289   3.356   3.189   4.046  0.0241  0.1985  0.6748
 2554SOL    HW310290   3.486   3.160   4.118  0.7020 -2.3321 -1.4795
 2554SOL    MW410291   3.443   3.181   4.045 -0.0501 -0.6797 -0.5827
 2555SOL     OW10292   3.582   0.393   4.173  0.1599 -0.2382  0.0106
 2555SOL    HW210293   3.557   0.483   4.198  0.6060 -0.2464  0.5032
 2555SOL    HW310294   3.581   0.393   4.078  1.0009  0.5364 -0.0093
 2555SOL    MW410295   3.579   0.405   4.164  0.3300 -0.1371  0.0734
 2556SOL     OW10296   1.415   1.846   4.596  0.1785 -0.2354  0.5343
 2556SOL    HW210297   1.358   1.923   4.605 -0.8226 -0.7187 -1.4007
 2556SOL    HW310298   1.413   1.825   4.502  1.4876 -1.8404  0.8340
 2556SOL    MW410299   1.408   1.854   4.585  0.2191 -0.5111  0.3185
 2557SOL     OW10300   2.186   0.374   4.551  0.2455  0.4517 -0.0558
 2557SOL    HW210301   2.273   0.336   4.566  0.1531  0.8630  1.7182
 2557SOL    HW310302   2.132   0.301   4.524  1.1568  0.2068 -1.2769
 2557SOL    MW410303   2.191   0.360   4.550  0.3538  0.4737  0.0172
 2558SOL     OW10304   1.580   2.189   4.399 -0.5328 -0.0732 -0.3940
 2558SOL    HW210305   1.494   2.155   4.374 -0.7413 -0.7673  1.2140
 2558SOL    HW310306   1.613   2.231   4.319 -1.7074 -1.1243 -1.4626
 2558SOL    MW410307   1.573   2.190   4.385 -0.7154 -0.3035 -0.3228
 2559SOL     OW10308   1.143   0.416   4.477  0.1125 -0.6289 -0.3382
 2559SOL    HW210309   1.197   0.354   4.527 -1.5151 -0.0775  2.1423
 2559SOL    HW310310   1.137   0.376   4.390  0.6641 -3.0147  0.6751
 2559SOL    MW410311   1.149   0.402   4.472 -0.0293 -0.8709  0.1230
 2560SOL     OW10312   3.564   2.858   4.155  0.4092 -0.7241  0.7222
 2560SOL    HW210313   3.547   2.843   4.248 -0.3514 -3.4266  0.1936
 2560SOL    HW310314   3.480   2.887   4.119  0.6498  0.1156  0.8198
 2560SOL    MW410315   3.551   2.860   4.162  0.3409 -0.9701  0.6657
 2561SOL     OW10316   2.686   0.612   4.245 -0.6485 -0.1141 -0.1881
 2561SOL    HW210317   2.674   0.607   4.339  1.0125  0.3958  0.0616
 2561SOL    HW310318   2.614   0.668   4.214 -0.4396  0.7903  0.9415
 2561SOL    MW410319   2.675   0.619   4.253 -0.4020  0.0725 -0.0062
 2562SOL     OW10320   2.457   1.561   3.870 -0.3208  0.3623  0.3621
 2562SOL    HW210321   2.425   1.593   3.955  0.5866  2.1298  0.0621
 2562SOL    HW310322   2.544   1.599   3.862  0.1569 -0.9490 -0.7447
 2562SOL    MW410323   2.464   1.570   3.880 -0.1380  0.4226  0.1767
 2563SOL     OW10324   2.287   2.402   3.739  0.2999  0.2908 -0.4959
 2563SOL    HW210325   2.205   2.380   3.783  0.4377 -1.0052 -0.8613
 2563SOL    HW310326   2.354   2.357   3.789  0.5249 -0.6406 -1.6188
 2563SOL    MW410327   2.285   2.393   3.751  0.3476 -0.0031 -0.6919
 2564SOL     OW10328   0.934   3.686   4.244 -0.2178 -0.0624 -0.1525
 2564SOL    HW210329   0.933   3.600   4.202 -0.4784  0.3734 -1.0622
 2564SOL    HW310330   0.998   3.736   4.192  1.2281 -0.2198  1.4241
 2564SOL    MW410331   0.943   3.681   4.231 -0.0613 -0.0257 -0.0648
 2565SOL     OW10332   1.659   0.900   4.685  0.4866  0.2425  0.0175
 2565SOL    HW210333   1.604   0.822   4.676 -1.1126  1.4938 -1.5904
 2565SOL    HW310334   1.746   0.872   4.656  0.2555 -1.2799  0.7409
 2565SOL    MW410335   1.663   0.886   4.680  0.2451  0.2068 -0.0992
 2566SOL     OW10336   2.679   2.905   4.221  0.0159 -0.0179 -0.6232
 2566SOL    HW210337   2.624   2.953   4.283 -0.0567 -0.0424 -0.6693
 2566SOL    HW310338   2.756   2.879   4.272  0.2760  0.5595 -0.7138
 2566SOL    MW410339   2.682   2.908   4.235  0.0408  0.0551 -0.6409
 2567SOL     OW10340   2.666   0.407   4.606  0.3349 -0.0768  0.1633
 2567SOL    HW210341   2.669   0.502   4.594 -1.9893 -0.1328 -0.9828
 2567SOL    HW310342   2.654   0.395   4.700  1.2539  0.7417  0.3898
 2567SOL    MW410343   2.665   0.418   4.617  0.1493  0.0238  0.0420
 2568SOL     OW10344   1.586   2.555   4.266  0.3094  0.7018 -0.5281
 2568SOL    HW210345   1.590   2.469   4.224 -0.6128 -0.3498  1.4566
 2568SOL    HW310346   1.673   2.592   4.253  0.0332  0.4924 -3.4460
 2568SOL    MW410347   1.598   2.549   4.258  0.1515  0.5355 -0.6514
 2569SOL     OW10348   4.317   2.542   4.278 -0.3153 -0.3477  0.3872
 2569SOL    HW210349   4.234   2.585   4.295 -1.5676 -1.8223 -1.7629
 2569SOL    HW310350   4.363   2.601   4.218 -1.2250 -1.0782 -1.0464
 2569SOL    MW410351   4.312   2.556   4.273 -0.6008 -0.6385 -0.0858
 2570SOL     OW10352   2.895   3.283   4.269  0.3026  0.0532 -0.0055
 2570SOL    HW210353   2.803   3.286   4.292 -0.0258  0.7061 -1.3024
 2570SOL    HW310354   2.904   3.206   4.213  0.2917  0.6141 -0.8042
 2570SOL    MW410355   2.884   3.273   4.265  0.2577  0.2136 -0.2818
 2571SOL     OW10356   3.061   3.319   4.658 -0.4006 -0.0773 -0.0639
 2571SOL    HW210357   3.070   3.372   4.579 -3.0737  1.5074  0.6141
 2571SOL    HW310358   3.045   3.230   4.626 -0.5613  0.3832 -1.2964
 2571SOL    MW410359   3.060   3.314   4.643 -0.7744  0.1924 -0.1369
 2572SOL     OW10360   0.305   0.615   4.497  0.2548 -0.2595 -0.3913
 2572SOL    HW210361   0.336   0.621   4.406  0.6027 -1.0410 -0.3208
 2572SOL    HW310362   0.358   0.547   4.536  0.7348  0.7160  0.6659
 2572SOL    MW410363   0.316   0.607   4.490  0.3640 -0.2339 -0.2427
 2573SOL     OW10364   1.270   1.377   4.232  0.0602  0.5686  0.0009
 2573SOL    HW210365   1.349   1.424   4.207  0.5700  0.1696  0.8206
 2573SOL    HW310366   1.198   1.430   4.197  0.6381  1.7265  0.5255
 2573SOL    MW410367   1.271   1.390   4.224  0.2038  0.6685  0.1783
 2574SOL     OW10368   1.328   4.508   4.253  0.1171 -0.0088  0.2136
 2574SOL    HW210369   1.271   4.557   4.193  1.0856 -0.2885 -0.9601
 2574SOL    HW310370   1.417   4.536   4.230  0.6259 -1.6238  0.1356
 2574SOL    MW410371   1.332   4.518   4.242  0.3121 -0.2589  0.0482
 2575SOL     OW10372   3.580   4.222   3.855  0.1926  0.0160 -0.3086
 2575SOL    HW210373   3.568   4.222   3.950 -1.8117  1.4627 -0.5315
 2575SOL    HW310374   3.662   4.270   3.842 -0.6149  1.6841  0.5993
 2575SOL    MW410375   3.589   4.229   3.866 -0.1783  0.4272 -0.2179
 2576SOL     OW10376   4.073   0.434   4.474 -0.1204 -0.7443  0.6621
 2576SOL    HW210377   4.098   0.503   4.536 -2.4287  1.0705 -0.3453
 2576SOL    HW310378   4.060   0.481   4.391 -0.1989 -2.6430 -0.4144
 2576SOL    MW410379   4.075   0.450   4.471 -0.4358 -0.7553  0.3872
 2577SOL     OW10380   2.469   0.224   4.279  0.4169 -0.7991  0.3806
 2577SOL    HW210381   2.387   0.261   4.249  0.9350 -0.8126 -1.0868
 2577SOL    HW310382   2.537   0.279   4.239  1.1446 -1.8899  0.0934
 2577SOL    MW410383   2.467   0.236   4.270  0.5810 -0.9448  0.1488
 2578SOL     OW10384   1.811   3.805   4.220 -0.6737 -0.1152  0.0176
 2578SOL    HW210385   1.730   3.850   4.197  0.6138  2.1088 -0.3022
 2578SOL    HW310386   1.831   3.835   4.309  0.6422  0.6048 -0.5140
 2578SOL    MW410387   1.803   3.815   4.229 -0.3302  0.2735 -0.0949
 2579SOL     OW10388   2.220   0.643   4.295  0.8888 -0.1539 -0.1549
 2579SOL    HW210389   2.206   0.654   4.389 -0.9812  1.2597 -0.5550
 2579SOL    HW310390   2.307   0.680   4.279  1.0860 -0.1209  0.9647
 2579SOL    MW410391   2.230   0.650   4.305  0.6680  0.0370 -0.0601
 2580SOL     OW10392   3.635   4.480   4.263  0.1229  0.2187  0.0943
 2580SOL    HW210393   3.718   4.525   4.246  0.1266 -0.0007 -0.4598
 2580SOL    HW310394   3.643   4.449   4.353  0.7404 -0.0173 -0.0416
 2580SOL    MW410395   3.647   4.482   4.273  0.2048  0.1583  0.0033
 2581SOL     OW10396   4.009   0.308   4.098  0.0336 -0.4955 -0.2223
 2581SOL    HW210397   3.946   0.268   4.158 -0.7848 -0.1562 -0.8490
 2581SOL    HW310398   4.020   0.397   4.130 -0.3972 -0.3168 -0.5585
 2581SOL    MW410399   4.002   0.314   4.110 -0.1311 -0.4271 -0.3490
 2582SOL     OW10400   2.828   3.784   4.715 -0.3335 -0.0131  0.1413
 2582SOL    HW210401   2.768   3.784   4.790 -1.3505 -2.1732 -0.6428
 2582SOL    HW310402   2.859   3.694   4.708  1.5627  0.6649 -0.6360
 2582SOL    MW410403   2.824   3.772   4.724 -0.2170 -0.2086 -0.0644
 2583SOL     OW10404   1.764   3.522   4.163 -0.0854  0.0029 -0.2928
 2583SOL    HW210405   1.780   3.613   4.189  1.0186  0.2057 -1.6359
 2583SOL    HW310406   1.758   3.525   4.068  0.3456 -1.3902 -0.3779
 2583SOL    MW410407   1.766   3.535   4.154  0.1171 -0.1543 -0.4811
 2584SOL     OW10408   0.492   2.984   4.245  0.4554  0.7796  0.1221
 2584SOL    HW210409   0.506   2.957   4.336  0.4879  1.1874  0.2372
 2584SOL    HW310410   0.462   2.904   4.201 -1.4870  1.0336  0.9178
 2584SOL    MW410411   0.490   2.970   4.251  0.2034  0.8671  0.2418
 2585SOL     OW10412   0.180   1.014   4.274 -0.0330  0.2335  0.0092
 2585SOL    HW210413   0.181   0.921   4.248 -0.7520 -0.1727  1.4007
 2585SOL    HW310414   0.245   1.055   4.216 -0.3046 -0.9721 -1.1891
 2585SOL    MW410415   0.189   1.007   4.263 -0.1637  0.0207  0.0348
 2586SOL     OW10416   3.967   0.836   4.637 -0.1037 -0.0867 -0.0278
 2586SOL    HW210417   3.959   0.827   4.732  0.1722  1.4369  0.1584
 2586SOL    HW310418   4.019   0.916   4.625 -0.8557  0.2124 -1.4621
 2586SOL    MW410419   3.973   0.846   4.648 -0.1667  0.1538 -0.1931
 2587SOL     OW10420   3.871   2.046   3.743 -0.0509 -0.3305 -0.6374
 2587SOL    HW210421   3.785   2.007   3.762  0.1736 -0.3081  0.4229
 2587SOL    HW310422   3.932   1.998   3.799  0.7253 -0.7669 -1.8427
 2587SOL    MW410423   3.867   2.034   3.753  0.0815 -0.3853 -0.6564
 2588SOL     OW10424   2.431   3.219   4.154 -0.2781 -0.0094  0.1730
 2588SOL    HW210425   2.439   3.182   4.066  1.1157 -0.4313  0.4710
 2588SOL    HW310426   2.376   3.156   4.202  0.1713 -0.5107  0.0221
 2588SOL    MW410427   2.425   3.206   4.149 -0.0350 -0.1314  0.1926
 2589SOL     OW10428   1.513   0.801   3.879 -0.6902  0.3013 -0.3415
 2589SOL    HW210429   1.453   0.862   3.835 -0.3946  2.0113  1.5227
 2589SOL    HW310430   1.601   0.835   3.857 -0.4950 -0.1032 -0.1826
 2589SOL    MW410431   1.517   0.814   3.870 -0.6255  0.4736 -0.0749
 2590SOL     OW10432   1.113   2.544   4.239  0.0574  0.1250 -0.2700
 2590SOL    HW210433   1.107   2.531   4.334  1.5606 -2.3437 -0.4648
 2590SOL    HW310434   1.205   2.567   4.225 -0.2651  0.9215 -1.0996
 2590SOL    MW410435   1.124   2.545   4.250  0.2133 -0.0956 -0.4053
 2591SOL     OW10436   3.353   2.801   3.728 -0.2913 -0.3655  0.0912
 2591SOL    HW210437   3.439   2.765   3.752 -0.4469 -0.3961  0.6124
 2591SOL    HW310438   3.360   2.894   3.750 -0.6431 -0.5140  0.8199
 2591SOL    MW410439   3.365   2.809   3.734 -0.3583 -0.3889  0.2558
 2592SOL     OW10440   3.970   1.589   4.170  0.9511  0.0416  0.3069
 2592SOL    HW210441   3.921   1.571   4.089  1.5631 -0.2268 -0.0091
 2592SOL    HW310442   3.952   1.681   4.189 -1.1409 -0.5158  1.1983
 2592SOL    MW410443   3.961   1.599   4.161  0.7560 -0.0675  0.3829
 2593SOL     OW10444   2.896   2.835   3.735  0.2041  0.7006 -0.2544
 2593SOL    HW210445   2.806   2.811   3.759  0.2715  0.7886  0.0884
 2593SOL    HW310446   2.951   2.776   3.786  0.3396  0.4628 -0.6685
 2593SOL    MW410447   2.891   2.824   3.745  0.2310  0.6807 -0.2637
 2594SOL     OW10448   2.605   0.958   4.754  0.0516 -0.2017  0.8839
 2594SOL    HW210449   2.547   0.888   4.724  0.0221  0.2197 -0.0959
 2594SOL    HW310450   2.688   0.941   4.708 -0.2001  0.8442  0.0282
 2594SOL    MW410451   2.608   0.947   4.744  0.0148 -0.0082  0.6418
 2595SOL     OW10452   3.347   3.837   3.855 -0.4185  0.2948  0.8045
 2595SOL    HW210453   3.343   3.835   3.950 -1.7969  0.6121  0.7615
 2595SOL    HW310454   3.263   3.874   3.828  0.2453  0.8990 -0.5063
 2595SOL    MW410455   3.336   3.842   3.864 -0.5128  0.4163  0.6261
 2596SOL     OW10456   4.281   2.880   4.641  0.0123  0.1918  0.1992
 2596SOL    HW210457   4.297   2.844   4.729 -0.8081  0.7859  0.5979
 2596SOL    HW310458   4.195   2.846   4.617 -0.0387  0.5454 -0.1152
 2596SOL    MW410459   4.272   2.870   4.650 -0.1025  0.3169  0.2103
 2597SOL     OW10460   1.563   0.401   4.767 -0.4067  0.2060  0.0639
 2597SOL    HW210461   1.577   0.405   4.862 -2.0021 -1.0762  0.3784
 2597SOL    HW310462   1.644   0.364   4.732 -0.6176 -1.3483  1.1712
 2597SOL    MW410463   1.576   0.396   4.775 -0.6452 -0.1682  0.2513
 2598SOL     OW10464   0.866   2.168   4.263  0.7096 -0.0997 -0.0148
 2598SOL    HW210465   0.882   2.184   4.356  2.1615  0.9645 -0.4397
 2598SOL    HW310466   0.785   2.216   4.244  1.9925  2.1245  0.0387
 2598SOL    MW410467   0.857   2.176   4.272  1.0704  0.3340 -0.0639
 2599SOL     OW10468   3.115   4.381   4.523 -0.5767 -0.0692  0.2266
 2599SOL    HW210469   3.148   4.411   4.438 -0.2874  1.1801  0.7619
 2599SOL    HW310470   3.054   4.450   4.550 -2.1462 -1.3832  0.1689
 2599SOL    MW410471   3.111   4.394   4.515 -0.7458 -0.0782  0.2894
 2600SOL     OW10472   3.465   2.903   4.700  0.3718  0.0241 -0.1371
 2600SOL    HW210473   3.501   2.850   4.771  0.4408 -0.0248 -0.2084
 2600SOL    HW310474   3.371   2.887   4.703  0.6056 -1.6281 -1.4121
 2600SOL    MW410475   3.457   2.894   4.710  0.4117 -0.2003 -0.3147
 2601SOL     OW10476   0.140   2.441   4.675  0.0890 -0.4176  0.1115
 2601SOL    HW210477   0.203   2.511   4.654 -1.2537  0.7124 -0.2388
 2601SOL    HW310478   0.060   2.467   4.629 -0.8354 -1.4942  1.0992
 2601SOL    MW410479   0.138   2.454   4.666 -0.2101 -0.4103  0.1955
 2602SOL     OW10480   2.657   1.422   4.299 -0.3705 -0.3281 -0.5690
 2602SOL    HW210481   2.575   1.467   4.280 -0.4323 -0.3705 -0.4045
 2602SOL    HW310482   2.724   1.490   4.290 -0.4431 -0.2487 -0.5148
 2602SOL    MW410483   2.655   1.437   4.295 -0.3881 -0.3231 -0.5398
 2603SOL     OW10484   0.047   2.680   4.157 -0.0636  0.5408 -0.1176
 2603SOL    HW210485   0.024   2.770   4.178  1.5358  0.6087  1.4320
 2603SOL    HW310486   0.124   2.661   4.210  0.1276 -1.4747 -1.0442
 2603SOL    MW410487   0.054   2.689   4.166  0.1727  0.2840 -0.0353
 2604SOL     OW10488   4.460   0.420   4.153  0.3388  0.0086  0.0407
 2604SOL    HW210489   4.482   0.439   4.062 -0.4817 -1.7457 -0.5456
 2604SOL    HW310490   4.526   0.356   4.181 -1.5160 -2.1702 -0.4603
 2604SOL    MW410491   4.472   0.414   4.144 -0.0143 -0.5103 -0.1025
 2605SOL     OW10492   1.281   1.864   4.163 -0.3055 -0.0177  0.1447
 2605SOL    HW210493   1.284   1.951   4.202  0.8632 -0.0653  0.1904
 2605SOL    HW310494   1.206   1.822   4.204  0.4072  0.2145  1.7387
 2605SOL    MW410495   1.271   1.870   4.174 -0.0573  0.0067  0.3605
 2606SOL     OW10496   4.047   1.967   4.731 -0.1128  0.1280 -0.1164
 2606SOL    HW210497   4.085   1.927   4.653  0.8269 -0.6651  0.7386
 2606SOL    HW310498   4.121   1.981   4.790 -0.8045  0.7770  0.6199
 2606SOL    MW410499   4.062   1.964   4.728 -0.0801  0.1091  0.0939
 2607SOL     OW10500   4.303   3.083   3.837  0.4523  0.0356 -0.1831
 2607SOL    HW210501   4.218   3.108   3.799  0.7935  1.5424  0.0521
 2607SOL    HW310502   4.283   3.061   3.928 -0.2408 -2.8658 -0.9845
 2607SOL    MW410503   4.289   3.083   3.844  0.4063 -0.1481 -0.2580
 2608SOL     OW10504   3.377   2.007   3.735 -0.1928  0.0610 -0.0272
 2608SOL    HW210505   3.372   2.097   3.767 -1.8029  0.4009 -1.2140
 2608SOL    HW310506   3.310   1.960   3.785 -1.1070  0.0878 -1.2146
 2608SOL    MW410507   3.368   2.013   3.746 -0.5260  0.1094 -0.3405
 2609SOL     OW10508   4.463   4.463   4.242  0.0357 -0.1138 -0.4357
 2609SOL    HW210509   4.485   4.379   4.201  1.9722 -0.0217  0.3462
 2609SOL    HW310510   4.477   4.448   4.336  2.0162  1.5198 -0.4256
 2609SOL    MW410511   4.468   4.450   4.249  0.5527  0.1140 -0.3314
 2610SOL     OW10512   3.867   2.298   3.860 -0.1536 -0.1981 -0.0991
 2610SOL    HW210513   3.781   2.325   3.829  0.3955  0.5352 -1.0474
 2610SOL    HW310514   3.879   2.210   3.824  0.3263  0.5030 -1.7453
 2610SOL    MW410515   3.858   2.290   3.851 -0.0179 -0.0088 -0.4413
 2611SOL     OW10516   0.307   2.644   4.582  0.2739 -0.0805 -0.1575
 2611SOL    HW210517   0.284   2.625   4.491  3.8763 -0.3201 -1.0858
 2611SOL    HW310518   0.297   2.739   4.591 -1.6662 -0.2581 -0.3004
 2611SOL    MW410519   0.303   2.654   4.571  0.4932 -0.1354 -0.2995
 2612SOL     OW10520   2.909   0.995   4.283  0.2883 -0.0515 -0.4212
 2612SOL    HW210521   2.988   1.034   4.245  0.4227 -0.4199 -0.5169
 2612SOL    HW310522   2.839   1.053   4.255  0.6287  0.7784  0.4070
 2612SOL    MW410523   2.910   1.008   4.274  0.3510  0.0095 -0.3242
 2613SOL     OW10524   0.053   4.199   4.142  0.1913 -0.1671 -0.1311
 2613SOL    HW210525   0.022   4.219   4.054  1.0782  0.9806 -0.1928
 2613SOL    HW310526  -0.022   4.160   4.186  0.0127 -1.6564 -1.6828
 2613SOL    MW410527   0.039   4.196   4.136  0.2848 -0.2122 -0.3438
 2614SOL     OW10528   1.101   0.690   4.117 -0.4121  0.2817 -0.3484
 2614SOL    HW210529   1.174   0.650   4.164  0.3697  1.7361 -0.2996
 2614SOL    HW310530   1.024   0.669   4.170  0.1399 -0.1318  0.2969
 2614SOL    MW410531   1.100   0.682   4.130 -0.2362  0.4191 -0.2570
 2615SOL     OW10532   3.844   1.834   4.257  0.1557 -0.4153  0.4757
 2615SOL    HW210533   3.761   1.846   4.211  0.3459  1.7824  0.6474
 2615SOL    HW310534   3.820   1.830   4.349  0.0514 -2.0211  0.4001
 2615SOL    MW410535   3.830   1.835   4.263  0.1669 -0.3372  0.4888
 2616SOL     OW10536   3.361   2.676   5.048  0.0667 -0.0672 -0.3787
 2616SOL    HW210537   3.272   2.697   5.021 -0.2434 -0.2606  0.4766
 2616SOL    HW310538   3.375   2.586   5.021  0.2518  0.1881 -1.1400
 2616SOL    MW410539   3.351   2.667   5.041  0.0503 -0.0591 -0.3667
 2617SOL     OW10540   0.458   4.525   4.212 -0.0253  0.4051  0.3856
 2617SOL    HW210541   0.461   4.438   4.172  0.5973  0.0599  1.1628
 2617SOL    HW310542   0.372   4.559   4.190 -1.2008 -1.3949  2.1236
 2617SOL    MW410543   0.447   4.518   4.204 -0.0982  0.1221  0.7176
 2618SOL     OW10544   2.451   1.703   4.130  0.2627  0.5344  0.3516
 2618SOL    HW210545   2.530   1.741   4.168  0.4987 -1.2610  1.7352
 2618SOL    HW310546   2.423   1.637   4.193 -0.2187 -1.4534 -1.8470
 2618SOL    MW410547   2.458   1.699   4.143  0.2303  0.0352  0.2437
 2619SOL     OW10548   0.668   4.263   4.436 -0.0126  0.2954  0.0776
 2619SOL    HW210549   0.602   4.212   4.484 -0.8185 -0.0142 -1.3273
 2619SOL    HW310550   0.677   4.217   4.353  0.5072  1.5041 -0.5371
 2619SOL    MW410551   0.661   4.250   4.432 -0.0503  0.4144 -0.1898
 2620SOL     OW10552   2.498   4.062   4.466  0.3339 -0.1134  0.3338
 2620SOL    HW210553   2.490   4.068   4.370  1.3267  0.6653  0.2836
 2620SOL    HW310554   2.525   3.971   4.482 -1.9934 -0.8804  0.0548
 2620SOL    MW410555   2.501   4.051   4.455  0.1578 -0.1121  0.2904
 2621SOL     OW10556   3.583   0.700   4.362  0.2310  0.4935 -0.1622
 2621SOL    HW210557   3.627   0.762   4.420 -0.1267 -0.9646  1.7366
 2621SOL    HW310558   3.491   0.703   4.388  0.2333 -0.9225  0.0966
 2621SOL    MW410559   3.577   0.708   4.374  0.1838  0.1141  0.1225
 2622SOL     OW10560   2.190   0.646   4.567 -0.0240  0.2199 -0.1177
 2622SOL    HW210561   2.174   0.553   4.551  0.1960 -0.0676  1.2959
 2622SOL    HW310562   2.146   0.664   4.650  1.1569  1.0219  0.3480
 2622SOL    MW410563   2.182   0.636   4.576  0.1612  0.2878  0.1302
 2623SOL     OW10564   0.427   0.384   4.590 -0.0992 -0.2189  0.2546
 2623SOL    HW210565   0.437   0.362   4.683 -0.9433 -1.3948  0.0817
 2623SOL    HW310566   0.512   0.367   4.552  0.3751  0.6811  0.8916
 2623SOL    MW410567   0.439   0.378   4.597 -0.1480 -0.2553  0.3157
 2624SOL     OW10568   4.281   3.161   4.518 -0.2613 -0.3829  0.2980
 2624SOL    HW210569   4.321   3.085   4.559  0.2253 -0.0347  0.4710
 2624SOL    HW310570   4.334   3.236   4.547 -0.2752 -0.0615 -0.4660
 2624SOL    MW410571   4.293   3.161   4.527 -0.1993 -0.2947  0.2203
 2625SOL     OW10572   1.816   3.369   4.593 -0.1157 -0.0696 -0.5870
 2625SOL    HW210573   1.899   3.397   4.553 -0.4750  0.3720 -1.0311
 2625SOL    HW310574   1.843   3.318   4.669  0.5675  0.6715 -0.3146
 2625SOL    MW410575   1.831   3.366   4.598 -0.0728  0.0865 -0.6099
 2626SOL     OW10576   0.481   4.269   4.092  0.4458  0.4488 -0.1152
 2626SOL    HW210577   0.482   4.264   3.997  1.8861  0.4596 -0.1177
 2626SOL    HW310578   0.561   4.223   4.119  0.1553  0.6162  1.0754
 2626SOL    MW410579   0.492   4.262   4.083  0.5975  0.4721  0.0420
 2627SOL     OW10580   3.180   2.859   4.687  0.4982  0.0019  0.0076
 2627SOL    HW210581   3.127   2.932   4.656  0.2600  0.0274  0.4763
 2627SOL    HW310582   3.172   2.793   4.617 -0.7149 -0.2702  0.3811
 2627SOL    MW410583   3.172   2.860   4.674  0.3066 -0.0305  0.1183
 2628SOL     OW10584   1.557   4.181   4.273 -0.3697 -0.0978 -0.1293
 2628SOL    HW210585   1.479   4.219   4.232 -0.4600 -1.0223 -0.8330
 2628SOL    HW310586   1.630   4.212   4.219 -0.1811  1.1699  0.8158
 2628SOL    MW410587   1.556   4.190   4.260 -0.3568 -0.0529 -0.0982
 2629SOL     OW10588   4.281   4.615   4.069 -0.0211  0.3108 -0.0929
 2629SOL    HW210589   4.283   4.706   4.097  0.0753  0.1710  0.3584
 2629SOL    HW310590   4.342   4.570   4.127  0.8985  0.1864 -1.1459
 2629SOL    MW410591   4.289   4.621   4.081  0.1130  0.2756 -0.1726
 2630SOL     OW10592   3.977   2.300   4.121  0.4504 -0.0464 -0.1727
 2630SOL    HW210593   3.919   2.340   4.185  0.0130 -1.1160  0.1238
 2630SOL    HW310594   3.933   2.314   4.037  0.4761  0.3876 -0.1150
 2630SOL    MW410595   3.964   2.307   4.118  0.3960 -0.1302 -0.1259
 2631SOL     OW10596   0.432   3.478   4.134 -0.0898 -0.5259 -0.3863
 2631SOL    HW210597   0.350   3.439   4.164 -0.5054 -0.0721 -0.9124
 2631SOL    HW310598   0.426   3.474   4.038  0.4493 -0.3776 -0.4285
 2631SOL    MW410599   0.420   3.472   4.125 -0.0735 -0.4463 -0.4611
 2632SOL     OW10600   4.242   0.752   4.188  0.0117  0.1610  0.5266
 2632SOL    HW210601   4.258   0.760   4.093  1.3860  0.1584  0.7406
 2632SOL    HW310602   4.214   0.840   4.215 -1.9615 -0.2463 -0.1584
 2632SOL    MW410603   4.241   0.765   4.179 -0.0672  0.1069  0.4644
 2633SOL     OW10604   2.819   2.530   4.417  0.4748 -0.0767  0.2781
 2633SOL    HW210605   2.850   2.458   4.471 -1.0705 -0.6685  0.3910
 2633SOL    HW310606   2.899   2.573   4.386  1.3682  0.0471  2.7045
 2633SOL    MW410607   2.834   2.526   4.420  0.3889 -0.1385  0.6132
 2634SOL     OW10608   0.058   2.444   3.753 -0.3276  0.2120 -0.1505
 2634SOL    HW210609   0.052   2.533   3.788 -1.7388 -0.6468  1.9190
 2634SOL    HW310610   0.135   2.407   3.796 -0.4461  0.0643 -0.0614
 2634SOL    MW410611   0.067   2.451   3.763 -0.5295  0.0792  0.1340
 2635SOL     OW10612   0.404   1.152   3.859  0.0312  0.2072 -0.1715
 2635SOL    HW210613   0.317   1.184   3.833 -0.1082 -0.4950 -0.5805
 2635SOL    HW310614   0.465   1.205   3.808 -0.0861  1.7183  1.1904
 2635SOL    MW410615   0.400   1.163   3.849 -0.0027  0.3139 -0.0455
 2636SOL     OW10616   0.597   2.906   4.504  0.4621 -0.3967 -0.0026
 2636SOL    HW210617   0.561   2.971   4.564 -0.9778 -0.1439 -1.1061
 2636SOL    HW310618   0.687   2.933   4.490  0.4091  0.3065  0.9994
 2636SOL    MW410619   0.604   2.918   4.510  0.2651 -0.2706 -0.0157
 2637SOL     OW10620   4.423   2.574   4.525 -0.0911  0.5771 -0.2297
 2637SOL    HW210621   4.468   2.658   4.525 -1.1082  1.1331 -0.9545
 2637SOL    HW310622   4.400   2.559   4.434 -0.3261 -0.2722 -0.0361
 2637SOL    MW410623   4.426   2.583   4.513 -0.2556  0.5386 -0.3009
 2638SOL     OW10624   1.181   4.090   4.588  0.5226  0.3598 -0.1212
 2638SOL    HW210625   1.140   4.173   4.564  0.9735  0.4177 -0.6978
 2638SOL    HW310626   1.267   4.115   4.623 -0.0678  0.2732  1.4635
 2638SOL    MW410627   1.187   4.104   4.590  0.5041  0.3562  0.0119
 2639SOL     OW10628   2.634   3.369   4.289 -0.2885 -0.0142 -0.1403
 2639SOL    HW210629   2.576   3.306   4.244 -0.2463  0.7619 -1.2907
 2639SOL    HW310630   2.622   3.450   4.241  0.3251  0.6431  0.8170
 2639SOL    MW410631   2.625   3.371   4.277 -0.2019  0.1748 -0.1659
 2640SOL     OW10632   2.359   2.843   4.540  0.5574 -0.0809  0.2626
 2640SOL    HW210633   2.422   2.780   4.576  0.3081 -0.2061  0.4829
 2640SOL    HW310634   2.413   2.916   4.512  0.7010  0.3487  1.5993
 2640SOL    MW410635   2.375   2.844   4.541  0.5431 -0.0405  0.4678
 2641SOL     OW10636   0.269   4.606   4.525  0.3527  0.2538 -0.5394
 2641SOL    HW210637   0.274   4.701   4.523 -0.3924  0.3150  0.5292
 2641SOL    HW310638   0.360   4.577   4.529  0.5066  0.9919  1.9522
 2641SOL    MW410639   0.282   4.614   4.525  0.2747  0.3591 -0.0696
 2642SOL     OW10640   1.914   3.161   4.805 -0.2468  0.1194 -0.0890
 2642SOL    HW210641   1.913   3.181   4.898 -1.5550 -0.0856 -0.0428
 2642SOL    HW310642   2.006   3.157   4.782  0.0803  0.7365  1.0730
 2642SOL    MW410643   1.926   3.163   4.814 -0.3763  0.1738  0.0701
 2643SOL     OW10644   3.299   4.173   4.588 -0.0492 -0.5176 -0.7021
 2643SOL    HW210645   3.239   4.117   4.636  0.4160 -0.1444  0.3247
 2643SOL    HW310646   3.248   4.252   4.569  0.4397  0.2503  1.1208
 2643SOL    MW410647   3.285   4.176   4.592  0.0768 -0.3667 -0.3262
 2644SOL     OW10648   2.261   3.653   4.209 -0.1630  0.4047 -0.0015
 2644SOL    HW210649   2.191   3.705   4.171 -0.0864  0.4326 -0.1037
 2644SOL    HW310650   2.258   3.569   4.163 -0.4218  0.2433  0.3117
 2644SOL    MW410651   2.252   3.649   4.198 -0.1869  0.3872  0.0262
 2645SOL     OW10652   1.875   1.892   4.095 -0.1242 -0.2061 -0.2589
 2645SOL    HW210653   1.951   1.854   4.138  0.2725  1.2921  0.3863
 2645SOL    HW310654   1.807   1.892   4.162 -0.0212  0.5236 -0.1501
 2645SOL    MW410655   1.876   1.887   4.110 -0.0583  0.0877 -0.1597
 2646SOL     OW10656   4.282   1.852   4.219  0.0328 -0.1417  0.5704
 2646SOL    HW210657   4.209   1.892   4.172  1.1706  1.4322  0.0941
 2646SOL    HW310658   4.276   1.759   4.197 -0.3137  0.3396 -1.5540
 2646SOL    MW410659   4.272   1.845   4.210  0.1373  0.1295  0.2279
 2647SOL     OW10660   4.028   2.713   3.838  0.1344  0.5632 -0.0732
 2647SOL    HW210661   4.116   2.750   3.831 -0.3798  1.5497 -1.6618
 2647SOL    HW310662   4.038   2.624   3.805  0.4975  0.7493 -0.4771
 2647SOL    MW410663   4.041   2.706   3.832  0.1149  0.7181 -0.3362
 2648SOL     OW10664   4.483   1.986   4.085 -0.2819 -0.0703  0.4697
 2648SOL    HW210665   4.408   1.970   4.143  0.1931  1.4710  1.5237
 2648SOL    HW310666   4.496   2.080   4.088  1.1527 -0.2334 -0.4179
 2648SOL    MW410667   4.475   1.996   4.093 -0.0300  0.1115  0.4916
 2649SOL     OW10668   3.323   1.005   4.537  0.0770  0.6702 -0.1601
 2649SOL    HW210669   3.351   1.008   4.445 -0.4307 -1.3925 -0.4015
 2649SOL    HW310670   3.229   1.018   4.535 -0.1049 -0.5643 -0.0449
 2649SOL    MW410671   3.314   1.007   4.525 -0.0143  0.2353 -0.1764
 2650SOL     OW10672   4.198   1.827   4.481  0.3833 -0.0098  0.3434
 2650SOL    HW210673   4.240   1.742   4.497 -1.5825 -1.3078 -1.1251
 2650SOL    HW310674   4.243   1.862   4.404 -0.1044 -0.6555 -0.2467
 2650SOL    MW410675   4.209   1.820   4.473  0.0601 -0.2662  0.0720
 2651SOL     OW10676   0.115   0.980   4.539  0.1037  0.4195  0.5180
 2651SOL    HW210677   0.076   0.893   4.536 -0.8241  0.8623 -0.4571
 2651SOL    HW310678   0.140   0.998   4.448 -0.8511  1.6798  0.4997
 2651SOL    MW410679   0.113   0.971   4.526 -0.1447  0.6442  0.3867
 2652SOL     OW10680   3.074   3.943   4.623  0.4678  0.0625 -0.7056
 2652SOL    HW210681   3.015   4.007   4.584  0.7820  0.8504  0.0917
 2652SOL    HW310682   3.019   3.894   4.684  0.4661  0.2902 -0.5240
 2652SOL    MW410683   3.059   3.945   4.626  0.5093  0.1965 -0.5765
 2653SOL     OW10684   0.644   2.290   4.169 -0.9733  0.1049  0.0178
 2653SOL    HW210685   0.670   2.298   4.077 -1.7836  0.2517 -0.2048
 2653SOL    HW310686   0.639   2.380   4.200  1.3861 -0.0041  0.8209
 2653SOL    MW410687   0.647   2.303   4.161 -0.7689  0.1099  0.0944
 2654SOL     OW10688   4.056   4.251   4.169 -0.4591  0.0886 -0.4042
 2654SOL    HW210689   4.060   4.342   4.197  2.9162 -0.2284  0.3295
 2654SOL    HW310690   4.060   4.255   4.073  0.9013  0.6892 -0.3325
 2654SOL    MW410691   4.057   4.263   4.160  0.1655  0.1259 -0.2980
 2655SOL     OW10692   1.675   1.937   4.633  0.4069 -0.0996  0.5318
 2655SOL    HW210693   1.671   2.028   4.662  0.0753 -0.3376  1.2506
 2655SOL    HW310694   1.585   1.905   4.639  0.4462 -0.3560 -0.1286
 2655SOL    MW410695   1.663   1.945   4.638  0.3684 -0.1649  0.5393
 2656SOL     OW10696   3.671   1.685   3.742  0.2820 -0.2532  0.0685
 2656SOL    HW210697   3.595   1.644   3.782  0.8531 -1.1177  0.2888
 2656SOL    HW310698   3.657   1.676   3.647 -0.9345  1.5505  0.0453
 2656SOL    MW410699   3.659   1.679   3.734  0.1967 -0.1293  0.0944
 2657SOL     OW10700   0.893   1.359   4.511  0.5011  0.0152  0.1041
 2657SOL    HW210701   0.987   1.373   4.516  0.3300  1.0215  0.4488
 2657SOL    HW310702   0.870   1.378   4.421  0.3944  1.1814  0.3780
 2657SOL    MW410703   0.902   1.363   4.500  0.4644  0.3020  0.1855
 2658SOL     OW10704   3.353   3.328   4.684 -0.0314  0.2024  0.0787
 2658SOL    HW210705   3.264   3.311   4.714  0.4463  0.5762  1.7245
 2658SOL    HW310706   3.348   3.411   4.637 -0.3179  0.8480  1.2385
 2658SOL    MW410707   3.341   3.336   4.682 -0.0060  0.3371  0.4487
 2659SOL     OW10708   3.194   4.464   4.276  0.3813 -0.6833 -0.1148
 2659SOL    HW210709   3.113   4.502   4.241 -0.0364 -1.0966  0.3935
 2659SOL    HW310710   3.262   4.528   4.255 -0.1798 -0.0528 -0.0036
 2659SOL    MW410711   3.192   4.477   4.268  0.2522 -0.6547 -0.0329
 2660SOL     OW10712   0.659   0.276   4.191 -0.2145  0.2717  0.3636
 2660SOL    HW210713   0.655   0.279   4.287 -0.1436 -1.3322  0.4430
 2660SOL    HW310714   0.669   0.182   4.171 -0.3120  0.5855 -1.2134
 2660SOL    MW410715   0.660   0.264   4.201 -0.2180  0.1014  0.1664
 2661SOL     OW10716   0.336   3.685   4.562 -0.0402  0.1904 -0.0958
 2661SOL    HW210717   0.290   3.764   4.591 -0.7819 -1.0083  2.0637
 2661SOL    HW310718   0.339   3.694   4.466 -3.4626  1.0423 -0.2037
 2661SOL    MW410719   0.330   3.697   4.553 -0.5896  0.1445  0.1745
 2662SOL     OW10720   3.575   1.120   4.146  0.0236 -0.3212  0.7693
 2662SOL    HW210721   3.651   1.072   4.179  1.0670  0.9704  0.2966
 2662SOL    HW310722   3.599   1.146   4.057 -0.4358  1.2114  1.0703
 2662SOL    MW410723   3.588   1.117   4.139  0.1004  0.0514  0.7467
 2663SOL     OW10724   0.395   3.696   4.305 -0.0171  0.4711 -0.1937
 2663SOL    HW210725   0.333   3.753   4.260 -0.8095 -0.2062  0.0261
 2663SOL    HW310726   0.411   3.624   4.243 -0.9999 -0.3879  0.5238
 2663SOL    MW410727   0.389   3.694   4.291 -0.2513  0.2685 -0.0706
 2664SOL     OW10728   1.611   2.881   4.560  0.1097 -0.7189  0.2653
 2664SOL    HW210729   1.631   2.950   4.497 -0.7866 -0.8243 -0.1491
 2664SOL    HW310730   1.687   2.878   4.618  0.0698  0.7712  0.4266
 2664SOL    MW410731   1.623   2.890   4.560 -0.0138 -0.5364  0.2317
 2665SOL     OW10732   2.073   4.141   4.513  0.1128  0.1546 -0.5013
 2665SOL    HW210733   2.080   4.126   4.418 -0.6271 -1.4001 -0.3351
 2665SOL    HW310734   2.163   4.158   4.541  0.5973 -1.1254 -1.2198
 2665SOL    MW410735   2.086   4.141   4.504  0.0792 -0.2189 -0.5746
 2666SOL     OW10736   2.702   0.397   3.866 -0.0168  0.4381 -0.7517
 2666SOL    HW210737   2.690   0.308   3.833 -0.4251 -0.1583  0.9844
 2666SOL    HW310738   2.616   0.438   3.858 -0.4473 -0.1352  0.7954
 2666SOL    MW410739   2.689   0.391   3.861 -0.1276  0.2838 -0.3188
 2667SOL     OW10740   1.354   2.688   4.176 -0.4342  0.2053  0.0438
 2667SOL    HW210741   1.355   2.773   4.220  0.8361  0.1469  0.1293
 2667SOL    HW310742   1.430   2.641   4.210 -0.3306 -0.4443 -1.0418
 2667SOL    MW410743   1.364   2.693   4.186 -0.2530  0.1118 -0.0877
 2668SOL     OW10744   2.509   2.711   4.126 -0.0932  0.0631  0.1679
 2668SOL    HW210745   2.564   2.785   4.154  1.5385 -0.3404 -1.8617
 2668SOL    HW310746   2.420   2.739   4.148  0.6482  1.8772  1.0562
 2668SOL    MW410747   2.505   2.725   4.133  0.2198  0.2494  0.0176
 2669SOL     OW10748   4.060   3.449   3.870  0.1756 -0.0845  0.3871
 2669SOL    HW210749   4.043   3.436   3.964 -0.6771 -1.7557  0.0272
 2669SOL    HW310750   4.068   3.360   3.835  0.7916  0.5391 -1.0790
 2669SOL    MW410751   4.059   3.436   3.878  0.1445 -0.2227  0.1459
 2670SOL     OW10752   2.870   0.832   4.654  0.3306 -0.3189 -0.6394
 2670SOL    HW210753   2.924   0.911   4.648  0.1258 -0.2151 -1.1482
 2670SOL    HW310754   2.929   0.761   4.627  0.0124 -0.1149 -1.8998
 2670SOL    MW410755   2.885   0.833   4.650  0.2618 -0.2783 -0.8726
 2671SOL     OW10756   1.326   4.263   4.117 -0.2523 -0.3551  0.2004
 2671SOL    HW210757   1.279   4.210   4.182 -1.5794 -0.4784 -0.8252
 2671SOL    HW310758   1.325   4.352   4.152  0.6899 -0.7466  1.2346
 2671SOL    MW410759   1.320   4.267   4.130 -0.3030 -0.4230  0.2012
 2672SOL     OW10760   3.726   0.052   4.683  0.0326 -0.2822  0.2696
 2672SOL    HW210761   3.765   0.114   4.622 -1.0032 -0.2173 -0.3531
 2672SOL    HW310762   3.792  -0.016   4.694  0.7627  0.4014  0.1424
 2672SOL    MW410763   3.740   0.051   4.677 -0.0076 -0.1834  0.1707
 2673SOL     OW10764   1.834   2.881   4.119 -0.4176  0.0159  0.4094
 2673SOL    HW210765   1.856   2.810   4.179  0.8017  0.0739  0.0369
 2673SOL    HW310766   1.809   2.837   4.038  1.4530  0.0213 -0.1937
 2673SOL    MW410767   1.833   2.866   4.116 -0.0100  0.0241  0.2809
 2674SOL     OW10768   3.458   1.642   4.108 -0.0300 -0.3232 -0.3063
 2674SOL    HW210769   3.508   1.573   4.153 -0.0843 -0.0953  0.1069
 2674SOL    HW310770   3.455   1.613   4.017  1.0787 -0.2107 -0.3853
 2674SOL    MW410771   3.465   1.629   4.102  0.1094 -0.2784 -0.2623
 2675SOL     OW10772   1.300   2.117   4.329  0.2793  0.0434 -0.0610
 2675SOL    HW210773   1.258   2.169   4.260 -0.1146 -1.2889 -0.8345
 2675SOL    HW310774   1.241   2.124   4.404 -0.3196 -0.1808 -0.5099
 2675SOL    MW410775   1.287   2.125   4.330  0.1483 -0.1619 -0.2227
 2676SOL     OW10776   4.201   0.655   4.632  0.7044 -0.2478 -0.0208
 2676SOL    HW210777   4.282   0.702   4.652  0.0152  1.4297 -1.0064
 2676SOL    HW310778   4.134   0.724   4.628 -0.6789 -1.5500  0.2953
 2676SOL    MW410779   4.203   0.670   4.634  0.4306 -0.1982 -0.1097
 2677SOL     OW10780   2.873   2.843   4.404  0.2453  0.0803  0.1043
 2677SOL    HW210781   2.950   2.798   4.370 -0.4693  0.0717 -1.5326
 2677SOL    HW310782   2.823   2.774   4.448  1.5539  0.2419  1.9421
 2677SOL    MW410783   2.877   2.828   4.405  0.3240  0.1006  0.1302
 2678SOL     OW10784   3.005   4.638   4.578  0.1801 -0.2774  0.6994
 2678SOL    HW210785   3.098   4.659   4.564 -0.1545 -0.0254 -1.2521
 2678SOL    HW310786   2.960   4.721   4.566 -0.4456 -0.6881  0.2302
 2678SOL    MW410787   3.012   4.652   4.575  0.0534 -0.2980  0.3800
 2679SOL     OW10788   1.398   0.005   4.653  0.0726 -0.1651  0.7298
 2679SOL    HW210789   1.339  -0.058   4.613  0.1659 -0.1894  0.6292
 2679SOL    HW310790   1.467  -0.048   4.693 -0.2925 -0.1659  1.3711
 2679SOL    MW410791   1.400  -0.010   4.653  0.0367 -0.1684  0.8016
 2680SOL     OW10792   0.388   1.919   4.095  0.0768 -0.2649  0.3634
 2680SOL    HW210793   0.387   1.989   4.160  1.3290 -1.3609  1.5956
 2680SOL    HW310794   0.307   1.870   4.111  0.1591 -0.2627  0.7716
 2680SOL    MW410795   0.377   1.922   4.105  0.2529 -0.4092  0.5798
 2681SOL     OW10796   1.344   3.482   4.185  0.0928 -0.2628 -0.2012
 2681SOL    HW210797   1.426   3.441   4.215  0.1058  0.6973  1.1277
 2681SOL    HW310798   1.275   3.426   4.221  0.1326  0.1998  0.6109
 2681SOL    MW410799   1.346   3.469   4.194  0.0998 -0.0749  0.0820
 2682SOL     OW10800   2.715   2.799   4.650  0.2716 -0.0343  0.8928
 2682SOL    HW210801   2.794   2.746   4.663  0.6457 -0.0769 -1.3698
 2682SOL    HW310802   2.646   2.736   4.630  0.5652  0.2503 -1.1129
 2682SOL    MW410803   2.717   2.784   4.649  0.3595 -0.0024  0.3295
 2683SOL     OW10804   3.814   4.106   4.206 -0.1101 -0.3540  0.1622
 2683SOL    HW210805   3.815   4.109   4.301 -0.2229  0.6930  0.1316
 2683SOL    HW310806   3.902   4.132   4.179 -0.9645  2.4581 -0.0832
 2683SOL    MW410807   3.825   4.109   4.215 -0.2377  0.1550  0.1259
 2684SOL     OW10808   2.475   0.999   4.253 -0.5775 -0.3904 -0.4122
 2684SOL    HW210809   2.445   0.988   4.343 -0.7715  1.8147 -0.1722
 2684SOL    HW310810   2.402   1.044   4.209  0.3516  0.4634 -1.1114
 2684SOL    MW410811   2.461   1.003   4.259 -0.4807  0.0132 -0.4730
 2685SOL     OW10812   2.219   3.643   4.483 -0.1778 -0.1339 -0.0272
 2685SOL    HW210813   2.161   3.716   4.504  0.2551  0.2855 -0.2849
 2685SOL    HW310814   2.226   3.644   4.388 -0.5417 -0.8040 -0.0678
 2685SOL    MW410815   2.212   3.652   4.473 -0.1688 -0.1669 -0.0663
 2686SOL     OW10816   2.528   4.107   4.801  0.5908 -0.6623  0.2471
 2686SOL    HW210817   2.595   4.143   4.743  0.3645  0.3475  0.6145
 2686SOL    HW310818   2.543   4.012   4.798  0.2863 -0.6740 -1.8248
 2686SOL    MW410819   2.539   4.099   4.793  0.5209 -0.5307  0.0224
 2687SOL     OW10820   0.956   4.244   4.140 -0.3905  0.3348  0.4904
 2687SOL    HW210821   1.043   4.216   4.167 -0.2269  0.4968  0.1338
 2687SOL    HW310822   0.957   4.238   4.044 -0.4442  1.2729  0.4273
 2687SOL    MW410823   0.967   4.240   4.131 -0.3760  0.4802  0.4354
 2688SOL     OW10824   2.210   3.043   4.234  0.0536  0.0353  0.0389
 2688SOL    HW210825   2.140   3.089   4.188 -1.0893 -1.4908  0.2313
 2688SOL    HW310826   2.177   3.033   4.323  0.5903 -0.5426  0.1721
 2688SOL    MW410827   2.196   3.048   4.240 -0.0265 -0.2425  0.0815
 2689SOL     OW10828   1.879   2.153   4.194 -0.7310 -0.5685 -0.4260
 2689SOL    HW210829   1.873   2.065   4.155 -2.4086 -0.8883  0.5212
 2689SOL    HW310830   1.891   2.136   4.287  1.8552  0.2124 -0.5723
 2689SOL    MW410831   1.880   2.139   4.201 -0.6111 -0.5078 -0.3200
 2690SOL     OW10832   2.068   3.865   4.570 -0.2471 -0.1736 -0.2649
 2690SOL    HW210833   1.973   3.853   4.563 -0.4638  0.4729  1.2832
 2690SOL    HW310834   2.080   3.959   4.575  0.3393 -0.2981  1.0331
 2690SOL    MW410835   2.057   3.876   4.570 -0.1986 -0.1047  0.1101
 2691SOL     OW10836   1.536   3.743   4.565  0.0618  0.1691  0.3848
 2691SOL    HW210837   1.449   3.769   4.536  0.4506  1.2602  0.1839
 2691SOL    HW310838   1.534   3.647   4.564 -0.6534  0.1868 -1.0575
 2691SOL    MW410839   1.524   3.733   4.561  0.0188  0.3154  0.1678
 2692SOL     OW10840   4.331   2.759   4.910  0.2396 -0.6440 -0.0590
 2692SOL    HW210841   4.382   2.679   4.895 -0.8806 -1.3241 -0.3275
 2692SOL    HW310842   4.273   2.737   4.983  1.2892  0.5818  1.1771
 2692SOL    MW410843   4.330   2.745   4.918  0.2303 -0.5720  0.0687
 2693SOL     OW10844   3.756   1.146   4.634  0.0746  0.3112  0.1142
 2693SOL    HW210845   3.700   1.217   4.665 -0.3852  0.0281 -0.0606
 2693SOL    HW310846   3.835   1.190   4.604 -0.6655  0.8785 -1.0692
 2693SOL    MW410847   3.759   1.161   4.634 -0.0839  0.3487 -0.0648
 2694SOL     OW10848   3.550   2.702   4.867 -0.4441 -0.4136 -0.0400
 2694SOL    HW210849   3.497   2.676   4.792 -0.1106  0.3753 -0.5450
 2694SOL    HW310850   3.486   2.712   4.939 -0.7299 -1.4025 -0.1409
 2694SOL    MW410851   3.534   2.700   4.867 -0.4377 -0.4401 -0.1197
 2695SOL     OW10852   3.798   3.058   4.113  0.0301 -0.1492  0.3351
 2695SOL    HW210853   3.724   2.999   4.126  0.0334  0.0324  1.2610
 2695SOL    HW310854   3.871   3.015   4.159 -0.3813  1.3707  2.5247
 2695SOL    MW410855   3.798   3.045   4.121 -0.0238  0.0753  0.7463
 2696SOL     OW10856   2.749   4.521   4.554  0.5617 -0.2634  0.9577
 2696SOL    HW210857   2.724   4.439   4.597  0.9791 -1.4181 -0.9258
 2696SOL    HW310858   2.840   4.535   4.579  0.3930 -0.2013  1.5411
 2696SOL    MW410859   2.757   4.512   4.563  0.5946 -0.4067  0.7858
 2697SOL     OW10860   1.762   0.366   4.109 -0.0410  0.2085 -0.0195
 2697SOL    HW210861   1.773   0.446   4.161  1.1401 -1.9835  3.2809
 2697SOL    HW310862   1.836   0.311   4.134 -1.0212 -2.0695 -1.9542
 2697SOL    MW410863   1.773   0.370   4.119 -0.0144 -0.3812  0.1607
 2698SOL     OW10864   3.115   1.388   4.266 -0.2949  0.4246  0.1749
 2698SOL    HW210865   3.197   1.382   4.315  0.0799 -1.6933 -0.6523
 2698SOL    HW310866   3.046   1.370   4.331 -0.0695  1.5518  0.7310
 2698SOL    MW410867   3.116   1.385   4.281 -0.2158  0.2937  0.1388
 2699SOL     OW10868   4.137   1.063   4.580  0.3640  0.2572 -0.0794
 2699SOL    HW210869   4.226   1.096   4.596  0.8896 -0.4737 -1.3897
 2699SOL    HW310870   4.094   1.132   4.530  0.7659 -0.1056 -0.9416
 2699SOL    MW410871   4.143   1.076   4.575  0.4864  0.1128 -0.3662
 2700SOL     OW10872   2.303   1.927   4.113 -0.5377 -0.3533  0.4268
 2700SOL    HW210873   2.300   1.953   4.021  0.5511 -2.2076 -0.1651
 2700SOL    HW310874   2.359   1.849   4.114 -0.1622 -0.0881  2.7283
 2700SOL    MW410875   2.310   1.920   4.101 -0.3445 -0.5628  0.6523
 2701SOL     OW10876   4.281   2.163   4.570  0.5197 -0.2632 -0.4347
 2701SOL    HW210877   4.246   2.251   4.582  0.1623 -0.2687 -1.3601
 2701SOL    HW310878   4.310   2.136   4.657 -1.6043 -0.1839  0.3190
 2701SOL    MW410879   4.280   2.171   4.583  0.1922 -0.2534 -0.4582
 2702SOL     OW10880   0.699   3.381   4.254  0.1155 -0.0421 -0.5267
 2702SOL    HW210881   0.684   3.362   4.346  1.0104 -0.9369 -0.5630
 2702SOL    HW310882   0.628   3.441   4.230 -0.3845 -0.1694  0.6167
 2702SOL    MW410883   0.688   3.386   4.263  0.1675 -0.1767 -0.3805
 2703SOL     OW10884   2.001   0.225   4.193 -0.2585  0.6996  0.2874
 2703SOL    HW210885   2.079   0.280   4.182 -0.9290  1.3104 -1.5932
 2703SOL    HW310886   2.021   0.145   4.145 -0.6331  0.6759  0.1709
 2703SOL    MW410887   2.014   0.221   4.185 -0.3965  0.7771  0.0238
 2704SOL     OW10888   3.821   3.834   3.878  0.5571 -0.4821 -0.8806
 2704SOL    HW210889   3.742   3.878   3.844  0.2881 -0.4744 -0.2539
 2704SOL    HW310890   3.820   3.748   3.835 -0.2522 -0.8016 -0.2391
 2704SOL    MW410891   3.810   3.829   3.868  0.4146 -0.5233 -0.7131
 2705SOL     OW10892   4.260   3.530   4.517  0.6188 -0.6299  0.1182
 2705SOL    HW210893   4.290   3.621   4.529  0.4458 -0.5035 -0.3993
 2705SOL    HW310894   4.165   3.537   4.517  0.6128 -0.7266 -0.5911
 2705SOL    MW410895   4.252   3.543   4.519  0.5951 -0.6263 -0.0439
 2706SOL     OW10896   1.046   1.728   4.264  0.1130  0.5329  0.0283
 2706SOL    HW210897   0.977   1.774   4.216  0.0210 -1.1070 -1.4677
 2706SOL    HW310898   1.048   1.641   4.225  0.2604 -0.7748  2.8094
 2706SOL    MW410899   1.037   1.723   4.253  0.1203  0.1440  0.1979
 2707SOL     OW10900   4.027   3.411   4.138  0.3577  0.0452  0.0353
 2707SOL    HW210901   4.015   3.503   4.162  2.4729 -0.2731  2.5629
 2707SOL    HW310902   3.946   3.368   4.164  0.4071  0.7311  1.3705
 2707SOL    MW410903   4.015   3.418   4.144  0.6437  0.0937  0.5450
 2708SOL     OW10904   2.115   2.563   4.118 -0.0459  0.1747  0.4807
 2708SOL    HW210905   2.157   2.479   4.139 -0.1580 -0.5654 -2.1391
 2708SOL    HW310906   2.172   2.629   4.157  1.2033 -1.0181  0.7079
 2708SOL    MW410907   2.128   2.560   4.126  0.1040 -0.0803  0.1650
 2709SOL     OW10908   3.861   3.553   3.715  0.2013 -0.2206  0.1630
 2709SOL    HW210909   3.785   3.519   3.764  0.1291 -1.8168 -1.0085
 2709SOL    HW310910   3.936   3.532   3.771 -0.1971  1.3206  1.3081
 2709SOL    MW410911   3.861   3.546   3.729  0.1395 -0.2279  0.1593
 2710SOL     OW10912   3.719   0.895   4.538  0.0908  0.1150  0.3731
 2710SOL    HW210913   3.803   0.855   4.558 -0.2318 -0.0188  1.5247
 2710SOL    HW310914   3.718   0.976   4.590 -0.7504 -0.2113  0.8856
 2710SOL    MW410915   3.730   0.900   4.548 -0.0629  0.0542  0.5918
 2711SOL     OW10916   3.169   2.428   3.820 -0.3506 -0.3357  0.3108
 2711SOL    HW210917   3.148   2.407   3.729 -1.6742 -1.2124  0.8169
 2711SOL    HW310918   3.154   2.522   3.827  1.6825  0.1119 -0.8914
 2711SOL    MW410919   3.165   2.438   3.809 -0.2570 -0.3924  0.2189
 2712SOL     OW10920   3.784   0.734   4.174 -0.3890  0.5241 -0.1639
 2712SOL    HW210921   3.708   0.719   4.230  1.0751  0.4589  1.8698
 2712SOL    HW310922   3.751   0.722   4.085 -2.1718 -2.0143  0.7890
 2712SOL    MW410923   3.769   0.731   4.169 -0.4311  0.1806  0.2294
 2713SOL     OW10924   1.084   1.517   4.111  0.1892  0.3710  0.0001
 2713SOL    HW210925   1.099   1.510   4.017 -0.7570 -0.8213 -0.0764
 2713SOL    HW310926   1.002   1.470   4.126  0.3770  0.4699  1.4364
 2713SOL    MW410927   1.075   1.510   4.101  0.0892  0.2267  0.1793
 2714SOL     OW10928   4.086   4.531   4.243 -0.0201  0.2690 -0.5004
 2714SOL    HW210929   4.148   4.556   4.175 -0.8840  0.4156 -1.2483
 2714SOL    HW310930   4.001   4.562   4.210 -0.6505 -0.9139 -0.0009
 2714SOL    MW410931   4.083   4.539   4.230 -0.2165  0.1321 -0.5326
 2715SOL     OW10932   4.301   4.108   4.231 -0.4871  0.3962 -0.7428
 2715SOL    HW210933   4.290   4.019   4.195 -0.7312  0.0228  0.2417
 2715SOL    HW310934   4.222   4.155   4.202 -0.7740  0.0448 -0.5325
 2715SOL    MW410935   4.289   4.102   4.222 -0.5574  0.3004 -0.5851
 2716SOL     OW10936   1.136   3.332   4.268  0.6583 -0.6339 -0.1266
 2716SOL    HW210937   1.162   3.248   4.230  1.5470 -0.0017 -0.9511
 2716SOL    HW310938   1.065   3.363   4.212  0.8424 -0.4845 -0.2792
 2716SOL    MW410939   1.130   3.325   4.255  0.7999 -0.5310 -0.2561
 2717SOL     OW10940   1.765   2.465   3.819  0.0078  0.1584 -0.2311
 2717SOL    HW210941   1.777   2.479   3.725  0.5783  0.2233 -0.1459
 2717SOL    HW310942   1.851   2.438   3.851 -0.4050 -0.7789  0.1042
 2717SOL    MW410943   1.778   2.463   3.811  0.0286  0.0436 -0.1757
 2718SOL     OW10944   2.659   2.467   3.761  0.5233 -0.2249 -0.5833
 2718SOL    HW210945   2.746   2.435   3.784  2.0723  3.2175 -1.3201
 2718SOL    HW310946   2.656   2.557   3.795 -2.6369 -0.1540 -0.8608
 2718SOL    MW410947   2.670   2.475   3.768  0.3107  0.2384 -0.7172
 2719SOL     OW10948   4.476   0.398   3.865 -0.0305 -0.4570 -0.3889
 2719SOL    HW210949   4.556   0.448   3.848 -0.0433 -0.4877 -0.5416
 2719SOL    HW310950   4.408   0.444   3.817  0.0649 -0.9546 -1.0186
 2719SOL    MW410951   4.477   0.410   3.857 -0.0196 -0.5267 -0.4921
 2720SOL     OW10952   4.222   1.006   4.305 -0.3555 -0.1226 -0.2650
 2720SOL    HW210953   4.215   1.009   4.400  0.9521  1.2262 -0.1947
 2720SOL    HW310954   4.143   1.048   4.272 -1.0584 -1.0576  0.2041
 2720SOL    MW410955   4.211   1.012   4.313 -0.2756 -0.0681 -0.1941
 2721SOL     OW10956   4.245   0.209   4.454 -0.6906  0.1212 -0.1393
 2721SOL    HW210957   4.253   0.206   4.358 -0.2976 -1.2707 -0.0677
 2721SOL    HW310958   4.175   0.273   4.469 -0.8075  0.3072 -1.3634
 2721SOL    MW410959   4.237   0.217   4.443 -0.6547 -0.0379 -0.2913
 2722SOL     OW10960   2.795   3.439   4.049  0.1061  0.0549 -0.6212
 2722SOL    HW210961   2.840   3.383   4.112  0.6900  0.7031 -0.4610
 2722SOL    HW310962   2.796   3.526   4.089  1.2570  0.6485 -1.9203
 2722SOL    MW410963   2.801   3.443   4.063  0.3350  0.2186 -0.7710
 2723SOL     OW10964   4.053   0.313   3.825  0.5661  0.0889 -0.0692
 2723SOL    HW210965   4.038   0.309   3.920 -1.6450  0.0663 -0.3974
 2723SOL    HW310966   4.038   0.223   3.795 -1.3789  0.6148 -0.7745
 2723SOL    MW410967   4.049   0.300   3.834  0.0176  0.1553 -0.2058
 2724SOL     OW10968   2.917   2.078   3.742  0.0301 -0.2866 -0.2213
 2724SOL    HW210969   2.856   2.036   3.803 -0.0806 -0.6651 -0.5930
 2724SOL    HW310970   2.939   2.161   3.785 -0.8782 -0.0613 -0.1606
 2724SOL    MW410971   2.912   2.083   3.756 -0.1044 -0.3066 -0.2625
 2725SOL     OW10972   0.167   3.896   4.627  0.3737 -0.6121  0.0399
 2725SOL    HW210973   0.078   3.870   4.606  0.2903 -0.0535 -0.3348
 2725SOL    HW310974   0.166   3.992   4.619  1.2399 -0.6669 -0.9533
 2725SOL    MW410975   0.155   3.905   4.623  0.4770 -0.5457 -0.1407
 2726SOL     OW10976   3.644   0.471   4.502 -0.2085 -0.1498  0.2697
 2726SOL    HW210977   3.635   0.560   4.467 -1.5307 -0.0731  0.7907
 2726SOL    HW310978   3.554   0.440   4.513  0.2393 -1.9795 -0.9457
 2726SOL    MW410979   3.631   0.479   4.499 -0.3240 -0.3811  0.1779
 2727SOL     OW10980   3.400   2.576   4.658 -0.3697  0.3583 -0.1680
 2727SOL    HW210981   3.311   2.592   4.626 -0.1891  0.8475 -0.4322
 2727SOL    HW310982   3.403   2.482   4.675 -1.2701  0.5176  0.8619
 2727SOL    MW410983   3.389   2.566   4.656 -0.4647  0.4437 -0.0672
 2728SOL     OW10984   2.589   3.022   4.456  0.1228  0.7690  0.1508
 2728SOL    HW210985   2.567   3.093   4.515  0.5298  0.5375  0.5835
 2728SOL    HW310986   2.666   2.980   4.496  0.3401  0.5531 -0.4841
 2728SOL    MW410987   2.597   3.026   4.469  0.2050  0.7098  0.1245
 2729SOL     OW10988   1.579   4.593   4.159 -0.0885 -0.4579  0.2526
 2729SOL    HW210989   1.659   4.568   4.204  0.4475  2.0979  0.8059
 2729SOL    HW310990   1.564   4.684   4.185 -2.9219 -0.7313 -0.1913
 2729SOL    MW410991   1.587   4.602   4.169 -0.3916 -0.1569  0.2670
 2730SOL     OW10992   2.259   1.141   4.134 -0.0063 -0.1036  0.0806
 2730SOL    HW210993   2.238   1.227   4.171 -0.3930 -0.4918  0.7978
 2730SOL    HW310994   2.260   1.154   4.040  1.1506  0.9513  0.2354
 2730SOL    MW410995   2.256   1.154   4.127  0.0954 -0.0157  0.1960
 2731SOL     OW10996   1.118   3.383   4.557 -0.3727  0.3907  0.2787
 2731SOL    HW210997   1.124   3.356   4.466 -0.6606  1.6116 -0.1002
 2731SOL    HW310998   1.108   3.478   4.555  0.2849  0.5118  1.6020
 2731SOL    MW410999   1.117   3.392   4.545 -0.3240  0.5674  0.4029
 2732SOL     OW11000   2.533   2.029   4.397  0.4751  0.5355  0.8110
 2732SOL    HW211001   2.457   2.070   4.358 -0.5730 -1.2820  0.8736
 2732SOL    HW311002   2.573   2.097   4.451 -0.1559  1.9838 -0.5230
 2732SOL    MW411003   2.529   2.043   4.399  0.2534  0.4866  0.6433
 2733SOL     OW11004   0.014   2.848   4.494  0.3606 -0.0257 -0.0392
 2733SOL    HW211005  -0.004   2.888   4.409  1.7094 -0.3100 -0.4813
 2733SOL    HW311006  -0.061   2.870   4.548  0.1703  1.4106 -0.8685
 2733SOL    MW411007   0.002   2.856   4.490  0.5135  0.1264 -0.2069
 2734SOL     OW11008   3.137   1.943   3.858  0.7200  0.0183  0.4244
 2734SOL    HW211009   3.122   1.963   3.950  0.2075  1.0157  0.1272
 2734SOL    HW311010   3.057   1.971   3.813  1.3089  0.3547 -0.4336
 2734SOL    MW411011   3.125   1.949   3.864  0.7300  0.1943  0.2720
 2735SOL     OW11012   1.155   4.661   4.109 -0.0571  0.7464 -0.3930
 2735SOL    HW211013   1.154   4.654   4.013 -0.6565  0.6790 -0.3846
 2735SOL    HW311014   1.069   4.630   4.136 -0.4177  2.0923  0.0713
 2735SOL    MW411015   1.144   4.656   4.100 -0.1838  0.9146 -0.3304
 2736SOL     OW11016   2.472   0.521   3.825 -0.1080  0.0153 -0.1539
 2736SOL    HW211017   2.393   0.483   3.862  0.0578 -0.6792 -0.5081
 2736SOL    HW311018   2.458   0.519   3.731  0.6483 -0.8295 -0.2579
 2736SOL    MW411019   2.460   0.516   3.818  0.0136 -0.1878 -0.2141
 2737SOL     OW11020   1.826   1.176   3.854  0.0122  0.1839 -0.4647
 2737SOL    HW211021   1.825   1.083   3.831 -0.5208  0.1592 -0.3608
 2737SOL    HW311022   1.796   1.178   3.945  0.0838  0.4512 -0.4484
 2737SOL    MW411023   1.822   1.164   3.863 -0.0486  0.2160 -0.4489
 2738SOL     OW11024   0.000   2.234   4.182 -0.3343 -0.0088 -0.0965
 2738SOL    HW211025   0.001   2.192   4.268 -1.8551 -0.8073 -0.4613
 2738SOL    HW311026  -0.082   2.283   4.179 -0.6707 -0.6215 -1.3862
 2738SOL    MW411027  -0.010   2.235   4.193 -0.5794 -0.1950 -0.3142
 2739SOL     OW11028   0.186   0.242   4.184 -0.1191  0.0875  0.4831
 2739SOL    HW211029   0.194   0.236   4.279 -0.1137  1.2671  0.5691
 2739SOL    HW311030   0.260   0.296   4.157  0.1557 -0.6422 -0.2492
 2739SOL    MW411031   0.197   0.249   4.193 -0.0821  0.1469  0.3977
 2740SOL     OW11032   0.938   4.256   4.514  0.1121 -0.2634  0.2741
 2740SOL    HW211033   0.850   4.277   4.485  0.1786  1.3775  1.1996
 2740SOL    HW311034   0.927   4.217   4.601  0.2401 -1.0532 -0.0522
 2740SOL    MW411035   0.925   4.253   4.522  0.1377 -0.1507  0.3533
 2741SOL     OW11036   3.785   3.286   4.531  0.4574 -0.0001 -0.2319
 2741SOL    HW211037   3.755   3.376   4.546  0.7178  0.4252 -2.1864
 2741SOL    HW311038   3.714   3.232   4.565  0.6152  0.9115  1.6365
 2741SOL    MW411039   3.772   3.291   4.537  0.5124  0.1762 -0.2427
 2742SOL     OW11040   1.994   3.136   4.073  0.4628  0.1008 -0.5303
 2742SOL    HW211041   1.939   3.059   4.088  0.0353  0.5326  0.1255
 2742SOL    HW311042   2.000   3.143   3.978 -1.1450  0.4309 -0.6116
 2742SOL    MW411043   1.988   3.126   4.062  0.1943  0.2012 -0.4544
 2743SOL     OW11044   3.347   4.057   4.254  0.0603 -0.1743 -0.3298
 2743SOL    HW211045   3.424   4.110   4.232  0.0044  0.0067 -0.0959
 2743SOL    HW311046   3.369   4.016   4.338  0.0149 -0.3451 -0.4027
 2743SOL    MW411047   3.360   4.059   4.262  0.0470 -0.1731 -0.3085
 2744SOL     OW11048   0.953   4.551   4.506  0.0643  0.3940 -0.1281
 2744SOL    HW211049   0.942   4.566   4.412 -1.7886  0.0461 -0.0009
 2744SOL    HW311050   0.945   4.456   4.516  1.3564  0.3214  0.2550
 2744SOL    MW411051   0.950   4.540   4.495 -0.0097  0.3390 -0.0610
 2745SOL     OW11052   4.323   2.326   3.858  0.4836 -0.1542 -0.1404
 2745SOL    HW211053   4.327   2.330   3.953 -1.0222  0.0542 -0.0760
 2745SOL    HW311054   4.397   2.379   3.829 -0.5631  1.9794  0.9208
 2745SOL    MW411055   4.333   2.334   3.866  0.1473  0.1545  0.0079
 2746SOL     OW11056   1.377   2.944   4.286  0.7841 -0.1250 -0.5600
 2746SOL    HW211057   1.309   2.996   4.242  0.4817  0.2168  0.2948
 2746SOL    HW311058   1.353   2.948   4.379  1.1815 -1.1740 -0.4075
 2746SOL    MW411059   1.365   2.951   4.293  0.7966 -0.2179 -0.4272
 2747SOL     OW11060   2.967   1.298   4.480 -0.3061 -0.3811  0.5317
 2747SOL    HW211061   2.875   1.314   4.501 -0.2796 -0.7817  0.9696
 2747SOL    HW311062   3.015   1.363   4.531 -0.2364 -1.4067  1.8243
 2747SOL    MW411063   2.961   1.309   4.490 -0.2935 -0.5692  0.7596
 2748SOL     OW11064   1.557   1.054   4.257  0.0521  0.3863  0.0369
 2748SOL    HW211065   1.479   1.088   4.213  0.2088 -0.3663 -0.8298
 2748SOL    HW311066   1.551   1.088   4.347  0.0003  2.3805 -0.6968
 2748SOL    MW411067   1.546   1.063   4.263  0.0660  0.5499 -0.1740
 2749SOL     OW11068   3.030   1.039   4.532 -0.3011  0.1021 -0.2923
 2749SOL    HW211069   2.985   1.012   4.451 -1.2309  1.1267 -0.1363
 2749SOL    HW311070   3.021   1.135   4.533 -1.1284  0.0273  1.4976
 2749SOL    MW411071   3.023   1.048   4.521 -0.5329  0.2273 -0.0362
 2750SOL     OW11072   3.292   2.907   4.097 -0.7258  0.1003  0.5004
 2750SOL    HW211073   3.274   2.863   4.180 -0.5220  1.5684  1.3378
 2750SOL    HW311074   3.256   2.995   4.107  0.3585  0.6851 -0.5083
 2750SOL    MW411075   3.285   2.913   4.109 -0.5560  0.3715  0.4778
 2751SOL     OW11076   3.839   4.648   4.162 -0.1651  0.0054  0.0723
 2751SOL    HW211077   3.800   4.734   4.181  0.2808  0.0284  0.9189
 2751SOL    HW311078   3.837   4.642   4.066 -3.0140 -0.3633  0.1202
 2751SOL    MW411079   3.834   4.659   4.152 -0.4823 -0.0401  0.1907
 2752SOL     OW11080   3.107   1.975   4.118  0.7025  0.7942  0.0455
 2752SOL    HW211081   3.173   1.923   4.162 -0.2908 -0.6858 -0.1817
 2752SOL    HW311082   3.145   2.063   4.111  1.8390  0.4279  1.6370
 2752SOL    MW411083   3.121   1.980   4.123  0.7215  0.5507  0.2255
 2753SOL     OW11084   4.201   2.431   4.644  0.2682 -0.0936 -0.0749
 2753SOL    HW211085   4.245   2.508   4.608 -0.3743  0.8938  1.1997
 2753SOL    HW311086   4.108   2.451   4.640  0.1109 -0.5895  0.7050
 2753SOL    MW411087   4.194   2.443   4.639  0.1631 -0.0288  0.1965
 2754SOL     OW11088   2.684   0.333   4.155  0.7142 -0.2221  0.4211
 2754SOL    HW211089   2.701   0.418   4.194  1.0514  0.1110 -0.4317
 2754SOL    HW311090   2.680   0.350   4.061 -3.5118 -0.4317  0.4662
 2754SOL    MW411091   2.686   0.346   4.147  0.2012 -0.2058  0.3152
 2755SOL     OW11092   2.666   1.833   4.234 -0.6122 -0.2480 -0.2712
 2755SOL    HW211093   2.626   1.899   4.291  1.1548 -0.5637  1.3619
 2755SOL    HW311094   2.738   1.879   4.191 -0.5146 -0.6166 -0.5067
 2755SOL    MW411095   2.670   1.848   4.236 -0.3662 -0.3383 -0.0868
 2756SOL     OW11096   3.835   0.278   4.538  0.0480  0.5612 -0.1203
 2756SOL    HW211097   3.922   0.316   4.525  0.3109  0.6204  1.6902
 2756SOL    HW311098   3.776   0.353   4.545  0.0440  0.5526 -0.0599
 2756SOL    MW411099   3.839   0.293   4.537  0.0820  0.5679  0.1259
 2757SOL     OW11100   0.951   2.187   4.541 -0.0462  0.0132 -0.1793
 2757SOL    HW211101   0.893   2.114   4.560  0.5452 -0.9904 -2.1510
 2757SOL    HW311102   0.894   2.264   4.547 -0.7984 -0.6247  1.3083
 2757SOL    MW411103   0.935   2.188   4.545 -0.0674 -0.2034 -0.2427
 2758SOL     OW11104   1.983   4.537   4.510  0.3979  0.1696 -0.0981
 2758SOL    HW211105   2.077   4.522   4.524  0.4550  1.1838  0.7206
 2758SOL    HW311106   1.941   4.465   4.557  0.7173  1.2783  1.9928
 2758SOL    MW411107   1.990   4.526   4.518  0.4475  0.4501  0.2861
 2759SOL     OW11108   3.810   0.236   4.267 -0.3164 -0.1536  0.1490
 2759SOL    HW211109   3.736   0.293   4.245 -1.0107 -1.3347 -0.6411
 2759SOL    HW311110   3.819   0.244   4.362 -0.2592  1.4438  0.0215
 2759SOL    MW411111   3.801   0.245   4.276 -0.4005 -0.0987  0.0281
 2760SOL     OW11112   1.743   2.214   4.653  0.0652  0.3416 -0.6090
 2760SOL    HW211113   1.702   2.229   4.568  1.2799  0.7603 -1.1323
 2760SOL    HW311114   1.749   2.301   4.692  0.5425  0.2871 -0.5677
 2760SOL    MW411115   1.738   2.227   4.647  0.2882  0.3898 -0.6723
 2761SOL     OW11116   3.152   3.226   3.730 -0.2125  0.2406 -0.2003
 2761SOL    HW211117   3.145   3.314   3.767  0.6495  0.2755 -0.1094
 2761SOL    HW311118   3.068   3.185   3.750 -0.9812  1.3688 -1.0881
 2761SOL    MW411119   3.140   3.233   3.738 -0.2003  0.3941 -0.3054
 2762SOL     OW11120   0.591   3.579   4.641  0.7107 -0.1413  0.1677
 2762SOL    HW211121   0.502   3.609   4.623  1.1716  0.2290 -1.5921
 2762SOL    HW311122   0.644   3.659   4.638  1.2140 -0.4626  0.4671
 2762SOL    MW411123   0.587   3.594   4.638  0.8379 -0.1349 -0.0253
 2763SOL     OW11124   1.992   3.359   4.236  0.3169  0.4077  0.0232
 2763SOL    HW211125   1.972   3.278   4.190  0.7710  0.7767 -0.8351
 2763SOL    HW311126   1.925   3.421   4.207  1.3470  0.9999 -1.1157
 2763SOL    MW411127   1.981   3.357   4.226  0.5128  0.5345 -0.2403
 2764SOL     OW11128   0.836   0.736   4.591 -0.0334 -0.0304 -0.2349
 2764SOL    HW211129   0.879   0.800   4.647  1.4033 -0.6957 -0.5431
 2764SOL    HW311130   0.762   0.784   4.552  2.0327  2.0062 -1.8308
 2764SOL    MW411131   0.832   0.751   4.593  0.4288  0.1506 -0.4864
 2765SOL     OW11132   4.202   4.613   4.501 -0.0444  0.1454 -0.0054
 2765SOL    HW211133   4.160   4.583   4.420 -0.6559  0.2839  0.2541
 2765SOL    HW311134   4.226   4.704   4.484  0.7278 -0.1322 -0.3795
 2765SOL    MW411135   4.200   4.621   4.488 -0.0238  0.1268 -0.0205
 2766SOL     OW11136   0.394   1.142   4.149  0.6567  0.3775 -0.5952
 2766SOL    HW211137   0.477   1.097   4.157  1.4264  1.5960 -1.5392
 2766SOL    HW311138   0.387   1.163   4.056  0.7080  2.8914 -0.0731
 2766SOL    MW411139   0.404   1.139   4.138  0.7650  0.8699 -0.6514
 2767SOL     OW11140   3.998   1.145   4.212 -0.1478 -0.0679  0.0427
 2767SOL    HW211141   3.915   1.106   4.237  0.1850 -0.9532 -0.2268
 2767SOL    HW311142   4.005   1.224   4.266 -0.7335 -0.4780  0.7138
 2767SOL    MW411143   3.988   1.150   4.222 -0.1812 -0.2388  0.0958
 2768SOL     OW11144   0.064   1.855   4.559 -0.0532 -0.2091  0.6383
 2768SOL    HW211145   0.151   1.825   4.530 -0.2521 -0.1402 -0.0450
 2768SOL    HW311146   0.045   1.930   4.503 -0.4725 -0.1062  0.9190
 2768SOL    MW411147   0.073   1.861   4.547 -0.1348 -0.1864  0.5856
 2769SOL     OW11148   1.163   4.081   4.293  0.1559  0.1211 -0.0190
 2769SOL    HW211149   1.139   4.003   4.242  0.6194 -0.1071  0.1100
 2769SOL    HW311150   1.133   4.061   4.382 -0.8809  0.6227 -0.2392
 2769SOL    MW411151   1.156   4.068   4.298  0.0803  0.1569 -0.0315
 2770SOL     OW11152   3.189   3.176   4.109 -0.0975  0.2170  0.0762
 2770SOL    HW211153   3.218   3.165   4.199  1.0147 -0.7997 -0.3939
 2770SOL    HW311154   3.151   3.264   4.106 -0.4041  0.1390  1.5890
 2770SOL    MW411155   3.188   3.186   4.120  0.0086  0.0727  0.2141
 2771SOL     OW11156   4.268   3.862   3.879  0.9365  0.2779  0.2485
 2771SOL    HW211157   4.256   3.782   3.828  0.2097 -0.3650  1.4110
 2771SOL    HW311158   4.194   3.918   3.856  0.8157  0.1426  0.3120
 2771SOL    MW411159   4.257   3.859   3.870  0.8245  0.1752  0.4101
 2772SOL     OW11160   2.681   0.685   4.525 -0.2409  0.9165 -0.2268
 2772SOL    HW211161   2.595   0.712   4.555  0.3630  1.5205  0.9966
 2772SOL    HW311162   2.742   0.746   4.567  0.7601  0.6806 -1.2975
 2772SOL    MW411163   2.678   0.696   4.535 -0.0291  0.9651 -0.2069
 2773SOL     OW11164   1.046   1.801   4.543  0.2585  0.1571  0.1356
 2773SOL    HW211165   1.031   1.770   4.454  0.8168  0.5062 -0.0885
 2773SOL    HW311166   1.094   1.730   4.585  0.6089  0.2771 -0.0571
 2773SOL    MW411167   1.051   1.788   4.537  0.3785  0.2191  0.0806
 2774SOL     OW11168   1.324   0.618   4.266  0.0573  0.2443 -0.1292
 2774SOL    HW211169   1.402   0.669   4.246 -0.6949  2.0007  1.2419
 2774SOL    HW311170   1.312   0.628   4.361 -1.8801  0.1116 -0.3338
 2774SOL    MW411171   1.332   0.626   4.276 -0.2977  0.4585  0.0248
 2775SOL     OW11172   2.647   3.797   4.477  0.3719  0.8188  0.1993
 2775SOL    HW211173   2.717   3.795   4.542 -0.1963 -0.9344  0.7741
 2775SOL    HW311174   2.568   3.774   4.526 -0.2299  0.5081 -0.8988
 2775SOL    MW411175   2.646   3.794   4.492  0.2177  0.5465  0.1297
 2776SOL     OW11176   1.555   3.463   4.549 -0.0645  0.0867 -0.3851
 2776SOL    HW211177   1.567   3.416   4.466 -0.9283  0.2023 -0.5848
 2776SOL    HW311178   1.639   3.457   4.592  0.1069 -0.8514 -0.8291
 2776SOL    MW411179   1.567   3.456   4.543 -0.1559 -0.0217 -0.4702
 2777SOL     OW11180   1.545   0.781   4.161  0.1364  0.0906 -0.0260
 2777SOL    HW211181   1.524   0.870   4.190 -2.3187 -0.2768 -0.5076
 2777SOL    HW311182   1.519   0.779   4.069  0.4665 -1.0156 -0.0971
 2777SOL    MW411183   1.539   0.792   4.153 -0.1440 -0.1038 -0.0987
 2778SOL     OW11184   1.810   4.228   4.169  0.5797  0.3480 -0.1387
 2778SOL    HW211185   1.821   4.226   4.074 -0.9362 -2.2152 -0.2996
 2778SOL    HW311186   1.885   4.181   4.204  0.8249  0.7701 -0.0940
 2778SOL    MW411187   1.821   4.222   4.161  0.4122  0.0658 -0.1545
 2779SOL     OW11188   0.285   4.105   4.248  0.1610  0.1577 -0.3114
 2779SOL    HW211189   0.205   4.150   4.223  0.4479  0.6097 -0.4274
 2779SOL    HW311190   0.355   4.160   4.212  0.5781  0.7438  1.3565
 2779SOL    MW411191   0.284   4.118   4.240  0.2539  0.2952 -0.1073
 2780SOL     OW11192   2.452   0.744   4.176 -0.2108 -0.2450  0.1120
 2780SOL    HW211193   2.457   0.836   4.199 -0.2344 -0.0180 -0.7672
 2780SOL    HW311194   2.456   0.743   4.080 -1.3154 -1.0707  0.0619
 2780SOL    MW411195   2.453   0.756   4.167 -0.3598 -0.3240 -0.0105
 2781SOL     OW11196   1.318   0.387   4.094  0.0602  0.2795  0.0734
 2781SOL    HW211197   1.305   0.453   4.162 -0.1453 -0.1103  0.4087
 2781SOL    HW311198   1.378   0.323   4.133 -0.4073 -0.1765  0.0459
 2781SOL    MW411199   1.324   0.387   4.108 -0.0287  0.1679  0.1140
 2782SOL     OW11200   1.792   3.876   4.516 -0.3593  0.6140 -0.1745
 2782SOL    HW211201   1.772   3.959   4.558  1.0417  0.0717  1.6368
 2782SOL    HW311202   1.717   3.820   4.535 -0.7002  1.0444 -0.2546
 2782SOL    MW411203   1.779   3.879   4.524 -0.2193  0.5991  0.0539
 2783SOL     OW11204   2.229   4.259   4.103 -0.1757  0.3457 -0.0048
 2783SOL    HW211205   2.303   4.209   4.138  0.1924  0.1888 -1.0173
 2783SOL    HW311206   2.231   4.342   4.153  1.1330  0.6469 -0.5493
 2783SOL    MW411207   2.239   4.264   4.114  0.0453  0.3643 -0.2108
 2784SOL     OW11208   2.239   0.382   4.207  0.0661 -0.4911 -0.3364
 2784SOL    HW211209   2.241   0.402   4.113 -2.1293  2.0457  0.0847
 2784SOL    HW311210   2.230   0.468   4.249  0.8862 -1.6057  2.1916
 2784SOL    MW411211   2.238   0.396   4.200 -0.1152 -0.3035  0.0525
 2785SOL     OW11212   2.931   3.097   3.810 -0.2100 -0.1563  0.4743
 2785SOL    HW211213   2.932   3.004   3.790  1.5399 -0.2051  0.7104
 2785SOL    HW311214   2.922   3.101   3.906 -0.7672 -0.0708  0.4199
 2785SOL    MW411215   2.930   3.085   3.820 -0.0527 -0.1514  0.4985
 2786SOL     OW11216   0.661   3.890   3.917 -0.2112 -0.0289 -0.1965
 2786SOL    HW211217   0.664   3.861   4.008  0.5745 -1.7107 -0.7517
 2786SOL    HW311218   0.738   3.947   3.908 -1.2309  1.5459  0.6241
 2786SOL    MW411219   0.671   3.894   3.928 -0.2421 -0.0434 -0.1614
 2787SOL     OW11220   1.500   0.173   4.456 -0.3155 -0.7746 -0.1959
 2787SOL    HW211221   1.485   0.087   4.495 -1.2335 -0.1855  0.7967
 2787SOL    HW311222   1.438   0.230   4.501  0.5487  0.4790 -0.5844
 2787SOL    MW411223   1.490   0.169   4.467 -0.3226 -0.5315 -0.1163
 2788SOL     OW11224   1.272   0.665   4.528  0.3447 -0.0572 -0.0168
 2788SOL    HW211225   1.201   0.603   4.543  0.7001 -0.5347 -0.3024
 2788SOL    HW311226   1.228   0.750   4.524  0.0225 -0.0943  1.8999
 2788SOL    MW411227   1.256   0.668   4.530  0.3492 -0.1251  0.1984
 2789SOL     OW11228   0.010   3.737   4.300  0.1151 -0.0696  0.1231
 2789SOL    HW211229   0.009   3.648   4.266  0.9449 -0.3224  0.7315
 2789SOL    HW311230   0.082   3.780   4.254  0.7007 -0.1696  0.9367
 2789SOL    MW411231   0.019   3.731   4.290  0.3014 -0.1163  0.3109
 2790SOL     OW11232   0.241   3.402   4.553 -0.2459 -0.1761 -0.6539
 2790SOL    HW211233   0.146   3.401   4.567 -0.2700 -0.4009 -0.8338
 2790SOL    HW311234   0.264   3.495   4.554 -0.5782 -0.0876 -1.3717
 2790SOL    MW411235   0.232   3.414   4.555 -0.2930 -0.1941 -0.7725
 2791SOL     OW11236   0.644   0.895   4.450  0.6545  0.1054 -0.1728
 2791SOL    HW211237   0.553   0.893   4.481  0.9839 -1.5323  0.7323
 2791SOL    HW311238   0.637   0.918   4.357 -0.7354 -0.8591 -0.3135
 2791SOL    MW411239   0.631   0.898   4.442  0.5146 -0.2379 -0.0720
 2792SOL     OW11240   3.786   4.080   4.478 -0.3868  0.0785 -0.2694
 2792SOL    HW211241   3.774   4.172   4.504  0.8405 -0.1606  1.2591
 2792SOL    HW311242   3.702   4.039   4.495 -0.4733  0.5896  0.5827
 2792SOL    MW411243   3.774   4.087   4.484 -0.2365  0.1144  0.0448
 2793SOL     OW11244   3.312   0.717   4.167 -0.2370  0.4391  0.3107
 2793SOL    HW211245   3.237   0.691   4.220 -0.2272 -1.0341 -0.3726
 2793SOL    HW311246   3.328   0.808   4.191 -0.3203 -0.1520  2.7247
 2793SOL    MW411247   3.305   0.726   4.177 -0.2465  0.1668  0.5393
 2794SOL     OW11248   2.100   1.869   4.507 -0.1051  0.3090 -0.1603
 2794SOL    HW211249   2.187   1.869   4.548 -0.8383  0.0652  1.4609
 2794SOL    HW311250   2.071   1.960   4.512  0.2786  0.4935 -1.2087
 2794SOL    MW411251   2.107   1.881   4.513 -0.1514  0.3012 -0.0849
 2795SOL     OW11252   2.191   1.368   4.274 -0.1564 -0.9134 -0.0818
 2795SOL    HW211253   2.113   1.403   4.230 -0.3644 -0.1707  0.8724
 2795SOL    HW311254   2.167   1.364   4.366  1.3000  0.3053  0.3716
 2795SOL    MW411255   2.177   1.372   4.280  0.0083 -0.6547  0.1035
 2796SOL     OW11256   4.433   1.391   4.253 -0.2077 -0.2592 -0.3241
 2796SOL    HW211257   4.508   1.435   4.212  0.1520 -0.3763  0.1973
 2796SOL    HW311258   4.426   1.308   4.207 -0.7551  0.2447 -1.1705
 2796SOL    MW411259   4.442   1.386   4.241 -0.2332 -0.2083 -0.3672
 2797SOL     OW11260   4.489   2.949   4.235  0.1908  0.0175 -0.0066
 2797SOL    HW211261   4.419   3.000   4.195  1.2448  0.7030 -1.0025
 2797SOL    HW311262   4.568   3.001   4.221  0.6447  0.1558  2.7304
 2797SOL    MW411263   4.490   2.963   4.228  0.3901  0.1266  0.2227
 2798SOL     OW11264   2.968   4.626   4.182  0.2912  0.3357 -0.0958
 2798SOL    HW211265   2.885   4.583   4.203  0.9169 -0.4940  0.7091
 2798SOL    HW311266   2.960   4.714   4.217 -0.0347  0.0779  0.4742
 2798SOL    MW411267   2.956   4.632   4.189  0.3307  0.1926  0.0863
 2799SOL     OW11268   2.053   4.602   4.143  0.1252 -0.2047  0.3259
 2799SOL    HW211269   1.971   4.574   4.183  0.2820 -0.1837  0.6615
 2799SOL    HW311270   2.120   4.581   4.208  0.4860 -1.0490 -0.3239
 2799SOL    MW411271   2.051   4.596   4.157  0.1936 -0.3133  0.2847
 2800SOL     OW11272   0.970   2.997   4.254 -0.3031  0.0538 -0.1724
 2800SOL    HW211273   0.943   2.991   4.345 -0.3498  2.3013 -0.0023
 2800SOL    HW311274   0.891   3.023   4.207  0.1549  0.7471 -0.5688
 2800SOL    MW411275   0.956   3.000   4.260 -0.2488  0.4418 -0.2027
 2801SOL     OW11276   2.429   0.221   4.564  0.4770 -0.5742  0.1726
 2801SOL    HW211277   2.507   0.269   4.593  0.5127  0.0543 -0.9453
 2801SOL    HW311278   2.441   0.210   4.470 -0.8156 -0.4101 -0.0190
 2801SOL    MW411279   2.441   0.226   4.556  0.3111 -0.4696 -0.0005
 2802SOL     OW11280   3.028   2.828   4.089 -0.2067 -0.1100 -0.0622
 2802SOL    HW211281   3.119   2.857   4.089 -0.6598  1.3526 -0.7968
 2802SOL    HW311282   3.016   2.786   4.174  0.8964  0.5139  0.4072
 2802SOL    MW411283   3.039   2.827   4.100 -0.1209  0.1655 -0.0968
 2803SOL     OW11284   2.966   2.431   4.162  0.1538  0.2541  0.5201
 2803SOL    HW211285   2.907   2.386   4.223  1.2652 -0.3413  1.1762
 2803SOL    HW311286   2.994   2.509   4.209 -0.1251  0.5580  0.1904
 2803SOL    MW411287   2.962   2.435   4.176  0.2635  0.2155  0.5636
 2804SOL     OW11288   2.173   3.145   4.696 -0.8228  0.3222  0.2387
 2804SOL    HW211289   2.127   3.105   4.622 -0.8289 -0.2755  0.5619
 2804SOL    HW311290   2.171   3.239   4.677 -1.8142  0.2713  0.0445
 2804SOL    MW411291   2.167   3.152   4.683 -0.9544  0.2363  0.2556
 2805SOL     OW11292   3.542   3.141   4.587 -0.4847 -0.2407 -0.6733
 2805SOL    HW211293   3.531   3.057   4.632  1.3371 -0.3157 -0.3276
 2805SOL    HW311294   3.482   3.201   4.632 -2.0374 -1.4325 -1.1341
 2805SOL    MW411295   3.533   3.138   4.599 -0.4494 -0.4077 -0.6881
 2806SOL     OW11296   1.969   2.129   4.503  0.3736  0.1013 -0.0296
 2806SOL    HW211297   2.047   2.181   4.524  0.3915 -0.0719  0.3340
 2806SOL    HW311298   1.913   2.136   4.580 -1.1601  2.3783 -1.2991
 2806SOL    MW411299   1.972   2.137   4.516  0.1737  0.3791 -0.1493
 2807SOL     OW11300   3.568   3.430   4.114  1.0039 -0.8483  0.2877
 2807SOL    HW211301   3.650   3.397   4.152  1.3637 -0.4371 -0.1207
 2807SOL    HW311302   3.511   3.353   4.109  1.2053 -1.0453  0.9946
 2807SOL    MW411303   3.572   3.416   4.118  1.0779 -0.8202  0.3276
 2808SOL     OW11304   0.637   2.576   4.257 -0.0357  0.2850  0.4115
 2808SOL    HW211305   0.720   2.619   4.240 -0.8598  2.3933  1.6163
 2808SOL    HW311306   0.624   2.584   4.351 -1.4223 -0.3895  0.2977
 2808SOL    MW411307   0.646   2.582   4.267 -0.3273  0.4742  0.5560
 2809SOL     OW11308   2.352   1.019   4.510  0.4088  0.0417  0.1692
 2809SOL    HW211309   2.400   1.093   4.545 -1.4050  1.2891  0.1027
 2809SOL    HW311310   2.260   1.044   4.518 -0.1435 -0.6206 -3.2979
 2809SOL    MW411311   2.346   1.032   4.516  0.0966  0.1189 -0.2971
 2810SOL     OW11312   2.077   1.067   4.520  0.1834  0.0730  0.3766
 2810SOL    HW211313   2.086   1.159   4.545  0.5673 -0.2074  1.2592
 2810SOL    HW311314   2.059   1.070   4.426  0.1157  1.0538  0.4147
 2810SOL    MW411315   2.075   1.080   4.511  0.2251  0.1653  0.4983
 2811SOL     OW11316   2.913   0.222   4.275  0.2593  0.4319 -0.0183
 2811SOL    HW211317   2.837   0.262   4.233  0.3942 -1.5776 -2.2736
 2811SOL    HW311318   2.988   0.266   4.234  0.3651 -0.3456 -0.6661
 2811SOL    MW411319   2.913   0.233   4.264  0.2911  0.0642 -0.4015
 2812SOL     OW11320   0.206   4.626   4.127  0.5906  0.1236  0.2931
 2812SOL    HW211321   0.125   4.592   4.165 -0.1965  0.6576 -0.8909
 2812SOL    HW311322   0.195   4.721   4.128  0.9825  0.1754 -0.3616
 2812SOL    MW411323   0.194   4.634   4.133  0.5385  0.2007  0.0505
 2813SOL     OW11324   2.262   2.771   4.245  0.0905  0.3585 -0.2802
 2813SOL    HW211325   2.259   2.767   4.341 -1.2917 -0.7078 -0.3652
 2813SOL    HW311326   2.235   2.861   4.224 -2.1942 -0.1876  0.2314
 2813SOL    MW411327   2.258   2.782   4.255 -0.3932  0.1459 -0.2241
 2814SOL     OW11328   2.836   1.641   4.345 -0.0294 -0.5370 -0.7372
 2814SOL    HW211329   2.923   1.646   4.306 -0.0873 -0.6895 -0.8852
 2814SOL    HW311330   2.786   1.709   4.299  0.4562  0.6777  0.4869
 2814SOL    MW411331   2.841   1.651   4.334  0.0272 -0.3968 -0.5946
 2815SOL     OW11332   2.257   1.157   3.853 -0.0715 -0.1828 -0.6011
 2815SOL    HW211333   2.246   1.065   3.831 -0.0004  0.4209 -3.3100
 2815SOL    HW311334   2.340   1.182   3.813 -0.0427  1.0254  0.1977
 2815SOL    MW411335   2.266   1.148   3.845 -0.0582  0.0564 -0.8533
 2816SOL     OW11336   2.021   2.521   4.493  0.5011 -0.1443  0.2982
 2816SOL    HW211337   2.069   2.594   4.531 -0.4855  1.3973 -1.3294
 2816SOL    HW311338   2.073   2.443   4.516  0.8688  0.9003  3.1668
 2816SOL    MW411339   2.034   2.520   4.501  0.4196  0.1969  0.4611
 2817SOL     OW11340   2.036   2.359   3.866  0.1002  0.1223  0.0851
 2817SOL    HW211341   2.050   2.343   3.959  0.5037  2.4532  0.4362
 2817SOL    HW311342   2.046   2.273   3.826  2.8091 -0.4311  1.8481
 2817SOL    MW411343   2.039   2.345   3.873  0.5109  0.3569  0.3638
 2818SOL     OW11344   2.054   3.009   4.467  0.2941 -0.4073 -0.5062
 2818SOL    HW211345   2.066   2.926   4.514 -0.8729  0.1720  0.8428
 2818SOL    HW311346   1.960   3.012   4.450  0.3978  0.4526 -0.9087
 2818SOL    MW411347   2.043   2.998   4.471  0.1538 -0.2174 -0.3810
 2819SOL     OW11348   1.550   1.153   4.517  0.1091 -0.3067 -0.4296
 2819SOL    HW211349   1.569   1.069   4.557  0.2043  0.3383  0.9253
 2819SOL    HW311350   1.462   1.175   4.547  0.9158  1.0660  1.0249
 2819SOL    MW411351   1.541   1.145   4.526  0.2280 -0.0404 -0.0591
 2820SOL     OW11352   2.707   1.363   4.560 -0.0985 -0.4055 -0.0094
 2820SOL    HW211353   2.695   1.450   4.598 -1.3766 -0.6262  0.0946
 2820SOL    HW311354   2.671   1.369   4.471  2.0612 -0.1462 -0.9128
 2820SOL    MW411355   2.701   1.375   4.553  0.0176 -0.4004 -0.1154
 2821SOL     OW11356   3.149   2.374   4.538  0.4795  0.3880 -0.8901
 2821SOL    HW211357   3.065   2.341   4.506  0.3969 -0.9072  0.5911
 2821SOL    HW311358   3.147   2.468   4.519 -1.2246  0.3433 -1.0280
 2821SOL    MW411359   3.138   2.382   4.531  0.2439  0.2115 -0.7129
 2822SOL     OW11360   1.372   1.582   4.660 -0.8492  0.2054 -0.0399
 2822SOL    HW211361   1.404   1.672   4.652  0.9445 -0.4179 -0.2744
 2822SOL    HW311362   1.452   1.528   4.657 -1.7118 -1.2753  2.1287
 2822SOL    MW411363   1.387   1.586   4.659 -0.7265 -0.0722  0.2151
 2823SOL     OW11364   3.907   2.314   4.963  0.4531  0.2858  0.1382
 2823SOL    HW211365   4.000   2.304   4.980  0.2278 -0.3720  1.0006
 2823SOL    HW311366   3.886   2.246   4.899  0.2994 -0.4431  0.9500
 2823SOL    MW411367   3.916   2.304   4.957  0.4029  0.1030  0.3591
 2824SOL     OW11368   1.188   3.094   4.138 -0.0524  0.1490 -0.2658
 2824SOL    HW211369   1.102   3.066   4.169 -0.1238  1.2071  0.5157
 2824SOL    HW311370   1.177   3.107   4.044 -0.8733  0.7116 -0.0975
 2824SOL    MW411371   1.176   3.092   4.130 -0.1701  0.3626 -0.1411
 2825SOL     OW11372   3.276   1.796   4.253  0.3352  0.2387 -0.4529
 2825SOL    HW211373   3.295   1.774   4.344  0.0939  0.8095 -0.2649
 2825SOL    HW311374   3.332   1.737   4.203  1.5955  0.9533  0.0871
 2825SOL    MW411375   3.286   1.785   4.258  0.4699  0.4084 -0.3572
 2826SOL     OW11376   0.707   0.017   4.561 -0.0698  0.1038 -0.0218
 2826SOL    HW211377   0.645  -0.043   4.521  0.6914 -0.7688  0.0990
 2826SOL    HW311378   0.792  -0.026   4.552  0.3699  0.7783  0.7975
 2826SOL    MW411379   0.710   0.004   4.554  0.0887  0.0777  0.1025
 2827SOL     OW11380   2.610   3.450   4.571 -0.3733  0.4177  0.1902
 2827SOL    HW211381   2.588   3.376   4.627 -1.9230  1.6891  1.3085
 2827SOL    HW311382   2.614   3.413   4.483  2.9819 -1.7989  1.1611
 2827SOL    MW411383   2.608   3.435   4.567 -0.1352  0.2928  0.4663
 2828SOL     OW11384   3.494   3.169   4.306 -0.0933  0.1151  0.3988
 2828SOL    HW211385   3.479   3.262   4.322  0.5058  0.3406 -0.3045
 2828SOL    HW311386   3.536   3.137   4.386 -0.2036  0.4729  0.5999
 2828SOL    MW411387   3.497   3.177   4.319 -0.0288  0.1919  0.3333
 2829SOL     OW11388   0.414   3.183   4.597  0.3380 -0.2152 -0.4275
 2829SOL    HW211389   0.347   3.249   4.612 -1.1029 -1.0684 -2.8242
 2829SOL    HW311390   0.489   3.233   4.564 -0.0574  0.4626 -0.3111
 2829SOL    MW411391   0.415   3.198   4.594  0.0957 -0.2384 -0.7281
 2830SOL     OW11392   2.717   4.489   4.258  0.0384 -0.1773 -0.0132
 2830SOL    HW211393   2.729   4.492   4.353 -0.4283  2.0444  0.0080
 2830SOL    HW311394   2.631   4.527   4.243  0.3288 -0.0158 -1.3649
 2830SOL    MW411395   2.707   4.494   4.269  0.0150  0.1369 -0.1888
 2831SOL     OW11396   2.409   1.526   4.321  0.5560 -0.3957  0.2531
 2831SOL    HW211397   2.327   1.478   4.311  1.2137 -1.5745  0.4904
 2831SOL    HW311398   2.410   1.554   4.413 -0.2673  0.9219 -0.1106
 2831SOL    MW411399   2.398   1.524   4.332  0.5343 -0.3774  0.2365
 2832SOL     OW11400   1.777   0.621   4.215  0.3097 -0.6882 -0.0082
 2832SOL    HW211401   1.702   0.679   4.198 -0.2789 -1.8113 -1.3413
 2832SOL    HW311402   1.778   0.610   4.310 -0.5444  0.2278  0.1112
 2832SOL    MW411403   1.767   0.627   4.226  0.1194 -0.7155 -0.1688
 2833SOL     OW11404   2.560   3.825   4.848  0.0880 -0.0403 -0.6671
 2833SOL    HW211405   2.497   3.784   4.907  0.6457  0.3655  0.2228
 2833SOL    HW311406   2.525   3.809   4.760 -0.4091 -1.2298 -0.2612
 2833SOL    MW411407   2.547   3.817   4.844  0.0958 -0.1438 -0.4959
 2834SOL     OW11408   3.575   3.685   4.248  0.3545 -0.0080 -0.2025
 2834SOL    HW211409   3.647   3.732   4.206 -0.0444  0.0756 -0.7991
 2834SOL    HW311410   3.574   3.599   4.206  0.3965 -0.1686  0.1258
 2834SOL    MW411411   3.585   3.680   4.237  0.3073 -0.0184 -0.2375
 2835SOL     OW11412   0.025   2.519   4.919  0.1555  0.1497  0.2280
 2835SOL    HW211413   0.100   2.547   4.972  0.9004 -0.4963 -0.4646
 2835SOL    HW311414   0.061   2.505   4.832 -0.4456 -1.7191  0.2547
 2835SOL    MW411415   0.040   2.521   4.915  0.1750 -0.1817  0.1402
 2836SOL     OW11416   4.278   4.058   4.497  0.0738 -0.1124  0.0377
 2836SOL    HW211417   4.287   4.140   4.546  1.0087 -0.1388 -0.0886
 2836SOL    HW311418   4.280   4.084   4.405  0.6083 -0.2903 -0.0072
 2836SOL    MW411419   4.279   4.072   4.492  0.2680 -0.1397  0.0148
 2837SOL     OW11420   4.022   2.002   4.151 -0.3467 -0.0740 -0.1715
 2837SOL    HW211421   3.977   2.081   4.122  1.7354  0.4626 -2.0887
 2837SOL    HW311422   3.952   1.941   4.174 -1.9879  1.6723 -0.4709
 2837SOL    MW411423   4.007   2.004   4.150 -0.2890  0.2270 -0.4640
 2838SOL     OW11424   3.833   1.419   4.332 -0.1325 -0.3150 -0.4644
 2838SOL    HW211425   3.749   1.409   4.288 -0.1896 -0.5579 -0.2968
 2838SOL    HW311426   3.864   1.505   4.304 -1.0151  0.3191  0.4592
 2838SOL    MW411427   3.826   1.429   4.323 -0.2565 -0.2635 -0.3204
 2839SOL     OW11428   2.874   0.232   4.552 -0.0511  0.5971  0.5145
 2839SOL    HW211429   2.798   0.285   4.576  0.5375  1.8439 -0.3268
 2839SOL    HW311430   2.868   0.222   4.457  0.5078  0.1887  0.5175
 2839SOL    MW411431   2.863   0.238   4.543  0.1004  0.7077  0.4039
 2840SOL     OW11432   3.427   1.569   3.850 -0.2845 -0.7165  0.2280
 2840SOL    HW211433   3.427   1.474   3.838  1.4435 -0.6837 -0.1639
 2840SOL    HW311434   3.337   1.595   3.832 -1.1622 -2.4623  1.8941
 2840SOL    MW411435   3.415   1.560   3.846 -0.1721 -0.9426  0.3963
 2841SOL     OW11436   2.230   0.862   3.788 -0.2341 -0.1189  0.1655
 2841SOL    HW211437   2.221   0.868   3.693  0.2618  1.9666  0.2282
 2841SOL    HW311438   2.145   0.829   3.818 -1.0854  1.1018 -0.8471
 2841SOL    MW411439   2.218   0.859   3.779 -0.2811  0.3173  0.0403
 2842SOL     OW11440   1.640   2.306   4.147 -0.1195 -0.2242 -0.7420
 2842SOL    HW211441   1.604   2.295   4.059 -0.2424 -0.2165 -0.6934
 2842SOL    HW311442   1.731   2.278   4.140 -0.2331 -0.5816 -0.7841
 2842SOL    MW411443   1.647   2.301   4.135 -0.1507 -0.2706 -0.7415
 2843SOL     OW11444   0.665   0.274   4.469  0.3010  0.3912 -0.2257
 2843SOL    HW211445   0.677   0.187   4.507 -1.5404  0.2536  0.0791
 2843SOL    HW311446   0.729   0.329   4.514  0.9630 -0.6527  0.1202
 2843SOL    MW411447   0.675   0.270   4.480  0.1454  0.2353 -0.1397
 2844SOL     OW11448   1.637   4.144   4.538  0.3206 -0.6514  0.5306
 2844SOL    HW211449   1.608   4.153   4.447  3.1940  1.1202 -0.3058
 2844SOL    HW311450   1.563   4.173   4.591 -0.8799 -0.2735 -1.3101
 2844SOL    MW411451   1.624   4.149   4.533  0.5414 -0.3681  0.1774
 2845SOL     OW11452   0.832   3.808   4.580  0.4352 -0.0327 -0.1599
 2845SOL    HW211453   0.880   3.887   4.555  1.1747 -0.5507 -0.4066
 2845SOL    HW311454   0.741   3.827   4.558  0.3828  1.2814  1.0892
 2845SOL    MW411455   0.826   3.821   4.574  0.5258  0.0722 -0.0286
 2846SOL     OW11456   1.197   2.026   4.596 -0.2227  0.6395  0.2705
 2846SOL    HW211457   1.150   1.949   4.564 -0.9207  1.3784 -0.5046
 2846SOL    HW311458   1.128   2.088   4.620  0.3050  0.4925  2.2641
 2846SOL    MW411459   1.182   2.024   4.595 -0.2452  0.7176  0.4315
 2847SOL     OW11460   0.409   0.390   4.121  0.3887 -0.3712 -0.0042
 2847SOL    HW211461   0.423   0.399   4.027 -0.4977  0.0303 -0.0996
 2847SOL    HW311462   0.480   0.333   4.150  2.3747  1.7658 -0.4516
 2847SOL    MW411463   0.421   0.384   4.113  0.5338 -0.0363 -0.0758
 2848SOL     OW11464   3.354   0.984   4.244 -0.0659 -0.1284 -0.5929
 2848SOL    HW211465   3.277   1.036   4.220 -0.3361 -0.1758  0.1408
 2848SOL    HW311466   3.429   1.037   4.218 -0.3273  1.3014  1.5041
 2848SOL    MW411467   3.354   0.998   4.237 -0.1359  0.0541 -0.2193
 2849SOL     OW11468   4.013   3.680   4.213 -0.5945 -0.0563 -0.2256
 2849SOL    HW211469   4.093   3.723   4.183 -0.2026 -0.2882  0.4734
 2849SOL    HW311470   3.944   3.744   4.200 -0.2300  0.2904 -0.4527
 2849SOL    MW411471   4.014   3.694   4.207 -0.4945 -0.0410 -0.1636
 2850SOL     OW11472   3.379   1.397   4.388  0.2436 -0.5469 -0.3598
 2850SOL    HW211473   3.358   1.485   4.420 -0.8167 -0.6796 -0.6709
 2850SOL    HW311474   3.367   1.341   4.464  0.9994 -0.4210 -0.1397
 2850SOL    MW411475   3.375   1.401   4.402  0.2031 -0.5478 -0.3719
 2851SOL     OW11476   0.318   1.731   4.459 -0.2127 -0.1528 -0.4132
 2851SOL    HW211477   0.412   1.746   4.467 -0.3021  0.0015  0.4183
 2851SOL    HW311478   0.309   1.636   4.452 -0.0890 -0.2757  1.0027
 2851SOL    MW411479   0.329   1.720   4.459 -0.2081 -0.1487 -0.1163
 2852SOL     OW11480   1.056   3.670   4.504 -0.3155 -0.1716 -0.2153
 2852SOL    HW211481   0.980   3.697   4.555  0.0104  0.4668 -0.0673
 2852SOL    HW311482   1.022   3.657   4.415 -1.1392 -2.4522  0.3783
 2852SOL    MW411483   1.042   3.672   4.499 -0.3812 -0.3884 -0.1173
 2853SOL     OW11484   0.008   2.086   4.416 -0.0329  0.1645 -0.3082
 2853SOL    HW211485  -0.073   2.098   4.464  0.3354 -2.8546  1.2487
 2853SOL    HW311486   0.076   2.119   4.475  0.0775  0.3060 -0.5147
 2853SOL    MW411487   0.007   2.092   4.430  0.0305 -0.2151 -0.1307
 2854SOL     OW11488   0.271   2.920   4.588  0.1463  0.3067 -0.0333
 2854SOL    HW211489   0.301   3.007   4.613  0.2598 -0.1380  1.4525
 2854SOL    HW311490   0.183   2.934   4.552  0.2417  1.0475  0.0216
 2854SOL    MW411491   0.263   2.933   4.587  0.1738  0.3457  0.1702
 2855SOL     OW11492   1.570   4.404   3.773 -0.1694 -0.1685  0.1516
 2855SOL    HW211493   1.661   4.388   3.795 -0.4810 -0.6720  1.0950
 2855SOL    HW311494   1.569   4.408   3.678  0.6197 -1.5121  0.0701
 2855SOL    MW411495   1.582   4.402   3.763 -0.1065 -0.4120  0.2654
 2856SOL     OW11496   1.283   3.824   4.496  0.0334  0.0399 -0.0888
 2856SOL    HW211497   1.260   3.909   4.532  1.3110  0.0108  0.8316
 2856SOL    HW311498   1.208   3.768   4.517 -0.0633  0.5045  0.8412
 2856SOL    MW411499   1.270   3.828   4.504  0.1891  0.0973  0.1554
 2857SOL     OW11500   3.144   4.220   4.150 -0.2685  0.1267 -0.3475
 2857SOL    HW211501   3.206   4.162   4.194 -0.5801  0.7105  0.8747
 2857SOL    HW311502   3.166   4.307   4.182 -0.6993  0.5288 -1.1231
 2857SOL    MW411503   3.155   4.224   4.160 -0.3664  0.2561 -0.2885
 2858SOL     OW11504   3.141   1.126   4.161 -0.3807  0.4609  0.3188
 2858SOL    HW211505   3.144   1.218   4.188  2.5078  0.4368  0.2663
 2858SOL    HW311506   3.155   1.128   4.066  0.8262 -0.0676  0.4713
 2858SOL    MW411507   3.144   1.138   4.152  0.1595  0.3879  0.3324
 2859SOL     OW11508   1.844   0.389   4.681 -0.3293 -0.4967  0.0167
 2859SOL    HW211509   1.913   0.448   4.713 -2.0546  2.0426 -0.8301
 2859SOL    HW311510   1.892   0.313   4.648  1.9911  0.5642  0.8202
 2859SOL    MW411511   1.860   0.387   4.681 -0.2507 -0.0217  0.0110
 2860SOL     OW11512   4.469   3.472   4.185  0.1522  0.3026 -0.1528
 2860SOL    HW211513   4.397   3.419   4.221  0.3196 -1.0598 -1.7746
 2860SOL    HW311514   4.548   3.424   4.209  0.3849  0.4691 -0.5904
 2860SOL    MW411515   4.470   3.459   4.193  0.2055  0.1447 -0.4244
 2861SOL     OW11516   3.516   4.007   4.496 -0.4916 -0.3837 -0.2026
 2861SOL    HW211517   3.472   4.084   4.531  0.6080 -0.0157  0.3936
 2861SOL    HW311518   3.455   3.935   4.512 -1.2302  0.2451 -0.1425
 2861SOL    MW411519   3.502   4.008   4.503 -0.4442 -0.2522 -0.1159
 2862SOL     OW11520   1.468   1.761   4.319 -0.8421  0.1311 -0.3334
 2862SOL    HW211521   1.550   1.806   4.301  0.0555 -0.8727  1.1702
 2862SOL    HW311522   1.403   1.809   4.267  0.4510  1.7797 -0.4884
 2862SOL    MW411523   1.470   1.774   4.310 -0.5529  0.2161 -0.1554
 2863SOL     OW11524   3.089   0.605   4.282  0.1988  0.4376 -0.3177
 2863SOL    HW211525   3.025   0.662   4.239  1.2215  1.9028  0.0585
 2863SOL    HW311526   3.084   0.629   4.374  2.3394  1.6567 -0.4794
 2863SOL    MW411527   3.080   0.616   4.288  0.6163  0.7917 -0.2894
 2864SOL     OW11528   0.412   1.413   4.209  0.0714 -0.0875 -0.0052
 2864SOL    HW211529   0.332   1.455   4.178  0.0715  0.4985  0.7556
 2864SOL    HW311530   0.394   1.320   4.205 -0.8611  0.0512  0.6935
 2864SOL    MW411531   0.399   1.407   4.204 -0.0516  0.0080  0.1869
 2865SOL     OW11532   4.458   4.504   4.528  0.1244 -0.1127 -0.2393
 2865SOL    HW211533   4.542   4.549   4.529 -0.0184  0.1473  0.2591
 2865SOL    HW311534   4.394   4.573   4.509 -0.1267 -0.0476  0.8152
 2865SOL    MW411535   4.460   4.519   4.525  0.0725 -0.0696 -0.0343
 2866SOL     OW11536   1.564   1.539   3.909 -0.4309  0.4624 -0.4062
 2866SOL    HW211537   1.640   1.594   3.893  0.6566 -0.6764  0.8152
 2866SOL    HW311538   1.542   1.554   4.001  0.5130 -1.8926  0.2376
 2866SOL    MW411539   1.571   1.548   3.919 -0.1630  0.0014 -0.1600
 2867SOL     OW11540   3.333   1.258   4.610  0.1819 -0.1303 -0.2074
 2867SOL    HW211541   3.335   1.164   4.594 -0.5472 -0.0157 -0.9597
 2867SOL    HW311542   3.419   1.278   4.648 -0.4725 -1.4628  2.0711
 2867SOL    MW411543   3.345   1.249   4.613 -0.0007 -0.2910 -0.0057
 2868SOL     OW11544   4.254   3.849   4.166 -0.3140 -0.4856 -0.1516
 2868SOL    HW211545   4.266   3.835   4.072  1.7093 -2.3956  0.3559
 2868SOL    HW311546   4.328   3.804   4.207 -1.4640 -0.1408  2.3967
 2868SOL    MW411547   4.265   3.841   4.159 -0.1984 -0.6921  0.2513
 2869SOL     OW11548   1.125   0.982   4.478  0.1485 -0.4771 -0.1823
 2869SOL    HW211549   1.170   1.047   4.531 -0.3434  0.0935 -0.4633
 2869SOL    HW311550   1.035   1.015   4.469  0.1587 -0.6871 -1.1623
 2869SOL    MW411551   1.119   0.995   4.483  0.0850 -0.4296 -0.3486
 2870SOL     OW11552   0.403   0.650   4.240  0.0200 -0.3427  0.0911
 2870SOL    HW211553   0.416   0.569   4.191  1.0718 -0.5834  0.7474
 2870SOL    HW311554   0.482   0.701   4.223 -0.9850  0.8942 -0.9576
 2870SOL    MW411555   0.415   0.646   4.231  0.0261 -0.2113  0.0391
 2871SOL     OW11556   1.161   3.107   3.848 -0.0821  0.4722  0.2054
 2871SOL    HW211557   1.079   3.141   3.811 -0.2970  0.9612  1.1180
 2871SOL    HW311558   1.227   3.172   3.825 -0.1676  0.6491  0.4589
 2871SOL    MW411559   1.159   3.120   3.840 -0.1217  0.5603  0.3593
 2872SOL     OW11560   2.518   2.612   4.602 -0.1052  0.1107  0.2322
 2872SOL    HW211561   2.472   2.541   4.647 -0.1683  0.2865  0.4404
 2872SOL    HW311562   2.522   2.582   4.511  1.4092 -0.9538  0.6350
 2872SOL    MW411563   2.512   2.599   4.596  0.0863 -0.0064  0.3123
 2873SOL     OW11564   4.255   1.572   4.160 -0.5538  0.2760 -0.0854
 2873SOL    HW211565   4.307   1.523   4.223  0.1495 -0.1051 -0.9619
 2873SOL    HW311566   4.165   1.558   4.187 -0.3549 -1.3715 -0.2232
 2873SOL    MW411567   4.250   1.564   4.172 -0.4349  0.0083 -0.2184
 2874SOL     OW11568   0.192   4.181   4.634 -0.3483 -0.6966  0.2783
 2874SOL    HW211569   0.106   4.223   4.626 -0.3716 -0.7688  0.1474
 2874SOL    HW311570   0.246   4.246   4.678  0.1554  0.2461 -1.7107
 2874SOL    MW411571   0.188   4.195   4.639 -0.2849 -0.5822 -0.0010
 2875SOL     OW11572   3.776   0.997   4.280  0.1555  0.0803 -0.0442
 2875SOL    HW211573   3.759   0.972   4.371 -0.1506 -0.8682 -0.3638
 2875SOL    HW311574   3.777   0.915   4.232  0.2507  0.5890 -0.9181
 2875SOL    MW411575   3.774   0.983   4.286  0.1278  0.0222 -0.2022
 2876SOL     OW11576   0.431   2.128   4.274 -0.5577 -0.0084  0.4062
 2876SOL    HW211577   0.509   2.169   4.237 -0.5897 -0.4023 -0.1018
 2876SOL    HW311578   0.444   2.135   4.369 -0.4306  0.9173  0.3284
 2876SOL    MW411579   0.443   2.134   4.282 -0.5451  0.0618  0.3295
 2877SOL     OW11580   1.812   2.903   4.756 -0.5541 -0.6080 -0.4496
 2877SOL    HW211581   1.846   2.993   4.758  0.2852 -0.9144 -0.5874
 2877SOL    HW311582   1.885   2.849   4.786 -1.5857 -1.0957  1.2112
 2877SOL    MW411583   1.826   2.908   4.760 -0.5794 -0.7129 -0.2489
 2878SOL     OW11584   4.003   3.094   4.477  0.4735 -0.0928 -0.4330
 2878SOL    HW211585   4.089   3.127   4.507  0.0614 -0.1327  0.8465
 2878SOL    HW311586   3.941   3.162   4.505 -0.1178 -0.8966  0.2242
 2878SOL    MW411587   4.007   3.108   4.485  0.3409 -0.2038 -0.1774
 2879SOL     OW11588   3.820   2.527   4.263 -0.2531 -0.0865 -0.4490
 2879SOL    HW211589   3.775   2.530   4.348  1.9549  0.6011  0.7331
 2879SOL    HW311590   3.756   2.561   4.201 -2.0482 -0.9725  0.8588
 2879SOL    MW411591   3.805   2.532   4.266 -0.1984 -0.1125 -0.1202
 2880SOL     OW11592   1.954   0.629   4.785  0.0960 -0.0171  0.6695
 2880SOL    HW211593   1.915   0.699   4.733  1.0428 -0.9424 -1.3518
 2880SOL    HW311594   1.927   0.648   4.875 -1.8894  1.4220 -0.1856
 2880SOL    MW411595   1.945   0.641   4.790 -0.0411  0.0507  0.2899
 2881SOL     OW11596   0.859   0.599   4.235  0.2166 -0.1739 -0.0175
 2881SOL    HW211597   0.872   0.517   4.188  0.3695 -0.4433  0.4933
 2881SOL    HW311598   0.837   0.573   4.324 -1.5034  0.3094 -0.2817
 2881SOL    MW411599   0.858   0.585   4.241  0.0098 -0.1457  0.0148
 2882SOL     OW11600   1.191   1.414   4.518 -0.2384 -0.1103  0.5510
 2882SOL    HW211601   1.253   1.475   4.559 -0.3728  1.3746 -1.3714
 2882SOL    HW311602   1.219   1.410   4.426 -2.0561 -0.6066 -0.0027
 2882SOL    MW411603   1.203   1.422   4.511 -0.4959  0.0200  0.2246
 2883SOL     OW11604   0.209   3.360   4.260 -0.2727  0.3431  0.5678
 2883SOL    HW211605   0.228   3.350   4.354 -0.9403 -0.0351  0.6643
 2883SOL    HW311606   0.203   3.270   4.227 -1.0111  0.4643  0.3592
 2883SOL    MW411607   0.211   3.346   4.268 -0.4582  0.3095  0.5536
 2884SOL     OW11608   1.369   3.234   4.622 -0.0003 -0.1107 -0.8471
 2884SOL    HW211609   1.296   3.295   4.634  0.7378  0.7694 -0.7659
 2884SOL    HW311610   1.447   3.288   4.634  0.6754 -0.8681 -1.7900
 2884SOL    MW411611   1.370   3.249   4.625  0.1861 -0.0944 -0.9608
 2885SOL     OW11612   3.390   0.208   4.294 -0.0554 -0.3396  0.1897
 2885SOL    HW211613   3.455   0.269   4.259 -0.9741  0.6288  0.1539
 2885SOL    HW311614   3.306   0.246   4.270 -0.6422 -2.2293 -0.8634
 2885SOL    MW411615   3.388   0.221   4.287 -0.2542 -0.4612  0.0458
 2886SOL     OW11616   0.647   3.335   4.528  0.0714 -0.2009  0.0734
 2886SOL    HW211617   0.728   3.316   4.577  0.9457  1.2731 -0.7696
 2886SOL    HW311618   0.619   3.420   4.561  0.3572  0.5470 -1.5523
 2886SOL    MW411619   0.654   3.344   4.539  0.2244  0.0923 -0.2522
 2887NA      NA11620   3.988   3.529   0.718 -0.2558 -0.4306 -0.4092
 2888NA      NA11621   2.379   2.012   0.528 -0.1112 -0.5447  0.4513
 2889NA      NA11622   1.026   2.158   0.501  0.2433  0.5669 -0.1818
   4.49070   4.66690  10.00000
