Gromacs Runs On Most of All Computer Systems in water
11622
    1U      O5'    1   2.319   2.510   4.801 -0.3089 -0.1321  0.4952
    1U      H5T    2   2.324   2.537   4.709 -0.0766 -1.1396  0.2017
    1U      C5'    3   2.375   2.603   4.894  0.2977  0.0822 -0.0574
    1U     H5'1    4   2.372   2.560   4.994  1.9020 -0.8439 -0.3955
    1U     H5'2    5   2.307   2.688   4.907  1.7548  1.3425 -0.5336
    1U      C4'    6   2.524   2.639   4.870 -0.4628  0.0233 -0.3787
    1U      H4'    7   2.562   2.704   4.948 -1.7740  2.2640 -1.5723
    1U      O4'    8   2.603   2.516   4.883 -0.0099  0.0347 -0.0674
    1U      C1'    9   2.703   2.517   4.781  0.0188  0.1582  0.3858
    1U      H1'   10   2.776   2.592   4.807  0.3406  0.3698 -1.0671
    1U       N1   11   2.752   2.382   4.758 -0.3380 -0.6560  0.1101
    1U       C6   12   2.668   2.275   4.757 -0.3438  0.5472  0.5394
    1U       H6   13   2.564   2.299   4.776 -0.3582  1.0303 -0.1486
    1U       C5   14   2.711   2.151   4.740 -0.0560  0.2280  0.4096
    1U       H5   15   2.636   2.073   4.732  0.9928 -0.7636  0.1547
    1U       C4   16   2.852   2.116   4.714  0.0511  0.1449  0.0886
    1U       O4   17   2.902   2.009   4.683  0.1293  0.1379 -0.2483
    1U       N3   18   2.927   2.230   4.721 -0.3759 -0.3625 -0.7941
    1U       H3   19   3.027   2.228   4.705 -0.1117 -0.2892  0.7833
    1U       C2   20   2.888   2.362   4.741  0.3920  0.4806  0.1684
    1U       O2   21   2.967   2.450   4.743 -0.4474  0.5752  0.0891
    1U      C3'   22   2.549   2.689   4.729 -0.3957 -1.1593 -0.0915
    1U      H3'   23   2.459   2.713   4.672 -0.4950  0.0967  0.5825
    1U      C2'   24   2.626   2.578   4.667 -0.2660  0.2516  0.5835
    1U     H2'1   25   2.557   2.506   4.622 -1.3499  0.3778  2.0170
    1U      O2'   26   2.713   2.618   4.562  0.0749  0.2097  0.1176
    1U     HO'2   27   2.674   2.701   4.530 -0.9483 -0.1579  0.3777
    1U      O3'   28   2.633   2.801   4.727  0.3340 -0.3813 -0.0346
    2RG3      P   29   2.585   2.948   4.770 -0.1052 -0.5870  0.0656
    2RG3    O1P   30   2.526   3.010   4.654 -0.1009 -0.5317  0.6335
    2RG3    O2P   31   2.704   3.011   4.834 -0.2012 -0.1574 -0.0124
    2RG3    O5'   32   2.462   2.935   4.878  0.1509 -0.2459  0.0574
    2RG3    C5'   33   2.336   2.997   4.855  0.2248 -0.1190  0.1374
    2RG3   H5'1   34   2.355   3.098   4.818 -1.9634  0.7617  1.3539
    2RG3   H5'2   35   2.286   3.003   4.951 -2.6796  2.5299 -1.4441
    2RG3    C4'   36   2.250   2.932   4.751  0.8826 -0.0721  0.1741
    2RG3    H4'   37   2.307   2.854   4.700  2.5150  2.0226 -1.2781
    2RG3    O4'   38   2.139   2.869   4.813 -0.5782  0.1800  0.1274
    2RG3    C1'   39   2.052   2.836   4.705 -0.2266 -0.2709  0.8881
    2RG3    H1'   40   2.084   2.742   4.660 -1.7692 -0.8630  1.0143
    2RG3     N9   41   1.915   2.816   4.746  0.4008  0.1725  0.0094
    2RG3     C8   42   1.814   2.910   4.770  0.2767 -0.0766 -0.0052
    2RG3     H8   43   1.838   3.015   4.758 -0.6553  0.2987  1.3755
    2RG3     N7   44   1.699   2.856   4.796  0.0602 -0.7311 -0.3350
    2RG3     C5   45   1.721   2.718   4.791 -0.4403  0.1514 -0.0216
    2RG3     C6   46   1.638   2.608   4.821  0.4596 -0.3844 -0.0935
    2RG3     O6   47   1.521   2.617   4.848 -0.3699  0.4104  0.6939
    2RG3     N1   48   1.694   2.487   4.811 -0.3758  0.0205 -0.2042
    2RG3     H1   49   1.634   2.407   4.825 -0.3762  0.3319  1.7170
    2RG3     C2   50   1.837   2.474   4.804 -0.2075  0.1954 -0.2302
    2RG3     N2   51   1.887   2.354   4.816  0.6405  0.2228  0.4481
    2RG3    H21   52   1.829   2.271   4.814 -0.4690  0.9995 -0.3641
    2RG3    H22   53   1.986   2.343   4.799  0.5551  0.8752 -0.4854
    2RG3     N3   54   1.923   2.574   4.766  0.0863 -0.1702 -0.3156
    2RG3     C4   55   1.854   2.694   4.766 -0.8307 -0.0989 -0.3144
    2RG3    C3'   56   2.196   3.027   4.639 -0.4682  0.2445  0.1977
    2RG3    H3'   57   2.173   3.124   4.683 -0.1493  0.7988 -0.8337
    2RG3    C2'   58   2.072   2.948   4.594  0.3874 -0.5705  0.5503
    2RG3   H2'1   59   1.990   3.017   4.578 -1.4047 -3.0747 -1.6446
    2RG3    O2'   60   2.095   2.891   4.463 -0.7523  0.5768  0.2003
    2RG3   HO'2   61   2.173   2.936   4.430 -0.7613 -0.2147 -0.9431
    2RG3    O3'   62   2.295   3.042   4.533 -0.4324 -0.2661  0.2268
    2RG3    H3T   63   2.383   3.045   4.570 -0.5126  0.5863  0.3535
    3RG35     P   64   2.151   2.298   4.258 -0.2735 -0.0987  0.0460
    3RG35   O1P   65   2.258   2.347   4.172  0.0719  0.2292 -0.2352
    3RG35   O2P   66   2.036   2.234   4.188 -0.2869 -0.0375 -0.1198
    3RG35   O5'   67   2.225   2.170   4.323 -0.0847  0.3680 -0.0914
    3RG35   C5'   68   2.162   2.070   4.405  0.5432  0.1777  0.4178
    3RG35  H5'1   69   2.230   1.987   4.418 -0.0561 -0.3246  0.3699
    3RG35  H5'2   70   2.071   2.035   4.357 -0.9975  2.1394  1.8048
    3RG35   C4'   71   2.125   2.117   4.546  0.1452 -0.0616 -0.0163
    3RG35   H4'   72   2.065   2.207   4.537  0.1353 -0.1546 -0.9522
    3RG35   O4'   73   2.057   2.021   4.623  0.5497  0.3468  0.4486
    3RG35   C1'   74   2.078   2.058   4.759  0.8335  0.6309  0.6680
    3RG35   H1'   75   1.994   2.117   4.796  0.9900  1.0924  0.2866
    3RG35    N9   76   2.087   1.933   4.835 -0.1077 -0.3290 -0.1222
    3RG35    C8   77   1.991   1.875   4.913 -0.8417 -0.1821 -0.4881
    3RG35    H8   78   1.902   1.920   4.954 -1.6014 -1.2791 -0.9028
    3RG35    N7   79   2.014   1.750   4.938 -0.4264  0.3459 -0.0863
    3RG35    C5   80   2.133   1.720   4.872 -0.0165  0.2222  0.2083
    3RG35    C6   81   2.208   1.596   4.865 -0.2826 -0.1549  0.1231
    3RG35    O6   82   2.188   1.478   4.905  0.1718 -0.2431  0.0226
    3RG35    N1   83   2.323   1.610   4.795  0.4309 -0.3030 -0.1475
    3RG35    H1   84   2.380   1.526   4.791  0.5031 -0.3337  1.1332
    3RG35    C2   85   2.366   1.726   4.747  0.1473 -0.3832 -0.3577
    3RG35    N2   86   2.464   1.715   4.666 -0.3963  0.0700 -0.2155
    3RG35   H21   87   2.516   1.628   4.666  0.3030  0.4873  0.5210
    3RG35   H22   88   2.499   1.794   4.613  1.9714 -0.9509 -0.2536
    3RG35    N3   89   2.303   1.840   4.741  0.2533 -0.3788  0.2312
    3RG35    C4   90   2.186   1.832   4.810 -0.2785 -0.2820  0.9908
    3RG35   C3'   91   2.249   2.147   4.621 -0.1944  0.0954 -0.3209
    3RG35   H3'   92   2.325   2.070   4.614 -0.2671 -0.1374  1.2823
    3RG35   C2'   93   2.204   2.143   4.768  0.2568  0.2947  0.0973
    3RG35  H2'1   94   2.284   2.098   4.827 -0.3200 -0.2257  0.4793
    3RG35   O2'   95   2.160   2.265   4.813 -0.3175 -0.5362  0.1715
    3RG35  HO'2   96   2.231   2.329   4.802 -2.2026  1.2452 -2.2920
    3RG35   O3'   97   2.297   2.272   4.583 -0.2469 -0.0725 -0.6878
    3RG35   H3T   98   2.255   2.295   4.500  0.3573  1.6899 -0.5217
    3RG35   O3P   99   2.123   2.385   4.371 -0.7441  0.4183  0.0343
    7SOL     OW  100   0.239   4.617   0.224 -0.2335 -0.2875  0.2678
    7SOL    HW2  101   0.177   4.665   0.279 -0.2002 -1.3671  1.2569
    7SOL    HW3  102   0.245   4.531   0.264  1.2391 -0.4755 -0.3286
    7SOL    MW4  103   0.232   4.612   0.237 -0.0348 -0.4549  0.3196
    8SOL     OW  104   3.649   1.455   0.211 -0.3900  0.4400  0.0590
    8SOL    HW2  105   3.693   1.531   0.251  0.5885  0.1213 -0.3955
    8SOL    HW3  106   3.721   1.401   0.178 -1.1344 -0.0298 -0.8061
    8SOL    MW4  107   3.664   1.458   0.212 -0.3588  0.3359 -0.1151
    9SOL     OW  108   1.336   1.190   0.787  0.2789  0.1593 -0.5667
    9SOL    HW2  109   1.421   1.228   0.765  0.8542 -1.4608 -1.2478
    9SOL    HW3  110   1.349   1.096   0.775 -0.8929 -0.3271  1.7213
    9SOL    MW4  111   1.349   1.183   0.783  0.2000 -0.1187 -0.3548
   10SOL     OW  112   4.220   3.061   0.790  0.0078  0.1651  0.2762
   10SOL    HW2  113   4.146   3.116   0.764  0.1296  0.1391 -0.1292
   10SOL    HW3  114   4.297   3.114   0.770  0.1085  0.0435  0.3448
   10SOL    MW4  115   4.220   3.075   0.784  0.0377  0.1457  0.2317
   11SOL     OW  116   0.246   0.975   0.696  0.2589  0.2392 -0.0086
   11SOL    HW2  117   0.241   0.892   0.744  0.4099  0.6900  0.7909
   11SOL    HW3  118   0.163   1.018   0.713 -0.0054  0.0530 -0.8012
   11SOL    MW4  119   0.235   0.970   0.705  0.2439  0.2742 -0.0077
   12SOL     OW  120   3.555   0.052   0.472 -0.1208 -0.6177  0.0500
   12SOL    HW2  121   3.520  -0.005   0.540  0.0333 -0.2781  0.4212
   12SOL    HW3  122   3.485   0.114   0.454  0.3463  0.1786  0.9272
   12SOL    MW4  123   3.541   0.053   0.479 -0.0391 -0.4679  0.2147
   13SOL     OW  124   0.001   4.485   0.773 -0.6948 -0.2734  0.2855
   13SOL    HW2  125  -0.010   4.395   0.804 -0.8120 -0.5213 -0.4574
   13SOL    HW3  126  -0.088   4.520   0.769 -0.5290  0.4085  2.0997
   13SOL    MW4  127  -0.012   4.477   0.776 -0.6885 -0.2160  0.4268
   14SOL     OW  128   0.550   1.003   0.725 -0.1824  0.4174  0.3709
   14SOL    HW2  129   0.462   0.966   0.728  0.1707 -0.5945 -1.1398
   14SOL    HW3  130   0.566   1.022   0.633  0.7327  1.7228  0.7828
   14SOL    MW4  131   0.541   1.000   0.713 -0.0150  0.4562  0.2259
   15SOL     OW  132   0.058   0.139   0.700 -0.3898  0.2648 -0.1094
   15SOL    HW2  133   0.102   0.088   0.767 -0.2386 -0.6351 -0.8810
   15SOL    HW3  134   0.030   0.219   0.745  2.0343  0.8833  0.3845
   15SOL    MW4  135   0.060   0.143   0.715 -0.0500  0.2276 -0.1461
   16SOL     OW  136   0.863   2.587   0.554  0.1640  0.0456 -0.0098
   16SOL    HW2  137   0.817   2.625   0.479  2.0113  1.5174 -0.4218
   16SOL    HW3  138   0.802   2.597   0.627 -1.6642 -1.4338 -1.3024
   16SOL    MW4  139   0.849   2.593   0.554  0.1665  0.0448 -0.2347
   17SOL     OW  140   3.392   1.586   0.800 -0.4595  0.1217  0.4216
   17SOL    HW2  141   3.308   1.611   0.761  0.1341  1.8224  0.1572
   17SOL    HW3  142   3.377   1.591   0.894 -0.8499 -0.3024  0.3865
   17SOL    MW4  143   3.379   1.590   0.807 -0.4327  0.2900  0.3821
   18SOL     OW  144   0.529   2.904   0.137 -0.5502 -0.0343 -0.6492
   18SOL    HW2  145   0.525   2.886   0.043 -0.0932 -0.6446 -0.5546
   18SOL    HW3  146   0.450   2.863   0.172 -1.1976  1.0014 -0.8987
   18SOL    MW4  147   0.518   2.896   0.129 -0.5753  0.0217 -0.6696
   19SOL     OW  148   0.885   1.529   0.385 -0.7584 -0.2879  0.5372
   19SOL    HW2  149   0.839   1.594   0.332  0.5411  0.7666  0.6437
   19SOL    HW3  150   0.885   1.566   0.473  0.0826 -0.3614  0.5798
   19SOL    MW4  151   0.879   1.543   0.390 -0.4759 -0.1584  0.5569
   20SOL     OW  152   4.306   3.383   0.457 -0.2087 -0.2503  0.2054
   20SOL    HW2  153   4.293   3.297   0.418  0.5246  0.4879 -1.7302
   20SOL    HW3  154   4.219   3.409   0.487 -0.7694 -0.9182 -0.8202
   20SOL    MW4  155   4.293   3.375   0.455 -0.1860 -0.2413 -0.1853
   21SOL     OW  156   4.068   0.039   0.479 -0.3982  0.5729 -0.1913
   21SOL    HW2  157   4.132   0.110   0.489 -0.3569  0.4666  0.3063
   21SOL    HW3  158   3.983   0.083   0.478 -0.4790  0.4900  1.8323
   21SOL    MW4  159   4.065   0.054   0.480 -0.4039  0.5480  0.1413
   22SOL     OW  160   1.828   2.859   0.322 -0.2620  0.2303  0.4057
   22SOL    HW2  161   1.769   2.849   0.397 -0.6558  3.8332  0.6618
   22SOL    HW3  162   1.769   2.861   0.246 -0.1705  0.3043  0.3377
   22SOL    MW4  163   1.812   2.858   0.322 -0.3018  0.7155  0.4306
   23SOL     OW  164   0.828   3.722   0.685  0.3355 -0.5035  0.1726
   23SOL    HW2  165   0.855   3.711   0.594  0.8820 -1.0184  0.3928
   23SOL    HW3  166   0.905   3.761   0.728  0.2165 -0.6259  0.4948
   23SOL    MW4  167   0.842   3.726   0.679  0.3918 -0.5875  0.2441
   24SOL     OW  168   0.672   4.609   0.859 -0.5358 -0.0059 -0.0224
   24SOL    HW2  169   0.747   4.551   0.849 -0.9740 -0.5007 -0.4978
   24SOL    HW3  170   0.675   4.637   0.950 -0.1257 -0.5085  0.1200
   24SOL    MW4  171   0.682   4.606   0.870 -0.5395 -0.1373 -0.0662
   25SOL     OW  172   2.955   3.531   0.463  0.3128 -0.2189  0.3987
   25SOL    HW2  173   2.967   3.625   0.448 -0.7200 -0.1821 -0.1933
   25SOL    HW3  174   3.042   3.493   0.446  0.5908  0.5517  0.0717
   25SOL    MW4  175   2.968   3.538   0.459  0.2131 -0.1123  0.2774
   26SOL     OW  176   0.183   3.574   0.552 -0.1341 -0.0353  0.0727
   26SOL    HW2  177   0.158   3.621   0.472 -1.5210 -0.8507  0.0161
   26SOL    HW3  178   0.111   3.590   0.613 -0.6149 -2.0427  0.0645
   26SOL    MW4  179   0.170   3.583   0.549 -0.3805 -0.4079  0.0641
   27SOL     OW  180   1.383   0.928   0.720  0.2648 -0.3942 -0.2229
   27SOL    HW2  181   1.308   0.874   0.745  0.8501 -1.6371 -1.0900
   27SOL    HW3  182   1.371   0.945   0.627 -0.2945  1.6198  0.1939
   27SOL    MW4  183   1.371   0.923   0.711  0.2682 -0.2925 -0.2823
   28SOL     OW  184   0.874   2.998   0.734 -0.0430 -0.1187 -0.1292
   28SOL    HW2  185   0.845   2.979   0.645 -0.1372 -0.8712  0.0605
   28SOL    HW3  186   0.897   2.913   0.771  0.8398  0.2914  0.2752
   28SOL    MW4  187   0.873   2.985   0.727  0.0610 -0.1638 -0.0509
   29SOL     OW  188   3.875   3.769   0.585 -0.0064  0.1494  0.6140
   29SOL    HW2  189   3.950   3.761   0.526 -0.9530 -0.1796 -0.5906
   29SOL    HW3  190   3.860   3.863   0.593 -0.2564  0.1909 -0.2126
   29SOL    MW4  191   3.883   3.780   0.578 -0.1645  0.1116  0.3460
   30SOL     OW  192   0.781   2.886   0.486 -0.2776  0.0110 -0.3804
   30SOL    HW2  193   0.691   2.870   0.457 -0.1812 -0.5301 -0.3791
   30SOL    HW3  194   0.835   2.857   0.412 -0.1376  1.3828 -0.8479
   30SOL    MW4  195   0.776   2.880   0.472 -0.2464  0.1204 -0.4419
   31SOL     OW  196   3.044   0.007   0.652  0.2008 -0.0690 -0.2413
   31SOL    HW2  197   3.119   0.066   0.658  0.3835 -0.3656  0.3627
   31SOL    HW3  198   2.982   0.053   0.595  1.4684 -0.4794 -2.0087
   31SOL    MW4  199   3.046   0.020   0.645  0.3922 -0.1623 -0.3948
   32SOL     OW  200   4.032   4.470   0.709  0.3802  0.6336 -0.2661
   32SOL    HW2  201   4.024   4.451   0.616 -0.0966 -0.6595  0.0382
   32SOL    HW3  202   4.050   4.386   0.750  0.0718  1.1086  0.8735
   32SOL    MW4  203   4.033   4.457   0.702  0.2761  0.5260 -0.0756
   33SOL     OW  204   3.777   1.673   0.357  0.2285 -0.1473 -0.1202
   33SOL    HW2  205   3.740   1.715   0.434  1.5346  1.3684 -0.2845
   33SOL    HW3  206   3.825   1.597   0.392 -2.2359 -1.6553  0.1623
   33SOL    MW4  207   3.779   1.668   0.372  0.0756 -0.1464 -0.1046
   34SOL     OW  208   4.275   4.061   0.756 -0.4488 -0.0847 -0.4957
   34SOL    HW2  209   4.285   4.058   0.661 -1.2802 -0.6741 -0.5726
   34SOL    HW3  210   4.257   3.971   0.781  2.0910 -0.3337  0.5008
   34SOL    MW4  211   4.274   4.049   0.746 -0.2236 -0.1955 -0.3743
   35SOL     OW  212   0.639   0.598   0.462  0.0082 -0.6094  0.3784
   35SOL    HW2  213   0.687   0.517   0.443  0.3685 -0.3009 -0.0185
   35SOL    HW3  214   0.706   0.666   0.465 -0.4292 -0.1290 -0.4589
   35SOL    MW4  215   0.654   0.596   0.460 -0.0020 -0.5053  0.2156
   36SOL     OW  216   1.507   3.833   0.837  0.3293 -0.2795 -0.0316
   36SOL    HW2  217   1.546   3.759   0.791  0.8268 -0.3174  0.4552
   36SOL    HW3  218   1.522   3.908   0.779 -1.2125 -0.7543 -1.0779
   36SOL    MW4  219   1.514   3.833   0.823  0.1915 -0.3474 -0.1054
   37SOL     OW  220   3.660   0.623   0.470 -0.0782 -0.1207 -0.2609
   37SOL    HW2  221   3.714   0.703   0.467 -0.1356 -0.0825 -0.2822
   37SOL    HW3  222   3.621   0.623   0.557 -0.4929  0.1486 -0.4446
   37SOL    MW4  223   3.662   0.634   0.481 -0.1404 -0.0801 -0.2880
   38SOL     OW  224   4.463   3.111   0.189 -0.2010 -0.0826  0.1503
   38SOL    HW2  225   4.443   3.035   0.133  0.1794 -0.7012  0.8409
   38SOL    HW3  226   4.404   3.101   0.264 -0.0677  0.2464  0.2979
   38SOL    MW4  227   4.453   3.099   0.191 -0.1340 -0.1206  0.2609
   39SOL     OW  228   1.508   2.698   0.407  0.4225  0.3627 -0.3843
   39SOL    HW2  229   1.534   2.733   0.322  0.8668  0.1010 -0.3607
   39SOL    HW3  230   1.422   2.736   0.425 -0.4782 -0.9750 -1.7681
   39SOL    MW4  231   1.500   2.707   0.398  0.3623  0.1516 -0.5638
   40SOL     OW  232   0.224   1.950   0.743 -0.0366 -0.3533 -0.2194
   40SOL    HW2  233   0.296   1.902   0.784 -0.6483 -2.4950 -1.5598
   40SOL    HW3  234   0.148   1.894   0.756 -0.9890  0.7500 -0.9478
   40SOL    MW4  235   0.224   1.936   0.750 -0.2429 -0.4902 -0.4923
   41SOL     OW  236   0.344   1.532   0.830  0.0025 -0.4050  0.1607
   41SOL    HW2  237   0.266   1.518   0.778  0.1006 -1.1378  0.1974
   41SOL    HW3  238   0.393   1.450   0.822  0.6333 -0.0527  0.3542
   41SOL    MW4  239   0.340   1.519   0.822  0.0987 -0.4553  0.1912
   42SOL     OW  240   3.649   2.065   0.723 -0.0109 -0.3754 -0.3420
   42SOL    HW2  241   3.631   2.093   0.633 -0.3754 -0.1219 -0.1941
   42SOL    HW3  242   3.571   2.091   0.772 -0.1435 -1.2108 -0.1007
   42SOL    MW4  243   3.636   2.072   0.718 -0.0763 -0.4520 -0.2906
   43SOL     OW  244   4.219   2.801   0.692  0.2816 -0.2546  0.3871
   43SOL    HW2  245   4.240   2.888   0.726 -1.5765  0.0548  0.7780
   43SOL    HW3  246   4.282   2.743   0.735  1.8874  0.9456 -0.2715
   43SOL    MW4  247   4.230   2.805   0.702  0.2484 -0.0553  0.3517
   44SOL     OW  248   0.732   2.618   0.782  0.1295  0.7061 -0.2994
   44SOL    HW2  249   0.649   2.649   0.819  0.4594  0.0841  1.0028
   44SOL    HW3  250   0.731   2.523   0.798  0.5673  0.5197 -1.3379
   44SOL    MW4  251   0.721   2.609   0.789  0.2307  0.5996 -0.2646
   45SOL     OW  252   3.382   2.011   0.376  0.0835 -0.0234  0.5383
   45SOL    HW2  253   3.304   2.064   0.396 -0.8337 -1.2957  0.4389
   45SOL    HW3  254   3.361   1.924   0.411  2.1835  0.0563  2.0719
   45SOL    MW4  255   3.369   2.006   0.383  0.2396 -0.1810  0.7275
   46SOL     OW  256   4.088   3.671   0.398 -0.1996  0.1747 -0.1000
   46SOL    HW2  257   4.076   3.647   0.306  0.2672  1.6849 -0.5522
   46SOL    HW3  258   4.175   3.710   0.403 -0.2451  0.1708  0.9769
   46SOL    MW4  259   4.098   3.673   0.387 -0.1440  0.3734 -0.0176
   47SOL     OW  260   1.125   4.665   0.886 -0.2738 -0.0328  0.0438
   47SOL    HW2  261   1.053   4.604   0.870  0.6425 -0.6390 -1.9157
   47SOL    HW3  262   1.198   4.629   0.835  0.8124  1.7264  0.3271
   47SOL    MW4  263   1.125   4.652   0.877 -0.0095  0.1197 -0.1774
   48SOL     OW  264   0.705   3.175   0.386 -0.0428 -0.2927  0.0903
   48SOL    HW2  265   0.623   3.162   0.338  0.9232 -0.7384 -1.5008
   48SOL    HW3  266   0.715   3.096   0.438 -0.0626 -0.7518 -0.5899
   48SOL    MW4  267   0.696   3.163   0.386  0.0820 -0.4122 -0.2094
   49SOL     OW  268   4.271   4.318   0.407  0.1028  0.3874 -0.4880
   49SOL    HW2  269   4.300   4.333   0.318 -0.9779  0.7607 -0.7868
   49SOL    HW3  270   4.322   4.379   0.460 -0.1804  1.0808 -1.0080
   49SOL    MW4  271   4.282   4.328   0.403 -0.0777  0.5283 -0.5960
   50SOL     OW  272   0.168   4.062   0.469 -0.0248  0.0381 -0.3207
   50SOL    HW2  273   0.175   4.084   0.562  0.6347  0.2997 -0.4329
   50SOL    HW3  274   0.177   4.146   0.424 -0.9030 -0.0101 -0.6000
   50SOL    MW4  275   0.170   4.076   0.475 -0.0537  0.0663 -0.3724
   51SOL     OW  276   3.808   0.148   0.460 -0.1389 -0.0234 -0.3928
   51SOL    HW2  277   3.804   0.223   0.401  0.2602  1.4596  1.4464
   51SOL    HW3  278   3.721   0.109   0.455 -0.8855  1.5651 -0.0722
   51SOL    MW4  279   3.796   0.153   0.451 -0.1848  0.3818 -0.1078
   52SOL     OW  280   0.509   1.709   0.456 -0.0109  0.2761  0.5996
   52SOL    HW2  281   0.562   1.759   0.519 -0.5088 -0.7591  1.8569
   52SOL    HW3  282   0.520   1.618   0.483 -1.1325 -0.0771 -0.1218
   52SOL    MW4  283   0.517   1.704   0.468 -0.2246  0.0929  0.6703
   53SOL     OW  284   0.106   3.690   0.295  0.3554  0.1938  0.1599
   53SOL    HW2  285   0.056   3.629   0.240 -0.0415  1.7608 -1.2701
   53SOL    HW3  286   0.040   3.733   0.349  0.4381  0.5778 -0.0473
   53SOL    MW4  287   0.090   3.687   0.295  0.3139  0.4513 -0.0561
   54SOL     OW  288   0.950   0.915   0.768 -0.0564  0.3678 -0.0829
   54SOL    HW2  289   1.019   0.853   0.789 -0.6680 -0.4713 -0.5183
   54SOL    HW3  290   0.872   0.880   0.811  0.0072  1.8752  1.3023
   54SOL    MW4  291   0.949   0.902   0.776 -0.1286  0.4560  0.0424
   55SOL     OW  292   0.329   0.637   0.469 -0.7497  0.3432 -0.0238
   55SOL    HW2  293   0.423   0.632   0.457 -0.7296  0.5457  0.0640
   55SOL    HW3  294   0.296   0.553   0.435 -0.6488  0.7369 -1.1280
   55SOL    MW4  295   0.337   0.625   0.463 -0.7337  0.4219 -0.1579
   56SOL     OW  296   1.060   0.524   0.742  0.2527 -0.0612  0.3409
   56SOL    HW2  297   0.996   0.464   0.781  0.8991 -0.4150  0.8524
   56SOL    HW3  298   1.144   0.481   0.753  0.7564  1.0433  0.9366
   56SOL    MW4  299   1.062   0.511   0.748  0.4045  0.0377  0.4869
   57SOL     OW  300   0.628   1.024   0.441  0.0349  0.2417 -0.0699
   57SOL    HW2  301   0.555   1.008   0.381  0.5354 -0.0734 -0.5969
   57SOL    HW3  302   0.650   1.116   0.429  0.0089  0.2275 -0.2207
   57SOL    MW4  303   0.621   1.034   0.432  0.0976  0.1982 -0.1593
   58SOL     OW  304   1.946   0.331   0.318 -0.1790 -0.3426 -0.0755
   58SOL    HW2  305   1.914   0.345   0.407 -0.4065  0.5144 -0.2940
   58SOL    HW3  306   2.035   0.367   0.318 -0.1910 -0.3136 -0.2097
   58SOL    MW4  307   1.954   0.337   0.330 -0.2105 -0.2257 -0.1221
   59SOL     OW  308   2.864   0.192   0.507  0.0073  0.6106 -0.1208
   59SOL    HW2  309   2.933   0.173   0.445 -0.1117 -0.7546  0.1408
   59SOL    HW3  310   2.896   0.266   0.558  0.4402  1.2196 -1.2627
   59SOL    MW4  311   2.877   0.199   0.506  0.0486  0.5108 -0.2369
   60SOL     OW  312   4.308   0.926   0.672 -0.4957 -0.3100 -0.0336
   60SOL    HW2  313   4.334   0.870   0.599 -0.9846  0.0183 -0.4717
   60SOL    HW3  314   4.268   0.866   0.735 -1.1487 -0.4477 -0.5633
   60SOL    MW4  315   4.306   0.911   0.671 -0.6466 -0.2849 -0.1613
   61SOL     OW  316   0.720   1.725   0.263  0.0169  0.5517 -0.0373
   61SOL    HW2  317   0.641   1.725   0.317 -0.2381 -0.0007 -0.3995
   61SOL    HW3  318   0.759   1.811   0.276 -1.2238  1.2204 -0.7001
   61SOL    MW4  319   0.715   1.736   0.272 -0.1805  0.5670 -0.1726
   62SOL     OW  320   2.276   0.898   0.688  0.2286  0.1492 -0.4473
   62SOL    HW2  321   2.336   0.966   0.660  2.6736 -2.1807 -1.0297
   62SOL    HW3  322   2.253   0.851   0.608  0.0073 -0.8482  0.1852
   62SOL    MW4  323   2.281   0.901   0.674  0.5221 -0.2899 -0.4407
   63SOL     OW  324   1.148   1.534   0.390 -0.2427 -0.0734  0.1487
   63SOL    HW2  325   1.053   1.526   0.379 -0.3320  0.2433  0.6559
   63SOL    HW3  326   1.180   1.444   0.389 -0.7118 -0.2615  1.3557
   63SOL    MW4  327   1.140   1.521   0.388 -0.3164 -0.0564  0.3748
   64SOL     OW  328   2.364   2.616   0.371  0.4287 -0.2269 -0.1791
   64SOL    HW2  329   2.459   2.603   0.374  0.4691  0.3016  1.4651
   64SOL    HW3  330   2.351   2.681   0.301  1.2770 -0.2274 -0.3421
   64SOL    MW4  331   2.375   2.623   0.362  0.5460 -0.1571  0.0164
   65SOL     OW  332   4.280   3.109   0.402 -0.0039 -0.0299 -0.7777
   65SOL    HW2  333   4.188   3.082   0.396 -0.2999  0.7004  0.3221
   65SOL    HW3  334   4.319   3.049   0.465  0.0608  0.2105 -0.5890
   65SOL    MW4  335   4.273   3.098   0.409 -0.0343  0.0980 -0.6077
   66SOL     OW  336   0.670   2.573   0.344 -0.2109 -0.2892  0.7835
   66SOL    HW2  337   0.690   2.625   0.266  1.0083 -1.0360  0.5834
   66SOL    HW3  338   0.596   2.618   0.384  0.0621  0.9249 -0.0274
   66SOL    MW4  339   0.663   2.586   0.339 -0.0139 -0.2277  0.6501
   67SOL     OW  340   1.354   3.006   0.662  0.1564 -0.1950  0.0304
   67SOL    HW2  341   1.429   2.971   0.709  0.7068  0.8699 -0.0303
   67SOL    HW3  342   1.282   3.003   0.725  0.6427  0.2565  0.6090
   67SOL    MW4  343   1.354   3.001   0.677  0.2931  0.0050  0.0987
   68SOL     OW  344   0.999   1.710   0.618 -0.0876  0.7313  0.3566
   68SOL    HW2  345   0.968   1.795   0.648  1.1901  1.1912  0.3901
   68SOL    HW3  346   1.060   1.730   0.548 -0.1558 -0.1845  0.0348
   68SOL    MW4  347   1.003   1.724   0.613  0.0720  0.6710  0.3186
   69SOL     OW  348   1.566   2.062   0.685  0.1445 -0.2179  0.3689
   69SOL    HW2  349   1.585   2.002   0.613  0.2410  1.2290 -0.8393
   69SOL    HW3  350   1.488   2.026   0.726 -1.1878  0.0475 -1.7916
   69SOL    MW4  351   1.559   2.050   0.681 -0.0185  0.0081 -0.0756
   70SOL     OW  352   4.483   3.417   0.229 -0.2719 -0.4258 -0.4089
   70SOL    HW2  353   4.429   3.426   0.307  0.0894 -0.6448 -0.1326
   70SOL    HW3  354   4.461   3.331   0.194 -1.1789  0.0924 -1.1155
   70SOL    MW4  355   4.473   3.407   0.234 -0.3438 -0.3865 -0.4657
   71SOL     OW  356   0.604   3.818   0.808 -0.2153 -0.0748  0.1690
   71SOL    HW2  357   0.681   3.783   0.763  1.2448  3.5597 -0.3398
   71SOL    HW3  358   0.530   3.795   0.752  0.7705 -1.4074 -0.6240
   71SOL    MW4  359   0.605   3.810   0.795  0.1074  0.2289 -0.0027
   72SOL     OW  360   2.077   1.884   0.445  0.2530  0.0031  0.6388
   72SOL    HW2  361   2.172   1.888   0.436  0.2990 -0.2153  1.0007
   72SOL    HW3  362   2.043   1.919   0.363  0.6451 -0.3051  0.3442
   72SOL    MW4  363   2.085   1.889   0.433  0.3109 -0.0663  0.6476
   73SOL     OW  364   1.227   3.509   0.515  0.3747  0.1979 -0.1515
   73SOL    HW2  365   1.318   3.481   0.507  0.4172 -0.0573  1.1584
   73SOL    HW3  366   1.229   3.583   0.575 -0.1533  0.9251 -1.0146
   73SOL    MW4  367   1.239   3.515   0.522  0.3107  0.2604 -0.0926
   74SOL     OW  368   0.452   4.192   0.877  0.3694 -0.0685 -0.0494
   74SOL    HW2  369   0.462   4.287   0.866 -1.3358  0.1176 -0.2574
   74SOL    HW3  370   0.457   4.178   0.971 -0.1047  0.3436  0.0425
   74SOL    MW4  371   0.454   4.203   0.888  0.0819  0.0100 -0.0647
   75SOL     OW  372   0.492   3.559   0.376  0.2792  0.3458 -0.1201
   75SOL    HW2  373   0.519   3.650   0.359 -0.5595  0.3413 -1.5446
   75SOL    HW3  374   0.574   3.509   0.373  0.5957  0.8838 -0.5778
   75SOL    MW4  375   0.506   3.564   0.373  0.2103  0.4163 -0.3685
   76SOL     OW  376   0.471   4.632   0.440  0.0157 -0.0958  0.1075
   76SOL    HW2  377   0.560   4.665   0.451  0.0177 -0.3264  0.7846
   76SOL    HW3  378   0.449   4.653   0.349  0.9147 -0.4223 -0.1905
   76SOL    MW4  379   0.480   4.639   0.429  0.1346 -0.1693  0.1575
   77SOL     OW  380   0.747   1.998   0.277 -0.1410 -0.2572  0.2604
   77SOL    HW2  381   0.676   2.004   0.212 -1.6333  1.2078  1.9502
   77SOL    HW3  382   0.772   2.089   0.292 -0.7890 -0.4502  2.7451
   77SOL    MW4  383   0.741   2.011   0.270 -0.4234 -0.0894  0.8112
   78SOL     OW  384   2.002   4.520   0.861  0.0210 -0.0876 -0.1256
   78SOL    HW2  385   2.067   4.512   0.791  1.3867 -2.3400  1.3761
   78SOL    HW3  386   1.956   4.436   0.861 -1.1177  0.5167  0.5946
   78SOL    MW4  387   2.004   4.508   0.851  0.0510 -0.3047  0.1675
   79SOL     OW  388   2.030   1.293   0.457  0.1766  0.1239  0.2714
   79SOL    HW2  389   2.031   1.384   0.429  2.5998  0.2375  0.6015
   79SOL    HW3  390   2.022   1.297   0.552 -0.0448 -0.0131  0.2586
   79SOL    MW4  391   2.029   1.306   0.466  0.4673  0.1209  0.3133
   80SOL     OW  392   3.130   4.391   0.900 -0.1558  0.0224  0.0157
   80SOL    HW2  393   3.189   4.342   0.842 -0.5663 -1.4673  0.8196
   80SOL    HW3  394   3.045   4.384   0.857 -0.2425 -0.1017  0.2094
   80SOL    MW4  395   3.127   4.383   0.886 -0.2213 -0.1903  0.1473
   81SOL     OW  396   3.813   0.423   0.354  0.3778 -0.4132  0.2803
   81SOL    HW2  397   3.816   0.457   0.264  0.7816 -0.9032  0.1098
   81SOL    HW3  398   3.754   0.483   0.400  1.8075  1.0961  0.2167
   81SOL    MW4  399   3.806   0.435   0.348  0.6194 -0.2787  0.2494
   82SOL     OW  400   1.499   3.429   0.494 -0.1935 -0.1558 -0.2103
   82SOL    HW2  401   1.574   3.375   0.469 -0.2097 -0.4101  0.2891
   82SOL    HW3  402   1.537   3.514   0.517 -0.2642  0.3704 -1.9514
   82SOL    MW4  403   1.514   3.433   0.493 -0.2050 -0.1199 -0.3741
   83SOL     OW  404   2.120   4.460   0.308 -0.7363  0.0586  0.3254
   83SOL    HW2  405   2.075   4.544   0.317  0.6004  0.8370 -0.1535
   83SOL    HW3  406   2.105   4.434   0.217 -1.6054 -0.4958  0.6208
   83SOL    MW4  407   2.112   4.467   0.297 -0.6747  0.0882  0.3012
   84SOL     OW  408   1.817   1.140   0.843  0.1723  0.0676  0.0177
   84SOL    HW2  409   1.804   1.062   0.790 -0.0441  1.1301 -1.4975
   84SOL    HW3  410   1.884   1.190   0.797  0.4052  0.7304  1.0495
   84SOL    MW4  411   1.824   1.136   0.830  0.1745  0.2952 -0.0461
   85SOL     OW  412   1.550   0.250   0.473  0.3432  0.2286  0.1101
   85SOL    HW2  413   1.468   0.253   0.424  0.9909 -0.4748 -1.0433
   85SOL    HW3  414   1.581   0.340   0.476 -0.2436  0.4266  0.1525
   85SOL    MW4  415   1.544   0.262   0.467  0.3513  0.1619 -0.0364
   86SOL     OW  416   1.997   1.583   0.470 -0.0594  0.2273 -0.7539
   86SOL    HW2  417   2.078   1.632   0.482  0.2700 -0.6031  0.4033
   86SOL    HW3  418   1.941   1.609   0.543 -1.3100  1.6913 -2.1770
   86SOL    MW4  419   2.000   1.593   0.481 -0.1810  0.3108 -0.7890
   87SOL     OW  420   1.637   0.529   0.474 -0.1363  0.2883 -0.3522
   87SOL    HW2  421   1.569   0.564   0.531 -0.8434  1.2184 -1.7423
   87SOL    HW3  422   1.637   0.587   0.398  1.2702 -0.5185 -0.9918
   87SOL    MW4  423   1.628   0.542   0.472 -0.0440  0.3045 -0.6199
   88SOL     OW  424   0.972   2.347   0.481 -0.6817  0.0617 -0.2489
   88SOL    HW2  425   0.936   2.435   0.488  0.5576  0.5340  0.4904
   88SOL    HW3  426   0.961   2.310   0.569 -1.0860 -0.4741 -0.5257
   88SOL    MW4  427   0.966   2.354   0.494 -0.5715  0.0534 -0.1878
   89SOL     OW  428   1.380   1.667   0.479  0.1160  0.0303  0.2972
   89SOL    HW2  429   1.360   1.664   0.573  0.7821 -0.5219  0.4255
   89SOL    HW3  430   1.302   1.634   0.436 -0.1122  0.0883  0.6701
   89SOL    MW4  431   1.367   1.662   0.486  0.1738 -0.0349  0.3633
   90SOL     OW  432   2.662   2.469   0.687  0.4087  0.8451 -0.3953
   90SOL    HW2  433   2.741   2.424   0.716  0.0737  0.7346  0.3559
   90SOL    HW3  434   2.659   2.549   0.740  0.0941  0.9202 -0.5256
   90SOL    MW4  435   2.672   2.474   0.698  0.3231  0.8402 -0.3135
   91SOL     OW  436   2.629   1.372   0.787 -0.0768 -0.1437  0.1432
   91SOL    HW2  437   2.544   1.395   0.825 -0.4216 -0.3015 -0.5167
   91SOL    HW3  438   2.636   1.277   0.799  0.5986  0.0587  1.3755
   91SOL    MW4  439   2.618   1.363   0.794 -0.0331 -0.1378  0.2187
   92SOL     OW  440   0.878   2.756   0.275 -0.1184  0.2715  0.0272
   92SOL    HW2  441   0.866   2.811   0.197 -0.0042 -0.5265 -0.5574
   92SOL    HW3  442   0.972   2.736   0.277 -0.3954 -1.1579 -0.6289
   92SOL    MW4  443   0.889   2.761   0.265 -0.1399 -0.0224 -0.1365
   93SOL     OW  444   1.772   2.141   0.390  0.2222  0.0109 -0.3658
   93SOL    HW2  445   1.706   2.185   0.336 -0.6962 -0.0589  0.6663
   93SOL    HW3  446   1.806   2.210   0.447 -1.4387 -0.6440  1.4645
   93SOL    MW4  447   1.768   2.156   0.390 -0.1181 -0.0844  0.0119
   94SOL     OW  448   2.941   0.410   0.657  0.2816 -0.2509 -0.3475
   94SOL    HW2  449   2.854   0.448   0.670 -0.9180 -2.3099 -2.0581
   94SOL    HW3  450   2.972   0.390   0.745  0.3620  3.2971  0.5008
   94SOL    MW4  451   2.934   0.413   0.670  0.1342 -0.0544 -0.4613
   95SOL     OW  452   1.155   2.678   0.268 -0.0665  0.2709 -0.1473
   95SOL    HW2  453   1.191   2.739   0.333 -0.8486 -0.1499  0.7002
   95SOL    HW3  454   1.191   2.593   0.292 -0.8040  0.0211  0.0879
   95SOL    MW4  455   1.164   2.675   0.280 -0.2670  0.1824 -0.0045
   96SOL     OW  456   0.683   0.162   0.706 -0.1213 -0.0084  0.6337
   96SOL    HW2  457   0.748   0.216   0.750  0.3401 -0.4442  0.5007
   96SOL    HW3  458   0.669   0.088   0.765 -0.5796  0.1356  0.7117
   96SOL    MW4  459   0.690   0.159   0.720 -0.1209 -0.0469  0.6264
   97SOL     OW  460   1.680   2.514   0.088 -0.5170 -0.3104  0.1600
   97SOL    HW2  461   1.640   2.440   0.135  2.2223 -1.3371  1.0099
   97SOL    HW3  462   1.773   2.491   0.084  0.3879  3.0978  0.4156
   97SOL    MW4  463   1.687   2.501   0.094 -0.0361  0.0036  0.3059
   98SOL     OW  464   2.889   2.658   0.313 -0.4907  0.4068  0.5990
   98SOL    HW2  465   2.888   2.732   0.374  2.1997  1.4428 -0.5092
   98SOL    HW3  466   2.911   2.698   0.228  2.6992 -1.8021  0.3076
   98SOL    MW4  467   2.892   2.673   0.310  0.2854  0.2518  0.4143
   99SOL     OW  468   1.337   4.102   0.452 -0.1001 -0.1168 -0.0906
   99SOL    HW2  469   1.408   4.074   0.510  0.5567  0.9320 -0.3798
   99SOL    HW3  470   1.380   4.119   0.368 -0.4915  1.6527  0.0500
   99SOL    MW4  471   1.352   4.101   0.449 -0.0651  0.2546 -0.1102
  100SOL     OW  472   2.297   2.833   0.132 -1.1343 -0.1402 -0.1610
  100SOL    HW2  473   2.325   2.909   0.183 -1.8381  1.0892 -1.5556
  100SOL    HW3  474   2.331   2.849   0.044 -2.4235 -0.7794 -0.7913
  100SOL    MW4  475   2.305   2.845   0.127 -1.3971 -0.0622 -0.4281
  101SOL     OW  476   4.064   0.471   0.498 -0.3705  0.2589 -0.2108
  101SOL    HW2  477   3.988   0.429   0.457  0.2081 -0.2912 -0.7406
  101SOL    HW3  478   4.082   0.547   0.443 -0.8575  0.6895  0.2203
  101SOL    MW4  479   4.057   0.475   0.485 -0.3581  0.2431 -0.2238
  102SOL     OW  480   1.982   0.059   0.331 -0.4067 -0.5583  0.5010
  102SOL    HW2  481   1.977   0.150   0.301  0.3539 -0.2644  1.2274
  102SOL    HW3  482   1.895   0.041   0.367 -1.2152 -0.8103 -1.5500
  102SOL    MW4  483   1.970   0.069   0.332 -0.4131 -0.5528  0.3263
  103SOL     OW  484   3.216   3.373   0.458  0.1554 -0.1017  0.4835
  103SOL    HW2  485   3.188   3.317   0.530  1.0422 -1.5702 -0.2745
  103SOL    HW3  486   3.306   3.396   0.479  0.8985 -1.6880 -0.7934
  103SOL    MW4  487   3.224   3.368   0.470  0.3705 -0.5047  0.2151
  104SOL     OW  488   1.299   4.208   0.784 -0.1708 -0.2239 -0.2101
  104SOL    HW2  489   1.223   4.161   0.749 -0.3103 -0.0305 -0.1679
  104SOL    HW3  490   1.284   4.209   0.879 -1.3622  1.9689 -0.3874
  104SOL    MW4  491   1.287   4.202   0.792 -0.3464  0.0911 -0.2280
  105SOL     OW  492   1.849   0.658   0.152  0.3960  0.1568  0.0686
  105SOL    HW2  493   1.877   0.568   0.169  0.1277  0.4696  2.2414
  105SOL    HW3  494   1.754   0.657   0.164  0.6354  1.1830  2.3217
  105SOL    MW4  495   1.840   0.646   0.156  0.3922  0.3334  0.6525
  106SOL     OW  496   2.889   4.401   0.767  0.4207  0.0332  0.2512
  106SOL    HW2  497   2.817   4.354   0.808 -0.8153  0.8081 -0.9640
  106SOL    HW3  498   2.870   4.493   0.784  0.8553  0.2692 -0.5009
  106SOL    MW4  499   2.877   4.407   0.775  0.3152  0.1669 -0.0084
  107SOL     OW  500   1.647   1.002   0.379 -0.0318  0.5288 -0.4624
  107SOL    HW2  501   1.631   1.091   0.411  0.0267  0.5544 -0.5043
  107SOL    HW3  502   1.741   0.989   0.390  0.2189  1.0280 -1.8717
  107SOL    MW4  503   1.657   1.012   0.385  0.0091  0.5980 -0.6538
  108SOL     OW  504   2.445   0.695   0.825 -0.4806 -0.2522 -0.3887
  108SOL    HW2  505   2.528   0.721   0.783 -0.5281  0.8200  0.1412
  108SOL    HW3  506   2.381   0.758   0.791 -0.5115  0.6576  1.2901
  108SOL    MW4  507   2.448   0.707   0.815 -0.4909  0.0093 -0.0972
  109SOL     OW  508   1.595   0.801   0.824 -0.0874  0.1008 -0.0128
  109SOL    HW2  509   1.676   0.822   0.778  0.5409 -1.3235  0.4149
  109SOL    HW3  510   1.529   0.858   0.784  0.9482  0.6584 -0.9492
  109SOL    MW4  511   1.597   0.811   0.813  0.1321 -0.0135 -0.0799
  110SOL     OW  512   2.456   0.856   0.376  0.1455 -0.3362  0.0472
  110SOL    HW2  513   2.419   0.906   0.304 -1.9511 -1.3200  0.3975
  110SOL    HW3  514   2.515   0.917   0.420 -0.7656  1.1822 -0.7852
  110SOL    MW4  515   2.459   0.870   0.373 -0.2511 -0.2656 -0.0164
  111SOL     OW  516   0.997   0.639   0.350  0.0123  0.1822  0.1205
  111SOL    HW2  517   0.952   0.715   0.387 -2.2877 -0.5287 -1.1552
  111SOL    HW3  518   0.951   0.564   0.385  0.4342 -0.5682 -0.8991
  111SOL    MW4  519   0.985   0.639   0.359 -0.2355 -0.0107 -0.1823
  112SOL     OW  520   2.232   0.324   0.668  0.5316  0.2590 -0.1361
  112SOL    HW2  521   2.177   0.390   0.627  0.9929 -0.1856 -1.4923
  112SOL    HW3  522   2.199   0.241   0.634 -0.2172 -0.2482  1.7550
  112SOL    MW4  523   2.221   0.322   0.658  0.4940  0.1334 -0.0654
  113SOL     OW  524   3.862   2.587   0.524  0.3334  0.1786  0.0347
  113SOL    HW2  525   3.900   2.534   0.595  2.2956  0.7919 -0.5331
  113SOL    HW3  526   3.929   2.587   0.456 -1.0328  0.6358 -1.3377
  113SOL    MW4  527   3.875   2.580   0.525  0.4122  0.3197 -0.2213
  114SOL     OW  528   1.613   2.774   0.161 -0.3775 -0.2983  0.2739
  114SOL    HW2  529   1.582   2.803   0.076  0.3802 -0.5890 -0.1055
  114SOL    HW3  530   1.639   2.683   0.148  0.9092  0.0221  0.5012
  114SOL    MW4  531   1.613   2.766   0.148 -0.1076 -0.2944  0.2538
  115SOL     OW  532   0.201   2.077   0.479  0.1148  0.0533  0.3838
  115SOL    HW2  533   0.195   2.035   0.565 -0.2777  0.0235  0.3412
  115SOL    HW3  534   0.295   2.082   0.462  0.1533 -1.3456  0.1336
  115SOL    MW4  535   0.213   2.072   0.488  0.0681 -0.1352  0.3451
  116SOL     OW  536   2.059   0.773   0.807  0.3978 -0.0574 -0.1407
  116SOL    HW2  537   2.130   0.836   0.789  0.2680 -0.2171 -1.2369
  116SOL    HW3  538   2.043   0.781   0.901 -0.2734  2.2560 -0.4261
  116SOL    MW4  539   2.066   0.783   0.817  0.2921  0.2268 -0.3230
  117SOL     OW  540   2.262   1.172   0.379 -0.4255  0.0149  0.2989
  117SOL    HW2  541   2.182   1.209   0.416  0.1225  1.1753  0.3387
  117SOL    HW3  542   2.312   1.247   0.347  1.4103 -0.5363  1.7553
  117SOL    MW4  543   2.258   1.186   0.379 -0.1111  0.0952  0.4963
  118SOL     OW  544   3.414   2.080   0.887 -0.1941 -0.4031  0.1167
  118SOL    HW2  545   3.389   2.140   0.957 -0.4338 -1.5177  1.0055
  118SOL    HW3  546   3.333   2.034   0.866 -0.1748  0.1076 -1.0724
  118SOL    MW4  547   3.400   2.082   0.894 -0.2232 -0.4830  0.0771
  119SOL     OW  548   2.264   2.157   0.306  0.5622 -0.5118 -0.0996
  119SOL    HW2  549   2.289   2.077   0.352  1.7810  0.6529  1.3082
  119SOL    HW3  550   2.339   2.216   0.318 -0.2032  0.7397 -1.3555
  119SOL    MW4  551   2.277   2.154   0.313  0.6223 -0.1931 -0.0796
  120SOL     OW  552   1.710   2.798   0.566 -0.3035 -0.0896 -0.0604
  120SOL    HW2  553   1.632   2.769   0.520  0.1790  0.3065 -1.1425
  120SOL    HW3  554   1.680   2.819   0.654 -1.1017 -1.5714  0.0404
  120SOL    MW4  555   1.696   2.797   0.572 -0.3451 -0.2327 -0.1898
  121SOL     OW  556   2.098   2.182   0.094 -0.0720 -0.1058  0.2823
  121SOL    HW2  557   2.167   2.171   0.159  1.1394  1.2683 -0.7385
  121SOL    HW3  558   2.125   2.127   0.020 -1.0676 -1.0774  0.6189
  121SOL    MW4  559   2.111   2.173   0.093 -0.0434 -0.0527  0.1921
  122SOL     OW  560   2.964   3.084   0.850 -0.3586 -0.0683  0.2972
  122SOL    HW2  561   2.961   3.072   0.945  0.3327  0.0866  0.3414
  122SOL    HW3  562   2.893   3.145   0.832  0.1610  0.7068  0.8429
  122SOL    MW4  563   2.954   3.090   0.860 -0.1986  0.0546  0.3750
  123SOL     OW  564   2.779   4.004   0.748  0.2500  0.0746 -0.3150
  123SOL    HW2  565   2.736   4.084   0.780 -0.8669 -0.4084 -0.5913
  123SOL    HW3  566   2.785   4.017   0.654  0.1718 -0.1159 -0.3454
  123SOL    MW4  567   2.774   4.016   0.740  0.0920 -0.0143 -0.3556
  124SOL     OW  568   1.538   3.914   1.103 -0.5811  0.8878 -0.0867
  124SOL    HW2  569   1.452   3.936   1.137 -0.9173  0.6737 -0.7939
  124SOL    HW3  570   1.522   3.883   1.014  0.3352  1.8612 -0.6025
  124SOL    MW4  571   1.525   3.913   1.095 -0.5045  0.9880 -0.2480
  125SOL     OW  572   1.498   0.238   0.753 -0.0888  0.2568 -0.4748
  125SOL    HW2  573   1.495   0.144   0.772  3.8585  0.2007  0.3061
  125SOL    HW3  574   1.506   0.242   0.658  1.3112 -0.2837 -0.3913
  125SOL    MW4  575   1.499   0.226   0.743  0.6167  0.1781 -0.3607
  126SOL     OW  576   1.312   4.261   1.061  0.4599 -0.0279 -0.0394
  126SOL    HW2  577   1.234   4.298   1.103  0.8597  3.4304 -2.1188
  126SOL    HW3  578   1.385   4.308   1.103  1.1712 -0.4459 -0.7976
  126SOL    MW4  579   1.311   4.272   1.072  0.6064  0.3734 -0.4139
  127SOL     OW  580   3.270   4.626   0.896  0.2264 -0.5577 -0.1850
  127SOL    HW2  581   3.202   4.561   0.912 -1.9214  1.8836  0.9134
  127SOL    HW3  582   3.316   4.634   0.980  0.2182 -0.3534 -0.1986
  127SOL    MW4  583   3.267   4.618   0.909 -0.0577 -0.2093 -0.0418
  128SOL     OW  584   0.924   4.492   0.821 -0.2553  0.0483 -0.4893
  128SOL    HW2  585   0.907   4.401   0.842 -0.0328  0.1763  0.2835
  128SOL    HW3  586   0.922   4.496   0.726 -0.5808 -0.6989 -0.5152
  128SOL    MW4  587   0.921   4.481   0.812 -0.2689 -0.0334 -0.3906
  129SOL     OW  588   3.256   0.626   0.825 -0.3879 -0.2214  0.4886
  129SOL    HW2  589   3.226   0.536   0.839  0.5716 -0.3311  1.9892
  129SOL    HW3  590   3.336   0.617   0.772 -1.1531 -0.1417 -0.6929
  129SOL    MW4  591   3.263   0.613   0.820 -0.3622 -0.2254  0.5308
  130SOL     OW  592   4.153   1.163   0.624 -0.2538 -0.3480 -0.4727
  130SOL    HW2  593   4.224   1.223   0.601 -1.5926  0.8833 -1.4593
  130SOL    HW3  594   4.194   1.076   0.621  1.8341  0.4896  1.4510
  130SOL    MW4  595   4.168   1.159   0.621 -0.1554 -0.0751 -0.3490
  131SOL     OW  596   3.055   0.640   0.553 -0.2183  0.0728  0.5482
  131SOL    HW2  597   3.019   0.556   0.582 -1.8490  0.8682  0.9294
  131SOL    HW3  598   2.991   0.672   0.489  0.3382  1.0640  0.4806
  131SOL    MW4  599   3.042   0.633   0.548 -0.3598  0.3085  0.5897
  132SOL     OW  600   4.254   0.258   0.501  0.0512  0.4356  0.1091
  132SOL    HW2  601   4.189   0.324   0.475  1.0259  1.1754 -0.5191
  132SOL    HW3  602   4.272   0.277   0.593  0.2475  0.9846 -0.0391
  132SOL    MW4  603   4.248   0.270   0.509  0.2055  0.6057  0.0066
  133SOL     OW  604   2.560   1.699   0.430  0.0950  0.1716  0.0939
  133SOL    HW2  605   2.636   1.734   0.383  0.9196  0.2976  1.5108
  133SOL    HW3  606   2.584   1.609   0.452 -0.2436  0.1550  0.3994
  133SOL    MW4  607   2.573   1.692   0.427  0.1593  0.1861  0.3212
  134SOL     OW  608   3.966   3.202   0.628 -0.0919  0.5776 -0.1106
  134SOL    HW2  609   3.976   3.154   0.546  0.7078  1.2469 -0.4132
  134SOL    HW3  610   3.986   3.293   0.605 -1.9095  1.1245  0.3759
  134SOL    MW4  611   3.970   3.208   0.614 -0.2263  0.7381 -0.0864
  135SOL     OW  612   2.650   4.251   0.827  0.3704 -0.4055  0.1037
  135SOL    HW2  613   2.672   4.265   0.919  1.5632  1.1278 -0.3974
  135SOL    HW3  614   2.554   4.247   0.825  0.3206  0.1048  1.3243
  135SOL    MW4  615   2.640   4.252   0.839  0.5212 -0.1354  0.1987
  136SOL     OW  616   3.005   1.775   0.378  0.5484  0.5345  0.1866
  136SOL    HW2  617   3.021   1.860   0.418 -2.4040  1.3598 -0.2453
  136SOL    HW3  618   2.961   1.724   0.446 -1.5841  0.8489 -0.9275
  136SOL    MW4  619   3.001   1.779   0.392 -0.1223  0.6849 -0.0173
  137SOL     OW  620   1.569   2.292   0.259  0.0456  0.2382 -0.4043
  137SOL    HW2  621   1.550   2.351   0.333  0.4403 -1.7720  1.3588
  137SOL    HW3  622   1.487   2.243   0.247  0.0550  0.4158 -1.1682
  137SOL    MW4  623   1.555   2.293   0.267  0.0991 -0.0036 -0.2724
  138SOL     OW  624   4.062   2.035   0.560 -0.3962 -0.3976  0.0921
  138SOL    HW2  625   4.069   2.125   0.529 -0.4568 -0.7953 -1.1019
  138SOL    HW3  626   3.975   2.006   0.530 -0.1577 -1.0219 -0.0120
  138SOL    MW4  627   4.052   2.043   0.552 -0.3734 -0.5324 -0.0792
  139SOL     OW  628   3.197   1.034   0.402  0.4852 -0.1997 -0.0264
  139SOL    HW2  629   3.113   1.026   0.357  0.9434 -0.3309 -0.8635
  139SOL    HW3  630   3.200   1.124   0.434  1.1709  0.5937 -2.2801
  139SOL    MW4  631   3.186   1.045   0.400  0.6361 -0.1123 -0.4342
  140SOL     OW  632   3.603   2.135   0.459  0.2967  0.1355  0.7136
  140SOL    HW2  633   3.525   2.088   0.428  1.6317 -0.6063 -1.6260
  140SOL    HW3  634   3.595   2.222   0.420  1.0141 -0.2008 -0.2245
  140SOL    MW4  635   3.592   2.140   0.450  0.5674 -0.0067  0.2812
  141SOL     OW  636   1.953   2.621   0.611  0.1082 -0.1279  0.0659
  141SOL    HW2  637   1.916   2.533   0.606  0.0827 -0.1594  0.7953
  141SOL    HW3  638   1.880   2.679   0.591 -0.4285 -0.1729  1.8663
  141SOL    MW4  639   1.939   2.617   0.607  0.0341 -0.1383  0.3997
  142SOL     OW  640   2.632   4.511   0.481 -0.0198  0.2675  0.3151
  142SOL    HW2  641   2.557   4.452   0.484  0.8597 -1.0280 -1.7877
  142SOL    HW3  642   2.708   4.453   0.490  0.7781  1.4986  1.9128
  142SOL    MW4  643   2.632   4.496   0.483  0.2015  0.2589  0.2484
  143SOL     OW  644   1.959   2.425   0.129  0.4405 -0.1609 -0.0960
  143SOL    HW2  645   2.013   2.443   0.206  1.4880  0.6252 -1.0000
  143SOL    HW3  646   1.998   2.346   0.090 -0.6671 -1.1177  0.6895
  143SOL    MW4  647   1.971   2.417   0.134  0.4326 -0.1836 -0.1117
  144SOL     OW  648   2.274   0.981   0.175 -0.5503  0.4127 -0.0694
  144SOL    HW2  649   2.273   1.041   0.249  3.2959 -0.5205  0.8472
  144SOL    HW3  650   2.278   1.038   0.098 -1.8399  1.3494  0.5482
  144SOL    MW4  651   2.274   0.996   0.175 -0.2129  0.4132  0.1330
  145SOL     OW  652   0.359   3.467   0.826 -0.5933 -0.4981  0.1756
  145SOL    HW2  653   0.402   3.479   0.911  0.2657 -2.5155  0.0439
  145SOL    HW3  654   0.266   3.465   0.847 -0.3919 -0.8924  1.0618
  145SOL    MW4  655   0.353   3.469   0.840 -0.4534 -0.8163  0.2752
  146SOL     OW  656   1.515   4.059   0.659 -0.0582 -0.1890 -0.2705
  146SOL    HW2  657   1.591   4.116   0.665 -0.4770  0.2980  0.4485
  146SOL    HW3  658   1.450   4.098   0.718 -0.3627 -1.3663  0.1960
  146SOL    MW4  659   1.516   4.071   0.668 -0.1537 -0.2794 -0.1141
  147SOL     OW  660   2.857   4.646   0.860  0.2260 -0.2773  0.4118
  147SOL    HW2  661   2.920   4.679   0.796 -0.0246 -1.6998 -0.5803
  147SOL    HW3  662   2.772   4.678   0.830  0.3230  0.6723  1.1152
  147SOL    MW4  663   2.854   4.655   0.848  0.2055 -0.3400  0.3737
  148SOL     OW  664   2.840   2.878   0.474  0.0498  0.8022  0.2267
  148SOL    HW2  665   2.847   2.875   0.570 -0.5314  1.4077  0.2925
  148SOL    HW3  666   2.885   2.959   0.449 -1.5380  1.6878  0.1671
  148SOL    MW4  667   2.847   2.888   0.484 -0.2363  0.9990  0.2275
  149SOL     OW  668   2.543   3.867   0.820 -0.3558 -0.2469 -0.4305
  149SOL    HW2  669   2.632   3.897   0.801  0.1132 -0.8784  0.7481
  149SOL    HW3  670   2.548   3.772   0.813 -0.9406 -0.2828 -0.3674
  149SOL    MW4  671   2.555   3.858   0.816 -0.3712 -0.3350 -0.2667
  150SOL     OW  672   2.779   4.074   0.478  0.2675 -0.2985  0.5601
  150SOL    HW2  673   2.838   4.145   0.452  0.3792 -1.3376 -2.1100
  150SOL    HW3  674   2.692   4.113   0.473  0.5535  0.7085  2.7458
  150SOL    MW4  675   2.776   4.089   0.474  0.3200 -0.3028  0.4962
  151SOL     OW  676   3.077   0.116   0.348 -0.1539  0.1596 -0.1883
  151SOL    HW2  677   3.091   0.023   0.362 -0.3829  0.6272  3.8052
  151SOL    HW3  678   3.161   0.157   0.366 -0.5418  0.8860  0.0150
  151SOL    MW4  679   3.090   0.109   0.352 -0.2353  0.3171  0.3654
  152SOL     OW  680   3.243   0.506   0.408  0.2417 -0.5773  0.3546
  152SOL    HW2  681   3.310   0.572   0.390  0.7396 -0.7067  1.6451
  152SOL    HW3  682   3.172   0.555   0.449 -0.1062 -0.5720 -0.2573
  152SOL    MW4  683   3.243   0.521   0.411  0.2615 -0.5935  0.4441
  153SOL     OW  684   0.236   0.362   0.470  0.1070  0.0566  0.3909
  153SOL    HW2  685   0.293   0.303   0.519  0.4275  0.0709  0.0331
  153SOL    HW3  686   0.180   0.303   0.419  0.0717  0.0546  0.4311
  153SOL    MW4  687   0.236   0.346   0.470  0.1447  0.0583  0.3490
  154SOL     OW  688   1.291   4.404   0.481  0.4319  0.4349 -0.3728
  154SOL    HW2  689   1.310   4.310   0.491 -0.3058  0.2995 -0.1944
  154SOL    HW3  690   1.307   4.441   0.567 -0.3337  0.2778 -0.1582
  154SOL    MW4  691   1.295   4.396   0.494  0.2335  0.3963 -0.3209
  155SOL     OW  692   1.283   0.693   0.391  0.1827  0.0174  0.0926
  155SOL    HW2  693   1.290   0.637   0.469  1.1463 -1.9320 -1.3480
  155SOL    HW3  694   1.190   0.693   0.370  0.1057 -0.6109  0.4270
  155SOL    MW4  695   1.272   0.685   0.399  0.2997 -0.3228 -0.0533
  156SOL     OW  696   4.404   2.634   0.812 -0.4368  0.4419 -0.1680
  156SOL    HW2  697   4.429   2.658   0.901  0.4541 -0.0401 -0.2836
  156SOL    HW3  698   4.352   2.554   0.823 -1.0434  0.8534 -0.0154
  156SOL    MW4  699   4.400   2.627   0.825 -0.3991  0.4323 -0.1631
  157SOL     OW  700   3.716   1.093   0.305  0.2534 -0.1455 -0.0213
  157SOL    HW2  701   3.681   1.146   0.376  1.0551 -0.7910  0.8717
  157SOL    HW3  702   3.771   1.153   0.254 -0.5848  0.3954 -0.2860
  157SOL    MW4  703   3.719   1.108   0.308  0.2482 -0.1594  0.0617
  158SOL     OW  704   3.819   0.845   0.421  0.2488 -0.1542  0.6028
  158SOL    HW2  705   3.779   0.922   0.379 -2.0020 -0.5159  2.0344
  158SOL    HW3  706   3.835   0.873   0.511  1.8851 -0.5248  0.4476
  158SOL    MW4  707   3.816   0.859   0.428  0.1676 -0.2508  0.7712
  159SOL     OW  708   3.763   0.192   0.716 -0.2627 -0.6743 -0.1617
  159SOL    HW2  709   3.846   0.225   0.749  0.7527 -2.5007 -0.8595
  159SOL    HW3  710   3.774   0.188   0.621 -0.6643 -2.1798 -0.1589
  159SOL    MW4  711   3.775   0.196   0.708 -0.1817 -1.1139 -0.2534
  160SOL     OW  712   1.697   4.266   0.623  0.1206 -0.0407  0.4741
  160SOL    HW2  713   1.641   4.335   0.588  0.8374  1.5001  2.2617
  160SOL    HW3  714   1.720   4.212   0.547 -2.0552  0.5232 -0.6153
  160SOL    MW4  715   1.693   4.268   0.608 -0.0718  0.2375  0.5662
  161SOL     OW  716   3.169   1.731   0.716 -0.2581  0.4063 -0.2922
  161SOL    HW2  717   3.238   1.762   0.657  1.1260  0.0147  1.0705
  161SOL    HW3  718   3.151   1.806   0.773  1.4119 -0.5090  1.4811
  161SOL    MW4  719   3.176   1.745   0.716  0.1447  0.2338  0.1216
  162SOL     OW  720   3.051   2.464   0.419 -0.6506 -0.1634 -0.3364
  162SOL    HW2  721   2.994   2.532   0.384  0.4274  1.4737  1.0194
  162SOL    HW3  722   3.140   2.492   0.396 -0.1860 -0.9822  0.4288
  162SOL    MW4  723   3.055   2.476   0.412 -0.4473 -0.0556 -0.0566
  163SOL     OW  724   2.929   0.982   0.359  0.2103 -0.2583 -0.1497
  163SOL    HW2  725   2.937   0.900   0.310 -1.7555 -0.0902 -0.7797
  163SOL    HW3  726   2.928   0.955   0.451  2.5723 -0.6782 -0.2114
  163SOL    MW4  727   2.930   0.967   0.364  0.2625 -0.2915 -0.2410
  164SOL     OW  728   2.081   2.414   0.411  0.0582 -0.2890 -0.6591
  164SOL    HW2  729   2.006   2.384   0.462  1.3567  0.6998  1.8874
  164SOL    HW3  730   2.131   2.335   0.393 -0.2912 -0.6149 -0.2139
  164SOL    MW4  731   2.077   2.400   0.415  0.1833 -0.2017 -0.2643
  165SOL     OW  732   2.354   2.708   0.841  0.0752 -0.4355 -0.1341
  165SOL    HW2  733   2.449   2.707   0.851 -0.1206 -0.1696  1.9316
  165SOL    HW3  734   2.320   2.707   0.931 -1.8659  0.1334 -0.8333
  165SOL    MW4  735   2.362   2.708   0.854 -0.2069 -0.3254  0.0461
  166SOL     OW  736   3.446   3.502   0.789 -0.3068  0.3706  0.2113
  166SOL    HW2  737   3.440   3.595   0.812  0.6296  0.1336  1.4970
  166SOL    HW3  738   3.465   3.501   0.695 -0.1010  1.4893  0.2343
  166SOL    MW4  739   3.448   3.514   0.780 -0.1559  0.4871  0.3840
  167SOL     OW  740   3.012   3.877   0.850  0.3244  0.3006 -0.1874
  167SOL    HW2  741   2.985   3.889   0.941 -2.1127 -2.9934 -0.4129
  167SOL    HW3  742   2.949   3.928   0.799  0.3538  0.3690 -0.1549
  167SOL    MW4  743   3.000   3.885   0.855  0.0069 -0.1247 -0.2128
  168SOL     OW  744   1.771   3.297   0.505 -0.3175 -0.4190  0.0728
  168SOL    HW2  745   1.821   3.232   0.456 -0.9893  0.2888 -1.5973
  168SOL    HW3  746   1.817   3.380   0.490 -0.1828 -0.2908  1.1529
  168SOL    MW4  747   1.783   3.299   0.496 -0.3884 -0.3090 -0.0050
  169SOL     OW  748   2.274   2.814   0.591  0.2616  0.5098 -0.6068
  169SOL    HW2  749   2.288   2.800   0.684 -0.8735  1.9809 -0.2071
  169SOL    HW3  750   2.362   2.829   0.556  0.6423  0.3611  0.2771
  169SOL    MW4  751   2.288   2.814   0.599  0.1621  0.6843 -0.4374
  170SOL     OW  752   3.803   2.802   0.696  0.2307  0.5735  0.6442
  170SOL    HW2  753   3.861   2.769   0.765  0.5924 -0.5986 -0.2094
  170SOL    HW3  754   3.821   2.746   0.620  0.6391  2.5178 -0.7466
  170SOL    MW4  755   3.813   2.790   0.695  0.3324  0.6752  0.3481
  171SOL     OW  756   2.092   3.353   0.363  0.0440 -0.0940  0.2336
  171SOL    HW2  757   2.028   3.287   0.337 -0.7391 -0.0524  2.0372
  171SOL    HW3  758   2.041   3.419   0.411  1.2327  0.5715  0.6086
  171SOL    MW4  759   2.077   3.353   0.366  0.0975 -0.0007  0.5210
  172SOL     OW  760   2.428   3.025   0.289 -0.2874  0.1589  0.5668
  172SOL    HW2  761   2.471   2.983   0.364 -0.2509  1.2742  1.1926
  172SOL    HW3  762   2.393   3.107   0.325  0.8934  1.3526 -0.9409
  172SOL    MW4  763   2.429   3.031   0.304 -0.1266  0.4637  0.4504
  173SOL     OW  764   4.041   4.220   0.830 -0.1067  0.1120  0.0082
  173SOL    HW2  765   3.975   4.159   0.797 -1.3983  1.1972  0.5338
  173SOL    HW3  766   4.125   4.179   0.809 -0.9522 -1.7857  0.2329
  173SOL    MW4  767   4.044   4.206   0.823 -0.3886  0.0048  0.1072
  174SOL     OW  768   2.803   3.297   0.479 -0.4069 -0.2826 -0.7968
  174SOL    HW2  769   2.724   3.330   0.435 -0.0944 -0.6040 -1.6051
  174SOL    HW3  770   2.860   3.374   0.487 -0.7141 -0.0937 -0.3984
  174SOL    MW4  771   2.800   3.312   0.475 -0.4063 -0.2999 -0.8509
  175SOL     OW  772   2.581   3.420   0.348  0.2324 -0.2944 -0.1790
  175SOL    HW2  773   2.614   3.353   0.290 -0.5097  0.0567 -1.0146
  175SOL    HW3  774   2.492   3.391   0.370 -0.0098  0.2951 -0.3696
  175SOL    MW4  775   2.574   3.408   0.344  0.1025 -0.1702 -0.3144
  176SOL     OW  776   1.855   0.383   0.576  0.6986 -0.0470 -0.4986
  176SOL    HW2  777   1.791   0.439   0.532  0.0681  0.4535  1.0461
  176SOL    HW3  778   1.924   0.444   0.604 -0.0777 -0.0138  1.3490
  176SOL    MW4  779   1.856   0.398   0.574  0.5130  0.0234 -0.0511
  177SOL     OW  780   0.115   2.773   0.664  0.0170 -0.4989 -0.3928
  177SOL    HW2  781   0.049   2.731   0.721 -2.7646  1.1793 -2.2572
  177SOL    HW3  782   0.076   2.857   0.640  2.1488 -0.1678 -2.9166
  177SOL    MW4  783   0.101   2.778   0.669 -0.0688 -0.2337 -0.9718
  178SOL     OW  784   2.609   0.123   0.489 -0.1841  0.0381  0.1140
  178SOL    HW2  785   2.701   0.150   0.486 -0.1644 -0.0498 -0.0640
  178SOL    HW3  786   2.611   0.029   0.471 -0.1783 -0.2354  1.5067
  178SOL    MW4  787   2.621   0.114   0.486 -0.1807 -0.0096  0.2742
  179SOL     OW  788   3.320   0.231   0.469 -0.3037 -0.2841 -0.2804
  179SOL    HW2  789   3.307   0.231   0.564  0.7512 -2.5059 -0.1074
  179SOL    HW3  790   3.289   0.317   0.440 -2.2683 -0.2643  1.8317
  179SOL    MW4  791   3.314   0.243   0.478 -0.4239 -0.5746  0.0211
  180SOL     OW  792   3.444   4.569   0.675  0.4388 -0.3366  0.0741
  180SOL    HW2  793   3.388   4.582   0.752  0.5121  0.4895 -0.0035
  180SOL    HW3  794   3.393   4.512   0.618 -0.7194  1.1126 -0.3822
  180SOL    MW4  795   3.430   4.563   0.678  0.2959 -0.0358  0.0036
  181SOL     OW  796   0.458   2.339   0.702  0.1865 -0.0520  0.5209
  181SOL    HW2  797   0.383   2.296   0.743 -1.2558  0.8226 -1.1385
  181SOL    HW3  798   0.529   2.330   0.766 -1.0481 -1.7731  1.6900
  181SOL    MW4  799   0.458   2.332   0.716 -0.1667 -0.1636  0.4563
  182SOL     OW  800   2.086   4.187   0.422 -0.2563 -0.3724  0.3098
  182SOL    HW2  801   2.163   4.134   0.403 -0.5096 -0.7312  0.2921
  182SOL    HW3  802   2.111   4.276   0.395  0.3535 -0.3811  0.8228
  182SOL    MW4  803   2.100   4.192   0.416 -0.2091 -0.4210  0.3751
  183SOL     OW  804   1.563   1.253   0.453 -0.2317 -0.2858 -0.4162
  183SOL    HW2  805   1.583   1.342   0.427 -0.2461  0.1151  0.9115
  183SOL    HW3  806   1.569   1.253   0.549 -0.5356 -1.6245 -0.3751
  183SOL    MW4  807   1.566   1.264   0.462 -0.2738 -0.4095 -0.2356
  184SOL     OW  808   2.696   1.117   0.459 -0.6505  0.3009  0.4970
  184SOL    HW2  809   2.731   1.199   0.493 -0.7502  1.2459 -1.5834
  184SOL    HW3  810   2.772   1.071   0.423 -0.9879  0.8075 -0.9223
  184SOL    MW4  811   2.710   1.122   0.459 -0.7079  0.4925  0.0353
  185SOL     OW  812   0.627   1.947   0.616 -0.1319 -0.1813  0.4268
  185SOL    HW2  813   0.565   1.934   0.688  0.5362 -0.6418  0.9245
  185SOL    HW3  814   0.595   2.025   0.572  0.7535  1.4614  2.6005
  185SOL    MW4  815   0.614   1.955   0.620  0.0731 -0.0254  0.7792
  186SOL     OW  816   3.165   2.210   0.472  0.1938  0.0075 -0.5053
  186SOL    HW2  817   3.128   2.293   0.443  0.0506  1.0503  2.5627
  186SOL    HW3  818   3.228   2.234   0.540  2.8248 -2.1395 -2.0480
  186SOL    MW4  819   3.168   2.224   0.477  0.5217 -0.1383 -0.3041
  187SOL     OW  820   3.206   1.310   0.485 -0.4279  0.0192  0.0092
  187SOL    HW2  821   3.241   1.302   0.573 -0.5859 -2.3841 -0.1073
  187SOL    HW3  822   3.268   1.366   0.439  1.3609 -1.2473  0.8129
  187SOL    MW4  823   3.218   1.316   0.490 -0.2129 -0.4648  0.0998
  188SOL     OW  824   3.443   3.767   0.888  0.0403 -0.2292 -0.0789
  188SOL    HW2  825   3.425   3.811   0.971  0.1745 -1.2727  0.5125
  188SOL    HW3  826   3.513   3.818   0.847 -1.1501  1.2319 -0.3025
  188SOL    MW4  827   3.450   3.779   0.893 -0.0989 -0.1740 -0.0304
  189SOL     OW  828   2.205   0.414   0.358  0.2135  0.0390 -0.2201
  189SOL    HW2  829   2.286   0.383   0.397  0.7188 -0.0848 -1.3493
  189SOL    HW3  830   2.215   0.509   0.354 -0.1000  0.1099  0.5031
  189SOL    MW4  831   2.217   0.422   0.363  0.2387  0.0320 -0.2736
  190SOL     OW  832   0.736   0.035   0.469  0.2490  0.4402 -0.0916
  190SOL    HW2  833   0.728   0.076   0.555  1.3694 -2.1731  1.3157
  190SOL    HW3  834   0.785   0.099   0.416 -0.0419  1.8720  1.3368
  190SOL    MW4  835   0.742   0.049   0.473  0.3585  0.2843  0.2826
  191SOL     OW  836   3.136   3.227   0.710  0.0824 -0.5175 -0.5654
  191SOL    HW2  837   3.080   3.174   0.767 -0.4143 -0.1227 -0.6813
  191SOL    HW3  838   3.158   3.303   0.763 -0.1335 -0.2966 -0.7897
  191SOL    MW4  839   3.131   3.230   0.725 -0.0117 -0.4365 -0.6103
  192SOL     OW  840   2.620   0.109   0.758  0.0742 -0.0242 -0.2790
  192SOL    HW2  841   2.617   0.199   0.790  0.7023  0.2291 -0.9234
  192SOL    HW3  842   2.627   0.117   0.663  1.8919 -0.7199 -0.2322
  192SOL    MW4  843   2.621   0.122   0.750  0.3967 -0.0826 -0.3577
  193SOL     OW  844   3.346   2.551   0.378  0.4910  0.3485 -0.2420
  193SOL    HW2  845   3.370   2.642   0.394 -0.2289  0.2265  1.6530
  193SOL    HW3  846   3.428   2.503   0.386  0.4051  0.4882  1.6958
  193SOL    MW4  847   3.360   2.557   0.381  0.3848  0.3510  0.2637
  194SOL     OW  848   3.634   3.682   0.464  0.3413 -0.0704 -0.0114
  194SOL    HW2  849   3.718   3.706   0.504  0.6203 -1.3864  0.2195
  194SOL    HW3  850   3.582   3.762   0.467  1.2537  0.5038  0.7233
  194SOL    MW4  851   3.638   3.696   0.470  0.4983 -0.1683  0.1160
  195SOL     OW  852   3.494   3.907   0.524 -0.4255 -0.7658  0.3023
  195SOL    HW2  853   3.403   3.903   0.554 -0.5306  0.9396  0.2920
  195SOL    HW3  854   3.500   3.992   0.479  0.7528 -1.5649 -1.0728
  195SOL    MW4  855   3.482   3.918   0.522 -0.2840 -0.6464  0.1196
  196SOL     OW  856   3.004   3.100   0.467 -0.2681  0.0628 -0.2261
  196SOL    HW2  857   2.940   3.168   0.445 -1.5979 -0.8668  0.7166
  196SOL    HW3  858   3.037   3.125   0.553  0.8261  0.6655 -0.8095
  196SOL    MW4  859   3.000   3.112   0.475 -0.2990  0.0198 -0.1787
  197SOL     OW  860   1.818   4.255   1.102 -0.0212  0.0890  0.5077
  197SOL    HW2  861   1.854   4.242   1.014 -1.4934  0.6954 -0.2008
  197SOL    HW3  862   1.804   4.167   1.136  1.2029 -0.1506  0.4129
  197SOL    MW4  863   1.821   4.242   1.095 -0.0540  0.1373  0.4017
  198SOL     OW  864   0.435   2.596   0.582 -0.3329  0.0906  0.0062
  198SOL    HW2  865   0.346   2.592   0.548 -0.7520  0.1867  1.1029
  198SOL    HW3  866   0.453   2.507   0.612 -0.1815  0.1594  0.1190
  198SOL    MW4  867   0.426   2.584   0.581 -0.3682  0.1125  0.1658
  199SOL     OW  868   4.247   4.640   0.794 -0.0842 -0.1307  0.4302
  199SOL    HW2  869   4.171   4.589   0.766 -2.0156  2.4678  0.8695
  199SOL    HW3  870   4.244   4.638   0.889 -0.3160  1.0057  0.4518
  199SOL    MW4  871   4.237   4.633   0.803 -0.3695  0.3624  0.4910
  200SOL     OW  872   2.903   4.330   0.510 -0.4259 -0.3260  0.2589
  200SOL    HW2  873   2.893   4.356   0.601  1.6818 -0.3496  0.5420
  200SOL    HW3  874   2.968   4.391   0.475 -0.5246 -0.9030 -0.9663
  200SOL    MW4  875   2.911   4.341   0.517 -0.1609 -0.4058  0.1346
  201SOL     OW  876   3.894   1.274   0.131 -0.2794  0.1393 -0.0139
  201SOL    HW2  877   3.958   1.291   0.200 -0.7157 -0.6639  0.6054
  201SOL    HW3  878   3.940   1.293   0.050  0.4104  0.5821  0.4740
  201SOL    MW4  879   3.908   1.279   0.130 -0.2460  0.0917  0.1322
  202SOL     OW  880   3.753   0.670   0.839 -0.4312 -0.1384 -0.0995
  202SOL    HW2  881   3.760   0.699   0.929 -0.7250 -0.1757 -0.0645
  202SOL    HW3  882   3.756   0.751   0.787 -0.3593 -0.1108 -0.0522
  202SOL    MW4  883   3.755   0.685   0.844 -0.4604 -0.1397 -0.0886
  203SOL     OW  884   4.220   0.741   0.861 -0.0886 -0.0877  0.1879
  203SOL    HW2  885   4.134   0.703   0.842 -0.8882  1.3093  0.9662
  203SOL    HW3  886   4.281   0.667   0.851 -1.2180 -0.8182 -1.5555
  203SOL    MW4  887   4.216   0.726   0.857 -0.3424  0.0002  0.0606
  204SOL     OW  888   4.077   0.735   0.373 -0.1833  0.0102  0.0876
  204SOL    HW2  889   3.987   0.767   0.365 -0.6367 -1.4189 -0.6997
  204SOL    HW3  890   4.123   0.805   0.420 -1.8418  0.4821  1.0650
  204SOL    MW4  891   4.071   0.748   0.378 -0.4621 -0.1161  0.1127
  205SOL     OW  892   4.290   1.379   0.540 -0.0722  0.7299 -0.3267
  205SOL    HW2  893   4.271   1.356   0.449  1.6276  2.2250 -1.0823
  205SOL    HW3  894   4.384   1.363   0.550 -0.0916  1.3307  0.9366
  205SOL    MW4  895   4.300   1.374   0.529  0.1493  1.0064 -0.2596
  206SOL     OW  896   2.361   1.929   0.418  0.0779  0.3076 -0.0303
  206SOL    HW2  897   2.416   1.876   0.360  1.5349  0.9051  0.7590
  206SOL    HW3  898   2.413   1.937   0.499 -1.4650  0.3429  0.9734
  206SOL    MW4  899   2.375   1.923   0.421  0.0668  0.3912  0.2063
  207SOL     OW  900   2.952   2.017   0.498  0.0181 -0.3741  0.3864
  207SOL    HW2  901   3.014   2.089   0.484 -0.2853  0.2344  2.0629
  207SOL    HW3  902   2.939   2.014   0.593 -2.0920 -0.8530  0.1169
  207SOL    MW4  903   2.958   2.026   0.509 -0.3004 -0.3572  0.5720
  208SOL     OW  904   3.232   1.655   0.261  0.0190  0.1135 -0.5214
  208SOL    HW2  905   3.248   1.702   0.180  0.6133  0.0012 -0.4651
  208SOL    HW3  906   3.155   1.698   0.299  1.0365  1.5497 -0.0801
  208SOL    MW4  907   3.224   1.667   0.255  0.2315  0.2881 -0.4557
  209SOL     OW  908   2.873   2.063   0.757 -0.0432 -0.1142  0.2690
  209SOL    HW2  909   2.801   2.015   0.799  0.0629 -0.2788  0.2645
  209SOL    HW3  910   2.860   2.154   0.784 -0.1719 -0.1659  0.3833
  209SOL    MW4  911   2.861   2.069   0.766 -0.0463 -0.1428  0.2835
  210SOL     OW  912   3.131   1.966   0.855 -0.4769  0.2314 -0.4130
  210SOL    HW2  913   3.126   1.949   0.949 -0.0035 -0.8002 -0.5722
  210SOL    HW3  914   3.046   2.004   0.833 -1.4388 -1.6138  0.0171
  210SOL    MW4  915   3.119   1.969   0.865 -0.5412 -0.1483 -0.3772
  211SOL     OW  916   0.280   3.349   0.267  0.3743  0.6061 -0.0145
  211SOL    HW2  917   0.193   3.383   0.248  0.5835  1.0093 -0.2694
  211SOL    HW3  918   0.338   3.425   0.259  0.7993  0.2647 -0.2337
  211SOL    MW4  919   0.276   3.363   0.263  0.4579  0.6139 -0.0770
  212SOL     OW  920   2.695   2.069   0.426 -0.1674  0.0910  0.6707
  212SOL    HW2  921   2.781   2.065   0.467 -0.4746 -2.6484  1.1571
  212SOL    HW3  922   2.635   2.035   0.492 -1.6236  1.8922  0.3109
  212SOL    MW4  923   2.698   2.064   0.440 -0.4001 -0.0329  0.6874
  213SOL     OW  924   2.606   3.207   0.183  0.4020 -0.1031 -0.1686
  213SOL    HW2  925   2.565   3.126   0.215 -0.1326  0.4388  0.5217
  213SOL    HW3  926   2.651   3.180   0.103 -0.6197 -0.8877 -0.5015
  213SOL    MW4  927   2.606   3.193   0.176  0.1965 -0.1352 -0.1214
  214SOL     OW  928   2.772   3.246   0.756  0.1769  0.2332 -0.3493
  214SOL    HW2  929   2.795   3.256   0.664  0.0317  0.7424 -0.3336
  214SOL    HW3  930   2.769   3.336   0.790  0.4127  0.0422  0.1930
  214SOL    MW4  931   2.775   3.260   0.749  0.1891  0.2751 -0.2757
  215SOL     OW  932   0.291   2.805   0.257 -0.1343  0.0787 -0.5865
  215SOL    HW2  933   0.239   2.870   0.305 -0.0668 -0.8223  0.7571
  215SOL    HW3  934   0.253   2.721   0.281 -1.1307 -0.3307 -3.4499
  215SOL    MW4  935   0.279   2.802   0.267 -0.2569 -0.0939 -0.7870
  216SOL     OW  936   3.712   3.489   0.873  0.3090  0.1945 -0.3044
  216SOL    HW2  937   3.740   3.400   0.851  0.4129  0.4051 -1.0636
  216SOL    HW3  938   3.619   3.491   0.849 -0.2912 -0.4061  1.9053
  216SOL    MW4  939   3.703   3.478   0.867  0.2437  0.1431 -0.1131
  217SOL     OW  940   4.483   2.998   0.566 -0.3284 -0.4468 -0.4809
  217SOL    HW2  941   4.546   3.012   0.495  0.0096 -0.9166 -0.2736
  217SOL    HW3  942   4.486   3.080   0.616 -2.1669  0.7537 -2.2420
  217SOL    MW4  943   4.492   3.011   0.563 -0.5264 -0.3507 -0.6859
  218SOL     OW  944   3.595   1.670   0.626  0.3539  0.2091  0.0863
  218SOL    HW2  945   3.530   1.646   0.692  1.9796 -1.1661  1.2352
  218SOL    HW3  946   3.664   1.714   0.675  1.6522 -0.9619 -0.6571
  218SOL    MW4  947   3.596   1.672   0.641  0.7398 -0.1268  0.1398
  219SOL     OW  948   3.862   4.060   0.685  0.1314 -0.5423  0.1344
  219SOL    HW2  949   3.828   4.122   0.620  2.1074  0.4237 -0.0216
  219SOL    HW3  950   3.784   4.023   0.726 -1.1173  0.4290 -1.2927
  219SOL    MW4  951   3.847   4.063   0.681  0.2272 -0.2866 -0.0745
  220SOL     OW  952   0.204   3.864   0.801 -0.1068 -0.1901  0.3251
  220SOL    HW2  953   0.203   3.843   0.894 -2.8091  0.3572  0.4744
  220SOL    HW3  954   0.217   3.959   0.798 -0.6752 -0.1131  0.1835
  220SOL    MW4  955   0.206   3.874   0.813 -0.5383 -0.1078  0.3261
  221SOL     OW  956   3.275   3.916   0.710 -0.0553  0.1475 -0.0284
  221SOL    HW2  957   3.325   3.889   0.787  1.7644  0.7964 -0.9352
  221SOL    HW3  958   3.185   3.888   0.728  0.0552  1.4855  2.9293
  221SOL    MW4  959   3.270   3.909   0.723  0.1996  0.4098  0.2422
  222SOL     OW  960   3.971   3.040   0.389  0.1663 -0.4798  0.3070
  222SOL    HW2  961   3.878   3.018   0.386 -0.0377  0.4040 -0.0462
  222SOL    HW3  962   4.016   2.956   0.396 -0.6478 -0.9298  0.1189
  222SOL    MW4  963   3.965   3.026   0.390  0.0324 -0.4227  0.2356
  223SOL     OW  964   3.933   1.499   0.476  0.3404 -0.3718  0.2863
  223SOL    HW2  965   3.859   1.458   0.522  0.0598  0.6834  0.8086
  223SOL    HW3  966   3.986   1.536   0.547  0.5763  0.1698 -0.1777
  223SOL    MW4  967   3.930   1.498   0.492  0.3343 -0.1612  0.2940
  224SOL     OW  968   3.756   0.903   0.687  0.1535  0.1323  0.1005
  224SOL    HW2  969   3.671   0.942   0.670 -0.4048 -1.6448 -1.3563
  224SOL    HW3  970   3.801   0.967   0.742 -1.6959  1.5904 -0.0213
  224SOL    MW4  971   3.751   0.916   0.692 -0.1640  0.0902 -0.1077
  225SOL     OW  972   2.639   2.558   0.412  0.0123  0.5791 -0.2240
  225SOL    HW2  973   2.632   2.546   0.507 -1.3188 -0.2274 -0.3986
  225SOL    HW3  974   2.717   2.611   0.399  0.1951  0.6960  1.3286
  225SOL    MW4  975   2.648   2.563   0.423 -0.1392  0.4885 -0.0422
  226SOL     OW  976   2.716   0.566   0.688 -0.0354  0.8757 -0.7829
  226SOL    HW2  977   2.655   0.504   0.728  0.6747  0.8391  0.2516
  226SOL    HW3  978   2.675   0.589   0.604 -0.9385  0.0250 -0.5810
  226SOL    MW4  979   2.702   0.561   0.682 -0.0608  0.7586 -0.6199
  227SOL     OW  980   0.542   4.060   0.235  0.4608  0.1722  0.1744
  227SOL    HW2  981   0.471   4.009   0.273  0.2486  0.4642  0.1745
  227SOL    HW3  982   0.514   4.079   0.145  1.1122 -0.8045 -0.2445
  227SOL    MW4  983   0.529   4.056   0.228  0.5187  0.0820  0.1192
  228SOL     OW  984   4.112   2.807   0.439 -0.4894 -0.0879 -0.1561
  228SOL    HW2  985   4.137   2.794   0.530 -2.9009 -2.1926  0.2617
  228SOL    HW3  986   4.115   2.720   0.400 -1.2401  0.5079 -1.6094
  228SOL    MW4  987   4.116   2.794   0.446 -0.9069 -0.2871 -0.2927
  229SOL     OW  988   0.386   1.052   0.297 -0.3978 -0.0501  0.2668
  229SOL    HW2  989   0.320   1.002   0.344 -0.3619 -1.5440 -1.2029
  229SOL    HW3  990   0.339   1.091   0.223  0.2761 -0.9178 -0.6432
  229SOL    MW4  991   0.371   1.051   0.293 -0.3042 -0.3618 -0.0472
  230SOL     OW  992   0.184   3.061   0.369  0.0041 -0.4324 -0.7483
  230SOL    HW2  993   0.118   3.097   0.310  0.2330  1.5033  0.1526
  230SOL    HW3  994   0.266   3.102   0.341  0.3001 -0.4012  0.1510
  230SOL    MW4  995   0.186   3.071   0.357  0.0734 -0.1729 -0.5108
  231SOL     OW  996   4.482   3.276   0.665  0.0484  0.7043 -0.5429
  231SOL    HW2  997   4.523   3.345   0.716  0.0364  1.1553 -1.1432
  231SOL    HW3  998   4.441   3.321   0.591  0.5177  0.0030 -1.2404
  231SOL    MW4  999   4.482   3.291   0.662  0.1087  0.6714 -0.7142
  232SOL     OW 1000   3.346   1.760   0.511 -0.0588  0.0912  0.2032
  232SOL    HW2 1001   3.434   1.736   0.538 -0.6238 -0.8630  1.2108
  232SOL    HW3 1002   3.326   1.701   0.438 -0.3522 -0.5390  0.7998
  232SOL    MW4 1003   3.355   1.749   0.505 -0.1719 -0.1178  0.4148
  233SOL     OW 1004   0.184   2.619   0.455 -0.6846 -0.1890  0.1612
  233SOL    HW2 1005   0.139   2.537   0.477 -0.9731  0.0108  0.3294
  233SOL    HW3 1006   0.148   2.682   0.517 -0.8983  0.1970 -0.3519
  233SOL    MW4 1007   0.173   2.616   0.466 -0.7509 -0.1121  0.1157
  234SOL     OW 1008   0.920   1.208   0.780 -0.1534  0.3443 -0.1205
  234SOL    HW2 1009   0.930   1.114   0.768 -0.2803  0.2045  0.8317
  234SOL    HW3 1010   0.999   1.246   0.742 -0.4055 -0.1032 -1.0840
  234SOL    MW4 1011   0.932   1.201   0.774 -0.2034  0.2669 -0.1220
  235SOL     OW 1012   4.108   2.297   0.510  0.0922  0.0013 -0.5175
  235SOL    HW2 1013   4.198   2.306   0.542  0.3606  1.8988 -1.6896
  235SOL    HW3 1014   4.054   2.342   0.575  0.4687  2.5075 -1.8903
  235SOL    MW4 1015   4.113   2.304   0.523  0.1769  0.5822 -0.8533
  236SOL     OW 1016   3.615   3.939   0.770 -0.1541  0.1238  0.0136
  236SOL    HW2 1017   3.584   3.943   0.680  1.3310  0.8622 -0.4821
  236SOL    HW3 1018   3.578   4.017   0.812 -1.4618 -0.6136  0.2667
  236SOL    MW4 1019   3.606   3.950   0.764 -0.1304  0.1237 -0.0185
  237SOL     OW 1020   4.393   3.779   0.460 -0.2055 -0.3165  0.1428
  237SOL    HW2 1021   4.428   3.749   0.544  1.5036  0.6490 -0.1981
  237SOL    HW3 1022   4.378   3.872   0.472 -0.5862 -0.2996 -0.4307
  237SOL    MW4 1023   4.395   3.787   0.473 -0.0300 -0.1867  0.0221
  238SOL     OW 1024   0.411   3.759   0.623  0.2951 -0.2883 -0.5732
  238SOL    HW2 1025   0.332   3.791   0.665 -1.0601 -2.2302 -1.5588
  238SOL    HW3 1026   0.421   3.813   0.545 -0.4316 -0.4566 -0.7873
  238SOL    MW4 1027   0.402   3.770   0.618  0.0204 -0.5665 -0.7315
  239SOL     OW 1028   1.483   4.252   0.255  0.1352  0.1078 -0.3395
  239SOL    HW2 1029   1.433   4.304   0.192 -0.0056  0.4422  0.0422
  239SOL    HW3 1030   1.526   4.316   0.310  0.3973 -0.1839 -0.2040
  239SOL    MW4 1031   1.482   4.267   0.254  0.1513  0.1130 -0.2713
  240SOL     OW 1032   1.611   3.644   0.658 -0.0737  0.1152  0.1829
  240SOL    HW2 1033   1.653   3.582   0.717  0.4128  0.5990  0.3404
  240SOL    HW3 1034   1.681   3.701   0.628 -0.9019  1.9805  1.7592
  240SOL    MW4 1035   1.626   3.643   0.662 -0.1187  0.4253  0.4117
  241SOL     OW 1036   3.085   2.697   0.812  0.1093 -0.4074 -0.2158
  241SOL    HW2 1037   3.170   2.724   0.777  0.2427 -0.2560  0.2261
  241SOL    HW3 1038   3.077   2.605   0.786 -0.0364 -0.1545 -1.1140
  241SOL    MW4 1039   3.095   2.688   0.804  0.1078 -0.3543 -0.2760
  242SOL     OW 1040   4.476   0.497   0.499  0.4796  0.1077  0.1333
  242SOL    HW2 1041   4.556   0.444   0.491  0.2897 -0.2836  0.7778
  242SOL    HW3 1042   4.406   0.439   0.468  0.4847  0.5614 -0.7311
  242SOL    MW4 1043   4.478   0.482   0.494  0.4549  0.1159  0.1042
  243SOL     OW 1044   3.519   4.175   0.892 -0.0549  0.1147  0.1010
  243SOL    HW2 1045   3.564   4.169   0.975 -1.5955  0.7262  1.0063
  243SOL    HW3 1046   3.566   4.243   0.843  0.6475 -0.0143  0.6008
  243SOL    MW4 1047   3.531   4.184   0.896 -0.1652  0.1779  0.2864
  244SOL     OW 1048   4.088   1.298   0.345 -0.1342  0.1054  0.1168
  244SOL    HW2 1049   4.103   1.220   0.399  0.1707 -0.4522 -0.7557
  244SOL    HW3 1050   4.038   1.357   0.401  0.2818 -0.4103  1.0504
  244SOL    MW4 1051   4.083   1.295   0.359 -0.0391 -0.0362  0.1248
  245SOL     OW 1052   2.854   0.730   0.869  0.2219 -0.1290 -0.1044
  245SOL    HW2 1053   2.834   0.719   0.962  1.2127 -0.3111  0.0967
  245SOL    HW3 1054   2.809   0.658   0.825 -1.4313  0.7815  0.0594
  245SOL    MW4 1055   2.845   0.719   0.875  0.1345 -0.0330 -0.0562
  246SOL     OW 1056   3.937   1.119   0.820 -0.4064  0.0455 -0.0077
  246SOL    HW2 1057   3.972   1.111   0.909 -0.1052  0.0777 -0.1234
  246SOL    HW3 1058   4.014   1.134   0.765 -0.4321 -1.4916 -0.4749
  246SOL    MW4 1059   3.952   1.120   0.825 -0.3700 -0.1529 -0.0846
  247SOL     OW 1060   0.231   4.637   0.850  0.0494  0.0722  0.0210
  247SOL    HW2 1061   0.175   4.570   0.811 -1.1519  0.3685  1.2155
  247SOL    HW3 1062   0.320   4.604   0.839 -0.5254 -1.6716  0.5320
  247SOL    MW4 1063   0.236   4.624   0.843 -0.1849 -0.1187  0.2460
  248SOL     OW 1064   4.266   0.274   0.793  0.2782 -0.0108 -0.0193
  248SOL    HW2 1065   4.347   0.298   0.839 -0.8251 -0.7633  2.3898
  248SOL    HW3 1066   4.265   0.179   0.794 -0.3562 -0.0122 -0.5905
  248SOL    MW4 1067   4.277   0.265   0.799  0.0482 -0.1102  0.2232
  249SOL     OW 1068   4.469   4.231   0.866  0.5064 -0.1113 -0.6133
  249SOL    HW2 1069   4.407   4.166   0.834 -0.4979  0.4151  0.2335
  249SOL    HW3 1070   4.468   4.222   0.961  0.8440  0.7044 -0.5229
  249SOL    MW4 1071   4.461   4.221   0.874  0.4187  0.0658 -0.4896
  250SOL     OW 1072   1.020   0.163   0.681  0.1756  0.1899 -0.4604
  250SOL    HW2 1073   1.043   0.091   0.740 -0.6624  0.0020 -0.3550
  250SOL    HW3 1074   0.988   0.232   0.739  0.5079  0.4609 -0.6004
  250SOL    MW4 1075   1.019   0.162   0.697  0.1090  0.2009 -0.4649
  251SOL     OW 1076   0.198   0.733   0.824  0.8195  0.1340  0.3405
  251SOL    HW2 1077   0.198   0.721   0.919 -0.6205  2.8167  0.7028
  251SOL    HW3 1078   0.110   0.710   0.797  0.8703  0.5586 -0.1828
  251SOL    MW4 1079   0.187   0.728   0.833  0.6362  0.5440  0.3192
  252SOL     OW 1080   0.059   0.377   0.855 -0.1607  0.3123 -0.2914
  252SOL    HW2 1081   0.151   0.367   0.832 -0.5112 -0.5921 -1.2883
  252SOL    HW3 1082   0.058   0.371   0.951  1.0343  2.1107 -0.1306
  252SOL    MW4 1083   0.071   0.375   0.865 -0.0493  0.4303 -0.4017
  253SOL     OW 1084   4.106   1.526   0.709 -0.2276 -0.7174  0.0591
  253SOL    HW2 1085   4.163   1.594   0.745 -1.5510  0.8456 -0.7292
  253SOL    HW3 1086   4.165   1.471   0.657  0.5110  1.2003 -1.2030
  253SOL    MW4 1087   4.121   1.528   0.707 -0.3052 -0.2582 -0.2114
  254SOL     OW 1088   0.819   0.816   0.482  0.1064  0.1997  0.2642
  254SOL    HW2 1089   0.768   0.893   0.455  1.1199  0.5878 -0.5803
  254SOL    HW3 1090   0.845   0.835   0.572 -0.7270  0.2731  0.4894
  254SOL    MW4 1091   0.816   0.829   0.490  0.1303  0.2606  0.1825
  255SOL     OW 1092   4.479   1.131   0.764 -0.1996 -0.1373  0.2785
  255SOL    HW2 1093   4.480   1.130   0.860  0.2974  1.3064  0.3062
  255SOL    HW3 1094   4.412   1.068   0.739 -2.3709  1.5584  1.6370
  255SOL    MW4 1095   4.471   1.123   0.773 -0.4205  0.2769  0.4613
  256SOL     OW 1096   0.128   1.582   0.660  0.0020 -0.1527  0.1374
  256SOL    HW2 1097   0.170   1.631   0.589 -0.4035  1.3318  0.9081
  256SOL    HW3 1098   0.105   1.498   0.620  0.4283  0.3931 -1.2905
  256SOL    MW4 1099   0.130   1.577   0.645  0.0047  0.1152  0.0507
  257SOL     OW 1100   4.061   2.539   0.336 -0.6659 -0.1935 -0.2622
  257SOL    HW2 1101   4.046   2.513   0.245  0.6136 -1.4301 -0.1354
  257SOL    HW3 1102   4.078   2.456   0.382 -2.1144  0.3303  1.2732
  257SOL    MW4 1103   4.061   2.524   0.330 -0.6881 -0.2878 -0.0429
  258SOL     OW 1104   4.334   1.940   0.624 -0.0292  0.2937  0.5755
  258SOL    HW2 1105   4.382   1.913   0.545  1.8362  1.0014  1.4158
  258SOL    HW3 1106   4.251   1.975   0.592  0.8047  0.7761 -1.1011
  258SOL    MW4 1107   4.330   1.941   0.609  0.3276  0.4507  0.4652
  259SOL     OW 1108   0.246   2.231   0.836  0.1046 -0.4297  0.6974
  259SOL    HW2 1109   0.232   2.242   0.930  0.7383  2.0341  0.5340
  259SOL    HW3 1110   0.236   2.137   0.822 -1.6863 -0.6291  2.9411
  259SOL    MW4 1111   0.243   2.220   0.847 -0.0480 -0.1309  0.9719
  260SOL     OW 1112   0.026   1.873   0.416  0.2498 -0.2922 -0.4624
  260SOL    HW2 1113   0.088   1.946   0.409  0.8046 -0.7750 -0.5844
  260SOL    HW3 1114   0.078   1.795   0.400  0.1999 -0.9286  2.1787
  260SOL    MW4 1115   0.041   1.872   0.413  0.3164 -0.4398 -0.1300
  261SOL     OW 1116   4.260   2.399   0.865  0.6491 -0.1757 -0.2210
  261SOL    HW2 1117   4.301   2.344   0.799  0.0347  1.1655 -1.7533
  261SOL    HW3 1118   4.171   2.413   0.833 -0.5825 -1.8020  2.3092
  261SOL    MW4 1119   4.253   2.394   0.852  0.4058 -0.2131 -0.0893
  262SOL     OW 1120   0.316   3.314   0.552  0.3541  0.3611 -0.1235
  262SOL    HW2 1121   0.314   3.336   0.459 -1.1504 -1.2103 -0.4839
  262SOL    HW3 1122   0.234   3.348   0.587  0.5457  0.2205  0.4669
  262SOL    MW4 1123   0.305   3.321   0.545  0.1809  0.1352 -0.0932
  263SOL     OW 1124   0.626   3.414   0.628 -0.4958  0.4142  0.0433
  263SOL    HW2 1125   0.683   3.414   0.552 -0.1967  0.9763  0.2670
  263SOL    HW3 1126   0.632   3.324   0.663 -0.5382  0.1936 -0.5157
  263SOL    MW4 1127   0.634   3.402   0.623 -0.4619  0.4594 -0.0011
  264SOL     OW 1128   0.238   1.676   0.429  0.8321  0.0376  0.5195
  264SOL    HW2 1129   0.251   1.597   0.377  0.0232  0.6096 -0.5710
  264SOL    HW3 1130   0.326   1.713   0.441  1.1388 -0.6965  0.5174
  264SOL    MW4 1131   0.251   1.671   0.424  0.7658  0.0162  0.3754
  265SOL     OW 1132   4.051   3.576   0.815 -0.3603  0.0333 -0.4863
  265SOL    HW2 1133   3.983   3.643   0.830 -0.2480  0.0153  0.1116
  265SOL    HW3 1134   4.035   3.511   0.883  0.5880  0.2919 -0.0132
  265SOL    MW4 1135   4.040   3.576   0.826 -0.2198  0.0651 -0.3449
  266SOL     OW 1136   0.246   3.063   1.068  0.1951  0.1595  0.0205
  266SOL    HW2 1137   0.267   3.025   0.983  0.3012  0.2396  0.0103
  266SOL    HW3 1138   0.327   3.108   1.095  0.3980 -0.4793  0.4936
  266SOL    MW4 1139   0.260   3.064   1.061  0.2358  0.0858  0.0817
  267SOL     OW 1140   1.061   3.835   0.820  0.3053 -0.0078 -0.7553
  267SOL    HW2 1141   1.087   3.850   0.911 -2.3790 -1.2010  0.2744
  267SOL    HW3 1142   1.139   3.797   0.779  1.7966  1.2295  0.8190
  267SOL    MW4 1143   1.075   3.832   0.827  0.1478 -0.0021 -0.4117
  268SOL     OW 1144   4.367   4.058   0.494 -0.2054 -0.1958 -0.2730
  268SOL    HW2 1145   4.318   4.128   0.452 -0.2272 -0.3822 -0.5561
  268SOL    HW3 1146   4.456   4.065   0.459  0.1477  0.5805  0.7655
  268SOL    MW4 1147   4.372   4.068   0.484 -0.1616 -0.1178 -0.1734
  269SOL     OW 1148   0.230   4.139   0.757  0.1273 -0.1752  0.0570
  269SOL    HW2 1149   0.154   4.161   0.812 -0.8587  1.1252 -1.7425
  269SOL    HW3 1150   0.306   4.153   0.813 -1.0028 -3.2067  2.4528
  269SOL    MW4 1151   0.230   4.144   0.771 -0.1519 -0.4039  0.1357
  270SOL     OW 1152   0.833   4.209   0.828 -0.0879 -0.2532  0.1070
  270SOL    HW2 1153   0.757   4.185   0.775  0.7633 -1.9278 -0.3665
  270SOL    HW3 1154   0.907   4.167   0.786  0.7812 -0.6253  1.9376
  270SOL    MW4 1155   0.833   4.201   0.816  0.1391 -0.5231  0.2861
  271SOL     OW 1156   0.454   4.454   0.834 -0.4715  0.6691 -0.2024
  271SOL    HW2 1157   0.531   4.509   0.850  1.1112 -1.5655  0.1846
  271SOL    HW3 1158   0.463   4.425   0.743 -1.7855  1.7799 -0.6940
  271SOL    MW4 1159   0.465   4.457   0.824 -0.4361  0.5207 -0.2162
  272SOL     OW 1160   0.648   4.241   0.438 -0.0211 -0.0317  0.4881
  272SOL    HW2 1161   0.654   4.172   0.504 -0.4381  0.5906  1.1805
  272SOL    HW3 1162   0.601   4.201   0.366 -0.6518 -0.3388  1.0688
  272SOL    MW4 1163   0.643   4.227   0.437 -0.1594  0.0105  0.6561
  273SOL     OW 1164   0.393   0.554   0.728 -0.1989 -0.1972 -0.1291
  273SOL    HW2 1165   0.328   0.610   0.770 -1.6671 -1.8632 -0.1064
  273SOL    HW3 1166   0.382   0.572   0.634 -0.7903 -0.5593 -0.1332
  273SOL    MW4 1167   0.383   0.564   0.721 -0.4706 -0.4647 -0.1267
  274SOL     OW 1168   1.298   0.326   0.358 -0.0878 -0.0870 -0.0996
  274SOL    HW2 1169   1.210   0.362   0.369  0.4982  1.1486  0.6235
  274SOL    HW3 1170   1.334   0.372   0.282  0.5708  0.6749  0.6694
  274SOL    MW4 1171   1.291   0.337   0.349  0.0764  0.1766  0.0973
  275SOL     OW 1172   0.490   1.266   0.865  0.3836  0.2665  0.4283
  275SOL    HW2 1173   0.573   1.312   0.853 -0.7027  1.8090 -1.5499
  275SOL    HW3 1174   0.490   1.198   0.798  0.0971  0.2258  0.4690
  275SOL    MW4 1175   0.501   1.263   0.854  0.2025  0.4647  0.1727
  276SOL     OW 1176   0.319   0.321   0.845  0.4982 -0.2071 -0.4279
  276SOL    HW2 1177   0.337   0.255   0.778  1.9453 -0.8599  0.5782
  276SOL    HW3 1178   0.363   0.400   0.813  1.3604 -0.5727 -0.1503
  276SOL    MW4 1179   0.327   0.322   0.832  0.8029 -0.3414 -0.2586
  277SOL     OW 1180   0.743   1.295   0.440 -0.2360  0.0987 -0.1017
  277SOL    HW2 1181   0.784   1.287   0.525 -0.5413  0.0479  0.0422
  277SOL    HW3 1182   0.809   1.336   0.384 -0.2427  0.6683  0.3062
  277SOL    MW4 1183   0.757   1.299   0.444 -0.2771  0.1673 -0.0289
  278SOL     OW 1184   1.268   1.277   0.402 -0.0927  0.0765 -0.2861
  278SOL    HW2 1185   1.259   1.182   0.395  2.0500 -0.1906  0.1722
  278SOL    HW3 1186   1.361   1.291   0.418 -0.1296  2.3549 -1.7807
  278SOL    MW4 1187   1.279   1.266   0.403  0.1851  0.3418 -0.4228
  279SOL     OW 1188   0.440   1.818   0.826  0.4347 -0.0028 -0.0975
  279SOL    HW2 1189   0.467   1.832   0.916 -0.3788  2.5780 -0.2276
  279SOL    HW3 1190   0.416   1.725   0.822  1.5355 -0.3920  2.0430
  279SOL    MW4 1191   0.440   1.807   0.837  0.4726  0.2862  0.1677
  280SOL     OW 1192   0.716   1.410   0.793 -0.4922  0.2706 -0.4129
  280SOL    HW2 1193   0.733   1.454   0.876 -2.4657  0.1287  0.0891
  280SOL    HW3 1194   0.784   1.343   0.787  0.2299  0.8902  0.6329
  280SOL    MW4 1195   0.728   1.407   0.803 -0.6573  0.3335 -0.2087
  281SOL     OW 1196   0.005   1.788   0.817 -0.1956  0.5374  0.5979
  281SOL    HW2 1197   0.046   1.711   0.779 -1.7826 -1.3225  2.4969
  281SOL    HW3 1198  -0.048   1.826   0.747  0.9163  0.1430 -0.4552
  281SOL    MW4 1199   0.003   1.783   0.803 -0.2589  0.2400  0.7095
  282SOL     OW 1200   0.496   2.159   0.483 -0.2148  0.0265  0.0837
  282SOL    HW2 1201   0.561   2.193   0.422 -0.0380 -0.8451 -0.2218
  282SOL    HW3 1202   0.486   2.228   0.549  0.3844  0.5193 -0.3351
  282SOL    MW4 1203   0.503   2.173   0.484 -0.1124 -0.0234 -0.0119
  283SOL     OW 1204   0.702   2.356   0.858  0.2107 -0.1935  0.8359
  283SOL    HW2 1205   0.711   2.347   0.953  2.7558  2.0410  0.8733
  283SOL    HW3 1206   0.774   2.303   0.822  0.4126  0.4776  0.2340
  283SOL    MW4 1207   0.713   2.347   0.866  0.5731  0.1900  0.7614
  284SOL     OW 1208   1.107   2.703   0.661  0.0762  0.1779 -0.0790
  284SOL    HW2 1209   1.036   2.663   0.611  0.8018 -1.3883  0.1024
  284SOL    HW3 1210   1.067   2.727   0.745 -0.0890 -1.4052  0.3167
  284SOL    MW4 1211   1.093   2.701   0.666  0.1502 -0.2375 -0.0029
  285SOL     OW 1212   0.061   1.330   0.579  0.0920 -0.0175 -0.1240
  285SOL    HW2 1213   0.041   1.270   0.650  1.5663 -0.0622  0.2674
  285SOL    HW3 1214   0.149   1.306   0.552 -0.2692  0.3238 -1.6472
  285SOL    MW4 1215   0.070   1.319   0.585  0.2389  0.0216 -0.2733
  286SOL     OW 1216   0.617   3.820   0.378 -0.2465 -0.1307  0.1502
  286SOL    HW2 1217   0.709   3.795   0.368 -0.6163 -0.7396 -2.1567
  286SOL    HW3 1218   0.609   3.901   0.328 -0.6140  0.8407  1.7564
  286SOL    MW4 1219   0.628   3.827   0.370 -0.3438 -0.0827  0.0578
  287SOL     OW 1220   0.505   2.818   0.461  0.3254  0.1040 -0.2823
  287SOL    HW2 1221   0.472   2.741   0.507 -1.3223  0.6585 -0.5114
  287SOL    HW3 1222   0.450   2.824   0.383  1.9775  0.1556 -1.4786
  287SOL    MW4 1223   0.493   2.808   0.456  0.3260  0.1838 -0.4704
  288SOL     OW 1224   1.300   0.425   0.820  0.1633  0.3782  0.0379
  288SOL    HW2 1225   1.349   0.347   0.792 -1.8093 -0.9954  0.2271
  288SOL    HW3 1226   1.318   0.433   0.913 -0.9301 -0.8987  0.3879
  288SOL    MW4 1227   1.309   0.415   0.828 -0.2413  0.0285  0.1091
  289SOL     OW 1228   0.652   3.164   0.781  0.0066  0.2749  0.8325
  289SOL    HW2 1229   0.591   3.124   0.720 -0.2891  1.2764  0.4552
  289SOL    HW3 1230   0.733   3.113   0.773 -0.2395  0.0018  0.0773
  289SOL    MW4 1231   0.655   3.152   0.772 -0.0648  0.3712  0.6831
  290SOL     OW 1232   0.627   4.095   0.692 -0.0538  0.0944  0.4670
  290SOL    HW2 1233   0.560   4.123   0.754 -1.0614 -0.7990 -0.2085
  290SOL    HW3 1234   0.646   4.004   0.716 -0.9401 -0.4772 -0.9536
  290SOL    MW4 1235   0.621   4.087   0.703 -0.3037 -0.0992  0.1905
  291SOL     OW 1236   0.060   3.469   0.854  0.5300  0.2020  0.2064
  291SOL    HW2 1237   0.060   3.455   0.948  0.5851  1.8447  0.4709
  291SOL    HW3 1238  -0.011   3.532   0.839  0.3745 -0.2162 -0.8678
  291SOL    MW4 1239   0.050   3.476   0.864  0.5167  0.3636  0.0996
  292SOL     OW 1240   1.039   4.090   0.696 -0.0786 -0.0226  0.4917
  292SOL    HW2 1241   1.052   4.006   0.741  1.8449 -0.4820 -0.8468
  292SOL    HW3 1242   1.021   4.066   0.605  1.0826  0.9972 -0.0255
  292SOL    MW4 1243   1.039   4.076   0.690  0.3284  0.0510  0.2468
  293SOL     OW 1244   0.314   3.871   0.334  0.2549 -0.4347  0.3648
  293SOL    HW2 1245   0.251   3.933   0.371 -0.1701  0.6832 -2.0937
  293SOL    HW3 1246   0.260   3.801   0.297  0.5994 -0.8873  0.7191
  293SOL    MW4 1247   0.299   3.870   0.334  0.2443 -0.3469  0.0872
  294SOL     OW 1248   0.896   3.779   0.416 -0.9137  0.1556 -0.1076
  294SOL    HW2 1249   0.944   3.711   0.369  0.4262 -0.2162  1.7438
  294SOL    HW3 1250   0.950   3.857   0.407 -0.6796  0.0946  0.7762
  294SOL    MW4 1251   0.909   3.780   0.408 -0.7060  0.0985  0.2532
  295SOL     OW 1252   0.920   4.282   0.389 -0.0887  0.3370 -0.0747
  295SOL    HW2 1253   0.826   4.262   0.390  0.0216 -0.2693 -0.8716
  295SOL    HW3 1254   0.930   4.357   0.447 -0.9459 -0.1446  0.6968
  295SOL    MW4 1255   0.909   4.289   0.396 -0.1872  0.1936 -0.0781
  296SOL     OW 1256   0.681   0.554   0.743  0.1939  0.0076 -0.4191
  296SOL    HW2 1257   0.586   0.547   0.751  0.1163 -0.8790 -1.9467
  296SOL    HW3 1258   0.697   0.559   0.648  1.5860  1.4564 -0.1406
  296SOL    MW4 1259   0.670   0.554   0.731  0.3673  0.0817 -0.5839
  297SOL     OW 1260   0.716   0.819   0.859 -0.3055  0.0081 -0.3823
  297SOL    HW2 1261   0.697   0.737   0.813  0.7439 -0.0239 -0.7862
  297SOL    HW3 1262   0.661   0.884   0.816 -0.1119 -0.2241 -0.9931
  297SOL    MW4 1263   0.706   0.816   0.847 -0.1415 -0.0267 -0.5162
  298SOL     OW 1264   2.745   1.833   0.291  0.4249 -0.1374  0.3871
  298SOL    HW2 1265   2.727   1.924   0.317  1.6186  0.3241 -0.3677
  298SOL    HW3 1266   2.840   1.826   0.292  0.3610 -1.2155 -0.1382
  298SOL    MW4 1267   2.755   1.844   0.295  0.5741 -0.2187  0.2182
  299SOL     OW 1268   1.354   0.963   0.450 -0.3647  0.1319  0.2645
  299SOL    HW2 1269   1.446   0.960   0.423  0.2136 -0.3348  2.2329
  299SOL    HW3 1270   1.322   0.874   0.438 -0.0788 -0.0991  1.2198
  299SOL    MW4 1271   1.362   0.951   0.445 -0.2506  0.0398  0.6503
  300SOL     OW 1272   1.574   0.741   0.297  0.0875 -0.0166  0.0948
  300SOL    HW2 1273   1.481   0.723   0.311  0.5293 -2.1712  0.4071
  300SOL    HW3 1274   1.587   0.828   0.336 -1.4803 -0.3227  1.3535
  300SOL    MW4 1275   1.563   0.750   0.304 -0.0610 -0.3413  0.3021
  301SOL     OW 1276   1.441   2.441   0.460 -0.4806 -0.0239 -0.6658
  301SOL    HW2 1277   1.470   2.526   0.425 -0.9069 -0.3256 -1.7708
  301SOL    HW3 1278   1.359   2.423   0.414 -0.5958 -0.8619 -0.1493
  301SOL    MW4 1279   1.434   2.450   0.449 -0.5521 -0.1743 -0.7434
  302SOL     OW 1280   1.147   1.312   0.650  0.7326  0.3037  0.1572
  302SOL    HW2 1281   1.187   1.314   0.563  0.0240 -1.7235 -0.2496
  302SOL    HW3 1282   1.203   1.254   0.702 -0.6754 -1.1956  0.0640
  302SOL    MW4 1283   1.160   1.304   0.646  0.4534 -0.1615  0.0912
  303SOL     OW 1284   1.127   1.541   0.801 -0.2717  0.3150 -0.3803
  303SOL    HW2 1285   1.065   1.585   0.742 -0.4244  0.0729 -0.4047
  303SOL    HW3 1286   1.141   1.455   0.760 -0.5978  0.0389  0.0895
  303SOL    MW4 1287   1.121   1.535   0.788 -0.3349  0.2466 -0.3215
  304SOL     OW 1288   1.609   1.528   0.435 -0.2137  0.6099 -0.8555
  304SOL    HW2 1289   1.542   1.590   0.462  0.2938 -0.3072  2.7855
  304SOL    HW3 1290   1.664   1.577   0.373 -1.0624  3.1078  0.2951
  304SOL    MW4 1291   1.608   1.543   0.430 -0.2587  0.8184 -0.2233
  305SOL     OW 1292   0.896   1.943   0.727 -0.2821  0.1456 -0.0855
  305SOL    HW2 1293   0.891   1.935   0.822  0.9379  0.2915 -0.0013
  305SOL    HW3 1294   0.805   1.938   0.697 -0.7833  1.3847  1.1950
  305SOL    MW4 1295   0.884   1.941   0.735 -0.1873  0.3283  0.0946
  306SOL     OW 1296   1.431   1.966   0.403  0.3708  0.1654 -0.0632
  306SOL    HW2 1297   1.384   1.885   0.423  0.7479 -1.0391 -3.7051
  306SOL    HW3 1298   1.517   1.954   0.442 -0.2591 -0.2752  1.2166
  306SOL    MW4 1299   1.436   1.954   0.411  0.3375 -0.0515 -0.3749
  307SOL     OW 1300   1.236   2.230   0.834  0.2273 -0.1787 -0.3844
  307SOL    HW2 1301   1.215   2.240   0.927  0.5921 -1.2118 -0.1835
  307SOL    HW3 1302   1.262   2.318   0.806 -0.7824  0.3345  0.2568
  307SOL    MW4 1303   1.237   2.243   0.843  0.1423 -0.2472 -0.2733
  308SOL     OW 1304   1.265   2.844   0.470  0.4795  0.3621 -0.4290
  308SOL    HW2 1305   1.313   2.899   0.531 -0.9707  0.1641  0.9285
  308SOL    HW3 1306   1.199   2.800   0.524 -0.0273 -0.7623 -1.9223
  308SOL    MW4 1307   1.263   2.845   0.485  0.2213  0.1879 -0.4469
  309SOL     OW 1308   0.926   2.231   0.753 -0.0522  0.4697  0.1169
  309SOL    HW2 1309   1.014   2.228   0.792 -0.3102  0.4229  0.7040
  309SOL    HW3 1310   0.907   2.140   0.730 -0.5599  0.2484  1.3836
  309SOL    MW4 1311   0.936   2.218   0.755 -0.1532  0.4344  0.3615
  310SOL     OW 1312   1.784   2.057   0.874  0.2503 -0.2726 -0.4806
  310SOL    HW2 1313   1.704   2.076   0.826 -0.0270 -0.7443 -0.2040
  310SOL    HW3 1314   1.836   2.003   0.815  0.6519  0.5790 -0.9168
  310SOL    MW4 1315   1.781   2.052   0.860  0.2669 -0.2222 -0.5017
  311SOL     OW 1316   1.115   3.083   0.809  0.5069  0.3183  0.7203
  311SOL    HW2 1317   1.122   3.173   0.777  1.3426  0.2889  0.8214
  311SOL    HW3 1318   1.030   3.053   0.777  0.2514  1.1266  0.6380
  311SOL    MW4 1319   1.105   3.091   0.800  0.5835  0.4210  0.7228
  312SOL     OW 1320   0.945   2.758   0.873 -0.0538 -0.0165  0.3844
  312SOL    HW2 1321   0.865   2.718   0.842 -0.3536  0.8041  0.0806
  312SOL    HW3 1322   0.944   2.745   0.968 -1.9609  2.4677  0.7464
  312SOL    MW4 1323   0.935   2.751   0.882 -0.3449  0.4194  0.3921
  313SOL     OW 1324   0.745   3.445   0.343 -0.1052 -0.2209  0.0568
  313SOL    HW2 1325   0.758   3.350   0.342 -1.3319 -0.3944 -0.1817
  313SOL    HW3 1326   0.833   3.482   0.335  0.3328 -1.3383 -0.2887
  313SOL    MW4 1327   0.759   3.437   0.342 -0.2093 -0.3915 -0.0203
  314SOL     OW 1328   1.455   3.256   0.723 -0.3420 -0.1052  0.1688
  314SOL    HW2 1329   1.460   3.312   0.646 -0.1165  0.4119  0.5622
  314SOL    HW3 1330   1.420   3.173   0.690 -1.8483  0.6660 -0.2008
  314SOL    MW4 1331   1.451   3.252   0.708 -0.5109  0.0648  0.1720
  315SOL     OW 1332   1.096   3.864   1.098 -0.3273 -0.1145  0.1136
  315SOL    HW2 1333   1.103   3.776   1.135  0.0718  0.1066  0.5740
  315SOL    HW3 1334   1.015   3.899   1.132 -0.8976 -0.6020 -0.7202
  315SOL    MW4 1335   1.086   3.857   1.107 -0.3499 -0.1497  0.0643
  316SOL     OW 1336   1.583   4.445   0.449 -0.4007  0.1571  0.1193
  316SOL    HW2 1337   1.488   4.447   0.459 -0.3130 -1.6291  1.4442
  316SOL    HW3 1338   1.610   4.536   0.458 -2.0173  0.7421 -0.7457
  316SOL    MW4 1339   1.574   4.457   0.451 -0.6026 -0.0019  0.1800
  317SOL     OW 1340   0.448   3.078   0.613  0.3441 -0.6254 -0.4868
  317SOL    HW2 1341   0.404   3.157   0.580  2.1749  0.8795  0.5085
  317SOL    HW3 1342   0.444   3.016   0.541  0.6373  1.1192 -2.0317
  317SOL    MW4 1343   0.442   3.081   0.599  0.6243 -0.1965 -0.5593
  318SOL     OW 1344   0.979   0.186   0.418  0.0957  0.3759  0.6581
  318SOL    HW2 1345   1.000   0.174   0.511 -1.6667  0.2189  1.0524
  318SOL    HW3 1346   1.031   0.119   0.373  0.0726 -0.3361  1.6565
  318SOL    MW4 1347   0.989   0.175   0.424 -0.1398  0.2612  0.8419
  319SOL     OW 1348   1.048   3.574   0.328  0.0685  0.1356  0.2485
  319SOL    HW2 1349   1.108   3.543   0.396  0.0465 -0.0659  0.1766
  319SOL    HW3 1350   1.104   3.587   0.251  0.3488  1.7715  0.7161
  319SOL    MW4 1351   1.064   3.572   0.327  0.1025  0.3247  0.3007
  320SOL     OW 1352   0.435   4.391   0.550  0.2801 -0.4595 -0.1405
  320SOL    HW2 1353   0.449   4.478   0.513 -0.0662 -0.2704  0.1637
  320SOL    HW3 1354   0.512   4.340   0.525  0.4623 -0.0739 -0.3506
  320SOL    MW4 1355   0.447   4.396   0.542  0.2584 -0.3829 -0.1281
  321SOL     OW 1356   0.859   0.350   0.825  0.6117  0.3590  0.2566
  321SOL    HW2 1357   0.791   0.416   0.811  1.2658  1.1868  0.8845
  321SOL    HW3 1358   0.852   0.328   0.918  0.5382 -0.2985  0.0949
  321SOL    MW4 1359   0.849   0.356   0.835  0.6883  0.3814  0.3181
  322SOL     OW 1360   1.190   0.769   0.841  0.2752  0.2969  0.2928
  322SOL    HW2 1361   1.171   0.681   0.808  1.2485  0.8146 -1.7003
  322SOL    HW3 1362   1.168   0.764   0.935  0.4922 -2.0973  0.2606
  322SOL    MW4 1363   1.184   0.757   0.849  0.4323  0.0494  0.0256
  323SOL     OW 1364   1.823   0.893   0.709 -0.1840  0.0690  0.1918
  323SOL    HW2 1365   1.900   0.852   0.748 -1.4245 -1.6347  0.9371
  323SOL    HW3 1366   1.857   0.940   0.633  1.6678 -0.1354  0.8591
  323SOL    MW4 1367   1.838   0.893   0.704 -0.1034 -0.1827  0.3782
  324SOL     OW 1368   0.864   0.428   0.511 -0.2600 -0.2567  0.1551
  324SOL    HW2 1369   0.924   0.450   0.583  1.5440  1.1872 -1.7197
  324SOL    HW3 1370   0.902   0.349   0.472  0.0869  0.2739 -0.6087
  324SOL    MW4 1371   0.877   0.421   0.516  0.0238  0.0038 -0.1931
  325SOL     OW 1372   1.909   1.023   0.462 -0.2643 -0.0435 -0.3008
  325SOL    HW2 1373   1.945   1.109   0.437  0.7522  0.1371  1.7003
  325SOL    HW3 1374   1.958   0.960   0.409  0.9117  0.4239  0.2170
  325SOL    MW4 1375   1.921   1.026   0.452  0.0250  0.0420  0.0315
  326SOL     OW 1376   1.197   2.407   0.331 -0.7556 -0.1876 -0.2708
  326SOL    HW2 1377   1.212   2.318   0.298  1.0863  0.2490 -0.6586
  326SOL    HW3 1378   1.124   2.398   0.392 -0.3484 -2.0173 -0.0337
  326SOL    MW4 1379   1.189   2.394   0.334 -0.4588 -0.3712 -0.2907
  327SOL     OW 1380   1.579   1.546   0.842 -0.4682 -0.3407 -0.8230
  327SOL    HW2 1381   1.569   1.555   0.937  1.1444  1.4680 -0.7942
  327SOL    HW3 1382   1.518   1.610   0.806 -0.2926 -0.2783 -1.0031
  327SOL    MW4 1383   1.569   1.555   0.850 -0.2322 -0.0938 -0.8429
  328SOL     OW 1384   1.365   1.688   0.757 -0.1032  0.1955 -0.1857
  328SOL    HW2 1385   1.352   1.780   0.779 -0.1689  0.3388 -0.8054
  328SOL    HW3 1386   1.286   1.644   0.788 -0.9603  0.6647 -1.6808
  328SOL    MW4 1387   1.353   1.695   0.764 -0.2248  0.2762 -0.4647
  329SOL     OW 1388   1.345   1.982   0.829 -0.1345  0.2834  0.0827
  329SOL    HW2 1389   1.344   1.972   0.924  0.5979 -1.3559 -0.0639
  329SOL    HW3 1390   1.302   2.066   0.813  0.9898  1.2274  1.9266
  329SOL    MW4 1391   1.339   1.992   0.839  0.1105  0.1917  0.3067
  330SOL     OW 1392   1.939   2.003   0.227  0.0704 -0.0139 -0.0730
  330SOL    HW2 1393   1.999   2.060   0.178 -0.3714 -0.8499 -1.6103
  330SOL    HW3 1394   1.890   2.064   0.283  1.1603  0.8668 -0.0583
  330SOL    MW4 1395   1.940   2.019   0.228  0.1559 -0.0079 -0.2739
  331SOL     OW 1396   1.285   2.490   0.714  0.1928  0.0920  0.0419
  331SOL    HW2 1397   1.229   2.567   0.704  0.1372  0.1292  0.6074
  331SOL    HW3 1398   1.308   2.465   0.625  0.6031  1.0497 -0.1217
  331SOL    MW4 1399   1.280   2.497   0.701  0.2396  0.2234  0.0949
  332SOL     OW 1400   1.329   2.159   0.192 -0.0042 -0.1996 -0.1578
  332SOL    HW2 1401   1.312   2.106   0.114 -2.6115  0.5283 -0.1570
  332SOL    HW3 1402   1.376   2.101   0.252  0.6423 -1.2491 -1.6599
  332SOL    MW4 1403   1.333   2.144   0.190 -0.2630 -0.2420 -0.3559
  333SOL     OW 1404   1.597   2.341   0.671 -0.3098 -0.2904 -0.2144
  333SOL    HW2 1405   1.546   2.381   0.601 -0.8328  1.1034  0.9407
  333SOL    HW3 1406   1.566   2.250   0.674 -0.3820 -0.3214 -1.6678
  333SOL    MW4 1407   1.586   2.334   0.662 -0.3884 -0.1104 -0.2537
  334SOL     OW 1408   1.450   2.658   0.887  0.2034 -0.5417  0.2555
  334SOL    HW2 1409   1.386   2.605   0.839 -0.6337  0.7370 -0.0856
  334SOL    HW3 1410   1.413   2.667   0.975  0.2854 -0.4478  0.2806
  334SOL    MW4 1411   1.436   2.652   0.892  0.1037 -0.3605  0.2138
  335SOL     OW 1412   1.574   2.901   0.789  0.4423  0.1504 -0.3655
  335SOL    HW2 1413   1.612   2.958   0.856  0.8375  0.1763 -0.6068
  335SOL    HW3 1414   1.528   2.833   0.838 -1.3136  1.5152 -0.0675
  335SOL    MW4 1415   1.573   2.899   0.804  0.2627  0.3340 -0.3580
  336SOL     OW 1416   1.096   3.351   0.718 -0.3053 -0.5229 -0.5047
  336SOL    HW2 1417   1.136   3.399   0.645  0.3259 -1.2458 -0.6350
  336SOL    HW3 1418   1.007   3.387   0.724  0.2427  0.8577 -0.4265
  336SOL    MW4 1419   1.090   3.362   0.709 -0.1497 -0.4361 -0.5116
  337SOL     OW 1420   1.280   3.719   0.724  0.2925  0.8568 -0.2016
  337SOL    HW2 1421   1.293   3.641   0.778  0.0879  0.6821 -0.4081
  337SOL    HW3 1422   1.352   3.778   0.750  0.3490  0.6680  0.0705
  337SOL    MW4 1423   1.291   3.717   0.735  0.2731  0.8090 -0.1930
  338SOL     OW 1424   1.121   4.592   0.334 -0.0784 -0.5090  0.3623
  338SOL    HW2 1425   1.119   4.561   0.244 -0.9334 -0.1224  0.2446
  338SOL    HW3 1426   1.176   4.528   0.380  1.2563 -0.0892 -0.6518
  338SOL    MW4 1427   1.128   4.579   0.328 -0.0150 -0.4025  0.2130
  339SOL     OW 1428   1.289   3.494   0.881 -0.2126  0.5079  0.4977
  339SOL    HW2 1429   1.348   3.421   0.869 -0.2597  0.4484  0.6373
  339SOL    HW3 1430   1.204   3.462   0.849  0.1551  1.0840 -1.1559
  339SOL    MW4 1431   1.285   3.480   0.875 -0.1705  0.5760  0.2979
  340SOL     OW 1432   3.825   1.963   0.456 -0.2697  0.4189  0.6175
  340SOL    HW2 1433   3.830   1.923   0.369 -0.9203 -2.4492  1.8344
  340SOL    HW3 1434   3.748   2.019   0.452 -0.8330 -0.3925 -0.4180
  340SOL    MW4 1435   3.816   1.965   0.444 -0.4299 -0.0665  0.6414
  341SOL     OW 1436   1.905   3.531   0.488 -0.3295 -0.4907  0.7413
  341SOL    HW2 1437   1.870   3.615   0.459  0.8553 -0.3455 -0.3343
  341SOL    HW3 1438   1.940   3.548   0.575  0.4218  0.2991  0.3011
  341SOL    MW4 1439   1.905   3.544   0.495 -0.0740 -0.3672  0.5412
  342SOL     OW 1440   2.031   3.826   0.793 -0.3903  0.0893  0.2933
  342SOL    HW2 1441   2.125   3.833   0.778 -0.1927 -2.1276  0.4574
  342SOL    HW3 1442   2.021   3.845   0.886 -0.3539  2.1959 -0.0877
  342SOL    MW4 1443   2.042   3.830   0.803 -0.3595  0.0749  0.2646
  343SOL     OW 1444   2.377   4.390   0.510 -0.6042 -0.3576 -0.3603
  343SOL    HW2 1445   2.320   4.408   0.436  0.5921 -0.4557 -1.3118
  343SOL    HW3 1446   2.348   4.452   0.578 -0.2894  1.2126 -1.6328
  343SOL    MW4 1447   2.366   4.401   0.509 -0.4048 -0.1640 -0.6537
  344SOL     OW 1448   1.439   0.598   0.650 -0.0024  0.2372  0.2265
  344SOL    HW2 1449   1.394   0.548   0.718  0.9862  1.7145  2.0199
  344SOL    HW3 1450   1.477   0.672   0.697 -0.0018  1.7365 -2.0989
  344SOL    MW4 1451   1.438   0.601   0.665  0.1280  0.6300  0.1562
  345SOL     OW 1452   1.762   0.298   0.834 -0.9011  0.3975  0.1054
  345SOL    HW2 1453   1.801   0.339   0.757 -2.3763  2.2179  0.3033
  345SOL    HW3 1454   1.670   0.284   0.810 -1.1218 -0.0047  1.1456
  345SOL    MW4 1455   1.755   0.301   0.821 -1.1249  0.5846  0.2688
  346SOL     OW 1456   2.072   0.094   0.581 -0.0592  0.6521  0.2347
  346SOL    HW2 1457   2.050   0.086   0.488 -0.7553  0.2576  0.4334
  346SOL    HW3 1458   1.988   0.093   0.626  0.3167  0.0149  0.9290
  346SOL    MW4 1459   2.058   0.093   0.575 -0.1016  0.5160  0.3524
  347SOL     OW 1460   2.076   0.567   0.609  0.0477 -0.5073  0.1679
  347SOL    HW2 1461   2.123   0.610   0.536 -1.0507  0.3141 -0.0652
  347SOL    HW3 1462   2.063   0.637   0.673  1.8332 -1.4320  1.6046
  347SOL    MW4 1463   2.081   0.582   0.608  0.1383 -0.5210  0.3268
  348SOL     OW 1464   1.593   1.286   0.730  0.3139 -0.2563  0.2374
  348SOL    HW2 1465   1.652   1.232   0.783  1.7551 -0.0966 -1.1516
  348SOL    HW3 1466   1.602   1.374   0.766  0.1263 -0.4263  0.7015
  348SOL    MW4 1467   1.602   1.290   0.742  0.4793 -0.2576  0.1153
  349SOL     OW 1468   2.030   1.275   0.733 -0.3210 -0.3471  0.0663
  349SOL    HW2 1469   2.117   1.245   0.758 -0.2241 -1.1663 -1.2102
  349SOL    HW3 1470   2.027   1.367   0.762  0.3315 -0.8117  1.6387
  349SOL    MW4 1471   2.041   1.284   0.740 -0.2222 -0.5165  0.1053
  350SOL     OW 1472   2.296   1.209   0.808  0.2325 -0.5403  0.0671
  350SOL    HW2 1473   2.310   1.164   0.892 -0.2219 -0.8060  0.0027
  350SOL    HW3 1474   2.358   1.169   0.748 -0.3485 -1.2673 -0.0554
  350SOL    MW4 1475   2.306   1.198   0.811  0.0956 -0.6711  0.0425
  351SOL     OW 1476   2.010   1.528   0.847  0.8023 -0.6294  0.4559
  351SOL    HW2 1477   2.092   1.576   0.835  0.0769  0.4207 -0.3821
  351SOL    HW3 1478   1.942   1.586   0.812 -0.1781 -1.9421  0.1294
  351SOL    MW4 1479   2.012   1.542   0.841  0.5772 -0.6640  0.3023
  352SOL     OW 1480   1.775   1.610   0.666 -0.0756 -0.1079 -0.6473
  352SOL    HW2 1481   1.724   1.589   0.744 -0.4961 -0.1947 -0.9398
  352SOL    HW3 1482   1.720   1.581   0.593  0.5113 -0.4445 -0.9611
  352SOL    MW4 1483   1.761   1.603   0.666 -0.0535 -0.1638 -0.7272
  353SOL     OW 1484   1.686   1.901   0.491  0.4713 -0.0839 -0.2367
  353SOL    HW2 1485   1.736   1.976   0.460 -0.0736 -0.0854 -1.1218
  353SOL    HW3 1486   1.724   1.826   0.445 -0.0986 -0.1328 -0.6309
  353SOL    MW4 1487   1.698   1.901   0.481  0.3242 -0.0905 -0.4055
  354SOL     OW 1488   1.915   1.911   0.687  0.1067 -0.4522  0.2283
  354SOL    HW2 1489   1.972   1.909   0.611  1.1599 -0.0741  0.9982
  354SOL    HW3 1490   1.829   1.884   0.654  0.8074 -1.3513 -0.8575
  354SOL    MW4 1491   1.911   1.907   0.673  0.3381 -0.5207  0.1866
  355SOL     OW 1492   1.855   2.337   0.587  0.3383 -0.0204  0.0050
  355SOL    HW2 1493   1.763   2.344   0.611  0.2885 -0.0405 -0.1838
  355SOL    HW3 1494   1.899   2.312   0.669 -0.0326 -1.5764 -0.2610
  355SOL    MW4 1495   1.849   2.335   0.601  0.2828 -0.2284 -0.0551
  356SOL     OW 1496   2.078   2.729   0.302  0.2930  0.4892  0.1211
  356SOL    HW2 1497   2.118   2.751   0.218 -0.6329  2.0473  0.0799
  356SOL    HW3 1498   1.995   2.777   0.303 -0.8949 -1.4949  0.8523
  356SOL    MW4 1499   2.072   2.738   0.292  0.0141  0.4330  0.2121
  357SOL     OW 1500   1.900   2.757   0.854 -0.3342  0.0840 -0.1994
  357SOL    HW2 1501   1.938   2.706   0.782 -0.7603  0.5422 -0.7566
  357SOL    HW3 1502   1.814   2.717   0.868 -0.7882  0.8157 -0.8319
  357SOL    MW4 1503   1.894   2.745   0.846 -0.4503  0.2408 -0.3564
  358SOL     OW 1504   1.979   2.255   0.842 -0.4105  0.0157 -0.0335
  358SOL    HW2 1505   1.975   2.312   0.919  0.2736 -1.8077  1.3910
  358SOL    HW3 1506   1.911   2.188   0.859  0.2564 -0.8213 -0.6388
  358SOL    MW4 1507   1.969   2.253   0.855 -0.2322 -0.3352  0.0746
  359SOL     OW 1508   1.948   3.041   0.798  0.1400 -0.3283 -0.4283
  359SOL    HW2 1509   1.863   3.084   0.792  0.9506  1.7445  1.9979
  359SOL    HW3 1510   1.928   2.949   0.816 -1.5847  0.3873  1.4336
  359SOL    MW4 1511   1.934   3.034   0.799  0.0193  0.0393  0.1376
  360SOL     OW 1512   1.710   3.190   0.765 -0.2404  0.0482  0.8242
  360SOL    HW2 1513   1.617   3.205   0.781 -0.1717  1.2489  0.1920
  360SOL    HW3 1514   1.722   3.209   0.672  0.1609 -2.6127  0.3095
  360SOL    MW4 1515   1.700   3.195   0.755 -0.1785 -0.1445  0.6728
  361SOL     OW 1516   1.756   3.466   0.798 -0.3741 -0.2882  0.1675
  361SOL    HW2 1517   1.751   3.372   0.785  1.2545 -0.5368  1.2225
  361SOL    HW3 1518   1.780   3.476   0.890  0.5058  1.1330 -0.2043
  361SOL    MW4 1519   1.758   3.455   0.808 -0.0433 -0.1333  0.2576
  362SOL     OW 1520   2.005   3.552   0.732  0.2894 -0.4367 -0.1605
  362SOL    HW2 1521   2.010   3.643   0.761  0.0869 -0.8595  1.2356
  362SOL    HW3 1522   1.920   3.522   0.763  0.6547 -1.3207 -0.0101
  362SOL    MW4 1523   1.994   3.560   0.740  0.3109 -0.6094  0.0436
  363SOL     OW 1524   2.296   3.882   0.674 -0.3649 -0.0513  0.1676
  363SOL    HW2 1525   2.318   3.832   0.595 -0.4719 -1.1325  0.8141
  363SOL    HW3 1526   2.377   3.883   0.725 -0.4618  0.1413  0.3198
  363SOL    MW4 1527   2.310   3.876   0.670 -0.3920 -0.1683  0.2730
  364SOL     OW 1528   1.788   0.007   0.736 -0.2633 -0.1827  0.6297
  364SOL    HW2 1529   1.790   0.085   0.792  0.4903 -0.7973  1.4768
  364SOL    HW3 1530   1.857  -0.049   0.771 -1.2199 -1.5039  0.4409
  364SOL    MW4 1531   1.797   0.010   0.748 -0.2898 -0.4380  0.7166
  365SOL     OW 1532   2.211   4.548   0.693  0.1048 -0.3968  0.2622
  365SOL    HW2 1533   2.265   4.588   0.762 -0.7583  1.1773  0.0431
  365SOL    HW3 1534   2.164   4.621   0.654 -2.2076 -1.7351  0.4545
  365SOL    MW4 1535   2.212   4.563   0.697 -0.3145 -0.3657  0.2587
  366SOL     OW 1536   2.163   4.133   0.671 -0.3830  0.1040 -0.6375
  366SOL    HW2 1537   2.140   4.148   0.580 -0.3659 -0.3136 -0.7123
  366SOL    HW3 1538   2.207   4.048   0.671 -0.3673  0.1112 -0.2452
  366SOL    MW4 1539   2.166   4.124   0.659 -0.3784  0.0501 -0.5955
  367SOL     OW 1540   2.509   4.142   0.552  0.3055  0.0120 -0.2216
  367SOL    HW2 1541   2.473   4.231   0.552 -0.0689 -0.1365  0.2044
  367SOL    HW3 1542   2.476   4.103   0.633  1.4768 -0.1090  0.2176
  367SOL    MW4 1543   2.500   4.149   0.563  0.4106 -0.0234 -0.1073
  368SOL     OW 1544   2.864   3.805   0.493  0.0503 -0.1009  0.3936
  368SOL    HW2 1545   2.795   3.748   0.460  0.0885 -0.1326  0.3680
  368SOL    HW3 1546   2.840   3.892   0.462  0.8549 -0.3529 -0.9771
  368SOL    MW4 1547   2.852   3.809   0.484  0.1616 -0.1380  0.2094
  369SOL     OW 1548   2.437   0.351   0.486 -0.0027 -0.3684 -0.1519
  369SOL    HW2 1549   2.388   0.348   0.568 -1.0521 -0.2313 -0.7557
  369SOL    HW3 1550   2.480   0.265   0.480  1.2302  0.1431  1.2157
  369SOL    MW4 1551   2.436   0.339   0.496  0.0215 -0.2829 -0.0511
  370SOL     OW 1552   2.047   0.870   0.272 -0.1334 -0.4341 -0.2826
  370SOL    HW2 1553   1.989   0.845   0.200 -0.4156  1.5777 -0.7647
  370SOL    HW3 1554   2.128   0.900   0.229 -0.1000  0.2513  0.2475
  370SOL    MW4 1555   2.050   0.870   0.257 -0.1662 -0.0783 -0.2762
  371SOL     OW 1556   2.606   0.624   0.450  0.5188  0.2011 -0.0977
  371SOL    HW2 1557   2.561   0.698   0.410  1.3580  0.6594 -0.2106
  371SOL    HW3 1558   2.555   0.547   0.422 -0.1450  0.7024 -0.2745
  371SOL    MW4 1559   2.593   0.623   0.441  0.5419  0.3276 -0.1359
  372SOL     OW 1560   2.929   1.188   0.739  0.0076 -0.2527 -0.5046
  372SOL    HW2 1561   2.964   1.229   0.818 -0.8858 -0.3481 -0.0425
  372SOL    HW3 1562   2.942   1.253   0.670  1.7104 -0.5691 -0.4999
  372SOL    MW4 1563   2.935   1.202   0.740  0.1144 -0.3070 -0.4430
  373SOL     OW 1564   2.281   1.635   0.471  0.0502 -0.1213  0.3010
  373SOL    HW2 1565   2.365   1.678   0.484  0.6055 -0.1833 -2.7781
  373SOL    HW3 1566   2.303   1.544   0.451 -0.8805 -0.6652  1.6379
  373SOL    MW4 1567   2.295   1.628   0.470  0.0005 -0.2013  0.0712
  374SOL     OW 1568   2.864   0.683   0.358 -0.6015  0.0099  0.9558
  374SOL    HW2 1569   2.903   0.607   0.315 -1.3132  0.5957 -0.7558
  374SOL    HW3 1570   2.776   0.654   0.382 -0.5345 -0.0085  1.1838
  374SOL    MW4 1571   2.858   0.669   0.355 -0.6864  0.0848  0.7601
  375SOL     OW 1572   2.368   1.474   0.848 -0.0363 -0.1929 -0.5446
  375SOL    HW2 1573   2.315   1.536   0.798 -0.7074 -1.2967 -1.2391
  375SOL    HW3 1574   2.325   1.390   0.834  0.6940 -0.7671  0.6130
  375SOL    MW4 1575   2.355   1.471   0.839 -0.0284 -0.4143 -0.4834
  376SOL     OW 1576   2.210   1.683   0.742 -0.0800 -0.0724  0.1384
  376SOL    HW2 1577   2.206   1.779   0.743 -1.6804 -0.1169 -0.5951
  376SOL    HW3 1578   2.226   1.661   0.650 -0.7976 -0.5477  0.1276
  376SOL    MW4 1579   2.212   1.693   0.730 -0.3860 -0.1410  0.0402
  377SOL     OW 1580   2.164   1.943   0.820 -0.6446 -0.4680  0.1769
  377SOL    HW2 1581   2.083   1.975   0.779 -0.1259 -0.4949 -0.8627
  377SOL    HW3 1582   2.209   2.023   0.848 -0.3759 -0.3891 -0.4808
  377SOL    MW4 1583   2.159   1.958   0.819 -0.5405 -0.4611 -0.0471
  378SOL     OW 1584   1.808   1.732   0.323  0.4498 -0.1223  0.4910
  378SOL    HW2 1585   1.887   1.685   0.348  0.6899 -0.6770 -1.2581
  378SOL    HW3 1586   1.833   1.783   0.247 -0.4929  0.8637  0.8287
  378SOL    MW4 1587   1.822   1.732   0.317  0.3572 -0.0654  0.3048
  379SOL     OW 1588   2.272   2.204   0.868  0.2287  0.1951  0.2015
  379SOL    HW2 1589   2.310   2.210   0.780 -0.5601 -2.2826 -0.3602
  379SOL    HW3 1590   2.188   2.250   0.861  0.3678  0.3887 -0.2102
  379SOL    MW4 1591   2.266   2.211   0.855  0.1431 -0.1063  0.0730
  380SOL     OW 1592   2.641   2.699   0.820 -0.1672 -0.1150 -0.0593
  380SOL    HW2 1593   2.674   2.672   0.906  0.4688 -0.4172 -0.3942
  380SOL    HW3 1594   2.714   2.748   0.782  0.3477 -1.7831 -1.2822
  380SOL    MW4 1595   2.655   2.702   0.827 -0.0153 -0.3750 -0.2648
  381SOL     OW 1596   2.253   2.505   0.668  0.2795  0.2698  0.2910
  381SOL    HW2 1597   2.287   2.569   0.731  2.0767 -0.0361 -0.3462
  381SOL    HW3 1598   2.325   2.444   0.654 -0.3469 -0.0954 -1.5095
  381SOL    MW4 1599   2.267   2.505   0.674  0.4342  0.1812 -0.0306
  382SOL     OW 1600   2.855   2.848   0.744 -0.9364  0.4663 -0.1460
  382SOL    HW2 1601   2.941   2.805   0.742 -0.8352  0.7058 -2.2493
  382SOL    HW3 1602   2.870   2.929   0.792  0.2865  1.0252 -1.4277
  382SOL    MW4 1603   2.868   2.853   0.750 -0.7617  0.5715 -0.5926
  383SOL     OW 1604   2.542   2.902   0.513 -0.3910  0.2110  0.2619
  383SOL    HW2 1605   2.537   2.970   0.581 -0.0715  1.3002 -0.7896
  383SOL    HW3 1606   2.635   2.877   0.511 -0.4008  0.1768  0.2209
  383SOL    MW4 1607   2.554   2.908   0.522 -0.3500  0.3505  0.1178
  384SOL     OW 1608   2.330   3.228   0.670 -0.3394 -0.3108 -0.0890
  384SOL    HW2 1609   2.273   3.153   0.651  1.0948 -1.3801 -0.2738
  384SOL    HW3 1610   2.399   3.192   0.725 -0.3847  1.1894  0.9617
  384SOL    MW4 1611   2.332   3.213   0.675 -0.1562 -0.2539  0.0252
  385SOL     OW 1612   2.259   3.452   0.810  0.5743  0.4435  0.1104
  385SOL    HW2 1613   2.292   3.377   0.761  0.4111  0.1029  0.5213
  385SOL    HW3 1614   2.172   3.468   0.773  0.9392  0.9501 -0.5419
  385SOL    MW4 1615   2.252   3.444   0.798  0.6011  0.4654  0.0786
  386SOL     OW 1616   2.351   3.260   0.398 -0.4993 -0.1420  0.0512
  386SOL    HW2 1617   2.348   3.252   0.493  1.1951  1.2444  0.2568
  386SOL    HW3 1618   2.263   3.287   0.373 -1.0121 -0.7291  1.2004
  386SOL    MW4 1619   2.339   3.262   0.407 -0.3436 -0.0367  0.2300
  387SOL     OW 1620   2.329   4.044   0.357 -0.5482  0.2873 -0.0216
  387SOL    HW2 1621   2.322   3.949   0.370  0.4345  0.2622  0.3347
  387SOL    HW3 1622   2.400   4.071   0.415 -0.7029  1.2174 -0.2639
  387SOL    MW4 1623   2.338   4.035   0.366 -0.4389  0.4072 -0.0065
  388SOL     OW 1624   1.314   4.503   0.738 -0.0996  0.0298  0.0958
  388SOL    HW2 1625   1.403   4.528   0.763 -0.1170 -0.4827  0.6675
  388SOL    HW3 1626   1.304   4.413   0.770 -0.5830 -0.1618 -0.5769
  388SOL    MW4 1627   1.324   4.494   0.745 -0.1657 -0.0629  0.0826
  389SOL     OW 1628   1.541   4.647   0.841 -0.6966 -0.2738  0.0343
  389SOL    HW2 1629   1.631   4.641   0.808 -0.3976  2.4052  0.1977
  389SOL    HW3 1630   1.551   4.647   0.937 -0.9735 -1.0516  0.0672
  389SOL    MW4 1631   1.554   4.647   0.849 -0.6937 -0.0229  0.0603
  390SOL     OW 1632   1.827   4.071   0.475 -0.0505 -0.5019 -0.2445
  390SOL    HW2 1633   1.909   4.110   0.446 -1.1935  1.9239 -0.3721
  390SOL    HW3 1634   1.787   4.037   0.394  0.6557 -1.3609 -0.2346
  390SOL    MW4 1635   1.832   4.072   0.460 -0.1081 -0.2952 -0.2601
  391SOL     OW 1636   2.349   4.270   0.810 -0.8879  0.2312  0.0784
  391SOL    HW2 1637   2.356   4.365   0.799  0.5902  0.2279  0.8897
  391SOL    HW3 1638   2.286   4.243   0.742  0.0458  1.5545 -1.3604
  391SOL    MW4 1639   2.341   4.279   0.799 -0.5698  0.4053 -0.0044
  392SOL     OW 1640   0.925   4.520   0.538  0.2458 -0.1068  0.5980
  392SOL    HW2 1641   0.843   4.556   0.503 -0.3815 -0.7521  1.3715
  392SOL    HW3 1642   0.994   4.567   0.492 -0.5642  1.6337  1.1275
  392SOL    MW4 1643   0.923   4.531   0.528  0.0561  0.0372  0.7699
  393SOL     OW 1644   2.331   0.441   0.877  0.4999 -0.2644 -0.0256
  393SOL    HW2 1645   2.353   0.529   0.847  0.9898  0.1517  1.5350
  393SOL    HW3 1646   2.306   0.395   0.797 -0.2765  1.4336 -0.7938
  393SOL    MW4 1647   2.331   0.447   0.863  0.4623  0.0146  0.0789
  394SOL     OW 1648   3.423   0.704   0.359  0.4358 -0.5435 -0.0627
  394SOL    HW2 1649   3.510   0.665   0.367  0.5449 -0.3740 -0.4377
  394SOL    HW3 1650   3.435   0.779   0.301  0.3027  0.2819  0.9606
  394SOL    MW4 1651   3.436   0.708   0.352  0.4327 -0.4122  0.0228
  395SOL     OW 1652   2.200   0.697   0.401  0.1059  0.0569  0.2402
  395SOL    HW2 1653   2.131   0.760   0.381  1.1681  2.0627  2.6360
  395SOL    HW3 1654   2.282   0.741   0.377  0.8051 -0.7518  1.0681
  395SOL    MW4 1655   2.202   0.711   0.395  0.3386  0.2148  0.6655
  396SOL     OW 1656   2.603   0.376   0.857 -0.1762  0.0032  0.2167
  396SOL    HW2 1657   2.635   0.370   0.947 -0.3222  0.0266  0.2705
  396SOL    HW3 1658   2.508   0.390   0.866 -0.3370 -0.9101  0.0549
  396SOL    MW4 1659   2.594   0.377   0.870 -0.2167 -0.1142  0.2024
  397SOL     OW 1660   2.677   1.103   0.829  0.1636 -0.2699 -0.4511
  397SOL    HW2 1661   2.683   1.085   0.923 -0.0302 -0.2003 -0.4256
  397SOL    HW3 1662   2.767   1.121   0.802  0.1658  0.0810 -0.2069
  397SOL    MW4 1663   2.690   1.103   0.838  0.1383 -0.2145 -0.4154
  398SOL     OW 1664   3.459   0.953   0.245 -0.1664  0.0620  0.2288
  398SOL    HW2 1665   3.383   1.003   0.276 -0.0654  0.2781  0.1282
  398SOL    HW3 1666   3.534   1.006   0.271 -0.0790  0.2188 -0.3432
  398SOL    MW4 1667   3.459   0.967   0.252 -0.1416  0.1112  0.1401
  399SOL     OW 1668   0.117   2.329   0.568 -0.1524 -0.0318  0.2090
  399SOL    HW2 1669   0.163   2.261   0.519 -1.2382  0.8569 -2.1299
  399SOL    HW3 1670   0.170   2.343   0.646  1.7977 -1.2852 -0.8564
  399SOL    MW4 1671   0.130   2.322   0.572 -0.0383 -0.0799 -0.2402
  400SOL     OW 1672   2.776   1.632   0.832  0.0331 -0.2253  0.1115
  400SOL    HW2 1673   2.699   1.577   0.815 -0.2412  0.0646  0.3920
  400SOL    HW3 1674   2.802   1.609   0.921  0.8837 -1.0515 -0.3509
  400SOL    MW4 1675   2.769   1.622   0.842  0.1092 -0.2961  0.0876
  401SOL     OW 1676   2.657   1.894   0.837 -0.2226  0.0983  0.3187
  401SOL    HW2 1677   2.689   1.804   0.836 -1.9479 -0.5375 -0.2648
  401SOL    HW3 1678   2.649   1.915   0.930  2.6493  0.5786  0.4848
  401SOL    MW4 1679   2.660   1.885   0.849 -0.0710  0.0777  0.2637
  402SOL     OW 1680   2.523   2.011   0.629 -0.0978 -0.2463  0.3568
  402SOL    HW2 1681   2.550   1.971   0.712 -0.4329 -0.1528  0.5113
  402SOL    HW3 1682   2.531   2.105   0.644 -2.0300 -0.1564  0.9344
  402SOL    MW4 1683   2.528   2.018   0.642 -0.3970 -0.2220  0.4534
  403SOL     OW 1684   3.092   2.444   0.693 -0.0351 -0.1067  0.0507
  403SOL    HW2 1685   3.181   2.413   0.712 -0.2184  0.2081  1.4624
  403SOL    HW3 1686   3.089   2.449   0.597  1.0314 -1.4100 -0.0827
  403SOL    MW4 1687   3.103   2.440   0.683  0.0813 -0.2370  0.2194
  404SOL     OW 1688   2.876   2.338   0.817  0.0762 -0.0352 -0.2102
  404SOL    HW2 1689   2.883   2.330   0.912 -1.9484  3.5824  0.3268
  404SOL    HW3 1690   2.961   2.374   0.790  1.0878 -2.1626  0.0240
  404SOL    MW4 1691   2.888   2.342   0.826 -0.0575  0.1614 -0.1084
  405SOL     OW 1692   2.448   2.285   0.645 -0.1743  0.2954 -0.5424
  405SOL    HW2 1693   2.446   2.294   0.550  1.2236 -1.0180 -0.7212
  405SOL    HW3 1694   2.525   2.334   0.672 -0.6346  0.7626 -0.0750
  405SOL    MW4 1695   2.458   2.292   0.636 -0.0508  0.1838 -0.5044
  406SOL     OW 1696   2.336   3.760   0.426  0.3343  0.2452 -0.3857
  406SOL    HW2 1697   2.431   3.750   0.427  0.3675  0.6025  0.1062
  406SOL    HW3 1698   2.304   3.684   0.377  0.8692  0.1016 -0.5116
  406SOL    MW4 1699   2.344   3.749   0.419  0.4089  0.2732 -0.3374
  407SOL     OW 1700   3.180   3.448   0.858 -0.3373  0.0112 -0.0444
  407SOL    HW2 1701   3.110   3.495   0.812 -0.4463  0.5501  0.6688
  407SOL    HW3 1702   3.260   3.473   0.812 -0.6660 -1.1113 -1.2755
  407SOL    MW4 1703   3.181   3.458   0.846 -0.3948 -0.0656 -0.1127
  408SOL     OW 1704   2.539   3.090   0.765  0.1724  0.3144 -0.2623
  408SOL    HW2 1705   2.600   3.163   0.754 -0.0855  0.7281  0.9529
  408SOL    HW3 1706   2.537   3.074   0.860 -2.0003  0.6395 -0.2253
  408SOL    MW4 1707   2.547   3.097   0.776 -0.1481  0.4120 -0.0971
  409SOL     OW 1708   2.733   3.507   0.860 -0.6141 -0.9983  0.0382
  409SOL    HW2 1709   2.718   3.531   0.951 -1.1839 -0.4620 -0.1893
  409SOL    HW3 1710   2.808   3.560   0.833 -0.2510 -1.3872  0.2832
  409SOL    MW4 1711   2.741   3.517   0.868 -0.6413 -0.9787  0.0405
  410SOL     OW 1712   2.976   3.631   0.760  0.3876  0.6249 -0.3312
  410SOL    HW2 1713   2.997   3.724   0.774  0.8914  0.5655 -0.6962
  410SOL    HW3 1714   2.968   3.623   0.665 -0.2288  0.4145 -0.2660
  410SOL    MW4 1715   2.978   3.642   0.749  0.3724  0.5889 -0.3707
  411SOL     OW 1716   1.124   4.333   0.187  0.3560 -0.4382  0.9406
  411SOL    HW2 1717   1.051   4.292   0.233 -1.1964  1.6987  0.4683
  411SOL    HW3 1718   1.109   4.313   0.094  0.4528 -0.1227  0.8546
  411SOL    MW4 1719   1.112   4.325   0.181  0.1639 -0.1144  0.8669
  412SOL     OW 1720   2.512   3.602   0.752 -0.2202  0.0757  0.3153
  412SOL    HW2 1721   2.433   3.555   0.778  0.2905 -1.6444 -1.1318
  412SOL    HW3 1722   2.584   3.551   0.789  0.2830  0.7245  0.2425
  412SOL    MW4 1723   2.511   3.589   0.760 -0.0863 -0.0656  0.1148
  413SOL     OW 1724   2.440   4.571   0.843 -0.0016  0.5729  0.1580
  413SOL    HW2 1725   2.499   4.633   0.801 -1.3662  1.5057 -0.4487
  413SOL    HW3 1726   2.436   4.599   0.934 -0.0050  0.9114  0.0540
  413SOL    MW4 1727   2.447   4.583   0.849 -0.1822  0.7410  0.0643
  414SOL     OW 1728   3.116   4.528   0.443  0.4756  0.1193  0.0506
  414SOL    HW2 1729   3.186   4.469   0.470 -0.4904 -0.7679  0.6596
  414SOL    HW3 1730   3.084   4.566   0.525  1.7285  2.2488 -0.4042
  414SOL    MW4 1731   3.121   4.525   0.457  0.5133  0.2828  0.0710
  415SOL     OW 1732   3.639   4.196   1.140  0.1688 -0.4493  0.0300
  415SOL    HW2 1733   3.568   4.241   1.186 -2.4667 -1.9907 -2.4168
  415SOL    HW3 1734   3.648   4.113   1.186 -0.4684 -0.7660 -0.4100
  415SOL    MW4 1735   3.631   4.191   1.152 -0.2630 -0.6948 -0.3510
  416SOL     OW 1736   3.287   0.197   0.762 -0.1607 -0.5643  0.0263
  416SOL    HW2 1737   3.366   0.247   0.784 -0.6233 -0.7561  2.1790
  416SOL    HW3 1738   3.288   0.122   0.821 -1.5541 -0.9946 -0.4712
  416SOL    MW4 1739   3.297   0.194   0.773 -0.4055 -0.6464  0.2447
  417SOL     OW 1740   0.418   0.169   0.620  0.0664 -0.0438 -0.1453
  417SOL    HW2 1741   0.508   0.183   0.648 -0.3543  2.6163  0.0100
  417SOL    HW3 1742   0.422   0.091   0.564  2.2185 -0.7104  0.8952
  417SOL    MW4 1743   0.430   0.160   0.616  0.2948  0.2192  0.0125
  418SOL     OW 1744   3.184   0.937   0.892  0.1257  0.1675 -0.1202
  418SOL    HW2 1745   3.253   1.003   0.891  0.1577  0.1719  1.3355
  418SOL    HW3 1746   3.124   0.967   0.960 -0.4063 -0.7585 -0.1761
  418SOL    MW4 1747   3.185   0.950   0.901  0.0598  0.0459  0.0645
  419SOL     OW 1748   3.292   0.829   0.580 -0.3260  0.5164  0.3008
  419SOL    HW2 1749   3.253   0.893   0.521  0.7049  1.9154  1.1166
  419SOL    HW3 1750   3.342   0.771   0.523 -3.6979 -1.4502 -0.7993
  419SOL    MW4 1751   3.293   0.830   0.565 -0.6351  0.4416  0.2633
  420SOL     OW 1752   2.961   0.929   0.619  0.0513 -0.3191 -0.0430
  420SOL    HW2 1753   2.883   0.880   0.644 -0.3237  0.6097  0.6394
  420SOL    HW3 1754   2.948   1.016   0.656  1.7181 -0.3445  0.6809
  420SOL    MW4 1755   2.949   0.934   0.627  0.2222 -0.1999  0.1426
  421SOL     OW 1756   2.414   1.400   0.331  0.0364 -0.2041  0.7667
  421SOL    HW2 1757   2.492   1.411   0.385  0.0279 -0.0949  0.7571
  421SOL    HW3 1758   2.435   1.447   0.250  0.9511 -2.2737 -0.2362
  421SOL    MW4 1759   2.427   1.408   0.327  0.1559 -0.4629  0.6331
  422SOL     OW 1760   2.633   1.400   0.504  0.3304  0.0537  0.5031
  422SOL    HW2 1761   2.613   1.377   0.595  0.5420 -1.8376  0.0887
  422SOL    HW3 1762   2.728   1.414   0.503  0.0645  1.9932  0.9674
  422SOL    MW4 1763   2.643   1.399   0.516  0.3233  0.0601  0.5097
  423SOL     OW 1764   3.310   1.319   0.740  0.3150 -0.0532  0.1847
  423SOL    HW2 1765   3.360   1.397   0.762  0.6860 -0.6632  1.5354
  423SOL    HW3 1766   3.341   1.252   0.800 -0.5277 -1.0495 -0.4619
  423SOL    MW4 1767   3.320   1.321   0.751  0.2525 -0.2651  0.2775
  424SOL     OW 1768   2.663   0.864   0.715  0.1394 -0.0421  0.0679
  424SOL    HW2 1769   2.638   0.949   0.752  0.4672 -0.8079  2.1244
  424SOL    HW3 1770   2.713   0.821   0.785  0.9408 -1.4763 -1.3523
  424SOL    MW4 1771   2.666   0.869   0.729  0.2885 -0.3324  0.1518
  425SOL     OW 1772   3.571   2.699   0.792  0.1666 -0.1841 -0.3304
  425SOL    HW2 1773   3.596   2.692   0.884  0.7567 -0.3995 -0.5010
  425SOL    HW3 1774   3.644   2.745   0.751  1.0697 -2.2909 -1.1520
  425SOL    MW4 1775   3.584   2.704   0.798  0.3633 -0.4907 -0.4612
  426SOL     OW 1776   3.332   2.286   0.694 -0.7962 -0.8793 -0.1854
  426SOL    HW2 1777   3.415   2.333   0.683 -1.6483  0.7122  0.1248
  426SOL    HW3 1778   3.353   2.214   0.753  0.4744 -0.7866 -0.5091
  426SOL    MW4 1779   3.346   2.283   0.700 -0.7410 -0.6571 -0.1871
  427SOL     OW 1780   2.125   3.064   0.580 -0.1410 -0.1318  0.4331
  427SOL    HW2 1781   2.170   2.979   0.581  0.9489  0.4440  2.1183
  427SOL    HW3 1782   2.088   3.072   0.668  0.3996  1.4694  0.5245
  427SOL    MW4 1783   2.126   3.054   0.592  0.0739  0.1557  0.6674
  428SOL     OW 1784   3.702   1.422   0.611  0.1818 -0.0412  0.1196
  428SOL    HW2 1785   3.664   1.509   0.626  1.2319  0.3876  0.3486
  428SOL    HW3 1786   3.745   1.401   0.694 -0.7012 -1.1050  0.3142
  428SOL    MW4 1787   3.703   1.431   0.624  0.2041 -0.1251  0.1755
  429SOL     OW 1788   3.330   2.785   0.737 -0.3790 -0.4433  0.2442
  429SOL    HW2 1789   3.416   2.757   0.767  0.2864  0.1415 -1.0687
  429SOL    HW3 1790   3.326   2.878   0.759 -0.6656 -0.4676  0.2916
  429SOL    MW4 1791   3.341   2.794   0.744 -0.3290 -0.3695  0.0772
  430SOL     OW 1792   4.230   3.796   0.844  0.1518  0.2837  0.3286
  430SOL    HW2 1793   4.164   3.726   0.839 -1.1411  1.5241 -0.3406
  430SOL    HW3 1794   4.240   3.813   0.938  1.7220 -1.9235  0.6042
  430SOL    MW4 1795   4.223   3.789   0.856  0.1884  0.1559  0.2767
  431SOL     OW 1796   3.793   3.114   1.099  0.2868  0.0445 -0.3701
  431SOL    HW2 1797   3.777   3.022   1.117  0.7687  0.0828  0.2748
  431SOL    HW3 1798   3.766   3.126   1.008  1.2564 -0.9772 -0.7966
  431SOL    MW4 1799   3.787   3.104   1.090  0.4783 -0.0851 -0.3414
  432SOL     OW 1800   2.519   2.293   0.382 -0.0634  0.0681 -0.1707
  432SOL    HW2 1801   2.561   2.377   0.366 -0.4088  0.0986 -0.9212
  432SOL    HW3 1802   2.583   2.228   0.354  0.1655  0.0845  0.3177
  432SOL    MW4 1803   2.533   2.295   0.376 -0.0787  0.0744 -0.2053
  433SOL     OW 1804   3.539   3.179   0.635 -0.0149 -0.1738  0.2596
  433SOL    HW2 1805   3.577   3.106   0.585  0.8851 -0.5336  1.4605
  433SOL    HW3 1806   3.462   3.142   0.676  0.1956 -0.3285  0.5143
  433SOL    MW4 1807   3.534   3.165   0.634  0.1316 -0.2415  0.4517
  434SOL     OW 1808   4.062   3.456   0.566 -0.0828  0.0272 -0.0704
  434SOL    HW2 1809   4.052   3.528   0.505  0.9127 -0.1667 -0.4712
  434SOL    HW3 1810   4.054   3.496   0.653 -0.4966  0.4525 -0.3036
  434SOL    MW4 1811   4.059   3.470   0.570 -0.0062  0.0577 -0.1541
  435SOL     OW 1812   0.482   2.716   0.847 -0.0614 -0.2210  0.3488
  435SOL    HW2 1813   0.448   2.805   0.838  1.6995  0.3678 -0.6694
  435SOL    HW3 1814   0.455   2.672   0.766 -0.4358 -0.4595  0.5998
  435SOL    MW4 1815   0.474   2.722   0.835  0.1215 -0.1748  0.2476
  436SOL     OW 1816   3.854   3.751   0.872  0.2879  0.1474 -0.2284
  436SOL    HW2 1817   3.793   3.678   0.873 -0.9619  1.1882  0.1321
  436SOL    HW3 1818   3.850   3.784   0.782 -0.8732  1.1867  0.1858
  436SOL    MW4 1819   3.846   3.746   0.860 -0.0303  0.4215 -0.1261
  437SOL     OW 1820   3.759   4.265   0.526 -0.1323 -0.1354  0.0551
  437SOL    HW2 1821   3.712   4.317   0.591 -0.2558 -1.3828  0.9780
  437SOL    HW3 1822   3.828   4.323   0.494  0.1582  0.3700  1.5642
  437SOL    MW4 1823   3.762   4.279   0.530 -0.1101 -0.2332  0.3759
  438SOL     OW 1824   3.286   4.220   0.737  0.1516 -0.3842 -0.0885
  438SOL    HW2 1825   3.358   4.201   0.798 -0.5358  0.0998  0.8694
  438SOL    HW3 1826   3.254   4.134   0.711 -0.7119 -0.6008  1.6071
  438SOL    MW4 1827   3.292   4.206   0.742 -0.0532 -0.3486  0.2616
  439SOL     OW 1828   3.120   0.388   0.867  0.3434 -0.2703  0.2167
  439SOL    HW2 1829   3.170   0.308   0.848  0.8973  0.2939 -0.7194
  439SOL    HW3 1830   3.098   0.380   0.960  2.2193 -0.5274  0.6751
  439SOL    MW4 1831   3.124   0.376   0.877  0.6638 -0.2298  0.1537
  440SOL     OW 1832   3.502   1.026   0.664 -0.0105  0.1421 -0.2738
  440SOL    HW2 1833   3.497   1.099   0.603  0.7631  0.0807 -0.4216
  440SOL    HW3 1834   3.433   0.965   0.636 -0.3987  0.6365 -0.3856
  440SOL    MW4 1835   3.493   1.027   0.653  0.0403  0.1992 -0.3080
  441SOL     OW 1836   2.997   0.452   0.261 -0.2693  0.1076  0.3325
  441SOL    HW2 1837   2.990   0.359   0.242 -1.8545  0.9464 -3.9344
  441SOL    HW3 1838   3.091   0.471   0.254 -0.1836 -0.7913 -1.1246
  441SOL    MW4 1839   3.009   0.442   0.257 -0.4671  0.0996 -0.4227
  442SOL     OW 1840   3.513   0.338   0.829  0.3265  0.2443 -0.1294
  442SOL    HW2 1841   3.515   0.326   0.924  2.1558  2.3901  0.1433
  442SOL    HW3 1842   3.585   0.285   0.797  1.2615  1.4346 -0.0446
  442SOL    MW4 1843   3.523   0.330   0.838  0.6909  0.6845 -0.0823
  443SOL     OW 1844   3.501   0.590   0.705  0.0450 -0.2342 -0.0554
  443SOL    HW2 1845   3.558   0.634   0.769  0.6831 -0.1001 -0.7061
  443SOL    HW3 1846   3.505   0.497   0.730  0.8369 -0.2732 -0.3114
  443SOL    MW4 1847   3.509   0.583   0.717  0.2339 -0.2217 -0.1751
  444SOL     OW 1848   0.558   1.456   0.544 -0.3657  0.1037  0.0304
  444SOL    HW2 1849   0.618   1.402   0.493 -1.1044  0.0214 -0.7582
  444SOL    HW3 1850   0.604   1.470   0.627 -0.1187 -1.6758  0.2307
  444SOL    MW4 1851   0.572   1.451   0.549 -0.4306 -0.1420 -0.0473
  445SOL     OW 1852   3.403   1.110   0.891  0.2236 -0.2759  0.0950
  445SOL    HW2 1853   3.448   1.076   0.814 -0.4971  1.7850 -1.2837
  445SOL    HW3 1854   3.473   1.126   0.954  1.2401  1.0256 -1.3177
  445SOL    MW4 1855   3.418   1.108   0.889  0.2627  0.1676 -0.2732
  446SOL     OW 1856   4.242   1.706   0.870  0.4407  0.1455  0.0236
  446SOL    HW2 1857   4.243   1.644   0.943  1.7974  1.2182  0.9464
  446SOL    HW3 1858   4.334   1.716   0.846 -0.1134 -1.4832 -2.9880
  446SOL    MW4 1859   4.255   1.700   0.877  0.5469  0.0721 -0.2519
  447SOL     OW 1860   3.783   1.809   0.770  0.1013  0.0649  0.2050
  447SOL    HW2 1861   3.741   1.895   0.770  0.0604  0.0424 -0.3740
  447SOL    HW3 1862   3.874   1.827   0.794  0.1892  0.3164 -0.3141
  447SOL    MW4 1863   3.790   1.823   0.773  0.1073  0.0951  0.0602
  448SOL     OW 1864   4.053   1.899   0.823  0.2330  0.4697  0.1395
  448SOL    HW2 1865   4.127   1.838   0.825  1.2659  1.7004  0.0760
  448SOL    HW3 1866   4.058   1.940   0.737 -0.8960  0.1206 -0.0959
  448SOL    MW4 1867   4.063   1.896   0.812  0.2208  0.5862  0.1001
  449SOL     OW 1868   2.922   1.613   0.608  0.1404  0.0768 -0.1306
  449SOL    HW2 1869   3.003   1.658   0.634  0.9805 -1.9633  0.9104
  449SOL    HW3 1870   2.865   1.621   0.684 -0.3328  0.7781 -0.5524
  449SOL    MW4 1871   2.925   1.620   0.621  0.1888 -0.0999 -0.0489
  450SOL     OW 1872   4.012   2.681   0.853  0.2552  0.1665  0.1533
  450SOL    HW2 1873   4.035   2.696   0.944  0.8398  0.7311 -0.0811
  450SOL    HW3 1874   4.083   2.722   0.803 -0.5644  0.7227 -0.5658
  450SOL    MW4 1875   4.025   2.688   0.858  0.2241  0.3145  0.0275
  451SOL     OW 1876   3.426   2.816   0.453  0.5317  0.0153 -0.4212
  451SOL    HW2 1877   3.392   2.803   0.541  1.0829  0.6678 -0.1117
  451SOL    HW3 1878   3.405   2.907   0.431 -1.0237 -0.5972 -1.5951
  451SOL    MW4 1879   3.419   2.826   0.462  0.3991  0.0205 -0.5352
  452SOL     OW 1880   3.344   3.066   0.777  0.1955 -0.2391  0.2194
  452SOL    HW2 1881   3.276   3.113   0.729 -1.8017 -2.3488  0.8470
  452SOL    HW3 1882   3.332   3.092   0.868  0.2610 -0.5593  0.3227
  452SOL    MW4 1883   3.333   3.076   0.782 -0.0594 -0.5596  0.3158
  453SOL     OW 1884   0.456   3.122   0.295 -0.1342 -0.1026 -0.2323
  453SOL    HW2 1885   0.444   3.207   0.253  1.4349  0.6683  0.8164
  453SOL    HW3 1886   0.470   3.061   0.223  0.3118  0.8154 -0.9274
  453SOL    MW4 1887   0.457   3.125   0.280  0.1317  0.1204 -0.1857
  454SOL     OW 1888   3.674   2.960   0.480  0.0670 -0.1650 -0.0774
  454SOL    HW2 1889   3.621   2.887   0.447 -0.6474 -0.4232  1.5936
  454SOL    HW3 1890   3.704   2.930   0.566 -0.2778  1.5419  0.6419
  454SOL    MW4 1891   3.671   2.946   0.487 -0.0730  0.0262  0.2379
  455SOL     OW 1892   4.469   3.710   0.725 -0.0750 -0.2750 -0.3650
  455SOL    HW2 1893   4.540   3.770   0.747 -0.9238  0.3839  0.6195
  455SOL    HW3 1894   4.394   3.742   0.775 -0.8454 -1.4647 -0.7387
  455SOL    MW4 1895   4.468   3.722   0.734 -0.2885 -0.3448 -0.2844
  456SOL     OW 1896   2.444   1.107   0.597 -0.1137 -0.1656 -0.4779
  456SOL    HW2 1897   2.535   1.107   0.568  0.1206  1.7199  0.2106
  456SOL    HW3 1898   2.395   1.140   0.523 -0.0080  0.6666 -0.1773
  456SOL    MW4 1899   2.450   1.111   0.584 -0.0689  0.1931 -0.3474
  457SOL     OW 1900   3.073   1.334   0.917  0.0034  0.3374  0.4418
  457SOL    HW2 1901   3.148   1.375   0.874  0.2771 -0.9203 -0.3017
  457SOL    HW3 1902   3.111   1.264   0.970 -0.6284 -0.1930  0.2001
  457SOL    MW4 1903   3.088   1.330   0.918 -0.0441  0.1014  0.3119
  458SOL     OW 1904   1.738   0.054   0.470 -0.1494  0.2011 -0.2549
  458SOL    HW2 1905   1.677   0.127   0.468 -0.3176  0.0623 -0.2089
  458SOL    HW3 1906   1.755   0.039   0.563 -1.0957 -0.6314 -0.2043
  458SOL    MW4 1907   1.732   0.062   0.482 -0.2965  0.0730 -0.2421
  459SOL     OW 1908   4.480   4.515   0.489  0.0862  0.6363 -0.6769
  459SOL    HW2 1909   4.492   4.508   0.584  0.6087 -0.5223 -0.8290
  459SOL    HW3 1910   4.476   4.610   0.473 -0.6745  0.8318  0.5742
  459SOL    MW4 1911   4.481   4.527   0.500  0.0544  0.5093 -0.5319
  460SOL     OW 1912   1.673   4.014   0.246 -0.2731  0.2901  0.1618
  460SOL    HW2 1913   1.612   4.088   0.239 -0.0932  0.5092  0.8966
  460SOL    HW3 1914   1.681   3.981   0.156  0.8860  2.1549 -0.4399
  460SOL    MW4 1915   1.666   4.019   0.233 -0.0964  0.5655  0.1794
  461SOL     OW 1916   3.336   4.363   0.501  0.2937 -0.3238 -0.1918
  461SOL    HW2 1917   3.323   4.316   0.583  0.5867  0.2482  0.1883
  461SOL    HW3 1918   3.404   4.315   0.456 -0.3300 -1.0197 -0.3906
  461SOL    MW4 1919   3.343   4.351   0.506  0.2501 -0.3400 -0.1679
  462SOL     OW 1920   2.588   3.662   0.475 -0.3097 -0.2439 -0.1279
  462SOL    HW2 1921   2.560   3.629   0.560 -0.1950  1.2715  0.5127
  462SOL    HW3 1922   2.595   3.584   0.420 -1.3668 -1.1240  0.9611
  462SOL    MW4 1923   2.585   3.647   0.479 -0.4342 -0.1602  0.1003
  463SOL     OW 1924   4.005   0.579   0.735  0.1178 -0.1619 -0.0235
  463SOL    HW2 1925   4.010   0.545   0.646  0.1535 -0.4725  0.0974
  463SOL    HW3 1926   3.915   0.609   0.745  0.4493  1.0449 -0.5947
  463SOL    MW4 1927   3.994   0.579   0.725  0.1664 -0.0436 -0.0829
  464SOL     OW 1928   4.413   0.776   0.460 -0.4302  0.3639  0.2567
  464SOL    HW2 1929   4.496   0.822   0.445  0.2538 -1.1376 -0.5929
  464SOL    HW3 1930   4.434   0.684   0.448 -1.9603 -0.1336  1.2783
  464SOL    MW4 1931   4.427   0.770   0.457 -0.5412  0.1002  0.2794
  465SOL     OW 1932   3.993   0.313   0.814 -0.0187  0.0743 -0.4368
  465SOL    HW2 1933   4.087   0.297   0.818 -0.2263 -0.8165  1.9640
  465SOL    HW3 1934   3.984   0.406   0.798  1.2619 -0.0160 -1.7440
  465SOL    MW4 1935   4.004   0.323   0.813  0.1230 -0.0551 -0.2925
  466SOL     OW 1936   0.203   4.333   0.413 -0.1343 -0.1237 -0.3452
  466SOL    HW2 1937   0.134   4.395   0.437  1.2890  1.1375  0.5593
  466SOL    HW3 1938   0.276   4.355   0.470  0.4580 -2.5675 -0.0987
  466SOL    MW4 1939   0.203   4.344   0.424  0.1316 -0.2799 -0.1934
  467SOL     OW 1940   0.301   1.291   0.483 -0.2850  0.0878 -0.3254
  467SOL    HW2 1941   0.376   1.349   0.497 -0.3961 -0.2181  1.6409
  467SOL    HW3 1942   0.337   1.218   0.431  0.4999  0.5134 -0.3929
  467SOL    MW4 1943   0.316   1.289   0.478 -0.1961  0.1035 -0.0749
  468SOL     OW 1944   3.883   1.379   0.823 -0.1108  0.1047 -0.4506
  468SOL    HW2 1945   3.893   1.284   0.814  1.2453  0.2792 -0.9981
  468SOL    HW3 1946   3.967   1.415   0.793 -0.3402  1.4452  0.4554
  468SOL    MW4 1947   3.896   1.371   0.818  0.0381  0.3045 -0.4033
  469SOL     OW 1948   4.446   0.614   0.772 -0.7255  0.3222 -0.7151
  469SOL    HW2 1949   4.469   0.531   0.813 -2.1237 -0.0931 -0.7270
  469SOL    HW3 1950   4.436   0.594   0.679 -0.8988  0.5293 -0.7441
  469SOL    MW4 1951   4.447   0.601   0.765 -0.9327  0.2947 -0.7204
  470SOL     OW 1952   3.551   1.246   0.490  0.0796 -0.0299  0.0108
  470SOL    HW2 1953   3.500   1.307   0.437  0.1413 -0.7359 -0.8764
  470SOL    HW3 1954   3.613   1.301   0.538  0.4466  0.5613 -1.1367
  470SOL    MW4 1955   3.552   1.261   0.489  0.1361 -0.0449 -0.2576
  471SOL     OW 1956   3.475   3.464   0.524 -0.2076  0.3605  0.5431
  471SOL    HW2 1957   3.533   3.532   0.491 -0.1612 -0.1291 -0.3862
  471SOL    HW3 1958   3.534   3.391   0.544 -0.5485 -0.3173 -0.8739
  471SOL    MW4 1959   3.490   3.463   0.523 -0.2460  0.2067  0.2335
  472SOL     OW 1960   4.364   2.239   0.653  0.1821  0.3217 -0.3571
  472SOL    HW2 1961   4.368   2.143   0.655  0.5038  0.3445  0.4842
  472SOL    HW3 1962   4.453   2.266   0.628  0.2141  0.4095 -0.1504
  472SOL    MW4 1963   4.376   2.230   0.650  0.2289  0.3359 -0.2189
  473SOL     OW 1964   2.926   1.360   0.507 -0.0158  0.0169  0.2313
  473SOL    HW2 1965   3.015   1.351   0.473 -0.0009  0.4868  0.1445
  473SOL    HW3 1966   2.926   1.444   0.554 -0.6171  0.3844 -0.4180
  473SOL    MW4 1967   2.938   1.370   0.509 -0.0932  0.1274  0.1341
  474SOL     OW 1968   3.397   1.452   0.353 -0.3769 -0.0004  0.1624
  474SOL    HW2 1969   3.335   1.492   0.291 -1.0398 -0.6989  0.3681
  474SOL    HW3 1970   3.480   1.449   0.305 -0.3339  1.5218  0.1040
  474SOL    MW4 1971   3.400   1.457   0.339 -0.4587  0.1085  0.1818
  475SOL     OW 1972   3.987   2.450   0.718  0.1692  0.0561  0.0058
  475SOL    HW2 1973   3.925   2.384   0.751  0.3160  0.0461  0.2660
  475SOL    HW3 1974   3.973   2.526   0.775  2.9072 -1.1568  2.4283
  475SOL    MW4 1975   3.977   2.451   0.730  0.5500 -0.1056  0.3597
  476SOL     OW 1976   3.576   2.415   0.711 -0.2958  0.7102  0.2457
  476SOL    HW2 1977   3.577   2.510   0.722  0.9189  0.6506  0.6834
  476SOL    HW3 1978   3.647   2.383   0.767  1.3748 -0.2033 -2.3093
  476SOL    MW4 1979   3.586   2.423   0.720  0.0846  0.5820 -0.0336
  477SOL     OW 1980   3.743   3.211   0.824 -0.0726 -0.0686 -0.3456
  477SOL    HW2 1981   3.826   3.186   0.783  0.2071  0.1086  0.1063
  477SOL    HW3 1982   3.678   3.200   0.755  0.3515 -0.0488 -0.7521
  477SOL    MW4 1983   3.745   3.206   0.810  0.0203 -0.0427 -0.3396
  478SOL     OW 1984   0.733   2.293   0.375  0.1516  0.1803  0.0657
  478SOL    HW2 1985   0.714   2.382   0.344 -0.5593  0.1506  0.3971
  478SOL    HW3 1986   0.809   2.303   0.432  0.2890  0.5265 -0.1772
  478SOL    MW4 1987   0.740   2.306   0.378  0.0759  0.2222  0.0774
  479SOL     OW 1988   3.806   2.270   0.822  0.4972 -0.0554  0.3698
  479SOL    HW2 1989   3.776   2.183   0.794  0.6644 -0.1440  0.4650
  479SOL    HW3 1990   3.818   2.262   0.917 -0.6504  0.4179  0.5550
  479SOL    MW4 1991   3.804   2.257   0.831  0.3679 -0.0048  0.4068
  480SOL     OW 1992   0.013   0.141   0.431 -0.2485 -0.0556  0.2768
  480SOL    HW2 1993   0.026   0.145   0.526  0.3615 -0.0918  0.2011
  480SOL    HW3 1994  -0.078   0.166   0.417 -0.5831 -0.9160  0.9385
  480SOL    MW4 1995   0.003   0.145   0.442 -0.2121 -0.1739  0.3541
  481SOL     OW 1996   0.305   2.942   0.812  0.0997 -0.2408 -0.3898
  481SOL    HW2 1997   0.342   2.999   0.746 -1.1143 -0.0834 -0.9548
  481SOL    HW3 1998   0.251   2.880   0.763  1.2248 -1.7582  0.2234
  481SOL    MW4 1999   0.303   2.941   0.797  0.0880 -0.4201 -0.3834
  482SOL     OW 2000   1.935   3.116   0.361 -0.4328  0.3270 -0.1292
  482SOL    HW2 2001   2.003   3.096   0.425 -1.1438  0.0375  0.5421
  482SOL    HW3 2002   1.913   3.031   0.323 -0.6657  0.3739 -0.0980
  482SOL    MW4 2003   1.941   3.102   0.364 -0.5574  0.2952 -0.0364
  483SOL     OW 2004   4.004   4.407   0.438  0.6713 -0.1120 -0.6012
  483SOL    HW2 2005   4.020   4.499   0.419  0.7394 -0.0118 -0.0817
  483SOL    HW3 2006   4.089   4.365   0.428  0.7622 -0.0129 -0.2706
  483SOL    MW4 2007   4.017   4.413   0.434  0.6924 -0.0858 -0.4890
  484SOL     OW 2008   3.599   2.427   0.441  0.4492  0.5880  0.3495
  484SOL    HW2 2009   3.684   2.462   0.414  0.5284  0.2770  0.1880
  484SOL    HW3 2010   3.602   2.426   0.536  1.9320 -2.5458  0.3346
  484SOL    MW4 2011   3.611   2.431   0.450  0.6552  0.1335  0.3262
  485SOL     OW 2012   0.198   0.885   0.442 -0.1983 -0.5806 -0.0898
  485SOL    HW2 2013   0.215   0.921   0.529  2.7440 -0.8314 -0.5142
  485SOL    HW3 2014   0.224   0.793   0.448 -2.3005 -1.2412 -0.5928
  485SOL    MW4 2015   0.203   0.878   0.454 -0.0875 -0.7009 -0.2121
  486SOL     OW 2016   3.810   4.606   0.817  0.1797  0.0432 -0.2026
  486SOL    HW2 2017   3.899   4.576   0.797  0.9952 -0.1657  3.4126
  486SOL    HW3 2018   3.798   4.683   0.762  2.3534 -0.3089 -1.2314
  486SOL    MW4 2019   3.820   4.612   0.807  0.5739 -0.0310  0.1386
  487SOL     OW 2020   0.209   4.630   1.129 -0.0808  1.0070 -0.0153
  487SOL    HW2 2021   0.277   4.694   1.153  0.8121  0.1824 -0.3172
  487SOL    HW3 2022   0.201   4.638   1.034 -0.7165  1.4083  0.0721
  487SOL    MW4 2023   0.217   4.640   1.119 -0.0468  0.9513 -0.0436
  488SOL     OW 2024   4.460   0.070   1.221  0.0107  0.2547 -0.2694
  488SOL    HW2 2025   4.386   0.057   1.162 -0.2406  0.2593  0.0443
  488SOL    HW3 2026   4.531   0.018   1.183 -0.1611  0.2361 -0.5600
  488SOL    MW4 2027   4.460   0.061   1.209 -0.0453  0.2529 -0.2663
  489SOL     OW 2028   0.030   0.337   1.137  0.1241  0.1358 -0.0664
  489SOL    HW2 2029  -0.047   0.391   1.158  0.8285  1.4178 -0.7313
  489SOL    HW3 2030   0.000   0.247   1.151 -0.7825  0.7297  1.9904
  489SOL    MW4 2031   0.016   0.332   1.142  0.0974  0.3833  0.1173
  490SOL     OW 2032   0.276   0.481   1.218  0.0456 -0.0993 -0.4163
  490SOL    HW2 2033   0.261   0.570   1.185 -0.8244  0.1253  0.5764
  490SOL    HW3 2034   0.195   0.434   1.199  0.2915 -0.5241 -0.4175
  490SOL    MW4 2035   0.263   0.487   1.211 -0.0367 -0.1257 -0.2855
  491SOL     OW 2036   0.205   0.729   1.123  0.1853  0.0000 -0.0370
  491SOL    HW2 2037   0.279   0.787   1.138  0.6563 -0.6524  0.2139
  491SOL    HW3 2038   0.129   0.778   1.153  0.3789  1.1214 -1.3926
  491SOL    MW4 2039   0.205   0.743   1.129  0.2730  0.0619 -0.1827
  492SOL     OW 2040   0.011   0.905   1.183 -0.4687 -0.1657 -0.6276
  492SOL    HW2 2041   0.017   0.907   1.278 -0.1505  0.1907 -0.6522
  492SOL    HW3 2042  -0.058   0.841   1.164 -1.4704  0.7381 -0.1104
  492SOL    MW4 2043   0.002   0.897   1.193 -0.5589  0.0005 -0.5628
  493SOL     OW 2044   0.023   1.138   1.036 -0.4569 -0.4647  0.2343
  493SOL    HW2 2045  -0.055   1.174   1.080  0.6251 -0.5124  2.2391
  493SOL    HW3 2046   0.033   1.050   1.073  0.0655 -0.7750 -0.6455
  493SOL    MW4 2047   0.014   1.131   1.047 -0.2452 -0.5120  0.3828
  494SOL     OW 2048   0.248   1.252   1.178 -0.0030  0.6235 -0.1660
  494SOL    HW2 2049   0.333   1.226   1.143  0.0098  1.7932 -1.0489
  494SOL    HW3 2050   0.184   1.213   1.119 -0.0255  1.1888 -0.5209
  494SOL    MW4 2051   0.251   1.244   1.166 -0.0043  0.8523 -0.3293
  495SOL     OW 2052   0.232   1.515   1.092  0.4015  0.2612 -0.0289
  495SOL    HW2 2053   0.230   1.421   1.108 -0.4675  0.1397 -0.7739
  495SOL    HW3 2054   0.276   1.524   1.007 -0.2716  0.4518 -0.3661
  495SOL    MW4 2055   0.237   1.504   1.083  0.1980  0.2704 -0.1718
  496SOL     OW 2056   0.012   1.636   1.194  0.3392 -0.2230 -0.2096
  496SOL    HW2 2057   0.014   1.728   1.166  0.6055 -0.3857 -0.7251
  496SOL    HW3 2058   0.093   1.599   1.159 -0.9688 -1.2856 -2.1662
  496SOL    MW4 2059   0.023   1.643   1.186  0.2017 -0.3848 -0.5356
  497SOL     OW 2060   0.012   1.912   1.093  0.2143  0.0971 -0.1053
  497SOL    HW2 2061  -0.075   1.934   1.127 -0.0552 -0.8028 -0.2125
  497SOL    HW3 2062  -0.005   1.879   1.004  0.8401  1.6924 -0.8340
  497SOL    MW4 2063  -0.002   1.911   1.085  0.2613  0.1889 -0.2156
  498SOL     OW 2064   0.257   2.015   1.213  0.0840  0.2451 -0.3716
  498SOL    HW2 2065   0.250   2.108   1.192 -1.2355  0.7577  2.1578
  498SOL    HW3 2066   0.179   1.976   1.174  0.9605  0.0550 -1.9865
  498SOL    MW4 2067   0.246   2.022   1.205  0.0255  0.2878 -0.2509
  499SOL     OW 2068   0.211   2.261   1.112 -0.5716  0.2017 -0.3893
  499SOL    HW2 2069   0.287   2.308   1.147 -0.9195  0.1812  0.3928
  499SOL    HW3 2070   0.136   2.310   1.145 -0.9330 -0.7106  0.1393
  499SOL    MW4 2071   0.211   2.274   1.121 -0.6652  0.0789 -0.2162
  500SOL     OW 2072   4.476   2.416   1.188 -0.3717 -0.1271  0.1606
  500SOL    HW2 2073   4.473   2.425   1.283  0.1648  2.1272 -0.0013
  500SOL    HW3 2074   4.388   2.388   1.164 -1.2971  1.8398  1.1155
  500SOL    MW4 2075   4.464   2.414   1.198 -0.4231  0.4296  0.2652
  501SOL     OW 2076   4.485   2.675   1.087 -0.2132 -0.1465  0.1322
  501SOL    HW2 2077   4.420   2.730   1.131 -0.5755  0.1588 -0.7630
  501SOL    HW3 2078   4.475   2.589   1.127 -1.0691 -0.0619  0.1081
  501SOL    MW4 2079   4.475   2.671   1.098 -0.3743 -0.0949  0.0110
  502SOL     OW 2080   0.215   2.834   1.455  0.0750  0.3565 -0.2859
  502SOL    HW2 2081   0.212   2.822   1.360 -1.8478  0.8139 -0.3042
  502SOL    HW3 2082   0.290   2.781   1.483  1.3136  1.0586 -2.1604
  502SOL    MW4 2083   0.224   2.825   1.446 -0.0152  0.5095 -0.5355
  503SOL     OW 2084   0.211   2.814   1.195  0.2133 -0.0197 -0.2016
  503SOL    HW2 2085   0.131   2.772   1.161  1.1479 -0.8368 -1.4499
  503SOL    HW3 2086   0.210   2.901   1.156  1.4081 -1.0385 -2.6553
  503SOL    MW4 2087   0.200   2.820   1.185  0.4942 -0.2618 -0.6901
  504SOL     OW 2088   0.013   3.122   1.226  0.5765  0.0491  0.6226
  504SOL    HW2 2089  -0.056   3.101   1.162  0.2309  1.9850  0.3347
  504SOL    HW3 2090   0.095   3.109   1.177  0.3336  0.6236  0.0462
  504SOL    MW4 2091   0.015   3.118   1.211  0.4992  0.3803  0.5087
  505SOL     OW 2092   0.007   3.406   1.132  0.0755  0.1342  0.1986
  505SOL    HW2 2093   0.009   3.321   1.176 -1.5502 -0.6580 -1.1653
  505SOL    HW3 2094  -0.075   3.446   1.162  0.6820  1.0790  0.5948
  505SOL    MW4 2095  -0.004   3.400   1.142 -0.0591  0.1540  0.0709
  506SOL     OW 2096   0.193   3.595   1.202  0.1463  0.1607 -0.4438
  506SOL    HW2 2097   0.186   3.587   1.297  0.4741 -0.2716 -0.4546
  506SOL    HW3 2098   0.140   3.523   1.168 -0.6032  0.7816 -0.6000
  506SOL    MW4 2099   0.185   3.585   1.210  0.0907  0.1857 -0.4659
  507SOL     OW 2100   0.207   3.853   1.079  0.3568  0.3015  0.0817
  507SOL    HW2 2101   0.132   3.895   1.120  0.5170  0.7400 -0.0709
  507SOL    HW3 2102   0.202   3.761   1.108 -0.8577  0.0679 -0.8075
  507SOL    MW4 2103   0.196   3.846   1.088  0.2177  0.3283 -0.0558
  508SOL     OW 2104   4.476   3.962   1.193 -0.1086 -0.2986 -0.3721
  508SOL    HW2 2105   4.463   3.975   1.286 -0.1231 -0.9811 -0.2773
  508SOL    HW3 2106   4.399   3.914   1.164  0.0072 -0.2947 -0.6902
  508SOL    MW4 2107   4.464   3.958   1.201 -0.0954 -0.3879 -0.4015
  509SOL     OW 2108   4.486   4.218   1.126  0.3049 -0.4009  0.1274
  509SOL    HW2 2109   4.570   4.243   1.165  0.0111  0.0573  0.4673
  509SOL    HW3 2110   4.474   4.127   1.152  1.1679 -0.7749 -0.7488
  509SOL    MW4 2111   4.496   4.209   1.135  0.3800 -0.3901  0.0566
  510SOL     OW 2112   0.219   4.367   1.234  0.0349  0.0363 -0.6391
  510SOL    HW2 2113   0.220   4.370   1.330  1.5964  0.4274 -0.6552
  510SOL    HW3 2114   0.202   4.458   1.208 -0.2073 -0.0367 -0.7394
  510SOL    MW4 2115   0.217   4.379   1.244  0.2089  0.0787 -0.6545
  511SOL     OW 2116   0.643   0.002   1.131 -0.3878  0.1188 -0.0939
  511SOL    HW2 2117   0.732   0.014   1.163  0.3025 -0.4767 -1.7662
  511SOL    HW3 2118   0.617  -0.085   1.162  0.0627 -0.2106 -0.6357
  511SOL    MW4 2119   0.651  -0.008   1.139 -0.2373 -0.0038 -0.3859
  512SOL     OW 2120   0.408   0.150   1.201  0.6268 -0.1258  0.2365
  512SOL    HW2 2121   0.434   0.242   1.198  0.4296 -0.0981 -1.6803
  512SOL    HW3 2122   0.490   0.101   1.193  0.6818 -0.1014  0.6798
  512SOL    MW4 2123   0.422   0.155   1.199  0.6080 -0.1190  0.0421
  513SOL     OW 2124   0.492   0.394   1.075  0.5470  0.2524  0.8503
  513SOL    HW2 2125   0.419   0.434   1.122  0.0061  0.5305 -0.2404
  513SOL    HW3 2126   0.452   0.348   1.002  1.5662  1.3546 -0.4098
  513SOL    MW4 2127   0.477   0.393   1.072  0.6101  0.4345  0.5401
  514SOL     OW 2128   0.724   0.525   1.194 -0.1654 -0.2846  0.2032
  514SOL    HW2 2129   0.701   0.616   1.175 -0.7410 -0.5954 -0.6276
  514SOL    HW3 2130   0.649   0.474   1.163 -0.2320 -0.9836  1.4472
  514SOL    MW4 2131   0.711   0.530   1.188 -0.2502 -0.4178  0.2577
  515SOL     OW 2132   0.658   0.788   1.125 -0.3333  0.1680  0.1974
  515SOL    HW2 2133   0.566   0.801   1.146 -0.3602  0.2685  0.0188
  515SOL    HW3 2134   0.665   0.809   1.032  0.0979  1.3344  0.4826
  515SOL    MW4 2135   0.647   0.793   1.115 -0.2800  0.3352  0.2115
  516SOL     OW 2136   0.405   0.885   1.190 -0.4639 -0.3987 -0.3467
  516SOL    HW2 2137   0.392   0.879   1.284  1.6178 -2.5954 -0.1566
  516SOL    HW3 2138   0.429   0.977   1.175  1.5667 -0.5647  1.6150
  516SOL    MW4 2139   0.407   0.897   1.200  0.0786 -0.7104 -0.0628
  517SOL     OW 2140   0.491   1.138   1.113 -0.1742  0.4662  0.3219
  517SOL    HW2 2141   0.567   1.181   1.152  0.8125 -0.6347 -0.3313
  517SOL    HW3 2142   0.484   1.174   1.025 -0.7318  0.9436  0.5570
  517SOL    MW4 2143   0.500   1.148   1.107 -0.1176  0.3842  0.2667
  518SOL     OW 2144   0.711   1.287   1.196 -0.3682 -0.3227  0.5670
  518SOL    HW2 2145   0.783   1.233   1.163 -0.1226 -0.2047  0.9109
  518SOL    HW3 2146   0.714   1.366   1.142  0.0676 -0.1067  0.8993
  518SOL    MW4 2147   0.721   1.290   1.185 -0.2783 -0.2786  0.6561
  519SOL     OW 2148   0.717   1.524   1.056  0.0270  0.8956 -0.1004
  519SOL    HW2 2149   0.795   1.567   1.091 -0.6555  1.4250  0.8178
  519SOL    HW3 2150   0.645   1.558   1.110 -0.5228 -1.4679  0.7233
  519SOL    MW4 2151   0.717   1.534   1.068 -0.1356  0.6535  0.1295
  520SOL     OW 2152   0.465   1.613   1.212 -0.3790  0.0248 -0.1958
  520SOL    HW2 2153   0.462   1.630   1.306  1.3261  1.5350 -0.3849
  520SOL    HW3 2154   0.374   1.598   1.187 -1.0142  1.0288  1.4539
  520SOL    MW4 2155   0.453   1.613   1.221 -0.2378  0.3566 -0.0031
  521SOL     OW 2156   0.491   1.875   1.113  0.0027  0.3183 -0.3580
  521SOL    HW2 2157   0.494   1.792   1.160  0.2308  0.9114  0.7057
  521SOL    HW3 2158   0.410   1.917   1.144  1.5239  1.9065  1.6174
  521SOL    MW4 2159   0.480   1.870   1.124  0.2335  0.6061  0.0429
  522SOL     OW 2160   0.694   2.050   1.185  0.3838  0.0749  0.5119
  522SOL    HW2 2161   0.698   2.043   1.280 -0.4656  0.1060  0.5587
  522SOL    HW3 2162   0.614   2.003   1.161 -0.2714  1.4224 -0.0278
  522SOL    MW4 2163   0.684   2.043   1.194  0.1853  0.2568  0.4469
  523SOL     OW 2164   0.672   2.322   1.145 -0.1667 -0.2573 -0.3749
  523SOL    HW2 2165   0.587   2.339   1.186 -0.4572 -1.2513 -0.5551
  523SOL    HW3 2166   0.680   2.227   1.144  0.0900 -0.2418 -2.1154
  523SOL    MW4 2167   0.662   2.312   1.150 -0.1712 -0.3862 -0.6285
  524SOL     OW 2168   0.441   2.417   1.225 -0.3979  0.1748 -0.2313
  524SOL    HW2 2169   0.422   2.429   1.318 -1.0427 -0.3779 -0.2825
  524SOL    HW3 2170   0.441   2.506   1.189 -0.4107  0.3712  0.2507
  524SOL    MW4 2171   0.438   2.430   1.232 -0.4846  0.1278 -0.1744
  525SOL     OW 2172   0.467   2.691   1.116 -0.3541 -0.1135  0.4012
  525SOL    HW2 2173   0.398   2.749   1.148  0.1597  0.6590  0.1201
  525SOL    HW3 2174   0.470   2.707   1.022  1.3184  1.0668  0.6451
  525SOL    MW4 2175   0.458   2.701   1.108 -0.0657  0.1440  0.3964
  526SOL     OW 2176   0.696   2.823   1.185  0.6866  0.0088 -0.3728
  526SOL    HW2 2177   0.670   2.903   1.139  1.0441  0.4873  0.2591
  526SOL    HW3 2178   0.621   2.764   1.174 -0.0336  0.8237  0.1047
  526SOL    MW4 2179   0.683   2.826   1.178  0.6387  0.1793 -0.2266
  527SOL     OW 2180   0.654   3.076   1.042  0.5262  0.1355 -0.3833
  527SOL    HW2 2181   0.729   3.125   1.074  0.2412  0.5813 -0.3947
  527SOL    HW3 2182   0.644   3.103   0.951 -0.5928  1.2421  0.0596
  527SOL    MW4 2183   0.663   3.086   1.034  0.3410  0.3405 -0.3265
  528SOL     OW 2184   0.448   3.218   1.157  0.5752  0.0476 -0.2194
  528SOL    HW2 2185   0.448   3.309   1.127  0.1760 -0.0179 -0.4272
  528SOL    HW3 2186   0.528   3.180   1.122  1.6332  0.7877  1.3214
  528SOL    MW4 2187   0.458   3.225   1.149  0.6621  0.1369 -0.0435
  529SOL     OW 2188   0.413   3.480   1.119 -0.4683  0.6972  0.2605
  529SOL    HW2 2189   0.495   3.509   1.159  0.0062  0.3163 -0.4380
  529SOL    HW3 2190   0.345   3.518   1.175  0.1424  2.5264 -0.1997
  529SOL    MW4 2191   0.415   3.489   1.132 -0.3251  0.8883  0.1076
  530SOL     OW 2192   0.642   3.573   1.234 -0.4077 -0.0278  0.5465
  530SOL    HW2 2193   0.662   3.590   1.326  1.6577  0.2618  0.0631
  530SOL    HW3 2194   0.628   3.660   1.196  0.6245 -0.0136  0.1822
  530SOL    MW4 2195   0.643   3.587   1.241  0.0010  0.0124  0.4348
  531SOL     OW 2196   0.645   3.807   1.083  0.5687  0.4746 -0.5863
  531SOL    HW2 2197   0.574   3.856   1.125  0.9737  0.0922  0.5434
  531SOL    HW3 2198   0.619   3.802   0.991 -1.6003 -0.9639  0.0893
  531SOL    MW4 2199   0.632   3.813   1.076  0.3359  0.2344 -0.3482
  532SOL     OW 2200   0.425   3.961   1.225  0.3569 -0.0503 -0.2333
  532SOL    HW2 2201   0.433   4.053   1.202 -0.1776  0.7285  2.6360
  532SOL    HW3 2202   0.338   3.936   1.195  0.0704  0.6754 -0.0156
  532SOL    MW4 2203   0.415   3.970   1.218  0.2486  0.1481  0.1740
  533SOL     OW 2204   0.436   4.228   1.158  0.4179  0.2672  0.1299
  533SOL    HW2 2205   0.506   4.292   1.173  0.2281  0.4728  0.1452
  533SOL    HW3 2206   0.355   4.275   1.182  0.3567 -0.2754  1.0174
  533SOL    MW4 2207   0.434   4.243   1.163  0.3848  0.2232  0.2491
  534SOL     OW 2208   0.635   4.410   1.244 -0.3353  0.4107  0.0372
  534SOL    HW2 2209   0.645   4.390   1.338  0.5260  0.1227 -0.1138
  534SOL    HW3 2210   0.689   4.345   1.200 -0.2985  0.8981 -0.6382
  534SOL    MW4 2211   0.643   4.399   1.251 -0.2168  0.4368 -0.0719
  535SOL     OW 2212   1.134   4.655   1.159 -0.4379 -0.6428  0.2785
  535SOL    HW2 2213   1.116   4.564   1.185  0.1711 -1.0112 -0.5639
  535SOL    HW3 2214   1.141   4.651   1.064 -2.3242  0.6356  0.0752
  535SOL    MW4 2215   1.133   4.642   1.150 -0.6064 -0.5221  0.1405
  536SOL     OW 2216   0.887   0.090   1.207 -0.6949 -0.2005  0.0984
  536SOL    HW2 2217   0.883   0.104   1.301  1.6906  0.9683  0.0614
  536SOL    HW3 2218   0.974   0.054   1.191 -0.9350 -0.0538 -1.6892
  536SOL    MW4 2219   0.898   0.087   1.217 -0.4118 -0.0269 -0.1425
  537SOL     OW 2220   0.920   0.361   1.094  0.1049  0.0140 -0.2484
  537SOL    HW2 2221   0.901   0.280   1.142  0.1395  0.3404  0.3285
  537SOL    HW3 2222   0.854   0.423   1.126  1.9633  1.0975  1.6024
  537SOL    MW4 2223   0.909   0.358   1.105  0.3546  0.2000  0.0718
  538SOL     OW 2224   1.122   0.510   1.205 -0.0122  0.1850 -0.4939
  538SOL    HW2 2225   1.123   0.495   1.300  2.7100 -2.3425 -0.8284
  538SOL    HW3 2226   1.060   0.446   1.171  0.6277 -0.4117 -0.5697
  538SOL    MW4 2227   1.114   0.499   1.213  0.4314 -0.2273 -0.5480
  539SOL     OW 2228   1.129   0.762   1.111  0.0152 -0.2864  0.0719
  539SOL    HW2 2229   1.057   0.812   1.151 -0.7694 -0.9556 -0.4781
  539SOL    HW3 2230   1.116   0.672   1.143 -0.6798 -0.8509 -1.7287
  539SOL    MW4 2231   1.117   0.757   1.121 -0.1800 -0.4492 -0.2382
  540SOL     OW 2232   0.916   0.898   1.193 -0.2382  0.2865  0.3206
  540SOL    HW2 2233   0.910   0.975   1.136 -2.6053 -0.4328 -0.4569
  540SOL    HW3 2234   0.848   0.840   1.161  1.0898 -1.8666  1.3396
  540SOL    MW4 2235   0.907   0.901   1.181 -0.3753 -0.0925  0.3524
  541SOL     OW 2236   0.924   1.151   1.077  0.2297  0.2968  0.1036
  541SOL    HW2 2237   0.995   1.197   1.120  0.1776  2.3045 -1.8721
  541SOL    HW3 2238   0.921   1.188   0.989 -0.6008 -2.6567 -1.1717
  541SOL    MW4 2239   0.933   1.162   1.071  0.1133  0.1720 -0.3253
  542SOL     OW 2240   1.139   1.269   1.175 -0.7516 -0.2952 -0.4415
  542SOL    HW2 2241   1.135   1.262   1.270 -0.4173 -0.4074 -0.4317
  542SOL    HW3 2242   1.228   1.240   1.153 -0.0693  1.8380 -0.6031
  542SOL    MW4 2243   1.151   1.264   1.185 -0.6174 -0.0286 -0.4615
  543SOL     OW 2244   1.146   1.534   1.083 -0.3769 -0.6769  0.1239
  543SOL    HW2 2245   1.158   1.442   1.107  0.0276 -0.9002 -0.8918
  543SOL    HW3 2246   1.123   1.532   0.990  0.9270  0.3165 -0.2369
  543SOL    MW4 2247   1.145   1.522   1.074 -0.1515 -0.5752 -0.0578
  544SOL     OW 2248   0.927   1.682   1.167 -0.3271  0.4839 -0.1873
  544SOL    HW2 2249   0.916   1.772   1.135 -0.5101  0.0265 -1.4229
  544SOL    HW3 2250   1.015   1.657   1.137 -0.0285  0.4639  0.6896
  544SOL    MW4 2251   0.937   1.691   1.159 -0.3119  0.4208 -0.2347
  545SOL     OW 2252   0.890   1.928   1.015  0.3687 -0.2398  0.7406
  545SOL    HW2 2253   0.965   1.960   1.065  0.0534 -0.3170  1.2707
  545SOL    HW3 2254   0.814   1.961   1.063  0.0755  1.3756 -0.7933
  545SOL    MW4 2255   0.890   1.937   1.028  0.2884 -0.0370  0.6081
  546SOL     OW 2256   1.088   2.031   1.178 -0.7342  0.1838  0.0343
  546SOL    HW2 2257   1.069   2.057   1.268 -0.0586  0.9717 -0.0453
  546SOL    HW3 2258   1.088   2.113   1.129  1.1347  0.0203 -0.2770
  546SOL    MW4 2259   1.085   2.045   1.183 -0.3985  0.2663 -0.0170
  547SOL     OW 2260   1.159   2.298   1.099 -0.2225  0.0790  0.4105
  547SOL    HW2 2261   1.231   2.323   1.157 -1.3161  0.3938  1.6364
  547SOL    HW3 2262   1.081   2.333   1.140 -1.2125 -1.1498 -0.3718
  547SOL    MW4 2263   1.158   2.306   1.112 -0.4975 -0.0415  0.4691
  548SOL     OW 2264   0.926   2.419   1.210 -0.5390 -0.4763  0.2810
  548SOL    HW2 2265   0.838   2.388   1.188 -0.3602 -1.0772  0.4123
  548SOL    HW3 2266   0.929   2.414   1.306 -0.3565 -0.4657  0.2757
  548SOL    MW4 2267   0.915   2.414   1.220 -0.4913 -0.5538  0.2975
  549SOL     OW 2268   0.938   2.714   1.147 -0.2702  0.4769  0.1498
  549SOL    HW2 2269   0.916   2.621   1.153  0.0042  0.4762  1.2356
  549SOL    HW3 2270   0.861   2.760   1.180  0.9499  0.4945  3.2023
  549SOL    MW4 2271   0.925   2.708   1.152 -0.0730  0.4787  0.6958
  550SOL     OW 2272   1.174   2.840   1.213  0.0808 -0.0398 -0.0244
  550SOL    HW2 2273   1.179   2.847   1.308 -0.3979  0.5676 -0.0375
  550SOL    HW3 2274   1.091   2.795   1.196 -0.9802  1.8832 -0.2061
  550SOL    MW4 2275   1.163   2.835   1.223 -0.1224  0.2940 -0.0499
  551SOL     OW 2276   1.148   3.105   1.079  0.1247 -0.1494 -0.2545
  551SOL    HW2 2277   1.150   3.024   1.128  1.4154 -0.4892 -0.8514
  551SOL    HW3 2278   1.140   3.078   0.988 -1.5064  0.4544 -0.3049
  551SOL    MW4 2279   1.147   3.091   1.073  0.0798 -0.1144 -0.3400
  552SOL     OW 2280   0.869   3.225   1.158  0.2047  0.6024 -0.0651
  552SOL    HW2 2281   0.878   3.315   1.127 -0.2812  0.3853 -0.8688
  552SOL    HW3 2282   0.953   3.184   1.137  0.1555  0.6703 -0.4068
  552SOL    MW4 2283   0.881   3.231   1.151  0.1341  0.5827 -0.2161
  553SOL     OW 2284   0.882   3.509   1.071 -0.1664 -0.3255  0.6761
  553SOL    HW2 2285   0.801   3.541   1.110 -0.6963 -0.3011 -0.4121
  553SOL    HW3 2286   0.860   3.494   0.979  1.4947  1.2339 -0.0111
  553SOL    MW4 2287   0.868   3.511   1.064 -0.0171 -0.1166  0.4419
  554SOL     OW 2288   1.059   4.031   0.423 -0.1870 -0.0859  0.0572
  554SOL    HW2 2289   1.149   4.064   0.426 -0.5789  1.0109  0.0030
  554SOL    HW3 2290   1.005   4.110   0.418 -1.2695 -0.6463  2.2000
  554SOL    MW4 2291   1.064   4.046   0.423 -0.3815 -0.0153  0.3327
  555SOL     OW 2292   1.118   3.624   1.217  0.4041 -0.0013 -0.3212
  555SOL    HW2 2293   1.054   3.584   1.159  1.1768  0.6483 -1.6337
  555SOL    HW3 2294   1.200   3.581   1.196  0.9014  1.0102 -0.4818
  555SOL    MW4 2295   1.120   3.613   1.207  0.5716  0.2179 -0.5156
  556SOL     OW 2296   0.873   3.980   1.192  0.3272 -0.0771 -0.1706
  556SOL    HW2 2297   0.874   3.972   1.288 -1.6558 -0.1095 -0.1283
  556SOL    HW3 2298   0.796   3.930   1.165  0.7600  0.1134 -1.7711
  556SOL    MW4 2299   0.863   3.973   1.201  0.1227 -0.0563 -0.3763
  557SOL     OW 2300   0.843   4.255   1.117 -0.3548  0.4919 -0.0332
  557SOL    HW2 2301   0.873   4.176   1.162 -3.1649  0.1945  1.4043
  557SOL    HW3 2302   0.837   4.229   1.025 -0.5188 -0.7402  0.3206
  557SOL    MW4 2303   0.846   4.241   1.111 -0.7472  0.2899  0.2033
  558SOL     OW 2304   1.083   4.392   1.194 -0.0420  0.0321  0.3468
  558SOL    HW2 2305   0.991   4.368   1.185 -0.5899  1.7826  1.1106
  558SOL    HW3 2306   1.104   4.372   1.285  0.7232 -1.6169 -0.1747
  558SOL    MW4 2307   1.074   4.387   1.205 -0.0134  0.0463  0.3787
  559SOL     OW 2308   1.570   4.641   1.123  0.1629 -0.2226 -0.3497
  559SOL    HW2 2309   1.655   4.663   1.161  0.3956  0.9003 -1.4608
  559SOL    HW3 2310   1.565   4.545   1.130  0.9415 -0.1870  0.8947
  559SOL    MW4 2311   1.581   4.631   1.129  0.2962 -0.0696 -0.3322
  560SOL     OW 2312   1.355   0.135   1.223  0.4660  0.5082  0.2649
  560SOL    HW2 2313   1.431   0.084   1.195  0.8355  1.2002  0.0029
  560SOL    HW3 2314   1.280   0.076   1.208  0.9359 -0.1591  0.4913
  560SOL    MW4 2315   1.355   0.120   1.217  0.5769  0.5114  0.2601
  561SOL     OW 2316   1.357   0.411   1.096 -0.3726  0.4436 -0.1259
  561SOL    HW2 2317   1.362   0.320   1.123 -0.7070  0.2132 -0.8474
  561SOL    HW3 2318   1.274   0.443   1.132 -0.3440  0.4162 -0.0355
  561SOL    MW4 2319   1.347   0.403   1.105 -0.4129  0.4096 -0.2090
  562SOL     OW 2320   1.583   0.516   1.214 -0.4821 -0.4322 -0.0590
  562SOL    HW2 2321   1.587   0.604   1.178  1.5917 -0.2898  0.4992
  562SOL    HW3 2322   1.515   0.472   1.162 -1.2788  1.3624 -0.5606
  562SOL    MW4 2323   1.574   0.522   1.202 -0.3135 -0.1766 -0.0515
  563SOL     OW 2324   1.558   0.757   1.084  0.8134 -0.1562 -0.4036
  563SOL    HW2 2325   1.633   0.806   1.118 -0.4141  2.1201 -0.8178
  563SOL    HW3 2326   1.567   0.763   0.989  0.6537 -0.7586 -0.4606
  563SOL    MW4 2327   1.569   0.764   1.076  0.6303  0.0646 -0.4659
  564SOL     OW 2328   1.343   0.894   1.211 -0.3467 -0.5332  0.4517
  564SOL    HW2 2329   1.417   0.857   1.163 -0.8808  0.6248 -1.3166
  564SOL    HW3 2330   1.271   0.834   1.195 -0.6766  0.1655 -0.6881
  564SOL    MW4 2331   1.344   0.881   1.203 -0.4607 -0.2882  0.0681
  565SOL     OW 2332   1.379   1.141   1.091 -0.2495 -0.1430 -0.0053
  565SOL    HW2 2333   1.375   1.053   1.127  2.1767 -0.4565 -0.4066
  565SOL    HW3 2334   1.376   1.129   0.996  2.3647 -0.0081 -0.1473
  565SOL    MW4 2335   1.378   1.128   1.083  0.4156 -0.1665 -0.0769
  566SOL     OW 2336   1.628   1.279   1.203  0.2489  0.5529  0.0207
  566SOL    HW2 2337   1.706   1.237   1.166  0.0526 -0.6289  0.9214
  566SOL    HW3 2338   1.555   1.239   1.156  0.0769  0.1314  0.6470
  566SOL    MW4 2339   1.628   1.268   1.192  0.2004  0.3413  0.2221
  567SOL     OW 2340   1.573   1.551   1.123  0.0453  0.3505  0.0350
  567SOL    HW2 2341   1.647   1.596   1.165  0.9325 -0.1687 -0.9393
  567SOL    HW3 2342   1.594   1.458   1.130 -0.6392  0.1927 -0.0217
  567SOL    MW4 2343   1.585   1.545   1.129  0.0721  0.2611 -0.1010
  568SOL     OW 2344   1.333   1.682   1.230 -0.4331  0.5617  0.0386
  568SOL    HW2 2345   1.413   1.630   1.223  0.4395  1.4900  2.6112
  568SOL    HW3 2346   1.265   1.626   1.192  1.0568 -1.0857 -0.2828
  568SOL    MW4 2347   1.334   1.668   1.224 -0.1212  0.4668  0.3357
  569SOL     OW 2348   1.350   1.934   1.104  0.3928 -0.2438  0.3898
  569SOL    HW2 2349   1.339   1.844   1.134  0.2024  0.1481  1.5378
  569SOL    HW3 2350   1.263   1.973   1.111  0.4571  0.0097 -0.1699
  569SOL    MW4 2351   1.337   1.927   1.109  0.3761 -0.1587  0.4675
  570SOL     OW 2352   1.522   2.121   1.223 -0.0428 -0.0656 -0.4048
  570SOL    HW2 2353   1.486   2.208   1.205  0.0115  0.2327  0.8382
  570SOL    HW3 2354   1.457   2.061   1.188 -0.9595  0.4786  0.3255
  570SOL    MW4 2355   1.509   2.125   1.216 -0.1565  0.0453 -0.1445
  571SOL     OW 2356   1.676   2.507   0.881  0.7034  0.4370 -0.0714
  571SOL    HW2 2357   1.595   2.558   0.887  0.3178 -0.2474  0.5858
  571SOL    HW3 2358   1.653   2.434   0.823  1.0889  0.6868 -0.5437
  571SOL    MW4 2359   1.662   2.504   0.874  0.7035  0.3796 -0.0470
  572SOL     OW 2360   1.388   2.377   1.233  0.0365  0.0672 -0.1494
  572SOL    HW2 2361   1.385   2.392   1.328  0.1543 -0.5037 -0.0535
  572SOL    HW3 2362   1.386   2.465   1.195 -0.5780  0.2792  0.3635
  572SOL    MW4 2363   1.388   2.391   1.241 -0.0292  0.0198 -0.0690
  573SOL     OW 2364   1.371   2.650   1.151 -0.1264 -0.3552  0.0390
  573SOL    HW2 2365   1.442   2.707   1.180 -0.1077  0.0651 -0.8092
  573SOL    HW3 2366   1.291   2.696   1.176 -0.1346  0.7650 -1.9337
  573SOL    MW4 2367   1.370   2.664   1.158 -0.1251 -0.1519 -0.3332
  574SOL     OW 2368   1.581   2.820   1.216 -0.4363 -0.1091  0.4218
  574SOL    HW2 2369   1.676   2.808   1.205 -0.5201 -1.3127  0.9469
  574SOL    HW3 2370   1.561   2.898   1.163  0.7178 -0.2833 -0.3050
  574SOL    MW4 2371   1.591   2.829   1.207 -0.2953 -0.2909  0.3951
  575SOL     OW 2372   1.585   3.049   1.055 -0.3535  0.1211 -0.3902
  575SOL    HW2 2373   1.658   3.098   1.092 -0.1755 -0.6204  0.2405
  575SOL    HW3 2374   1.507   3.099   1.080 -0.1181  0.5239 -0.4563
  575SOL    MW4 2375   1.584   3.062   1.063 -0.2991  0.0765 -0.3157
  576SOL     OW 2376   1.394   3.211   1.181  0.2874  0.7409  0.2519
  576SOL    HW2 2377   1.391   3.189   1.274  1.1024  1.2340  0.4009
  576SOL    HW3 2378   1.314   3.173   1.144 -0.2676  0.9430  1.2429
  576SOL    MW4 2379   1.383   3.203   1.188  0.3217  0.8326  0.4022
  577SOL     OW 2380   1.363   3.496   1.157  0.5655 -0.5283  0.1893
  577SOL    HW2 2381   1.378   3.408   1.192  0.2073 -0.8381 -0.4228
  577SOL    HW3 2382   1.356   3.483   1.062  2.6394  0.4271 -0.1389
  577SOL    MW4 2383   1.364   3.483   1.149  0.7918 -0.4432  0.0651
  578SOL     OW 2384   1.586   3.639   1.202 -0.4018 -0.0264 -0.2631
  578SOL    HW2 2385   1.577   3.734   1.190 -0.1517 -0.0191 -0.4074
  578SOL    HW3 2386   1.501   3.603   1.179 -0.2511  0.0875 -1.0087
  578SOL    MW4 2387   1.574   3.647   1.198 -0.3489 -0.0103 -0.3805
  579SOL     OW 2388   0.853   3.477   0.794 -0.0198  0.0087 -0.4572
  579SOL    HW2 2389   0.865   3.566   0.761  0.3697 -0.4907 -1.6847
  579SOL    HW3 2390   0.780   3.442   0.743 -0.5101 -0.2137  0.3805
  579SOL    MW4 2391   0.845   3.484   0.783 -0.0331 -0.0868 -0.5086
  580SOL     OW 2392   1.831   3.824   0.591  0.1952  0.3440 -0.2072
  580SOL    HW2 2393   1.812   3.913   0.558  0.3533  0.9162  1.2307
  580SOL    HW3 2394   1.899   3.837   0.656  1.4059 -1.0553 -1.1887
  580SOL    MW4 2395   1.837   3.838   0.595  0.3757  0.2346 -0.1469
  581SOL     OW 2396   1.313   4.015   1.209 -0.3221 -0.3141 -0.0326
  581SOL    HW2 2397   1.316   4.101   1.166  0.3614  0.0097  0.6503
  581SOL    HW3 2398   1.234   3.974   1.175 -0.6468  0.5841 -0.3794
  581SOL    MW4 2399   1.303   4.021   1.199 -0.2749 -0.1531  0.0117
  582SOL     OW 2400   1.930   4.255   0.826 -0.4776  0.1503 -0.0027
  582SOL    HW2 2401   1.859   4.262   0.762 -1.2992  0.2847  0.9142
  582SOL    HW3 2402   1.989   4.190   0.788 -0.8048  0.4418 -1.0374
  582SOL    MW4 2403   1.928   4.247   0.812 -0.6292  0.2069 -0.0182
  583SOL     OW 2404   2.059   4.624   1.094  0.2823  0.0161  0.1009
  583SOL    HW2 2405   2.065   4.539   1.138 -0.6585 -0.5543 -0.8437
  583SOL    HW3 2406   2.040   4.602   1.003 -2.0381  1.2824  0.2518
  583SOL    MW4 2407   2.057   4.610   1.088 -0.1481  0.1087 -0.0038
  584SOL     OW 2408   1.832   0.060   1.210  0.0132  0.1478  0.0581
  584SOL    HW2 2409   1.821   0.151   1.183  0.1036 -0.0930 -0.7987
  584SOL    HW3 2410   1.911   0.031   1.164  1.1509  0.2434  1.9117
  584SOL    MW4 2411   1.841   0.068   1.201  0.1752  0.1286  0.1897
  585SOL     OW 2412   1.778   0.323   1.121 -0.1743  0.1248 -0.1823
  585SOL    HW2 2413   1.715   0.392   1.143 -1.0236 -0.2550 -1.3617
  585SOL    HW3 2414   1.775   0.318   1.026  0.3297 -1.1353 -0.1317
  585SOL    MW4 2415   1.769   0.332   1.112 -0.2198 -0.0916 -0.3312
  586SOL     OW 2416   1.997   0.529   1.171  0.1758  0.9194  0.0904
  586SOL    HW2 2417   1.988   0.529   1.267 -1.4965  1.8353 -0.0311
  586SOL    HW3 2418   1.936   0.461   1.142  0.1906  1.0966 -0.3486
  586SOL    MW4 2419   1.988   0.520   1.180 -0.0429  1.0636  0.0165
  587SOL     OW 2420   2.008   0.801   1.096 -0.3423 -0.1247  0.2469
  587SOL    HW2 2421   2.089   0.829   1.140 -0.4635  1.3187 -0.4168
  587SOL    HW3 2422   1.997   0.709   1.122  1.8029 -0.5110 -0.0872
  587SOL    MW4 2423   2.018   0.792   1.105 -0.0753  0.0148  0.1153
  588SOL     OW 2424   1.772   0.892   1.204  0.2884  0.2728  0.2146
  588SOL    HW2 2425   1.759   0.876   1.297  0.1239 -0.9663 -0.0057
  588SOL    HW3 2426   1.856   0.850   1.184 -0.2073 -0.4474 -0.4137
  588SOL    MW4 2427   1.782   0.884   1.213  0.2013  0.0143  0.1028
  589SOL     OW 2428   1.838   1.144   1.120 -0.3918  0.1399 -0.0246
  589SOL    HW2 2429   1.825   1.053   1.145  1.3844 -0.3044 -0.6548
  589SOL    HW3 2430   1.829   1.145   1.025  0.4173  0.4824 -0.0973
  589SOL    MW4 2431   1.835   1.132   1.111 -0.0507  0.1265 -0.1173
  590SOL     OW 2432   2.080   1.265   1.175 -0.1725  0.1939  0.4149
  590SOL    HW2 2433   2.147   1.208   1.136  0.2456 -0.8342  2.5422
  590SOL    HW3 2434   1.997   1.221   1.156 -0.1418  0.6776 -0.9030
  590SOL    MW4 2435   2.078   1.251   1.168 -0.1132  0.1221  0.5217
  591SOL     OW 2436   2.017   1.525   1.132  0.0597 -0.0789  0.5324
  591SOL    HW2 2437   2.029   1.431   1.145 -0.1982 -0.0466  1.0273
  591SOL    HW3 2438   2.011   1.536   1.037 -1.9804 -0.8127  0.5705
  591SOL    MW4 2439   2.018   1.514   1.121 -0.2434 -0.1714  0.6027
  592SOL     OW 2440   1.801   1.687   1.244 -0.4089 -0.2109 -0.3429
  592SOL    HW2 2441   1.779   1.774   1.210 -0.5349  0.0227  0.3157
  592SOL    HW3 2442   1.881   1.662   1.198  0.5070  0.9353  0.5996
  592SOL    MW4 2443   1.809   1.695   1.234 -0.3047 -0.0290 -0.1317
  593SOL     OW 2444   1.745   1.941   1.133  0.3522 -0.3385  0.6165
  593SOL    HW2 2445   1.682   1.996   1.179 -0.9400 -1.1313 -0.1719
  593SOL    HW3 2446   1.747   1.977   1.044  2.3408  0.7754  1.0609
  593SOL    MW4 2447   1.737   1.953   1.127  0.4442 -0.2962  0.5710
  594SOL     OW 2448   1.988   2.087   1.185 -0.5060  0.6485  0.0295
  594SOL    HW2 2449   1.989   2.082   1.281  0.1537 -0.2737 -0.0155
  594SOL    HW3 2450   1.901   2.054   1.161 -0.9903  1.6821  0.3440
  594SOL    MW4 2451   1.977   2.082   1.195 -0.4828  0.6633  0.0650
  595SOL     OW 2452   1.995   2.346   1.104 -0.5053 -0.3064 -0.4956
  595SOL    HW2 2453   2.067   2.398   1.141 -1.5960  1.7043 -1.1595
  595SOL    HW3 2454   2.005   2.260   1.145  2.6232 -0.2455 -1.0045
  595SOL    MW4 2455   2.006   2.342   1.114 -0.2365 -0.0331 -0.6504
  596SOL     OW 2456   1.790   2.522   1.147 -0.1086 -0.1776 -0.6631
  596SOL    HW2 2457   1.864   2.461   1.144 -0.5594 -0.7329 -0.7466
  596SOL    HW3 2458   1.737   2.498   1.070 -0.0597  0.6143 -0.9442
  596SOL    MW4 2459   1.793   2.511   1.136 -0.1616 -0.1464 -0.7113
  597SOL     OW 2460   1.840   2.792   1.137 -0.3348 -0.4345 -0.5559
  597SOL    HW2 2461   1.826   2.698   1.133 -0.0967 -0.5262  0.5008
  597SOL    HW3 2462   1.861   2.818   1.047  0.8997 -1.5966 -0.6105
  597SOL    MW4 2463   1.841   2.783   1.125 -0.1404 -0.5999 -0.4236
  598SOL     OW 2464   2.088   2.881   1.216 -0.2288 -0.0020  0.1557
  598SOL    HW2 2465   2.061   2.966   1.183  0.1126  0.2644  0.5531
  598SOL    HW3 2466   2.011   2.825   1.204 -0.2454  0.1991 -0.6813
  598SOL    MW4 2467   2.074   2.885   1.210 -0.1860  0.0598  0.0978
  599SOL     OW 2468   2.057   3.125   1.058  0.0457 -0.4785  0.0223
  599SOL    HW2 2469   1.971   3.155   1.089  0.0512  1.5970 -1.8149
  599SOL    HW3 2470   2.045   3.112   0.964  1.1654 -2.4472  0.1258
  599SOL    MW4 2471   2.044   3.127   1.049  0.1941 -0.4647 -0.2064
  600SOL     OW 2472   1.794   3.200   1.160  0.4273 -0.0159  0.2516
  600SOL    HW2 2473   1.807   3.194   1.255  0.0628 -0.1905  0.2917
  600SOL    HW3 2474   1.790   3.294   1.142 -0.9174 -0.0018  0.6026
  600SOL    MW4 2475   1.795   3.212   1.170  0.2017 -0.0367  0.3034
  601SOL     OW 2476   1.784   3.475   1.077  0.1210  0.0675 -0.0692
  601SOL    HW2 2477   1.860   3.522   1.111  0.7157 -0.4356 -0.6790
  601SOL    HW3 2478   1.709   3.523   1.111  0.7099  0.4761  0.6727
  601SOL    MW4 2479   1.784   3.488   1.086  0.2770  0.0551 -0.0517
  602SOL     OW 2480   1.991   3.610   1.189  0.3049 -0.0092 -0.1492
  602SOL    HW2 2481   1.985   3.600   1.284  0.9568 -0.6173 -0.1666
  602SOL    HW3 2482   2.071   3.563   1.165 -0.0745 -0.2061 -1.0470
  602SOL    MW4 2483   2.000   3.602   1.199  0.3407 -0.1156 -0.2699
  603SOL     OW 2484   2.039   3.865   1.063 -0.5382 -0.2260 -0.4106
  603SOL    HW2 2485   1.959   3.913   1.085  0.2353  0.8053  0.1769
  603SOL    HW3 2486   2.025   3.777   1.099 -1.0743  0.1785  0.3651
  603SOL    MW4 2487   2.027   3.860   1.070 -0.5071 -0.0365 -0.2308
  604SOL     OW 2488   1.798   3.994   1.169  0.0262 -0.6276 -0.1742
  604SOL    HW2 2489   1.804   3.980   1.263  2.1210  0.1467 -0.1796
  604SOL    HW3 2490   1.708   3.967   1.147 -0.4736 -0.8530  2.0086
  604SOL    MW4 2491   1.787   3.988   1.178  0.2366 -0.5553  0.1131
  605SOL     OW 2492   1.562   4.370   1.170  0.1796 -0.1801  0.1400
  605SOL    HW2 2493   1.645   4.334   1.139  0.2340  0.8555 -0.9195
  605SOL    HW3 2494   1.561   4.348   1.264  1.7501  0.0187  0.2203
  605SOL    MW4 2495   1.573   4.362   1.178  0.3941 -0.0176  0.0107
  606SOL     OW 2496   2.062   4.374   1.196  0.2227 -0.6863 -0.2384
  606SOL    HW2 2497   2.072   4.367   1.291 -0.2021  0.7980 -0.0582
  606SOL    HW3 2498   1.977   4.334   1.177 -0.4978  0.5556  0.2574
  606SOL    MW4 2499   2.052   4.368   1.206  0.0718 -0.3266 -0.1493
  607SOL     OW 2500   2.432   4.638   1.118 -0.1998 -0.3714 -0.0433
  607SOL    HW2 2501   2.503   4.701   1.131  0.1062 -0.7066 -0.0775
  607SOL    HW3 2502   2.360   4.671   1.172  0.2672 -0.4876  0.6650
  607SOL    MW4 2503   2.432   4.651   1.127 -0.0975 -0.4311  0.0455
  608SOL     OW 2504   2.233   0.133   1.230 -0.0927 -0.0300  0.9582
  608SOL    HW2 2505   2.234   0.219   1.187 -0.2288 -0.4587  0.0797
  608SOL    HW3 2506   2.163   0.085   1.186  0.9176 -1.0788  0.4755
  608SOL    MW4 2507   2.224   0.138   1.218  0.0226 -0.2249  0.7786
  609SOL     OW 2508   2.247   0.389   1.130 -0.0388 -0.1964 -0.2135
  609SOL    HW2 2509   2.166   0.440   1.133  0.1223 -0.0083  1.1087
  609SOL    HW3 2510   2.279   0.400   1.040 -0.9660  0.5284 -0.4620
  609SOL    MW4 2511   2.241   0.397   1.119 -0.1397 -0.0760 -0.0719
  610SOL     OW 2512   2.469   0.490   1.239 -0.0497  0.4578 -0.0027
  610SOL    HW2 2513   2.471   0.511   1.332  0.4237 -1.3484  0.4040
  610SOL    HW3 2514   2.382   0.453   1.225  0.2609 -0.2525 -0.0596
  610SOL    MW4 2515   2.458   0.488   1.249  0.0536  0.1258  0.0434
  611SOL     OW 2516   2.483   0.742   1.107 -0.0107 -0.0136 -1.0726
  611SOL    HW2 2517   2.486   0.659   1.154  0.6323  0.6803  0.1669
  611SOL    HW3 2518   2.497   0.719   1.015  1.4362 -1.1467 -0.5904
  611SOL    MW4 2519   2.485   0.728   1.101  0.2651 -0.0716 -0.8454
  612SOL     OW 2520   2.245   0.895   1.199 -0.0246 -0.1266 -0.2496
  612SOL    HW2 2521   2.251   0.902   1.295 -0.0272 -0.1148 -0.2504
  612SOL    HW3 2522   2.312   0.830   1.177 -0.2797 -0.4059 -0.2014
  612SOL    MW4 2523   2.255   0.887   1.209 -0.0587 -0.1618 -0.2434
  613SOL     OW 2524   2.300   1.129   1.070 -0.2727 -0.0880 -0.2339
  613SOL    HW2 2525   2.371   1.172   1.119  1.0353 -0.4520 -1.7862
  613SOL    HW3 2526   2.292   1.043   1.111 -1.5924  0.8562  1.6148
  613SOL    MW4 2527   2.308   1.124   1.082 -0.2744 -0.0116 -0.1948
  614SOL     OW 2528   2.494   1.273   1.193 -0.2738  0.0926  0.2044
  614SOL    HW2 2529   2.471   1.358   1.155  0.7789  0.6503  0.7659
  614SOL    HW3 2530   2.466   1.279   1.284  2.0941  0.8296  0.9303
  614SOL    MW4 2531   2.487   1.285   1.200  0.1774  0.2635  0.3742
  615SOL     OW 2532   2.437   1.521   1.105  0.0316  0.0394  0.0653
  615SOL    HW2 2533   2.372   1.575   1.149 -1.2569 -0.6477 -0.9597
  615SOL    HW3 2534   2.400   1.504   1.018  1.9636  0.3651 -0.8724
  615SOL    MW4 2535   2.424   1.526   1.099  0.1163 -0.0081 -0.1937
  616SOL     OW 2536   2.231   1.664   1.212 -0.0075  0.4375 -0.2095
  616SOL    HW2 2537   2.212   1.747   1.169  0.5215  0.8369  0.3181
  616SOL    HW3 2538   2.159   1.607   1.186 -0.9862  1.4008  0.3310
  616SOL    MW4 2539   2.219   1.667   1.203 -0.0668  0.6173 -0.0685
  617SOL     OW 2540   2.171   1.898   1.084 -0.1734  0.0105  0.3236
  617SOL    HW2 2541   2.095   1.952   1.107 -0.0463  0.0806  0.5810
  617SOL    HW3 2542   2.173   1.899   0.988 -0.5355 -0.0445  0.3161
  617SOL    MW4 2543   2.161   1.905   1.074 -0.2046  0.0125  0.3568
  618SOL     OW 2544   2.407   2.028   1.213 -0.3530  0.0423  0.4403
  618SOL    HW2 2545   2.487   1.986   1.183 -0.3108  0.7042 -0.3969
  618SOL    HW3 2546   2.337   1.980   1.169 -0.5367 -1.7909  2.6793
  618SOL    MW4 2547   2.408   2.016   1.203 -0.3715 -0.1125  0.6254
  619SOL     OW 2548   2.414   2.300   1.098 -0.2621 -0.0064 -0.4977
  619SOL    HW2 2549   2.430   2.219   1.145  2.1751 -0.1363 -1.5076
  619SOL    HW3 2550   2.406   2.274   1.006  1.0307  0.9254 -0.8954
  619SOL    MW4 2551   2.415   2.286   1.092  0.2301  0.0992 -0.6834
  620SOL     OW 2552   2.225   2.466   1.217  0.5870 -0.0908 -0.3215
  620SOL    HW2 2553   2.236   2.450   1.311 -1.1147  1.3721  0.1326
  620SOL    HW3 2554   2.283   2.401   1.176 -0.0580 -2.0119  1.6766
  620SOL    MW4 2555   2.234   2.455   1.224  0.2773 -0.1512  0.0020
  621SOL     OW 2556   2.277   2.715   1.120  0.4781  0.8306  0.2066
  621SOL    HW2 2557   2.277   2.629   1.161  0.9639  1.0432  0.6548
  621SOL    HW3 2558   2.199   2.759   1.155 -0.7367 -0.0501 -1.3484
  621SOL    MW4 2559   2.267   2.710   1.130  0.3822  0.7422  0.0606
  622SOL     OW 2560   2.498   2.867   1.183 -0.1514 -0.2347  0.3103
  622SOL    HW2 2561   2.508   2.883   1.277  0.3057 -0.2422  0.2649
  622SOL    HW3 2562   2.417   2.817   1.176  0.3136 -1.0787  0.7959
  622SOL    MW4 2563   2.489   2.862   1.194 -0.0296 -0.3474  0.3684
  623SOL     OW 2564   2.502   3.106   1.066 -0.5293  0.1686 -0.0871
  623SOL    HW2 2565   2.419   3.135   1.105 -0.5180  0.9754 -0.6667
  623SOL    HW3 2566   2.507   3.013   1.089 -1.8504 -0.0154 -0.5025
  623SOL    MW4 2567   2.492   3.098   1.074 -0.7021  0.2506 -0.2184
  624SOL     OW 2568   2.275   3.229   1.181  0.8642 -0.6566  0.1836
  624SOL    HW2 2569   2.259   3.314   1.140 -0.9802 -0.5640  1.0336
  624SOL    HW3 2570   2.207   3.172   1.147  1.8733 -1.7076 -0.1015
  624SOL    MW4 2571   2.264   3.233   1.171  0.7536 -0.7832  0.2581
  625SOL     OW 2572   2.205   3.469   1.081  0.6673 -0.2969  0.2751
  625SOL    HW2 2573   2.286   3.515   1.106 -0.3758  1.8404 -0.1423
  625SOL    HW3 2574   2.215   3.450   0.988  0.7042 -0.0424  0.2262
  625SOL    MW4 2575   2.217   3.473   1.072  0.5345  0.0186  0.2136
  626SOL     OW 2576   2.462   3.603   1.219  0.4080  0.0136 -0.4830
  626SOL    HW2 2577   2.465   3.612   1.314  0.1536 -1.1088 -0.3589
  626SOL    HW3 2578   2.462   3.693   1.186  0.9463  0.4031  0.5627
  626SOL    MW4 2579   2.462   3.616   1.227  0.4458 -0.0830 -0.3288
  627SOL     OW 2580   2.514   3.862   1.110 -0.3074 -0.4475  0.0306
  627SOL    HW2 2581   2.428   3.901   1.124 -0.1061  0.3026 -0.8548
  627SOL    HW3 2582   2.533   3.876   1.018  0.9323 -0.2818  0.3001
  627SOL    MW4 2583   2.505   3.869   1.100 -0.1173 -0.3266 -0.0507
  628SOL     OW 2584   2.265   3.973   1.190  0.4057  0.2041 -0.7334
  628SOL    HW2 2585   2.265   4.064   1.161  0.2233  0.0414 -1.2515
  628SOL    HW3 2586   2.182   3.937   1.157 -0.3842  0.3406  1.0375
  628SOL    MW4 2587   2.254   3.980   1.182  0.2773  0.2007 -0.5680
  629SOL     OW 2588   2.270   4.232   1.092  0.5261  0.2805  0.1368
  629SOL    HW2 2589   2.193   4.286   1.108  0.7120  0.1383  1.5130
  629SOL    HW3 2590   2.289   4.246   0.999 -1.3948 -0.0073 -0.3337
  629SOL    MW4 2591   2.262   4.241   1.082  0.2973  0.2241  0.2563
  630SOL     OW 2592   2.484   4.363   1.207 -0.4292  0.2831  0.0471
  630SOL    HW2 2593   2.414   4.314   1.164  0.8173  0.0563 -1.8058
  630SOL    HW3 2594   2.480   4.451   1.167  1.1612 -0.1216 -1.0780
  630SOL    MW4 2595   2.474   4.368   1.196 -0.0548  0.1998 -0.3458
  631SOL     OW 2596   2.907   4.624   1.134  1.3015 -0.4077  0.1041
  631SOL    HW2 2597   2.896   4.628   1.039  1.8630 -1.0637  0.0030
  631SOL    HW3 2598   2.908   4.531   1.154 -2.6479 -0.2661  1.2532
  631SOL    MW4 2599   2.906   4.613   1.124  0.8547 -0.4759  0.2425
  632SOL     OW 2600   2.678   0.092   1.216  0.3356  0.4865  0.2083
  632SOL    HW2 2601   2.692   0.092   1.310  0.6533 -0.6671  0.1637
  632SOL    HW3 2602   2.729   0.018   1.184  0.9384  1.3961 -0.9742
  632SOL    MW4 2603   2.687   0.083   1.224  0.4573  0.4543  0.0464
  633SOL     OW 2604   2.684   0.353   1.118 -0.0444 -0.2034  0.0672
  633SOL    HW2 2605   2.682   0.262   1.148  0.1801  0.1825  1.2921
  633SOL    HW3 2606   2.612   0.395   1.166 -0.0228  0.3148 -0.3475
  633SOL    MW4 2607   2.674   0.347   1.128 -0.0119 -0.0841  0.1742
  634SOL     OW 2608   2.904   0.482   1.224  0.2671  0.4693  0.3618
  634SOL    HW2 2609   2.897   0.576   1.208 -0.6055  0.4522  0.6382
  634SOL    HW3 2610   2.832   0.443   1.174  1.7204 -0.2390 -1.2447
  634SOL    MW4 2611   2.894   0.489   1.215  0.3438  0.3736  0.1863
  635SOL     OW 2612   2.876   0.758   1.148  0.5057  0.1311  0.0368
  635SOL    HW2 2613   2.961   0.794   1.172  1.2859 -2.1042  0.7342
  635SOL    HW3 2614   2.813   0.815   1.191  1.7220  0.4935  1.3596
  635SOL    MW4 2615   2.879   0.770   1.157  0.7691 -0.1161  0.3034
  636SOL     OW 2616   2.654   0.893   1.242  0.1197 -0.0593 -0.1191
  636SOL    HW2 2617   2.660   0.979   1.202 -0.8589 -0.2859 -0.7856
  636SOL    HW3 2618   2.598   0.843   1.183  1.2743 -1.3833 -0.1337
  636SOL    MW4 2619   2.647   0.897   1.229  0.1431 -0.2639 -0.2090
  637SOL     OW 2620   2.705   1.136   1.111 -0.0806 -0.2163 -0.3770
  637SOL    HW2 2621   2.779   1.178   1.156  0.0763 -1.5883  0.6563
  637SOL    HW3 2622   2.631   1.194   1.130  0.6245  0.9619 -1.0977
  637SOL    MW4 2623   2.705   1.149   1.119  0.0329 -0.2419 -0.3356
  638SOL     OW 2624   2.922   1.269   1.205 -0.0014  0.0640  0.0749
  638SOL    HW2 2625   2.945   1.269   1.298  1.0018 -1.2458 -0.1588
  638SOL    HW3 2626   2.935   1.360   1.178  2.3142 -0.0717  0.6046
  638SOL    MW4 2627   2.927   1.281   1.214  0.4365 -0.1267  0.1140
  639SOL     OW 2628   2.924   1.522   1.089 -0.2506 -0.1376  0.0889
  639SOL    HW2 2629   2.980   1.589   1.128 -0.8063  1.2810 -1.4958
  639SOL    HW3 2630   2.982   1.472   1.032  0.0673 -0.6912  0.9028
  639SOL    MW4 2631   2.939   1.524   1.087 -0.2820 -0.0234 -0.0128
  640SOL     OW 2632   2.687   1.643   1.168  0.0136  0.2761 -0.2695
  640SOL    HW2 2633   2.761   1.593   1.131 -0.8885 -0.1098 -1.5927
  640SOL    HW3 2634   2.610   1.593   1.143 -0.7910  1.3530  0.0242
  640SOL    MW4 2635   2.687   1.630   1.160 -0.2115  0.3673 -0.4052
  641SOL     OW 2636   2.630   1.917   1.111  0.4356 -0.0376 -0.4691
  641SOL    HW2 2637   2.700   1.957   1.163 -0.1054 -0.0293  0.2698
  641SOL    HW3 2638   2.643   1.823   1.123 -0.7685 -0.0151  1.1678
  641SOL    MW4 2639   2.641   1.910   1.120  0.2053 -0.0335 -0.1556
  642SOL     OW 2640   2.859   2.033   1.196 -0.1658 -0.3475 -0.1317
  642SOL    HW2 2641   2.878   2.044   1.289 -0.3038 -0.1191 -0.1290
  642SOL    HW3 2642   2.888   2.115   1.156 -4.7677  1.7194  0.4427
  642SOL    MW4 2643   2.865   2.046   1.203 -0.7913 -0.0446 -0.0556
  643SOL     OW 2644   2.930   2.298   1.128 -0.0025  0.3514  0.0695
  643SOL    HW2 2645   2.994   2.367   1.148  0.6119 -0.6041  1.5080
  643SOL    HW3 2646   2.849   2.329   1.166  0.2819  0.2763  0.7466
  643SOL    MW4 2647   2.928   2.311   1.135  0.1161  0.2153  0.3486
  644SOL     OW 2648   2.661   2.401   1.195  0.4119 -0.4425 -0.2112
  644SOL    HW2 2649   2.649   2.426   1.287  0.0329 -0.3059 -0.2955
  644SOL    HW3 2650   2.572   2.384   1.164  0.6049 -1.1838 -0.3565
  644SOL    MW4 2651   2.647   2.402   1.203  0.3877 -0.5219 -0.2415
  645SOL     OW 2652   2.706   2.684   1.110  0.2197 -0.1618  0.2021
  645SOL    HW2 2653   2.680   2.593   1.127 -0.1525 -0.0894  0.0298
  645SOL    HW3 2654   2.631   2.736   1.137  0.1064  0.0345 -0.4750
  645SOL    MW4 2655   2.693   2.679   1.116  0.1554 -0.1264  0.0899
  646SOL     OW 2656   2.946   2.798   1.198  0.4609  0.1631  0.3824
  646SOL    HW2 2657   2.939   2.807   1.293  1.1454 -2.5332  0.7312
  646SOL    HW3 2658   2.860   2.764   1.171 -0.4294  2.7945 -0.2655
  646SOL    MW4 2659   2.933   2.795   1.207  0.4334  0.1545  0.3430
  647SOL     OW 2660   2.924   3.070   1.112 -0.1171  0.2770 -0.1232
  647SOL    HW2 2661   3.004   3.114   1.139  0.8818 -0.7351 -1.3492
  647SOL    HW3 2662   2.932   2.982   1.149 -2.1321  1.0649  2.3853
  647SOL    MW4 2663   2.935   3.064   1.121 -0.2511  0.2475  0.0460
  648SOL     OW 2664   2.706   3.203   1.219  0.2745  0.0337 -0.1963
  648SOL    HW2 2665   2.780   3.152   1.189  1.1208  0.1769  1.5838
  648SOL    HW3 2666   2.634   3.177   1.162  1.3578 -1.1084 -1.0626
  648SOL    MW4 2667   2.706   3.193   1.208  0.5288 -0.0980 -0.0757
  649SOL     OW 2668   2.709   3.472   1.147  0.2394 -0.2164  0.4109
  649SOL    HW2 2669   2.714   3.380   1.173 -0.5278 -0.3568  0.0631
  649SOL    HW3 2670   2.623   3.501   1.176  0.7882  0.6210  1.2338
  649SOL    MW4 2671   2.699   3.464   1.154  0.2105 -0.1245  0.4735
  650SOL     OW 2672   2.924   3.626   1.233  0.1315  0.2726 -0.3339
  650SOL    HW2 2673   3.000   3.583   1.194  0.0398  1.1674 -1.4981
  650SOL    HW3 2674   2.852   3.563   1.222  0.2077  0.3322 -1.2092
  650SOL    MW4 2675   2.924   3.612   1.227  0.1295  0.3986 -0.6027
  651SOL     OW 2676   2.921   3.893   1.102 -0.4299 -0.8468 -0.0202
  651SOL    HW2 2677   2.992   3.939   1.147 -0.1945 -1.6017  0.3875
  651SOL    HW3 2678   2.927   3.803   1.133 -1.1761 -1.0564 -0.4639
  651SOL    MW4 2679   2.931   3.887   1.112 -0.4973 -0.9739 -0.0250
  652SOL     OW 2680   2.710   3.969   1.247  0.0446 -0.0183  0.0225
  652SOL    HW2 2681   2.785   3.939   1.196  0.5677  1.0412  0.1456
  652SOL    HW3 2682   2.634   3.926   1.207  0.8887 -2.5649  1.0660
  652SOL    MW4 2683   2.710   3.959   1.235  0.2251 -0.2143  0.1764
  653SOL     OW 2684   2.701   4.227   1.098  0.3077  0.1719 -0.6777
  653SOL    HW2 2685   2.706   4.143   1.143 -0.0721  0.4425 -0.1362
  653SOL    HW3 2686   2.621   4.268   1.130  1.1606  1.3144  0.0327
  653SOL    MW4 2687   2.691   4.221   1.108  0.3703  0.3581 -0.5125
  654SOL     OW 2688   2.928   4.344   1.227 -0.1875 -0.1507 -1.1651
  654SOL    HW2 2689   3.003   4.307   1.181 -0.4368 -0.6802 -1.1469
  654SOL    HW3 2690   2.852   4.304   1.184 -0.3979 -2.0963  0.9220
  654SOL    MW4 2691   2.928   4.334   1.215 -0.2480 -0.4778 -0.8873
  655SOL     OW 2692   3.385   4.631   1.158  0.2901  0.3421 -0.4386
  655SOL    HW2 2693   3.459   4.684   1.188 -0.4384 -0.7444  3.5369
  655SOL    HW3 2694   3.308   4.676   1.191 -0.4416 -2.0595  1.2724
  655SOL    MW4 2695   3.385   4.644   1.166  0.0973 -0.1178  0.3117
  656SOL     OW 2696   3.142   0.084   1.231  0.1177 -0.4613  0.4134
  656SOL    HW2 2697   3.154   0.086   1.326 -0.5556  1.0509  0.4803
  656SOL    HW3 2698   3.060   0.036   1.218 -0.0930 -0.1619  0.6328
  656SOL    MW4 2699   3.132   0.078   1.241  0.0012 -0.2223  0.4512
  657SOL     OW 2700   3.113   0.337   1.146 -0.4263 -0.4556 -0.0745
  657SOL    HW2 2701   3.129   0.253   1.189  0.6293  0.8065  2.0884
  657SOL    HW3 2702   3.041   0.376   1.195  0.8004  1.0068  0.6136
  657SOL    MW4 2703   3.106   0.331   1.158 -0.1249 -0.0962  0.3017
  658SOL     OW 2704   3.322   0.504   1.219 -0.4241 -0.1934  0.1374
  658SOL    HW2 2705   3.316   0.586   1.170 -0.0875 -0.7278 -0.8006
  658SOL    HW3 2706   3.248   0.452   1.188  0.6197 -1.0950 -0.8528
  658SOL    MW4 2707   3.311   0.508   1.209 -0.2420 -0.3829 -0.1169
  659SOL     OW 2708   3.320   0.752   1.100  0.3111  0.0056 -0.3036
  659SOL    HW2 2709   3.251   0.806   1.141  1.4205  1.2122  0.0197
  659SOL    HW3 2710   3.291   0.740   1.010 -0.0887  0.9292 -0.3049
  659SOL    MW4 2711   3.307   0.758   1.094  0.4048  0.2867 -0.2612
  660SOL     OW 2712   3.111   0.873   1.209  0.2148  0.0223  0.0880
  660SOL    HW2 2713   3.134   0.867   1.302 -0.7677  0.0914  0.3477
  660SOL    HW3 2714   3.125   0.965   1.187 -0.7849  0.2880  0.5178
  660SOL    MW4 2715   3.116   0.885   1.218 -0.0470  0.0664  0.1791
  661SOL     OW 2716   3.148   1.129   1.109  0.2460  0.0587 -0.1360
  661SOL    HW2 2717   3.232   1.170   1.127  0.5496  0.2481 -1.9094
  661SOL    HW3 2718   3.084   1.184   1.154  0.9056  0.8501 -0.1703
  661SOL    MW4 2719   3.151   1.141   1.117  0.3731  0.1881 -0.3744
  662SOL     OW 2720   3.353   1.285   1.192 -0.1407 -0.1034 -0.6070
  662SOL    HW2 2721   3.350   1.292   1.287 -1.1684 -0.0895 -0.6291
  662SOL    HW3 2722   3.374   1.373   1.161 -0.3560  0.0174 -0.4093
  662SOL    MW4 2723   3.355   1.297   1.200 -0.3045 -0.0855 -0.5838
  663SOL     OW 2724   3.361   1.551   1.082 -0.0660  0.1092 -0.1691
  663SOL    HW2 2725   3.441   1.572   1.130 -0.2387 -1.7006  0.9903
  663SOL    HW3 2726   3.292   1.597   1.130  0.0933  0.4179 -0.2370
  663SOL    MW4 2727   3.363   1.560   1.095 -0.0679 -0.0889 -0.0250
  664SOL     OW 2728   3.118   1.651   1.223  0.7088  0.7710 -0.1234
  664SOL    HW2 2729   3.113   1.647   1.318  0.5419  0.1039 -0.1567
  664SOL    HW3 2730   3.128   1.744   1.203  1.4584  0.8394  0.5747
  664SOL    MW4 2731   3.119   1.662   1.233  0.7856  0.6920 -0.0356
  665SOL     OW 2732   3.090   1.905   1.134 -0.4592 -0.3448  0.2838
  665SOL    HW2 2733   3.165   1.948   1.175 -1.4767 -0.5424  2.4291
  665SOL    HW3 2734   3.013   1.949   1.172 -1.4461 -1.5553 -0.2695
  665SOL    MW4 2735   3.089   1.916   1.145 -0.7234 -0.5305  0.4938
  666SOL     OW 2736   3.330   2.029   1.245 -0.0753 -0.0925  0.2301
  666SOL    HW2 2737   3.408   1.994   1.203  0.1442  1.1405 -0.4040
  666SOL    HW3 2738   3.323   2.119   1.213 -0.2313  0.7021  2.3942
  666SOL    MW4 2739   3.339   2.036   1.235 -0.0670  0.1748  0.4319
  667SOL     OW 2740   3.369   2.250   1.095  0.2720 -0.0565  0.2371
  667SOL    HW2 2741   3.447   2.291   1.133  0.4946  0.1751 -0.4742
  667SOL    HW3 2742   3.300   2.317   1.105  0.4201  0.1459 -0.1140
  667SOL    MW4 2743   3.370   2.264   1.102  0.3211  0.0010  0.0968
  668SOL     OW 2744   3.176   2.439   1.174 -0.3641  0.6399  0.1004
  668SOL    HW2 2745   3.167   2.450   1.268 -1.3565 -0.4933  0.1441
  668SOL    HW3 2746   3.175   2.528   1.139 -0.6347  1.0327  1.0999
  668SOL    MW4 2747   3.175   2.452   1.182 -0.5307  0.5424  0.2379
  669SOL     OW 2748   3.181   2.716   1.084 -0.1106  0.2169  0.0520
  669SOL    HW2 2749   3.098   2.727   1.130 -0.1633  0.4663 -0.0959
  669SOL    HW3 2750   3.157   2.717   0.991 -0.0258 -0.4677  0.0223
  669SOL    MW4 2751   3.167   2.718   1.078 -0.1063  0.1593  0.0287
  670SOL     OW 2752   3.415   2.852   1.187 -0.3450  0.1027 -0.4730
  670SOL    HW2 2753   3.393   2.941   1.163 -0.2206  0.1162 -0.5364
  670SOL    HW3 2754   3.350   2.798   1.143 -0.5515  0.1786 -0.2580
  670SOL    MW4 2755   3.404   2.856   1.178 -0.3560  0.1144 -0.4531
  671SOL     OW 2756   3.361   3.098   1.074  0.1254  0.6160  0.1796
  671SOL    HW2 2757   3.433   3.139   1.124 -0.0104  2.0305 -0.7656
  671SOL    HW3 2758   3.282   3.142   1.106 -0.1125  0.5216 -0.2831
  671SOL    MW4 2759   3.360   3.109   1.085  0.0758  0.7901 -0.0061
  672SOL     OW 2760   3.152   3.232   1.198 -0.1350  0.1452  0.2497
  672SOL    HW2 2761   3.152   3.326   1.176  0.5763  0.5872  2.0610
  672SOL    HW3 2762   3.165   3.230   1.293 -0.9111 -1.7837  0.3217
  672SOL    MW4 2763   3.154   3.244   1.208 -0.1435 -0.0510  0.4983
  673SOL     OW 2764   3.152   3.503   1.125  0.3207 -0.2170 -0.0715
  673SOL    HW2 2765   3.230   3.540   1.167 -0.2140  0.2419  0.5176
  673SOL    HW3 2766   3.175   3.500   1.032 -0.3761  3.4963 -0.4074
  673SOL    MW4 2767   3.166   3.507   1.118  0.1581  0.3335 -0.0381
  674SOL     OW 2768   3.393   3.594   1.210  0.2154  0.1573  0.3425
  674SOL    HW2 2769   3.402   3.602   1.305  0.7815  1.8947  0.1523
  674SOL    HW3 2770   3.469   3.542   1.183 -0.1765 -0.7041  0.8865
  674SOL    MW4 2771   3.404   3.588   1.219  0.2384  0.2730  0.3892
  675SOL     OW 2772   3.404   3.877   1.142 -0.1391 -0.0346  0.1101
  675SOL    HW2 2773   3.328   3.922   1.178 -0.1342  1.5596 -1.8070
  675SOL    HW3 2774   3.387   3.784   1.158 -2.3385  0.3255 -0.0615
  675SOL    MW4 2775   3.392   3.870   1.149 -0.4287  0.2232 -0.1656
  676SOL     OW 2776   3.148   3.987   1.221 -0.3111  0.1506  0.2833
  676SOL    HW2 2777   3.157   3.983   1.316  2.9041 -0.1403  0.0127
  676SOL    HW3 2778   3.159   4.079   1.199 -2.1914  0.3907  0.2537
  676SOL    MW4 2779   3.150   3.998   1.230 -0.1352  0.1440  0.2437
  677SOL     OW 2780   3.191   4.257   1.134  0.2153  0.0975 -0.4914
  677SOL    HW2 2781   3.270   4.293   1.174  0.4107  0.4050 -1.1459
  677SOL    HW3 2782   3.175   4.312   1.057 -1.3833  0.8629  0.3697
  677SOL    MW4 2783   3.199   4.269   1.129  0.0300  0.2398 -0.4643
  678SOL     OW 2784   3.431   4.365   1.233  0.5336 -0.1348  0.5845
  678SOL    HW2 2785   3.414   4.361   1.327 -1.1511 -1.2594  0.2593
  678SOL    HW3 2786   3.416   4.456   1.209  1.6319  0.2951  1.5248
  678SOL    MW4 2787   3.427   4.376   1.242  0.4563 -0.2265  0.6657
  679SOL     OW 2788   3.779   4.660   1.095 -0.5560  0.0368 -0.4158
  679SOL    HW2 2789   3.775   4.574   1.136  1.5010  0.2980  0.3989
  679SOL    HW3 2790   3.790   4.642   1.002 -1.4736 -0.5700 -0.4073
  679SOL    MW4 2791   3.780   4.647   1.088 -0.4055 -0.0086 -0.3072
  680SOL     OW 2792   3.587   0.122   1.249  0.5846  0.5696 -0.2390
  680SOL    HW2 2793   3.573   0.207   1.207 -0.1142  0.2385 -0.6907
  680SOL    HW3 2794   3.661   0.083   1.202  0.0702  0.3778 -0.8940
  680SOL    MW4 2795   3.595   0.128   1.237  0.4244  0.5006 -0.3849
  681SOL     OW 2796   3.559   0.364   1.146 -0.5678  0.5626 -0.0915
  681SOL    HW2 2797   3.639   0.416   1.161 -0.2972  0.1450 -0.0787
  681SOL    HW3 2798   3.489   0.417   1.183 -0.2454  0.7674  0.2277
  681SOL    MW4 2799   3.560   0.378   1.153 -0.4895  0.5345 -0.0477
  682SOL     OW 2800   3.807   0.477   1.192 -0.2074  0.1591 -0.2581
  682SOL    HW2 2801   3.888   0.432   1.166 -0.4203 -0.4637  0.1457
  682SOL    HW3 2802   3.817   0.566   1.157  2.0085  1.0256  2.4005
  682SOL    MW4 2803   3.819   0.483   1.184  0.0567  0.1912  0.1460
  683SOL     OW 2804   3.803   0.741   1.100 -0.2566 -0.1278 -0.2332
  683SOL    HW2 2805   3.882   0.795   1.112 -0.6675  0.5576 -0.5685
  683SOL    HW3 2806   3.737   0.784   1.155 -0.5142 -0.4574 -0.2863
  683SOL    MW4 2807   3.805   0.754   1.109 -0.3450 -0.0809 -0.2844
  684SOL     OW 2808   3.567   0.865   1.213 -0.0356  0.5212  0.9153
  684SOL    HW2 2809   3.570   0.952   1.172  0.5584 -0.8186 -1.9600
  684SOL    HW3 2810   3.484   0.827   1.184  0.5272 -0.5618  0.7111
  684SOL    MW4 2811   3.557   0.872   1.204  0.1171  0.2015  0.5090
  685SOL     OW 2812   3.582   1.131   1.133  0.3083 -0.7138  0.5888
  685SOL    HW2 2813   3.664   1.163   1.171  0.3775  0.7453 -0.7805
  685SOL    HW3 2814   3.513   1.180   1.178  0.3523  0.4283 -0.5706
  685SOL    MW4 2815   3.583   1.142   1.144  0.3231 -0.3707  0.2552
  686SOL     OW 2816   3.810   1.248   1.257 -0.4134  0.0118 -0.2742
  686SOL    HW2 2817   3.806   1.262   1.352  1.3698 -1.6436  0.0780
  686SOL    HW3 2818   3.809   1.336   1.220  1.0250  0.7562  1.3990
  686SOL    MW4 2819   3.809   1.262   1.265  0.0117 -0.1084 -0.0070
  687SOL     OW 2820   3.827   1.461   1.079 -0.1483 -0.3911  0.2730
  687SOL    HW2 2821   3.904   1.510   1.108 -1.1931 -0.1218  2.7589
  687SOL    HW3 2822   3.843   1.442   0.987  1.2306  2.8225 -0.2080
  687SOL    MW4 2823   3.839   1.465   1.071 -0.1042  0.0684  0.5375
  688SOL     OW 2824   3.603   1.592   1.191  0.0884  0.0244 -0.2727
  688SOL    HW2 2825   3.606   1.687   1.183 -1.6570  0.0010 -1.2746
  688SOL    HW3 2826   3.671   1.561   1.131 -0.8264  0.5584 -1.6028
  688SOL    MW4 2827   3.612   1.600   1.182 -0.2627  0.0918 -0.5804
  689SOL     OW 2828   3.533   1.876   1.094  0.1317  0.1868  0.2523
  689SOL    HW2 2829   3.621   1.913   1.098 -0.6602  2.0978  1.0186
  689SOL    HW3 2830   3.502   1.895   1.006  0.0462  0.6107  0.3715
  689SOL    MW4 2831   3.541   1.883   1.083  0.0162  0.4948  0.3692
  690SOL     OW 2832   3.774   1.984   1.204 -0.0558 -0.2600  0.3001
  690SOL    HW2 2833   3.780   1.992   1.299 -0.9366 -0.9462  0.4159
  690SOL    HW3 2834   3.860   1.952   1.177  0.0547 -0.4753  0.9033
  690SOL    MW4 2835   3.786   1.981   1.213 -0.1576 -0.3788  0.3949
  691SOL     OW 2836   3.805   2.240   1.091  0.1508  0.3240  0.0231
  691SOL    HW2 2837   3.875   2.283   1.141 -0.7788  0.2318  1.4219
  691SOL    HW3 2838   3.802   2.151   1.125  1.5171 -0.6663 -2.3034
  691SOL    MW4 2839   3.814   2.234   1.102  0.2086  0.1812 -0.0993
  692SOL     OW 2840   3.603   2.403   1.185  0.3874 -0.0141 -0.0995
  692SOL    HW2 2841   3.618   2.408   1.279 -0.3274  0.2308  0.0037
  692SOL    HW3 2842   3.677   2.353   1.152  0.6222 -0.1359  0.6004
  692SOL    MW4 2843   3.615   2.397   1.193  0.3242  0.0021  0.0063
  693SOL     OW 2844   3.623   2.675   1.090  0.0563  0.1243 -0.0291
  693SOL    HW2 2845   3.606   2.582   1.104  0.8008 -0.2106 -1.1783
  693SOL    HW3 2846   3.551   2.720   1.134 -0.5389 -1.0072  0.1870
  693SOL    MW4 2847   3.612   2.668   1.097  0.0758 -0.0689 -0.1522
  694SOL     OW 2848   3.819   2.847   1.165 -0.1739  0.0338  0.0315
  694SOL    HW2 2849   3.820   2.840   1.260  0.8316 -1.2601 -0.0590
  694SOL    HW3 2850   3.761   2.777   1.136  0.2817 -0.1855 -0.3555
  694SOL    MW4 2851   3.812   2.837   1.174  0.0188 -0.1659 -0.0315
  695SOL     OW 2852   3.577   3.213   1.204 -0.1010  0.1167  0.4095
  695SOL    HW2 2853   3.661   3.173   1.180  0.7531  1.5869  0.8633
  695SOL    HW3 2854   3.592   3.307   1.192 -1.3951  0.4544  1.3950
  695SOL    MW4 2855   3.590   3.220   1.199 -0.1590  0.3550  0.5994
  696SOL     OW 2856   3.645   3.477   1.144  0.2189 -0.0076 -0.3659
  696SOL    HW2 2857   3.724   3.512   1.186  0.3739 -1.8703  0.9416
  696SOL    HW3 2858   3.667   3.473   1.051  2.3116 -2.0974  0.1832
  696SOL    MW4 2859   3.658   3.481   1.137  0.5155 -0.5291 -0.1209
  697SOL     OW 2860   3.294   3.088   0.451  0.5466 -0.5965 -0.1293
  697SOL    HW2 2861   3.200   3.072   0.447  0.5665 -1.1156  1.2239
  697SOL    HW3 2862   3.304   3.177   0.417 -0.5870 -0.0410  0.9551
  697SOL    MW4 2863   3.283   3.098   0.446  0.3998 -0.5918  0.1923
  698SOL     OW 2864   3.883   3.600   1.235 -0.2513 -0.2251  0.1214
  698SOL    HW2 2865   3.863   3.612   1.327 -3.3298  1.0682 -0.6630
  698SOL    HW3 2866   3.888   3.689   1.199 -0.4883 -0.7338 -1.2277
  698SOL    MW4 2867   3.881   3.613   1.242 -0.6888 -0.1214 -0.1601
  699SOL     OW 2868   3.877   3.864   1.128 -0.2288  0.0058 -0.2322
  699SOL    HW2 2869   3.799   3.896   1.173  0.1658  0.7328 -0.0605
  699SOL    HW3 2870   3.848   3.842   1.040 -0.5095  0.8019 -0.3404
  699SOL    MW4 2871   3.863   3.865   1.123 -0.2139  0.2065 -0.2238
  700SOL     OW 2872   3.650   3.942   1.267  0.4874  0.1611 -0.4980
  700SOL    HW2 2873   3.631   3.951   1.360  0.8459 -0.6197 -0.3417
  700SOL    HW3 2874   3.567   3.914   1.227  0.5364 -0.2874 -0.2874
  700SOL    MW4 2875   3.637   3.939   1.274  0.5410 -0.0010 -0.4495
  701SOL     OW 2876   3.647   4.394   0.737  0.4596  0.0884 -0.6416
  701SOL    HW2 2877   3.581   4.460   0.714  0.6483  0.2684 -0.6623
  701SOL    HW3 2878   3.719   4.444   0.776 -0.2057 -0.2678  1.1299
  701SOL    MW4 2879   3.648   4.410   0.739  0.3970  0.0658 -0.4106
  702SOL     OW 2880   3.832   4.397   1.190  0.2362 -0.4616  0.2595
  702SOL    HW2 2881   3.825   4.414   1.284  0.7660 -1.6858  0.5345
  702SOL    HW3 2882   3.773   4.324   1.173 -1.1291  0.8307 -0.6842
  702SOL    MW4 2883   3.824   4.390   1.200  0.1256 -0.4525  0.1712
  703SOL     OW 2884   4.245   4.660   1.074 -0.0765  0.1146 -0.0565
  703SOL    HW2 2885   4.274   4.581   1.119  1.1736  1.0789  0.8828
  703SOL    HW3 2886   4.156   4.675   1.105 -0.4875 -1.1652 -0.5911
  703SOL    MW4 2887   4.237   4.652   1.084  0.0343  0.0725 -0.0031
  704SOL     OW 2888   4.005   0.082   1.202 -0.2772  0.3811 -0.0324
  704SOL    HW2 2889   3.987   0.105   1.293 -1.4475  1.7041 -0.5912
  704SOL    HW3 2890   3.922   0.047   1.169  0.4214 -1.0404 -0.3077
  704SOL    MW4 2891   3.992   0.080   1.209 -0.3395  0.3681 -0.1425
  705SOL     OW 2892   4.028   0.352   1.103  0.3532 -0.1503 -0.0157
  705SOL    HW2 2893   4.016   0.264   1.137  0.6351 -0.0220  0.4245
  705SOL    HW3 2894   4.001   0.347   1.011  0.2707 -0.6656  0.0377
  705SOL    MW4 2895   4.023   0.340   1.095  0.3796 -0.2013  0.0495
  706SOL     OW 2896   4.286   0.466   1.184  0.1840  0.4594  0.3010
  706SOL    HW2 2897   4.296   0.464   1.279  0.4408  1.7134  0.3070
  706SOL    HW3 2898   4.195   0.441   1.168  0.6208 -1.4979  0.7742
  706SOL    MW4 2899   4.275   0.462   1.194  0.2756  0.3666  0.3642
  707SOL     OW 2900   4.291   0.732   1.134 -0.1243  0.1456 -0.0945
  707SOL    HW2 2901   4.308   0.638   1.144 -0.5276  0.0211 -0.5658
  707SOL    HW3 2902   4.264   0.742   1.042 -1.9778  0.4301  0.4619
  707SOL    MW4 2903   4.290   0.721   1.123 -0.4220  0.1667 -0.0832
  708SOL     OW 2904   4.067   0.861   1.209 -0.2899  0.0115 -0.0545
  708SOL    HW2 2905   4.074   0.870   1.304 -1.4166 -2.1052  0.2568
  708SOL    HW3 2906   4.144   0.811   1.183 -0.1176  0.3656 -0.2390
  708SOL    MW4 2907   4.078   0.856   1.218 -0.4158 -0.2210 -0.0377
  709SOL     OW 2908   3.994   1.104   1.084 -0.3055 -0.2372  0.5203
  709SOL    HW2 2909   4.010   1.027   1.138 -1.9765 -0.2724  1.0078
  709SOL    HW3 2910   3.936   1.159   1.137 -2.1751 -0.3821 -1.2857
  709SOL    MW4 2911   3.988   1.101   1.098 -0.7727 -0.2611  0.3463
  710SOL     OW 2912   4.257   1.227   1.127  0.0721  0.4438 -0.2516
  710SOL    HW2 2913   4.266   1.243   1.221 -0.3234  0.5804 -0.2351
  710SOL    HW3 2914   4.169   1.191   1.118  0.1999  0.2060 -0.5409
  710SOL    MW4 2915   4.246   1.224   1.139  0.0367  0.4303 -0.2877
  711SOL     OW 2916   4.277   1.523   1.076 -0.0974  0.0886 -0.3926
  711SOL    HW2 2917   4.274   1.428   1.089  0.2783  0.2178  0.7173
  711SOL    HW3 2918   4.367   1.547   1.100 -0.2967  0.7648 -0.3264
  711SOL    MW4 2919   4.289   1.514   1.081 -0.0739  0.1949 -0.2373
  712SOL     OW 2920   4.041   1.613   1.171  0.1959  0.0108  0.0719
  712SOL    HW2 2921   4.035   1.625   1.266 -1.3771 -1.4352  0.1702
  712SOL    HW3 2922   4.132   1.585   1.157  0.0802 -1.0265  1.3042
  712SOL    MW4 2923   4.053   1.611   1.182 -0.0267 -0.3167  0.2476
  713SOL     OW 2924   4.008   1.886   1.102 -0.6655  0.1989 -0.4359
  713SOL    HW2 2925   4.028   1.794   1.116  1.5738  0.7986  0.5166
  713SOL    HW3 2926   4.019   1.899   1.007  0.7437 -0.1219 -0.3216
  713SOL    MW4 2927   4.012   1.876   1.091 -0.1845  0.2358 -0.2950
  714SOL     OW 2928   4.246   2.024   1.169  0.9653  0.2404 -0.2166
  714SOL    HW2 2929   4.242   2.108   1.123 -0.9653  0.4834  0.3559
  714SOL    HW3 2930   4.173   1.974   1.133  2.4585 -1.4277 -0.9804
  714SOL    MW4 2931   4.236   2.028   1.158  0.9074  0.0525 -0.2418
  715SOL     OW 2932   4.242   2.292   1.118  0.3022 -0.1935 -0.5830
  715SOL    HW2 2933   4.160   2.316   1.161  0.4639  0.8505 -0.8593
  715SOL    HW3 2934   4.234   2.326   1.029  0.7749 -0.6373 -0.7965
  715SOL    MW4 2935   4.230   2.300   1.112  0.3867 -0.1144 -0.6477
  716SOL     OW 2936   3.982   2.385   1.234  0.1946  0.7154 -0.0971
  716SOL    HW2 2937   3.994   2.383   1.329  0.3098  0.8505 -0.1089
  716SOL    HW3 2938   3.977   2.479   1.213 -1.1221  0.6744 -0.0533
  716SOL    MW4 2939   3.983   2.397   1.244  0.0362  0.7281 -0.0930
  717SOL     OW 2940   3.534   4.170   0.385 -0.3224 -0.7798 -0.7067
  717SOL    HW2 2941   3.612   4.206   0.428 -0.0465 -3.0362  0.8099
  717SOL    HW3 2942   3.558   4.165   0.293  1.0948 -0.7879 -0.3499
  717SOL    MW4 2943   3.548   4.174   0.379 -0.0992 -1.0786 -0.4595
  718SOL     OW 2944   4.041   2.682   1.146  0.3598  0.0671 -0.0047
  718SOL    HW2 2945   4.122   2.727   1.169  0.2263  0.5368 -0.4475
  718SOL    HW3 2946   3.973   2.749   1.152 -0.2480 -0.7089  1.9476
  718SOL    MW4 2947   4.042   2.697   1.150  0.2618  0.0267  0.1944
  719SOL     OW 2948   4.284   3.085   1.069  0.1052  0.1761  0.1322
  719SOL    HW2 2949   4.204   3.116   1.111  1.5398  2.1731  1.5175
  719SOL    HW3 2950   4.263   3.083   0.976 -2.0275 -0.8909  0.6104
  719SOL    MW4 2951   4.271   3.089   1.062  0.0134  0.2987  0.3780
  720SOL     OW 2952   4.051   3.190   1.200  0.0224 -0.3600  0.1149
  720SOL    HW2 2953   4.046   3.201   1.295  1.1611 -0.0682  0.1416
  720SOL    HW3 2954   3.961   3.172   1.174 -0.4964  0.7512  1.0996
  720SOL    MW4 2955   4.038   3.189   1.209  0.1044 -0.1752  0.2483
  721SOL     OW 2956   4.071   3.445   1.077 -0.1599  0.3290 -0.1352
  721SOL    HW2 2957   4.006   3.494   1.128 -1.7718 -0.6421 -1.1948
  721SOL    HW3 2958   4.084   3.365   1.127 -1.0028 -0.1841 -0.7117
  721SOL    MW4 2959   4.064   3.441   1.090 -0.4835  0.1328 -0.3511
  722SOL     OW 2960   4.288   3.573   1.205  0.3581 -0.5957  0.3789
  722SOL    HW2 2961   4.218   3.527   1.160  1.0472 -0.4297 -0.9007
  722SOL    HW3 2962   4.267   3.565   1.298 -1.6899  0.0170 -0.0169
  722SOL    MW4 2963   4.276   3.566   1.211  0.1788 -0.4928  0.1580
  723SOL     OW 2964   4.253   3.848   1.111  0.1193 -0.2789  0.2519
  723SOL    HW2 2965   4.195   3.903   1.165  1.2998  0.9994  0.2444
  723SOL    HW3 2966   4.227   3.759   1.133 -2.8814  0.2436 -0.8645
  723SOL    MW4 2967   4.242   3.844   1.121 -0.1211 -0.0415  0.1036
  724SOL     OW 2968   4.071   4.006   1.249  0.3980 -0.3222 -0.3039
  724SOL    HW2 2969   4.085   4.094   1.214  0.2027 -0.6644 -1.2457
  724SOL    HW3 2970   4.001   3.970   1.196  0.9466 -1.3047 -0.3719
  724SOL    MW4 2971   4.064   4.013   1.238  0.4444 -0.4973 -0.4370
  725SOL     OW 2972   4.051   4.233   1.106 -0.2242 -0.1784  0.4879
  725SOL    HW2 2973   3.983   4.294   1.136  0.5756  1.1353 -0.2837
  725SOL    HW3 2974   4.047   4.238   1.011 -0.1060 -1.3131  0.4189
  725SOL    MW4 2975   4.042   4.242   1.098 -0.1030 -0.1545  0.3771
  726SOL     OW 2976   4.277   4.394   1.175 -0.5385  0.3711  0.4082
  726SOL    HW2 2977   4.204   4.336   1.157 -0.0469  0.5375 -2.3274
  726SOL    HW3 2978   4.355   4.343   1.153 -0.0355  1.5383 -0.5594
  726SOL    MW4 2979   4.277   4.380   1.170 -0.4067  0.5469 -0.0803
  727SOL     OW 2980   0.195   4.614   1.622 -0.1061 -0.0657 -0.2615
  727SOL    HW2 2981   0.263   4.640   1.559 -0.2945  0.5015 -0.2390
  727SOL    HW3 2982   0.113   4.645   1.582 -0.4180 -1.3176 -0.5930
  727SOL    MW4 2983   0.193   4.622   1.608 -0.1721 -0.1564 -0.3022
  728SOL     OW 2984   4.465   0.068   1.507 -0.4085  0.2072 -0.3497
  728SOL    HW2 2985   4.375   0.067   1.541 -0.4335  2.3131 -0.2924
  728SOL    HW3 2986   4.454   0.067   1.412 -0.5555  1.6873 -0.3662
  728SOL    MW4 2987   4.452   0.068   1.499 -0.4315  0.6803 -0.3443
  729SOL     OW 2988   0.050   0.333   1.593  0.2251  0.4682 -0.2272
  729SOL    HW2 2989   0.042   0.349   1.687 -0.7624  0.1856 -0.2562
  729SOL    HW3 2990   0.031   0.240   1.584  1.3424  0.2715 -0.5918
  729SOL    MW4 2991   0.047   0.323   1.604  0.2422  0.4050 -0.2791
  730SOL     OW 2992   0.240   0.504   1.498 -0.3600 -0.0205  0.3715
  730SOL    HW2 2993   0.171   0.446   1.530 -1.1053  0.0017 -1.1441
  730SOL    HW3 2994   0.230   0.503   1.403  1.7479 -0.0191  0.1261
  730SOL    MW4 2995   0.230   0.496   1.489 -0.1802 -0.0174  0.1391
  731SOL     OW 2996   0.200   0.748   1.602  0.1567  0.1102 -0.1321
  731SOL    HW2 2997   0.282   0.787   1.572  1.1035 -1.1718  0.7315
  731SOL    HW3 2998   0.209   0.655   1.581  0.1498 -0.5330  2.5463
  731SOL    MW4 2999   0.212   0.741   1.595  0.2807 -0.1438  0.3352
  732SOL     OW 3000   0.011   0.876   1.445  0.0522 -0.0740 -0.3102
  732SOL    HW2 3001   0.005   0.965   1.480  0.0526 -0.3470  0.3760
  732SOL    HW3 3002   0.088   0.839   1.487  0.3131 -0.2494 -0.9415
  732SOL    MW4 3003   0.021   0.883   1.455  0.0868 -0.1331 -0.3029
  733SOL     OW 3004   4.466   1.138   1.535  0.0046  0.3293 -0.2028
  733SOL    HW2 3005   4.463   1.139   1.631  0.8554 -1.0822 -0.1520
  733SOL    HW3 3006   4.553   1.171   1.513  0.8849 -2.0048 -0.3867
  733SOL    MW4 3007   4.477   1.142   1.545  0.2327 -0.1649 -0.2203
  734SOL     OW 3008   0.220   1.228   1.451  0.1300 -0.2101 -0.2151
  734SOL    HW2 3009   0.223   1.314   1.493 -0.9183 -0.0893 -0.3807
  734SOL    HW3 3010   0.231   1.247   1.358  1.7801 -0.4238 -0.0877
  734SOL    MW4 3011   0.222   1.242   1.445  0.2094 -0.2222 -0.2199
  735SOL     OW 3012   0.236   1.513   1.535  0.6948  0.2765  0.1634
  735SOL    HW2 3013   0.237   1.531   1.629 -0.6505 -2.6355  0.7788
  735SOL    HW3 3014   0.156   1.554   1.504  0.0602 -0.5797  0.6712
  735SOL    MW4 3015   0.226   1.521   1.543  0.4335 -0.2205  0.3116
  736SOL     OW 3016   4.484   1.642   1.479  0.0787  0.2483 -0.0205
  736SOL    HW2 3017   4.491   1.735   1.499  1.0869  0.1929 -0.0687
  736SOL    HW3 3018   4.479   1.638   1.383  1.1588  0.2039 -0.0857
  736SOL    MW4 3019   4.484   1.654   1.469  0.3543  0.2351 -0.0354
  737SOL     OW 3020   4.471   1.897   1.574  0.6570 -1.1561  0.1033
  737SOL    HW2 3021   4.446   1.902   1.666 -0.1127  0.3418 -0.1629
  737SOL    HW3 3022   4.424   1.970   1.533  0.7252 -2.0105 -1.5293
  737SOL    MW4 3023   4.461   1.908   1.580  0.5641 -1.0712 -0.1471
  738SOL     OW 3024   0.212   2.054   1.492  0.2328 -0.3580  0.0394
  738SOL    HW2 3025   0.137   2.000   1.516 -0.1054  0.3013  0.4670
  738SOL    HW3 3026   0.218   2.044   1.397 -0.7745  0.0648 -0.0802
  738SOL    MW4 3027   0.203   2.045   1.482  0.0553 -0.2153  0.0801
  739SOL     OW 3028   0.192   2.315   1.591  0.3867  0.0714 -0.1201
  739SOL    HW2 3029   0.180   2.304   1.686  1.2408  2.4482  0.2872
  739SOL    HW3 3030   0.194   2.225   1.557  0.4724 -0.8285  2.1604
  739SOL    MW4 3031   0.191   2.302   1.599  0.5107  0.2661  0.2346
  740SOL     OW 3032   4.478   2.457   1.456  0.4136  0.0139  0.4336
  740SOL    HW2 3033   4.403   2.415   1.499  0.9095 -0.6580  0.6498
  740SOL    HW3 3034   4.555   2.417   1.497  0.9014 -0.5763 -1.0338
  740SOL    MW4 3035   4.478   2.446   1.467  0.5431 -0.1528  0.2687
  741SOL     OW 3036   4.266   2.820   1.455 -0.2765  0.1251 -0.5002
  741SOL    HW2 3037   4.242   2.897   1.507 -1.0472  0.7416 -1.7397
  741SOL    HW3 3038   4.340   2.781   1.502 -0.4706  1.1019  0.6315
  741SOL    MW4 3039   4.273   2.825   1.468 -0.4034  0.3352 -0.5144
  742SOL     OW 3040   4.475   2.711   1.560  0.1958 -0.0884 -0.1141
  742SOL    HW2 3041   4.539   2.768   1.516  0.0176  0.3504  0.1882
  742SOL    HW3 3042   4.485   2.626   1.517  1.5433 -0.2379  0.4476
  742SOL    MW4 3043   4.485   2.708   1.549  0.3505 -0.0503 -0.0001
  743SOL     OW 3044   0.226   3.098   1.536 -0.0009 -0.2600 -0.3627
  743SOL    HW2 3045   0.137   3.132   1.528 -0.0933 -0.4553 -0.1844
  743SOL    HW3 3046   0.219   3.005   1.512  0.4877  0.1465 -2.1329
  743SOL    MW4 3047   0.213   3.090   1.532  0.0514 -0.2325 -0.5728
  744SOL     OW 3048   4.458   3.183   1.509 -0.0896 -0.2498 -0.4177
  744SOL    HW2 3049   4.479   3.269   1.545 -1.4271 -0.2538  0.4048
  744SOL    HW3 3050   4.487   3.187   1.418  1.2041  0.5576  0.0297
  744SOL    MW4 3051   4.464   3.195   1.502 -0.0954 -0.1435 -0.2503
  745SOL     OW 3052   0.008   3.434   1.590 -0.2192 -0.1162 -0.4318
  745SOL    HW2 3053  -0.001   3.437   1.685  0.4390 -0.5621 -0.3530
  745SOL    HW3 3054  -0.070   3.478   1.557 -0.1117  0.6531  0.3229
  745SOL    MW4 3055  -0.003   3.440   1.598 -0.1183 -0.0739 -0.3219
  746SOL     OW 3056   0.212   3.592   1.480  0.1816  0.2472 -0.3960
  746SOL    HW2 3057   0.207   3.684   1.506  0.8560 -0.3715  2.0715
  746SOL    HW3 3058   0.139   3.550   1.526 -0.6389 -0.3300 -2.1697
  746SOL    MW4 3059   0.201   3.598   1.490  0.1623  0.0894 -0.3046
  747SOL     OW 3060   0.207   3.869   1.610  0.0497  0.2391  0.0380
  747SOL    HW2 3061   0.205   3.873   1.706  0.1623 -3.6556  0.3187
  747SOL    HW3 3062   0.296   3.897   1.587 -0.3727  2.4220  0.9516
  747SOL    MW4 3063   0.219   3.873   1.620  0.0088  0.0134  0.1956
  748SOL     OW 3064   4.467   3.980   1.467 -0.1942 -0.5085 -0.2318
  748SOL    HW2 3065   4.459   4.074   1.487  0.5334 -0.6500  0.8137
  748SOL    HW3 3066   4.548   3.954   1.511  0.5871 -1.2389 -2.0562
  748SOL    MW4 3067   4.476   3.989   1.476  0.0043 -0.6239 -0.3346
  749SOL     OW 3068   4.434   4.259   1.532 -0.3585 -0.3170  0.3263
  749SOL    HW2 3069   4.436   4.273   1.627  0.9093  1.6334  0.0564
  749SOL    HW3 3070   4.371   4.323   1.500 -1.0281 -1.1981 -0.1361
  749SOL    MW4 3071   4.426   4.269   1.541 -0.2799 -0.1764  0.2297
  750SOL     OW 3072   0.196   4.362   1.527  0.1059 -0.5845  0.6964
  750SOL    HW2 3073   0.109   4.322   1.537  0.6354 -1.9604 -0.1052
  750SOL    HW3 3074   0.187   4.448   1.568 -1.6370 -0.7154  0.6491
  750SOL    MW4 3075   0.183   4.368   1.534 -0.0542 -0.7830  0.5845
  751SOL     OW 3076   0.627   4.630   1.572  0.4836 -0.1289  0.6239
  751SOL    HW2 3077   0.701   4.669   1.525 -0.8642 -1.1146 -2.4189
  751SOL    HW3 3078   0.552   4.681   1.543 -0.1374  0.4944  3.2622
  751SOL    MW4 3079   0.627   4.642   1.562  0.2238 -0.1769  0.5704
  752SOL     OW 3080   0.397   0.092   1.490 -0.1494 -0.5513 -0.1349
  752SOL    HW2 3081   0.389   0.171   1.543  0.8835 -1.9157  2.1329
  752SOL    HW3 3082   0.394   0.123   1.399  1.5414  2.2086  0.7066
  752SOL    MW4 3083   0.396   0.106   1.485  0.2100 -0.3672  0.2755
  753SOL     OW 3084   0.485   0.379   1.562  0.1736  0.1915  0.0031
  753SOL    HW2 3085   0.556   0.428   1.519  0.3054 -1.4360 -1.6946
  753SOL    HW3 3086   0.405   0.419   1.528  0.2774 -1.1059 -1.8517
  753SOL    MW4 3087   0.484   0.391   1.552  0.2047 -0.1944 -0.4656
  754SOL     OW 3088   0.722   0.506   1.463  0.7545  0.1102  0.1414
  754SOL    HW2 3089   0.691   0.593   1.488 -1.0066 -0.2353 -0.7858
  754SOL    HW3 3090   0.746   0.514   1.371  0.1733 -0.4879 -0.0676
  754SOL    MW4 3091   0.721   0.519   1.454  0.4454 -0.0143 -0.0086
  755SOL     OW 3092   0.662   0.747   1.556 -0.1532 -0.2860  0.0167
  755SOL    HW2 3093   0.657   0.757   1.651  0.1259 -0.6409  0.0696
  755SOL    HW3 3094   0.737   0.800   1.531  0.0977 -0.6183  0.0590
  755SOL    MW4 3095   0.671   0.756   1.566 -0.0833 -0.3768  0.0293
  756SOL     OW 3096   0.415   0.866   1.469 -0.4793 -0.8008  1.0164
  756SOL    HW2 3097   0.422   0.947   1.520  0.5979 -1.0931  1.3319
  756SOL    HW3 3098   0.497   0.819   1.485 -0.2742 -1.0756 -0.6829
  756SOL    MW4 3099   0.427   0.870   1.478 -0.3101 -0.8757  0.8339
  757SOL     OW 3100   0.460   1.126   1.564  0.2959  0.0662  0.1518
  757SOL    HW2 3101   0.529   1.185   1.530  0.1617  0.7206  1.0076
  757SOL    HW3 3102   0.380   1.156   1.520  0.4578 -0.3718 -0.4588
  757SOL    MW4 3103   0.459   1.138   1.553  0.2995  0.0950  0.1842
  758SOL     OW 3104   0.661   1.271   1.462  0.1567 -0.0438 -0.2616
  758SOL    HW2 3105   0.683   1.349   1.512  0.5642  0.0711 -0.6222
  758SOL    HW3 3106   0.682   1.293   1.372 -0.8146 -0.1654 -0.5204
  758SOL    MW4 3107   0.667   1.284   1.457  0.0823 -0.0447 -0.3433
  759SOL     OW 3108   0.695   1.527   1.582  0.0789 -0.0342  0.0123
  759SOL    HW2 3109   0.771   1.578   1.553 -0.5331  0.7075 -0.2966
  759SOL    HW3 3110   0.619   1.574   1.546 -0.4493 -1.7375 -1.1766
  759SOL    MW4 3111   0.695   1.540   1.573 -0.0716 -0.1611 -0.1853
  760SOL     OW 3112   0.472   1.658   1.486 -0.0280  0.0275  0.4956
  760SOL    HW2 3113   0.463   1.748   1.517  1.1008  0.2918  0.0591
  760SOL    HW3 3114   0.388   1.616   1.509 -0.2112  0.9359  1.4978
  760SOL    MW4 3115   0.460   1.664   1.493  0.0968  0.1823  0.5702
  761SOL     OW 3116   0.455   1.923   1.567  1.0679  0.2580 -0.2640
  761SOL    HW2 3117   0.446   1.930   1.662 -0.7957 -0.1168 -0.3824
  761SOL    HW3 3118   0.383   1.977   1.532  0.4593 -1.2541 -1.4174
  761SOL    MW4 3119   0.444   1.931   1.575  0.7417  0.0091 -0.4318
  762SOL     OW 3120   0.684   2.034   1.454  0.4242 -0.5615  0.1526
  762SOL    HW2 3121   0.747   1.973   1.494  0.0835 -0.5054  0.7924
  762SOL    HW3 3122   0.598   2.000   1.481  0.2219  0.0250  0.2620
  762SOL    MW4 3123   0.681   2.021   1.463  0.3526 -0.4764  0.2515
  763SOL     OW 3124   0.688   2.288   1.546  0.0399 -0.1722  0.1786
  763SOL    HW2 3125   0.598   2.306   1.517  0.0149 -0.2160  0.2294
  763SOL    HW3 3126   0.703   2.197   1.521  0.4416  0.1582 -0.7879
  763SOL    MW4 3127   0.678   2.278   1.539  0.0896 -0.1345  0.0578
  764SOL     OW 3128   0.436   2.414   1.506 -0.0029 -0.7960  0.3387
  764SOL    HW2 3129   0.443   2.504   1.537  2.0547 -0.7065 -0.3285
  764SOL    HW3 3130   0.349   2.385   1.536  0.1753  0.6861  2.4127
  764SOL    MW4 3131   0.425   2.422   1.514  0.2920 -0.5887  0.5245
  765SOL     OW 3132   0.449   2.695   1.553  0.0735 -0.1291 -0.3461
  765SOL    HW2 3133   0.453   2.698   1.649  2.6453 -1.1060 -0.3864
  765SOL    HW3 3134   0.528   2.739   1.524  0.3976 -1.7414 -1.9884
  765SOL    MW4 3135   0.460   2.701   1.562  0.4556 -0.4706 -0.5682
  766SOL     OW 3136   0.681   2.819   1.464 -0.7226  0.1645 -0.0851
  766SOL    HW2 3137   0.696   2.905   1.503 -2.5856  0.0087  1.0148
  766SOL    HW3 3138   0.693   2.833   1.370  1.6159  1.0283  0.3162
  766SOL    MW4 3139   0.685   2.832   1.456 -0.6598  0.2580  0.1130
  767SOL     OW 3140   0.682   3.075   1.573 -0.6936  0.3068 -0.4131
  767SOL    HW2 3141   0.755   3.117   1.529 -0.5954  0.9972  0.3908
  767SOL    HW3 3142   0.604   3.122   1.541 -0.8329 -0.7116 -1.5976
  767SOL    MW4 3143   0.681   3.087   1.563 -0.6991  0.2637 -0.4634
  768SOL     OW 3144   0.457   3.208   1.446  0.3084 -0.1369 -0.2985
  768SOL    HW2 3145   0.381   3.164   1.484  0.3631  0.4898  0.5510
  768SOL    HW3 3146   0.439   3.212   1.353 -0.9154  0.4008 -0.0439
  768SOL    MW4 3147   0.445   3.203   1.439  0.1541  0.0167 -0.1528
  769SOL     OW 3148   0.444   3.472   1.572  0.4489  0.1419  0.4013
  769SOL    HW2 3149   0.454   3.387   1.529  1.4306  0.6956 -0.4839
  769SOL    HW3 3150   0.359   3.504   1.541 -0.9300 -1.4192  2.3810
  769SOL    MW4 3151   0.434   3.465   1.563  0.3964  0.0091  0.5456
  770SOL     OW 3152   0.669   3.603   1.496  0.1619 -0.6023 -0.0502
  770SOL    HW2 3153   0.583   3.569   1.522 -0.3091  0.8598  0.3312
  770SOL    HW3 3154   0.730   3.532   1.516 -0.5937 -0.6462  2.2800
  770SOL    MW4 3155   0.666   3.589   1.502  0.0001 -0.4153  0.3076
  771SOL     OW 3156   0.698   3.851   1.599  0.3741 -0.3105  0.5492
  771SOL    HW2 3157   0.776   3.894   1.563  2.5338 -2.4125  2.5238
  771SOL    HW3 3158   0.707   3.760   1.570 -1.4032 -0.5502  0.7487
  771SOL    MW4 3159   0.710   3.845   1.590  0.4246 -0.6192  0.8360
  772SOL     OW 3160   0.450   3.977   1.521 -0.0279 -0.2621  0.4388
  772SOL    HW2 3161   0.531   3.936   1.550  0.1797  0.6572  1.1844
  772SOL    HW3 3162   0.439   3.947   1.431  1.6391  0.3314  0.0079
  772SOL    MW4 3163   0.459   3.968   1.513  0.2194 -0.0622  0.4803
  773SOL     OW 3164   0.427   4.251   1.606  0.1989  0.2542  0.0801
  773SOL    HW2 3165   0.432   4.162   1.574 -0.9747  0.2029 -0.0046
  773SOL    HW3 3166   0.346   4.286   1.568 -0.9570  0.3533  2.5075
  773SOL    MW4 3167   0.417   4.244   1.597 -0.1085  0.2608  0.3891
  774SOL     OW 3168   0.657   4.371   1.527  0.0809  0.0273 -0.3071
  774SOL    HW2 3169   0.570   4.345   1.557 -0.2471  0.9043 -0.4672
  774SOL    HW3 3170   0.665   4.463   1.553  1.2351 -0.2418  0.3063
  774SOL    MW4 3171   0.647   4.380   1.534  0.1899  0.1068 -0.2474
  775SOL     OW 3172   1.073   4.631   1.561  0.2332 -0.4405 -0.3012
  775SOL    HW2 3173   1.074   4.646   1.655 -0.4544 -1.2756 -0.1551
  775SOL    HW3 3174   1.143   4.687   1.527 -0.0948  0.5278  0.5979
  775SOL    MW4 3175   1.082   4.641   1.569  0.0992 -0.4234 -0.1633
  776SOL     OW 3176   0.852   0.110   1.464  0.5512 -0.2566  0.1927
  776SOL    HW2 3177   0.858   0.199   1.500 -1.5080 -0.0542  0.1097
  776SOL    HW3 3178   0.916   0.060   1.514 -0.6845  0.5163  2.6508
  776SOL    MW4 3179   0.861   0.115   1.476  0.1165 -0.1279  0.5062
  777SOL     OW 3180   0.923   0.344   1.608  0.3295  0.0920 -0.3278
  777SOL    HW2 3181   0.925   0.338   1.703 -0.7436 -2.5558 -0.4273
  777SOL    HW3 3182   0.851   0.404   1.589 -1.3991 -1.6710  0.5041
  777SOL    MW4 3183   0.914   0.351   1.618 -0.0402 -0.4900 -0.2311
  778SOL     OW 3184   1.117   0.487   1.489 -0.0140 -0.2246  0.1105
  778SOL    HW2 3185   1.105   0.573   1.527 -0.5089 -0.0955 -0.3261
  778SOL    HW3 3186   1.049   0.433   1.529  0.6746 -0.5650  0.8333
  778SOL    MW4 3187   1.106   0.491   1.499  0.0114 -0.2525  0.1483
  779SOL     OW 3188   1.120   0.735   1.594  0.5013 -0.0082  0.8416
  779SOL    HW2 3189   1.120   0.757   1.687 -1.6989  1.6929  0.4788
  779SOL    HW3 3190   1.175   0.802   1.554  1.5663 -0.8246  0.8963
  779SOL    MW4 3191   1.127   0.747   1.601  0.3514  0.1085  0.8008
  780SOL     OW 3192   0.887   0.881   1.490 -0.3343  0.1777  0.2298
  780SOL    HW2 3193   0.957   0.831   1.533  0.1066  0.4954 -0.1100
  780SOL    HW3 3194   0.913   0.884   1.398 -0.0248  1.5876  0.3615
  780SOL    MW4 3195   0.900   0.875   1.483 -0.2353  0.4057  0.2023
  781SOL     OW 3196   0.899   1.139   1.563 -0.2247 -0.3077 -0.2822
  781SOL    HW2 3197   0.898   1.048   1.533 -1.7305 -0.7877  1.1348
  781SOL    HW3 3198   0.816   1.175   1.530 -0.4892  0.0121  0.7090
  781SOL    MW4 3199   0.888   1.132   1.555 -0.4583 -0.3289  0.0355
  782SOL     OW 3200   1.113   1.281   1.455  0.1057  0.3640  0.4782
  782SOL    HW2 3201   1.193   1.241   1.488  0.9050  1.4616 -0.1245
  782SOL    HW3 3202   1.042   1.229   1.495  1.0477  1.0521  3.1329
  782SOL    MW4 3203   1.114   1.269   1.465  0.3355  0.5996  0.7490
  783SOL     OW 3204   1.104   1.540   1.567 -0.1887 -0.1686 -0.2513
  783SOL    HW2 3205   1.180   1.588   1.534  0.5469 -0.8214  0.4577
  783SOL    HW3 3206   1.110   1.454   1.526  0.7134 -0.9719  1.4980
  783SOL    MW4 3207   1.115   1.535   1.557  0.0274 -0.3607  0.0731
  784SOL     OW 3208   0.915   1.675   1.443  0.0684 -0.5233  0.1532
  784SOL    HW2 3209   0.990   1.632   1.484 -0.6520 -1.3214  0.6617
  784SOL    HW3 3210   0.939   1.685   1.351  0.0827 -2.3968 -0.0636
  784SOL    MW4 3211   0.928   1.671   1.437 -0.0247 -0.8756  0.1918
  785SOL     OW 3212   0.935   1.932   1.566 -0.0728  0.1734  0.3819
  785SOL    HW2 3213   0.997   1.986   1.518 -0.3362  0.6552  0.5845
  785SOL    HW3 3214   0.937   1.847   1.521 -1.2330  0.9918 -1.2463
  785SOL    MW4 3215   0.943   1.928   1.554 -0.2606  0.3450  0.1938
  786SOL     OW 3216   1.123   2.105   1.455  0.2372 -0.2873  0.1098
  786SOL    HW2 3217   1.200   2.069   1.499  0.9305 -0.0597 -0.8973
  786SOL    HW3 3218   1.100   2.182   1.506  1.6415  0.5474 -0.4905
  786SOL    MW4 3219   1.130   2.110   1.468  0.5140 -0.1471 -0.1023
  787SOL     OW 3220   1.142   2.341   1.617  0.2083 -0.4106 -0.2279
  787SOL    HW2 3221   1.229   2.363   1.584  0.1212 -1.5887 -1.3242
  787SOL    HW3 3222   1.082   2.386   1.557  0.0592 -0.4629 -0.1169
  787SOL    MW4 3223   1.145   2.350   1.605  0.1773 -0.5729 -0.3580
  788SOL     OW 3224   0.931   2.434   1.480  0.6151 -0.0184  0.4623
  788SOL    HW2 3225   0.924   2.524   1.511  0.6643 -0.3558  1.4622
  788SOL    HW3 3226   0.848   2.393   1.503 -0.5700  0.5324 -2.5724
  788SOL    MW4 3227   0.919   2.441   1.487  0.4653  0.0095  0.1940
  789SOL     OW 3228   0.913   2.701   1.574 -0.1584  0.2452  0.0616
  789SOL    HW2 3229   0.906   2.715   1.668  0.1002  0.4577  0.0513
  789SOL    HW3 3230   0.825   2.718   1.540 -0.2796  0.0458  0.2805
  789SOL    MW4 3231   0.901   2.705   1.582 -0.1402  0.2468  0.0893
  790SOL     OW 3232   1.151   2.829   1.493 -0.0753  0.3901  0.2310
  790SOL    HW2 3233   1.152   2.918   1.529 -0.3570 -0.0622  1.3812
  790SOL    HW3 3234   1.073   2.789   1.532  0.9092 -0.8591  0.9408
  790SOL    MW4 3235   1.141   2.836   1.503  0.0174  0.1659  0.4762
  791SOL     OW 3236   1.139   3.098   1.586 -0.0154 -0.0248 -0.2616
  791SOL    HW2 3237   1.152   3.091   1.680  0.7308 -0.7282 -0.4132
  791SOL    HW3 3238   1.221   3.135   1.553 -0.2284  0.1007 -0.6509
  791SOL    MW4 3239   1.152   3.102   1.594  0.0550 -0.1009 -0.3330
  792SOL     OW 3240   0.902   3.200   1.453 -0.0595  0.6001 -0.0720
  792SOL    HW2 3241   0.994   3.189   1.474 -0.3804  0.2389  1.2040
  792SOL    HW3 3242   0.900   3.215   1.358  1.3218  0.9436 -0.0510
  792SOL    MW4 3243   0.914   3.200   1.443  0.0803  0.5977  0.0992
  793SOL     OW 3244   0.909   3.450   1.575 -0.3084  0.5508  0.2196
  793SOL    HW2 3245   0.989   3.498   1.554  0.9419 -0.4575  2.5098
  793SOL    HW3 3246   0.919   3.367   1.529  0.4252  0.0311  1.3187
  793SOL    MW4 3247   0.921   3.446   1.566 -0.0466  0.3493  0.6666
  794SOL     OW 3248   1.105   3.611   1.497  0.4373  0.4226 -0.1872
  794SOL    HW2 3249   1.188   3.573   1.527  0.7394  0.1631 -1.3058
  794SOL    HW3 3250   1.120   3.629   1.404 -0.3719  1.4675 -0.1174
  794SOL    MW4 3251   1.118   3.608   1.489  0.3703  0.5262 -0.3257
  795SOL     OW 3252   1.156   3.868   1.608 -0.2693 -0.3602 -0.0440
  795SOL    HW2 3253   1.235   3.901   1.567 -0.3671  0.5671  0.5013
  795SOL    HW3 3254   1.150   3.777   1.579  0.7255 -0.2912 -0.4790
  795SOL    MW4 3255   1.166   3.860   1.599 -0.1509 -0.2289 -0.0296
  796SOL     OW 3256   0.926   3.981   1.485  0.7985 -0.1555  0.7251
  796SOL    HW2 3257   0.913   4.061   1.536  0.0732 -0.9465  1.8009
  796SOL    HW3 3258   1.010   3.946   1.516  0.6371 -0.3291  0.9711
  796SOL    MW4 3259   0.936   3.987   1.496  0.6815 -0.2825  0.8996
  797SOL     OW 3260   0.867   4.223   1.599  0.2015 -0.0313  0.0205
  797SOL    HW2 3261   0.885   4.228   1.693 -0.7354  0.6355  0.1707
  797SOL    HW3 3262   0.792   4.280   1.586  0.9120  0.6330 -1.2953
  797SOL    MW4 3263   0.860   4.231   1.610  0.1716  0.1440 -0.1333
  798SOL     OW 3264   1.097   4.366   1.469  0.2173  0.1816 -0.6696
  798SOL    HW2 3265   1.023   4.331   1.519  1.2263  1.1081  1.5378
  798SOL    HW3 3266   1.098   4.459   1.490  0.6513  0.6194 -2.5025
  798SOL    MW4 3267   1.087   4.374   1.478  0.4076  0.3614 -0.6201
  799SOL     OW 3268   1.558   4.640   1.558  0.6682  0.3440 -0.1015
  799SOL    HW2 3269   1.566   4.627   1.653  0.1425 -0.1094 -0.1134
  799SOL    HW3 3270   1.471   4.679   1.547  1.0772  1.2010 -0.3249
  799SOL    MW4 3271   1.548   4.643   1.569  0.6528  0.3972 -0.1324
  800SOL     OW 3272   1.311   0.126   1.493 -0.3239  0.2836 -0.0768
  800SOL    HW2 3273   1.329   0.209   1.536 -0.2196  0.6694 -0.8605
  800SOL    HW3 3274   1.321   0.144   1.400 -2.4543 -0.0611 -0.4039
  800SOL    MW4 3275   1.315   0.139   1.487 -0.5912  0.2890 -0.2233
  801SOL     OW 3276   1.340   0.383   1.607  0.0469 -0.2506  0.1976
  801SOL    HW2 3277   1.408   0.422   1.551  0.3818 -2.1735 -0.8019
  801SOL    HW3 3278   1.258   0.415   1.571  0.3610  0.7128  0.3244
  801SOL    MW4 3279   1.338   0.392   1.595  0.1326 -0.3772  0.0825
  802SOL     OW 3280   1.582   0.509   1.475  0.0133 -0.4110  0.0820
  802SOL    HW2 3281   1.654   0.452   1.499 -1.4936 -2.6348 -0.5337
  802SOL    HW3 3282   1.586   0.514   1.380 -0.4597 -0.2895  0.0667
  802SOL    MW4 3283   1.592   0.502   1.466 -0.2481 -0.6884 -0.0013
  803SOL     OW 3284   1.527   0.753   1.585  0.1332 -0.5302  0.2013
  803SOL    HW2 3285   1.508   0.735   1.677  0.8273 -1.7894  0.1039
  803SOL    HW3 3286   1.557   0.670   1.550 -1.4688 -0.4270 -1.5146
  803SOL    MW4 3287   1.528   0.740   1.593  0.0134 -0.6827 -0.0380
  804SOL     OW 3288   1.313   0.914   1.482 -0.4054 -0.1046 -0.1949
  804SOL    HW2 3289   1.382   0.865   1.526  0.6672 -0.1082 -1.8297
  804SOL    HW3 3290   1.324   0.893   1.389 -1.9249  0.7535 -0.5922
  804SOL    MW4 3291   1.324   0.905   1.476 -0.4644  0.0082 -0.4630
  805SOL     OW 3292   1.337   1.178   1.561 -0.2173  0.4559 -0.2111
  805SOL    HW2 3293   1.322   1.182   1.655 -1.4191  0.0176 -0.3750
  805SOL    HW3 3294   1.327   1.086   1.538  1.3170  0.3645 -0.5831
  805SOL    MW4 3295   1.334   1.167   1.570 -0.1734  0.3861 -0.2819
  806SOL     OW 3296   1.582   1.278   1.481 -0.1508  0.4734  0.1694
  806SOL    HW2 3297   1.500   1.235   1.505  0.0705 -0.4463 -0.6666
  806SOL    HW3 3298   1.600   1.246   1.392  0.2217  1.9977 -0.3252
  806SOL    MW4 3299   1.573   1.268   1.472 -0.0724  0.5531 -0.0063
  807SOL     OW 3300   1.545   1.543   1.554 -0.2536 -0.2958 -0.3012
  807SOL    HW2 3301   1.563   1.554   1.647  0.6604 -0.2633 -0.4753
  807SOL    HW3 3302   1.548   1.448   1.540 -1.4109 -0.3748 -0.1103
  807SOL    MW4 3303   1.548   1.532   1.565 -0.2857 -0.3018 -0.2990
  808SOL     OW 3304   1.316   1.713   1.509  0.0976 -0.1339 -0.1050
  808SOL    HW2 3305   1.391   1.656   1.527 -0.0079 -0.3540 -0.3666
  808SOL    HW3 3306   1.309   1.715   1.414  0.4178  0.7353 -0.1154
  808SOL    MW4 3307   1.325   1.706   1.499  0.1259 -0.0483 -0.1409
  809SOL     OW 3308   1.338   1.978   1.570 -0.1617 -0.0500  0.2285
  809SOL    HW2 3309   1.383   1.976   1.655 -0.7688 -0.5267  0.5367
  809SOL    HW3 3310   1.331   1.887   1.544 -0.7496  0.0365  0.0743
  809SOL    MW4 3311   1.343   1.966   1.578 -0.3194 -0.1016  0.2489
  810SOL     OW 3312   1.584   2.044   1.477 -0.0984  0.4650  0.0164
  810SOL    HW2 3313   1.504   2.007   1.516  1.3632 -0.8132  1.9118
  810SOL    HW3 3314   1.556   2.079   1.393 -2.5386 -0.5215  0.3815
  810SOL    MW4 3315   1.570   2.044   1.471 -0.2276  0.1664  0.3147
  811SOL     OW 3316   1.607   2.306   1.585  0.3779 -0.0147  0.2140
  811SOL    HW2 3317   1.660   2.361   1.527  0.6216  0.0558  0.5009
  811SOL    HW3 3318   1.607   2.220   1.544 -0.3416  0.2956 -0.4541
  811SOL    MW4 3319   1.614   2.302   1.572  0.3151  0.0355  0.1638
  812SOL     OW 3320   1.388   2.438   1.495  0.6890 -0.1184  0.1145
  812SOL    HW2 3321   1.381   2.515   1.551  0.4570 -0.8805  1.1451
  812SOL    HW3 3322   1.461   2.389   1.531  1.1981 -0.0981 -0.8912
  812SOL    MW4 3323   1.396   2.442   1.507  0.7257 -0.2162  0.1178
  813SOL     OW 3324   1.375   2.704   1.605 -0.0508  0.4926 -0.2260
  813SOL    HW2 3325   1.443   2.757   1.563 -0.8828  0.1713 -2.0186
  813SOL    HW3 3326   1.294   2.729   1.560 -0.5640 -1.7399 -0.5814
  813SOL    MW4 3327   1.373   2.714   1.593 -0.2283  0.1559 -0.5095
  814SOL     OW 3328   1.562   2.881   1.487  0.0487 -0.1796 -0.1391
  814SOL    HW2 3329   1.643   2.837   1.511  0.1066 -1.0242 -1.8071
  814SOL    HW3 3330   1.554   2.867   1.392 -1.8385  0.2199 -0.0619
  814SOL    MW4 3331   1.572   2.873   1.477 -0.1926 -0.2382 -0.3490
  815SOL     OW 3332   1.608   3.136   1.594  0.2022  0.3016  0.3040
  815SOL    HW2 3333   1.683   3.158   1.539  0.8561 -0.8322  0.7262
  815SOL    HW3 3334   1.581   3.050   1.564  0.6246 -0.3636  1.8003
  815SOL    MW4 3335   1.615   3.128   1.583  0.3442  0.0641  0.5572
  816SOL     OW 3336   1.382   3.208   1.470 -0.0934  0.1359 -0.1719
  816SOL    HW2 3337   1.363   3.296   1.500 -0.0099  0.2657 -0.4940
  816SOL    HW3 3338   1.461   3.183   1.518  0.0493  0.3471 -0.2972
  816SOL    MW4 3339   1.390   3.216   1.480 -0.0637  0.1807 -0.2309
  817SOL     OW 3340   1.331   3.471   1.549  0.0085 -0.1205 -0.3914
  817SOL    HW2 3341   1.334   3.474   1.645 -0.4735 -1.7222 -0.3257
  817SOL    HW3 3342   1.413   3.513   1.522 -0.8986  2.4228  0.6701
  817SOL    MW4 3343   1.342   3.477   1.558 -0.1748  0.0038 -0.2427
  818SOL     OW 3344   1.557   3.606   1.473 -0.6342  0.0999 -0.6535
  818SOL    HW2 3345   1.563   3.697   1.501  1.0342  0.3596 -1.7798
  818SOL    HW3 3346   1.563   3.610   1.377 -0.1235 -1.2183 -0.6905
  818SOL    MW4 3347   1.559   3.618   1.464 -0.3467 -0.0398 -0.8069
  819SOL     OW 3348   1.598   3.860   1.577 -0.0683  0.1074  0.1251
  819SOL    HW2 3349   1.582   3.858   1.671  0.2097  2.4809  0.2495
  819SOL    HW3 3350   1.525   3.910   1.541 -0.0723 -0.6249 -0.9172
  819SOL    MW4 3351   1.587   3.866   1.584 -0.0322  0.3240  0.0039
  820SOL     OW 3352   1.358   3.997   1.482 -0.0700  0.0398  0.3313
  820SOL    HW2 3353   1.350   4.089   1.508 -1.0073 -0.2322  1.0167
  820SOL    HW3 3354   1.332   3.996   1.390  0.3640  0.5193  0.1970
  820SOL    MW4 3355   1.354   4.009   1.473 -0.1364  0.0672  0.4038
  821SOL     OW 3356   1.321   4.251   1.586 -0.0612  0.3150 -0.0406
  821SOL    HW2 3357   1.395   4.300   1.551  0.4836 -0.6522 -0.2612
  821SOL    HW3 3358   1.244   4.296   1.550  0.3781  1.8039  0.8289
  821SOL    MW4 3359   1.320   4.264   1.577  0.0687  0.3839  0.0451
  822SOL     OW 3360   1.540   4.381   1.454  0.1489  0.1330 -0.0259
  822SOL    HW2 3361   1.628   4.350   1.475  0.3351 -0.1942 -1.2438
  822SOL    HW3 3362   1.547   4.477   1.460  0.3313  0.0680  0.8481
  822SOL    MW4 3363   1.553   4.390   1.458  0.1974  0.0811 -0.0713
  823SOL     OW 3364   2.047   4.614   1.559 -0.5896 -0.2862 -0.2015
  823SOL    HW2 3365   2.028   4.611   1.652 -1.2260 -0.8175 -0.3474
  823SOL    HW3 3366   1.986   4.679   1.523  0.3149  0.6467 -0.1029
  823SOL    MW4 3367   2.037   4.622   1.566 -0.5543 -0.2332 -0.2077
  824SOL     OW 3368   1.812   0.073   1.477  0.1665  0.2268  0.1800
  824SOL    HW2 3369   1.725   0.041   1.499  0.3687 -0.3479  0.1535
  824SOL    HW3 3370   1.818   0.065   1.382  0.1757  0.4600  0.1589
  824SOL    MW4 3371   1.801   0.068   1.467  0.1944  0.1817  0.1738
  825SOL     OW 3372   1.780   0.354   1.592 -0.7096 -0.1928 -0.0561
  825SOL    HW2 3373   1.861   0.382   1.550  0.6051 -1.0649  1.8080
  825SOL    HW3 3374   1.773   0.261   1.571 -0.7480 -0.3226  0.5087
  825SOL    MW4 3375   1.790   0.345   1.584 -0.5411 -0.3250  0.2643
  826SOL     OW 3376   2.001   0.489   1.457 -0.2381 -0.0342  0.1496
  826SOL    HW2 3377   2.084   0.445   1.475  1.0499  1.2109 -2.3970
  826SOL    HW3 3378   2.002   0.565   1.516  0.3854 -0.0919  0.2269
  826SOL    MW4 3379   2.012   0.493   1.467  0.0143  0.1225 -0.1763
  827SOL     OW 3380   2.013   0.739   1.602 -0.2536 -0.4813 -0.3449
  827SOL    HW2 3381   2.010   0.747   1.697  0.1512 -0.2126 -0.3557
  827SOL    HW3 3382   1.925   0.765   1.573  0.5178  2.3772 -0.2575
  827SOL    MW4 3383   2.001   0.743   1.611 -0.0985 -0.0687 -0.3349
  828SOL     OW 3384   1.770   0.857   1.479  0.6555  0.3761  0.4034
  828SOL    HW2 3385   1.771   0.950   1.500  3.6442  0.2227  1.2493
  828SOL    HW3 3386   1.691   0.823   1.520 -0.1167  2.4118  0.6260
  828SOL    MW4 3387   1.760   0.865   1.487  0.9480  0.6245  0.5443
  829SOL     OW 3388   1.780   1.121   1.572 -0.2887  0.7670 -0.3698
  829SOL    HW2 3389   1.852   1.158   1.521 -0.1337  0.4012 -0.4203
  829SOL    HW3 3390   1.703   1.169   1.542 -0.3623 -0.1986 -1.7481
  829SOL    MW4 3391   1.779   1.132   1.561 -0.2780  0.5913 -0.5584
  830SOL     OW 3392   2.028   1.243   1.450 -0.2450  0.2008  0.0822
  830SOL    HW2 3393   2.038   1.332   1.484 -0.6736 -0.1503  1.1278
  830SOL    HW3 3394   2.033   1.254   1.355  0.6617  1.2228  0.2285
  830SOL    MW4 3395   2.030   1.256   1.442 -0.1819  0.2893  0.2395
  831SOL     OW 3396   2.051   1.495   1.561 -0.2607 -0.2948  0.3792
  831SOL    HW2 3397   2.117   1.558   1.532 -0.1411  0.3985  2.0774
  831SOL    HW3 3398   1.968   1.543   1.555 -0.3408 -0.4388  0.3364
  831SOL    MW4 3399   2.048   1.510   1.557 -0.2558 -0.2223  0.5976
  832SOL     OW 3400   1.808   1.638   1.511  0.2515 -0.0775 -0.2635
  832SOL    HW2 3401   1.718   1.609   1.529  0.1768  0.1675 -0.2384
  832SOL    HW3 3402   1.809   1.656   1.417  0.0934  0.5298 -0.1573
  832SOL    MW4 3403   1.796   1.637   1.501  0.2208  0.0349 -0.2463
  833SOL     OW 3404   1.798   1.901   1.599  0.4843 -0.4263  0.2829
  833SOL    HW2 3405   1.788   1.820   1.550 -1.5865  0.0829 -0.1491
  833SOL    HW3 3406   1.724   1.955   1.572  0.3613  0.5807  2.5530
  833SOL    MW4 3407   1.787   1.898   1.589  0.1949 -0.2263  0.5255
  834SOL     OW 3408   1.991   2.078   1.460 -0.1181  0.4453  0.6697
  834SOL    HW2 3409   2.065   2.026   1.493  0.9396  1.2051 -0.4553
  834SOL    HW3 3410   1.915   2.041   1.504  0.9479 -0.2392  1.9996
  834SOL    MW4 3411   1.991   2.066   1.470  0.1621  0.4551  0.6968
  835SOL     OW 3412   2.023   2.344   1.555 -0.0038 -0.0463 -0.6228
  835SOL    HW2 3413   2.028   2.339   1.651 -0.0058 -1.1259 -0.6805
  835SOL    HW3 3414   2.013   2.254   1.526  1.3415  0.1327 -1.7299
  835SOL    MW4 3415   2.022   2.332   1.564  0.1736 -0.1652 -0.7765
  836SOL     OW 3416   1.787   2.478   1.450  0.0042  0.5444 -0.4646
  836SOL    HW2 3417   1.871   2.446   1.481 -0.9365 -0.8311  0.7779
  836SOL    HW3 3418   1.794   2.477   1.354  0.7974 -1.3043 -0.4126
  836SOL    MW4 3419   1.799   2.474   1.441 -0.0153  0.1190 -0.2940
  837SOL     OW 3420   1.802   2.743   1.548  0.0598 -0.3571  0.2167
  837SOL    HW2 3421   1.887   2.778   1.521 -0.2056 -0.3341 -0.6027
  837SOL    HW3 3422   1.797   2.658   1.506 -0.5557 -0.1310 -0.1641
  837SOL    MW4 3423   1.813   2.736   1.539 -0.0564 -0.3245  0.0584
  838SOL     OW 3424   2.069   2.832   1.509  0.1016  0.0267 -0.5216
  838SOL    HW2 3425   2.074   2.919   1.547  0.3305  0.4041 -1.4127
  838SOL    HW3 3426   2.080   2.846   1.415  2.9126 -1.2139 -0.4312
  838SOL    MW4 3427   2.071   2.845   1.502  0.5026 -0.0873 -0.6272
  839SOL     OW 3428   2.021   3.100   1.571  0.1906 -0.5903  0.3849
  839SOL    HW2 3429   2.011   3.116   1.665  2.3531 -2.7831  1.0281
  839SOL    HW3 3430   2.084   3.167   1.542  0.4294 -0.6632  0.7372
  839SOL    MW4 3431   2.028   3.111   1.579  0.5074 -0.8893  0.5161
  840SOL     OW 3432   1.818   3.222   1.446  0.2450  0.2358  0.5699
  840SOL    HW2 3433   1.830   3.308   1.486  1.2664 -0.4850  1.8716
  840SOL    HW3 3434   1.886   3.168   1.485 -1.3060 -1.5524  0.8951
  840SOL    MW4 3435   1.828   3.226   1.456  0.1751 -0.0954  0.7845
  841SOL     OW 3436   1.793   3.483   1.545  0.2729  0.1280 -0.2995
  841SOL    HW2 3437   1.775   3.470   1.638 -0.0697  1.7996 -0.1208
  841SOL    HW3 3438   1.713   3.521   1.510  0.4061 -0.4761 -1.2825
  841SOL    MW4 3439   1.780   3.487   1.553  0.2453  0.2689 -0.4055
  842SOL     OW 3440   2.010   3.616   1.460  0.3456 -0.0118  0.0390
  842SOL    HW2 3441   2.084   3.564   1.490 -0.2988 -1.5719 -1.0047
  842SOL    HW3 3442   1.933   3.568   1.492 -0.2803 -0.2459 -1.7444
  842SOL    MW4 3443   2.009   3.603   1.468  0.1779 -0.2489 -0.3339
  843SOL     OW 3444   2.045   3.859   1.616  0.2694 -0.3104  0.2877
  843SOL    HW2 3445   2.119   3.901   1.571 -0.6053 -0.4074 -1.2623
  843SOL    HW3 3446   2.032   3.777   1.568 -0.5962 -0.4705  0.7949
  843SOL    MW4 3447   2.053   3.854   1.603  0.0398 -0.3443  0.1501
  844SOL     OW 3448   1.817   3.976   1.461 -0.2234 -0.2574  0.0289
  844SOL    HW2 3449   1.892   3.944   1.510  0.5485  1.0231 -0.2763
  844SOL    HW3 3450   1.741   3.939   1.506  0.5568 -0.8952  0.8396
  844SOL    MW4 3451   1.817   3.967   1.473 -0.0187 -0.1729  0.0956
  845SOL     OW 3452   1.786   4.239   1.514 -0.1169 -0.0562 -0.0239
  845SOL    HW2 3453   1.875   4.267   1.495  0.0271  0.1847  0.9980
  845SOL    HW3 3454   1.789   4.143   1.505  0.3071 -0.0725  0.2865
  845SOL    MW4 3455   1.798   4.230   1.510 -0.0420 -0.0267  0.1519
  846SOL     OW 3456   2.049   4.342   1.465 -0.3203  0.0320  0.1591
  846SOL    HW2 3457   2.115   4.295   1.517 -0.7220 -0.3099  0.3573
  846SOL    HW3 3458   2.053   4.431   1.498 -0.4019 -0.1271  0.6122
  846SOL    MW4 3459   2.058   4.347   1.476 -0.3843 -0.0343  0.2452
  847SOL     OW 3460   2.480   4.633   1.573  0.4213 -0.2384 -0.2477
  847SOL    HW2 3461   2.487   4.644   1.668 -1.1515 -1.3279  0.0157
  847SOL    HW3 3462   2.398   4.677   1.551  0.1154 -1.1184 -0.8959
  847SOL    MW4 3463   2.470   4.640   1.583  0.1736 -0.4978 -0.2986
  848SOL     OW 3464   2.258   0.097   1.499 -0.9449  0.1456 -0.2690
  848SOL    HW2 3465   2.180   0.050   1.529 -2.6634  1.8929 -1.8826
  848SOL    HW3 3466   2.252   0.095   1.403  1.4097 -0.3462 -0.4343
  848SOL    MW4 3467   2.247   0.090   1.490 -0.8612  0.3112 -0.5038
  849SOL     OW 3468   2.227   0.371   1.568 -0.3345 -0.2143 -0.1289
  849SOL    HW2 3469   2.230   0.381   1.663  2.1808 -0.1796 -0.1715
  849SOL    HW3 3470   2.234   0.276   1.554 -0.3398 -0.1923 -0.2827
  849SOL    MW4 3471   2.229   0.360   1.579 -0.0033 -0.2068 -0.1550
  850SOL     OW 3472   2.449   0.525   1.516 -0.1654  0.0624 -0.0805
  850SOL    HW2 3473   2.509   0.455   1.539 -1.5471 -1.0331  0.2616
  850SOL    HW3 3474   2.362   0.489   1.532 -0.8629  2.8284  3.0001
  850SOL    MW4 3475   2.445   0.511   1.521 -0.4396  0.2828  0.3711
  851SOL     OW 3476   2.434   0.767   1.636  0.2294 -0.1116  0.1522
  851SOL    HW2 3477   2.363   0.803   1.583  0.0621 -0.9766 -0.2207
  851SOL    HW3 3478   2.455   0.683   1.595  3.5128  1.4458 -1.5808
  851SOL    MW4 3479   2.428   0.761   1.624  0.6409 -0.0202 -0.1258
  852SOL     OW 3480   2.234   0.890   1.484  0.2604 -0.3035  0.0402
  852SOL    HW2 3481   2.240   0.976   1.525  0.9589 -0.3808  0.0988
  852SOL    HW3 3482   2.155   0.851   1.523  1.1695 -0.5629  1.6780
  852SOL    MW4 3483   2.224   0.896   1.495  0.4725 -0.3479  0.2640
  853SOL     OW 3484   2.249   1.145   1.604 -0.0736 -0.3054 -0.1401
  853SOL    HW2 3485   2.239   1.153   1.699 -0.9207 -0.1897 -0.2384
  853SOL    HW3 3486   2.168   1.180   1.568  0.4372  0.0981 -0.9282
  853SOL    MW4 3487   2.237   1.151   1.612 -0.1180 -0.2369 -0.2571
  854SOL     OW 3488   2.431   1.309   1.475  0.0624  0.4803  0.2710
  854SOL    HW2 3489   2.368   1.257   1.524  0.0278 -0.0809 -0.3619
  854SOL    HW3 3490   2.444   1.388   1.528  0.5427 -0.4198  1.5252
  854SOL    MW4 3491   2.425   1.313   1.488  0.1211  0.2873  0.3529
  855SOL     OW 3492   2.464   1.584   1.569 -0.5362  0.2758 -0.1003
  855SOL    HW2 3493   2.467   1.613   1.660  0.2893 -0.6290  0.1808
  855SOL    HW3 3494   2.547   1.614   1.532  0.2398 -1.4923  0.1458
  855SOL    MW4 3495   2.475   1.592   1.576 -0.3247 -0.0768 -0.0308
  856SOL     OW 3496   2.227   1.725   1.480  0.0238  0.6833  0.1912
  856SOL    HW2 3497   2.315   1.692   1.502  0.4034  1.6375  0.1375
  856SOL    HW3 3498   2.219   1.708   1.386 -0.1929 -0.1715  0.3553
  856SOL    MW4 3499   2.238   1.718   1.470  0.0453  0.6963  0.2059
  857SOL     OW 3500   2.192   1.969   1.594 -0.1836 -0.0644  0.8800
  857SOL    HW2 3501   2.200   1.971   1.689 -1.1328 -1.5181  1.0132
  857SOL    HW3 3502   2.202   1.876   1.571 -0.5458  0.1972 -0.3810
  857SOL    MW4 3503   2.195   1.957   1.604 -0.3564 -0.2218  0.7312
  858SOL     OW 3504   2.446   2.061   1.495 -0.2600  0.1027 -0.5534
  858SOL    HW2 3505   2.360   2.045   1.535 -0.9766  0.7487 -1.7952
  858SOL    HW3 3506   2.433   2.040   1.402  0.2010  2.7159 -1.2435
  858SOL    MW4 3507   2.433   2.056   1.488 -0.2940  0.5329 -0.8084
  859SOL     OW 3508   2.490   2.320   1.585  0.1475 -0.0335  0.2157
  859SOL    HW2 3509   2.506   2.304   1.678  0.7821 -0.1816  0.0874
  859SOL    HW3 3510   2.483   2.233   1.546 -1.2103  0.0328  0.3000
  859SOL    MW4 3511   2.491   2.306   1.592  0.0522 -0.0441  0.2099
  860SOL     OW 3512   2.266   2.443   1.481 -0.0805 -0.2249 -0.1364
  860SOL    HW2 3513   2.339   2.386   1.504 -0.3400  0.0185  1.3070
  860SOL    HW3 3514   2.189   2.401   1.520 -0.2498  1.2135  1.1173
  860SOL    MW4 3515   2.265   2.430   1.489 -0.1371 -0.0033  0.2195
  861SOL     OW 3516   2.305   2.698   1.536  0.0574  0.3467 -0.5202
  861SOL    HW2 3517   2.293   2.605   1.521  0.9590 -0.1101  1.4700
  861SOL    HW3 3518   2.217   2.735   1.525 -0.5684 -0.9333  0.0335
  861SOL    MW4 3519   2.292   2.691   1.533  0.0937  0.1173 -0.1845
  862SOL     OW 3520   2.525   2.850   1.454 -0.0577 -0.0188  0.3114
  862SOL    HW2 3521   2.487   2.926   1.498 -0.8894 -0.0617 -0.3266
  862SOL    HW3 3522   2.459   2.781   1.463  0.2455 -0.3570 -0.0289
  862SOL    MW4 3523   2.511   2.851   1.461 -0.1276 -0.0689  0.1823
  863SOL     OW 3524   2.463   3.092   1.592 -0.2034 -0.2335 -0.0723
  863SOL    HW2 3525   2.541   3.136   1.558  0.9062 -1.0197  1.3619
  863SOL    HW3 3526   2.390   3.132   1.545  1.0552  0.5759 -1.3938
  863SOL    MW4 3527   2.464   3.103   1.581  0.1087 -0.2306 -0.0575
  864SOL     OW 3528   2.240   3.239   1.460 -0.0070  0.5056  0.1567
  864SOL    HW2 3529   2.245   3.325   1.501  1.3453  0.6244 -0.2382
  864SOL    HW3 3530   2.261   3.255   1.368  0.5882 -0.2816  0.1484
  864SOL    MW4 3531   2.243   3.252   1.453  0.2501  0.4175  0.1035
  865SOL     OW 3532   2.232   3.494   1.581 -0.3345  0.2961  0.3097
  865SOL    HW2 3533   2.231   3.503   1.676  0.1428 -1.7325  0.5263
  865SOL    HW3 3534   2.321   3.519   1.555  0.1434 -1.0505  0.6137
  865SOL    MW4 3535   2.244   3.499   1.590 -0.2084 -0.1495  0.3784
  866SOL     OW 3536   2.469   3.609   1.515  0.6210 -0.0059  0.1213
  866SOL    HW2 3537   2.559   3.581   1.527  1.3444  2.0767 -0.1652
  866SOL    HW3 3538   2.469   3.701   1.542 -1.8650 -0.5029  2.0716
  866SOL    MW4 3539   2.481   3.618   1.520  0.3881  0.2034  0.3408
  867SOL     OW 3540   2.474   3.872   1.607  0.0870  0.1959  0.0047
  867SOL    HW2 3541   2.466   3.886   1.701 -0.5402  0.2413 -0.0525
  867SOL    HW3 3542   2.562   3.903   1.585 -0.1396  1.1226  0.4047
  867SOL    MW4 3543   2.485   3.878   1.616 -0.0257  0.3240  0.0499
  868SOL     OW 3544   2.262   3.992   1.473  0.0822  0.8671 -0.4954
  868SOL    HW2 3545   2.329   3.939   1.516 -0.5032  1.3029  0.9792
  868SOL    HW3 3546   2.271   3.972   1.380  2.5733  1.2788 -0.3688
  868SOL    MW4 3547   2.272   3.982   1.466  0.3335  0.9792 -0.2842
  869SOL     OW 3548   2.251   4.245   1.627  0.0985  0.2127 -0.4115
  869SOL    HW2 3549   2.328   4.279   1.582  1.2887  0.1057  1.4556
  869SOL    HW3 3550   2.248   4.152   1.602  0.6073  0.2082 -0.4671
  869SOL    MW4 3551   2.261   4.237   1.618  0.3226  0.1979 -0.1725
  870SOL     OW 3552   2.452   4.369   1.478  0.3954  0.0241  0.2889
  870SOL    HW2 3553   2.464   4.460   1.507  2.8697  0.0580 -0.7642
  870SOL    HW3 3554   2.434   4.376   1.385  1.1192 -0.5905  0.0982
  870SOL    MW4 3555   2.451   4.382   1.470  0.8175 -0.0525  0.1248
  871SOL     OW 3556   2.927   4.606   1.573 -0.6931  0.0629  0.1595
  871SOL    HW2 3557   2.921   4.626   1.666 -0.6299  0.1177  0.1517
  871SOL    HW3 3558   2.858   4.659   1.532 -0.7626 -0.0099  0.1830
  871SOL    MW4 3559   2.917   4.616   1.580 -0.6940  0.0606  0.1615
  872SOL     OW 3560   2.695   0.097   1.485 -0.3770  0.0008  0.3591
  872SOL    HW2 3561   2.687   0.185   1.521 -1.6284  0.0191  0.0608
  872SOL    HW3 3562   2.622   0.048   1.523  0.5424 -1.0254  0.8449
  872SOL    MW4 3563   2.685   0.102   1.494 -0.4208 -0.1322  0.3840
  873SOL     OW 3564   2.646   0.349   1.586  0.2679 -0.0008 -0.2204
  873SOL    HW2 3565   2.654   0.346   1.681  1.2615  0.2750 -0.2947
  873SOL    HW3 3566   2.717   0.407   1.557  1.3275 -1.7703 -1.2830
  873SOL    MW4 3567   2.656   0.356   1.595  0.5383 -0.1979 -0.3704
  874SOL     OW 3568   2.868   0.506   1.492  0.0469 -0.3097  0.2947
  874SOL    HW2 3569   2.892   0.596   1.510 -0.1654 -0.4689  1.3944
  874SOL    HW3 3570   2.873   0.498   1.396  2.3839  0.1982  0.3535
  874SOL    MW4 3571   2.872   0.517   1.482  0.3271 -0.2637  0.4476
  875SOL     OW 3572   2.925   0.777   1.599  0.2588  0.4303 -0.2537
  875SOL    HW2 3573   2.927   0.752   1.692  0.8641 -0.7590 -0.5788
  875SOL    HW3 3574   2.836   0.810   1.586 -0.1469 -0.3093  0.5231
  875SOL    MW4 3575   2.913   0.778   1.610  0.2849  0.1758 -0.1941
  876SOL     OW 3576   2.681   0.869   1.528  0.6337  0.0788 -0.1284
  876SOL    HW2 3577   2.594   0.853   1.563  0.8406 -0.4808  0.1300
  876SOL    HW3 3578   2.671   0.864   1.433  0.8911 -2.6557 -0.0550
  876SOL    MW4 3579   2.668   0.866   1.520  0.6950 -0.3558 -0.0845
  877SOL     OW 3580   2.682   1.154   1.565 -0.4717 -0.1494 -0.3972
  877SOL    HW2 3581   2.663   1.062   1.549  0.6142 -0.1934 -1.4502
  877SOL    HW3 3582   2.609   1.201   1.524 -0.9415 -0.5196  0.0004
  877SOL    MW4 3583   2.670   1.148   1.558 -0.3903 -0.2040 -0.4835
  878SOL     OW 3584   2.932   1.285   1.493  0.0302  0.0563  0.7333
  878SOL    HW2 3585   3.010   1.238   1.522  0.3645 -0.5355 -1.1072
  878SOL    HW3 3586   2.859   1.233   1.528  0.4271  1.2305  3.4327
  878SOL    MW4 3587   2.932   1.272   1.502  0.1268  0.1330  0.8466
  879SOL     OW 3588   2.894   1.558   1.586 -0.0841  0.5451  0.2240
  879SOL    HW2 3589   2.822   1.593   1.533 -1.2131 -0.4374  1.0916
  879SOL    HW3 3590   2.910   1.470   1.550  0.7570  0.8011 -0.0378
  879SOL    MW4 3591   2.887   1.551   1.574 -0.1221  0.4493  0.3040
  880SOL     OW 3592   2.699   1.694   1.456  0.2390  0.2694  0.4124
  880SOL    HW2 3593   2.718   1.786   1.472 -0.0401  0.3270  0.4235
  880SOL    HW3 3594   2.694   1.686   1.360  0.7467  0.1648  0.3923
  880SOL    MW4 3595   2.701   1.705   1.445  0.2689  0.2631  0.4112
  881SOL     OW 3596   2.700   1.951   1.561  0.3706  0.3185  0.3342
  881SOL    HW2 3597   2.697   1.961   1.656 -0.5545 -1.1155  0.4681
  881SOL    HW3 3598   2.609   1.953   1.533  0.6397  0.8043 -0.5328
  881SOL    MW4 3599   2.688   1.952   1.570  0.2842  0.1935  0.2373
  882SOL     OW 3600   2.918   2.091   1.449 -0.3656  0.7648 -0.4424
  882SOL    HW2 3601   2.923   2.181   1.480  1.6134  0.4248  0.3324
  882SOL    HW3 3602   2.849   2.051   1.503  0.5098  1.1550  1.0046
  882SOL    MW4 3603   2.910   2.097   1.460  0.0112  0.7715 -0.1494
  883SOL     OW 3604   2.915   2.335   1.543 -0.2532 -0.2399 -0.1234
  883SOL    HW2 3605   2.904   2.322   1.637  0.3280 -0.7921 -0.1291
  883SOL    HW3 3606   2.844   2.394   1.518 -0.6312 -0.3901  0.5953
  883SOL    MW4 3607   2.904   2.341   1.552 -0.2265 -0.3326 -0.0294
  884SOL     OW 3608   2.672   2.488   1.452  0.7865  0.5579  0.1318
  884SOL    HW2 3609   2.687   2.569   1.502  0.8925 -0.7250  2.2354
  884SOL    HW3 3610   2.607   2.440   1.504  1.5605 -1.2022 -0.5137
  884SOL    MW4 3611   2.665   2.492   1.466  0.9029  0.1564  0.3242
  885SOL     OW 3612   2.721   2.720   1.592  0.1852 -0.2045 -0.3653
  885SOL    HW2 3613   2.797   2.762   1.551 -0.6701  0.4655 -1.2967
  885SOL    HW3 3614   2.646   2.754   1.543 -0.8166  0.0228  1.2962
  885SOL    MW4 3615   2.721   2.730   1.580 -0.0601 -0.0861 -0.2689
  886SOL     OW 3616   2.939   2.847   1.489 -0.3250  0.0430 -0.1842
  886SOL    HW2 3617   3.021   2.806   1.516 -0.8614 -0.2165  1.1227
  886SOL    HW3 3618   2.955   2.941   1.500 -0.2851 -0.0206  0.3488
  886SOL    MW4 3619   2.952   2.854   1.494 -0.3905  0.0002  0.0584
  887SOL     OW 3620   2.909   3.110   1.545  0.2638  0.0165 -0.5909
  887SOL    HW2 3621   2.918   3.109   1.640 -0.4310 -0.2423 -0.5256
  887SOL    HW3 3622   2.985   3.160   1.514  1.1386 -0.9189  0.0244
  887SOL    MW4 3623   2.921   3.117   1.554  0.2873 -0.1411 -0.5012
  888SOL     OW 3624   2.674   3.224   1.489 -1.1024 -0.1758  0.3510
  888SOL    HW2 3625   2.747   3.172   1.521 -0.9596  0.5750  1.2637
  888SOL    HW3 3626   2.683   3.221   1.394  0.1038 -0.1044  0.4517
  888SOL    MW4 3627   2.685   3.217   1.481 -0.9243 -0.0677  0.4846
  889SOL     OW 3628   2.719   3.483   1.603 -0.1030  0.2142 -0.4189
  889SOL    HW2 3629   2.710   3.484   1.699  0.0557 -1.5203 -0.3730
  889SOL    HW3 3630   2.697   3.393   1.578  0.4618  0.4938 -1.9534
  889SOL    MW4 3631   2.715   3.471   1.613 -0.0074  0.0222 -0.6154
  890SOL     OW 3632   2.946   3.636   1.515 -0.0482 -0.2218 -0.5757
  890SOL    HW2 3633   2.867   3.588   1.541 -0.1066  0.0113 -0.3147
  890SOL    HW3 3634   2.945   3.633   1.419 -1.4619  1.4999 -0.6461
  890SOL    MW4 3635   2.935   3.629   1.505 -0.2427  0.0360 -0.5505
  891SOL     OW 3636   2.953   3.885   1.622  0.0139 -0.1073 -0.1886
  891SOL    HW2 3637   2.880   3.942   1.596  0.1484  0.1113 -0.0858
  891SOL    HW3 3638   2.939   3.805   1.572 -0.1711  0.0194 -0.3421
  891SOL    MW4 3639   2.941   3.882   1.612  0.0069 -0.0618 -0.1953
  892SOL     OW 3640   2.711   3.991   1.533 -0.4149 -0.1125  0.0104
  892SOL    HW2 3641   2.682   4.079   1.557  0.0835 -0.2315  1.1225
  892SOL    HW3 3642   2.703   3.988   1.438  1.0001  1.6590 -0.1959
  892SOL    MW4 3643   2.706   4.002   1.524 -0.1624  0.1054  0.1301
  893SOL     OW 3644   2.657   4.252   1.615  0.1696 -0.2046 -0.0669
  893SOL    HW2 3645   2.737   4.296   1.587  0.9194 -1.6648 -0.2580
  893SOL    HW3 3646   2.587   4.290   1.562  0.6162  1.5805  0.5928
  893SOL    MW4 3647   2.658   4.263   1.605  0.3273 -0.1616 -0.0050
  894SOL     OW 3648   2.897   4.331   1.505  0.1219  0.1564  0.1012
  894SOL    HW2 3649   2.913   4.420   1.538 -0.2726  0.4781 -0.5483
  894SOL    HW3 3650   2.916   4.337   1.411 -0.8884 -0.1870 -0.1349
  894SOL    MW4 3651   2.902   4.344   1.497 -0.0634  0.1535 -0.0155
  895SOL     OW 3652   3.401   4.647   1.609  0.1992  0.3394  0.0460
  895SOL    HW2 3653   3.476   4.704   1.598 -0.1836  0.6689 -0.8783
  895SOL    HW3 3654   3.330   4.690   1.560  0.2946 -1.6572 -1.9368
  895SOL    MW4 3655   3.402   4.660   1.601  0.1614  0.1192 -0.3375
  896SOL     OW 3656   3.184   0.087   1.504 -0.0272  0.2002  0.0466
  896SOL    HW2 3657   3.108   0.037   1.534 -0.8862  0.9784 -0.7758
  896SOL    HW3 3658   3.164   0.178   1.528 -0.1287  0.6435 -1.6128
  896SOL    MW4 3659   3.171   0.093   1.511 -0.1540  0.3614 -0.2809
  897SOL     OW 3660   3.110   0.337   1.585 -0.2390  0.2471  0.2874
  897SOL    HW2 3661   3.030   0.380   1.557 -0.9619 -1.8905 -1.0754
  897SOL    HW3 3662   3.111   0.345   1.680 -1.0511  1.9890  0.1577
  897SOL    MW4 3663   3.100   0.344   1.594 -0.4418  0.1949  0.0904
  898SOL     OW 3664   3.358   0.441   1.502  0.4116  0.0586  0.0044
  898SOL    HW2 3665   3.273   0.413   1.537  0.1788  0.3992 -0.2808
  898SOL    HW3 3666   3.341   0.457   1.409  0.5878  0.9310  0.1145
  898SOL    MW4 3667   3.345   0.440   1.494  0.4039  0.2186 -0.0187
  899SOL     OW 3668   3.363   0.717   1.595  0.5863 -0.6728 -0.4008
  899SOL    HW2 3669   3.370   0.735   1.688  0.0090  0.7195 -0.6108
  899SOL    HW3 3670   3.356   0.622   1.589 -0.7917 -0.6751  1.0626
  899SOL    MW4 3671   3.363   0.707   1.606  0.3281 -0.4894 -0.2353
  900SOL     OW 3672   3.155   0.861   1.494  0.2628  0.2998  0.1184
  900SOL    HW2 3673   3.232   0.811   1.523  0.7986  1.3248  0.5195
  900SOL    HW3 3674   3.082   0.822   1.540  0.6359 -0.2995  0.2064
  900SOL    MW4 3675   3.156   0.850   1.504  0.3827  0.3559  0.1829
  901SOL     OW 3676   3.141   1.132   1.569  0.0175 -0.8342  0.1449
  901SOL    HW2 3677   3.141   1.134   1.665  0.3343 -2.0390  0.1789
  901SOL    HW3 3678   3.146   1.039   1.547 -0.3901 -0.5843 -1.0465
  901SOL    MW4 3679   3.142   1.120   1.579  0.0055 -0.9600 -0.0077
  902SOL     OW 3680   3.346   1.274   1.461 -0.0285 -0.0145 -0.6190
  902SOL    HW2 3681   3.416   1.226   1.507  0.3252 -0.6636 -1.8286
  902SOL    HW3 3682   3.265   1.235   1.494  0.2296 -0.6480 -0.7208
  902SOL    MW4 3683   3.345   1.262   1.472  0.0525 -0.1837 -0.7920
  903SOL     OW 3684   3.337   1.522   1.589  0.3468  0.3837  0.3921
  903SOL    HW2 3685   3.362   1.505   1.679  1.4708 -1.8410 -0.3204
  903SOL    HW3 3686   3.322   1.436   1.551 -0.6181  1.3088 -1.4164
  903SOL    MW4 3687   3.338   1.509   1.596  0.3679  0.2123  0.0596
  904SOL     OW 3688   3.114   1.695   1.511  0.6055 -0.0966 -0.3051
  904SOL    HW2 3689   3.202   1.669   1.539 -0.1420 -2.1873  0.2022
  904SOL    HW3 3690   3.056   1.633   1.557 -1.0744  0.8587 -1.1322
  904SOL    MW4 3691   3.118   1.683   1.521  0.2851 -0.2464 -0.3473
  905SOL     OW 3692   3.118   1.964   1.618 -0.0733  0.2269 -0.1238
  905SOL    HW2 3693   3.107   1.879   1.576  2.3341  0.1878 -0.7679
  905SOL    HW3 3694   3.041   2.014   1.592 -0.6634 -1.1869 -1.1606
  905SOL    MW4 3695   3.106   1.960   1.609  0.1664  0.0354 -0.3457
  906SOL     OW 3696   3.361   2.066   1.507 -0.3632 -0.3296 -0.2109
  906SOL    HW2 3697   3.279   2.040   1.549 -0.5429 -0.3367 -0.5652
  906SOL    HW3 3698   3.343   2.060   1.413 -0.1229  0.1949 -0.2909
  906SOL    MW4 3699   3.348   2.062   1.500 -0.3552 -0.2615 -0.2683
  907SOL     OW 3700   3.384   2.327   1.571  0.0122 -0.5718  0.3008
  907SOL    HW2 3701   3.464   2.370   1.540  0.3817 -1.4020  0.1109
  907SOL    HW3 3702   3.385   2.241   1.530 -2.3495  0.3662 -1.8959
  907SOL    MW4 3703   3.395   2.321   1.562 -0.2503 -0.5577 -0.0141
  908SOL     OW 3704   3.153   2.464   1.473  0.0361 -0.1575 -0.1670
  908SOL    HW2 3705   3.227   2.420   1.516 -0.8096 -0.7013  0.7499
  908SOL    HW3 3706   3.077   2.410   1.496 -0.9617  1.5775  0.6252
  908SOL    MW4 3707   3.153   2.451   1.482 -0.2074 -0.0005  0.0585
  909SOL     OW 3708   3.162   2.721   1.586 -0.1064 -0.2033 -0.4297
  909SOL    HW2 3709   3.238   2.771   1.556 -0.3582  0.2856 -0.2548
  909SOL    HW3 3710   3.172   2.635   1.545  1.2165 -0.5643  0.6147
  909SOL    MW4 3711   3.174   2.716   1.576  0.0348 -0.1864 -0.2688
  910SOL     OW 3712   3.415   2.815   1.471 -0.1492  0.2346 -0.1671
  910SOL    HW2 3713   3.416   2.908   1.493 -2.9007  0.0938  0.7256
  910SOL    HW3 3714   3.398   2.812   1.377  0.3881  0.6418 -0.2773
  910SOL    MW4 3715   3.413   2.827   1.462 -0.4413  0.2699 -0.0639
  911SOL     OW 3716   3.395   3.073   1.564 -0.4047  0.1869 -0.0714
  911SOL    HW2 3717   3.400   3.077   1.659  0.8977 -0.4465 -0.1109
  911SOL    HW3 3718   3.461   3.135   1.534 -1.4444  1.0847 -0.5811
  911SOL    MW4 3719   3.404   3.082   1.572 -0.3700  0.2217 -0.1438
  912SOL     OW 3720   3.148   3.221   1.492 -0.3963 -0.8976  0.1215
  912SOL    HW2 3721   3.226   3.177   1.524  0.0672  0.1554  0.4562
  912SOL    HW3 3722   3.146   3.304   1.539 -1.6253 -0.8457 -0.0057
  912SOL    MW4 3723   3.158   3.227   1.502 -0.4976 -0.7515  0.1490
  913SOL     OW 3724   3.185   3.464   1.626  0.3138 -0.3317 -0.0181
  913SOL    HW2 3725   3.176   3.470   1.721 -0.4237  0.0445 -0.1113
  913SOL    HW3 3726   3.110   3.513   1.591  0.8674 -0.0272 -0.7932
  913SOL    MW4 3727   3.174   3.471   1.634  0.2897 -0.2420 -0.1326
  914SOL     OW 3728   3.386   3.639   1.466  0.0201 -0.2063 -0.2328
  914SOL    HW2 3729   3.461   3.601   1.512 -0.6779  1.5653  2.4884
  914SOL    HW3 3730   3.310   3.599   1.507 -0.6027  1.2082  0.0372
  914SOL    MW4 3731   3.386   3.629   1.478 -0.1540  0.2139  0.1618
  915SOL     OW 3732   3.383   3.895   1.598  0.4319 -0.2290  0.0586
  915SOL    HW2 3733   3.310   3.943   1.559  2.2210  0.7316 -2.2361
  915SOL    HW3 3734   3.389   3.815   1.547  1.7616  0.2762 -0.5953
  915SOL    MW4 3735   3.374   3.891   1.586  0.8435 -0.0358 -0.3304
  916SOL     OW 3736   3.166   3.991   1.487  0.0828 -0.1260 -0.1784
  916SOL    HW2 3737   3.173   4.072   1.537 -0.2559  0.1038 -0.5031
  916SOL    HW3 3738   3.092   3.945   1.527  1.1086 -0.8992  0.8891
  916SOL    MW4 3739   3.157   3.996   1.499  0.1733 -0.1979 -0.0803
  917SOL     OW 3740   3.152   4.234   1.591 -0.0230 -0.3033 -0.4057
  917SOL    HW2 3741   3.145   4.251   1.685  2.0520  2.3699 -0.6589
  917SOL    HW3 3742   3.066   4.257   1.556  0.4358  2.7920  0.3304
  917SOL    MW4 3743   3.140   4.239   1.599  0.3111  0.4578 -0.3420
  918SOL     OW 3744   3.352   4.391   1.497  0.1311 -0.0211  0.0395
  918SOL    HW2 3745   3.350   4.477   1.539  1.2013 -0.0405  0.1462
  918SOL    HW3 3746   3.276   4.345   1.533 -1.5286  1.5336 -1.4482
  918SOL    MW4 3747   3.342   4.396   1.507  0.0534  0.1817 -0.1426
  919SOL     OW 3748   3.824   4.640   1.610 -0.3424  0.4854  0.0098
  919SOL    HW2 3749   3.830   4.631   1.705 -1.2919  0.6921  0.1002
  919SOL    HW3 3750   3.887   4.709   1.588 -1.1278  1.4330  0.6689
  919SOL    MW4 3751   3.833   4.648   1.620 -0.5713  0.6375  0.1087
  920SOL     OW 3752   3.628   0.176   1.528  0.2079 -0.2858 -0.1991
  920SOL    HW2 3753   3.697   0.114   1.553  0.2130 -1.4019 -2.8461
  920SOL    HW3 3754   3.609   0.155   1.437 -2.8969  0.7198  0.1736
  920SOL    MW4 3755   3.635   0.165   1.520 -0.2010 -0.3004 -0.4992
  921SOL     OW 3756   3.625   0.448   1.592  0.3233  0.3345  0.0524
  921SOL    HW2 3757   3.632   0.354   1.577 -0.2880  0.0747  1.2829
  921SOL    HW3 3758   3.535   0.470   1.567  0.4663  0.5950 -0.2406
  921SOL    MW4 3759   3.614   0.439   1.587  0.2613  0.3346  0.1761
  922SOL     OW 3760   3.839   0.564   1.460 -0.0769  0.6500 -0.0128
  922SOL    HW2 3761   3.772   0.513   1.506 -0.8222  1.4936 -0.1412
  922SOL    HW3 3762   3.840   0.529   1.371  0.1336  0.1845  0.1720
  922SOL    MW4 3763   3.830   0.553   1.455 -0.1476  0.6999 -0.0052
  923SOL     OW 3764   3.826   0.840   1.553 -0.4380 -0.4275  0.1466
  923SOL    HW2 3765   3.743   0.881   1.531  0.4001  0.9113 -0.5933
  923SOL    HW3 3766   3.830   0.761   1.498 -0.4208  0.4503 -1.1209
  923SOL    MW4 3767   3.816   0.835   1.543 -0.3252 -0.1351 -0.1183
  924SOL     OW 3768   3.559   0.901   1.494  0.0371 -0.6432  0.3278
  924SOL    HW2 3769   3.491   0.842   1.527 -0.7284 -0.0938 -0.2465
  924SOL    HW3 3770   3.542   0.908   1.400 -0.2842  0.9973  0.4898
  924SOL    MW4 3771   3.548   0.895   1.486 -0.1063 -0.3543  0.2735
  925SOL     OW 3772   3.564   1.154   1.587  0.2474 -0.1775 -0.0901
  925SOL    HW2 3773   3.649   1.191   1.564 -0.1337 -0.3545 -1.9047
  925SOL    HW3 3774   3.562   1.068   1.543 -0.7772 -0.2567  0.0881
  925SOL    MW4 3775   3.575   1.147   1.578  0.0618 -0.2114 -0.3060
  926SOL     OW 3776   3.802   1.283   1.526  0.0935 -0.3454  0.3109
  926SOL    HW2 3777   3.884   1.234   1.540  0.8284  0.5132 -0.9023
  926SOL    HW3 3778   3.825   1.373   1.546 -0.6881 -0.1633  0.3903
  926SOL    MW4 3779   3.816   1.288   1.530  0.0875 -0.2080  0.1614
  927SOL     OW 3780   3.820   1.567   1.589  0.3920 -0.3303  0.0917
  927SOL    HW2 3781   3.808   1.542   1.681 -0.9919 -0.2481 -0.0560
  927SOL    HW3 3782   3.733   1.594   1.560  1.0654  0.7766 -0.9171
  927SOL    MW4 3783   3.807   1.567   1.598  0.2985 -0.1734 -0.0610
  928SOL     OW 3784   3.585   1.617   1.477  0.0212 -0.1392 -0.2453
  928SOL    HW2 3785   3.502   1.577   1.506  0.4602 -0.6338  0.3343
  928SOL    HW3 3786   3.592   1.593   1.385 -0.1070 -0.7419 -0.0993
  928SOL    MW4 3787   3.575   1.609   1.469  0.0620 -0.2841 -0.1495
  929SOL     OW 3788   3.565   1.883   1.600 -0.2041 -0.1485 -0.0849
  929SOL    HW2 3789   3.545   1.800   1.556  0.3692  0.1245 -0.8925
  929SOL    HW3 3790   3.500   1.944   1.565 -0.8132 -0.3252  0.7358
  929SOL    MW4 3791   3.554   1.880   1.589 -0.2086 -0.1359 -0.0833
  930SOL     OW 3792   3.797   1.993   1.479 -0.4498  0.3421  0.0586
  930SOL    HW2 3793   3.806   2.077   1.523 -0.3730  0.6732 -0.5830
  930SOL    HW3 3794   3.729   1.947   1.529 -0.4046  0.7344  0.4838
  930SOL    MW4 3795   3.789   1.998   1.491 -0.4337  0.4376  0.0300
  931SOL     OW 3796   3.830   2.242   1.593 -0.0614  0.6577  0.0561
  931SOL    HW2 3797   3.828   2.231   1.689 -0.5885 -0.8489 -0.1107
  931SOL    HW3 3798   3.913   2.286   1.576 -0.3671  1.7517  1.2852
  931SOL    MW4 3799   3.841   2.246   1.604 -0.1714  0.6037  0.1962
  932SOL     OW 3800   3.633   2.409   1.486 -0.2365  0.4283 -0.3814
  932SOL    HW2 3801   3.642   2.497   1.520  1.1679 -0.5475  1.8857
  932SOL    HW3 3802   3.704   2.359   1.527 -0.5452 -1.5994 -2.1599
  932SOL    MW4 3803   3.644   2.414   1.496 -0.0916  0.0322 -0.3170
  933SOL     OW 3804   3.636   2.681   1.579  0.2324  0.6132  0.2413
  933SOL    HW2 3805   3.632   2.683   1.675  0.9884  0.2926  0.2814
  933SOL    HW3 3806   3.549   2.712   1.551  0.0511  0.8344  1.0246
  933SOL    MW4 3807   3.624   2.686   1.588  0.3080  0.6001  0.3500
  934SOL     OW 3808   3.831   2.840   1.443  0.0555 -0.6935  0.1095
  934SOL    HW2 3809   3.911   2.799   1.476 -0.0873 -0.2511  1.0443
  934SOL    HW3 3810   3.762   2.807   1.501 -0.3824 -0.7932 -0.4684
  934SOL    MW4 3811   3.832   2.831   1.455 -0.0212 -0.6483  0.1565
  935SOL     OW 3812   3.822   3.104   1.523  0.0347  0.3835  0.0176
  935SOL    HW2 3813   3.906   3.146   1.503 -0.4348  1.0592 -0.5616
  935SOL    HW3 3814   3.832   3.016   1.487 -0.0023  0.9040 -1.3090
  935SOL    MW4 3815   3.835   3.098   1.515 -0.0322  0.5414 -0.2338
  936SOL     OW 3816   3.595   3.225   1.470 -0.2395  0.3074 -0.0217
  936SOL    HW2 3817   3.677   3.180   1.489 -1.6787 -2.1080  0.7658
  936SOL    HW3 3818   3.588   3.224   1.375  0.4693  0.2080 -0.0761
  936SOL    MW4 3819   3.605   3.219   1.460 -0.3357 -0.0246  0.0751
  937SOL     OW 3820   3.602   3.481   1.578 -0.8759 -0.7475 -0.1914
  937SOL    HW2 3821   3.588   3.464   1.671  1.0147 -1.0717  0.0508
  937SOL    HW3 3822   3.599   3.394   1.537 -1.2515 -0.6496 -0.3782
  937SOL    MW4 3823   3.600   3.467   1.585 -0.6764 -0.7777 -0.1839
  938SOL     OW 3824   3.857   3.603   1.501  0.4657 -0.1057 -0.0021
  938SOL    HW2 3825   3.773   3.562   1.518  1.0856 -1.2667  0.3210
  938SOL    HW3 3826   3.849   3.692   1.535 -0.7147 -0.1192 -0.2357
  938SOL    MW4 3827   3.845   3.609   1.508  0.3917 -0.2608  0.0098
  939SOL     OW 3828   3.855   3.857   1.623  0.2658  0.3897 -0.5048
  939SOL    HW2 3829   3.929   3.913   1.600  0.9060 -0.6586 -1.0101
  939SOL    HW3 3830   3.778   3.909   1.600  0.8403  1.3027 -0.4001
  939SOL    MW4 3831   3.854   3.871   1.617  0.4261  0.3719 -0.5575
  940SOL     OW 3832   3.635   4.003   1.549  0.5238  0.3661 -0.5720
  940SOL    HW2 3833   3.634   4.099   1.553 -0.8973  0.4242 -1.9876
  940SOL    HW3 3834   3.552   3.976   1.589  1.2641 -0.3220  0.5361
  940SOL    MW4 3835   3.624   4.012   1.555  0.4342  0.2832 -0.6125
  941SOL     OW 3836   3.591   4.290   1.586  0.0447  0.0021  0.3468
  941SOL    HW2 3837   3.582   4.289   1.681  1.6229  0.4905  0.5116
  941SOL    HW3 3838   3.502   4.309   1.554 -0.2344  1.2014  1.7718
  941SOL    MW4 3839   3.578   4.293   1.594  0.2165  0.2246  0.5567
  942SOL     OW 3840   3.814   4.401   1.458 -0.6985  0.6532 -0.0702
  942SOL    HW2 3841   3.736   4.360   1.495 -0.0604  0.8175  1.4877
  942SOL    HW3 3842   3.817   4.488   1.497 -0.3964  1.1045 -1.0623
  942SOL    MW4 3843   3.804   4.407   1.468 -0.5746  0.7348  0.0044
  943SOL     OW 3844   4.209   0.019   1.596 -0.1675  0.5066  0.1906
  943SOL    HW2 3845   4.231   0.001   1.687 -1.8851  0.2070  0.5771
  943SOL    HW3 3846   4.231  -0.062   1.549 -0.4485  0.2139  0.5616
  943SOL    MW4 3847   4.214   0.006   1.602 -0.4315  0.4287  0.2904
  944SOL     OW 3848   4.001   0.149   1.475  0.6151 -0.0501 -0.1127
  944SOL    HW2 3849   4.011   0.238   1.508 -0.1158  0.9707 -2.5058
  944SOL    HW3 3850   4.078   0.103   1.506  0.8855  1.3551  1.3583
  944SOL    MW4 3851   4.012   0.155   1.483  0.5546  0.2700 -0.2342
  945SOL     OW 3852   4.066   0.409   1.556 -0.2151 -0.2108 -0.3105
  945SOL    HW2 3853   4.066   0.398   1.651 -1.1268 -2.3177 -0.5098
  945SOL    HW3 3854   4.004   0.480   1.540 -0.3221 -0.0832  0.6496
  945SOL    MW4 3855   4.058   0.417   1.566 -0.3500 -0.4719 -0.2103
  946SOL     OW 3856   4.324   0.469   1.453  0.3292  0.4238 -0.0192
  946SOL    HW2 3857   4.248   0.432   1.496 -0.3440  1.1387 -0.5829
  946SOL    HW3 3858   4.399   0.427   1.495 -0.3799 -0.4103  0.4089
  946SOL    MW4 3859   4.324   0.459   1.464  0.1469  0.4081 -0.0372
  947SOL     OW 3860   4.305   0.724   1.570  0.0304  0.1767 -0.0029
  947SOL    HW2 3861   4.307   0.639   1.525  0.1092  0.4363 -0.4935
  947SOL    HW3 3862   4.370   0.777   1.523 -1.2255  1.0422 -0.7858
  947SOL    MW4 3863   4.314   0.720   1.557 -0.1249  0.3251 -0.1711
  948SOL     OW 3864   4.085   0.885   1.482  0.2885 -0.2984 -0.1305
  948SOL    HW2 3865   4.145   0.820   1.519 -0.3601 -0.7901  0.0773
  948SOL    HW3 3866   4.000   0.861   1.518 -0.0484  0.3233 -0.5161
  948SOL    MW4 3867   4.082   0.873   1.491  0.1583 -0.2812 -0.1540
  949SOL     OW 3868   4.044   1.150   1.553 -0.4806 -0.0968 -0.5183
  949SOL    HW2 3869   4.038   1.153   1.649  0.1936  0.7703 -0.4962
  949SOL    HW3 3870   4.051   1.056   1.533  1.5153 -0.1737  0.4217
  949SOL    MW4 3871   4.044   1.138   1.563 -0.1283  0.0074 -0.3914
  950SOL     OW 3872   4.272   1.288   1.424 -0.0527 -0.0989  0.4187
  950SOL    HW2 3873   4.195   1.243   1.458  0.0910 -0.6705  0.0029
  950SOL    HW3 3874   4.346   1.239   1.459  0.1277  0.4897  0.8730
  950SOL    MW4 3875   4.271   1.276   1.433 -0.0100 -0.0966  0.4238
  951SOL     OW 3876   4.252   1.527   1.571 -0.2216  0.2121 -0.9339
  951SOL    HW2 3877   4.253   1.445   1.520  0.9838  0.5742 -1.5122
  951SOL    HW3 3878   4.335   1.569   1.550  0.1027  0.5966  0.9962
  951SOL    MW4 3879   4.263   1.522   1.562 -0.0200  0.3107 -0.7555
  952SOL     OW 3880   4.040   1.651   1.458  0.3365  0.0951  0.0331
  952SOL    HW2 3881   4.106   1.610   1.514  0.7664 -0.3235 -0.7697
  952SOL    HW3 3882   3.956   1.627   1.497  0.6365 -0.2409  0.4665
  952SOL    MW4 3883   4.037   1.642   1.470  0.4325 -0.0045 -0.0157
  953SOL     OW 3884   4.055   1.919   1.516 -0.1876  0.5619 -0.0583
  953SOL    HW2 3885   4.074   1.831   1.483 -1.4911  0.5781 -0.8641
  953SOL    HW3 3886   3.961   1.931   1.501 -0.5096  1.1610  2.2722
  953SOL    MW4 3887   4.045   1.909   1.510 -0.4025  0.6430  0.1429
  954SOL     OW 3888   4.277   2.075   1.466  0.2368  0.1087 -0.2131
  954SOL    HW2 3889   4.197   2.023   1.474  0.0512  0.4055 -0.1610
  954SOL    HW3 3890   4.287   2.089   1.371 -0.9247  1.8745 -0.0863
  954SOL    MW4 3891   4.268   2.070   1.454  0.0596  0.3808 -0.1894
  955SOL     OW 3892   4.276   2.337   1.581  0.0823 -0.0870 -0.2952
  955SOL    HW2 3893   4.248   2.334   1.673  2.5633 -0.3904  0.4786
  955SOL    HW3 3894   4.279   2.246   1.554  0.1139 -0.0401 -0.4476
  955SOL    MW4 3895   4.273   2.325   1.590  0.4139 -0.1209 -0.2133
  956SOL     OW 3896   4.023   2.404   1.504 -0.0425  0.5458 -0.1378
  956SOL    HW2 3897   3.999   2.492   1.533  0.4689  0.9672 -0.9661
  956SOL    HW3 3898   4.111   2.390   1.540  0.2487  0.7366 -0.7736
  956SOL    MW4 3899   4.031   2.414   1.513  0.0634  0.6263 -0.3309
  957SOL     OW 3900   4.039   2.697   1.549  0.1654 -0.0017 -0.0030
  957SOL    HW2 3901   4.068   2.673   1.637  1.0466  1.5350  0.1498
  957SOL    HW3 3902   4.118   2.731   1.506 -0.0285 -1.7074 -1.7460
  957SOL    MW4 3903   4.053   2.698   1.555  0.2561 -0.0241 -0.2128
  958SOL     OW 3904   4.278   2.828   1.188  0.4557 -0.4341  0.4384
  958SOL    HW2 3905   4.263   2.834   1.282 -0.6242 -1.3637  0.3360
  958SOL    HW3 3906   4.271   2.919   1.158  1.5820 -0.0333  1.3545
  958SOL    MW4 3907   4.275   2.841   1.196  0.4616 -0.5043  0.5459
  959SOL     OW 3908   4.223   3.054   1.591 -0.1485  0.2958  0.0380
  959SOL    HW2 3909   4.237   3.060   1.685 -0.8073  0.9165  0.0975
  959SOL    HW3 3910   4.300   3.096   1.553  1.0257 -1.5987  0.2538
  959SOL    MW4 3911   4.235   3.061   1.598 -0.0806  0.1276  0.0743
  960SOL     OW 3912   4.059   3.228   1.477  0.4732 -0.4939 -0.0479
  960SOL    HW2 3913   4.060   3.304   1.534  1.6749  0.4810 -1.3481
  960SOL    HW3 3914   4.097   3.158   1.530 -0.6640 -0.2236  1.1578
  960SOL    MW4 3915   4.064   3.228   1.491  0.4821 -0.3300 -0.0604
  961SOL     OW 3916   4.076   3.454   1.604 -0.2841 -0.1200  0.2552
  961SOL    HW2 3917   4.057   3.446   1.698 -0.5784  0.1710  0.2258
  961SOL    HW3 3918   4.012   3.519   1.573 -1.7291 -1.9158 -0.6079
  961SOL    MW4 3919   4.065   3.462   1.612 -0.5136 -0.3183  0.1374
  962SOL     OW 3920   4.284   3.567   1.474 -0.3406  0.0540  0.2949
  962SOL    HW2 3921   4.270   3.659   1.496 -0.9694 -0.4773  2.2429
  962SOL    HW3 3922   4.210   3.521   1.514  1.8304 -1.6980  2.5078
  962SOL    MW4 3923   4.273   3.573   1.482 -0.1369 -0.2472  0.8440
  963SOL     OW 3924   4.252   3.823   1.565  0.0163  0.3027 -0.1181
  963SOL    HW2 3925   4.179   3.882   1.545 -0.3294 -0.1985 -0.3504
  963SOL    HW3 3926   4.328   3.864   1.522 -0.3707  0.1802 -0.9316
  963SOL    MW4 3927   4.253   3.836   1.556 -0.0801  0.2208 -0.2562
  964SOL     OW 3928   4.053   4.035   1.525  0.1560 -0.3880  0.3891
  964SOL    HW2 3929   4.052   4.127   1.552 -0.8681 -0.3879  0.3864
  964SOL    HW3 3930   4.071   4.038   1.431  0.6328 -0.2146  0.4868
  964SOL    MW4 3931   4.055   4.048   1.516  0.0839 -0.3653  0.4016
  965SOL     OW 3932   4.037   4.300   1.569  0.2227  0.5345 -0.4114
  965SOL    HW2 3933   4.034   4.308   1.664  1.1299  0.8058 -0.4019
  965SOL    HW3 3934   3.954   4.337   1.539  0.5808  1.8594  0.1804
  965SOL    MW4 3935   4.026   4.306   1.577  0.3896  0.7448 -0.3322
  966SOL     OW 3936   4.244   4.439   1.461  0.4508  0.3304  1.0046
  966SOL    HW2 3937   4.177   4.380   1.496  0.7593 -1.2578 -0.9742
  966SOL    HW3 3938   4.243   4.423   1.367  1.2211  2.8321  0.5427
  966SOL    MW4 3939   4.235   4.429   1.453  0.5927  0.4506  0.6825
  967SOL     OW 3940   0.187   0.007   1.901  0.1366 -0.4463  0.2337
  967SOL    HW2 3941   0.275   0.043   1.913  0.3132 -0.8007 -0.0036
  967SOL    HW3 3942   0.183  -0.015   1.808 -0.9121  1.4710 -0.2180
  967SOL    MW4 3943   0.198   0.009   1.890  0.0215 -0.2400  0.1428
  968SOL     OW 3944   4.460   0.134   1.997 -0.0077 -0.1142  0.4256
  968SOL    HW2 3945   4.456   0.218   1.951  0.1158  0.4035  1.3496
  968SOL    HW3 3946   4.535   0.089   1.958  0.9599  0.9045  1.0754
  968SOL    MW4 3947   4.469   0.139   1.986  0.1364  0.0885  0.6331
  969SOL     OW 3948   4.471   0.384   1.878 -0.5454  0.1254 -0.8371
  969SOL    HW2 3949   4.407   0.447   1.910  0.6563  0.4514  1.0268
  969SOL    HW3 3950   4.555   0.415   1.913  0.4342 -1.0864 -2.0235
  969SOL    MW4 3951   4.474   0.397   1.887 -0.2575  0.0086 -0.7478
  970SOL     OW 3952   0.235   0.467   1.931 -0.0984  0.3435  0.2062
  970SOL    HW2 3953   0.318   0.427   1.908 -0.1005  0.2305  0.3874
  970SOL    HW3 3954   0.240   0.557   1.898 -0.0044  0.2591 -0.0024
  970SOL    MW4 3955   0.247   0.474   1.924 -0.0862  0.3175  0.2024
  971SOL     OW 3956   0.241   0.744   1.872 -0.2774 -0.0783  0.1107
  971SOL    HW2 3957   0.324   0.790   1.883  0.3703 -1.4699  1.0834
  971SOL    HW3 3958   0.215   0.762   1.782  1.0413  0.3971 -0.1799
  971SOL    MW4 3959   0.248   0.753   1.862 -0.0180 -0.1992  0.2007
  972SOL     OW 3960   0.034   0.914   1.921  0.0559  0.0818  0.2149
  972SOL    HW2 3961  -0.031   0.872   1.864  0.7874 -0.3976 -0.2692
  972SOL    HW3 3962   0.113   0.861   1.911  0.5513  0.7187  0.7289
  972SOL    MW4 3963   0.035   0.902   1.912  0.2177  0.1026  0.2187
  973SOL     OW 3964   4.458   1.161   1.806  0.0318 -0.3195 -0.3963
  973SOL    HW2 3965   4.375   1.190   1.844  0.5255  0.2308  0.2879
  973SOL    HW3 3966   4.482   1.083   1.856  0.0526 -0.3227 -0.4110
  973SOL    MW4 3967   4.451   1.154   1.818  0.0997 -0.2472 -0.3079
  974SOL     OW 3968   0.189   1.295   1.917 -0.3591 -0.0831  0.2168
  974SOL    HW2 3969   0.187   1.371   1.858  0.7042  0.0621  0.3506
  974SOL    HW3 3970   0.115   1.242   1.889  0.6101 -0.4291 -1.8238
  974SOL    MW4 3971   0.179   1.298   1.905 -0.0909 -0.1096 -0.0348
  975SOL     OW 3972   0.216   1.556   1.818 -0.1171 -0.2320  0.1377
  975SOL    HW2 3973   0.279   1.602   1.873  0.6295 -2.9179  1.6257
  975SOL    HW3 3974   0.131   1.590   1.845  0.4497  0.6397  0.8468
  975SOL    MW4 3975   0.213   1.567   1.829  0.0562 -0.4714  0.4276
  976SOL     OW 3976   4.444   1.680   1.904  0.1026  0.0412 -0.2613
  976SOL    HW2 3977   4.464   1.655   1.994  0.9878  0.9745 -0.1846
  976SOL    HW3 3978   4.370   1.625   1.879  0.0739 -0.4622  0.9205
  976SOL    MW4 3979   4.437   1.669   1.913  0.2151  0.0980 -0.0952
  977SOL     OW 3980   0.006   1.964   1.844 -0.4064  0.1938  0.5575
  977SOL    HW2 3981  -0.066   2.009   1.887  0.2272  0.0188  1.8388
  977SOL    HW3 3982  -0.003   1.872   1.871 -0.4455 -0.0594 -0.3073
  977SOL    MW4 3983  -0.004   1.958   1.853 -0.3285  0.1372  0.6125
  978SOL     OW 3984   0.216   2.077   1.958  0.3938 -0.1870 -0.4995
  978SOL    HW2 3985   0.211   2.164   1.917  0.6779  0.0236 -0.0867
  978SOL    HW3 3986   0.141   2.029   1.921  0.6565 -0.0042 -1.2856
  978SOL    MW4 3987   0.205   2.083   1.948  0.4660 -0.1352 -0.5488
  979SOL     OW 3988   0.211   2.345   1.863  0.7218  0.1102  0.4394
  979SOL    HW2 3989   0.274   2.407   1.898 -0.0921  0.0566  2.0312
  979SOL    HW3 3990   0.127   2.372   1.900  0.2392 -1.4550  0.5250
  979SOL    MW4 3991   0.208   2.357   1.872  0.5507 -0.1035  0.6607
  980SOL     OW 3992   4.456   2.434   1.928  0.7877 -0.0347 -0.4139
  980SOL    HW2 3993   4.458   2.445   2.023 -1.4351 -0.3247 -0.3176
  980SOL    HW3 3994   4.461   2.523   1.894  0.8325  0.1206 -0.0086
  980SOL    MW4 3995   4.457   2.447   1.936  0.5007 -0.0525 -0.3477
  981SOL     OW 3996   0.002   2.688   1.843 -0.1549  0.3563  0.3114
  981SOL    HW2 3997  -0.075   2.724   1.887 -2.2012 -2.7455 -0.6792
  981SOL    HW3 3998  -0.011   2.708   1.751 -0.4077 -1.2264 -0.0118
  981SOL    MW4 3999  -0.010   2.696   1.837 -0.4582 -0.2618  0.1380
  982SOL     OW 4000   0.236   2.845   1.958  0.0306 -0.2093  0.2239
  982SOL    HW2 4001   0.238   2.934   1.923 -0.7325 -0.3780 -0.2846
  982SOL    HW3 4002   0.165   2.803   1.910  1.1030 -1.4200 -0.3184
  982SOL    MW4 4003   0.227   2.851   1.947  0.0714 -0.3912  0.0852
  983SOL     OW 4004   0.216   3.087   1.817  0.3348 -0.0218  0.4448
  983SOL    HW2 4005   0.298   3.114   1.858 -0.1673  0.4652  1.1447
  983SOL    HW3 4006   0.237   3.078   1.724  0.9987  0.8374  0.5062
  983SOL    MW4 4007   0.229   3.090   1.810  0.3561  0.1559  0.5451
  984SOL     OW 4008   0.007   3.197   1.962  0.3745  0.1077  0.0588
  984SOL    HW2 4009  -0.072   3.151   1.933  0.4083  1.0393 -1.6133
  984SOL    HW3 4010   0.076   3.165   1.904  0.8209  0.6823  0.2737
  984SOL    MW4 4011   0.005   3.187   1.950  0.4382  0.3066 -0.1335
  985SOL     OW 4012   0.003   3.472   1.877  0.0213 -0.7365  0.7437
  985SOL    HW2 4013   0.080   3.515   1.913 -0.9306  0.0623  1.8591
  985SOL    HW3 4014  -0.000   3.387   1.921 -0.9448  0.1008  2.3278
  985SOL    MW4 4015   0.012   3.466   1.887 -0.2322 -0.5207  1.0998
  986SOL     OW 4016   0.238   3.605   1.962  0.3741  0.2925 -0.0423
  986SOL    HW2 4017   0.233   3.594   2.057  0.3227 -2.6455 -0.3490
  986SOL    HW3 4018   0.315   3.556   1.935 -0.2732  0.1189 -1.6599
  986SOL    MW4 4019   0.247   3.597   1.971  0.2819 -0.1180 -0.2964
  987SOL     OW 4020   0.197   3.886   1.880 -0.4812  0.2515  0.3241
  987SOL    HW2 4021   0.272   3.926   1.923 -0.2114 -0.0880  0.1726
  987SOL    HW3 4022   0.202   3.793   1.903 -0.3535  0.0714 -0.3967
  987SOL    MW4 4023   0.207   3.879   1.889 -0.4288  0.1826  0.2091
  988SOL     OW 4024   4.450   3.987   1.945  0.6334  0.1678  0.0491
  988SOL    HW2 4025   4.445   4.080   1.923  0.8213  0.5673  1.6182
  988SOL    HW3 4026   4.534   3.959   1.909 -0.1305  0.2056 -1.8177
  988SOL    MW4 4027   4.460   3.996   1.937  0.5574  0.2255  0.0098
  989SOL     OW 4028   4.481   4.260   1.824 -0.2521 -0.1541 -0.3237
  989SOL    HW2 4029   4.406   4.299   1.869 -0.2529  1.7782 -1.8988
  989SOL    HW3 4030   4.556   4.285   1.877 -0.3114  1.5832 -1.0346
  989SOL    MW4 4031   4.481   4.268   1.837 -0.2604  0.3304 -0.6254
  990SOL     OW 4032   0.178   4.386   1.974  0.3078 -0.8830 -0.2179
  990SOL    HW2 4033   0.196   4.383   2.068 -1.8851  0.0369  0.2614
  990SOL    HW3 4034   0.170   4.480   1.954 -1.4791 -1.1494 -0.8450
  990SOL    MW4 4035   0.180   4.398   1.983 -0.2173 -0.7968 -0.2373
  991SOL     OW 4036   0.673   4.650   1.847 -0.3069 -0.1355 -0.3723
  991SOL    HW2 4037   0.665   4.561   1.881  0.1017 -0.1831 -0.3962
  991SOL    HW3 4038   0.675   4.639   1.752  1.8035 -0.2866 -0.3345
  991SOL    MW4 4039   0.672   4.637   1.839  0.0256 -0.1616 -0.3705
  992SOL     OW 4040   0.437   0.127   1.943  0.4275  0.1666 -0.0272
  992SOL    HW2 4041   0.457   0.209   1.898 -0.5547  0.2066 -0.4000
  992SOL    HW3 4042   0.502   0.065   1.909  0.2181  0.4089 -0.8912
  992SOL    MW4 4043   0.448   0.130   1.932  0.2703  0.2038 -0.1905
  993SOL     OW 4044   0.473   0.368   1.836  0.0218  0.6137 -0.1703
  993SOL    HW2 4045   0.539   0.422   1.879  1.0691 -0.6705 -0.1379
  993SOL    HW3 4046   0.494   0.376   1.742  0.7109 -0.4033 -0.1099
  993SOL    MW4 4047   0.485   0.376   1.829  0.2508  0.3102 -0.1581
  994SOL     OW 4048   0.670   0.500   1.973  0.2783  0.9654  0.0617
  994SOL    HW2 4049   0.682   0.487   2.067  1.2549  1.3223 -0.0069
  994SOL    HW3 4050   0.747   0.460   1.934 -0.8566 -0.5225 -0.6952
  994SOL    MW4 4051   0.682   0.493   1.981  0.2574  0.8162 -0.0473
  995SOL     OW 4052   0.669   0.755   1.831  0.3757 -0.7623 -0.6733
  995SOL    HW2 4053   0.754   0.794   1.846  0.7072 -1.4152 -0.8257
  995SOL    HW3 4054   0.671   0.673   1.882  0.0365 -1.0360 -1.0942
  995SOL    MW4 4055   0.680   0.749   1.840  0.3747 -0.8845 -0.7489
  996SOL     OW 4056   0.465   0.902   1.954 -0.2837  0.1121  0.1139
  996SOL    HW2 4057   0.454   0.992   1.926 -0.3915  0.5017  1.3593
  996SOL    HW3 4058   0.539   0.869   1.903 -1.6075  0.2155 -1.9091
  996SOL    MW4 4059   0.473   0.909   1.944 -0.4726  0.1771  0.0114
  997SOL     OW 4060   0.424   1.150   1.855 -0.0171 -0.1624  0.1026
  997SOL    HW2 4061   0.354   1.213   1.873  0.5719  0.6172 -0.3118
  997SOL    HW3 4062   0.427   1.144   1.760  1.3194  0.7647  0.0764
  997SOL    MW4 4063   0.415   1.158   1.845  0.2370  0.0628  0.0443
  998SOL     OW 4064   0.657   1.282   1.902 -0.3702 -0.4264  0.3360
  998SOL    HW2 4065   0.654   1.282   1.998  0.6937 -1.7979  0.3739
  998SOL    HW3 4066   0.575   1.239   1.876 -0.4706 -0.4126  0.6257
  998SOL    MW4 4067   0.646   1.276   1.911 -0.2431 -0.6056  0.3792
  999SOL     OW 4068   0.656   1.568   1.851 -0.3861  0.1517  0.0488
  999SOL    HW2 4069   0.655   1.475   1.872 -0.3421  0.0671 -0.3168
  999SOL    HW3 4070   0.700   1.573   1.766 -0.2840  0.5177  0.1211
  999SOL    MW4 4071   0.662   1.557   1.842 -0.3668  0.1889  0.0103
 1000SOL     OW 4072   0.435   1.694   1.962 -0.0671  0.3869 -0.1429
 1000SOL    HW2 4073   0.448   1.712   2.055  1.0346  1.1269 -0.4325
 1000SOL    HW3 4074   0.520   1.661   1.932 -0.0400  1.3472 -1.1527
 1000SOL    MW4 4075   0.448   1.692   1.971  0.0818  0.6113 -0.3144
 1001SOL     OW 4076   0.435   1.941   1.841  0.0987  0.3033 -0.2367
 1001SOL    HW2 4077   0.427   1.855   1.882  1.5109  1.0421  1.6876
 1001SOL    HW3 4078   0.363   1.992   1.877  1.2974  0.9312  1.3378
 1001SOL    MW4 4079   0.424   1.936   1.851  0.4432  0.4836  0.2249
 1002SOL     OW 4080   0.688   2.049   1.908  0.1287 -0.2884  0.0490
 1002SOL    HW2 4081   0.690   2.056   2.003  0.8908 -0.7769  0.0740
 1002SOL    HW3 4082   0.606   2.005   1.888 -0.7643  1.1805  0.3827
 1002SOL    MW4 4083   0.678   2.044   1.918  0.1114 -0.1590  0.0963
 1003SOL     OW 4084   0.664   2.314   1.838 -0.0824 -0.3265  0.5242
 1003SOL    HW2 4085   0.655   2.228   1.877  1.2769 -0.6288  0.2063
 1003SOL    HW3 4086   0.696   2.297   1.749 -1.2693  0.4400 -0.0665
 1003SOL    MW4 4087   0.667   2.301   1.831 -0.0597 -0.2651  0.4042
 1004SOL     OW 4088   0.443   2.458   1.944 -0.4999 -0.6477  0.1311
 1004SOL    HW2 4089   0.452   2.436   2.037  0.5870  0.1776  0.2309
 1004SOL    HW3 4090   0.520   2.418   1.903  1.1724  2.3554  0.2200
 1004SOL    MW4 4091   0.455   2.450   1.951 -0.1358 -0.1426  0.1559
 1005SOL     OW 4092   0.459   2.724   1.840  0.4697 -0.2871  0.0891
 1005SOL    HW2 4093   0.453   2.635   1.873  0.0729 -0.4503 -0.4142
 1005SOL    HW3 4094   0.391   2.772   1.887 -0.2519 -0.5730 -0.6499
 1005SOL    MW4 4095   0.449   2.719   1.850  0.3221 -0.3462 -0.0747
 1006SOL     OW 4096   0.686   2.825   1.971 -0.5507 -0.1740 -0.4191
 1006SOL    HW2 4097   0.669   2.828   2.065 -1.4546 -0.0740 -0.5870
 1006SOL    HW3 4098   0.601   2.807   1.931 -0.3994  0.9855 -1.3018
 1006SOL    MW4 4099   0.673   2.823   1.978 -0.6500 -0.0079 -0.5578
 1007SOL     OW 4100   0.657   3.083   1.849 -0.2839 -0.2603 -0.2689
 1007SOL    HW2 4101   0.657   2.993   1.882  0.8736 -0.4620 -0.8059
 1007SOL    HW3 4102   0.668   3.073   1.755  0.5614  0.4781 -0.2460
 1007SOL    MW4 4103   0.658   3.070   1.841 -0.0197 -0.1895 -0.3366
 1008SOL     OW 4104   0.442   3.190   1.975  0.1569  0.3535 -0.1781
 1008SOL    HW2 4105   0.447   3.280   1.942  1.2036  0.8574  1.2865
 1008SOL    HW3 4106   0.525   3.151   1.949  0.3005  0.2529  0.4395
 1008SOL    MW4 4107   0.454   3.197   1.967  0.3140  0.4067  0.0967
 1009SOL     OW 4108   0.450   3.431   1.862 -0.0068 -0.0384  0.2829
 1009SOL    HW2 4109   0.525   3.480   1.896  0.9293 -1.6413  0.5819
 1009SOL    HW3 4110   0.451   3.448   1.767  0.7732 -0.1049  0.2778
 1009SOL    MW4 4111   0.460   3.440   1.854  0.2196 -0.2589  0.3217
 1010SOL     OW 4112   0.656   3.598   1.965 -0.1495 -0.2228 -0.1813
 1010SOL    HW2 4113   0.731   3.548   1.933 -1.4677 -1.1167 -1.9085
 1010SOL    HW3 4114   0.677   3.689   1.944  0.7321 -0.3968 -0.0761
 1010SOL    MW4 4115   0.669   3.603   1.958 -0.2072 -0.3636 -0.3953
 1011SOL     OW 4116   0.673   3.869   1.872 -0.0708  0.1338 -0.2866
 1011SOL    HW2 4117   0.742   3.934   1.890  0.8832 -1.1403  0.7649
 1011SOL    HW3 4118   0.676   3.857   1.777  1.2050  0.0339 -0.2388
 1011SOL    MW4 4119   0.683   3.876   1.862  0.2235 -0.0477 -0.1416
 1012SOL     OW 4120   0.440   3.993   1.993  0.1070 -0.2551 -0.1777
 1012SOL    HW2 4121   0.443   4.078   1.949 -0.3851  0.0552  0.3798
 1012SOL    HW3 4122   0.519   3.948   1.962  0.2692  0.3231 -0.6345
 1012SOL    MW4 4123   0.451   3.999   1.983  0.0635 -0.1378 -0.1644
 1013SOL     OW 4124   0.416   4.250   1.871 -0.3105  0.5552 -0.6891
 1013SOL    HW2 4125   0.329   4.285   1.891 -0.0839  0.7258 -0.0033
 1013SOL    HW3 4126   0.422   4.253   1.775 -1.1511  0.3193 -0.7490
 1013SOL    MW4 4127   0.405   4.255   1.861 -0.3915  0.5465 -0.6064
 1014SOL     OW 4128   0.648   4.389   1.971 -0.0555 -0.2502 -0.7234
 1014SOL    HW2 4129   0.727   4.341   1.948  0.1795 -1.2331  1.9800
 1014SOL    HW3 4130   0.576   4.332   1.942  0.2258 -0.7803 -0.3820
 1014SOL    MW4 4131   0.649   4.375   1.964  0.0126 -0.4501 -0.3217
 1015SOL     OW 4132   1.093   4.632   1.849  0.3322  0.0915  0.2102
 1015SOL    HW2 4133   1.171   4.678   1.879  0.3682 -0.3381  0.7902
 1015SOL    HW3 4134   1.110   4.540   1.869 -0.3158 -0.0049  0.3296
 1015SOL    MW4 4135   1.105   4.625   1.856  0.2514  0.0219  0.3024
 1016SOL     OW 4136   0.900   0.101   1.992 -0.0208  0.3006 -0.3047
 1016SOL    HW2 4137   0.972   0.052   1.952 -0.8952 -0.6179 -0.7853
 1016SOL    HW3 4138   0.822   0.072   1.945 -0.8216  0.6488  0.7796
 1016SOL    MW4 4139   0.899   0.091   1.980 -0.2419  0.2254 -0.2249
 1017SOL     OW 4140   0.889   0.379   1.885  0.5442  0.1023  0.1913
 1017SOL    HW2 4141   0.963   0.421   1.929  0.4395 -1.0719  1.5326
 1017SOL    HW3 4142   0.881   0.294   1.928 -1.1235 -0.0813 -0.4460
 1017SOL    MW4 4143   0.898   0.373   1.896  0.3103 -0.0769  0.2840
 1018SOL     OW 4144   1.134   0.517   1.958 -0.2983  0.2604 -0.4688
 1018SOL    HW2 4145   1.210   0.470   1.925 -0.8560 -1.7370  1.0419
 1018SOL    HW3 4146   1.130   0.596   1.903  0.5127 -1.5260 -3.2108
 1018SOL    MW4 4147   1.143   0.521   1.946 -0.2649 -0.2388 -0.6312
 1019SOL     OW 4148   1.120   0.799   1.860 -0.0940 -0.0673  0.1256
 1019SOL    HW2 4149   1.196   0.852   1.887  0.3549 -0.9110  0.5340
 1019SOL    HW3 4150   1.045   0.844   1.900  0.1537  0.9338 -0.5090
 1019SOL    MW4 4151   1.120   0.812   1.869 -0.0021 -0.0466  0.0957
 1020SOL     OW 4152   0.867   0.913   1.921 -0.2772 -0.2196  0.4406
 1020SOL    HW2 4153   0.863   0.918   2.017 -0.9518  0.5039  0.3749
 1020SOL    HW3 4154   0.875   1.005   1.893 -0.4075 -0.4086 -0.2133
 1020SOL    MW4 4155   0.868   0.926   1.930 -0.3834 -0.1491  0.3457
 1021SOL     OW 4156   0.907   1.180   1.833  0.1740  0.2184 -0.4834
 1021SOL    HW2 4157   0.818   1.212   1.846  0.2047  0.2686 -0.3973
 1021SOL    HW3 4158   0.910   1.154   1.741 -0.7445 -2.3379  0.1816
 1021SOL    MW4 4159   0.896   1.181   1.822  0.0569 -0.1123 -0.3843
 1022SOL     OW 4160   1.166   1.304   1.916  0.7150  0.1663 -0.4427
 1022SOL    HW2 4161   1.166   1.399   1.903  1.4858 -0.1073 -2.7924
 1022SOL    HW3 4162   1.082   1.275   1.881  0.5880 -0.0276  0.0318
 1022SOL    MW4 4163   1.155   1.313   1.909  0.8000  0.1047 -0.6901
 1023SOL     OW 4164   1.173   1.562   1.844  0.5025 -0.1446 -0.5235
 1023SOL    HW2 4165   1.096   1.609   1.877  0.8151 -0.1628  0.2408
 1023SOL    HW3 4166   1.152   1.544   1.752  0.4749  1.6986 -0.9105
 1023SOL    MW4 4167   1.160   1.566   1.836  0.5401  0.0962 -0.4737
 1024SOL     OW 4168   0.901   1.653   1.946  0.4519  0.0017 -0.6559
 1024SOL    HW2 4169   0.908   1.745   1.922  1.8547 -0.0074 -0.3644
 1024SOL    HW3 4170   0.814   1.627   1.917 -0.8130  1.9751  1.1712
 1024SOL    MW4 4171   0.891   1.662   1.939  0.4701  0.2608 -0.3765
 1025SOL     OW 4172   0.910   1.925   1.847  0.3712  0.2157 -0.1979
 1025SOL    HW2 4173   0.826   1.970   1.859  0.3539 -0.0536  0.6867
 1025SOL    HW3 4174   0.928   1.934   1.753 -0.6146  0.3397 -0.3880
 1025SOL    MW4 4175   0.901   1.932   1.836  0.2388  0.1966 -0.1063
 1026SOL     OW 4176   1.138   2.016   1.990  0.1650  0.1892 -0.2215
 1026SOL    HW2 4177   1.139   2.105   1.955  1.6682  0.0047 -0.7122
 1026SOL    HW3 4178   1.069   1.971   1.942 -0.1350  0.9038 -0.4568
 1026SOL    MW4 4179   1.129   2.022   1.979  0.3238  0.2592 -0.3172
 1027SOL     OW 4180   1.158   2.297   1.884 -0.4874 -0.1249 -0.1083
 1027SOL    HW2 4181   1.212   2.364   1.925  0.1154 -0.3848 -0.4686
 1027SOL    HW3 4182   1.149   2.326   1.793 -1.1438  0.0345  0.0048
 1027SOL    MW4 4183   1.164   2.309   1.877 -0.4945 -0.1383 -0.1409
 1028SOL     OW 4184   0.906   2.416   1.907  0.6992 -0.4262 -0.1276
 1028SOL    HW2 4185   0.986   2.365   1.896  0.9747  0.0793 -0.5039
 1028SOL    HW3 4186   0.836   2.361   1.873  0.9977 -0.5363 -0.5616
 1028SOL    MW4 4187   0.908   2.402   1.901  0.7749 -0.3738 -0.2344
 1029SOL     OW 4188   0.920   2.696   1.850 -0.0788  0.4327  0.3172
 1029SOL    HW2 4189   0.943   2.611   1.887 -0.7035 -0.0020 -0.2978
 1029SOL    HW3 4190   0.853   2.730   1.909  0.0673  0.4455  0.4803
 1029SOL    MW4 4191   0.914   2.689   1.863 -0.1419  0.3769  0.2575
 1030SOL     OW 4192   1.144   2.827   1.971  0.4538  0.1213 -0.4465
 1030SOL    HW2 4193   1.142   2.807   2.064 -0.8989  1.9451 -0.0754
 1030SOL    HW3 4194   1.069   2.780   1.935 -0.4436  1.3536 -0.2081
 1030SOL    MW4 4195   1.134   2.818   1.978  0.1566  0.5245 -0.3662
 1031SOL     OW 4196   1.149   3.081   1.877 -0.7650  0.0909 -0.0992
 1031SOL    HW2 4197   1.061   3.113   1.896 -0.7791 -0.0778  0.1270
 1031SOL    HW3 4198   1.152   2.995   1.919 -0.3910  0.2259  0.1513
 1031SOL    MW4 4199   1.138   3.074   1.885 -0.7174  0.0865 -0.0364
 1032SOL     OW 4200   0.889   3.202   1.943  0.0636 -0.0704 -0.3805
 1032SOL    HW2 4201   0.902   3.187   2.037  1.3846 -0.5177 -0.6324
 1032SOL    HW3 4202   0.804   3.161   1.924  1.1481 -2.5974  0.0298
 1032SOL    MW4 4203   0.880   3.195   1.953  0.3809 -0.4628 -0.3597
 1033SOL     OW 4204   0.890   3.490   1.860  0.0831 -0.2258  0.0835
 1033SOL    HW2 4205   0.895   3.398   1.887 -0.5493 -0.1992  0.3077
 1033SOL    HW3 4206   0.876   3.486   1.765  1.7625 -0.3274 -0.1763
 1033SOL    MW4 4207   0.889   3.477   1.851  0.2212 -0.2358  0.0790
 1034SOL     OW 4208   1.145   3.596   1.978  0.1934 -0.4786  0.1620
 1034SOL    HW2 4209   1.130   3.584   2.072  0.3450  0.6001  0.3250
 1034SOL    HW3 4210   1.061   3.574   1.938 -0.4301  0.8377  0.7057
 1034SOL    MW4 4211   1.132   3.592   1.985  0.1312 -0.1626  0.2553
 1035SOL     OW 4212   1.102   3.856   1.887  0.6218 -0.1985 -0.0397
 1035SOL    HW2 4213   1.140   3.770   1.906 -0.4592 -0.8925 -0.9267
 1035SOL    HW3 4214   1.105   3.862   1.791 -0.3161  0.2805 -0.0444
 1035SOL    MW4 4215   1.108   3.845   1.877  0.3555 -0.2270 -0.1575
 1036SOL     OW 4216   0.898   4.005   1.977  0.0377 -0.2058 -0.0318
 1036SOL    HW2 4217   0.889   3.975   2.068 -0.8596 -2.0133 -0.7000
 1036SOL    HW3 4218   0.960   3.944   1.938  1.5987  1.4858 -0.2454
 1036SOL    MW4 4219   0.905   3.993   1.984  0.1253 -0.2213 -0.1482
 1037SOL     OW 4220   0.872   4.265   1.891 -0.1057  0.2797 -0.7573
 1037SOL    HW2 4221   0.944   4.326   1.910  0.1532  0.0796 -1.0932
 1037SOL    HW3 4222   0.885   4.192   1.951 -0.1028  0.3017 -0.7302
 1037SOL    MW4 4223   0.883   4.264   1.901 -0.0711  0.2561 -0.7979
 1038SOL     OW 4224   1.121   4.367   1.961 -0.5726  0.3281  0.0841
 1038SOL    HW2 4225   1.126   4.392   2.053  0.4220  1.5279 -0.2933
 1038SOL    HW3 4226   1.195   4.308   1.947 -1.9147 -1.5548  0.5368
 1038SOL    MW4 4227   1.131   4.362   1.971 -0.6185  0.2379  0.0942
 1039SOL     OW 4228   1.565   4.632   1.835  0.1496  0.0400 -0.1093
 1039SOL    HW2 4229   1.644   4.677   1.865 -1.3988  1.4723  1.9573
 1039SOL    HW3 4230   1.561   4.553   1.888  0.4957 -0.3530 -0.6550
 1039SOL    MW4 4231   1.575   4.627   1.846 -0.0091  0.1774  0.0913
 1040SOL     OW 4232   1.326   0.106   1.908  0.3368  0.4779  0.3158
 1040SOL    HW2 4233   1.316   0.097   2.003 -2.0262 -1.4587 -0.0613
 1040SOL    HW3 4234   1.399   0.048   1.886 -1.1733 -1.5819  0.5892
 1040SOL    MW4 4235   1.334   0.097   1.918 -0.1743 -0.0494  0.3021
 1041SOL     OW 4236   1.349   0.366   1.872 -0.0987  0.0805 -0.0995
 1041SOL    HW2 4237   1.351   0.272   1.886  3.1164  0.2462  0.9074
 1041SOL    HW3 4238   1.339   0.376   1.778  0.6233 -1.2623 -0.3236
 1041SOL    MW4 4239   1.348   0.355   1.862  0.4207 -0.0748  0.0038
 1042SOL     OW 4240   1.585   0.465   1.978 -0.4554 -0.3034  0.4344
 1042SOL    HW2 4241   1.662   0.420   1.943 -1.0256 -1.2901  0.4485
 1042SOL    HW3 4242   1.511   0.422   1.936 -0.9650  1.4298 -0.4796
 1042SOL    MW4 4243   1.586   0.454   1.968 -0.5978 -0.2050  0.3157
 1043SOL     OW 4244   1.563   0.728   1.871 -0.4392 -0.3364 -0.0258
 1043SOL    HW2 4245   1.642   0.780   1.891 -0.3182 -0.5843  0.1458
 1043SOL    HW3 4246   1.567   0.655   1.932 -0.1212 -1.0490 -0.8768
 1043SOL    MW4 4247   1.574   0.725   1.881 -0.3812 -0.4631 -0.1155
 1044SOL     OW 4248   1.362   0.914   1.934  0.6500  0.6114  0.3734
 1044SOL    HW2 4249   1.359   0.919   2.029  1.1232  2.2509  0.3039
 1044SOL    HW3 4250   1.435   0.855   1.915 -0.9244 -1.6373  1.0487
 1044SOL    MW4 4251   1.371   0.907   1.944  0.5047  0.5310  0.4532
 1045SOL     OW 4252   1.388   1.169   1.833  0.0276 -0.4262  0.2354
 1045SOL    HW2 4253   1.382   1.075   1.853  0.0108 -0.1188  1.7796
 1045SOL    HW3 4254   1.317   1.209   1.883  0.2135  0.4418 -0.1828
 1045SOL    MW4 4255   1.378   1.162   1.842  0.0499 -0.2711  0.3840
 1046SOL     OW 4256   1.615   1.307   1.952  0.1321  0.0962 -0.0720
 1046SOL    HW2 4257   1.607   1.378   1.888 -0.2624 -0.2037 -0.3603
 1046SOL    HW3 4258   1.532   1.259   1.944  0.1259 -0.0049  0.5874
 1046SOL    MW4 4259   1.603   1.310   1.943  0.0790  0.0433 -0.0231
 1047SOL     OW 4260   1.593   1.549   1.823 -0.0579  0.3794  0.5513
 1047SOL    HW2 4261   1.678   1.569   1.863 -0.8807 -1.3388  3.2811
 1047SOL    HW3 4262   1.529   1.594   1.878 -1.1439 -1.0549  0.4924
 1047SOL    MW4 4263   1.596   1.558   1.836 -0.3097 -0.0364  0.9037
 1048SOL     OW 4264   1.396   1.702   1.936 -0.0733  0.1531  0.4064
 1048SOL    HW2 4265   1.386   1.708   2.031  1.9319  1.9772  0.5454
 1048SOL    HW3 4266   1.321   1.649   1.908 -0.0997 -1.3531  3.0895
 1048SOL    MW4 4267   1.385   1.696   1.945  0.1876  0.1950  0.7788
 1049SOL     OW 4268   1.369   1.952   1.847 -0.3268 -0.5542  0.2864
 1049SOL    HW2 4269   1.399   1.863   1.866 -0.1617 -0.9357 -1.6631
 1049SOL    HW3 4270   1.287   1.960   1.896  0.4470 -1.2112  1.7446
 1049SOL    MW4 4271   1.362   1.941   1.856 -0.2029 -0.6912  0.2216
 1050SOL     OW 4272   1.608   2.056   1.954 -0.0786  0.1012  0.0527
 1050SOL    HW2 4273   1.602   2.143   1.913 -0.8305  0.1273  0.2149
 1050SOL    HW3 4274   1.522   2.016   1.938 -0.3382  0.0696  1.5160
 1050SOL    MW4 4275   1.596   2.062   1.946 -0.2120  0.1006  0.2671
 1051SOL     OW 4276   1.568   2.306   1.856 -0.6932  0.2091 -0.0313
 1051SOL    HW2 4277   1.635   2.364   1.891 -0.9140  0.8910 -0.7271
 1051SOL    HW3 4278   1.585   2.304   1.762 -1.3277 -0.0331 -0.1419
 1051SOL    MW4 4279   1.579   2.313   1.848 -0.8062  0.2670 -0.1376
 1052SOL     OW 4280   1.350   2.470   1.990 -0.7263  0.1575 -0.0196
 1052SOL    HW2 4281   1.385   2.557   1.973  0.4433 -0.4153 -0.6002
 1052SOL    HW3 4282   1.407   2.411   1.941 -1.6872 -0.9152  0.1254
 1052SOL    MW4 4283   1.362   2.473   1.981 -0.6988 -0.0594 -0.0771
 1053SOL     OW 4284   1.395   2.716   1.888  0.0897 -0.1902 -0.4046
 1053SOL    HW2 4285   1.309   2.747   1.915  0.4248  2.0884 -1.7818
 1053SOL    HW3 4286   1.391   2.712   1.793  0.6821 -2.6654 -0.3623
 1053SOL    MW4 4287   1.383   2.720   1.879  0.2121 -0.2162 -0.5807
 1054SOL     OW 4288   1.613   2.879   1.952 -0.5638  0.3493  0.4620
 1054SOL    HW2 4289   1.672   2.835   1.891 -0.9903  1.1446 -0.5415
 1054SOL    HW3 4290   1.530   2.831   1.943 -0.0157 -0.9766  2.1125
 1054SOL    MW4 4291   1.610   2.867   1.943 -0.5479  0.2794  0.5474
 1055SOL     OW 4292   1.602   3.141   1.861 -0.3169 -0.1909  0.4256
 1055SOL    HW2 4293   1.610   3.050   1.890  1.7280 -0.3967 -0.7544
 1055SOL    HW3 4294   1.617   3.138   1.767  1.0590  1.5398  0.5696
 1055SOL    MW4 4295   1.605   3.129   1.852  0.1345  0.0105  0.2887
 1056SOL     OW 4296   1.371   3.232   1.967  0.1067  0.0606 -0.3735
 1056SOL    HW2 4297   1.443   3.183   1.926 -0.0457  0.3669 -1.0212
 1056SOL    HW3 4298   1.292   3.192   1.931 -0.0571 -0.4168  0.5023
 1056SOL    MW4 4299   1.370   3.220   1.957  0.0650  0.0381 -0.3434
 1057SOL     OW 4300   1.339   3.479   1.826 -0.1696  0.0935  0.2800
 1057SOL    HW2 4301   1.353   3.394   1.868 -1.3395 -0.3929 -0.2942
 1057SOL    HW3 4302   1.276   3.524   1.883 -1.4712 -0.4202 -0.7324
 1057SOL    MW4 4303   1.332   3.474   1.839 -0.4958 -0.0384  0.0708
 1058SOL     OW 4304   1.554   3.598   1.950 -0.1261  0.0235  0.1238
 1058SOL    HW2 4305   1.540   3.605   2.044 -0.0887 -1.9832  0.3063
 1058SOL    HW3 4306   1.469   3.572   1.915 -0.2025  0.9947 -0.4417
 1058SOL    MW4 4307   1.541   3.596   1.958 -0.1311 -0.1132  0.0733
 1059SOL     OW 4308   1.547   3.877   1.874  0.7224 -0.1272 -0.6424
 1059SOL    HW2 4309   1.623   3.926   1.906 -0.6746  1.3862  0.4508
 1059SOL    HW3 4310   1.561   3.788   1.907  0.8014  0.7152  1.7140
 1059SOL    MW4 4311   1.559   3.872   1.883  0.5486  0.1838 -0.1872
 1060SOL     OW 4312   1.324   3.991   1.992 -0.0710  0.0227  0.4967
 1060SOL    HW2 4313   1.398   3.940   1.958 -0.2230  1.0088 -1.3687
 1060SOL    HW3 4314   1.247   3.951   1.951 -0.3353  0.7461  0.2912
 1060SOL    MW4 4315   1.323   3.979   1.982 -0.1259  0.2484  0.2235
 1061SOL     OW 4316   1.349   4.230   1.875  0.0650  0.2292  0.0651
 1061SOL    HW2 4317   1.338   4.142   1.912 -0.5926  0.6733  0.9373
 1061SOL    HW3 4318   1.328   4.219   1.782  0.1903 -0.5790  0.1260
 1061SOL    MW4 4319   1.345   4.217   1.868 -0.0054  0.1812  0.1882
 1062SOL     OW 4320   1.561   4.377   1.942 -0.3503  0.0618  0.3375
 1062SOL    HW2 4321   1.571   4.372   2.037 -3.7629  0.8186  0.8010
 1062SOL    HW3 4322   1.484   4.324   1.923 -1.2421  1.9950 -1.6736
 1062SOL    MW4 4323   1.552   4.369   1.952 -0.9184  0.4168  0.1333
 1063SOL     OW 4324   2.009   4.631   1.819  0.0830  0.3918  0.3245
 1063SOL    HW2 4325   2.081   4.683   1.854  2.1980 -1.3575 -1.2370
 1063SOL    HW3 4326   2.010   4.551   1.871 -0.1275 -0.0300 -0.3175
 1063SOL    MW4 4327   2.019   4.627   1.830  0.3345  0.1049  0.0339
 1064SOL     OW 4328   1.779   0.110   1.946  0.4616  0.7185 -0.6733
 1064SOL    HW2 4329   1.799   0.103   2.040 -0.1223  0.6571 -0.5484
 1064SOL    HW3 4330   1.850   0.064   1.902  0.0836 -0.3276 -0.1959
 1064SOL    MW4 4331   1.791   0.103   1.953  0.3346  0.5724 -0.5940
 1065SOL     OW 4332   1.823   0.381   1.876  0.2342 -0.1099 -0.0979
 1065SOL    HW2 4333   1.816   0.292   1.911  1.1959 -0.4792 -0.8198
 1065SOL    HW3 4334   1.817   0.370   1.781  0.6560  0.5620 -0.2050
 1065SOL    MW4 4335   1.821   0.367   1.868  0.4168 -0.0699 -0.2073
 1066SOL     OW 4336   2.040   0.528   1.978 -0.3373 -0.2036  0.1076
 1066SOL    HW2 4337   1.960   0.486   1.945 -0.0986  0.6817 -1.6533
 1066SOL    HW3 4338   2.111   0.474   1.943 -0.1360 -0.3375  0.7258
 1066SOL    MW4 4339   2.039   0.515   1.969 -0.2794 -0.1044 -0.0432
 1067SOL     OW 4340   2.034   0.773   1.872 -0.1969  0.1314 -0.3586
 1067SOL    HW2 4341   2.114   0.819   1.899  0.2448 -0.6655 -0.2965
 1067SOL    HW3 4342   2.041   0.687   1.914 -0.0277 -0.7359 -2.1344
 1067SOL    MW4 4343   2.046   0.768   1.881 -0.1161 -0.0882 -0.5847
 1068SOL     OW 4344   1.792   0.854   1.951 -0.5669 -0.6150  0.0527
 1068SOL    HW2 4345   1.786   0.942   1.913 -0.4053  0.3675  2.2722
 1068SOL    HW3 4346   1.874   0.819   1.915  1.0582  1.3948  1.6777
 1068SOL    MW4 4347   1.802   0.861   1.941 -0.3312 -0.2202  0.5602
 1069SOL     OW 4348   1.818   1.139   1.862  0.3358  0.2632 -0.1361
 1069SOL    HW2 4349   1.750   1.192   1.902 -0.6303 -1.3529  0.4019
 1069SOL    HW3 4350   1.802   1.148   1.768 -1.4189 -1.0908  0.0051
 1069SOL    MW4 4351   1.807   1.147   1.855 -0.0232 -0.1287 -0.0465
 1070SOL     OW 4352   2.016   1.326   1.963  0.0973  0.6351 -0.1673
 1070SOL    HW2 4353   2.095   1.276   1.941  1.4065  2.1408  1.0531
 1070SOL    HW3 4354   1.946   1.281   1.915  1.5303 -1.2569 -0.5595
 1070SOL    MW4 4355   2.017   1.314   1.954  0.4590  0.5841 -0.0581
 1071SOL     OW 4356   2.023   1.567   1.844 -0.0922  0.1421 -0.0908
 1071SOL    HW2 4357   2.020   1.490   1.900 -1.7476  0.7600  0.6994
 1071SOL    HW3 4358   2.066   1.536   1.764 -0.0368 -1.3962  0.5117
 1071SOL    MW4 4359   2.028   1.552   1.841 -0.3033  0.0207  0.0930
 1072SOL     OW 4360   1.793   1.667   1.966  0.6090  0.2211  0.0876
 1072SOL    HW2 4361   1.800   1.760   1.943  0.0479  0.0484 -0.8407
 1072SOL    HW3 4362   1.878   1.630   1.942 -0.1094 -0.0431 -2.2503
 1072SOL    MW4 4363   1.805   1.674   1.960  0.4404  0.1636 -0.3432
 1073SOL     OW 4364   1.839   1.930   1.885 -0.1570 -0.4091  0.4047
 1073SOL    HW2 4365   1.764   1.986   1.906  0.3104  0.3285  0.1162
 1073SOL    HW3 4366   1.826   1.907   1.793 -1.7671 -2.9734  1.1906
 1073SOL    MW4 4367   1.827   1.934   1.876 -0.3078 -0.6502  0.4704
 1074SOL     OW 4368   2.044   2.115   1.979 -0.1518 -0.3327 -0.1617
 1074SOL    HW2 4369   2.119   2.064   1.946  0.1788 -0.1657  0.3306
 1074SOL    HW3 4370   1.967   2.066   1.949  0.1563 -1.8405  1.4087
 1074SOL    MW4 4371   2.044   2.101   1.970 -0.0675 -0.5095  0.1105
 1075SOL     OW 4372   2.051   2.342   1.832  0.6714  0.0475 -0.1484
 1075SOL    HW2 4373   2.141   2.369   1.845  0.6489 -0.0173  0.1528
 1075SOL    HW3 4374   2.041   2.263   1.886  0.3443  0.2440  0.0802
 1075SOL    MW4 4375   2.061   2.335   1.841  0.6249  0.0651 -0.0786
 1076SOL     OW 4376   1.801   2.441   1.924  0.0958 -0.1004  0.2639
 1076SOL    HW2 4377   1.813   2.444   2.019 -0.2360 -2.2047  0.4053
 1076SOL    HW3 4378   1.884   2.407   1.891  0.2812  0.8137 -0.2264
 1076SOL    MW4 4379   1.814   2.437   1.932  0.0765 -0.2575  0.2179
 1077SOL     OW 4380   1.807   2.708   1.823 -0.0651 -0.3116  0.3855
 1077SOL    HW2 4381   1.803   2.617   1.854  2.9747 -0.5443  0.2158
 1077SOL    HW3 4382   1.807   2.700   1.727  0.2737 -0.1264  0.3709
 1077SOL    MW4 4383   1.806   2.695   1.814  0.3805 -0.3181  0.3611
 1078SOL     OW 4384   2.026   2.872   1.907 -0.1207  0.0569  0.5297
 1078SOL    HW2 4385   2.030   2.864   2.003 -2.2068  0.3093  0.6514
 1078SOL    HW3 4386   1.946   2.827   1.882  0.0790  0.5383 -1.0518
 1078SOL    MW4 4387   2.016   2.865   1.917 -0.3698  0.1538  0.3370
 1079SOL     OW 4388   2.019   3.150   1.844  0.2862  0.1175 -0.5209
 1079SOL    HW2 4389   1.956   3.178   1.911  0.5654  0.2065 -0.2987
 1079SOL    HW3 4390   2.034   3.057   1.863 -1.0909 -0.3501 -1.6135
 1079SOL    MW4 4391   2.012   3.141   1.855  0.1414  0.0677 -0.6357
 1080SOL     OW 4392   1.806   3.232   1.998 -0.4574  0.1148  0.5347
 1080SOL    HW2 4393   1.785   3.221   2.091 -2.8486  3.1888  0.4393
 1080SOL    HW3 4394   1.732   3.191   1.952  1.5277 -2.9056 -0.1230
 1080SOL    MW4 4395   1.793   3.225   2.005 -0.5109  0.1221  0.4354
 1081SOL     OW 4396   1.774   3.468   1.841 -0.0070 -0.1995 -0.1073
 1081SOL    HW2 4397   1.784   3.389   1.894 -0.1384 -0.3575 -0.3162
 1081SOL    HW3 4398   1.692   3.507   1.872 -0.9200 -1.1388 -1.2807
 1081SOL    MW4 4399   1.764   3.462   1.852 -0.1448 -0.3443 -0.2896
 1082SOL     OW 4400   2.006   3.603   1.944 -0.2691 -0.2457  0.4381
 1082SOL    HW2 4401   1.993   3.692   1.911  1.3848 -0.8746 -2.0557
 1082SOL    HW3 4402   1.925   3.557   1.923 -0.4711  0.2187  0.1944
 1082SOL    MW4 4403   1.993   3.609   1.937 -0.0777 -0.2673  0.0770
 1083SOL     OW 4404   1.977   3.872   1.863  0.5474 -0.0265  0.1406
 1083SOL    HW2 4405   2.044   3.924   1.907 -0.6914  0.9706  0.8909
 1083SOL    HW3 4406   2.005   3.868   1.771  1.0523  1.3265  0.2333
 1083SOL    MW4 4407   1.989   3.878   1.857  0.4506  0.2835  0.2518
 1084SOL     OW 4408   1.784   4.025   1.981  0.5993 -0.1103  0.3358
 1084SOL    HW2 4409   1.776   4.101   1.923  1.7527 -0.5884 -0.4722
 1084SOL    HW3 4410   1.844   3.966   1.935 -0.4995 -1.6392  0.8158
 1084SOL    MW4 4411   1.791   4.027   1.967  0.6065 -0.3753  0.2923
 1085SOL     OW 4412   1.779   4.249   1.809 -0.2479  0.5770 -0.4439
 1085SOL    HW2 4413   1.694   4.283   1.835 -0.8172 -1.0811 -0.0466
 1085SOL    HW3 4414   1.774   4.241   1.713 -0.2535  1.2216 -0.4955
 1085SOL    MW4 4415   1.767   4.252   1.800 -0.3238  0.4430 -0.3983
 1086SOL     OW 4416   1.963   4.393   1.953 -0.0946 -0.1056  0.3132
 1086SOL    HW2 4417   2.046   4.346   1.939  0.0404  0.1918  0.1206
 1086SOL    HW3 4418   1.904   4.355   1.888 -0.1791 -0.4811  0.6024
 1086SOL    MW4 4419   1.966   4.382   1.943 -0.0877 -0.1159  0.3259
 1087SOL     OW 4420   2.434   4.647   1.864  0.0216  0.1133  0.1276
 1087SOL    HW2 4421   2.513   4.679   1.909  1.2991  0.3732 -2.2188
 1087SOL    HW3 4422   2.432   4.553   1.883  0.1938  0.3249  1.2213
 1087SOL    MW4 4423   2.444   4.639   1.873  0.2129  0.1755 -0.0378
 1088SOL     OW 4424   2.214   0.125   1.909 -0.5462  0.1986  0.0619
 1088SOL    HW2 4425   2.224   0.141   2.003  2.7824  1.2068 -0.3882
 1088SOL    HW3 4426   2.289   0.069   1.887 -1.5046 -0.3353 -1.9454
 1088SOL    MW4 4427   2.225   0.120   1.918 -0.2337  0.2612 -0.2623
 1089SOL     OW 4428   2.237   0.400   1.840 -0.4675 -0.2591 -0.5306
 1089SOL    HW2 4429   2.231   0.311   1.874 -1.4621  0.7821  2.1522
 1089SOL    HW3 4430   2.314   0.437   1.884 -2.6715  1.5987  1.8526
 1089SOL    MW4 4431   2.247   0.393   1.850 -0.8895  0.1234  0.1377
 1090SOL     OW 4432   2.449   0.514   1.981 -0.1039 -0.3537 -0.2891
 1090SOL    HW2 4433   2.522   0.460   1.951  0.5152  0.0613  0.4681
 1090SOL    HW3 4434   2.456   0.515   2.076 -0.9104 -0.0523 -0.2260
 1090SOL    MW4 4435   2.460   0.507   1.989 -0.1287 -0.2592 -0.1808
 1091SOL     OW 4436   2.479   0.800   1.902 -0.4209  0.1945  0.3699
 1091SOL    HW2 4437   2.468   0.712   1.938 -0.2793 -0.8657 -2.0690
 1091SOL    HW3 4438   2.456   0.791   1.809  1.6165  2.2753 -0.3880
 1091SOL    MW4 4439   2.474   0.787   1.894 -0.1335  0.3291 -0.0519
 1092SOL     OW 4440   2.250   0.922   1.963  0.3223 -0.5237 -0.1724
 1092SOL    HW2 4441   2.253   0.932   2.058 -1.5168  1.8921 -0.3232
 1092SOL    HW3 4442   2.334   0.881   1.940  1.9533  1.3632  2.1898
 1092SOL    MW4 4443   2.261   0.918   1.973  0.2949  0.0439  0.1193
 1093SOL     OW 4444   2.226   1.184   1.877 -0.4594  0.8830 -0.0203
 1093SOL    HW2 4445   2.310   1.224   1.897 -0.5734  1.2623 -0.2996
 1093SOL    HW3 4446   2.234   1.094   1.909  0.0434  0.9238 -0.0304
 1093SOL    MW4 4447   2.238   1.177   1.884 -0.4079  0.9385 -0.0584
 1094SOL     OW 4448   2.475   1.274   1.929 -0.4523  0.0893  0.3815
 1094SOL    HW2 4449   2.506   1.259   2.018 -1.6169  0.1679  0.8047
 1094SOL    HW3 4450   2.489   1.367   1.914  1.8270 -0.3361 -0.3377
 1094SOL    MW4 4451   2.481   1.284   1.938 -0.3054  0.0436  0.3425
 1095SOL     OW 4452   2.461   1.557   1.847  0.2111  0.3491 -0.0574
 1095SOL    HW2 4453   2.537   1.601   1.883 -0.2693  0.9392  0.2390
 1095SOL    HW3 4454   2.388   1.616   1.864 -0.4233 -0.5193  0.2789
 1095SOL    MW4 4455   2.461   1.570   1.854  0.0639  0.3123  0.0261
 1096SOL     OW 4456   2.238   1.704   1.921 -0.0417 -0.0652 -0.1454
 1096SOL    HW2 4457   2.153   1.663   1.905 -0.6167  1.1396 -0.1757
 1096SOL    HW3 4458   2.245   1.709   2.016  0.0651 -0.2841 -0.1397
 1096SOL    MW4 4459   2.228   1.699   1.931 -0.1037  0.0647 -0.1487
 1097SOL     OW 4460   2.249   1.975   1.864 -0.2974  0.1280  0.0705
 1097SOL    HW2 4461   2.335   1.991   1.903 -0.9934 -0.1959  1.7956
 1097SOL    HW3 4462   2.236   1.881   1.873 -0.7816  0.1609 -0.2730
 1097SOL    MW4 4463   2.259   1.965   1.871 -0.4532  0.0896  0.2528
 1098SOL     OW 4464   2.506   2.044   1.977  0.0736 -0.4886  0.1465
 1098SOL    HW2 4465   2.575   1.996   1.931  1.0353  0.1074  0.9603
 1098SOL    HW3 4466   2.518   2.135   1.950 -0.5661 -0.4142  0.0887
 1098SOL    MW4 4467   2.516   2.050   1.967  0.1161 -0.4001  0.2462
 1099SOL     OW 4468   2.521   2.299   1.862  0.0230 -0.7135 -0.0086
 1099SOL    HW2 4469   2.592   2.341   1.910 -0.4327 -0.4937  0.4833
 1099SOL    HW3 4470   2.447   2.358   1.873 -0.1253 -0.7461 -0.8558
 1099SOL    MW4 4471   2.521   2.312   1.870 -0.0567 -0.6888 -0.0553
 1100SOL     OW 4472   2.300   2.461   1.908  0.0095  0.0916  0.1423
 1100SOL    HW2 4473   2.286   2.454   2.002 -0.1975 -3.3933 -0.0701
 1100SOL    HW3 4474   2.268   2.548   1.885 -2.6075 -0.0923  2.8151
 1100SOL    MW4 4475   2.294   2.471   1.917 -0.3631 -0.3924  0.4668
 1101SOL     OW 4476   2.250   2.709   1.821  0.3652 -0.0431 -0.2596
 1101SOL    HW2 4477   2.179   2.773   1.829 -0.6529 -1.1999  0.0596
 1101SOL    HW3 4478   2.282   2.720   1.731  0.8661  1.5927  0.0991
 1101SOL    MW4 4479   2.245   2.719   1.810  0.2968  0.0203 -0.1701
 1102SOL     OW 4480   2.472   2.792   1.947  0.3931  0.0200 -0.1121
 1102SOL    HW2 4481   2.478   2.886   1.931  0.1460  0.3726  1.7326
 1102SOL    HW3 4482   2.390   2.765   1.904 -1.1686  1.2596  1.9758
 1102SOL    MW4 4483   2.462   2.801   1.939  0.1545  0.2301  0.4067
 1103SOL     OW 4484   2.471   3.062   1.877 -0.0838 -0.0635  0.3322
 1103SOL    HW2 4485   2.397   3.115   1.905 -0.3106  0.0253 -0.4116
 1103SOL    HW3 4486   2.472   3.070   1.781  1.6655  0.9572  0.4123
 1103SOL    MW4 4487   2.461   3.070   1.868  0.1171  0.0827  0.2446
 1104SOL     OW 4488   2.273   3.236   1.956 -0.0888 -0.1939 -0.1725
 1104SOL    HW2 4489   2.260   3.241   2.051 -2.2620  0.3170 -0.4543
 1104SOL    HW3 4490   2.189   3.206   1.922 -0.0869  1.8305 -2.1203
 1104SOL    MW4 4491   2.260   3.233   1.964 -0.3753  0.1404 -0.4667
 1105SOL     OW 4492   2.240   3.510   1.853 -0.2802 -0.1369 -0.6444
 1105SOL    HW2 4493   2.243   3.421   1.888  1.4357 -0.6639 -2.0978
 1105SOL    HW3 4494   2.156   3.545   1.885 -0.6665 -2.0291  0.4864
 1105SOL    MW4 4495   2.229   3.503   1.862 -0.1047 -0.4561 -0.6869
 1106SOL     OW 4496   2.468   3.618   1.969 -0.1503 -0.4890  0.0352
 1106SOL    HW2 4497   2.458   3.606   2.063 -0.6630 -2.3716 -0.2324
 1106SOL    HW3 4498   2.387   3.582   1.932  0.6421 -1.0370 -1.1973
 1106SOL    MW4 4499   2.456   3.612   1.976 -0.1135 -0.8097 -0.1627
 1107SOL     OW 4500   2.455   3.877   1.887 -0.0052  0.5438 -0.6678
 1107SOL    HW2 4501   2.372   3.918   1.909 -0.0832  1.4099 -2.5535
 1107SOL    HW3 4502   2.443   3.785   1.911 -2.2410  0.2205 -2.8280
 1107SOL    MW4 4503   2.443   3.870   1.893 -0.3107  0.6151 -1.2016
 1108SOL     OW 4504   2.201   3.993   1.971 -0.6124 -0.0536  0.1020
 1108SOL    HW2 4505   2.209   3.993   2.066 -0.9603  0.5326  0.1321
 1108SOL    HW3 4506   2.205   4.085   1.946  0.7024 -0.2786 -0.5628
 1108SOL    MW4 4507   2.202   4.005   1.980 -0.4849 -0.0062  0.0184
 1109SOL     OW 4508   2.199   4.257   1.896  0.1561 -0.1257  0.3849
 1109SOL    HW2 4509   2.283   4.297   1.918  0.1530  0.1891 -0.1643
 1109SOL    HW3 4510   2.200   4.252   1.800 -1.2669  1.6839  0.2502
 1109SOL    MW4 4511   2.211   4.262   1.886 -0.0322  0.1550  0.2946
 1110SOL     OW 4512   2.462   4.373   1.970  0.5113  0.1785  0.2828
 1110SOL    HW2 4513   2.464   4.360   2.065  2.2895 -0.1074  0.2329
 1110SOL    HW3 4514   2.549   4.345   1.941  0.2255  0.9351 -1.3393
 1110SOL    MW4 4515   2.474   4.368   1.979  0.7081  0.2408  0.0621
 1111SOL     OW 4516   2.940   4.653   1.857  0.0152  0.2255 -0.0756
 1111SOL    HW2 4517   3.004   4.704   1.905  0.6666  0.9088 -1.6287
 1111SOL    HW3 4518   2.940   4.567   1.900  0.8046  0.7156  0.9106
 1111SOL    MW4 4519   2.948   4.648   1.869  0.2053  0.3805 -0.1503
 1112SOL     OW 4520   2.678   0.089   1.954 -0.1123  0.1217 -0.0202
 1112SOL    HW2 4521   2.693   0.079   2.048 -0.7820  0.5408  0.1332
 1112SOL    HW3 4522   2.744   0.033   1.913 -0.6633 -1.0723  0.7150
 1112SOL    MW4 4523   2.689   0.081   1.961 -0.2732  0.0194  0.0970
 1113SOL     OW 4524   2.650   0.365   1.872 -0.4923  0.1310  0.3920
 1113SOL    HW2 4525   2.738   0.391   1.901 -0.1652  0.6535 -1.0328
 1113SOL    HW3 4526   2.650   0.270   1.877  0.1953  0.1253  0.3054
 1113SOL    MW4 4527   2.662   0.356   1.876 -0.3586  0.1992  0.1926
 1114SOL     OW 4528   2.896   0.489   1.949  0.1029 -0.1005  0.0220
 1114SOL    HW2 4529   2.986   0.460   1.934 -0.2697 -0.7457 -0.9690
 1114SOL    HW3 4530   2.899   0.584   1.934  1.2012  0.3412  2.7404
 1114SOL    MW4 4531   2.909   0.498   1.945  0.1988 -0.1273  0.2497
 1115SOL     OW 4532   2.905   0.748   1.875 -0.5266 -0.2468  0.0583
 1115SOL    HW2 4533   2.985   0.792   1.904 -0.3264 -1.1634  0.9305
 1115SOL    HW3 4534   2.834   0.806   1.903 -0.3596 -1.2709  2.7478
 1115SOL    MW4 4535   2.906   0.761   1.883 -0.4785 -0.5029  0.5281
 1116SOL     OW 4536   2.716   0.921   1.975  0.1103  0.5242  0.1006
 1116SOL    HW2 4537   2.732   0.995   1.917 -1.1945  0.8073  0.0987
 1116SOL    HW3 4538   2.632   0.885   1.946  0.2253 -0.3109  0.7786
 1116SOL    MW4 4539   2.707   0.926   1.963 -0.0467  0.4514  0.1898
 1117SOL     OW 4540   2.709   1.162   1.841  0.5327 -0.3275  0.0621
 1117SOL    HW2 4541   2.623   1.193   1.867  0.2339 -0.7280 -0.4448
 1117SOL    HW3 4542   2.702   1.147   1.747  1.0778 -0.6039  0.0632
 1117SOL    MW4 4543   2.697   1.164   1.832  0.5653 -0.4169 -0.0048
 1118SOL     OW 4544   2.927   1.286   1.980  0.7475  0.4520 -0.2246
 1118SOL    HW2 4545   2.917   1.379   1.960 -1.3443  0.2531 -0.2626
 1118SOL    HW3 4546   2.856   1.243   1.932 -0.0892 -0.8146  2.0498
 1118SOL    MW4 4547   2.916   1.293   1.971  0.3614  0.2587  0.0706
 1119SOL     OW 4548   2.912   1.537   1.880  0.4570  0.3876  0.1321
 1119SOL    HW2 4549   2.995   1.576   1.907  0.0615  1.1568  0.2416
 1119SOL    HW3 4550   2.914   1.538   1.784 -0.5084  2.7542  0.1119
 1119SOL    MW4 4551   2.923   1.542   1.871  0.2775  0.8013  0.1439
 1120SOL     OW 4552   2.690   1.688   1.945  0.0309  0.1153  0.3043
 1120SOL    HW2 4553   2.679   1.664   2.037  0.9049  0.6410  0.5507
 1120SOL    HW3 4554   2.770   1.643   1.918  0.5133  1.0538  0.1784
 1120SOL    MW4 4555   2.699   1.679   1.953  0.2100  0.3085  0.3202
 1121SOL     OW 4556   2.724   1.948   1.839 -0.0640 -0.7359  0.4674
 1121SOL    HW2 4557   2.800   1.978   1.890 -0.1413 -1.8585  1.2645
 1121SOL    HW3 4558   2.715   1.856   1.862 -2.0315 -0.4640  0.8345
 1121SOL    MW4 4559   2.733   1.940   1.849 -0.3335 -0.8482  0.6211
 1122SOL     OW 4560   2.946   2.079   1.978  0.2954 -0.3911 -0.4243
 1122SOL    HW2 4561   2.940   2.071   2.073 -0.9174 -2.3515 -0.6273
 1122SOL    HW3 4562   3.030   2.038   1.956  0.8769  0.6380 -0.1547
 1122SOL    MW4 4563   2.956   2.073   1.988  0.2122 -0.5138 -0.4156
 1123SOL     OW 4564   2.958   2.306   1.815  0.2446  0.2552 -0.7556
 1123SOL    HW2 4565   3.040   2.340   1.850 -0.6394  1.0359  0.5895
 1123SOL    HW3 4566   2.946   2.222   1.860 -0.3702  0.7755  0.0592
 1123SOL    MW4 4567   2.967   2.299   1.826  0.0465  0.4268 -0.4706
 1124SOL     OW 4568   2.738   2.427   1.988  0.2711 -0.2291 -0.1697
 1124SOL    HW2 4569   2.724   2.510   1.944  0.3822 -0.1208 -0.0006
 1124SOL    HW3 4570   2.819   2.393   1.949  0.8965  0.3202  0.6361
 1124SOL    MW4 4571   2.747   2.433   1.977  0.3684 -0.1421 -0.0410
 1125SOL     OW 4572   2.709   2.666   1.863 -0.5088 -0.8306 -0.0455
 1125SOL    HW2 4573   2.628   2.711   1.887 -0.5839 -0.4062 -1.0492
 1125SOL    HW3 4574   2.713   2.675   1.768  0.3086 -1.5513 -0.0801
 1125SOL    MW4 4575   2.698   2.673   1.854 -0.4108 -0.8698 -0.1824
 1126SOL     OW 4576   2.956   2.850   1.970 -0.1191 -0.1921 -0.4653
 1126SOL    HW2 4577   2.949   2.932   1.921 -0.3816  0.5246  0.7452
 1126SOL    HW3 4578   2.890   2.793   1.930  0.2729  0.0818 -1.5129
 1126SOL    MW4 4579   2.946   2.853   1.958 -0.1018 -0.0618 -0.4437
 1127SOL     OW 4580   2.921   3.099   1.822 -0.1602  0.0965  0.2945
 1127SOL    HW2 4581   2.996   3.142   1.863 -0.4645 -0.1120  1.0874
 1127SOL    HW3 4582   2.850   3.110   1.885 -1.2882  1.8457 -1.2290
 1127SOL    MW4 4583   2.921   3.106   1.836 -0.3490  0.2997  0.1980
 1128SOL     OW 4584   2.699   3.186   1.956  0.2232  0.0380 -0.2975
 1128SOL    HW2 4585   2.707   3.262   1.898  1.8294  0.3934  0.3576
 1128SOL    HW3 4586   2.628   3.135   1.918  0.0721  1.1518 -1.5765
 1128SOL    MW4 4587   2.691   3.189   1.943  0.4151  0.2317 -0.3799
 1129SOL     OW 4588   2.703   3.482   1.881 -0.3472  0.4605 -1.1733
 1129SOL    HW2 4589   2.782   3.528   1.907 -1.0546  1.0975 -0.1141
 1129SOL    HW3 4590   2.631   3.538   1.911 -1.2158 -1.4677  0.4770
 1129SOL    MW4 4591   2.704   3.495   1.889 -0.5550  0.2902 -0.8157
 1130SOL     OW 4592   2.921   3.639   1.994 -0.2766  0.0195  0.2605
 1130SOL    HW2 4593   2.920   3.622   2.088  0.6749 -1.1156  0.0924
 1130SOL    HW3 4594   3.005   3.602   1.965  0.1476  1.7664 -0.7830
 1130SOL    MW4 4595   2.932   3.632   2.003 -0.0954  0.1004  0.1004
 1131SOL     OW 4596   2.949   3.900   1.891  0.0590  0.2283  0.7251
 1131SOL    HW2 4597   2.938   3.814   1.931  0.2398 -0.5026 -0.7376
 1131SOL    HW3 4598   2.950   3.882   1.797 -0.7532  1.9382  0.3719
 1131SOL    MW4 4599   2.948   3.886   1.884 -0.0246  0.3576  0.4857
 1132SOL     OW 4600   2.716   4.011   1.975 -0.1388 -0.2699 -0.3357
 1132SOL    HW2 4601   2.792   3.976   1.929  1.2257  0.7246  1.0934
 1132SOL    HW3 4602   2.641   3.962   1.940  1.0992 -0.9390 -2.0921
 1132SOL    MW4 4603   2.716   4.000   1.964  0.2046 -0.2275 -0.3788
 1133SOL     OW 4604   2.707   4.278   1.877  0.1565 -0.5142  0.0326
 1133SOL    HW2 4605   2.715   4.192   1.918  2.1809 -0.3172  0.0616
 1133SOL    HW3 4606   2.675   4.259   1.788  0.8945 -1.3208 -0.0625
 1133SOL    MW4 4607   2.704   4.264   1.871  0.5209 -0.5946  0.0238
 1134SOL     OW 4608   2.930   4.398   1.975 -0.1783  0.1145 -0.4431
 1134SOL    HW2 4609   2.914   4.387   2.069 -0.8624 -0.3880 -0.6121
 1134SOL    HW3 4610   2.857   4.352   1.933  1.0310 -1.1068 -1.2436
 1134SOL    MW4 4611   2.918   4.391   1.982 -0.1090 -0.1125 -0.5710
 1135SOL     OW 4612   3.376   0.022   1.889  0.1859  0.1658  0.0235
 1135SOL    HW2 4613   3.375  -0.065   1.930  1.2236 -0.3045 -0.9208
 1135SOL    HW3 4614   3.372   0.004   1.795  0.0215  1.1661 -0.1686
 1135SOL    MW4 4615   3.375   0.008   1.882  0.3011  0.2358 -0.1265
 1136SOL     OW 4616   3.136   0.144   1.973  0.1363  0.2477 -0.3619
 1136SOL    HW2 4617   3.152   0.148   2.068  0.1729  2.4375 -0.4241
 1136SOL    HW3 4618   3.220   0.117   1.936  1.3170  3.1794 -0.0234
 1136SOL    MW4 4619   3.149   0.141   1.981  0.2968  0.9235 -0.3254
 1137SOL     OW 4620   3.135   0.388   1.864 -0.0969 -0.1583  0.4761
 1137SOL    HW2 4621   3.125   0.298   1.894 -0.2668 -0.3511 -0.1476
 1137SOL    HW3 4622   3.217   0.418   1.902 -0.0402 -0.5794  0.6803
 1137SOL    MW4 4623   3.144   0.380   1.873 -0.1118 -0.2393  0.4207
 1138SOL     OW 4624   3.360   0.483   1.983  0.0618 -0.0727 -0.1953
 1138SOL    HW2 4625   3.447   0.451   1.960  0.6756  0.6756  1.0438
 1138SOL    HW3 4626   3.363   0.493   2.078 -0.8542  1.5208 -0.3298
 1138SOL    MW4 4627   3.372   0.480   1.993  0.0217  0.2363 -0.0494
 1139SOL     OW 4628   3.375   0.740   1.882  0.2899 -0.3123  0.2845
 1139SOL    HW2 4629   3.293   0.782   1.909  1.0671  0.3031  1.7280
 1139SOL    HW3 4630   3.368   0.650   1.913 -0.2764 -0.5616 -0.5349
 1139SOL    MW4 4631   3.363   0.734   1.890  0.3178 -0.2641  0.3668
 1140SOL     OW 4632   3.139   0.881   1.926 -0.0952  0.2031  0.3778
 1140SOL    HW2 4633   3.137   0.894   2.021 -0.0221  0.3598  0.3574
 1140SOL    HW3 4634   3.118   0.967   1.890  2.5405  0.8246  0.2146
 1140SOL    MW4 4635   3.136   0.894   1.934  0.2620  0.3058  0.3536
 1141SOL     OW 4636   3.125   1.156   1.839  0.5970  0.0053 -0.4046
 1141SOL    HW2 4637   3.200   1.191   1.887  1.1087 -1.1355 -0.3470
 1141SOL    HW3 4638   3.050   1.201   1.875  1.3559  1.9799 -1.2372
 1141SOL    MW4 4639   3.125   1.166   1.850  0.7648  0.1153 -0.5068
 1142SOL     OW 4640   3.334   1.259   1.964  0.0168  0.0286 -0.0911
 1142SOL    HW2 4641   3.341   1.269   2.059 -1.2435 -1.0191  0.1220
 1142SOL    HW3 4642   3.349   1.347   1.930  1.0295  0.3117  1.0363
 1142SOL    MW4 4643   3.337   1.272   1.972 -0.0160 -0.0724  0.0857
 1143SOL     OW 4644   3.353   1.507   1.877 -0.2230  0.2155 -0.0970
 1143SOL    HW2 4645   3.426   1.549   1.922  0.4894  0.2343 -1.2545
 1143SOL    HW3 4646   3.276   1.557   1.903  0.1495  0.0928  1.2669
 1143SOL    MW4 4647   3.353   1.519   1.887 -0.0799  0.2018 -0.0699
 1144SOL     OW 4648   3.151   1.646   1.980 -0.3238  0.2870 -0.1129
 1144SOL    HW2 4649   3.141   1.647   2.075  0.5531 -0.2663 -0.0110
 1144SOL    HW3 4650   3.156   1.738   1.955  1.7486  0.3936  0.6291
 1144SOL    MW4 4651   3.150   1.658   1.989  0.0656  0.2279 -0.0015
 1145SOL     OW 4652   3.173   1.915   1.910  0.0828  0.0108  0.0707
 1145SOL    HW2 4653   3.247   1.967   1.941  0.9636 -1.4296  0.4468
 1145SOL    HW3 4654   3.176   1.924   1.815  1.7912 -1.3689 -0.0419
 1145SOL    MW4 4655   3.183   1.923   1.901  0.4244 -0.3614  0.1055
 1146SOL     OW 4656   3.387   2.074   2.001  0.2555  0.1666 -0.1807
 1146SOL    HW2 4657   3.463   2.023   1.975  0.0019 -0.2298 -0.1377
 1146SOL    HW3 4658   3.385   2.147   1.940  1.8559  1.3025  1.0665
 1146SOL    MW4 4659   3.396   2.077   1.990  0.4332  0.2642 -0.0105
 1147SOL     OW 4660   3.378   2.293   1.846  0.0915 -0.2426 -0.1863
 1147SOL    HW2 4661   3.295   2.332   1.875  0.8583  1.5061 -0.3364
 1147SOL    HW3 4662   3.382   2.313   1.752  0.9703  0.1946 -0.0546
 1147SOL    MW4 4663   3.367   2.301   1.837  0.3085  0.0455 -0.1887
 1148SOL     OW 4664   3.168   2.445   1.921  0.4982 -0.7503 -0.5506
 1148SOL    HW2 4665   3.158   2.455   2.015 -0.0815 -1.3154 -0.5508
 1148SOL    HW3 4666   3.156   2.533   1.886  0.7601 -0.5322 -0.0979
 1148SOL    MW4 4667   3.165   2.458   1.929  0.4563 -0.7958 -0.4909
 1149SOL     OW 4668   3.146   2.716   1.849 -0.1663 -0.3127  0.3824
 1149SOL    HW2 4669   3.076   2.762   1.895 -0.0714  0.2452 -0.0306
 1149SOL    HW3 4670   3.136   2.742   1.758  0.9077  0.1848  0.4029
 1149SOL    MW4 4671   3.135   2.726   1.843 -0.0119 -0.1736  0.3306
 1150SOL     OW 4672   3.395   2.833   1.914 -0.2151 -0.2623 -0.0386
 1150SOL    HW2 4673   3.410   2.828   2.008  1.0619 -1.3135 -0.2864
 1150SOL    HW3 4674   3.313   2.784   1.900 -0.5196  0.0796  0.5432
 1150SOL    MW4 4675   3.386   2.826   1.925 -0.0868 -0.3557  0.0052
 1151SOL     OW 4676   3.362   3.080   1.845 -0.1688 -0.1098  0.1002
 1151SOL    HW2 4677   3.437   3.117   1.892  0.4606 -0.7112 -0.4112
 1151SOL    HW3 4678   3.361   2.988   1.869 -0.4014 -0.2237 -0.3395
 1151SOL    MW4 4679   3.372   3.073   1.854 -0.1166 -0.2041 -0.0253
 1152SOL     OW 4680   3.163   3.217   1.955 -0.6502 -0.3645 -0.2001
 1152SOL    HW2 4681   3.177   3.214   2.050 -1.2988 -0.8182 -0.1141
 1152SOL    HW3 4682   3.240   3.174   1.919 -0.0721  0.4282  0.0898
 1152SOL    MW4 4683   3.175   3.211   1.963 -0.6595 -0.3197 -0.1506
 1153SOL     OW 4684   3.118   3.498   1.879  0.3766 -0.1483  0.6620
 1153SOL    HW2 4685   3.191   3.551   1.910  0.7864 -0.7144  0.6793
 1153SOL    HW3 4686   3.127   3.415   1.926 -1.6061  0.5763  2.4244
 1153SOL    MW4 4687   3.129   3.494   1.890  0.1693 -0.1273  0.8968
 1154SOL     OW 4688   3.367   3.605   1.984  0.0209  0.7314  0.9542
 1154SOL    HW2 4689   3.371   3.598   2.079  1.6997  0.1112  0.8597
 1154SOL    HW3 4690   3.390   3.696   1.965  0.0041  0.7714  1.1286
 1154SOL    MW4 4691   3.371   3.616   1.994  0.2403  0.6549  0.9648
 1155SOL     OW 4692   3.405   3.886   1.887 -0.3379  0.1077 -0.3812
 1155SOL    HW2 4693   3.334   3.937   1.925 -0.8563 -0.2088 -0.9312
 1155SOL    HW3 4694   3.380   3.873   1.796 -0.0178 -0.7921 -0.3449
 1155SOL    MW4 4695   3.392   3.891   1.880 -0.3641 -0.0525 -0.4489
 1156SOL     OW 4696   3.185   4.025   1.975  0.3879 -0.1129  0.3216
 1156SOL    HW2 4697   3.174   4.028   2.070  0.5427 -0.8240  0.3650
 1156SOL    HW3 4698   3.101   3.993   1.942 -0.1044  1.3462  0.1178
 1156SOL    MW4 4699   3.172   4.021   1.983  0.3431 -0.0143  0.3005
 1157SOL     OW 4700   3.164   4.287   1.870 -0.3605  0.0251  0.7505
 1157SOL    HW2 4701   3.171   4.197   1.900  0.8038 -0.1665 -0.0886
 1157SOL    HW3 4702   3.080   4.317   1.906  0.0224 -0.8384  2.4310
 1157SOL    MW4 4703   3.154   4.279   1.879 -0.1562 -0.1140  0.8614
 1158SOL     OW 4704   3.386   4.411   2.010  0.1226 -0.6978  0.4473
 1158SOL    HW2 4705   3.458   4.356   1.979 -0.2439 -0.0260 -1.7076
 1158SOL    HW3 4706   3.308   4.372   1.971 -0.4196 -0.0687  0.8871
 1158SOL    MW4 4707   3.385   4.398   2.001  0.0029 -0.5260  0.2215
 1159SOL     OW 4708   3.847   0.017   1.878 -0.1938  0.7045 -0.2828
 1159SOL    HW2 4709   3.841  -0.066   1.926 -0.3888  0.4433 -0.7512
 1159SOL    HW3 4710   3.777   0.071   1.915 -0.2388  0.5626 -0.1601
 1159SOL    MW4 4711   3.837   0.013   1.889 -0.2253  0.6513 -0.3284
 1160SOL     OW 4712   3.624   0.149   1.962  0.4154  0.4091  0.2367
 1160SOL    HW2 4713   3.628   0.138   2.057 -1.2577  1.2644  0.4357
 1160SOL    HW3 4714   3.559   0.085   1.933  1.1828 -0.0952 -0.3755
 1160SOL    MW4 4715   3.616   0.139   1.971  0.2959  0.4554  0.1823
 1161SOL     OW 4716   3.591   0.403   1.868  0.0811  0.4799  0.1017
 1161SOL    HW2 4717   3.602   0.308   1.879  0.2501  0.5999  1.0055
 1161SOL    HW3 4718   3.610   0.419   1.776  0.5641 -0.2934  0.0654
 1161SOL    MW4 4719   3.595   0.393   1.857  0.1671  0.3938  0.2161
 1162SOL     OW 4720   3.828   0.510   1.968  0.3779 -0.2530  0.2569
 1162SOL    HW2 4721   3.830   0.592   1.919  1.5554  0.9164  2.2070
 1162SOL    HW3 4722   3.745   0.469   1.943  1.1930  0.0107 -3.1201
 1162SOL    MW4 4723   3.817   0.515   1.958  0.6409 -0.0640  0.0685
 1163SOL     OW 4724   3.841   0.729   1.803 -0.2670  0.4602  0.2388
 1163SOL    HW2 4725   3.778   0.787   1.847  0.1070  0.1242  1.2492
 1163SOL    HW3 4726   3.832   0.749   1.710 -0.3017  1.9826  0.5557
 1163SOL    MW4 4727   3.831   0.740   1.797 -0.2222  0.6167  0.4140
 1164SOL     OW 4728   3.632   0.879   1.958  0.2626 -0.0485 -0.0012
 1164SOL    HW2 4729   3.604   0.962   1.919 -1.8023 -0.2825  0.9018
 1164SOL    HW3 4730   3.556   0.821   1.947  0.3897 -0.7439  2.4295
 1164SOL    MW4 4731   3.618   0.882   1.952  0.0067 -0.1711  0.4386
 1165SOL     OW 4732   3.552   1.127   1.874 -0.3386  0.2803 -0.4026
 1165SOL    HW2 4733   3.469   1.160   1.909 -0.0615 -0.8610  1.4079
 1165SOL    HW3 4734   3.542   1.134   1.779 -2.2368  0.8128 -0.1989
 1165SOL    MW4 4735   3.540   1.132   1.866 -0.5527  0.1998 -0.1367
 1166SOL     OW 4736   3.782   1.255   1.951 -0.0333  0.0758  0.2979
 1166SOL    HW2 4737   3.770   1.258   2.046 -0.6472  0.8039  0.2015
 1166SOL    HW3 4738   3.698   1.224   1.918  0.1734 -0.1504 -0.0112
 1166SOL    MW4 4739   3.770   1.252   1.959 -0.0870  0.1420  0.2444
 1167SOL     OW 4740   3.777   1.509   1.858  0.6259 -0.1298  0.3639
 1167SOL    HW2 4741   3.855   1.552   1.893  0.1394 -0.2804  1.6586
 1167SOL    HW3 4742   3.787   1.418   1.883 -1.2713  0.3222  2.9644
 1167SOL    MW4 4743   3.789   1.503   1.866  0.3114 -0.0900  0.8779
 1168SOL     OW 4744   3.575   1.630   1.990  0.9004  0.5717  0.4137
 1168SOL    HW2 4745   3.577   1.723   1.964  0.9048  0.5392  0.2957
 1168SOL    HW3 4746   3.648   1.591   1.942 -0.8337 -0.0802 -1.8261
 1168SOL    MW4 4747   3.585   1.637   1.980  0.6719  0.4815  0.1026
 1169SOL     OW 4748   3.577   1.909   1.888 -0.1124 -0.3654 -0.2346
 1169SOL    HW2 4749   3.671   1.922   1.895 -0.2680  0.8944 -0.2264
 1169SOL    HW3 4750   3.560   1.903   1.794 -0.2422  1.3733 -0.3432
 1169SOL    MW4 4751   3.587   1.910   1.876 -0.1500  0.0303 -0.2480
 1170SOL     OW 4752   3.822   1.993   1.969 -0.5197  0.2472  0.2642
 1170SOL    HW2 4753   3.902   1.948   1.942  0.5697  1.4628  1.3764
 1170SOL    HW3 4754   3.833   2.082   1.935 -2.3913 -0.1247 -1.4437
 1170SOL    MW4 4755   3.834   1.999   1.961 -0.6227  0.3586  0.1856
 1171SOL     OW 4756   3.804   2.252   1.866  0.0802 -0.4195  0.7196
 1171SOL    HW2 4757   3.877   2.311   1.884 -1.3928  1.8748 -0.6092
 1171SOL    HW3 4758   3.729   2.294   1.906 -1.2041 -0.8203 -1.2017
 1171SOL    MW4 4759   3.804   2.265   1.873 -0.2835 -0.1698  0.2909
 1172SOL     OW 4760   3.598   2.400   1.978  0.4507  0.6173 -0.1011
 1172SOL    HW2 4761   3.623   2.483   1.938  0.1323  0.9217  0.3196
 1172SOL    HW3 4762   3.522   2.371   1.927  1.0951  0.1372 -0.8101
 1172SOL    MW4 4763   3.591   2.407   1.966  0.4940  0.5944 -0.1391
 1173SOL     OW 4764   3.626   2.648   1.852 -0.3417  0.4157  0.2725
 1173SOL    HW2 4765   3.713   2.683   1.872 -0.4868 -0.4145  2.4918
 1173SOL    HW3 4766   3.567   2.721   1.869 -0.1737  0.6644 -0.2056
 1173SOL    MW4 4767   3.630   2.662   1.857 -0.3388  0.3390  0.5023
 1174SOL     OW 4768   3.827   2.823   1.936 -0.1914 -0.0584 -0.1177
 1174SOL    HW2 4769   3.835   2.842   2.029 -0.3498 -0.0209 -0.1113
 1174SOL    HW3 4770   3.829   2.909   1.894  0.7726 -0.1270 -0.2165
 1174SOL    MW4 4771   3.828   2.837   1.943 -0.0854 -0.0627 -0.1297
 1175SOL     OW 4772   3.839   3.088   1.818  0.2836 -0.2466  0.1077
 1175SOL    HW2 4773   3.768   3.138   1.859  1.0084  0.2043  0.8248
 1175SOL    HW3 4774   3.823   3.098   1.724  0.0471  0.8054  0.2485
 1175SOL    MW4 4775   3.827   3.096   1.811  0.3479 -0.0482  0.2209
 1176SOL     OW 4776   3.614   3.194   1.948  0.0165  0.1157  0.2691
 1176SOL    HW2 4777   3.621   3.201   2.044  1.5917 -0.6124  0.2229
 1176SOL    HW3 4778   3.590   3.282   1.920  2.2234  1.0469  1.1367
 1176SOL    MW4 4779   3.612   3.207   1.957  0.5157  0.1426  0.3774
 1177SOL     OW 4780   3.565   3.458   1.868 -0.2411 -0.2519  0.5314
 1177SOL    HW2 4781   3.648   3.495   1.900 -0.9503  1.1962  0.7761
 1177SOL    HW3 4782   3.498   3.511   1.912 -1.3155 -2.0763  1.1225
 1177SOL    MW4 4783   3.567   3.470   1.878 -0.4766 -0.3016  0.6417
 1178SOL     OW 4784   3.800   3.593   1.958  0.2395 -0.4308  0.0415
 1178SOL    HW2 4785   3.891   3.564   1.950  0.7680  1.1440  0.0081
 1178SOL    HW3 4786   3.803   3.687   1.937 -1.0516  0.1008  2.0100
 1178SOL    MW4 4787   3.813   3.602   1.954  0.1392 -0.1528  0.2967
 1179SOL     OW 4788   3.836   3.870   1.897 -0.1046 -0.8402 -0.2685
 1179SOL    HW2 4789   3.762   3.928   1.913 -0.4097 -1.2568 -0.1540
 1179SOL    HW3 4790   3.830   3.848   1.805 -1.6180 -2.9020  0.2936
 1179SOL    MW4 4791   3.826   3.875   1.887 -0.3445 -1.1671 -0.1793
 1180SOL     OW 4792   3.620   4.020   1.967  0.2244 -0.0964 -0.4630
 1180SOL    HW2 4793   3.613   4.011   2.062  0.8988  0.8210 -0.3237
 1180SOL    HW3 4794   3.541   3.977   1.933 -1.0983  1.4334  0.6101
 1180SOL    MW4 4795   3.609   4.013   1.975  0.1390  0.2265 -0.3031
 1181SOL     OW 4796   3.621   4.284   1.878 -0.0250 -0.4819  0.0747
 1181SOL    HW2 4797   3.681   4.337   1.930  0.4039 -0.3014 -0.5924
 1181SOL    HW3 4798   3.614   4.201   1.925 -1.0302  0.3067  1.3467
 1181SOL    MW4 4799   3.628   4.280   1.891 -0.1013 -0.3543  0.1545
 1182SOL     OW 4800   3.841   4.414   1.980  0.2268 -0.5575  0.0265
 1182SOL    HW2 4801   3.846   4.403   2.075 -0.5802 -0.0260  0.1393
 1182SOL    HW3 4802   3.905   4.352   1.945  0.1811 -1.1071  0.8947
 1182SOL    MW4 4803   3.850   4.404   1.988  0.1142 -0.5598  0.1559
 1183SOL     OW 4804   4.258   4.643   1.867 -0.2309  0.1696 -0.2230
 1183SOL    HW2 4805   4.177   4.692   1.882 -0.4866  0.7478 -3.0849
 1183SOL    HW3 4806   4.327   4.700   1.900 -0.7172  1.4274 -1.3199
 1183SOL    MW4 4807   4.256   4.657   1.873 -0.3281  0.4120 -0.7452
 1184SOL     OW 4808   4.071   0.151   1.949 -0.1518 -0.0305 -0.3008
 1184SOL    HW2 4809   4.087   0.142   2.043  2.8703 -0.3123 -0.7737
 1184SOL    HW3 4810   3.992   0.100   1.933 -0.7099  0.0327  2.0908
 1184SOL    MW4 4811   4.063   0.143   1.959  0.1740 -0.0594 -0.0477
 1185SOL     OW 4812   4.062   0.398   1.825  0.4590 -0.3364 -0.4296
 1185SOL    HW2 4813   4.073   0.310   1.861  0.8760  0.1804  0.7406
 1185SOL    HW3 4814   3.991   0.435   1.877  0.7924  0.2809 -0.4142
 1185SOL    MW4 4815   4.054   0.391   1.837  0.5584 -0.1867 -0.2732
 1186SOL     OW 4816   4.258   0.542   1.966 -0.4691  0.0826 -0.3139
 1186SOL    HW2 4817   4.243   0.514   2.056 -0.3559 -0.8702 -0.5865
 1186SOL    HW3 4818   4.189   0.499   1.915 -0.6822  0.8146 -0.6468
 1186SOL    MW4 4819   4.247   0.533   1.971 -0.4821  0.0535 -0.3939
 1187SOL     OW 4820   4.297   0.786   1.836 -0.0151 -0.0204  0.1655
 1187SOL    HW2 4821   4.308   0.706   1.888  0.7102 -0.2581 -0.3468
 1187SOL    HW3 4822   4.285   0.755   1.747 -1.1455  0.3978  0.1642
 1187SOL    MW4 4823   4.297   0.771   1.831 -0.0687  0.0034  0.0978
 1188SOL     OW 4824   4.053   0.841   1.952  0.1895  0.1016 -0.0552
 1188SOL    HW2 4825   4.144   0.828   1.925 -0.0191 -0.3398 -0.5346
 1188SOL    HW3 4826   4.000   0.801   1.883 -0.3425 -1.0359  0.9875
 1188SOL    MW4 4827   4.058   0.834   1.940  0.0920 -0.1068  0.0191
 1189SOL     OW 4828   3.993   1.118   1.838 -0.1108 -0.5713 -0.1299
 1189SOL    HW2 4829   4.002   1.028   1.870  1.3283  0.2374  1.9006
 1189SOL    HW3 4830   3.918   1.154   1.887  1.1030  0.1810  1.2286
 1189SOL    MW4 4831   3.984   1.111   1.849  0.2391 -0.3653  0.3173
 1190SOL     OW 4832   4.217   1.231   1.924 -0.2468 -0.1309 -0.3056
 1190SOL    HW2 4833   4.210   1.234   2.020 -0.1265  1.9960 -0.3427
 1190SOL    HW3 4834   4.136   1.187   1.896  0.0597 -1.4336  0.7962
 1190SOL    MW4 4835   4.205   1.226   1.933 -0.1907 -0.0221 -0.1652
 1191SOL     OW 4836   4.253   1.493   1.855 -0.0102  0.0972 -0.0981
 1191SOL    HW2 4837   4.241   1.405   1.891 -0.8908  0.3617  0.2586
 1191SOL    HW3 4838   4.248   1.481   1.761  1.6314 -0.4963 -0.1339
 1191SOL    MW4 4839   4.251   1.479   1.848  0.0906  0.0536 -0.0556
 1192SOL     OW 4840   4.027   1.614   1.969 -0.0678 -0.0513 -0.2451
 1192SOL    HW2 4841   4.028   1.626   2.064  0.6049  3.0511 -0.5870
 1192SOL    HW3 4842   4.116   1.589   1.946 -0.0381 -0.0443 -0.1365
 1192SOL    MW4 4843   4.039   1.612   1.978  0.0248  0.3589 -0.2759
 1193SOL     OW 4844   4.074   1.897   1.836 -0.0763 -0.0845  0.1101
 1193SOL    HW2 4845   4.053   1.807   1.860 -2.3339  0.5260  0.5412
 1193SOL    HW3 4846   4.075   1.897   1.740  1.9203 -0.9723  0.0981
 1193SOL    MW4 4847   4.071   1.885   1.827 -0.1106 -0.1210  0.1652
 1194SOL     OW 4848   4.269   2.068   1.952  0.8279 -0.0845  0.3268
 1194SOL    HW2 4849   4.261   2.063   2.047 -1.2512  2.0536  0.3149
 1194SOL    HW3 4850   4.208   2.001   1.920 -0.4990  1.0286  0.4915
 1194SOL    MW4 4851   4.260   2.058   1.960  0.3786  0.3445  0.3470
 1195SOL     OW 4852   4.224   2.316   1.843  0.4325 -0.4486 -0.3824
 1195SOL    HW2 4853   4.231   2.231   1.887  0.4527 -0.1380  0.2253
 1195SOL    HW3 4854   4.302   2.364   1.872 -1.9059  1.4839  3.0426
 1195SOL    MW4 4855   4.235   2.311   1.853  0.1264 -0.1528  0.1497
 1196SOL     OW 4856   3.988   2.441   1.912 -0.0779 -0.1304  0.1745
 1196SOL    HW2 4857   3.980   2.439   2.008  0.0527 -0.2203  0.1831
 1196SOL    HW3 4858   4.070   2.395   1.894 -1.2299 -2.0639 -0.1342
 1196SOL    MW4 4859   3.998   2.435   1.923 -0.2127 -0.3972  0.1347
 1197SOL     OW 4860   4.069   2.702   1.844 -0.0077  0.0282  0.1642
 1197SOL    HW2 4861   4.037   2.620   1.881 -1.4892  0.5510  0.0528
 1197SOL    HW3 4862   3.994   2.761   1.847  0.7449  1.0510 -0.7536
 1197SOL    MW4 4863   4.055   2.699   1.849 -0.1035  0.2322  0.0285
 1198SOL     OW 4864   4.281   2.797   1.981  0.4010  0.2726  0.2136
 1198SOL    HW2 4865   4.251   2.816   2.070  0.4230  3.0961 -0.3324
 1198SOL    HW3 4866   4.207   2.752   1.940 -0.5155  1.0582  0.9741
 1198SOL    MW4 4867   4.267   2.794   1.987  0.2832  0.7486  0.2419
 1199SOL     OW 4868   4.254   3.056   1.873  0.1176  0.7577  0.0837
 1199SOL    HW2 4869   4.184   3.104   1.918  0.0130  0.6731  0.0141
 1199SOL    HW3 4870   4.252   2.969   1.912  0.5833  0.9320  0.4967
 1199SOL    MW4 4871   4.244   3.051   1.884  0.1650  0.7696  0.1289
 1200SOL     OW 4872   4.037   3.198   1.963 -0.1718  0.0219 -0.4911
 1200SOL    HW2 4873   3.986   3.214   2.043  0.0268 -1.2430 -0.0977
 1200SOL    HW3 4874   3.978   3.150   1.906 -0.2623  0.7949 -1.0594
 1200SOL    MW4 4875   4.023   3.194   1.966 -0.1574 -0.0429 -0.5143
 1201SOL     OW 4876   4.038   3.462   1.874 -0.4560  0.0967 -0.3530
 1201SOL    HW2 4877   4.121   3.501   1.901 -0.0094 -0.0789 -1.4183
 1201SOL    HW3 4878   4.038   3.375   1.913 -0.6688  0.5219  0.6041
 1201SOL    MW4 4879   4.049   3.455   1.883 -0.4249  0.1295 -0.3672
 1202SOL     OW 4880   4.261   3.578   1.987  0.1090 -0.6617  0.2972
 1202SOL    HW2 4881   4.254   3.662   1.942 -0.1990 -1.6869 -1.6088
 1202SOL    HW3 4882   4.342   3.540   1.953 -0.8541 -2.0626 -0.4497
 1202SOL    MW4 4883   4.271   3.584   1.976 -0.0591 -0.9818 -0.0528
 1203SOL     OW 4884   4.255   3.823   1.856  0.1903 -0.3132 -0.4225
 1203SOL    HW2 4885   4.328   3.877   1.886 -0.7914  0.9145 -0.2568
 1203SOL    HW3 4886   4.255   3.834   1.760  0.9644 -1.2690 -0.5428
 1203SOL    MW4 4887   4.265   3.831   1.847  0.1626 -0.2775 -0.4165
 1204SOL     OW 4888   4.085   4.009   1.922  0.0121  0.0393  0.2115
 1204SOL    HW2 4889   4.158   3.951   1.903 -0.1656 -0.2922  0.5387
 1204SOL    HW3 4890   4.007   3.954   1.916 -0.0608 -0.0398  1.6900
 1204SOL    MW4 4891   4.084   3.994   1.919 -0.0205 -0.0153  0.4497
 1205SOL     OW 4892   4.047   4.286   1.839 -0.1396 -0.3101 -0.2835
 1205SOL    HW2 4893   4.127   4.327   1.871 -0.6768 -0.9910  2.0672
 1205SOL    HW3 4894   4.060   4.192   1.857 -0.5512 -0.6920 -1.9226
 1205SOL    MW4 4895   4.059   4.279   1.846 -0.2646 -0.4501 -0.1895
 1206SOL     OW 4896   4.276   4.387   1.950  0.5900 -0.2372  0.1533
 1206SOL    HW2 4897   4.264   4.384   2.044 -0.4616  1.5913  0.1079
 1206SOL    HW3 4898   4.288   4.480   1.930  3.9617 -0.8596 -1.1628
 1206SOL    MW4 4899   4.276   4.399   1.960  0.8960 -0.0782 -0.0263
 1207SOL     OW 4900   0.249   0.013   2.360  0.1169 -0.0121  0.1843
 1207SOL    HW2 4901   0.233   0.035   2.451  0.3350  1.5960 -0.1370
 1207SOL    HW3 4902   0.335   0.051   2.341 -0.1399  0.0897 -0.8114
 1207SOL    MW4 4903   0.259   0.021   2.369  0.1118  0.2135  0.0105
 1208SOL     OW 4904   0.002   0.126   2.268  0.0304 -0.2234  0.8186
 1208SOL    HW2 4905   0.091   0.093   2.281  0.3179  0.0662 -0.3108
 1208SOL    HW3 4906  -0.005   0.138   2.173 -1.3086 -0.5083  0.8737
 1208SOL    MW4 4907   0.013   0.123   2.257 -0.1083 -0.2228  0.6769
 1209SOL     OW 4908   4.469   0.385   2.326  0.3541 -0.1928 -0.2901
 1209SOL    HW2 4909   4.548   0.427   2.293  0.9392 -0.4569  0.7635
 1209SOL    HW3 4910   4.478   0.293   2.300  0.4409 -0.2437 -0.0787
 1209SOL    MW4 4911   4.481   0.378   2.318  0.4425 -0.2344 -0.1230
 1210SOL     OW 4912   0.206   0.510   2.201  0.4790 -0.4083 -0.2139
 1210SOL    HW2 4913   0.285   0.459   2.221  1.0430 -0.1084 -1.5853
 1210SOL    HW3 4914   0.198   0.504   2.105  0.0302  1.3075 -0.2955
 1210SOL    MW4 4915   0.216   0.502   2.191  0.4942 -0.1423 -0.4055
 1211SOL     OW 4916   0.201   0.775   2.316  0.7026  0.3118  0.2345
 1211SOL    HW2 4917   0.190   0.763   2.411 -0.6879  0.4795  0.1032
 1211SOL    HW3 4918   0.206   0.685   2.282  0.0640  0.2315  0.3446
 1211SOL    MW4 4919   0.200   0.761   2.324  0.4349  0.3234  0.2317
 1212SOL     OW 4920   4.459   0.902   2.239 -0.1866 -0.3548  0.4339
 1212SOL    HW2 4921   4.545   0.877   2.273 -0.4014 -0.9794  0.5191
 1212SOL    HW3 4922   4.470   0.906   2.144  0.9020  3.1664  0.6180
 1212SOL    MW4 4923   4.472   0.900   2.231 -0.0710  0.0274  0.4694
 1213SOL     OW 4924   4.447   1.174   2.298 -0.1368  0.4400 -0.2837
 1213SOL    HW2 4925   4.477   1.168   2.389 -2.3327  0.6338  0.4958
 1213SOL    HW3 4926   4.439   1.084   2.269 -0.9432  0.3225  0.2667
 1213SOL    MW4 4927   4.450   1.161   2.306 -0.5331  0.4500 -0.1082
 1214SOL     OW 4928   0.195   1.267   2.207  0.4031 -0.0009  0.3751
 1214SOL    HW2 4929   0.110   1.228   2.228 -0.3210  1.7314  0.7291
 1214SOL    HW3 4930   0.189   1.288   2.114  0.7451 -0.6125  0.2145
 1214SOL    MW4 4931   0.183   1.265   2.198  0.3527  0.1470  0.4008
 1215SOL     OW 4932   0.212   1.541   2.288 -0.5869 -0.1940  0.2088
 1215SOL    HW2 4933   0.210   1.526   2.383  3.6410 -1.5550  0.2148
 1215SOL    HW3 4934   0.224   1.454   2.251  0.9681  0.6639 -1.3443
 1215SOL    MW4 4935   0.214   1.528   2.296  0.1761 -0.2605  0.0048
 1216SOL     OW 4936   4.464   1.655   2.197  0.4247 -0.2348 -0.2085
 1216SOL    HW2 4937   4.457   1.736   2.247 -2.2254 -0.9768  0.7412
 1216SOL    HW3 4938   4.548   1.618   2.223  1.0049  1.4842  0.4519
 1216SOL    MW4 4939   4.474   1.661   2.207  0.1521 -0.1059  0.0041
 1217SOL     OW 4940   0.035   1.921   2.330 -0.1664  0.2671  0.2733
 1217SOL    HW2 4941  -0.046   1.953   2.290 -0.8161  0.8860  2.0452
 1217SOL    HW3 4942   0.104   1.975   2.291 -0.8148  0.9856  0.1241
 1217SOL    MW4 4943   0.034   1.933   2.319 -0.3378  0.4436  0.4876
 1218SOL     OW 4944   0.254   2.052   2.241  0.1647 -0.0494 -0.0629
 1218SOL    HW2 4945   0.337   2.006   2.254  0.3131  0.4890  0.9771
 1218SOL    HW3 4946   0.247   2.063   2.146  1.4797  0.2434 -0.1440
 1218SOL    MW4 4947   0.264   2.048   2.230  0.3578  0.0603  0.0634
 1219SOL     OW 4948   0.195   2.357   2.314 -0.4184  0.5711 -0.8595
 1219SOL    HW2 4949   0.179   2.346   2.408 -0.6934 -0.3157 -1.0112
 1219SOL    HW3 4950   0.215   2.269   2.282 -2.1219  0.5570 -1.9629
 1219SOL    MW4 4951   0.196   2.344   2.322 -0.6795  0.4525 -1.0252
 1220SOL     OW 4952   4.431   2.442   2.208  0.1437  0.0455 -0.1468
 1220SOL    HW2 4953   4.425   2.531   2.243  0.9208 -0.2119  0.6778
 1220SOL    HW3 4954   4.514   2.408   2.242 -0.4775 -1.2413  0.1430
 1220SOL    MW4 4955   4.441   2.449   2.217  0.1645 -0.1581  0.0005
 1221SOL     OW 4956   4.463   2.693   2.326  0.0523  0.5550  1.0721
 1221SOL    HW2 4957   4.481   2.668   2.417 -0.0062  1.1360  1.2469
 1221SOL    HW3 4958   4.540   2.744   2.300  0.0578  0.4057  0.8065
 1221SOL    MW4 4959   4.475   2.697   2.335  0.0448  0.6118  1.0602
 1222SOL     OW 4960   0.197   2.829   2.229  0.3631 -0.1075 -0.0428
 1222SOL    HW2 4961   0.279   2.784   2.245 -0.3260 -1.6074 -0.6492
 1222SOL    HW3 4962   0.193   2.841   2.134 -0.5604 -0.9279 -0.1201
 1222SOL    MW4 4963   0.207   2.825   2.218  0.1504 -0.4139 -0.1333
 1223SOL     OW 4964   0.212   3.095   2.355 -0.2721 -0.5332 -0.2216
 1223SOL    HW2 4965   0.129   3.130   2.322  0.4579 -0.0794 -1.6353
 1223SOL    HW3 4966   0.210   3.002   2.332 -0.7791 -0.7229  0.5705
 1223SOL    MW4 4967   0.201   3.088   2.347 -0.2427 -0.4983 -0.3035
 1224SOL     OW 4968   4.477   3.202   2.240 -0.5825  0.3668 -0.1228
 1224SOL    HW2 4969   4.490   3.291   2.273 -0.5091  0.8292 -1.3685
 1224SOL    HW3 4970   4.490   3.209   2.145 -0.9252 -0.9036 -0.2774
 1224SOL    MW4 4971   4.480   3.215   2.232 -0.6180  0.2601 -0.3078
 1225SOL     OW 4972   4.479   3.460   2.351 -0.1448  0.1766  0.2410
 1225SOL    HW2 4973   4.494   3.458   2.446  1.3580  0.5269  0.0274
 1225SOL    HW3 4974   4.395   3.504   2.341  0.4506  1.6284  1.3542
 1225SOL    MW4 4975   4.470   3.466   2.363  0.1321  0.4144  0.3598
 1226SOL     OW 4976   0.210   3.595   2.242  0.6218  0.2824  0.4097
 1226SOL    HW2 4977   0.287   3.553   2.279  1.1398  0.3436 -0.5870
 1226SOL    HW3 4978   0.137   3.538   2.266  1.1758 -0.5815  0.0302
 1226SOL    MW4 4979   0.210   3.582   2.250  0.7633  0.1764  0.2279
 1227SOL     OW 4980   0.215   3.856   2.331  0.2733 -0.2553 -0.2713
 1227SOL    HW2 4981   0.135   3.906   2.313 -0.1795 -0.8604  0.0647
 1227SOL    HW3 4982   0.197   3.768   2.298 -0.1802 -1.1018  2.1262
 1227SOL    MW4 4983   0.202   3.851   2.325  0.1538 -0.4468  0.0896
 1228SOL     OW 4984   0.004   3.992   2.239 -0.7568 -0.0420  0.3516
 1228SOL    HW2 4985  -0.006   4.085   2.259  0.8189  0.2236 -0.0487
 1228SOL    HW3 4986  -0.013   3.987   2.145 -0.4320 -0.0919  0.2956
 1228SOL    MW4 4987   0.000   4.004   2.229 -0.5059 -0.0134  0.2913
 1229SOL     OW 4988   4.484   4.271   2.362 -0.5132 -0.0290 -0.1470
 1229SOL    HW2 4989   4.486   4.271   2.458 -0.0984 -3.3733 -0.0973
 1229SOL    HW3 4990   4.552   4.334   2.337  0.6274 -0.4465  1.7821
 1229SOL    MW4 4991   4.493   4.279   2.371 -0.3085 -0.5255  0.1142
 1230SOL     OW 4992   0.205   4.415   2.262  0.2391  0.5512 -0.5011
 1230SOL    HW2 4993   0.286   4.378   2.296  0.6748  1.4098 -0.6023
 1230SOL    HW3 4994   0.209   4.508   2.284 -0.6112  0.6434 -0.7070
 1230SOL    MW4 4995   0.216   4.422   2.270  0.1844  0.6762 -0.5417
 1231SOL     OW 4996   0.684   4.632   2.338  0.4348 -0.3628 -0.4782
 1231SOL    HW2 4997   0.695   4.628   2.433 -0.2303  0.8068 -0.3431
 1231SOL    HW3 4998   0.764   4.673   2.305  1.0115 -1.4941 -0.5063
 1231SOL    MW4 4999   0.696   4.637   2.346  0.4232 -0.3581 -0.4640
 1232SOL     OW 5000   0.483   0.134   2.224  0.1642 -0.0769 -0.0716
 1232SOL    HW2 5001   0.546   0.073   2.263  0.1958  0.7654  1.2226
 1232SOL    HW3 5002   0.479   0.109   2.132  0.7372 -1.5538  0.2919
 1232SOL    MW4 5003   0.490   0.122   2.217  0.2440 -0.1606  0.1471
 1233SOL     OW 5004   0.425   0.384   2.294 -0.2173 -0.0066  0.3191
 1233SOL    HW2 5005   0.416   0.386   2.390  1.0078  0.0062  0.4515
 1233SOL    HW3 5006   0.427   0.291   2.272  0.7968 -0.0326  0.4631
 1233SOL    MW4 5007   0.424   0.372   2.304  0.0782 -0.0083  0.3552
 1234SOL     OW 5008   0.676   0.485   2.253 -0.3079 -0.0076 -0.4317
 1234SOL    HW2 5009   0.676   0.575   2.285 -2.0991 -0.7304  1.7307
 1234SOL    HW3 5010   0.583   0.460   2.252  0.3189 -2.6456  1.5232
 1234SOL    MW4 5011   0.663   0.494   2.257 -0.4614 -0.4511  0.1118
 1235SOL     OW 5012   0.689   0.777   2.352  0.0602  0.2490  0.1837
 1235SOL    HW2 5013   0.679   0.760   2.446 -1.6674 -2.0947 -0.3726
 1235SOL    HW3 5014   0.601   0.797   2.321  0.1570 -1.4973 -1.3493
 1235SOL    MW4 5015   0.676   0.777   2.360 -0.1550 -0.2906 -0.0923
 1236SOL     OW 5016   0.453   0.882   2.262  0.0830 -0.2184  0.1423
 1236SOL    HW2 5017   0.365   0.849   2.280  0.8494 -1.7094  1.2464
 1236SOL    HW3 5018   0.456   0.894   2.167 -1.2226 -0.3699  0.0754
 1236SOL    MW4 5019   0.441   0.879   2.252  0.0119 -0.4352  0.2792
 1237SOL     OW 5020   0.452   1.172   2.304 -0.1752 -0.6007  0.3500
 1237SOL    HW2 5021   0.448   1.081   2.274 -0.8399  0.2090 -2.1561
 1237SOL    HW3 5022   0.365   1.207   2.283  0.2314  0.7498  0.8967
 1237SOL    MW4 5023   0.440   1.164   2.297 -0.2092 -0.3157  0.0916
 1238SOL     OW 5024   0.675   1.319   2.184  0.4000  0.3131  0.2694
 1238SOL    HW2 5025   0.680   1.401   2.234  2.2343 -0.3405  1.2017
 1238SOL    HW3 5026   0.607   1.268   2.228  1.0139  0.3180  1.2332
 1238SOL    MW4 5027   0.667   1.323   2.197  0.7231  0.2273  0.5195
 1239SOL     OW 5028   0.676   1.558   2.328  0.1050  0.7283 -0.0182
 1239SOL    HW2 5029   0.681   1.582   2.420  0.8902 -0.1722  0.1797
 1239SOL    HW3 5030   0.759   1.587   2.290  0.1928  0.2095 -0.2269
 1239SOL    MW4 5031   0.687   1.565   2.335  0.2202  0.5411 -0.0198
 1240SOL     OW 5032   0.465   1.698   2.239  0.0343  0.8399  0.0180
 1240SOL    HW2 5033   0.536   1.638   2.265 -0.8872 -0.3245 -0.0913
 1240SOL    HW3 5034   0.385   1.650   2.260 -0.7192  1.8299 -0.5760
 1240SOL    MW4 5035   0.464   1.684   2.245 -0.1867  0.8169 -0.0749
 1241SOL     OW 5036   0.487   1.952   2.348  0.2560 -0.2000  0.1028
 1241SOL    HW2 5037   0.555   1.986   2.289 -0.3815 -1.5570 -1.4454
 1241SOL    HW3 5038   0.469   1.864   2.316 -3.0490  0.5437 -0.2562
 1241SOL    MW4 5039   0.493   1.945   2.336 -0.2642 -0.2809 -0.1488
 1242SOL     OW 5040   0.694   2.058   2.188  0.2392 -0.5399 -0.0412
 1242SOL    HW2 5041   0.757   2.003   2.235  1.2361  0.8127  0.2411
 1242SOL    HW3 5042   0.692   2.140   2.237 -0.4842  0.0487 -1.0230
 1242SOL    MW4 5043   0.702   2.061   2.201  0.2753 -0.2837 -0.1335
 1243SOL     OW 5044   0.638   2.300   2.334  0.4147  0.1362 -0.4845
 1243SOL    HW2 5045   0.642   2.304   2.429 -0.3026  1.3117 -0.5057
 1243SOL    HW3 5046   0.697   2.370   2.305 -0.7670  0.9642 -0.8958
 1243SOL    MW4 5047   0.647   2.310   2.342  0.1642  0.4008 -0.5417
 1244SOL     OW 5048   0.426   2.430   2.211  0.0807  0.1948 -0.2214
 1244SOL    HW2 5049   0.494   2.378   2.255 -0.1590  0.8816  0.9643
 1244SOL    HW3 5050   0.344   2.400   2.250 -0.0951  1.1296  0.1266
 1244SOL    MW4 5051   0.424   2.419   2.222  0.0259  0.4086 -0.0188
 1245SOL     OW 5052   0.434   2.698   2.303 -0.0563  0.1894  0.4977
 1245SOL    HW2 5053   0.434   2.685   2.398  1.0119  0.4500  0.5366
 1245SOL    HW3 5054   0.425   2.610   2.267  0.9019 -0.0547  0.8306
 1245SOL    MW4 5055   0.433   2.685   2.311  0.2111  0.1912  0.5465
 1246SOL     OW 5056   0.647   2.841   2.232  0.5614  0.4107 -0.0330
 1246SOL    HW2 5057   0.723   2.797   2.270  0.4399 -0.4459 -0.7786
 1246SOL    HW3 5058   0.573   2.784   2.254  0.6917 -0.9375 -2.9222
 1246SOL    MW4 5059   0.647   2.827   2.240  0.5625  0.1197 -0.5126
 1247SOL     OW 5060   0.683   3.075   2.347  0.1008  0.2898 -0.2137
 1247SOL    HW2 5061   0.604   3.117   2.313 -0.1447  0.0364  0.0354
 1247SOL    HW3 5062   0.674   2.983   2.319 -0.5231 -0.1103  1.2641
 1247SOL    MW4 5063   0.671   3.068   2.339 -0.0139  0.2036  0.0143
 1248SOL     OW 5064   0.458   3.199   2.259  0.3859 -0.2003 -0.4129
 1248SOL    HW2 5065   0.371   3.168   2.284 -0.0537  1.6053  0.3614
 1248SOL    HW3 5066   0.458   3.195   2.163 -0.2662 -0.9360 -0.3890
 1248SOL    MW4 5067   0.447   3.195   2.250  0.2419 -0.0589 -0.3078
 1249SOL     OW 5068   0.430   3.457   2.339  0.2993  0.5361 -0.8267
 1249SOL    HW2 5069   0.499   3.517   2.311  1.8173 -1.5158 -1.5540
 1249SOL    HW3 5070   0.459   3.371   2.311 -0.9615 -0.8265  1.8572
 1249SOL    MW4 5071   0.443   3.454   2.332  0.3333  0.0854 -0.5686
 1250SOL     OW 5072   0.653   3.616   2.243 -0.2179 -0.4273  0.1071
 1250SOL    HW2 5073   0.667   3.708   2.265 -0.5442 -0.3034 -0.2049
 1250SOL    HW3 5074   0.652   3.614   2.147  0.5179 -0.8620  0.1028
 1250SOL    MW4 5075   0.655   3.628   2.233 -0.1638 -0.4683  0.0656
 1251SOL     OW 5076   0.645   3.896   2.378 -0.6003 -0.0883  0.0050
 1251SOL    HW2 5077   0.637   3.904   2.473  0.4896  0.3662  0.0717
 1251SOL    HW3 5078   0.582   3.959   2.343 -0.5527  0.2030  0.4403
 1251SOL    MW4 5079   0.636   3.906   2.386 -0.4503  0.0100  0.0710
 1252SOL     OW 5080   0.420   4.031   2.248  0.2963  0.1466 -0.1038
 1252SOL    HW2 5081   0.360   3.961   2.274  0.2242  0.1351 -0.3014
 1252SOL    HW3 5082   0.433   4.018   2.155 -0.2386  0.7910 -0.2737
 1252SOL    MW4 5083   0.414   4.020   2.239  0.2162  0.2303 -0.1523
 1253SOL     OW 5084   0.442   4.292   2.346  0.2736 -0.0774 -0.1952
 1253SOL    HW2 5085   0.533   4.302   2.318  0.1561 -1.9922 -1.4116
 1253SOL    HW3 5086   0.414   4.209   2.306 -1.6171 -0.1399  1.1845
 1253SOL    MW4 5087   0.450   4.282   2.337  0.0086 -0.3381 -0.1738
 1254SOL     OW 5088   0.695   4.355   2.242  0.0116  0.1920  0.4796
 1254SOL    HW2 5089   0.694   4.439   2.289  0.4660 -0.2923  1.3668
 1254SOL    HW3 5090   0.683   4.379   2.151  2.1994  1.4105  0.4672
 1254SOL    MW4 5091   0.694   4.369   2.237  0.3602  0.2890  0.5951
 1255SOL     OW 5092   1.178   4.660   2.359 -0.4794  0.2393 -0.0110
 1255SOL    HW2 5093   1.164   4.629   2.448 -0.6529  1.8428  0.5246
 1255SOL    HW3 5094   1.094   4.698   2.333 -0.3059  0.1679 -0.7041
 1255SOL    MW4 5095   1.165   4.661   2.367 -0.4795  0.4411 -0.0317
 1256SOL     OW 5096   0.929   0.082   2.267  0.0581 -0.0580  0.0815
 1256SOL    HW2 5097   0.952   0.172   2.290 -2.0210  0.5988 -0.3024
 1256SOL    HW3 5098   0.919   0.083   2.172 -1.9532 -0.1842  0.2637
 1256SOL    MW4 5099   0.931   0.094   2.257 -0.4816  0.0120  0.0548
 1257SOL     OW 5100   0.952   0.348   2.355 -0.1447  0.3387  0.1470
 1257SOL    HW2 5101   1.013   0.417   2.331  0.0458 -0.1111 -0.6717
 1257SOL    HW3 5102   0.867   0.379   2.324  0.0788 -0.1788 -1.0075
 1257SOL    MW4 5103   0.949   0.361   2.348 -0.0902  0.2111 -0.1135
 1258SOL     OW 5104   1.107   0.533   2.247  0.1399 -0.0972  0.0358
 1258SOL    HW2 5105   1.179   0.481   2.281 -0.0072 -0.5841 -0.4022
 1258SOL    HW3 5106   1.105   0.514   2.154 -0.8540 -0.4490  0.1230
 1258SOL    MW4 5107   1.116   0.524   2.239 -0.0106 -0.2080 -0.0107
 1259SOL     OW 5108   1.124   0.785   2.326  0.0813  0.3451  0.4717
 1259SOL    HW2 5109   1.066   0.848   2.283  2.5923  1.7306 -1.0039
 1259SOL    HW3 5110   1.107   0.702   2.281 -2.0456  0.2658  1.3201
 1259SOL    MW4 5111   1.114   0.782   2.314  0.1320  0.5174  0.3889
 1260SOL     OW 5112   0.915   0.914   2.221  0.0638 -0.2698 -0.1767
 1260SOL    HW2 5113   0.898   1.004   2.249 -0.0497 -0.5899  0.7960
 1260SOL    HW3 5114   0.845   0.863   2.261  2.1518 -1.3110  2.2250
 1260SOL    MW4 5115   0.903   0.920   2.230  0.3244 -0.4494  0.2685
 1261SOL     OW 5116   0.893   1.178   2.283 -0.0041  0.0234 -0.0994
 1261SOL    HW2 5117   0.974   1.223   2.262  0.3244 -1.1772 -1.4657
 1261SOL    HW3 5118   0.824   1.231   2.243  0.0707  1.1928  1.3033
 1261SOL    MW4 5119   0.894   1.191   2.275  0.0491  0.0194 -0.0947
 1262SOL     OW 5120   1.152   1.272   2.191 -0.1124  0.0739  0.1303
 1262SOL    HW2 5121   1.244   1.254   2.211 -0.0314  0.6941  0.3211
 1262SOL    HW3 5122   1.148   1.270   2.095 -0.0775 -0.8055  0.1430
 1262SOL    MW4 5123   1.164   1.269   2.181 -0.0970  0.0397  0.1571
 1263SOL     OW 5124   1.137   1.521   2.353 -0.4627 -0.1484 -0.2291
 1263SOL    HW2 5125   1.059   1.561   2.314 -0.9433  0.9618  1.8083
 1263SOL    HW3 5126   1.146   1.437   2.309 -1.0333  1.0250 -2.6477
 1263SOL    MW4 5127   1.128   1.515   2.342 -0.6013  0.1529 -0.2792
 1264SOL     OW 5128   0.923   1.635   2.225 -0.2347 -0.5350 -0.6103
 1264SOL    HW2 5129   0.920   1.724   2.260  2.0654 -1.2861  1.6534
 1264SOL    HW3 5130   0.931   1.647   2.130  0.3054  1.6746 -0.3156
 1264SOL    MW4 5131   0.924   1.648   2.217  0.1401 -0.3427 -0.2728
 1265SOL     OW 5132   0.889   1.898   2.315  0.4619 -0.1107 -0.3586
 1265SOL    HW2 5133   0.873   1.916   2.407 -1.1553  0.7654 -0.7968
 1265SOL    HW3 5134   0.980   1.922   2.301  0.7918 -0.5052  1.0617
 1265SOL    MW4 5135   0.899   1.903   2.325  0.2921 -0.0472 -0.2291
 1266SOL     OW 5136   1.128   2.034   2.259 -0.0966 -0.2011  0.0475
 1266SOL    HW2 5137   1.206   2.002   2.305  0.2250  0.3148 -0.1257
 1266SOL    HW3 5138   1.150   2.027   2.166  0.1830  0.9771  0.0098
 1266SOL    MW4 5139   1.141   2.029   2.253 -0.0172  0.0224  0.0196
 1267SOL     OW 5140   1.059   2.293   2.321 -0.4568  0.0090  0.5726
 1267SOL    HW2 5141   1.144   2.327   2.293 -0.7005 -0.1991 -0.4323
 1267SOL    HW3 5142   1.064   2.199   2.301 -0.7383 -0.0885  0.9686
 1267SOL    MW4 5143   1.071   2.285   2.315 -0.5258 -0.0312  0.4921
 1268SOL     OW 5144   0.862   2.441   2.201  0.6176 -0.3766 -0.1326
 1268SOL    HW2 5145   0.931   2.394   2.248  0.9515  0.2477  0.0090
 1268SOL    HW3 5146   0.880   2.425   2.109  3.0531  2.6285 -0.2750
 1268SOL    MW4 5147   0.874   2.433   2.195  0.9829  0.1023 -0.1330
 1269SOL     OW 5148   0.841   2.696   2.322  0.4198 -0.1418 -0.1306
 1269SOL    HW2 5149   0.838   2.689   2.418 -0.6645 -0.2946 -0.1684
 1269SOL    HW3 5150   0.861   2.607   2.292 -1.3488 -0.5581 -0.1224
 1269SOL    MW4 5151   0.843   2.684   2.331  0.0434 -0.2170 -0.1345
 1270SOL     OW 5152   1.087   2.811   2.266  0.4097 -0.0973  0.0725
 1270SOL    HW2 5153   1.145   2.751   2.314 -1.6173 -1.4232  0.9119
 1270SOL    HW3 5154   0.999   2.781   2.287 -0.5809  1.2954 -1.9749
 1270SOL    MW4 5155   1.083   2.799   2.275  0.0116 -0.0885 -0.0865
 1271SOL     OW 5156   1.134   3.087   2.349  0.4037 -0.0637  0.2498
 1271SOL    HW2 5157   1.056   3.107   2.298 -0.0128 -0.2078  0.8252
 1271SOL    HW3 5158   1.149   2.994   2.335  0.0941 -0.1773  0.6478
 1271SOL    MW4 5159   1.126   3.077   2.341  0.3078 -0.0975  0.3784
 1272SOL     OW 5160   0.893   3.189   2.213  0.0752 -0.3411 -0.3627
 1272SOL    HW2 5161   0.887   3.278   2.248  0.8958 -0.3219 -0.2792
 1272SOL    HW3 5162   0.821   3.142   2.255  0.3362 -0.0116  0.4572
 1272SOL    MW4 5163   0.883   3.194   2.223  0.2180 -0.2949 -0.2437
 1273SOL     OW 5164   0.863   3.448   2.324 -0.3461  0.2278  0.3356
 1273SOL    HW2 5165   0.866   3.443   2.419  1.0691 -1.4400  0.2338
 1273SOL    HW3 5166   0.782   3.494   2.304 -0.2955  1.2090  2.3640
 1273SOL    MW4 5167   0.853   3.453   2.334 -0.1527  0.1371  0.5898
 1274SOL     OW 5168   1.090   3.594   2.253  0.0311 -0.3717 -0.2335
 1274SOL    HW2 5169   1.163   3.551   2.298  1.4657  1.3496 -0.8391
 1274SOL    HW3 5170   1.012   3.548   2.283  1.4426 -2.8022 -0.2158
 1274SOL    MW4 5171   1.089   3.583   2.263  0.4066 -0.4652 -0.3111
 1275SOL     OW 5172   1.116   3.870   2.337  0.4897  0.2940 -0.5517
 1275SOL    HW2 5173   1.188   3.924   2.305  2.0918 -0.5053  1.6184
 1275SOL    HW3 5174   1.121   3.790   2.286  0.6322  0.5739 -0.9750
 1275SOL    MW4 5175   1.126   3.866   2.326  0.7198  0.2258 -0.3211
 1276SOL     OW 5176   0.874   3.968   2.237 -0.0348  0.3185  0.2394
 1276SOL    HW2 5177   0.948   3.922   2.276  0.3985  0.0480 -0.8883
 1276SOL    HW3 5178   0.798   3.936   2.286  0.4801 -0.1242  0.7610
 1276SOL    MW4 5179   0.874   3.958   2.249  0.0902  0.2244  0.1593
 1277SOL     OW 5180   0.927   4.258   2.358 -0.4436  0.2820  0.1168
 1277SOL    HW2 5181   0.928   4.164   2.338  3.3977  0.3864 -0.6103
 1277SOL    HW3 5182   0.848   4.291   2.317 -1.2013 -2.4285 -0.7021
 1277SOL    MW4 5183   0.917   4.250   2.350 -0.0368 -0.0620 -0.0873
 1278SOL     OW 5184   1.131   4.397   2.239  0.0680  0.2251  0.6254
 1278SOL    HW2 5185   1.052   4.362   2.280 -0.3715  0.8876  0.3523
 1278SOL    HW3 5186   1.141   4.485   2.277  0.1383  0.5098 -0.0467
 1278SOL    MW4 5187   1.122   4.404   2.250  0.0193  0.3505  0.5007
 1279SOL     OW 5188   1.548   4.664   2.348  0.2367 -0.2383  0.5328
 1279SOL    HW2 5189   1.630   4.703   2.317 -0.4599  0.4989 -0.4441
 1279SOL    HW3 5190   1.482   4.731   2.330 -0.7946 -1.3823 -0.0001
 1279SOL    MW4 5191   1.550   4.678   2.341  0.0088 -0.2920  0.3335
 1280SOL     OW 5192   1.322   0.157   2.189  0.4830 -0.1613  0.2008
 1280SOL    HW2 5193   1.326   0.246   2.225 -1.6772 -0.5009  1.3776
 1280SOL    HW3 5194   1.263   0.110   2.248 -0.6618 -1.6034 -2.0259
 1280SOL    MW4 5195   1.314   0.163   2.202  0.0471 -0.3964  0.0622
 1281SOL     OW 5196   1.312   0.388   2.362 -0.0135 -0.2471  0.1240
 1281SOL    HW2 5197   1.311   0.366   2.455 -1.4238  0.1646  0.2081
 1281SOL    HW3 5198   1.405   0.405   2.343  0.3773 -0.9783  1.2860
 1281SOL    MW4 5199   1.324   0.387   2.372 -0.1479 -0.2893  0.2885
 1282SOL     OW 5200   1.555   0.460   2.252 -0.4433 -0.1087 -0.1634
 1282SOL    HW2 5201   1.638   0.421   2.279  0.1400  1.6187  0.6541
 1282SOL    HW3 5202   1.556   0.454   2.156 -0.4631 -2.2171 -0.0552
 1282SOL    MW4 5203   1.566   0.454   2.243 -0.3690 -0.1589 -0.0412
 1283SOL     OW 5204   1.574   0.722   2.331 -0.4927 -0.1527 -0.0051
 1283SOL    HW2 5205   1.648   0.758   2.283  0.1508  0.0409  1.1155
 1283SOL    HW3 5206   1.563   0.634   2.297 -0.3747  0.1648 -0.8707
 1283SOL    MW4 5207   1.582   0.715   2.321 -0.3922 -0.0852  0.0284
 1284SOL     OW 5208   1.359   0.858   2.214  0.0261 -0.0988  0.4771
 1284SOL    HW2 5209   1.427   0.801   2.250  1.5600  0.7818 -0.9844
 1284SOL    HW3 5210   1.278   0.826   2.254  1.0181 -2.4731  0.6660
 1284SOL    MW4 5211   1.357   0.846   2.224  0.3594 -0.2959  0.3090
 1285SOL     OW 5212   1.393   1.136   2.269 -0.1945 -0.2040  0.4815
 1285SOL    HW2 5213   1.372   1.143   2.362  1.7832  0.4577  0.9048
 1285SOL    HW3 5214   1.398   1.041   2.253  1.6853 -0.3106  1.5975
 1285SOL    MW4 5215   1.391   1.124   2.279  0.3145 -0.1307  0.6845
 1286SOL     OW 5216   1.595   1.309   2.221 -0.2429  0.0049 -0.2777
 1286SOL    HW2 5217   1.530   1.241   2.243 -0.9661  0.4298 -1.0642
 1286SOL    HW3 5218   1.605   1.302   2.126  1.2175 -0.3627 -0.1046
 1286SOL    MW4 5219   1.588   1.299   2.211 -0.1456  0.0124 -0.3586
 1287SOL     OW 5220   1.557   1.547   2.368 -0.4868  0.0099 -0.4667
 1287SOL    HW2 5221   1.646   1.580   2.360 -0.4783 -0.1273 -0.9667
 1287SOL    HW3 5222   1.559   1.462   2.324 -1.1357  0.5272 -1.5416
 1287SOL    MW4 5223   1.569   1.540   2.361 -0.5711  0.0601 -0.6747
 1288SOL     OW 5224   1.349   1.660   2.215  0.3005 -0.1038  0.1861
 1288SOL    HW2 5225   1.425   1.620   2.256  0.0307  0.1352  0.9270
 1288SOL    HW3 5226   1.274   1.623   2.261 -0.0425 -0.5644 -0.7466
 1288SOL    MW4 5227   1.349   1.650   2.227  0.2197 -0.1329  0.1605
 1289SOL     OW 5228   1.368   1.910   2.334  0.1382 -0.0696  0.1750
 1289SOL    HW2 5229   1.433   1.966   2.291 -0.0267 -0.8059 -1.0454
 1289SOL    HW3 5230   1.377   1.825   2.292 -0.3398 -0.6916  1.2942
 1289SOL    MW4 5231   1.378   1.906   2.323  0.0533 -0.2489  0.1616
 1290SOL     OW 5232   1.581   2.058   2.232 -0.4524  0.5951  0.1261
 1290SOL    HW2 5233   1.654   2.003   2.259 -0.9185  0.2639  0.7280
 1290SOL    HW3 5234   1.590   2.065   2.137 -0.8559 -1.2170 -0.0609
 1290SOL    MW4 5235   1.592   2.052   2.223 -0.5672  0.3123  0.1810
 1291SOL     OW 5236   1.587   2.313   2.331 -0.2496 -0.0998 -0.1753
 1291SOL    HW2 5237   1.585   2.296   2.425  0.4159  0.7758  0.0086
 1291SOL    HW3 5238   1.590   2.226   2.291  0.0098 -0.4660  0.6307
 1291SOL    MW4 5239   1.587   2.299   2.338 -0.1277 -0.0329 -0.0446
 1292SOL     OW 5240   1.314   2.400   2.263 -0.0222  0.3095 -0.0254
 1292SOL    HW2 5241   1.400   2.377   2.297 -1.0590 -2.5294  0.8465
 1292SOL    HW3 5242   1.324   2.400   2.168  1.2623  1.4668  0.0974
 1292SOL    MW4 5243   1.327   2.397   2.255  0.0105  0.0877  0.1059
 1293SOL     OW 5244   1.348   2.688   2.320 -0.5521  0.0211 -0.1533
 1293SOL    HW2 5245   1.429   2.717   2.278 -0.1444 -0.5044  0.2589
 1293SOL    HW3 5246   1.338   2.597   2.292 -1.5982  0.4163 -1.0994
 1293SOL    MW4 5247   1.357   2.680   2.310 -0.6363  0.0038 -0.2239
 1294SOL     OW 5248   1.583   2.846   2.233 -0.1757  0.3144 -0.6030
 1294SOL    HW2 5249   1.547   2.924   2.276 -1.2314 -0.3009 -0.3434
 1294SOL    HW3 5250   1.620   2.879   2.151 -0.6491  1.0864 -0.5188
 1294SOL    MW4 5251   1.583   2.861   2.228 -0.3774  0.3352 -0.5579
 1295SOL     OW 5252   1.539   3.104   2.352 -0.3760  0.6585  0.0233
 1295SOL    HW2 5253   1.534   3.124   2.446 -1.2234 -0.5450  0.2430
 1295SOL    HW3 5254   1.485   3.172   2.311  1.2666  2.1294  0.2488
 1295SOL    MW4 5255   1.531   3.116   2.359 -0.2710  0.6938  0.0820
 1296SOL     OW 5256   1.341   3.266   2.246  0.1509 -0.4052  0.2038
 1296SOL    HW2 5257   1.281   3.194   2.266  0.3049 -0.6027 -0.0368
 1296SOL    HW3 5258   1.351   3.263   2.151 -1.2582  1.0562 -0.0092
 1296SOL    MW4 5259   1.334   3.256   2.236 -0.0148 -0.2384  0.1442
 1297SOL     OW 5260   1.339   3.503   2.385  0.4232  0.2862  0.3200
 1297SOL    HW2 5261   1.345   3.482   2.479 -0.1872  0.4832  0.4069
 1297SOL    HW3 5262   1.329   3.418   2.342  2.1333  0.0716  0.2984
 1297SOL    MW4 5263   1.338   3.489   2.392  0.5683  0.2840  0.3285
 1298SOL     OW 5264   1.564   3.604   2.236 -0.1386  0.0724  0.3764
 1298SOL    HW2 5265   1.573   3.695   2.263 -1.9890  0.5183 -0.4184
 1298SOL    HW3 5266   1.482   3.575   2.276 -1.4103 -0.1328 -2.2688
 1298SOL    MW4 5267   1.555   3.612   2.245 -0.5506  0.1042 -0.0775
 1299SOL     OW 5268   1.554   3.866   2.336 -0.1847  0.1585 -0.2841
 1299SOL    HW2 5269   1.560   3.862   2.431 -0.5253 -0.6241 -0.2937
 1299SOL    HW3 5270   1.633   3.912   2.308 -1.0529  2.2143  0.5100
 1299SOL    MW4 5271   1.565   3.872   2.345 -0.3442  0.3264 -0.1802
 1300SOL     OW 5272   1.341   3.998   2.270 -0.3382 -0.1246  0.1412
 1300SOL    HW2 5273   1.419   3.949   2.297 -1.0544 -1.4019 -0.0960
 1300SOL    HW3 5274   1.342   3.994   2.174 -0.2730  0.5535  0.1049
 1300SOL    MW4 5275   1.352   3.991   2.261 -0.4241 -0.2038  0.1051
 1301SOL     OW 5276   1.372   4.279   2.326  0.1849 -0.5653 -0.0206
 1301SOL    HW2 5277   1.365   4.187   2.300 -1.4842 -0.2505 -0.7388
 1301SOL    HW3 5278   1.290   4.319   2.295  0.5776  0.9991  0.9196
 1301SOL    MW4 5279   1.360   4.272   2.319  0.0163 -0.3176  0.0086
 1302SOL     OW 5280   1.578   4.412   2.227 -0.3960 -0.0463 -0.7565
 1302SOL    HW2 5281   1.515   4.357   2.274  2.0182 -1.4732  0.9316
 1302SOL    HW3 5282   1.566   4.499   2.263 -0.3941 -0.6118  0.6443
 1302SOL    MW4 5283   1.569   4.416   2.238 -0.0772 -0.3095 -0.3490
 1303SOL     OW 5284   2.021   4.656   2.348  0.3783  0.1758 -0.4519
 1303SOL    HW2 5285   2.075   4.715   2.296 -1.4725 -0.0446 -2.7116
 1303SOL    HW3 5286   2.049   4.568   2.322  0.9647  0.0701  0.5507
 1303SOL    MW4 5287   2.032   4.652   2.338  0.2112  0.1326 -0.6177
 1304SOL     OW 5288   1.800   0.105   2.234 -0.4123  0.3174 -0.5032
 1304SOL    HW2 5289   1.805   0.194   2.269 -0.3333  0.8168 -1.7766
 1304SOL    HW3 5290   1.879   0.062   2.267 -0.3500  0.7690 -0.0529
 1304SOL    MW4 5291   1.811   0.111   2.243 -0.3935  0.4429 -0.6118
 1305SOL     OW 5292   1.804   0.366   2.351  0.5797 -0.3985 -0.5876
 1305SOL    HW2 5293   1.797   0.382   2.445  0.4295 -2.3755 -0.2251
 1305SOL    HW3 5294   1.867   0.431   2.320  0.0698  0.7524  0.7517
 1305SOL    MW4 5295   1.812   0.376   2.360  0.4927 -0.5074 -0.3629
 1306SOL     OW 5296   2.031   0.516   2.256  0.3745  0.1899  0.3252
 1306SOL    HW2 5297   2.018   0.609   2.275 -1.5482 -0.2078  1.1636
 1306SOL    HW3 5298   2.049   0.512   2.163  0.2729  1.3976  0.2516
 1306SOL    MW4 5299   2.032   0.528   2.247  0.1075  0.2967  0.4263
 1307SOL     OW 5300   2.047   0.787   2.324 -0.2685  0.4865 -0.6806
 1307SOL    HW2 5301   2.125   0.830   2.290 -0.0067  0.8203  0.3176
 1307SOL    HW3 5302   1.974   0.833   2.282  0.0235  1.5466 -0.0587
 1307SOL    MW4 5303   2.048   0.799   2.314 -0.1953  0.6704 -0.4668
 1308SOL     OW 5304   1.801   0.888   2.232 -0.2783 -0.3273  0.4510
 1308SOL    HW2 5305   1.791   0.982   2.247  0.3150  0.1436 -1.7583
 1308SOL    HW3 5306   1.811   0.881   2.137  1.3854 -2.4523  0.7403
 1308SOL    MW4 5307   1.801   0.900   2.221  0.0196 -0.5456  0.1974
 1309SOL     OW 5308   1.781   1.161   2.335 -0.4943 -0.2952 -0.0946
 1309SOL    HW2 5309   1.866   1.200   2.314 -0.4707 -1.0857 -1.5977
 1309SOL    HW3 5310   1.717   1.217   2.291 -0.5571 -1.0891 -1.0484
 1309SOL    MW4 5311   1.784   1.173   2.326 -0.4995 -0.5043 -0.4189
 1310SOL     OW 5312   2.020   1.285   2.227  0.0794  0.0776  0.1547
 1310SOL    HW2 5313   2.034   1.371   2.266 -0.0158 -0.3609  1.1830
 1310SOL    HW3 5314   2.013   1.301   2.133 -0.2139  1.2198  0.3702
 1310SOL    MW4 5315   2.021   1.298   2.220  0.0281  0.1705  0.3188
 1311SOL     OW 5316   2.024   1.553   2.317 -0.4737 -0.5972  0.1713
 1311SOL    HW2 5317   2.032   1.539   2.412 -0.0377  0.1300  0.2464
 1311SOL    HW3 5318   1.937   1.592   2.306 -0.5177 -0.6641  0.2740
 1311SOL    MW4 5319   2.014   1.556   2.328 -0.4220 -0.5100  0.1945
 1312SOL     OW 5320   1.788   1.694   2.238 -0.2931 -0.2713  0.4391
 1312SOL    HW2 5321   1.820   1.779   2.270 -2.0984  0.4615  0.3616
 1312SOL    HW3 5322   1.802   1.697   2.144 -2.7796  1.0519  0.0750
 1312SOL    MW4 5323   1.794   1.706   2.230 -0.8594  0.0001  0.3808
 1313SOL     OW 5324   1.833   1.951   2.312  0.4862  0.1140 -0.0506
 1313SOL    HW2 5325   1.819   1.963   2.406 -1.8209  0.5371 -0.4305
 1313SOL    HW3 5326   1.912   2.002   2.293 -0.6066  2.2981  1.1524
 1313SOL    MW4 5327   1.842   1.959   2.322  0.0377  0.4579  0.0579
 1314SOL     OW 5328   2.052   2.107   2.254  0.5603  0.0867 -0.5217
 1314SOL    HW2 5329   2.121   2.051   2.292 -0.4032 -1.4742 -1.0142
 1314SOL    HW3 5330   2.072   2.109   2.161 -0.2986 -0.7357 -0.7326
 1314SOL    MW4 5331   2.064   2.100   2.247  0.3197 -0.2277 -0.6144
 1315SOL     OW 5332   2.032   2.364   2.311 -0.2212 -0.0376 -0.0129
 1315SOL    HW2 5333   2.106   2.408   2.270 -1.5304 -0.0476 -2.4588
 1315SOL    HW3 5334   2.041   2.272   2.285 -1.2097  0.0034 -0.5425
 1315SOL    MW4 5335   2.043   2.358   2.302 -0.5240 -0.0334 -0.4055
 1316SOL     OW 5336   1.797   2.453   2.201 -0.1038 -0.5657  0.0587
 1316SOL    HW2 5337   1.874   2.411   2.239  0.2414  1.6937  1.9993
 1316SOL    HW3 5338   1.723   2.406   2.239  0.2755  0.2648  1.8722
 1316SOL    MW4 5339   1.797   2.441   2.211 -0.0082 -0.1578  0.5538
 1317SOL     OW 5340   1.820   2.717   2.279 -0.0699  0.1352 -0.2259
 1317SOL    HW2 5341   1.803   2.633   2.237 -0.0353 -0.6159  1.2464
 1317SOL    HW3 5342   1.739   2.767   2.265 -0.3409 -0.3854 -0.5315
 1317SOL    MW4 5343   1.807   2.713   2.272 -0.1011 -0.0322 -0.0718
 1318SOL     OW 5344   2.057   2.846   2.183  0.1873 -0.0210  0.0066
 1318SOL    HW2 5345   2.132   2.812   2.231  0.5541 -0.0044 -0.5590
 1318SOL    HW3 5346   1.982   2.800   2.221  0.4320  0.2430  0.8402
 1318SOL    MW4 5347   2.057   2.836   2.195  0.2680  0.0162  0.0420
 1319SOL     OW 5348   2.011   3.089   2.331 -0.4574 -0.0682 -0.2330
 1319SOL    HW2 5349   2.088   3.142   2.309 -1.3609  1.1276 -0.5530
 1319SOL    HW3 5350   2.026   3.006   2.287  0.5306  0.2554 -0.5272
 1319SOL    MW4 5351   2.023   3.085   2.322 -0.4461  0.1326 -0.3142
 1320SOL     OW 5352   1.788   3.236   2.294  0.3167  0.2727  0.2371
 1320SOL    HW2 5353   1.867   3.185   2.309  0.5923 -0.0053 -1.9599
 1320SOL    HW3 5354   1.716   3.179   2.323  0.8180 -0.1265  0.6889
 1320SOL    MW4 5355   1.789   3.221   2.300  0.4193  0.1833  0.0067
 1321SOL     OW 5356   1.779   3.486   2.380  0.2711 -0.0685  0.3200
 1321SOL    HW2 5357   1.771   3.397   2.347  2.2748 -0.4234  0.7220
 1321SOL    HW3 5358   1.713   3.535   2.332  0.6369 -1.3339 -1.5421
 1321SOL    MW4 5359   1.769   3.481   2.369  0.5836 -0.2823  0.1271
 1322SOL     OW 5360   1.983   3.628   2.246  0.0947  0.0723  0.4676
 1322SOL    HW2 5361   1.918   3.568   2.282  0.0777  0.6869  1.4805
 1322SOL    HW3 5362   1.975   3.619   2.151 -2.4920  1.2233  0.5537
 1322SOL    MW4 5363   1.974   3.619   2.238 -0.2489  0.3054  0.6130
 1323SOL     OW 5364   2.019   3.881   2.387 -0.2467  0.4264 -0.0582
 1323SOL    HW2 5365   2.035   3.878   2.482 -0.2414  1.1997 -0.0286
 1323SOL    HW3 5366   2.009   3.790   2.361 -2.0476  0.2908  1.0103
 1323SOL    MW4 5367   2.019   3.869   2.396 -0.4835  0.5107  0.0868
 1324SOL     OW 5368   1.799   4.026   2.266  0.3527  0.0868  0.1226
 1324SOL    HW2 5369   1.868   3.977   2.311 -0.8402 -1.7473  0.0002
 1324SOL    HW3 5370   1.814   4.008   2.173  1.3673  1.9452 -0.1053
 1324SOL    MW4 5371   1.810   4.017   2.259  0.3294  0.0901  0.0765
 1325SOL     OW 5372   1.803   4.290   2.357  0.0029  0.0293  0.2031
 1325SOL    HW2 5373   1.811   4.201   2.323  1.7245  0.1792  0.1834
 1325SOL    HW3 5374   1.728   4.327   2.310  1.1630 -0.4112 -2.0306
 1325SOL    MW4 5375   1.794   4.283   2.346  0.3830 -0.0086 -0.0942
 1326SOL     OW 5376   2.063   4.378   2.225  0.0316  0.4288 -0.0800
 1326SOL    HW2 5377   1.992   4.344   2.280  0.3360  0.6676  0.4527
 1326SOL    HW3 5378   2.021   4.392   2.140 -0.2888 -0.5194 -0.0858
 1326SOL    MW4 5379   2.048   4.376   2.221  0.0298  0.3352 -0.0103
 1327SOL     OW 5380   2.433   4.664   2.327  0.4670 -0.0531 -0.4029
 1327SOL    HW2 5381   2.518   4.704   2.309  0.7489 -0.0601  0.8725
 1327SOL    HW3 5382   2.441   4.574   2.294  1.3984 -0.4425  0.8679
 1327SOL    MW4 5383   2.445   4.657   2.320  0.6270 -0.1059 -0.0670
 1328SOL     OW 5384   2.226   0.129   2.193  0.2376 -0.4897  0.5298
 1328SOL    HW2 5385   2.219   0.216   2.231 -0.6304 -0.2471 -0.1666
 1328SOL    HW3 5386   2.289   0.083   2.249  0.4151  0.4624  1.1149
 1328SOL    MW4 5387   2.233   0.134   2.206  0.1464 -0.3321  0.5155
 1329SOL     OW 5388   2.256   0.353   2.331 -0.1490  0.0034  0.3166
 1329SOL    HW2 5389   2.332   0.403   2.303  0.6415 -1.5110 -0.2593
 1329SOL    HW3 5390   2.181   0.407   2.305  0.6693  0.3899 -1.2808
 1329SOL    MW4 5391   2.256   0.367   2.324  0.0632 -0.1454  0.0303
 1330SOL     OW 5392   2.452   0.526   2.251  0.5590 -0.2718  0.5063
 1330SOL    HW2 5393   2.540   0.494   2.272  0.0445 -1.2044  1.3145
 1330SOL    HW3 5394   2.451   0.617   2.281  1.3091 -0.2039  0.3214
 1330SOL    MW4 5395   2.463   0.534   2.258  0.5901 -0.3859  0.5884
 1331SOL     OW 5396   2.490   0.777   2.331  0.0018  0.2963 -0.4942
 1331SOL    HW2 5397   2.573   0.822   2.315 -0.0384  0.0355 -1.4481
 1331SOL    HW3 5398   2.484   0.773   2.426  1.3659 -0.2102 -0.4173
 1331SOL    MW4 5399   2.500   0.783   2.341  0.1764  0.1951 -0.6099
 1332SOL     OW 5400   2.268   0.926   2.244 -0.1483 -0.0209  0.3250
 1332SOL    HW2 5401   2.275   1.011   2.286 -0.1822 -0.9087  2.1536
 1332SOL    HW3 5402   2.349   0.880   2.267 -0.6301 -0.9010  0.3120
 1332SOL    MW4 5403   2.280   0.931   2.252 -0.2165 -0.2541  0.5648
 1333SOL     OW 5404   2.264   1.185   2.339  0.5304 -0.3658  0.0027
 1333SOL    HW2 5405   2.343   1.213   2.291  1.1892 -1.4479  0.4301
 1333SOL    HW3 5406   2.192   1.224   2.291  1.3722  1.2973  0.0433
 1333SOL    MW4 5407   2.265   1.194   2.327  0.7284 -0.2891  0.0644
 1334SOL     OW 5408   2.479   1.273   2.211 -0.7142 -0.0083 -0.1765
 1334SOL    HW2 5409   2.546   1.230   2.265  0.0736  0.5548 -0.7062
 1334SOL    HW3 5410   2.487   1.366   2.233 -0.4780  0.2112 -1.1539
 1334SOL    MW4 5411   2.489   1.279   2.221 -0.5794  0.0949 -0.3750
 1335SOL     OW 5412   2.451   1.543   2.281  0.3207 -0.4255 -0.1287
 1335SOL    HW2 5413   2.449   1.530   2.376 -1.0848  1.9738  0.2154
 1335SOL    HW3 5414   2.536   1.585   2.264 -0.1023  0.6053  0.2884
 1335SOL    MW4 5415   2.462   1.547   2.291  0.0794  0.0271 -0.0284
 1336SOL     OW 5416   2.230   1.708   2.206  0.5284 -0.0252  0.0270
 1336SOL    HW2 5417   2.308   1.664   2.242  0.5704  2.2548  2.8194
 1336SOL    HW3 5418   2.156   1.659   2.242  0.6029 -0.6643 -0.6586
 1336SOL    MW4 5419   2.231   1.696   2.215  0.5436  0.1913  0.3047
 1337SOL     OW 5420   2.248   1.940   2.352  0.0906 -0.2405 -0.5963
 1337SOL    HW2 5421   2.335   1.971   2.327 -0.1268  0.5170 -0.4285
 1337SOL    HW3 5422   2.228   1.871   2.289  0.1082  0.7262 -1.6874
 1337SOL    MW4 5423   2.257   1.935   2.341  0.0644 -0.0130 -0.7181
 1338SOL     OW 5424   2.489   2.024   2.251  0.0189  0.0092 -0.0959
 1338SOL    HW2 5425   2.564   1.975   2.284  0.9357  0.5088 -1.3843
 1338SOL    HW3 5426   2.507   2.036   2.158 -2.4700 -1.3328 -0.8068
 1338SOL    MW4 5427   2.501   2.019   2.243 -0.1886 -0.1016 -0.3598
 1339SOL     OW 5428   2.452   2.305   2.303  0.3389 -0.1333 -0.2590
 1339SOL    HW2 5429   2.540   2.343   2.301  0.0754  0.4216 -1.4144
 1339SOL    HW3 5430   2.466   2.212   2.284  0.6303  0.0246 -0.8078
 1339SOL    MW4 5431   2.465   2.298   2.301  0.3426 -0.0393 -0.4838
 1340SOL     OW 5432   2.264   2.470   2.179  0.3933 -0.4724 -0.2413
 1340SOL    HW2 5433   2.250   2.553   2.224  0.6462 -1.2691  1.3496
 1340SOL    HW3 5434   2.331   2.426   2.231 -2.2512 -3.1857  1.0795
 1340SOL    MW4 5435   2.271   2.475   2.192  0.0780 -0.9358  0.1426
 1341SOL     OW 5436   2.275   2.718   2.329  0.5096 -0.3099 -0.1341
 1341SOL    HW2 5437   2.267   2.697   2.422  1.2226 -0.0771 -0.0136
 1341SOL    HW3 5438   2.360   2.762   2.322  0.8830 -1.1564 -1.0420
 1341SOL    MW4 5439   2.285   2.721   2.340  0.6530 -0.3910 -0.2382
 1342SOL     OW 5440   2.514   2.846   2.254  0.3364 -0.0027 -0.5140
 1342SOL    HW2 5441   2.595   2.801   2.277  1.7471  2.3258 -0.8691
 1342SOL    HW3 5442   2.501   2.825   2.161  1.0020  0.3758 -0.6898
 1342SOL    MW4 5443   2.523   2.837   2.245  0.6106  0.3543 -0.5841
 1343SOL     OW 5444   2.485   3.126   2.338 -0.5372 -0.2727 -0.2017
 1343SOL    HW2 5445   2.569   3.170   2.320  1.1439 -2.2679  2.3724
 1343SOL    HW3 5446   2.496   3.039   2.299 -1.9272 -0.1194 -0.9426
 1343SOL    MW4 5447   2.498   3.120   2.330 -0.4988 -0.5155  0.0403
 1344SOL     OW 5448   2.236   3.242   2.272  0.1167  0.0511 -0.0159
 1344SOL    HW2 5449   2.247   3.335   2.296 -0.5304  0.4190 -1.1109
 1344SOL    HW3 5450   2.316   3.200   2.304  0.4685  1.0107  0.3962
 1344SOL    MW4 5451   2.248   3.249   2.280  0.0777  0.2263 -0.1059
 1345SOL     OW 5452   2.228   3.532   2.315 -0.1947  0.0831  0.7882
 1345SOL    HW2 5453   2.215   3.517   2.409 -0.9814 -1.2572  0.4778
 1345SOL    HW3 5454   2.141   3.555   2.282 -0.2055 -0.8140  0.1540
 1345SOL    MW4 5455   2.215   3.533   2.323 -0.2999 -0.2122  0.6635
 1346SOL     OW 5456   2.486   3.619   2.255  0.0685  0.1064 -0.2261
 1346SOL    HW2 5457   2.490   3.709   2.287 -0.5201  0.5094 -1.2802
 1346SOL    HW3 5458   2.398   3.589   2.279  0.9208 -0.8653  1.8712
 1346SOL    MW4 5459   2.474   3.627   2.263  0.1035  0.0315 -0.0882
 1347SOL     OW 5460   2.492   3.877   2.339 -0.1741 -0.0264 -0.0888
 1347SOL    HW2 5461   2.478   3.869   2.434 -1.6583 -0.7664 -0.3481
 1347SOL    HW3 5462   2.411   3.916   2.307  0.6672  1.0106 -0.9494
 1347SOL    MW4 5463   2.479   3.881   2.347 -0.2589  0.0129 -0.2365
 1348SOL     OW 5464   2.241   3.983   2.273 -0.1294  0.1156 -0.3547
 1348SOL    HW2 5465   2.253   4.074   2.301 -0.6055  0.2627 -0.6204
 1348SOL    HW3 5466   2.158   3.957   2.312 -0.0875 -0.1441 -0.4386
 1348SOL    MW4 5467   2.232   3.992   2.282 -0.1867  0.1009 -0.4008
 1349SOL     OW 5468   2.278   4.250   2.332 -0.0168  0.3321  0.0392
 1349SOL    HW2 5469   2.253   4.239   2.424 -0.3148  1.4530  0.0961
 1349SOL    HW3 5470   2.209   4.304   2.294  1.3381  1.8689 -0.2682
 1349SOL    MW4 5471   2.265   4.255   2.339  0.1228  0.6828  0.0062
 1350SOL     OW 5472   2.500   4.395   2.249  0.4777  0.5279  0.0424
 1350SOL    HW2 5473   2.584   4.368   2.287  0.9230  0.5598 -0.8760
 1350SOL    HW3 5474   2.437   4.332   2.282  1.2549 -0.8181 -0.9691
 1350SOL    MW4 5475   2.503   4.383   2.258  0.6390  0.3548 -0.2124
 1351SOL     OW 5476   2.920   4.650   2.337  0.4959 -0.5207 -0.0895
 1351SOL    HW2 5477   2.995   4.696   2.300  0.6215 -0.6953 -0.0528
 1351SOL    HW3 5478   2.938   4.557   2.320 -0.1683 -0.4998 -0.9092
 1351SOL    MW4 5479   2.933   4.644   2.330  0.4249 -0.5407 -0.1926
 1352SOL     OW 5480   2.674   0.102   2.239 -0.2799  0.0397  0.1933
 1352SOL    HW2 5481   2.676   0.196   2.254  1.3960  0.1601 -0.6490
 1352SOL    HW3 5482   2.758   0.071   2.273 -0.6425 -1.0987  0.0721
 1352SOL    MW4 5483   2.685   0.110   2.246 -0.1066 -0.0946  0.0660
 1353SOL     OW 5484   2.686   0.384   2.297 -0.8246 -0.1992 -0.0188
 1353SOL    HW2 5485   2.676   0.378   2.392 -1.7192 -0.0047 -0.0974
 1353SOL    HW3 5486   2.775   0.417   2.285 -0.8586  0.1972  0.7631
 1353SOL    MW4 5487   2.696   0.388   2.308 -0.9470 -0.1212  0.0739
 1354SOL     OW 5488   2.932   0.482   2.246  0.2811  0.1887  0.4824
 1354SOL    HW2 5489   2.949   0.571   2.279  0.6655 -0.2522  1.4920
 1354SOL    HW3 5490   2.910   0.495   2.154  1.3553  1.2347  0.3565
 1354SOL    MW4 5491   2.931   0.496   2.239  0.4735  0.2685  0.5989
 1355SOL     OW 5492   2.957   0.752   2.340 -0.1025  0.0475  0.2826
 1355SOL    HW2 5493   2.950   0.771   2.433  0.5149  0.6645  0.2125
 1355SOL    HW3 5494   2.879   0.793   2.301 -0.5301 -0.4943  0.5632
 1355SOL    MW4 5495   2.946   0.760   2.347 -0.0770  0.0574  0.3104
 1356SOL     OW 5496   2.730   0.913   2.264  0.2137  0.3636 -0.0992
 1356SOL    HW2 5497   2.722   0.998   2.307 -1.6080  0.6494 -0.9714
 1356SOL    HW3 5498   2.715   0.931   2.172 -0.2535 -0.9276 -0.2791
 1356SOL    MW4 5499   2.727   0.927   2.258 -0.0882  0.2310 -0.2379
 1357SOL     OW 5500   2.701   1.172   2.362 -0.1371  0.5225 -0.3010
 1357SOL    HW2 5501   2.719   1.174   2.456 -0.5826  0.6894 -0.2173
 1357SOL    HW3 5502   2.784   1.199   2.322 -0.2196  1.3638  0.0819
 1357SOL    MW4 5503   2.715   1.176   2.369 -0.2069  0.6555 -0.2396
 1358SOL     OW 5504   2.945   1.287   2.246 -0.3130  0.4220  0.0692
 1358SOL    HW2 5505   3.030   1.251   2.271  0.9088  2.5975 -0.8797
 1358SOL    HW3 5506   2.942   1.279   2.151 -0.5958  1.5853 -0.0262
 1358SOL    MW4 5507   2.956   1.281   2.237 -0.1895  0.8626 -0.0684
 1359SOL     OW 5508   2.929   1.544   2.354 -0.0428  0.5586  0.0318
 1359SOL    HW2 5509   2.935   1.534   2.449  0.8189  0.3632 -0.0369
 1359SOL    HW3 5510   2.945   1.456   2.319 -0.3396  0.6319 -0.2979
 1359SOL    MW4 5511   2.932   1.531   2.362  0.0315  0.5425 -0.0207
 1360SOL     OW 5512   2.690   1.677   2.236 -0.1573 -0.2795  0.1415
 1360SOL    HW2 5513   2.767   1.624   2.259  0.5492  0.1796 -1.1308
 1360SOL    HW3 5514   2.709   1.763   2.272  1.3716  0.6977 -2.8635
 1360SOL    MW4 5515   2.703   1.681   2.244  0.1376 -0.0900 -0.4227
 1361SOL     OW 5516   2.723   1.922   2.368  0.0791  0.8463 -0.4629
 1361SOL    HW2 5517   2.731   1.934   2.463 -0.9233  0.1239 -0.2731
 1361SOL    HW3 5518   2.797   1.970   2.331  1.0780  0.2579  0.7406
 1361SOL    MW4 5519   2.734   1.930   2.376  0.0787  0.6732 -0.2789
 1362SOL     OW 5520   2.945   2.043   2.253 -0.2838  0.2520  0.0324
 1362SOL    HW2 5521   2.955   2.137   2.269 -0.4362  0.5741 -1.6446
 1362SOL    HW3 5522   3.018   2.003   2.299  0.9884  1.3854 -0.9487
 1362SOL    MW4 5523   2.956   2.050   2.261 -0.1359  0.4439 -0.3185
 1363SOL     OW 5524   2.948   2.321   2.286  0.2309 -0.0330 -0.0698
 1363SOL    HW2 5525   2.951   2.306   2.380  0.8880 -1.7502 -0.3465
 1363SOL    HW3 5526   2.858   2.350   2.269  0.4015  1.3098  1.2046
 1363SOL    MW4 5527   2.937   2.323   2.296  0.3405 -0.0825  0.0618
 1364SOL     OW 5528   2.688   2.421   2.251 -0.0288 -0.2536  0.2178
 1364SOL    HW2 5529   2.702   2.509   2.286  1.9552 -0.5793  0.2542
 1364SOL    HW3 5530   2.701   2.430   2.157  1.1463 -0.7034  0.3352
 1364SOL    MW4 5531   2.691   2.434   2.243  0.3881 -0.3562  0.2382
 1365SOL     OW 5532   2.759   2.687   2.328  0.3551 -0.2373 -0.6293
 1365SOL    HW2 5533   2.833   2.744   2.308  0.3409  0.4113  1.0983
 1365SOL    HW3 5534   2.727   2.718   2.412  0.1122 -2.5681  0.1702
 1365SOL    MW4 5535   2.764   2.699   2.336  0.3211 -0.4592 -0.2956
 1366SOL     OW 5536   2.968   2.858   2.253 -0.0169  0.8618 -0.1696
 1366SOL    HW2 5537   2.961   2.951   2.274  1.2075  1.1330 -0.9379
 1366SOL    HW3 5538   2.961   2.854   2.157  0.6724  0.2307 -0.1985
 1366SOL    MW4 5539   2.966   2.869   2.243  0.2356  0.8144 -0.2747
 1367SOL     OW 5540   2.953   3.114   2.342  0.0274  0.2082 -0.1631
 1367SOL    HW2 5541   3.024   3.164   2.302  0.3035 -0.6617 -0.7663
 1367SOL    HW3 5542   2.873   3.151   2.305  0.2754 -0.5406 -1.4940
 1367SOL    MW4 5543   2.952   3.125   2.332  0.0968 -0.0055 -0.4182
 1368SOL     OW 5544   2.724   3.234   2.250 -0.1311  0.2180 -0.0064
 1368SOL    HW2 5545   2.734   3.328   2.264  0.7488  0.1515 -0.1690
 1368SOL    HW3 5546   2.705   3.226   2.156 -2.4051  0.3888  0.4101
 1368SOL    MW4 5547   2.723   3.245   2.239 -0.3150  0.2317  0.0269
 1369SOL     OW 5548   2.727   3.516   2.356 -0.0324 -0.7860 -0.3036
 1369SOL    HW2 5549   2.712   3.511   2.450 -0.5521  1.8148 -0.2037
 1369SOL    HW3 5550   2.642   3.540   2.320  0.8319  1.2266 -1.0935
 1369SOL    MW4 5551   2.714   3.519   2.364  0.0131 -0.1774 -0.3948
 1370SOL     OW 5552   2.961   3.643   2.258  0.3085  0.1541 -0.0607
 1370SOL    HW2 5553   2.875   3.605   2.276  0.9553 -0.8280  1.0203
 1370SOL    HW3 5554   2.959   3.729   2.301 -0.6420  0.7687 -1.2928
 1370SOL    MW4 5555   2.949   3.650   2.266  0.2685  0.1056 -0.0806
 1371SOL     OW 5556   2.945   3.905   2.357 -0.5162  0.1067  0.4426
 1371SOL    HW2 5557   2.930   3.876   2.447 -0.3061 -1.9688 -0.1640
 1371SOL    HW3 5558   2.859   3.932   2.326 -1.0258 -1.3540  0.5416
 1371SOL    MW4 5559   2.932   3.905   2.365 -0.5555 -0.3600  0.3755
 1372SOL     OW 5560   2.716   4.023   2.263  0.2201  0.3974  0.0139
 1372SOL    HW2 5561   2.648   3.959   2.283  0.0197  1.3991  2.6875
 1372SOL    HW3 5562   2.715   4.029   2.167 -3.5652  0.5139 -0.0245
 1372SOL    MW4 5563   2.707   4.016   2.253 -0.3059  0.5445  0.3619
 1373SOL     OW 5564   2.709   4.275   2.371 -0.4967  0.0153  0.5133
 1373SOL    HW2 5565   2.703   4.267   2.466 -0.9651  0.5754  0.5354
 1373SOL    HW3 5566   2.704   4.185   2.339 -1.6507 -0.0895  0.9519
 1373SOL    MW4 5567   2.707   4.262   2.379 -0.7107  0.0753  0.5741
 1374SOL     OW 5568   2.954   4.396   2.259 -0.0332  0.0937  0.3371
 1374SOL    HW2 5569   3.034   4.351   2.287  0.8094  1.5882  0.4064
 1374SOL    HW3 5570   2.884   4.349   2.303  0.6798 -2.0860 -0.7862
 1374SOL    MW4 5571   2.956   4.384   2.269  0.1721  0.0033  0.1981
 1375SOL     OW 5572   3.420   0.020   2.367  0.2348  0.1238 -0.4476
 1375SOL    HW2 5573   3.408   0.024   2.462  0.1528 -2.0865 -0.3515
 1375SOL    HW3 5574   3.502   0.067   2.351  0.7448 -0.3379  0.8118
 1375SOL    MW4 5575   3.429   0.027   2.377  0.2913 -0.2287 -0.2687
 1376SOL     OW 5576   3.173   0.091   2.243 -0.0882 -0.0997  0.1220
 1376SOL    HW2 5577   3.169   0.177   2.285  0.6448  0.9054 -1.7916
 1376SOL    HW3 5578   3.255   0.053   2.275 -0.5823 -0.2461  1.2410
 1376SOL    MW4 5579   3.183   0.097   2.253 -0.0567  0.0136  0.0169
 1377SOL     OW 5580   3.151   0.341   2.350 -0.1170 -0.0258  0.1206
 1377SOL    HW2 5581   3.228   0.392   2.323 -0.7142  0.9914  0.3104
 1377SOL    HW3 5582   3.081   0.372   2.293 -1.1260  1.3191  2.0489
 1377SOL    MW4 5583   3.152   0.352   2.339 -0.3290  0.2858  0.4001
 1378SOL     OW 5584   3.366   0.495   2.280  0.0599 -0.4911  0.8850
 1378SOL    HW2 5585   3.441   0.457   2.325 -0.0629  0.3869  1.8627
 1378SOL    HW3 5586   3.362   0.585   2.313  0.1948  0.2955 -1.1638
 1378SOL    MW4 5587   3.375   0.502   2.290  0.0615 -0.2715  0.7436
 1379SOL     OW 5588   3.367   0.780   2.340 -0.1280  0.0339  0.0179
 1379SOL    HW2 5589   3.450   0.824   2.325  0.0844 -0.3466  0.0773
 1379SOL    HW3 5590   3.358   0.775   2.435  0.9718 -2.1410  0.0420
 1379SOL    MW4 5591   3.377   0.785   2.350  0.0451 -0.3031  0.0291
 1380SOL     OW 5592   3.161   0.898   2.216 -0.3334 -0.2355  0.5939
 1380SOL    HW2 5593   3.245   0.863   2.245  0.2842 -1.3930 -2.4701
 1380SOL    HW3 5594   3.096   0.848   2.265  0.7033 -1.3547  0.8568
 1380SOL    MW4 5595   3.163   0.887   2.226 -0.1152 -0.5359  0.2244
 1381SOL     OW 5596   3.153   1.150   2.339  0.0517 -0.4578  0.0964
 1381SOL    HW2 5597   3.231   1.194   2.305 -0.9936  0.6359 -0.9619
 1381SOL    HW3 5598   3.156   1.063   2.300  0.4811 -0.2605 -0.3195
 1381SOL    MW4 5599   3.164   1.144   2.330 -0.0298 -0.2874 -0.0980
 1382SOL     OW 5600   3.367   1.282   2.230 -0.3898 -0.3125  0.2945
 1382SOL    HW2 5601   3.448   1.240   2.260 -0.8034 -1.2720  0.0871
 1382SOL    HW3 5602   3.367   1.368   2.273  0.2295 -0.7180  1.1154
 1382SOL    MW4 5603   3.377   1.288   2.240 -0.3629 -0.4926  0.3755
 1383SOL     OW 5604   3.393   1.536   2.382 -0.3067  0.3200  0.2511
 1383SOL    HW2 5605   3.389   1.530   2.477  0.7555  0.4566  0.3094
 1383SOL    HW3 5606   3.322   1.597   2.359 -0.9111 -0.1341  0.9001
 1383SOL    MW4 5607   3.383   1.544   2.391 -0.2463  0.2779  0.3445
 1384SOL     OW 5608   3.166   1.669   2.278  0.0381 -0.5536 -0.1640
 1384SOL    HW2 5609   3.171   1.764   2.290  1.7007 -0.6128 -0.3138
 1384SOL    HW3 5610   3.087   1.643   2.325 -0.1731  0.8470  0.2735
 1384SOL    MW4 5611   3.156   1.678   2.286  0.2298 -0.3766 -0.1261
 1385SOL     OW 5612   3.161   1.921   2.366  0.1843 -0.0650 -0.1114
 1385SOL    HW2 5613   3.161   1.939   2.460 -0.0292  1.3684 -0.3654
 1385SOL    HW3 5614   3.241   1.963   2.334 -0.9354  1.5323 -0.9151
 1385SOL    MW4 5615   3.172   1.929   2.374  0.0083  0.3349 -0.2511
 1386SOL     OW 5616   3.380   2.078   2.277 -0.5845 -0.0431  0.2383
 1386SOL    HW2 5617   3.450   2.023   2.311 -0.2955  0.7067  0.8837
 1386SOL    HW3 5618   3.395   2.082   2.183  0.2915  0.1775  0.3866
 1386SOL    MW4 5619   3.391   2.071   2.269 -0.4311  0.0849  0.3428
 1387SOL     OW 5620   3.374   2.346   2.367  0.4284 -0.3069  0.7507
 1387SOL    HW2 5621   3.312   2.395   2.312  0.6722  0.7910  1.4472
 1387SOL    HW3 5622   3.370   2.256   2.333  1.5897  0.6026 -1.9790
 1387SOL    MW4 5623   3.365   2.340   2.355  0.6139 -0.0420  0.4826
 1388SOL     OW 5624   3.179   2.465   2.198 -0.9818  0.5880 -0.1537
 1388SOL    HW2 5625   3.180   2.550   2.244 -0.4857  0.5681 -0.1312
 1388SOL    HW3 5626   3.093   2.428   2.219 -0.4078  0.1660  1.5081
 1388SOL    MW4 5627   3.167   2.472   2.207 -0.8409  0.5298  0.0684
 1389SOL     OW 5628   3.177   2.698   2.336  0.4338  0.4222 -0.1055
 1389SOL    HW2 5629   3.173   2.683   2.430 -0.2339  1.5031  0.0533
 1389SOL    HW3 5630   3.103   2.757   2.318 -1.5700 -2.5087 -1.8492
 1389SOL    MW4 5631   3.166   2.704   2.346  0.0813  0.1781 -0.3147
 1390SOL     OW 5632   3.403   2.823   2.195  0.2410 -0.0802  0.3540
 1390SOL    HW2 5633   3.489   2.783   2.207  0.6274  0.6113 -0.1473
 1390SOL    HW3 5634   3.342   2.758   2.230  0.9619 -0.5806  0.6874
 1390SOL    MW4 5635   3.406   2.809   2.201  0.3874 -0.0551  0.3314
 1391SOL     OW 5636   3.378   3.071   2.313 -0.4947  0.0796  0.4905
 1391SOL    HW2 5637   3.464   3.100   2.283 -0.5895 -0.4663 -0.3356
 1391SOL    HW3 5638   3.371   2.980   2.282 -1.1837 -0.0275  0.9382
 1391SOL    MW4 5639   3.388   3.063   2.305 -0.5982 -0.0064  0.4406
 1392SOL     OW 5640   3.172   3.224   2.228  0.1706  0.1761 -0.3919
 1392SOL    HW2 5641   3.181   3.311   2.268  2.4319 -0.0785 -0.2844
 1392SOL    HW3 5642   3.229   3.168   2.280 -1.8243 -1.5607 -0.0193
 1392SOL    MW4 5643   3.181   3.228   2.240  0.2062 -0.0868 -0.3285
 1393SOL     OW 5644   3.163   3.477   2.353  0.2532  0.1160 -0.1151
 1393SOL    HW2 5645   3.144   3.473   2.446 -1.0409 -0.2042 -0.3819
 1393SOL    HW3 5646   3.092   3.530   2.316  0.2100 -0.5602 -1.0451
 1393SOL    MW4 5647   3.151   3.483   2.360  0.0768 -0.0155 -0.2728
 1394SOL     OW 5648   3.395   3.589   2.253  0.3323  0.3642 -0.4085
 1394SOL    HW2 5649   3.466   3.533   2.284  0.5958  0.4231 -0.9116
 1394SOL    HW3 5650   3.316   3.547   2.287  0.5616 -0.0397 -0.3668
 1394SOL    MW4 5651   3.394   3.576   2.261  0.3974  0.3185 -0.4692
 1395SOL     OW 5652   3.362   3.852   2.304  0.0599  0.2348 -0.0126
 1395SOL    HW2 5653   3.442   3.892   2.270 -0.6764 -0.7024 -3.0294
 1395SOL    HW3 5654   3.380   3.758   2.301 -0.7303  0.0660  0.4448
 1395SOL    MW4 5655   3.375   3.845   2.299 -0.1414  0.0889 -0.3502
 1396SOL     OW 5656   3.171   4.035   2.243 -0.1517 -0.3775 -0.1024
 1396SOL    HW2 5657   3.243   3.977   2.268  0.4946 -0.2985 -1.7480
 1396SOL    HW3 5658   3.092   3.991   2.277  0.6275 -0.5968  1.4642
 1396SOL    MW4 5659   3.170   4.022   2.251  0.0367 -0.3963 -0.1125
 1397SOL     OW 5660   3.177   4.288   2.372  0.0358  0.3035 -0.4904
 1397SOL    HW2 5661   3.251   4.343   2.346 -0.6810  0.6869 -1.7634
 1397SOL    HW3 5662   3.185   4.210   2.317 -0.0755  0.0007 -0.0820
 1397SOL    MW4 5663   3.188   4.285   2.361 -0.0737  0.3142 -0.6044
 1398SOL     OW 5664   3.395   4.430   2.270 -0.1364 -0.1908 -0.0085
 1398SOL    HW2 5665   3.426   4.516   2.298  0.1864 -0.0432 -0.7995
 1398SOL    HW3 5666   3.393   4.435   2.174  1.4895 -1.6070 -0.1426
 1398SOL    MW4 5667   3.399   4.442   2.261  0.1209 -0.3581 -0.1307
 1399SOL     OW 5668   3.873   4.652   2.295 -0.0520 -0.2132 -0.2065
 1399SOL    HW2 5669   3.859   4.663   2.389  1.0115  0.0906 -0.0760
 1399SOL    HW3 5670   3.937   4.720   2.273  0.8322 -1.2496 -0.8547
 1399SOL    MW4 5671   3.880   4.662   2.305  0.2050 -0.3099 -0.2749
 1400SOL     OW 5672   3.637   0.139   2.216  0.2556  0.2730  0.6083
 1400SOL    HW2 5673   3.636   0.212   2.278  1.3898  0.4807  0.3943
 1400SOL    HW3 5674   3.724   0.101   2.226 -0.2927 -1.0059  0.6620
 1400SOL    MW4 5675   3.648   0.143   2.226  0.3331  0.1317  0.5872
 1401SOL     OW 5676   3.599   0.360   2.379  0.5443 -0.0485  0.0653
 1401SOL    HW2 5677   3.602   0.386   2.471  0.8417  0.1227  0.0061
 1401SOL    HW3 5678   3.675   0.401   2.339 -0.1979  0.7970 -0.5063
 1401SOL    MW4 5679   3.609   0.369   2.386  0.4857  0.0857 -0.0179
 1402SOL     OW 5680   3.806   0.505   2.243 -0.5945  0.3275  0.2737
 1402SOL    HW2 5681   3.814   0.582   2.298 -0.5325  1.0135 -0.6867
 1402SOL    HW3 5682   3.821   0.537   2.154 -0.6556 -0.7694 -0.1421
 1402SOL    MW4 5683   3.809   0.519   2.238 -0.5944  0.2733  0.0920
 1403SOL     OW 5684   3.855   0.736   2.378 -0.1391  0.1506  0.3026
 1403SOL    HW2 5685   3.833   0.762   2.467  1.9091  1.4139  0.4586
 1403SOL    HW3 5686   3.920   0.800   2.349 -0.1427 -0.7518 -1.7885
 1403SOL    MW4 5687   3.860   0.748   2.386  0.1307  0.1982  0.0474
 1404SOL     OW 5688   3.645   0.874   2.248 -0.1318  0.3535 -0.3836
 1404SOL    HW2 5689   3.723   0.830   2.283 -0.0719 -0.5816 -1.6411
 1404SOL    HW3 5690   3.661   0.879   2.153 -0.9938  1.3969 -0.4851
 1404SOL    MW4 5691   3.658   0.869   2.240 -0.2377  0.3678 -0.5629
 1405SOL     OW 5692   3.558   1.134   2.349  0.5926 -0.1989  0.3747
 1405SOL    HW2 5693   3.574   1.139   2.443  0.5116 -1.7502  0.4819
 1405SOL    HW3 5694   3.579   1.044   2.326  0.9047  0.2522 -1.1561
 1405SOL    MW4 5695   3.563   1.123   2.358  0.6227 -0.3440  0.1867
 1406SOL     OW 5696   3.786   1.240   2.276 -0.0738 -0.2682  0.0609
 1406SOL    HW2 5697   3.801   1.328   2.310  0.5675 -0.4427  0.2285
 1406SOL    HW3 5698   3.697   1.219   2.304 -0.6108  0.7115 -0.8357
 1406SOL    MW4 5699   3.776   1.249   2.284 -0.0601 -0.1619 -0.0350
 1407SOL     OW 5700   3.812   1.498   2.369  0.2655  0.1224  0.2018
 1407SOL    HW2 5701   3.812   1.512   2.464  2.3991  1.3789  0.0564
 1407SOL    HW3 5702   3.750   1.563   2.335 -0.2453 -0.1026  0.6951
 1407SOL    MW4 5703   3.804   1.508   2.377  0.4792  0.2584  0.2475
 1408SOL     OW 5704   3.618   1.663   2.271  0.0411 -0.3062  0.3776
 1408SOL    HW2 5705   3.556   1.615   2.326  2.0015 -0.5582  2.4562
 1408SOL    HW3 5706   3.584   1.653   2.182 -1.4907 -2.6156  1.1651
 1408SOL    MW4 5707   3.605   1.655   2.266  0.0978 -0.6442  0.7558
 1409SOL     OW 5708   3.595   1.917   2.375  0.0984 -0.1751  0.5172
 1409SOL    HW2 5709   3.670   1.959   2.334 -0.1393  0.6065  0.8713
 1409SOL    HW3 5710   3.595   1.828   2.340  1.1188 -0.1449  0.4333
 1409SOL    MW4 5711   3.605   1.911   2.365  0.2017 -0.0681  0.5529
 1410SOL     OW 5712   3.834   2.028   2.257  0.1609  0.1733  0.1899
 1410SOL    HW2 5713   3.912   1.976   2.278  1.5671  2.8922  1.9493
 1410SOL    HW3 5714   3.819   2.013   2.164  1.9960 -1.4077  0.1248
 1410SOL    MW4 5715   3.842   2.019   2.248  0.5884  0.3235  0.4137
 1411SOL     OW 5716   3.815   2.284   2.336 -0.1107 -0.2606 -0.5103
 1411SOL    HW2 5717   3.730   2.322   2.312 -1.1550 -2.0370  0.3179
 1411SOL    HW3 5718   3.813   2.196   2.298  0.7721 -0.8370  0.7623
 1411SOL    MW4 5719   3.803   2.278   2.328 -0.1318 -0.5710 -0.2329
 1412SOL     OW 5720   3.601   2.440   2.249 -0.4318  0.2429 -0.4402
 1412SOL    HW2 5721   3.518   2.411   2.289  0.7129 -3.4267 -0.5144
 1412SOL    HW3 5722   3.589   2.422   2.156  1.2141 -2.5928 -0.1858
 1412SOL    MW4 5723   3.588   2.434   2.242 -0.0637 -0.6156 -0.4165
 1413SOL     OW 5724   3.640   2.715   2.305 -0.3335 -0.3115  0.1084
 1413SOL    HW2 5725   3.616   2.625   2.282  0.1586 -0.1472 -1.0551
 1413SOL    HW3 5726   3.635   2.717   2.401 -1.1700 -1.3433  0.0917
 1413SOL    MW4 5727   3.637   2.703   2.315 -0.3788 -0.4261 -0.0472
 1414SOL     OW 5728   3.865   2.863   2.222 -0.2832  0.1144 -0.0541
 1414SOL    HW2 5729   3.855   2.936   2.283 -2.9581 -0.0884 -0.1862
 1414SOL    HW3 5730   3.785   2.811   2.234  1.2020 -2.3541 -0.5366
 1414SOL    MW4 5731   3.853   2.866   2.232 -0.4401 -0.2379 -0.1352
 1415SOL     OW 5732   3.820   3.067   2.386  0.3060 -0.0059  0.3377
 1415SOL    HW2 5733   3.827   3.074   2.481  0.6201 -1.3362  0.4154
 1415SOL    HW3 5734   3.882   3.133   2.353  1.4801 -0.7268  1.0558
 1415SOL    MW4 5735   3.829   3.077   2.394  0.5023 -0.2766  0.4425
 1416SOL     OW 5736   3.627   3.181   2.234  0.2093 -0.3147 -0.7043
 1416SOL    HW2 5737   3.626   3.262   2.284 -0.3735 -0.5172 -0.3882
 1416SOL    HW3 5738   3.711   3.141   2.255 -0.3592 -0.7867  0.7485
 1416SOL    MW4 5739   3.638   3.186   2.243  0.0575 -0.4039 -0.4711
 1417SOL     OW 5740   3.602   3.429   2.348  0.0012 -0.2060  0.2058
 1417SOL    HW2 5741   3.588   3.455   2.439  1.2774 -1.9049  0.8992
 1417SOL    HW3 5742   3.683   3.473   2.323 -0.0751 -0.1602  0.0344
 1417SOL    MW4 5743   3.611   3.438   2.356  0.1595 -0.4239  0.2747
 1418SOL     OW 5744   3.821   3.589   2.250  0.0463 -0.4164  0.0090
 1418SOL    HW2 5745   3.819   3.678   2.285  0.3710 -0.7891  0.9902
 1418SOL    HW3 5746   3.807   3.600   2.156  2.4523  0.8610 -0.2402
 1418SOL    MW4 5747   3.819   3.602   2.242  0.4065 -0.2971  0.1056
 1419SOL     OW 5748   3.827   3.846   2.316  0.3901 -0.0902 -0.3196
 1419SOL    HW2 5749   3.833   3.856   2.411 -0.2526  0.5016 -0.3397
 1419SOL    HW3 5750   3.891   3.908   2.282 -0.2203  0.5577 -0.3026
 1419SOL    MW4 5751   3.836   3.856   2.324  0.2248  0.0734 -0.3200
 1420SOL     OW 5752   3.595   3.974   2.244  0.1293  0.3935 -0.0176
 1420SOL    HW2 5753   3.605   4.061   2.284  0.7945 -0.3317  1.4048
 1420SOL    HW3 5754   3.675   3.927   2.269 -0.5190 -0.8418 -0.2627
 1420SOL    MW4 5755   3.607   3.980   2.253  0.1314  0.1349  0.1378
 1421SOL     OW 5756   3.612   4.257   2.345  0.0250 -0.2319  0.1517
 1421SOL    HW2 5757   3.687   4.313   2.327  0.5762 -1.2556 -0.7636
 1421SOL    HW3 5758   3.536   4.310   2.320  0.5476  0.0440 -0.8725
 1421SOL    MW4 5759   3.612   4.271   2.340  0.1667 -0.3309 -0.1040
 1422SOL     OW 5760   3.848   4.391   2.259  0.3048 -0.4382  0.2899
 1422SOL    HW2 5761   3.926   4.342   2.285  0.7610  1.5109  2.7860
 1422SOL    HW3 5762   3.869   4.482   2.278 -1.8354  0.3258 -0.9175
 1422SOL    MW4 5763   3.861   4.396   2.265  0.0825 -0.0801  0.4601
 1423SOL     OW 5764   4.261   4.656   2.342  0.4342 -0.1415  0.4156
 1423SOL    HW2 5765   4.257   4.664   2.437 -1.1159  2.2436  0.2015
 1423SOL    HW3 5766   4.348   4.685   2.318  0.8721 -0.8718  1.1003
 1423SOL    MW4 5767   4.272   4.661   2.351  0.2871  0.0768  0.4778
 1424SOL     OW 5768   4.085   0.148   2.213 -0.0992  0.0170 -0.2735
 1424SOL    HW2 5769   4.076   0.228   2.265 -0.2838 -0.7088  0.8329
 1424SOL    HW3 5770   4.142   0.092   2.265 -0.9722 -1.0570 -0.4523
 1424SOL    MW4 5771   4.091   0.151   2.227 -0.2394 -0.2204 -0.1512
 1425SOL     OW 5772   4.018   0.369   2.379 -0.6287 -0.1022  0.0043
 1425SOL    HW2 5773   4.090   0.420   2.342  1.4681 -3.7978 -1.3158
 1425SOL    HW3 5774   3.940   0.398   2.331  0.6956  1.0075 -1.4986
 1425SOL    MW4 5775   4.017   0.379   2.368 -0.1769 -0.4434 -0.3676
 1426SOL     OW 5776   4.223   0.496   2.249  0.1981 -0.0157 -0.4117
 1426SOL    HW2 5777   4.223   0.578   2.297 -0.1754 -0.6398  0.6817
 1426SOL    HW3 5778   4.300   0.449   2.281 -0.0888 -0.4612 -0.3624
 1426SOL    MW4 5779   4.233   0.500   2.259  0.1111 -0.1568 -0.2611
 1427SOL     OW 5780   4.267   0.757   2.374 -0.4840 -0.6383 -0.9802
 1427SOL    HW2 5781   4.195   0.804   2.332  0.1964 -0.3210 -1.8028
 1427SOL    HW3 5782   4.346   0.788   2.329  0.3401  0.1674  0.9322
 1427SOL    MW4 5783   4.268   0.767   2.363 -0.2856 -0.4902 -0.8364
 1428SOL     OW 5784   4.050   0.868   2.227  0.0543 -0.1392  0.0010
 1428SOL    HW2 5785   4.060   0.962   2.242 -1.5205 -0.1323  1.1116
 1428SOL    HW3 5786   4.042   0.859   2.132 -1.4495  1.0331  0.0033
 1428SOL    MW4 5787   4.050   0.879   2.216 -0.3519  0.0165  0.1481
 1429SOL     OW 5788   4.031   1.130   2.322  0.3971 -0.5785  0.1434
 1429SOL    HW2 5789   4.034   1.144   2.417  1.7516  1.4595 -0.1794
 1429SOL    HW3 5790   3.948   1.168   2.294  0.0601 -1.0570  0.4925
 1429SOL    MW4 5791   4.021   1.137   2.331  0.5317 -0.3728  0.1471
 1430SOL     OW 5792   4.211   1.295   2.199 -0.0573 -0.1006  0.1556
 1430SOL    HW2 5793   4.138   1.247   2.238  0.4844 -1.6524 -0.6749
 1430SOL    HW3 5794   4.289   1.249   2.231  0.5031  0.7285 -0.0196
 1430SOL    MW4 5795   4.211   1.282   2.208  0.0877 -0.1961  0.0229
 1431SOL     OW 5796   4.273   1.532   2.346  0.4129 -0.3401  0.1614
 1431SOL    HW2 5797   4.241   1.458   2.293 -0.5845  1.5337 -1.9128
 1431SOL    HW3 5798   4.342   1.571   2.293  1.8755 -0.5764  1.8624
 1431SOL    MW4 5799   4.278   1.527   2.332  0.4745 -0.1241  0.1121
 1432SOL     OW 5800   4.039   1.614   2.249 -0.2077 -0.5533  0.1856
 1432SOL    HW2 5801   4.121   1.591   2.295 -1.3109 -0.4982  2.2618
 1432SOL    HW3 5802   3.972   1.561   2.293 -1.3697 -0.2146 -1.1512
 1432SOL    MW4 5803   4.041   1.604   2.261 -0.5064 -0.5013  0.2832
 1433SOL     OW 5804   4.061   1.884   2.336  0.2621 -0.1220 -0.4006
 1433SOL    HW2 5805   4.075   1.901   2.429  1.6517 -0.3950 -0.5435
 1433SOL    HW3 5806   4.062   1.788   2.329 -0.9709 -0.1303 -0.5377
 1433SOL    MW4 5807   4.063   1.873   2.347  0.2828 -0.1591 -0.4375
 1434SOL     OW 5808   4.286   2.030   2.226  0.0407  0.1577 -0.3831
 1434SOL    HW2 5809   4.261   2.118   2.253 -0.2609  0.1685 -0.7046
 1434SOL    HW3 5810   4.212   1.975   2.250  0.0069  0.0758 -0.6747
 1434SOL    MW4 5811   4.273   2.034   2.233 -0.0038  0.1485 -0.4642
 1435SOL     OW 5812   4.203   2.293   2.286  0.1291  0.2431  0.2189
 1435SOL    HW2 5813   4.130   2.336   2.241  0.4106  0.8528  0.3484
 1435SOL    HW3 5814   4.279   2.346   2.265  0.5323 -0.3712  0.1210
 1435SOL    MW4 5815   4.203   2.305   2.277  0.2193  0.2422  0.2232
 1436SOL     OW 5816   3.986   2.461   2.208 -0.3988 -0.3050 -0.0128
 1436SOL    HW2 5817   4.003   2.529   2.272 -1.6203  1.2272 -1.2585
 1436SOL    HW3 5818   3.911   2.412   2.243 -0.0046 -0.5350  0.5128
 1436SOL    MW4 5819   3.978   2.463   2.221 -0.5081 -0.1333 -0.1080
 1437SOL     OW 5820   4.019   2.682   2.345 -0.5360 -0.1734  0.0660
 1437SOL    HW2 5821   4.022   2.711   2.436  0.2576  1.7691 -0.5422
 1437SOL    HW3 5822   3.954   2.739   2.304 -1.0577 -1.1856 -0.5397
 1437SOL    MW4 5823   4.011   2.693   2.352 -0.5002 -0.0508 -0.0942
 1438SOL     OW 5824   4.237   2.857   2.237  0.5578 -0.6596 -0.3352
 1438SOL    HW2 5825   4.160   2.806   2.263  0.2672 -0.0705 -0.0518
 1438SOL    HW3 5826   4.311   2.807   2.271  0.1736  0.3239  2.0444
 1438SOL    MW4 5827   4.236   2.843   2.245  0.4687 -0.4518  0.0162
 1439SOL     OW 5828   4.238   3.111   2.325 -0.3181  0.2790 -0.1843
 1439SOL    HW2 5829   4.233   3.029   2.275  0.2310  0.2888 -0.2517
 1439SOL    HW3 5830   4.322   3.150   2.301 -0.8239  1.1432 -0.5793
 1439SOL    MW4 5831   4.248   3.105   2.315 -0.3123  0.3941 -0.2451
 1440SOL     OW 5832   3.987   3.229   2.249  0.9658 -0.2942 -0.0464
 1440SOL    HW2 5833   3.981   3.319   2.280  2.3586 -0.5181  0.8862
 1440SOL    HW3 5834   4.070   3.196   2.283  0.5879 -1.8632 -0.5651
 1440SOL    MW4 5835   3.997   3.236   2.258  1.0998 -0.5307  0.0083
 1441SOL     OW 5836   4.034   3.480   2.368 -0.2788  0.3811 -0.3280
 1441SOL    HW2 5837   4.118   3.512   2.333 -0.5522  0.4751 -0.8995
 1441SOL    HW3 5838   3.969   3.540   2.332 -0.4850  0.9221  0.9408
 1441SOL    MW4 5839   4.037   3.492   2.358 -0.3424  0.4652 -0.2360
 1442SOL     OW 5840   4.253   3.601   2.266 -0.2321  0.4593  0.1113
 1442SOL    HW2 5841   4.238   3.694   2.279 -0.2487  0.4897 -0.1288
 1442SOL    HW3 5842   4.249   3.589   2.171  1.1489  0.4462  0.0500
 1442SOL    MW4 5843   4.250   3.611   2.255 -0.0520  0.4616  0.0715
 1443SOL     OW 5844   4.247   3.880   2.349 -0.0459 -0.2844  0.2153
 1443SOL    HW2 5845   4.247   3.905   2.441 -0.1546  2.5013 -0.4834
 1443SOL    HW3 5846   4.336   3.899   2.319 -0.3104 -0.1319 -0.4982
 1443SOL    MW4 5847   4.259   3.886   2.357 -0.0949  0.1030  0.0291
 1444SOL     OW 5848   4.044   3.988   2.211 -0.2938  0.0368  0.0065
 1444SOL    HW2 5849   4.120   3.955   2.259  0.5423  0.9487 -0.6663
 1444SOL    HW3 5850   4.066   3.972   2.119  0.0174  2.2170 -0.3131
 1444SOL    MW4 5851   4.057   3.982   2.205 -0.1421  0.4451 -0.1242
 1445SOL     OW 5852   4.066   4.247   2.313 -0.2000  0.0231 -0.2807
 1445SOL    HW2 5853   4.141   4.295   2.278 -0.3857 -0.3432 -1.2042
 1445SOL    HW3 5854   4.071   4.161   2.271 -0.4041 -0.4392  0.6421
 1445SOL    MW4 5855   4.077   4.242   2.303 -0.2518 -0.0863 -0.2811
 1446SOL     OW 5856   4.275   4.402   2.223  0.0745  0.3611 -0.2450
 1446SOL    HW2 5857   4.268   4.493   2.253  0.5031  0.0847  0.7403
 1446SOL    HW3 5858   4.343   4.364   2.279 -0.7382 -0.8179 -0.0303
 1446SOL    MW4 5859   4.283   4.409   2.235  0.0234  0.1693 -0.0868
 1447SOL     OW 5860   0.206   4.646   2.645  0.7867 -0.5369 -0.7229
 1447SOL    HW2 5861   0.188   4.559   2.680  0.3797 -0.0029  0.4295
 1447SOL    HW3 5862   0.131   4.699   2.673  1.8384  0.5774  0.0320
 1447SOL    MW4 5863   0.194   4.642   2.653  0.8718 -0.3200 -0.4714
 1448SOL     OW 5864   0.008   0.160   2.726  0.4897  0.2084  0.0776
 1448SOL    HW2 5865   0.013   0.175   2.820  0.8225  0.7206 -0.0243
 1448SOL    HW3 5866  -0.014   0.245   2.689  0.2556 -0.0151 -0.3003
 1448SOL    MW4 5867   0.005   0.173   2.733  0.5026  0.2465  0.0143
 1449SOL     OW 5868   4.450   0.398   2.587 -0.1526 -0.2608  0.3283
 1449SOL    HW2 5869   4.527   0.443   2.621  0.2129 -1.2077  0.7607
 1449SOL    HW3 5870   4.461   0.400   2.492  0.6069 -0.7329  0.4022
 1449SOL    MW4 5871   4.461   0.404   2.579 -0.0038 -0.4481  0.3955
 1450SOL     OW 5872   0.193   0.506   2.715  0.3739 -0.3008  0.2850
 1450SOL    HW2 5873   0.220   0.507   2.807  2.3823  0.4421 -0.2955
 1450SOL    HW3 5874   0.260   0.453   2.671  0.6238  1.1208 -1.0936
 1450SOL    MW4 5875   0.206   0.499   2.721  0.6718 -0.0152  0.0267
 1451SOL     OW 5876   0.170   0.770   2.603  0.2131 -0.0123  0.6618
 1451SOL    HW2 5877   0.245   0.819   2.638  0.2150 -0.7525  1.6981
 1451SOL    HW3 5878   0.184   0.681   2.634 -1.3397 -0.0671  1.2168
 1451SOL    MW4 5879   0.182   0.765   2.611  0.0085 -0.1171  0.8721
 1452SOL     OW 5880   4.464   0.906   2.741 -0.2310  0.0859  0.1008
 1452SOL    HW2 5881   4.378   0.869   2.721 -0.3440  0.6410 -0.4344
 1452SOL    HW3 5882   4.526   0.841   2.709 -0.4497 -0.1948  0.2481
 1452SOL    MW4 5883   4.461   0.893   2.734 -0.2747  0.1221  0.0498
 1453SOL     OW 5884   0.019   1.133   2.566  0.8047 -0.4165  0.1375
 1453SOL    HW2 5885   0.085   1.175   2.620 -0.2264  1.8467 -0.3031
 1453SOL    HW3 5886   0.001   1.050   2.610  1.7286  0.3091  1.9178
 1453SOL    MW4 5887   0.025   1.127   2.579  0.7905 -0.0221  0.3142
 1454SOL     OW 5888   0.219   1.304   2.718 -0.2008  0.4058  0.0767
 1454SOL    HW2 5889   0.290   1.248   2.687 -1.1725 -0.8568  0.0708
 1454SOL    HW3 5890   0.226   1.384   2.665 -0.1968 -0.6398 -1.5305
 1454SOL    MW4 5891   0.229   1.307   2.707 -0.3285  0.1012 -0.1366
 1455SOL     OW 5892   0.228   1.554   2.571  0.2228 -0.6918  0.2554
 1455SOL    HW2 5893   0.298   1.606   2.611  0.9391 -0.7083 -0.9580
 1455SOL    HW3 5894   0.148   1.595   2.603  0.7759  0.8950 -0.3159
 1455SOL    MW4 5895   0.227   1.567   2.581  0.3903 -0.4846  0.0198
 1456SOL     OW 5896   0.011   1.689   2.680  0.2246 -0.3912  0.0106
 1456SOL    HW2 5897   0.015   1.689   2.775  1.6176 -0.8108 -0.0348
 1456SOL    HW3 5898   0.007   1.782   2.656  0.1899 -0.2742  0.4630
 1456SOL    MW4 5899   0.011   1.702   2.689  0.4044 -0.4311  0.0644
 1457SOL     OW 5900   4.487   1.959   2.596  0.5533  0.2049  0.5038
 1457SOL    HW2 5901   4.565   2.002   2.631  0.5924  0.1276  0.5105
 1457SOL    HW3 5902   4.508   1.940   2.505 -0.0059  1.5530  0.0710
 1457SOL    MW4 5903   4.500   1.962   2.589  0.4845  0.3726  0.4475
 1458SOL     OW 5904   0.217   2.062   2.720 -0.1273  0.1125  0.0239
 1458SOL    HW2 5905   0.294   2.027   2.677  0.6444  0.4552  1.0849
 1458SOL    HW3 5906   0.213   2.154   2.692 -0.3235  0.0070 -0.2841
 1458SOL    MW4 5907   0.227   2.070   2.711 -0.0514  0.1438  0.1233
 1459SOL     OW 5908   0.192   2.315   2.605 -0.1007  0.3829  0.2193
 1459SOL    HW2 5909   0.265   2.353   2.653 -0.0582 -1.4338  1.6238
 1459SOL    HW3 5910   0.114   2.355   2.644  0.0863  1.7981 -0.8187
 1459SOL    MW4 5911   0.191   2.325   2.616 -0.0704  0.3300  0.2675
 1460SOL     OW 5912   4.464   2.432   2.735  0.0702  0.3181 -0.1304
 1460SOL    HW2 5913   4.444   2.431   2.829  1.4659 -0.1107  0.1842
 1460SOL    HW3 5914   4.398   2.375   2.695 -0.4267  0.3696  0.6110
 1460SOL    MW4 5915   4.453   2.425   2.742  0.1888  0.2682  0.0088
 1461SOL     OW 5916   4.479   2.669   2.611  0.4070 -0.0495 -0.1020
 1461SOL    HW2 5917   4.418   2.732   2.651  0.5515  0.5237 -0.7746
 1461SOL    HW3 5918   4.478   2.595   2.670  1.7319  1.3760  1.7589
 1461SOL    MW4 5919   4.471   2.668   2.624  0.6008  0.2141  0.0548
 1462SOL     OW 5920   0.220   2.818   2.699 -0.3745  0.2051  0.4318
 1462SOL    HW2 5921   0.226   2.909   2.670 -1.3526  0.6690  1.6457
 1462SOL    HW3 5922   0.138   2.786   2.661 -0.9996  0.4210  1.5782
 1462SOL    MW4 5923   0.210   2.825   2.690 -0.5860  0.2952  0.7436
 1463SOL     OW 5924   0.211   3.081   2.624  0.1248  0.1017 -0.0643
 1463SOL    HW2 5925   0.296   3.116   2.650  0.0198  1.2862 -1.2147
 1463SOL    HW3 5926   0.214   3.080   2.528 -0.6393 -1.1692 -0.0876
 1463SOL    MW4 5927   0.222   3.085   2.615  0.0101  0.0904 -0.2189
 1464SOL     OW 5928   0.001   3.214   2.706  0.0133  0.0527 -0.2410
 1464SOL    HW2 5929  -0.076   3.169   2.672  0.4232 -0.0884 -1.0098
 1464SOL    HW3 5930   0.075   3.159   2.679  0.3969  0.2903  0.3120
 1464SOL    MW4 5931   0.001   3.201   2.698  0.1179  0.0653 -0.2694
 1465SOL     OW 5932   0.014   3.476   2.632  0.0730  0.3587 -0.5647
 1465SOL    HW2 5933   0.097   3.520   2.653  1.5796 -1.6710 -2.0521
 1465SOL    HW3 5934   0.022   3.390   2.673 -2.1021  0.8110  0.8356
 1465SOL    MW4 5935   0.026   3.471   2.640 -0.0153  0.1504 -0.5760
 1466SOL     OW 5936   0.239   3.625   2.726  0.0681 -0.1447 -0.4294
 1466SOL    HW2 5937   0.226   3.591   2.815  0.0733  1.2518  0.1038
 1466SOL    HW3 5938   0.322   3.585   2.697  1.9726  2.2259  1.5619
 1466SOL    MW4 5939   0.248   3.615   2.734  0.3201  0.3524 -0.0963
 1467SOL     OW 5940   0.181   3.873   2.624  0.3753 -0.5815 -0.2712
 1467SOL    HW2 5941   0.193   3.791   2.670 -2.3150  0.1496  1.9363
 1467SOL    HW3 5942   0.199   3.853   2.532  1.4198 -3.1856  0.4703
 1467SOL    MW4 5943   0.185   3.860   2.618  0.1582 -0.8290  0.1183
 1468SOL     OW 5944   4.472   4.022   2.761 -0.6230  0.4125 -0.3010
 1468SOL    HW2 5945   4.469   4.109   2.721  1.7217  1.1323  0.9691
 1468SOL    HW3 5946   4.535   3.973   2.708  0.2599  0.4319  0.7128
 1468SOL    MW4 5947   4.480   4.027   2.749 -0.1972  0.5097  0.0005
 1469SOL     OW 5948   4.478   4.278   2.633 -0.3044  0.2342 -0.2586
 1469SOL    HW2 5949   4.431   4.353   2.671  0.4219  0.5120  0.1040
 1469SOL    HW3 5950   4.567   4.286   2.667 -0.5211 -1.4788  0.7434
 1469SOL    MW4 5951   4.484   4.289   2.642 -0.2370  0.0448 -0.0787
 1470SOL     OW 5952   0.228   4.358   2.729 -0.2165  0.1151  0.2186
 1470SOL    HW2 5953   0.262   4.376   2.816  2.7930  1.2086 -1.0953
 1470SOL    HW3 5954   0.303   4.321   2.682 -1.3448  0.9638 -2.3404
 1470SOL    MW4 5955   0.242   4.355   2.734  0.0317  0.3715 -0.2923
 1471SOL     OW 5956   0.661   4.625   2.628  0.5543 -0.1889 -0.0340
 1471SOL    HW2 5957   0.743   4.668   2.653  0.3269 -0.1341  0.6368
 1471SOL    HW3 5958   0.595   4.694   2.633  0.7970  0.2799 -2.6495
 1471SOL    MW4 5959   0.663   4.640   2.632  0.5563 -0.1192 -0.2909
 1472SOL     OW 5960   0.453   0.143   2.685 -0.0458  0.4315  0.2816
 1472SOL    HW2 5961   0.462   0.133   2.780 -1.8012  0.5737  0.4977
 1472SOL    HW3 5962   0.381   0.084   2.662  0.4755  0.2728 -0.9964
 1472SOL    MW4 5963   0.444   0.134   2.695 -0.2086  0.4293  0.1414
 1473SOL     OW 5964   0.395   0.391   2.562  0.0924 -0.5447 -0.1562
 1473SOL    HW2 5965   0.465   0.451   2.589  0.0350 -0.4368 -0.2475
 1473SOL    HW3 5966   0.416   0.309   2.606  0.8064 -0.7881 -0.9286
 1473SOL    MW4 5967   0.407   0.388   2.571  0.1790 -0.5625 -0.2701
 1474SOL     OW 5968   0.628   0.489   2.688  0.1453  0.0336 -0.2266
 1474SOL    HW2 5969   0.637   0.486   2.784 -0.6828 -0.0978 -0.1496
 1474SOL    HW3 5970   0.708   0.449   2.656  0.3582 -0.0721  0.4192
 1474SOL    MW4 5971   0.640   0.483   2.697  0.0641  0.0023 -0.1314
 1475SOL     OW 5972   0.635   0.770   2.611  0.2941  0.0730 -0.0784
 1475SOL    HW2 5973   0.716   0.814   2.635  0.9724 -0.7894 -0.7872
 1475SOL    HW3 5974   0.651   0.678   2.631 -0.8791  0.0329  0.7619
 1475SOL    MW4 5975   0.648   0.763   2.617  0.2288 -0.0461 -0.0610
 1476SOL     OW 5976   0.412   0.895   2.680 -0.3354  0.0292 -0.1503
 1476SOL    HW2 5977   0.425   0.988   2.662 -0.9566  0.3661  1.1063
 1476SOL    HW3 5978   0.496   0.854   2.658  0.2812  1.0394  0.3013
 1476SOL    MW4 5979   0.425   0.902   2.675 -0.3360  0.2070  0.0751
 1477SOL     OW 5980   0.431   1.168   2.590 -0.7543 -0.7743  0.4194
 1477SOL    HW2 5981   0.516   1.202   2.618 -0.6299 -1.6685  1.1725
 1477SOL    HW3 5982   0.438   1.161   2.495  0.2645 -1.4594  0.5351
 1477SOL    MW4 5983   0.443   1.171   2.581 -0.6034 -0.9828  0.5341
 1478SOL     OW 5984   0.652   1.286   2.711 -0.3563 -0.3151  0.0014
 1478SOL    HW2 5985   0.674   1.296   2.804 -0.9644  0.0251  0.1086
 1478SOL    HW3 5986   0.731   1.248   2.673  0.2140  0.3405  0.5000
 1478SOL    MW4 5987   0.666   1.282   2.719 -0.3613 -0.1838  0.0813
 1479SOL     OW 5988   0.683   1.563   2.615  0.1850  0.1333  0.2539
 1479SOL    HW2 5989   0.604   1.606   2.650  0.5214  0.5818  0.4703
 1479SOL    HW3 5990   0.671   1.471   2.636 -0.3613  0.1729  0.1406
 1479SOL    MW4 5991   0.671   1.557   2.622  0.1572  0.1978  0.2675
 1480SOL     OW 5992   0.447   1.688   2.714  0.2912  0.4015 -0.2807
 1480SOL    HW2 5993   0.448   1.685   2.809  0.3348 -1.6682 -0.3250
 1480SOL    HW3 5994   0.461   1.780   2.692 -2.2911  1.3270  1.7467
 1480SOL    MW4 5995   0.449   1.699   2.724 -0.0437  0.2506 -0.0188
 1481SOL     OW 5996   0.444   1.943   2.618  0.0454  0.0052 -0.4004
 1481SOL    HW2 5997   0.531   1.977   2.639 -0.4926  0.7330  0.6955
 1481SOL    HW3 5998   0.439   1.947   2.522  1.1919  0.0134 -0.4615
 1481SOL    MW4 5999   0.455   1.948   2.608  0.1257  0.1023 -0.2639
 1482SOL     OW 6000   0.682   2.058   2.690 -0.7287 -0.6918 -0.0152
 1482SOL    HW2 6001   0.674   2.055   2.785 -0.4259 -0.8902  0.0036
 1482SOL    HW3 6002   0.774   2.041   2.673 -0.7007 -0.2254 -0.3252
 1482SOL    MW4 6003   0.693   2.055   2.700 -0.6850 -0.6564 -0.0536
 1483SOL     OW 6004   0.646   2.328   2.622  0.0391  0.2974 -0.3698
 1483SOL    HW2 6005   0.720   2.375   2.659  0.4992  0.7408 -1.8080
 1483SOL    HW3 6006   0.660   2.237   2.646  1.0539  0.3816 -0.6370
 1483SOL    MW4 6007   0.657   2.322   2.630  0.2337  0.3672 -0.5949
 1484SOL     OW 6008   0.415   2.436   2.722  0.2747 -0.1122 -0.4624
 1484SOL    HW2 6009   0.421   2.521   2.679 -0.9589 -0.6115 -1.6691
 1484SOL    HW3 6010   0.487   2.385   2.685  0.8722  0.3366  0.0894
 1484SOL    MW4 6011   0.425   2.440   2.711  0.1908 -0.1190 -0.5486
 1485SOL     OW 6012   0.450   2.703   2.603 -0.3072 -0.3602 -0.0059
 1485SOL    HW2 6013   0.510   2.762   2.650 -1.2556  0.6887 -0.0857
 1485SOL    HW3 6014   0.363   2.738   2.622 -0.8375 -1.3565 -0.6033
 1485SOL    MW4 6015   0.447   2.716   2.612 -0.5023 -0.3533 -0.0954
 1486SOL     OW 6016   0.664   2.817   2.741 -0.1169 -0.4324 -0.7386
 1486SOL    HW2 6017   0.665   2.830   2.835 -0.9523 -1.5254 -0.5720
 1486SOL    HW3 6018   0.688   2.902   2.705  0.2503 -0.0210  0.4571
 1486SOL    MW4 6019   0.667   2.830   2.748 -0.1786 -0.5224 -0.5589
 1487SOL     OW 6020   0.681   3.075   2.636  0.1604  0.5647 -0.1147
 1487SOL    HW2 6021   0.763   3.117   2.663  0.8983 -1.3765  0.7765
 1487SOL    HW3 6022   0.691   3.062   2.542  0.3361  1.5122 -0.2262
 1487SOL    MW4 6023   0.693   3.078   2.627  0.2810  0.4334 -0.0117
 1488SOL     OW 6024   0.442   3.208   2.699 -0.1110 -0.2372 -0.1381
 1488SOL    HW2 6025   0.454   3.210   2.794 -0.4378 -1.5493 -0.0616
 1488SOL    HW3 6026   0.521   3.163   2.666  1.1387  2.2781 -0.6971
 1488SOL    MW4 6027   0.454   3.202   2.707  0.0108 -0.0784 -0.2015
 1489SOL     OW 6028   0.458   3.483   2.628  0.0586 -0.3317  0.0323
 1489SOL    HW2 6029   0.455   3.393   2.660  2.6094 -0.9269 -1.2040
 1489SOL    HW3 6030   0.430   3.477   2.536 -0.8949  0.3303  0.2740
 1489SOL    MW4 6031   0.454   3.470   2.620  0.2693 -0.3228 -0.0989
 1490SOL     OW 6032   0.694   3.618   2.686 -0.3619  0.2837 -0.0287
 1490SOL    HW2 6033   0.685   3.590   2.777 -1.0731  0.0402 -0.1721
 1490SOL    HW3 6034   0.613   3.590   2.644  0.5847 -0.9188 -1.0877
 1490SOL    MW4 6035   0.682   3.611   2.692 -0.3308  0.0930 -0.1874
 1491SOL     OW 6036   0.664   3.879   2.652 -0.0623 -0.3024 -0.0770
 1491SOL    HW2 6037   0.587   3.905   2.702  0.0582 -0.7471  0.3445
 1491SOL    HW3 6038   0.672   3.784   2.667 -0.2659 -0.5208 -1.2696
 1491SOL    MW4 6039   0.655   3.870   2.660 -0.0733 -0.3896 -0.1788
 1492SOL     OW 6040   0.426   3.980   2.734 -0.0478 -0.1811  0.1927
 1492SOL    HW2 6041   0.428   4.072   2.706 -0.1304 -0.8340 -2.0322
 1492SOL    HW3 6042   0.346   3.945   2.694  1.1476 -1.7886 -0.8158
 1492SOL    MW4 6043   0.416   3.988   2.725  0.0990 -0.4790 -0.2341
 1493SOL     OW 6044   0.437   4.231   2.623 -0.0549 -0.3627 -0.0541
 1493SOL    HW2 6045   0.511   4.285   2.653  0.2746 -0.2994 -0.9501
 1493SOL    HW3 6046   0.432   4.249   2.529 -0.9119 -0.7351 -0.0786
 1493SOL    MW4 6047   0.446   4.241   2.615 -0.1245 -0.4039 -0.1757
 1494SOL     OW 6048   0.658   4.379   2.752 -0.0354 -0.6371 -0.2688
 1494SOL    HW2 6049   0.740   4.343   2.720 -0.2197 -0.5718 -0.8337
 1494SOL    HW3 6050   0.651   4.465   2.710  1.0460  0.6586  2.1156
 1494SOL    MW4 6051   0.668   4.386   2.742  0.0830 -0.4573 -0.0286
 1495SOL     OW 6052   1.144   4.614   2.623 -0.2789 -0.0711 -0.2058
 1495SOL    HW2 6053   1.224   4.652   2.659  0.0954 -0.5469 -0.5322
 1495SOL    HW3 6054   1.145   4.523   2.653  0.0724 -0.4916 -1.4703
 1495SOL    MW4 6055   1.154   4.607   2.631 -0.1832 -0.1898 -0.4156
 1496SOL     OW 6056   0.892   0.099   2.676 -0.0562  0.1820  0.3284
 1496SOL    HW2 6057   0.898   0.114   2.771 -0.9053  0.9109  0.2670
 1496SOL    HW3 6058   0.971   0.048   2.656  0.5053  0.6438  1.3020
 1496SOL    MW4 6059   0.903   0.094   2.686 -0.0941  0.3391  0.4487
 1497SOL     OW 6060   0.886   0.386   2.612 -0.2205 -0.0625 -0.4611
 1497SOL    HW2 6061   0.890   0.293   2.635 -1.1007 -0.1907 -0.8182
 1497SOL    HW3 6062   0.910   0.389   2.520 -1.7982 -0.1252 -0.8903
 1497SOL    MW4 6063   0.890   0.374   2.603 -0.5448 -0.0876 -0.5648
 1498SOL     OW 6064   1.094   0.518   2.734 -0.0735 -0.1021 -0.2379
 1498SOL    HW2 6065   1.099   0.606   2.697 -0.7552 -0.0429 -0.2102
 1498SOL    HW3 6066   1.012   0.483   2.700 -0.6827 -0.0738  1.1283
 1498SOL    MW4 6067   1.083   0.525   2.725 -0.2439 -0.0905 -0.0541
 1499SOL     OW 6068   1.131   0.772   2.617 -0.0486  0.2512  0.0585
 1499SOL    HW2 6069   1.217   0.796   2.651  1.2463 -2.4879 -1.1145
 1499SOL    HW3 6070   1.136   0.791   2.524 -0.3532 -0.7538 -0.1739
 1499SOL    MW4 6071   1.143   0.778   2.609  0.0820 -0.2428 -0.1273
 1500SOL     OW 6072   0.886   0.905   2.666  0.1107  0.4755 -0.0460
 1500SOL    HW2 6073   0.876   0.897   2.761 -0.1278  0.1896 -0.0942
 1500SOL    HW3 6074   0.968   0.860   2.647 -0.7366 -1.0426 -0.1946
 1500SOL    MW4 6075   0.895   0.898   2.676 -0.0325  0.2375 -0.0720
 1501SOL     OW 6076   0.856   1.155   2.559  0.4843 -0.3114 -0.3876
 1501SOL    HW2 6077   0.874   1.061   2.570 -2.4183 -0.8204  0.6850
 1501SOL    HW3 6078   0.860   1.170   2.465 -0.4726 -1.8911 -0.7055
 1501SOL    MW4 6079   0.859   1.144   2.548 -0.0249 -0.5870 -0.2880
 1502SOL     OW 6080   1.109   1.225   2.683 -0.2675  0.1966  0.0893
 1502SOL    HW2 6081   1.098   1.319   2.665 -0.3246  0.2631  0.4656
 1502SOL    HW3 6082   1.031   1.184   2.646 -0.1461  0.2782 -0.2520
 1502SOL    MW4 6083   1.097   1.232   2.676 -0.2590  0.2161  0.0937
 1503SOL     OW 6084   1.100   1.497   2.641  0.0360 -0.7310 -0.0682
 1503SOL    HW2 6085   1.042   1.571   2.654 -0.7251 -1.2476 -0.4649
 1503SOL    HW3 6086   1.107   1.489   2.546  2.0308  0.3031 -0.0387
 1503SOL    MW4 6087   1.093   1.506   2.630  0.1987 -0.6629 -0.1166
 1504SOL     OW 6088   0.923   1.702   2.687  0.2780  0.3398 -0.2040
 1504SOL    HW2 6089   0.932   1.694   2.782  0.0437 -1.6496 -0.3437
 1504SOL    HW3 6090   0.844   1.652   2.666 -0.4766  1.9468 -1.2903
 1504SOL    MW4 6091   0.914   1.695   2.697  0.1475  0.2893 -0.3657
 1505SOL     OW 6092   0.924   1.950   2.581  0.1313 -0.4746  0.3884
 1505SOL    HW2 6093   0.993   1.992   2.631  0.8011 -0.9287 -0.1426
 1505SOL    HW3 6094   0.929   1.858   2.606  0.2674 -0.6496 -0.2884
 1505SOL    MW4 6095   0.933   1.943   2.591  0.2376 -0.5577  0.2291
 1506SOL     OW 6096   1.145   2.064   2.712 -0.1313 -0.2906  0.2451
 1506SOL    HW2 6097   1.210   2.010   2.666  0.4787 -0.7657  1.6280
 1506SOL    HW3 6098   1.165   2.154   2.685  0.7618 -0.4826  0.2385
 1506SOL    MW4 6099   1.156   2.069   2.702  0.0670 -0.3784  0.4268
 1507SOL     OW 6100   1.109   2.334   2.617  0.0149  0.7620  0.3561
 1507SOL    HW2 6101   1.186   2.379   2.652  1.1438 -1.3079  0.6497
 1507SOL    HW3 6102   1.116   2.345   2.522  0.2158  1.3107  0.4337
 1507SOL    MW4 6103   1.120   2.341   2.609  0.1904  0.5612  0.4053
 1508SOL     OW 6104   0.891   2.433   2.712  0.0129 -0.0030  0.0775
 1508SOL    HW2 6105   0.864   2.513   2.667  2.0459  0.1481 -0.9525
 1508SOL    HW3 6106   0.971   2.406   2.666 -0.7526 -2.7389  0.2923
 1508SOL    MW4 6107   0.898   2.440   2.700  0.1801 -0.3440 -0.0300
 1509SOL     OW 6108   0.860   2.687   2.595 -0.2461 -0.2602  0.6271
 1509SOL    HW2 6109   0.934   2.726   2.641 -0.8474  1.6058  0.0298
 1509SOL    HW3 6110   0.783   2.715   2.643 -0.7354 -0.1269 -0.2215
 1509SOL    MW4 6111   0.860   2.696   2.607 -0.3900  0.0038  0.4365
 1510SOL     OW 6112   1.083   2.832   2.682  0.0000  0.0000  0.2322
 1510SOL    HW2 6113   1.106   2.825   2.775  0.0000  0.0000  0.2356
 1510SOL    HW3 6114   1.158   2.795   2.637  0.0000  0.0000  0.2448
 1510SOL    MW4 6115   1.096   2.826   2.689  0.0000  0.0000  0.2341
 1511SOL     OW 6116   1.148   3.096   2.637  0.0000  0.0000 -0.1796
 1511SOL    HW2 6117   1.122   3.007   2.660  0.0000  0.0000 -0.1713
 1511SOL    HW3 6118   1.136   3.101   2.542  0.0000  0.0000 -0.1799
 1511SOL    MW4 6119   1.143   3.085   2.628  0.0000  0.0000 -0.1786
 1512SOL     OW 6120   0.919   3.208   2.702  0.0000  0.0000  0.1567
 1512SOL    HW2 6121   0.903   3.287   2.650  0.0000  0.0000  0.1496
 1512SOL    HW3 6122   1.006   3.179   2.675  0.0000  0.0000  0.1808
 1512SOL    MW4 6123   0.928   3.215   2.692  0.0000  0.0000  0.1590
 1513SOL     OW 6124   0.887   3.462   2.591  0.0000  0.0000  0.3159
 1513SOL    HW2 6125   0.961   3.508   2.631  0.0000  0.0000  0.3328
 1513SOL    HW3 6126   0.810   3.511   2.621  0.0000  0.0000  0.2792
 1513SOL    MW4 6127   0.887   3.475   2.600  0.0000  0.0000  0.3133
 1514SOL     OW 6128   1.102   3.599   2.722  0.0000  0.0000 -0.0244
 1514SOL    HW2 6129   1.101   3.626   2.814  0.0000  0.0000 -0.0240
 1514SOL    HW3 6130   1.100   3.681   2.673  0.0000  0.0000 -0.0236
 1514SOL    MW4 6131   1.102   3.613   2.728  0.0000  0.0000 -0.0241
 1515SOL     OW 6132   1.098   3.851   2.621  0.0000  0.0000 -0.1337
 1515SOL    HW2 6133   1.178   3.889   2.659  0.0000  0.0000 -0.1280
 1515SOL    HW3 6134   1.110   3.859   2.527  0.0000  0.0000 -0.1329
 1515SOL    MW4 6135   1.110   3.857   2.614  0.0000  0.0000 -0.1328
 1516SOL     OW 6136   0.893   4.008   2.735  0.0000  0.0000  0.0764
 1516SOL    HW2 6137   0.957   3.963   2.680  0.0000  0.0000  0.0768
 1516SOL    HW3 6138   0.809   3.969   2.709  0.0000  0.0000  0.0864
 1516SOL    MW4 6139   0.890   3.997   2.724  0.0000  0.0000  0.0777
 1517SOL     OW 6140   0.888   4.266   2.643  0.0000  0.0000 -0.1537
 1517SOL    HW2 6141   0.892   4.174   2.669  0.0000  0.0000 -0.1573
 1517SOL    HW3 6142   0.884   4.265   2.548  0.0000  0.0000 -0.1536
 1517SOL    MW4 6143   0.888   4.254   2.634  0.0000  0.0000 -0.1540
 1518SOL     OW 6144   1.144   4.351   2.717  0.0000  0.0000  0.0761
 1518SOL    HW2 6145   1.137   4.378   2.809  0.0000  0.0000  0.0764
 1518SOL    HW3 6146   1.055   4.327   2.692  0.0000  0.0000  0.0778
 1518SOL    MW4 6147   1.131   4.351   2.726  0.0000  0.0000  0.0765
 1519SOL     OW 6148   1.601   4.652   2.631 -0.6710  0.6216 -1.0114
 1519SOL    HW2 6149   1.586   4.569   2.678  1.4570 -0.0587 -1.4714
 1519SOL    HW3 6150   1.574   4.634   2.541  0.5705  0.1281 -1.3050
 1519SOL    MW4 6151   1.596   4.639   2.626 -0.2265  0.4668 -1.1110
 1520SOL     OW 6152   1.363   0.084   2.720  0.4485  0.2530 -0.0988
 1520SOL    HW2 6153   1.352   0.172   2.684  0.8125 -0.1844 -1.2984
 1520SOL    HW3 6154   1.449   0.056   2.689  0.2240 -0.6191  0.0615
 1520SOL    MW4 6155   1.373   0.092   2.711  0.4668  0.0803 -0.2358
 1521SOL     OW 6156   1.300   0.352   2.642 -0.3803 -0.2739  0.5364
 1521SOL    HW2 6157   1.377   0.406   2.658  0.0714 -0.8460  0.3081
 1521SOL    HW3 6158   1.226   0.407   2.669  0.2328 -0.4636  2.6223
 1521SOL    MW4 6159   1.300   0.366   2.647 -0.2397 -0.3744  0.7815
 1522SOL     OW 6160   1.554   0.522   2.696 -0.2254 -0.3645  0.0890
 1522SOL    HW2 6161   1.640   0.498   2.663 -0.7976  0.1433 -1.7930
 1522SOL    HW3 6162   1.543   0.614   2.673 -1.4583 -0.5509 -0.1132
 1522SOL    MW4 6163   1.564   0.531   2.689 -0.4635 -0.3221 -0.1862
 1523SOL     OW 6164   1.595   0.774   2.606  0.2629  0.7910  0.0127
 1523SOL    HW2 6165   1.514   0.816   2.635  0.5669  0.1815  1.8070
 1523SOL    HW3 6166   1.587   0.770   2.511 -2.3956 -0.4685  0.2443
 1523SOL    MW4 6167   1.583   0.779   2.597 -0.0478  0.5445  0.2801
 1524SOL     OW 6168   1.366   0.897   2.706  0.1515  0.2928  0.0190
 1524SOL    HW2 6169   1.352   0.926   2.796 -2.0176  0.3702 -0.3250
 1524SOL    HW3 6170   1.368   0.977   2.655 -0.2976  0.1521 -0.2180
 1524SOL    MW4 6171   1.365   0.911   2.711 -0.1941  0.2844 -0.0575
 1525SOL     OW 6172   1.342   1.151   2.551 -0.1674 -0.3815  0.4265
 1525SOL    HW2 6173   1.421   1.177   2.599 -0.2293  0.9093 -0.1390
 1525SOL    HW3 6174   1.271   1.192   2.600 -0.1751  1.5709 -1.1468
 1525SOL    MW4 6175   1.343   1.160   2.564 -0.1765  0.0466  0.1442
 1526SOL     OW 6176   1.559   1.240   2.710 -0.0514 -0.2667 -0.3227
 1526SOL    HW2 6177   1.563   1.232   2.805 -1.5098 -0.5723 -0.2694
 1526SOL    HW3 6178   1.635   1.191   2.678  0.1566 -0.6024  0.6620
 1526SOL    MW4 6179   1.569   1.232   2.718 -0.2165 -0.3514 -0.1857
 1527SOL     OW 6180   1.570   1.516   2.635 -0.0335 -0.2544 -0.0498
 1527SOL    HW2 6181   1.570   1.424   2.661 -1.4356 -0.2997 -0.1713
 1527SOL    HW3 6182   1.575   1.515   2.540 -1.7794 -0.2447 -0.1428
 1527SOL    MW4 6183   1.571   1.504   2.626 -0.4489 -0.2590 -0.0780
 1528SOL     OW 6184   1.319   1.653   2.703  0.0626 -0.0649  0.0252
 1528SOL    HW2 6185   1.385   1.589   2.676 -0.3728  0.4993 -2.4744
 1528SOL    HW3 6186   1.236   1.613   2.678 -0.4067  0.2751  1.0126
 1528SOL    MW4 6187   1.317   1.639   2.696 -0.0566  0.0544 -0.1745
 1529SOL     OW 6188   1.355   1.908   2.607  0.1688  0.3082  0.3548
 1529SOL    HW2 6189   1.358   1.815   2.631  3.4480  0.1100 -0.5828
 1529SOL    HW3 6190   1.364   1.908   2.511 -1.0942  1.5599  0.2215
 1529SOL    MW4 6191   1.356   1.895   2.597  0.4349  0.4472  0.2136
 1530SOL     OW 6192   1.570   2.028   2.727  0.3801 -0.2916  0.0131
 1530SOL    HW2 6193   1.645   1.990   2.682 -0.4899  0.6139 -2.2403
 1530SOL    HW3 6194   1.494   1.987   2.686 -0.4378  0.6053  0.6131
 1530SOL    MW4 6195   1.570   2.017   2.716  0.1575 -0.0536 -0.2050
 1531SOL     OW 6196   1.566   2.287   2.604  0.0484 -0.0773 -0.4713
 1531SOL    HW2 6197   1.643   2.329   2.643  0.6752 -0.7347 -1.0022
 1531SOL    HW3 6198   1.560   2.202   2.646  0.2151 -0.4423 -1.1821
 1531SOL    MW4 6199   1.575   2.282   2.614  0.1531 -0.2122 -0.6354
 1532SOL     OW 6200   1.344   2.455   2.718 -0.1919 -0.4980 -0.2949
 1532SOL    HW2 6201   1.340   2.545   2.685 -0.8397  0.1128  1.3767
 1532SOL    HW3 6202   1.427   2.421   2.686 -0.2709  0.4505 -1.5554
 1532SOL    MW4 6203   1.354   2.462   2.710 -0.2878 -0.2921 -0.2408
 1533SOL     OW 6204   1.330   2.708   2.605  0.7422 -0.1412  0.6739
 1533SOL    HW2 6205   1.400   2.762   2.642  2.0095 -1.0656 -0.3282
 1533SOL    HW3 6206   1.353   2.699   2.512 -0.5942 -0.6297  0.3787
 1533SOL    MW4 6207   1.342   2.714   2.597  0.7330 -0.3276  0.5028
 1534SOL     OW 6208   1.561   2.855   2.714  0.4064 -0.2275  0.0248
 1534SOL    HW2 6209   1.572   2.857   2.809 -0.4273 -2.4424  0.2056
 1534SOL    HW3 6210   1.630   2.797   2.683  0.7550  0.5870 -0.7514
 1534SOL    MW4 6211   1.571   2.848   2.722  0.3422 -0.4122 -0.0539
 1535SOL     OW 6212   1.594   3.110   2.625 -0.0571  0.0347  0.1663
 1535SOL    HW2 6213   1.661   3.166   2.664  1.1543 -1.5082  0.3520
 1535SOL    HW3 6214   1.601   3.026   2.672 -1.8759 -0.2788 -0.0581
 1535SOL    MW4 6215   1.604   3.106   2.636 -0.1373 -0.2100  0.1612
 1536SOL     OW 6216   1.359   3.210   2.775 -0.1028 -0.3704  0.5023
 1536SOL    HW2 6217   1.431   3.165   2.730  1.3095 -0.4398  2.7418
 1536SOL    HW3 6218   1.280   3.169   2.741  0.9421 -0.9881 -1.2709
 1536SOL    MW4 6219   1.358   3.199   2.765  0.2215 -0.4611  0.5636
 1537SOL     OW 6220   1.350   3.454   2.653 -0.3640 -0.3981 -0.3844
 1537SOL    HW2 6221   1.356   3.372   2.702  2.3293  0.1542  0.2803
 1537SOL    HW3 6222   1.266   3.492   2.679 -1.3851 -2.6810 -0.3017
 1537SOL    MW4 6223   1.340   3.448   2.663 -0.1433 -0.6266 -0.2859
 1538SOL     OW 6224   1.577   3.641   2.756 -0.4040 -0.6087 -0.5412
 1538SOL    HW2 6225   1.654   3.586   2.743 -0.1727 -1.0801  2.5625
 1538SOL    HW3 6226   1.503   3.582   2.742 -0.1684 -1.0984  0.2507
 1538SOL    MW4 6227   1.577   3.626   2.752 -0.3425 -0.7355 -0.0274
 1539SOL     OW 6228   1.599   3.881   2.624  0.5710 -0.5204  0.3369
 1539SOL    HW2 6229   1.514   3.919   2.647  1.1835  0.6997  0.6381
 1539SOL    HW3 6230   1.595   3.792   2.658 -0.8764 -0.7267 -0.3228
 1539SOL    MW4 6231   1.587   3.875   2.632  0.4609 -0.3867  0.2897
 1540SOL     OW 6232   1.341   3.957   2.714 -0.3300  0.2360 -0.1528
 1540SOL    HW2 6233   1.359   3.967   2.807  0.1499 -0.0145 -0.2115
 1540SOL    HW3 6234   1.332   4.046   2.681  0.4928  0.3679 -0.0486
 1540SOL    MW4 6235   1.342   3.970   2.722 -0.1581  0.2203 -0.1469
 1541SOL     OW 6236   1.370   4.221   2.627 -0.4660  0.6048 -0.2397
 1541SOL    HW2 6237   1.291   4.271   2.647  1.0085  2.9640 -0.2467
 1541SOL    HW3 6238   1.376   4.222   2.531 -1.3433 -1.0826 -0.3448
 1541SOL    MW4 6239   1.360   4.227   2.617 -0.3872  0.6938 -0.2544
 1542SOL     OW 6240   1.526   4.420   2.767 -0.0799 -0.1577 -0.0617
 1542SOL    HW2 6241   1.542   4.401   2.859  1.1692 -2.1564 -0.6431
 1542SOL    HW3 6242   1.453   4.363   2.743 -1.0379  1.0593 -0.0911
 1542SOL    MW4 6243   1.518   4.410   2.776 -0.0416 -0.2608 -0.1423
 1543SOL     OW 6244   1.982   0.020   2.644  0.3914 -0.1036 -0.1547
 1543SOL    HW2 6245   2.067   0.037   2.684 -0.3397  1.8555  0.6089
 1543SOL    HW3 6246   1.999   0.021   2.550  1.0040  1.5395 -0.0432
 1543SOL    MW4 6247   1.995   0.022   2.637  0.3759  0.3716 -0.0396
 1544SOL     OW 6248   1.773   0.186   2.742 -0.5038  0.4282  0.7586
 1544SOL    HW2 6249   1.842   0.123   2.722  0.0185  0.6879  1.7174
 1544SOL    HW3 6250   1.697   0.155   2.693 -0.1951 -0.8481  1.0782
 1544SOL    MW4 6251   1.772   0.174   2.733 -0.3941  0.2941  0.9272
 1545SOL     OW 6252   1.794   0.442   2.610  0.2574 -0.0334  0.1522
 1545SOL    HW2 6253   1.866   0.490   2.650  0.4891  0.3442 -0.6985
 1545SOL    HW3 6254   1.792   0.358   2.656 -0.3588  0.9026  1.8597
 1545SOL    MW4 6255   1.803   0.437   2.621  0.2067  0.1399  0.2651
 1546SOL     OW 6256   2.019   0.535   2.741 -0.7017  0.3965  0.3209
 1546SOL    HW2 6257   2.086   0.474   2.711 -1.4198  0.2194 -0.9542
 1546SOL    HW3 6258   2.035   0.615   2.690 -0.8375  0.7028  0.7499
 1546SOL    MW4 6259   2.030   0.538   2.731 -0.8142  0.4136  0.2091
 1547SOL     OW 6260   2.035   0.779   2.612  0.7134  0.0689 -0.1492
 1547SOL    HW2 6261   1.952   0.803   2.653  1.1232  0.0216  0.7194
 1547SOL    HW3 6262   2.022   0.798   2.519 -0.6225 -0.9396 -0.1821
 1547SOL    MW4 6263   2.022   0.785   2.605  0.5913 -0.0705 -0.0389
 1548SOL     OW 6264   1.812   0.903   2.739 -0.0942  0.5054 -0.0151
 1548SOL    HW2 6265   1.807   0.992   2.704  0.5164 -0.0124 -1.4324
 1548SOL    HW3 6266   1.744   0.855   2.692 -0.0979  0.1053  0.3971
 1548SOL    MW4 6267   1.802   0.908   2.728 -0.0142  0.3842 -0.1478
 1549SOL     OW 6268   1.788   1.144   2.614  0.8733 -0.3908 -0.2603
 1549SOL    HW2 6269   1.868   1.186   2.646  0.3916  0.7921 -0.5725
 1549SOL    HW3 6270   1.796   1.147   2.518  0.7154 -0.7841 -0.2868
 1549SOL    MW4 6271   1.800   1.150   2.605  0.7890 -0.2866 -0.3047
 1550SOL     OW 6272   2.013   1.251   2.710 -0.3681  0.6761 -0.4525
 1550SOL    HW2 6273   2.017   1.266   2.804 -0.7212 -0.6831 -0.2149
 1550SOL    HW3 6274   2.104   1.240   2.684 -0.3820 -0.5559  0.0031
 1550SOL    MW4 6275   2.025   1.251   2.719 -0.4168  0.3343 -0.3612
 1551SOL     OW 6276   2.023   1.519   2.601  0.0528 -0.7522  0.6549
 1551SOL    HW2 6277   1.946   1.558   2.641 -0.6088 -1.0420 -0.3169
 1551SOL    HW3 6278   2.030   1.433   2.642 -1.0149 -1.3148 -0.3291
 1551SOL    MW4 6279   2.014   1.513   2.612 -0.1752 -0.8645  0.3967
 1552SOL     OW 6280   1.808   1.666   2.700  0.2685  0.1880 -0.4926
 1552SOL    HW2 6281   1.811   1.676   2.795  0.3853 -0.3809 -0.4364
 1552SOL    HW3 6282   1.730   1.614   2.683 -0.0051  0.6682 -0.7478
 1552SOL    MW4 6283   1.798   1.661   2.710  0.2478  0.1763 -0.5186
 1553SOL     OW 6284   1.794   1.929   2.590 -0.3312  0.0542 -0.0775
 1553SOL    HW2 6285   1.873   1.972   2.624 -0.5837 -0.1830  0.8172
 1553SOL    HW3 6286   1.796   1.842   2.629 -0.1040 -0.5734 -1.4643
 1553SOL    MW4 6287   1.805   1.924   2.599 -0.3344 -0.0598 -0.1421
 1554SOL     OW 6288   2.012   2.047   2.692  0.0943  0.6596  0.5333
 1554SOL    HW2 6289   1.992   2.057   2.785 -0.7925 -0.5159  0.4871
 1554SOL    HW3 6290   2.009   2.135   2.656 -0.3301  1.0247  1.4666
 1554SOL    MW4 6291   2.009   2.060   2.699 -0.0787  0.5529  0.6504
 1555SOL     OW 6292   1.984   2.311   2.591  0.0974  0.3205  0.5977
 1555SOL    HW2 6293   2.065   2.335   2.636  0.5593  0.2511 -0.1907
 1555SOL    HW3 6294   1.999   2.337   2.500 -0.4285 -0.5118  0.2749
 1555SOL    MW4 6295   1.997   2.318   2.585  0.0890  0.2012  0.4511
 1556SOL     OW 6296   1.771   2.440   2.712 -0.1427  0.2889  0.5575
 1556SOL    HW2 6297   1.781   2.432   2.806  1.0087  0.1430  0.4299
 1556SOL    HW3 6298   1.847   2.394   2.675 -0.4930  0.4811 -0.4292
 1556SOL    MW4 6299   1.782   2.433   2.719 -0.0370  0.2952  0.4106
 1557SOL     OW 6300   1.758   2.680   2.588  0.1407  0.2057 -0.2953
 1557SOL    HW2 6301   1.760   2.593   2.626  0.5127  0.2368 -0.2417
 1557SOL    HW3 6302   1.812   2.674   2.509  0.3155  0.4292 -0.1960
 1557SOL    MW4 6303   1.766   2.668   2.582  0.2128  0.2394 -0.2751
 1558SOL     OW 6304   1.983   2.832   2.646  0.2809 -0.5155  0.0095
 1558SOL    HW2 6305   2.055   2.772   2.627  0.2408 -0.8685  0.9475
 1558SOL    HW3 6306   1.904   2.777   2.639  0.3205 -0.8595  1.9998
 1558SOL    MW4 6307   1.982   2.817   2.642  0.2807 -0.6073  0.3958
 1559SOL     OW 6308   2.014   3.096   2.608 -0.0199  0.1652 -0.0096
 1559SOL    HW2 6309   1.990   3.005   2.626  1.5983 -0.6009 -1.5157
 1559SOL    HW3 6310   2.026   3.099   2.513 -0.6859  2.1147 -0.0372
 1559SOL    MW4 6311   2.013   3.084   2.597  0.1061  0.3214 -0.2120
 1560SOL     OW 6312   1.821   3.234   2.738 -0.4565 -0.1468  0.4480
 1560SOL    HW2 6313   1.821   3.316   2.690 -1.7193 -0.5655 -0.3035
 1560SOL    HW3 6314   1.875   3.175   2.684 -0.1799 -0.0256  0.5945
 1560SOL    MW4 6315   1.828   3.237   2.724 -0.5866 -0.1860  0.3684
 1561SOL     OW 6316   1.778   3.482   2.645  0.1367  0.2012  0.3293
 1561SOL    HW2 6317   1.862   3.523   2.668 -1.1498  2.7871  0.6233
 1561SOL    HW3 6318   1.768   3.499   2.552  0.0351 -0.3076  0.2462
 1561SOL    MW4 6319   1.788   3.490   2.636 -0.0464  0.4752  0.3569
 1562SOL     OW 6320   2.020   3.596   2.730  0.3974 -0.1517  0.3741
 1562SOL    HW2 6321   2.028   3.582   2.825  0.0312 -1.5850  0.2091
 1562SOL    HW3 6322   2.100   3.558   2.694  0.5793  0.4813  0.1173
 1562SOL    MW4 6323   2.032   3.589   2.738  0.3729 -0.2570  0.3183
 1563SOL     OW 6324   2.039   3.874   2.659  0.2179  0.2029 -0.4147
 1563SOL    HW2 6325   1.958   3.917   2.689  0.3703  1.1170 -1.2879
 1563SOL    HW3 6326   2.028   3.782   2.683 -0.6328  0.5155  0.4124
 1563SOL    MW4 6327   2.027   3.868   2.666  0.1254  0.3648 -0.4210
 1564SOL     OW 6328   1.821   4.002   2.729 -0.0551 -0.3247 -0.0347
 1564SOL    HW2 6329   1.834   4.090   2.694 -1.0559  0.7923  2.3121
 1564SOL    HW3 6330   1.738   3.973   2.691  1.1259 -0.9731 -2.1800
 1564SOL    MW4 6331   1.812   4.010   2.720 -0.0314 -0.2627 -0.0081
 1565SOL     OW 6332   1.772   4.284   2.655  0.0366 -0.2546 -0.1874
 1565SOL    HW2 6333   1.687   4.321   2.678 -0.6495 -0.2712 -2.5173
 1565SOL    HW3 6334   1.776   4.291   2.560  0.8725 -4.0606 -0.5034
 1565SOL    MW4 6335   1.762   4.290   2.645  0.0563 -0.7586 -0.5367
 1566SOL     OW 6336   2.014   4.424   2.704 -0.6005 -0.3169  0.4673
 1566SOL    HW2 6337   1.931   4.377   2.696 -1.0437  0.4846  0.1965
 1566SOL    HW3 6338   1.992   4.514   2.678  0.4209 -0.1704  0.1105
 1566SOL    MW4 6339   2.000   4.430   2.700 -0.5243 -0.1917  0.3848
 1567SOL     OW 6340   2.441   4.633   2.620 -0.3499 -0.0742  0.3877
 1567SOL    HW2 6341   2.518   4.677   2.656 -0.4941 -0.0412  0.6618
 1567SOL    HW3 6342   2.445   4.650   2.526  1.1782 -1.9250  0.0876
 1567SOL    MW4 6343   2.452   4.641   2.613 -0.1674 -0.3142  0.3843
 1568SOL     OW 6344   2.227   0.134   2.727 -0.4012  0.5139 -0.2865
 1568SOL    HW2 6345   2.222   0.132   2.822 -2.1635  0.1289 -0.3615
 1568SOL    HW3 6346   2.309   0.089   2.706 -1.3589 -1.9386  0.9794
 1568SOL    MW4 6347   2.237   0.128   2.737 -0.7598  0.1395 -0.1292
 1569SOL     OW 6348   2.204   0.387   2.605  0.0322  0.1796  0.1703
 1569SOL    HW2 6349   2.224   0.299   2.636 -0.2961 -0.0414 -0.2216
 1569SOL    HW3 6350   2.213   0.381   2.510  1.3250  0.9234  0.2463
 1569SOL    MW4 6351   2.208   0.374   2.596  0.1593  0.2486  0.1287
 1570SOL     OW 6352   2.468   0.503   2.697 -0.4035 -0.2698  0.2588
 1570SOL    HW2 6353   2.455   0.591   2.662  0.0426  0.0141  0.8018
 1570SOL    HW3 6354   2.392   0.453   2.667 -0.3687  0.1508 -0.5408
 1570SOL    MW4 6355   2.457   0.508   2.688 -0.3397 -0.1768  0.2248
 1571SOL     OW 6356   2.498   0.772   2.610 -0.3866 -0.0642  0.5288
 1571SOL    HW2 6357   2.437   0.813   2.672  0.1417 -1.2022  1.8444
 1571SOL    HW3 6358   2.584   0.804   2.636 -0.2077 -0.1672  0.0723
 1571SOL    MW4 6359   2.501   0.781   2.622 -0.2935 -0.2279  0.6423
 1572SOL     OW 6360   2.280   0.903   2.727 -0.0683 -0.0191  0.0882
 1572SOL    HW2 6361   2.270   0.897   2.822 -3.0314  0.3215 -0.1855
 1572SOL    HW3 6362   2.213   0.845   2.691  1.3855 -0.6095 -1.8310
 1572SOL    MW4 6363   2.270   0.894   2.735 -0.2673 -0.0522 -0.2010
 1573SOL     OW 6364   2.273   1.176   2.628 -0.0472 -0.5653  0.0692
 1573SOL    HW2 6365   2.272   1.084   2.657  1.0883 -0.8953 -0.9322
 1573SOL    HW3 6366   2.269   1.171   2.533 -0.8726  0.4547  0.0521
 1573SOL    MW4 6367   2.272   1.163   2.620 -0.0062 -0.4743 -0.0653
 1574SOL     OW 6368   2.507   1.299   2.700 -0.4942 -0.0974 -0.6010
 1574SOL    HW2 6369   2.502   1.310   2.795  1.5122 -0.6899 -0.3940
 1574SOL    HW3 6370   2.434   1.242   2.678 -0.3343 -0.8435  0.7554
 1574SOL    MW4 6371   2.497   1.293   2.710 -0.2086 -0.2742 -0.3946
 1575SOL     OW 6372   2.455   1.550   2.579  0.4773 -0.3715  0.5917
 1575SOL    HW2 6373   2.382   1.603   2.611  0.2090 -0.2636 -0.1825
 1575SOL    HW3 6374   2.453   1.472   2.633  1.7713  1.0331  2.7167
 1575SOL    MW4 6375   2.445   1.547   2.590  0.6127 -0.1719  0.7699
 1576SOL     OW 6376   2.241   1.683   2.720  0.0100 -0.0305  0.3442
 1576SOL    HW2 6377   2.240   1.769   2.677  0.2523 -0.7514 -1.1703
 1576SOL    HW3 6378   2.164   1.638   2.685  0.3477 -0.7191  0.4733
 1576SOL    MW4 6379   2.231   1.688   2.709  0.0865 -0.2164  0.1616
 1577SOL     OW 6380   2.265   1.943   2.632 -0.2163 -0.2073  0.3275
 1577SOL    HW2 6381   2.181   1.981   2.659  0.0161  0.1291  0.5798
 1577SOL    HW3 6382   2.260   1.941   2.537 -1.1718 -1.7018  0.4014
 1577SOL    MW4 6383   2.253   1.948   2.623 -0.3121 -0.3600  0.3703
 1578SOL     OW 6384   2.485   2.093   2.705  0.6253 -0.1791  0.0236
 1578SOL    HW2 6385   2.498   2.083   2.799  1.9132 -0.7918 -0.2110
 1578SOL    HW3 6386   2.416   2.031   2.683 -0.1480  0.4467  0.6748
 1578SOL    MW4 6387   2.478   2.083   2.715  0.6931 -0.1774  0.0782
 1579SOL     OW 6388   2.465   2.345   2.575  0.2217 -0.1864  0.0494
 1579SOL    HW2 6389   2.486   2.262   2.617  1.3485  0.4916  0.8749
 1579SOL    HW3 6390   2.465   2.326   2.481 -1.1216 -1.4548  0.2992
 1579SOL    MW4 6391   2.468   2.332   2.568  0.1934 -0.2642  0.1917
 1580SOL     OW 6392   2.207   2.407   2.712 -0.3741  0.0975 -0.1659
 1580SOL    HW2 6393   2.210   2.395   2.807 -2.1360 -1.3104 -0.2445
 1580SOL    HW3 6394   2.287   2.367   2.679  0.7348  1.4789  0.7823
 1580SOL    MW4 6395   2.218   2.400   2.720 -0.4604  0.0942 -0.0510
 1581SOL     OW 6396   2.213   2.687   2.605 -0.6807 -0.4283 -0.7905
 1581SOL    HW2 6397   2.287   2.735   2.643 -1.5497  0.9051 -0.7418
 1581SOL    HW3 6398   2.215   2.602   2.648 -0.0347  0.1066  0.2554
 1581SOL    MW4 6399   2.223   2.682   2.615 -0.7102 -0.1819 -0.6459
 1582SOL     OW 6400   2.443   2.823   2.693  0.2407  0.7745 -0.1916
 1582SOL    HW2 6401   2.518   2.786   2.646 -0.2020  0.5135 -0.7004
 1582SOL    HW3 6402   2.457   2.917   2.688 -0.0577  0.7682 -1.2842
 1582SOL    MW4 6403   2.455   2.830   2.686  0.1431  0.7391 -0.4027
 1583SOL     OW 6404   2.466   3.091   2.633  0.2104 -0.3215  0.0449
 1583SOL    HW2 6405   2.398   3.153   2.661  0.1747 -0.3627  0.0488
 1583SOL    HW3 6406   2.466   3.097   2.538 -0.5460 -1.1213 -0.0087
 1583SOL    MW4 6407   2.457   3.100   2.624  0.1056 -0.4323  0.0381
 1584SOL     OW 6408   2.243   3.251   2.705  0.2553  0.2907  0.0331
 1584SOL    HW2 6409   2.250   3.256   2.800  0.7518  1.3096 -0.0547
 1584SOL    HW3 6410   2.167   3.194   2.689  0.0751  0.2524  1.0318
 1584SOL    MW4 6411   2.234   3.244   2.715  0.2971  0.4201  0.1533
 1585SOL     OW 6412   2.224   3.486   2.584  0.0997  0.1182  0.2160
 1585SOL    HW2 6413   2.295   3.533   2.626 -0.4928  1.0803  0.1692
 1585SOL    HW3 6414   2.227   3.398   2.621  0.6446  0.4644  0.9905
 1585SOL    MW4 6415   2.233   3.481   2.594  0.0935  0.2909  0.3119
 1586SOL     OW 6416   2.438   3.607   2.713  0.3611  0.2604  1.1359
 1586SOL    HW2 6417   2.464   3.610   2.805  0.9563  1.9239  0.9297
 1586SOL    HW3 6418   2.460   3.694   2.679  0.1794 -0.3484 -0.5874
 1586SOL    MW4 6419   2.445   3.619   2.721  0.4158  0.3994  0.8812
 1587SOL     OW 6420   2.453   3.878   2.620 -0.2518 -0.1024  0.5239
 1587SOL    HW2 6421   2.531   3.917   2.660 -1.0808  1.6350  0.4705
 1587SOL    HW3 6422   2.380   3.929   2.654 -1.2169 -0.4867 -0.9144
 1587SOL    MW4 6423   2.454   3.890   2.630 -0.4885  0.0761  0.3271
 1588SOL     OW 6424   2.245   4.020   2.755  0.4184  0.6719  0.1125
 1588SOL    HW2 6425   2.255   4.004   2.848  1.7585  0.0741 -0.1165
 1588SOL    HW3 6426   2.177   3.958   2.727  0.2011  0.6712  0.6326
 1588SOL    MW4 6427   2.237   4.009   2.763  0.5662  0.5927  0.1509
 1589SOL     OW 6428   2.215   4.246   2.600 -0.1629 -0.1594  0.1843
 1589SOL    HW2 6429   2.214   4.170   2.658  0.5493 -1.5662 -1.5732
 1589SOL    HW3 6430   2.147   4.304   2.635 -1.9962 -2.4127  0.5253
 1589SOL    MW4 6431   2.206   4.244   2.612 -0.3111 -0.6418 -0.0026
 1590SOL     OW 6432   2.440   4.374   2.693  0.3177  0.2094  0.0832
 1590SOL    HW2 6433   2.359   4.330   2.666  0.6097 -0.5803  0.4729
 1590SOL    HW3 6434   2.430   4.464   2.662 -0.5711  0.0341 -0.1577
 1590SOL    MW4 6435   2.428   4.380   2.686  0.2389  0.0820  0.1030
 1591SOL     OW 6436   2.918   0.002   2.625  0.0103 -0.1932  0.4958
 1591SOL    HW2 6437   2.999   0.044   2.656  1.2058 -0.8724 -1.5998
 1591SOL    HW3 6438   2.927   0.001   2.529 -1.9508 -1.3433  0.3077
 1591SOL    MW4 6439   2.930   0.007   2.616 -0.0908 -0.4346  0.1943
 1592SOL     OW 6440   2.678   0.133   2.689  0.2364  0.1672  0.0437
 1592SOL    HW2 6441   2.685   0.147   2.783  0.5508  0.6234 -0.0484
 1592SOL    HW3 6442   2.756   0.084   2.665 -0.4232 -0.9818  0.2147
 1592SOL    MW4 6443   2.689   0.129   2.698  0.1907  0.0758  0.0544
 1593SOL     OW 6444   2.702   0.392   2.591  0.1526 -0.1679  0.1808
 1593SOL    HW2 6445   2.705   0.303   2.625 -1.0386  0.1196  1.0672
 1593SOL    HW3 6446   2.623   0.430   2.629  0.3605  1.0996 -0.6105
 1593SOL    MW4 6447   2.692   0.385   2.600  0.0229  0.0373  0.1931
 1594SOL     OW 6448   2.927   0.507   2.692 -0.5469 -0.1843 -0.2879
 1594SOL    HW2 6449   2.934   0.596   2.656  0.2439  0.8074  2.2173
 1594SOL    HW3 6450   2.845   0.474   2.657 -0.0272  0.8728 -2.6372
 1594SOL    MW4 6451   2.917   0.515   2.682 -0.3741  0.0860 -0.2673
 1595SOL     OW 6452   2.964   0.787   2.609 -0.3496 -0.2491  0.1753
 1595SOL    HW2 6453   3.025   0.838   2.662 -0.2310  0.8055 -0.9436
 1595SOL    HW3 6454   2.878   0.805   2.646 -0.3774  1.2833 -0.5899
 1595SOL    MW4 6455   2.961   0.796   2.621 -0.3376  0.0922 -0.0737
 1596SOL     OW 6456   2.726   0.874   2.736  0.4314 -0.1388  0.0792
 1596SOL    HW2 6457   2.715   0.887   2.830  1.2433  1.0745  0.0205
 1596SOL    HW3 6458   2.750   0.961   2.703 -0.1741 -0.4792 -1.2966
 1596SOL    MW4 6459   2.728   0.887   2.744  0.4587 -0.0237 -0.1101
 1597SOL     OW 6460   2.735   1.134   2.632  0.1642  0.4569  0.0642
 1597SOL    HW2 6461   2.816   1.177   2.660  0.0934 -0.6278  2.0617
 1597SOL    HW3 6462   2.666   1.186   2.672 -0.1142  1.0545 -1.1802
 1597SOL    MW4 6463   2.737   1.146   2.641  0.1183  0.3926  0.1633
 1598SOL     OW 6464   2.961   1.265   2.702 -0.5124  0.5896 -0.0477
 1598SOL    HW2 6465   2.958   1.260   2.798 -1.1821  1.9046  0.0089
 1598SOL    HW3 6466   3.049   1.235   2.680 -0.1710  0.7685  1.0142
 1598SOL    MW4 6467   2.972   1.261   2.712 -0.5555  0.7868  0.0999
 1599SOL     OW 6468   2.931   1.523   2.624 -0.2448 -0.0880  0.0867
 1599SOL    HW2 6469   2.846   1.552   2.658 -0.3274 -1.2704  0.9284
 1599SOL    HW3 6470   2.937   1.431   2.650  1.3463  0.0124  0.1181
 1599SOL    MW4 6471   2.921   1.515   2.632 -0.0460 -0.2307  0.2017
 1600SOL     OW 6472   2.696   1.647   2.694 -0.2518 -0.2680 -0.3130
 1600SOL    HW2 6473   2.686   1.642   2.789 -2.9766  1.3990 -0.4396
 1600SOL    HW3 6474   2.615   1.610   2.659  0.7430 -0.9109 -1.9860
 1600SOL    MW4 6475   2.684   1.642   2.702 -0.4799 -0.1328 -0.5505
 1601SOL     OW 6476   2.744   1.927   2.630 -0.0364  0.1382 -0.3393
 1601SOL    HW2 6477   2.737   1.837   2.661  1.1208 -0.1998 -1.0074
 1601SOL    HW3 6478   2.662   1.969   2.657 -0.8562 -1.2802 -0.5711
 1601SOL    MW4 6479   2.732   1.921   2.637  0.0083 -0.0936 -0.4580
 1602SOL     OW 6480   2.935   2.086   2.751  0.1176 -0.1452 -0.0705
 1602SOL    HW2 6481   2.938   2.175   2.717  1.9817 -0.1219  0.1112
 1602SOL    HW3 6482   2.868   2.042   2.698  0.3376  0.9103 -1.2344
 1602SOL    MW4 6483   2.926   2.092   2.740  0.3927 -0.0029 -0.2000
 1603SOL     OW 6484   2.941   2.326   2.568  1.0482  0.1318  0.0075
 1603SOL    HW2 6485   3.020   2.364   2.607  0.4471  1.2436  0.1811
 1603SOL    HW3 6486   2.871   2.386   2.595  0.1806 -0.7417 -0.3013
 1603SOL    MW4 6487   2.942   2.339   2.577  0.8547  0.1633 -0.0103
 1604SOL     OW 6488   2.714   2.451   2.684  0.0393  0.1283  0.2677
 1604SOL    HW2 6489   2.710   2.434   2.779  0.0037  0.9736  0.4258
 1604SOL    HW3 6490   2.632   2.416   2.650  0.2145 -0.5086  0.4952
 1604SOL    MW4 6491   2.703   2.444   2.692  0.0577  0.1559  0.3185
 1605SOL     OW 6492   2.685   2.722   2.591 -0.5145  0.1679 -0.0754
 1605SOL    HW2 6493   2.768   2.754   2.625 -0.6467  0.1940  0.2295
 1605SOL    HW3 6494   2.682   2.630   2.618 -0.8391  0.3176  0.4126
 1605SOL    MW4 6495   2.695   2.714   2.599 -0.5746  0.1910  0.0291
 1606SOL     OW 6496   2.921   2.822   2.681 -0.0275  0.2586  0.0035
 1606SOL    HW2 6497   2.940   2.822   2.775 -1.5408  0.0878  0.3198
 1606SOL    HW3 6498   2.921   2.915   2.657  0.1808  0.3149  0.2215
 1606SOL    MW4 6499   2.923   2.835   2.690 -0.1996  0.2437  0.0741
 1607SOL     OW 6500   2.936   3.093   2.615 -0.3078  0.0008  0.6478
 1607SOL    HW2 6501   2.853   3.135   2.636 -0.4376  0.1721 -0.1829
 1607SOL    HW3 6502   2.943   3.101   2.520  1.2281  1.0609  0.8292
 1607SOL    MW4 6503   2.926   3.100   2.605 -0.1223  0.1633  0.5620
 1608SOL     OW 6504   2.707   3.215   2.708 -0.1374 -0.4427 -0.4996
 1608SOL    HW2 6505   2.714   3.223   2.803 -1.4773 -1.2753 -0.3328
 1608SOL    HW3 6506   2.629   3.162   2.693 -0.5799  0.6090 -2.0994
 1608SOL    MW4 6507   2.698   3.209   2.718 -0.3724 -0.4139 -0.6883
 1609SOL     OW 6508   2.671   3.493   2.623 -0.1512 -0.0374  0.0434
 1609SOL    HW2 6509   2.592   3.524   2.668  0.7680  1.3535  0.7587
 1609SOL    HW3 6510   2.675   3.400   2.642 -1.6705 -0.1237 -0.0615
 1609SOL    MW4 6511   2.661   3.485   2.632 -0.2306  0.1347  0.1237
 1610SOL     OW 6512   2.918   3.603   2.723  1.5066 -0.1031 -0.1698
 1610SOL    HW2 6513   2.916   3.602   2.819  0.9370 -1.2792 -0.1811
 1610SOL    HW3 6514   2.838   3.557   2.698  1.4034  0.6506 -1.2122
 1610SOL    MW4 6515   2.907   3.597   2.732  1.4176 -0.1585 -0.3088
 1611SOL     OW 6516   2.907   3.843   2.623  0.3104  0.2489  0.1655
 1611SOL    HW2 6517   2.987   3.886   2.656  1.0707  0.5474 -2.0084
 1611SOL    HW3 6518   2.913   3.754   2.656  1.2978  0.4019  0.4333
 1611SOL    MW4 6519   2.919   3.837   2.632  0.5410  0.3085 -0.0861
 1612SOL     OW 6520   2.682   3.995   2.700  0.0887  0.1696  0.2074
 1612SOL    HW2 6521   2.684   4.087   2.673 -0.2468  0.0732 -0.1344
 1612SOL    HW3 6522   2.771   3.964   2.683  0.0039  0.2317 -0.3548
 1612SOL    MW4 6523   2.694   4.003   2.695  0.0331  0.1650  0.0882
 1613SOL     OW 6524   2.696   4.269   2.633  0.3595 -0.2634 -0.1846
 1613SOL    HW2 6525   2.770   4.322   2.661  0.8656  0.0862 -2.1605
 1613SOL    HW3 6526   2.619   4.322   2.653  0.7058 -0.0041  0.4775
 1613SOL    MW4 6527   2.696   4.283   2.639  0.4723 -0.1831 -0.3576
 1614SOL     OW 6528   2.925   4.390   2.705 -0.7960 -0.3433 -0.5857
 1614SOL    HW2 6529   2.911   4.405   2.798  1.0035 -1.1085 -0.1836
 1614SOL    HW3 6530   2.939   4.478   2.668 -4.2426  0.2672 -0.6581
 1614SOL    MW4 6531   2.925   4.404   2.712 -1.0133 -0.3643 -0.5422
 1615SOL     OW 6532   3.406   0.039   2.641  0.6037 -0.2118 -0.1706
 1615SOL    HW2 6533   3.400  -0.056   2.655  0.2660 -0.1135  0.3729
 1615SOL    HW3 6534   3.321   0.072   2.668  1.3166  0.4459  1.2829
 1615SOL    MW4 6535   3.394   0.031   2.646  0.6530 -0.1120  0.0930
 1616SOL     OW 6536   3.149   0.115   2.714  0.0391 -0.0002 -0.2928
 1616SOL    HW2 6537   3.140   0.137   2.807  2.5124 -0.0792 -0.0056
 1616SOL    HW3 6538   3.147   0.199   2.669  0.1009  0.1267 -0.0575
 1616SOL    MW4 6539   3.148   0.129   2.720  0.3734  0.0061 -0.2239
 1617SOL     OW 6540   3.153   0.370   2.620 -0.0812 -0.0041  0.1804
 1617SOL    HW2 6541   3.085   0.428   2.656 -0.0685  0.8569 -1.1340
 1617SOL    HW3 6542   3.141   0.377   2.525  0.6354 -1.3237 -0.0007
 1617SOL    MW4 6543   3.142   0.379   2.612  0.0148 -0.0646 -0.0172
 1618SOL     OW 6544   3.409   0.486   2.715 -0.2643 -0.2452  0.1227
 1618SOL    HW2 6545   3.394   0.488   2.810 -0.5717  0.1531  0.0635
 1618SOL    HW3 6546   3.339   0.431   2.681  0.2417 -0.9474  0.2008
 1618SOL    MW4 6547   3.398   0.479   2.723 -0.2379 -0.2853  0.1254
 1619SOL     OW 6548   3.374   0.740   2.608  0.6469 -0.2271 -0.5308
 1619SOL    HW2 6549   3.375   0.651   2.643 -1.0572 -0.4757 -1.0638
 1619SOL    HW3 6550   3.442   0.786   2.657 -0.4677 -1.0420  1.8607
 1619SOL    MW4 6551   3.383   0.734   2.619  0.2749 -0.3675 -0.2856
 1620SOL     OW 6552   3.208   0.913   2.736 -0.0548  0.1151  0.2205
 1620SOL    HW2 6553   3.212   0.897   2.831 -1.4623 -0.4879  0.2004
 1620SOL    HW3 6554   3.261   0.843   2.698  1.2021  0.8474  0.5952
 1620SOL    MW4 6555   3.215   0.901   2.744 -0.0744  0.1322  0.2673
 1621SOL     OW 6556   3.222   1.173   2.619  0.2972 -0.7319 -0.0161
 1621SOL    HW2 6557   3.217   1.082   2.649 -1.1193 -0.6105  0.1727
 1621SOL    HW3 6558   3.204   1.167   2.525 -2.2863 -0.4293  0.4149
 1621SOL    MW4 6559   3.219   1.160   2.610 -0.2303 -0.6759  0.0658
 1622SOL     OW 6560   3.405   1.328   2.778  0.0984 -0.1779 -0.2062
 1622SOL    HW2 6561   3.377   1.317   2.869  0.6372 -1.8517 -0.2183
 1622SOL    HW3 6562   3.332   1.294   2.726 -0.0591  0.4470 -0.4066
 1622SOL    MW4 6563   3.392   1.322   2.783  0.1488 -0.3163 -0.2344
 1623SOL     OW 6564   3.403   1.580   2.649  0.0171 -0.4664  0.2491
 1623SOL    HW2 6565   3.313   1.611   2.664 -0.0884 -0.6474 -0.0132
 1623SOL    HW3 6566   3.412   1.503   2.706 -0.1502 -0.7320 -0.0842
 1623SOL    MW4 6567   3.392   1.574   2.659 -0.0191 -0.5254  0.1705
 1624SOL     OW 6568   3.141   1.662   2.751  0.4217 -0.4337 -0.4213
 1624SOL    HW2 6569   3.148   1.752   2.719  0.1711  0.1092  1.0208
 1624SOL    HW3 6570   3.074   1.622   2.695  1.2518 -0.0188 -1.7167
 1624SOL    MW4 6571   3.133   1.668   2.740  0.4985 -0.3073 -0.4015
 1625SOL     OW 6572   3.164   1.936   2.649 -0.4343 -0.3179  0.7774
 1625SOL    HW2 6573   3.247   1.975   2.676 -1.3770  1.3611  1.2952
 1625SOL    HW3 6574   3.097   1.989   2.693 -1.8764  0.0891 -1.8175
 1625SOL    MW4 6575   3.166   1.948   2.659 -0.7489 -0.0428  0.5033
 1626SOL     OW 6576   3.404   2.060   2.718 -0.1518 -0.7585 -0.4188
 1626SOL    HW2 6577   3.381   2.058   2.811  0.4080  0.4119 -0.2451
 1626SOL    HW3 6578   3.406   2.153   2.696  0.7861 -0.9895 -1.3331
 1626SOL    MW4 6579   3.401   2.072   2.727  0.0458 -0.6347 -0.5164
 1627SOL     OW 6580   3.434   2.330   2.634  0.3557  0.2192  0.7761
 1627SOL    HW2 6581   3.500   2.391   2.667 -0.0858  0.5609  1.0541
 1627SOL    HW3 6582   3.435   2.342   2.539 -0.3960  1.3705  0.9056
 1627SOL    MW4 6583   3.443   2.340   2.626  0.1979  0.4165  0.8297
 1628SOL     OW 6584   3.167   2.411   2.697  0.5814  0.1641 -0.4555
 1628SOL    HW2 6585   3.182   2.500   2.665 -0.2540 -0.5220 -2.8388
 1628SOL    HW3 6586   3.242   2.360   2.664 -0.1220 -0.4832 -1.0863
 1628SOL    MW4 6587   3.179   2.416   2.688  0.3784 -0.0117 -0.8533
 1629SOL     OW 6588   3.160   2.665   2.634  0.1025  0.0830 -0.0050
 1629SOL    HW2 6589   3.227   2.727   2.661 -0.6521  0.3731  1.2488
 1629SOL    HW3 6590   3.079   2.715   2.633 -0.5713 -0.9340  1.3555
 1629SOL    MW4 6591   3.158   2.680   2.638 -0.0856 -0.0131  0.3400
 1630SOL     OW 6592   3.354   2.863   2.719 -0.0988 -0.3850 -0.2347
 1630SOL    HW2 6593   3.351   2.866   2.815 -0.0984 -1.5470 -0.2019
 1630SOL    HW3 6594   3.442   2.834   2.698  0.7608  2.4015 -0.6541
 1630SOL    MW4 6595   3.365   2.860   2.729  0.0148 -0.1707 -0.2859
 1631SOL     OW 6596   3.348   3.100   2.612  0.5886 -0.2343 -0.3444
 1631SOL    HW2 6597   3.352   3.008   2.635 -0.3574 -0.2328 -0.1410
 1631SOL    HW3 6598   3.366   3.102   2.518  0.1477 -0.6754 -0.4413
 1631SOL    MW4 6599   3.351   3.088   2.602  0.4058 -0.2923 -0.3302
 1632SOL     OW 6600   3.135   3.222   2.762 -0.2042 -0.0897 -1.0019
 1632SOL    HW2 6601   3.208   3.170   2.727 -0.4148 -0.2195 -1.2478
 1632SOL    HW3 6602   3.057   3.178   2.730 -0.4649 -1.4560  1.3733
 1632SOL    MW4 6603   3.135   3.210   2.753 -0.2661 -0.2871 -0.7210
 1633SOL     OW 6604   3.143   3.483   2.615 -0.4190  0.0471  0.4827
 1633SOL    HW2 6605   3.143   3.401   2.665 -1.8485  0.6440  1.4741
 1633SOL    HW3 6606   3.055   3.519   2.628 -0.0316  1.3803 -0.5462
 1633SOL    MW4 6607   3.131   3.477   2.623 -0.5567  0.3018  0.4780
 1634SOL     OW 6608   3.367   3.637   2.688  0.4120 -0.6462  0.5566
 1634SOL    HW2 6609   3.378   3.629   2.783  1.5356 -1.8838  0.3274
 1634SOL    HW3 6610   3.278   3.606   2.672  0.1291 -0.1984  1.2316
 1634SOL    MW4 6611   3.356   3.632   2.698  0.5229 -0.7503  0.6156
 1635SOL     OW 6612   3.394   3.895   2.585 -0.1520 -0.1377  0.1527
 1635SOL    HW2 6613   3.390   3.810   2.627 -1.5992  0.0733  0.4474
 1635SOL    HW3 6614   3.395   3.876   2.491 -0.2933 -0.4767  0.2220
 1635SOL    MW4 6615   3.394   3.881   2.578 -0.3617 -0.1543  0.2010
 1636SOL     OW 6616   3.149   3.987   2.698  0.2446  0.2701  0.2053
 1636SOL    HW2 6617   3.153   4.079   2.672  1.0004 -0.0569 -0.8658
 1636SOL    HW3 6618   3.230   3.949   2.665 -0.1938 -0.8515  0.3989
 1636SOL    MW4 6619   3.160   3.994   2.691  0.2866  0.0792  0.0894
 1637SOL     OW 6620   3.167   4.253   2.650  0.0952  0.3227 -0.3579
 1637SOL    HW2 6621   3.086   4.295   2.680  0.2564  0.3684  0.0076
 1637SOL    HW3 6622   3.167   4.269   2.555  0.1557  1.1561 -0.2265
 1637SOL    MW4 6623   3.156   4.261   2.641  0.1247  0.4387 -0.2921
 1638SOL     OW 6624   3.391   4.448   2.716 -0.4266 -0.0443  0.4701
 1638SOL    HW2 6625   3.389   4.442   2.812  2.3052 -2.7885  0.4148
 1638SOL    HW3 6626   3.320   4.391   2.687  0.2319 -1.0931  0.8607
 1638SOL    MW4 6627   3.382   4.440   2.725  0.0207 -0.5450  0.5145
 1639SOL     OW 6628   3.810   4.665   2.593 -0.0033 -0.2695 -0.0273
 1639SOL    HW2 6629   3.816   4.584   2.644  0.0099 -0.0003  0.4030
 1639SOL    HW3 6630   3.748   4.719   2.642  0.9888  0.5017  0.4084
 1639SOL    MW4 6631   3.803   4.661   2.606  0.1290 -0.1322  0.0870
 1640SOL     OW 6632   3.634   0.145   2.765 -0.0871  0.1928 -0.0219
 1640SOL    HW2 6633   3.642   0.232   2.727  0.2775  0.3419  0.3817
 1640SOL    HW3 6634   3.561   0.105   2.720  0.7354  0.1335 -1.3228
 1640SOL    MW4 6635   3.626   0.151   2.754  0.0694  0.2047 -0.1400
 1641SOL     OW 6636   3.639   0.390   2.648 -0.4814 -0.0963  0.3905
 1641SOL    HW2 6637   3.701   0.448   2.693 -1.2331  1.3838 -0.4464
 1641SOL    HW3 6638   3.553   0.416   2.682 -0.7384 -1.5754  0.9281
 1641SOL    MW4 6639   3.636   0.401   2.658 -0.6146 -0.0962  0.3510
 1642SOL     OW 6640   3.847   0.539   2.744 -0.4194  0.3928  0.3417
 1642SOL    HW2 6641   3.856   0.534   2.839  0.3454  1.2400  0.3210
 1642SOL    HW3 6642   3.909   0.473   2.711 -1.0897 -0.2860  0.4471
 1642SOL    MW4 6643   3.857   0.529   2.752 -0.4067  0.4150  0.3529
 1643SOL     OW 6644   3.818   0.806   2.648 -0.2561 -0.0259  0.0071
 1643SOL    HW2 6645   3.736   0.837   2.687 -1.2366 -2.5496  0.0710
 1643SOL    HW3 6646   3.836   0.723   2.693  1.6917 -0.1025 -0.8652
 1643SOL    MW4 6647   3.810   0.799   2.659 -0.1285 -0.3690 -0.0997
 1644SOL     OW 6648   3.545   0.903   2.740 -0.2986  0.5991  0.4321
 1644SOL    HW2 6649   3.562   0.902   2.834 -2.0108 -0.3896  0.7564
 1644SOL    HW3 6650   3.525   0.995   2.721  0.6238  0.9114  0.9087
 1644SOL    MW4 6651   3.544   0.915   2.750 -0.4029  0.5099  0.5379
 1645SOL     OW 6652   3.595   1.182   2.645  0.4142  0.5912 -0.2771
 1645SOL    HW2 6653   3.533   1.231   2.699  0.2754 -0.7505  0.8149
 1645SOL    HW3 6654   3.681   1.213   2.674  0.3252  0.3429  0.2518
 1645SOL    MW4 6655   3.598   1.193   2.656  0.3843  0.3814 -0.0632
 1646SOL     OW 6656   3.855   1.274   2.723 -0.0380 -0.1416 -0.2811
 1646SOL    HW2 6657   3.936   1.253   2.677  0.5090 -0.4925  0.8283
 1646SOL    HW3 6658   3.841   1.367   2.705  0.3519 -0.1894 -0.8574
 1646SOL    MW4 6659   3.864   1.283   2.715  0.0854 -0.1943 -0.2108
 1647SOL     OW 6660   3.823   1.548   2.650 -0.0044  0.1182  0.2851
 1647SOL    HW2 6661   3.906   1.589   2.671 -0.3156  1.1039 -0.3857
 1647SOL    HW3 6662   3.758   1.599   2.698 -0.2863 -0.2758  0.3273
 1647SOL    MW4 6663   3.825   1.560   2.659 -0.0827  0.1962  0.2019
 1648SOL     OW 6664   3.620   1.696   2.770  0.4313 -0.1897 -0.0066
 1648SOL    HW2 6665   3.628   1.788   2.745  0.0540  0.0604  0.7711
 1648SOL    HW3 6666   3.540   1.666   2.727 -0.4053  0.3331  1.1291
 1648SOL    MW4 6667   3.610   1.704   2.761  0.2711 -0.0877  0.2456
 1649SOL     OW 6668   3.644   1.951   2.655  0.3474  0.2887 -0.2051
 1649SOL    HW2 6669   3.568   2.003   2.680 -1.9638 -2.5265 -1.1992
 1649SOL    HW3 6670   3.634   1.938   2.561  0.4636 -2.5965  0.1580
 1649SOL    MW4 6671   3.633   1.956   2.646  0.0579 -0.4634 -0.2885
 1650SOL     OW 6672   3.874   2.089   2.720  0.2240  0.1689  0.0750
 1650SOL    HW2 6673   3.949   2.049   2.676  0.3560  1.2129 -0.6712
 1650SOL    HW3 6674   3.799   2.038   2.690  0.3237  0.8112 -1.3017
 1650SOL    MW4 6675   3.874   2.077   2.710  0.2546  0.3912 -0.2053
 1651SOL     OW 6676   3.825   2.329   2.607 -0.0745  0.3810 -0.3648
 1651SOL    HW2 6677   3.836   2.241   2.644 -0.6350  0.5340  0.1782
 1651SOL    HW3 6678   3.820   2.315   2.513  1.2616 -0.0271 -0.3948
 1651SOL    MW4 6679   3.826   2.315   2.600  0.0279  0.3471 -0.2971
 1652SOL     OW 6680   3.633   2.486   2.742  0.0104  0.1569 -0.3371
 1652SOL    HW2 6681   3.638   2.501   2.836  0.3890 -0.8865 -0.1808
 1652SOL    HW3 6682   3.717   2.444   2.720 -0.0698  0.4103 -1.1370
 1652SOL    MW4 6683   3.645   2.483   2.752  0.0501  0.0527 -0.4220
 1653SOL     OW 6684   3.632   2.711   2.583  0.2203  0.2579  0.5281
 1653SOL    HW2 6685   3.630   2.627   2.629  0.8154  0.5865  1.1577
 1653SOL    HW3 6686   3.698   2.762   2.629  0.0427  0.9826 -0.0156
 1653SOL    MW4 6687   3.640   2.706   2.596  0.2754  0.3970  0.5393
 1654SOL     OW 6688   3.830   2.858   2.746 -0.3648  0.0317 -0.5621
 1654SOL    HW2 6689   3.910   2.819   2.711 -0.5356 -1.1261  0.2978
 1654SOL    HW3 6690   3.827   2.945   2.708  1.2477  0.0375 -0.7086
 1654SOL    MW4 6691   3.840   2.864   2.737 -0.1743 -0.1204 -0.4678
 1655SOL     OW 6692   3.828   3.130   2.671  0.3591  0.1275 -0.3326
 1655SOL    HW2 6693   3.746   3.175   2.693  0.7095  0.9484 -0.6872
 1655SOL    HW3 6694   3.893   3.171   2.729  0.4638 -0.7351  0.1635
 1655SOL    MW4 6695   3.826   3.142   2.682  0.4191  0.1218 -0.3142
 1656SOL     OW 6696   3.578   3.244   2.734  0.4293  0.1447  0.0094
 1656SOL    HW2 6697   3.576   3.335   2.705  0.7601 -0.3264 -1.5300
 1656SOL    HW3 6698   3.492   3.210   2.710 -0.1178  0.3571  1.6289
 1656SOL    MW4 6699   3.566   3.251   2.727  0.4008  0.1106  0.0198
 1657SOL     OW 6700   3.585   3.489   2.600 -0.2339 -0.4638  0.4247
 1657SOL    HW2 6701   3.660   3.538   2.633 -0.3282  0.2892 -0.4729
 1657SOL    HW3 6702   3.511   3.549   2.611 -0.1056  0.1729 -2.0828
 1657SOL    MW4 6703   3.585   3.504   2.606 -0.2294 -0.2804 -0.0246
 1658SOL     OW 6704   3.806   3.635   2.743  0.0720 -0.3580  0.5417
 1658SOL    HW2 6705   3.882   3.580   2.724 -0.0186 -0.3463  0.1427
 1658SOL    HW3 6706   3.823   3.717   2.696  0.2537 -0.0070  1.2138
 1658SOL    MW4 6707   3.818   3.638   2.734  0.0839 -0.3102  0.5777
 1659SOL     OW 6708   3.854   3.878   2.599  0.1961  0.3347  0.3393
 1659SOL    HW2 6709   3.931   3.923   2.636 -0.3101  1.8074 -0.3620
 1659SOL    HW3 6710   3.779   3.922   2.638 -0.3263  0.8000 -1.1517
 1659SOL    MW4 6711   3.854   3.890   2.609  0.0598  0.5903  0.0501
 1660SOL     OW 6712   3.623   4.012   2.674 -0.6498 -0.1401 -0.0630
 1660SOL    HW2 6713   3.616   4.099   2.636  0.1677 -0.5803 -1.2831
 1660SOL    HW3 6714   3.550   3.963   2.637 -0.0892 -0.4581 -0.7526
 1660SOL    MW4 6715   3.613   4.017   2.664 -0.4680 -0.2403 -0.3147
 1661SOL     OW 6716   3.606   4.284   2.622 -0.3251 -0.7471  0.3610
 1661SOL    HW2 6717   3.534   4.341   2.649  0.3016  0.0871  0.3008
 1661SOL    HW3 6718   3.602   4.282   2.527  1.2610  1.3678  0.2055
 1661SOL    MW4 6719   3.596   4.291   2.613 -0.0331 -0.3581  0.3326
 1662SOL     OW 6720   3.828   4.408   2.734 -0.1791  0.0812 -0.0268
 1662SOL    HW2 6721   3.903   4.362   2.696  0.5391  0.7405  0.5564
 1662SOL    HW3 6722   3.752   4.367   2.695  0.3308 -3.2588  2.2549
 1662SOL    MW4 6723   3.828   4.396   2.724 -0.0169 -0.2728  0.3514
 1663SOL     OW 6724   4.288   0.033   2.608  0.1540 -0.1637 -0.1444
 1663SOL    HW2 6725   4.215   0.060   2.664 -0.8277  0.5908 -1.7314
 1663SOL    HW3 6726   4.366   0.067   2.651 -0.5512  0.1832  0.8829
 1663SOL    MW4 6727   4.288   0.041   2.621 -0.0682 -0.0184 -0.2184
 1664SOL     OW 6728   4.045   0.085   2.727 -0.2498  0.2495  0.0504
 1664SOL    HW2 6729   4.012   0.101   2.815 -0.2686 -2.7201  0.6425
 1664SOL    HW3 6730   3.969   0.054   2.678  0.1580  0.1399 -0.5153
 1664SOL    MW4 6731   4.031   0.083   2.732 -0.1988 -0.1568  0.0539
 1665SOL     OW 6732   4.020   0.343   2.661  0.6587 -0.2222  0.2396
 1665SOL    HW2 6733   4.024   0.249   2.675 -1.0049 -0.3625 -0.1181
 1665SOL    HW3 6734   4.039   0.355   2.568  1.7246 -0.1271  0.4660
 1665SOL    MW4 6735   4.023   0.332   2.650  0.5798 -0.2281  0.2222
 1666SOL     OW 6736   4.273   0.519   2.782 -0.1546 -0.0774  0.2398
 1666SOL    HW2 6737   4.199   0.463   2.756 -0.2639  0.4950 -0.7214
 1666SOL    HW3 6738   4.347   0.484   2.733  0.0970 -0.2925  0.7672
 1666SOL    MW4 6739   4.273   0.507   2.772 -0.1354 -0.0302  0.1826
 1667SOL     OW 6740   4.239   0.784   2.687  0.4405  0.2350 -0.6047
 1667SOL    HW2 6741   4.235   0.693   2.717  0.8356  0.3125 -0.3250
 1667SOL    HW3 6742   4.249   0.777   2.592  1.5002 -0.0201 -0.4782
 1667SOL    MW4 6743   4.240   0.771   2.678  0.6328  0.2115 -0.5510
 1668SOL     OW 6744   4.026   0.965   2.790  0.4892 -0.2560  0.0840
 1668SOL    HW2 6745   4.091   0.904   2.757 -0.4202 -1.6585  0.8516
 1668SOL    HW3 6746   3.942   0.933   2.757 -0.1408 -0.2108  1.5818
 1668SOL    MW4 6747   4.023   0.953   2.781  0.2856 -0.4351  0.3827
 1669SOL     OW 6748   4.073   1.154   2.595 -0.4524  0.0006 -0.2062
 1669SOL    HW2 6749   4.148   1.204   2.627 -0.7443  0.9434 -0.9867
 1669SOL    HW3 6750   4.060   1.086   2.661  0.5972  0.3138  0.3306
 1669SOL    MW4 6751   4.081   1.151   2.608 -0.3519  0.1664 -0.2382
 1670SOL     OW 6752   4.312   1.254   2.715  0.1086 -0.0037  0.0904
 1670SOL    HW2 6753   4.311   1.346   2.688 -1.3707 -0.5441 -1.7812
 1670SOL    HW3 6754   4.367   1.210   2.650 -1.3970 -0.8856 -0.6159
 1670SOL    MW4 6755   4.319   1.260   2.703 -0.2856 -0.1913 -0.2499
 1671SOL     OW 6756   4.291   1.512   2.621  0.1724 -0.0519  0.6099
 1671SOL    HW2 6757   4.358   1.575   2.648  1.1379 -1.1442  0.7765
 1671SOL    HW3 6758   4.294   1.514   2.526  0.6319 -0.2933  0.6174
 1671SOL    MW4 6759   4.300   1.521   2.612  0.3600 -0.2278  0.6332
 1672SOL     OW 6760   4.066   1.674   2.685 -0.0495 -0.2483 -0.3826
 1672SOL    HW2 6761   4.060   1.682   2.780  0.6796 -1.1482 -0.2437
 1672SOL    HW3 6762   4.132   1.605   2.671  2.5525  2.3327 -1.5771
 1672SOL    MW4 6763   4.074   1.666   2.695  0.3896 -0.0266 -0.5217
 1673SOL     OW 6764   4.076   1.945   2.604 -0.1976  0.3669 -0.2211
 1673SOL    HW2 6765   4.149   1.994   2.640 -0.5380  0.1912  0.7333
 1673SOL    HW3 6766   4.086   1.857   2.640  0.9196 -0.5409 -2.6284
 1673SOL    MW4 6767   4.087   1.939   2.613 -0.0949  0.2239 -0.4129
 1674SOL     OW 6768   4.274   2.083   2.724 -0.1030  0.3331  0.3583
 1674SOL    HW2 6769   4.264   2.177   2.706  0.1201  0.5620  1.4257
 1674SOL    HW3 6770   4.344   2.055   2.666 -0.4156  0.7502 -0.2271
 1674SOL    MW4 6771   4.282   2.092   2.714 -0.1149  0.4187  0.4220
 1675SOL     OW 6772   4.247   2.330   2.579 -0.0484  0.0685  0.4782
 1675SOL    HW2 6773   4.177   2.387   2.609  0.6509  0.7175  0.9082
 1675SOL    HW3 6774   4.228   2.314   2.486  0.1919  1.6809  0.1319
 1675SOL    MW4 6775   4.236   2.335   2.570  0.0758  0.3669  0.4895
 1676SOL     OW 6776   4.028   2.478   2.699  0.2412 -0.0395 -0.2303
 1676SOL    HW2 6777   4.011   2.447   2.788 -1.1067  0.1233 -0.4134
 1676SOL    HW3 6778   3.960   2.435   2.646 -0.6768  1.9992 -0.7315
 1676SOL    MW4 6779   4.016   2.468   2.704 -0.0577  0.2511 -0.3204
 1677SOL     OW 6780   4.067   2.731   2.618 -0.3988  0.2014  0.1290
 1677SOL    HW2 6781   4.152   2.767   2.642 -0.7979  1.2430  0.0037
 1677SOL    HW3 6782   4.068   2.642   2.654  1.6561 -0.6461 -1.9196
 1677SOL    MW4 6783   4.078   2.724   2.626 -0.1802  0.2267 -0.1576
 1678SOL     OW 6784   4.298   2.846   2.725 -0.0831  0.4419 -0.3058
 1678SOL    HW2 6785   4.298   2.867   2.818 -1.5632 -1.2964  0.1085
 1678SOL    HW3 6786   4.286   2.930   2.681  1.1246  1.3365  1.0443
 1678SOL    MW4 6787   4.297   2.860   2.731 -0.1192  0.3307 -0.0732
 1679SOL     OW 6788   4.252   3.092   2.621 -0.1427 -0.1982 -0.4323
 1679SOL    HW2 6789   4.185   3.149   2.659  0.1151  0.0643 -0.3754
 1679SOL    HW3 6790   4.223   3.079   2.530 -0.1374  0.1172 -0.4781
 1679SOL    MW4 6791   4.239   3.098   2.614 -0.1082 -0.1221 -0.4306
 1680SOL     OW 6792   4.080   3.260   2.752  0.4187 -0.0578 -0.1693
 1680SOL    HW2 6793   4.062   3.351   2.728 -0.6140 -0.2090  0.0067
 1680SOL    HW3 6794   4.087   3.262   2.848  0.7453 -0.1104 -0.1906
 1680SOL    MW4 6795   4.079   3.272   2.762  0.3257 -0.0846 -0.1490
 1681SOL     OW 6796   4.028   3.513   2.657 -0.4043  0.0416  0.7387
 1681SOL    HW2 6797   4.115   3.547   2.675 -0.8502  1.5058  0.2007
 1681SOL    HW3 6798   4.027   3.499   2.562 -0.0353 -2.0661  1.0115
 1681SOL    MW4 6799   4.039   3.516   2.646 -0.4144 -0.0434  0.7038
 1682SOL     OW 6800   4.278   3.620   2.725  0.5457 -0.2153  0.4168
 1682SOL    HW2 6801   4.281   3.620   2.820 -0.6988 -2.8049  0.4790
 1682SOL    HW3 6802   4.352   3.566   2.698  1.1036  0.7935 -0.1243
 1682SOL    MW4 6803   4.288   3.613   2.734  0.4549 -0.4239  0.3533
 1683SOL     OW 6804   4.280   3.877   2.636 -0.2936 -0.1378 -0.3512
 1683SOL    HW2 6805   4.282   3.791   2.679 -0.5545  0.2912  0.5214
 1683SOL    HW3 6806   4.346   3.929   2.683 -1.2399  0.6233  0.1410
 1683SOL    MW4 6807   4.289   3.872   2.648 -0.4530  0.0193 -0.1709
 1684SOL     OW 6808   4.056   4.025   2.712 -0.5851  0.1208 -0.1630
 1684SOL    HW2 6809   4.067   4.043   2.805 -1.0559  0.1006 -0.1020
 1684SOL    HW3 6810   4.133   3.973   2.688 -0.8580 -0.5427  0.3877
 1684SOL    MW4 6811   4.068   4.020   2.721 -0.6828  0.0310 -0.0825
 1685SOL     OW 6812   4.076   4.283   2.620  0.1714 -0.3749 -0.0706
 1685SOL    HW2 6813   4.072   4.191   2.646  1.8862 -0.2989  0.4968
 1685SOL    HW3 6814   4.085   4.280   2.524  1.0329 -0.8197  0.0174
 1685SOL    MW4 6815   4.077   4.270   2.611  0.5121 -0.4234  0.0160
 1686SOL     OW 6816   4.282   4.452   2.722  0.3073 -0.4334 -0.2144
 1686SOL    HW2 6817   4.210   4.401   2.684  0.3914 -0.9129  0.2763
 1686SOL    HW3 6818   4.271   4.539   2.683 -0.5596 -0.4902 -0.1213
 1686SOL    MW4 6819   4.271   4.457   2.712  0.2036 -0.5045 -0.1373
 1687SOL     OW 6820   0.252   4.643   3.061  0.4863  0.2703  0.4248
 1687SOL    HW2 6821   0.255   4.636   3.156  1.9144  1.1197  0.4701
 1687SOL    HW3 6822   0.168   4.684   3.042 -0.2163 -0.7673  1.2475
 1687SOL    MW4 6823   0.241   4.648   3.071  0.5820  0.2451  0.5393
 1688SOL     OW 6824   0.031   0.148   3.016 -0.1795 -0.0903  0.3132
 1688SOL    HW2 6825  -0.045   0.107   3.058 -0.2552  1.0587  1.3354
 1688SOL    HW3 6826   0.043   0.230   3.064  0.0386  1.0254 -1.6126
 1688SOL    MW4 6827   0.023   0.154   3.028 -0.1608  0.2085  0.1941
 1689SOL     OW 6828   0.024   0.407   3.139 -0.2790 -0.0244 -0.1576
 1689SOL    HW2 6829   0.025   0.383   3.232 -1.0141  0.8342  0.0788
 1689SOL    HW3 6830  -0.067   0.430   3.122 -0.5406 -2.0070 -1.5691
 1689SOL    MW4 6831   0.012   0.407   3.149 -0.4105 -0.1727 -0.3128
 1690SOL     OW 6832   0.251   0.503   2.989  0.0123  0.2186 -0.0074
 1690SOL    HW2 6833   0.323   0.446   3.018  0.0101  0.6402  0.8482
 1690SOL    HW3 6834   0.174   0.470   3.036 -0.3375 -0.1811 -0.8608
 1690SOL    MW4 6835   0.250   0.491   2.999 -0.0341  0.2215 -0.0069
 1691SOL     OW 6836   0.206   0.784   3.077  0.3894  0.1487 -0.1983
 1691SOL    HW2 6837   0.198   0.793   3.172 -1.1768  0.0339 -0.3077
 1691SOL    HW3 6838   0.201   0.690   3.061 -0.8752  0.2549 -0.5062
 1691SOL    MW4 6839   0.205   0.773   3.087  0.0159  0.1476 -0.2534
 1692SOL     OW 6840   4.461   0.900   3.012  0.5957 -0.2046 -0.2068
 1692SOL    HW2 6841   4.548   0.871   3.038  0.8475  0.7102 -0.0355
 1692SOL    HW3 6842   4.465   0.907   2.917  1.0410  0.8918 -0.1151
 1692SOL    MW4 6843   4.473   0.897   3.003  0.6876  0.0607 -0.1724
 1693SOL     OW 6844   4.474   1.169   3.102 -0.3692  0.6900 -0.1893
 1693SOL    HW2 6845   4.401   1.215   3.061 -1.9771 -0.9926  0.7326
 1693SOL    HW3 6846   4.477   1.084   3.057  0.8620  0.6551 -0.0510
 1693SOL    MW4 6847   4.465   1.164   3.091 -0.4187  0.4635 -0.0494
 1694SOL     OW 6848   0.230   1.282   3.001  0.3353 -0.6337 -0.3785
 1694SOL    HW2 6849   0.147   1.241   3.023 -0.2368 -0.1772 -1.6486
 1694SOL    HW3 6850   0.224   1.299   2.907  1.8097 -0.4847 -0.4528
 1694SOL    MW4 6851   0.218   1.279   2.991  0.4544 -0.5537 -0.5560
 1695SOL     OW 6852   0.226   1.549   3.064 -0.2783  0.2046 -0.1149
 1695SOL    HW2 6853   0.142   1.582   3.033 -0.2629  0.0722 -0.2998
 1695SOL    HW3 6854   0.226   1.456   3.040 -0.4919 -0.0293  0.7511
 1695SOL    MW4 6855   0.215   1.541   3.057 -0.3045  0.1563 -0.0250
 1696SOL     OW 6856   0.006   1.677   2.970  0.1268  0.1224 -0.4046
 1696SOL    HW2 6857  -0.074   1.635   3.001 -0.4625  0.0499 -1.9768
 1696SOL    HW3 6858   0.015   1.755   3.025 -0.5539 -0.3250  0.3477
 1696SOL    MW4 6859  -0.004   1.682   2.981 -0.0410  0.0536 -0.5128
 1697SOL     OW 6860   0.005   1.934   3.105 -0.2552 -0.7254 -0.8052
 1697SOL    HW2 6861  -0.081   1.958   3.069 -0.2001  0.2687 -0.2904
 1697SOL    HW3 6862   0.067   1.989   3.057 -0.2584  1.2144  1.3472
 1697SOL    MW4 6863   0.002   1.945   3.094 -0.2483 -0.3383 -0.4535
 1698SOL     OW 6864   0.212   2.083   3.007  0.2007 -0.3172 -0.3173
 1698SOL    HW2 6865   0.184   2.171   3.033 -0.7301 -1.1875  1.8062
 1698SOL    HW3 6866   0.226   2.088   2.913 -0.9379  1.8096 -0.3952
 1698SOL    MW4 6867   0.211   2.095   2.998 -0.0723 -0.1512 -0.0472
 1699SOL     OW 6868   0.187   2.365   3.073 -0.3822 -0.0658 -0.3367
 1699SOL    HW2 6869   0.186   2.347   3.167 -0.5505  1.1055 -0.1153
 1699SOL    HW3 6870   0.278   2.391   3.055  0.0009 -1.6127 -0.7633
 1699SOL    MW4 6871   0.199   2.366   3.083 -0.3539 -0.1154 -0.3638
 1700SOL     OW 6872   4.421   2.454   3.015 -0.0046  0.4697 -0.1117
 1700SOL    HW2 6873   4.434   2.548   3.031  0.7838  0.6419 -1.6144
 1700SOL    HW3 6874   4.507   2.415   3.031  0.0194  0.2140 -0.8374
 1700SOL    MW4 6875   4.434   2.461   3.019  0.1030  0.4585 -0.4058
 1701SOL     OW 6876   4.472   2.731   3.094  0.3375  0.2099 -0.1651
 1701SOL    HW2 6877   4.478   2.754   3.186  0.6993  2.0486 -0.6374
 1701SOL    HW3 6878   4.550   2.768   3.053  0.0989 -0.4310 -1.2521
 1701SOL    MW4 6879   4.483   2.739   3.101  0.3538  0.3676 -0.3707
 1702SOL     OW 6880   0.199   2.832   2.974 -0.1464  0.2413 -0.0932
 1702SOL    HW2 6881   0.272   2.799   3.025  0.7176  0.3505 -1.2369
 1702SOL    HW3 6882   0.227   2.823   2.883 -1.0668  1.4105 -0.5077
 1702SOL    MW4 6883   0.212   2.826   2.968 -0.1538  0.4101 -0.2987
 1703SOL     OW 6884   0.256   3.095   3.083  0.0648  0.2154  0.5367
 1703SOL    HW2 6885   0.191   3.154   3.045  0.8721  0.9073  0.1929
 1703SOL    HW3 6886   0.235   3.009   3.046 -0.7200  0.4106  0.5225
 1703SOL    MW4 6887   0.245   3.091   3.073  0.0678  0.3326  0.4892
 1704SOL     OW 6888   0.049   3.255   2.987 -0.2547 -0.1656 -0.0307
 1704SOL    HW2 6889  -0.031   3.212   3.016 -0.4082  0.1721  0.0471
 1704SOL    HW3 6890   0.044   3.253   2.891 -0.5328  0.1838 -0.0239
 1704SOL    MW4 6891   0.038   3.249   2.978 -0.3117 -0.0749 -0.0200
 1705SOL     OW 6892   0.016   3.482   3.149 -0.1153  0.0473  0.2521
 1705SOL    HW2 6893  -0.047   3.532   3.097  0.0164  1.2207  1.2103
 1705SOL    HW3 6894   0.032   3.403   3.098  0.5848  1.5143 -1.8409
 1705SOL    MW4 6895   0.009   3.478   3.135 -0.0055  0.3955  0.1023
 1706SOL     OW 6896   0.214   3.625   3.004 -0.6980 -0.0037  0.4118
 1706SOL    HW2 6897   0.216   3.719   3.023 -0.5539  0.1525 -0.3632
 1706SOL    HW3 6898   0.160   3.588   3.074  0.7448  0.3977  1.7854
 1706SOL    MW4 6899   0.207   3.633   3.016 -0.4886  0.0699  0.4907
 1707SOL     OW 6900   0.251   3.884   3.106  0.0797 -0.1009 -0.0605
 1707SOL    HW2 6901   0.253   3.894   3.202  0.3897  1.4285 -0.2274
 1707SOL    HW3 6902   0.329   3.929   3.075 -1.2542  1.4388 -1.2189
 1707SOL    MW4 6903   0.261   3.891   3.115 -0.0554  0.3040 -0.2351
 1708SOL     OW 6904   0.016   4.032   3.041 -0.0804  0.3334 -0.1052
 1708SOL    HW2 6905   0.082   3.964   3.055 -0.6305 -0.3420 -0.7303
 1708SOL    HW3 6906  -0.001   4.030   2.947  0.6537  2.0590 -0.2930
 1708SOL    MW4 6907   0.023   4.023   3.031 -0.0562  0.4716 -0.2127
 1709SOL     OW 6908   0.009   4.313   3.088 -0.2362  0.3002  0.3213
 1709SOL    HW2 6909   0.016   4.332   3.181  1.1414  0.7378  0.1450
 1709SOL    HW3 6910   0.005   4.218   3.083 -0.0872  0.2677  0.8187
 1709SOL    MW4 6911   0.010   4.303   3.099 -0.0348  0.3533  0.3633
 1710SOL     OW 6912   0.272   4.381   3.007  0.2839  0.1634  0.0711
 1710SOL    HW2 6913   0.186   4.348   3.032  0.0097  0.4144 -0.5231
 1710SOL    HW3 6914   0.265   4.476   3.019 -0.2619  0.4275 -2.1093
 1710SOL    MW4 6915   0.260   4.389   3.012  0.1757  0.2317 -0.2949
 1711SOL     OW 6916   0.716   4.665   3.111  0.0545  0.5905  0.0634
 1711SOL    HW2 6917   0.735   4.575   3.085  2.0961  1.2193 -0.7419
 1711SOL    HW3 6918   0.632   4.684   3.070 -0.5272 -1.0333  0.4602
 1711SOL    MW4 6919   0.708   4.656   3.102  0.2471  0.4592  0.0095
 1712SOL     OW 6920   0.486   0.086   2.968  0.1673  0.3995 -0.4853
 1712SOL    HW2 6921   0.482   0.170   3.012 -0.1336  0.6350 -0.9567
 1712SOL    HW3 6922   0.412   0.036   3.004  1.4776 -0.3742  1.2175
 1712SOL    MW4 6923   0.475   0.090   2.979  0.3005  0.3285 -0.3228
 1713SOL     OW 6924   0.458   0.333   3.080 -0.2306  0.2547 -0.2510
 1713SOL    HW2 6925   0.452   0.340   3.175  0.2591 -1.1286 -0.1096
 1713SOL    HW3 6926   0.526   0.396   3.055  0.8495 -0.6030  0.4914
 1713SOL    MW4 6927   0.466   0.343   3.089 -0.0235 -0.0410 -0.1340
 1714SOL     OW 6928   0.657   0.513   2.980  0.1736  0.2910 -0.2274
 1714SOL    HW2 6929   0.741   0.472   3.002 -0.2677 -0.4372  0.1302
 1714SOL    HW3 6930   0.660   0.598   3.022  0.2696 -0.1904  0.7585
 1714SOL    MW4 6931   0.669   0.519   2.988  0.1280  0.1314 -0.0501
 1715SOL     OW 6932   0.633   0.778   3.081 -0.3847  0.1526  0.4349
 1715SOL    HW2 6933   0.633   0.796   3.175  0.9490  0.9876  0.2869
 1715SOL    HW3 6934   0.559   0.829   3.047 -0.8706 -0.1506  1.0312
 1715SOL    MW4 6935   0.623   0.787   3.089 -0.2728  0.2228  0.4942
 1716SOL     OW 6936   0.410   0.929   2.954 -0.2239  0.1798  0.0464
 1716SOL    HW2 6937   0.344   0.874   2.995  0.1092 -0.1725  0.1144
 1716SOL    HW3 6938   0.408   0.905   2.861 -1.3437  1.3486 -0.2561
 1716SOL    MW4 6939   0.401   0.919   2.947 -0.3278  0.2875  0.0157
 1717SOL     OW 6940   0.456   1.169   3.101  0.1143 -0.0663  0.4971
 1717SOL    HW2 6941   0.443   1.089   3.050  2.2743  1.1381 -2.0030
 1717SOL    HW3 6942   0.383   1.226   3.076  1.2530  0.5828 -1.4273
 1717SOL    MW4 6943   0.445   1.166   3.091  0.5495  0.1783 -0.0868
 1718SOL     OW 6944   0.692   1.296   3.019 -0.4678 -0.1004  0.1725
 1718SOL    HW2 6945   0.769   1.255   3.059 -1.2021 -0.1851  1.5208
 1718SOL    HW3 6946   0.618   1.243   3.049 -1.2272  0.9674  0.2163
 1718SOL    MW4 6947   0.692   1.283   3.028 -0.6649  0.0293  0.3562
 1719SOL     OW 6948   0.691   1.555   3.082 -0.1447 -0.1624 -0.2834
 1719SOL    HW2 6949   0.675   1.564   3.176  0.8318  0.2979 -0.1593
 1719SOL    HW3 6950   0.692   1.460   3.067  1.2765 -0.2776  0.4567
 1719SOL    MW4 6951   0.689   1.543   3.092  0.1716 -0.1168 -0.1693
 1720SOL     OW 6952   0.454   1.709   2.995  0.1326  0.0794  0.5233
 1720SOL    HW2 6953   0.535   1.670   3.029 -0.5881 -0.8734  1.1994
 1720SOL    HW3 6954   0.388   1.641   3.009 -0.6482  0.5831 -0.6507
 1720SOL    MW4 6955   0.456   1.695   3.001 -0.0655  0.0200  0.4575
 1721SOL     OW 6956   0.442   1.964   3.104 -0.0393  0.5011 -0.5385
 1721SOL    HW2 6957   0.441   1.874   3.073  1.9858  1.2126 -2.8720
 1721SOL    HW3 6958   0.361   2.003   3.071 -1.0520 -0.5055  0.7170
 1721SOL    MW4 6959   0.431   1.957   3.096  0.0943  0.4621 -0.6804
 1722SOL     OW 6960   0.675   2.051   2.977  0.2798 -0.4180  0.3266
 1722SOL    HW2 6961   0.747   2.006   3.021 -0.1572  0.4608  1.9709
 1722SOL    HW3 6962   0.596   2.011   3.014 -0.0927 -0.6687 -0.7277
 1722SOL    MW4 6963   0.674   2.039   2.988  0.1729 -0.3347  0.4046
 1723SOL     OW 6964   0.685   2.320   3.063 -0.2215 -0.1371  0.8027
 1723SOL    HW2 6965   0.680   2.317   3.159 -0.4904  1.0784  0.8336
 1723SOL    HW3 6966   0.688   2.228   3.036 -2.3547 -0.5585  1.8632
 1723SOL    MW4 6967   0.684   2.307   3.072 -0.5384 -0.0324  0.9465
 1724SOL     OW 6968   0.444   2.461   3.005 -0.1078 -0.1834 -0.3228
 1724SOL    HW2 6969   0.521   2.415   3.039  1.1500  1.7698 -0.4878
 1724SOL    HW3 6970   0.451   2.452   2.910 -0.6337 -0.8475 -0.3051
 1724SOL    MW4 6971   0.455   2.453   2.997 -0.0112 -0.0136 -0.3424
 1725SOL     OW 6972   0.420   2.710   3.092 -0.4799  0.1344 -0.2714
 1725SOL    HW2 6973   0.501   2.759   3.077 -0.0552 -0.2806  0.6813
 1725SOL    HW3 6974   0.437   2.624   3.054 -0.5300  0.0885 -0.1888
 1725SOL    MW4 6975   0.433   2.705   3.085 -0.4305  0.0734 -0.1347
 1726SOL     OW 6976   0.651   2.836   3.020 -0.4016 -0.2536 -0.2433
 1726SOL    HW2 6977   0.729   2.788   3.048  1.0095  0.9946 -1.9296
 1726SOL    HW3 6978   0.674   2.928   3.028 -1.3926  0.1378 -1.5359
 1726SOL    MW4 6979   0.664   2.842   3.025 -0.3462 -0.0374 -0.6363
 1727SOL     OW 6980   0.718   3.088   3.048 -0.0907  0.2307  0.3194
 1727SOL    HW2 6981   0.725   3.089   3.144  0.3895  0.3524  0.2844
 1727SOL    HW3 6982   0.639   3.140   3.029  0.1746  0.7476  0.6168
 1727SOL    MW4 6983   0.708   3.095   3.058  0.0077  0.3150  0.3538
 1728SOL     OW 6984   0.482   3.226   2.991  0.3728 -0.1624  0.7158
 1728SOL    HW2 6985   0.461   3.311   3.030 -0.3720  0.4522 -0.9817
 1728SOL    HW3 6986   0.404   3.173   3.005  0.5791 -0.3521  1.1622
 1728SOL    MW4 6987   0.469   3.230   2.998  0.3018 -0.1066  0.5505
 1729SOL     OW 6988   0.438   3.481   3.075 -0.5613 -0.1230  0.5558
 1729SOL    HW2 6989   0.435   3.496   3.170 -2.9906 -0.5778  0.5713
 1729SOL    HW3 6990   0.363   3.529   3.040 -0.3075 -0.8471 -1.0174
 1729SOL    MW4 6991   0.428   3.489   3.083 -0.8484 -0.2785  0.3505
 1730SOL     OW 6992   0.682   3.546   2.959 -0.0590 -0.2863  0.0971
 1730SOL    HW2 6993   0.759   3.515   3.006  0.4204  1.3024  0.4097
 1730SOL    HW3 6994   0.608   3.516   3.012  0.3757 -0.9392  0.3426
 1730SOL    MW4 6995   0.682   3.538   2.972  0.0616 -0.1628  0.1707
 1731SOL     OW 6996   0.658   3.809   3.069  0.4535  0.4997  0.3268
 1731SOL    HW2 6997   0.677   3.798   3.162  0.7281  0.4631  0.2657
 1731SOL    HW3 6998   0.662   3.721   3.032 -0.1691  0.4467  0.3752
 1731SOL    MW4 6999   0.661   3.796   3.076  0.4076  0.4880  0.3252
 1732SOL     OW 7000   0.467   4.013   3.016 -0.6035 -0.2622 -0.5425
 1732SOL    HW2 7001   0.531   3.942   3.018 -1.2725 -0.8467  0.4127
 1732SOL    HW3 7002   0.444   4.021   2.924  2.4008  1.3883 -1.2430
 1732SOL    MW4 7003   0.473   4.005   3.004 -0.2954 -0.1216 -0.5088
 1733SOL     OW 7004   0.491   4.271   3.142 -0.4555 -0.0710  0.3118
 1733SOL    HW2 7005   0.489   4.180   3.110 -1.6869 -0.6865  2.0406
 1733SOL    HW3 7006   0.424   4.316   3.090  1.6773  0.4357 -2.1064
 1733SOL    MW4 7007   0.482   4.265   3.131 -0.3366 -0.0854  0.2208
 1734SOL     OW 7008   0.738   4.391   3.034  0.6847  0.4159 -0.2248
 1734SOL    HW2 7009   0.657   4.364   3.077  0.7380 -0.1321 -0.4589
 1734SOL    HW3 7010   0.720   4.382   2.940  1.1908 -0.2266 -0.2617
 1734SOL    MW4 7011   0.725   4.386   3.027  0.7585  0.2589 -0.2606
 1735SOL     OW 7012   1.076   4.650   3.081 -0.0517 -0.0417  0.1333
 1735SOL    HW2 7013   1.164   4.684   3.065  0.0836 -1.1008 -1.4530
 1735SOL    HW3 7014   1.019   4.706   3.029  0.0049 -1.1567 -1.1697
 1735SOL    MW4 7015   1.080   4.662   3.072 -0.0265 -0.3286 -0.2477
 1736SOL     OW 7016   0.878   0.145   2.955  0.3721 -0.2343  0.0489
 1736SOL    HW2 7017   0.886   0.230   2.998  0.6949  0.1868 -0.8475
 1736SOL    HW3 7018   0.816   0.097   3.010  1.3303  0.0347  1.4021
 1736SOL    MW4 7019   0.871   0.150   2.968  0.5411 -0.1432  0.1090
 1737SOL     OW 7020   0.882   0.379   3.092  0.1920  0.1818 -0.3637
 1737SOL    HW2 7021   0.871   0.383   3.187 -1.0563 -0.5607 -0.4598
 1737SOL    HW3 7022   0.960   0.432   3.074  0.0125  0.9306  0.9960
 1737SOL    MW4 7023   0.891   0.387   3.102  0.0036  0.1826 -0.1969
 1738SOL     OW 7024   1.103   0.510   3.016 -0.1364 -0.2666  0.1455
 1738SOL    HW2 7025   1.181   0.457   3.035  0.1344  0.2640  0.5067
 1738SOL    HW3 7026   1.103   0.519   2.921 -0.2683 -1.0511  0.0666
 1738SOL    MW4 7027   1.114   0.504   3.006 -0.1180 -0.3000  0.1831
 1739SOL     OW 7028   1.061   0.785   3.107 -0.6376  0.3102  0.2900
 1739SOL    HW2 7029   1.049   0.789   3.202  1.8149  0.7283  0.6222
 1739SOL    HW3 7030   1.091   0.695   3.091 -0.0916  0.5278  0.0582
 1739SOL    MW4 7031   1.063   0.774   3.118 -0.2419  0.3940  0.3035
 1740SOL     OW 7032   0.863   0.877   2.942  0.4002  0.5385  0.2100
 1740SOL    HW2 7033   0.926   0.844   3.005 -0.3359 -0.5230  0.3887
 1740SOL    HW3 7034   0.778   0.849   2.975 -0.0216  0.2791 -1.0613
 1740SOL    MW4 7035   0.860   0.869   2.954  0.2474  0.3642  0.0658
 1741SOL     OW 7036   0.901   1.125   3.090  0.3114 -0.1524  0.8742
 1741SOL    HW2 7037   0.988   1.162   3.073  0.0325  0.6296  1.1471
 1741SOL    HW3 7038   0.887   1.064   3.017 -0.1461  1.8899 -0.8021
 1741SOL    MW4 7039   0.911   1.122   3.078  0.2143  0.2202  0.6890
 1742SOL     OW 7040   1.103   1.248   2.962 -0.0414  0.1083 -0.4851
 1742SOL    HW2 7041   1.183   1.200   2.984  0.1169  0.7771  0.4315
 1742SOL    HW3 7042   1.101   1.248   2.866  0.9012 -0.1721 -0.5159
 1742SOL    MW4 7043   1.113   1.242   2.952  0.1037  0.1595 -0.3684
 1743SOL     OW 7044   1.126   1.498   3.080 -0.0319 -0.0126  0.1552
 1743SOL    HW2 7045   1.212   1.531   3.054 -1.0535  0.8817 -2.2342
 1743SOL    HW3 7046   1.119   1.413   3.036 -0.6612  0.2746 -0.3130
 1743SOL    MW4 7047   1.137   1.491   3.071 -0.2497  0.1433 -0.2220
 1744SOL     OW 7048   0.950   1.689   2.967  0.4394  0.4468 -0.1172
 1744SOL    HW2 7049   1.022   1.637   3.004 -0.3351 -0.0498  0.7186
 1744SOL    HW3 7050   0.871   1.645   2.998 -0.2246  0.8899 -1.1826
 1744SOL    MW4 7051   0.949   1.676   2.976  0.2496  0.4396 -0.1476
 1745SOL     OW 7052   0.892   1.933   3.075  0.0949 -0.4763  0.5141
 1745SOL    HW2 7053   0.893   1.928   3.170  0.6342 -0.0316  0.5326
 1745SOL    HW3 7054   0.923   1.847   3.046  2.1742  0.1526  0.7708
 1745SOL    MW4 7055   0.896   1.921   3.084  0.4404 -0.3347  0.5505
 1746SOL     OW 7056   1.084   2.114   2.984 -0.1025 -0.0036 -0.3892
 1746SOL    HW2 7057   1.005   2.065   3.007 -0.1850  0.8023  1.1108
 1746SOL    HW3 7058   1.086   2.113   2.888 -1.1525 -1.2471 -0.4093
 1746SOL    MW4 7059   1.074   2.107   2.974 -0.2520 -0.0613 -0.1938
 1747SOL     OW 7060   1.110   2.345   3.132 -0.1545  0.1157 -0.4022
 1747SOL    HW2 7061   1.036   2.398   3.103 -0.9858 -0.1132  1.2740
 1747SOL    HW3 7062   1.113   2.272   3.071 -0.0559  1.1842 -1.6934
 1747SOL    MW4 7063   1.101   2.342   3.120 -0.2512  0.2265 -0.3514
 1748SOL     OW 7064   0.913   2.472   2.996  0.1223  0.0734  0.0250
 1748SOL    HW2 7065   0.830   2.427   3.013 -0.2479  0.4835 -0.6685
 1748SOL    HW3 7066   0.923   2.467   2.901  0.5295  0.6670  0.0367
 1748SOL    MW4 7067   0.903   2.465   2.986  0.1271  0.2058 -0.0648
 1749SOL     OW 7068   0.889   2.721   3.102  0.5015  0.6636 -0.1086
 1749SOL    HW2 7069   0.873   2.719   3.197 -0.9498  1.1942 -0.3359
 1749SOL    HW3 7070   0.898   2.629   3.077  1.7526  0.5569  0.6751
 1749SOL    MW4 7071   0.888   2.709   3.112  0.4750  0.7195 -0.0350
 1750SOL     OW 7072   1.090   2.834   2.947  0.6678  0.1819 -0.7469
 1750SOL    HW2 7073   1.096   2.925   2.976 -0.3363  0.1103 -0.2867
 1750SOL    HW3 7074   1.029   2.793   3.008 -0.0383 -0.4302 -1.8422
 1750SOL    MW4 7075   1.083   2.841   2.959  0.4421  0.0916 -0.8304
 1751SOL     OW 7076   1.131   3.083   3.086 -0.3671  0.0404  0.0031
 1751SOL    HW2 7077   1.199   3.151   3.082  0.5607 -0.9534 -1.7529
 1751SOL    HW3 7078   1.050   3.130   3.066 -0.3082  1.3228  2.5489
 1751SOL    MW4 7079   1.129   3.098   3.083 -0.2367  0.0784  0.1073
 1752SOL     OW 7080   0.943   3.263   2.988  0.1329  0.1096  0.1816
 1752SOL    HW2 7081   0.855   3.226   2.997 -0.3309  0.6742 -1.8631
 1752SOL    HW3 7082   0.963   3.256   2.895  1.0413  2.7129  0.1411
 1752SOL    MW4 7083   0.934   3.257   2.977  0.1915  0.5276 -0.0935
 1753SOL     OW 7084   0.909   3.497   3.109  0.0285 -0.5680  0.2886
 1753SOL    HW2 7085   0.962   3.566   3.069 -0.8713 -0.8929 -1.5151
 1753SOL    HW3 7086   0.937   3.416   3.065 -1.5455 -0.8194 -0.2811
 1753SOL    MW4 7087   0.920   3.495   3.098 -0.2979 -0.6437 -0.0243
 1754SOL     OW 7088   1.103   3.645   2.986  0.1498 -0.1104  0.0090
 1754SOL    HW2 7089   1.178   3.599   3.023  1.5556  1.0545 -1.3011
 1754SOL    HW3 7090   1.111   3.735   3.020 -0.0000  0.3110 -1.0469
 1754SOL    MW4 7091   1.114   3.651   2.996  0.3155  0.0987 -0.3033
 1755SOL     OW 7092   1.154   3.899   3.083 -0.3378 -0.0390 -0.4033
 1755SOL    HW2 7093   1.163   3.892   3.178  0.6166  1.1758 -0.4026
 1755SOL    HW3 7094   1.074   3.949   3.071  0.2767  1.0010 -0.2124
 1755SOL    MW4 7095   1.145   3.904   3.094 -0.1309  0.2584 -0.3779
 1756SOL     OW 7096   0.897   3.973   3.008  0.1172 -0.3547 -0.0606
 1756SOL    HW2 7097   0.816   3.922   3.019  0.1615 -0.6862 -1.1967
 1756SOL    HW3 7098   0.904   3.986   2.913 -0.0085  1.9564  0.2111
 1756SOL    MW4 7099   0.887   3.968   2.997  0.1065 -0.0932 -0.1750
 1757SOL     OW 7100   0.939   4.221   3.104 -0.0154  0.2938  0.2327
 1757SOL    HW2 7101   0.915   4.134   3.074  1.4657 -0.2427  0.5834
 1757SOL    HW3 7102   0.866   4.277   3.077 -0.8988 -1.0200 -0.1222
 1757SOL    MW4 7103   0.926   4.217   3.096  0.0634  0.0496  0.2322
 1758SOL     OW 7104   1.123   4.391   2.976 -0.3032 -0.2141 -0.0664
 1758SOL    HW2 7105   1.056   4.337   3.016  0.0803 -0.5422  0.1402
 1758SOL    HW3 7106   1.113   4.477   3.018 -0.3309 -0.3730  0.2505
 1758SOL    MW4 7107   1.113   4.395   2.986 -0.2563 -0.2785  0.0029
 1759SOL     OW 7108   1.588   0.009   3.117  0.1120 -0.0556 -0.2135
 1759SOL    HW2 7109   1.592   0.003   3.213  1.3412 -0.3421 -0.2769
 1759SOL    HW3 7110   1.500   0.043   3.099 -0.1917 -0.1675  1.0064
 1759SOL    MW4 7111   1.577   0.013   3.128  0.2341 -0.1081 -0.0610
 1760SOL     OW 7112   1.345   0.104   3.013  0.1104 -0.1040  0.5571
 1760SOL    HW2 7113   1.358   0.197   3.032  0.6196 -0.1976  0.6877
 1760SOL    HW3 7114   1.358   0.096   2.919 -0.7997  0.0995  0.4158
 1760SOL    MW4 7115   1.348   0.115   3.003  0.0576 -0.0895  0.5558
 1761SOL     OW 7116   1.362   0.392   3.044 -0.6433  0.1929  0.1045
 1761SOL    HW2 7117   1.376   0.410   3.137  0.2932 -0.2651  0.0582
 1761SOL    HW3 7118   1.431   0.441   2.999  0.1274 -1.1350 -0.2114
 1761SOL    MW4 7119   1.373   0.401   3.050 -0.4179 -0.0427  0.0567
 1762SOL     OW 7120   1.582   0.550   2.965 -0.5789 -0.6743 -0.4102
 1762SOL    HW2 7121   1.560   0.642   2.983 -0.1468 -0.5541 -0.4854
 1762SOL    HW3 7122   1.571   0.542   2.870  0.9099 -0.2777 -0.6338
 1762SOL    MW4 7123   1.578   0.561   2.955 -0.3256 -0.6061 -0.4497
 1763SOL     OW 7124   1.546   0.808   3.071 -0.4418  0.1676  0.8236
 1763SOL    HW2 7125   1.530   0.811   3.165  0.4745  1.9373  0.9484
 1763SOL    HW3 7126   1.467   0.844   3.031 -0.0556  1.2853  1.0355
 1763SOL    MW4 7127   1.534   0.813   3.078 -0.2700  0.5485  0.8681
 1764SOL     OW 7128   1.299   0.932   2.983  0.4474 -0.3026 -0.1684
 1764SOL    HW2 7129   1.304   1.018   3.026  1.4439 -0.3154 -0.2645
 1764SOL    HW3 7130   1.221   0.891   3.022 -0.9500  1.2474 -1.2336
 1764SOL    MW4 7131   1.289   0.938   2.994  0.3946 -0.0998 -0.3219
 1765SOL     OW 7132   1.320   1.181   3.107  0.2969 -0.0111 -0.3125
 1765SOL    HW2 7133   1.331   1.179   3.203  0.2654 -0.8287 -0.3178
 1765SOL    HW3 7134   1.403   1.217   3.075  0.4938 -0.1651  0.0062
 1765SOL    MW4 7135   1.333   1.185   3.116  0.3188 -0.1392 -0.2713
 1766SOL     OW 7136   1.557   1.276   2.999  0.1258  0.3475  0.4806
 1766SOL    HW2 7137   1.640   1.239   3.030  0.7276  0.5712 -0.8293
 1766SOL    HW3 7138   1.560   1.368   3.027 -0.0218  0.1775  1.0752
 1766SOL    MW4 7139   1.568   1.283   3.007  0.1857  0.3545  0.3862
 1767SOL     OW 7140   1.568   1.525   3.084  0.2793  0.0238  0.1724
 1767SOL    HW2 7141   1.646   1.576   3.062 -1.0829  1.5336 -1.4003
 1767SOL    HW3 7142   1.497   1.569   3.037 -1.5258 -1.3170  1.5552
 1767SOL    MW4 7143   1.569   1.537   3.075 -0.1386  0.0460  0.1473
 1768SOL     OW 7144   1.337   1.648   2.982  0.5258  0.0138 -0.0695
 1768SOL    HW2 7145   1.306   1.729   3.022 -1.7194 -0.7728 -0.1381
 1768SOL    HW3 7146   1.309   1.654   2.891  0.2301 -0.8907 -0.0419
 1768SOL    MW4 7147   1.329   1.659   2.976  0.1906 -0.2093 -0.0746
 1769SOL     OW 7148   1.292   1.937   3.086 -0.2068 -0.2468 -0.0583
 1769SOL    HW2 7149   1.305   1.952   3.180  1.3268  1.8726 -0.5546
 1769SOL    HW3 7150   1.214   1.988   3.064 -1.3023 -1.7572  0.2913
 1769SOL    MW4 7151   1.284   1.946   3.095 -0.1490 -0.1664 -0.0777
 1770SOL     OW 7152   1.540   2.066   3.015 -0.1791 -0.0878  0.1970
 1770SOL    HW2 7153   1.457   2.024   3.038  0.1356 -1.1253 -0.5297
 1770SOL    HW3 7154   1.554   2.044   2.923  1.2822 -0.5775  0.5130
 1770SOL    MW4 7155   1.531   2.057   3.006  0.0552 -0.2892  0.1428
 1771SOL     OW 7156   1.575   2.306   3.126 -0.2514 -0.3844  0.2345
 1771SOL    HW2 7157   1.511   2.359   3.080 -0.4565 -0.3951  0.5047
 1771SOL    HW3 7158   1.563   2.218   3.091  0.5753 -0.1266 -0.7349
 1771SOL    MW4 7159   1.565   2.302   3.115 -0.1695 -0.3517  0.1421
 1772SOL     OW 7160   1.372   2.472   3.020 -0.1005 -0.2163 -0.2697
 1772SOL    HW2 7161   1.291   2.453   3.068  0.6883 -0.7534  0.8932
 1772SOL    HW3 7162   1.347   2.470   2.928 -1.5426  0.2686  0.0994
 1772SOL    MW4 7163   1.358   2.469   3.015 -0.1868 -0.2232 -0.0675
 1773SOL     OW 7164   1.383   2.740   3.081  0.1819 -0.3084 -0.0415
 1773SOL    HW2 7165   1.398   2.648   3.058 -0.4460 -0.7878  1.4395
 1773SOL    HW3 7166   1.296   2.759   3.046  0.6729 -0.0103 -1.1232
 1773SOL    MW4 7167   1.374   2.730   3.073  0.1638 -0.3324  0.0107
 1774SOL     OW 7168   1.606   2.879   3.003  0.0950  0.0526 -0.7025
 1774SOL    HW2 7169   1.677   2.838   3.052  0.8996  1.2409 -0.8472
 1774SOL    HW3 7170   1.528   2.827   3.025  0.9874 -1.2094 -0.4864
 1774SOL    MW4 7171   1.605   2.867   3.012  0.3189  0.0429 -0.6933
 1775SOL     OW 7172   1.596   3.147   3.116 -0.0213 -0.6511 -0.4968
 1775SOL    HW2 7173   1.587   3.144   3.211  1.7791 -0.1977 -0.2882
 1775SOL    HW3 7174   1.595   3.056   3.088 -0.5316 -0.7838 -0.0359
 1775SOL    MW4 7175   1.595   3.135   3.125  0.1488 -0.6087 -0.4084
 1776SOL     OW 7176   1.348   3.248   3.054  0.1452  0.0759  0.3327
 1776SOL    HW2 7177   1.422   3.194   3.082 -0.2270  0.2965  1.7906
 1776SOL    HW3 7178   1.344   3.236   2.959  1.3537 -0.8176  0.3839
 1776SOL    MW4 7179   1.357   3.239   3.045  0.2556 -0.0129  0.5319
 1777SOL     OW 7180   1.327   3.519   3.103 -0.0328  0.2239  0.0956
 1777SOL    HW2 7181   1.332   3.528   3.198 -2.2012 -1.0621  0.3850
 1777SOL    HW3 7182   1.321   3.424   3.088  1.4839  0.3484 -1.4083
 1777SOL    MW4 7183   1.327   3.507   3.114 -0.1187  0.0706 -0.0648
 1778SOL     OW 7184   1.575   3.615   3.029 -0.1666  0.5100  0.3727
 1778SOL    HW2 7185   1.494   3.571   3.056 -0.0454 -0.8159 -1.3631
 1778SOL    HW3 7186   1.559   3.639   2.937  1.0760  1.0411  0.2930
 1778SOL    MW4 7187   1.562   3.612   3.020  0.0134  0.4053  0.1333
 1779SOL     OW 7188   1.593   3.867   3.145  0.1460  0.3935  1.0372
 1779SOL    HW2 7189   1.667   3.916   3.111 -0.4500  1.3351  1.0740
 1779SOL    HW3 7190   1.591   3.787   3.093 -0.1098  1.3249 -0.4243
 1779SOL    MW4 7191   1.602   3.863   3.134  0.0335  0.6404  0.8495
 1780SOL     OW 7192   1.396   4.011   2.997  0.3525  0.0880  0.1690
 1780SOL    HW2 7193   1.464   3.978   3.057  0.7822 -0.0032 -0.3659
 1780SOL    HW3 7194   1.315   3.972   3.029  0.4940  0.4970  1.0484
 1780SOL    MW4 7195   1.394   4.001   3.009  0.4280  0.1302  0.2143
 1781SOL     OW 7196   1.331   4.253   3.105  0.0318 -0.0263 -0.4836
 1781SOL    HW2 7197   1.335   4.177   3.047 -1.5120 -2.0412  1.9679
 1781SOL    HW3 7198   1.255   4.302   3.074 -0.3881 -0.7255 -0.5560
 1781SOL    MW4 7199   1.322   4.249   3.093 -0.2273 -0.3843 -0.1698
 1782SOL     OW 7200   1.586   4.387   3.071 -0.0447 -0.0331  0.6173
 1782SOL    HW2 7201   1.506   4.341   3.095 -0.8647 -0.1666 -2.2963
 1782SOL    HW3 7202   1.569   4.479   3.093 -0.5353 -0.2452  1.1242
 1782SOL    MW4 7203   1.574   4.393   3.077 -0.2177 -0.0782  0.2999
 1783SOL     OW 7204   2.021   4.651   3.092  0.0798  0.7157  0.2270
 1783SOL    HW2 7205   2.018   4.656   3.187 -1.1185 -0.5234  0.2727
 1783SOL    HW3 7206   1.961   4.719   3.062  0.5331  1.1728  0.3407
 1783SOL    MW4 7207   2.013   4.661   3.100 -0.0186  0.6127  0.2482
 1784SOL     OW 7208   1.812   0.157   3.022 -0.5031  0.2252  0.4135
 1784SOL    HW2 7209   1.740   0.116   3.070 -1.0384  0.9827  0.2750
 1784SOL    HW3 7210   1.780   0.160   2.931  0.4229 -1.0328  0.0209
 1784SOL    MW4 7211   1.798   0.152   3.016 -0.4517  0.1592  0.3433
 1785SOL     OW 7212   1.775   0.422   3.145  0.3603 -0.0646 -0.4984
 1785SOL    HW2 7213   1.774   0.330   3.119  0.3643 -0.6542  1.5076
 1785SOL    HW3 7214   1.708   0.463   3.091 -1.5357 -1.7987  0.4552
 1785SOL    MW4 7215   1.766   0.416   3.135  0.1107 -0.3712 -0.1078
 1786SOL     OW 7216   2.017   0.507   3.044 -0.0211 -0.0419  0.7056
 1786SOL    HW2 7217   1.937   0.463   3.072  0.9911 -2.1542  0.3937
 1786SOL    HW3 7218   2.005   0.521   2.950 -0.2337  0.1022  0.7542
 1786SOL    MW4 7219   2.005   0.503   3.035  0.0842 -0.3016  0.6709
 1787SOL     OW 7220   2.029   0.783   3.151 -0.1056 -0.1480  0.4226
 1787SOL    HW2 7221   1.947   0.812   3.109 -0.5132  0.4780  1.6448
 1787SOL    HW3 7222   2.037   0.691   3.125 -2.1979 -0.7564  1.8178
 1787SOL    MW4 7223   2.019   0.775   3.142 -0.4354 -0.1456  0.7679
 1788SOL     OW 7224   1.792   0.921   3.029  0.1285  0.5157  0.0277
 1788SOL    HW2 7225   1.707   0.889   3.058 -0.6984  2.6313  0.0279
 1788SOL    HW3 7226   1.793   0.906   2.935 -0.4980  1.0729 -0.0637
 1788SOL    MW4 7227   1.781   0.915   3.021 -0.0633  0.8684  0.0155
 1789SOL     OW 7228   1.808   1.180   3.101 -0.2776  0.4809 -0.5372
 1789SOL    HW2 7229   1.800   1.173   3.196 -1.2912  0.6872 -0.6029
 1789SOL    HW3 7230   1.823   1.090   3.071 -0.1748  0.3898 -0.2108
 1789SOL    MW4 7231   1.809   1.167   3.109 -0.3977  0.4960 -0.5028
 1790SOL     OW 7232   2.017   1.318   2.974 -0.0554 -0.0919 -0.0991
 1790SOL    HW2 7233   2.090   1.266   3.005 -0.8026 -1.0541  0.0785
 1790SOL    HW3 7234   1.939   1.270   3.003 -0.7628  1.6487  0.9354
 1790SOL    MW4 7235   2.016   1.305   2.982 -0.2477  0.0107  0.0610
 1791SOL     OW 7236   2.021   1.561   3.125  0.2634  0.2030 -0.6828
 1791SOL    HW2 7237   1.996   1.537   3.214 -1.8519  1.0275 -1.0233
 1791SOL    HW3 7238   2.037   1.477   3.082  0.2962 -0.2562  0.1991
 1791SOL    MW4 7239   2.020   1.547   3.131 -0.0114  0.2513 -0.6113
 1792SOL     OW 7240   1.800   1.688   2.990  0.5164 -0.3155  0.1024
 1792SOL    HW2 7241   1.786   1.776   3.025 -1.4437 -0.4337 -0.3279
 1792SOL    HW3 7242   1.872   1.653   3.042  0.1754  0.9059  1.4379
 1792SOL    MW4 7243   1.808   1.695   3.001  0.2128 -0.1700  0.2217
 1793SOL     OW 7244   1.778   1.939   3.087  0.1921  0.0415  0.1152
 1793SOL    HW2 7245   1.851   1.991   3.052 -0.5080  0.6919 -0.3726
 1793SOL    HW3 7246   1.700   1.990   3.067 -0.3014 -0.0134  1.8412
 1793SOL    MW4 7247   1.778   1.952   3.080  0.0346  0.1202  0.2782
 1794SOL     OW 7248   2.010   2.073   2.983 -0.0137 -0.1774  0.0307
 1794SOL    HW2 7249   2.084   2.022   3.015  0.8944 -0.7815 -2.8279
 1794SOL    HW3 7250   2.012   2.154   3.034  0.7855 -1.4488  2.0385
 1794SOL    MW4 7251   2.020   2.077   2.994  0.2115 -0.4249 -0.0818
 1795SOL     OW 7252   1.997   2.317   3.129  0.2572 -0.1298  0.1799
 1795SOL    HW2 7253   2.082   2.331   3.087  0.0626 -2.1998 -0.9890
 1795SOL    HW3 7254   1.937   2.377   3.084  0.9373  0.8062  0.5032
 1795SOL    MW4 7255   2.001   2.327   3.118  0.3211 -0.2794  0.0679
 1796SOL     OW 7256   1.777   2.454   2.987  0.2958  0.3678  0.1667
 1796SOL    HW2 7257   1.777   2.539   3.032  0.3744  0.9801 -0.9539
 1796SOL    HW3 7258   1.717   2.400   3.038  0.8893  0.8298  1.3883
 1796SOL    MW4 7259   1.769   2.458   3.000  0.3844  0.5095  0.1802
 1797SOL     OW 7260   1.781   2.698   3.116  0.2007 -0.3147  0.5349
 1797SOL    HW2 7261   1.782   2.723   3.208  3.3430 -1.4972  0.8624
 1797SOL    HW3 7262   1.868   2.723   3.083 -1.5874  2.0726 -2.6676
 1797SOL    MW4 7263   1.793   2.705   3.124  0.3793 -0.1559  0.1557
 1798SOL     OW 7264   1.981   2.849   2.946 -0.2906 -0.0547 -0.0732
 1798SOL    HW2 7265   2.000   2.935   2.983 -0.9733 -0.5808  1.5772
 1798SOL    HW3 7266   1.967   2.865   2.853  1.5706  1.3089 -0.1599
 1798SOL    MW4 7267   1.982   2.862   2.939 -0.1352  0.0558  0.1330
 1799SOL     OW 7268   2.066   3.098   3.095  0.2297 -0.0534 -0.5108
 1799SOL    HW2 7269   2.066   3.091   3.190 -0.8227 -0.9471 -0.5650
 1799SOL    HW3 7270   2.002   3.166   3.075  0.2959 -0.0122 -0.5833
 1799SOL    MW4 7271   2.057   3.106   3.105  0.0994 -0.1659 -0.5274
 1800SOL     OW 7272   1.838   3.251   3.007 -0.6651  0.2784 -0.4175
 1800SOL    HW2 7273   1.752   3.229   3.044 -1.3222  0.0671 -2.0312
 1800SOL    HW3 7274   1.826   3.243   2.913  1.6018 -1.3756 -0.5861
 1800SOL    MW4 7275   1.825   3.247   3.000 -0.4529  0.0324 -0.6526
 1801SOL     OW 7276   1.816   3.492   3.122 -0.2537  0.2063  0.2486
 1801SOL    HW2 7277   1.816   3.404   3.084  1.7629  1.3956 -2.6631
 1801SOL    HW3 7278   1.737   3.533   3.087  0.2744  0.4562 -0.6739
 1801SOL    MW4 7279   1.806   3.486   3.113  0.0821  0.3960 -0.2573
 1802SOL     OW 7280   2.046   3.597   3.005 -0.1023 -0.2425 -0.0836
 1802SOL    HW2 7281   2.042   3.689   3.030 -2.2019 -0.2654 -0.2521
 1802SOL    HW3 7282   1.982   3.554   3.061  0.1012 -1.4361 -0.7418
 1802SOL    MW4 7283   2.037   3.603   3.015 -0.3526 -0.4032 -0.1926
 1803SOL     OW 7284   2.051   3.860   3.090 -0.2313  0.3414 -0.2566
 1803SOL    HW2 7285   2.052   3.844   3.184  0.6757  0.4424 -0.2441
 1803SOL    HW3 7286   1.980   3.923   3.076 -1.6494 -1.1352  0.1162
 1803SOL    MW4 7287   2.042   3.866   3.100 -0.2987  0.1597 -0.2058
 1804SOL     OW 7288   1.807   4.004   3.016  0.0181  0.0977 -0.2395
 1804SOL    HW2 7289   1.807   4.097   3.040 -0.1209  0.1477 -0.4349
 1804SOL    HW3 7290   1.800   4.004   2.921 -0.2722 -0.1188 -0.2184
 1804SOL    MW4 7291   1.806   4.016   3.007 -0.0386  0.0753 -0.2625
 1805SOL     OW 7292   1.832   4.273   3.107  0.4200  0.1533  0.2729
 1805SOL    HW2 7293   1.898   4.316   3.053 -0.2042  1.5595  0.6090
 1805SOL    HW3 7294   1.750   4.316   3.084 -0.4150 -1.6940 -0.2569
 1805SOL    MW4 7295   1.830   4.284   3.097  0.2275  0.0949  0.2472
 1806SOL     OW 7296   2.023   4.408   2.969  0.2062  0.8093 -0.1916
 1806SOL    HW2 7297   2.010   4.495   3.008 -0.0482  0.9089 -0.5053
 1806SOL    HW3 7298   2.013   4.421   2.875  0.2412  0.4523 -0.2469
 1806SOL    MW4 7299   2.020   4.421   2.962  0.1774  0.7753 -0.2398
 1807SOL     OW 7300   2.516   4.667   3.080 -0.2568 -0.2366  0.1592
 1807SOL    HW2 7301   2.519   4.577   3.045  1.3543 -0.3727  0.6158
 1807SOL    HW3 7302   2.436   4.704   3.043 -0.0060 -1.2741 -1.5118
 1807SOL    MW4 7303   2.506   4.660   3.070 -0.0110 -0.3914 -0.0007
 1808SOL     OW 7304   2.245   0.100   3.003  0.1869 -0.1466 -0.3872
 1808SOL    HW2 7305   2.237   0.193   3.025  0.3863 -0.0496 -0.7162
 1808SOL    HW3 7306   2.161   0.062   3.029  0.0591  0.1502 -0.3605
 1808SOL    MW4 7307   2.233   0.107   3.009  0.1962 -0.0947 -0.4270
 1809SOL     OW 7308   2.234   0.353   3.096 -0.1643  0.3747  0.1417
 1809SOL    HW2 7309   2.249   0.343   3.190 -0.7119 -0.5537  0.1334
 1809SOL    HW3 7310   2.159   0.412   3.090  0.2487  0.9200  0.2704
 1809SOL    MW4 7311   2.226   0.360   3.107 -0.1822  0.3242  0.1576
 1810SOL     OW 7312   2.447   0.527   2.982  0.1805  0.4566 -0.3901
 1810SOL    HW2 7313   2.375   0.467   3.001  1.9092 -1.4310  0.3951
 1810SOL    HW3 7314   2.460   0.521   2.887 -0.5225  0.6076 -0.4934
 1810SOL    MW4 7315   2.439   0.519   2.972  0.3159  0.2275 -0.2999
 1811SOL     OW 7316   2.445   0.772   3.098  0.0256 -0.1822 -0.1474
 1811SOL    HW2 7317   2.532   0.802   3.073  0.0023  0.4706  0.5396
 1811SOL    HW3 7318   2.434   0.688   3.053  1.8934 -1.3579  1.5189
 1811SOL    MW4 7319   2.455   0.765   3.089  0.2692 -0.2512  0.1631
 1812SOL     OW 7320   2.232   0.903   2.998  0.4294 -0.4425  0.3480
 1812SOL    HW2 7321   2.301   0.858   3.048 -0.5624 -0.8294  1.3847
 1812SOL    HW3 7322   2.151   0.883   3.046 -0.3451  0.3763 -0.6122
 1812SOL    MW4 7323   2.231   0.894   3.011  0.1967 -0.3855  0.3583
 1813SOL     OW 7324   2.257   1.173   3.082 -0.0228  0.3496 -0.1454
 1813SOL    HW2 7325   2.240   1.157   3.175  0.8292  0.6574  0.0689
 1813SOL    HW3 7326   2.245   1.087   3.041 -2.1695  0.5684 -0.0433
 1813SOL    MW4 7327   2.253   1.159   3.089 -0.1934  0.4191 -0.1037
 1814SOL     OW 7328   2.464   1.338   2.991 -0.1099 -0.1053 -0.2722
 1814SOL    HW2 7329   2.392   1.282   3.017 -1.3215  1.2540 -0.6140
 1814SOL    HW3 7330   2.451   1.419   3.040  1.1196  0.2044 -0.4259
 1814SOL    MW4 7331   2.453   1.342   3.001 -0.1075  0.1149 -0.3378
 1815SOL     OW 7332   2.440   1.596   3.126  0.1349  0.0878  0.2814
 1815SOL    HW2 7333   2.351   1.615   3.096  0.0802 -1.8232 -0.8148
 1815SOL    HW3 7334   2.429   1.562   3.214 -0.1250  0.9167  0.5711
 1815SOL    MW4 7335   2.427   1.594   3.133  0.0935 -0.0550  0.1750
 1816SOL     OW 7336   2.212   1.705   2.993  0.0191 -0.2338  0.5042
 1816SOL    HW2 7337   2.137   1.654   3.022  1.7877 -2.6808  0.9736
 1816SOL    HW3 7338   2.219   1.687   2.900 -0.7243  1.0069  0.2043
 1816SOL    MW4 7339   2.203   1.695   2.985  0.1543 -0.3929  0.5267
 1817SOL     OW 7340   2.227   1.958   3.080  0.0469 -0.2260  0.4898
 1817SOL    HW2 7341   2.227   1.867   3.049  0.8083 -0.4308  1.0665
 1817SOL    HW3 7342   2.210   1.951   3.174  1.1327  0.1425  0.7266
 1817SOL    MW4 7343   2.225   1.945   3.088  0.2904 -0.2042  0.5972
 1818SOL     OW 7344   2.476   2.065   2.993 -0.3714 -0.0296  0.4195
 1818SOL    HW2 7345   2.541   1.998   3.014 -0.4559 -0.3321 -0.2487
 1818SOL    HW3 7346   2.392   2.027   3.020 -0.6544 -1.0203 -1.7231
 1818SOL    MW4 7347   2.473   2.051   2.999 -0.4199 -0.2000  0.0486
 1819SOL     OW 7348   2.466   2.325   3.045  0.5255 -0.1253 -0.0700
 1819SOL    HW2 7349   2.475   2.326   3.140  1.4396  0.4493 -0.1649
 1819SOL    HW3 7350   2.467   2.232   3.022  0.1084 -0.2740  0.4963
 1819SOL    MW4 7351   2.467   2.313   3.054  0.5913 -0.0691 -0.0076
 1820SOL     OW 7352   2.217   2.418   2.979  0.9349 -0.5670 -0.3782
 1820SOL    HW2 7353   2.206   2.511   2.998 -0.9962 -0.4471 -1.8525
 1820SOL    HW3 7354   2.308   2.399   3.002  0.7094  1.1412  2.0882
 1820SOL    MW4 7355   2.228   2.428   2.985  0.6502 -0.3259 -0.2472
 1821SOL     OW 7356   2.190   2.697   3.033  0.3547 -0.0433 -0.4440
 1821SOL    HW2 7357   2.270   2.733   2.994 -0.5318  1.4962 -0.8932
 1821SOL    HW3 7358   2.120   2.754   3.000 -0.5804  0.5203  2.3470
 1821SOL    MW4 7359   2.191   2.710   3.023  0.1142  0.2341 -0.1349
 1822SOL     OW 7360   2.459   2.771   2.996 -0.1182 -0.0043  0.3468
 1822SOL    HW2 7361   2.480   2.864   3.005 -0.7544  0.1836 -0.0473
 1822SOL    HW3 7362   2.469   2.754   2.902 -0.4410 -0.2201  0.3503
 1822SOL    MW4 7363   2.463   2.781   2.985 -0.2446 -0.0079  0.2952
 1823SOL     OW 7364   2.497   3.053   3.050 -0.2306 -0.0239 -0.1233
 1823SOL    HW2 7365   2.487   3.068   3.144  1.3993  1.0145 -0.1171
 1823SOL    HW3 7366   2.434   3.113   3.010  0.1366  0.6177  0.2481
 1823SOL    MW4 7367   2.487   3.063   3.057  0.0331  0.1981 -0.0734
 1824SOL     OW 7368   2.293   3.222   2.970 -0.0955  0.8126 -0.7039
 1824SOL    HW2 7369   2.287   3.308   3.010  2.5740  1.2323 -1.1097
 1824SOL    HW3 7370   2.231   3.168   3.019 -0.1046  2.3945  1.0775
 1824SOL    MW4 7371   2.284   3.226   2.981  0.2553  1.0765 -0.5229
 1825SOL     OW 7372   2.277   3.476   3.086 -0.3492 -0.6452  0.1178
 1825SOL    HW2 7373   2.342   3.533   3.045 -1.0945  0.0268 -0.1567
 1825SOL    HW3 7374   2.193   3.505   3.050 -0.9277 -0.6910  1.3793
 1825SOL    MW4 7375   2.275   3.487   3.076 -0.5240 -0.5624  0.2480
 1826SOL     OW 7376   2.496   3.586   2.979 -0.0165  0.0570  0.1379
 1826SOL    HW2 7377   2.560   3.537   3.030  1.5710  0.2240 -1.6504
 1826SOL    HW3 7378   2.495   3.673   3.019  0.7643  0.0146  0.2465
 1826SOL    MW4 7379   2.504   3.591   2.991  0.2961  0.0734 -0.0839
 1827SOL     OW 7380   2.523   3.855   3.066 -0.3971  0.3493 -0.5691
 1827SOL    HW2 7381   2.546   3.843   3.158  1.1651 -2.5524 -1.2721
 1827SOL    HW3 7382   2.605   3.882   3.024 -0.5702 -0.5341 -1.4814
 1827SOL    MW4 7383   2.537   3.857   3.072 -0.2134 -0.1502 -0.7820
 1828SOL     OW 7384   2.293   4.002   3.027 -0.7881 -0.4622  0.1793
 1828SOL    HW2 7385   2.372   3.950   3.041 -0.4846 -0.0691 -0.0552
 1828SOL    HW3 7386   2.222   3.946   3.058 -0.4634 -1.0148 -0.0536
 1828SOL    MW4 7387   2.294   3.987   3.033 -0.7052 -0.4835  0.1178
 1829SOL     OW 7388   2.273   4.282   3.073 -0.0614 -0.2940 -0.4750
 1829SOL    HW2 7389   2.279   4.187   3.064  1.9675  0.0307 -3.0589
 1829SOL    HW3 7390   2.198   4.306   3.019 -0.1046 -0.3535 -0.4416
 1829SOL    MW4 7391   2.264   4.272   3.065  0.2007 -0.2589 -0.8116
 1830SOL     OW 7392   2.501   4.418   2.959  0.1822 -0.5548  0.3958
 1830SOL    HW2 7393   2.432   4.378   3.012 -1.6208  1.5503 -0.2869
 1830SOL    HW3 7394   2.470   4.409   2.869  0.5029  0.9173  0.1256
 1830SOL    MW4 7395   2.488   4.411   2.954 -0.0131 -0.0830  0.2699
 1831SOL     OW 7396   2.916   0.029   3.087 -0.3293 -0.4156  0.4802
 1831SOL    HW2 7397   2.990   0.076   3.048 -0.5549 -0.0040  0.5431
 1831SOL    HW3 7398   2.920  -0.058   3.048 -0.9963  0.2084 -1.0717
 1831SOL    MW4 7399   2.926   0.024   3.076 -0.4470 -0.2789  0.2837
 1832SOL     OW 7400   2.709   0.158   2.966  0.3433  0.2452  0.1932
 1832SOL    HW2 7401   2.787   0.119   3.005  0.5269  0.1946 -0.2331
 1832SOL    HW3 7402   2.636   0.111   3.007  0.5633 -0.6103 -0.3928
 1832SOL    MW4 7403   2.709   0.147   2.977  0.3963  0.1257  0.0596
 1833SOL     OW 7404   2.703   0.428   3.060  0.4995  0.2180 -0.2108
 1833SOL    HW2 7405   2.709   0.344   3.014 -1.0115 -0.3940  0.6759
 1833SOL    HW3 7406   2.627   0.471   3.020 -0.0638  0.2138  0.8526
 1833SOL    MW4 7407   2.694   0.422   3.048  0.2258  0.1367  0.0463
 1834SOL     OW 7408   2.968   0.521   3.003  0.7112 -0.2557 -0.2727
 1834SOL    HW2 7409   2.882   0.480   3.013  0.5526 -0.1217 -1.0979
 1834SOL    HW3 7410   2.969   0.554   2.913  0.7729  1.6668  0.4050
 1834SOL    MW4 7411   2.957   0.520   2.993  0.6986  0.0157 -0.2923
 1835SOL     OW 7412   2.873   0.756   3.139 -0.0700  0.1509 -0.0106
 1835SOL    HW2 7413   2.875   0.767   3.234  0.1281 -1.2893  0.1534
 1835SOL    HW3 7414   2.910   0.670   3.123 -0.1609  0.3514 -1.3983
 1835SOL    MW4 7415   2.878   0.746   3.149 -0.0558 -0.0126 -0.1719
 1836SOL     OW 7416   2.693   0.921   3.004 -0.0636 -0.0853 -0.4835
 1836SOL    HW2 7417   2.691   1.006   3.047  1.1410  0.0683 -0.7213
 1836SOL    HW3 7418   2.760   0.871   3.050 -1.4860 -1.2986  0.3461
 1836SOL    MW4 7419   2.701   0.925   3.016 -0.0925 -0.2251 -0.4053
 1837SOL     OW 7420   2.670   1.186   3.097 -0.1763  0.0095  0.2585
 1837SOL    HW2 7421   2.743   1.228   3.051  1.1446 -2.2415  0.1701
 1837SOL    HW3 7422   2.592   1.227   3.061  0.9592  0.4871 -1.7408
 1837SOL    MW4 7423   2.669   1.197   3.086  0.1481 -0.2246 -0.0167
 1838SOL     OW 7424   2.901   1.310   2.985 -0.2471  0.6729 -0.3890
 1838SOL    HW2 7425   2.967   1.253   3.026  0.0185  1.0785 -0.2483
 1838SOL    HW3 7426   2.898   1.387   3.041 -0.2521  1.0100 -0.8470
 1838SOL    MW4 7427   2.910   1.312   2.997 -0.2129  0.7709 -0.4308
 1839SOL     OW 7428   2.894   1.550   3.110 -0.0259 -0.1467  0.0135
 1839SOL    HW2 7429   2.893   1.556   3.206  0.9265 -1.4421  0.1160
 1839SOL    HW3 7430   2.960   1.614   3.083  0.7980 -0.8658  0.3151
 1839SOL    MW4 7431   2.903   1.560   3.119  0.2086 -0.4125  0.0668
 1840SOL     OW 7432   2.675   1.636   2.975 -0.1313 -0.1050 -0.7051
 1840SOL    HW2 7433   2.741   1.599   3.033  0.7121  2.3931  0.0013
 1840SOL    HW3 7434   2.592   1.616   3.017  0.4858  2.2934  1.8494
 1840SOL    MW4 7435   2.673   1.628   2.988  0.0615  0.5411 -0.2747
 1841SOL     OW 7436   2.649   1.878   3.105 -0.8010 -0.6916 -0.0617
 1841SOL    HW2 7437   2.716   1.942   3.082  0.2278 -1.3985  0.9492
 1841SOL    HW3 7438   2.670   1.801   3.051 -0.3908 -1.1494  0.7434
 1841SOL    MW4 7439   2.661   1.876   3.095 -0.6111 -0.8453  0.1781
 1842SOL     OW 7440   2.862   2.061   3.033  0.0929  0.5831  0.1134
 1842SOL    HW2 7441   2.879   2.150   3.063  1.7463  0.3907 -0.1895
 1842SOL    HW3 7442   2.874   2.065   2.938 -0.4465  0.1705  0.0248
 1842SOL    MW4 7443   2.866   2.073   3.024  0.2401  0.5033  0.0620
 1843SOL     OW 7444   2.919   2.329   3.064  0.0179  0.1480  0.2260
 1843SOL    HW2 7445   2.993   2.375   3.025 -1.0674  2.0074  0.3047
 1843SOL    HW3 7446   2.843   2.362   3.016 -0.9303 -0.5290  1.2414
 1843SOL    MW4 7447   2.919   2.339   3.052 -0.2506  0.3040  0.3703
 1844SOL     OW 7448   2.695   2.439   2.956  0.1892 -0.3644  0.1678
 1844SOL    HW2 7449   2.691   2.532   2.979 -0.7546  0.1157 -1.8282
 1844SOL    HW3 7450   2.610   2.404   2.981  0.9365 -0.9524  1.9305
 1844SOL    MW4 7451   2.683   2.447   2.962  0.1633 -0.3786  0.1371
 1845SOL     OW 7452   2.717   2.711   3.060  0.1143  0.2703 -0.3335
 1845SOL    HW2 7453   2.720   2.697   3.155 -0.1980  0.2503 -0.3272
 1845SOL    HW3 7454   2.635   2.757   3.045 -1.0972 -1.9980 -0.8916
 1845SOL    MW4 7455   2.707   2.715   3.071 -0.0868 -0.0317 -0.4060
 1846SOL     OW 7456   2.949   2.804   2.953  0.0971 -0.0755  0.2718
 1846SOL    HW2 7457   3.014   2.778   3.018  0.0270 -0.0141  0.3678
 1846SOL    HW3 7458   2.865   2.776   2.991 -0.0232  0.6489  0.5703
 1846SOL    MW4 7459   2.946   2.797   2.967  0.0718  0.0281  0.3238
 1847SOL     OW 7460   2.939   3.050   3.096 -0.0720 -0.6338  0.1634
 1847SOL    HW2 7461   2.858   3.080   3.053 -0.6935 -1.0232  1.0445
 1847SOL    HW3 7462   2.963   2.971   3.048  0.0365 -0.2702 -0.3908
 1847SOL    MW4 7463   2.931   3.044   3.084 -0.1397 -0.6373  0.2065
 1848SOL     OW 7464   2.723   3.198   2.999  0.4220  0.5920 -0.5464
 1848SOL    HW2 7465   2.713   3.285   3.039 -0.2884  0.5549 -0.6400
 1848SOL    HW3 7466   2.637   3.158   3.006  0.3916  0.4172 -1.7183
 1848SOL    MW4 7467   2.710   3.204   3.005  0.3242  0.5641 -0.7133
 1849SOL     OW 7468   2.720   3.457   3.104  0.1458  0.3332  0.3295
 1849SOL    HW2 7469   2.715   3.468   3.199  1.6437 -1.2174  0.6082
 1849SOL    HW3 7470   2.777   3.528   3.074 -0.4554  0.9178  0.5660
 1849SOL    MW4 7471   2.727   3.468   3.113  0.2642  0.2055  0.3974
 1850SOL     OW 7472   2.908   3.636   2.999 -0.3069  0.2464 -0.3671
 1850SOL    HW2 7473   2.985   3.586   3.025 -0.8924 -0.0180  0.8931
 1850SOL    HW3 7474   2.933   3.727   3.013  0.5429  0.2943 -2.0773
 1850SOL    MW4 7475   2.921   3.641   3.004 -0.2720  0.2177 -0.4263
 1851SOL     OW 7476   2.974   3.888   3.063 -0.2114  0.1513  0.2031
 1851SOL    HW2 7477   2.956   3.893   3.157 -0.2708 -0.4512  0.2204
 1851SOL    HW3 7478   2.898   3.931   3.022 -0.9978 -1.0931  0.3504
 1851SOL    MW4 7479   2.962   3.895   3.070 -0.3231 -0.0923  0.2248
 1852SOL     OW 7480   2.743   4.001   2.970  0.4166  0.2454 -0.2258
 1852SOL    HW2 7481   2.739   4.089   3.007 -2.5851 -0.6231  1.6502
 1852SOL    HW3 7482   2.709   4.011   2.881  1.4588  1.2198 -0.5155
 1852SOL    MW4 7483   2.738   4.014   2.963  0.1581  0.2589 -0.0165
 1853SOL     OW 7484   2.716   4.279   3.028  0.3159 -0.0124  0.7074
 1853SOL    HW2 7485   2.714   4.288   3.123  0.2932 -0.9090  0.7941
 1853SOL    HW3 7486   2.636   4.323   2.998  1.1883  1.7909  0.9623
 1853SOL    MW4 7487   2.705   4.286   3.037  0.4280  0.1073  0.7524
 1854SOL     OW 7488   2.916   4.444   2.967 -0.0673  0.3372  0.4741
 1854SOL    HW2 7489   2.995   4.415   3.014 -0.9317 -0.1585  1.6349
 1854SOL    HW3 7490   2.847   4.385   2.996 -0.4485 -0.5885 -2.1526
 1854SOL    MW4 7491   2.918   4.433   2.977 -0.2317  0.1497  0.2809
 1855SOL     OW 7492   3.371   0.023   3.128  0.2524  0.0668  0.8428
 1855SOL    HW2 7493   3.445   0.073   3.095  0.3984 -0.5339  0.2474
 1855SOL    HW3 7494   3.373  -0.059   3.079 -0.6703 -0.0480  0.9758
 1855SOL    MW4 7495   3.381   0.019   3.117  0.1500 -0.0272  0.7820
 1856SOL     OW 7496   3.134   0.128   2.982  0.1588 -0.3213  0.1553
 1856SOL    HW2 7497   3.152   0.205   3.036 -1.6647 -0.2699  0.7040
 1856SOL    HW3 7498   3.199   0.063   3.012  2.5227  1.3437 -1.1679
 1856SOL    MW4 7499   3.145   0.129   2.993  0.2303 -0.0948  0.0532
 1857SOL     OW 7500   3.152   0.374   3.116 -0.3452 -0.1180  0.3867
 1857SOL    HW2 7501   3.137   0.383   3.210  0.9497  1.4661  0.4751
 1857SOL    HW3 7502   3.090   0.435   3.076 -1.0190 -0.9216  0.1967
 1857SOL    MW4 7503   3.142   0.384   3.123 -0.2635 -0.0150  0.3734
 1858SOL     OW 7504   3.385   0.505   2.991 -0.2794 -0.1074  0.3614
 1858SOL    HW2 7505   3.469   0.476   3.026 -1.1235 -0.3511  2.2396
 1858SOL    HW3 7506   3.319   0.455   3.039 -1.5780  1.5601  0.3822
 1858SOL    MW4 7507   3.387   0.495   3.002 -0.5622  0.0804  0.6120
 1859SOL     OW 7508   3.353   0.752   3.118  0.3021 -0.2340  0.1148
 1859SOL    HW2 7509   3.350   0.745   3.213  0.0264  2.4386  0.3370
 1859SOL    HW3 7510   3.354   0.661   3.087 -0.0804 -1.1261  2.6352
 1859SOL    MW4 7511   3.353   0.739   3.127  0.2153  0.0009  0.4768
 1860SOL     OW 7512   3.146   0.876   3.012  0.2100  0.1736 -0.0057
 1860SOL    HW2 7513   3.221   0.823   3.041  0.1851  0.9791  1.5239
 1860SOL    HW3 7514   3.070   0.835   3.053 -0.1329 -0.1962 -0.9729
 1860SOL    MW4 7515   3.146   0.863   3.021  0.1616  0.2311  0.0687
 1861SOL     OW 7516   3.086   1.128   3.107 -0.0555 -0.4013 -0.2591
 1861SOL    HW2 7517   3.156   1.175   3.061  0.3563  0.7024  1.4283
 1861SOL    HW3 7518   3.110   1.036   3.100  1.1614 -0.0890 -0.3934
 1861SOL    MW4 7519   3.099   1.122   3.100  0.1595 -0.2143 -0.0541
 1862SOL     OW 7520   3.312   1.276   3.019  0.1541  0.4346  0.0528
 1862SOL    HW2 7521   3.391   1.241   3.062  0.2000  1.9969  1.2795
 1862SOL    HW3 7522   3.301   1.363   3.056 -0.4444  1.4110 -2.3672
 1862SOL    MW4 7523   3.321   1.283   3.030  0.0813  0.7695 -0.1047
 1863SOL     OW 7524   3.346   1.531   3.142  0.0588  0.2136 -0.0796
 1863SOL    HW2 7525   3.346   1.540   3.237 -0.6033 -0.5053 -0.0084
 1863SOL    HW3 7526   3.424   1.579   3.114  2.0904 -2.2965  1.0879
 1863SOL    MW4 7527   3.356   1.539   3.151  0.2394 -0.2124  0.0837
 1864SOL     OW 7528   3.150   1.690   3.019 -0.3687 -0.0581  0.4638
 1864SOL    HW2 7529   3.214   1.624   3.046 -0.3383 -0.1051  0.2797
 1864SOL    HW3 7530   3.151   1.686   2.923 -0.9954 -0.3881  0.4687
 1864SOL    MW4 7531   3.159   1.681   3.010 -0.4473 -0.1078  0.4401
 1865SOL     OW 7532   3.129   1.941   3.083 -0.1562  0.5609  0.0068
 1865SOL    HW2 7533   3.123   1.847   3.065 -0.3828  0.6870 -0.5964
 1865SOL    HW3 7534   3.042   1.975   3.065 -0.3159  0.7463  1.0907
 1865SOL    MW4 7535   3.117   1.933   3.078 -0.2072  0.6020  0.0703
 1866SOL     OW 7536   3.358   2.070   3.001  0.0061 -0.0073 -0.0135
 1866SOL    HW2 7537   3.420   2.020   3.055 -0.2524  0.9097  1.1540
 1866SOL    HW3 7538   3.272   2.034   3.023 -0.0593  0.1032 -0.0850
 1866SOL    MW4 7539   3.355   2.059   3.011 -0.0367  0.1283  0.1311
 1867SOL     OW 7540   3.389   2.347   3.101 -0.3782 -0.5418 -0.4858
 1867SOL    HW2 7541   3.371   2.345   3.195 -1.3274  0.0980 -0.6474
 1867SOL    HW3 7542   3.383   2.255   3.074  0.5944 -0.8085  0.2040
 1867SOL    MW4 7543   3.386   2.335   3.110 -0.3753 -0.4923 -0.4160
 1868SOL     OW 7544   3.147   2.456   2.974  0.5900 -0.1487 -0.4322
 1868SOL    HW2 7545   3.222   2.410   3.012  0.0561  0.1552  1.0181
 1868SOL    HW3 7546   3.160   2.450   2.880  1.7458 -1.2517 -0.2096
 1868SOL    MW4 7547   3.158   2.449   2.967  0.6716 -0.2544 -0.2115
 1869SOL     OW 7548   3.148   2.689   3.114 -0.1403  0.0813 -0.4341
 1869SOL    HW2 7549   3.164   2.669   3.207 -0.9282 -0.1766 -0.3472
 1869SOL    HW3 7550   3.147   2.604   3.071  0.3127  0.2076 -0.6989
 1869SOL    MW4 7551   3.150   2.675   3.121 -0.1845  0.0639 -0.4578
 1870SOL     OW 7552   3.343   2.842   3.005 -0.6194 -0.6859  0.1831
 1870SOL    HW2 7553   3.337   2.924   3.054 -1.4477 -0.0470 -0.9611
 1870SOL    HW3 7554   3.294   2.779   3.058  1.3207 -0.8541  1.8410
 1870SOL    MW4 7555   3.336   2.844   3.018 -0.4730 -0.6237  0.2508
 1871SOL     OW 7556   3.388   3.098   3.124  0.4574 -0.8176  0.4852
 1871SOL    HW2 7557   3.390   3.126   3.215  2.8409 -1.8407  0.7891
 1871SOL    HW3 7558   3.317   3.149   3.084 -0.8749 -0.6580  2.9854
 1871SOL    MW4 7559   3.378   3.108   3.130  0.5960 -0.9315  0.8554
 1872SOL     OW 7560   3.146   3.230   3.029  0.2615 -0.0813 -0.0616
 1872SOL    HW2 7561   3.065   3.186   3.056  1.6296 -2.3491  0.5268
 1872SOL    HW3 7562   3.150   3.215   2.934 -0.0448  0.1146 -0.1071
 1872SOL    MW4 7563   3.136   3.222   3.020  0.4017 -0.3548  0.0098
 1873SOL     OW 7564   3.143   3.497   3.080  0.2974  0.1905  0.0076
 1873SOL    HW2 7565   3.219   3.544   3.048  0.6326 -0.9466 -0.8845
 1873SOL    HW3 7566   3.163   3.405   3.064 -0.2483 -0.2836  1.9443
 1873SOL    MW4 7567   3.156   3.491   3.074  0.2697 -0.0219  0.1452
 1874SOL     OW 7568   3.386   3.613   2.957 -0.1727 -0.2649  0.1872
 1874SOL    HW2 7569   3.458   3.573   3.006 -0.2598  0.8548  1.2457
 1874SOL    HW3 7570   3.378   3.701   2.994 -1.8693 -0.2709 -0.1488
 1874SOL    MW4 7571   3.395   3.619   2.968 -0.4079 -0.1183  0.2823
 1875SOL     OW 7572   3.371   3.878   3.036  0.2755 -0.1818  0.7092
 1875SOL    HW2 7573   3.365   3.876   3.131  0.3201  0.2360  0.7220
 1875SOL    HW3 7574   3.295   3.929   3.008  1.2407  1.2392  0.6240
 1875SOL    MW4 7575   3.360   3.884   3.045  0.4089  0.0608  0.6995
 1876SOL     OW 7576   3.166   4.054   2.970 -0.4566 -0.5356  0.7336
 1876SOL    HW2 7577   3.108   3.997   3.020 -0.8845 -0.6666  0.0949
 1876SOL    HW3 7578   3.155   4.025   2.879 -0.3000  0.2404  0.4657
 1876SOL    MW4 7579   3.157   4.042   2.964 -0.4921 -0.4511  0.6142
 1877SOL     OW 7580   3.120   4.285   3.106 -0.0739  0.7537 -0.2990
 1877SOL    HW2 7581   3.133   4.265   3.199  0.7156  1.3139 -0.2736
 1877SOL    HW3 7582   3.136   4.203   3.061  0.5989  0.7196 -0.0115
 1877SOL    MW4 7583   3.124   4.272   3.112  0.1190  0.8235 -0.2577
 1878SOL     OW 7584   3.358   4.443   3.000  0.1936 -0.1083  0.3724
 1878SOL    HW2 7585   3.439   4.395   3.020 -0.6422 -0.7973  2.1943
 1878SOL    HW3 7586   3.288   4.390   3.038 -1.0576  0.8821 -0.5041
 1878SOL    MW4 7587   3.360   4.430   3.008 -0.0820 -0.0682  0.4971
 1879SOL     OW 7588   3.812   0.004   3.100 -0.1159  0.4206  0.5792
 1879SOL    HW2 7589   3.790  -0.080   3.061  0.7373  0.0119  0.9694
 1879SOL    HW3 7590   3.734   0.059   3.085 -1.0626 -0.7308  1.1810
 1879SOL    MW4 7591   3.799   0.000   3.093 -0.1280  0.2146  0.7100
 1880SOL     OW 7592   3.587   0.142   3.046 -0.0817  0.5928  0.2175
 1880SOL    HW2 7593   3.588   0.233   3.075 -0.3986  0.6201  0.1379
 1880SOL    HW3 7594   3.608   0.146   2.953  1.7045  0.4490  0.5914
 1880SOL    MW4 7595   3.590   0.155   3.038  0.1123  0.5775  0.2563
 1881SOL     OW 7596   3.609   0.408   3.125 -0.2835 -0.1457  0.2268
 1881SOL    HW2 7597   3.588   0.411   3.218  0.4456 -0.3982  0.4039
 1881SOL    HW3 7598   3.689   0.460   3.117 -0.6213  0.2874 -0.3333
 1881SOL    MW4 7599   3.617   0.415   3.136 -0.2320 -0.1219  0.1762
 1882SOL     OW 7600   3.859   0.529   3.031  0.4607  0.3278  0.0690
 1882SOL    HW2 7601   3.925   0.477   3.076 -0.7188 -1.0442  0.2610
 1882SOL    HW3 7602   3.844   0.604   3.087  0.7938 -0.1097  0.7495
 1882SOL    MW4 7603   3.865   0.532   3.044  0.3488  0.0891  0.1841
 1883SOL     OW 7604   3.814   0.767   3.145 -0.0230 -0.3283 -0.2359
 1883SOL    HW2 7605   3.831   0.749   3.237  0.2133 -0.3309 -0.2796
 1883SOL    HW3 7606   3.888   0.821   3.117  0.2356 -0.8736 -0.5966
 1883SOL    MW4 7607   3.826   0.772   3.153  0.0424 -0.4006 -0.2892
 1884SOL     OW 7608   3.566   0.892   2.998 -0.3826 -0.0238 -0.1773
 1884SOL    HW2 7609   3.647   0.858   3.035 -0.8904 -0.5515  0.4866
 1884SOL    HW3 7610   3.497   0.838   3.039 -0.8739 -1.7579 -3.1222
 1884SOL    MW4 7611   3.567   0.880   3.009 -0.5145 -0.3222 -0.4783
 1885SOL     OW 7612   3.535   1.158   3.106  0.1095 -0.8734  0.4370
 1885SOL    HW2 7613   3.614   1.204   3.078 -0.4321  0.4327  0.9964
 1885SOL    HW3 7614   3.544   1.070   3.070  1.2104 -0.3542 -0.5883
 1885SOL    MW4 7615   3.547   1.153   3.097  0.1831 -0.6326  0.3753
 1886SOL     OW 7616   3.787   1.262   3.023 -0.7238  0.2005  0.0884
 1886SOL    HW2 7617   3.798   1.354   3.050  2.0741 -0.2040  0.4470
 1886SOL    HW3 7618   3.826   1.257   2.936 -0.0972 -0.8424  0.4241
 1886SOL    MW4 7619   3.794   1.274   3.015 -0.2718  0.0094  0.1800
 1887SOL     OW 7620   3.808   1.522   3.099 -0.0893 -0.1655  0.3272
 1887SOL    HW2 7621   3.806   1.531   3.195  0.1149  1.3879  0.2041
 1887SOL    HW3 7622   3.733   1.573   3.069 -0.5713 -1.2314 -0.3120
 1887SOL    MW4 7623   3.798   1.530   3.108 -0.1261 -0.1011  0.2270
 1888SOL     OW 7624   3.585   1.659   3.040  0.2100  0.1938  0.0619
 1888SOL    HW2 7625   3.586   1.746   3.079  1.1636  0.9987 -1.7229
 1888SOL    HW3 7626   3.595   1.674   2.946 -1.0841 -1.7696 -0.4152
 1888SOL    MW4 7627   3.587   1.672   3.033  0.1652  0.0410 -0.2365
 1889SOL     OW 7628   3.575   1.926   3.124 -0.4057  0.3032  0.4145
 1889SOL    HW2 7629   3.583   1.918   3.219  0.0232  0.4188  0.3862
 1889SOL    HW3 7630   3.649   1.981   3.098 -0.5835  0.3590  0.0267
 1889SOL    MW4 7631   3.586   1.932   3.133 -0.3726  0.3259  0.3595
 1890SOL     OW 7632   3.812   2.072   3.004  0.1304 -0.4855  0.4336
 1890SOL    HW2 7633   3.803   2.166   3.021 -1.7784 -0.4906 -0.4233
 1890SOL    HW3 7634   3.820   2.065   2.909  1.2927 -1.1327  0.5669
 1890SOL    MW4 7635   3.812   2.083   2.994  0.0319 -0.5717  0.3383
 1891SOL     OW 7636   3.810   2.307   3.130  0.0697 -0.3746  0.3159
 1891SOL    HW2 7637   3.793   2.305   3.224 -1.5414 -1.5753  0.0265
 1891SOL    HW3 7638   3.738   2.359   3.093  0.5351 -0.1463 -0.2833
 1891SOL    MW4 7639   3.798   2.313   3.137 -0.0811 -0.5028  0.1984
 1892SOL     OW 7640   3.628   2.477   3.030  0.1180  0.0947 -0.3213
 1892SOL    HW2 7641   3.611   2.560   3.074 -0.6215 -0.3790  0.2907
 1892SOL    HW3 7642   3.545   2.429   3.034  1.0795 -1.5092  1.1365
 1892SOL    MW4 7643   3.615   2.481   3.036  0.1471 -0.1795 -0.0482
 1893SOL     OW 7644   3.576   2.733   3.117 -0.2036 -0.3648 -0.1166
 1893SOL    HW2 7645   3.652   2.775   3.077 -0.0406 -0.9949 -0.4750
 1893SOL    HW3 7646   3.501   2.781   3.081 -0.0363 -0.6104 -0.8067
 1893SOL    MW4 7647   3.576   2.745   3.107 -0.1597 -0.4799 -0.2551
 1894SOL     OW 7648   3.803   2.854   3.030  0.5654  0.1446 -0.1537
 1894SOL    HW2 7649   3.828   2.940   3.064  1.4626  0.2595 -1.0435
 1894SOL    HW3 7650   3.829   2.858   2.938  0.8689 -1.1783 -0.1253
 1894SOL    MW4 7651   3.810   2.866   3.022  0.7238 -0.0148 -0.2675
 1895SOL     OW 7652   3.862   3.097   3.112  0.5499 -0.1254 -0.0497
 1895SOL    HW2 7653   3.856   3.087   3.207  1.2387 -0.6845 -0.0643
 1895SOL    HW3 7654   3.778   3.136   3.088  0.0634 -0.6757  0.7016
 1895SOL    MW4 7655   3.850   3.101   3.122  0.5767 -0.2720  0.0472
 1896SOL     OW 7656   3.616   3.220   3.014  0.0591  0.2587 -0.2344
 1896SOL    HW2 7657   3.558   3.165   3.066  1.2193 -0.1885  0.6243
 1896SOL    HW3 7658   3.594   3.199   2.924  0.2405 -1.3640  0.0820
 1896SOL    MW4 7659   3.606   3.210   3.009  0.2365 -0.0143 -0.0794
 1897SOL     OW 7660   3.566   3.479   3.107 -0.2856 -0.1617 -0.1556
 1897SOL    HW2 7661   3.651   3.515   3.085 -0.1213 -0.0584  0.6267
 1897SOL    HW3 7662   3.573   3.386   3.085 -0.3537  0.0653 -1.1612
 1897SOL    MW4 7663   3.578   3.471   3.102 -0.2728 -0.1183 -0.1850
 1898SOL     OW 7664   3.802   3.632   3.016 -0.4756  0.5575  0.0683
 1898SOL    HW2 7665   3.818   3.720   3.051 -1.2893  0.4887  0.6229
 1898SOL    HW3 7666   3.795   3.645   2.922  0.5772  0.9169  0.0226
 1898SOL    MW4 7667   3.803   3.646   3.008 -0.4437  0.5960  0.1354
 1899SOL     OW 7668   3.840   3.887   3.088 -0.0345  0.5716  0.2218
 1899SOL    HW2 7669   3.817   3.886   3.181 -1.3156  0.4334 -0.0886
 1899SOL    HW3 7670   3.767   3.933   3.046  0.2180  0.0456 -0.7973
 1899SOL    MW4 7671   3.827   3.893   3.095 -0.1702  0.4840  0.0465
 1900SOL     OW 7672   3.608   3.993   2.952 -0.4064 -0.2733 -0.2874
 1900SOL    HW2 7673   3.524   3.953   2.973 -0.8335  0.9469  0.4022
 1900SOL    HW3 7674   3.608   4.001   2.857 -1.0312 -0.3548 -0.2974
 1900SOL    MW4 7675   3.597   3.989   2.942 -0.5450 -0.1230 -0.1976
 1901SOL     OW 7676   3.543   4.252   3.083  0.0561  0.2853  0.0462
 1901SOL    HW2 7677   3.633   4.280   3.064  0.3542 -1.1251 -0.7015
 1901SOL    HW3 7678   3.539   4.162   3.051 -1.6504  0.3561  0.0378
 1901SOL    MW4 7679   3.554   4.244   3.076 -0.1297  0.1087 -0.0536
 1902SOL     OW 7680   3.763   4.434   2.992  0.1393  0.0642 -0.0255
 1902SOL    HW2 7681   3.847   4.426   3.037 -0.8429  0.2777  1.9383
 1902SOL    HW3 7682   3.781   4.410   2.901  2.0310 -1.3176  0.6783
 1902SOL    MW4 7683   3.776   4.430   2.986  0.2592 -0.0901  0.3266
 1903SOL     OW 7684   4.287   0.009   3.098 -0.4510 -0.1548  0.2383
 1903SOL    HW2 7685   4.262   0.001   3.190  0.4168 -1.0317  0.4064
 1903SOL    HW3 7686   4.286  -0.081   3.065  0.6139  0.0030 -0.2400
 1903SOL    MW4 7687   4.283  -0.004   3.105 -0.1955 -0.2497  0.1974
 1904SOL     OW 7688   4.030   0.160   3.025  0.3233  0.0138 -0.3620
 1904SOL    HW2 7689   4.112   0.113   3.041  0.0616 -0.2792  0.1403
 1904SOL    HW3 7690   3.965   0.112   3.077 -0.0383  0.6545 -0.2209
 1904SOL    MW4 7691   4.032   0.147   3.034  0.2413  0.0596 -0.2770
 1905SOL     OW 7692   4.067   0.379   3.183 -0.5075  0.0972  0.2397
 1905SOL    HW2 7693   4.147   0.412   3.142 -0.1668 -0.1641  0.6861
 1905SOL    HW3 7694   4.048   0.297   3.137 -0.8077  0.4162 -0.2103
 1905SOL    MW4 7695   4.075   0.373   3.171 -0.5026  0.1048  0.2394
 1906SOL     OW 7696   4.280   0.509   3.059  0.2246  0.1197  0.0767
 1906SOL    HW2 7697   4.279   0.595   3.101 -0.4879  0.5094 -0.7072
 1906SOL    HW3 7698   4.256   0.527   2.968  2.4078 -0.6022 -0.6813
 1906SOL    MW4 7699   4.277   0.523   3.052  0.4182  0.0759 -0.1268
 1907SOL     OW 7700   4.250   0.773   3.134 -0.2554  0.5828 -0.3377
 1907SOL    HW2 7701   4.172   0.819   3.105 -0.8030 -0.8062 -1.1158
 1907SOL    HW3 7702   4.323   0.825   3.100 -0.8438  1.4369 -0.3032
 1907SOL    MW4 7703   4.249   0.786   3.125 -0.4053  0.5121 -0.4361
 1908SOL     OW 7704   4.031   0.914   3.060  0.0358  0.0757 -0.0208
 1908SOL    HW2 7705   4.042   1.003   3.094 -0.8132  0.0169  0.4476
 1908SOL    HW3 7706   4.030   0.924   2.965  1.6118  0.3555 -0.0167
 1908SOL    MW4 7707   4.032   0.927   3.052  0.1316  0.1049  0.0417
 1909SOL     OW 7708   4.039   1.177   3.147 -0.2812  0.2797  0.0452
 1909SOL    HW2 7709   4.031   1.179   3.242  0.0184  1.4620  0.0506
 1909SOL    HW3 7710   3.959   1.220   3.115 -0.1221  0.3811 -0.2222
 1909SOL    MW4 7711   4.027   1.183   3.155 -0.2203  0.4491  0.0105
 1910SOL     OW 7712   4.253   1.271   2.979  0.3816 -0.4768  0.2733
 1910SOL    HW2 7713   4.172   1.231   3.012  0.7419 -0.8582  0.6941
 1910SOL    HW3 7714   4.262   1.236   2.890  1.2220 -2.1404  0.9769
 1910SOL    MW4 7715   4.243   1.261   2.972  0.5403 -0.7465  0.4218
 1911SOL     OW 7716   4.283   1.547   3.082 -0.0394 -0.0455 -0.3116
 1911SOL    HW2 7717   4.205   1.593   3.052  0.0652 -0.6969 -1.6535
 1911SOL    HW3 7718   4.275   1.459   3.044  1.0631 -0.2943  0.0044
 1911SOL    MW4 7719   4.272   1.541   3.073  0.1192 -0.1640 -0.4470
 1912SOL     OW 7720   4.047   1.671   2.974 -0.9550  0.2262  0.1206
 1912SOL    HW2 7721   4.043   1.755   3.020 -0.3012  0.6192 -0.5315
 1912SOL    HW3 7722   3.982   1.617   3.018 -0.5630  0.6958  1.3075
 1912SOL    MW4 7723   4.038   1.675   2.986 -0.8173  0.3400  0.1912
 1913SOL     OW 7724   4.013   1.916   3.101 -0.7439  0.6138  0.4425
 1913SOL    HW2 7725   4.088   1.953   3.055 -0.5073 -1.3238 -0.7749
 1913SOL    HW3 7726   3.939   1.969   3.070 -0.1009  1.5748  0.5172
 1913SOL    MW4 7727   4.013   1.928   3.091 -0.6280  0.4849  0.2916
 1914SOL     OW 7728   4.251   1.996   2.990  0.3640  0.1055 -0.1797
 1914SOL    HW2 7729   4.236   2.078   3.038 -0.2467  0.3469 -0.7630
 1914SOL    HW3 7730   4.271   2.024   2.900  0.4612 -0.3749 -0.3091
 1914SOL    MW4 7731   4.251   2.011   2.984  0.2961  0.0741 -0.2737
 1915SOL     OW 7732   4.221   2.256   3.095 -0.4502  0.3113 -0.1472
 1915SOL    HW2 7733   4.134   2.284   3.066 -0.2989  0.9258 -0.0070
 1915SOL    HW3 7734   4.281   2.323   3.062  0.1258 -0.7306 -1.2687
 1915SOL    MW4 7735   4.217   2.268   3.087 -0.3543  0.2551 -0.2768
 1916SOL     OW 7736   4.024   2.415   2.978  0.4281 -0.2097 -0.5753
 1916SOL    HW2 7737   4.038   2.499   3.021  1.0581 -0.1650 -0.8638
 1916SOL    HW3 7738   3.949   2.377   3.024  0.4738  0.2723 -0.0930
 1916SOL    MW4 7739   4.016   2.421   2.990  0.5174 -0.1402 -0.5500
 1917SOL     OW 7740   4.030   2.697   3.077  0.2478  0.2604  0.3955
 1917SOL    HW2 7741   4.052   2.707   3.170 -1.4377  0.2351  0.8053
 1917SOL    HW3 7742   3.946   2.741   3.067 -0.4416 -1.2816 -0.7477
 1917SOL    MW4 7743   4.022   2.704   3.088 -0.0658  0.0536  0.2990
 1918SOL     OW 7744   4.240   2.849   3.003 -0.8909 -0.4442  0.0839
 1918SOL    HW2 7745   4.159   2.799   3.013 -0.6984 -0.9208 -0.7370
 1918SOL    HW3 7746   4.309   2.791   3.034 -0.8242 -0.1618  0.4669
 1918SOL    MW4 7747   4.238   2.835   3.009 -0.8564 -0.4699  0.0260
 1919SOL     OW 7748   4.319   3.117   3.069  0.1495  0.7421  0.0528
 1919SOL    HW2 7749   4.237   3.166   3.062 -0.6938 -0.6626 -0.1039
 1919SOL    HW3 7750   4.298   3.030   3.036  1.6890  0.3337  0.1005
 1919SOL    MW4 7751   4.305   3.112   3.064  0.2418  0.5031  0.0384
 1920SOL     OW 7752   4.096   3.254   3.020  0.0449 -0.1726 -0.4135
 1920SOL    HW2 7753   4.091   3.347   3.045  2.7099 -0.2031  0.4064
 1920SOL    HW3 7754   4.018   3.215   3.059 -0.7214  1.5742 -0.1244
 1920SOL    MW4 7755   4.085   3.261   3.028  0.2956  0.0536 -0.2675
 1921SOL     OW 7756   4.056   3.523   3.102  0.1310  0.2541 -0.1576
 1921SOL    HW2 7757   4.048   3.540   3.196  0.0028 -1.6327  0.1940
 1921SOL    HW3 7758   3.968   3.540   3.067 -0.1082 -0.0825  0.2617
 1921SOL    MW4 7759   4.043   3.527   3.110  0.0830 -0.0389 -0.0560
 1922SOL     OW 7760   4.301   3.619   3.004  0.0218 -0.0817  0.0401
 1922SOL    HW2 7761   4.288   3.709   3.034  0.9275 -0.4053  1.4201
 1922SOL    HW3 7762   4.219   3.575   3.028  1.0010 -0.5087  2.7237
 1922SOL    MW4 7763   4.288   3.625   3.011  0.2704 -0.1805  0.5760
 1923SOL     OW 7764   4.259   3.901   3.106  0.2153  0.4242  0.0726
 1923SOL    HW2 7765   4.193   3.959   3.069  0.2887  0.5802  0.1872
 1923SOL    HW3 7766   4.341   3.950   3.101  0.1913  0.5202  0.6148
 1923SOL    MW4 7767   4.261   3.915   3.100  0.2217  0.4575  0.1590
 1924SOL     OW 7768   4.041   4.046   2.989  0.0896 -0.4505  0.0406
 1924SOL    HW2 7769   4.026   4.134   3.024 -2.5423 -0.7032 -0.3420
 1924SOL    HW3 7770   3.966   3.995   3.021 -0.2766 -1.6771 -2.6465
 1924SOL    MW4 7771   4.029   4.051   2.998 -0.3066 -0.6456 -0.3643
 1925SOL     OW 7772   4.000   4.305   3.087  0.0069  0.0411  0.1134
 1925SOL    HW2 7773   4.022   4.298   3.180 -1.0793 -0.9619  0.3043
 1925SOL    HW3 7774   4.072   4.356   3.049  0.5873  0.2334  1.4540
 1925SOL    MW4 7775   4.013   4.311   3.094 -0.0596 -0.0658  0.3154
 1926SOL     OW 7776   4.265   4.401   2.992  0.6539 -0.1649  0.5484
 1926SOL    HW2 7777   4.345   4.360   3.023  1.2575  0.2219 -0.4913
 1926SOL    HW3 7778   4.280   4.418   2.899 -0.6378 -0.1081  0.3337
 1926SOL    MW4 7779   4.278   4.398   2.984  0.5631 -0.1063  0.3831
 1927SOL     OW 7780   0.224   4.650   3.366 -0.7775 -0.1646  0.0545
 1927SOL    HW2 7781   0.302   4.704   3.380 -0.6023 -0.2831 -0.4432
 1927SOL    HW3 7782   0.242   4.569   3.413 -0.3167 -0.4488 -0.5948
 1927SOL    MW4 7783   0.237   4.647   3.374 -0.6936 -0.2174 -0.0966
 1928SOL     OW 7784   0.009   0.114   3.485 -0.3978  0.0271 -0.2495
 1928SOL    HW2 7785   0.007   0.207   3.462  0.4927  0.2141  0.4063
 1928SOL    HW3 7786   0.081   0.077   3.434  1.2643  0.3443  1.8163
 1928SOL    MW4 7787   0.018   0.121   3.475 -0.0610  0.0936  0.1099
 1929SOL     OW 7788   0.015   0.387   3.406 -0.3478 -0.2585  0.3090
 1929SOL    HW2 7789  -0.068   0.418   3.443 -1.0250 -0.1650 -1.2726
 1929SOL    HW3 7790   0.080   0.447   3.441 -1.1482  0.6125  0.3268
 1929SOL    MW4 7791   0.012   0.399   3.416 -0.5427 -0.1312  0.1025
 1930SOL     OW 7792   0.232   0.594   3.470  0.8061 -0.2772 -0.1428
 1930SOL    HW2 7793   0.283   0.538   3.412  0.1434 -1.6107  0.5406
 1930SOL    HW3 7794   0.225   0.677   3.423 -0.6551 -1.6697 -2.4722
 1930SOL    MW4 7795   0.238   0.598   3.456  0.5258 -0.6369 -0.3603
 1931SOL     OW 7796   0.196   0.843   3.336  0.0574  0.1234 -0.2232
 1931SOL    HW2 7797   0.263   0.863   3.401 -1.2014  0.3087  1.0327
 1931SOL    HW3 7798   0.113   0.861   3.380 -0.8598 -0.9430 -1.4654
 1931SOL    MW4 7799   0.194   0.848   3.350 -0.2297  0.0072 -0.2215
 1932SOL     OW 7800   4.470   0.919   3.493  0.3990 -0.0689  0.3494
 1932SOL    HW2 7801   4.456   0.917   3.587 -1.3741 -1.1552  0.1079
 1932SOL    HW3 7802   4.472   1.012   3.470  1.4460  0.2050  1.5237
 1932SOL    MW4 7803   4.468   0.931   3.502  0.3037 -0.1761  0.4723
 1933SOL     OW 7804   4.469   1.176   3.397  0.6490 -0.1865  0.2139
 1933SOL    HW2 7805   4.542   1.225   3.434  1.0068 -0.4311 -0.1684
 1933SOL    HW3 7806   4.488   1.171   3.303 -1.2018  2.0750 -0.3153
 1933SOL    MW4 7807   4.481   1.182   3.389  0.4516  0.0796  0.0939
 1934SOL     OW 7808   0.168   1.320   3.484 -0.1765  0.0602 -0.7931
 1934SOL    HW2 7809   0.243   1.274   3.446  1.3036  1.0734  0.7961
 1934SOL    HW3 7810   0.169   1.406   3.440 -0.3323  0.1253 -0.6684
 1934SOL    MW4 7811   0.178   1.326   3.473 -0.0018  0.2025 -0.5670
 1935SOL     OW 7812   0.223   1.575   3.344  0.3911  0.0147 -0.0528
 1935SOL    HW2 7813   0.293   1.634   3.373  1.5880 -0.7045 -1.4299
 1935SOL    HW3 7814   0.239   1.563   3.251  0.0790 -2.3647  0.1618
 1935SOL    MW4 7815   0.235   1.581   3.336  0.5079 -0.3941 -0.2062
 1936SOL     OW 7816   0.008   1.673   3.474  0.2584  0.3226  0.0596
 1936SOL    HW2 7817  -0.059   1.617   3.436  0.2711  0.4469 -0.1497
 1936SOL    HW3 7818   0.089   1.645   3.432  0.3338  0.1840  0.2988
 1936SOL    MW4 7819   0.010   1.662   3.463  0.2699  0.3208  0.0637
 1937SOL     OW 7820   4.430   1.916   3.377  0.0528 -0.2166  0.0077
 1937SOL    HW2 7821   4.465   1.831   3.406  0.0686  0.3379  1.6390
 1937SOL    HW3 7822   4.462   1.925   3.287  0.8967 -1.4769  0.1638
 1937SOL    MW4 7823   4.439   1.906   3.369  0.1664 -0.3098  0.2434
 1938SOL     OW 7824   0.191   2.048   3.466 -0.0877  0.2218  0.4871
 1938SOL    HW2 7825   0.184   2.034   3.561 -0.1610 -2.1755  0.1612
 1938SOL    HW3 7826   0.114   2.005   3.430  0.6047  0.0096 -0.7656
 1938SOL    MW4 7827   0.180   2.040   3.474 -0.0060 -0.1225  0.2785
 1939SOL     OW 7828   0.193   2.304   3.350  0.2614  0.2918  0.1400
 1939SOL    HW2 7829   0.120   2.347   3.394  2.1974  1.9846  1.8581
 1939SOL    HW3 7830   0.192   2.214   3.383 -1.5879  0.0321 -0.5815
 1939SOL    MW4 7831   0.184   2.298   3.360  0.2728  0.4809  0.2716
 1940SOL     OW 7832   4.467   2.468   3.466  0.2603  0.1947  0.1767
 1940SOL    HW2 7833   4.457   2.463   3.561  0.6397 -0.1340  0.1993
 1940SOL    HW3 7834   4.384   2.437   3.431  0.3641 -0.3234  0.3921
 1940SOL    MW4 7835   4.455   2.464   3.474  0.3238  0.0827  0.2084
 1941SOL     OW 7836   0.020   2.730   3.366 -0.3446  0.2722 -0.1548
 1941SOL    HW2 7837   0.111   2.759   3.372  0.1907 -1.0623 -1.4912
 1941SOL    HW3 7838   0.022   2.641   3.401 -1.1911  0.3494  0.0814
 1941SOL    MW4 7839   0.033   2.722   3.372 -0.3858  0.1063 -0.2999
 1942SOL     OW 7840   0.258   2.832   3.435 -0.1381 -0.0876  0.0482
 1942SOL    HW2 7841   0.337   2.781   3.415  0.2492 -0.3645  2.2074
 1942SOL    HW3 7842   0.275   2.918   3.396  0.8766 -0.4000 -0.2210
 1942SOL    MW4 7843   0.271   2.836   3.427  0.0469 -0.1655  0.2973
 1943SOL     OW 7844   0.251   3.098   3.362 -0.3564  0.2910 -0.4275
 1943SOL    HW2 7845   0.175   3.142   3.400 -0.5716  0.4326 -1.0160
 1943SOL    HW3 7846   0.232   3.093   3.268  0.2776  0.1612 -0.5555
 1943SOL    MW4 7847   0.239   3.103   3.354 -0.3011  0.2925 -0.5224
 1944SOL     OW 7848   0.037   3.245   3.452  0.1270  0.1843 -0.1068
 1944SOL    HW2 7849  -0.050   3.228   3.415  0.0757 -0.1922  0.1843
 1944SOL    HW3 7850   0.049   3.339   3.442 -0.0975  0.1614 -0.6202
 1944SOL    MW4 7851   0.027   3.255   3.446  0.0906  0.1316 -0.1361
 1945SOL     OW 7852   0.018   3.515   3.421 -0.1242 -0.3757  0.3706
 1945SOL    HW2 7853  -0.065   3.548   3.455  0.0401 -0.3207  0.7211
 1945SOL    HW3 7854   0.007   3.517   3.325 -0.6466 -0.6844  0.4200
 1945SOL    MW4 7855   0.006   3.520   3.413 -0.1714 -0.4091  0.4234
 1946SOL     OW 7856   0.261   3.608   3.476 -0.1810  0.1091  0.5474
 1946SOL    HW2 7857   0.269   3.608   3.571 -0.9888 -0.3244  0.6261
 1946SOL    HW3 7858   0.170   3.580   3.460 -0.2501  0.8052 -0.3283
 1946SOL    MW4 7859   0.250   3.604   3.486 -0.2967  0.1438  0.4420
 1947SOL     OW 7860   0.290   3.897   3.377  0.0854 -0.4283  0.7153
 1947SOL    HW2 7861   0.206   3.934   3.403 -0.4705 -0.8777 -0.3919
 1947SOL    HW3 7862   0.285   3.805   3.403  0.2344 -0.4583  0.6389
 1947SOL    MW4 7863   0.279   3.890   3.384  0.0317 -0.4914  0.5591
 1948SOL     OW 7864   0.054   4.021   3.484 -0.3748  0.2681  0.0798
 1948SOL    HW2 7865   0.046   4.003   3.578  0.7426 -1.9970 -0.2182
 1948SOL    HW3 7866   0.063   4.116   3.478  0.4948  0.3494  2.3537
 1948SOL    MW4 7867   0.054   4.031   3.496 -0.1126 -0.0200  0.3407
 1949SOL     OW 7868   0.062   4.289   3.377  0.1883 -0.0998  0.0914
 1949SOL    HW2 7869  -0.014   4.334   3.412  0.3569  0.4612 -0.2655
 1949SOL    HW3 7870   0.137   4.338   3.410  0.4122 -0.8499  0.7218
 1949SOL    MW4 7871   0.062   4.301   3.386  0.2401 -0.1249  0.1276
 1950SOL     OW 7872   0.293   4.425   3.498 -0.0606  0.4925  0.2770
 1950SOL    HW2 7873   0.271   4.401   3.588  2.1752 -0.4923  0.5845
 1950SOL    HW3 7874   0.367   4.370   3.476 -0.2509  1.1060 -2.0089
 1950SOL    MW4 7875   0.300   4.415   3.507  0.2092  0.4439  0.0160
 1951SOL     OW 7876   0.663   0.127   3.372  0.0066 -0.3478 -0.0236
 1951SOL    HW2 7877   0.714   0.069   3.428  1.2836 -0.2492 -1.0676
 1951SOL    HW3 7878   0.662   0.083   3.287  0.7104  0.9872 -0.7337
 1951SOL    MW4 7879   0.669   0.113   3.368  0.2679 -0.1586 -0.2551
 1952SOL     OW 7880   0.413   0.156   3.488 -0.1752 -0.5335  0.0866
 1952SOL    HW2 7881   0.422   0.128   3.579  0.0712 -1.3438 -0.1828
 1952SOL    HW3 7882   0.501   0.150   3.451  0.0218  1.2685  0.2004
 1952SOL    MW4 7883   0.425   0.151   3.495 -0.1166 -0.4027  0.0660
 1953SOL     OW 7884   0.407   0.395   3.363  0.1049 -0.0379 -0.0987
 1953SOL    HW2 7885   0.481   0.445   3.398  0.9618 -1.0268 -0.4497
 1953SOL    HW3 7886   0.406   0.314   3.415  0.5364 -0.9166 -1.4203
 1953SOL    MW4 7887   0.417   0.391   3.374  0.2749 -0.2843 -0.3195
 1954SOL     OW 7888   0.605   0.560   3.467  0.2547 -0.4872  0.0886
 1954SOL    HW2 7889   0.605   0.536   3.560  0.2243 -0.1259  0.1829
 1954SOL    HW3 7890   0.666   0.498   3.427  0.4238 -0.5173  0.3855
 1954SOL    MW4 7891   0.613   0.548   3.474  0.2730 -0.4435  0.1400
 1955SOL     OW 7892   0.601   0.810   3.359 -0.3151  0.1889 -0.5490
 1955SOL    HW2 7893   0.543   0.861   3.416  0.4336  1.3016 -0.7740
 1955SOL    HW3 7894   0.601   0.722   3.398 -1.3816  0.4244  0.0122
 1955SOL    MW4 7895   0.593   0.805   3.372 -0.3570  0.3668 -0.5045
 1956SOL     OW 7896   0.394   0.927   3.515 -0.1696 -0.2466 -0.4615
 1956SOL    HW2 7897   0.415   0.901   3.605  0.9356 -1.9897 -1.1969
 1956SOL    HW3 7898   0.406   1.022   3.515  0.2874 -0.2840  1.1200
 1956SOL    MW4 7899   0.399   0.936   3.527  0.0365 -0.4816 -0.3498
 1957SOL     OW 7900   0.418   1.202   3.385  0.7480 -0.1335  0.0036
 1957SOL    HW2 7901   0.497   1.253   3.400  1.0954 -0.5998 -0.2143
 1957SOL    HW3 7902   0.417   1.187   3.290  1.6379 -2.1232  0.3003
 1957SOL    MW4 7903   0.428   1.207   3.374  0.9113 -0.4575  0.0143
 1958SOL     OW 7904   0.665   1.301   3.454  0.3052  0.1480 -0.0759
 1958SOL    HW2 7905   0.731   1.254   3.403  0.0880 -1.0107  0.6966
 1958SOL    HW3 7906   0.662   1.388   3.414  1.6850 -0.0516 -0.6575
 1958SOL    MW4 7907   0.673   1.306   3.442  0.4585 -0.0312 -0.0510
 1959SOL     OW 7908   0.647   1.554   3.359 -0.1236 -0.2999 -0.2596
 1959SOL    HW2 7909   0.721   1.604   3.393 -0.1466  0.3924 -1.2180
 1959SOL    HW3 7910   0.570   1.598   3.394 -0.2245  1.7455 -2.9406
 1959SOL    MW4 7911   0.647   1.566   3.368 -0.1400  0.0613 -0.7398
 1960SOL     OW 7912   0.449   1.711   3.460  0.3417  0.3222 -0.3546
 1960SOL    HW2 7913   0.444   1.707   3.555 -1.4422  0.2701 -0.4276
 1960SOL    HW3 7914   0.457   1.804   3.440  1.8064  0.2486 -0.1151
 1960SOL    MW4 7915   0.449   1.723   3.470  0.2996  0.3057 -0.3326
 1961SOL     OW 7916   0.460   1.973   3.384  0.0233  0.2794  0.6162
 1961SOL    HW2 7917   0.382   2.011   3.425 -0.3399 -0.0382  0.2261
 1961SOL    HW3 7918   0.451   1.995   3.291  0.1254 -0.2280  0.4858
 1961SOL    MW4 7919   0.448   1.981   3.377 -0.0112  0.1706  0.5474
 1962SOL     OW 7920   0.705   2.073   3.481  0.4252 -0.0681  0.2604
 1962SOL    HW2 7921   0.685   2.087   3.573 -0.7571  0.2053 -0.0330
 1962SOL    HW3 7922   0.623   2.041   3.443  0.2414  1.9891 -1.1530
 1962SOL    MW4 7923   0.691   2.070   3.488  0.2449  0.2396  0.0355
 1963SOL     OW 7924   0.673   2.314   3.349  0.5014  0.5526 -0.2597
 1963SOL    HW2 7925   0.736   2.373   3.390 -1.1029  0.6788  2.1345
 1963SOL    HW3 7926   0.685   2.231   3.395 -0.7541  0.4519 -0.1122
 1963SOL    MW4 7927   0.683   2.311   3.361  0.1241  0.5560  0.0756
 1964SOL     OW 7928   0.436   2.419   3.480 -0.0884 -0.1045 -0.2182
 1964SOL    HW2 7929   0.510   2.371   3.442 -0.4291 -1.3125  0.5890
 1964SOL    HW3 7930   0.359   2.377   3.441 -0.3596  1.2749 -1.2082
 1964SOL    MW4 7931   0.436   2.407   3.470 -0.1692 -0.0820 -0.2422
 1965SOL     OW 7932   0.482   2.679   3.370 -0.1778  0.0662 -0.2671
 1965SOL    HW2 7933   0.461   2.592   3.404  2.9235 -0.2631  0.9339
 1965SOL    HW3 7934   0.478   2.669   3.275 -1.2099 -1.0051 -0.1279
 1965SOL    MW4 7935   0.479   2.666   3.362  0.0952 -0.1187 -0.0901
 1966SOL     OW 7936   0.674   2.841   3.444  0.2908  0.3034 -0.4772
 1966SOL    HW2 7937   0.752   2.787   3.429  0.7805  0.3881  1.5607
 1966SOL    HW3 7938   0.601   2.786   3.417  0.8571 -1.0421  0.6626
 1966SOL    MW4 7939   0.674   2.827   3.439  0.4301  0.1373 -0.0579
 1967SOL     OW 7940   0.728   3.083   3.319 -0.0576  0.4151 -0.1357
 1967SOL    HW2 7941   0.654   3.140   3.343  0.4381  0.6568  0.8541
 1967SOL    HW3 7942   0.709   3.000   3.362 -0.6841 -0.1139 -1.4232
 1967SOL    MW4 7943   0.716   3.080   3.328 -0.0749  0.3772 -0.1748
 1968SOL     OW 7944   0.476   3.234   3.430  0.4592 -0.1211  0.6815
 1968SOL    HW2 7945   0.467   3.237   3.525 -1.4410  0.5950  0.5142
 1968SOL    HW3 7946   0.393   3.196   3.399  0.2997  1.3419 -0.7768
 1968SOL    MW4 7947   0.464   3.229   3.438  0.1874  0.1662  0.4671
 1969SOL     OW 7948   0.485   3.512   3.345  0.4484  0.0275 -0.3161
 1969SOL    HW2 7949   0.488   3.425   3.384 -1.4002  0.1677  0.1448
 1969SOL    HW3 7950   0.400   3.547   3.370  0.8728  1.6744 -1.1354
 1969SOL    MW4 7951   0.474   3.505   3.353  0.2605  0.2635 -0.3633
 1970SOL     OW 7952   0.718   3.599   3.486  0.4311  0.3048 -0.0991
 1970SOL    HW2 7953   0.800   3.556   3.462  0.2497 -1.3811  2.1323
 1970SOL    HW3 7954   0.652   3.556   3.431  0.6138 -0.4610  0.2802
 1970SOL    MW4 7955   0.720   3.587   3.475  0.4313 -0.0188  0.2453
 1971SOL     OW 7956   0.696   3.854   3.363  0.0820  0.1511 -0.0479
 1971SOL    HW2 7957   0.638   3.899   3.424 -0.5465 -2.0014  1.0205
 1971SOL    HW3 7958   0.709   3.767   3.403  2.2291 -0.1797 -1.3866
 1971SOL    MW4 7959   0.690   3.848   3.377  0.2824 -0.1764 -0.0837
 1972SOL     OW 7960   0.508   3.989   3.513 -0.8096  0.0967 -0.0788
 1972SOL    HW2 7961   0.515   4.082   3.490 -1.8561 -0.1659 -1.5419
 1972SOL    HW3 7962   0.445   3.954   3.450 -1.4787 -1.3120  1.3436
 1972SOL    MW4 7963   0.500   3.997   3.501 -1.0360 -0.1240 -0.0839
 1973SOL     OW 7964   0.504   4.284   3.434 -0.3443  0.4894  0.0711
 1973SOL    HW2 7965   0.582   4.338   3.448  0.1731  0.2165 -1.6676
 1973SOL    HW3 7966   0.498   4.274   3.339 -1.5267 -0.9231  0.2718
 1973SOL    MW4 7967   0.514   4.290   3.424 -0.4321  0.2670 -0.1318
 1974SOL     OW 7968   0.734   4.387   3.505  0.1065  0.1044 -0.0470
 1974SOL    HW2 7969   0.797   4.333   3.457 -0.4563  0.3964 -1.1252
 1974SOL    HW3 7970   0.777   4.472   3.514 -0.3167  0.4569 -1.2244
 1974SOL    MW4 7971   0.748   4.391   3.500 -0.0236  0.1893 -0.3448
 1975SOL     OW 7972   1.084   4.655   3.379 -0.2009  0.4005  0.0796
 1975SOL    HW2 7973   1.163   4.706   3.398  0.7138 -0.4445 -1.3342
 1975SOL    HW3 7974   1.075   4.659   3.283 -2.2602  1.0422  0.2795
 1975SOL    MW4 7975   1.093   4.662   3.369 -0.3518  0.3734 -0.0803
 1976SOL     OW 7976   0.848   4.656   3.540 -0.2339  0.4551  0.0396
 1976SOL    HW2 7977   0.872   4.680   3.629  0.7197  0.8267 -0.3096
 1976SOL    HW3 7978   0.928   4.671   3.489 -0.5760 -0.4009 -0.7534
 1976SOL    MW4 7979   0.862   4.661   3.545 -0.1532  0.3910 -0.1111
 1977SOL     OW 7980   0.798   0.381   3.359  0.1461 -0.4899 -0.5030
 1977SOL    HW2 7981   0.878   0.395   3.409  0.2374 -0.6932 -0.5896
 1977SOL    HW3 7982   0.767   0.294   3.386 -0.0460 -0.4124 -0.4690
 1977SOL    MW4 7983   0.804   0.372   3.369  0.1328 -0.5065 -0.5097
 1978SOL     OW 7984   1.042   0.465   3.467  0.5061  0.6049  0.2805
 1978SOL    HW2 7985   1.054   0.474   3.561 -0.0346  0.2263  0.3826
 1978SOL    HW3 7986   1.041   0.555   3.434 -0.9801  0.7973  0.8363
 1978SOL    MW4 7987   1.044   0.478   3.475  0.2387  0.5804  0.3672
 1979SOL     OW 7988   1.043   0.755   3.383  0.2610  0.0435  0.0531
 1979SOL    HW2 7989   1.120   0.806   3.408 -1.4246  1.4832  2.5174
 1979SOL    HW3 7990   0.971   0.793   3.433 -1.4641 -3.5061  0.4614
 1979SOL    MW4 7991   1.044   0.767   3.393 -0.1888 -0.2349  0.4320
 1980SOL     OW 7992   0.802   0.938   3.532 -0.1310 -0.2511 -0.0761
 1980SOL    HW2 7993   0.820   1.025   3.498 -2.0211  0.7938  1.4968
 1980SOL    HW3 7994   0.754   0.894   3.462  0.2813  0.2052 -0.6393
 1980SOL    MW4 7995   0.798   0.944   3.518 -0.3259 -0.0531  0.0570
 1981SOL     OW 7996   0.885   1.161   3.373  0.1350  0.0679 -0.2913
 1981SOL    HW2 7997   0.963   1.205   3.407 -0.7859  1.3768  0.1774
 1981SOL    HW3 7998   0.902   1.152   3.279  0.6035  0.8798 -0.2875
 1981SOL    MW4 7999   0.898   1.166   3.365  0.0753  0.3475 -0.2291
 1982SOL     OW 8000   1.111   1.261   3.498 -0.0433 -0.1162  0.0968
 1982SOL    HW2 8001   1.102   1.271   3.592  0.1267 -0.5311  0.1553
 1982SOL    HW3 8002   1.098   1.349   3.463  0.8902  0.2148  0.5772
 1982SOL    MW4 8003   1.108   1.274   3.506  0.1023 -0.1273  0.1678
 1983SOL     OW 8004   1.079   1.501   3.355  0.0775 -0.1486 -0.0371
 1983SOL    HW2 8005   1.149   1.562   3.381  0.5199 -0.7850  0.3030
 1983SOL    HW3 8006   1.085   1.498   3.259  0.3729 -0.0276 -0.0259
 1983SOL    MW4 8007   1.089   1.509   3.346  0.1748 -0.2167  0.0095
 1984SOL     OW 8008   0.864   1.660   3.449 -0.1498  0.0227  0.0060
 1984SOL    HW2 8009   0.893   1.746   3.417 -0.8001 -0.4516 -1.8984
 1984SOL    HW3 8010   0.931   1.599   3.418 -0.8021 -0.4455 -0.5032
 1984SOL    MW4 8011   0.877   1.663   3.440 -0.3216 -0.1014 -0.3121
 1985SOL     OW 8012   0.906   1.929   3.369 -0.1573 -0.2435 -0.2064
 1985SOL    HW2 8013   0.981   1.952   3.423  0.2916 -1.1961 -0.4099
 1985SOL    HW3 8014   0.833   1.977   3.408  0.4829  0.4114  0.2076
 1985SOL    MW4 8015   0.906   1.938   3.381 -0.0136 -0.2828 -0.1788
 1986SOL     OW 8016   1.123   2.075   3.512  0.0962  0.4453  0.0147
 1986SOL    HW2 8017   1.185   2.028   3.456  0.0797  1.5640 -0.9648
 1986SOL    HW3 8018   1.118   2.163   3.474  0.1314  1.2425  1.8206
 1986SOL    MW4 8019   1.130   2.080   3.499  0.0987  0.6981  0.1235
 1987SOL     OW 8020   1.124   2.335   3.424 -0.2238 -0.0333 -0.0350
 1987SOL    HW2 8021   1.205   2.380   3.449  1.2192 -2.6934  0.3558
 1987SOL    HW3 8022   1.111   2.358   3.332  0.3205  1.4038  0.2464
 1987SOL    MW4 8023   1.133   2.344   3.415  0.0384 -0.1945  0.0536
 1988SOL     OW 8024   0.881   2.456   3.467 -0.5295  0.0746 -0.4608
 1988SOL    HW2 8025   0.872   2.482   3.558 -2.7070 -0.3082 -0.5367
 1988SOL    HW3 8026   0.963   2.406   3.464  0.1965  1.1428  1.0153
 1988SOL    MW4 8027   0.891   2.453   3.478 -0.7210  0.1650 -0.2763
 1989SOL     OW 8028   0.908   2.739   3.382 -0.1654  0.3243  0.3059
 1989SOL    HW2 8029   0.996   2.771   3.405  0.5154 -0.7067 -0.7941
 1989SOL    HW3 8030   0.910   2.647   3.409 -0.7656  0.1919 -0.1122
 1989SOL    MW4 8031   0.920   2.731   3.389 -0.1547  0.1712  0.1056
 1990SOL     OW 8032   1.151   2.832   3.455 -0.2854 -0.4516  0.1448
 1990SOL    HW2 8033   1.160   2.843   3.550  1.6084  0.8779 -0.1658
 1990SOL    HW3 8034   1.225   2.776   3.430 -0.0089  0.2836 -0.7148
 1990SOL    MW4 8035   1.162   2.826   3.464  0.0010 -0.1791 -0.0095
 1991SOL     OW 8036   1.172   3.097   3.349 -0.2804  0.5633 -0.7172
 1991SOL    HW2 8037   1.178   3.007   3.381 -0.3820  0.7443 -0.1723
 1991SOL    HW3 8038   1.143   3.089   3.258 -1.9423  0.1003 -0.1612
 1991SOL    MW4 8039   1.169   3.084   3.341 -0.5131  0.5262 -0.5717
 1992SOL     OW 8040   0.929   3.229   3.447  0.4046  0.0858  0.4813
 1992SOL    HW2 8041   0.998   3.173   3.414  0.6932  1.0166 -0.5225
 1992SOL    HW3 8042   0.849   3.194   3.408  0.4086 -0.4209  0.9107
 1992SOL    MW4 8043   0.927   3.217   3.438  0.4432  0.1416  0.4053
 1993SOL     OW 8044   0.950   3.485   3.381  0.1951 -0.0510 -0.0713
 1993SOL    HW2 8045   0.946   3.391   3.399 -2.4518  0.2469  1.1796
 1993SOL    HW3 8046   0.944   3.491   3.286 -0.0937 -1.1486 -0.1319
 1993SOL    MW4 8047   0.948   3.473   3.371 -0.1922 -0.1564  0.0858
 1994SOL     OW 8048   1.138   3.658   3.495  0.0216  0.0864 -0.1370
 1994SOL    HW2 8049   1.157   3.651   3.588  2.7399 -0.6906 -0.6908
 1994SOL    HW3 8050   1.074   3.588   3.478  0.6392 -0.7369  0.8799
 1994SOL    MW4 8051   1.132   3.648   3.505  0.4617 -0.1249 -0.0758
 1995SOL     OW 8052   1.136   3.904   3.361  0.5181 -1.0281 -0.4734
 1995SOL    HW2 8053   1.209   3.953   3.400  1.2576 -1.4091 -1.3561
 1995SOL    HW3 8054   1.135   3.821   3.408 -0.6822 -0.2169  0.9673
 1995SOL    MW4 8055   1.146   3.900   3.372  0.4573 -0.9713 -0.3998
 1996SOL     OW 8056   0.905   4.019   3.478  0.5796  0.2187 -0.5652
 1996SOL    HW2 8057   0.984   3.979   3.441 -0.0607  0.9677 -2.7894
 1996SOL    HW3 8058   0.833   3.963   3.448  0.0521  0.7462 -0.3053
 1996SOL    MW4 8059   0.906   4.006   3.469  0.4256  0.3872 -0.8245
 1997SOL     OW 8060   0.920   4.259   3.373  0.3273 -0.0980 -0.2243
 1997SOL    HW2 8061   0.904   4.167   3.395 -1.1555 -0.0096 -0.9071
 1997SOL    HW3 8062   0.936   4.259   3.279 -1.4052  0.5470 -0.5381
 1997SOL    MW4 8063   0.920   4.247   3.364 -0.0970 -0.0010 -0.3557
 1998SOL     OW 8064   1.147   4.384   3.460  0.2334 -0.1014 -0.2065
 1998SOL    HW2 8065   1.073   4.338   3.420 -0.3135  1.2026 -0.7234
 1998SOL    HW3 8066   1.126   4.477   3.449  1.2330  0.2808  0.9814
 1998SOL    MW4 8067   1.134   4.390   3.453  0.2931  0.1216 -0.1180
 1999SOL     OW 8068   1.566   4.622   3.378 -0.0241  0.0362 -0.4892
 1999SOL    HW2 8069   1.577   4.540   3.426 -1.3063 -0.8556 -1.6456
 1999SOL    HW3 8070   1.490   4.664   3.419  0.7434  0.7478  0.2207
 1999SOL    MW4 8071   1.557   4.617   3.390 -0.0919  0.0124 -0.5479
 2000SOL     OW 8072   1.323   0.123   3.428 -0.0897 -0.0767 -0.0889
 2000SOL    HW2 8073   1.333   0.122   3.523 -1.6938 -0.8707  0.0701
 2000SOL    HW3 8074   1.298   0.213   3.407 -0.3863 -0.0740  0.2921
 2000SOL    MW4 8075   1.321   0.135   3.438 -0.3405 -0.1811 -0.0176
 2001SOL     OW 8076   1.295   0.403   3.331 -0.0156 -0.1281  0.2351
 2001SOL    HW2 8077   1.345   0.468   3.381  0.1599  0.4761 -0.6996
 2001SOL    HW3 8078   1.208   0.405   3.370  1.0450 -2.3137  2.9031
 2001SOL    MW4 8079   1.290   0.412   3.343  0.1473 -0.3368  0.4637
 2002SOL     OW 8080   1.489   0.550   3.483  0.6051  0.7013 -0.0840
 2002SOL    HW2 8081   1.493   0.532   3.577  0.0856  0.3892 -0.1243
 2002SOL    HW3 8082   1.562   0.499   3.446  0.0281 -0.1921 -0.0098
 2002SOL    MW4 8083   1.499   0.541   3.490  0.4605  0.5422 -0.0796
 2003SOL     OW 8084   1.519   0.802   3.362  0.1724 -0.0461 -0.1261
 2003SOL    HW2 8085   1.432   0.841   3.370 -0.3951 -1.4199  0.5863
 2003SOL    HW3 8086   1.508   0.712   3.394  1.9361 -0.1153  0.3386
 2003SOL    MW4 8087   1.506   0.795   3.367  0.3302 -0.2365  0.0293
 2004SOL     OW 8088   1.279   0.914   3.443  0.0913 -0.3481  0.3486
 2004SOL    HW2 8089   1.281   0.912   3.539  1.1510 -0.5382  0.3205
 2004SOL    HW3 8090   1.292   1.006   3.421 -1.4540 -0.0868  0.4023
 2004SOL    MW4 8091   1.281   0.926   3.453  0.0273 -0.3387  0.3524
 2005SOL     OW 8092   1.348   1.171   3.391  0.1210  0.2948  0.1104
 2005SOL    HW2 8093   1.416   1.232   3.419  0.2774 -0.1639  0.7242
 2005SOL    HW3 8094   1.269   1.202   3.434 -0.2145  1.2727 -1.1977
 2005SOL    MW4 8095   1.347   1.183   3.400  0.0974  0.3632  0.0188
 2006SOL     OW 8096   1.543   1.332   3.482 -0.5226  0.2751 -0.5294
 2006SOL    HW2 8097   1.555   1.307   3.573  0.2096 -0.1662 -0.7411
 2006SOL    HW3 8098   1.619   1.295   3.437 -0.8699  0.5070 -1.3127
 2006SOL    MW4 8099   1.555   1.324   3.488 -0.4718  0.2474 -0.6607
 2007SOL     OW 8100   1.488   1.580   3.335  0.5251  0.1907 -0.3715
 2007SOL    HW2 8101   1.480   1.506   3.395  0.7833  0.0424 -0.5150
 2007SOL    HW3 8102   1.505   1.539   3.250 -1.0808  0.3457 -0.7868
 2007SOL    MW4 8103   1.489   1.565   3.332  0.3471  0.1917 -0.4454
 2008SOL     OW 8104   1.255   1.701   3.462 -0.1444  0.2417  0.0732
 2008SOL    HW2 8105   1.263   1.711   3.557  0.0392  1.2067 -0.0376
 2008SOL    HW3 8106   1.342   1.673   3.433 -0.0221  0.5802  0.1133
 2008SOL    MW4 8107   1.267   1.698   3.471 -0.1040  0.4135  0.0637
 2009SOL     OW 8108   1.319   1.959   3.354 -0.1633  0.4078 -0.4754
 2009SOL    HW2 8109   1.393   2.004   3.396 -0.5297 -0.2466  0.9034
 2009SOL    HW3 8110   1.317   1.872   3.395 -1.1044  0.0725 -1.2041
 2009SOL    MW4 8111   1.329   1.953   3.365 -0.3357  0.2772 -0.3896
 2010SOL     OW 8112   1.529   2.091   3.468 -0.2393 -0.1439  0.0872
 2010SOL    HW2 8113   1.611   2.047   3.442 -1.0872 -0.6660 -1.7858
 2010SOL    HW3 8114   1.551   2.184   3.468  0.2857 -0.2562 -0.7298
 2010SOL    MW4 8115   1.543   2.097   3.464 -0.2818 -0.2277 -0.2675
 2011SOL     OW 8116   1.591   2.353   3.392  0.4311  0.0396 -0.2418
 2011SOL    HW2 8117   1.504   2.382   3.417 -0.0573 -2.1911  0.7438
 2011SOL    HW3 8118   1.582   2.329   3.300  0.4600  1.4547 -0.6287
 2011SOL    MW4 8119   1.579   2.354   3.383  0.3704 -0.0684 -0.1628
 2012SOL     OW 8120   1.353   2.456   3.498  0.0266 -0.1628 -0.1134
 2012SOL    HW2 8121   1.341   2.468   3.593  0.9987  0.1462 -0.0285
 2012SOL    HW3 8122   1.369   2.545   3.465 -0.7692 -0.2097 -0.6366
 2012SOL    MW4 8123   1.353   2.470   3.506  0.0499 -0.1280 -0.1712
 2013SOL     OW 8124   1.379   2.698   3.351  0.1456  0.4134  0.2473
 2013SOL    HW2 8125   1.459   2.734   3.388 -0.0668  0.3882  0.7411
 2013SOL    HW3 8126   1.385   2.716   3.257  0.2053  1.4256  0.4369
 2013SOL    MW4 8127   1.390   2.705   3.344  0.1255  0.5436  0.3374
 2014SOL     OW 8128   1.569   2.853   3.451  0.3695 -0.4700  0.1709
 2014SOL    HW2 8129   1.661   2.833   3.435  0.7313  1.2637 -0.0542
 2014SOL    HW3 8130   1.560   2.946   3.430 -1.0033 -0.1383  1.9880
 2014SOL    MW4 8131   1.580   2.863   3.446  0.2360 -0.1972  0.3810
 2015SOL     OW 8132   1.572   3.125   3.397  0.0829  0.3834 -0.1185
 2015SOL    HW2 8133   1.652   3.144   3.446  0.0092  0.8569 -0.1770
 2015SOL    HW3 8134   1.509   3.190   3.429 -0.3676 -0.1813  0.1490
 2015SOL    MW4 8135   1.574   3.136   3.408  0.0138  0.3712 -0.0908
 2016SOL     OW 8136   1.363   3.256   3.511  0.1132  0.0422  0.1661
 2016SOL    HW2 8137   1.339   3.237   3.601 -1.1894 -1.4927 -0.4880
 2016SOL    HW3 8138   1.302   3.205   3.458 -0.0024  1.9437 -1.6032
 2016SOL    MW4 8139   1.352   3.247   3.516 -0.0740  0.0904 -0.1535
 2017SOL     OW 8140   1.347   3.509   3.391 -0.1574  0.0278 -0.4729
 2017SOL    HW2 8141   1.337   3.424   3.435  0.2724 -0.6779 -1.7015
 2017SOL    HW3 8142   1.279   3.564   3.430 -0.0825 -0.7036  0.7436
 2017SOL    MW4 8143   1.336   3.505   3.402 -0.0907 -0.1619 -0.4745
 2018SOL     OW 8144   1.604   3.581   3.486  0.3764 -0.6125  0.0230
 2018SOL    HW2 8145   1.597   3.597   3.581 -0.5749 -1.7809  0.1535
 2018SOL    HW3 8146   1.517   3.550   3.461  0.0506  1.4655 -1.5967
 2018SOL    MW4 8147   1.591   3.579   3.495  0.2078 -0.4923 -0.1736
 2019SOL     OW 8148   1.592   3.847   3.435  0.1276  0.3122  0.3848
 2019SOL    HW2 8149   1.594   3.758   3.469 -2.1781  0.3189  0.5942
 2019SOL    HW3 8150   1.597   3.837   3.340 -1.5608 -0.1329  0.3319
 2019SOL    MW4 8151   1.593   3.834   3.427 -0.3994  0.2544  0.4055
 2020SOL     OW 8152   1.366   4.025   3.479 -0.3886 -0.3227 -0.3443
 2020SOL    HW2 8153   1.387   4.116   3.458 -0.6715 -0.1504  0.1081
 2020SOL    HW3 8154   1.447   3.977   3.463  0.2261  0.2701  0.9747
 2020SOL    MW4 8155   1.379   4.030   3.474 -0.3448 -0.2213 -0.1104
 2021SOL     OW 8156   1.391   4.290   3.375  0.3063 -0.1142  0.2765
 2021SOL    HW2 8157   1.309   4.333   3.398 -0.0387 -0.0777 -1.0214
 2021SOL    HW3 8158   1.377   4.256   3.287  1.4799 -0.6259  0.2768
 2021SOL    MW4 8159   1.378   4.291   3.367  0.4156 -0.1769  0.1054
 2022SOL     OW 8160   1.624   4.373   3.495  0.2324 -0.0366 -0.5966
 2022SOL    HW2 8161   1.701   4.322   3.472 -0.0512 -1.2345  1.0092
 2022SOL    HW3 8162   1.552   4.329   3.449  0.3019  0.1930 -0.9215
 2022SOL    MW4 8163   1.624   4.360   3.486  0.2043 -0.1640 -0.4277
 2023SOL     OW 8164   2.013   4.662   3.375 -0.2240 -0.0928 -0.4357
 2023SOL    HW2 8165   2.092   4.709   3.401  0.1807 -0.5336 -0.8554
 2023SOL    HW3 8166   1.942   4.711   3.416  0.2553  0.3682 -0.1391
 2023SOL    MW4 8167   2.014   4.675   3.383 -0.1073 -0.0901 -0.4518
 2024SOL     OW 8168   1.785   0.138   3.459  0.4006  0.3207  0.0536
 2024SOL    HW2 8169   1.779   0.126   3.554  1.7778  1.8379  0.3527
 2024SOL    HW3 8170   1.711   0.088   3.424 -1.0648  1.0331  2.0223
 2024SOL    MW4 8171   1.775   0.130   3.467  0.3890  0.6149  0.3529
 2025SOL     OW 8172   1.715   0.399   3.415  0.1978 -0.1897 -0.2518
 2025SOL    HW2 8173   1.740   0.315   3.454  2.3095  0.6676  0.2608
 2025SOL    HW3 8174   1.741   0.392   3.324  2.1083  0.5807  0.2092
 2025SOL    MW4 8175   1.722   0.387   3.408  0.7285  0.0250 -0.1235
 2026SOL     OW 8176   1.976   0.485   3.474 -0.0348  0.3084 -0.2010
 2026SOL    HW2 8177   1.977   0.581   3.473 -0.4617  0.3134 -1.6365
 2026SOL    HW3 8178   1.890   0.462   3.440  0.6785 -0.5818 -1.4347
 2026SOL    MW4 8179   1.965   0.495   3.469  0.0031  0.1917 -0.5531
 2027SOL     OW 8180   1.976   0.754   3.424 -0.1437 -0.2528  0.1390
 2027SOL    HW2 8181   2.050   0.801   3.462 -0.0103 -0.6279  0.3462
 2027SOL    HW3 8182   1.982   0.771   3.330 -1.3625  1.9434  0.4350
 2027SOL    MW4 8183   1.986   0.762   3.416 -0.2869 -0.0126  0.2053
 2028SOL     OW 8184   1.749   0.932   3.451  0.0448 -0.6658  0.1896
 2028SOL    HW2 8185   1.813   0.861   3.441 -0.9608 -1.5167 -0.3212
 2028SOL    HW3 8186   1.664   0.889   3.439 -0.5268  0.8305 -1.2422
 2028SOL    MW4 8187   1.746   0.917   3.448 -0.1633 -0.5806 -0.0670
 2029SOL     OW 8188   1.772   1.185   3.382  0.0850 -0.6113 -0.0460
 2029SOL    HW2 8189   1.856   1.218   3.414  0.0783 -0.6899  0.0520
 2029SOL    HW3 8190   1.766   1.096   3.417  0.7500 -1.2351 -1.4797
 2029SOL    MW4 8191   1.783   1.178   3.390  0.1719 -0.7039 -0.2222
 2030SOL     OW 8192   1.998   1.277   3.497 -0.0088  0.3402 -0.0907
 2030SOL    HW2 8193   1.985   1.287   3.591  0.4780 -0.1665  0.0261
 2030SOL    HW3 8194   2.008   1.367   3.465 -1.3904  0.6051  0.1601
 2030SOL    MW4 8195   1.998   1.290   3.505 -0.1270  0.3083 -0.0420
 2031SOL     OW 8196   1.955   1.529   3.397 -0.1996 -0.2043 -0.1436
 2031SOL    HW2 8197   2.024   1.582   3.438  1.2990  0.1309 -2.9302
 2031SOL    HW3 8198   1.875   1.578   3.414  0.7315  1.2761  0.1369
 2031SOL    MW4 8199   1.954   1.543   3.404  0.1210  0.0353 -0.4742
 2032SOL     OW 8200   1.731   1.685   3.455 -0.3507  0.0978  0.0417
 2032SOL    HW2 8201   1.748   1.778   3.439  1.0386 -0.0303  0.7130
 2032SOL    HW3 8202   1.656   1.664   3.399  0.3137  1.2456 -1.3022
 2032SOL    MW4 8203   1.724   1.694   3.445 -0.0798  0.2323 -0.0470
 2033SOL     OW 8204   1.772   1.930   3.360  0.3944 -0.7545 -0.3443
 2033SOL    HW2 8205   1.847   1.986   3.378 -0.1291  0.0592 -0.6581
 2033SOL    HW3 8206   1.763   1.931   3.264 -1.3040  0.8866 -0.1997
 2033SOL    MW4 8207   1.781   1.937   3.350  0.1010 -0.4308 -0.3669
 2034SOL     OW 8208   1.973   2.085   3.504 -0.0198 -0.5345  0.1786
 2034SOL    HW2 8209   1.979   2.054   3.595  1.4789 -0.1233  0.2220
 2034SOL    HW3 8210   1.968   2.181   3.512  0.4424 -0.4806 -0.1919
 2034SOL    MW4 8211   1.973   2.094   3.517  0.2388 -0.4730  0.1354
 2035SOL     OW 8212   2.015   2.349   3.413 -0.4645  0.0794  0.7549
 2035SOL    HW2 8213   2.096   2.395   3.434  0.4164 -1.1053  0.0397
 2035SOL    HW3 8214   2.020   2.333   3.319 -0.6917 -1.5170  0.9910
 2035SOL    MW4 8215   2.026   2.353   3.403 -0.3781 -0.2875  0.6917
 2036SOL     OW 8216   1.796   2.500   3.522 -0.4684  0.2933  0.0021
 2036SOL    HW2 8217   1.873   2.454   3.488 -0.4595  0.4767 -0.2215
 2036SOL    HW3 8218   1.722   2.461   3.476 -0.4667  0.4629 -0.1416
 2036SOL    MW4 8219   1.796   2.488   3.512 -0.4671  0.3397 -0.0465
 2037SOL     OW 8220   1.804   2.742   3.396  0.0295 -0.1340  0.0202
 2037SOL    HW2 8221   1.892   2.780   3.403  0.7943 -1.5973 -1.2511
 2037SOL    HW3 8222   1.810   2.658   3.442 -0.5064 -0.5402 -0.6323
 2037SOL    MW4 8223   1.816   2.736   3.403  0.0597 -0.3808 -0.2334
 2038SOL     OW 8224   2.057   2.835   3.439  0.0134  0.4408  0.3731
 2038SOL    HW2 8225   2.055   2.833   3.535 -0.4734 -0.5010  0.3553
 2038SOL    HW3 8226   2.059   2.928   3.417  0.8020  0.6577  1.3060
 2038SOL    MW4 8227   2.057   2.847   3.449  0.0534  0.3452  0.4935
 2039SOL     OW 8228   2.036   3.094   3.368  0.0033 -0.1926 -0.0229
 2039SOL    HW2 8229   2.115   3.140   3.397  0.7425  0.0399 -2.3189
 2039SOL    HW3 8230   1.965   3.132   3.421  1.1641  0.8664  0.7912
 2039SOL    MW4 8231   2.037   3.105   3.379  0.2542 -0.0222 -0.2184
 2040SOL     OW 8232   1.826   3.218   3.500 -0.0326 -0.1057  0.0499
 2040SOL    HW2 8233   1.818   3.229   3.595  1.8403  0.8408  0.1052
 2040SOL    HW3 8234   1.830   3.307   3.465  0.5973 -0.4532 -0.7907
 2040SOL    MW4 8235   1.825   3.231   3.508  0.2975 -0.0267 -0.0536
 2041SOL     OW 8236   1.841   3.481   3.389 -0.0009  0.1324  0.3237
 2041SOL    HW2 8237   1.770   3.532   3.428  0.1758  0.2126  0.5369
 2041SOL    HW3 8238   1.825   3.487   3.294  0.1438  0.7542  0.3383
 2041SOL    MW4 8239   1.829   3.488   3.381  0.0415  0.2251  0.3536
 2042SOL     OW 8240   2.080   3.585   3.479  0.1492 -0.0017 -0.4195
 2042SOL    HW2 8241   2.146   3.531   3.433 -1.0096 -2.7537  1.0413
 2042SOL    HW3 8242   1.997   3.557   3.441 -0.4904  0.6836  0.4822
 2042SOL    MW4 8243   2.078   3.574   3.468 -0.0885 -0.2744 -0.1078
 2043SOL     OW 8244   2.050   3.834   3.374  0.2092  0.2168 -0.2030
 2043SOL    HW2 8245   1.969   3.869   3.412 -0.2421  0.5255 -1.4195
 2043SOL    HW3 8246   2.054   3.744   3.405  0.2782  0.6886  1.2318
 2043SOL    MW4 8247   2.040   3.827   3.383  0.1588  0.3197 -0.1743
 2044SOL     OW 8248   1.845   3.991   3.495  0.1840 -0.2241  0.0275
 2044SOL    HW2 8249   1.853   4.013   3.588 -0.7724  0.6562 -0.0807
 2044SOL    HW3 8250   1.753   3.964   3.485 -0.0819  0.9480 -0.8933
 2044SOL    MW4 8251   1.834   3.990   3.506  0.0228  0.0465 -0.1082
 2045SOL     OW 8252   1.844   4.244   3.393  0.1297  0.0578 -0.2738
 2045SOL    HW2 8253   1.846   4.150   3.409  0.8546 -0.0080 -0.7709
 2045SOL    HW3 8254   1.826   4.252   3.300  0.4780  0.4134 -0.3097
 2045SOL    MW4 8255   1.842   4.232   3.383  0.2713  0.0958 -0.3443
 2046SOL     OW 8256   2.060   4.389   3.464  0.0088 -0.1942 -0.5465
 2046SOL    HW2 8257   1.987   4.329   3.451  0.1427 -0.1115 -1.7206
 2046SOL    HW3 8258   2.032   4.471   3.424 -0.1912  0.5576  1.0943
 2046SOL    MW4 8259   2.047   4.392   3.457  0.0002 -0.0839 -0.4852
 2047SOL     OW 8260   2.517   4.657   3.361  0.5416 -0.1535  0.2135
 2047SOL    HW2 8261   2.506   4.562   3.369  0.3316 -0.3481 -2.1462
 2047SOL    HW3 8262   2.534   4.671   3.268 -0.5157  2.2319  0.3604
 2047SOL    MW4 8263   2.518   4.646   3.350  0.3743  0.1354 -0.0782
 2048SOL     OW 8264   2.276   0.103   3.464 -0.0301  0.1510  0.2927
 2048SOL    HW2 8265   2.274   0.187   3.420  0.2872  0.7337  1.3703
 2048SOL    HW3 8266   2.357   0.061   3.435  0.5953  0.8868  0.9835
 2048SOL    MW4 8267   2.286   0.108   3.455  0.0944  0.3250  0.5260
 2049SOL     OW 8268   2.233   0.370   3.372 -0.1902 -0.0714  0.5107
 2049SOL    HW2 8269   2.299   0.429   3.407 -0.8809  1.0173  0.0167
 2049SOL    HW3 8270   2.150   0.404   3.404 -0.5583 -1.1004  0.6721
 2049SOL    MW4 8271   2.231   0.382   3.381 -0.3297 -0.0636  0.4668
 2050SOL     OW 8272   2.440   0.506   3.473 -0.6888 -0.2181  0.0977
 2050SOL    HW2 8273   2.501   0.471   3.408 -1.7549 -0.9081 -0.5412
 2050SOL    HW3 8274   2.429   0.598   3.449 -1.0096 -0.4496 -0.6341
 2050SOL    MW4 8275   2.447   0.514   3.461 -0.8717 -0.3396 -0.0832
 2051SOL     OW 8276   2.424   0.765   3.394 -0.4096  0.0563  0.3969
 2051SOL    HW2 8277   2.501   0.813   3.424  0.4092 -0.4743 -0.8168
 2051SOL    HW3 8278   2.427   0.770   3.298 -0.3433 -2.2943  0.2304
 2051SOL    MW4 8279   2.434   0.772   3.385 -0.2930 -0.3237  0.2148
 2052SOL     OW 8280   2.210   0.907   3.492 -0.1337  0.1186 -0.3187
 2052SOL    HW2 8281   2.218   0.989   3.444  0.8931  0.0840 -0.2156
 2052SOL    HW3 8282   2.276   0.850   3.453 -0.4790 -0.4847 -0.0281
 2052SOL    MW4 8283   2.220   0.910   3.480 -0.0439  0.0345 -0.2668
 2053SOL     OW 8284   2.211   1.168   3.347 -0.0622  0.8349  0.1066
 2053SOL    HW2 8285   2.290   1.203   3.388 -0.6260  1.4549  0.6692
 2053SOL    HW3 8286   2.139   1.206   3.398 -0.7195  0.3044 -0.4290
 2053SOL    MW4 8287   2.212   1.178   3.359 -0.2232  0.8466  0.1104
 2054SOL     OW 8288   2.420   1.261   3.497 -0.3579  0.1719 -0.3389
 2054SOL    HW2 8289   2.419   1.246   3.591 -0.9183  0.0667 -0.3604
 2054SOL    HW3 8290   2.505   1.227   3.468 -0.8811 -1.3585 -0.1228
 2054SOL    MW4 8291   2.431   1.254   3.505 -0.5012 -0.0439 -0.3133
 2055SOL     OW 8292   2.414   1.506   3.399 -0.3505  0.7736 -0.2017
 2055SOL    HW2 8293   2.426   1.415   3.427  0.1223  0.3655 -1.6913
 2055SOL    HW3 8294   2.490   1.553   3.434 -0.2159  0.4501 -0.0594
 2055SOL    MW4 8295   2.425   1.500   3.407 -0.2704  0.6769 -0.3793
 2056SOL     OW 8296   2.194   1.688   3.484  0.2836  0.4294  0.3027
 2056SOL    HW2 8297   2.207   1.712   3.575 -0.4993 -1.6970  1.0207
 2056SOL    HW3 8298   2.253   1.614   3.470 -0.9547 -0.4566 -0.3576
 2056SOL    MW4 8299   2.203   1.681   3.494  0.0169  0.0322  0.3102
 2057SOL     OW 8300   2.185   1.930   3.356  0.3679 -0.5230 -0.2123
 2057SOL    HW2 8301   2.188   1.846   3.403 -0.5563 -0.2856  0.2900
 2057SOL    HW3 8302   2.122   1.982   3.405  0.2457  0.1405 -1.0631
 2057SOL    MW4 8303   2.177   1.926   3.369  0.2298 -0.4040 -0.2584
 2058SOL     OW 8304   2.419   2.040   3.438  0.1088  0.2078  0.1548
 2058SOL    HW2 8305   2.428   2.034   3.533  0.4355 -2.3065  0.0081
 2058SOL    HW3 8306   2.335   1.997   3.419  0.8298 -0.8106 -0.8145
 2058SOL    MW4 8307   2.409   2.034   3.448  0.2468 -0.2582  0.0076
 2059SOL     OW 8308   2.486   2.278   3.315  0.2099 -0.1011  0.1986
 2059SOL    HW2 8309   2.553   2.321   3.368  0.0819  0.7288 -0.3185
 2059SOL    HW3 8310   2.466   2.198   3.364  1.7075 -0.4548  0.2694
 2059SOL    MW4 8311   2.492   2.273   3.328  0.3908 -0.0384  0.1395
 2060SOL     OW 8312   2.305   2.468   3.446  0.1285  0.5083 -0.3107
 2060SOL    HW2 8313   2.296   2.552   3.400 -0.0971 -0.3169 -1.8105
 2060SOL    HW3 8314   2.360   2.415   3.388  1.0389 -0.0797  1.0578
 2060SOL    MW4 8315   2.311   2.472   3.432  0.2189  0.3219 -0.3276
 2061SOL     OW 8316   2.270   2.716   3.301  0.1285  0.2958  0.2953
 2061SOL    HW2 8317   2.198   2.757   3.349  0.1687 -0.9330  1.4237
 2061SOL    HW3 8318   2.237   2.708   3.212 -1.0145  0.0560  0.7259
 2061SOL    MW4 8319   2.256   2.721   3.296 -0.0169  0.1020  0.5009
 2062SOL     OW 8320   2.505   2.835   3.400  0.2514  0.3929 -0.2641
 2062SOL    HW2 8321   2.494   2.826   3.495  0.0438  0.9486 -0.2320
 2062SOL    HW3 8322   2.423   2.802   3.363 -0.0852  1.1394 -0.1978
 2062SOL    MW4 8323   2.493   2.829   3.408  0.1795  0.5646 -0.2513
 2063SOL     OW 8324   2.471   3.089   3.327 -0.2791  0.0008 -0.5989
 2063SOL    HW2 8325   2.542   3.135   3.372 -0.0757  0.0843 -1.0002
 2063SOL    HW3 8326   2.488   2.996   3.345 -0.6489  0.0715  0.1494
 2063SOL    MW4 8327   2.483   3.083   3.335 -0.3009  0.0212 -0.5531
 2064SOL     OW 8328   2.262   3.211   3.458 -0.4024  0.5081 -0.2516
 2064SOL    HW2 8329   2.269   3.179   3.548 -0.0054  1.3883  0.0405
 2064SOL    HW3 8330   2.334   3.167   3.412  0.3340  1.1917  0.2159
 2064SOL    MW4 8331   2.273   3.201   3.464 -0.2527  0.7145 -0.1514
 2065SOL     OW 8332   2.299   3.474   3.359 -0.0462 -0.4596  0.0593
 2065SOL    HW2 8333   2.284   3.381   3.380 -1.3150  0.0720  1.5844
 2065SOL    HW3 8334   2.288   3.478   3.264 -0.9396 -1.7004  0.0908
 2065SOL    MW4 8335   2.296   3.462   3.349 -0.3314 -0.5531  0.2646
 2066SOL     OW 8336   2.508   3.627   3.501  0.0900  0.2026  0.7146
 2066SOL    HW2 8337   2.497   3.703   3.444 -0.7005 -0.2518  0.2688
 2066SOL    HW3 8338   2.445   3.563   3.469  0.6819 -0.6086  1.1574
 2066SOL    MW4 8339   2.499   3.629   3.489  0.0637  0.0358  0.7143
 2067SOL     OW 8340   2.513   3.868   3.355  0.2092 -0.9496 -0.2079
 2067SOL    HW2 8341   2.579   3.930   3.386  0.6404 -1.9126  0.8113
 2067SOL    HW3 8342   2.429   3.913   3.367  0.3841 -1.1842  2.0931
 2067SOL    MW4 8343   2.510   3.882   3.360  0.2890 -1.1077  0.2303
 2068SOL     OW 8344   2.266   4.013   3.470 -0.3179 -0.1288  0.0202
 2068SOL    HW2 8345   2.264   4.097   3.422  1.0272  0.6339  1.2611
 2068SOL    HW3 8346   2.197   3.961   3.430 -0.3244  1.1127 -1.6427
 2068SOL    MW4 8347   2.257   4.017   3.458 -0.1411  0.1359 -0.0353
 2069SOL     OW 8348   2.277   4.263   3.350  0.0920 -0.3562  0.1857
 2069SOL    HW2 8349   2.198   4.311   3.376  0.3738 -0.3933  1.1165
 2069SOL    HW3 8350   2.282   4.275   3.255  0.3115  1.6611  0.4517
 2069SOL    MW4 8351   2.267   4.271   3.341  0.1583 -0.0949  0.3433
 2070SOL     OW 8352   2.507   4.381   3.451 -0.3251  0.2206  0.2733
 2070SOL    HW2 8353   2.503   4.386   3.547 -0.0560  1.5172  0.2244
 2070SOL    HW3 8354   2.422   4.346   3.425 -0.6391  0.4736  0.9513
 2070SOL    MW4 8355   2.496   4.377   3.460 -0.3307  0.4249  0.3564
 2071SOL     OW 8356   2.904   0.007   3.363  0.1823 -0.2946 -0.2317
 2071SOL    HW2 8357   2.822   0.043   3.396 -0.2774 -0.8244 -0.7873
 2071SOL    HW3 8358   2.903   0.025   3.269  0.0020 -1.6287 -0.4943
 2071SOL    MW4 8359   2.893   0.014   3.355  0.0978 -0.5405 -0.3395
 2072SOL     OW 8360   2.696   0.151   3.468 -0.7179 -0.3159 -0.2276
 2072SOL    HW2 8361   2.678   0.231   3.418 -0.2913 -0.8117 -1.1933
 2072SOL    HW3 8362   2.627   0.090   3.442 -0.5093 -0.5697 -0.1854
 2072SOL    MW4 8363   2.685   0.154   3.458 -0.6337 -0.4148 -0.3490
 2073SOL     OW 8364   2.652   0.411   3.333 -0.3052  0.1349  0.0615
 2073SOL    HW2 8365   2.722   0.447   3.387 -1.8358  1.7618  1.0165
 2073SOL    HW3 8366   2.678   0.432   3.243 -0.0331  1.5600  0.4656
 2073SOL    MW4 8367   2.665   0.418   3.328 -0.4709  0.5376  0.2410
 2074SOL     OW 8368   2.884   0.489   3.461 -0.4182  0.4467 -0.4340
 2074SOL    HW2 8369   2.888   0.483   3.556  0.4947  0.1487 -0.4876
 2074SOL    HW3 8370   2.880   0.583   3.443 -0.9147  0.4916 -0.0904
 2074SOL    MW4 8371   2.884   0.501   3.471 -0.3631  0.4133 -0.3958
 2075SOL     OW 8372   2.886   0.781   3.420  0.1036 -0.0476 -0.4342
 2075SOL    HW2 8373   2.965   0.822   3.456 -1.0950  0.9887  1.1150
 2075SOL    HW3 8374   2.814   0.824   3.467 -1.4596  0.2238 -3.0000
 2075SOL    MW4 8375   2.887   0.792   3.431 -0.2608  0.1249 -0.5684
 2076SOL     OW 8376   2.643   0.908   3.484  0.9612  0.0445  0.3646
 2076SOL    HW2 8377   2.644   0.910   3.580 -0.0162  1.4270  0.3654
 2076SOL    HW3 8378   2.659   0.999   3.459 -0.9790  0.0945 -0.7458
 2076SOL    MW4 8379   2.645   0.921   3.494  0.5763  0.2335  0.2182
 2077SOL     OW 8380   2.676   1.166   3.377 -0.9329 -0.0270 -0.1113
 2077SOL    HW2 8381   2.748   1.228   3.391  0.4499 -1.5962 -0.2189
 2077SOL    HW3 8382   2.663   1.166   3.282  0.5368 -1.5038 -0.3390
 2077SOL    MW4 8383   2.684   1.174   3.367 -0.5565 -0.4290 -0.1554
 2078SOL     OW 8384   2.880   1.293   3.471  0.0695  0.0774 -0.0291
 2078SOL    HW2 8385   2.883   1.304   3.566 -0.1446 -1.3600  0.1571
 2078SOL    HW3 8386   2.951   1.231   3.452 -0.7964 -0.7310 -0.6363
 2078SOL    MW4 8387   2.890   1.286   3.481 -0.0727 -0.2190 -0.0849
 2079SOL     OW 8388   2.900   1.563   3.387 -0.1275  0.6116 -0.3299
 2079SOL    HW2 8389   2.813   1.586   3.421  0.1908  0.1396  0.8494
 2079SOL    HW3 8390   2.903   1.467   3.393  0.0736  0.5505 -1.3725
 2079SOL    MW4 8391   2.889   1.553   3.392 -0.0591  0.5412 -0.3119
 2080SOL     OW 8392   2.662   1.639   3.469 -0.2681  0.0697  0.1315
 2080SOL    HW2 8393   2.689   1.728   3.450  0.3900  0.1433  1.4260
 2080SOL    HW3 8394   2.637   1.640   3.561 -1.1535 -0.8622 -0.0910
 2080SOL    MW4 8395   2.662   1.651   3.478 -0.2980 -0.0436  0.2730
 2081SOL     OW 8396   2.669   1.903   3.384 -0.4848  0.4646 -0.2870
 2081SOL    HW2 8397   2.590   1.944   3.417 -1.3336 -1.1315 -0.2745
 2081SOL    HW3 8398   2.649   1.884   3.292  0.4886  1.5109 -0.7314
 2081SOL    MW4 8399   2.656   1.906   3.376 -0.4685  0.3922 -0.3438
 2082SOL     OW 8400   2.923   2.051   3.438 -0.5331  0.2219 -0.0504
 2082SOL    HW2 8401   2.922   2.057   3.534  0.6849 -1.4290  0.0783
 2082SOL    HW3 8402   2.837   2.015   3.416 -0.1074 -1.2002  0.5658
 2082SOL    MW4 8403   2.911   2.047   3.448 -0.3159 -0.1836  0.0479
 2083SOL     OW 8404   2.927   2.344   3.389  0.3146  0.0887 -0.3624
 2083SOL    HW2 8405   2.919   2.250   3.406 -0.6091  0.1486 -0.4513
 2083SOL    HW3 8406   2.936   2.351   3.294 -0.1396  0.1224 -0.4039
 2083SOL    MW4 8407   2.927   2.333   3.379  0.1328  0.1011 -0.3796
 2084SOL     OW 8408   2.689   2.454   3.478 -0.0939  0.1539  0.1712
 2084SOL    HW2 8409   2.653   2.423   3.561 -0.6541 -1.1591 -0.5399
 2084SOL    HW3 8410   2.770   2.406   3.467 -1.0837 -1.2856 -1.0558
 2084SOL    MW4 8411   2.695   2.444   3.487 -0.2985 -0.2093 -0.0846
 2085SOL     OW 8412   2.724   2.682   3.339  0.4670  0.2451  0.8829
 2085SOL    HW2 8413   2.714   2.598   3.383  0.1547 -0.0955  0.1563
 2085SOL    HW3 8414   2.654   2.736   3.374 -0.8909 -0.5889 -0.5228
 2085SOL    MW4 8415   2.714   2.678   3.350  0.2465  0.0899  0.6015
 2086SOL     OW 8416   2.928   2.842   3.449  0.1559 -0.2387  0.6111
 2086SOL    HW2 8417   2.908   2.844   3.542 -1.3175  1.9575  0.2808
 2086SOL    HW3 8418   2.868   2.777   3.412 -0.8565  0.5579  0.8473
 2086SOL    MW4 8419   2.918   2.833   3.456 -0.1719  0.1564  0.5987
 2087SOL     OW 8420   2.963   3.108   3.355 -0.1206 -0.3433  0.2187
 2087SOL    HW2 8421   2.948   3.021   3.392  2.1815 -0.5864  0.6570
 2087SOL    HW3 8422   2.958   3.096   3.260 -0.3295 -0.8309  0.2939
 2087SOL    MW4 8423   2.960   3.095   3.347  0.1557 -0.4396  0.2863
 2088SOL     OW 8424   2.702   3.231   3.418 -0.5136 -0.4004 -0.1623
 2088SOL    HW2 8425   2.702   3.214   3.512 -1.1165 -1.4858 -0.3428
 2088SOL    HW3 8426   2.783   3.191   3.387 -0.1037  0.3343 -0.0459
 2088SOL    MW4 8427   2.713   3.224   3.426 -0.5388 -0.4468 -0.1709
 2089SOL     OW 8428   2.713   3.504   3.370  0.2300  0.3469 -0.0197
 2089SOL    HW2 8429   2.714   3.411   3.392  0.3085  0.0753 -1.1135
 2089SOL    HW3 8430   2.646   3.542   3.426 -0.3754 -0.5211 -0.1486
 2089SOL    MW4 8431   2.705   3.497   3.380  0.1605  0.1967 -0.1812
 2090SOL     OW 8432   2.931   3.634   3.472 -0.4661 -0.2465 -0.2947
 2090SOL    HW2 8433   2.929   3.729   3.459 -0.0902  0.0220  1.5083
 2090SOL    HW3 8434   2.857   3.601   3.422 -0.7385  1.0196 -0.7455
 2090SOL    MW4 8435   2.921   3.642   3.464 -0.4525 -0.0439 -0.1159
 2091SOL     OW 8436   2.928   3.881   3.323  0.2247  0.1211  0.0060
 2091SOL    HW2 8437   3.010   3.921   3.355  0.7265 -0.6850 -0.2576
 2091SOL    HW3 8438   2.859   3.938   3.358  0.8941  0.7938  0.2602
 2091SOL    MW4 8439   2.930   3.894   3.332  0.3793  0.1037  0.0048
 2092SOL     OW 8440   2.717   4.047   3.413 -0.3188  0.8935 -0.1690
 2092SOL    HW2 8441   2.717   4.049   3.509  1.2685  0.1164 -0.1355
 2092SOL    HW3 8442   2.728   4.139   3.388  0.5258  0.9722  0.4284
 2092SOL    MW4 8443   2.719   4.060   3.422  0.0024  0.8011 -0.0858
 2093SOL     OW 8444   2.737   4.300   3.312  0.2474  0.0570  0.5529
 2093SOL    HW2 8445   2.813   4.325   3.365  0.0090  1.3606  0.3144
 2093SOL    HW3 8446   2.662   4.328   3.364  0.0105  1.4682 -0.5022
 2093SOL    MW4 8447   2.737   4.307   3.326  0.1845  0.4148  0.3822
 2094SOL     OW 8448   2.927   4.412   3.462 -0.1199 -0.2449 -0.1095
 2094SOL    HW2 8449   2.908   4.413   3.556  0.2815 -1.3049 -0.0171
 2094SOL    HW3 8450   2.922   4.504   3.436  0.0424  0.0869  1.0046
 2094SOL    MW4 8451   2.924   4.424   3.471 -0.0455 -0.3409  0.0496
 2095SOL     OW 8452   3.355   4.640   3.405  0.0032 -0.0489 -0.1148
 2095SOL    HW2 8453   3.420   4.700   3.443 -0.7399  0.6603  0.0508
 2095SOL    HW3 8454   3.368   4.648   3.311  0.3031 -0.0804 -0.0793
 2095SOL    MW4 8455   3.366   4.649   3.398 -0.0553  0.0405 -0.0882
 2096SOL     OW 8456   3.152   0.146   3.482 -0.3387 -0.6042  0.5585
 2096SOL    HW2 8457   3.217   0.087   3.444  0.3526  0.6109 -0.1702
 2096SOL    HW3 8458   3.069   0.116   3.446 -0.0764 -1.5777  0.7525
 2096SOL    MW4 8459   3.150   0.134   3.472 -0.2127 -0.5723  0.4880
 2097SOL     OW 8460   3.125   0.396   3.385 -0.4205  0.2497  0.0224
 2097SOL    HW2 8461   3.129   0.304   3.411  0.1571  0.4989  0.8254
 2097SOL    HW3 8462   3.043   0.427   3.423 -0.3036  0.2328  0.2863
 2097SOL    MW4 8463   3.114   0.388   3.394 -0.3285  0.2804  0.1631
 2098SOL     OW 8464   3.356   0.512   3.509  0.2007 -0.2419 -0.2570
 2098SOL    HW2 8465   3.349   0.491   3.602  1.1735 -0.7903 -0.2978
 2098SOL    HW3 8466   3.285   0.463   3.468 -0.3694  0.1726  0.2153
 2098SOL    MW4 8467   3.346   0.502   3.516  0.2539 -0.2596 -0.2000
 2099SOL     OW 8468   3.364   0.759   3.397  0.1686  0.2631 -0.2168
 2099SOL    HW2 8469   3.450   0.800   3.409  0.3231  0.7569 -2.6447
 2099SOL    HW3 8470   3.372   0.674   3.439  1.5767  0.6377  0.3181
 2099SOL    MW4 8471   3.377   0.753   3.404  0.3746  0.3777 -0.4666
 2100SOL     OW 8472   3.131   0.879   3.511  0.3459 -0.0498  0.2744
 2100SOL    HW2 8473   3.125   0.965   3.471 -0.8272 -0.8903 -1.4477
 2100SOL    HW3 8474   3.205   0.837   3.467  0.0475 -0.4144  0.1190
 2100SOL    MW4 8475   3.140   0.885   3.500  0.1516 -0.2089  0.0265
 2101SOL     OW 8476   3.105   1.157   3.390  0.1914  0.4180 -0.2539
 2101SOL    HW2 8477   3.192   1.194   3.406  0.2430  0.1826  0.0119
 2101SOL    HW3 8478   3.097   1.154   3.295  0.8472 -0.4476 -0.2763
 2101SOL    MW4 8479   3.115   1.162   3.380  0.2849  0.2728 -0.2217
 2102SOL     OW 8480   3.322   1.260   3.515 -0.1641  0.2527 -0.5357
 2102SOL    HW2 8481   3.400   1.227   3.472 -0.4245 -0.0273 -0.7967
 2102SOL    HW3 8482   3.319   1.353   3.490 -0.0902  0.1885 -0.7868
 2102SOL    MW4 8483   3.332   1.268   3.506 -0.1886  0.2073 -0.6032
 2103SOL     OW 8484   3.370   1.540   3.430 -0.2234 -0.1459  0.0752
 2103SOL    HW2 8485   3.441   1.585   3.476  0.3736  0.1271 -1.1001
 2103SOL    HW3 8486   3.291   1.585   3.459  0.1932  0.3730  0.4210
 2103SOL    MW4 8487   3.369   1.552   3.440 -0.0901 -0.0415 -0.0341
 2104SOL     OW 8488   3.119   1.660   3.515  0.0279 -0.2086 -0.1445
 2104SOL    HW2 8489   3.135   1.740   3.466  0.3043 -0.6812 -0.8351
 2104SOL    HW3 8490   3.039   1.624   3.477  0.3482 -0.6758 -0.3851
 2104SOL    MW4 8491   3.110   1.666   3.503  0.1068 -0.3326 -0.2673
 2105SOL     OW 8492   3.161   1.921   3.388  0.2556 -0.6321  0.4767
 2105SOL    HW2 8493   3.085   1.967   3.423  0.8435  0.6309  0.1150
 2105SOL    HW3 8494   3.153   1.929   3.293  1.6464  0.8676  0.4627
 2105SOL    MW4 8495   3.150   1.928   3.380  0.5167 -0.2676  0.4272
 2106SOL     OW 8496   3.387   2.064   3.487  0.4834  0.4540 -0.3280
 2106SOL    HW2 8497   3.399   2.148   3.444  1.8714 -0.8453 -2.5258
 2106SOL    HW3 8498   3.302   2.033   3.456  0.0299  0.9641  0.3835
 2106SOL    MW4 8499   3.377   2.071   3.478  0.6068  0.3498 -0.5238
 2107SOL     OW 8500   3.394   2.305   3.376  0.3640  0.2250 -0.1081
 2107SOL    HW2 8501   3.472   2.351   3.409  0.0287 -0.2057  1.3219
 2107SOL    HW3 8502   3.321   2.346   3.423  0.0365 -1.6089  0.9910
 2107SOL    MW4 8503   3.395   2.317   3.387  0.2768 -0.0737  0.2255
 2108SOL     OW 8504   3.177   2.427   3.481 -0.2390 -0.3025 -0.5613
 2108SOL    HW2 8505   3.176   2.520   3.457  0.2446 -0.3791 -0.8671
 2108SOL    HW3 8506   3.095   2.393   3.445 -0.0656 -0.1583 -1.1041
 2108SOL    MW4 8507   3.166   2.435   3.473 -0.1523 -0.2935 -0.6733
 2109SOL     OW 8508   3.167   2.700   3.390 -0.2375  0.1053  0.0687
 2109SOL    HW2 8509   3.232   2.743   3.445  0.8845  0.9730 -1.9052
 2109SOL    HW3 8510   3.085   2.747   3.409  0.1798  0.5212  0.8445
 2109SOL    MW4 8511   3.165   2.712   3.400 -0.0346  0.2749 -0.0894
 2110SOL     OW 8512   3.370   2.861   3.494  0.3177  0.3335 -0.0487
 2110SOL    HW2 8513   3.382   2.866   3.589 -0.5765  1.0783  0.0356
 2110SOL    HW3 8514   3.386   2.951   3.463  0.6834  0.0791 -0.6131
 2110SOL    MW4 8515   3.374   2.874   3.502  0.2482  0.3982 -0.1121
 2111SOL     OW 8516   3.363   3.118   3.397 -0.8759  0.2168 -0.1074
 2111SOL    HW2 8517   3.435   3.170   3.431 -0.8301 -0.2359  0.4888
 2111SOL    HW3 8518   3.284   3.160   3.431 -0.8160 -0.4773  0.9159
 2111SOL    MW4 8519   3.362   3.130   3.406 -0.8619  0.0656  0.1063
 2112SOL     OW 8520   3.136   3.257   3.491  0.7055 -0.8954 -0.4246
 2112SOL    HW2 8521   3.143   3.341   3.445 -1.3840 -0.4443  0.0527
 2112SOL    HW3 8522   3.069   3.209   3.442 -1.8303 -0.2610  2.3458
 2112SOL    MW4 8523   3.128   3.262   3.478  0.0954 -0.7522  0.0041
 2113SOL     OW 8524   3.161   3.515   3.368  0.1204  0.0363 -0.3848
 2113SOL    HW2 8525   3.082   3.560   3.398  1.0966  1.7304 -0.2943
 2113SOL    HW3 8526   3.161   3.527   3.273  0.5840  0.5641 -0.3185
 2113SOL    MW4 8527   3.150   3.523   3.360  0.3104  0.3295 -0.3641
 2114SOL     OW 8528   3.387   3.645   3.505  0.1282 -0.0882  0.2003
 2114SOL    HW2 8529   3.397   3.730   3.464  0.5209  0.0204  0.5156
 2114SOL    HW3 8530   3.310   3.607   3.463 -1.5045  1.4120  1.7886
 2114SOL    MW4 8531   3.378   3.651   3.494 -0.0355  0.1240  0.4513
 2115SOL     OW 8532   3.386   3.861   3.317 -0.2125 -0.6067  0.2439
 2115SOL    HW2 8533   3.461   3.916   3.339 -0.1461 -0.6877  0.2213
 2115SOL    HW3 8534   3.311   3.904   3.359 -0.1052 -0.6875  0.5180
 2115SOL    MW4 8535   3.386   3.874   3.326 -0.1893 -0.6280  0.2768
 2116SOL     OW 8536   3.162   3.975   3.447 -0.5673  0.1999 -0.2108
 2116SOL    HW2 8537   3.165   3.967   3.543  1.5996  0.3745 -0.2395
 2116SOL    HW3 8538   3.160   4.069   3.431  0.9315  0.2212 -0.3509
 2116SOL    MW4 8539   3.162   3.986   3.458 -0.0837  0.2258 -0.2329
 2117SOL     OW 8540   3.144   4.250   3.400  0.0094  0.3652  0.0090
 2117SOL    HW2 8541   3.222   4.296   3.432 -0.6367  1.7219 -0.3511
 2117SOL    HW3 8542   3.070   4.303   3.431 -0.7445 -0.3400 -0.5539
 2117SOL    MW4 8543   3.144   4.263   3.408 -0.1755  0.4506 -0.1125
 2118SOL     OW 8544   3.369   4.370   3.490  0.0837  0.4192  0.2182
 2118SOL    HW2 8545   3.386   4.377   3.583  0.0994  0.3698  0.2192
 2118SOL    HW3 8546   3.374   4.460   3.457 -0.1906  0.4693  0.3126
 2118SOL    MW4 8547   3.372   4.383   3.498  0.0496  0.4196  0.2308
 2119SOL     OW 8548   3.812   0.026   3.385 -0.0594  0.3569 -0.0236
 2119SOL    HW2 8549   3.724   0.033   3.421 -0.0650  1.1653 -0.1951
 2119SOL    HW3 8550   3.800  -0.010   3.298 -0.2234  0.4823 -0.0522
 2119SOL    MW4 8551   3.799   0.022   3.379 -0.0818  0.4801 -0.0498
 2120SOL     OW 8552   3.567   0.116   3.506 -0.6176  0.1914  0.0855
 2120SOL    HW2 8553   3.554   0.208   3.482  1.2520  0.5908  0.5558
 2120SOL    HW3 8554   3.575   0.117   3.601 -0.2802 -0.4165  0.0674
 2120SOL    MW4 8555   3.566   0.128   3.515 -0.3264  0.1639  0.1454
 2121SOL     OW 8556   3.564   0.368   3.389  0.4795 -0.5653 -0.1424
 2121SOL    HW2 8557   3.638   0.413   3.429  0.3189  0.2854 -0.7741
 2121SOL    HW3 8558   3.487   0.416   3.419  0.2416 -0.9652 -0.1085
 2121SOL    MW4 8559   3.564   0.380   3.398  0.4270 -0.5058 -0.2215
 2122SOL     OW 8560   3.768   0.462   3.526  0.4983 -0.1907 -0.0021
 2122SOL    HW2 8561   3.781   0.458   3.621  0.5126 -2.7922 -0.0793
 2122SOL    HW3 8562   3.835   0.404   3.490 -0.4481 -0.3840 -1.4971
 2122SOL    MW4 8563   3.779   0.453   3.534  0.3753 -0.5594 -0.2096
 2123SOL     OW 8564   3.828   0.729   3.422  0.3710  0.4161  0.2904
 2123SOL    HW2 8565   3.903   0.782   3.450  0.3459  0.0329  1.0927
 2123SOL    HW3 8566   3.831   0.651   3.477  1.3800 -1.2394 -2.0434
 2123SOL    MW4 8567   3.838   0.726   3.433  0.5007  0.1470  0.0885
 2124SOL     OW 8568   3.597   0.886   3.478 -0.1838 -0.0369 -0.1973
 2124SOL    HW2 8569   3.591   0.893   3.574 -0.6670 -0.8139 -0.1673
 2124SOL    HW3 8570   3.672   0.829   3.463 -0.1402  0.0433 -0.2805
 2124SOL    MW4 8571   3.606   0.879   3.489 -0.2418 -0.1288 -0.2043
 2125SOL     OW 8572   3.539   1.144   3.387 -0.3767  0.1633  0.0037
 2125SOL    HW2 8573   3.560   1.052   3.406  1.3369  0.3773 -0.7560
 2125SOL    HW3 8574   3.535   1.149   3.292 -1.2803  0.7118  0.0658
 2125SOL    MW4 8575   3.541   1.133   3.377 -0.2694  0.2639 -0.0882
 2126SOL     OW 8576   3.765   1.274   3.485  0.1655  0.2010 -0.2575
 2126SOL    HW2 8577   3.752   1.277   3.580 -0.0160  1.5299 -0.3140
 2126SOL    HW3 8578   3.679   1.249   3.450 -0.3400  1.7619 -0.1833
 2126SOL    MW4 8579   3.752   1.271   3.493  0.0746  0.5823 -0.2553
 2127SOL     OW 8580   3.804   1.537   3.375  0.4966  0.1449  0.3683
 2127SOL    HW2 8581   3.871   1.595   3.410  0.8972  0.1241 -0.3606
 2127SOL    HW3 8582   3.818   1.454   3.420  1.9600 -0.3182 -0.9008
 2127SOL    MW4 8583   3.815   1.533   3.385  0.7427  0.0809  0.1049
 2128SOL     OW 8584   3.613   1.656   3.541  0.4806 -0.1584  0.0412
 2128SOL    HW2 8585   3.611   1.734   3.485  0.9076  0.8000  1.3497
 2128SOL    HW3 8586   3.680   1.600   3.500  0.0828  0.0987 -0.9778
 2128SOL    MW4 8587   3.622   1.659   3.528  0.4845  0.0019  0.0796
 2129SOL     OW 8588   3.599   1.905   3.402  0.3249  0.3888 -0.3124
 2129SOL    HW2 8589   3.678   1.957   3.421 -1.0663  2.6888 -0.5655
 2129SOL    HW3 8590   3.528   1.955   3.442 -1.1182 -1.1547 -0.9259
 2129SOL    MW4 8591   3.600   1.919   3.410 -0.0489  0.4885 -0.4265
 2130SOL     OW 8592   3.818   2.063   3.496  0.1125 -0.1878  0.3268
 2130SOL    HW2 8593   3.823   2.051   3.590  1.0358 -0.0333  0.3055
 2130SOL    HW3 8594   3.902   2.032   3.463  0.1352  0.5711 -0.3558
 2130SOL    MW4 8595   3.830   2.057   3.504  0.2370 -0.0672  0.2341
 2131SOL     OW 8596   3.797   2.339   3.435 -0.2960  0.3310 -0.0317
 2131SOL    HW2 8597   3.877   2.389   3.447 -0.5927  0.7005  0.4158
 2131SOL    HW3 8598   3.815   2.254   3.474 -0.1495  0.4400  0.1367
 2131SOL    MW4 8599   3.810   2.334   3.442 -0.3159  0.3939  0.0498
 2132SOL     OW 8600   3.574   2.487   3.510  0.2594 -0.3777 -0.2620
 2132SOL    HW2 8601   3.591   2.578   3.484  0.9965 -0.3987  0.1326
 2132SOL    HW3 8602   3.653   2.440   3.484 -0.5042 -1.0981 -1.3447
 2132SOL    MW4 8603   3.587   2.493   3.503  0.2561 -0.4756 -0.3526
 2133SOL     OW 8604   3.604   2.754   3.399  0.8073 -0.7120 -0.6852
 2133SOL    HW2 8605   3.519   2.783   3.432  0.5953 -1.3114 -0.7102
 2133SOL    HW3 8606   3.588   2.729   3.308  1.1090 -0.3852 -0.8330
 2133SOL    MW4 8607   3.591   2.755   3.392  0.8192 -0.7479 -0.7081
 2134SOL     OW 8608   3.846   2.862   3.486 -0.0063  0.1279 -0.3788
 2134SOL    HW2 8609   3.763   2.824   3.459  0.4382 -0.6409 -0.6910
 2134SOL    HW3 8610   3.844   2.861   3.581 -1.0006  1.5466 -0.3709
 2134SOL    MW4 8611   3.835   2.857   3.495 -0.0789  0.2134 -0.4187
 2135SOL     OW 8612   3.852   3.114   3.391 -0.0740  0.1442  0.9855
 2135SOL    HW2 8613   3.934   3.155   3.419  0.0224 -0.3297  1.4086
 2135SOL    HW3 8614   3.853   3.028   3.432  1.4176 -1.7149 -2.6618
 2135SOL    MW4 8615   3.863   3.108   3.400  0.1352 -0.1636  0.5600
 2136SOL     OW 8616   3.598   3.214   3.483  0.5719 -0.1337 -0.6720
 2136SOL    HW2 8617   3.597   3.304   3.452  2.1790  0.1242 -0.0353
 2136SOL    HW3 8618   3.679   3.177   3.448  0.4080 -1.0397 -0.1300
 2136SOL    MW4 8619   3.609   3.221   3.474  0.7622 -0.2193 -0.5164
 2137SOL     OW 8620   3.563   3.477   3.402  0.1307  0.2731 -0.1483
 2137SOL    HW2 8621   3.505   3.544   3.436  1.2134  0.3199  1.6448
 2137SOL    HW3 8622   3.562   3.490   3.307 -2.4812  0.4802 -0.1163
 2137SOL    MW4 8623   3.556   3.487   3.394 -0.0710  0.3064  0.0925
 2138SOL     OW 8624   3.792   3.652   3.485 -0.3991 -0.2938 -0.4123
 2138SOL    HW2 8625   3.786   3.629   3.578  0.1938  0.0642 -0.2802
 2138SOL    HW3 8626   3.726   3.598   3.442 -2.4207  1.3388  0.5370
 2138SOL    MW4 8627   3.783   3.642   3.492 -0.5877 -0.0312 -0.2697
 2139SOL     OW 8628   3.808   3.903   3.369 -0.0535 -0.2429 -0.3186
 2139SOL    HW2 8629   3.730   3.954   3.387  0.6175  0.9618 -0.7690
 2139SOL    HW3 8630   3.796   3.822   3.418 -1.1146  0.3626  0.4278
 2139SOL    MW4 8631   3.796   3.899   3.378 -0.1049 -0.0043 -0.2794
 2140SOL     OW 8632   3.575   4.025   3.426 -0.0916 -0.0437 -0.1329
 2140SOL    HW2 8633   3.567   4.020   3.521 -1.6085 -0.1585 -0.2610
 2140SOL    HW3 8634   3.585   4.118   3.408  0.8949 -0.0781  0.1758
 2140SOL    MW4 8635   3.575   4.036   3.436 -0.1616 -0.0629 -0.1092
 2141SOL     OW 8636   3.598   4.291   3.358  0.4056 -0.1673  0.2490
 2141SOL    HW2 8637   3.522   4.324   3.407  0.0440  0.4529 -0.7184
 2141SOL    HW3 8638   3.566   4.280   3.268  1.5188  0.3038 -0.2100
 2141SOL    MW4 8639   3.583   4.294   3.353  0.5047 -0.0229  0.0608
 2142SOL     OW 8640   3.853   4.425   3.446 -0.5130 -0.3339  0.1826
 2142SOL    HW2 8641   3.763   4.393   3.435 -1.1336  0.7628  1.8788
 2142SOL    HW3 8642   3.846   4.520   3.435  0.6553 -0.3654 -0.8847
 2142SOL    MW4 8643   3.840   4.433   3.444 -0.4408 -0.1931  0.2658
 2143SOL     OW 8644   4.278   4.657   3.371  0.6503  0.4543  0.0741
 2143SOL    HW2 8645   4.282   4.572   3.414 -1.6198  0.4609  0.3444
 2143SOL    HW3 8646   4.358   4.702   3.399  0.7111 -0.6945  1.7885
 2143SOL    MW4 8647   4.289   4.652   3.380  0.3591  0.3037  0.3359
 2144SOL     OW 8648   4.065   0.094   3.506  0.1906  0.0762 -0.3295
 2144SOL    HW2 8649   4.137   0.056   3.456  0.1430  0.2408 -0.5207
 2144SOL    HW3 8650   3.986   0.057   3.467  0.2087 -1.0160  0.6234
 2144SOL    MW4 8651   4.064   0.084   3.495  0.1864 -0.0462 -0.2289
 2145SOL     OW 8652   4.026   0.373   3.455 -0.1234  0.3792 -0.1868
 2145SOL    HW2 8653   4.053   0.284   3.475 -0.4031  0.1313 -0.9077
 2145SOL    HW3 8654   4.044   0.384   3.362 -2.1838  0.3074 -0.6375
 2145SOL    MW4 8655   4.032   0.363   3.445 -0.4320  0.3370 -0.3412
 2146SOL     OW 8656   4.269   0.490   3.514 -0.0713 -0.2510 -0.2071
 2146SOL    HW2 8657   4.256   0.581   3.485  0.0429 -0.5385 -1.1750
 2146SOL    HW3 8658   4.182   0.450   3.507  0.1897 -0.6366 -1.2647
 2146SOL    MW4 8659   4.256   0.497   3.509 -0.0224 -0.3398 -0.4742
 2147SOL     OW 8660   4.265   0.756   3.403 -0.1046  0.2813  0.2777
 2147SOL    HW2 8661   4.344   0.807   3.422 -0.1229  0.9793 -1.4140
 2147SOL    HW3 8662   4.259   0.756   3.307 -1.9013 -0.1367  0.3727
 2147SOL    MW4 8663   4.275   0.763   3.393 -0.3443  0.3182  0.0668
 2148SOL     OW 8664   4.041   0.878   3.537  0.0877  0.8384 -0.0847
 2148SOL    HW2 8665   4.031   0.962   3.491  2.3274  1.2202  0.0551
 2148SOL    HW3 8666   4.116   0.836   3.494 -0.4499 -0.6976  0.4447
 2148SOL    MW4 8667   4.050   0.884   3.525  0.3119  0.6860  0.0041
 2149SOL     OW 8668   4.015   1.142   3.422  0.3357 -0.3754  0.1766
 2149SOL    HW2 8669   4.085   1.196   3.457 -0.9473  0.7785  1.0135
 2149SOL    HW3 8670   3.936   1.172   3.467 -0.2906 -3.5463  1.2960
 2149SOL    MW4 8671   4.014   1.153   3.432  0.0839 -0.6415  0.4349
 2150SOL     OW 8672   4.238   1.271   3.518 -0.5385 -0.1960 -0.1599
 2150SOL    HW2 8673   4.240   1.356   3.474 -1.3169 -0.5029 -0.8079
 2150SOL    HW3 8674   4.315   1.225   3.485  0.1046  0.3983  0.4894
 2150SOL    MW4 8675   4.248   1.276   3.508 -0.5565 -0.1582 -0.1595
 2151SOL     OW 8676   4.247   1.519   3.363 -0.3421 -0.4039 -0.3776
 2151SOL    HW2 8677   4.172   1.567   3.398  0.7735 -0.5062  2.2622
 2151SOL    HW3 8678   4.234   1.520   3.269 -1.7552  2.7470 -0.2192
 2151SOL    MW4 8679   4.235   1.525   3.355 -0.3815 -0.0017 -0.0081
 2152SOL     OW 8680   4.019   1.681   3.468  0.0168 -0.0805 -0.6525
 2152SOL    HW2 8681   4.002   1.690   3.562 -0.3823 -2.2728 -0.4925
 2152SOL    HW3 8682   4.030   1.771   3.437 -1.2570  0.7532  1.2278
 2152SOL    MW4 8683   4.019   1.694   3.477 -0.2036 -0.2596 -0.3831
 2153SOL     OW 8684   4.028   1.943   3.380 -0.2842  0.2590 -0.3556
 2153SOL    HW2 8685   4.115   1.980   3.398 -0.4320 -0.0681  1.0737
 2153SOL    HW3 8686   4.027   1.931   3.285  1.7340 -0.9415 -0.2590
 2153SOL    MW4 8687   4.040   1.946   3.370 -0.0372  0.0576 -0.1540
 2154SOL     OW 8688   4.246   2.078   3.517 -0.0735 -0.2428  0.0707
 2154SOL    HW2 8689   4.248   2.161   3.470 -0.0841 -0.3133 -0.0552
 2154SOL    HW3 8690   4.317   2.027   3.478  0.4488 -0.0010  0.6902
 2154SOL    MW4 8691   4.256   2.082   3.506 -0.0062 -0.2203  0.1359
 2155SOL     OW 8692   4.245   2.326   3.367 -0.4818 -0.2409 -0.2255
 2155SOL    HW2 8693   4.161   2.370   3.374  0.7029  2.1106 -0.3178
 2155SOL    HW3 8694   4.252   2.301   3.275 -0.8519  0.0166 -0.3224
 2155SOL    MW4 8695   4.235   2.328   3.356 -0.3748  0.1032 -0.2506
 2156SOL     OW 8696   4.021   2.483   3.473  0.0472 -0.4407  0.5366
 2156SOL    HW2 8697   4.032   2.484   3.568  1.4767 -0.1964  0.3799
 2156SOL    HW3 8698   4.046   2.571   3.445  2.3985 -1.3641 -0.3447
 2156SOL    MW4 8699   4.026   2.495   3.482  0.5460 -0.5302  0.3996
 2157SOL     OW 8700   4.083   2.740   3.366 -0.0515 -0.2249  0.2312
 2157SOL    HW2 8701   4.168   2.772   3.398  0.3936 -0.5005 -0.6758
 2157SOL    HW3 8702   4.019   2.793   3.414  0.5802 -1.0018  2.0132
 2157SOL    MW4 8703   4.086   2.752   3.377  0.0906 -0.3636  0.3467
 2158SOL     OW 8704   4.293   2.914   3.459  0.4767  0.4188 -0.0737
 2158SOL    HW2 8705   4.294   2.890   3.552 -0.4582  0.8732  0.0552
 2158SOL    HW3 8706   4.358   2.855   3.419 -1.5397 -2.1503  0.2754
 2158SOL    MW4 8707   4.302   2.903   3.466  0.0873  0.1397 -0.0105
 2159SOL     OW 8708   4.273   3.158   3.332  0.3858 -0.6674  0.5058
 2159SOL    HW2 8709   4.273   3.072   3.373 -1.1254 -1.1568 -0.4909
 2159SOL    HW3 8710   4.307   3.144   3.244 -0.0475 -0.2819  0.2719
 2159SOL    MW4 8711   4.277   3.145   3.326  0.1297 -0.6812  0.3438
 2160SOL     OW 8712   4.065   3.265   3.481 -0.3360  0.2031  0.1356
 2160SOL    HW2 8713   4.047   3.344   3.431 -0.6005 -0.2964 -0.5712
 2160SOL    HW3 8714   4.147   3.231   3.444 -0.3957 -0.0288  0.2141
 2160SOL    MW4 8715   4.074   3.271   3.470 -0.3791  0.1063  0.0529
 2161SOL     OW 8716   4.027   3.523   3.373  0.0368 -0.2259 -0.5077
 2161SOL    HW2 8717   4.105   3.570   3.404  0.1359 -0.3344 -0.5928
 2161SOL    HW3 8718   3.954   3.571   3.412  0.0538  1.0811 -2.0127
 2161SOL    MW4 8719   4.028   3.536   3.382  0.0520 -0.0677 -0.7174
 2162SOL     OW 8720   4.268   3.642   3.479 -0.3753 -0.2758  0.0067
 2162SOL    HW2 8721   4.260   3.666   3.571 -0.0112 -0.0980 -0.0100
 2162SOL    HW3 8722   4.284   3.725   3.433  0.6389 -0.5138 -0.0770
 2162SOL    MW4 8723   4.269   3.656   3.485 -0.1941 -0.2837 -0.0067
 2163SOL     OW 8724   4.300   3.920   3.393  0.3429  0.6039  0.5173
 2163SOL    HW2 8725   4.383   3.969   3.399  1.1860 -0.8704  1.1066
 2163SOL    HW3 8726   4.283   3.914   3.299  1.5706 -0.1425  0.3225
 2163SOL    MW4 8727   4.309   3.926   3.382  0.6161  0.3107  0.5691
 2164SOL     OW 8728   4.034   4.026   3.467 -0.5002  0.2312 -0.0385
 2164SOL    HW2 8729   4.108   3.973   3.437 -1.6848 -0.5696 -1.6242
 2164SOL    HW3 8730   3.957   3.985   3.426 -1.7537  1.3919  1.1179
 2164SOL    MW4 8731   4.034   4.013   3.458 -0.8221  0.2785 -0.0954
 2165SOL     OW 8732   4.072   4.275   3.363  0.0338 -0.0918  0.3287
 2165SOL    HW2 8733   4.046   4.189   3.394  1.4597 -0.7692 -0.2866
 2165SOL    HW3 8734   4.003   4.334   3.393 -1.2121 -1.5259  0.3131
 2165SOL    MW4 8735   4.059   4.271   3.371  0.0572 -0.3700  0.2451
 2166SOL     OW 8736   4.299   4.407   3.473  0.2901 -0.2344 -0.0894
 2166SOL    HW2 8737   4.308   4.406   3.568 -0.4695  1.5056  0.0265
 2166SOL    HW3 8738   4.219   4.358   3.456  0.1102 -0.0511  0.2248
 2166SOL    MW4 8739   4.289   4.401   3.483  0.1659  0.0196 -0.0327
 2167SOL     OW 8740   0.235   4.625   3.918 -0.0834  0.0347 -0.0030
 2167SOL    HW2 8741   0.259   4.673   3.996 -0.3118 -0.2152  0.2245
 2167SOL    HW3 8742   0.174   4.683   3.871  0.5313  0.4356 -0.3031
 2167SOL    MW4 8743   0.230   4.639   3.922 -0.0324  0.0548 -0.0126
 2168SOL     OW 8744   0.058   0.113   3.749  0.0700  0.0580  0.0716
 2168SOL    HW2 8745   0.038   0.201   3.780 -1.0805 -0.1038 -0.1935
 2168SOL    HW3 8746   0.049   0.118   3.654 -0.0500 -0.3551  0.0587
 2168SOL    MW4 8747   0.054   0.125   3.741 -0.0977 -0.0179  0.0350
 2169SOL     OW 8748   0.013   0.386   3.854  0.3439 -0.2571  0.0967
 2169SOL    HW2 8749  -0.071   0.431   3.852 -0.0100 -0.9246 -1.3607
 2169SOL    HW3 8750   0.073   0.443   3.806 -0.0134 -1.1032 -1.4184
 2169SOL    MW4 8751   0.010   0.399   3.847  0.2503 -0.4568 -0.2956
 2170SOL     OW 8752   0.236   0.517   3.751  0.2041 -0.0898 -0.7203
 2170SOL    HW2 8753   0.219   0.604   3.788 -1.9759 -0.1417 -1.5096
 2170SOL    HW3 8754   0.248   0.533   3.657 -0.6291 -0.6786 -0.9330
 2170SOL    MW4 8755   0.236   0.531   3.743 -0.1934 -0.1743 -0.8526
 2171SOL     OW 8756   0.179   0.774   3.877 -0.4439  0.2041  0.2170
 2171SOL    HW2 8757   0.172   0.793   3.971 -0.8526 -1.0744  0.4578
 2171SOL    HW3 8758   0.095   0.800   3.841 -0.6451 -0.2080  0.3795
 2171SOL    MW4 8759   0.167   0.780   3.885 -0.5244 -0.0189  0.2701
 2172SOL     OW 8760   4.424   0.869   3.768 -0.0539 -0.2328  0.4526
 2172SOL    HW2 8761   4.340   0.839   3.804 -1.3676  0.6670 -1.7382
 2172SOL    HW3 8762   4.438   0.954   3.809 -1.0234  0.3279 -0.3507
 2172SOL    MW4 8763   4.415   0.876   3.778 -0.3548 -0.0401  0.0575
 2173SOL     OW 8764   4.457   1.172   3.876  0.2166  0.1034 -0.2312
 2173SOL    HW2 8765   4.376   1.198   3.832  0.0901  0.4755  0.2276
 2173SOL    HW3 8766   4.524   1.228   3.836  0.1632  0.1745 -0.2223
 2173SOL    MW4 8767   4.455   1.183   3.865  0.1926  0.1619 -0.1698
 2174SOL     OW 8768   0.192   1.313   3.743 -0.6838  0.3937 -0.2423
 2174SOL    HW2 8769   0.177   1.403   3.772  0.9468 -0.0510  2.0956
 2174SOL    HW3 8770   0.179   1.316   3.648 -1.9490  2.7999 -0.0291
 2174SOL    MW4 8771   0.189   1.325   3.734 -0.6356  0.6526  0.0944
 2175SOL     OW 8772   0.189   1.565   3.844 -0.0540  0.0353 -0.0079
 2175SOL    HW2 8773   0.188   1.551   3.939  1.1410  0.9974  0.1496
 2175SOL    HW3 8774   0.099   1.590   3.823 -0.7099 -1.7033  0.6283
 2175SOL    MW4 8775   0.177   1.566   3.854  0.0171 -0.0671  0.0968
 2176SOL     OW 8776   4.441   1.664   3.733  0.2000  0.1211  0.2563
 2176SOL    HW2 8777   4.482   1.743   3.768 -0.4659  0.6249 -0.0956
 2176SOL    HW3 8778   4.456   1.668   3.639 -0.9209  0.4826  0.0769
 2176SOL    MW4 8779   4.448   1.675   3.725 -0.0353  0.2353  0.1862
 2177SOL     OW 8780   0.031   1.904   3.873 -0.4604  0.0257 -0.0687
 2177SOL    HW2 8781   0.038   1.916   3.968 -0.6387 -0.6120  0.0220
 2177SOL    HW3 8782  -0.041   1.961   3.847 -1.3321 -0.8692  0.3750
 2177SOL    MW4 8783   0.023   1.913   3.882 -0.5984 -0.1765  0.0019
 2178SOL     OW 8784   0.228   2.021   3.748  0.6555  0.4059  0.1482
 2178SOL    HW2 8785   0.208   2.114   3.763  0.6198  0.2174  1.3575
 2178SOL    HW3 8786   0.157   1.974   3.792  1.2194 -0.2020  0.4182
 2178SOL    MW4 8787   0.216   2.027   3.756  0.7252  0.3009  0.3433
 2179SOL     OW 8788   0.197   2.286   3.829  0.0631  0.4447  0.3600
 2179SOL    HW2 8789   0.201   2.274   3.924 -1.9387  0.3479  0.4528
 2179SOL    HW3 8790   0.112   2.328   3.814  0.2254  0.1601 -1.4267
 2179SOL    MW4 8791   0.186   2.290   3.839 -0.1796  0.3943  0.1364
 2180SOL     OW 8792   4.474   2.426   3.758  0.1401 -0.4360 -0.1044
 2180SOL    HW2 8793   4.403   2.389   3.811 -0.3090 -1.0364 -1.1269
 2180SOL    HW3 8794   4.474   2.519   3.782  0.0596 -0.7221  1.0804
 2180SOL    MW4 8795   4.465   2.434   3.768  0.0706 -0.5529 -0.0827
 2181SOL     OW 8796   0.007   2.697   3.829 -0.0006 -0.3149 -0.1363
 2181SOL    HW2 8797   0.016   2.721   3.921  0.6238  0.2755 -0.3447
 2181SOL    HW3 8798   0.072   2.751   3.784  0.1091 -1.0292 -0.8492
 2181SOL    MW4 8799   0.017   2.707   3.835  0.0962 -0.3309 -0.2580
 2182SOL     OW 8800   0.213   2.839   3.718 -0.3575 -0.5483 -0.2205
 2182SOL    HW2 8801   0.282   2.790   3.763 -0.9084 -1.1501 -0.0322
 2182SOL    HW3 8802   0.229   2.823   3.625  2.0136  2.3151 -0.4060
 2182SOL    MW4 8803   0.225   2.830   3.712 -0.1173 -0.2499 -0.2201
 2183SOL     OW 8804   0.206   3.112   3.775  0.0555  0.3140 -0.1512
 2183SOL    HW2 8805   0.201   3.095   3.869  0.1507 -0.2798 -0.2553
 2183SOL    HW3 8806   0.209   3.026   3.734  0.5365  0.5739 -0.6766
 2183SOL    MW4 8807   0.205   3.099   3.782  0.1315  0.2701 -0.2344
 2184SOL     OW 8808   4.468   3.269   3.715 -0.0636  0.0844 -0.5573
 2184SOL    HW2 8809   4.536   3.215   3.756 -0.5184 -0.8940 -1.0904
 2184SOL    HW3 8810   4.480   3.255   3.621 -1.0193 -0.1116 -0.6513
 2184SOL    MW4 8811   4.478   3.260   3.708 -0.2497 -0.0706 -0.6402
 2185SOL     OW 8812   4.483   3.507   3.838 -0.3650  0.1006 -0.4850
 2185SOL    HW2 8813   4.560   3.551   3.802  0.5619  0.3753  1.7510
 2185SOL    HW3 8814   4.478   3.424   3.790  1.2330  0.1512 -0.7620
 2185SOL    MW4 8815   4.493   3.501   3.827 -0.0319  0.1433 -0.2265
 2186SOL     OW 8816   0.238   3.605   3.748 -0.0333  0.3856  0.1065
 2186SOL    HW2 8817   0.311   3.549   3.776  0.0599  0.2841 -0.3437
 2186SOL    HW3 8818   0.242   3.679   3.809 -0.8084 -0.5889  1.3658
 2186SOL    MW4 8819   0.248   3.607   3.760 -0.1233  0.2437  0.2131
 2187SOL     OW 8820   0.225   3.838   3.910  0.7531  0.1714  0.3064
 2187SOL    HW2 8821   0.226   3.834   4.005  0.9944 -0.4543  0.2760
 2187SOL    HW3 8822   0.306   3.883   3.887 -0.5185  2.6539  0.5035
 2187SOL    MW4 8823   0.236   3.844   3.919  0.6172  0.4168  0.3285
 2188SOL     OW 8824   0.030   3.980   3.752  0.0420 -0.5051  0.2759
 2188SOL    HW2 8825  -0.060   3.963   3.778 -0.0066 -1.2752 -0.3984
 2188SOL    HW3 8826   0.082   3.920   3.805  0.0125 -1.3858 -0.6672
 2188SOL    MW4 8827   0.025   3.970   3.762  0.0317 -0.7229  0.0625
 2189SOL     OW 8828   0.006   4.249   3.861 -0.3332 -0.0993 -0.1952
 2189SOL    HW2 8829   0.089   4.291   3.838  0.7534 -1.2969  1.3542
 2189SOL    HW3 8830   0.018   4.157   3.837 -0.8078 -0.4884  0.9873
 2189SOL    MW4 8831   0.019   4.242   3.855 -0.2525 -0.3085  0.1652
 2190SOL     OW 8832   0.230   4.368   3.779 -0.1967  0.2715  0.3539
 2190SOL    HW2 8833   0.300   4.323   3.826 -0.5858  1.3394  2.0039
 2190SOL    HW3 8834   0.221   4.452   3.824 -3.0605 -0.1519  0.6602
 2190SOL    MW4 8835   0.238   4.373   3.791 -0.6259  0.3567  0.6120
 2191SOL     OW 8836   0.677   4.611   3.895 -0.0221 -0.1439 -0.1523
 2191SOL    HW2 8837   0.671   4.523   3.859 -1.5637 -0.3237  0.5487
 2191SOL    HW3 8838   0.596   4.654   3.868 -1.2260 -0.2800  3.0971
 2191SOL    MW4 8839   0.666   4.605   3.886 -0.3844 -0.1855  0.3688
 2192SOL     OW 8840   0.443   0.084   3.766 -0.1193 -0.4547  0.3112
 2192SOL    HW2 8841   0.437   0.174   3.796 -0.6905 -0.0910 -0.8728
 2192SOL    HW3 8842   0.371   0.039   3.810 -0.4780 -0.0992  0.0918
 2192SOL    MW4 8843   0.433   0.090   3.776 -0.2420 -0.3598  0.1259
 2193SOL     OW 8844   0.435   0.348   3.832  0.0782  0.1321 -0.5620
 2193SOL    HW2 8845   0.507   0.393   3.788  0.3154  0.5354  0.2309
 2193SOL    HW3 8846   0.358   0.401   3.812  0.4643  1.2788  0.9257
 2193SOL    MW4 8847   0.435   0.361   3.824  0.1605  0.3366 -0.2613
 2194SOL     OW 8848   0.646   0.490   3.726 -0.0501 -0.0134  0.3965
 2194SOL    HW2 8849   0.726   0.452   3.763  1.8949  2.0731 -1.4363
 2194SOL    HW3 8850   0.637   0.574   3.770 -0.3490  0.4318 -0.4947
 2194SOL    MW4 8851   0.656   0.496   3.737  0.1671  0.3207  0.0370
 2195SOL     OW 8852   0.634   0.734   3.874 -0.1128  0.3304 -0.3424
 2195SOL    HW2 8853   0.710   0.786   3.847  0.1893  0.1693  0.1918
 2195SOL    HW3 8854   0.559   0.782   3.841  0.1221  1.4986  0.8103
 2195SOL    MW4 8855   0.634   0.747   3.866 -0.0420  0.4632 -0.1202
 2196SOL     OW 8856   0.416   0.873   3.781  0.0290 -0.5615  0.0925
 2196SOL    HW2 8857   0.408   0.968   3.786  1.9012 -0.4348  0.8679
 2196SOL    HW3 8858   0.334   0.840   3.818  0.7353  0.7136  2.8920
 2196SOL    MW4 8859   0.404   0.881   3.787  0.3692 -0.3765  0.5641
 2197SOL     OW 8860   0.402   1.152   3.780  0.0559  0.1011 -0.3605
 2197SOL    HW2 8861   0.487   1.196   3.774  0.0077  0.5671  1.8920
 2197SOL    HW3 8862   0.338   1.220   3.760  0.1886 -0.0913 -1.4333
 2197SOL    MW4 8863   0.405   1.167   3.777  0.0671  0.1372 -0.2048
 2198SOL     OW 8864   0.626   1.292   3.729  0.4992 -0.2577 -0.4391
 2198SOL    HW2 8865   0.707   1.249   3.757  0.9386  0.3170 -0.8203
 2198SOL    HW3 8866   0.630   1.290   3.634  0.5885  0.7588 -0.4557
 2198SOL    MW4 8867   0.637   1.286   3.720  0.5689 -0.0478 -0.4916
 2199SOL     OW 8868   0.627   1.545   3.819 -0.2139 -0.0306  0.4016
 2199SOL    HW2 8869   0.710   1.588   3.797 -0.6857  1.9461  2.3437
 2199SOL    HW3 8870   0.631   1.461   3.774  2.2659  0.6011 -0.6288
 2199SOL    MW4 8871   0.639   1.540   3.810  0.0510  0.3135  0.5219
 2200SOL     OW 8872   0.408   1.700   3.729  0.0825  0.2153  0.4106
 2200SOL    HW2 8873   0.476   1.648   3.772  0.1357 -0.2937 -0.2792
 2200SOL    HW3 8874   0.326   1.662   3.760  0.1207 -0.1110  0.1162
 2200SOL    MW4 8875   0.406   1.688   3.738  0.0945  0.1051  0.2809
 2201SOL     OW 8876   0.449   1.927   3.875  0.5438 -0.3316 -0.3762
 2201SOL    HW2 8877   0.451   1.839   3.837 -0.0770  0.3100 -1.9533
 2201SOL    HW3 8878   0.379   1.972   3.828 -0.1894  0.5460  1.4762
 2201SOL    MW4 8879   0.440   1.921   3.864  0.3651 -0.1311 -0.3397
 2202SOL     OW 8880   0.675   2.082   3.778 -0.1928  0.0053 -0.4119
 2202SOL    HW2 8881   0.683   2.171   3.813  0.9203 -0.3546  0.2734
 2202SOL    HW3 8882   0.599   2.046   3.823 -0.2734  0.3921 -0.2312
 2202SOL    MW4 8883   0.666   2.089   3.788 -0.0565  0.0091 -0.2978
 2203SOL     OW 8884   0.682   2.326   3.907  0.1611  0.1261 -0.1308
 2203SOL    HW2 8885   0.755   2.378   3.872 -0.7393  0.6202 -1.2819
 2203SOL    HW3 8886   0.604   2.367   3.872 -0.6048 -1.5094 -0.3715
 2203SOL    MW4 8887   0.682   2.338   3.898 -0.0587 -0.0243 -0.3142
 2204SOL     OW 8888   0.461   2.418   3.763 -0.5773 -0.1520  0.2420
 2204SOL    HW2 8889   0.383   2.371   3.793 -0.9783  0.2099 -0.2384
 2204SOL    HW3 8890   0.457   2.413   3.668 -0.6686  0.9331  0.1850
 2204SOL    MW4 8891   0.450   2.411   3.755 -0.6422  0.0391  0.1709
 2205SOL     OW 8892   0.444   2.685   3.807  0.0395 -0.6060 -0.3500
 2205SOL    HW2 8893   0.528   2.712   3.768  0.6398 -1.1870  0.5128
 2205SOL    HW3 8894   0.444   2.590   3.796 -1.0797 -0.4831 -1.4628
 2205SOL    MW4 8895   0.455   2.676   3.800 -0.0290 -0.6664 -0.3829
 2206SOL     OW 8896   0.686   2.840   3.729 -0.0200  0.4394  0.0496
 2206SOL    HW2 8897   0.765   2.796   3.762  0.5235  0.3850 -1.2866
 2206SOL    HW3 8898   0.689   2.826   3.634 -1.7704  0.2407  0.0181
 2206SOL    MW4 8899   0.697   2.832   3.721 -0.1793  0.4060 -0.1311
 2207SOL     OW 8900   0.677   3.105   3.820 -0.4615  0.0444  0.3671
 2207SOL    HW2 8901   0.683   3.095   3.915  0.7799 -1.3947  0.1450
 2207SOL    HW3 8902   0.684   3.016   3.785  0.4873  0.6927 -1.1506
 2207SOL    MW4 8903   0.678   3.092   3.828 -0.1726 -0.0601  0.1373
 2208SOL     OW 8904   0.449   3.233   3.698  0.2885  0.3727 -0.2972
 2208SOL    HW2 8905   0.521   3.186   3.739 -0.1492 -0.5281 -0.5500
 2208SOL    HW3 8906   0.370   3.190   3.732 -0.1562  1.8588  0.5920
 2208SOL    MW4 8907   0.448   3.221   3.708  0.1721  0.4501 -0.2134
 2209SOL     OW 8908   0.442   3.466   3.817 -0.3375  0.2036  0.1134
 2209SOL    HW2 8909   0.530   3.497   3.794  0.0422 -1.0126 -0.0891
 2209SOL    HW3 8910   0.435   3.379   3.778 -1.1586 -0.2448  1.2040
 2209SOL    MW4 8911   0.453   3.459   3.809 -0.3957 -0.0162  0.2303
 2210SOL     OW 8912   0.689   3.585   3.760 -0.8651 -0.0362 -0.3384
 2210SOL    HW2 8913   0.692   3.675   3.791  0.2170  0.1156 -0.8335
 2210SOL    HW3 8914   0.671   3.593   3.666 -0.0514 -0.2896 -0.5237
 2210SOL    MW4 8915   0.687   3.598   3.752 -0.6149 -0.0496 -0.4284
 2211SOL     OW 8916   0.701   3.841   3.867  0.0242 -0.5334 -0.2265
 2211SOL    HW2 8917   0.712   3.849   3.962 -1.5053 -1.5578  0.0635
 2211SOL    HW3 8918   0.772   3.893   3.830  1.6520 -1.4615  1.4883
 2211SOL    MW4 8919   0.712   3.849   3.875  0.0372 -0.7913  0.0379
 2212SOL     OW 8920   0.463   3.961   3.809  0.1872  0.5234  0.1226
 2212SOL    HW2 8921   0.552   3.930   3.822  0.0294 -0.2924 -0.7459
 2212SOL    HW3 8922   0.455   3.975   3.715 -0.5155  0.8589  0.2276
 2212SOL    MW4 8923   0.473   3.959   3.799  0.0737  0.4604  0.0219
 2213SOL     OW 8924   0.469   4.223   3.886  0.0010 -0.0575  0.3200
 2213SOL    HW2 8925   0.546   4.265   3.846 -0.9453 -0.0496 -1.5606
 2213SOL    HW3 8926   0.474   4.132   3.858 -0.4212 -0.1655  0.5854
 2213SOL    MW4 8927   0.480   4.217   3.877 -0.1796 -0.0710  0.1068
 2214SOL     OW 8928   0.684   4.344   3.784 -0.0821  0.1029  0.1337
 2214SOL    HW2 8929   0.773   4.320   3.808  0.3656  1.3154 -0.2935
 2214SOL    HW3 8930   0.687   4.353   3.688 -0.8206 -0.5079  0.0483
 2214SOL    MW4 8931   0.696   4.342   3.774 -0.1204  0.1822  0.0660
 2215SOL     OW 8932   1.158   4.640   3.873 -0.3209 -0.0441  0.2297
 2215SOL    HW2 8933   1.221   4.682   3.814 -1.7016  0.9337 -0.5835
 2215SOL    HW3 8934   1.177   4.546   3.865  0.2692  0.1574 -0.8841
 2215SOL    MW4 8935   1.169   4.633   3.864 -0.4252  0.1106 -0.0246
 2216SOL     OW 8936   0.899   0.074   3.804  0.0935  0.0218 -0.1718
 2216SOL    HW2 8937   0.986   0.050   3.834 -0.0599  1.6725  1.6834
 2216SOL    HW3 8938   0.841   0.008   3.842  0.2548  0.2871  0.5227
 2216SOL    MW4 8939   0.903   0.062   3.813  0.0945  0.2745  0.1647
 2217SOL     OW 8940   0.862   0.345   3.837 -0.2814  0.2787  0.2231
 2217SOL    HW2 8941   0.835   0.342   3.929  0.3367  0.4276  0.4120
 2217SOL    HW3 8942   0.863   0.253   3.809 -0.3516  0.2236  0.3997
 2217SOL    MW4 8943   0.859   0.332   3.846 -0.2092  0.2911  0.2713
 2218SOL     OW 8944   1.078   0.479   3.752  0.1471 -0.3548  0.3498
 2218SOL    HW2 8945   1.151   0.422   3.778 -0.0631 -1.1353 -0.6837
 2218SOL    HW3 8946   0.999   0.430   3.776 -0.0399 -0.7476 -0.9737
 2218SOL    MW4 8947   1.077   0.465   3.758  0.0948 -0.5096  0.0386
 2219SOL     OW 8948   1.075   0.753   3.824 -0.0388  0.1413  0.4917
 2219SOL    HW2 8949   1.109   0.749   3.913 -0.0230  0.4537  0.5012
 2219SOL    HW3 8950   1.053   0.663   3.802 -0.5105  0.1337  0.9950
 2219SOL    MW4 8951   1.077   0.741   3.832 -0.0989  0.1815  0.5593
 2220SOL     OW 8952   0.829   0.889   3.799  0.3732 -0.3198 -0.5049
 2220SOL    HW2 8953   0.918   0.853   3.806  0.4619 -0.1294 -0.6521
 2220SOL    HW3 8954   0.819   0.910   3.706  0.4825  0.4410 -0.3447
 2220SOL    MW4 8955   0.840   0.887   3.788  0.3993 -0.1942 -0.5031
 2221SOL     OW 8956   0.835   1.158   3.858 -0.2006 -0.2996  0.2439
 2221SOL    HW2 8957   0.775   1.167   3.931  0.2010  0.2555  0.5070
 2221SOL    HW3 8958   0.843   1.063   3.844 -1.9784 -0.3571 -0.4933
 2221SOL    MW4 8959   0.829   1.146   3.866 -0.3822 -0.2339  0.1812
 2222SOL     OW 8960   1.080   1.314   3.774 -0.0900  0.1140  0.0605
 2222SOL    HW2 8961   1.083   1.405   3.804  0.6250  0.6645 -1.6025
 2222SOL    HW3 8962   0.996   1.281   3.806  0.2900  0.8854  1.9683
 2222SOL    MW4 8963   1.069   1.322   3.783  0.0544  0.2885  0.0927
 2223SOL     OW 8964   1.098   1.573   3.862  0.3919 -0.6253  0.2628
 2223SOL    HW2 8965   1.125   1.566   3.954  0.2115  0.7916  0.4331
 2223SOL    HW3 8966   1.173   1.612   3.818 -0.7505  1.8781  0.4494
 2223SOL    MW4 8967   1.111   1.577   3.868  0.2174 -0.1081  0.3099
 2224SOL     OW 8968   0.869   1.690   3.738 -0.3352 -0.4431 -0.1833
 2224SOL    HW2 8969   0.941   1.637   3.773  1.1896  0.9667 -1.0765
 2224SOL    HW3 8970   0.883   1.688   3.643 -0.9588  0.5448 -0.2997
 2224SOL    MW4 8971   0.881   1.683   3.730 -0.2163 -0.1268 -0.3164
 2225SOL     OW 8972   0.886   1.943   3.878  0.3387 -0.0072  0.2169
 2225SOL    HW2 8973   0.869   1.861   3.831 -2.1466  0.5413  0.0901
 2225SOL    HW3 8974   0.814   2.001   3.853  0.5389  1.2918  2.4579
 2225SOL    MW4 8975   0.874   1.940   3.869  0.0373  0.2366  0.4959
 2226SOL     OW 8976   1.115   2.065   3.774  0.1791 -0.5626  0.0335
 2226SOL    HW2 8977   1.039   2.017   3.808 -0.6071 -0.0867 -1.0433
 2226SOL    HW3 8978   1.104   2.063   3.679  0.4391  1.2312 -0.0443
 2226SOL    MW4 8979   1.103   2.058   3.766  0.1097 -0.2627 -0.1187
 2227SOL     OW 8980   1.090   2.331   3.850 -0.2494  0.1687  0.0677
 2227SOL    HW2 8981   1.096   2.326   3.946 -0.5907  0.2954  0.0979
 2227SOL    HW3 8982   1.108   2.242   3.820  0.5549  0.2832  0.2152
 2227SOL    MW4 8983   1.093   2.319   3.859 -0.1884  0.2003  0.0911
 2228SOL     OW 8984   0.879   2.476   3.750  0.1572  0.2429 -0.8533
 2228SOL    HW2 8985   0.895   2.564   3.786 -0.0552  0.4465 -1.2607
 2228SOL    HW3 8986   0.957   2.426   3.775  0.6168  0.7513 -1.2756
 2228SOL    MW4 8987   0.891   2.481   3.758  0.1898  0.3366 -0.9630
 2229SOL     OW 8988   0.916   2.740   3.846  0.2553 -0.5661 -0.1277
 2229SOL    HW2 8989   0.922   2.737   3.942  0.2059 -0.3728 -0.1178
 2229SOL    HW3 8990   0.999   2.780   3.819 -0.1611  0.3269 -0.1040
 2229SOL    MW4 8991   0.928   2.745   3.855  0.1938 -0.4227 -0.1235
 2230SOL     OW 8992   1.176   2.846   3.734 -0.3128  0.6133  0.1378
 2230SOL    HW2 8993   1.242   2.802   3.788 -1.6030 -1.7525 -0.1554
 2230SOL    HW3 8994   1.160   2.929   3.780  1.5903  0.4642  1.1414
 2230SOL    MW4 8995   1.183   2.851   3.747 -0.2320  0.2816  0.2315
 2231SOL     OW 8996   1.127   3.071   3.872 -0.5528  0.0792  0.3483
 2231SOL    HW2 8997   1.206   3.121   3.854 -1.3513  1.7894  1.3975
 2231SOL    HW3 8998   1.057   3.122   3.830 -1.3102 -0.4293  0.9712
 2231SOL    MW4 8999   1.128   3.084   3.864 -0.7582  0.2377  0.5691
 2232SOL     OW 9000   0.912   3.210   3.724 -0.3817 -0.1583 -0.3198
 2232SOL    HW2 9001   0.824   3.185   3.754 -0.1312 -0.5011  0.1359
 2232SOL    HW3 9002   0.904   3.213   3.628 -0.4565 -1.9013 -0.3859
 2232SOL    MW4 9003   0.899   3.207   3.715 -0.3585 -0.4332 -0.2682
 2233SOL     OW 9004   0.928   3.464   3.819 -0.0878  0.0416  0.3779
 2233SOL    HW2 9005   0.928   3.379   3.775 -0.3529  0.6467 -0.8386
 2233SOL    HW3 9006   0.842   3.501   3.799  0.0014  0.5629  0.9539
 2233SOL    MW4 9007   0.917   3.458   3.810 -0.1110  0.1905  0.2933
 2234SOL     OW 9008   1.151   3.609   3.760 -0.1643 -0.2404 -0.3930
 2234SOL    HW2 9009   1.134   3.691   3.805 -0.3210  0.1353 -1.1292
 2234SOL    HW3 9010   1.073   3.556   3.774 -1.0129  0.6157 -1.8649
 2234SOL    MW4 9011   1.139   3.613   3.768 -0.2970 -0.0780 -0.6845
 2235SOL     OW 9012   1.092   3.860   3.852 -0.1219  0.1814  0.1638
 2235SOL    HW2 9013   1.094   3.878   3.946  0.5496 -0.8735  0.3722
 2235SOL    HW3 9014   1.171   3.902   3.817 -0.1702  0.2513  0.1399
 2235SOL    MW4 9015   1.103   3.868   3.860 -0.0397  0.0513  0.1881
 2236SOL     OW 9016   0.884   4.022   3.758  0.3643 -0.5406  0.0647
 2236SOL    HW2 9017   0.956   3.962   3.779  1.0395  0.1687 -0.1729
 2236SOL    HW3 9018   0.883   4.025   3.662 -0.3972 -1.0391  0.0579
 2236SOL    MW4 9019   0.893   4.015   3.748  0.3529 -0.5131  0.0327
 2237SOL     OW 9020   0.930   4.266   3.890  0.5345  0.0325 -0.1020
 2237SOL    HW2 9021   0.938   4.267   3.985 -1.0698  0.1798  0.0337
 2237SOL    HW3 9022   0.914   4.174   3.868 -2.8751  0.5062  0.1182
 2237SOL    MW4 9023   0.929   4.254   3.899 -0.1270  0.1144 -0.0551
 2238SOL     OW 9024   1.171   4.350   3.777 -0.1033  0.0626  0.0877
 2238SOL    HW2 9025   1.089   4.328   3.820 -0.7108  1.2210 -0.4610
 2238SOL    HW3 9026   1.148   4.360   3.685  0.7782 -0.2749 -0.1739
 2238SOL    MW4 9027   1.158   4.348   3.771 -0.0674  0.1707 -0.0188
 2239SOL     OW 9028   1.547   4.647   3.878 -0.0801  0.0721  0.2397
 2239SOL    HW2 9029   1.551   4.658   3.973  1.9804 -1.0085  0.3117
 2239SOL    HW3 9030   1.552   4.552   3.865 -0.4221  0.2105 -0.9416
 2239SOL    MW4 9031   1.548   4.636   3.889  0.1467 -0.0520  0.0937
 2240SOL     OW 9032   1.354   0.085   3.703  0.9281 -0.0429 -0.2175
 2240SOL    HW2 9033   1.336   0.171   3.742 -0.8095 -0.6628  0.4083
 2240SOL    HW3 9034   1.409   0.040   3.766 -1.9598 -1.0865  1.6634
 2240SOL    MW4 9035   1.359   0.091   3.716  0.3178 -0.2624  0.1132
 2241SOL     OW 9036   1.291   0.320   3.804 -0.3949  0.1032 -0.5378
 2241SOL    HW2 9037   1.295   0.310   3.899  0.5027 -0.3340 -0.6141
 2241SOL    HW3 9038   1.343   0.399   3.786  0.6644 -0.6293 -0.7795
 2241SOL    MW4 9039   1.299   0.329   3.814 -0.1367 -0.0511 -0.5801
 2242SOL     OW 9040   1.471   0.531   3.758  0.5471  0.6412 -0.3084
 2242SOL    HW2 9041   1.548   0.478   3.778  1.0340  0.9432 -1.3245
 2242SOL    HW3 9042   1.477   0.605   3.819  0.4905  0.1160  0.3299
 2242SOL    MW4 9043   1.482   0.534   3.768  0.6040  0.6117 -0.3583
 2243SOL     OW 9044   1.494   0.787   3.878  0.2853 -0.1325 -0.7057
 2243SOL    HW2 9045   1.582   0.811   3.850  0.4663  2.1601  1.5887
 2243SOL    HW3 9046   1.436   0.839   3.823  0.4771  0.5589 -0.2626
 2243SOL    MW4 9047   1.498   0.797   3.867  0.3345  0.2612 -0.3443
 2244SOL     OW 9048   1.294   0.902   3.727 -0.0593 -0.3576  0.4060
 2244SOL    HW2 9049   1.278   0.979   3.783 -0.0967  1.5945 -2.1929
 2244SOL    HW3 9050   1.218   0.846   3.741 -2.0511  1.9929 -0.7109
 2244SOL    MW4 9051   1.282   0.905   3.736 -0.3271  0.2100 -0.0842
 2245SOL     OW 9052   1.299   1.135   3.867 -0.0325  0.2567  0.4313
 2245SOL    HW2 9053   1.368   1.190   3.828  0.2201 -0.4947 -0.1966
 2245SOL    HW3 9054   1.218   1.185   3.852  0.2641  0.7265  0.3758
 2245SOL    MW4 9055   1.297   1.149   3.860  0.0398  0.2195  0.3412
 2246SOL     OW 9056   1.510   1.296   3.760 -0.0197 -0.1073 -0.3636
 2246SOL    HW2 9057   1.591   1.260   3.797  0.8853  1.6343 -0.6165
 2246SOL    HW3 9058   1.509   1.388   3.789 -1.1792  0.2760 -1.5785
 2246SOL    MW4 9059   1.521   1.304   3.769 -0.0533  0.1731 -0.5572
 2247SOL     OW 9060   1.505   1.574   3.832 -0.4037 -0.4146 -0.0803
 2247SOL    HW2 9061   1.533   1.588   3.923  0.1465 -0.3004 -0.2648
 2247SOL    HW3 9062   1.582   1.596   3.780 -0.6415 -0.7213 -0.5637
 2247SOL    MW4 9063   1.519   1.579   3.837 -0.3624 -0.4400 -0.1686
 2248SOL     OW 9064   1.309   1.714   3.726 -0.9520  0.1576  0.2487
 2248SOL    HW2 9065   1.298   1.798   3.771  0.7744  1.0311 -0.8988
 2248SOL    HW3 9066   1.384   1.673   3.769 -1.1599 -0.3377  0.1380
 2248SOL    MW4 9067   1.317   1.720   3.738 -0.7516  0.2074  0.0825
 2249SOL     OW 9068   1.313   1.926   3.918  0.2608  0.1898 -0.2141
 2249SOL    HW2 9069   1.331   1.958   4.007 -2.0439 -1.6204  0.9648
 2249SOL    HW3 9070   1.243   1.983   3.886  0.1195 -0.0431 -0.3200
 2249SOL    MW4 9071   1.306   1.938   3.926 -0.0619 -0.0796 -0.0722
 2250SOL     OW 9072   1.528   2.041   3.774 -0.0086 -0.2151  0.3895
 2250SOL    HW2 9073   1.457   1.990   3.812  0.0785 -1.8673 -1.5540
 2250SOL    HW3 9074   1.519   2.029   3.680  1.5647  1.3106  0.0015
 2250SOL    MW4 9075   1.517   2.033   3.767  0.2104 -0.2320  0.0820
 2251SOL     OW 9076   1.787   2.443   3.790  0.0291  0.0191 -0.2113
 2251SOL    HW2 9077   1.786   2.476   3.700  1.3282  1.0117  0.1264
 2251SOL    HW3 9078   1.805   2.521   3.844  2.4799 -1.0926  0.6582
 2251SOL    MW4 9079   1.789   2.458   3.785  0.5237  0.0033 -0.0520
 2252SOL     OW 9080   1.334   2.468   3.793 -0.5747 -0.8179  0.2998
 2252SOL    HW2 9081   1.409   2.411   3.809 -0.2240 -0.5702 -0.4044
 2252SOL    HW3 9082   1.259   2.421   3.828  0.1070 -0.4425  2.3072
 2252SOL    MW4 9083   1.334   2.455   3.800 -0.4385 -0.7358  0.4718
 2253SOL     OW 9084   1.383   2.721   3.881 -0.3943 -0.0158 -0.0725
 2253SOL    HW2 9085   1.390   2.718   3.976 -1.9828 -1.1816  0.0135
 2253SOL    HW3 9086   1.367   2.630   3.854  0.0517  0.2913 -1.4565
 2253SOL    MW4 9087   1.382   2.708   3.890 -0.5448 -0.1292 -0.2439
 2254SOL     OW 9088   1.606   2.837   3.758  0.4334 -0.4966  0.6969
 2254SOL    HW2 9089   1.544   2.784   3.807  1.8006 -2.5179  0.2972
 2254SOL    HW3 9090   1.574   2.836   3.668  0.3748 -0.5065  0.7175
 2254SOL    MW4 9091   1.594   2.830   3.753  0.6062 -0.7646  0.6466
 2255SOL     OW 9092   1.596   3.115   3.872 -0.0007 -0.1404  0.0632
 2255SOL    HW2 9093   1.613   3.095   3.964 -1.2932 -0.5216  0.2403
 2255SOL    HW3 9094   1.596   3.029   3.829 -2.0988 -0.2508  0.2081
 2255SOL    MW4 9095   1.598   3.101   3.879 -0.4480 -0.2053  0.1059
 2256SOL     OW 9096   1.338   3.231   3.789  0.0293  0.0848 -0.3998
 2256SOL    HW2 9097   1.340   3.315   3.835  0.1628 -0.9573  1.5539
 2256SOL    HW3 9098   1.427   3.198   3.796 -0.8163 -1.8225  1.9455
 2256SOL    MW4 9099   1.350   3.238   3.796 -0.0646 -0.3042  0.1674
 2257SOL     OW 9100   1.361   3.494   3.873  0.2255 -0.2736 -0.2665
 2257SOL    HW2 9101   1.441   3.534   3.838 -0.0029 -0.0398 -0.5218
 2257SOL    HW3 9102   1.290   3.547   3.836  0.0211  0.6794  1.4513
 2257SOL    MW4 9103   1.362   3.507   3.863  0.1684 -0.1168 -0.0737
 2258SOL     OW 9104   1.590   3.613   3.765 -0.6860  0.0786  0.4523
 2258SOL    HW2 9105   1.675   3.576   3.787  0.1324  1.7607  0.2045
 2258SOL    HW3 9106   1.596   3.706   3.790 -1.8334  0.6103 -1.1171
 2258SOL    MW4 9107   1.602   3.621   3.771 -0.7294  0.3705  0.2127
 2259SOL     OW 9108   1.574   3.871   3.852 -0.4693  0.1289  0.2441
 2259SOL    HW2 9109   1.567   3.884   3.946 -0.5617  0.3727  0.2023
 2259SOL    HW3 9110   1.489   3.898   3.817  0.1118  1.5496 -0.0787
 2259SOL    MW4 9111   1.562   3.876   3.859 -0.4047  0.3486  0.1962
 2260SOL     OW 9112   1.341   3.979   3.761 -0.0153  0.4406 -0.4921
 2260SOL    HW2 9113   1.366   4.062   3.801 -0.8005  0.7983 -0.7348
 2260SOL    HW3 9114   1.342   3.996   3.667  0.4707 -0.0125 -0.5733
 2260SOL    MW4 9115   1.344   3.992   3.754 -0.0547  0.4280 -0.5348
 2261SOL     OW 9116   1.391   4.215   3.875  0.4456  0.6717 -0.0413
 2261SOL    HW2 9117   1.462   4.270   3.841  1.0014  0.0769  0.1575
 2261SOL    HW3 9118   1.311   4.265   3.856  0.9284  1.4496 -0.0582
 2261SOL    MW4 9119   1.390   4.229   3.868  0.5826  0.6957 -0.0174
 2262SOL     OW 9120   1.583   4.387   3.774 -0.1341 -0.2821  0.2819
 2262SOL    HW2 9121   1.671   4.349   3.784  0.2751  0.5336 -0.1699
 2262SOL    HW3 9122   1.575   4.403   3.680 -0.8539 -0.5430  0.2978
 2262SOL    MW4 9123   1.594   4.384   3.763 -0.1750 -0.2084  0.2244
 2263SOL     OW 9124   1.997   0.015   3.824 -0.0229  0.2093  0.0002
 2263SOL    HW2 9125   2.081   0.055   3.802 -0.8756  2.2480  0.3277
 2263SOL    HW3 9126   2.009  -0.079   3.806  2.6314  0.3228  1.0243
 2263SOL    MW4 9127   2.010   0.008   3.819  0.2151  0.4932  0.1786
 2264SOL     OW 9128   1.759   0.108   3.729  0.2266 -0.2369 -0.1054
 2264SOL    HW2 9129   1.834   0.071   3.777 -0.2351  0.8896  1.5138
 2264SOL    HW3 9130   1.685   0.055   3.757 -0.1820  0.9301  1.0831
 2264SOL    MW4 9131   1.759   0.096   3.739  0.1118  0.0657  0.2651
 2265SOL     OW 9132   1.728   0.371   3.818 -0.0728  0.3010 -0.3344
 2265SOL    HW2 9133   1.742   0.364   3.913 -2.1760  1.1776  0.0598
 2265SOL    HW3 9134   1.722   0.280   3.789  0.6171  0.0212  0.3629
 2265SOL    MW4 9135   1.729   0.358   3.827 -0.2594  0.3797 -0.1903
 2266SOL     OW 9136   2.000   0.439   3.742  0.1509 -0.2744  0.3245
 2266SOL    HW2 9137   1.915   0.401   3.763 -0.8365  1.5222 -0.2923
 2266SOL    HW3 9138   1.996   0.455   3.648  1.2027 -0.2607  0.2817
 2266SOL    MW4 9139   1.988   0.436   3.732  0.1595 -0.0355  0.2375
 2267SOL     OW 9140   1.963   0.725   3.835  0.0742 -0.2561 -0.1365
 2267SOL    HW2 9141   1.975   0.746   3.927 -0.2305  1.4248 -0.4700
 2267SOL    HW3 9142   1.966   0.629   3.832 -0.1544 -0.3361  1.6429
 2267SOL    MW4 9143   1.965   0.715   3.847  0.0038 -0.0448  0.0544
 2268SOL     OW 9144   1.768   0.914   3.760 -0.0045  0.0999  0.0740
 2268SOL    HW2 9145   1.851   0.868   3.771  1.6397  3.0189  0.4738
 2268SOL    HW3 9146   1.770   0.946   3.670 -0.7800  0.0461  0.0342
 2268SOL    MW4 9147   1.780   0.912   3.750  0.1100  0.4780  0.1216
 2269SOL     OW 9148   1.747   1.180   3.853 -0.3375 -0.2910 -0.7441
 2269SOL    HW2 9149   1.756   1.188   3.948  0.2902  0.4468 -0.8587
 2269SOL    HW3 9150   1.755   1.087   3.836  2.0816 -0.2095 -0.3033
 2269SOL    MW4 9151   1.749   1.169   3.863  0.0646 -0.1829 -0.7007
 2270SOL     OW 9152   1.993   1.286   3.761  0.0864 -0.1472 -0.0334
 2270SOL    HW2 9153   1.908   1.253   3.791  0.2504 -0.5846 -0.0472
 2270SOL    HW3 9154   2.057   1.225   3.797  0.3687 -0.0313 -0.3324
 2270SOL    MW4 9155   1.990   1.274   3.769  0.1452 -0.1895 -0.0749
 2271SOL     OW 9156   1.866   0.689   4.608 -0.2419  0.2074  0.3864
 2271SOL    HW2 9157   1.874   0.777   4.570  0.4180  0.2690  0.6500
 2271SOL    HW3 9158   1.808   0.700   4.683  1.6480  0.8741  1.7897
 2271SOL    MW4 9159   1.860   0.702   4.613  0.0944  0.3034  0.6061
 2272SOL     OW 9160   1.745   1.892   3.845 -0.1703 -0.9885 -0.2806
 2272SOL    HW2 9161   1.669   1.948   3.827  0.0571 -0.5175  0.2110
 2272SOL    HW3 9162   1.757   1.899   3.940  1.2006 -0.1607 -0.5189
 2272SOL    MW4 9163   1.736   1.900   3.855  0.0407 -0.8172 -0.2472
 2273SOL     OW 9164   1.764   1.643   3.732  0.4085  0.0508 -0.0135
 2273SOL    HW2 9165   1.763   1.652   3.637  1.5962  2.1171  0.1518
 2273SOL    HW3 9166   1.745   1.731   3.766  1.1682 -0.3989  1.6653
 2273SOL    MW4 9167   1.761   1.656   3.724  0.6654  0.2642  0.2301
 2274SOL     OW 9168   1.974   2.002   3.767  0.1466  0.6172 -0.1747
 2274SOL    HW2 9169   1.960   2.082   3.817 -1.2602  0.7372 -0.7458
 2274SOL    HW3 9170   1.898   1.947   3.787  0.3091  0.0736 -1.0203
 2274SOL    MW4 9171   1.962   2.006   3.776 -0.0176  0.5612 -0.3617
 2275SOL     OW 9172   1.937   2.217   3.932 -0.3004  0.3786  0.2756
 2275SOL    HW2 9173   1.971   2.217   4.021 -0.7896  1.0977  0.4706
 2275SOL    HW3 9174   1.890   2.300   3.924 -1.6216 -0.3836 -0.1167
 2275SOL    MW4 9175   1.935   2.228   3.943 -0.5392  0.3729  0.2496
 2276SOL     OW 9176   2.064   2.631   4.243  0.2121  0.1927 -0.4942
 2276SOL    HW2 9177   2.097   2.681   4.318  0.2492  1.7988 -1.5811
 2276SOL    HW3 9178   2.099   2.543   4.256  0.8423  0.6503  0.9763
 2276SOL    MW4 9179   2.073   2.626   4.255  0.3002  0.4652 -0.4435
 2277SOL     OW 9180   1.838   2.698   3.891 -0.4667  0.0269 -0.2208
 2277SOL    HW2 9181   1.832   2.727   3.982 -2.7687 -1.3968  0.1438
 2277SOL    HW3 9182   1.765   2.741   3.847 -0.8057 -1.1347 -0.8347
 2277SOL    MW4 9183   1.828   2.707   3.897 -0.8152 -0.3142 -0.2537
 2278SOL     OW 9184   2.040   2.782   3.711  0.3534  0.0027  0.1516
 2278SOL    HW2 9185   2.117   2.726   3.720  0.8093  0.8409  1.6797
 2278SOL    HW3 9186   1.974   2.742   3.767  0.7772  1.1433  1.4848
 2278SOL    MW4 9187   2.042   2.770   3.719  0.4694  0.2637  0.5291
 2279SOL     OW 9188   2.031   3.026   3.864 -0.1423  0.2952  0.2938
 2279SOL    HW2 9189   2.111   3.071   3.838 -0.9953  1.2789 -0.6482
 2279SOL    HW3 9190   2.033   2.944   3.815  0.2046  0.3921  0.1436
 2279SOL    MW4 9191   2.042   3.021   3.854 -0.2091  0.4380  0.1497
 2280SOL     OW 9192   1.841   3.216   3.785  0.0628 -0.0641 -0.2637
 2280SOL    HW2 9193   1.904   3.148   3.810 -0.0187 -0.0258  0.0496
 2280SOL    HW3 9194   1.758   3.186   3.824 -0.2499 -0.4427 -1.2191
 2280SOL    MW4 9195   1.838   3.203   3.794  0.0107 -0.1087 -0.3486
 2281SOL     OW 9196   1.833   3.492   3.840  0.1876  0.1965  0.6656
 2281SOL    HW2 9197   1.915   3.529   3.807  0.1445  0.2636  0.6323
 2281SOL    HW3 9198   1.835   3.400   3.812 -0.1430  0.4126 -0.0983
 2281SOL    MW4 9199   1.844   3.485   3.832  0.1383  0.2339  0.5608
 2282SOL     OW 9200   2.071   3.594   3.767 -0.0450  0.3257 -0.3337
 2282SOL    HW2 9201   2.145   3.543   3.803  0.8445  1.7490 -0.1174
 2282SOL    HW3 9202   2.086   3.592   3.672 -0.7239 -0.8804 -0.4285
 2282SOL    MW4 9203   2.083   3.587   3.759 -0.0172  0.3545 -0.3178
 2283SOL     OW 9204   2.047   3.853   3.900 -0.4303  0.6996  0.0971
 2283SOL    HW2 9205   2.120   3.896   3.856 -0.7197  1.5389  0.4158
 2283SOL    HW3 9206   2.044   3.765   3.864  0.3211  0.8827 -0.4001
 2283SOL    MW4 9207   2.056   3.847   3.890 -0.3693  0.8342  0.0737
 2284SOL     OW 9208   1.838   4.002   3.774  0.2358  0.1978 -0.3348
 2284SOL    HW2 9209   1.911   3.965   3.824 -0.5478  0.2859  0.9045
 2284SOL    HW3 9210   1.760   3.960   3.812 -0.4048  0.6651 -1.1317
 2284SOL    MW4 9211   1.837   3.992   3.786  0.0478  0.2708 -0.2766
 2285SOL     OW 9212   1.839   4.271   3.848 -0.1426  0.5043  0.4346
 2285SOL    HW2 9213   1.916   4.300   3.799 -0.7822  0.5443 -0.5590
 2285SOL    HW3 9214   1.828   4.179   3.825 -0.9814  0.7594 -0.2316
 2285SOL    MW4 9215   1.847   4.263   3.838 -0.3378  0.5426  0.2155
 2286SOL     OW 9216   2.056   4.400   3.739  0.2289 -0.3148 -0.1140
 2286SOL    HW2 9217   2.137   4.352   3.759  0.3613 -0.5873 -1.2471
 2286SOL    HW3 9218   2.061   4.416   3.645 -0.8904 -0.0473 -0.1306
 2286SOL    MW4 9219   2.067   4.395   3.729  0.0987 -0.3157 -0.2658
 2287SOL     OW 9220   2.489   4.646   3.860  0.0774  0.0337 -0.2419
 2287SOL    HW2 9221   2.495   4.655   3.955 -0.5955  0.6757 -0.2514
 2287SOL    HW3 9222   2.560   4.701   3.826  0.0508  0.1449 -0.1197
 2287SOL    MW4 9223   2.499   4.655   3.868 -0.0145  0.1330 -0.2270
 2288SOL     OW 9224   2.247   0.114   3.747  0.0974 -0.1168 -0.0006
 2288SOL    HW2 9225   2.328   0.068   3.772 -0.5210 -0.6222  1.0819
 2288SOL    HW3 9226   2.252   0.119   3.652  2.3289  1.5315  0.1669
 2288SOL    MW4 9227   2.259   0.108   3.738  0.3104  0.0340  0.1640
 2289SOL     OW 9228   2.254   0.359   3.840 -0.1550  0.1022 -0.2287
 2289SOL    HW2 9229   2.253   0.272   3.800 -0.0964 -0.2548  0.5298
 2289SOL    HW3 9230   2.178   0.403   3.803 -0.3046 -0.3468 -0.4609
 2289SOL    MW4 9231   2.244   0.353   3.830 -0.1674 -0.0041 -0.1593
 2290SOL     OW 9232   2.483   0.510   3.751 -0.1573 -0.3084  0.1407
 2290SOL    HW2 9233   2.407   0.462   3.786 -0.0266 -0.7674 -0.1974
 2290SOL    HW3 9234   2.471   0.508   3.656  1.2406 -2.0308 -0.0389
 2290SOL    MW4 9235   2.471   0.503   3.743  0.0446 -0.5962  0.0722
 2291SOL     OW 9236   2.449   0.758   3.884 -0.3405 -0.0629 -0.2375
 2291SOL    HW2 9237   2.374   0.785   3.832 -0.2133 -1.0135 -0.9171
 2291SOL    HW3 9238   2.465   0.667   3.858  1.2959  0.2646 -0.3943
 2291SOL    MW4 9239   2.441   0.749   3.874 -0.1078 -0.1451 -0.3481
 2292SOL     OW 9240   2.221   0.850   3.756  0.0343 -0.3847 -0.7301
 2292SOL    HW2 9241   2.140   0.802   3.777  0.7309 -1.9370 -1.5120
 2292SOL    HW3 9242   2.215   0.865   3.662 -0.0666  0.8893 -0.5276
 2292SOL    MW4 9243   2.209   0.845   3.747  0.1130 -0.4214 -0.8068
 2293SOL     OW 9244   2.209   1.128   3.876  0.2422 -0.2489  0.3552
 2293SOL    HW2 9245   2.217   1.045   3.828  0.1665 -0.3985  0.5980
 2293SOL    HW3 9246   2.275   1.185   3.837 -0.1655 -0.1960 -0.2793
 2293SOL    MW4 9247   2.219   1.124   3.864  0.1783 -0.2618  0.3037
 2294SOL     OW 9248   2.430   1.247   3.763  0.2816  0.1498  0.6029
 2294SOL    HW2 9249   2.432   1.336   3.797  0.5177 -0.4760  2.2919
 2294SOL    HW3 9250   2.511   1.207   3.795 -0.2141 -0.9050  0.5802
 2294SOL    MW4 9251   2.441   1.254   3.772  0.2475 -0.0718  0.8225
 2295SOL     OW 9252   2.419   1.523   3.903  0.0301  0.4241 -0.4994
 2295SOL    HW2 9253   2.355   1.580   3.861 -0.1971 -0.4425 -1.3728
 2295SOL    HW3 9254   2.445   1.569   3.982 -2.6039  0.2217  0.5195
 2295SOL    MW4 9255   2.414   1.536   3.908 -0.3474  0.2830 -0.4802
 2296SOL     OW 9256   1.980   1.547   3.864 -0.3045 -0.1810 -0.0122
 2296SOL    HW2 9257   1.973   1.456   3.833 -1.4585 -0.2436  0.3976
 2296SOL    HW3 9258   1.913   1.594   3.815 -0.6294  0.1754  0.7658
 2296SOL    MW4 9259   1.970   1.541   3.853 -0.4996 -0.1422  0.1442
 2297SOL     OW 9260   2.215   1.679   3.781  0.8352  0.1125 -0.4736
 2297SOL    HW2 9261   2.206   1.755   3.839  2.6297  1.5549 -2.0459
 2297SOL    HW3 9262   2.138   1.625   3.801 -0.1668  2.0433  1.0788
 2297SOL    MW4 9263   2.204   1.682   3.792  0.9398  0.5577 -0.4761
 2298SOL     OW 9264   2.213   1.937   3.887  0.4197 -0.2156 -0.5622
 2298SOL    HW2 9265   2.170   1.937   3.972  0.2477 -0.9078 -0.6481
 2298SOL    HW3 9266   2.148   1.973   3.827  0.8273  1.0478 -0.2672
 2298SOL    MW4 9267   2.199   1.942   3.890  0.4508 -0.1401 -0.5345
 2299SOL     OW 9268   3.142   1.021   4.670  0.5373  0.1939  0.3297
 2299SOL    HW2 9269   3.195   1.082   4.619 -0.6419 -0.2854 -1.5238
 2299SOL    HW3 9270   3.052   1.035   4.638  0.1730 -2.1580  0.1976
 2299SOL    MW4 9271   3.137   1.031   4.659  0.3338 -0.1796  0.0677
 2300SOL     OW 9272   2.432   2.277   3.869 -0.4950  0.2237  0.0517
 2300SOL    HW2 9273   2.427   2.223   3.948 -1.8469 -1.3901 -1.0994
 2300SOL    HW3 9274   2.346   2.321   3.864 -0.1763  0.8309 -0.1789
 2300SOL    MW4 9275   2.420   2.276   3.879 -0.6313  0.0908 -0.1307
 2301SOL     OW 9276   2.232   2.595   3.747 -0.2011 -0.2404 -0.2347
 2301SOL    HW2 9277   2.240   2.517   3.692  0.9502 -0.4927  0.2595
 2301SOL    HW3 9278   2.228   2.561   3.836  0.3493  0.2564 -0.0109
 2301SOL    MW4 9279   2.233   2.580   3.752  0.0234 -0.2081 -0.1400
 2302SOL     OW 9280   2.458   2.783   3.672  0.7019 -0.2290  0.2621
 2302SOL    HW2 9281   2.389   2.718   3.686 -1.0321  1.4963 -0.0259
 2302SOL    HW3 9282   2.538   2.741   3.704 -0.5590 -2.0911  1.0402
 2302SOL    MW4 9283   2.459   2.768   3.678  0.3068 -0.2470  0.3266
 2303SOL     OW 9284   2.454   3.034   3.805 -0.1369  0.3149  0.1478
 2303SOL    HW2 9285   2.471   3.023   3.898  2.6585  0.4552 -0.3227
 2303SOL    HW3 9286   2.452   2.945   3.770 -1.3837  0.2509  0.3400
 2303SOL    MW4 9287   2.456   3.021   3.813  0.0675  0.3250  0.1111
 2304SOL     OW 9288   2.237   3.167   3.736 -0.2317  0.2019  0.1496
 2304SOL    HW2 9289   2.251   3.257   3.764 -0.4731  0.5319 -0.7900
 2304SOL    HW3 9290   2.315   3.120   3.766  0.0174  0.7723  0.4009
 2304SOL    MW4 9291   2.249   3.173   3.744 -0.2306  0.3204  0.0589
 2305SOL     OW 9292   2.277   3.428   3.844  0.2235 -0.0754  0.3585
 2305SOL    HW2 9293   2.257   3.421   3.938  0.2531  1.1269  0.4641
 2305SOL    HW3 9294   2.360   3.475   3.841  0.8949 -1.2673 -0.2430
 2305SOL    MW4 9295   2.285   3.433   3.856  0.3161 -0.0741  0.2930
 2306SOL     OW 9296   2.495   3.582   3.783 -0.3418  0.1400  0.4589
 2306SOL    HW2 9297   2.570   3.526   3.803 -0.5849 -0.0126  0.9450
 2306SOL    HW3 9298   2.499   3.595   3.688 -0.4039 -0.8675  0.3183
 2306SOL    MW4 9299   2.506   3.577   3.773 -0.3819 -0.0131  0.5045
 2307SOL     OW 9300   2.526   3.864   3.833 -0.1858  0.6137 -0.2215
 2307SOL    HW2 9301   2.577   3.901   3.761 -0.5004  1.7762  0.1413
 2307SOL    HW3 9302   2.531   3.770   3.819 -0.1293  0.8087 -1.7004
 2307SOL    MW4 9303   2.533   3.857   3.821 -0.2198  0.7927 -0.3686
 2308SOL     OW 9304   2.261   3.990   3.769 -0.1907 -0.0161  0.1779
 2308SOL    HW2 9305   2.335   3.942   3.805 -0.6141 -0.3672  0.5741
 2308SOL    HW3 9306   2.280   3.996   3.675  0.4881  0.1651  0.3209
 2308SOL    MW4 9307   2.274   3.985   3.761 -0.1576 -0.0386  0.2491
 2309SOL     OW 9308   2.274   4.264   3.844  0.5242  0.6349  0.1902
 2309SOL    HW2 9309   2.288   4.259   3.938 -1.9495 -1.2832  0.4924
 2309SOL    HW3 9310   2.285   4.173   3.813 -1.7949  0.6734 -0.8711
 2309SOL    MW4 9311   2.277   4.251   3.852 -0.1082  0.3877  0.0901
 2310SOL     OW 9312   2.479   4.402   3.738 -0.1322  0.0710  0.1918
 2310SOL    HW2 9313   2.394   4.368   3.768  0.3597 -0.8048  0.6060
 2310SOL    HW3 9314   2.488   4.485   3.784 -0.4831 -0.1284  0.6358
 2310SOL    MW4 9315   2.469   4.408   3.748 -0.1135 -0.0706  0.3049
 2311SOL     OW 9316   2.919   4.634   3.822  0.1920 -0.2213 -0.0071
 2311SOL    HW2 9317   2.912   4.659   3.914  0.4844  0.4533 -0.1638
 2311SOL    HW3 9318   2.989   4.689   3.787  0.3646 -0.7654 -0.5363
 2311SOL    MW4 9319   2.927   4.644   3.829  0.2534 -0.2046 -0.0975
 2312SOL     OW 9320   2.703   0.126   3.746 -0.3809  0.0184 -0.0374
 2312SOL    HW2 9321   2.776   0.064   3.758  0.0848  0.5920  0.0986
 2312SOL    HW3 9322   2.688   0.127   3.651 -1.3774 -1.4343  0.0944
 2312SOL    MW4 9323   2.711   0.118   3.735 -0.4506 -0.0976 -0.0021
 2313SOL     OW 9324   2.709   0.372   3.871  0.0539  0.3056 -0.6350
 2313SOL    HW2 9325   2.721   0.286   3.831 -0.7533  0.2800 -0.8282
 2313SOL    HW3 9326   2.637   0.412   3.821 -0.2920  0.6684  0.1478
 2313SOL    MW4 9327   2.701   0.366   3.859 -0.0982  0.3501 -0.5572
 2314SOL     OW 9328   2.921   0.494   3.747 -0.0334  0.5162 -0.1955
 2314SOL    HW2 9329   2.995   0.454   3.792  0.3177  0.0215 -1.1875
 2314SOL    HW3 9330   2.844   0.450   3.784  0.3890 -1.7467 -1.8623
 2314SOL    MW4 9331   2.920   0.483   3.758  0.0689  0.1523 -0.5465
 2315SOL     OW 9332   2.901   0.737   3.850  0.4377 -0.1087  0.5938
 2315SOL    HW2 9333   2.970   0.795   3.820 -1.4010  1.2704 -1.1197
 2315SOL    HW3 9334   2.919   0.653   3.809  0.9920  0.3017 -0.0035
 2315SOL    MW4 9335   2.912   0.734   3.841  0.2682  0.1274  0.2887
 2316SOL     OW 9336   2.670   0.884   3.759 -0.0952 -0.7982 -0.2401
 2316SOL    HW2 9337   2.741   0.839   3.805  0.1679 -1.2751 -1.1010
 2316SOL    HW3 9338   2.591   0.859   3.806  0.2365 -0.8034  0.3172
 2316SOL    MW4 9339   2.669   0.875   3.771 -0.0169 -0.8618 -0.2801
 2317SOL     OW 9340   2.673   1.139   3.869  0.1754 -0.0739 -0.0381
 2317SOL    HW2 9341   2.676   1.052   3.829 -2.2217 -0.6055  0.8432
 2317SOL    HW3 9342   2.694   1.124   3.961 -1.3506  0.1001  0.3484
 2317SOL    MW4 9343   2.676   1.126   3.876 -0.3421 -0.1211  0.1287
 2318SOL     OW 9344   2.889   1.289   3.764 -0.0235 -0.0187  0.2213
 2318SOL    HW2 9345   2.892   1.379   3.797  0.5450 -0.0677  0.3133
 2318SOL    HW3 9346   2.816   1.248   3.810 -0.3209  0.4122  0.1353
 2318SOL    MW4 9347   2.880   1.295   3.774  0.0126  0.0317  0.2222
 2319SOL     OW 9348   2.881   1.558   3.860  0.2424  0.2395 -0.0953
 2319SOL    HW2 9349   2.849   1.581   3.948 -0.0337  0.2178 -0.1906
 2319SOL    HW3 9350   2.973   1.585   3.861  0.9088 -1.8790  1.0016
 2319SOL    MW4 9351   2.889   1.565   3.872  0.2937 -0.0429  0.0367
 2320SOL     OW 9352   2.636   1.654   3.756 -0.2216  0.4350  0.2444
 2320SOL    HW2 9353   2.716   1.615   3.790  0.1739 -0.3879 -1.5197
 2320SOL    HW3 9354   2.566   1.610   3.804  0.3608  0.6319  1.2798
 2320SOL    MW4 9355   2.637   1.643   3.767 -0.0925  0.3525  0.1483
 2321SOL     OW 9356   2.660   2.420   3.759  0.2004 -0.3851  0.0380
 2321SOL    HW2 9357   2.599   2.375   3.818  1.1750 -1.1297  0.4972
 2321SOL    HW3 9358   2.744   2.378   3.776  0.8408  0.6321 -0.5956
 2321SOL    MW4 9359   2.663   2.408   3.769  0.4134 -0.3493  0.0150
 2322SOL     OW 9360   2.921   2.045   3.728 -0.2012 -0.0370 -0.3360
 2322SOL    HW2 9361   2.923   2.138   3.753 -0.5811 -0.1009 -0.0559
 2322SOL    HW3 9362   2.832   2.016   3.751  0.2088 -0.7028  0.4586
 2322SOL    MW4 9363   2.909   2.054   3.734 -0.1972 -0.1333 -0.1941
 2323SOL     OW 9364   2.999   2.295   4.048  0.2186 -0.1356 -0.8876
 2323SOL    HW2 9365   3.071   2.327   4.103  0.2072 -0.3954 -0.7210
 2323SOL    HW3 9366   2.921   2.303   4.103  0.1626 -0.1065 -0.9721
 2323SOL    MW4 9367   2.998   2.300   4.063  0.2098 -0.1662 -0.8769
 2324SOL     OW 9368   2.903   2.312   3.798 -0.3088 -0.2471 -0.2802
 2324SOL    HW2 9369   2.978   2.367   3.778 -0.3837 -0.2584 -0.5987
 2324SOL    HW3 9370   2.910   2.293   3.891  0.7378 -1.2314 -0.5514
 2324SOL    MW4 9371   2.914   2.317   3.807 -0.1807 -0.3784 -0.3581
 2325SOL     OW 9372   2.679   2.682   3.819 -0.0714 -0.3518  0.0788
 2325SOL    HW2 9373   2.649   2.695   3.909 -0.7541 -0.6275 -0.1076
 2325SOL    HW3 9374   2.675   2.588   3.806  0.0702 -0.3132 -0.2274
 2325SOL    MW4 9375   2.675   2.671   3.829 -0.1428 -0.3827  0.0138
 2326SOL     OW 9376   2.913   2.841   3.739  0.0390 -0.0765 -0.5661
 2326SOL    HW2 9377   2.910   2.934   3.758  0.1127  0.0092 -0.9777
 2326SOL    HW3 9378   2.838   2.805   3.787 -1.5740  0.5873 -2.5463
 2326SOL    MW4 9379   2.903   2.848   3.748 -0.1640  0.0226 -0.8817
 2327SOL     OW 9380   2.879   3.100   3.837 -0.0751 -0.2590  0.1585
 2327SOL    HW2 9381   2.866   3.095   3.932 -0.0047  1.3596  0.2737
 2327SOL    HW3 9382   2.800   3.141   3.804 -0.2463 -1.1320 -0.5371
 2327SOL    MW4 9383   2.867   3.105   3.846 -0.0882 -0.1605  0.0820
 2328SOL     OW 9384   2.660   3.196   3.695 -0.5299 -0.4349  0.0561
 2328SOL    HW2 9385   2.664   3.273   3.751 -0.5907  1.0742 -1.9318
 2328SOL    HW3 9386   2.581   3.149   3.723 -1.0514  0.7715  0.6262
 2328SOL    MW4 9387   2.650   3.200   3.706 -0.6065 -0.0768 -0.1309
 2329SOL     OW 9388   2.707   3.425   3.843  0.6030  0.2205  0.4368
 2329SOL    HW2 9389   2.718   3.425   3.938  0.6122  0.1924  0.4359
 2329SOL    HW3 9390   2.785   3.470   3.809  0.3171  0.7476  0.4741
 2329SOL    MW4 9391   2.719   3.431   3.851  0.5662  0.2861  0.4418
 2330SOL     OW 9392   2.905   3.601   3.743  0.0527  0.0581  0.5591
 2330SOL    HW2 9393   2.998   3.591   3.763  0.4579 -0.2004 -1.2915
 2330SOL    HW3 9394   2.903   3.612   3.648 -1.7966  0.2960  0.6145
 2330SOL    MW4 9395   2.917   3.601   3.733 -0.1378  0.0556  0.3221
 2331SOL     OW 9396   2.898   3.881   3.779  0.1238 -0.0415  0.4534
 2331SOL    HW2 9397   2.873   3.900   3.869  1.8895 -0.7307  1.1125
 2331SOL    HW3 9398   2.880   3.788   3.767 -0.1057  0.0467  0.0885
 2331SOL    MW4 9399   2.892   3.871   3.789  0.3264 -0.1209  0.4923
 2332SOL     OW 9400   2.679   4.029   3.681  0.0574  0.1778 -0.1853
 2332SOL    HW2 9401   2.686   4.109   3.733  1.4806  0.6732 -1.1302
 2332SOL    HW3 9402   2.760   3.981   3.700 -0.6228 -0.8809  0.0887
 2332SOL    MW4 9403   2.690   4.033   3.691  0.1552  0.1040 -0.2742
 2333SOL     OW 9404   2.705   4.247   3.838  0.0484  0.0217  0.4508
 2333SOL    HW2 9405   2.780   4.298   3.811  0.7997 -1.0694  0.4585
 2333SOL    HW3 9406   2.629   4.300   3.813  0.7900  0.5674 -0.6522
 2333SOL    MW4 9407   2.705   4.260   3.831  0.2453 -0.0505  0.3064
 2334SOL     OW 9408   2.924   4.376   3.727  0.3103  0.0759 -0.6557
 2334SOL    HW2 9409   3.003   4.326   3.749 -0.3632  0.3334  2.6625
 2334SOL    HW3 9410   2.941   4.463   3.762 -1.2145  0.2719 -0.3932
 2334SOL    MW4 9411   2.937   4.381   3.734  0.0203  0.1354 -0.1836
 2335SOL     OW 9412   3.344   4.652   3.855  0.0855 -0.3288  0.1384
 2335SOL    HW2 9413   3.355   4.644   3.950 -0.5644  0.9446  0.3290
 2335SOL    HW3 9414   3.427   4.690   3.825  0.4114 -1.0184  0.1419
 2335SOL    MW4 9415   3.357   4.656   3.864  0.0429 -0.2508  0.1640
 2336SOL     OW 9416   3.129   0.133   3.756  0.0469 -0.3624  0.3982
 2336SOL    HW2 9417   3.201   0.079   3.790 -0.1388 -0.7154  0.2358
 2336SOL    HW3 9418   3.143   0.134   3.661 -1.0728 -1.7701  0.2025
 2336SOL    MW4 9419   3.141   0.126   3.748 -0.1256 -0.5947  0.3510
 2337SOL     OW 9420   3.130   0.392   3.879 -0.1180 -0.2483 -0.1648
 2337SOL    HW2 9421   3.138   0.388   3.974  0.8392 -0.8823 -0.2634
 2337SOL    HW3 9422   3.132   0.300   3.851 -0.2650 -0.0589 -0.8017
 2337SOL    MW4 9423   3.131   0.379   3.888 -0.0110 -0.3070 -0.2618
 2338SOL     OW 9424   3.357   0.499   3.786 -0.4166 -0.1361 -0.4192
 2338SOL    HW2 9425   3.430   0.445   3.816 -1.0512  0.7437  3.0324
 2338SOL    HW3 9426   3.279   0.456   3.821 -0.9462  2.7934  2.2774
 2338SOL    MW4 9427   3.357   0.486   3.795 -0.5703  0.3664  0.3920
 2339SOL     OW 9428   3.359   0.771   3.861  0.0096 -0.0894 -0.3188
 2339SOL    HW2 9429   3.359   0.758   3.956 -0.3698 -1.9419 -0.5555
 2339SOL    HW3 9430   3.375   0.684   3.825 -1.9463  0.2253 -1.9985
 2339SOL    MW4 9431   3.361   0.758   3.869 -0.2983 -0.2923 -0.5713
 2340SOL     OW 9432   3.126   0.871   3.777  0.0490 -0.0677  0.1689
 2340SOL    HW2 9433   3.209   0.833   3.806  0.6710  1.3552  0.2625
 2340SOL    HW3 9434   3.136   0.878   3.682 -0.6571 -1.5225 -0.0296
 2340SOL    MW4 9435   3.138   0.867   3.768  0.0379 -0.0719  0.1552
 2341SOL     OW 9436   3.106   1.120   3.901  0.2873 -0.1401 -0.3446
 2341SOL    HW2 9437   3.106   1.034   3.859  0.9613 -0.1019 -0.4320
 2341SOL    HW3 9438   3.033   1.167   3.862  0.8755 -0.1263 -1.4494
 2341SOL    MW4 9439   3.097   1.115   3.891  0.4539 -0.1333 -0.5016
 2342SOL     OW 9440   3.327   1.257   3.800 -0.4933 -0.6042 -0.0535
 2342SOL    HW2 9441   3.252   1.207   3.830 -1.5603  1.6173  1.0801
 2342SOL    HW3 9442   3.320   1.256   3.704 -3.3726  1.6156  0.0831
 2342SOL    MW4 9443   3.317   1.250   3.791 -1.0140 -0.0181  0.1140
 2343SOL     OW 9444   3.341   1.523   3.906  0.3760  0.6658 -0.2519
 2343SOL    HW2 9445   3.255   1.552   3.876  0.1027 -0.0646 -0.1872
 2343SOL    HW3 9446   3.347   1.431   3.877  0.6241  0.3384  0.8266
 2343SOL    MW4 9447   3.330   1.514   3.898  0.3729  0.5262 -0.1009
 2344SOL     OW 9448   3.138   1.665   3.793  0.1312 -0.1263 -0.2293
 2344SOL    HW2 9449   3.136   1.760   3.804  1.6441  0.0359 -1.1655
 2344SOL    HW3 9450   3.128   1.651   3.699  1.1027 -0.8368 -0.2352
 2344SOL    MW4 9451   3.136   1.675   3.782  0.4592 -0.1986 -0.3533
 2345SOL     OW 9452   3.148   1.939   3.846 -0.2061 -0.2883  0.0088
 2345SOL    HW2 9453   3.155   1.957   3.940 -0.4950  0.3582 -0.0872
 2345SOL    HW3 9454   3.066   1.980   3.820  0.3334  0.3573 -0.7073
 2345SOL    MW4 9455   3.138   1.947   3.855 -0.1731 -0.1178 -0.0985
 2346SOL     OW 9456   3.382   2.065   3.766  0.3911  0.4813  0.3948
 2346SOL    HW2 9457   3.302   2.016   3.786 -0.9082  1.0888 -2.8857
 2346SOL    HW3 9458   3.388   2.062   3.670  3.4550  1.8119  0.4873
 2346SOL    MW4 9459   3.372   2.058   3.756  0.6239  0.7367 -0.0257
 2347SOL     OW 9460   3.358   2.341   3.852  0.0663 -0.6321  0.6139
 2347SOL    HW2 9461   3.273   2.371   3.821  0.3824 -0.6908 -0.3168
 2347SOL    HW3 9462   3.369   2.255   3.813  0.8251 -0.3671  0.2280
 2347SOL    MW4 9463   3.349   2.334   3.843  0.2081 -0.6049  0.4404
 2348SOL     OW 9464   3.138   2.458   3.761  0.2320  0.2927  0.7945
 2348SOL    HW2 9465   3.145   2.551   3.783 -1.6590  0.8642 -0.8173
 2348SOL    HW3 9466   3.153   2.455   3.666 -0.8412 -0.8903  0.6442
 2348SOL    MW4 9467   3.141   2.470   3.751 -0.1590  0.2120  0.5620
 2349SOL     OW 9468   3.137   2.723   3.850  0.0198 -0.0760 -0.3907
 2349SOL    HW2 9469   3.123   2.725   3.944  0.1597  0.3119 -0.3772
 2349SOL    HW3 9470   3.059   2.764   3.812 -0.2373 -0.6253 -0.4698
 2349SOL    MW4 9471   3.125   2.729   3.857  0.0045 -0.0973 -0.3994
 2350SOL     OW 9472   3.367   2.858   3.773  0.3518 -0.1506  0.2828
 2350SOL    HW2 9473   3.359   2.952   3.790 -1.2277 -0.1448 -0.4260
 2350SOL    HW3 9474   3.290   2.820   3.815  0.0065 -0.9022 -1.0200
 2350SOL    MW4 9475   3.356   2.866   3.781  0.0978 -0.2489  0.0174
 2351SOL     OW 9476   3.359   3.122   3.863 -0.1200  0.3493 -0.2294
 2351SOL    HW2 9477   3.280   3.170   3.838 -0.1064  0.5207  0.0437
 2351SOL    HW3 9478   3.428   3.157   3.808 -0.2117  0.2811 -0.3879
 2351SOL    MW4 9479   3.357   3.133   3.853 -0.1304  0.3629 -0.2143
 2352SOL     OW 9480   3.124   3.239   3.779 -0.4986 -0.8388 -0.1326
 2352SOL    HW2 9481   3.059   3.171   3.799 -0.7342 -0.4570  0.3990
 2352SOL    HW3 9482   3.108   3.260   3.687 -1.6528 -0.1981  0.2030
 2352SOL    MW4 9483   3.113   3.233   3.769 -0.6819 -0.7038 -0.0181
 2353SOL     OW 9484   3.129   3.505   3.864  0.0633  0.3616  0.0389
 2353SOL    HW2 9485   3.203   3.542   3.816 -1.0368  0.2389 -1.8034
 2353SOL    HW3 9486   3.134   3.411   3.847  0.7499  0.0912  1.7132
 2353SOL    MW4 9487   3.139   3.498   3.855  0.0088  0.3097  0.0169
 2354SOL     OW 9488   3.348   3.647   3.770  0.2815  0.4735 -0.0524
 2354SOL    HW2 9489   3.365   3.731   3.812  0.9606 -0.4223  1.4881
 2354SOL    HW3 9490   3.384   3.657   3.682 -0.9982  2.3072 -0.4040
 2354SOL    MW4 9491   3.355   3.660   3.764  0.2024  0.5972  0.1044
 2355SOL     OW 9492   3.385   3.899   3.854  0.0923  0.3498 -0.1844
 2355SOL    HW2 9493   3.444   3.955   3.803  0.3138 -1.4119 -1.8877
 2355SOL    HW3 9494   3.298   3.919   3.821  0.2532 -0.9327 -1.4399
 2355SOL    MW4 9495   3.381   3.909   3.843  0.1428 -0.0517 -0.5746
 2356SOL     OW 9496   3.151   3.978   3.710  0.0548  0.0595  0.3324
 2356SOL    HW2 9497   3.162   4.071   3.731 -0.3065 -0.0841  1.1779
 2356SOL    HW3 9498   3.068   3.954   3.751  0.4561 -0.7940  0.6621
 2356SOL    MW4 9499   3.142   3.987   3.718  0.0601 -0.0720  0.4871
 2357SOL     OW 9500   3.175   4.224   3.813  0.2282  0.1005 -0.4322
 2357SOL    HW2 9501   3.156   4.238   3.905  2.7747 -2.0031  0.4998
 2357SOL    HW3 9502   3.244   4.287   3.793 -1.3029  1.5395 -1.3396
 2357SOL    MW4 9503   3.182   4.234   3.822  0.3622  0.0129 -0.4294
 2358SOL     OW 9504   3.381   4.392   3.768  0.2610  0.1447 -0.4834
 2358SOL    HW2 9505   3.460   4.352   3.803 -0.3873  0.7673  1.7483
 2358SOL    HW3 9506   3.373   4.475   3.813 -1.8307 -0.0422 -0.4531
 2358SOL    MW4 9507   3.390   4.398   3.778 -0.1004  0.2022 -0.1853
 2359SOL     OW 9508   3.849   4.659   3.853  0.3848 -0.5711  0.0738
 2359SOL    HW2 9509   3.939   4.682   3.831  0.8195 -1.6977  0.6602
 2359SOL    HW3 9510   3.836   4.572   3.815 -0.9656  0.2253 -1.3589
 2359SOL    MW4 9511   3.859   4.650   3.845  0.2639 -0.6146 -0.0381
 2360SOL     OW 9512   3.587   0.074   3.767  0.1155  0.3156  0.0026
 2360SOL    HW2 9513   3.672   0.040   3.795  0.4503  0.3386 -0.9766
 2360SOL    HW3 9514   3.578   0.157   3.813 -0.2973 -0.6434  1.7046
 2360SOL    MW4 9515   3.597   0.080   3.777  0.1054  0.1921  0.0980
 2361SOL     OW 9516   3.573   0.333   3.866  0.1801 -0.3205 -0.1976
 2361SOL    HW2 9517   3.646   0.390   3.841  0.5001 -0.8554 -0.4873
 2361SOL    HW3 9518   3.570   0.340   3.962  0.1155  0.3079 -0.2455
 2361SOL    MW4 9519   3.582   0.341   3.875  0.2139 -0.3082 -0.2420
 2362SOL     OW 9520   3.783   0.486   3.803 -0.0416 -0.1564  0.1078
 2362SOL    HW2 9521   3.872   0.454   3.818 -0.4010 -0.4292  1.8021
 2362SOL    HW3 9522   3.786   0.578   3.828  0.1399  0.2603 -1.3950
 2362SOL    MW4 9523   3.795   0.494   3.808 -0.0653 -0.1374  0.1330
 2363SOL     OW 9524   3.817   0.749   3.896 -0.1827  0.3458  0.2778
 2363SOL    HW2 9525   3.898   0.793   3.871  0.0726 -0.8713 -1.0461
 2363SOL    HW3 9526   3.748   0.801   3.855  0.0006  0.6840  0.3992
 2363SOL    MW4 9527   3.819   0.762   3.887 -0.1252  0.2299  0.1190
 2364SOL     OW 9528   3.587   0.903   3.751  0.5228  0.2005 -0.1555
 2364SOL    HW2 9529   3.585   0.990   3.792  0.5504  0.5828 -0.9469
 2364SOL    HW3 9530   3.512   0.857   3.789 -0.6230  1.2238 -1.1081
 2364SOL    MW4 9531   3.577   0.909   3.762  0.3750  0.3859 -0.3858
 2365SOL     OW 9532   3.558   1.140   3.882  0.1175 -0.0120 -0.0450
 2365SOL    HW2 9533   3.625   1.202   3.853 -0.7836  0.8962 -0.2114
 2365SOL    HW3 9534   3.475   1.180   3.857 -0.5759 -0.3522  1.6102
 2365SOL    MW4 9535   3.556   1.153   3.875 -0.0930  0.0629  0.1516
 2366SOL     OW 9536   3.760   1.288   3.770 -0.1939 -0.7706 -0.0952
 2366SOL    HW2 9537   3.836   1.235   3.794 -1.1438 -0.8292  2.9021
 2366SOL    HW3 9538   3.783   1.377   3.797 -0.8106 -0.6161 -0.0767
 2366SOL    MW4 9539   3.773   1.293   3.777 -0.4005 -0.7579  0.3028
 2367SOL     OW 9540   3.797   1.548   3.851 -0.2745 -0.1092  0.2966
 2367SOL    HW2 9541   3.808   1.552   3.946 -0.1126 -1.6887  0.3574
 2367SOL    HW3 9542   3.712   1.589   3.835 -0.4700 -0.1696  1.1605
 2367SOL    MW4 9543   3.788   1.554   3.861 -0.2789 -0.3256  0.4184
 2368SOL     OW 9544   3.556   1.663   3.796 -0.2882 -0.3033  0.4066
 2368SOL    HW2 9545   3.481   1.607   3.815 -2.3060  2.1569  0.0104
 2368SOL    HW3 9546   3.570   1.654   3.702 -1.3369  0.6784  0.1440
 2368SOL    MW4 9547   3.548   1.654   3.786 -0.6928  0.1509  0.3195
 2369SOL     OW 9548   3.615   1.924   3.845  0.3114  0.0126 -0.3060
 2369SOL    HW2 9549   3.607   1.836   3.807  0.4553 -0.4551  0.7323
 2369SOL    HW3 9550   3.539   1.971   3.811 -0.1726 -0.7363 -0.2760
 2369SOL    MW4 9551   3.604   1.919   3.835  0.2666 -0.1478 -0.1650
 2370SOL     OW 9552   3.835   2.083   3.796 -0.2599  0.0946  0.6998
 2370SOL    HW2 9553   3.914   2.036   3.821  0.2535 -0.2004 -1.3515
 2370SOL    HW3 9554   3.763   2.022   3.815  0.1606 -0.3715  0.7824
 2370SOL    MW4 9555   3.836   2.069   3.802 -0.1366 -0.0055  0.4399
 2371SOL     OW 9556   3.825   2.354   3.851 -0.3466 -0.1176  0.1090
 2371SOL    HW2 9557   3.741   2.387   3.818 -0.2943  0.0500  0.1449
 2371SOL    HW3 9558   3.828   2.263   3.821 -0.4797 -0.0834 -0.0098
 2371SOL    MW4 9559   3.814   2.346   3.843 -0.3574 -0.0908  0.0980
 2372SOL     OW 9560   3.592   2.471   3.785 -0.0910  0.2501  0.0143
 2372SOL    HW2 9561   3.514   2.425   3.817 -0.6975  0.9849 -0.3994
 2372SOL    HW3 9562   3.577   2.482   3.692 -0.1610  1.7025  0.1950
 2372SOL    MW4 9563   3.580   2.466   3.777 -0.1798  0.5386 -0.0162
 2373SOL     OW 9564   3.605   2.732   3.873  0.2850 -0.4461 -0.3631
 2373SOL    HW2 9565   3.607   2.641   3.842  0.2037 -0.2139 -1.0655
 2373SOL    HW3 9566   3.527   2.769   3.831  1.4790  0.5270 -1.7543
 2373SOL    MW4 9567   3.595   2.725   3.863  0.4318 -0.2871 -0.6392
 2374SOL     OW 9568   3.824   2.884   3.783 -0.1926  0.1910 -0.2137
 2374SOL    HW2 9569   3.902   2.839   3.817 -0.6496  1.0455  2.0372
 2374SOL    HW3 9570   3.751   2.834   3.818 -0.6843  1.7638  1.0474
 2374SOL    MW4 9571   3.825   2.871   3.792 -0.3178  0.5112  0.2499
 2375SOL     OW 9572   3.835   3.156   3.841  0.0272 -0.4190  0.1065
 2375SOL    HW2 9573   3.752   3.190   3.806  0.9740  1.2095 -0.6036
 2375SOL    HW3 9574   3.843   3.069   3.802 -2.0511 -1.1899  1.3258
 2375SOL    MW4 9575   3.825   3.149   3.831 -0.1221 -0.3057  0.1736
 2376SOL     OW 9576   3.579   3.248   3.765 -0.0137 -0.7027  0.0890
 2376SOL    HW2 9577   3.588   3.339   3.792  4.1166 -0.6931 -1.0021
 2376SOL    HW3 9578   3.581   3.250   3.670  0.1286 -1.9499  0.0538
 2376SOL    MW4 9579   3.580   3.260   3.756  0.5498 -0.8662 -0.0596
 2377SOL     OW 9580   3.577   3.518   3.871 -0.1650 -0.4482 -0.5874
 2377SOL    HW2 9581   3.571   3.503   3.965 -0.7876 -0.2810 -0.6023
 2377SOL    HW3 9582   3.492   3.554   3.846 -0.1538 -0.8960 -1.2896
 2377SOL    MW4 9583   3.565   3.521   3.880 -0.2456 -0.4852 -0.6821
 2378SOL     OW 9584   3.801   3.638   3.765  0.4486 -0.2276 -0.2534
 2378SOL    HW2 9585   3.787   3.724   3.806  2.0343 -0.9309  1.8585
 2378SOL    HW3 9586   3.733   3.582   3.802 -0.5532  0.0725 -1.5926
 2378SOL    MW4 9587   3.790   3.642   3.776  0.5257 -0.2811 -0.1514
 2379SOL     OW 9588   3.793   3.907   3.852  0.1116 -0.4341 -0.2084
 2379SOL    HW2 9589   3.795   3.928   3.946  0.4262 -1.5444  0.0501
 2379SOL    HW3 9590   3.877   3.937   3.819 -1.0821  2.5082 -0.7400
 2379SOL    MW4 9591   3.804   3.913   3.860 -0.0045 -0.1922 -0.2444
 2380SOL     OW 9592   3.595   4.051   3.720 -0.0005  0.0053  0.1749
 2380SOL    HW2 9593   3.591   4.135   3.766 -0.3575  0.5587 -0.8614
 2380SOL    HW3 9594   3.669   4.006   3.760  0.8529  1.2483  0.0219
 2380SOL    MW4 9595   3.604   4.057   3.731  0.0648  0.2422  0.0181
 2381SOL     OW 9596   3.604   4.284   3.863 -0.5678 -0.4751 -0.0217
 2381SOL    HW2 9597   3.632   4.290   3.954 -0.7844 -0.4621  0.0443
 2381SOL    HW3 9598   3.671   4.332   3.814  0.2538 -1.6076 -0.0179
 2381SOL    MW4 9599   3.616   4.291   3.868 -0.4878 -0.6223 -0.0124
 2382SOL     OW 9600   3.827   4.402   3.738  0.2876 -0.2874  0.0232
 2382SOL    HW2 9601   3.901   4.361   3.781  0.1781  0.8797  1.3835
 2382SOL    HW3 9602   3.857   4.419   3.648  1.5965  0.0339  0.5123
 2382SOL    MW4 9603   3.840   4.399   3.732  0.4456 -0.0911  0.2673
 2383SOL     OW 9604   4.332   4.647   3.840  0.0353 -0.0727 -0.1015
 2383SOL    HW2 9605   4.318   4.667   3.932  0.3885 -0.7325  0.1034
 2383SOL    HW3 9606   4.416   4.687   3.818 -0.6870  1.2626 -0.5137
 2383SOL    MW4 9607   4.341   4.655   3.849 -0.0138  0.0162 -0.1292
 2384SOL     OW 9608   4.087   0.108   3.783  0.5793 -0.3421 -0.3841
 2384SOL    HW2 9609   4.170   0.066   3.807  0.0871 -0.2999  1.4640
 2384SOL    HW3 9610   4.083   0.100   3.688  1.8164 -2.0288 -0.3239
 2384SOL    MW4 9611   4.098   0.101   3.774  0.6776 -0.5590 -0.1321
 2385SOL     OW 9612   4.033   0.378   3.815 -0.1988 -0.3827  0.1143
 2385SOL    HW2 9613   4.048   0.379   3.910 -0.0532 -0.4516  0.0929
 2385SOL    HW3 9614   4.045   0.286   3.790 -0.4983 -0.4098  0.0697
 2385SOL    MW4 9615   4.036   0.366   3.824 -0.2193 -0.3954  0.1056
 2386SOL     OW 9616   4.272   0.521   3.790 -0.2409 -0.2792 -0.5444
 2386SOL    HW2 9617   4.202   0.458   3.808  0.6825 -0.9485  0.8632
 2386SOL    HW3 9618   4.270   0.534   3.695 -1.4047 -1.2871 -0.6691
 2386SOL    MW4 9619   4.262   0.514   3.780 -0.2723 -0.5004 -0.3750
 2387SOL     OW 9620   4.232   0.754   3.946  0.3716 -0.3336 -0.5414
 2387SOL    HW2 9621   4.156   0.804   3.916 -0.4134 -1.2868 -0.1904
 2387SOL    HW3 9622   4.240   0.683   3.882  0.0825 -1.0589  0.2167
 2387SOL    MW4 9623   4.223   0.751   3.934  0.2303 -0.5550 -0.3948
 2388SOL     OW 9624   4.039   0.888   3.808 -0.0445 -0.0160 -0.1912
 2388SOL    HW2 9625   4.016   0.978   3.831  0.3851  0.2496 -0.7656
 2388SOL    HW3 9626   4.033   0.885   3.712  0.2171 -0.5197 -0.1955
 2388SOL    MW4 9627   4.036   0.899   3.798  0.0467 -0.0474 -0.2677
 2389SOL     OW 9628   3.970   1.150   3.891  0.3207 -0.0113 -0.0994
 2389SOL    HW2 9629   3.975   1.144   3.987  0.9192 -1.4647 -0.2225
 2389SOL    HW3 9630   4.055   1.184   3.865  0.3732 -0.1901 -0.1613
 2389SOL    MW4 9631   3.982   1.154   3.900  0.4067 -0.2266 -0.1240
 2390SOL     OW 9632   4.204   1.255   3.796 -0.7139 -0.0614  0.2111
 2390SOL    HW2 9633   4.218   1.349   3.808  0.6558 -0.0154 -1.5130
 2390SOL    HW3 9634   4.203   1.244   3.701 -0.9560 -1.7763  0.4112
 2390SOL    MW4 9635   4.206   1.266   3.785 -0.5651 -0.2815  0.0098
 2391SOL     OW 9636   4.201   1.531   3.828  0.3858 -0.2842  0.2643
 2391SOL    HW2 9637   4.126   1.586   3.806  0.8636 -0.6430 -2.4485
 2391SOL    HW3 9638   4.277   1.580   3.797  1.0163 -1.2595  0.2324
 2391SOL    MW4 9639   4.201   1.544   3.821  0.5322 -0.4600 -0.0975
 2392SOL     OW 9640   4.012   1.706   3.753 -0.1839  0.1547  0.0280
 2392SOL    HW2 9641   4.036   1.784   3.802 -0.2051 -0.2417  0.6860
 2392SOL    HW3 9642   3.929   1.677   3.793 -0.5406  0.1953 -0.6719
 2392SOL    MW4 9643   4.004   1.712   3.765 -0.2341  0.1079  0.0226
 2393SOL     OW 9644   4.058   1.962   3.868  0.3722 -0.0979  0.6545
 2393SOL    HW2 9645   4.060   1.964   3.964 -0.6712  0.4696  0.6809
 2393SOL    HW3 9646   4.149   1.977   3.842  0.8515 -1.3683  1.5593
 2393SOL    MW4 9647   4.070   1.964   3.878  0.2980 -0.1906  0.7775
 2394SOL     OW 9648   4.313   2.062   3.794  0.4756  0.3069  0.4638
 2394SOL    HW2 9649   4.301   2.149   3.832  0.3184  0.8014 -0.6823
 2394SOL    HW3 9650   4.294   2.074   3.701 -0.0846 -1.0724  0.3844
 2394SOL    MW4 9651   4.309   2.075   3.787  0.3815  0.1900  0.3021
 2395SOL     OW 9652   4.264   2.312   3.887 -0.0814 -0.1199 -0.0107
 2395SOL    HW2 9653   4.250   2.322   3.981 -1.3668 -0.1283 -0.1794
 2395SOL    HW3 9654   4.192   2.363   3.847  0.9712  0.6336 -0.9922
 2395SOL    MW4 9655   4.252   2.320   3.894 -0.1125 -0.0217 -0.1624
 2396SOL     OW 9656   4.062   2.452   3.755 -0.1306 -0.0562  0.2220
 2396SOL    HW2 9657   4.059   2.541   3.792 -0.0786  0.4029 -0.8756
 2396SOL    HW3 9658   3.982   2.411   3.788 -1.3561  1.1578 -1.1544
 2396SOL    MW4 9659   4.051   2.459   3.765 -0.2851  0.1647 -0.1042
 2397SOL     OW 9660   4.037   2.722   3.832 -0.0063  0.8512  0.1920
 2397SOL    HW2 9661   4.041   2.726   3.928  1.0085 -1.7424  0.3034
 2397SOL    HW3 9662   4.110   2.776   3.803  1.6479 -0.8839  0.9924
 2397SOL    MW4 9663   4.047   2.729   3.841  0.3457  0.2801  0.3123
 2398SOL     OW 9664   4.263   2.842   3.727 -0.6641 -0.3941 -0.2803
 2398SOL    HW2 9665   4.259   2.930   3.764 -0.2570 -0.7144  0.5459
 2398SOL    HW3 9666   4.336   2.800   3.773 -1.4995 -1.4873  0.0821
 2398SOL    MW4 9667   4.272   2.848   3.738 -0.7215 -0.5808 -0.1235
 2399SOL     OW 9668   4.270   3.108   3.813 -0.0522 -0.6565  0.3153
 2399SOL    HW2 9669   4.194   3.167   3.811  0.6268  0.2608  1.6068
 2399SOL    HW3 9670   4.341   3.159   3.776 -0.0312 -1.5140 -0.8748
 2399SOL    MW4 9671   4.269   3.122   3.807  0.0405 -0.6490  0.3288
 2400SOL     OW 9672   4.054   3.282   3.774 -0.0972  0.0581 -0.4655
 2400SOL    HW2 9673   3.971   3.241   3.795 -0.1937  0.3369 -0.2939
 2400SOL    HW3 9674   4.069   3.261   3.682  0.1961 -0.9440 -0.1949
 2400SOL    MW4 9675   4.045   3.274   3.765 -0.0710 -0.0374 -0.4072
 2401SOL     OW 9676   4.040   3.536   3.866  0.3837  0.1857 -0.3502
 2401SOL    HW2 9677   4.052   3.454   3.818 -0.1590  0.4832 -0.9964
 2401SOL    HW3 9678   3.952   3.565   3.843  0.8441  1.3274 -0.7137
 2401SOL    MW4 9679   4.030   3.529   3.857  0.3729  0.3755 -0.4830
 2402SOL     OW 9680   4.251   3.676   3.751 -0.0876  0.0682 -0.0359
 2402SOL    HW2 9681   4.183   3.630   3.800 -0.4116  0.4124 -0.1578
 2402SOL    HW3 9682   4.333   3.636   3.781 -0.3119 -0.0514  0.4304
 2402SOL    MW4 9683   4.253   3.664   3.761 -0.1597  0.0978  0.0095
 2403SOL     OW 9684   4.276   3.915   3.849 -0.4249 -0.2766 -0.2340
 2403SOL    HW2 9685   4.199   3.962   3.816  0.4349  0.3370 -1.3825
 2403SOL    HW3 9686   4.267   3.827   3.811 -1.2124 -0.5982  0.6615
 2403SOL    MW4 9687   4.264   3.909   3.839 -0.4153 -0.2379 -0.2673
 2404SOL     OW 9688   4.045   4.015   3.741 -0.0780  0.4557  0.3859
 2404SOL    HW2 9689   4.039   4.108   3.764 -2.0836  0.1695  1.1388
 2404SOL    HW3 9690   4.047   4.014   3.645  2.5696  1.3711  0.3795
 2404SOL    MW4 9691   4.045   4.027   3.731  0.0067  0.5388  0.4845
 2405SOL     OW 9692   4.056   4.273   3.836 -0.1366  0.7718 -0.2059
 2405SOL    HW2 9693   4.069   4.287   3.930 -0.2990 -1.3924  0.1622
 2405SOL    HW3 9694   4.137   4.303   3.796  0.7571 -0.2023  0.8396
 2405SOL    MW4 9695   4.068   4.279   3.843 -0.0401  0.3576 -0.0196
 2406SOL     OW 9696   4.303   4.377   3.744  0.4139  0.0322 -0.4350
 2406SOL    HW2 9697   4.310   4.465   3.780  0.5066  0.1541 -0.7560
 2406SOL    HW3 9698   4.371   4.327   3.789  2.0368  0.7219 -2.0797
 2406SOL    MW4 9699   4.313   4.382   3.754  0.6409  0.1388 -0.6945
 2407SOL     OW 9700   0.317   0.108   4.147 -0.2445  0.0514 -0.2426
 2407SOL    HW2 9701   0.344   0.200   4.152  1.1481 -0.2929 -1.1123
 2407SOL    HW3 9702   0.352   0.068   4.226  0.3333 -0.0245 -0.5357
 2407SOL    MW4 9703   0.325   0.115   4.158  0.0155 -0.0041 -0.3958
 2408SOL     OW 9704   0.042   0.100   4.212  0.3905  0.0965 -0.0368
 2408SOL    HW2 9705   0.039   0.071   4.303 -0.1264  0.9643  0.2329
 2408SOL    HW3 9706   0.135   0.098   4.190  0.4828 -0.4884  0.3918
 2408SOL    MW4 9707   0.054   0.096   4.221  0.3345  0.1338  0.0548
 2409SOL     OW 9708   4.467   0.374   4.132 -0.8090 -0.2864 -0.0065
 2409SOL    HW2 9709   4.503   0.292   4.166  2.7908  1.2035  0.0295
 2409SOL    HW3 9710   4.478   0.368   4.037 -0.1005  0.3102  0.0306
 2409SOL    MW4 9711   4.473   0.363   4.124 -0.2408 -0.0111  0.0033
 2410SOL     OW 9712   0.161   0.542   4.244  0.7070  0.3956  0.0089
 2410SOL    HW2 9713   0.240   0.496   4.214  0.1151 -0.3496 -0.4129
 2410SOL    HW3 9714   0.089   0.499   4.198  0.0472  1.0552  0.4172
 2410SOL    MW4 9715   0.162   0.530   4.234  0.5419  0.3844  0.0072
 2411SOL     OW 9716   0.444   0.893   4.173 -0.6962 -0.3647 -0.0317
 2411SOL    HW2 9717   0.423   0.976   4.131 -0.2150 -0.4896 -0.5124
 2411SOL    HW3 9718   0.370   0.836   4.152 -1.1548  0.0210  0.5220
 2411SOL    MW4 9719   0.431   0.897   4.165 -0.6933 -0.3303 -0.0219
 2412SOL     OW 9720   4.485   0.927   4.313 -0.6763  0.1866  0.0440
 2412SOL    HW2 9721   4.409   0.875   4.286  0.1101 -1.3540  0.7804
 2412SOL    HW3 9722   4.483   1.004   4.255 -2.4699 -0.1164 -0.3184
 2412SOL    MW4 9723   4.475   0.930   4.302 -0.8092 -0.0567  0.0935
 2413SOL     OW 9724   4.478   1.155   4.145  0.3313  0.2002 -0.2284
 2413SOL    HW2 9725   4.556   1.209   4.163  0.2825  0.3692 -0.5302
 2413SOL    HW3 9726   4.464   1.164   4.051  0.3568 -0.3871 -0.2889
 2413SOL    MW4 9727   4.487   1.163   4.135  0.3281  0.1450 -0.2761
 2414SOL     OW 9728   0.392   1.129   4.054 -0.2794 -0.2836  0.2855
 2414SOL    HW2 9729   0.481   1.153   4.077  0.2446 -2.2085  0.3422
 2414SOL    HW3 9730   0.390   1.134   3.958 -0.4557  0.9371  0.3550
 2414SOL    MW4 9731   0.403   1.133   4.044 -0.2335 -0.3765  0.3018
 2415SOL     OW 9732   0.802   1.708   4.494  0.1058  0.0207  0.3268
 2415SOL    HW2 9733   0.761   1.638   4.545  1.1051 -0.4727  0.4807
 2415SOL    HW3 9734   0.893   1.707   4.523  0.2558  0.9838 -0.1260
 2415SOL    MW4 9735   0.809   1.698   4.504  0.2574  0.0825  0.2871
 2416SOL     OW 9736   2.861   1.945   4.423  0.0873  0.4796  0.0998
 2416SOL    HW2 9737   2.881   2.030   4.383  0.3798  0.2029 -0.3442
 2416SOL    HW3 9738   2.875   1.959   4.517  0.4105  0.8454  0.0002
 2416SOL    MW4 9739   2.866   1.958   4.430  0.1683  0.4914  0.0277
 2417SOL     OW 9740   0.237   2.060   4.269  0.4744  0.1786 -0.3937
 2417SOL    HW2 9741   0.242   2.048   4.364  0.7777  0.2651 -0.3983
 2417SOL    HW3 9742   0.318   2.022   4.236  0.6305  0.6610 -0.5690
 2417SOL    MW4 9743   0.248   2.054   4.277  0.5350  0.2534 -0.4172
 2418SOL     OW 9744   0.178   1.697   4.517  0.0570  0.1780 -0.4665
 2418SOL    HW2 9745   0.088   1.667   4.523 -0.2586  0.6691 -2.4925
 2418SOL    HW3 9746   0.172   1.793   4.518  0.5510  0.2133 -0.6668
 2418SOL    MW4 9747   0.166   1.706   4.518  0.0806  0.2474 -0.7606
 2419SOL     OW 9748   0.188   2.292   4.103  0.0923  0.1027 -0.4298
 2419SOL    HW2 9749   0.267   2.336   4.136 -0.0899 -0.7779  1.2555
 2419SOL    HW3 9750   0.187   2.208   4.149 -1.0049 -0.5371 -1.5995
 2419SOL    MW4 9751   0.198   2.287   4.114 -0.0765 -0.0978 -0.3614
 2420SOL     OW 9752   4.487   2.473   4.224 -0.3697  0.0722 -0.1296
 2420SOL    HW2 9753   4.403   2.434   4.199  0.5255 -3.2284  1.6568
 2420SOL    HW3 9754   4.553   2.413   4.188  1.1242  1.1430  0.7527
 2420SOL    MW4 9755   4.485   2.460   4.216 -0.0545 -0.2217  0.2222
 2421SOL     OW 9756   4.430   2.571   4.498  0.2724  0.0989 -0.1747
 2421SOL    HW2 9757   4.451   2.552   4.407 -1.8581  0.2065 -0.7077
 2421SOL    HW3 9758   4.419   2.666   4.501  0.7019  0.1353  0.2704
 2421SOL    MW4 9759   4.431   2.581   4.486  0.0482  0.1178 -0.1864
 2422SOL     OW 9760   0.260   2.856   4.218 -0.0250  0.0591 -0.2128
 2422SOL    HW2 9761   0.325   2.798   4.178  1.0234 -0.2133  1.8197
 2422SOL    HW3 9762   0.265   2.936   4.167  0.5108 -0.6584 -1.3051
 2422SOL    MW4 9763   0.269   2.859   4.206  0.1840 -0.0715 -0.0882
 2423SOL     OW 9764   0.232   3.106   4.084 -0.1727 -0.1376  0.4925
 2423SOL    HW2 9765   0.308   3.154   4.115 -0.0696 -0.5246  0.8285
 2423SOL    HW3 9766   0.158   3.144   4.132 -0.3134  0.8508 -0.4842
 2423SOL    MW4 9767   0.232   3.118   4.094 -0.1776 -0.0582  0.4082
 2424SOL     OW 9768   4.293   3.135   4.100 -0.4232  0.2465 -0.1488
 2424SOL    HW2 9769   4.277   3.044   4.125  0.6133  0.1869  0.3553
 2424SOL    HW3 9770   4.300   3.134   4.005  1.6710 -0.5710 -0.0186
 2424SOL    MW4 9771   4.292   3.123   4.091 -0.0105  0.1309 -0.0648
 2425SOL     OW 9772   0.033   3.523   4.100  0.5047 -0.2465 -0.0841
 2425SOL    HW2 9773  -0.032   3.581   4.140 -2.9518 -3.3652 -0.9189
 2425SOL    HW3 9774   0.015   3.528   4.006  1.3760 -1.2680 -0.3169
 2425SOL    MW4 9775   0.022   3.531   4.093  0.1636 -0.7927 -0.2251
 2426SOL     OW 9776   0.522   3.272   4.491 -0.0833  0.0189 -0.0623
 2426SOL    HW2 9777   0.451   3.335   4.499  0.1649  0.5356 -1.6832
 2426SOL    HW3 9778   0.601   3.326   4.488  0.2904 -0.4854  0.5183
 2426SOL    MW4 9779   0.523   3.287   4.492 -0.0013  0.0205 -0.1998
 2427SOL     OW 9780   0.263   3.577   4.248 -0.4176 -0.4231 -0.2411
 2427SOL    HW2 9781   0.335   3.555   4.189 -0.3818 -0.9015 -0.0191
 2427SOL    HW3 9782   0.184   3.557   4.197 -0.3882 -0.6468 -0.1988
 2427SOL    MW4 9783   0.262   3.571   4.234 -0.4090 -0.5159 -0.2060
 2428SOL     OW 9784   0.006   4.007   4.276  0.0146  0.2647  0.1876
 2428SOL    HW2 9785   0.082   3.956   4.248  0.1577 -0.2393  1.4577
 2428SOL    HW3 9786  -0.062   3.987   4.211  0.9744  0.7595 -0.9797
 2428SOL    MW4 9787   0.007   3.998   4.264  0.1601  0.2635  0.2012
 2429SOL     OW 9788   0.016   4.278   4.136 -0.1743 -0.0518  0.3143
 2429SOL    HW2 9789   0.019   4.192   4.178  1.5566 -0.5723 -0.7936
 2429SOL    HW3 9790   0.008   4.259   4.043 -0.1217  0.9870  0.0875
 2429SOL    MW4 9791   0.016   4.264   4.129  0.0610  0.0172  0.1383
 2430SOL     OW 9792   0.262   4.380   4.262  0.1658 -0.0666  0.0198
 2430SOL    HW2 9793   0.247   4.393   4.355 -0.8758  2.1358 -0.3945
 2430SOL    HW3 9794   0.177   4.353   4.227  0.0494  0.9830 -0.5550
 2430SOL    MW4 9795   0.248   4.378   4.269  0.0130  0.3619 -0.1106
 2431SOL     OW 9796   0.680   4.576   4.177 -0.3464  0.3508 -0.3765
 2431SOL    HW2 9797   0.595   4.607   4.207 -0.1524  0.7602 -0.2536
 2431SOL    HW3 9798   0.676   4.585   4.081 -0.2919  0.7510 -0.3420
 2431SOL    MW4 9799   0.668   4.581   4.168 -0.3136  0.4578 -0.3562
 2432SOL     OW 9800   0.488   0.030   4.363  0.4717  0.0831  0.5947
 2432SOL    HW2 9801   0.473  -0.024   4.441  0.9737 -0.6161  0.2081
 2432SOL    HW3 9802   0.518   0.114   4.398 -2.0973  0.7459  1.2741
 2432SOL    MW4 9803   0.490   0.034   4.378  0.1990  0.0783  0.6332
 2433SOL     OW 9804   0.370   0.383   4.118 -0.4650 -0.2366 -0.0089
 2433SOL    HW2 9805   0.450   0.399   4.167 -0.8892  1.1749  0.2552
 2433SOL    HW3 9806   0.398   0.376   4.027  0.1078 -1.0318  0.2252
 2433SOL    MW4 9807   0.384   0.384   4.113 -0.4454 -0.1552  0.0567
 2434SOL     OW 9808   0.618   0.457   4.250  0.2245  0.0238  0.0923
 2434SOL    HW2 9809   0.689   0.424   4.195 -0.6600 -1.0011 -0.4614
 2434SOL    HW3 9810   0.632   0.552   4.253  1.4615 -0.1415 -0.2185
 2434SOL    MW4 9811   0.629   0.465   4.243  0.2711 -0.1332 -0.0215
 2435SOL     OW 9812   0.998   0.407   4.462  0.5405 -0.2337 -0.4001
 2435SOL    HW2 9813   1.071   0.352   4.490 -0.1458 -0.8324  0.2364
 2435SOL    HW3 9814   0.994   0.477   4.528  0.0709 -0.6211 -0.0149
 2435SOL    MW4 9815   1.007   0.409   4.475  0.3879 -0.3638 -0.2651
 2436SOL     OW 9816   0.992   0.887   4.550  0.4593 -0.0641  0.3525
 2436SOL    HW2 9817   0.964   0.861   4.462 -1.0201  0.4999  0.6365
 2436SOL    HW3 9818   0.983   0.807   4.602  2.2165 -0.6425 -0.1789
 2436SOL    MW4 9819   0.987   0.873   4.545  0.4960 -0.0660  0.3200
 2437SOL     OW 9820   0.705   1.252   4.594 -0.1422 -0.0416 -0.4918
 2437SOL    HW2 9821   0.620   1.208   4.586 -0.1749 -0.1275  0.3166
 2437SOL    HW3 9822   0.683   1.340   4.622  0.1199 -0.5067  1.1941
 2437SOL    MW4 9823   0.691   1.258   4.596 -0.1119 -0.1142 -0.1631
 2438SOL     OW 9824   0.100   0.201   4.618  0.0591 -0.3237  0.6025
 2438SOL    HW2 9825   0.095   0.285   4.573  0.9017  0.0869  1.2413
 2438SOL    HW3 9826   0.060   0.218   4.704 -0.7799 -0.8756  0.3273
 2438SOL    MW4 9827   0.094   0.215   4.624  0.0596 -0.3424  0.6504
 2439SOL     OW 9828   0.663   1.469   4.095  0.1649  0.1701  0.2284
 2439SOL    HW2 9829   0.652   1.499   4.005 -1.4114  0.9091  0.6451
 2439SOL    HW3 9830   0.746   1.507   4.123  0.3171  0.5203 -0.6747
 2439SOL    MW4 9831   0.673   1.478   4.087 -0.0230  0.3138  0.1640
 2440SOL     OW 9832   0.219   1.576   4.118 -0.1991  0.1570  0.2414
 2440SOL    HW2 9833   0.228   1.487   4.152 -1.0586  0.1593  0.4819
 2440SOL    HW3 9834   0.135   1.606   4.152 -1.1747  0.0917 -2.0716
 2440SOL    MW4 9835   0.209   1.568   4.127 -0.4412  0.1487 -0.0315
 2441SOL     OW 9836   0.463   1.942   4.169 -0.0037  0.3152 -0.1255
 2441SOL    HW2 9837   0.473   1.851   4.195 -1.8023  0.1420  0.0275
 2441SOL    HW3 9838   0.451   1.939   4.074 -0.3367  0.3543 -0.0878
 2441SOL    MW4 9839   0.462   1.930   4.160 -0.2849  0.2975 -0.1006
 2442SOL     OW 9840   0.680   2.090   4.264  0.1539 -0.2058 -0.3474
 2442SOL    HW2 9841   0.702   2.045   4.346  0.9720 -2.1330 -1.5785
 2442SOL    HW3 9842   0.607   2.040   4.229 -1.3616  1.6860  0.0504
 2442SOL    MW4 9843   0.673   2.077   4.270  0.0619 -0.2105 -0.4578
 2443SOL     OW 9844   0.700   2.346   4.184  0.7118  0.5940  0.1980
 2443SOL    HW2 9845   0.707   2.257   4.220  2.1995  0.6723  0.1301
 2443SOL    HW3 9846   0.695   2.332   4.090  0.0857  0.5447  0.2372
 2443SOL    MW4 9847   0.700   2.332   4.176  0.8255  0.5975  0.1945
 2444SOL     OW 9848   0.424   2.425   4.226 -0.0958 -0.6101 -0.0771
 2444SOL    HW2 9849   0.439   2.505   4.175  0.5040 -1.3808 -1.1339
 2444SOL    HW3 9850   0.509   2.381   4.228 -0.6097 -1.6200 -0.1977
 2444SOL    MW4 9851   0.437   2.430   4.219 -0.0845 -0.8450 -0.2317
 2445SOL     OW 9852   0.451   2.679   4.097  0.1669 -0.4825  0.7477
 2445SOL    HW2 9853   0.524   2.735   4.123  0.3589 -0.7979  0.8883
 2445SOL    HW3 9854   0.447   2.687   4.002 -1.4552  1.8295  0.9519
 2445SOL    MW4 9855   0.460   2.687   4.088 -0.0218 -0.2191  0.7930
 2446SOL     OW 9856   0.680   2.833   4.179  0.3853  0.1977 -0.5640
 2446SOL    HW2 9857   0.690   2.822   4.274 -0.7078  1.1965 -0.3242
 2446SOL    HW3 9858   0.692   2.927   4.165  0.2350  0.0960 -1.3788
 2446SOL    MW4 9859   0.683   2.844   4.190  0.2213  0.3161 -0.6394
 2447SOL     OW 9860   0.730   3.115   4.092  0.5446 -0.2118  0.1047
 2447SOL    HW2 9861   0.801   3.165   4.133 -0.4551  2.1607 -0.9476
 2447SOL    HW3 9862   0.653   3.135   4.144  0.3178 -1.4782  0.2695
 2447SOL    MW4 9863   0.729   3.124   4.104  0.3827 -0.0660 -0.0129
 2448SOL     OW 9864   0.481   3.229   4.215  0.6344  0.5516 -0.3532
 2448SOL    HW2 9865   0.488   3.247   4.309  0.0844 -1.1453  0.0475
 2448SOL    HW3 9866   0.486   3.314   4.173 -1.6439  1.5887  1.3813
 2448SOL    MW4 9867   0.482   3.242   4.222  0.2612  0.4644 -0.0715
 2449SOL     OW 9868   0.488   3.471   4.093 -0.2063 -0.1680  0.1974
 2449SOL    HW2 9869   0.575   3.510   4.103  0.5256 -1.8274  0.6492
 2449SOL    HW3 9870   0.474   3.469   3.999  0.1111  0.4178  0.1355
 2449SOL    MW4 9871   0.498   3.476   4.082 -0.0679 -0.3099  0.2489
 2450SOL     OW 9872   0.734   3.602   4.210  0.0021 -0.0120  0.4171
 2450SOL    HW2 9873   0.715   3.542   4.282 -0.9080 -0.4420 -0.1847
 2450SOL    HW3 9874   0.804   3.559   4.161  1.6492  0.9504  1.8535
 2450SOL    MW4 9875   0.741   3.589   4.213  0.0994  0.0584  0.5269
 2451SOL     OW 9876   0.699   3.877   4.146  0.4339 -0.4351 -0.0453
 2451SOL    HW2 9877   0.625   3.926   4.183 -0.5295 -0.2423 -2.1356
 2451SOL    HW3 9878   0.693   3.791   4.187 -1.2949 -0.5934 -0.5821
 2451SOL    MW4 9879   0.688   3.872   4.157  0.0787 -0.4303 -0.3915
 2452SOL     OW 9880   0.207   3.838   4.180 -0.2821  0.4877  0.3599
 2452SOL    HW2 9881   0.285   3.892   4.186 -0.5048  0.9158 -0.4835
 2452SOL    HW3 9882   0.235   3.751   4.207  0.4245  0.6917  0.2823
 2452SOL    MW4 9883   0.221   3.834   4.185 -0.2182  0.5713  0.2379
 2453SOL     OW 9884   0.445   4.220   4.159 -0.3664 -0.3509 -0.4883
 2453SOL    HW2 9885   0.390   4.290   4.193  1.4439  0.7217  0.2905
 2453SOL    HW3 9886   0.453   4.239   4.066  1.6577  1.6013  0.0376
 2453SOL    MW4 9887   0.438   4.231   4.151  0.1395  0.0486 -0.3161
 2454SOL     OW 9888   0.690   4.325   4.280 -0.1160  0.2368 -0.3110
 2454SOL    HW2 9889   0.607   4.288   4.251 -0.7224  1.2565  0.1216
 2454SOL    HW3 9890   0.686   4.417   4.256  0.2294  0.6391  1.1207
 2454SOL    MW4 9891   0.679   4.332   4.273 -0.1504  0.4249 -0.0648
 2455SOL     OW 9892   1.343   0.152   4.288 -0.2098 -0.1548 -0.2446
 2455SOL    HW2 9893   1.375   0.176   4.375 -2.0845 -0.6110  0.6188
 2455SOL    HW3 9894   1.271   0.090   4.306 -0.5769 -0.3051 -2.1179
 2455SOL    MW4 9895   1.338   0.147   4.302 -0.5056 -0.2348 -0.3777
 2456SOL     OW 9896   0.867   0.084   4.267  0.2763 -0.6884  0.1150
 2456SOL    HW2 9897   0.953   0.051   4.289  0.0239 -0.2987  1.7135
 2456SOL    HW3 9898   0.815   0.006   4.247  1.1603 -0.8810 -1.5245
 2456SOL    MW4 9899   0.871   0.069   4.267  0.3596 -0.6624  0.1097
 2457SOL     OW 9900   0.825   0.343   4.103 -0.1739  0.1742  0.6218
 2457SOL    HW2 9901   0.902   0.396   4.120 -0.4517  0.1328  2.1217
 2457SOL    HW3 9902   0.844   0.259   4.147 -1.1113  0.2074  1.0990
 2457SOL    MW4 9903   0.838   0.339   4.111 -0.3342  0.1731  0.8821
 2458SOL     OW 9904   1.054   0.472   4.196  0.4452 -0.3028  0.1787
 2458SOL    HW2 9905   1.032   0.461   4.288 -0.7864 -1.5237 -0.2548
 2458SOL    HW3 9906   1.137   0.426   4.185  0.7353  0.0854  0.7273
 2458SOL    MW4 9907   1.062   0.465   4.207  0.3210 -0.4126  0.1936
 2459SOL     OW 9908   1.379   1.163   4.571 -0.0588  0.1118 -0.0151
 2459SOL    HW2 9909   1.300   1.217   4.573  0.6559  1.1120  2.1619
 2459SOL    HW3 9910   1.347   1.074   4.557 -1.4318  0.7318 -0.9770
 2459SOL    MW4 9911   1.364   1.158   4.569 -0.1457  0.3256  0.1450
 2460SOL     OW 9912   0.647   0.726   4.160  0.3036 -0.3843  0.9798
 2460SOL    HW2 9913   0.571   0.784   4.173 -0.8917 -1.7419  0.2387
 2460SOL    HW3 9914   0.652   0.716   4.065  1.6605  0.0026  1.0115
 2460SOL    MW4 9915   0.637   0.733   4.149  0.3250 -0.5124  0.8864
 2461SOL     OW 9916   0.670   1.184   4.096  0.0875 -0.7460  0.0417
 2461SOL    HW2 9917   0.717   1.174   4.179 -0.2002 -2.1481  0.0534
 2461SOL    HW3 9918   0.669   1.278   4.080 -0.0294 -0.4387  1.7441
 2461SOL    MW4 9919   0.676   1.195   4.105  0.0341 -0.8905  0.2680
 2462SOL     OW 9920   0.816   1.162   4.319  0.3639 -0.0012  0.0166
 2462SOL    HW2 9921   0.901   1.203   4.301  0.2896  0.7160  1.2580
 2462SOL    HW3 9922   0.791   1.195   4.405  0.3174 -2.6712  1.0817
 2462SOL    MW4 9923   0.824   1.172   4.328  0.3480 -0.2588  0.3209
 2463SOL     OW 9924   1.074   1.531   4.140 -0.2962 -0.2473 -0.3466
 2463SOL    HW2 9925   0.990   1.574   4.155  0.0098  0.1988  0.0963
 2463SOL    HW3 9926   1.138   1.585   4.186  0.3126 -0.2733 -1.1303
 2463SOL    MW4 9927   1.072   1.544   4.148 -0.1756 -0.1918 -0.3915
 2464SOL     OW 9928   0.850   1.669   4.227 -1.1655 -0.3991  0.1230
 2464SOL    HW2 9929   0.860   1.760   4.199  1.0197 -0.8833 -0.7549
 2464SOL    HW3 9930   0.830   1.674   4.320 -1.4728  0.9773 -0.0066
 2464SOL    MW4 9931   0.849   1.682   4.235 -0.9177 -0.2813 -0.0095
 2465SOL     OW 9932   0.887   1.941   4.157 -0.1923  0.0477 -0.1542
 2465SOL    HW2 9933   0.826   2.011   4.181 -0.6468 -0.2481 -0.4181
 2465SOL    HW3 9934   0.896   1.949   4.062 -1.1416 -0.9489 -0.3503
 2465SOL    MW4 9935   0.880   1.951   4.148 -0.3775 -0.1228 -0.2151
 2466SOL     OW 9936   1.115   2.066   4.267 -0.2729 -0.0969 -0.4363
 2466SOL    HW2 9937   1.038   2.017   4.239 -0.3611 -0.0780 -0.2280
 2466SOL    HW3 9938   1.094   2.095   4.356  0.1641 -0.4949 -0.2028
 2466SOL    MW4 9939   1.102   2.063   4.275 -0.2269 -0.1469 -0.3786
 2467SOL     OW 9940   1.614   2.473   4.240  0.2476 -0.4882 -0.2199
 2467SOL    HW2 9941   1.622   2.527   4.319 -0.6646  0.3523 -0.6887
 2467SOL    HW3 9942   1.704   2.467   4.206  0.4465  0.2566  0.1559
 2467SOL    MW4 9943   1.627   2.480   4.246  0.1534 -0.2792 -0.2322
 2468SOL     OW 9944   0.939   2.473   4.259  0.6578  0.0749 -0.3362
 2468SOL    HW2 9945   0.851   2.445   4.234  0.6505  0.6475 -0.9738
 2468SOL    HW3 9946   0.997   2.410   4.215  0.5532 -0.7840  0.7285
 2468SOL    MW4 9947   0.935   2.461   4.250  0.6430  0.0372 -0.2794
 2469SOL     OW 9948   0.920   2.722   4.121 -0.1227 -0.0176  0.0953
 2469SOL    HW2 9949   0.931   2.629   4.139  0.3345 -0.0843 -0.5175
 2469SOL    HW3 9950   0.830   2.742   4.149 -1.0629 -1.1692 -2.0169
 2469SOL    MW4 9951   0.910   2.712   4.127 -0.1865 -0.1781 -0.2637
 2470SOL     OW 9952   1.119   2.864   4.266 -0.7062  0.4922 -0.1461
 2470SOL    HW2 9953   1.199   2.813   4.254 -0.7027  0.5067 -0.1844
 2470SOL    HW3 9954   1.052   2.817   4.217 -0.9480 -0.0641  0.7159
 2470SOL    MW4 9955   1.121   2.851   4.258 -0.7377  0.4206 -0.0372
 2471SOL     OW 9956   1.168   3.111   4.140  0.0386  0.0551  0.1721
 2471SOL    HW2 9957   1.135   3.099   4.052 -0.1721 -0.0480  0.2653
 2471SOL    HW3 9958   1.152   3.027   4.184 -0.5299  0.3425  0.5238
 2471SOL    MW4 9959   1.161   3.098   4.135 -0.0641  0.0794  0.2308
 2472SOL     OW 9960   0.938   3.253   4.229 -0.2325 -0.0558 -0.1273
 2472SOL    HW2 9961   0.949   3.287   4.318  1.3917 -0.0995 -0.2950
 2472SOL    HW3 9962   1.020   3.207   4.211 -0.5510 -0.0405 -1.6510
 2472SOL    MW4 9963   0.950   3.252   4.238 -0.0602 -0.0594 -0.3505
 2473SOL     OW 9964   0.962   3.495   4.095  0.1928 -0.2889  0.0902
 2473SOL    HW2 9965   0.975   3.405   4.126 -0.1458 -1.0851 -1.9503
 2473SOL    HW3 9966   0.948   3.485   4.001 -0.4321  1.8714 -0.0608
 2473SOL    MW4 9967   0.962   3.482   4.087  0.0657 -0.1087 -0.1988
 2474SOL     OW 9968   1.191   3.611   4.230 -0.2493  0.6267 -0.5030
 2474SOL    HW2 9969   1.185   3.705   4.210 -2.6609  0.1364 -2.2437
 2474SOL    HW3 9970   1.120   3.571   4.180 -0.3965 -1.9303  1.6470
 2474SOL    MW4 9971   1.181   3.618   4.221 -0.5869  0.2248 -0.4492
 2475SOL     OW 9972   1.119   3.917   4.116  0.2323  0.1767  0.3661
 2475SOL    HW2 9973   1.191   3.977   4.135 -0.6628  1.3545  0.0997
 2475SOL    HW3 9974   1.051   3.941   4.179  0.4883 -1.7194  1.4093
 2475SOL    MW4 9975   1.120   3.928   4.127  0.1478  0.0823  0.4687
 2476SOL     OW 9976   0.897   4.001   4.272 -0.1289 -0.3532 -0.6377
 2476SOL    HW2 9977   0.918   4.083   4.227  0.7307  0.5215  1.3260
 2476SOL    HW3 9978   0.824   3.965   4.222 -0.9101  1.8931 -1.1687
 2476SOL    MW4 9979   0.891   4.007   4.259 -0.1186  0.0582 -0.4487
 2477SOL     OW 9980   0.936   4.273   4.164  0.2075  0.0684 -0.4919
 2477SOL    HW2 9981   1.007   4.314   4.216  0.2507  0.0702 -0.5514
 2477SOL    HW3 9982   0.856   4.297   4.211  0.1894  0.6846 -0.8285
 2477SOL    MW4 9983   0.935   4.282   4.177  0.2108  0.1502 -0.5441
 2478SOL     OW 9984   1.166   4.401   4.271  0.2666  0.2798 -0.2636
 2478SOL    HW2 9985   1.211   4.388   4.354 -0.5982  0.5161  0.2471
 2478SOL    HW3 9986   1.235   4.395   4.205  1.0719  0.8523  0.5226
 2478SOL    MW4 9987   1.181   4.398   4.273  0.2588  0.3867 -0.0920
 2479SOL     OW 9988   1.569   0.011   4.157  0.0337 -0.5318  0.1366
 2479SOL    HW2 9989   1.656   0.040   4.185 -0.5207  1.7957 -0.3773
 2479SOL    HW3 9990   1.509   0.059   4.214 -0.9330 -0.9700 -0.5096
 2479SOL    MW4 9991   1.573   0.021   4.168 -0.1669 -0.2825 -0.0172
 2480SOL     OW 9992   1.270   0.562   4.686 -0.0457  0.4678 -0.0436
 2480SOL    HW2 9993   1.271   0.468   4.667  1.2959  0.1653  1.4131
 2480SOL    HW3 9994   1.340   0.598   4.632 -0.3246  0.5723 -0.3342
 2480SOL    MW4 9995   1.279   0.554   4.677  0.0945  0.4417  0.1097
 2481SOL     OW 9996   1.560   0.827   4.159 -0.4662  0.0248  0.1115
 2481SOL    HW2 9997   1.473   0.854   4.190 -0.4268  0.4147 -0.1086
 2481SOL    HW3 9998   1.555   0.836   4.064 -0.6466 -1.3462 -0.0126
 2481SOL    MW4 9999   1.548   0.832   4.151 -0.4849 -0.1047  0.0658
 2482SOL     OW10000   1.309   0.348   4.101 -0.2451 -0.3549 -0.3305
 2482SOL    HW210001   1.337   0.275   4.157 -1.2036 -0.2252  0.3203
 2482SOL    HW310002   1.378   0.413   4.110  0.0410 -0.7028  0.0058
 2482SOL    MW410003   1.322   0.347   4.110 -0.3337 -0.3837 -0.2003
 2483SOL     OW10004   1.288   0.892   4.227  0.2518  0.1350  0.6478
 2483SOL    HW210005   1.300   0.970   4.173 -0.5084 -1.0239 -1.2512
 2483SOL    HW310006   1.222   0.841   4.181 -0.7025 -0.7148  2.9015
 2483SOL    MW410007   1.281   0.895   4.214  0.0256 -0.1300  0.6952
 2484SOL     OW10008   1.087   0.746   4.106  0.1378 -0.0553  0.0441
 2484SOL    HW210009   1.016   0.791   4.153  0.4758  0.0535  0.4489
 2484SOL    HW310010   1.079   0.655   4.132  0.6355  0.0892  0.6970
 2484SOL    MW410011   1.076   0.740   4.115  0.2481 -0.0218  0.1836
 2485SOL     OW10012   1.908   0.960   4.503  0.1791  0.6202 -0.1392
 2485SOL    HW210013   1.879   0.949   4.412  2.4561  0.2778 -0.8738
 2485SOL    HW310014   1.894   1.053   4.521 -1.7362  0.3767 -0.3024
 2485SOL    MW410015   1.902   0.971   4.493  0.2267  0.5429 -0.2575
 2486SOL     OW10016   1.572   1.585   4.130  0.1429  0.4667 -0.4581
 2486SOL    HW210017   1.645   1.630   4.172 -0.4310  0.0577  1.0103
 2486SOL    HW310018   1.493   1.623   4.170 -0.3955 -0.5381 -0.5510
 2486SOL    MW410019   1.571   1.596   4.141 -0.0039  0.2801 -0.2766
 2487SOL     OW10020   1.404   3.199   4.237 -0.2406 -0.6014 -0.1980
 2487SOL    HW210021   1.418   3.284   4.195 -0.8653  0.5183  1.8356
 2487SOL    HW310022   1.328   3.163   4.191  0.4205 -0.3582 -1.5088
 2487SOL    MW410023   1.396   3.206   4.225 -0.2357 -0.4218 -0.1025
 2488SOL     OW10024   1.319   1.170   4.142  0.0073  0.0038  0.2086
 2488SOL    HW210025   1.307   1.169   4.047 -0.5353  0.7376  0.2564
 2488SOL    HW310026   1.403   1.213   4.155  0.5688 -1.0322  0.0239
 2488SOL    MW410027   1.328   1.176   4.131  0.0097 -0.0361  0.1903
 2489SOL     OW10028   1.391   1.987   4.178 -0.0131 -0.1978  0.0681
 2489SOL    HW210029   1.309   2.028   4.206  0.0424 -0.7935  1.0851
 2489SOL    HW310030   1.455   2.058   4.182 -0.1056 -0.1630  0.9757
 2489SOL    MW410031   1.388   2.002   4.182 -0.0181 -0.2718  0.3219
 2490SOL     OW10032   1.776   1.946   4.111 -0.5398 -0.4813  0.0806
 2490SOL    HW210033   1.869   1.970   4.114  0.2323 -3.3432  1.6589
 2490SOL    HW310034   1.730   2.029   4.110  2.0048  1.0254  1.4842
 2490SOL    MW410035   1.782   1.960   4.111 -0.1024 -0.6602  0.4740
 2491SOL     OW10036   1.866   2.455   4.142  0.0674  0.8600  0.0161
 2491SOL    HW210037   1.921   2.530   4.165  0.7548  0.2532  0.3816
 2491SOL    HW310038   1.918   2.379   4.167 -0.2081  0.2355 -1.2556
 2491SOL    MW410039   1.880   2.455   4.148  0.1218  0.6976 -0.1035
 2492SOL     OW10040   1.343   2.431   4.245  0.0141  0.4388  0.4371
 2492SOL    HW210041   1.436   2.439   4.221 -0.0769 -0.1630 -0.1280
 2492SOL    HW310042   1.343   2.375   4.322  0.0790 -0.0787  0.0666
 2492SOL    MW410043   1.355   2.425   4.252  0.0106  0.2911  0.3138
 2493SOL     OW10044   1.116   2.313   4.145  0.1964  0.4541 -0.1813
 2493SOL    HW210045   1.113   2.225   4.183 -0.4158  1.4654  2.1662
 2493SOL    HW310046   1.202   2.347   4.169  0.2045  0.7279 -0.5828
 2493SOL    MW410047   1.127   2.306   4.153  0.1167  0.6237  0.0753
 2494SOL     OW10048   1.338   2.728   4.168 -0.4865  0.3092  0.4455
 2494SOL    HW210049   1.405   2.771   4.221  1.0347 -0.2768 -0.9334
 2494SOL    HW310050   1.354   2.634   4.182 -0.1479  0.1557 -0.9150
 2494SOL    MW410051   1.349   2.721   4.177 -0.2412  0.2117  0.0844
 2495SOL     OW10052   2.063   2.904   4.115  0.5241  0.7285  0.0609
 2495SOL    HW210053   1.977   2.866   4.134  0.5881  0.4165 -0.2703
 2495SOL    HW310054   2.053   2.942   4.027  1.0840 -0.3652 -0.4776
 2495SOL    MW410055   2.050   2.904   4.106  0.6063  0.5431 -0.0534
 2496SOL     OW10056   1.612   3.622   4.492  0.0836 -0.2109 -0.1591
 2496SOL    HW210057   1.682   3.575   4.536  0.0295 -0.4869 -0.3642
 2496SOL    HW310058   1.532   3.590   4.533  0.0996  0.3982  0.3477
 2496SOL    MW410059   1.610   3.612   4.503  0.0786 -0.1671 -0.1192
 2497SOL     OW10060   1.401   3.457   4.140  0.0768 -0.2332 -0.4421
 2497SOL    HW210061   1.338   3.517   4.180 -0.2303 -0.7336 -0.1648
 2497SOL    HW310062   1.394   3.474   4.046 -0.4764 -0.2823 -0.4135
 2497SOL    MW410063   1.391   3.467   4.133 -0.0368 -0.3059 -0.4020
 2498SOL     OW10064   1.604   3.634   4.207 -0.1735 -0.1374  0.0605
 2498SOL    HW210065   1.606   3.622   4.302 -0.9525 -0.3987  0.0460
 2498SOL    HW310066   1.528   3.583   4.178  0.1802 -0.2187 -0.7231
 2498SOL    MW410067   1.594   3.625   4.216 -0.2295 -0.1826 -0.0448
 2499SOL     OW10068   1.356   4.044   4.186  0.4547 -0.5254 -0.4998
 2499SOL    HW210069   1.440   4.006   4.162  0.5323  0.0903 -1.2341
 2499SOL    HW310070   1.362   4.135   4.157  0.1067 -0.0730  0.8094
 2499SOL    MW410071   1.368   4.051   4.179  0.4190 -0.3843 -0.4239
 2500SOL     OW10072   1.588   3.900   4.121  0.0286  0.5283 -0.1293
 2500SOL    HW210073   1.585   3.808   4.148  0.3425  0.6881  0.4601
 2500SOL    HW310074   1.670   3.933   4.157  0.9075  0.5158 -2.0644
 2500SOL    MW410075   1.598   3.892   4.130  0.1858  0.5474 -0.3066
 2501SOL     OW10076   1.369   4.315   4.122 -0.4296 -0.2067 -0.6195
 2501SOL    HW210077   1.451   4.354   4.153 -0.5542  0.1867 -0.7735
 2501SOL    HW310078   1.390   4.278   4.037 -0.2718 -0.6113 -0.4034
 2501SOL    MW410079   1.383   4.315   4.115 -0.4252 -0.2079 -0.6108
 2502SOL     OW10080   1.610   4.400   4.222 -0.3379 -0.4740 -0.3808
 2502SOL    HW210081   1.618   4.494   4.206 -0.1275 -0.2273  1.0655
 2502SOL    HW310082   1.691   4.363   4.187 -0.0384  0.0010 -0.1957
 2502SOL    MW410083   1.622   4.407   4.215 -0.2705 -0.3786 -0.1655
 2503SOL     OW10084   2.016   4.653   4.093  0.1701  0.3788  0.7083
 2503SOL    HW210085   1.944   4.693   4.141  0.7602  1.3534  0.7969
 2503SOL    HW310086   1.993   4.666   4.001 -1.3350 -2.1580  0.6759
 2503SOL    MW410087   2.003   4.660   4.087  0.0496  0.1726  0.7153
 2504SOL     OW10088   1.802   0.113   4.233  0.3187  0.0854  0.1776
 2504SOL    HW210089   1.823   0.141   4.322  1.9643  0.5329 -0.3418
 2504SOL    HW310090   1.786   0.194   4.185  0.6100 -0.1023 -0.2350
 2504SOL    MW410091   1.802   0.128   4.238  0.5742  0.1197  0.0544
 2505SOL     OW10092   1.788   0.368   4.076 -0.7845 -0.1448  0.3104
 2505SOL    HW210093   1.858   0.429   4.097 -1.3484 -0.2688  2.6756
 2505SOL    HW310094   1.709   0.408   4.113 -1.1947 -2.1518  1.7307
 2505SOL    MW410095   1.787   0.381   4.084 -0.9130 -0.4259  0.8097
 2506SOL     OW10096   1.476   0.670   4.539  0.1012 -0.0321  0.6139
 2506SOL    HW210097   1.430   0.751   4.519 -0.8526 -0.6842  0.1574
 2506SOL    HW310098   1.535   0.693   4.611 -0.5618  0.9233  0.8557
 2506SOL    MW410099   1.478   0.684   4.546 -0.1121  0.0079  0.5856
 2507SOL     OW10100   1.825   0.929   4.231 -0.3642  0.1379  0.4397
 2507SOL    HW210101   1.731   0.909   4.227 -0.2255 -0.4830  0.2501
 2507SOL    HW310102   1.831   1.018   4.198 -1.0223  0.6159  1.5713
 2507SOL    MW410103   1.813   0.938   4.226 -0.4328  0.1190  0.5646
 2508SOL     OW10104   2.127   0.039   4.432 -0.1079  0.4407 -0.9197
 2508SOL    HW210105   2.064   0.108   4.451 -0.7930 -0.2447 -0.6839
 2508SOL    HW310106   2.188   0.079   4.370 -1.0846  0.9486 -1.5732
 2508SOL    MW410107   2.127   0.053   4.426 -0.3271  0.4173 -0.9747
 2509SOL     OW10108   1.801   1.184   4.135  0.2678 -0.1139  0.5677
 2509SOL    HW210109   1.864   1.255   4.151 -0.5971  0.6795  0.4597
 2509SOL    HW310110   1.718   1.218   4.167 -0.2917 -0.8170 -0.1318
 2509SOL    MW410111   1.799   1.198   4.142  0.0799 -0.1020  0.4616
 2510SOL     OW10112   0.891   0.902   4.268 -0.3616  0.2959  0.3115
 2510SOL    HW210113   0.810   0.857   4.245  0.5995 -0.2722 -2.0803
 2510SOL    HW310114   0.866   0.994   4.279 -1.3065  0.1336 -0.4464
 2510SOL    MW410115   0.877   0.908   4.266 -0.3595  0.1995 -0.1044
 2511SOL     OW10116   2.691   1.096   4.142  0.1403  0.4813  0.3176
 2511SOL    HW210117   2.603   1.129   4.163 -0.1534 -0.4990  0.6770
 2511SOL    HW310118   2.748   1.134   4.209 -0.4579 -1.0179  1.7017
 2511SOL    MW410119   2.687   1.105   4.154  0.0226  0.1541  0.5474
 2512SOL     OW10120   2.193   0.919   4.500 -0.2163  0.2096 -0.4709
 2512SOL    HW210121   2.105   0.949   4.522 -0.9489 -0.8122 -1.9168
 2512SOL    HW310122   2.198   0.830   4.537  0.3683  0.4172 -0.0326
 2512SOL    MW410123   2.182   0.911   4.508 -0.2358  0.1022 -0.6037
 2513SOL     OW10124   1.799   1.703   4.243 -0.2044  0.6090  0.2048
 2513SOL    HW210125   1.839   1.705   4.330  1.8991 -0.3744 -0.6982
 2513SOL    HW310126   1.810   1.792   4.210  0.5685  0.5440  0.2745
 2513SOL    MW410127   1.806   1.715   4.250  0.1751  0.4708  0.0949
 2514SOL     OW10128   2.057   1.974   4.108  0.3213  0.0760 -0.3300
 2514SOL    HW210129   2.059   2.063   4.145 -0.2197  0.2138 -0.6322
 2514SOL    HW310130   2.115   1.924   4.165 -1.7499 -0.0793  1.6735
 2514SOL    MW410131   2.065   1.979   4.120 -0.0236  0.0738 -0.1054
 2515SOL     OW10132   2.451   2.170   4.117 -0.5456 -0.0260 -0.5258
 2515SOL    HW210133   2.436   2.088   4.165  1.2501 -1.3982 -2.2384
 2515SOL    HW310134   2.378   2.226   4.143 -1.6725 -2.0610  0.8908
 2515SOL    MW410135   2.439   2.167   4.127 -0.4573 -0.4756 -0.5651
 2516SOL     OW10136   1.314   2.441   4.794 -0.0247 -0.0933  0.4673
 2516SOL    HW210137   1.356   2.526   4.808 -0.0998  0.2487 -1.2410
 2516SOL    HW310138   1.246   2.459   4.729  0.1167 -1.5134 -0.0912
 2516SOL    MW410139   1.310   2.455   4.788 -0.0160 -0.2356  0.1683
 2517SOL     OW10140   1.616   2.624   4.474 -0.6135 -0.1271 -0.0785
 2517SOL    HW210141   1.545   2.687   4.464  0.6724  1.2075 -1.1651
 2517SOL    HW310142   1.696   2.675   4.461  0.5474 -1.6269  0.8984
 2517SOL    MW410143   1.617   2.639   4.471 -0.2906 -0.1488 -0.0930
 2518SOL     OW10144   2.674   2.827   4.370 -0.0713  0.2177 -0.1771
 2518SOL    HW210145   2.582   2.806   4.354 -0.3119  0.6086  0.6921
 2518SOL    HW310146   2.672   2.894   4.437  0.9131 -0.8195  0.9124
 2518SOL    MW410147   2.662   2.833   4.377  0.0269  0.1326  0.0815
 2519SOL     OW10148   2.128   3.221   4.293  0.1733  0.0896  0.3099
 2519SOL    HW210149   2.152   3.289   4.230  2.2744 -1.2637 -0.4070
 2519SOL    HW310150   2.124   3.266   4.377  0.9169  1.2252 -0.2523
 2519SOL    MW410151   2.130   3.236   4.296  0.5488  0.0608  0.1411
 2520SOL     OW10152   1.624   3.027   4.162  0.3684 -0.3188  1.0129
 2520SOL    HW210153   1.700   3.077   4.191  0.4965 -0.1978  0.4795
 2520SOL    HW310154   1.549   3.081   4.185  0.2977 -1.4940  3.6878
 2520SOL    MW410155   1.624   3.040   4.169  0.3759 -0.4578  1.2960
 2521SOL     OW10156   1.806   3.473   4.112  0.1099 -0.2935  0.4621
 2521SOL    HW210157   1.730   3.530   4.124  2.9114  3.5599  0.7744
 2521SOL    HW310158   1.828   3.482   4.019 -0.5920 -2.4835  0.0608
 2521SOL    MW410159   1.799   3.482   4.101  0.3870 -0.0739  0.4511
 2522SOL     OW10160   2.042   3.576   4.231 -0.2906  0.7089 -0.4186
 2522SOL    HW210161   2.038   3.670   4.217 -2.5204  0.6385 -0.5215
 2522SOL    HW310162   1.952   3.546   4.214  0.0876 -1.2360  0.8678
 2522SOL    MW410163   2.029   3.584   4.227 -0.5350  0.4430 -0.2627
 2523SOL     OW10164   2.036   3.853   4.182  0.1525 -0.1731  0.3558
 2523SOL    HW210165   1.971   3.919   4.204 -0.3280 -0.4326 -0.2819
 2523SOL    HW310166   2.044   3.858   4.087  1.1365 -0.0736  0.4370
 2523SOL    MW410167   2.029   3.862   4.173  0.2186 -0.1941  0.2818
 2524SOL     OW10168   1.808   4.022   4.239 -0.4903 -0.0586  0.3058
 2524SOL    HW210169   1.809   4.100   4.182  3.0758 -0.8256 -0.7690
 2524SOL    HW310170   1.774   4.055   4.322 -1.5328  2.0774 -0.8965
 2524SOL    MW410171   1.803   4.037   4.242 -0.1572  0.1225  0.0052
 2525SOL     OW10172   1.834   4.271   4.137  0.4166 -0.5430 -0.1409
 2525SOL    HW210173   1.919   4.300   4.170  1.4823 -2.9097 -0.6774
 2525SOL    HW310174   1.837   4.289   4.043  0.4502 -0.9115 -0.2113
 2525SOL    MW410175   1.846   4.277   4.129  0.5616 -0.9036 -0.2208
 2526SOL     OW10176   2.074   4.410   4.216 -0.3323 -0.5224  0.2615
 2526SOL    HW210177   2.055   4.438   4.305  0.5021  1.3231 -0.1073
 2526SOL    HW310178   2.052   4.487   4.162 -2.6720 -2.2426 -1.3359
 2526SOL    MW410179   2.068   4.424   4.220 -0.5310 -0.5059  0.0019
 2527SOL     OW10180   2.695   0.122   4.259  0.0461 -0.2226 -0.1341
 2527SOL    HW210181   2.680   0.207   4.219 -0.6503  0.9407  2.4602
 2527SOL    HW310182   2.781   0.095   4.226  0.6267  1.8532 -0.4280
 2527SOL    MW410183   2.704   0.130   4.249  0.0310  0.2048  0.1693
 2528SOL     OW10184   2.245   0.096   4.194  0.1500 -0.1889  0.0534
 2528SOL    HW210185   2.321   0.048   4.161  0.5740  0.4164  0.1360
 2528SOL    HW310186   2.170   0.050   4.158  0.5773 -0.2990 -0.7005
 2528SOL    MW410187   2.245   0.084   4.185  0.2620 -0.1235 -0.0358
 2529SOL     OW10188   2.675   0.828   4.236  0.0335  0.3070 -0.0659
 2529SOL    HW210189   2.586   0.800   4.212 -0.5784  1.6774  0.5008
 2529SOL    HW310190   2.685   0.914   4.194  0.4196  0.9493  1.3132
 2529SOL    MW410191   2.664   0.836   4.227  0.0038  0.5726  0.1907
 2530SOL     OW10192   2.219   0.962   4.241 -0.5098 -0.8241  0.2954
 2530SOL    HW210193   2.194   0.936   4.330  0.4814 -0.3641  0.7160
 2530SOL    HW310194   2.301   0.915   4.225 -0.6933 -0.9091 -0.3763
 2530SOL    MW410195   2.227   0.953   4.251 -0.4032 -0.7746  0.2618
 2531SOL     OW10196   2.028   0.786   4.102  0.2030  0.0920 -0.0844
 2531SOL    HW210197   1.947   0.830   4.130  0.0795  0.0291 -0.3438
 2531SOL    HW310198   2.098   0.837   4.144 -0.0449 -0.9718  1.6485
 2531SOL    MW410199   2.027   0.799   4.111  0.1540 -0.0566  0.1101
 2532SOL     OW10200   2.375   1.319   5.034 -0.3427 -0.8104  0.0868
 2532SOL    HW210201   2.327   1.242   5.063 -0.5400 -0.2261  1.3196
 2532SOL    HW310202   2.307   1.379   5.002 -0.2033 -1.0523 -0.6952
 2532SOL    MW410203   2.359   1.317   5.033 -0.3505 -0.7653  0.1464
 2533SOL     OW10204   2.160   1.730   4.494  0.2206  0.0192  0.3267
 2533SOL    HW210205   2.154   1.637   4.513 -1.8772  0.4005  1.6552
 2533SOL    HW310206   2.234   1.761   4.545 -0.8049 -0.4031  2.0907
 2533SOL    MW410207   2.169   1.722   4.503 -0.1917  0.0137  0.7348
 2534SOL     OW10208   2.040   1.622   4.107  0.0741 -0.2558  0.0395
 2534SOL    HW210209   2.026   1.582   4.022 -0.5226 -0.5767  0.2848
 2534SOL    HW310210   1.953   1.652   4.134 -0.4292 -3.2312  2.0605
 2534SOL    MW410211   2.027   1.620   4.100 -0.0710 -0.6907  0.3386
 2535SOL     OW10212   2.493   1.435   4.344 -1.1690  0.5883  0.3006
 2535SOL    HW210213   2.479   1.350   4.302 -0.2427  0.0339  1.1267
 2535SOL    HW310214   2.479   1.498   4.273  0.3512 -0.3402 -0.8461
 2535SOL    MW410215   2.489   1.432   4.329 -0.8459  0.3928  0.2589
 2536SOL     OW10216   2.437   1.050   4.471 -0.1455  0.3824  0.6009
 2536SOL    HW210217   2.497   0.977   4.478 -0.5903 -0.2052 -1.4219
 2536SOL    HW310218   2.350   1.011   4.482 -0.3565  0.6690 -0.0291
 2536SOL    MW410219   2.433   1.035   4.474 -0.2320  0.3427  0.2508
 2537SOL     OW10220   2.238   1.773   4.228 -0.4359  0.1207  0.0745
 2537SOL    HW210221   2.177   1.728   4.169 -3.4559  1.2013  2.2571
 2537SOL    HW310222   2.213   1.743   4.315  2.2876  0.5010  1.0244
 2537SOL    MW410223   2.226   1.763   4.232 -0.4752  0.3134  0.4878
 2538SOL     OW10224   2.474   2.405   4.327  0.0107  0.3084 -0.1917
 2538SOL    HW210225   2.413   2.372   4.261 -1.3063  0.0822  1.1094
 2538SOL    HW310226   2.422   2.467   4.379  1.3668  1.4195 -0.1264
 2538SOL    MW410227   2.459   2.409   4.326  0.0160  0.4251 -0.0114
 2539SOL     OW10228   3.172   2.438   4.194  0.7996 -0.3463  0.4426
 2539SOL    HW210229   3.263   2.423   4.168  0.3154 -0.0702 -1.5489
 2539SOL    HW310230   3.156   2.530   4.171  0.3943 -0.0310  1.9790
 2539SOL    MW410231   3.182   2.448   4.187  0.6824 -0.2682  0.3824
 2540SOL     OW10232   2.426   2.043   3.722  0.2376 -0.2919 -0.0603
 2540SOL    HW210233   2.354   1.994   3.763  0.5430 -0.0178  0.8128
 2540SOL    HW310234   2.429   2.126   3.770  1.9550 -0.8080  0.7514
 2540SOL    MW410235   2.417   2.047   3.734  0.5045 -0.3240  0.1619
 2541SOL     OW10236   2.480   1.910   4.216  0.4336 -0.4796  0.2150
 2541SOL    HW210237   2.391   1.884   4.240 -0.0524  1.1522  0.2458
 2541SOL    HW310238   2.531   1.900   4.296  0.2134 -1.0974  0.2809
 2541SOL    MW410239   2.475   1.905   4.229  0.3405 -0.3458  0.2275
 2542SOL     OW10240   2.443   3.619   4.456  0.1300  0.0793 -0.5235
 2542SOL    HW210241   2.525   3.645   4.499 -1.1014  0.2933  1.7881
 2542SOL    HW310242   2.418   3.537   4.498 -1.8421  1.0098  0.1905
 2542SOL    MW410243   2.450   3.612   4.467 -0.2930  0.2303 -0.1240
 2543SOL     OW10244   2.502   3.014   4.074  0.3510  0.1764 -0.0350
 2543SOL    HW210245   2.416   3.017   4.115  0.6396 -1.6018  0.7299
 2543SOL    HW310246   2.533   2.924   4.088  2.1716  0.6857 -0.6151
 2543SOL    MW410247   2.495   3.002   4.081  0.6294  0.0091 -0.0105
 2544SOL     OW10248   2.286   2.975   4.248 -0.3801 -0.3830  0.4176
 2544SOL    HW210249   2.202   2.943   4.214 -0.0618  1.5144 -2.3235
 2544SOL    HW310250   2.263   3.053   4.299 -0.3944 -0.6534  0.8317
 2544SOL    MW410251   2.272   2.981   4.250 -0.3400 -0.1681  0.1106
 2545SOL     OW10252   2.252   3.435   4.117 -0.5981  0.3039 -0.1004
 2545SOL    HW210253   2.329   3.491   4.130  0.0391 -0.3539 -0.9504
 2545SOL    HW310254   2.178   3.490   4.141  0.1941  0.6465  1.6645
 2545SOL    MW410255   2.252   3.449   4.122 -0.4096  0.2625  0.0205
 2546SOL     OW10256   2.477   3.576   4.176 -0.9618 -0.0366  0.0900
 2546SOL    HW210257   2.460   3.578   4.270  1.6408 -0.3372  0.6010
 2546SOL    HW310258   2.476   3.667   4.149 -0.7889  0.1196  0.5990
 2546SOL    MW410259   2.475   3.588   4.185 -0.5958 -0.0556  0.2246
 2547SOL     OW10260   2.443   3.844   4.096  0.4063 -0.3088  0.2759
 2547SOL    HW210261   2.522   3.871   4.143  1.6071  0.0762 -1.9024
 2547SOL    HW310262   2.455   3.878   4.007 -2.4368  0.1822  0.0278
 2547SOL    MW410263   2.455   3.852   4.090  0.1893 -0.1931 -0.0443
 2548SOL     OW10264   2.272   3.988   4.256 -0.2974 -0.2937 -0.0602
 2548SOL    HW210265   2.343   3.945   4.210  0.7492  0.1165  1.1464
 2548SOL    HW310266   2.193   3.945   4.224  0.5887 -1.7700 -0.2992
 2548SOL    MW410267   2.271   3.977   4.246 -0.0424 -0.4344  0.0672
 2549SOL     OW10268   2.272   4.234   4.122 -0.2850  0.3536 -0.7343
 2549SOL    HW210269   2.252   4.150   4.164  0.8389  0.1864 -0.5155
 2549SOL    HW310270   2.200   4.292   4.149  0.0801  0.0671  0.9391
 2549SOL    MW410271   2.260   4.231   4.131 -0.0887  0.2937 -0.4845
 2550SOL     OW10272   2.481   4.377   4.209 -0.5723 -0.2763 -0.1016
 2550SOL    HW210273   2.555   4.336   4.163  0.1833 -1.3662  2.0056
 2550SOL    HW310274   2.404   4.328   4.180 -0.3470  0.1983 -1.5302
 2550SOL    MW410275   2.481   4.365   4.199 -0.4427 -0.3576 -0.0119
 2551SOL     OW10276   2.910   0.012   4.118  0.1453  0.1800 -0.0111
 2551SOL    HW210277   2.992   0.053   4.143  0.3488  0.0851 -0.5090
 2551SOL    HW310278   2.921  -0.080   4.142 -0.4040  0.4616  1.3324
 2551SOL    MW410279   2.922   0.005   4.124  0.0997  0.2050  0.1006
 2552SOL     OW10280   2.486   4.645   4.137  0.0092  0.5121  0.3575
 2552SOL    HW210281   2.555   4.682   4.193 -0.7034  1.0313  0.9125
 2552SOL    HW310282   2.475   4.556   4.169 -0.4864  0.8480  1.1470
 2552SOL    MW410283   2.494   4.638   4.149 -0.1502  0.6251  0.5350
 2553SOL     OW10284   2.699   0.396   4.146  0.4211 -0.2141 -0.0843
 2553SOL    HW210285   2.710   0.397   4.051  0.3811  0.1247 -0.0853
 2553SOL    HW310286   2.777   0.439   4.180  0.6389 -0.7123  0.0592
 2553SOL    MW410287   2.711   0.402   4.138  0.4447 -0.2351 -0.0653
 2554SOL     OW10288   2.934   0.500   4.212 -0.0764  0.1328  0.5780
 2554SOL    HW210289   2.915   0.484   4.305  0.0325 -1.0688  0.3932
 2554SOL    HW310290   2.927   0.595   4.203  0.1072  0.2807  1.8614
 2554SOL    MW410291   2.930   0.511   4.223 -0.0379 -0.0062  0.7224
 2555SOL     OW10292   2.943   0.769   4.125  0.0384  0.0382  0.0621
 2555SOL    HW210293   2.853   0.783   4.154  0.1512  0.1114  0.3735
 2555SOL    HW310294   2.938   0.773   4.029 -0.0295  1.5649  0.1250
 2555SOL    MW410295   2.930   0.771   4.116  0.0446  0.2494  0.1111
 2556SOL     OW10296   2.265   3.784   4.611  0.1316  0.5368  0.0471
 2556SOL    HW210297   2.302   3.759   4.695  0.4891  2.1877  0.3899
 2556SOL    HW310298   2.323   3.743   4.546 -2.9061 -4.9531  0.4721
 2556SOL    MW410299   2.278   3.775   4.613 -0.2220  0.0303  0.1483
 2557SOL     OW10300   3.945   0.437   4.478 -0.2531  0.0452  0.0585
 2557SOL    HW210301   3.922   0.500   4.546  0.9004 -1.1951  1.6506
 2557SOL    HW310302   4.040   0.426   4.487  0.2262  1.1449 -2.9094
 2557SOL    MW410303   3.955   0.444   4.488 -0.0379  0.0266 -0.1225
 2558SOL     OW10304   3.120   1.102   4.207  0.4578 -0.1358 -0.6371
 2558SOL    HW210305   3.108   1.093   4.112  0.5389  3.1369 -0.9984
 2558SOL    HW310306   3.032   1.123   4.240  0.5320 -0.7404 -0.0385
 2558SOL    MW410307   3.106   1.104   4.199  0.4783  0.2162 -0.6056
 2559SOL     OW10308   3.551   1.179   4.162 -0.5452  0.2595 -0.0566
 2559SOL    HW210309   3.631   1.223   4.191  1.1684 -2.8057  0.0931
 2559SOL    HW310310   3.555   1.181   4.067  0.1031 -0.5202 -0.0528
 2559SOL    MW410311   3.562   1.185   4.153 -0.2337 -0.2478 -0.0367
 2560SOL     OW10312   2.860   0.459   4.469 -0.0619 -0.2872 -0.4402
 2560SOL    HW210313   2.831   0.378   4.511  1.3838 -0.2232  0.7299
 2560SOL    HW310314   2.925   0.496   4.529  0.5191  0.8925 -1.7449
 2560SOL    MW410315   2.865   0.453   4.482  0.2055 -0.1232 -0.4578
 2561SOL     OW10316   3.103   2.928   4.845 -0.0591  0.4439  0.5567
 2561SOL    HW210317   3.027   2.923   4.902 -0.5633 -0.1488 -0.1552
 2561SOL    HW310318   3.106   2.842   4.801  1.4575  0.1806  1.1366
 2561SOL    MW410319   3.094   2.916   4.847  0.0744  0.3309  0.5393
 2562SOL     OW10320   3.570   1.191   4.569 -0.2018  0.0874  0.0755
 2562SOL    HW210321   3.475   1.194   4.558 -0.5033 -0.3806  2.2737
 2562SOL    HW310322   3.593   1.099   4.552 -0.0939  0.2552 -0.7127
 2562SOL    MW410323   3.561   1.179   4.565 -0.2275  0.0477  0.2613
 2563SOL     OW10324   3.110   1.768   4.689 -0.3974 -0.0070  0.9287
 2563SOL    HW210325   3.062   1.850   4.706 -0.3616 -0.0769  1.3583
 2563SOL    HW310326   3.048   1.714   4.639 -1.1121 -0.4688  2.3012
 2563SOL    MW410327   3.095   1.772   4.684 -0.4869 -0.0772  1.1663
 2564SOL     OW10328   2.881   3.091   4.123  0.7572 -0.1138 -0.0996
 2564SOL    HW210329   2.888   3.009   4.172  0.6557  0.0766  0.2334
 2564SOL    HW310330   2.956   3.143   4.153 -0.0432  0.5225  0.8372
 2564SOL    MW410331   2.892   3.087   4.134  0.6385 -0.0048  0.0682
 2565SOL     OW10332   2.175   2.371   3.916 -0.5836  0.3786 -0.0647
 2565SOL    HW210333   2.198   2.366   4.009 -2.0830  1.3757  0.3854
 2565SOL    HW310334   2.101   2.310   3.907 -0.4561  0.3025 -0.6062
 2565SOL    MW410335   2.168   2.362   3.927 -0.7644  0.5000 -0.0765
 2566SOL     OW10336   3.349   3.351   5.016  0.2380  0.4087  0.2541
 2566SOL    HW210337   3.393   3.344   5.101 -0.5878  0.9818  0.7342
 2566SOL    HW310338   3.349   3.261   4.982 -2.7679 -0.5423  2.5681
 2566SOL    MW410339   3.355   3.338   5.023 -0.2675  0.3591  0.6227
 2567SOL     OW10340   2.710   2.293   4.075 -0.3777  0.5302 -0.2013
 2567SOL    HW210341   2.626   2.248   4.085  0.0249  0.2064  2.0961
 2567SOL    HW310342   2.695   2.380   4.114  0.2624  0.5767 -0.0522
 2567SOL    MW410343   2.697   2.299   4.082 -0.2401  0.4935  0.1221
 2568SOL     OW10344   2.633   3.187   4.227 -0.4893  0.1587  0.3192
 2568SOL    HW210345   2.584   3.133   4.165  0.3819 -0.5590  0.2326
 2568SOL    HW310346   2.725   3.168   4.207 -0.1955  0.2573  1.5270
 2568SOL    MW410347   2.639   3.177   4.216 -0.3355  0.0768  0.4663
 2569SOL     OW10348   2.713   3.436   4.127  0.1612 -0.7375 -0.0853
 2569SOL    HW210349   2.690   3.348   4.156  0.8037 -1.4591 -1.7101
 2569SOL    HW310350   2.634   3.488   4.142 -0.1756 -1.5574  1.0029
 2569SOL    MW410351   2.699   3.432   4.133  0.2019 -0.9408 -0.1559
 2570SOL     OW10352   2.929   3.630   4.215 -0.3661 -0.4659  0.0932
 2570SOL    HW210353   2.947   3.604   4.306 -0.3629  0.6278  0.4169
 2570SOL    HW310354   2.848   3.584   4.193  0.9887 -2.7351 -0.2196
 2570SOL    MW410355   2.921   3.621   4.224 -0.1869 -0.6208  0.0944
 2571SOL     OW10356   2.934   3.863   4.073 -0.0859  0.0432 -0.3413
 2571SOL    HW210357   3.004   3.913   4.115  0.0760  0.6323 -1.3161
 2571SOL    HW310358   2.936   3.778   4.116 -0.4772  0.9190  1.4751
 2571SOL    MW410359   2.943   3.858   4.084 -0.1166  0.2363 -0.2303
 2572SOL     OW10360   2.700   3.945   4.209 -0.1821  0.2731  0.3853
 2572SOL    HW210361   2.697   4.033   4.172 -1.2738  0.9651  2.0522
 2572SOL    HW310362   2.780   3.907   4.173  0.1762  1.8470 -0.5516
 2572SOL    MW410363   2.710   3.952   4.199 -0.2789  0.5720  0.4816
 2573SOL     OW10364   2.713   4.236   4.113  0.7596  0.5919  0.0798
 2573SOL    HW210365   2.784   4.292   4.144  0.5413  1.7483 -1.4444
 2573SOL    HW310366   2.719   4.241   4.017  0.2809 -1.4142 -0.0656
 2573SOL    MW410367   2.723   4.244   4.104  0.6676  0.4802 -0.1402
 2574SOL     OW10368   2.946   4.430   4.218 -0.4229  0.1618 -0.9609
 2574SOL    HW210369   2.986   4.429   4.305 -0.1444  0.0566 -1.0874
 2574SOL    HW310370   3.001   4.371   4.166 -0.0600  0.9008 -1.4311
 2574SOL    MW410371   2.959   4.422   4.223 -0.3381  0.2456 -1.0390
 2575SOL     OW10372   3.382   4.634   4.132  0.5057  0.6861 -0.6287
 2575SOL    HW210373   3.379   4.544   4.164 -1.6768  0.2553 -1.9337
 2575SOL    HW310374   3.456   4.673   4.178 -0.4025 -0.8757  2.3158
 2575SOL    MW410375   3.391   4.627   4.142  0.0980  0.4230 -0.4120
 2576SOL     OW10376   3.146   0.133   4.174 -0.1864 -0.0815 -0.2603
 2576SOL    HW210377   3.123   0.131   4.267 -0.4608 -2.0882 -0.3581
 2576SOL    HW310378   3.215   0.067   4.164 -0.9350 -0.6784 -1.6759
 2576SOL    MW410379   3.152   0.124   4.185 -0.3214 -0.4250 -0.4601
 2577SOL     OW10380   3.197   0.393   4.154 -0.2510 -0.0530 -0.2091
 2577SOL    HW210381   3.181   0.300   4.169  0.9703 -0.2417 -0.0087
 2577SOL    HW310382   3.113   0.435   4.171 -0.3530 -0.9120  1.5433
 2577SOL    MW410383   3.184   0.387   4.159 -0.1032 -0.1912  0.0482
 2578SOL     OW10384   3.414   0.438   4.329 -0.0572  0.3934  0.0411
 2578SOL    HW210385   3.495   0.413   4.285 -0.3193 -0.7163  0.1749
 2578SOL    HW310386   3.345   0.422   4.264 -0.2754  0.3937  0.2710
 2578SOL    MW410387   3.416   0.433   4.315 -0.1206  0.2470  0.0892
 2579SOL     OW10388   3.402   0.726   4.173  0.3329  0.1022  0.2382
 2579SOL    HW210389   3.322   0.744   4.222 -0.0706 -0.3828 -0.2430
 2579SOL    HW310390   3.422   0.634   4.193  0.8876  0.2769  0.5235
 2579SOL    MW410391   3.394   0.716   4.182  0.3529  0.0612  0.2117
 2580SOL     OW10392   2.919   1.675   4.369 -0.0343 -0.0350  0.1343
 2580SOL    HW210393   3.015   1.677   4.368  0.0041 -0.2695  1.5724
 2580SOL    HW310394   2.895   1.763   4.399 -0.1828 -0.6831  2.0076
 2580SOL    MW410395   2.929   1.687   4.373 -0.0489 -0.1515  0.5717
 2581SOL     OW10396   3.312   1.294   4.253 -0.0542  0.0378  0.2263
 2581SOL    HW210397   3.248   1.236   4.213 -0.5641  1.2576 -0.8057
 2581SOL    HW310398   3.397   1.262   4.221 -0.1160 -1.7189  1.7860
 2581SOL    MW410399   3.315   1.282   4.243 -0.1295 -0.0330  0.2956
 2582SOL     OW10400   3.611   1.919   4.116 -0.4194  0.5893  0.0575
 2582SOL    HW210401   3.692   1.967   4.134 -0.0039 -0.0144 -0.1495
 2582SOL    HW310402   3.613   1.903   4.022 -0.3771 -0.1216  0.1754
 2582SOL    MW410403   3.622   1.923   4.106 -0.3591  0.4158  0.0458
 2583SOL     OW10404   3.339   1.571   4.189  0.1728  0.2267 -0.8373
 2583SOL    HW210405   3.326   1.480   4.214  2.1609  0.0938 -0.1646
 2583SOL    HW310406   3.342   1.570   4.094  0.5588 -0.4885 -0.8251
 2583SOL    MW410407   3.338   1.559   4.180  0.4861  0.1149 -0.7467
 2584SOL     OW10408   3.453   2.126   4.251 -0.2094 -0.0616  0.1219
 2584SOL    HW210409   3.361   2.101   4.265  0.2469 -1.9014 -0.0506
 2584SOL    HW310410   3.495   2.046   4.221  1.3167  0.9573 -0.4909
 2584SOL    MW410411   3.446   2.112   4.249  0.0522 -0.1698  0.0186
 2585SOL     OW10412   2.449   1.186   4.243  0.2277 -0.2960  0.3954
 2585SOL    HW210413   2.362   1.191   4.203  0.7636  0.9804 -0.6545
 2585SOL    HW310414   2.438   1.127   4.318 -1.4994 -0.2751  0.1750
 2585SOL    MW410415   2.436   1.179   4.248  0.0703 -0.1248  0.2275
 2586SOL     OW10416   3.548   2.186   4.515 -0.4906  0.0633 -0.7125
 2586SOL    HW210417   3.621   2.125   4.524 -1.2113 -0.5757  1.2181
 2586SOL    HW310418   3.516   2.172   4.426  1.0137 -0.4615 -1.1883
 2586SOL    MW410419   3.553   2.176   4.505 -0.3870 -0.0901 -0.5198
 2587SOL     OW10420   3.422   2.380   4.126  0.1229  0.1281  0.3411
 2587SOL    HW210421   3.448   2.292   4.153  0.5887 -0.0282 -0.6105
 2587SOL    HW310422   3.413   2.374   4.031 -0.7607  0.8714  0.3697
 2587SOL    MW410423   3.424   2.367   4.117  0.0677  0.2055  0.2193
 2588SOL     OW10424   2.512   1.361   4.779 -0.6153  0.1064  0.2919
 2588SOL    HW210425   2.474   1.327   4.860 -1.0189  0.1772  0.1331
 2588SOL    HW310426   2.450   1.335   4.711 -0.4646  0.3703  0.0534
 2588SOL    MW410427   2.499   1.353   4.781 -0.6487  0.1506  0.2389
 2589SOL     OW10428   3.357   2.873   4.204 -0.1531  0.1596 -0.4541
 2589SOL    HW210429   3.357   2.963   4.172 -0.4834  0.0965 -0.6376
 2589SOL    HW310430   3.447   2.843   4.194 -0.1628  0.2841 -0.9171
 2589SOL    MW410431   3.369   2.881   4.199 -0.1979  0.1678 -0.5398
 2590SOL     OW10432   3.288   3.509   4.796  0.0618  0.4068  0.1327
 2590SOL    HW210433   3.297   3.472   4.884 -0.0988  2.5218  1.0612
 2590SOL    HW310434   3.352   3.461   4.744 -0.6110 -1.6332  1.1342
 2590SOL    MW410435   3.298   3.498   4.801 -0.0479  0.4165  0.3872
 2591SOL     OW10436   3.360   3.140   4.150 -0.1008  0.1758  0.2349
 2591SOL    HW210437   3.270   3.164   4.171 -0.7277 -0.5369 -1.5267
 2591SOL    HW310438   3.365   3.143   4.054  1.7981  0.3849  0.3062
 2591SOL    MW410439   3.349   3.143   4.140  0.0670  0.1094  0.0119
 2592SOL     OW10440   3.105   3.222   4.216 -0.2424  0.3811 -0.0693
 2592SOL    HW210441   3.134   3.310   4.192  0.7594  0.3048  0.8245
 2592SOL    HW310442   3.122   3.215   4.310 -0.3791 -0.7334 -0.1114
 2592SOL    MW410443   3.111   3.232   4.225 -0.1283  0.2239  0.0429
 2593SOL     OW10444   3.168   3.493   4.149  0.5280 -0.6263 -0.8618
 2593SOL    HW210445   3.086   3.531   4.182  1.2940 -0.0804  0.4190
 2593SOL    HW310446   3.157   3.493   4.054 -1.0318 -0.7073 -0.7043
 2593SOL    MW410447   3.155   3.498   4.141  0.4232 -0.5651 -0.6723
 2594SOL     OW10448   3.375   3.649   4.224 -0.0293 -0.1907 -0.1653
 2594SOL    HW210449   3.353   3.676   4.313 -0.8679 -0.4887 -0.2735
 2594SOL    HW310450   3.299   3.597   4.196  0.5508 -0.7007 -0.7881
 2594SOL    MW410451   3.362   3.646   4.232 -0.0632 -0.2973 -0.2618
 2595SOL     OW10452   3.374   3.915   4.154 -0.0936  0.2064  0.2039
 2595SOL    HW210453   3.383   3.824   4.181  0.3150  0.1710 -0.0452
 2595SOL    HW310454   3.373   3.913   4.058  1.3584  0.5766  0.1607
 2595SOL    MW410455   3.375   3.903   4.145  0.1521  0.2506  0.1659
 2596SOL     OW10456   3.123   4.029   4.209 -0.1515 -0.3493 -0.2900
 2596SOL    HW210457   3.099   4.036   4.301 -0.3752  0.1144 -0.3843
 2596SOL    HW310458   3.211   3.991   4.210  0.2401  0.5563  0.1512
 2596SOL    MW410459   3.132   4.024   4.221 -0.1290 -0.1678 -0.2446
 2597SOL     OW10460   3.125   4.279   4.082 -0.1861 -0.7009 -0.0084
 2597SOL    HW210461   3.208   4.303   4.124  0.1270  0.5321 -1.2789
 2597SOL    HW310462   3.107   4.191   4.114 -0.1528  0.3164  2.9840
 2597SOL    MW410463   3.134   4.270   4.092 -0.1404 -0.4039  0.2193
 2598SOL     OW10464   3.155   3.746   4.687 -0.4507 -0.0008  0.2074
 2598SOL    HW210465   3.215   3.701   4.747  0.3128 -0.9131 -1.1925
 2598SOL    HW310466   3.163   3.838   4.710  1.2116 -0.1438  0.3184
 2598SOL    MW410467   3.164   3.752   4.698 -0.1304 -0.1402  0.0367
 2599SOL     OW10468   3.837   0.010   4.136 -0.3905 -0.4179 -0.4336
 2599SOL    HW210469   3.913   0.064   4.156 -0.6469 -0.8314  1.8172
 2599SOL    HW310470   3.833   0.007   4.040  1.3091  1.1464 -0.5642
 2599SOL    MW410471   3.846   0.017   4.126 -0.1998 -0.2661 -0.1535
 2600SOL     OW10472   3.590   0.079   4.266 -0.3684  0.3478 -0.0734
 2600SOL    HW210473   3.592   0.095   4.360  0.3434 -0.0131 -0.0273
 2600SOL    HW310474   3.679   0.053   4.243 -0.5116  0.5196 -0.8638
 2600SOL    MW410475   3.602   0.078   4.275 -0.2935  0.3228 -0.1712
 2601SOL     OW10476   3.605   0.329   4.153 -0.3285 -0.1876 -0.3643
 2601SOL    HW210477   3.602   0.245   4.200 -0.5914 -0.3060 -0.5916
 2601SOL    HW310478   3.684   0.371   4.185 -0.4818 -0.2866  0.1597
 2601SOL    MW410479   3.615   0.323   4.163 -0.3839 -0.2162 -0.3252
 2602SOL     OW10480   3.825   0.468   4.222  0.4066 -0.0892 -0.2585
 2602SOL    HW210481   3.861   0.459   4.310 -1.4375 -0.3332  0.4789
 2602SOL    HW310482   3.821   0.562   4.207 -0.8558 -0.0056  0.5788
 2602SOL    MW410483   3.829   0.479   4.232 -0.0033 -0.1104 -0.0505
 2603SOL     OW10484   3.821   0.750   4.168 -0.3488 -0.7494  0.5223
 2603SOL    HW210485   3.748   0.800   4.204 -1.2582 -1.5806 -0.1353
 2603SOL    HW310486   3.813   0.760   4.073  0.3516 -0.8920  0.4483
 2603SOL    MW410487   3.810   0.758   4.160 -0.3762 -0.8779  0.4253
 2604SOL     OW10488   3.599   0.901   4.224 -0.2404  0.3118 -0.1965
 2604SOL    HW210489   3.561   0.984   4.195  0.5572  0.2960 -1.3072
 2604SOL    HW310490   3.527   0.838   4.218 -0.7289  0.8258  0.2346
 2604SOL    MW410491   3.585   0.903   4.220 -0.1998  0.3776 -0.2866
 2605SOL     OW10492   3.342   3.083   4.887  0.7264 -0.1393 -0.0972
 2605SOL    HW210493   3.268   3.023   4.893  0.9159 -0.2047  1.9599
 2605SOL    HW310494   3.400   3.044   4.821 -0.3369 -0.8613 -0.6164
 2605SOL    MW410495   3.340   3.070   4.879  0.6111 -0.2429  0.1059
 2606SOL     OW10496   0.065   2.152   4.670 -0.1897 -0.1424 -0.1078
 2606SOL    HW210497   0.053   2.155   4.765  0.3409 -0.1865 -0.0340
 2606SOL    HW310498   0.087   2.243   4.647 -2.0168  0.2396 -0.4372
 2606SOL    MW410499   0.067   2.165   4.680 -0.3608 -0.0980 -0.1426
 2607SOL     OW10500   3.834   1.560   4.139 -0.0949 -0.4216 -0.1731
 2607SOL    HW210501   3.898   1.622   4.172 -1.0326  0.4119  0.1125
 2607SOL    HW310502   3.752   1.585   4.182 -0.4626 -1.9102  0.0198
 2607SOL    MW410503   3.831   1.571   4.149 -0.2673 -0.5081 -0.1097
 2608SOL     OW10504   3.785   1.311   4.244  0.1879 -0.4692  0.1853
 2608SOL    HW210505   3.791   1.318   4.339  0.6715 -0.3137  0.1437
 2608SOL    HW310506   3.810   1.398   4.212  1.7888 -1.0347 -0.1523
 2608SOL    MW410507   3.789   1.323   4.252  0.4628 -0.5233  0.1354
 2609SOL     OW10508   3.349   2.057   4.649 -0.1191 -0.0664  0.0954
 2609SOL    HW210509   3.385   1.987   4.705  0.5552 -0.2515 -0.5536
 2609SOL    HW310510   3.426   2.100   4.613 -0.5565 -0.4736 -1.3370
 2609SOL    MW410511   3.364   2.053   4.652 -0.0877 -0.1447 -0.1788
 2610SOL     OW10512   2.778   1.289   4.712  0.1671  0.0041 -0.0663
 2610SOL    HW210513   2.690   1.310   4.745 -0.0891 -0.6880 -0.2870
 2610SOL    HW310514   2.792   1.351   4.640 -0.3228 -0.1554 -0.3076
 2610SOL    MW410515   2.768   1.300   4.707  0.0687 -0.1081 -0.1273
 2611SOL     OW10516   3.838   2.338   4.135 -0.0542  0.2163  0.2222
 2611SOL    HW210517   3.813   2.250   4.163 -2.1837  0.7836  0.1867
 2611SOL    HW310518   3.818   2.340   4.042 -1.2217  1.1378  0.4846
 2611SOL    MW410519   3.832   2.327   4.127 -0.4892  0.4127  0.2518
 2612SOL     OW10520   3.636   2.509   4.269 -0.2331 -0.5069 -0.3836
 2612SOL    HW210521   3.559   2.476   4.222  0.1094  0.2074 -1.4707
 2612SOL    HW310522   3.710   2.465   4.228  0.0469 -0.0761 -0.3497
 2612SOL    MW410523   3.635   2.499   4.257 -0.1512 -0.3562 -0.5231
 2613SOL     OW10524   3.633   2.755   4.149 -0.4113  0.0552 -0.1227
 2613SOL    HW210525   3.633   2.677   4.205  1.2856 -0.5030 -0.8547
 2613SOL    HW310526   3.630   2.720   4.060 -0.6438  0.8524 -0.4277
 2613SOL    MW410527   3.633   2.740   4.145 -0.2184  0.0868 -0.2599
 2614SOL     OW10528   3.883   2.879   4.212 -0.5793  0.0682  0.3172
 2614SOL    HW210529   3.884   2.875   4.308  2.1096  0.0225  0.3115
 2614SOL    HW310530   3.797   2.844   4.188 -1.7580  1.1417  2.7315
 2614SOL    MW410531   3.872   2.874   4.222 -0.3800  0.2038  0.6347
 2615SOL     OW10532   3.830   3.144   4.105 -0.3411 -0.3029  0.0256
 2615SOL    HW210533   3.860   3.058   4.132 -1.5770 -0.4109  1.0906
 2615SOL    HW310534   3.844   3.146   4.010 -0.6976 -1.8147 -0.0605
 2615SOL    MW410535   3.836   3.133   4.096 -0.5512 -0.5169  0.1545
 2616SOL     OW10536   3.597   3.236   4.225 -0.0291 -0.4382 -0.1918
 2616SOL    HW210537   3.659   3.189   4.169 -0.4212 -0.2884 -0.7563
 2616SOL    HW310538   3.512   3.198   4.204 -0.3986  0.7653 -0.9158
 2616SOL    MW410539   3.594   3.225   4.215 -0.1292 -0.2596 -0.3614
 2617SOL     OW10540   3.596   3.502   4.153  0.2768 -0.0943  0.0302
 2617SOL    HW210541   3.599   3.410   4.180  0.5586 -0.4073 -1.0704
 2617SOL    HW310542   3.527   3.540   4.207 -0.7652 -1.2629 -0.4721
 2617SOL    MW410543   3.588   3.494   4.164  0.1762 -0.2897 -0.1817
 2618SOL     OW10544   3.843   3.424   4.526  0.0468  0.0436  0.1467
 2618SOL    HW210545   3.897   3.422   4.448 -2.3816  0.7279 -1.6088
 2618SOL    HW310546   3.816   3.516   4.534 -0.3697 -0.1749  1.3390
 2618SOL    MW410547   3.847   3.436   4.517 -0.3285  0.1054  0.0720
 2619SOL     OW10548   3.768   3.939   4.142 -0.1623 -0.1689 -0.2236
 2619SOL    HW210549   3.696   3.968   4.198  0.5485  0.0543  0.5826
 2619SOL    HW310550   3.770   3.844   4.154  0.7395 -0.0001  1.0531
 2619SOL    MW410551   3.759   3.930   4.151  0.0505 -0.1171  0.0510
 2620SOL     OW10552   3.583   4.042   4.317 -0.5016  0.5426  0.7732
 2620SOL    HW210553   3.588   3.987   4.396  0.1130 -0.5592 -0.0244
 2620SOL    HW310554   3.503   4.014   4.273 -0.1422  0.2297  0.3196
 2620SOL    MW410555   3.573   4.031   4.322 -0.3731  0.3562  0.6080
 2621SOL     OW10556   3.617   4.274   4.156  0.0679 -0.0084 -0.1309
 2621SOL    HW210557   3.693   4.331   4.168  0.5217 -0.4136 -1.0142
 2621SOL    HW310558   3.631   4.202   4.218 -0.5595  0.8823  1.0593
 2621SOL    MW410559   3.629   4.272   4.165  0.0451  0.0548 -0.0901
 2622SOL     OW10560   3.845   4.435   4.237 -0.0257 -0.0074 -0.1399
 2622SOL    HW210561   3.920   4.401   4.188  1.0858 -0.4800  1.8177
 2622SOL    HW310562   3.831   4.522   4.202  0.7363 -0.3423 -1.3098
 2622SOL    MW410563   3.853   4.442   4.226  0.2215 -0.1144 -0.0362
 2623SOL     OW10564   4.288   0.014   4.104 -0.0396 -0.4078  0.4193
 2623SOL    HW210565   4.271  -0.075   4.134  0.0999 -0.4822  0.2803
 2623SOL    HW310566   4.378   0.032   4.132 -0.5584  0.2102  1.7024
 2623SOL    MW410567   4.298   0.005   4.111 -0.0896 -0.3360  0.5703
 2624SOL     OW10568   4.067   0.153   4.190 -0.0983  0.3367 -0.0013
 2624SOL    HW210569   4.084   0.242   4.161  0.4815  0.2386  0.0424
 2624SOL    HW310570   4.144   0.103   4.162 -1.1320 -0.4824 -1.5134
 2624SOL    MW410571   4.079   0.158   4.182 -0.1583  0.2157 -0.1945
 2625SOL     OW10572   4.054   0.399   4.086  0.1679  0.0538 -0.4101
 2625SOL    HW210573   4.115   0.455   4.134  0.9502 -0.6907 -0.5225
 2625SOL    HW310574   3.968   0.419   4.123  0.2748  2.1700 -1.2220
 2625SOL    MW410575   4.051   0.409   4.097  0.2856  0.2348 -0.5322
 2626SOL     OW10576   4.262   0.496   4.260 -0.1325  0.2611 -0.2125
 2626SOL    HW210577   4.262   0.591   4.257  1.0619  0.2997  0.4407
 2626SOL    HW310578   4.332   0.470   4.200 -0.4994 -0.2043 -0.4401
 2626SOL    MW410579   4.271   0.505   4.252 -0.0234  0.2047 -0.1564
 2627SOL     OW10580   4.254   0.768   4.232  0.0190  0.6012  0.3056
 2627SOL    HW210581   4.173   0.814   4.254  0.6877  1.6293  0.6601
 2627SOL    HW310582   4.258   0.771   4.137 -0.9616 -0.5146  0.2154
 2627SOL    MW410583   4.244   0.775   4.223 -0.0215  0.5896  0.3405
 2628SOL     OW10584   3.995   0.904   4.310 -0.3362 -0.0639  0.0733
 2628SOL    HW210585   3.935   0.857   4.252 -0.4424  0.2465 -0.0711
 2628SOL    HW310586   3.998   0.993   4.274  1.3288 -0.4484 -0.7640
 2628SOL    MW410587   3.987   0.910   4.298 -0.1304 -0.0737 -0.0567
 2629SOL     OW10588   4.007   1.148   4.181 -0.2810  0.0236  0.2861
 2629SOL    HW210589   4.091   1.182   4.210  0.4470 -1.3234 -0.1975
 2629SOL    HW310590   3.943   1.214   4.208  0.8718  0.8221  1.0745
 2629SOL    MW410591   4.010   1.162   4.188 -0.0324 -0.0489  0.3262
 2630SOL     OW10592   4.244   1.271   4.234  0.6982 -0.5042  0.0407
 2630SOL    HW210593   4.237   1.294   4.326  0.3113  2.1902 -0.6324
 2630SOL    HW310594   4.334   1.240   4.223  0.3056 -2.3050  1.5945
 2630SOL    MW410595   4.255   1.270   4.245  0.5951 -0.3864  0.1569
 2631SOL     OW10596   4.247   1.523   4.107 -0.0533 -0.3348 -0.3405
 2631SOL    HW210597   4.249   1.431   4.134 -2.3139 -0.3070  0.0262
 2631SOL    HW310598   4.259   1.520   4.012 -0.6763 -1.0619 -0.4051
 2631SOL    MW410599   4.249   1.510   4.098 -0.4334 -0.4272 -0.3014
 2632SOL     OW10600   4.064   1.689   4.213  0.8979 -0.0455 -0.2593
 2632SOL    HW210601   4.077   1.676   4.307 -0.5195 -1.9221 -0.2796
 2632SOL    HW310602   4.123   1.626   4.172  0.4182 -0.3006 -0.5736
 2632SOL    MW410603   4.073   1.679   4.220  0.6475 -0.3269 -0.3033
 2633SOL     OW10604   4.058   1.968   4.140  0.6512  0.0399  0.1115
 2633SOL    HW210605   4.059   1.876   4.166 -0.5376  0.3570  1.3141
 2633SOL    HW310606   4.142   2.003   4.171  0.1840 -0.1205  1.5742
 2633SOL    MW410607   4.069   1.960   4.147  0.4330  0.0607  0.4635
 2634SOL     OW10608   4.458   1.644   4.221 -0.0129  0.1229 -0.6575
 2634SOL    HW210609   4.379   1.608   4.182  0.3103 -1.1429 -0.1618
 2634SOL    HW310610   4.444   1.639   4.316  0.5588  0.1277 -0.5689
 2634SOL    MW410611   4.446   1.639   4.228  0.1054 -0.0435 -0.5803
 2635SOL     OW10612   4.240   2.334   4.155 -0.2797 -0.5030  0.2548
 2635SOL    HW210613   4.175   2.383   4.204 -0.9342 -0.5675 -0.5316
 2635SOL    HW310614   4.239   2.247   4.193  0.1186 -0.2076  0.9478
 2635SOL    MW410615   4.231   2.329   4.166 -0.3133 -0.4725  0.2422
 2636SOL     OW10616   4.032   2.491   4.262 -0.6614  0.2862 -0.8824
 2636SOL    HW210617   3.964   2.438   4.222 -0.4423 -0.3245 -0.4542
 2636SOL    HW310618   4.001   2.507   4.351 -0.2386 -0.0208 -0.6749
 2636SOL    MW410619   4.019   2.486   4.268 -0.5774  0.1655 -0.7992
 2637SOL     OW10620   4.067   2.713   4.103  0.1599 -0.1607 -0.4591
 2637SOL    HW210621   4.055   2.627   4.144  2.4891 -0.3369 -0.0688
 2637SOL    HW310622   4.000   2.769   4.143  1.4955 -0.6645  2.5832
 2637SOL    MW410623   4.056   2.709   4.114  0.6437 -0.2503 -0.0067
 2638SOL     OW10624   0.024   2.739   4.122  0.3991 -0.2557 -0.3979
 2638SOL    HW210625   0.012   2.648   4.148  0.7564 -0.8067 -2.0429
 2638SOL    HW310626   0.097   2.771   4.176 -0.2104 -0.7228  0.6937
 2638SOL    MW410627   0.032   2.732   4.132  0.3658 -0.3901 -0.4711
 2639SOL     OW10628   3.969   3.334   4.290  0.1401  0.5890  0.4431
 2639SOL    HW210629   3.923   3.273   4.232  0.7103  1.4652 -0.9370
 2639SOL    HW310630   4.026   3.278   4.343  1.7809  0.0506 -1.8397
 2639SOL    MW410631   3.970   3.319   4.289  0.4320  0.6335 -0.0405
 2640SOL     OW10632   0.049   3.010   4.538 -0.3023 -0.3343  0.2323
 2640SOL    HW210633   0.117   2.945   4.552  0.3375  0.4591  0.8217
 2640SOL    HW310634  -0.031   2.958   4.523  0.4415 -1.2549 -0.5784
 2640SOL    MW410635   0.047   2.995   4.538 -0.1197 -0.3512  0.2036
 2641SOL     OW10636   4.270   2.871   4.205  0.0362  0.7581 -0.0136
 2641SOL    HW210637   4.205   2.812   4.166  0.4095 -0.2867  0.9512
 2641SOL    HW310638   4.353   2.843   4.167  0.1593  0.9334  0.1285
 2641SOL    MW410639   4.272   2.860   4.195  0.1011  0.6435  0.1326
 2642SOL     OW10640   4.084   3.557   4.143  0.2183  0.3957 -0.3323
 2642SOL    HW210641   4.076   3.537   4.050  0.5850  1.1935 -0.5421
 2642SOL    HW310642   4.049   3.480   4.187 -2.7114  1.2163 -1.1372
 2642SOL    MW410643   4.079   3.544   4.136 -0.1202  0.6094 -0.4659
 2643SOL     OW10644   4.279   3.937   4.120  0.0183 -0.4868  0.2285
 2643SOL    HW210645   4.187   3.947   4.144 -0.2207  0.6515 -1.0487
 2643SOL    HW310646   4.277   3.921   4.025  1.1333 -0.2761  0.1612
 2643SOL    MW410647   4.266   3.936   4.110  0.1335 -0.3088  0.0515
 2644SOL     OW10648   4.017   4.030   4.203 -0.2941 -0.4885  0.2231
 2644SOL    HW210649   4.016   4.008   4.296 -1.3312  1.9455  0.8276
 2644SOL    HW310650   3.933   4.000   4.170  0.1692 -1.5681 -0.0094
 2644SOL    MW410651   4.006   4.023   4.211 -0.3695 -0.3099  0.2728
 2645SOL     OW10652   4.051   4.282   4.119 -0.7540 -0.6764  0.0442
 2645SOL    HW210653   4.130   4.311   4.166 -1.1192  1.2039 -0.4586
 2645SOL    HW310654   4.037   4.192   4.149  1.4123 -0.9428  0.3683
 2645SOL    MW410655   4.060   4.274   4.129 -0.5164 -0.4640  0.0205
 2646SOL     OW10656   3.884   0.161   4.553  0.0696  0.3773  0.2504
 2646SOL    HW210657   3.974   0.132   4.538 -0.3710 -0.0319 -1.7071
 2646SOL    HW310658   3.884   0.254   4.530  0.0238  0.4245  0.4362
 2646SOL    MW410659   3.896   0.169   4.548  0.0055  0.3295  0.0172
 2647SOL     OW10660   0.975   1.164   4.686 -0.2103  0.4172 -0.6350
 2647SOL    HW210661   0.885   1.183   4.658 -0.2144 -0.5986 -1.3498
 2647SOL    HW310662   0.985   1.070   4.671  1.1635  0.6244 -1.0887
 2647SOL    MW410663   0.964   1.154   4.680 -0.0296  0.3105 -0.7887
 2648SOL     OW10664   4.184   3.184   4.388 -0.2955  0.1196 -0.1533
 2648SOL    HW210665   4.225   3.184   4.301  0.7793  1.0390  0.3323
 2648SOL    HW310666   4.233   3.250   4.437 -2.3838  1.2587  0.4539
 2648SOL    MW410667   4.196   3.193   4.383 -0.4292  0.3912 -0.0091
 2649SOL     OW10668   3.842   0.633   4.637  0.6816  0.1608 -0.0995
 2649SOL    HW210669   3.757   0.629   4.592  0.8348 -0.6159 -0.3432
 2649SOL    HW310670   3.866   0.725   4.635 -1.6411  0.9253  2.7781
 2649SOL    MW410671   3.834   0.644   4.630  0.3955  0.1591  0.2475
 2650SOL     OW10672   3.170   2.479   4.473  0.0260 -0.0159  0.0289
 2650SOL    HW210673   3.165   2.474   4.377 -1.2866  0.2321  0.0642
 2650SOL    HW310674   3.177   2.388   4.502  1.4394 -0.0303 -0.3419
 2650SOL    MW410675   3.170   2.467   4.464  0.0393  0.0150 -0.0157
 2651SOL     OW10676   3.556   3.878   4.543 -0.3431 -0.5010 -0.0876
 2651SOL    HW210677   3.637   3.826   4.540 -0.3472 -0.5161  0.0469
 2651SOL    HW310678   3.486   3.814   4.535 -0.3830 -0.6539  1.3728
 2651SOL    MW410679   3.558   3.863   4.542 -0.3488 -0.5236  0.1230
 2652SOL     OW10680   1.714   0.101   4.672 -0.0477  0.4587  0.1222
 2652SOL    HW210681   1.722   0.009   4.646  1.6821  0.3109  1.0717
 2652SOL    HW310682   1.670   0.098   4.758  0.1149  0.5105  0.2072
 2652SOL    MW410683   1.709   0.088   4.680  0.2019  0.4460  0.2584
 2653SOL     OW10684   0.390   4.156   4.520  0.0378 -0.3016 -0.2167
 2653SOL    HW210685   0.306   4.134   4.562 -0.6810  1.1528 -0.8452
 2653SOL    HW310686   0.437   4.073   4.515 -0.5731 -0.8078  1.9068
 2653SOL    MW410687   0.385   4.142   4.525 -0.1377 -0.1769 -0.0200
 2654SOL     OW10688   1.616   1.036   4.694  0.2415 -0.0966  0.1024
 2654SOL    HW210689   1.542   1.083   4.656  1.2674  2.8482  1.6469
 2654SOL    HW310690   1.692   1.089   4.672  1.3274 -0.5420  2.6479
 2654SOL    MW410691   1.616   1.049   4.686  0.5203  0.2332  0.6418
 2655SOL     OW10692   4.107   1.739   4.484 -0.1569 -0.3042  0.2770
 2655SOL    HW210693   4.033   1.681   4.501  0.8099 -1.9110 -0.7703
 2655SOL    HW310694   4.084   1.822   4.526 -2.4083 -0.8609  0.1749
 2655SOL    MW410695   4.095   1.742   4.492 -0.3262 -0.5897  0.1254
 2656SOL     OW10696   4.282   0.345   4.517  0.8663 -0.4880  0.1178
 2656SOL    HW210697   4.364   0.362   4.564 -0.7892  0.8908  2.5775
 2656SOL    HW310698   4.288   0.400   4.438  2.5651 -0.9005 -0.0577
 2656SOL    MW410699   4.294   0.355   4.513  0.8721 -0.3605  0.4187
 2657SOL     OW10700   0.473   1.975   4.665 -0.3370 -0.3622  0.1429
 2657SOL    HW210701   0.492   2.034   4.737 -1.0127  0.7969 -0.6033
 2657SOL    HW310702   0.546   1.986   4.604  0.1099 -1.1580  0.5189
 2657SOL    MW410703   0.485   1.984   4.666 -0.3672 -0.3142  0.0939
 2658SOL     OW10704   0.621   1.530   4.629 -0.3701  0.1624  0.1048
 2658SOL    HW210705   0.608   1.597   4.697 -1.1644  1.3607 -1.1898
 2658SOL    HW310706   0.541   1.534   4.576 -0.1852 -1.4453 -0.3273
 2658SOL    MW410707   0.609   1.539   4.631 -0.4506  0.1084 -0.1225
 2659SOL     OW10708   1.421   2.807   4.447 -0.2475 -0.0657 -0.5973
 2659SOL    HW210709   1.459   2.879   4.498 -1.1770  0.7128 -1.0005
 2659SOL    HW310710   1.348   2.776   4.500  0.4770 -1.0870 -0.1694
 2659SOL    MW410711   1.417   2.812   4.461 -0.2747 -0.0978 -0.5946
 2660SOL     OW10712   4.279   2.076   4.274 -0.4203 -0.5695 -0.1021
 2660SOL    HW210713   4.304   2.094   4.365  0.5166 -0.8010 -0.3044
 2660SOL    HW310714   4.348   2.018   4.241 -1.2581 -1.2352 -0.6800
 2660SOL    MW410715   4.292   2.071   4.282 -0.4077 -0.6878 -0.2050
 2661SOL     OW10716   0.986   2.123   4.502  0.2671  0.5972 -0.2042
 2661SOL    HW210717   1.063   2.121   4.559  0.2291  1.5557 -0.1002
 2661SOL    HW310718   0.941   2.204   4.526 -0.5849  0.2237 -0.5147
 2661SOL    MW410719   0.990   2.134   4.512  0.1497  0.6742 -0.2313
 2662SOL     OW10720   0.214   3.699   4.584 -0.1785 -0.3314 -0.1170
 2662SOL    HW210721   0.253   3.615   4.562  1.0591  0.3806 -0.7098
 2662SOL    HW310722   0.126   3.696   4.546 -0.5170 -1.7335  0.7408
 2662SOL    MW410723   0.207   3.688   4.576 -0.0599 -0.4225 -0.0820
 2663SOL     OW10724   4.127   2.981   4.568 -0.0650  0.1984  0.1655
 2663SOL    HW210725   4.157   3.042   4.501  1.4596  1.8285  2.2566
 2663SOL    HW310726   4.132   3.031   4.649 -0.4567 -2.1862  1.6940
 2663SOL    MW410727   4.132   2.996   4.570  0.0844  0.0987  0.6433
 2664SOL     OW10728   0.984   2.896   4.507  0.3488  0.2705 -0.5326
 2664SOL    HW210729   1.011   2.985   4.532  3.8876 -0.6635 -0.8275
 2664SOL    HW310730   1.020   2.883   4.420  0.8798 -1.8811 -0.0219
 2664SOL    MW410731   0.992   2.906   4.499  0.8858 -0.1366 -0.5045
 2665SOL     OW10732   3.870   2.859   4.499 -0.0302  0.3021 -0.2525
 2665SOL    HW210733   3.800   2.914   4.536  0.1857  0.1097  0.4488
 2665SOL    HW310734   3.951   2.899   4.532  0.1417 -0.2068 -0.0619
 2665SOL    MW410735   3.871   2.872   4.508  0.0215  0.2093 -0.1345
 2666SOL     OW10736   0.194   4.444   4.518 -0.4229  0.4619  0.2558
 2666SOL    HW210737   0.158   4.357   4.532  1.6354 -0.3319  0.7577
 2666SOL    HW310738   0.268   4.449   4.578  1.1566  1.5428 -1.7462
 2666SOL    MW410739   0.199   4.433   4.528  0.0570  0.4997  0.0582
 2667SOL     OW10740   1.011   0.609   4.663  0.4006  0.6935 -0.2319
 2667SOL    HW210741   0.987   0.594   4.755  1.0461 -0.5397 -0.2607
 2667SOL    HW310742   1.104   0.586   4.659  0.1268 -0.2318 -1.4151
 2667SOL    MW410743   1.021   0.604   4.675  0.4495  0.4086 -0.3920
 2668SOL     OW10744   4.050   1.162   4.597 -0.1616  0.0986 -0.1457
 2668SOL    HW210745   4.042   1.164   4.693 -2.0264 -0.3530 -0.2857
 2668SOL    HW310746   4.018   1.075   4.572  1.4222 -0.2394 -1.1006
 2668SOL    MW410747   4.045   1.150   4.607 -0.1988 -0.0057 -0.2899
 2669SOL     OW10748   4.271   4.237   4.582  0.2863  0.3070  0.2274
 2669SOL    HW210749   4.363   4.210   4.577 -0.1086 -1.3949  1.7356
 2669SOL    HW310750   4.271   4.328   4.553  2.5515  0.5516  0.9165
 2669SOL    MW410751   4.283   4.245   4.577  0.5331  0.1144  0.5178
 2670SOL     OW10752   2.534   0.188   4.533  0.3266  0.4086  0.2997
 2670SOL    HW210753   2.616   0.185   4.582  0.3432 -0.5311  0.2255
 2670SOL    HW310754   2.555   0.150   4.448 -0.3786 -0.6333  0.5750
 2670SOL    MW410755   2.547   0.182   4.528  0.2358  0.1472  0.3262
 2671SOL     OW10756   0.698   4.464   4.666 -0.1016  0.0133  0.4242
 2671SOL    HW210757   0.676   4.382   4.622  0.0713  0.0178  0.3292
 2671SOL    HW310758   0.721   4.438   4.755  1.5132 -0.2337 -0.0431
 2671SOL    MW410759   0.698   4.450   4.672  0.1343 -0.0186  0.3500
 2672SOL     OW10760   2.789   1.672   4.116 -0.2224  0.0688  0.1901
 2672SOL    HW210761   2.778   1.765   4.094  0.8076  0.5253  1.5477
 2672SOL    HW310762   2.854   1.671   4.186 -0.8515 -1.6278  0.7843
 2672SOL    MW410763   2.796   1.684   4.122 -0.1695 -0.0949  0.4473
 2673SOL     OW10764   1.562   1.315   4.223 -0.2531 -0.3303  0.2881
 2673SOL    HW210765   1.579   1.327   4.316  2.9453 -2.6417  0.0955
 2673SOL    HW310766   1.563   1.403   4.186 -1.5573  0.6054  2.4193
 2673SOL    MW410767   1.564   1.328   4.231 -0.0031 -0.5119  0.5436
 2674SOL     OW10768   4.076   3.915   4.459 -0.4769  0.1565  0.0322
 2674SOL    HW210769   4.065   4.006   4.487 -1.1723  0.6233 -1.7030
 2674SOL    HW310770   4.166   3.894   4.485 -0.4917  1.1372  0.9605
 2674SOL    MW410771   4.086   3.924   4.467 -0.5708  0.3476 -0.0749
 2675SOL     OW10772   3.052   1.274   4.816  0.0954  0.2329  0.1455
 2675SOL    HW210773   2.959   1.288   4.802 -0.1901  0.0197  1.7680
 2675SOL    HW310774   3.068   1.184   4.789 -0.1194  0.3274 -0.3069
 2675SOL    MW410775   3.042   1.264   4.811  0.0293  0.2171  0.2999
 2676SOL     OW10776   4.379   1.621   4.507  0.0283  0.0328  0.0403
 2676SOL    HW210777   4.307   1.684   4.499 -0.4605 -0.7071 -1.7459
 2676SOL    HW310778   4.336   1.536   4.506  0.7859 -0.3726  1.1254
 2676SOL    MW410779   4.364   1.618   4.506  0.0634 -0.1184 -0.0525
 2677SOL     OW10780   1.212   0.290   4.585 -0.3902  0.2775  0.1156
 2677SOL    HW210781   1.161   0.216   4.618 -2.1241  0.7015 -1.4586
 2677SOL    HW310782   1.298   0.254   4.566 -1.1137 -1.2898 -0.3274
 2677SOL    MW410783   1.216   0.275   4.587 -0.7145  0.1266 -0.1502
 2678SOL     OW10784   1.830   1.207   4.615 -0.1455 -0.2916  0.2569
 2678SOL    HW210785   1.770   1.263   4.565  1.4311 -0.6247 -2.0654
 2678SOL    HW310786   1.873   1.267   4.677 -2.1338  0.1121  1.2921
 2678SOL    MW410787   1.828   1.223   4.617 -0.1998 -0.2823  0.0877
 2679SOL     OW10788   1.985   3.556   4.969  0.0656  0.4439 -0.0198
 2679SOL    HW210789   2.025   3.568   5.055  0.4553 -1.9725  0.1646
 2679SOL    HW310790   2.027   3.622   4.913  2.0224  0.0301  0.9293
 2679SOL    MW410791   1.996   3.567   4.973  0.3754  0.0706  0.1302
 2680SOL     OW10792   1.522   1.863   4.457 -0.0945  0.4448 -0.1023
 2680SOL    HW210793   1.501   1.887   4.367  0.1080  1.7816  0.1870
 2680SOL    HW310794   1.597   1.919   4.480  2.0797 -2.2755 -0.2312
 2680SOL    MW410795   1.529   1.874   4.448  0.2190  0.2623 -0.0811
 2681SOL     OW10796   0.534   3.009   4.535  0.1171 -0.2456  0.2697
 2681SOL    HW210797   0.451   2.961   4.533  0.0809 -0.1883  0.4574
 2681SOL    HW310798   0.509   3.100   4.520  0.2603 -0.3861 -0.8905
 2681SOL    MW410799   0.519   3.015   4.533  0.1312 -0.2565  0.1411
 2682SOL     OW10800   1.298   0.905   4.521 -0.1643 -0.1110  0.2252
 2682SOL    HW210801   1.289   0.916   4.426 -0.8279 -0.5545  0.2360
 2682SOL    HW310802   1.210   0.883   4.551  0.2516 -1.0233  0.7979
 2682SOL    MW410803   1.285   0.904   4.512 -0.1971 -0.2899  0.3028
 2683SOL     OW10804   0.218   1.962   4.535  0.1516 -0.2760  0.0908
 2683SOL    HW210805   0.302   1.949   4.578  0.3830 -0.6569 -0.4596
 2683SOL    HW310806   0.173   2.028   4.588  0.8227 -0.0224  0.3502
 2683SOL    MW410807   0.223   1.969   4.547  0.2706 -0.2928  0.0529
 2684SOL     OW10808   1.309   2.305   4.478 -0.0859 -0.1036 -0.1160
 2684SOL    HW210809   1.398   2.305   4.512 -0.8621 -1.1762  2.0654
 2684SOL    HW310810   1.263   2.370   4.532 -0.6220  0.4491 -1.2237
 2684SOL    MW410811   1.315   2.314   4.490 -0.2590 -0.1721  0.0257
 2685SOL     OW10812   0.706   2.798   4.456 -0.0129  0.3491 -0.0188
 2685SOL    HW210813   0.639   2.860   4.484 -0.0131 -0.6875  2.4353
 2685SOL    HW310814   0.789   2.838   4.484  0.1743  0.3497 -0.5706
 2685SOL    MW410815   0.708   2.812   4.463  0.0117  0.2124  0.2322
 2686SOL     OW10816   0.664   4.211   4.539  0.1090  0.0753 -0.1156
 2686SOL    HW210817   0.691   4.234   4.450  0.0592  1.4395  0.2143
 2686SOL    HW310818   0.568   4.218   4.538  0.2231  1.8623  0.5207
 2686SOL    MW410819   0.655   4.215   4.527  0.1174  0.4911  0.0119
 2687SOL     OW10820   1.592   2.350   4.518 -0.0097  0.2144  0.5367
 2687SOL    HW210821   1.671   2.312   4.482 -2.4904 -2.5318 -2.3222
 2687SOL    HW310822   1.597   2.443   4.494  0.6851 -0.6208 -2.8961
 2687SOL    MW410823   1.603   2.358   4.510 -0.2455 -0.2580 -0.2933
 2688SOL     OW10824   1.770   3.168   4.528 -0.5142  0.4674 -0.3850
 2688SOL    HW210825   1.818   3.248   4.548  0.5386 -0.2928  0.2302
 2688SOL    HW310826   1.789   3.150   4.437  0.0208  0.3989 -0.2589
 2688SOL    MW410827   1.779   3.176   4.519 -0.3047  0.3583 -0.2880
 2689SOL     OW10828   4.220   2.397   4.557  0.2652 -0.1946 -0.2769
 2689SOL    HW210829   4.141   2.450   4.562  0.7515  0.5228 -0.1575
 2689SOL    HW310830   4.291   2.460   4.547  0.7626 -0.8683 -1.0729
 2689SOL    MW410831   4.219   2.412   4.556  0.3943 -0.1891 -0.3662
 2690SOL     OW10832   0.099   3.279   4.487  0.6631 -0.3426  0.5011
 2690SOL    HW210833   0.102   3.274   4.392  1.3599 -0.0150  0.5051
 2690SOL    HW310834   0.090   3.188   4.516  0.2263 -0.4217  0.1160
 2690SOL    MW410835   0.098   3.266   4.478  0.6974 -0.3099  0.4511
 2691SOL     OW10836   0.370   0.158   4.682 -0.2504 -0.0945 -0.1602
 2691SOL    HW210837   0.421   0.198   4.611  0.5675 -0.7837  0.0404
 2691SOL    HW310838   0.282   0.152   4.647 -0.2134  1.1351 -0.5026
 2691SOL    MW410839   0.365   0.163   4.668 -0.1376 -0.0232 -0.1783
 2692SOL     OW10840   4.385   3.888   4.506 -0.5189 -0.6867 -0.1127
 2692SOL    HW210841   4.396   3.794   4.492 -1.3810 -0.5825 -1.6491
 2692SOL    HW310842   4.412   3.927   4.423  0.0978  0.4484  0.6144
 2692SOL    MW410843   4.390   3.881   4.493 -0.5517 -0.5233 -0.2198
 2693SOL     OW10844   4.454   3.629   4.459  0.0711 -0.0039  0.2865
 2693SOL    HW210845   4.413   3.551   4.496  1.0817  0.2104  1.8876
 2693SOL    HW310846   4.405   3.645   4.378 -0.1272 -2.3063 -0.0854
 2693SOL    MW410847   4.442   3.621   4.453  0.1779 -0.2794  0.4492
 2694SOL     OW10848   0.033   4.662   4.451 -0.1225 -0.5662  0.0741
 2694SOL    HW210849   0.049   4.734   4.512 -0.3423 -0.3084 -0.1683
 2694SOL    HW310850   0.099   4.596   4.473 -0.2110 -0.4782  0.5959
 2694SOL    MW410851   0.044   4.663   4.462 -0.1632 -0.5207  0.1111
 2695SOL     OW10852   3.683   4.442   4.480  0.1860 -0.1147  0.3651
 2695SOL    HW210853   3.718   4.387   4.549 -0.2373 -0.1978  0.5126
 2695SOL    HW310854   3.742   4.428   4.406  0.8134  0.2027  0.7969
 2695SOL    MW410855   3.695   4.433   4.479  0.2129 -0.0834  0.4411
 2696SOL     OW10856   1.817   1.674   4.737  0.0018  0.0157 -0.1783
 2696SOL    HW210857   1.844   1.708   4.823 -0.4201 -1.5119  0.5696
 2696SOL    HW310858   1.858   1.588   4.731  0.5572  0.3673 -1.8080
 2696SOL    MW410859   1.826   1.667   4.748  0.0194 -0.1395 -0.2947
 2697SOL     OW10860   1.322   3.998   4.462  0.0941  0.0992 -0.4376
 2697SOL    HW210861   1.400   3.963   4.505 -0.6531 -1.5406 -0.3886
 2697SOL    HW310862   1.343   3.998   4.369  0.2286 -0.1708 -0.4086
 2697SOL    MW410863   1.335   3.993   4.456  0.0134 -0.1526 -0.4268
 2698SOL     OW10864   1.280   1.678   4.260 -0.1187 -0.2190 -0.1589
 2698SOL    HW210865   1.276   1.644   4.350  0.2381 -0.0630 -0.0821
 2698SOL    HW310866   1.293   1.772   4.271  0.5169 -0.2803 -0.3756
 2698SOL    MW410867   1.281   1.686   4.274  0.0122 -0.2065 -0.1769
 2699SOL     OW10868   1.633   0.757   4.752 -0.2259  0.4270 -0.2196
 2699SOL    HW210869   1.648   0.747   4.846  2.1729  0.6385 -0.5392
 2699SOL    HW310870   1.625   0.851   4.738 -0.9793  0.3710 -0.1801
 2699SOL    MW410871   1.634   0.768   4.762 -0.0088  0.4476 -0.2570
 2700SOL     OW10872   0.489   1.655   4.211  0.8147  0.1804  0.2045
 2700SOL    HW210873   0.557   1.602   4.170  1.1766  1.2074 -0.5755
 2700SOL    HW310874   0.407   1.625   4.171  1.0421  0.3497 -0.4011
 2700SOL    MW410875   0.487   1.644   4.200  0.8925  0.3383  0.0215
 2701SOL     OW10876   1.552   1.613   4.589  0.0684  0.4304  0.1799
 2701SOL    HW210877   1.535   1.701   4.557  0.5348  0.8907  1.1847
 2701SOL    HW310878   1.636   1.620   4.635  0.1456 -0.5515  0.2030
 2701SOL    MW410879   1.561   1.626   4.591  0.1402  0.3614  0.3157
 2702SOL     OW10880   0.257   1.253   4.468 -0.2621 -0.4101  0.0918
 2702SOL    HW210881   0.338   1.204   4.455 -0.7445 -1.3608  0.5742
 2702SOL    HW310882   0.285   1.341   4.493  0.6292 -0.9373  1.0053
 2702SOL    MW410883   0.271   1.258   4.470 -0.2081 -0.6052  0.2761
 2703SOL     OW10884   2.666   0.647   4.593 -0.2225  0.0558  0.0663
 2703SOL    HW210885   2.578   0.609   4.584 -0.3631  0.3363  0.2591
 2703SOL    HW310886   2.722   0.588   4.544 -0.8174  0.9665 -1.7255
 2703SOL    MW410887   2.662   0.634   4.586 -0.3195  0.2130 -0.1440
 2704SOL     OW10888   0.347   2.564   4.477  0.2303  0.5444 -0.0526
 2704SOL    HW210889   0.434   2.559   4.516 -0.5685  2.0702  1.9620
 2704SOL    HW310890   0.353   2.506   4.400  2.7195 -0.1039  0.5656
 2704SOL    MW410891   0.359   2.555   4.472  0.4533  0.6604  0.2952
 2705SOL     OW10892   1.742   2.023   4.509 -0.4506 -0.5959  0.4564
 2705SOL    HW210893   1.780   2.089   4.451 -0.2657 -0.4428  0.7453
 2705SOL    HW310894   1.809   1.955   4.514 -0.7733 -0.9572 -0.0940
 2705SOL    MW410895   1.756   2.023   4.502 -0.4687 -0.6232  0.4220
 2706SOL     OW10896   1.096   3.163   4.577 -0.3909 -0.1956 -0.4129
 2706SOL    HW210897   1.106   3.195   4.667  0.7554  0.3961 -0.7376
 2706SOL    HW310898   1.184   3.169   4.540 -0.8512 -0.4693 -1.5669
 2706SOL    MW410899   1.109   3.168   4.584 -0.3004 -0.1538 -0.6075
 2707SOL     OW10900   1.790   2.789   4.158  0.0709 -0.2712 -0.0776
 2707SOL    HW210901   1.811   2.762   4.247  0.7791  2.1297  0.5100
 2707SOL    HW310902   1.725   2.859   4.168 -0.8743 -0.9225 -1.4951
 2707SOL    MW410903   1.784   2.795   4.171  0.0397 -0.0401 -0.1869
 2708SOL     OW10904   1.106   2.457   4.597  0.4829 -0.6393  0.2528
 2708SOL    HW210905   1.095   2.551   4.615 -0.3216 -0.8981  1.1171
 2708SOL    HW310906   1.017   2.426   4.579  0.4977 -1.6189  1.8308
 2708SOL    MW410907   1.093   2.466   4.597  0.3788 -0.8025  0.5751
 2709SOL     OW10908   3.809   3.658   4.215  0.5578 -0.0353 -0.0990
 2709SOL    HW210909   3.894   3.638   4.176 -0.4582  2.7291 -4.1431
 2709SOL    HW310910   3.750   3.592   4.178  0.4053 -0.1519  0.3497
 2709SOL    MW410911   3.812   3.646   4.205  0.4034  0.3142 -0.5732
 2710SOL     OW10912   4.020   4.176   4.505 -0.5054  0.1188 -0.9078
 2710SOL    HW210913   3.965   4.248   4.536 -0.5409  0.0777 -0.8743
 2710SOL    HW310914   4.107   4.196   4.542 -0.7017 -0.2831 -0.2199
 2710SOL    MW410915   4.024   4.188   4.514 -0.5360  0.0601 -0.8130
 2711SOL     OW10916   1.817   3.485   4.622  0.4714  0.2849  0.2206
 2711SOL    HW210917   1.885   3.543   4.587  0.8659  0.8642  1.9172
 2711SOL    HW310918   1.800   3.518   4.710 -1.1301 -0.6230  0.2806
 2711SOL    MW410919   1.823   3.497   4.629  0.3122  0.2413  0.4525
 2712SOL     OW10920   1.175   3.574   4.499  0.4475  0.0911  0.6306
 2712SOL    HW210921   1.152   3.662   4.529 -1.5362 -0.7339  1.6667
 2712SOL    HW310922   1.175   3.581   4.404 -1.0424  0.9112  0.6708
 2712SOL    MW410923   1.172   3.587   4.491 -0.0108  0.0901  0.7720
 2713SOL     OW10924   0.131   3.952   4.659  0.4687  0.0530  0.1809
 2713SOL    HW210925   0.049   3.927   4.616  0.1102 -0.3119  1.0713
 2713SOL    HW310926   0.186   3.875   4.653  0.4565  0.0359  0.2947
 2713SOL    MW410927   0.128   3.939   4.653  0.4198  0.0029  0.3133
 2714SOL     OW10928   3.705   3.025   4.619 -0.2630 -0.1136 -0.1432
 2714SOL    HW210929   3.662   3.099   4.575  1.0573  0.3242 -0.7327
 2714SOL    HW310930   3.633   2.973   4.653 -1.3223 -0.0122 -2.1067
 2714SOL    MW410931   3.690   3.028   4.617 -0.2284 -0.0424 -0.4802
 2715SOL     OW10932   0.449   3.851   4.489  0.6940 -0.0447 -0.3966
 2715SOL    HW210933   0.522   3.790   4.504  0.2309 -0.2814  0.9482
 2715SOL    HW310934   0.371   3.801   4.514  0.3935  1.4104  1.6358
 2715SOL    MW410935   0.448   3.836   4.494  0.5932  0.1161  0.0491
 2716SOL     OW10936   0.443   3.954   4.227 -0.5111  0.4101  0.1216
 2716SOL    HW210937   0.421   3.943   4.319  0.0202  0.5610  0.2647
 2716SOL    HW310938   0.446   4.049   4.214  0.0243  0.3900  0.0920
 2716SOL    MW410939   0.440   3.965   4.237 -0.3703  0.4272  0.1369
 2717SOL     OW10940   1.007   4.472   4.622 -0.4868  0.3709  0.4078
 2717SOL    HW210941   1.066   4.397   4.627 -0.2510  0.6551  2.2556
 2717SOL    HW310942   0.923   4.436   4.594 -0.1934 -0.4591  0.5982
 2717SOL    MW410943   1.004   4.458   4.619 -0.4169  0.2990  0.6771
 2718SOL     OW10944   1.608   3.824   4.843  0.5908  0.3436  0.0561
 2718SOL    HW210945   1.666   3.750   4.864  1.5661  0.9199 -0.5818
 2718SOL    HW310946   1.520   3.787   4.847  1.0672 -0.8329 -0.1697
 2718SOL    MW410947   1.604   3.809   4.847  0.7824  0.2646 -0.0587
 2719SOL     OW10948   1.997   0.509   4.175 -0.0110 -0.0924  0.2807
 2719SOL    HW210949   2.029   0.599   4.166 -0.9835  0.2804  0.4957
 2719SOL    HW310950   2.073   0.454   4.156  1.1213  0.7771  2.1655
 2719SOL    MW410951   2.011   0.514   4.171  0.0100  0.0715  0.5574
 2720SOL     OW10952   2.241   0.364   4.123  0.7991  0.3330 -0.2057
 2720SOL    HW210953   2.246   0.276   4.160 -2.2197  0.0640 -0.2912
 2720SOL    HW310954   2.264   0.353   4.031  0.1468 -0.4196 -0.2801
 2720SOL    MW410955   2.245   0.351   4.116  0.3147  0.1983 -0.2270
 2721SOL     OW10956   1.735   4.499   4.591  0.4788  0.0416  0.1876
 2721SOL    HW210957   1.670   4.441   4.551  1.8577 -2.3794  1.3364
 2721SOL    HW310958   1.814   4.484   4.540  0.8147  1.0497  0.4081
 2721SOL    MW410959   1.737   4.489   4.579  0.7051 -0.1450  0.3681
 2722SOL     OW10960   1.551   0.507   4.129 -0.0616  0.3656  0.1635
 2722SOL    HW210961   1.546   0.602   4.116  0.7730  0.6264  1.7445
 2722SOL    HW310962   1.555   0.495   4.224 -2.4173 -1.3624  0.1007
 2722SOL    MW410963   1.551   0.518   4.140 -0.2623  0.1721  0.3643
 2723SOL     OW10964   0.809   0.212   4.528 -0.4779  0.2989  0.2140
 2723SOL    HW210965   0.861   0.292   4.520  1.0278 -0.7649 -1.0083
 2723SOL    HW310966   0.815   0.172   4.441 -1.1845 -1.1573  0.8305
 2723SOL    MW410967   0.817   0.217   4.515 -0.3725 -0.0336  0.1340
 2724SOL     OW10968   1.368   3.195   4.509  0.6019  0.3538  0.7116
 2724SOL    HW210969   1.441   3.138   4.533  0.1633 -0.7688 -0.5654
 2724SOL    HW310970   1.384   3.217   4.417 -0.0182  1.1089  0.7776
 2724SOL    MW410971   1.380   3.191   4.500  0.4622  0.3054  0.5517
 2725SOL     OW10972   0.476   1.085   4.377  0.0972  0.2287  0.8414
 2725SOL    HW210973   0.564   1.106   4.346 -0.3718 -0.7194 -1.2088
 2725SOL    HW310974   0.453   1.005   4.330 -2.3189  1.1080  0.4536
 2725SOL    MW410975   0.485   1.077   4.367 -0.2834  0.2196  0.5198
 2726SOL     OW10976   1.922   0.211   4.489 -0.3590 -0.0915 -0.6892
 2726SOL    HW210977   1.860   0.179   4.555 -0.1529  0.3705 -0.2672
 2726SOL    HW310978   1.903   0.304   4.482 -0.9368 -0.2984 -1.8944
 2726SOL    MW410979   1.912   0.219   4.497 -0.4081 -0.0578 -0.7925
 2727SOL     OW10980   2.117   1.460   4.513 -0.5272 -0.2919  0.5865
 2727SOL    HW210981   2.190   1.400   4.521  1.2195  1.7167  0.1012
 2727SOL    HW310982   2.083   1.445   4.424  0.7704  0.3965 -0.0302
 2727SOL    MW410983   2.122   1.450   4.502 -0.1254  0.0639  0.4411
 2728SOL     OW10984   1.576   2.984   4.591 -1.0305  0.2175 -0.1741
 2728SOL    HW210985   1.634   3.060   4.579 -0.9423 -0.1449 -2.1721
 2728SOL    HW310986   1.627   2.923   4.644 -0.4433  0.8617  0.0063
 2728SOL    MW410987   1.590   2.986   4.596 -0.9414  0.2546 -0.4144
 2729SOL     OW10988   0.534   0.272   4.471 -0.4547 -0.7381  0.1267
 2729SOL    HW210989   0.555   0.347   4.416 -0.9452 -1.1493 -0.6293
 2729SOL    HW310990   0.616   0.249   4.514 -0.1419 -0.2271 -0.2007
 2729SOL    MW410991   0.548   0.279   4.469 -0.4782 -0.7249 -0.0167
 2730SOL     OW10992   2.040   3.603   4.523  0.4557 -0.3102 -0.0707
 2730SOL    HW210993   2.108   3.662   4.554 -2.0104  2.7122 -0.1785
 2730SOL    HW310994   2.044   3.608   4.428  0.1046 -0.1597 -0.0789
 2730SOL    MW410995   2.049   3.611   4.515  0.0837  0.1082 -0.0858
 2731SOL     OW10996   0.717   3.456   4.464  0.2604 -0.7108 -0.1621
 2731SOL    HW210997   0.806   3.420   4.465  0.5189 -0.0696 -0.0691
 2731SOL    HW310998   0.724   3.540   4.509 -0.2226 -0.2670 -0.9016
 2731SOL    MW410999   0.730   3.462   4.470  0.2307 -0.5674 -0.2475
 2732SOL     OW11000   1.490   0.204   4.522 -0.3305 -0.2195  0.3349
 2732SOL    HW211001   1.570   0.175   4.567  1.1842  0.0294 -2.1131
 2732SOL    HW311002   1.515   0.286   4.479 -2.2171  0.4055  0.3765
 2732SOL    MW411003   1.504   0.211   4.522 -0.3797 -0.1042  0.0172
 2733SOL     OW11004   1.620   2.175   4.122 -0.2730 -0.4986 -0.2399
 2733SOL    HW211005   1.632   2.235   4.195 -0.2675 -1.6305  0.6926
 2733SOL    HW311006   1.616   2.232   4.045 -0.0387  0.6768  0.6070
 2733SOL    MW411007   1.621   2.191   4.121 -0.2413 -0.4933 -0.0052
 2734SOL     OW11008   1.911   2.503   4.485 -0.1196  0.0503 -0.4906
 2734SOL    HW211009   1.926   2.507   4.579  1.5508  0.0799 -0.7412
 2734SOL    HW311010   1.984   2.452   4.451 -0.6967  0.0507 -1.7819
 2734SOL    MW411011   1.922   2.496   4.493  0.0247  0.0544 -0.6943
 2735SOL     OW11012   2.136   4.265   4.652 -0.1891  0.3306 -0.0947
 2735SOL    HW211013   2.213   4.294   4.700 -1.0103 -0.2326  1.5999
 2735SOL    HW311014   2.166   4.188   4.602  0.1619 -0.3863  1.1932
 2735SOL    MW411015   2.150   4.258   4.652 -0.2513  0.1616  0.2990
 2736SOL     OW11016   4.164   3.278   4.783 -0.2706 -0.3557 -0.7558
 2736SOL    HW211017   4.082   3.249   4.743  0.1949 -0.8348 -1.3591
 2736SOL    HW311018   4.139   3.304   4.872 -0.9634 -1.1125 -0.7221
 2736SOL    MW411019   4.150   3.278   4.789 -0.3004 -0.5188 -0.8311
 2737SOL     OW11020   4.303   2.137   4.544  0.0485  0.3367 -0.6311
 2737SOL    HW211021   4.273   2.228   4.541 -0.9726  0.0769  1.1265
 2737SOL    HW311022   4.387   2.140   4.589 -0.9912  0.1859  1.3747
 2737SOL    MW411023   4.310   2.149   4.549 -0.2241  0.2828 -0.1345
 2738SOL     OW11024   1.536   4.331   4.484  0.2663 -0.0729 -0.6944
 2738SOL    HW211025   1.552   4.362   4.395 -0.3794  0.4853 -0.6218
 2738SOL    HW311026   1.580   4.246   4.489  1.3400  0.4557 -1.1649
 2738SOL    MW411027   1.544   4.324   4.473  0.3227  0.0701 -0.7472
 2739SOL     OW11028   1.262   4.290   4.515  0.1711 -0.9364 -0.4140
 2739SOL    HW211029   1.267   4.198   4.489  0.1607 -1.0804  0.0985
 2739SOL    HW311030   1.351   4.312   4.542  0.4209 -0.4908 -1.5617
 2739SOL    MW411031   1.275   4.281   4.515  0.2028 -0.8965 -0.4973
 2740SOL     OW11032   1.868   0.477   4.430  0.0187 -0.3868  0.0304
 2740SOL    HW211033   1.885   0.552   4.486  2.0482 -0.5040 -0.3947
 2740SOL    HW311034   1.908   0.500   4.346 -2.4077 -0.4784 -1.2119
 2740SOL    MW411035   1.875   0.490   4.426 -0.0336 -0.4144 -0.1898
 2741SOL     OW11036   0.696   3.707   4.565  0.5467 -0.9156  0.2003
 2741SOL    HW211037   0.756   3.782   4.566  0.6898 -1.0040 -1.1728
 2741SOL    HW311038   0.665   3.700   4.655  1.1778  0.2785  0.5172
 2741SOL    MW411039   0.700   3.716   4.577  0.6489 -0.7696  0.0610
 2742SOL     OW11040   3.924   2.563   4.517 -0.7044  0.2000 -0.1685
 2742SOL    HW211041   3.848   2.519   4.555 -0.3652  0.0744  0.3716
 2742SOL    HW311042   3.899   2.656   4.513 -0.8972  0.1546 -0.0229
 2742SOL    MW411043   3.911   2.570   4.521 -0.6850  0.1774 -0.0777
 2743SOL     OW11044   2.795   4.526   4.498 -0.3890  0.3319  0.6014
 2743SOL    HW211045   2.785   4.620   4.509 -1.3543  0.4220 -0.8850
 2743SOL    HW311046   2.706   4.493   4.491 -0.0264 -0.5905  0.2234
 2743SOL    MW411047   2.782   4.534   4.499 -0.4687  0.2217  0.3552
 2744SOL     OW11048   1.138   3.832   4.607  0.1557 -0.0348  0.1837
 2744SOL    HW211049   1.195   3.896   4.564 -0.1630  1.2825  1.6875
 2744SOL    HW311050   1.051   3.871   4.605  0.2542  0.4436  2.6690
 2744SOL    MW411051   1.134   3.845   4.601  0.1267  0.2019  0.7095
 2745SOL     OW11052   1.033   0.101   4.671 -0.9024  0.0485 -0.1407
 2745SOL    HW211053   1.024   0.007   4.688 -1.1099 -0.0571 -0.7861
 2745SOL    HW311054   0.951   0.124   4.626 -1.0367  0.6279  0.4083
 2745SOL    MW411055   1.021   0.092   4.667 -0.9474  0.1110 -0.1531
 2746SOL     OW11056   4.313   4.508   4.500  0.2422  0.3289  0.2452
 2746SOL    HW211057   4.401   4.536   4.476  0.3627  0.7870  1.1824
 2746SOL    HW311058   4.260   4.588   4.493  0.2330  0.4163  1.2228
 2746SOL    MW411059   4.317   4.522   4.496  0.2565  0.4005  0.4978
 2747SOL     OW11060   0.447   4.570   4.610  0.0023  0.0482 -0.0454
 2747SOL    HW211061   0.534   4.542   4.639 -1.0410 -1.1119  2.1014
 2747SOL    HW311062   0.434   4.655   4.653 -0.6663 -0.6685  1.2147
 2747SOL    MW411063   0.457   4.578   4.620 -0.2236 -0.1993  0.4044
 2748SOL     OW11064   2.163   0.647   4.571 -0.0749  0.0385  0.0372
 2748SOL    HW211065   2.072   0.631   4.598  0.3712 -0.7658  1.0985
 2748SOL    HW311066   2.200   0.560   4.560  0.3515  0.3621 -1.2002
 2748SOL    MW411067   2.156   0.634   4.573  0.0403 -0.0249  0.0134
 2749SOL     OW11068   1.605   1.338   4.499 -0.5817 -0.2546 -0.7732
 2749SOL    HW211069   1.600   1.431   4.520 -0.2626 -0.4682  0.2611
 2749SOL    HW311070   1.527   1.300   4.540 -0.7659 -0.4273 -1.2799
 2749SOL    MW411071   1.594   1.345   4.507 -0.5640 -0.3057 -0.7038
 2750SOL     OW11072   1.848   2.763   4.430  0.3650 -0.0325 -0.1177
 2750SOL    HW211073   1.888   2.677   4.447  3.1325  0.3703 -3.9773
 2750SOL    HW311074   1.913   2.826   4.461 -0.4215  0.6789  0.1050
 2750SOL    MW411075   1.862   2.760   4.436  0.6263  0.1140 -0.5970
 2751SOL     OW11076   1.941   1.441   4.735  0.1204 -0.3700 -0.3669
 2751SOL    HW211077   1.997   1.428   4.811  0.3039 -0.8473 -0.5821
 2751SOL    HW311078   2.001   1.437   4.660 -0.1442 -0.4834 -0.5734
 2751SOL    MW411079   1.957   1.439   4.735  0.1098 -0.4480 -0.4225
 2752SOL     OW11080   1.392   3.466   4.601  0.2759  0.1549 -0.3170
 2752SOL    HW211081   1.397   3.371   4.589  1.2388  0.1819 -0.1839
 2752SOL    HW311082   1.311   3.492   4.556 -0.5442 -0.8597  0.5459
 2752SOL    MW411083   1.382   3.457   4.594  0.2949  0.0246 -0.1860
 2753SOL     OW11084   1.529   2.298   4.879  0.2582 -0.5043 -0.3988
 2753SOL    HW211085   1.451   2.333   4.836  0.7754  1.5132  0.2743
 2753SOL    HW311086   1.501   2.284   4.970  0.6221 -0.0321 -0.2183
 2753SOL    MW411087   1.515   2.301   4.886  0.3744 -0.1762 -0.2861
 2754SOL     OW11088   1.170   2.718   4.632  0.0199 -0.1398 -0.1345
 2754SOL    HW211089   1.208   2.761   4.709 -0.3066 -0.3428  0.1436
 2754SOL    HW311090   1.113   2.784   4.593 -0.6237 -0.3735  0.3983
 2754SOL    MW411091   1.168   2.732   4.637 -0.1081 -0.1974 -0.0281
 2755SOL     OW11092   1.288   1.585   4.518  0.3549  0.2377  0.2893
 2755SOL    HW211093   1.376   1.584   4.556  0.4311 -0.4699  0.1058
 2755SOL    HW311094   1.252   1.499   4.538 -0.8774  1.0683  1.6981
 2755SOL    MW411095   1.295   1.574   4.525  0.2025  0.2540  0.4511
 2756SOL     OW11096   1.718   2.102   4.788  0.2678  0.1624 -0.1263
 2756SOL    HW211097   1.646   2.164   4.804 -0.8043 -0.7826 -1.1627
 2756SOL    HW311098   1.708   2.078   4.696  0.0753 -2.2908  0.5078
 2756SOL    MW411099   1.707   2.107   4.778  0.1010 -0.2861 -0.1793
 2757SOL     OW11100   1.842   3.186   4.259 -0.1011  0.0646 -0.4293
 2757SOL    HW211101   1.932   3.158   4.242  0.0059 -0.3647  0.7431
 2757SOL    HW311102   1.836   3.273   4.220  1.0824  0.4404  0.1719
 2757SOL    MW411103   1.853   3.194   4.252  0.0691  0.0575 -0.1955
 2758SOL     OW11104   1.816   4.036   4.886 -0.4389 -0.2314 -0.0166
 2758SOL    HW211105   1.738   3.984   4.871 -1.6889  1.8658 -1.0258
 2758SOL    HW311106   1.803   4.115   4.833  2.3696  0.1503 -0.2461
 2758SOL    MW411107   1.804   4.039   4.877 -0.2332  0.0954 -0.1802
 2759SOL     OW11108   2.593   3.224   4.512 -0.0643  0.2140 -0.2004
 2759SOL    HW211109   2.576   3.141   4.558  2.2062 -0.9534 -1.3872
 2759SOL    HW311110   2.590   3.200   4.419  0.6049  1.4707 -0.5522
 2759SOL    MW411111   2.590   3.210   4.506  0.3240  0.2260 -0.4039
 2760SOL     OW11112   0.980   3.376   4.472  0.0499  0.0988  0.2378
 2760SOL    HW211113   1.019   3.305   4.523 -0.2576  0.9993  1.7695
 2760SOL    HW311114   1.044   3.447   4.479  0.5039 -0.1124 -1.5403
 2760SOL    MW411115   0.994   3.376   4.479  0.0692  0.1898  0.2055
 2761SOL     OW11116   1.713   4.101   4.476  0.1647 -0.3043 -0.1643
 2761SOL    HW211117   1.656   4.033   4.510 -0.6217  0.3101 -0.2265
 2761SOL    HW311118   1.763   4.132   4.551 -0.6857  0.2110  0.1824
 2761SOL    MW411119   1.712   4.096   4.490 -0.0513 -0.1550 -0.1273
 2762SOL     OW11120   2.268   4.046   4.507 -0.0272 -0.6641 -0.1085
 2762SOL    HW211121   2.257   3.954   4.530 -2.6579 -0.4555 -0.3698
 2762SOL    HW311122   2.269   4.047   4.411 -1.8427 -0.2597 -0.1403
 2762SOL    MW411123   2.267   4.034   4.497 -0.6139 -0.5827 -0.1469
 2763SOL     OW11124   2.926   2.845   4.255  0.0640  0.5469 -0.7804
 2763SOL    HW211125   2.832   2.838   4.272  0.1496 -1.5017 -1.0897
 2763SOL    HW311126   2.967   2.824   4.339  0.2758  0.0311 -1.0116
 2763SOL    MW411127   2.919   2.841   4.268  0.1035  0.2086 -0.8516
 2764SOL     OW11128   0.840   3.953   4.541 -0.3622  0.9580 -0.0374
 2764SOL    HW211129   0.863   3.950   4.448  0.7056 -0.0913  0.2429
 2764SOL    HW311130   0.805   4.041   4.555  0.2293  1.3932 -1.2549
 2764SOL    MW411131   0.838   3.964   4.531 -0.1433  0.8771 -0.1612
 2765SOL     OW11132   2.110   3.338   4.559 -0.0349  0.2177  0.4901
 2765SOL    HW211133   2.084   3.429   4.548  0.2029  0.5183  2.2049
 2765SOL    HW311134   2.104   3.323   4.654 -1.5919 -1.9949  0.0691
 2765SOL    MW411135   2.106   3.348   4.570 -0.2091 -0.0346  0.6609
 2766SOL     OW11136   2.325   3.696   4.864  0.0363 -0.5346  0.5741
 2766SOL    HW211137   2.317   3.602   4.875  1.4249 -0.6890  0.2869
 2766SOL    HW311138   2.412   3.717   4.899 -0.1202  0.5792  0.3052
 2766SOL    MW411139   2.335   3.687   4.870  0.1988 -0.4079  0.5002
 2767SOL     OW11140   2.389   3.383   4.584  0.2532 -0.2873 -0.2717
 2767SOL    HW211141   2.310   3.341   4.550 -0.6156  0.3835  0.8794
 2767SOL    HW311142   2.461   3.329   4.552 -0.6052 -0.3679 -2.1408
 2767SOL    MW411143   2.388   3.370   4.575  0.0253 -0.2093 -0.3667
 2768SOL     OW11144   2.375   4.625   4.544 -0.7680 -0.4641 -0.2746
 2768SOL    HW211145   2.297   4.664   4.505  0.3994 -0.0910 -2.3148
 2768SOL    HW311146   2.430   4.700   4.569 -1.1577 -0.7187  1.4013
 2768SOL    MW411147   2.372   4.640   4.542 -0.6654 -0.4482 -0.3223
 2769SOL     OW11148   1.090   1.283   4.294 -0.0758  0.2466 -0.2277
 2769SOL    HW211149   1.082   1.371   4.257  1.2754  0.7300  0.5894
 2769SOL    HW311150   1.168   1.246   4.251  1.1154  0.5677  1.5732
 2769SOL    MW411151   1.100   1.290   4.283  0.2599  0.3527  0.1178
 2770SOL     OW11152   2.004   4.458   4.488  0.2719  0.0357 -0.3355
 2770SOL    HW211153   2.044   4.545   4.476  1.8643 -0.7550 -0.8620
 2770SOL    HW311154   2.067   4.409   4.539  0.0688 -1.3008 -1.3327
 2770SOL    MW411155   2.017   4.463   4.493  0.4551 -0.2451 -0.5364
 2771SOL     OW11156   2.664   0.898   4.500 -0.6078 -0.3665  0.5834
 2771SOL    HW211157   2.666   0.864   4.410 -0.2960  0.8037  0.1407
 2771SOL    HW311158   2.671   0.820   4.555 -0.5569 -1.0738 -0.4091
 2771SOL    MW411159   2.665   0.883   4.495 -0.5598 -0.3055  0.3939
 2772SOL     OW11160   2.673   1.941   3.798  0.0510 -0.5635  0.1988
 2772SOL    HW211161   2.582   1.968   3.785  0.1438 -0.6680 -0.6975
 2772SOL    HW311162   2.669   1.845   3.801  0.1352 -0.5706  0.0910
 2772SOL    MW411163   2.660   1.932   3.796  0.0744 -0.5782  0.0665
 2773SOL     OW11164   2.358   1.324   4.560  0.2890 -1.0380 -0.1191
 2773SOL    HW211165   2.403   1.377   4.494  0.2911 -0.3616  0.4183
 2773SOL    HW311166   2.381   1.234   4.537  1.0939 -0.7587 -0.4564
 2773SOL    MW411167   2.367   1.319   4.548  0.3953 -0.9121 -0.0930
 2774SOL     OW11168   2.186   1.212   4.123 -0.0361  0.1295 -0.5436
 2774SOL    HW211169   2.194   1.196   4.029 -1.4682  0.1312 -0.6866
 2774SOL    HW311170   2.186   1.125   4.162  2.0389  0.1707 -0.3867
 2774SOL    MW411171   2.187   1.198   4.116  0.0491  0.1351 -0.5417
 2775SOL     OW11172   1.892   1.782   4.493  0.1000  0.3112  0.4003
 2775SOL    HW211173   1.988   1.785   4.498  0.1410 -0.6432  0.2629
 2775SOL    HW311174   1.864   1.755   4.581 -0.1629  2.7152  1.0853
 2775SOL    MW411175   1.901   1.779   4.505  0.0707  0.5025  0.4721
 2776SOL     OW11176   2.316   2.604   4.104  0.2399 -0.0282 -0.0344
 2776SOL    HW211177   2.226   2.629   4.127 -0.0085  0.2811 -1.3078
 2776SOL    HW311178   2.318   2.509   4.112 -0.0277  0.0185  0.5971
 2776SOL    MW411179   2.304   2.595   4.108  0.1717  0.0188 -0.1197
 2777SOL     OW11180   2.552   2.149   4.404 -0.1102  0.0959 -0.3510
 2777SOL    HW211181   2.642   2.169   4.377  0.2492 -1.5188 -0.3972
 2777SOL    HW311182   2.500   2.221   4.369  0.9564  0.2580 -1.6225
 2777SOL    MW411183   2.557   2.161   4.396  0.0782 -0.0958 -0.5250
 2778SOL     OW11184   2.886   2.917   5.008 -0.1121 -0.3473  0.2341
 2778SOL    HW211185   2.854   2.827   4.999  0.6874 -0.5369 -0.9007
 2778SOL    HW311186   2.825   2.970   4.956 -0.2707 -0.3065  0.4608
 2778SOL    MW411187   2.874   2.912   5.000 -0.0277 -0.3669  0.1140
 2779SOL     OW11188   3.024   2.034   4.100  0.0807  0.0619 -0.2469
 2779SOL    HW211189   3.021   2.119   4.056 -0.4780 -0.1015 -0.5422
 2779SOL    HW311190   2.932   2.014   4.117  0.3137  0.2510  1.2631
 2779SOL    MW411191   3.011   2.043   4.096  0.0377  0.0651 -0.0868
 2780SOL     OW11192   2.248   2.588   4.527 -0.4037  0.1272 -0.1314
 2780SOL    HW211193   2.218   2.508   4.483 -0.2991  0.1217 -0.1936
 2780SOL    HW311194   2.288   2.640   4.458  0.9692 -0.4654  0.1911
 2780SOL    MW411195   2.249   2.584   4.512 -0.2086  0.0484 -0.0968
 2781SOL     OW11196   2.407   2.730   4.347 -1.0132  0.7080  0.1559
 2781SOL    HW211197   2.379   2.821   4.335 -0.7272  1.0201  1.7515
 2781SOL    HW311198   2.386   2.687   4.264 -0.5002  2.3910 -0.8520
 2781SOL    MW411199   2.400   2.736   4.334 -0.9074  0.9713  0.2332
 2782SOL     OW11200   1.561   2.313   3.875  0.4287 -0.3550 -0.2816
 2782SOL    HW211201   1.577   2.231   3.830  0.0534  1.0859 -3.1450
 2782SOL    HW311202   1.639   2.366   3.856  0.3542  0.2264  0.9444
 2782SOL    MW411203   1.574   2.309   3.867  0.3693 -0.0885 -0.4976
 2783SOL     OW11204   1.552   3.895   4.581 -0.1328 -0.2029 -0.1511
 2783SOL    HW211205   1.576   3.814   4.535  0.3173 -0.2426  0.1459
 2783SOL    HW311206   1.580   3.880   4.671 -1.6248 -0.3817  0.2885
 2783SOL    MW411207   1.559   3.882   4.587 -0.2701 -0.2320 -0.0534
 2784SOL     OW11208   1.578   0.432   4.416 -0.6749  0.0416 -0.3767
 2784SOL    HW211209   1.550   0.520   4.442 -2.3346 -0.6289  0.1607
 2784SOL    HW311210   1.673   0.437   4.414 -0.7141  1.5511  0.7360
 2784SOL    MW411211   1.587   0.444   4.419 -0.8991  0.1522 -0.1593
 2785SOL     OW11212   2.764   3.995   4.487  0.1073 -0.0592 -0.3519
 2785SOL    HW211213   2.705   4.051   4.537  0.5906 -0.6223  0.8630
 2785SOL    HW311214   2.726   3.993   4.399 -0.8617  0.7718  0.0380
 2785SOL    MW411215   2.751   4.002   4.482  0.0432 -0.0238 -0.1397
 2786SOL     OW11216   2.096   3.340   4.818 -0.6353 -0.0899 -0.2978
 2786SOL    HW211217   2.190   3.360   4.821 -0.3760 -1.5037  2.3965
 2786SOL    HW311218   2.055   3.412   4.865 -0.8144  0.0637 -0.6913
 2786SOL    MW411219   2.103   3.352   4.825 -0.6244 -0.2563  0.0062
 2787SOL     OW11220   3.031   4.086   4.472  0.1007  0.1027  0.3371
 2787SOL    HW211221   3.035   4.181   4.480 -1.6668  0.2200 -0.0737
 2787SOL    HW311222   2.940   4.067   4.450  0.3017 -1.7278  0.9736
 2787SOL    MW411223   3.019   4.096   4.470 -0.1061 -0.1230  0.3667
 2788SOL     OW11224   1.323   3.731   4.788  0.2936 -0.0074  0.3757
 2788SOL    HW211225   1.335   3.648   4.742  0.7487  0.9003 -1.1816
 2788SOL    HW311226   1.243   3.768   4.749  2.1330  1.9958 -1.6487
 2788SOL    MW411227   1.314   3.725   4.776  0.5964  0.3769 -0.0963
 2789SOL     OW11228   1.739   3.580   4.865  0.3159 -0.3762  0.2063
 2789SOL    HW211229   1.827   3.594   4.898  0.3544 -0.6085  0.2011
 2789SOL    HW311230   1.706   3.505   4.915  0.1645 -0.3636  0.1254
 2789SOL    MW411231   1.746   3.572   4.876  0.3010 -0.4053  0.1941
 2790SOL     OW11232   1.841   4.234   4.705  0.1140  0.1695 -0.6354
 2790SOL    HW211233   1.818   4.326   4.692  0.0616  0.3305  0.5404
 2790SOL    HW311234   1.936   4.234   4.710  0.1651  0.0375 -1.4807
 2790SOL    MW411235   1.850   4.246   4.704  0.1137  0.1736 -0.5918
 2791SOL     OW11236   3.167   0.819   4.273 -0.2128  0.2277 -0.6702
 2791SOL    HW211237   3.160   0.914   4.275 -0.1096  0.2284 -0.0326
 2791SOL    HW311238   3.082   0.789   4.241 -0.1873  0.5436 -1.0257
 2791SOL    MW411239   3.155   0.828   4.269 -0.1960  0.2695 -0.6328
 2792SOL     OW11240   2.016   3.823   4.862 -0.1491  0.0148 -0.2010
 2792SOL    HW211241   1.959   3.899   4.872 -1.0055 -0.4010 -1.6615
 2792SOL    HW311242   2.101   3.859   4.839 -0.0131  0.6130  1.2427
 2792SOL    MW411243   2.019   3.837   4.860 -0.2444  0.0389 -0.2031
 2793SOL     OW11244   3.251   0.324   4.565 -0.4246  0.2718  0.0446
 2793SOL    HW211245   3.200   0.403   4.585  0.5577  0.9609 -0.1090
 2793SOL    HW311246   3.328   0.357   4.518  1.7245 -0.3943  2.9589
 2793SOL    MW411247   3.254   0.339   4.562 -0.0114  0.2748  0.4086
 2794SOL     OW11248   2.582   1.898   4.498 -0.0571 -0.2380  0.0830
 2794SOL    HW211249   2.675   1.876   4.487 -0.4566 -1.9963  0.0815
 2794SOL    HW311250   2.577   1.990   4.476  1.9446  0.2451  1.4265
 2794SOL    MW411251   2.594   1.907   4.494  0.1545 -0.4063  0.2604
 2795SOL     OW11252   3.286   1.205   4.512  0.6578  0.4682 -0.0286
 2795SOL    HW211253   3.296   1.234   4.421 -0.7908  1.0252 -0.0191
 2795SOL    HW311254   3.281   1.286   4.563  0.0511  0.1781  0.3852
 2795SOL    MW411255   3.287   1.220   4.507  0.3865  0.5034  0.0272
 2796SOL     OW11256   2.521   1.622   4.149 -0.3562 -0.0800  0.6918
 2796SOL    HW211257   2.616   1.629   4.160  0.1140  0.5308 -2.9314
 2796SOL    HW311258   2.488   1.711   4.162 -0.0101  0.3157 -0.9638
 2796SOL    MW411259   2.529   1.634   4.152 -0.2487  0.0528 -0.0048
 2797SOL     OW11260   2.420   0.739   4.154  0.2071 -0.1247  0.0876
 2797SOL    HW211261   2.427   0.738   4.059 -0.0257  1.1985  0.0483
 2797SOL    HW311262   2.425   0.647   4.180  0.8024 -0.4480 -1.1634
 2797SOL    MW411263   2.422   0.727   4.145  0.2549  0.0072 -0.0825
 2798SOL     OW11264   2.861   1.189   4.339  0.0254  0.0914 -0.0728
 2798SOL    HW211265   2.873   1.130   4.414  0.1692 -0.3579 -0.4533
 2798SOL    HW311266   2.832   1.271   4.379 -0.9187 -0.4631  0.3982
 2798SOL    MW411267   2.859   1.192   4.354 -0.0801 -0.0410 -0.0615
 2799SOL     OW11268   3.366   0.093   4.715 -0.0978  0.1083  0.7789
 2799SOL    HW211269   3.340   0.184   4.699  0.4948  0.1867  0.2481
 2799SOL    HW311270   3.441   0.079   4.657 -1.0314 -1.1268 -0.1591
 2799SOL    MW411271   3.372   0.104   4.705 -0.1426 -0.0443  0.5851
 2800SOL     OW11272   2.750   1.964   4.071  0.3024  0.0466 -0.2063
 2800SOL    HW211273   2.680   1.975   4.135  0.7336 -1.8963  0.6392
 2800SOL    HW311274   2.705   1.955   3.987 -0.3268  1.4367 -0.0172
 2800SOL    MW411275   2.735   1.964   4.069  0.2763 -0.0263 -0.0696
 2801SOL     OW11276   3.392   2.573   4.625 -0.2286  0.5799 -0.2678
 2801SOL    HW211277   3.336   2.537   4.556  0.1540 -1.0851  0.2665
 2801SOL    HW311278   3.478   2.533   4.609 -0.1855  0.0278  1.2815
 2801SOL    MW411279   3.396   2.563   4.614 -0.1724  0.2878  0.0076
 2802SOL     OW11280   3.133   2.708   4.125  0.3105 -0.3649 -0.2538
 2802SOL    HW211281   3.051   2.738   4.163  0.2096 -2.1907  1.0560
 2802SOL    HW311282   3.201   2.755   4.173  0.0890 -0.4869  0.1774
 2802SOL    MW411283   3.131   2.718   4.136  0.2680 -0.6220 -0.0238
 2803SOL     OW11284   0.157   2.429   4.629  0.4004  0.3768  0.2704
 2803SOL    HW211285   0.086   2.478   4.587  1.3281  0.9699 -0.6451
 2803SOL    HW311286   0.236   2.460   4.585  1.2473 -0.1458  1.3993
 2803SOL    MW411287   0.158   2.439   4.618  0.6345  0.3862  0.2980
 2804SOL     OW11288   2.902   2.465   4.417 -0.1873 -0.5326  0.0385
 2804SOL    HW211289   2.854   2.511   4.485  0.7497  0.6991 -0.1356
 2804SOL    HW311290   2.994   2.478   4.438  0.0990 -1.3608 -0.6561
 2804SOL    MW411291   2.908   2.473   4.428 -0.0257 -0.4792 -0.0758
 2805SOL     OW11292   3.201   3.229   4.482 -0.3225  0.0706 -0.0545
 2805SOL    HW211293   3.230   3.138   4.487  0.2948  0.1875 -1.3532
 2805SOL    HW311294   3.149   3.242   4.561 -0.8056 -1.5454 -0.0970
 2805SOL    MW411295   3.198   3.219   4.493 -0.3047 -0.1271 -0.2317
 2806SOL     OW11296   1.378   2.854   4.778 -0.4529  0.7195  0.3655
 2806SOL    HW211297   1.424   2.932   4.744 -1.0966  1.2691  0.7483
 2806SOL    HW311298   1.448   2.791   4.795  0.0788  1.2204  0.0643
 2806SOL    MW411299   1.393   2.856   4.775 -0.4678  0.8581  0.3762
 2807SOL     OW11300   2.879   3.323   4.852 -0.1382 -0.0614 -0.0756
 2807SOL    HW211301   2.863   3.314   4.759  0.2412 -0.6416 -0.0897
 2807SOL    HW311302   2.966   3.285   4.866  0.1030  0.6610  0.4012
 2807SOL    MW411303   2.888   3.317   4.842 -0.0565 -0.0429 -0.0143
 2808SOL     OW11304   1.822   2.254   4.391 -0.1435 -0.7104 -0.5598
 2808SOL    HW211305   1.900   2.236   4.338  0.0845 -0.6118 -0.2598
 2808SOL    HW311306   1.842   2.337   4.435  0.2263 -1.4601  0.7213
 2808SOL    MW411307   1.835   2.263   4.390 -0.0646 -0.7961 -0.3514
 2809SOL     OW11308   3.349   4.347   4.209 -0.4984  0.5393 -0.1211
 2809SOL    HW211309   3.434   4.312   4.181 -1.0391 -1.0510  0.2357
 2809SOL    HW311310   3.349   4.338   4.304 -0.9838  0.7642 -0.0985
 2809SOL    MW411311   3.360   4.341   4.218 -0.6340  0.3595 -0.0710
 2810SOL     OW11312   3.093   0.144   4.439 -0.4283 -0.2101 -0.1440
 2810SOL    HW211313   3.150   0.208   4.482 -0.6753  0.4952 -0.8518
 2810SOL    HW311314   3.124   0.059   4.472 -0.7629  0.3205  1.5733
 2810SOL    MW411315   3.105   0.141   4.449 -0.5052 -0.0470 -0.0110
 2811SOL     OW11316   3.408   4.361   4.490 -0.3140 -0.5670 -0.1715
 2811SOL    HW211317   3.496   4.391   4.465 -0.7792  0.9307 -0.0653
 2811SOL    HW311318   3.422   4.275   4.530  1.3737  0.6071  1.8613
 2811SOL    MW411319   3.422   4.354   4.492 -0.1528 -0.2146  0.1111
 2812SOL     OW11320   3.243   4.579   4.558  0.0625 -0.4015  0.0200
 2812SOL    HW211321   3.305   4.509   4.540 -1.7671 -2.1092  0.1109
 2812SOL    HW311322   3.277   4.621   4.637  0.6604 -1.8436  0.5561
 2812SOL    MW411323   3.256   4.575   4.566 -0.0999 -0.8168  0.1030
 2813SOL     OW11324   2.440   0.496   4.536  0.3861  0.3155  0.2318
 2813SOL    HW211325   2.442   0.403   4.560  0.9391  0.5227  1.0258
 2813SOL    HW311326   2.444   0.496   4.440  2.5733 -0.4447  0.2795
 2813SOL    MW411327   2.441   0.484   4.527  0.7474  0.2426  0.3428
 2814SOL     OW11328   2.915   2.993   4.666 -0.6565 -0.0889  0.3576
 2814SOL    HW211329   2.845   2.995   4.732 -0.3955  0.0933  0.6304
 2814SOL    HW311330   2.995   2.980   4.716 -0.5229 -0.6012  0.0171
 2814SOL    MW411331   2.916   2.992   4.681 -0.6049 -0.1326  0.3486
 2815SOL     OW11332   3.425   4.111   4.596  0.1865  0.5927 -0.6307
 2815SOL    HW211333   3.477   4.031   4.591  0.8854  1.0075 -0.1595
 2815SOL    HW311334   3.342   4.083   4.634  0.6259  0.1716  0.0356
 2815SOL    MW411335   3.421   4.097   4.601  0.3369  0.5918 -0.4807
 2816SOL     OW11336   0.300   3.454   4.488 -0.1598  0.0869  0.6972
 2816SOL    HW211337   0.239   3.382   4.496  0.0030 -0.0878  0.3588
 2816SOL    HW311338   0.284   3.490   4.401 -0.1174  0.3468  0.7968
 2816SOL    MW411339   0.290   3.450   4.478 -0.1327  0.0980  0.6661
 2817SOL     OW11340   2.819   2.210   4.316  0.0253 -0.4519 -0.0246
 2817SOL    HW211341   2.787   2.240   4.231  1.1161 -0.2975 -0.3969
 2817SOL    HW311342   2.857   2.289   4.357  0.2770 -0.7015  0.2299
 2817SOL    MW411343   2.820   2.225   4.310  0.2022 -0.4647 -0.0396
 2818SOL     OW11344   3.049   4.399   4.488 -0.3047  0.3704  0.1737
 2818SOL    HW211345   3.119   4.453   4.525 -0.8846  1.9410 -0.9524
 2818SOL    HW311346   2.969   4.444   4.515 -0.9168 -1.5991  1.7429
 2818SOL    MW411347   3.048   4.412   4.497 -0.4621  0.3181  0.2322
 2819SOL     OW11348   2.765   1.431   4.466 -0.1704 -0.2221  0.0994
 2819SOL    HW211349   2.794   1.514   4.429  0.3799 -1.0074 -1.2508
 2819SOL    HW311350   2.673   1.424   4.441 -0.6524  0.6755  1.5146
 2819SOL    MW411351   2.757   1.441   4.458 -0.1614 -0.2072  0.1073
 2820SOL     OW11352   0.848   2.368   4.514  0.4028 -0.5608  0.1378
 2820SOL    HW211353   0.864   2.399   4.424  1.3854  0.0842  0.5297
 2820SOL    HW311354   0.762   2.405   4.536  0.0308 -0.9466 -0.6317
 2820SOL    MW411355   0.839   2.377   4.505  0.4833 -0.5264  0.0877
 2821SOL     OW11356   1.995   1.372   4.235  0.4304 -0.3002  0.5383
 2821SOL    HW211357   2.007   1.456   4.191  0.8097 -0.4336  0.3884
 2821SOL    HW311358   2.063   1.316   4.199  0.7612 -0.4035  1.3120
 2821SOL    MW411359   2.005   1.376   4.224  0.5240 -0.3314  0.6208
 2822SOL     OW11360   4.469   1.145   4.504  0.3054 -0.1027 -0.1694
 2822SOL    HW211361   4.479   1.064   4.455  0.0815 -0.0019 -0.3802
 2822SOL    HW311362   4.557   1.183   4.507  0.7353 -1.1859  1.3728
 2822SOL    MW411363   4.482   1.140   4.498  0.3328 -0.2323  0.0057
 2823SOL     OW11364   3.190   1.722   4.388 -0.2404 -0.5934  0.4052
 2823SOL    HW211365   3.247   1.676   4.326  1.1804 -0.3740  1.5308
 2823SOL    HW311366   3.234   1.713   4.473 -1.8009 -0.2766  1.2679
 2823SOL    MW411367   3.203   1.714   4.391 -0.2587 -0.5227  0.6680
 2824SOL     OW11368   3.462   2.891   4.668 -0.6915 -0.2351 -0.4410
 2824SOL    HW211369   3.460   2.797   4.684 -0.4011 -0.0656  0.5882
 2824SOL    HW311370   3.393   2.905   4.603 -0.6211 -1.1748 -0.7333
 2824SOL    MW411371   3.453   2.881   4.661 -0.6437 -0.3366 -0.3443
 2825SOL     OW11372   3.137   2.675   4.731 -0.2380  0.1423 -0.3258
 2825SOL    HW211373   3.081   2.599   4.745  0.5112 -0.1563  1.0683
 2825SOL    HW311374   3.221   2.638   4.703  0.3176  0.4220  0.9651
 2825SOL    MW411375   3.141   2.660   4.729 -0.0656  0.1397  0.0286
 2826SOL     OW11376   2.693   2.531   4.226 -0.4877 -0.3772  0.0639
 2826SOL    HW211377   2.621   2.493   4.275 -0.6638 -1.8076 -1.2464
 2826SOL    HW311378   2.762   2.544   4.290 -2.1430  1.6964  1.4812
 2826SOL    MW411379   2.693   2.527   4.241 -0.7293 -0.2921  0.0782
 2827SOL     OW11380   2.567   2.724   4.082 -0.4561  0.3456  0.2480
 2827SOL    HW211381   2.622   2.669   4.138 -1.6876  0.0221  1.1705
 2827SOL    HW311382   2.478   2.692   4.098 -0.7811 -0.0810 -2.2788
 2827SOL    MW411383   2.563   2.712   4.092 -0.6614  0.2465  0.0362
 2828SOL     OW11384   3.198   2.014   4.298 -0.2141 -0.5191 -0.1034
 2828SOL    HW211385   3.181   1.937   4.353  0.9264 -0.9140 -0.3024
 2828SOL    HW311386   3.128   2.012   4.232  0.1788 -1.7578 -0.4991
 2828SOL    MW411387   3.186   2.004   4.296 -0.0117 -0.7346 -0.1822
 2829SOL     OW11388   3.141   2.185   4.521  0.4053 -0.0441  0.3090
 2829SOL    HW211389   3.158   2.147   4.435  0.0542  0.3850  0.0489
 2829SOL    HW311390   3.207   2.146   4.578  1.4986  0.7079 -0.4374
 2829SOL    MW411391   3.152   2.174   4.517  0.5033  0.1121  0.1760
 2830SOL     OW11392   2.598   3.272   4.964 -0.3608  0.0897  0.6416
 2830SOL    HW211393   2.691   3.288   4.951 -0.4350 -0.2499 -0.2993
 2830SOL    HW311394   2.586   3.179   4.943 -0.9042  0.1133  0.8321
 2830SOL    MW411395   2.608   3.261   4.960 -0.4423  0.0482  0.5426
 2831SOL     OW11396   2.922   3.605   4.708  0.5121 -0.2299 -0.4835
 2831SOL    HW211397   2.920   3.528   4.765 -0.7526  0.1131 -0.0375
 2831SOL    HW311398   3.007   3.645   4.724 -0.0828  0.2410  1.7055
 2831SOL    MW411399   2.933   3.600   4.717  0.2668 -0.1225 -0.1364
 2832SOL     OW11400   2.810   0.169   4.521  0.0692  0.1896  0.5060
 2832SOL    HW211401   2.904   0.175   4.506 -0.0457 -0.4850 -0.5471
 2832SOL    HW311402   2.773   0.150   4.434 -0.8125 -1.9438  1.3184
 2832SOL    MW411403   2.818   0.167   4.507 -0.0622 -0.1808  0.4740
 2833SOL     OW11404   3.260   2.957   4.474  0.3244  0.4323 -0.1065
 2833SOL    HW211405   3.302   2.939   4.390 -0.8916  1.9566 -1.0842
 2833SOL    HW311406   3.178   2.907   4.471  0.1734  0.6656  0.0599
 2833SOL    MW411407   3.255   2.948   4.463  0.1440  0.6640 -0.2131
 2834SOL     OW11408   3.628   3.256   4.504 -0.2606 -0.2908  0.1651
 2834SOL    HW211409   3.616   3.249   4.409 -0.7652  0.0543  0.2061
 2834SOL    HW311410   3.705   3.312   4.514 -0.0126 -0.5873 -0.0437
 2834SOL    MW411411   3.636   3.262   4.493 -0.2944 -0.2844  0.1431
 2835SOL     OW11412   2.684   3.742   4.639 -0.5401  0.0893 -0.1769
 2835SOL    HW211413   2.759   3.687   4.660 -0.9429  0.3147  1.9193
 2835SOL    HW311414   2.720   3.814   4.587  0.2263 -1.3033 -1.6012
 2835SOL    MW411415   2.698   3.744   4.635 -0.4921 -0.0648 -0.0882
 2836SOL     OW11416   2.879   1.058   4.586 -0.2009  0.2009 -0.4058
 2836SOL    HW211417   2.801   1.007   4.563 -0.2565  0.4793 -0.8334
 2836SOL    HW311418   2.846   1.134   4.633 -0.1901  0.3385 -0.6200
 2836SOL    MW411419   2.865   1.061   4.590 -0.2067  0.2556 -0.4902
 2837SOL     OW11420   2.588   3.779   4.889 -0.1669 -0.3188 -0.1606
 2837SOL    HW211421   2.665   3.746   4.936  0.6748  1.0524 -0.5592
 2837SOL    HW311422   2.610   3.766   4.796 -1.0471 -1.3053 -0.2391
 2837SOL    MW411423   2.601   3.773   4.883 -0.1719 -0.2680 -0.2241
 2838SOL     OW11424   3.340   3.691   4.493 -0.4493  0.3575 -0.5785
 2838SOL    HW211425   3.270   3.715   4.554  0.3234  1.8156 -0.2194
 2838SOL    HW311426   3.360   3.600   4.513 -1.6847  0.1690 -0.1417
 2838SOL    MW411427   3.333   3.682   4.503 -0.5102  0.5250 -0.4730
 2839SOL     OW11428   2.543   4.420   4.486 -0.0358 -0.1798 -0.2086
 2839SOL    HW211429   2.520   4.376   4.404  0.8645 -1.3690  0.1523
 2839SOL    HW311430   2.472   4.482   4.501 -0.5731 -0.4698 -1.5185
 2839SOL    MW411431   2.530   4.422   4.477  0.0122 -0.3753 -0.3338
 2840SOL     OW11432   2.447   0.483   4.256  0.2730  0.4216 -0.0570
 2840SOL    HW211433   2.376   0.437   4.213  0.1971  1.4393 -1.0338
 2840SOL    HW311434   2.526   0.456   4.208  0.2802  0.9596 -0.3523
 2840SOL    MW411435   2.448   0.474   4.244  0.2639  0.6269 -0.2251
 2841SOL     OW11436   3.608   0.067   4.536  0.3666 -0.2443  0.2198
 2841SOL    HW211437   3.693   0.108   4.551  0.3469 -0.4010  0.7581
 2841SOL    HW311438   3.630  -0.025   4.517  0.4086  0.0026 -0.9459
 2841SOL    MW411439   3.622   0.060   4.535  0.3695 -0.2324  0.1369
 2842SOL     OW11440   3.600   1.670   4.254  0.2607  0.1633  0.3808
 2842SOL    HW211441   3.613   1.749   4.201  0.8497 -0.6116 -0.6605
 2842SOL    HW311442   3.510   1.643   4.237 -0.5037  1.5544  2.0710
 2842SOL    MW411443   3.590   1.677   4.245  0.2375  0.2446  0.4663
 2843SOL     OW11444   3.309   1.414   4.709 -0.0874 -0.3058  0.0597
 2843SOL    HW211445   3.232   1.394   4.762  0.7760 -1.3594  0.9536
 2843SOL    HW311446   3.381   1.371   4.756  0.9889  0.4188 -0.9196
 2843SOL    MW411447   3.309   1.405   4.722  0.1683 -0.3492  0.0482
 2844SOL     OW11448   4.034   2.022   4.573  0.0648  0.1452  0.0723
 2844SOL    HW211449   4.123   2.052   4.552 -0.5700  1.8796 -0.2268
 2844SOL    HW311450   3.997   2.093   4.624 -0.0880 -1.9387  2.9542
 2844SOL    MW411451   4.041   2.035   4.577 -0.0391  0.0989  0.4129
 2845SOL     OW11452   3.867   1.622   4.478  0.3330  0.1389  0.1746
 2845SOL    HW211453   3.834   1.534   4.497  1.1340 -0.1374  0.2952
 2845SOL    HW311454   3.789   1.677   4.476 -0.2332 -0.6731 -0.4523
 2845SOL    MW411455   3.852   1.617   4.480  0.3638 -0.0046  0.1078
 2846SOL     OW11456   4.325   3.685   4.218  0.1039  0.2067  0.1901
 2846SOL    HW211457   4.250   3.629   4.198  0.7985 -0.5135 -0.5095
 2846SOL    HW311458   4.305   3.768   4.176 -0.3898  0.0825  0.1745
 2846SOL    MW411459   4.313   3.688   4.210  0.1302  0.0954  0.0958
 2847SOL     OW11460   3.609   1.762   4.512  0.3526 -0.3854 -0.1882
 2847SOL    HW211461   3.525   1.740   4.553  0.3979 -0.4376 -0.1230
 2847SOL    HW311462   3.596   1.742   4.419 -0.0457  0.5956 -0.3468
 2847SOL    MW411463   3.596   1.756   4.505  0.3061 -0.2627 -0.2003
 2848SOL     OW11464   3.638   0.948   4.506  0.3793  0.4229 -0.1932
 2848SOL    HW211465   3.645   0.965   4.413 -0.7370  1.5423 -0.0711
 2848SOL    HW311466   3.597   0.862   4.512 -0.8374  0.9664 -0.7169
 2848SOL    MW411467   3.634   0.939   4.495  0.0713  0.6423 -0.2456
 2849SOL     OW11468   0.067   0.471   4.507 -0.5168  0.2391 -0.1848
 2849SOL    HW211469   0.095   0.555   4.543  1.1847 -0.6653  0.6782
 2849SOL    HW311470   0.088   0.477   4.413  1.7394 -0.0511  0.2786
 2849SOL    MW411471   0.074   0.483   4.499  0.0054  0.0815 -0.0100
 2850SOL     OW11472   3.908   0.897   4.580  0.4684 -0.3081  0.1197
 2850SOL    HW211473   3.817   0.925   4.580  0.4573 -0.3435  0.0366
 2850SOL    HW311474   3.929   0.885   4.488  0.6479 -0.0129  0.1227
 2850SOL    MW411475   3.899   0.899   4.568  0.4907 -0.2738  0.1087
 2851SOL     OW11476   3.144   3.268   4.773 -0.2908  0.4163  0.4700
 2851SOL    HW211477   3.181   3.356   4.776 -2.3071  1.2770  0.7076
 2851SOL    HW311478   3.215   3.211   4.803  1.3592  1.8366 -0.6572
 2851SOL    MW411479   3.158   3.272   4.777 -0.3390  0.7174  0.3524
 2852SOL     OW11480   0.639   2.550   4.591  0.3364  0.2741 -0.0037
 2852SOL    HW211481   0.643   2.590   4.678 -1.3993  0.4106  0.0307
 2852SOL    HW311482   0.658   2.622   4.530 -0.7868  0.7035  0.1523
 2852SOL    MW411483   0.642   2.564   4.594 -0.0409  0.3486  0.0215
 2853SOL     OW11484   2.367   3.424   4.845 -0.2980 -0.2718 -0.1199
 2853SOL    HW211485   2.385   3.417   4.751 -0.8497 -0.8150 -0.1812
 2853SOL    HW311486   2.448   3.393   4.886 -0.6538 -1.6160 -0.4090
 2853SOL    MW411487   2.380   3.419   4.838 -0.4175 -0.5207 -0.1659
 2854SOL     OW11488   2.877   3.256   4.567  0.7407  0.3849  0.0621
 2854SOL    HW211489   2.903   3.167   4.590  0.6965  1.2897  3.9543
 2854SOL    HW311490   2.785   3.249   4.542  0.5379 -0.5510  1.0570
 2854SOL    MW411491   2.869   3.243   4.566  0.7079  0.3808  0.7071
 2855SOL     OW11492   4.316   3.394   4.546 -0.1108  0.3390  0.4032
 2855SOL    HW211493   4.401   3.351   4.540 -0.0721  0.4798 -0.0994
 2855SOL    HW311494   4.288   3.379   4.636  0.2520 -0.0734  0.4505
 2855SOL    MW411495   4.324   3.386   4.557 -0.0577  0.3033  0.3433
 2856SOL     OW11496   3.367   1.676   4.617 -0.1511  0.4266 -0.5356
 2856SOL    HW211497   3.288   1.713   4.657  1.6355  1.1672  2.4162
 2856SOL    HW311498   3.362   1.582   4.637 -0.6686  0.3244 -1.1011
 2856SOL    MW411499   3.356   1.668   4.625  0.0162  0.5109 -0.2213
 2857SOL     OW11500   4.332   2.830   4.465  0.5296 -0.0483 -0.2943
 2857SOL    HW211501   4.308   2.851   4.375 -0.7462 -0.8406 -0.1499
 2857SOL    HW311502   4.259   2.861   4.518  1.2571  0.3809  0.4718
 2857SOL    MW411503   4.320   2.837   4.460  0.4573 -0.0961 -0.1745
 2858SOL     OW11504   2.957   3.514   4.453 -0.0504  0.4827  0.2763
 2858SOL    HW211505   2.929   3.426   4.478  0.9799  0.0601 -0.0387
 2858SOL    HW311506   2.946   3.566   4.533  2.8901 -0.7763  1.5837
 2858SOL    MW411507   2.952   3.510   4.467  0.4735  0.2606  0.4077
 2859SOL     OW11508   3.397   3.412   4.548  0.3475 -0.4875  0.2002
 2859SOL    HW211509   3.323   3.357   4.525  0.2474 -0.6739  0.9583
 2859SOL    HW311510   3.473   3.355   4.538  0.4109 -0.2535 -0.7220
 2859SOL    MW411511   3.397   3.398   4.544  0.3426 -0.4811  0.1788
 2860SOL     OW11512   1.082   1.811   4.530  0.3128  0.1583  0.2459
 2860SOL    HW211513   1.131   1.893   4.543  0.5097 -0.2605  2.4231
 2860SOL    HW311514   1.149   1.743   4.539 -0.2687 -0.3254  0.9589
 2860SOL    MW411515   1.098   1.813   4.533  0.2620  0.0393  0.6275
 2861SOL     OW11516   4.158   0.095   4.450 -0.3581  0.2809  0.2746
 2861SOL    HW211517   4.209   0.170   4.482  2.0474 -1.6759  1.1290
 2861SOL    HW311518   4.126   0.123   4.364  3.2060  1.1424 -0.8479
 2861SOL    MW411519   4.160   0.109   4.443  0.4296  0.1364  0.2394
 2862SOL     OW11520   3.188   4.003   4.714  0.2011  0.4727  0.7940
 2862SOL    HW211521   3.178   4.069   4.783 -1.4387  0.7682  0.2897
 2862SOL    HW311522   3.127   4.030   4.646  2.3214  0.5707 -1.0944
 2862SOL    MW411523   3.178   4.015   4.714  0.2646  0.5250  0.4783
 2863SOL     OW11524   3.803   1.339   4.522 -0.1265 -0.0991 -0.0156
 2863SOL    HW211525   3.871   1.274   4.537  0.0975  0.5769  2.0389
 2863SOL    HW311526   3.723   1.298   4.556 -0.0295  0.5885  1.0606
 2863SOL    MW411527   3.801   1.325   4.528 -0.0839  0.0808  0.3967
 2864SOL     OW11528   3.247   0.766   4.562 -0.1520  0.1748  0.2111
 2864SOL    HW211529   3.225   0.778   4.470 -0.2264  1.1388  0.3444
 2864SOL    HW311530   3.235   0.853   4.601  2.0442  0.3015  0.6688
 2864SOL    MW411531   3.243   0.779   4.555  0.1278  0.3188  0.2890
 2865SOL     OW11532   0.373   1.508   4.467  0.3711 -0.0695  0.1446
 2865SOL    HW211533   0.430   1.535   4.395 -1.1332  0.3451 -0.9285
 2865SOL    HW311534   0.313   1.582   4.479 -1.2263 -1.2887 -0.1236
 2865SOL    MW411535   0.372   1.521   4.459 -0.0381 -0.1756 -0.0324
 2866SOL     OW11536   3.020   2.800   4.503  0.3332  0.2386  0.3976
 2866SOL    HW211537   3.070   2.731   4.547  0.6712  0.3188  0.1433
 2866SOL    HW311538   2.973   2.845   4.573 -0.6725 -0.8908  0.4552
 2866SOL    MW411539   3.020   2.797   4.518  0.2453  0.1001  0.3710
 2867SOL     OW11540   0.064   4.186   4.496  0.4232  0.1274 -0.3960
 2867SOL    HW211541   0.053   4.159   4.405  1.9818  0.0903 -0.5993
 2867SOL    HW311542   0.073   4.104   4.545 -0.4833  0.1446 -0.1939
 2867SOL    MW411543   0.064   4.172   4.491  0.5092  0.1245 -0.3958
 2868SOL     OW11544   3.073   0.561   4.633  0.1291  0.4134 -0.3346
 2868SOL    HW211545   3.138   0.624   4.601  0.4319 -0.0313 -0.6260
 2868SOL    HW311546   3.081   0.564   4.728 -0.4812  1.4485 -0.3150
 2868SOL    MW411547   3.083   0.570   4.641  0.0887  0.4913 -0.3710
 2869SOL     OW11548   0.216   1.319   4.210  0.2453  0.3670 -0.1615
 2869SOL    HW211549   0.244   1.294   4.298  0.6801 -0.7694 -0.6188
 2869SOL    HW311550   0.271   1.267   4.152  0.7081  1.9105 -1.1195
 2869SOL    MW411551   0.227   1.309   4.214  0.3637  0.4206 -0.3486
 2870SOL     OW11552   1.159   1.331   4.555 -0.3210 -0.0669  0.1632
 2870SOL    HW211553   1.087   1.293   4.605 -1.2594  1.5253  0.0541
 2870SOL    HW311554   1.140   1.308   4.464 -0.3404 -0.1992  0.2006
 2870SOL    MW411555   1.147   1.323   4.550 -0.4473  0.1258  0.1535
 2871SOL     OW11556   3.772   2.002   4.508  0.1430  0.2066  0.4604
 2871SOL    HW211557   3.864   2.000   4.532  0.1568 -0.4567  0.3638
 2871SOL    HW311558   3.739   1.914   4.531 -0.1661  0.0262 -0.6567
 2871SOL    MW411559   3.780   1.990   4.514  0.1040  0.0951  0.2999
 2872SOL     OW11560   0.724   1.979   4.528  0.1188  0.4445 -0.4190
 2872SOL    HW211561   0.742   1.885   4.517 -2.6361 -0.1393 -0.3508
 2872SOL    HW311562   0.810   2.019   4.534  1.3624 -2.1220 -0.2093
 2872SOL    MW411563   0.737   1.972   4.528 -0.0806  0.0288 -0.3824
 2873SOL     OW11564   2.539   4.150   4.555 -0.2261 -0.3444 -0.1044
 2873SOL    HW211565   2.559   4.243   4.544 -1.1537 -0.1663 -0.3537
 2873SOL    HW311566   2.444   4.145   4.545 -0.2593 -1.2239  0.5894
 2873SOL    MW411567   2.529   4.162   4.552 -0.3529 -0.4373 -0.0458
 2874SOL     OW11568   1.265   2.041   4.554  0.2497  0.4349  0.1057
 2874SOL    HW211569   1.348   1.993   4.548  0.5193  1.0335 -1.1731
 2874SOL    HW311570   1.287   2.129   4.525 -0.3939  1.1656  1.7637
 2874SOL    MW411571   1.279   2.046   4.550  0.2003  0.6106  0.1554
 2875SOL     OW11572   0.014   1.922   4.159 -0.0038 -0.1581  0.5233
 2875SOL    HW211573   0.011   1.829   4.181  2.6747 -0.5151 -0.4853
 2875SOL    HW311574   0.087   1.957   4.209 -0.1133  1.1077 -0.1709
 2875SOL    MW411575   0.023   1.914   4.168  0.3352 -0.0383  0.2985
 2876SOL     OW11576   4.273   1.345   4.537  0.3074 -0.2477  0.1116
 2876SOL    HW211577   4.357   1.300   4.527 -0.9063 -2.4645 -0.3328
 2876SOL    HW311578   4.211   1.276   4.561 -1.2886  1.4472  0.9797
 2876SOL    MW411579   4.276   1.330   4.539 -0.0634 -0.3166  0.1674
 2877SOL     OW11580   3.641   2.475   4.538  0.3082  0.2077  0.2969
 2877SOL    HW211581   3.632   2.502   4.447 -0.8625  1.9415  0.9014
 2877SOL    HW311582   3.611   2.384   4.539  0.5658  0.0932 -1.0859
 2877SOL    MW411583   3.636   2.467   4.526  0.1876  0.4213  0.1941
 2878SOL     OW11584   3.800   2.084   4.220 -0.2454 -0.4868 -0.5256
 2878SOL    HW211585   3.794   2.064   4.313 -0.4581  2.3623  0.0956
 2878SOL    HW311586   3.887   2.055   4.194  0.3322  0.0114  0.8605
 2878SOL    MW411587   3.810   2.077   4.229 -0.1969 -0.0451 -0.2604
 2879SOL     OW11588   0.304   2.846   4.489 -0.4626  0.2388 -0.4641
 2879SOL    HW211589   0.313   2.751   4.491 -0.0113  0.3009  0.3955
 2879SOL    HW311590   0.276   2.865   4.399  0.0878 -0.6410 -0.8268
 2879SOL    MW411591   0.301   2.836   4.477 -0.3304  0.1309 -0.3996
 2880SOL     OW11592   0.036   3.266   4.207  0.3763  0.2465  0.0983
 2880SOL    HW211593  -0.042   3.223   4.170  0.1490 -0.1453  1.0344
 2880SOL    HW311594   0.031   3.355   4.173  0.4655 -0.2571 -1.2832
 2880SOL    MW411595   0.025   3.272   4.197  0.3580  0.1285  0.0391
 2881SOL     OW11596   1.085   4.636   4.376  0.1604 -0.1098 -0.1708
 2881SOL    HW211597   1.068   4.601   4.463  0.3909 -0.4464 -0.2582
 2881SOL    HW311598   1.096   4.559   4.320  0.3451  0.0994 -0.4307
 2881SOL    MW411599   1.084   4.621   4.380  0.2152 -0.1268 -0.2165
 2882SOL     OW11600   3.894   3.228   4.727  0.2639  0.6106  0.3234
 2882SOL    HW211601   3.875   3.301   4.668  1.5014 -0.9435 -2.0720
 2882SOL    HW311602   3.818   3.170   4.720 -0.5954  1.4869  2.0140
 2882SOL    MW411603   3.881   3.230   4.718  0.3138  0.5212  0.2303
 2883SOL     OW11604   3.514   0.669   4.531 -0.6014 -0.1824 -0.1401
 2883SOL    HW211605   3.495   0.631   4.445 -1.2677 -0.6852  0.2258
 2883SOL    HW311606   3.429   0.703   4.561 -0.2605  0.4744  0.0865
 2883SOL    MW411607   3.500   0.669   4.523 -0.6444 -0.1621 -0.0620
 2884SOL     OW11608   3.799   3.722   4.488 -0.5573 -0.2941  0.3382
 2884SOL    HW211609   3.883   3.763   4.505 -1.1766  1.0279  0.2547
 2884SOL    HW311610   3.804   3.696   4.396 -0.0630 -0.6709  0.4653
 2884SOL    MW411611   3.811   3.724   4.478 -0.5736 -0.1693  0.3438
 2885SOL     OW11612   0.164   0.802   4.142 -0.3433  0.0217 -0.1007
 2885SOL    HW211613   0.154   0.707   4.153  0.3669 -0.2371 -1.6014
 2885SOL    HW311614   0.118   0.840   4.217 -1.3293 -1.4869  0.0689
 2885SOL    MW411615   0.157   0.794   4.153 -0.3797 -0.2115 -0.2761
 2886SOL     OW11616   4.265   4.414   4.230  0.0799 -0.3755  0.0027
 2886SOL    HW211617   4.351   4.381   4.204  0.8952  1.2186  0.5924
 2886SOL    HW311618   4.278   4.446   4.319 -1.4175 -1.1407  0.4965
 2886SOL    MW411619   4.278   4.414   4.238 -0.0110 -0.2661  0.1454
 2887NA      NA11620   0.420   3.524   0.597  0.3772  0.1656 -0.2004
 2888NA      NA11621   3.130   0.783   0.734 -0.3368  0.2142  0.0962
 2889NA      NA11622   2.150   2.627   0.491  0.4437  0.4291 -0.1569
   4.49070   4.66690  10.00000
