Gromacs Runs On Most of All Computer Systems in water
11558
    1RG35     P    1   2.232   2.420   4.413 -0.2265  0.0081 -0.1953
    1RG35   O1P    2   2.348   2.486   4.482  0.0958 -0.6953 -0.0226
    1RG35   O2P    3   2.208   2.283   4.453  0.0040  0.1006  0.4966
    1RG35   O5'    4   2.112   2.498   4.484 -0.2079 -0.2217 -0.2126
    1RG35   C5'    5   2.084   2.632   4.457 -0.3227  0.6110  0.0590
    1RG35  H5'1    6   2.048   2.652   4.356  1.0940 -1.1719 -0.8197
    1RG35  H5'2    7   2.178   2.683   4.475  0.0346  0.0320 -0.1575
    1RG35   C4'    8   1.973   2.691   4.546  0.1911  0.0038  0.0298
    1RG35   H4'    9   1.972   2.799   4.531  0.3602 -0.0267 -0.2038
    1RG35   O4'   10   1.848   2.642   4.510 -0.0116  0.2004  0.0888
    1RG35   C1'   11   1.761   2.674   4.616 -0.2775 -0.2930 -0.4018
    1RG35   H1'   12   1.716   2.772   4.597 -0.3458 -0.2104  0.1661
    1RG35    N9   13   1.652   2.567   4.630  0.2506  0.0598  0.0074
    1RG35    C8   14   1.528   2.570   4.571 -0.5055  0.2002  0.1434
    1RG35    H8   15   1.500   2.649   4.503  0.4572  0.1297 -0.3496
    1RG35    N7   16   1.460   2.461   4.583 -0.5016 -0.0994 -0.4327
    1RG35    C5   17   1.545   2.376   4.660 -0.4752  0.1924  0.3335
    1RG35    C6   18   1.533   2.244   4.706 -0.1482  0.0586  0.4226
    1RG35    O6   19   1.438   2.167   4.699 -0.5767  0.2649  0.2374
    1RG35    N1   20   1.644   2.193   4.763 -0.1233 -0.1181  0.6431
    1RG35    H1   21   1.638   2.101   4.806  0.9694 -0.8340 -0.6842
    1RG35    C2   22   1.760   2.264   4.778  0.5510  0.3610  0.5122
    1RG35    N2   23   1.862   2.195   4.822 -0.2375  0.1039  0.4325
    1RG35   H21   24   1.845   2.102   4.856 -0.1900 -0.2940 -0.6054
    1RG35   H22   25   1.953   2.240   4.827  0.6799 -1.3869 -1.7642
    1RG35    N3   26   1.780   2.387   4.737  0.0418 -0.0403  0.6668
    1RG35    C4   27   1.664   2.440   4.679 -0.6583  0.0821  0.4145
    1RG35   C3'   28   1.990   2.648   4.694  0.1570  0.1473 -0.0089
    1RG35   H3'   29   1.998   2.539   4.693 -2.9486 -0.1457 -0.9296
    1RG35   C2'   30   1.850   2.690   4.743 -0.0638 -0.1794 -0.2732
    1RG35  H2'1   31   1.823   2.633   4.832 -0.8333  2.3069  1.1204
    1RG35   O2'   32   1.859   2.831   4.773 -0.1269 -0.0142  0.1214
    1RG35  HO'2   33   1.948   2.832   4.810 -0.0260 -2.4279  0.0603
    1RG35   O3'   34   2.094   2.704   4.769  0.3920  0.2703 -0.1657
    1RG35   H3T   35   2.167   2.642   4.766  1.9047  1.8226  2.6022
    1RG35   O3P   36   2.221   2.449   4.269 -0.2631  0.1504 -0.2198
    1SOL     OW   37   2.273   1.669   0.422  0.1865  0.0325 -0.4285
    1SOL    HW2   38   2.262   1.580   0.387 -0.0718  0.0506 -0.3954
    1SOL    HW3   39   2.256   1.660   0.516  1.6213 -0.1555 -0.1747
    1SOL    MW4   40   2.269   1.656   0.430  0.3419  0.0101 -0.3906
    1SOL     OW   41   4.269   3.598   0.726  0.0485 -0.5421  0.2198
    1SOL    HW2   42   4.256   3.682   0.770 -0.3022 -0.0544 -0.7912
    1SOL    HW3   43   4.192   3.547   0.750 -1.2124  0.4822 -1.5247
    1SOL    MW4   44   4.257   3.603   0.735 -0.1640 -0.3426 -0.1438
    1SOL     OW   45   3.104   0.657   0.548 -0.3762 -0.2926 -0.3409
    1SOL    HW2   46   3.068   0.590   0.607  2.5385 -0.2817  1.5853
    1SOL    HW3   47   3.124   0.731   0.606  0.9586  0.3772 -1.6312
    1SOL    MW4   48   3.102   0.658   0.564  0.1845 -0.2028 -0.2570
    1SOL     OW   49   2.228   2.826   0.354  0.0310  0.0454  0.1247
    1SOL    HW2   50   2.211   2.732   0.345  0.4353  0.0567 -0.7852
    1SOL    HW3   51   2.322   2.833   0.367  0.3984  0.4875 -2.4978
    1SOL    MW4   52   2.238   2.814   0.354  0.1328  0.1056 -0.3414
    1SOL     OW   53   0.172   3.438   0.295 -0.3359  0.1722  0.2066
    1SOL    HW2   54   0.085   3.402   0.276 -1.0833  1.3757  1.2353
    1SOL    HW3   55   0.157   3.502   0.365  1.3844  0.3986  0.4034
    1SOL    MW4   56   0.159   3.442   0.302 -0.2076  0.3607  0.3683
    1SOL     OW   57   4.465   2.472   0.773  0.0776 -0.5091  0.2666
    1SOL    HW2   58   4.471   2.477   0.677  1.9524 -0.8403  0.3460
    1SOL    HW3   59   4.479   2.562   0.803 -0.6144 -0.3870  0.2300
    1SOL    MW4   60   4.468   2.485   0.764  0.2341 -0.5367  0.2723
    1SOL     OW   61   1.302   0.128   0.380  0.2083 -0.1226  0.0524
    1SOL    HW2   62   1.325   0.155   0.469  0.7529  0.9642 -0.4076
    1SOL    HW3   63   1.376   0.158   0.327  0.9818 -2.7688 -0.4509
    1SOL    MW4   64   1.315   0.135   0.385  0.3823 -0.3283 -0.0747
    1SOL     OW   65   4.295   0.340   0.520 -0.4425 -0.2623 -0.1930
    1SOL    HW2   66   4.270   0.289   0.598  2.0263 -1.1570  0.0624
    1SOL    HW3   67   4.264   0.287   0.447  0.1532 -1.0730  0.1267
    1SOL    MW4   68   4.287   0.326   0.521 -0.0377 -0.4873 -0.1171
    1SOL     OW   69   2.724   1.768   0.308  0.0801  0.0007 -0.4588
    1SOL    HW2   70   2.631   1.787   0.307  0.0170 -0.3039 -0.2926
    1SOL    HW3   71   2.738   1.713   0.230  0.1797  0.3203 -0.6693
    1SOL    MW4   72   2.714   1.763   0.297  0.0849  0.0027 -0.4646
    1SOL     OW   73   2.226   0.106   0.751 -0.1591  0.1583  0.4115
    1SOL    HW2   74   2.309   0.072   0.782  0.1595  0.6569  0.1151
    1SOL    HW3   75   2.229   0.094   0.656 -0.0848  0.9085  0.3141
    1SOL    MW4   76   2.237   0.100   0.742 -0.1073  0.3230  0.3595
    1SOL     OW   77   4.050   1.159   0.788 -0.3895 -0.8784 -0.2583
    1SOL    HW2   78   4.036   1.152   0.883 -0.0143 -1.4265 -0.2358
    1SOL    HW3   79   3.975   1.208   0.756  0.0414  0.2922  0.4805
    1SOL    MW4   80   4.039   1.165   0.797 -0.2832 -0.7963 -0.1578
    1SOL     OW   81   0.450   2.441   0.731  0.4209 -0.3276 -0.3424
    1SOL    HW2   82   0.448   2.417   0.639 -2.7365 -0.0223 -0.4010
    1SOL    HW3   83   0.373   2.399   0.769 -0.4522  2.6369  1.3468
    1SOL    MW4   84   0.440   2.432   0.724 -0.1109  0.1037 -0.1272
    1SOL     OW   85   3.979   0.741   0.508  0.1907 -0.2645  0.3969
    1SOL    HW2   86   4.005   0.799   0.580 -0.1766  1.0918 -0.5383
    1SOL    HW3   87   4.061   0.707   0.473  0.4331  0.0396  0.6724
    1SOL    MW4   88   3.993   0.744   0.513  0.1743 -0.0454  0.3098
    1SOL     OW   89   4.012   1.908   0.802 -0.2527 -0.0028 -0.0490
    1SOL    HW2   90   4.015   1.816   0.775 -0.0270  0.2310 -0.8384
    1SOL    HW3   91   4.033   1.906   0.895  1.3186 -0.6141 -0.3979
    1SOL    MW4   92   4.015   1.895   0.810 -0.0153 -0.0526 -0.1992
    1SOL     OW   93   3.937   3.220   0.439  0.3269  0.2259  0.2265
    1SOL    HW2   94   4.016   3.198   0.390  0.7435 -0.0856  1.0322
    1SOL    HW3   95   3.925   3.314   0.425 -0.0104 -0.0019 -1.1146
    1SOL    MW4   96   3.946   3.230   0.431  0.3371  0.1547  0.1559
    1SOL     OW   97   0.828   0.853   0.497 -0.0733  1.0926 -0.4465
    1SOL    HW2   98   0.812   0.763   0.468 -0.6518  1.3017 -0.7879
    1SOL    HW3   99   0.744   0.897   0.485  0.2419  1.7093 -0.3976
    1SOL    MW4  100   0.815   0.847   0.492 -0.1081  1.2015 -0.4851
    1SOL     OW  101   3.090   4.289   0.418  0.0335  0.3102  0.2476
    1SOL    HW2  102   3.146   4.363   0.440 -0.7879  0.7382  0.9366
    1SOL    HW3  103   3.003   4.327   0.405 -0.5854 -0.6365  1.4932
    1SOL    MW4  104   3.086   4.303   0.419 -0.1564  0.2413  0.5028
    1SOL     OW  105   2.062   0.237   0.340 -0.4831  0.2956 -0.0878
    1SOL    HW2  106   2.081   0.247   0.247 -2.0642 -0.7165 -0.5361
    1SOL    HW3  107   2.040   0.325   0.370 -1.5929  0.3477 -1.0423
    1SOL    MW4  108   2.062   0.250   0.332 -0.8383  0.1690 -0.2729
    1SOL     OW  109   2.456   2.143   0.074  0.1008 -0.2847  0.3527
    1SOL    HW2  110   2.436   2.236   0.074 -0.7183 -0.4446 -0.4161
    1SOL    HW3  111   2.528   2.133   0.136  2.4211  1.3415 -1.9337
    1SOL    MW4  112   2.463   2.154   0.082  0.2987 -0.0916 -0.0504
    1SOL     OW  113   0.244   0.658   0.828 -0.0794 -0.4396  0.2051
    1SOL    HW2  114   0.249   0.689   0.919  0.1928  0.2159 -0.0378
    1SOL    HW3  115   0.335   0.640   0.804 -0.3838 -3.4253  1.0325
    1SOL    MW4  116   0.256   0.660   0.837 -0.0837 -0.7470  0.2822
    1SOL     OW  117   2.756   2.207   0.460 -0.5763 -0.4495 -0.1597
    1SOL    HW2  118   2.802   2.233   0.540 -1.3577  1.0711 -0.1846
    1SOL    HW3  119   2.793   2.122   0.438 -0.0739 -0.7165  1.6031
    1SOL    MW4  120   2.767   2.199   0.468 -0.6130 -0.2842  0.0696
    1SOL     OW  121   0.629   0.249   0.491 -0.4374  0.2407 -0.3095
    1SOL    HW2  122   0.626   0.325   0.432  3.1723 -0.0485 -0.9787
    1SOL    HW3  123   0.639   0.287   0.578 -2.4821  0.5815 -0.1944
    1SOL    MW4  124   0.630   0.264   0.494 -0.2309  0.2475 -0.3826
    1SOL     OW  125   3.813   1.283   0.704  0.3400  0.1524  0.1026
    1SOL    HW2  126   3.780   1.295   0.615 -0.1984 -2.1253 -0.0258
    1SOL    HW3  127   3.752   1.222   0.744  1.8811 -0.6182  1.3081
    1SOL    MW4  128   3.801   1.277   0.697  0.4723 -0.2497  0.2447
    1SOL     OW  129   0.448   4.007   0.746 -0.3265 -0.3068 -0.3687
    1SOL    HW2  130   0.404   4.012   0.661 -0.0078  0.1176 -0.5106
    1SOL    HW3  131   0.426   4.089   0.789  1.0032  0.2706 -0.7750
    1SOL    MW4  132   0.439   4.018   0.740 -0.1090 -0.1745 -0.4410
    1SOL     OW  133   0.151   0.007   0.867  0.0891  0.7375  0.1908
    1SOL    HW2  134   0.055   0.005   0.869  0.0842 -1.0149 -0.9817
    1SOL    HW3  135   0.172   0.063   0.792 -0.0276 -0.0792 -0.4539
    1SOL    MW4  136   0.141   0.014   0.857  0.0731  0.3985 -0.0490
    1SOL     OW  137   0.146   1.486   0.366 -0.1001  0.3912  0.2102
    1SOL    HW2  138   0.236   1.460   0.386 -0.2241 -0.5532 -0.4087
    1SOL    HW3  139   0.093   1.441   0.432 -0.2515 -0.4021 -0.4322
    1SOL    MW4  140   0.151   1.476   0.377 -0.1364  0.1619  0.0438
    1SOL     OW  141   2.031   2.309   0.888 -0.2627  0.5049 -0.5736
    1SOL    HW2  142   1.999   2.291   0.976  0.2973  0.0955 -0.4523
    1SOL    HW3  143   1.969   2.373   0.852 -0.4222  0.7574  0.1560
    1SOL    MW4  144   2.019   2.315   0.895 -0.2098  0.4842 -0.4613
    1SOL     OW  145   4.266   4.374   0.478 -0.0761  0.4965 -0.1438
    1SOL    HW2  146   4.270   4.375   0.574 -0.9161 -0.0528 -0.0957
    1SOL    HW3  147   4.357   4.373   0.450  0.1831  1.3524  0.6383
    1SOL    MW4  148   4.278   4.374   0.487 -0.1526  0.5369 -0.0343
    1SOL     OW  149   0.955   3.738   0.307  0.2434 -0.0888  0.3836
    1SOL    HW2  150   0.919   3.818   0.343 -0.7903 -0.3077 -0.1679
    1SOL    HW3  151   1.047   3.738   0.336 -0.3214  0.1769  2.2650
    1SOL    MW4  152   0.963   3.748   0.316  0.0324 -0.0827  0.5591
    1SOL     OW  153   1.560   2.367   0.865 -0.3254 -0.5666  0.1489
    1SOL    HW2  154   1.481   2.403   0.825  1.2904  1.9743 -0.8233
    1SOL    HW3  155   1.551   2.272   0.854 -2.8312 -0.2651 -0.6718
    1SOL    MW4  156   1.548   2.359   0.859 -0.4427 -0.1915 -0.0876
    1SOL     OW  157   2.034   3.143   0.863 -0.0051  0.0766 -0.0695
    1SOL    HW2  158   2.021   3.053   0.835  0.3622  0.0586 -0.1877
    1SOL    HW3  159   1.959   3.191   0.828  0.0755 -0.0831 -0.4585
    1SOL    MW4  160   2.022   3.138   0.855  0.0539  0.0534 -0.1364
    1SOL     OW  161   2.174   3.042   0.151 -0.0356  0.1895  0.4105
    1SOL    HW2  162   2.191   2.963   0.201  1.1651  0.3314  0.2434
    1SOL    HW3  163   2.259   3.068   0.116 -0.7782  0.3120 -1.3891
    1SOL    MW4  164   2.187   3.035   0.153  0.0248  0.2244  0.1510
    1SOL     OW  165   0.229   0.195   0.662 -0.4654 -0.5983  0.1430
    1SOL    HW2  166   0.267   0.174   0.577  0.0386  0.5152  0.0803
    1SOL    HW3  167   0.165   0.265   0.642 -0.8667 -0.8419  0.5752
    1SOL    MW4  168   0.225   0.202   0.648 -0.4519 -0.4835  0.1917
    1SOL     OW  169   1.879   3.041   0.125  0.1334 -0.1379 -0.0107
    1SOL    HW2  170   1.866   2.976   0.195 -0.0833 -1.1786 -1.0018
    1SOL    HW3  171   1.974   3.050   0.118  0.1519  0.2543  0.6691
    1SOL    MW4  172   1.889   3.034   0.133  0.1073 -0.2236 -0.0518
    1SOL     OW  173   2.866   4.444   0.450 -0.1495  0.3775  0.1768
    1SOL    HW2  174   2.887   4.536   0.436  0.2081  0.3610  0.5849
    1SOL    HW3  175   2.892   4.427   0.541 -1.5916  0.2617  0.5805
    1SOL    MW4  176   2.872   4.454   0.460 -0.2928  0.3600  0.2839
    1SOL     OW  177   0.453   1.442   0.493 -0.0264  0.1618 -0.0679
    1SOL    HW2  178   0.456   1.538   0.491  1.1381  0.1666  0.9050
    1SOL    HW3  179   0.385   1.421   0.556  1.9308  0.4040  2.2125
    1SOL    MW4  180   0.445   1.452   0.501  0.3854  0.1943  0.3614
    1SOL     OW  181   3.388   0.770   0.847 -0.1281  0.0446  0.1574
    1SOL    HW2  182   3.379   0.678   0.820 -0.9676  0.5431 -1.3000
    1SOL    HW3  183   3.467   0.801   0.801 -0.2507  0.2576  0.0912
    1SOL    MW4  184   3.398   0.762   0.837 -0.2553  0.1384 -0.0436
    1SOL     OW  185   1.827   3.253   0.724  0.1970  0.2466  0.7097
    1SOL    HW2  186   1.832   3.281   0.633 -0.8406  2.0411  1.1870
    1SOL    HW3  187   1.749   3.197   0.727  0.9717 -0.8864  0.2444
    1SOL    MW4  188   1.818   3.249   0.712  0.1622  0.3340  0.7113
    1SOL     OW  189   2.032   2.891   0.775  0.2898 -0.0739  0.2476
    1SOL    HW2  190   2.027   2.904   0.680 -0.3822 -1.2497  0.1084
    1SOL    HW3  191   2.112   2.840   0.788  0.2336 -0.1535  0.2815
    1SOL    MW4  192   2.042   2.886   0.764  0.1938 -0.2396  0.2337
    1SOL     OW  193   2.024   1.763   0.346  0.4921  0.2853  0.5532
    1SOL    HW2  194   2.108   1.727   0.376  1.1950  1.3829 -0.0545
    1SOL    HW3  195   2.033   1.858   0.359 -0.2053  0.5221 -0.6573
    1SOL    MW4  196   2.036   1.771   0.352  0.4928  0.4613  0.3133
    1SOL     OW  197   3.582   1.907   0.876 -0.0106  0.1157 -0.2914
    1SOL    HW2  198   3.650   1.956   0.832  1.3199  0.3475  1.9285
    1SOL    HW3  199   3.589   1.818   0.842  1.6881  0.0502  0.2127
    1SOL    MW4  200   3.592   1.901   0.866  0.3891  0.1378  0.0680
    1SOL     OW  201   0.204   2.801   0.708 -0.1677  0.0463 -0.4164
    1SOL    HW2  202   0.255   2.740   0.760  1.8543 -0.1723 -2.5667
    1SOL    HW3  203   0.216   2.886   0.751  1.1406 -0.1984 -0.2930
    1SOL    MW4  204   0.212   2.804   0.720  0.2717 -0.0148 -0.6838
    1SOL     OW  205   1.539   4.501   0.576  0.0820  0.1806 -0.1287
    1SOL    HW2  206   1.479   4.498   0.501  0.2977 -0.4529 -0.2782
    1SOL    HW3  207   1.626   4.497   0.537  0.2389  1.6147  0.0642
    1SOL    MW4  208   1.543   4.500   0.561  0.1311  0.2866 -0.1230
    1SOL     OW  209   4.182   2.725   0.437 -0.5244 -0.0482 -0.0454
    1SOL    HW2  210   4.194   2.630   0.435 -0.9363 -0.0864 -0.6044
    1SOL    HW3  211   4.134   2.741   0.519 -2.0505 -0.5051 -0.8402
    1SOL    MW4  212   4.177   2.714   0.448 -0.7796 -0.1137 -0.2240
    1SOL     OW  213   2.483   2.024   0.728  0.3190  0.2493 -0.1360
    1SOL    HW2  214   2.481   2.043   0.634  1.6796 -0.1220 -0.2649
    1SOL    HW3  215   2.480   2.109   0.771 -4.9712  0.3027 -0.3392
    1SOL    MW4  216   2.483   2.038   0.721 -0.1996  0.2072 -0.1799
    1SOL     OW  217   2.904   3.055   0.819  0.1571  0.0498 -0.3040
    1SOL    HW2  218   2.831   3.100   0.777 -1.6819 -1.7733  0.8546
    1SOL    HW3  219   2.907   2.969   0.778 -1.4171 -1.6333  2.8839
    1SOL    MW4  220   2.895   3.050   0.808 -0.2930 -0.4129  0.2694
    1SOL     OW  221   0.899   4.227   0.797 -0.2230  0.5069 -0.0872
    1SOL    HW2  222   0.896   4.143   0.751  0.3391 -0.1903  1.1275
    1SOL    HW3  223   0.972   4.274   0.758 -0.5783  0.4629 -0.8117
    1SOL    MW4  224   0.908   4.222   0.786 -0.1957  0.4086 -0.0225
    1SOL     OW  225   2.770   1.569   0.524  0.0008 -0.2002 -0.0447
    1SOL    HW2  226   2.865   1.576   0.523 -0.0577  1.2158  1.0898
    1SOL    HW3  227   2.740   1.639   0.466 -0.3410 -0.7747 -0.5635
    1SOL    MW4  228   2.779   1.579   0.516 -0.0520 -0.0892  0.0365
    1SOL     OW  229   1.382   3.567   0.570 -0.0148 -0.0572 -0.1092
    1SOL    HW2  230   1.323   3.631   0.530  0.7350 -0.2190 -1.5212
    1SOL    HW3  231   1.464   3.615   0.582 -0.0648 -0.1774  0.7173
    1SOL    MW4  232   1.385   3.582   0.566  0.0774 -0.0942 -0.1864
    1SOL     OW  233   1.993   4.314   0.519  0.2491  0.2653 -0.0838
    1SOL    HW2  234   2.072   4.312   0.463 -1.3570  0.9683 -2.4500
    1SOL    HW3  235   1.949   4.231   0.500 -0.5985  0.7644 -0.2721
    1SOL    MW4  236   1.998   4.303   0.509 -0.0746  0.4234 -0.4209
    1SOL     OW  237   0.351   4.015   0.493 -0.0876 -0.2345 -0.1334
    1SOL    HW2  238   0.371   4.109   0.496  0.1227 -0.3183  1.2242
    1SOL    HW3  239   0.434   3.975   0.466  0.4170 -0.2040  1.3268
    1SOL    MW4  240   0.365   4.022   0.489  0.0067 -0.2408  0.2384
    1SOL     OW  241   0.517   2.406   0.444  0.2234  0.0636 -0.8532
    1SOL    HW2  242   0.467   2.478   0.405  1.6970  0.7440 -1.5388
    1SOL    HW3  243   0.484   2.327   0.401 -1.6645  0.2653  0.1722
    1SOL    MW4  244   0.506   2.405   0.433  0.1687  0.1802 -0.8084
    1SOL     OW  245   1.318   0.888   0.483  0.2870 -0.0317 -0.1719
    1SOL    HW2  246   1.324   0.793   0.471 -1.4834 -0.0452 -1.2378
    1SOL    HW3  247   1.319   0.900   0.578  0.8605 -1.0880 -0.0363
    1SOL    MW4  248   1.319   0.877   0.494  0.1290 -0.1729 -0.2947
    1SOL     OW  249   0.246   3.831   0.834  0.2719 -0.1419 -0.1447
    1SOL    HW2  250   0.260   3.829   0.928 -0.9887 -1.1253  0.0318
    1SOL    HW3  251   0.322   3.878   0.799  0.5307  0.5861  1.3869
    1SOL    MW4  252   0.258   3.837   0.842  0.1397 -0.1760  0.0808
    1SOL     OW  253   2.280   0.881   0.436  0.3554 -0.1190 -0.4331
    1SOL    HW2  254   2.362   0.931   0.429  0.3251  0.0759  0.5568
    1SOL    HW3  255   2.215   0.937   0.392  0.6783 -0.1207 -0.9260
    1SOL    MW4  256   2.282   0.895   0.429  0.3939 -0.0935 -0.3675
    1SOL     OW  257   0.532   0.682   0.498  0.3816 -0.1104  0.3537
    1SOL    HW2  258   0.535   0.771   0.464 -1.2641  0.3389  1.3687
    1SOL    HW3  259   0.440   0.656   0.492  0.7855 -1.6310  0.3710
    1SOL    MW4  260   0.521   0.690   0.493  0.2178 -0.2517  0.4899
    1SOL     OW  261   2.922   3.956   0.394  0.3579 -0.0975  0.1289
    1SOL    HW2  262   2.833   3.989   0.407  0.5865  1.1641 -1.4963
    1SOL    HW3  263   2.914   3.861   0.408 -1.0843  0.1005  0.7268
    1SOL    MW4  264   2.909   3.948   0.398  0.1981  0.0951 -0.0066
    1SOL     OW  265   1.341   1.393   0.396  0.0455  0.0498 -0.0162
    1SOL    HW2  266   1.288   1.355   0.466  0.6454  0.7450  0.8116
    1SOL    HW3  267   1.426   1.351   0.404  0.3224  0.6276  0.0990
    1SOL    MW4  268   1.345   1.383   0.406  0.1612  0.2178  0.1082
    1SOL     OW  269   1.339   3.221   0.751  0.4061 -0.1154  0.2564
    1SOL    HW2  270   1.316   3.271   0.673  0.7988 -0.8684 -0.3458
    1SOL    HW3  271   1.259   3.175   0.775 -0.4137  2.0372  1.7552
    1SOL    MW4  272   1.326   3.221   0.744  0.3499  0.0691  0.3747
    1SOL     OW  273   4.471   0.715   0.513 -0.4806  0.3222  0.5087
    1SOL    HW2  274   4.549   0.702   0.459 -0.0901  0.2690  1.0774
    1SOL    HW3  275   4.499   0.779   0.578 -1.2326  1.1022  0.0662
    1SOL    MW4  276   4.485   0.722   0.514 -0.5283  0.4181  0.5254
    1SOL     OW  277   2.901   0.692   0.356  0.1045  0.5484  0.2332
    1SOL    HW2  278   2.934   0.685   0.266 -0.2395  0.6650  0.0945
    1SOL    HW3  279   2.977   0.679   0.411 -0.0323 -1.7165 -0.0407
    1SOL    MW4  280   2.915   0.689   0.351  0.0410  0.2650  0.1788
    1SOL     OW  281   1.093   3.082   0.814  0.0793 -0.2137 -0.2855
    1SOL    HW2  282   1.026   3.114   0.754 -0.5859 -1.3024 -0.1327
    1SOL    HW3  283   1.116   2.995   0.782  0.8741 -0.1593  0.1095
    1SOL    MW4  284   1.087   3.075   0.802  0.0964 -0.3502 -0.2132
    1SOL     OW  285   1.341   1.971   0.210 -0.0502 -0.0273 -0.1553
    1SOL    HW2  286   1.430   1.942   0.229  0.4120  1.9117  0.8147
    1SOL    HW3  287   1.341   1.990   0.116  0.7123  0.4322 -0.0686
    1SOL    MW4  288   1.353   1.970   0.200  0.1113  0.2892 -0.0159
    1SOL     OW  289   2.458   1.852   0.326  0.0853 -0.2340  0.5709
    1SOL    HW2  290   2.424   1.874   0.240 -0.3794  1.3314  1.1462
    1SOL    HW3  291   2.401   1.781   0.356 -0.3495 -0.1373 -0.0139
    1SOL    MW4  292   2.446   1.845   0.319 -0.0334 -0.0147  0.5697
    1SOL     OW  293   0.668   3.089   0.830  0.1197 -0.2152 -0.4813
    1SOL    HW2  294   0.585   3.131   0.810  0.3361 -0.1869 -1.3657
    1SOL    HW3  295   0.675   3.092   0.925  0.1533  1.7661 -0.5328
    1SOL    MW4  296   0.658   3.095   0.840  0.1526  0.0496 -0.6049
    1SOL     OW  297   0.848   3.501   0.383 -0.4083 -0.0226 -0.3232
    1SOL    HW2  298   0.899   3.566   0.336  0.5327 -0.5725 -0.0699
    1SOL    HW3  299   0.872   3.512   0.475 -0.7340 -0.2865 -0.2035
    1SOL    MW4  300   0.858   3.511   0.389 -0.3271 -0.1299 -0.2740
    1SOL     OW  301   1.144   3.210   0.265 -0.3891  0.4038  0.6381
    1SOL    HW2  302   1.203   3.177   0.197 -0.4722  1.1570  0.1999
    1SOL    HW3  303   1.200   3.222   0.342 -0.0426  0.7868  0.3267
    1SOL    MW4  304   1.159   3.207   0.266 -0.3543  0.5536  0.5392
    1SOL     OW  305   1.799   0.907   0.659 -0.5857  0.3037  0.0405
    1SOL    HW2  306   1.782   0.993   0.696 -2.0700  0.5254 -1.1578
    1SOL    HW3  307   1.877   0.877   0.706 -0.6703  1.8380  1.2160
    1SOL    MW4  308   1.807   0.914   0.670 -0.7926  0.5354  0.0375
    1SOL     OW  309   0.020   4.016   0.730  0.5747 -0.4449 -0.0476
    1SOL    HW2  310  -0.054   3.962   0.756  0.4867  0.9268  2.6575
    1SOL    HW3  311   0.097   3.968   0.760  0.4833  1.0030  2.6778
    1SOL    MW4  312   0.020   4.002   0.737  0.5510 -0.0730  0.6689
    1SOL     OW  313   3.346   4.632   0.868  0.3870 -0.0286 -0.0342
    1SOL    HW2  314   3.346   4.654   0.962  0.9229  1.4810 -0.3637
    1SOL    HW3  315   3.431   4.663   0.837  0.7276 -1.6422 -0.7852
    1SOL    MW4  316   3.357   4.639   0.877  0.5023 -0.0415 -0.1768
    1SOL     OW  317   0.098   2.217   0.427  0.0015  0.1932 -0.1579
    1SOL    HW2  318   0.018   2.178   0.460  1.9003 -2.3832  1.6430
    1SOL    HW3  319   0.162   2.145   0.426  2.3309  2.1694 -1.4041
    1SOL    MW4  320   0.096   2.202   0.431  0.5593  0.1142 -0.0847
    1SOL     OW  321   0.644   2.066   0.551  0.4429 -0.3949  0.1361
    1SOL    HW2  322   0.575   2.102   0.495  1.4553  0.2414 -0.7250
    1SOL    HW3  323   0.674   1.988   0.504  0.0116 -0.9270  0.7344
    1SOL    MW4  324   0.639   2.060   0.537  0.5196 -0.3810  0.1014
    1SOL     OW  325   2.442   4.392   0.776  0.0812  0.0235 -0.2390
    1SOL    HW2  326   2.369   4.334   0.798 -2.0325  2.7480  0.2823
    1SOL    HW3  327   2.432   4.408   0.682 -0.4068  0.9184 -0.0397
    1SOL    MW4  328   2.431   4.387   0.767 -0.2620  0.5012 -0.1439
    1SOL     OW  329   3.272   3.080   0.485 -0.0144 -0.0072 -0.4271
    1SOL    HW2  330   3.350   3.129   0.458  0.3956 -1.0339 -1.1345
    1SOL    HW3  331   3.303   2.990   0.496 -1.0467 -0.3671 -0.4211
    1SOL    MW4  332   3.286   3.075   0.483 -0.0963 -0.1905 -0.5196
    1SOL     OW  333   2.714   3.494   0.364 -0.1445  0.2958  0.3557
    1SOL    HW2  334   2.650   3.477   0.295  0.0929 -0.7241  0.3765
    1SOL    HW3  335   2.741   3.407   0.393  2.1045  0.7160 -0.4312
    1SOL    MW4  336   2.709   3.480   0.359  0.1836  0.2170  0.2546
    1SOL     OW  337   4.307   1.257   0.759  0.0259 -0.4945 -0.5705
    1SOL    HW2  338   4.367   1.194   0.800 -0.1232 -0.6210 -0.5461
    1SOL    HW3  339   4.226   1.208   0.748 -0.6111  0.2057  0.9887
    1SOL    MW4  340   4.305   1.242   0.763 -0.0777 -0.4188 -0.3616
    1SOL     OW  341   2.040   1.279   0.441  0.6347 -0.2772 -0.2436
    1SOL    HW2  342   1.962   1.318   0.402 -0.1705 -1.5369  0.0632
    1SOL    HW3  343   2.044   1.191   0.404  1.2521 -0.6271  0.6246
    1SOL    MW4  344   2.030   1.272   0.431  0.6099 -0.4896 -0.0886
    1SOL     OW  345   1.414   2.608   0.288 -0.0166  0.0889  0.2189
    1SOL    HW2  346   1.497   2.578   0.251 -1.4167 -0.9881 -2.1621
    1SOL    HW3  347   1.364   2.529   0.303 -1.3161  0.8446 -0.0603
    1SOL    MW4  348   1.418   2.594   0.285 -0.3728  0.0465 -0.1321
    1SOL     OW  349   0.353   3.135   0.476 -0.3227 -0.0219  0.2236
    1SOL    HW2  350   0.355   3.220   0.434  0.0722 -0.0762  0.1284
    1SOL    HW3  351   0.260   3.112   0.481 -0.4249  0.3924  0.2128
    1SOL    MW4  352   0.341   3.143   0.471 -0.2841  0.0255  0.2097
    1SOL     OW  353   0.566   2.995   0.356  0.0002  0.4089  0.2622
    1SOL    HW2  354   0.491   3.036   0.399  0.3940  0.0207  1.3512
    1SOL    HW3  355   0.598   3.061   0.294 -1.5134  0.3998 -0.5521
    1SOL    MW4  356   0.560   3.009   0.354 -0.1475  0.3564  0.2984
    1SOL     OW  357   2.464   2.837   0.757 -0.2180  0.0741 -0.0076
    1SOL    HW2  358   2.461   2.921   0.802  0.7486  0.6162 -0.9664
    1SOL    HW3  359   2.540   2.792   0.795 -0.1272  0.0411 -0.2294
    1SOL    MW4  360   2.473   2.842   0.768 -0.0784  0.1414 -0.1634
    1SOL     OW  361   3.742   4.277   0.372 -0.2166  0.5014 -0.0791
    1SOL    HW2  362   3.667   4.320   0.332 -0.5900 -0.1194 -0.0502
    1SOL    HW3  363   3.712   4.187   0.389  0.7344  0.0808 -0.6300
    1SOL    MW4  364   3.728   4.271   0.369 -0.1404  0.3638 -0.1480
    1SOL     OW  365   3.358   3.134   0.861 -0.0437  0.2914  0.0541
    1SOL    HW2  366   3.274   3.166   0.828 -0.5686 -1.9723 -0.9174
    1SOL    HW3  367   3.344   3.122   0.955 -1.4828 -1.9834 -0.4126
    1SOL    MW4  368   3.345   3.136   0.869 -0.3026 -0.3076 -0.1356
    1SOL     OW  369   2.783   1.588   0.109 -0.1477  0.2775 -0.3477
    1SOL    HW2  370   2.776   1.552   0.020  0.2615  0.2109 -0.3504
    1SOL    HW3  371   2.748   1.520   0.166 -0.2786  0.2643 -0.4428
    1SOL    MW4  372   2.777   1.574   0.104 -0.1106  0.2669 -0.3606
    1SOL     OW  373   4.272   2.069   0.729 -0.2772  0.4139 -0.0494
    1SOL    HW2  374   4.336   2.025   0.785 -0.7687 -0.0812  0.1331
    1SOL    HW3  375   4.195   2.012   0.731 -0.4446  0.5999 -0.9065
    1SOL    MW4  376   4.270   2.056   0.737 -0.3638  0.3731 -0.1384
    1SOL     OW  377   0.370   0.157   0.419  0.1837 -0.6852  0.1247
    1SOL    HW2  378   0.370   0.062   0.403 -0.5183 -1.1364  2.6570
    1SOL    HW3  379   0.459   0.176   0.450 -0.6519 -1.1257  2.8851
    1SOL    MW4  380   0.382   0.147   0.421 -0.0192 -0.8028  0.8230
    1SOL     OW  381   4.230   3.064   0.822 -0.1108  0.0611 -0.4727
    1SOL    HW2  382   4.156   3.103   0.777  0.6573  0.0994 -1.7240
    1SOL    HW3  383   4.305   3.116   0.795  0.4730 -0.3656  0.2805
    1SOL    MW4  384   4.231   3.076   0.813  0.0672  0.0098 -0.5384
    1SOL     OW  385   0.228   2.041   0.761  0.0098  0.0316  0.3956
    1SOL    HW2  386   0.313   2.015   0.796 -0.0479  0.3878  0.8072
    1SOL    HW3  387   0.222   2.135   0.779 -0.4448  0.0179  0.3256
    1SOL    MW4  388   0.238   2.050   0.768 -0.0578  0.0770  0.4407
    1SOL     OW  389   0.013   4.276   0.824 -0.1153  0.4952  0.2415
    1SOL    HW2  390   0.023   4.258   0.917  0.3380  0.4686  0.1889
    1SOL    HW3  391  -0.003   4.190   0.784 -0.6847  0.5536  0.3425
    1SOL    MW4  392   0.013   4.262   0.831 -0.1307  0.5002  0.2478
    1SOL     OW  393   2.026   2.948   0.514  0.3853 -0.0657 -0.3177
    1SOL    HW2  394   2.099   2.900   0.474 -0.8393 -1.4360 -0.9733
    1SOL    HW3  395   1.948   2.917   0.466 -0.8941 -0.2814  1.8429
    1SOL    MW4  396   2.025   2.938   0.502  0.0551 -0.2747 -0.1191
    1SOL     OW  397   2.957   1.991   0.688 -0.2798  0.2516 -0.2104
    1SOL    HW2  398   3.022   1.941   0.737 -0.1120 -0.7506 -1.4139
    1SOL    HW3  399   2.873   1.965   0.726 -0.0185  1.1510  0.9991
    1SOL    MW4  400   2.954   1.981   0.699 -0.2232  0.2379 -0.2096
    1SOL     OW  401   1.826   0.123   0.687  0.2586  0.0469 -0.0706
    1SOL    HW2  402   1.743   0.080   0.708  0.4256 -0.6640 -0.8310
    1SOL    HW3  403   1.892   0.072   0.736  0.1894  1.0008  1.0433
    1SOL    MW4  404   1.824   0.110   0.697  0.2714  0.0789 -0.0239
    1SOL     OW  405   2.418   4.491   0.523  0.1854 -0.7411 -0.5254
    1SOL    HW2  406   2.499   4.473   0.475  0.8309 -0.3133  0.3809
    1SOL    HW3  407   2.389   4.576   0.492  0.0253 -0.9485 -0.9373
    1SOL    MW4  408   2.425   4.500   0.513  0.2491 -0.7129 -0.4602
    1SOL     OW  409   1.577   2.079   0.791  0.2746 -0.2974  0.1593
    1SOL    HW2  410   1.572   2.067   0.696 -0.7995 -0.4975  0.2284
    1SOL    HW3  411   1.503   2.028   0.825  0.3946  0.1283  1.0602
    1SOL    MW4  412   1.566   2.071   0.783  0.1487 -0.2675  0.2873
    1SOL     OW  413   1.803   0.622   0.305  0.1265  0.0441  0.2151
    1SOL    HW2  414   1.881   0.581   0.341  0.2500 -0.5340 -0.6784
    1SOL    HW3  415   1.802   0.710   0.342  1.4056  0.1783 -0.0468
    1SOL    MW4  416   1.813   0.628   0.314  0.3115 -0.0144  0.0627
    1SOL     OW  417   1.802   3.775   0.457 -0.1437  0.3418 -0.2927
    1SOL    HW2  418   1.838   3.862   0.439  0.7288 -0.0540 -0.4780
    1SOL    HW3  419   1.877   3.715   0.447 -0.6866 -0.4022  0.0548
    1SOL    MW4  420   1.817   3.778   0.453 -0.1001  0.1915 -0.2713
    1SOL     OW  421   1.891   4.053   0.481  0.2203  0.1116 -0.4334
    1SOL    HW2  422   1.804   4.084   0.456  0.2208  0.2576 -0.2638
    1SOL    HW3  423   1.885   4.041   0.576 -0.0682 -1.3481 -0.6236
    1SOL    MW4  424   1.879   4.056   0.491  0.1822 -0.0620 -0.4361
    1SOL     OW  425   1.151   1.572   0.893  0.2044  0.1895 -0.1012
    1SOL    HW2  426   1.148   1.478   0.877  0.6820  0.2827 -0.7431
    1SOL    HW3  427   1.225   1.604   0.841 -0.0271  0.9352  0.0115
    1SOL    MW4  428   1.160   1.564   0.884  0.2369  0.3002 -0.1709
    1SOL     OW  429   1.338   0.129   0.683  0.3169 -0.1134 -0.1170
    1SOL    HW2  430   1.421   0.086   0.706  0.6031  0.5553  0.1424
    1SOL    HW3  431   1.336   0.207   0.739 -0.8472 -0.5150  0.4116
    1SOL    MW4  432   1.349   0.134   0.694  0.2010 -0.0782 -0.0131
    1SOL     OW  433   3.904   1.786   0.492  0.4885 -0.4086 -0.2722
    1SOL    HW2  434   3.979   1.843   0.475  0.1926 -0.1005 -0.5406
    1SOL    HW3  435   3.934   1.726   0.560  0.0895  1.4345  1.5710
    1SOL    MW4  436   3.918   1.785   0.499  0.3967 -0.1248 -0.0644
    1SOL     OW  437   2.016   0.486   0.425 -0.6745 -0.2589  0.4011
    1SOL    HW2  438   2.091   0.542   0.405 -1.2258  0.6451  0.8636
    1SOL    HW3  439   2.018   0.476   0.520 -0.9398 -0.5274  0.3798
    1SOL    MW4  440   2.026   0.492   0.435 -0.7825 -0.1750  0.4593
    1SOL     OW  441   1.122   3.786   0.690  0.0287  0.3938 -0.2134
    1SOL    HW2  442   1.096   3.722   0.756  1.7398 -1.1637 -0.9907
    1SOL    HW3  443   1.185   3.842   0.735 -0.0433  0.3517 -0.0608
    1SOL    MW4  444   1.127   3.785   0.705  0.2450  0.1829 -0.2959
    1SOL     OW  445   4.027   2.681   0.693  0.0454  0.3791 -0.0868
    1SOL    HW2  446   4.039   2.586   0.687  0.0401  0.4349 -1.2047
    1SOL    HW3  447   4.091   2.710   0.757  0.4834 -0.3012 -0.2131
    1SOL    MW4  448   4.037   2.672   0.701  0.1025  0.2966 -0.2509
    1SOL     OW  449   4.051   3.687   0.386 -0.3601  0.3797  0.5220
    1SOL    HW2  450   4.064   3.776   0.420  0.6523  0.4518 -0.0468
    1SOL    HW3  451   4.139   3.650   0.382 -0.6793 -0.2984 -0.1937
    1SOL    MW4  452   4.064   3.694   0.390 -0.2685  0.2997  0.3525
    1SOL     OW  453   1.090   0.454   0.508  0.1838 -0.0080 -0.6011
    1SOL    HW2  454   1.095   0.458   0.604  0.6278  0.9007 -0.6552
    1SOL    HW3  455   1.005   0.492   0.487 -0.2836 -1.0117 -0.5192
    1SOL    MW4  456   1.080   0.460   0.518  0.1807 -0.0206 -0.5974
    1SOL     OW  457   2.700   0.900   0.692  0.0044  0.2475  0.1155
    1SOL    HW2  458   2.707   0.983   0.739  0.8100  0.1872  0.1003
    1SOL    HW3  459   2.775   0.849   0.721 -1.7126 -1.3880  1.9113
    1SOL    MW4  460   2.711   0.904   0.702 -0.1159  0.0238  0.3504
    1SOL     OW  461   1.809   1.920   0.847 -0.0618 -0.3722  0.3362
    1SOL    HW2  462   1.728   1.968   0.829  0.3917  0.2601 -0.0317
    1SOL    HW3  463   1.803   1.841   0.793 -1.0180 -0.9573  1.2900
    1SOL    MW4  464   1.797   1.916   0.837 -0.1281 -0.3659  0.4135
    1SOL     OW  465   1.846   0.069   0.405  0.3797 -0.4297  0.2772
    1SOL    HW2  466   1.837   0.089   0.498 -0.5834  0.2172  0.0592
    1SOL    HW3  467   1.915   0.127   0.374 -0.6711  0.8066  0.1852
    1SOL    MW4  468   1.854   0.079   0.413  0.1140 -0.1812  0.2363
    1SOL     OW  469   0.883   3.483   0.663 -0.5448  0.3946  0.5379
    1SOL    HW2  470   0.869   3.388   0.668 -1.3484  0.5244  0.7787
    1SOL    HW3  471   0.798   3.521   0.682  0.0095  1.1948  1.4325
    1SOL    MW4  472   0.870   3.475   0.666 -0.5777  0.5169  0.6877
    1SOL     OW  473   2.023   1.257   0.732  0.5245  0.0517  0.4577
    1SOL    HW2  474   2.063   1.270   0.646 -2.0764 -1.1326 -0.9938
    1SOL    HW3  475   2.095   1.229   0.789  1.9292 -1.0145 -1.7925
    1SOL    MW4  476   2.038   1.255   0.728  0.3667 -0.2452 -0.0307
    1SOL     OW  477   0.070   3.120   0.507 -0.0842 -0.2911  0.1623
    1SOL    HW2  478   0.004   3.052   0.500  0.5320 -0.8460 -0.2281
    1SOL    HW3  479   0.030   3.196   0.464 -1.1122 -0.1442  1.3647
    1SOL    MW4  480   0.056   3.121   0.500 -0.1386 -0.3448  0.2694
    1SOL     OW  481   0.461   1.676   0.825  0.0881 -0.0386 -0.0222
    1SOL    HW2  482   0.551   1.643   0.828 -0.1639 -0.7026  0.4299
    1SOL    HW3  483   0.470   1.770   0.835  0.6965 -0.1637  0.6774
    1SOL    MW4  484   0.474   1.684   0.826  0.1352 -0.1427  0.1297
    1SOL     OW  485   0.867   4.282   0.339  0.0481 -0.0315  0.1661
    1SOL    HW2  486   0.813   4.328   0.403  0.7410  0.0943  0.6746
    1SOL    HW3  487   0.847   4.324   0.256  0.1079  0.6849  0.5070
    1SOL    MW4  488   0.857   4.294   0.337  0.1475  0.0792  0.2782
    1SOL     OW  489   1.322   2.454   0.747  0.0302  0.1089 -0.5658
    1SOL    HW2  490   1.323   2.432   0.654  0.3700  0.2363 -0.5945
    1SOL    HW3  491   1.350   2.545   0.750  1.6709 -0.3834 -0.2173
    1SOL    MW4  492   1.326   2.463   0.735  0.2916  0.0610 -0.5235
    1SOL     OW  493   1.593   2.897   0.444  0.2029 -0.4730 -0.0494
    1SOL    HW2  494   1.503   2.877   0.418 -0.3779  2.2114 -0.2708
    1SOL    HW3  495   1.596   2.875   0.538 -0.5909 -0.8884 -0.1159
    1SOL    MW4  496   1.582   2.891   0.453  0.0216 -0.1733 -0.0874
    1SOL     OW  497   2.915   0.052   0.346  0.0200  0.1831 -0.6590
    1SOL    HW2  498   2.861   0.119   0.386 -0.9181 -0.4790 -0.7948
    1SOL    HW3  499   2.869   0.028   0.266  0.3342 -0.6263 -0.6097
    1SOL    MW4  500   2.902   0.057   0.341 -0.0625 -0.0111 -0.6705
    1SOL     OW  501   2.924   4.409   0.721  0.7162  0.1154 -0.3088
    1SOL    HW2  502   2.918   4.492   0.768  0.3214 -0.2895  0.3655
    1SOL    HW3  503   2.852   4.356   0.755  1.1978 -0.6493 -0.4505
    1SOL    MW4  504   2.914   4.413   0.731  0.7274 -0.0391 -0.2385
    1SOL     OW  505   0.069   1.748   0.475 -0.2066 -0.2024  0.3575
    1SOL    HW2  506   0.087   1.667   0.427  0.8918 -0.5418  1.3240
    1SOL    HW3  507   0.055   1.720   0.565 -1.5050  0.5195  0.3835
    1SOL    MW4  508   0.070   1.734   0.480 -0.2329 -0.1518  0.4884
    1SOL     OW  509   1.554   1.331   0.768  1.0041  0.1237 -0.2016
    1SOL    HW2  510   1.546   1.308   0.676  0.3012  0.6673 -0.2791
    1SOL    HW3  511   1.496   1.269   0.813  0.9902  0.1610 -0.1683
    1SOL    MW4  512   1.545   1.319   0.762  0.9096  0.2003 -0.2074
    1SOL     OW  513   1.323   3.486   0.842  0.7220 -0.2618 -0.2538
    1SOL    HW2  514   1.347   3.526   0.758 -2.5228 -0.0659 -1.1796
    1SOL    HW3  515   1.330   3.392   0.827 -1.5178 -0.2950 -1.3660
    1SOL    MW4  516   1.327   3.479   0.829 -0.0015 -0.2406 -0.5227
    1SOL     OW  517   3.827   2.331   0.815 -0.0275 -0.1926  0.2628
    1SOL    HW2  518   3.751   2.373   0.775  0.8235  0.2957 -0.8468
    1SOL    HW3  519   3.817   2.238   0.795  0.2768  0.0231 -0.8878
    1SOL    MW4  520   3.816   2.324   0.807  0.1249 -0.0999 -0.0354
    1SOL     OW  521   1.994   4.658   0.842 -0.1518  0.4566  0.2625
    1SOL    HW2  522   2.071   4.703   0.807 -0.0250  0.0353  0.0043
    1SOL    HW3  523   2.004   4.567   0.814 -0.6731  0.3719  0.3429
    1SOL    MW4  524   2.006   4.652   0.833 -0.2038  0.3896  0.2390
    1SOL     OW  525   2.307   0.092   0.484 -1.0774 -0.3785  0.0132
    1SOL    HW2  526   2.242   0.132   0.426 -0.0254 -0.4369 -1.2470
    1SOL    HW3  527   2.390   0.132   0.458 -0.6360 -0.0859  1.8049
    1SOL    MW4  528   2.309   0.103   0.473 -0.8805 -0.3476  0.0834
    1SOL     OW  529   1.043   0.211   0.382  0.0431 -0.2007  0.4637
    1SOL    HW2  530   1.126   0.167   0.363  0.0951  0.6278 -1.3159
    1SOL    HW3  531   1.068   0.300   0.406 -0.3580  0.2116 -0.6267
    1SOL    MW4  532   1.057   0.217   0.383 -0.0029 -0.0370  0.0851
    1SOL     OW  533   0.722   2.081   0.804  0.1942  0.7503 -0.2544
    1SOL    HW2  534   0.705   2.075   0.710  0.6218  0.8193 -0.3383
    1SOL    HW3  535   0.702   2.171   0.827  0.1632  0.7538 -0.2946
    1SOL    MW4  536   0.718   2.092   0.795  0.2465  0.7596 -0.2707
    1SOL     OW  537   2.502   2.501   0.623  0.0481 -0.1181 -0.0372
    1SOL    HW2  538   2.412   2.529   0.638 -0.5485 -2.0599  0.2279
    1SOL    HW3  539   2.550   2.536   0.698 -0.1562  2.2041 -0.9414
    1SOL    MW4  540   2.496   2.509   0.635 -0.0575 -0.0682 -0.1215
    1SOL     OW  541   2.372   1.876   0.045 -0.2669 -0.0162 -0.4189
    1SOL    HW2  542   2.291   1.858  -0.002 -0.6262  1.4308 -0.3696
    1SOL    HW3  543   2.392   1.967   0.025  0.6935  0.0006  0.5590
    1SOL    MW4  544   2.364   1.886   0.036 -0.1874  0.1768 -0.2834
    1SOL     OW  545   3.799   4.535   0.456  0.1368 -0.0374  0.1885
    1SOL    HW2  546   3.894   4.540   0.453  0.1201  0.4160  0.3705
    1SOL    HW3  547   3.777   4.453   0.410  0.5696  0.2286 -0.4895
    1SOL    MW4  548   3.809   4.525   0.449  0.1915  0.0572  0.1231
    1SOL     OW  549   2.588   2.437   0.376 -0.0588  0.2558 -0.0215
    1SOL    HW2  550   2.545   2.451   0.460  0.1719 -1.1248  0.3386
    1SOL    HW3  551   2.644   2.360   0.390 -0.0667 -0.0251 -1.4403
    1SOL    MW4  552   2.590   2.428   0.389 -0.0298  0.0362 -0.1612
    1SOL     OW  553   2.752   0.222   0.498  0.0129 -0.2051 -0.2317
    1SOL    HW2  554   2.757   0.316   0.517  0.2246  0.0054 -1.2955
    1SOL    HW3  555   2.724   0.182   0.581  0.2257  0.7598  0.3133
    1SOL    MW4  556   2.749   0.229   0.512  0.0689 -0.0500 -0.3002
    1SOL     OW  557   4.274   4.404   0.756  0.4768 -0.0918  0.2955
    1SOL    HW2  558   4.354   4.355   0.776  0.5467  0.1648  0.6486
    1SOL    HW3  559   4.291   4.492   0.788  0.1367  0.0241  0.1629
    1SOL    MW4  560   4.287   4.409   0.763  0.4416 -0.0424  0.3246
    1SOL     OW  561   1.612   0.781   0.829 -0.4123 -0.3672 -0.5858
    1SOL    HW2  562   1.678   0.809   0.766  1.3367 -0.7937  1.0113
    1SOL    HW3  563   1.533   0.827   0.803  0.8063  1.0628 -1.8420
    1SOL    MW4  564   1.610   0.790   0.817 -0.0207 -0.2348 -0.5409
    1SOL     OW  565   0.670   3.888   0.848 -0.2154 -0.5603 -0.7638
    1SOL    HW2  566   0.593   3.925   0.806 -0.9842 -2.4332 -1.0680
    1SOL    HW3  567   0.687   3.807   0.799 -0.1699 -1.9690  1.5003
    1SOL    MW4  568   0.662   3.882   0.836 -0.3109 -0.9933 -0.5053
    1SOL     OW  569   1.208   3.735   0.430  0.0145 -0.1429 -0.0939
    1SOL    HW2  570   1.175   3.748   0.518  0.9564 -0.2947  0.2840
    1SOL    HW3  571   1.275   3.802   0.418  1.1570 -1.2630 -0.0376
    1SOL    MW4  572   1.212   3.745   0.440  0.2897 -0.3107 -0.0366
    1SOL     OW  573   0.950   1.649   0.714 -0.1085 -0.0657  0.5280
    1SOL    HW2  574   0.928   1.730   0.761  0.7435  0.5943 -0.1872
    1SOL    HW3  575   1.014   1.606   0.769 -1.0317 -0.5696  1.2175
    1SOL    MW4  576   0.955   1.654   0.727 -0.1178 -0.0452  0.5247
    1SOL     OW  577   0.346   1.085   0.650 -0.1656  0.4034  0.5327
    1SOL    HW2  578   0.280   1.016   0.657 -0.0713  0.0846 -1.4613
    1SOL    HW3  579   0.385   1.089   0.737 -0.9525 -1.2829  0.9867
    1SOL    MW4  580   0.343   1.076   0.663 -0.2570  0.1388  0.3295
    1SOL     OW  581   0.641   0.002   0.832 -0.2095  0.0017 -0.4085
    1SOL    HW2  582   0.650   0.005   0.927  1.4315  0.2977 -0.5640
    1SOL    HW3  583   0.651  -0.090   0.810 -2.1623 -0.2939 -0.1671
    1SOL    MW4  584   0.643  -0.010   0.842 -0.2506  0.0014 -0.3971
    1SOL     OW  585   0.203   3.569   0.719  0.4073 -0.0110 -0.2252
    1SOL    HW2  586   0.213   3.656   0.758 -0.2589 -0.3134  0.6526
    1SOL    HW3  587   0.282   3.522   0.745  0.6708  0.2734 -0.5211
    1SOL    MW4  588   0.214   3.575   0.728  0.3541 -0.0134 -0.1484
    1SOL     OW  589   4.406   3.316   0.412 -0.1227  0.0404 -0.6715
    1SOL    HW2  590   4.323   3.269   0.419  0.0536 -0.2437 -0.4846
    1SOL    HW3  591   4.386   3.405   0.444  0.1361 -0.6045  1.3637
    1SOL    MW4  592   4.392   3.322   0.417 -0.0658 -0.0823 -0.3784
    1SOL     OW  593   2.737   1.412   0.301  0.1721  0.0860 -0.4634
    1SOL    HW2  594   2.791   1.333   0.309  0.9515  0.5226 -1.3113
    1SOL    HW3  595   2.756   1.463   0.379 -1.2018 -1.0838  0.6580
    1SOL    MW4  596   2.746   1.408   0.312  0.0935 -0.0108 -0.4273
    1SOL     OW  597   3.861   3.484   0.406 -0.2160 -0.3727 -0.3442
    1SOL    HW2  598   3.784   3.489   0.350 -0.7863  0.6727  0.5158
    1SOL    HW3  599   3.913   3.560   0.382  0.0950 -0.5587 -0.2626
    1SOL    MW4  600   3.858   3.494   0.396 -0.2503 -0.2594 -0.2200
    1SOL     OW  601   2.725   1.911   0.801  0.2038 -0.3669 -0.1396
    1SOL    HW2  602   2.640   1.951   0.785  1.2019  1.3905 -1.1418
    1SOL    HW3  603   2.740   1.924   0.895  0.4925  1.5493 -0.4471
    1SOL    MW4  604   2.716   1.918   0.812  0.3734  0.1178 -0.3124
    1SOL     OW  605   1.300   4.158   0.789 -0.2708  0.7583  0.3333
    1SOL    HW2  606   1.231   4.199   0.736 -0.3899 -0.9265 -0.8375
    1SOL    HW3  607   1.381   4.196   0.756 -0.4310  0.5692 -0.2876
    1SOL    MW4  608   1.301   4.169   0.778 -0.3076  0.5112  0.0969
    1SOL     OW  609   2.505   3.117   0.392 -0.6197 -0.1467  0.0273
    1SOL    HW2  610   2.473   3.122   0.302 -0.7626  0.9184  0.1366
    1SOL    HW3  611   2.445   3.172   0.442 -0.4331 -0.5887  0.7463
    1SOL    MW4  612   2.493   3.125   0.386 -0.6137 -0.0644  0.1366
    1SOL     OW  613   2.897   4.657   0.838  0.5430  0.3619  0.1903
    1SOL    HW2  614   2.970   4.704   0.799  1.3649 -1.7288 -0.8699
    1SOL    HW3  615   2.819   4.694   0.796  1.2428  0.1089 -1.3301
    1SOL    MW4  616   2.896   4.668   0.827  0.7436  0.0529 -0.1502
    1SOL     OW  617   2.413   3.187   0.120 -0.3608  0.2687  0.0281
    1SOL    HW2  618   2.420   3.270   0.167 -0.6039 -0.3667  1.2135
    1SOL    HW3  619   2.495   3.181   0.070 -0.4092  1.2822 -0.1842
    1SOL    MW4  620   2.425   3.197   0.120 -0.3994  0.3185  0.1565
    1SOL     OW  621   2.482   3.898   0.885  0.2501 -0.1256  0.0567
    1SOL    HW2  622   2.402   3.920   0.837  0.7859  0.8904 -0.3966
    1SOL    HW3  623   2.508   3.813   0.851 -0.8759 -0.6562  0.5182
    1SOL    MW4  624   2.475   3.890   0.874  0.1719 -0.0618  0.0579
    1SOL     OW  625   2.481   2.841   0.481 -0.1766  0.2982  0.0650
    1SOL    HW2  626   2.497   2.934   0.465 -0.8948  0.3649 -0.2592
    1SOL    HW3  627   2.481   2.834   0.577 -1.1998  0.8242  0.1123
    1SOL    MW4  628   2.483   2.853   0.492 -0.4063  0.3765  0.0284
    1SOL     OW  629   0.934   1.398   0.383  0.4563 -0.4417 -0.0005
    1SOL    HW2  630   0.978   1.372   0.302  1.0782  1.0494 -0.1580
    1SOL    HW3  631   0.943   1.493   0.385 -1.1338 -0.2979  0.9216
    1SOL    MW4  632   0.941   1.407   0.372  0.3285 -0.2260  0.1004
    1SOL     OW  633   3.744   1.627   0.310 -0.0964 -0.2097  0.0027
    1SOL    HW2  634   3.799   1.672   0.373 -0.8762  0.7545  0.0001
    1SOL    HW3  635   3.795   1.628   0.229  0.4235 -0.4590  0.3213
    1SOL    MW4  636   3.758   1.633   0.307 -0.1309 -0.1154  0.0444
    1SOL     OW  637   4.234   2.448   0.459 -0.2251  0.2624 -0.0325
    1SOL    HW2  638   4.174   2.426   0.530 -1.0693 -2.1149 -1.4325
    1SOL    HW3  639   4.182   2.436   0.380  0.7251  2.7978 -1.0994
    1SOL    MW4  640   4.220   2.444   0.458 -0.2112  0.2832 -0.3580
    1SOL     OW  641   3.526   1.692   0.489 -0.1984 -0.6244  0.1337
    1SOL    HW2  642   3.469   1.618   0.471  0.7508 -1.1976 -0.5504
    1SOL    HW3  643   3.599   1.682   0.427 -0.1225  0.9335 -0.0520
    1SOL    MW4  644   3.528   1.681   0.478 -0.0632 -0.4945  0.0189
    1SOL     OW  645   2.669   0.135   0.737  0.0105  0.7651  0.0966
    1SOL    HW2  646   2.665   0.224   0.773 -0.6446  0.6602  0.2945
    1SOL    HW3  647   2.602   0.087   0.786  0.4263  0.1421  0.0517
    1SOL    MW4  648   2.660   0.141   0.748 -0.0210  0.6690  0.1169
    1SOL     OW  649   3.134   1.342   0.347  0.1450 -0.2405 -0.0591
    1SOL    HW2  650   3.053   1.291   0.356  0.0577 -0.0953 -0.0158
    1SOL    HW3  651   3.118   1.398   0.271 -0.1973  0.5337  0.5719
    1SOL    MW4  652   3.121   1.343   0.338  0.0882 -0.1191  0.0299
    1SOL     OW  653   1.378   1.927   0.874  0.1804  0.3296 -0.0483
    1SOL    HW2  654   1.372   1.837   0.842  0.4247  0.6238 -0.9498
    1SOL    HW3  655   1.372   1.920   0.969  0.1713 -0.6330 -0.1192
    1SOL    MW4  656   1.376   1.915   0.882  0.2115  0.2415 -0.1766
    1SOL     OW  657   0.473   1.974   0.858  0.1963 -0.0806 -0.3620
    1SOL    HW2  658   0.552   2.015   0.824 -1.0950  2.9155  0.0920
    1SOL    HW3  659   0.487   1.969   0.953 -0.2150  0.6707 -0.2525
    1SOL    MW4  660   0.485   1.979   0.866 -0.0283  0.4139 -0.2875
    1SOL     OW  661   0.018   4.275   0.372  0.3044 -0.4305 -0.1568
    1SOL    HW2  662   0.043   4.273   0.279  1.9641  0.2378  0.2675
    1SOL    HW3  663   0.001   4.184   0.394  1.1318 -0.7418 -0.7929
    1SOL    MW4  664   0.019   4.263   0.362  0.6323 -0.3834 -0.1847
    1SOL     OW  665   0.878   3.208   0.694 -0.1934 -0.2325  0.1105
    1SOL    HW2  666   0.883   3.149   0.619  0.1965  1.0529 -0.9092
    1SOL    HW3  667   0.802   3.178   0.744  0.1243 -1.7000 -0.2802
    1SOL    MW4  668   0.869   3.196   0.690 -0.1000 -0.2563 -0.0756
    1SOL     OW  669   1.639   3.505   0.080 -0.3407  0.1113  0.1546
    1SOL    HW2  670   1.604   3.555   0.154 -0.3545 -0.9634  0.8748
    1SOL    HW3  671   1.607   3.553   0.003  0.4614  1.7754  0.8331
    1SOL    MW4  672   1.630   3.518   0.079 -0.2369  0.1888  0.3391
    1SOL     OW  673   2.931   3.883   0.804  0.0420 -0.5025 -0.1871
    1SOL    HW2  674   2.859   3.940   0.778  0.6577 -0.1195 -1.0802
    1SOL    HW3  675   2.932   3.886   0.900 -0.0101  0.8808 -0.2282
    1SOL    MW4  676   2.922   3.891   0.813  0.1161 -0.2697 -0.3104
    1SOL     OW  677   1.104   1.028   0.378  0.1745  0.0917  0.2372
    1SOL    HW2  678   1.021   0.983   0.392 -0.1116  1.0654  1.8071
    1SOL    HW3  679   1.170   0.966   0.407 -0.0312 -0.4603 -0.4565
    1SOL    MW4  680   1.102   1.014   0.384  0.1096  0.1473  0.3528
    1SOL     OW  681   1.623   3.675   0.652 -0.3058 -0.7255 -0.2254
    1SOL    HW2  682   1.685   3.618   0.697 -0.0687  1.4054  2.2147
    1SOL    HW3  683   1.672   3.710   0.577 -0.3183 -3.2956 -1.5003
    1SOL    MW4  684   1.638   3.672   0.648 -0.2761 -0.7837 -0.0716
    1SOL     OW  685   2.608   4.402   0.331  0.2563  0.2389 -0.4756
    1SOL    HW2  686   2.587   4.310   0.313  2.3461 -0.0979 -1.2642
    1SOL    HW3  687   2.692   4.399   0.377 -0.1079  1.7070  0.3192
    1SOL    MW4  688   2.616   4.389   0.335  0.4840  0.3877 -0.4748
    1SOL     OW  689   0.245   0.596   0.454 -0.1466  0.3425 -0.0048
    1SOL    HW2  690   0.203   0.541   0.519 -0.7301  1.3583  0.4951
    1SOL    HW3  691   0.247   0.543   0.374 -1.3977 -0.1043  0.2631
    1SOL    MW4  692   0.240   0.582   0.452 -0.3887  0.4176  0.0965
    1SOL     OW  693   4.067   4.597   0.450 -0.3979  0.0896  0.1076
    1SOL    HW2  694   4.104   4.676   0.409  1.0615 -1.1463 -1.0203
    1SOL    HW3  695   4.139   4.534   0.449 -1.7840 -1.5293  0.2643
    1SOL    MW4  696   4.082   4.599   0.444 -0.3881 -0.2871 -0.0205
    1SOL     OW  697   2.493   2.266   0.866 -0.2812 -0.3674  0.2930
    1SOL    HW2  698   2.569   2.323   0.850  0.0596 -0.3984  1.7493
    1SOL    HW3  699   2.417   2.322   0.854  0.0334  0.1716  0.8146
    1SOL    MW4  700   2.493   2.281   0.862 -0.1948 -0.3004  0.5540
    1SOL     OW  701   4.310   3.578   0.467  0.0715  0.3675 -0.1182
    1SOL    HW2  702   4.312   3.598   0.561  0.8892  0.6821 -0.2059
    1SOL    HW3  703   4.396   3.603   0.435  0.1170 -0.6137 -0.7818
    1SOL    MW4  704   4.321   3.584   0.475  0.1855  0.2797 -0.2173
    1SOL     OW  705   3.144   1.886   0.870  0.5524  0.2476  0.1806
    1SOL    HW2  706   3.138   1.878   0.965  2.6439 -1.6096  0.1987
    1SOL    HW3  707   3.226   1.934   0.855  0.4727  0.1130 -0.7055
    1SOL    MW4  708   3.154   1.891   0.881  0.8180 -0.0151  0.0660
    1SOL     OW  709   3.159   3.485   0.409 -0.2401 -0.1787  0.1062
    1SOL    HW2  710   3.079   3.536   0.420 -1.1766 -1.5894 -0.0481
    1SOL    HW3  711   3.132   3.394   0.423  1.0685 -0.8060 -1.3052
    1SOL    MW4  712   3.145   3.479   0.413 -0.1907 -0.4475 -0.1003
    1SOL     OW  713   1.580   4.319   0.283 -0.0064 -0.0752  0.0496
    1SOL    HW2  714   1.508   4.381   0.272  1.0514  1.0643 -0.5421
    1SOL    HW3  715   1.652   4.372   0.318  0.2578 -1.3919  1.5642
    1SOL    MW4  716   1.580   4.334   0.286  0.1681 -0.0982  0.1714
    1SOL     OW  717   3.129   2.694   0.812  0.3802  0.7103  0.5086
    1SOL    HW2  718   3.149   2.614   0.764  0.4352  0.9453  0.1351
    1SOL    HW3  719   3.208   2.747   0.802  1.3372 -0.1965  2.8634
    1SOL    MW4  720   3.142   2.691   0.805  0.5138  0.6218  0.7701
    1SOL     OW  721   2.662   0.390   0.830 -0.2560 -0.0733  0.0151
    1SOL    HW2  722   2.659   0.380   0.926  0.4284 -0.6863 -0.0206
    1SOL    HW3  723   2.745   0.435   0.813 -0.9913  1.2255 -0.2028
    1SOL    MW4  724   2.672   0.394   0.841 -0.2630  0.0172 -0.0183
    1SOL     OW  725   3.165   2.460   0.674  0.5770 -0.5136  0.1189
    1SOL    HW2  726   3.208   2.409   0.743 -0.0904 -0.2030  0.7845
    1SOL    HW3  727   3.084   2.412   0.656 -0.5501  0.8034  1.4658
    1SOL    MW4  728   3.160   2.447   0.681  0.3402 -0.2987  0.3844
    1SOL     OW  729   1.874   2.571   0.310  0.6555 -0.0261 -0.0037
    1SOL    HW2  730   1.969   2.564   0.297  0.8159  1.7393  0.0121
    1SOL    HW3  731   1.859   2.535   0.397  1.4935  0.8179  0.4960
    1SOL    MW4  732   1.885   2.565   0.320  0.7871  0.3181  0.0643
    1SOL     OW  733   0.606   3.607   0.396  0.4814  0.8182  0.1973
    1SOL    HW2  734   0.545   3.537   0.372 -0.5918  2.1204 -0.9850
    1SOL    HW3  735   0.692   3.566   0.393 -0.1971 -0.6437  0.2621
    1SOL    MW4  736   0.609   3.593   0.392  0.2502  0.7970  0.0499
    1SOL     OW  737   1.802   2.742   0.851 -0.2611  0.1497  0.0812
    1SOL    HW2  738   1.730   2.777   0.799 -0.8781  0.5860  1.2037
    1SOL    HW3  739   1.880   2.787   0.818 -0.4206 -0.6542 -1.4435
    1SOL    MW4  740   1.803   2.752   0.840 -0.3635  0.1011  0.0281
    1SOL     OW  741   2.538   3.656   0.764  0.4120 -0.0768  0.2534
    1SOL    HW2  742   2.539   3.677   0.671 -0.0204 -1.0709  0.0060
    1SOL    HW3  743   2.619   3.607   0.779  0.7500  0.5674  0.5174
    1SOL    MW4  744   2.549   3.652   0.754  0.3996 -0.1228  0.2556
    1SOL     OW  745   2.723   3.234   0.715 -0.0176  0.2199 -0.3982
    1SOL    HW2  746   2.752   3.230   0.624 -0.0101  1.5962 -0.4632
    1SOL    HW3  747   2.739   3.324   0.741 -0.5442 -0.0292  0.7979
    1SOL    MW4  748   2.729   3.245   0.706 -0.0861  0.3686 -0.2490
    1SOL     OW  749   2.691   4.277   0.818  0.3233  0.1276  0.3116
    1SOL    HW2  750   2.682   4.271   0.913 -0.3698  1.6545  0.3726
    1SOL    HW3  751   2.614   4.327   0.790  1.4364  1.2405 -0.8536
    1SOL    MW4  752   2.679   4.283   0.826  0.3786  0.4759  0.1659
    1SOL     OW  753   0.168   3.871   0.346 -0.1311 -0.6311 -0.2357
    1SOL    HW2  754   0.227   3.923   0.401 -0.3816  0.5065 -1.0233
    1SOL    HW3  755   0.222   3.844   0.272 -0.2644 -0.6263 -0.3360
    1SOL    MW4  756   0.183   3.875   0.343 -0.1817 -0.4804 -0.3529
    1SOL     OW  757   1.548   4.261   0.694  0.1627  0.3613 -0.0671
    1SOL    HW2  758   1.545   4.346   0.651  1.2199  0.3141 -0.2500
    1SOL    HW3  759   1.619   4.269   0.758 -0.6447  0.0593  0.8905
    1SOL    MW4  760   1.557   4.273   0.697  0.1955  0.3147  0.0351
    1SOL     OW  761   1.150   1.881   0.392 -0.0274 -0.2864 -0.0154
    1SOL    HW2  762   1.208   1.898   0.318  0.3329 -0.1682  0.2918
    1SOL    HW3  763   1.120   1.967   0.420 -0.6166 -0.3668 -0.3797
    1SOL    MW4  764   1.154   1.894   0.386 -0.0575 -0.2813 -0.0229
    1SOL     OW  765   2.078   3.185   0.380  0.3053  0.0787 -0.0409
    1SOL    HW2  766   2.058   3.104   0.428  0.8876 -0.8132 -1.2512
    1SOL    HW3  767   2.107   3.154   0.294  1.6076  1.5461 -0.1452
    1SOL    MW4  768   2.079   3.170   0.375  0.5541  0.1545 -0.2144
    1SOL     OW  769   0.886   3.019   0.451 -0.0167  0.3313  0.0736
    1SOL    HW2  770   0.891   3.086   0.383  1.0545 -1.1297 -1.3285
    1SOL    HW3  771   0.801   2.977   0.437 -0.3992  0.9424  0.5322
    1SOL    MW4  772   0.875   3.022   0.440  0.0742  0.2191 -0.0508
    1SOL     OW  773   2.362   2.382   0.215  0.2511  0.3479  0.3333
    1SOL    HW2  774   2.438   2.423   0.257  0.0774  0.4080  0.5888
    1SOL    HW3  775   2.339   2.310   0.273  0.4649 -0.0247 -0.0387
    1SOL    MW4  776   2.369   2.378   0.228  0.2565  0.3068  0.3179
    1SOL     OW  777   3.517   3.232   0.434 -0.5873 -0.1355  0.2265
    1SOL    HW2  778   3.581   3.171   0.398 -0.9943 -0.2092 -0.3912
    1SOL    HW3  779   3.515   3.304   0.370 -1.9459 -0.6728 -0.3581
    1SOL    MW4  780   3.525   3.233   0.421 -0.8204 -0.2158  0.0679
    1SOL     OW  781   1.363   4.519   0.350 -0.3582 -0.0292 -0.1063
    1SOL    HW2  782   1.293   4.463   0.383 -0.3410  0.6407  1.0939
    1SOL    HW3  783   1.329   4.608   0.357  0.3596  0.2563 -0.1195
    1SOL    MW4  784   1.350   4.523   0.356 -0.2614  0.0968  0.0504
    1SOL     OW  785   0.871   3.230   0.297 -0.1958  0.3584 -0.1259
    1SOL    HW2  786   0.962   3.236   0.268 -0.3094  1.6121 -0.2343
    1SOL    HW3  787   0.856   3.311   0.346 -0.2254 -1.3715  2.8484
    1SOL    MW4  788   0.881   3.241   0.300 -0.2148  0.2954  0.2522
    1SOL     OW  789   4.199   0.202   0.736 -0.1150 -0.1391  0.3886
    1SOL    HW2  790   4.122   0.149   0.716 -0.6195 -0.1078  2.1016
    1SOL    HW3  791   4.171   0.257   0.810  1.1558  0.7742  0.2115
    1SOL    MW4  792   4.185   0.202   0.743 -0.0143 -0.0145  0.5912
    1SOL     OW  793   0.661   1.252   0.453  0.3605 -0.1748  0.4434
    1SOL    HW2  794   0.732   1.305   0.416  0.9703 -1.7714 -0.7350
    1SOL    HW3  795   0.586   1.311   0.456  0.5518  0.2901 -2.5007
    1SOL    MW4  796   0.661   1.267   0.448  0.4662 -0.3240 -0.1005
    1SOL     OW  797   2.468   0.475   0.411 -0.0830 -0.0434 -0.1365
    1SOL    HW2  798   2.562   0.489   0.421 -0.3620  1.2493  0.9575
    1SOL    HW3  799   2.436   0.467   0.501 -1.0971  0.0929 -0.4801
    1SOL    MW4  800   2.476   0.476   0.424 -0.2539  0.1452 -0.0375
    1SOL     OW  801   0.570   0.463   0.305 -0.2132  0.6011 -0.1428
    1SOL    HW2  802   0.483   0.443   0.270 -0.5332 -1.4992  1.7624
    1SOL    HW3  803   0.557   0.543   0.357 -0.7000  1.0897 -0.9994
    1SOL    MW4  804   0.556   0.471   0.307 -0.3197  0.3885 -0.0045
    1SOL     OW  805   2.225   0.367   0.851  0.5184  0.0741 -0.0556
    1SOL    HW2  806   2.237   0.278   0.818 -0.9542 -0.4512  0.7748
    1SOL    HW3  807   2.161   0.406   0.793 -1.0176 -0.3896  1.2797
    1SOL    MW4  808   2.218   0.360   0.839  0.1216 -0.0564  0.2301
    1SOL     OW  809   3.363   4.406   0.694  0.0116 -0.6988  0.1461
    1SOL    HW2  810   3.351   4.469   0.766  0.1861 -0.6950  0.1718
    1SOL    HW3  811   3.284   4.353   0.696 -0.0592 -0.5912  0.2367
    1SOL    MW4  812   3.351   4.407   0.704  0.0253 -0.6847  0.1615
    1SOL     OW  813   3.581   4.266   0.803  0.0933 -0.2869  0.3222
    1SOL    HW2  814   3.499   4.299   0.768  0.6160  0.6739 -0.0061
    1SOL    HW3  815   3.599   4.187   0.752  0.5452  0.7724 -1.1918
    1SOL    MW4  816   3.573   4.260   0.792  0.2220 -0.0205  0.0791
    1SOL     OW  817   0.578   3.875   0.431  0.1719  0.1750 -0.0029
    1SOL    HW2  818   0.656   3.916   0.394 -1.0038  1.1899 -1.3903
    1SOL    HW3  819   0.592   3.781   0.416  0.7168  0.4101 -1.0682
    1SOL    MW4  820   0.590   3.868   0.424  0.0888  0.3400 -0.3265
    1SOL     OW  821   2.122   2.408   0.553 -0.5180  0.1357 -0.1729
    1SOL    HW2  822   2.179   2.335   0.528  0.4325  0.9193 -0.3262
    1SOL    HW3  823   2.152   2.433   0.640 -0.5965  0.5749 -0.2694
    1SOL    MW4  824   2.133   2.401   0.561 -0.4029  0.2971 -0.2059
    1SOL     OW  825   3.371   0.496   0.759  0.2761  0.1701  0.0134
    1SOL    HW2  826   3.380   0.504   0.664 -0.0253 -0.6812 -0.0926
    1SOL    HW3  827   3.446   0.443   0.786 -0.5278 -0.9730  0.0358
    1SOL    MW4  828   3.382   0.490   0.750  0.1302 -0.0930  0.0023
    1SOL     OW  829   0.742   2.530   0.527 -0.5133 -0.2340 -0.1715
    1SOL    HW2  830   0.674   2.467   0.502 -0.5909  1.0243 -3.4506
    1SOL    HW3  831   0.699   2.616   0.521  0.7536  0.4189 -0.1542
    1SOL    MW4  832   0.727   2.533   0.523 -0.3564  0.0184 -0.6018
    1SOL     OW  833   0.284   4.298   0.484  0.3421 -0.3147 -0.1437
    1SOL    HW2  834   0.294   4.330   0.573  2.5224 -0.1220 -0.4362
    1SOL    HW3  835   0.191   4.310   0.464  0.0479  0.5805  1.7340
    1SOL    MW4  836   0.273   4.304   0.493  0.5909 -0.1712  0.0654
    1SOL     OW  837   0.831   0.542   0.435  0.0083 -0.1589  0.2129
    1SOL    HW2  838   0.795   0.527   0.347 -0.0983 -0.3239  0.2841
    1SOL    HW3  839   0.768   0.501   0.494 -0.1212  0.2951  0.3904
    1SOL    MW4  840   0.818   0.534   0.431 -0.0229 -0.1208  0.2457
    1SOL     OW  841   2.040   3.662   0.732 -0.1300  0.1063  0.6149
    1SOL    HW2  842   2.123   3.615   0.746  0.4039  1.1931  1.1480
    1SOL    HW3  843   1.973   3.601   0.763  0.5510 -0.3684  1.1853
    1SOL    MW4  844   2.042   3.647   0.738  0.0303  0.1874  0.7604
    1SOL     OW  845   4.053   0.415   0.900  0.0533 -0.2384 -0.5390
    1SOL    HW2  846   4.116   0.479   0.867 -0.6613  1.2490  0.9391
    1SOL    HW3  847   3.978   0.423   0.841  0.0880  0.0636 -0.5419
    1SOL    MW4  848   4.051   0.425   0.888 -0.0362 -0.0023 -0.3443
    1SOL     OW  849   2.903   1.973   0.411  0.0200  0.0735  0.3329
    1SOL    HW2  850   2.936   1.955   0.499  1.1723 -1.7323 -0.4393
    1SOL    HW3  851   2.842   1.902   0.392  1.6740 -0.9799 -1.2650
    1SOL    MW4  852   2.899   1.961   0.420  0.3903 -0.3039  0.0202
    1SOL     OW  853   1.306   3.306   0.493  0.0819 -0.0193 -0.6627
    1SOL    HW2  854   1.309   3.401   0.481 -1.1437 -0.2720 -3.2061
    1SOL    HW3  855   1.394   3.276   0.472  0.7962  0.6355  1.2659
    1SOL    MW4  856   1.318   3.314   0.489  0.0145  0.0339 -0.7438
    1SOL     OW  857   1.025   2.502   0.502 -0.4947 -0.1105 -0.8681
    1SOL    HW2  858   0.936   2.480   0.473 -0.3474 -0.2014 -1.2472
    1SOL    HW3  859   1.032   2.596   0.489 -0.3428 -0.1879 -1.3665
    1SOL    MW4  860   1.014   2.511   0.497 -0.4553 -0.1328 -0.9839
    1SOL     OW  861   2.165   3.988   0.459 -0.3012 -0.0360 -0.1503
    1SOL    HW2  862   2.196   4.075   0.430 -0.5549  0.0517 -0.1553
    1SOL    HW3  863   2.070   3.996   0.460 -0.3622 -0.6421 -1.1678
    1SOL    MW4  864   2.157   4.001   0.455 -0.3426 -0.1044 -0.2852
    1SOL     OW  865   3.410   1.406   0.464 -0.2070 -0.2166 -0.2129
    1SOL    HW2  866   3.416   1.357   0.547  2.0477 -1.5671 -1.1393
    1SOL    HW3  867   3.325   1.380   0.428 -0.1751 -1.4448  0.5517
    1SOL    MW4  868   3.400   1.396   0.470  0.0949 -0.5569 -0.2343
    1SOL     OW  869   0.709   2.367   0.844 -0.3385  0.2035 -0.3869
    1SOL    HW2  870   0.699   2.361   0.939 -0.4020  1.8816 -0.2566
    1SOL    HW3  871   0.622   2.395   0.813 -0.5942 -1.2829 -1.0484
    1SOL    MW4  872   0.696   2.370   0.852 -0.3805  0.2291 -0.4570
    1SOL     OW  873   0.093   3.628   0.471 -0.1844 -0.3449  0.2666
    1SOL    HW2  874   0.132   3.710   0.442 -2.0683  0.5365  0.1612
    1SOL    HW3  875   0.122   3.618   0.561 -0.4954  0.7991  0.4981
    1SOL    MW4  876   0.102   3.637   0.479 -0.4740 -0.0777  0.2832
    1SOL     OW  877   3.357   2.846   0.796  0.3569 -0.4184 -0.2814
    1SOL    HW2  878   3.361   2.940   0.813  1.0949 -0.1563 -1.7804
    1SOL    HW3  879   3.426   2.809   0.850  0.6183  0.0110 -0.3120
    1SOL    MW4  880   3.366   2.854   0.805  0.4888 -0.3273 -0.4833
    1SOL     OW  881   0.389   2.672   0.870  0.0176  0.4123 -0.5620
    1SOL    HW2  882   0.432   2.752   0.841 -1.7966  0.8354 -2.1268
    1SOL    HW3  883   0.431   2.602   0.819  0.2901  0.5713 -0.5591
    1SOL    MW4  884   0.400   2.673   0.860 -0.1858  0.4890 -0.7681
    1SOL     OW  885   3.165   0.081   0.497 -0.4994  0.1507  0.4594
    1SOL    HW2  886   3.152   0.098   0.591 -2.1029  0.9363  0.1249
    1SOL    HW3  887   3.077   0.085   0.460  0.1385  0.0031 -1.1173
    1SOL    MW4  888   3.151   0.084   0.505 -0.6268  0.2349  0.2073
    1SOL     OW  889   2.252   3.961   0.732 -0.4614 -0.1545 -0.7630
    1SOL    HW2  890   2.235   3.956   0.638  0.1350  2.4481 -1.0359
    1SOL    HW3  891   2.170   3.934   0.773 -1.5984  1.2800 -2.0527
    1SOL    MW4  892   2.239   3.957   0.725 -0.5326  0.3781 -0.9692
    1SOL     OW  893   1.307   3.899   0.877 -0.4080 -0.7679 -0.2623
    1SOL    HW2  894   1.273   3.890   0.965  0.7609  1.0260  0.4123
    1SOL    HW3  895   1.295   3.992   0.856  1.7930 -0.6011 -0.9233
    1SOL    MW4  896   1.301   3.910   0.886  0.0367 -0.5093 -0.2605
    1SOL     OW  897   3.574   0.695   0.483  0.5959 -0.3417  0.1901
    1SOL    HW2  898   3.566   0.743   0.401  1.1058  1.2583  1.0595
    1SOL    HW3  899   3.488   0.655   0.496 -0.4064  1.7847  0.3127
    1SOL    MW4  900   3.561   0.696   0.474  0.5310  0.1500  0.3209
    1SOL     OW  901   4.476   1.935   0.846  0.4223 -0.1197 -0.0173
    1SOL    HW2  902   4.554   1.976   0.807 -0.5758  0.7853 -1.0987
    1SOL    HW3  903   4.477   1.845   0.812  1.3225 -0.2918  0.4543
    1SOL    MW4  904   4.487   1.929   0.836  0.4096 -0.0229 -0.0977
    1SOL     OW  905   4.453   1.022   0.860 -0.0525  0.0810 -0.0090
    1SOL    HW2  906   4.473   1.048   0.950  0.0186  0.3084 -0.0918
    1SOL    HW3  907   4.379   0.961   0.869  0.3732 -0.4072  0.2580
    1SOL    MW4  908   4.445   1.017   0.873  0.0129  0.0466  0.0154
    1SOL     OW  909   2.992   3.087   0.440 -0.2213  0.3013 -0.4889
    1SOL    HW2  910   3.086   3.094   0.423  0.3652  0.1137  2.4017
    1SOL    HW3  911   2.974   2.993   0.435  0.1690  0.1392  0.8623
    1SOL    MW4  912   3.002   3.075   0.437 -0.0923  0.2551  0.0708
    1SOL     OW  913   1.834   2.838   0.324  0.3010  0.3089  0.0280
    1SOL    HW2  914   1.847   2.746   0.302  0.4758  0.4745 -0.5704
    1SOL    HW3  915   1.743   2.844   0.351  0.6964 -0.3383  1.5931
    1SOL    MW4  916   1.824   2.827   0.325  0.3762  0.2453  0.1555
    1SOL     OW  917   3.178   1.117   0.803  0.0293 -0.5275 -0.0448
    1SOL    HW2  918   3.249   1.180   0.788 -0.7936  0.4125  0.0182
    1SOL    HW3  919   3.163   1.118   0.897 -0.1151 -0.6915 -0.0644
    1SOL    MW4  920   3.186   1.125   0.813 -0.0982 -0.4251 -0.0390
    1SOL     OW  921   2.942   3.681   0.425  0.4047  0.0391 -0.0620
    1SOL    HW2  922   2.859   3.639   0.402  0.2256  1.2646 -1.8050
    1SOL    HW3  923   2.945   3.679   0.521 -1.3944 -0.4547 -0.0031
    1SOL    MW4  924   2.932   3.675   0.434  0.1435  0.1357 -0.2842
    1SOL     OW  925   1.381   0.928   0.757 -0.5942  0.2241  0.1408
    1SOL    HW2  926   1.368   1.003   0.815 -1.7718 -0.0578  0.2553
    1SOL    HW3  927   1.322   0.861   0.791  0.3236 -0.7089 -0.0580
    1SOL    MW4  928   1.372   0.929   0.769 -0.6284  0.0638  0.1297
    1SOL     OW  929   3.811   0.534   0.493  0.4377 -0.0325 -0.0583
    1SOL    HW2  930   3.729   0.584   0.488  0.0255 -0.6866  0.1476
    1SOL    HW3  931   3.878   0.601   0.506 -0.2178  0.4200  1.2068
    1SOL    MW4  932   3.809   0.549   0.494  0.2968 -0.0591  0.1358
    1SOL     OW  933   4.064   2.385   0.665 -0.2214  0.0757 -0.2472
    1SOL    HW2  934   4.132   2.357   0.726 -0.8310  0.4332  0.6047
    1SOL    HW3  935   3.982   2.365   0.710 -0.6644  1.8868 -0.2454
    1SOL    MW4  936   4.062   2.378   0.679 -0.3595  0.3617 -0.1345
    1SOL     OW  937   1.783   1.673   0.447 -0.0429 -0.4086  0.4527
    1SOL    HW2  938   1.862   1.718   0.417 -0.5918  0.5116  0.3898
    1SOL    HW3  939   1.792   1.672   0.543 -0.1279  0.0217  0.4669
    1SOL    MW4  940   1.795   1.679   0.456 -0.1264 -0.2304  0.4463
    1SOL     OW  941   1.374   1.077   0.158 -0.5298  0.3955  0.0723
    1SOL    HW2  942   1.308   1.144   0.141 -0.9214 -0.4139 -1.7337
    1SOL    HW3  943   1.328   0.994   0.145  0.9609 -0.1765 -1.7420
    1SOL    MW4  944   1.360   1.075   0.154 -0.3847  0.2133 -0.4054
    1SOL     OW  945   1.534   1.029   0.383  0.2109  0.3367 -0.0491
    1SOL    HW2  946   1.490   1.068   0.307 -0.0160 -0.0946 -0.1393
    1SOL    HW3  947   1.465   0.983   0.430  0.2459  1.0624  0.7253
    1SOL    MW4  948   1.519   1.028   0.379  0.1856  0.3755  0.0411
    1SOL     OW  949   4.024   0.897   0.745  0.2930 -0.7070 -0.6147
    1SOL    HW2  950   4.018   0.992   0.748 -0.5448 -0.7541 -0.6702
    1SOL    HW3  951   4.097   0.876   0.803  0.8737  0.0039 -1.0742
    1SOL    MW4  952   4.033   0.907   0.753  0.2594 -0.6194 -0.6827
    1SOL     OW  953   0.953   1.694   0.441 -0.0870 -0.2780  0.1752
    1SOL    HW2  954   1.023   1.757   0.420 -1.1198  0.7401 -0.2303
    1SOL    HW3  955   0.954   1.691   0.537 -0.3844  0.7719  0.2220
    1SOL    MW4  956   0.963   1.702   0.451 -0.2625 -0.0050  0.1278
    1SOL     OW  957   0.614   3.210   0.171  0.1785 -0.2809 -0.2475
    1SOL    HW2  958   0.635   3.207   0.078 -0.2056  1.1528 -0.3888
    1SOL    HW3  959   0.698   3.227   0.214  0.1731  0.1471 -0.4089
    1SOL    MW4  960   0.628   3.212   0.165  0.1271 -0.0353 -0.2874
    1SOL     OW  961   1.777   3.280   0.238 -0.1126 -0.0617 -0.4113
    1SOL    HW2  962   1.822   3.208   0.195 -0.4876  0.1563 -1.1750
    1SOL    HW3  963   1.753   3.340   0.167 -0.9011  0.2088  0.0698
    1SOL    MW4  964   1.779   3.278   0.223 -0.2662  0.0024 -0.4486
    1SOL     OW  965   1.339   2.178   0.395 -0.2370  0.0434 -0.0267
    1SOL    HW2  966   1.337   2.120   0.319 -0.2543  2.2268 -1.7398
    1SOL    HW3  967   1.419   2.154   0.442  0.7938 -0.0458 -1.7901
    1SOL    MW4  968   1.349   2.167   0.391 -0.1034  0.3195 -0.4854
    1SOL     OW  969   3.359   0.536   0.492 -0.1280  0.4170 -0.0702
    1SOL    HW2  970   3.266   0.554   0.482 -0.1610  0.3444  0.0914
    1SOL    HW3  971   3.369   0.445   0.463 -0.3112  0.0420  1.0119
    1SOL    MW4  972   3.348   0.526   0.487 -0.1564  0.3580  0.0939
    1SOL     OW  973   2.155   2.551   0.323  0.1575  0.3817  0.6365
    1SOL    HW2  974   2.216   2.497   0.273  0.1195  0.4112  0.5592
    1SOL    HW3  975   2.135   2.498   0.401 -0.4093 -0.0080  0.2282
    1SOL    MW4  976   2.160   2.537   0.327  0.0777  0.3343  0.5724
    1SOL     OW  977   4.096   1.983   0.449  0.2455  0.2845  0.0654
    1SOL    HW2  978   4.189   1.998   0.430  0.7032  1.0300  2.6884
    1SOL    HW3  979   4.055   2.069   0.441  0.2060  0.3668  1.1045
    1SOL    MW4  980   4.103   1.996   0.445  0.3009  0.3936  0.5486
    1SOL     OW  981   3.708   3.080   0.319 -0.3911  0.1460  0.1759
    1SOL    HW2  982   3.787   3.130   0.340 -0.7725  1.1899 -0.8219
    1SOL    HW3  983   3.702   3.084   0.224 -2.1903  0.9432  0.2964
    1SOL    MW4  984   3.717   3.087   0.309 -0.6785  0.3889  0.0602
    1SOL     OW  985   1.374   2.736   0.804  0.6473  0.0298 -0.1781
    1SOL    HW2  986   1.379   2.738   0.900  0.4276 -2.5348 -0.0670
    1SOL    HW3  987   1.286   2.768   0.784  0.7726  0.7910  0.4576
    1SOL    MW4  988   1.363   2.740   0.814  0.6349 -0.2079 -0.0796
    1SOL     OW  989   3.641   0.103   0.495  0.3550 -0.0242  0.0186
    1SOL    HW2  990   3.599   0.091   0.580  1.4594 -1.1302  0.4118
    1SOL    HW3  991   3.663   0.015   0.466  0.6390  0.4046 -1.0921
    1SOL    MW4  992   3.638   0.090   0.502  0.5381 -0.1136 -0.0761
    1SOL     OW  993   4.073   3.452   0.823  0.3042  0.0188  0.1265
    1SOL    HW2  994   4.069   3.365   0.784 -0.6001  0.9638 -1.9671
    1SOL    HW3  995   4.049   3.439   0.915 -0.2317 -1.8687 -0.2651
    1SOL    MW4  996   4.069   3.439   0.830  0.1144 -0.1054 -0.2014
    1SOL     OW  997   0.515   0.639   0.777  0.2746 -0.0547  0.0373
    1SOL    HW2  998   0.559   0.555   0.791  1.6458  0.6049 -0.3286
    1SOL    HW3  999   0.515   0.651   0.682 -0.6628 -0.0187  0.0285
    1SOL    MW4 1000   0.521   0.629   0.766  0.3319  0.0371 -0.0122
    1SOL     OW 1001   2.264   4.254   0.404  0.3623  0.1071 -0.2319
    1SOL    HW2 1002   2.287   4.337   0.445  0.0578  0.3637 -0.5784
    1SOL    HW3 1003   2.344   4.228   0.357  0.7308 -0.2221  0.5781
    1SOL    MW4 1004   2.278   4.261   0.403  0.3710  0.0978 -0.1707
    1SOL     OW 1005   0.015   0.491   0.854  0.1916 -0.2558  0.5033
    1SOL    HW2 1006   0.088   0.552   0.864  0.0465 -0.0325  0.2135
    1SOL    HW3 1007   0.003   0.453   0.942  0.7733 -0.4328  0.5063
    1SOL    MW4 1008   0.023   0.494   0.867  0.2492 -0.2497  0.4655
    1SOL     OW 1009   2.029   2.028   0.442 -0.3087 -0.1242  0.2870
    1SOL    HW2 1010   2.059   2.008   0.530 -1.1715  1.2863  0.9197
    1SOL    HW3 1011   1.959   2.093   0.454 -0.4768  0.0417 -1.4162
    1SOL    MW4 1012   2.024   2.034   0.455 -0.4447  0.0839  0.1458
    1SOL     OW 1013   0.131   0.891   0.667 -0.0642 -0.1384 -0.6443
    1SOL    HW2 1014   0.178   0.820   0.710  0.7912  0.1148 -1.1313
    1SOL    HW3 1015   0.087   0.937   0.738  1.2558  0.2226 -0.0295
    1SOL    MW4 1016   0.132   0.888   0.682  0.2228 -0.0574 -0.6274
    1SOL     OW 1017   0.317   0.384   0.248  0.2619 -0.3669  0.1610
    1SOL    HW2 1018   0.333   0.310   0.306 -0.5714 -0.7354 -0.0654
    1SOL    HW3 1019   0.252   0.351   0.185 -0.5738  0.7420  0.4243
    1SOL    MW4 1020   0.310   0.370   0.247  0.0417 -0.2692  0.1659
    1SOL     OW 1021   0.485   1.721   0.517 -0.4176 -0.1420 -0.1089
    1SOL    HW2 1022   0.489   1.723   0.613 -0.0194 -0.0476 -0.1240
    1SOL    HW3 1023   0.409   1.774   0.495 -0.1266  0.3909  0.1364
    1SOL    MW4 1024   0.476   1.728   0.527 -0.3267 -0.0592 -0.0785
    1SOL     OW 1025   4.460   1.314   0.522 -0.5445 -0.2445  0.2042
    1SOL    HW2 1026   4.481   1.226   0.492  1.5737 -0.5307  2.3714
    1SOL    HW3 1027   4.403   1.301   0.598  1.2857  0.1359  1.6918
    1SOL    MW4 1028   4.455   1.301   0.528 -0.0238 -0.2320  0.6865
    1SOL     OW 1029   0.221   1.554   0.835  0.1430 -0.0270 -0.7249
    1SOL    HW2 1030   0.233   1.477   0.780  0.1415 -0.1950 -0.4907
    1SOL    HW3 1031   0.304   1.602   0.827  0.4469 -0.4669 -0.2321
    1SOL    MW4 1032   0.234   1.550   0.826  0.1829 -0.1072 -0.6289
    1SOL     OW 1033   1.122   2.825   0.733 -0.1672  0.1912  0.0082
    1SOL    HW2 1034   1.032   2.809   0.762  0.0686 -1.8149 -0.3462
    1SOL    HW3 1035   1.118   2.815   0.638  0.7613 -1.5753  0.1423
    1SOL    MW4 1036   1.110   2.822   0.724 -0.0137 -0.3064 -0.0209
    1SOL     OW 1037   4.013   2.431   0.263 -0.0692  0.1243 -0.0019
    1SOL    HW2 1038   4.006   2.458   0.172 -1.9277 -1.6851 -0.4536
    1SOL    HW3 1039   3.945   2.481   0.308 -0.2142 -0.1329  0.0717
    1SOL    MW4 1040   4.003   2.441   0.257 -0.3338 -0.1483 -0.0517
    1SOL     OW 1041   1.078   2.358   0.820 -0.5899 -0.6489 -0.0760
    1SOL    HW2 1042   1.101   2.265   0.819  0.3693 -0.4636  2.1078
    1SOL    HW3 1043   1.161   2.404   0.815 -0.7113  0.0356  3.0528
    1SOL    MW4 1044   1.092   2.352   0.819 -0.4793 -0.5343  0.6250
    1SOL     OW 1045   0.372   2.653   0.367 -0.0909  0.1724 -0.1109
    1SOL    HW2 1046   0.374   2.712   0.291 -1.5679 -0.1851 -0.4463
    1SOL    HW3 1047   0.293   2.678   0.414  0.6683  0.1997  1.1711
    1SOL    MW4 1048   0.362   2.664   0.363 -0.1856  0.1287  0.0140
    1SOL     OW 1049   4.252   2.310   0.868 -0.4350 -0.0221 -0.4084
    1SOL    HW2 1050   4.319   2.373   0.841  0.2656  0.2049  1.7484
    1SOL    HW3 1051   4.278   2.228   0.826  0.2281  0.4542 -0.9435
    1SOL    MW4 1052   4.264   2.307   0.859 -0.2551  0.0703 -0.1945
    1SOL     OW 1053   0.230   1.350   0.653  0.0521 -0.1090 -0.6650
    1SOL    HW2 1054   0.138   1.332   0.633 -0.0693 -0.0624 -0.1463
    1SOL    HW3 1055   0.276   1.268   0.634 -0.3768 -0.7277  0.9185
    1SOL    MW4 1056   0.224   1.337   0.648 -0.0205 -0.1844 -0.3875
    1SOL     OW 1057   4.043   1.647   0.695 -0.1490  0.2899 -0.4190
    1SOL    HW2 1058   3.973   1.604   0.744  0.0424 -0.3647 -0.7126
    1SOL    HW3 1059   4.119   1.591   0.708 -0.3072 -0.3775 -2.1682
    1SOL    MW4 1060   4.043   1.634   0.703 -0.1450  0.1158 -0.6886
    1SOL     OW 1061   0.206   3.041   0.875 -0.0028  0.1373  0.1846
    1SOL    HW2 1062   0.219   3.065   0.967  1.5744  1.8034 -0.4425
    1SOL    HW3 1063   0.124   3.083   0.851  0.2998  0.9024  0.4554
    1SOL    MW4 1064   0.197   3.050   0.884  0.2452  0.4580  0.1376
    1SOL     OW 1065   1.163   1.282   0.207  0.1396  0.3024 -0.5820
    1SOL    HW2 1066   1.228   1.317   0.268  0.6822  0.0302 -1.0041
    1SOL    HW3 1067   1.131   1.202   0.248  2.6747 -1.5082 -2.0221
    1SOL    MW4 1068   1.167   1.276   0.220  0.5457  0.0275 -0.8277
    1SOL     OW 1069   0.009   2.497   0.496  0.4825 -0.1174  0.2094
    1SOL    HW2 1070   0.050   2.412   0.481  1.3046  0.1820  0.7432
    1SOL    HW3 1071  -0.080   2.487   0.463  0.7921 -0.9678 -0.3731
    1SOL    MW4 1072   0.002   2.485   0.489  0.6318 -0.1900  0.2030
    1SOL     OW 1073   4.477   3.201   0.785  0.3849  0.3597  0.2579
    1SOL    HW2 1074   4.493   3.205   0.691 -1.4401  0.9357 -0.0472
    1SOL    HW3 1075   4.485   3.291   0.815 -1.3344  0.5341  0.2403
    1SOL    MW4 1076   4.480   3.213   0.776 -0.0830  0.4587  0.2154
    1SOL     OW 1077   0.455   3.456   0.781  0.1876 -0.1622 -0.7652
    1SOL    HW2 1078   0.489   3.466   0.870  0.5448 -0.8207 -0.8258
    1SOL    HW3 1079   0.444   3.362   0.770  0.0209 -0.0737 -1.3745
    1SOL    MW4 1080   0.458   3.445   0.791  0.2127 -0.2375 -0.8535
    1SOL     OW 1081   0.118   2.739   0.452  0.3273 -0.5176 -0.0937
    1SOL    HW2 1082   0.080   2.651   0.460  0.7038 -0.5798  1.0648
    1SOL    HW3 1083   0.135   2.766   0.542 -1.8325  1.6521 -0.2654
    1SOL    MW4 1084   0.115   2.731   0.465  0.0920 -0.2398  0.0365
    1SOL     OW 1085   0.522   1.096   0.870  0.0010  0.5842  0.2139
    1SOL    HW2 1086   0.572   1.150   0.809 -0.7690 -0.7171 -1.6248
    1SOL    HW3 1087   0.568   1.012   0.870 -1.2893 -0.1467 -0.3613
    1SOL    MW4 1088   0.535   1.092   0.862 -0.2709  0.3160 -0.1046
    1SOL     OW 1089   0.447   0.207   0.842 -0.0856 -0.0590 -0.0694
    1SOL    HW2 1090   0.382   0.203   0.772 -0.7202 -0.5738  0.5414
    1SOL    HW3 1091   0.488   0.121   0.842  0.4193  0.1796 -0.2804
    1SOL    MW4 1092   0.444   0.195   0.833 -0.1027 -0.0955 -0.0166
    1SOL     OW 1093   0.438   0.365   1.130 -0.5376  0.4012  0.0282
    1SOL    HW2 1094   0.417   0.333   1.042  0.6595 -0.6483  0.1004
    1SOL    HW3 1095   0.361   0.415   1.157 -1.7812 -1.0188 -0.7868
    1SOL    MW4 1096   0.425   0.367   1.122 -0.5437  0.0754 -0.0699
    1SOL     OW 1097   2.032   2.061   0.756  0.0691 -0.1293  0.0783
    1SOL    HW2 1098   2.034   2.150   0.791  0.8647 -0.0636 -0.1128
    1SOL    HW3 1099   1.962   2.017   0.804 -0.1133  0.5103  0.3977
    1SOL    MW4 1100   2.023   2.067   0.767  0.1500 -0.0365  0.0952
    1SOL     OW 1101   3.411   1.276   0.708 -0.0485  0.0052  0.2457
    1SOL    HW2 1102   3.493   1.237   0.740 -0.8547 -0.4378  1.7974
    1SOL    HW3 1103   3.394   1.348   0.769 -1.0250 -0.1482  0.1500
    1SOL    MW4 1104   3.420   1.280   0.720 -0.2837 -0.0736  0.4378
    1SOL     OW 1105   3.596   1.673   0.746  0.3869  0.4843 -0.2676
    1SOL    HW2 1106   3.526   1.613   0.771  0.7153 -0.2188 -1.0109
    1SOL    HW3 1107   3.590   1.679   0.651  2.2309 -0.7205 -0.4831
    1SOL    MW4 1108   3.586   1.666   0.737  0.6738  0.2327 -0.3940
    1SOL     OW 1109   0.887   0.071   0.756  0.6318  0.3062  0.1559
    1SOL    HW2 1110   0.869   0.066   0.662  0.7358  0.6161  0.1212
    1SOL    HW3 1111   0.806   0.041   0.798  0.7579 -0.3141 -0.0414
    1SOL    MW4 1112   0.874   0.066   0.749  0.6621  0.2652  0.1253
    1SOL     OW 1113   0.619   2.822   0.763  0.0965  0.2776 -0.0260
    1SOL    HW2 1114   0.635   2.914   0.780 -0.6186  0.7699 -1.9001
    1SOL    HW3 1115   0.606   2.817   0.668  1.8737 -2.0111 -0.1961
    1SOL    MW4 1116   0.620   2.833   0.753  0.2366  0.0405 -0.2957
    1SOL     OW 1117   1.602   0.224   0.328  0.6241  0.1695 -0.2759
    1SOL    HW2 1118   1.631   0.272   0.250  0.4156  1.2368  0.2911
    1SOL    HW3 1119   1.671   0.160   0.344  0.6577 -0.0635 -1.3477
    1SOL    MW4 1120   1.615   0.222   0.320  0.6011  0.2796 -0.3425
    1SOL     OW 1121   0.406   3.190   0.735  0.2504  0.0536 -0.5217
    1SOL    HW2 1122   0.381   3.167   0.645 -0.0299 -0.5904 -0.2820
    1SOL    HW3 1123   0.344   3.142   0.790  2.1435 -1.7499  0.1048
    1SOL    MW4 1124   0.395   3.180   0.730  0.4632 -0.2694 -0.4074
    1SOL     OW 1125   0.698   1.278   0.732 -0.1776  0.0810  0.0711
    1SOL    HW2 1126   0.702   1.269   0.637 -0.0739  0.8450  0.0022
    1SOL    HW3 1127   0.684   1.371   0.747 -1.9325 -0.2897  0.7686
    1SOL    MW4 1128   0.697   1.289   0.721 -0.3954  0.1329  0.1540
    1SOL     OW 1129   2.874   1.454   0.872  0.1583  0.2425 -0.2435
    1SOL    HW2 1130   2.793   1.501   0.855 -0.4122 -0.5602  0.2093
    1SOL    HW3 1131   2.944   1.513   0.844 -0.5410  1.3969  0.4386
    1SOL    MW4 1132   2.873   1.468   0.866 -0.0095  0.2888 -0.0938
    1SOL     OW 1133   4.485   1.679   0.728  0.2538  0.2660 -0.0379
    1SOL    HW2 1134   4.409   1.628   0.756 -0.5843  1.4723 -0.0816
    1SOL    HW3 1135   4.560   1.636   0.770 -0.4167 -1.0871 -0.2106
    1SOL    MW4 1136   4.485   1.666   0.737  0.0553  0.2468 -0.0664
    1SOL     OW 1137   1.428   3.894   0.428 -0.6279  0.0524  0.4600
    1SOL    HW2 1138   1.489   3.965   0.446 -0.7373  0.2249  0.1518
    1SOL    HW3 1139   1.473   3.838   0.365 -0.6554  0.0030  0.4843
    1SOL    MW4 1140   1.442   3.896   0.422 -0.6459  0.0682  0.4226
    1SOL     OW 1141   0.867   2.247   0.560  0.4793  0.2310  0.3493
    1SOL    HW2 1142   0.944   2.192   0.543  1.1497  0.9318  1.0571
    1SOL    HW3 1143   0.792   2.193   0.533  1.2481 -0.2652 -0.8276
    1SOL    MW4 1144   0.867   2.233   0.554  0.6692  0.2582  0.2875
    1SOL     OW 1145   2.673   4.650   0.192 -0.0348 -0.1255  0.2709
    1SOL    HW2 1146   2.647   4.561   0.215  1.0864 -0.4357  0.3666
    1SOL    HW3 1147   2.597   4.704   0.214 -0.8941 -1.1218 -0.2398
    1SOL    MW4 1148   2.659   4.645   0.198 -0.0002 -0.2980  0.2161
    1SOL     OW 1149   0.588   2.756   0.488 -0.1935 -0.3579  0.4815
    1SOL    HW2 1150   0.595   2.837   0.438 -2.6078 -0.8175 -0.6265
    1SOL    HW3 1151   0.509   2.714   0.457  1.2559 -3.4131  0.6856
    1SOL    MW4 1152   0.579   2.761   0.478 -0.3208 -0.8218  0.3623
    1SOL     OW 1153   4.389   2.000   0.480  0.2295  0.3964 -0.3471
    1SOL    HW2 1154   4.439   1.919   0.489 -0.7933 -0.4031 -1.6495
    1SOL    HW3 1155   4.352   2.015   0.568  0.4853 -0.5142 -0.0804
    1SOL    MW4 1156   4.391   1.991   0.493  0.1283  0.1708 -0.4838
    1SOL     OW 1157   3.375   3.897   0.758  0.4848  0.1004  0.2917
    1SOL    HW2 1158   3.378   3.802   0.747  2.9582  0.0305  1.3010
    1SOL    HW3 1159   3.395   3.912   0.851 -0.2454  1.5860  0.2320
    1SOL    MW4 1160   3.378   3.887   0.769  0.7145  0.2871  0.4171
    1SOL     OW 1161   3.578   2.425   0.724 -0.2626  0.0355  0.2762
    1SOL    HW2 1162   3.571   2.513   0.762  0.1319  0.7808 -1.3401
    1SOL    HW3 1163   3.507   2.376   0.766 -0.7572  1.2319  0.8926
    1SOL    MW4 1164   3.567   2.430   0.735 -0.2759  0.2916  0.1442
    1SOL     OW 1165   4.486   3.476   0.858  0.0419  0.0451 -0.0460
    1SOL    HW2 1166   4.557   3.530   0.824 -0.1080  2.0436  2.6101
    1SOL    HW3 1167   4.407   3.513   0.818  0.1619  0.3559  0.0014
    1SOL    MW4 1168   4.485   3.488   0.848  0.0381  0.3500  0.3107
    1SOL     OW 1169   0.658   3.654   0.688  0.1407  0.2916  0.1676
    1SOL    HW2 1170   0.575   3.614   0.713 -0.0386  1.0250  0.7605
    1SOL    HW3 1171   0.644   3.682   0.597 -0.4109  0.8087  0.4095
    1SOL    MW4 1172   0.645   3.653   0.679  0.0443  0.4568  0.2778
    1SOL     OW 1173   2.528   3.701   0.483  0.2614  0.2407 -0.3015
    1SOL    HW2 1174   2.570   3.619   0.457 -0.1906 -0.1237  0.1254
    1SOL    HW3 1175   2.441   3.697   0.443  0.9447  1.4016 -1.9580
    1SOL    MW4 1176   2.522   3.690   0.474  0.2918  0.3457 -0.4637
    1SOL     OW 1177   0.414   4.549   0.404  0.0649  0.2905 -0.5025
    1SOL    HW2 1178   0.499   4.527   0.442 -1.0051 -0.7934  1.3503
    1SOL    HW3 1179   0.369   4.465   0.395 -1.4161  1.0040  0.0426
    1SOL    MW4 1180   0.419   4.535   0.408 -0.2717  0.2413 -0.1861
    1SOL     OW 1181   0.457   4.278   0.821 -0.1850 -0.3187 -0.3063
    1SOL    HW2 1182   0.452   4.276   0.917 -0.4617 -0.9311 -0.3288
    1SOL    HW3 1183   0.386   4.337   0.795  0.5307  0.6362 -0.0914
    1SOL    MW4 1184   0.447   4.286   0.830 -0.1271 -0.2737 -0.2809
    1SOL     OW 1185   0.687   4.422   0.756  0.7034  0.0512  0.3216
    1SOL    HW2 1186   0.767   4.373   0.775  0.8181 -0.5377 -1.5965
    1SOL    HW3 1187   0.617   4.364   0.784  0.9116  0.5642  2.0009
    1SOL    MW4 1188   0.689   4.408   0.762  0.7460  0.0410  0.2900
    1SOL     OW 1189   2.237   1.429   0.320  0.1471  0.1523  0.4933
    1SOL    HW2 1190   2.257   1.400   0.231  0.3815 -1.1083  0.9540
    1SOL    HW3 1191   2.163   1.376   0.347 -0.3240  0.9790  0.8238
    1SOL    MW4 1192   2.230   1.418   0.312  0.1159  0.0950  0.5977
    1SOL     OW 1193   1.764   1.138   0.802 -0.1338  0.4587  0.3259
    1SOL    HW2 1194   1.702   1.210   0.806 -1.3730 -0.5296 -0.6494
    1SOL    HW3 1195   1.847   1.179   0.775 -0.7301  1.5622  0.1533
    1SOL    MW4 1196   1.767   1.153   0.799 -0.3759  0.4739  0.1744
    1SOL     OW 1197   1.613   0.492   0.456  0.3491 -0.1616 -0.2468
    1SOL    HW2 1198   1.679   0.525   0.394  2.5703 -2.8772  0.5429
    1SOL    HW3 1199   1.599   0.401   0.429 -1.7436 -0.1566  0.7579
    1SOL    MW4 1200   1.620   0.484   0.444  0.3662 -0.5192 -0.0100
    1SOL     OW 1201   1.150   0.757   0.827 -0.3836 -0.2096 -0.0541
    1SOL    HW2 1202   1.152   0.749   0.923  1.3662  1.0588  0.0419
    1SOL    HW3 1203   1.116   0.673   0.797 -1.0824 -0.5736  1.6885
    1SOL    MW4 1204   1.146   0.745   0.836 -0.2450 -0.0902  0.1885
    1SOL     OW 1205   3.810   0.480   0.768 -0.5300  0.6960  0.2605
    1SOL    HW2 1206   3.828   0.506   0.678  0.0727  0.1724  0.2285
    1SOL    HW3 1207   3.805   0.563   0.816  0.1158  0.9362 -0.0787
    1SOL    MW4 1208   3.812   0.494   0.763 -0.3650  0.6586  0.2115
    1SOL     OW 1209   2.247   0.637   0.350 -0.1722  0.5250  0.4639
    1SOL    HW2 1210   2.328   0.587   0.353  0.0892  0.9033 -0.3300
    1SOL    HW3 1211   2.271   0.725   0.379 -0.5154  0.3554  1.2850
    1SOL    MW4 1212   2.261   0.642   0.355 -0.1829  0.5525  0.4674
    1SOL     OW 1213   1.127   1.264   0.538  0.1709  0.3375 -0.2375
    1SOL    HW2 1214   1.054   1.310   0.498  0.4373  0.0551 -1.0505
    1SOL    HW3 1215   1.125   1.177   0.499  1.6581  0.6991 -1.1684
    1SOL    MW4 1216   1.117   1.259   0.528  0.4022  0.3480 -0.4676
    1SOL     OW 1217   0.647   0.848   0.888 -0.2259  0.3946 -0.9319
    1SOL    HW2 1218   0.737   0.832   0.860 -0.7734  0.1641 -2.6252
    1SOL    HW3 1219   0.598   0.772   0.856 -0.6208 -0.6721  2.0668
    1SOL    MW4 1220   0.652   0.836   0.880 -0.3502  0.2235 -0.7597
    1SOL     OW 1221   0.707   1.536   0.809  0.1844 -0.2290 -0.2490
    1SOL    HW2 1222   0.791   1.552   0.766  0.5430  1.3652  0.9709
    1SOL    HW3 1223   0.728   1.538   0.903 -1.1067 -0.4844  0.0513
    1SOL    MW4 1224   0.721   1.539   0.816  0.0613 -0.0525 -0.0485
    1SOL     OW 1225   3.784   2.052   0.750 -0.4208 -0.1387 -0.2505
    1SOL    HW2 1226   3.765   2.045   0.656 -0.7162 -0.9063 -0.1374
    1SOL    HW3 1227   3.861   1.997   0.764 -0.2864  0.0946 -0.0675
    1SOL    MW4 1228   3.791   2.044   0.739 -0.4420 -0.2093 -0.2114
    1SOL     OW 1229   1.301   2.422   0.478 -0.1734 -0.3479 -0.0233
    1SOL    HW2 1230   1.307   2.337   0.435 -0.1573 -0.6826  0.6282
    1SOL    HW3 1231   1.207   2.439   0.487 -0.1875 -0.9258  1.0495
    1SOL    MW4 1232   1.290   2.413   0.474 -0.1731 -0.4685  0.2042
    1SOL     OW 1233   2.922   0.508   0.743 -0.0449 -0.3891 -0.2462
    1SOL    HW2 1234   2.909   0.584   0.799  0.7161  0.1125 -0.7450
    1SOL    HW3 1235   2.996   0.461   0.782 -0.9146 -1.2279  0.4294
    1SOL    MW4 1236   2.930   0.512   0.755 -0.0591 -0.4336 -0.2228
    1SOL     OW 1237   3.358   4.146   0.391  0.6286  0.4524  0.3010
    1SOL    HW2 1238   3.369   4.229   0.345  0.5969  0.9173  1.1248
    1SOL    HW3 1239   3.447   4.119   0.413  0.5942  0.5817  0.5926
    1SOL    MW4 1240   3.371   4.153   0.388  0.6199  0.5307  0.4482
    1SOL     OW 1241   0.233   4.426   0.748  0.1714 -0.0972 -0.4509
    1SOL    HW2 1242   0.211   4.515   0.777  1.0578  0.0239 -0.1415
    1SOL    HW3 1243   0.161   4.372   0.782  0.4125  0.2729  0.6967
    1SOL    MW4 1244   0.221   4.430   0.757  0.3201 -0.0319 -0.2587
    1SOL     OW 1245   1.344   1.681   0.476  0.6259 -0.4872  0.5076
    1SOL    HW2 1246   1.325   1.592   0.446  0.6207 -0.3907  0.2203
    1SOL    HW3 1247   1.267   1.732   0.451  0.0635 -0.6642  1.8387
    1SOL    MW4 1248   1.331   1.676   0.469  0.5509 -0.4977  0.6453
    1SOL     OW 1249   0.820   0.049   0.488  0.1963  0.0204  0.1232
    1SOL    HW2 1250   0.893   0.094   0.445 -0.0977  0.7203  0.3560
    1SOL    HW3 1251   0.749   0.113   0.488 -0.4783 -0.7132 -0.2595
    1SOL    MW4 1252   0.821   0.063   0.482  0.0685  0.0159  0.1034
    1SOL     OW 1253   0.450   2.144   0.360  0.0183  0.1673  0.5102
    1SOL    HW2 1254   0.492   2.093   0.291  0.9245 -0.4917  1.5214
    1SOL    HW3 1255   0.387   2.083   0.400 -0.7557  0.6543  0.0413
    1SOL    MW4 1256   0.447   2.129   0.356  0.0357  0.1445  0.5818
    1SOL     OW 1257   1.397   3.031   0.176 -0.1199 -0.3161 -0.3525
    1SOL    HW2 1258   1.459   2.995   0.113  1.6339 -0.1511  1.2253
    1SOL    HW3 1259   1.450   3.087   0.233 -1.5469 -0.8708  1.5782
    1SOL    MW4 1260   1.412   3.034   0.175 -0.0769 -0.3674  0.1104
    1SOL     OW 1261   2.503   1.312   0.451 -0.2013  0.3206  0.2452
    1SOL    HW2 1262   2.420   1.338   0.409 -0.5275  0.0381  0.7119
    1SOL    HW3 1263   2.571   1.349   0.395 -0.6356 -0.1574 -0.6063
    1SOL    MW4 1264   2.501   1.320   0.438 -0.3014  0.2203  0.1944
    1SOL     OW 1265   2.641   3.967   0.463 -0.3707 -0.1134  0.0096
    1SOL    HW2 1266   2.606   3.878   0.462  0.5149 -0.4725 -0.6589
    1SOL    HW3 1267   2.655   3.987   0.556 -1.4908 -0.2946  0.2158
    1SOL    MW4 1268   2.638   3.958   0.475 -0.4015 -0.1848 -0.0514
    1SOL     OW 1269   3.417   3.614   0.702 -0.1684 -0.4141  0.3241
    1SOL    HW2 1270   3.486   3.564   0.745  0.5898  0.2536 -0.1162
    1SOL    HW3 1271   3.339   3.559   0.711  0.4945 -1.3396  0.4804
    1SOL    MW4 1272   3.415   3.600   0.709  0.0191 -0.4478  0.2866
    1SOL     OW 1273   0.286   1.926   0.499  0.0267 -0.7099 -0.0468
    1SOL    HW2 1274   0.210   1.872   0.480 -0.4428 -0.1292  0.1933
    1SOL    HW3 1275   0.272   1.958   0.588  0.9033 -1.1989  0.2822
    1SOL    MW4 1276   0.274   1.923   0.508  0.0804 -0.6979  0.0284
    1SOL     OW 1277   1.114   4.366   0.705  0.0537  0.3533 -0.0054
    1SOL    HW2 1278   1.108   4.381   0.610 -0.3099  0.0233 -0.0341
    1SOL    HW3 1279   1.146   4.449   0.740  0.9687  0.2183 -0.5059
    1SOL    MW4 1280   1.118   4.379   0.697  0.1266  0.2923 -0.0752
    1SOL     OW 1281   1.803   2.468   0.807 -0.0727 -0.1821  0.1259
    1SOL    HW2 1282   1.802   2.564   0.817 -0.2013 -0.2267  0.5296
    1SOL    HW3 1283   1.716   2.440   0.833 -0.2073 -0.3652 -0.5012
    1SOL    MW4 1284   1.792   2.477   0.812 -0.1074 -0.2122  0.0964
    1SOL     OW 1285   1.584   0.025   0.778  0.0440 -0.3917 -0.4202
    1SOL    HW2 1286   1.584  -0.012   0.866 -0.8245 -0.7634 -0.5730
    1SOL    HW3 1287   1.562  -0.049   0.721 -2.9126  0.5772 -0.6155
    1SOL    MW4 1288   1.581   0.010   0.782 -0.4606 -0.3130 -0.4661
    1SOL     OW 1289   1.137   4.654   0.817  0.0383  0.0563  0.1823
    1SOL    HW2 1290   1.200   4.705   0.765  0.3855 -0.0504  0.4927
    1SOL    HW3 1291   1.052   4.674   0.778  0.1798  0.8041  0.2431
    1SOL    MW4 1292   1.134   4.663   0.805  0.1029  0.1411  0.2313
    1SOL     OW 1293   1.344   0.356   0.841 -0.3194  0.1734 -0.5299
    1SOL    HW2 1294   1.360   0.383   0.931  0.3505 -1.3127 -0.1942
    1SOL    HW3 1295   1.406   0.408   0.789  0.0443  0.2376 -0.0274
    1SOL    MW4 1296   1.354   0.366   0.846 -0.1831 -0.0142 -0.4194
    1SOL     OW 1297   1.541   0.527   0.727  0.0071  0.8783 -0.6534
    1SOL    HW2 1298   1.570   0.538   0.636 -1.6530  0.3407 -1.2557
    1SOL    HW3 1299   1.553   0.614   0.766  1.1674  0.9999 -1.2485
    1SOL    MW4 1300   1.547   0.540   0.720 -0.0590  0.8234 -0.8114
    1SOL     OW 1301   3.133   1.826   0.341  0.2689 -0.4925 -0.1843
    1SOL    HW2 1302   3.075   1.895   0.308 -0.1683 -0.3102  0.9065
    1SOL    HW3 1303   3.203   1.874   0.387  1.5900 -0.6976 -1.9644
    1SOL    MW4 1304   3.134   1.842   0.343  0.3855 -0.4956 -0.2752
    1SOL     OW 1305   0.903   0.878   0.802 -0.0275  0.5520 -0.2779
    1SOL    HW2 1306   0.900   0.901   0.709 -0.4526 -1.8133 -0.8817
    1SOL    HW3 1307   0.989   0.838   0.813 -0.0243  0.7304  0.3389
    1SOL    MW4 1308   0.914   0.876   0.791 -0.0832  0.2634 -0.2761
    1SOL     OW 1309   1.358   1.168   0.889  0.3676 -0.8551  0.0788
    1SOL    HW2 1310   1.340   1.160   0.983 -0.5693 -1.1279 -0.1213
    1SOL    HW3 1311   1.282   1.214   0.853  0.7544 -0.6912 -0.5367
    1SOL    MW4 1312   1.346   1.173   0.897  0.2950 -0.8695 -0.0288
    1SOL     OW 1313   3.370   2.034   0.757  0.7617  0.0460 -0.5873
    1SOL    HW2 1314   3.372   1.994   0.670  1.3536  0.1829 -0.6409
    1SOL    HW3 1315   3.443   1.993   0.804  0.4598 -0.0073 -0.1637
    1SOL    MW4 1316   3.380   2.023   0.751  0.7999  0.0567 -0.5385
    1SOL     OW 1317   0.448   3.379   0.335  0.1168  0.0811  0.1320
    1SOL    HW2 1318   0.492   3.334   0.263  0.5157 -0.1389  0.5139
    1SOL    HW3 1319   0.360   3.397   0.301  0.1419 -0.4647 -0.2349
    1SOL    MW4 1320   0.442   3.376   0.321  0.1728 -0.0200  0.1339
    1SOL     OW 1321   3.711   1.364   0.468  0.7230 -0.4104 -0.5315
    1SOL    HW2 1322   3.750   1.443   0.431 -2.1078  1.5804  0.5834
    1SOL    HW3 1323   3.625   1.358   0.427  0.0705 -1.7094  0.9757
    1SOL    MW4 1324   3.705   1.374   0.458  0.2637 -0.3191 -0.1855
    1SOL     OW 1325   1.815   1.401   0.365  0.2169 -0.2345 -0.0748
    1SOL    HW2 1326   1.803   1.405   0.270 -2.8724 -1.3349  0.2209
    1SOL    HW3 1327   1.800   1.490   0.395 -2.2733 -0.5476 -0.2968
    1SOL    MW4 1328   1.811   1.413   0.356 -0.5192 -0.4210 -0.0651
    1SOL     OW 1329   3.524   2.154   0.371  0.7110  0.0389  0.3531
    1SOL    HW2 1330   3.534   2.173   0.278 -0.1731  0.4290  0.3412
    1SOL    HW3 1331   3.609   2.117   0.396  0.5547 -1.1730 -0.8646
    1SOL    MW4 1332   3.537   2.152   0.362  0.5736 -0.0691  0.1908
    1SOL     OW 1333   3.612   4.030   0.392  0.1039 -0.6928 -0.3060
    1SOL    HW2 1334   3.637   3.941   0.369  0.2957 -0.3548 -1.4005
    1SOL    HW3 1335   3.600   4.027   0.487  0.3306 -1.8255 -0.3043
    1SOL    MW4 1336   3.614   4.018   0.402  0.1590 -0.7968 -0.4502
    1SOL     OW 1337   1.054   3.586   0.854  0.4541  0.2338  0.1777
    1SOL    HW2 1338   1.143   3.556   0.835  0.2854  0.0504 -0.3127
    1SOL    HW3 1339   0.999   3.541   0.791 -0.1270 -0.5360  1.2321
    1SOL    MW4 1340   1.058   3.576   0.843  0.3551  0.1080  0.2521
    1SOL     OW 1341   0.871   2.678   0.796  0.1196 -0.1781  0.3182
    1SOL    HW2 1342   0.889   2.695   0.888 -0.7190  1.5217  0.1831
    1SOL    HW3 1343   0.781   2.708   0.783  0.3420 -0.0981 -1.1214
    1SOL    MW4 1344   0.861   2.684   0.806  0.0383  0.0567  0.1104
    1SOL     OW 1345   1.594   2.854   0.702  0.1368 -0.5128  0.0769
    1SOL    HW2 1346   1.581   2.946   0.722  0.8674 -0.3828 -0.0045
    1SOL    HW3 1347   1.517   2.810   0.736 -1.2691  0.3988 -1.8241
    1SOL    MW4 1348   1.582   2.860   0.709  0.0477 -0.3755 -0.1847
    1SOL     OW 1349   3.468   4.380   0.278 -0.2823  0.4950  0.4264
    1SOL    HW2 1350   3.431   4.404   0.193  0.5823 -0.7871 -0.3377
    1SOL    HW3 1351   3.405   4.413   0.342 -1.6767  0.2034 -0.7633
    1SOL    MW4 1352   3.455   4.387   0.275 -0.3524  0.2875  0.1687
    1SOL     OW 1353   4.058   4.192   0.377 -0.1183 -0.3948 -0.2804
    1SOL    HW2 1354   4.107   4.273   0.393 -1.2284  0.6148 -1.8127
    1SOL    HW3 1355   3.967   4.221   0.365 -0.7780 -2.0387  0.6550
    1SOL    MW4 1356   4.053   4.206   0.378 -0.3514 -0.4783 -0.3592
    1SOL     OW 1357   0.892   3.965   0.660  0.3775 -0.3444  0.0456
    1SOL    HW2 1358   0.833   3.940   0.732 -0.8112 -1.5950 -1.3271
    1SOL    HW3 1359   0.968   3.908   0.670  0.4725 -0.1186  0.6409
    1SOL    MW4 1360   0.894   3.954   0.671  0.2332 -0.4795 -0.0570
    1SOL     OW 1361   4.043   4.248   0.823  0.0488  0.4906  0.1650
    1SOL    HW2 1362   3.976   4.304   0.784  0.4992  0.6454 -0.4017
    1SOL    HW3 1363   4.126   4.289   0.796  0.3786 -0.4323 -0.2278
    1SOL    MW4 1364   4.045   4.261   0.814  0.1516  0.3886  0.0384
    1SOL     OW 1365   2.271   3.249   0.763 -0.0874 -0.3437 -0.1585
    1SOL    HW2 1366   2.191   3.206   0.793 -0.1114  0.4876  0.9609
    1SOL    HW3 1367   2.341   3.207   0.814 -0.0381  0.4626  0.4363
    1SOL    MW4 1368   2.270   3.238   0.774 -0.0842 -0.1276  0.0677
    1SOL     OW 1369   2.218   1.674   0.723 -0.2328 -0.4014  0.1346
    1SOL    HW2 1370   2.284   1.624   0.772 -0.3524 -1.6369 -0.9204
    1SOL    HW3 1371   2.222   1.762   0.760  1.4177 -0.6766  0.6659
    1SOL    MW4 1372   2.227   1.679   0.734 -0.0308 -0.6007  0.0655
    1SOL     OW 1373   2.022   4.363   0.784  0.1434  0.1311 -0.0559
    1SOL    HW2 1374   2.019   4.347   0.690  0.4676 -0.9703  0.1122
    1SOL    HW3 1375   1.933   4.347   0.814  0.0460  0.4566 -0.1759
    1SOL    MW4 1376   2.010   4.359   0.776  0.1736  0.0286 -0.0497
    1SOL     OW 1377   2.265   3.706   0.368  0.1574  0.2019 -0.4961
    1SOL    HW2 1378   2.257   3.800   0.384  0.3103  0.0919  0.2563
    1SOL    HW3 1379   2.193   3.667   0.418 -0.2607 -0.0383 -1.2787
    1SOL    MW4 1380   2.255   3.713   0.377  0.1225  0.1557 -0.5001
    1SOL     OW 1381   2.451   4.655   0.862  0.2308 -0.2865 -0.2782
    1SOL    HW2 1382   2.451   4.651   0.958  0.2577  0.8841 -0.2200
    1SOL    HW3 1383   2.448   4.563   0.834  0.1848 -0.6350  0.8403
    1SOL    MW4 1384   2.451   4.642   0.871  0.2284 -0.1779 -0.1230
    1SOL     OW 1385   1.897   3.366   0.478  0.7261  0.0321  0.3081
    1SOL    HW2 1386   1.965   3.300   0.464  0.8496  0.0700  0.7320
    1SOL    HW3 1387   1.841   3.360   0.400 -0.6811 -2.2671  1.4357
    1SOL    MW4 1388   1.898   3.357   0.466  0.5567 -0.2663  0.5128
    1SOL     OW 1389   1.784   0.380   0.833  0.3608  0.1977  0.0927
    1SOL    HW2 1390   1.699   0.415   0.805  0.1752 -0.0709  0.3171
    1SOL    HW3 1391   1.790   0.295   0.789  0.2710 -0.0229  0.5077
    1SOL    MW4 1392   1.773   0.374   0.823  0.3245  0.1332  0.1771
    1SOL     OW 1393   3.272   4.495   0.451  0.0802  0.0251 -0.1346
    1SOL    HW2 1394   3.235   4.583   0.452 -0.3780 -0.1703 -0.0486
    1SOL    HW3 1395   3.314   4.485   0.537 -0.4508 -0.0926  0.1092
    1SOL    MW4 1396   3.273   4.505   0.463 -0.0505 -0.0162 -0.0911
    1SOL     OW 1397   2.498   4.145   0.290  0.0413 -0.0676  1.0527
    1SOL    HW2 1398   2.533   4.073   0.343  0.4430  0.8216  2.0027
    1SOL    HW3 1399   2.518   4.120   0.199  0.6780 -0.8749  1.4144
    1SOL    MW4 1400   2.505   4.132   0.285  0.1783 -0.0567  1.2258
    1SOL     OW 1401   1.586   3.125   0.762  0.0916 -0.0589 -0.2699
    1SOL    HW2 1402   1.587   3.123   0.858 -0.1957 -1.2485 -0.2793
    1SOL    HW3 1403   1.495   3.144   0.740 -0.0159 -0.5951 -0.3047
    1SOL    MW4 1404   1.574   3.127   0.772  0.0396 -0.2861 -0.2757
    1SOL     OW 1405   3.569   3.486   0.284 -0.2123 -0.1140 -0.3774
    1SOL    HW2 1406   3.511   3.534   0.344  0.3897  0.0579  0.0767
    1SOL    HW3 1407   3.562   3.533   0.201  0.8822  1.1877  0.2427
    1SOL    MW4 1408   3.561   3.499   0.281  0.0117  0.0803 -0.2357
    1SOL     OW 1409   1.530   3.156   0.385  0.1735 -0.2729 -0.5507
    1SOL    HW2 1410   1.549   3.068   0.418  0.9280 -0.1217 -0.5703
    1SOL    HW3 1411   1.615   3.190   0.358 -0.0383  0.6613 -0.0601
    1SOL    MW4 1412   1.544   3.149   0.386  0.2450 -0.1297 -0.4886
    1SOL     OW 1413   2.405   1.539   0.868 -0.1727  0.2020  0.4937
    1SOL    HW2 1414   2.403   1.445   0.851  1.3480 -0.2888  2.7464
    1SOL    HW3 1415   2.491   1.567   0.838 -0.9209  1.0674 -0.9179
    1SOL    MW4 1416   2.416   1.530   0.862 -0.0706  0.2514  0.6046
    1SOL     OW 1417   4.039   3.975   0.747  0.2437  0.1329  0.3542
    1SOL    HW2 1418   4.060   3.970   0.653 -1.8089  0.8779 -0.1750
    1SOL    HW3 1419   4.029   4.069   0.764 -1.1021 -0.0894  0.8992
    1SOL    MW4 1420   4.040   3.987   0.737 -0.2046  0.2017  0.3564
    1SOL     OW 1421   1.321   2.848   0.380 -0.3339 -0.2776 -0.5522
    1SOL    HW2 1422   1.344   2.766   0.337 -1.7936 -0.5490 -0.8663
    1SOL    HW3 1423   1.311   2.911   0.308  0.3749  0.0741 -0.3466
    1SOL    MW4 1424   1.323   2.846   0.365 -0.4330 -0.2670 -0.5665
    1SOL     OW 1425   3.054   1.611   0.516  0.0984  0.1093 -0.0872
    1SOL    HW2 1426   3.079   1.687   0.462  3.2513  0.2382  1.4365
    1SOL    HW3 1427   3.071   1.536   0.460 -1.4574  0.4203 -1.0166
    1SOL    MW4 1428   3.059   1.611   0.502  0.3090  0.1674 -0.0089
    1SOL     OW 1429   1.578   2.065   0.507  0.3367 -0.0565 -0.2877
    1SOL    HW2 1430   1.660   2.098   0.470 -0.1275  0.2026 -1.0815
    1SOL    HW3 1431   1.576   1.973   0.482 -0.4322  0.3426 -1.7236
    1SOL    MW4 1432   1.589   2.057   0.499  0.1740  0.0303 -0.5818
    1SOL     OW 1433   3.639   1.110   0.819 -0.0138  0.3843 -0.5374
    1SOL    HW2 1434   3.630   1.019   0.789 -0.5404 -0.0424  0.8480
    1SOL    HW3 1435   3.627   1.104   0.914  1.3893  1.7103 -0.2647
    1SOL    MW4 1436   3.636   1.097   0.828  0.1018  0.5029 -0.3186
    1SOL     OW 1437   1.174   4.097   0.483 -0.2468  0.0719  1.0296
    1SOL    HW2 1438   1.258   4.059   0.459 -0.1080  1.3980 -0.6570
    1SOL    HW3 1439   1.110   4.049   0.431 -0.3105  0.5085  0.7008
    1SOL    MW4 1440   1.177   4.086   0.473 -0.2369  0.3042  0.7637
    1SOL     OW 1441   1.143   2.055   0.793 -0.3042 -0.1751 -0.1338
    1SOL    HW2 1442   1.059   2.010   0.796  0.0984 -0.9397 -0.1189
    1SOL    HW3 1443   1.206   1.990   0.825  0.3712  0.1922 -0.6908
    1SOL    MW4 1444   1.140   2.041   0.798 -0.1619 -0.2277 -0.2053
    1SOL     OW 1445   3.389   0.258   0.470  0.3682  0.9074 -0.3092
    1SOL    HW2 1446   3.319   0.196   0.493  0.8403  0.1815 -0.7827
    1SOL    HW3 1447   3.464   0.202   0.452  1.6112  1.7678  2.0536
    1SOL    MW4 1448   3.389   0.242   0.471  0.5946  0.9251 -0.0599
    1SOL     OW 1449   2.908   2.825   0.466 -0.3219 -0.1257 -0.1839
    1SOL    HW2 1450   2.984   2.774   0.438  0.1227  0.0934  0.6157
    1SOL    HW3 1451   2.832   2.773   0.439  0.1251 -0.9550  0.1439
    1SOL    MW4 1452   2.908   2.812   0.459 -0.2041 -0.2062 -0.0351
    1SOL     OW 1453   1.822   3.515   0.799  0.0947  0.0774  0.0933
    1SOL    HW2 1454   1.831   3.524   0.894  1.3505  0.3148 -0.0454
    1SOL    HW3 1455   1.814   3.420   0.784  0.3320  0.0097  0.4002
    1SOL    MW4 1456   1.822   3.504   0.809  0.2917  0.0997  0.1156
    1SOL     OW 1457   4.381   2.919   0.407  0.4209 -0.5388  0.2118
    1SOL    HW2 1458   4.457   2.861   0.408 -0.0863 -1.2286 -0.3442
    1SOL    HW3 1459   4.305   2.860   0.404 -0.1387  0.1387  0.8086
    1SOL    MW4 1460   4.381   2.904   0.407  0.2804 -0.5405  0.2172
    1SOL     OW 1461   2.069   0.783   0.172 -0.2804 -0.3296 -0.5638
    1SOL    HW2 1462   1.976   0.760   0.180 -0.3446 -0.2990 -1.1913
    1SOL    HW3 1463   2.115   0.718   0.225 -0.7145  0.0975  0.3606
    1SOL    MW4 1464   2.062   0.772   0.180 -0.3462 -0.2692 -0.5246
    1SOL     OW 1465   0.869   0.328   0.826  0.1033  0.1295 -0.7330
    1SOL    HW2 1466   0.882   0.234   0.811 -0.4902 -0.2203  0.9127
    1SOL    HW3 1467   0.865   0.337   0.921 -0.5945  1.7270 -0.9070
    1SOL    MW4 1468   0.870   0.317   0.836 -0.0671  0.2941 -0.5388
    1SOL     OW 1469   4.436   4.014   0.453 -0.1611 -0.1497 -0.6141
    1SOL    HW2 1470   4.472   4.019   0.542  0.1718 -0.7711 -0.7074
    1SOL    HW3 1471   4.500   3.963   0.404 -1.1035 -1.1899 -0.8055
    1SOL    MW4 1472   4.449   4.008   0.458 -0.2408 -0.3691 -0.6516
    1SOL     OW 1473   1.763   4.464   0.408 -0.4104  0.0848  0.1447
    1SOL    HW2 1474   1.801   4.551   0.396 -0.8583  0.2539 -0.0904
    1SOL    HW3 1475   1.834   4.411   0.444 -0.6457  0.9976  2.0026
    1SOL    MW4 1476   1.777   4.468   0.411 -0.5006  0.2275  0.3588
    1SOL     OW 1477   0.559   1.954   0.203 -0.5581 -0.0482  0.0478
    1SOL    HW2 1478   0.618   1.905   0.260 -0.6231  0.6667  0.7348
    1SOL    HW3 1479   0.539   1.893   0.132  0.3714 -0.5690  0.2248
    1SOL    MW4 1480   0.564   1.939   0.201 -0.4441 -0.0224  0.1618
    1SOL     OW 1481   2.254   0.347   1.126 -0.1224  0.4774 -0.0352
    1SOL    HW2 1482   2.242   0.343   1.032  0.9552  1.9462 -0.2694
    1SOL    HW3 1483   2.179   0.398   1.158  0.0934  0.9421 -0.2532
    1SOL    MW4 1484   2.243   0.353   1.118  0.0482  0.7325 -0.0949
    1SOL     OW 1485   4.236   0.592   0.783  0.0284  0.2214  0.1231
    1SOL    HW2 1486   4.220   0.601   0.689 -0.1504  0.7954  0.2069
    1SOL    HW3 1487   4.326   0.561   0.790 -0.1495 -0.3976 -0.2592
    1SOL    MW4 1488   4.246   0.589   0.772 -0.0186  0.2155  0.0837
    1SOL     OW 1489   2.772   0.956   0.411 -0.0471 -0.5268  0.0570
    1SOL    HW2 1490   2.741   0.945   0.501 -1.1402 -0.6201 -0.3161
    1SOL    HW3 1491   2.826   0.879   0.394 -1.8521 -1.7820 -0.1652
    1SOL    MW4 1492   2.775   0.944   0.420 -0.4296 -0.7047 -0.0215
    1SOL     OW 1493   3.054   1.584   0.190  0.0941  0.4992 -0.0443
    1SOL    HW2 1494   3.086   1.671   0.212  0.9463  0.3904 -0.8159
    1SOL    HW3 1495   2.960   1.595   0.177  0.1281  1.2139  0.3039
    1SOL    MW4 1496   3.046   1.597   0.191  0.2110  0.5792 -0.1001
    1SOL     OW 1497   2.506   1.268   0.744  0.0224 -0.3286  0.4214
    1SOL    HW2 1498   2.523   1.273   0.650  0.6228 -0.6216  0.5106
    1SOL    HW3 1499   2.416   1.235   0.750  0.0822 -0.5825 -0.0493
    1SOL    MW4 1500   2.496   1.264   0.732  0.1097 -0.4007  0.3711
    1SOL     OW 1501   2.258   1.169   0.827 -0.6530  0.0959 -0.1259
    1SOL    HW2 1502   2.246   1.083   0.787  1.0964 -0.8929  1.4191
    1SOL    HW3 1503   2.253   1.153   0.921  1.4268  1.3721  0.2341
    1SOL    MW4 1504   2.256   1.156   0.834 -0.1478  0.1338  0.1255
    1SOL     OW 1505   1.600   1.571   0.889  0.1751  0.1916 -0.1642
    1SOL    HW2 1506   1.590   1.557   0.983  1.0539 -1.6179 -0.3322
    1SOL    HW3 1507   1.593   1.484   0.851  0.4310  0.8458 -1.7261
    1SOL    MW4 1508   1.597   1.558   0.897  0.3250  0.0391 -0.3925
    1SOL     OW 1509   3.174   0.864   0.715  0.0911  0.0823 -0.0145
    1SOL    HW2 1510   3.252   0.824   0.752  0.0069 -0.3987 -0.3620
    1SOL    HW3 1511   3.180   0.956   0.742  0.1789 -0.1955  0.9493
    1SOL    MW4 1512   3.185   0.871   0.724  0.0916 -0.0178  0.0668
    1SOL     OW 1513   1.312   0.604   0.463  0.0971 -0.0408 -0.1431
    1SOL    HW2 1514   1.236   0.552   0.488  0.2373  0.0068  0.3857
    1SOL    HW3 1515   1.381   0.540   0.445  0.1062 -0.0565 -0.0480
    1SOL    MW4 1516   1.311   0.589   0.464  0.1167 -0.0367 -0.0608
    1SOL     OW 1517   2.264   1.925   0.848  0.0130  0.1776  0.0579
    1SOL    HW2 1518   2.190   1.984   0.830 -0.0481  0.2839  0.6677
    1SOL    HW3 1519   2.335   1.960   0.795 -0.3340  0.1593 -0.4242
    1SOL    MW4 1520   2.263   1.938   0.838 -0.0410  0.1893  0.0748
    1SOL     OW 1521   2.457   3.399   0.269  0.4598 -0.1306 -0.4043
    1SOL    HW2 1522   2.403   3.476   0.255 -1.7799 -1.8873 -1.5881
    1SOL    HW3 1523   2.436   3.371   0.358  0.1421 -0.2669 -0.5237
    1SOL    MW4 1524   2.447   3.406   0.279  0.1223 -0.3800 -0.5762
    1SOL     OW 1525   3.413   2.828   0.534  0.5693 -0.0665 -0.0147
    1SOL    HW2 1526   3.384   2.821   0.625  1.3988  0.1609  0.2695
    1SOL    HW3 1527   3.390   2.743   0.496  0.4125 -0.2434  0.4616
    1SOL    MW4 1528   3.406   2.816   0.541  0.6580 -0.0598  0.0856
    1SOL     OW 1529   2.249   2.457   0.795  0.1191 -0.4379 -0.3489
    1SOL    HW2 1530   2.183   2.411   0.847 -0.4320 -1.0990 -1.6001
    1SOL    HW3 1531   2.242   2.549   0.823 -1.1242 -0.5531 -0.2289
    1SOL    MW4 1532   2.239   2.463   0.806 -0.1178 -0.5405 -0.4982
    1SOL     OW 1533   2.250   2.722   0.870 -0.2023 -0.0080  0.0438
    1SOL    HW2 1534   2.270   2.719   0.963  1.1444 -1.3437 -0.2570
    1SOL    HW3 1535   2.331   2.753   0.829 -0.5154 -0.2245 -0.7521
    1SOL    MW4 1536   2.263   2.725   0.877 -0.0660 -0.2129 -0.1009
    1SOL     OW 1537   1.621   4.111   0.462 -0.1477  0.2708 -0.0477
    1SOL    HW2 1538   1.580   4.179   0.409  0.5611  0.3556 -0.4926
    1SOL    HW3 1539   1.606   4.138   0.553  0.5851  1.2895 -0.2200
    1SOL    MW4 1540   1.613   4.123   0.467  0.0424  0.4163 -0.1291
    1SOL     OW 1541   1.778   4.276   0.859 -0.0622 -0.2862 -0.4088
    1SOL    HW2 1542   1.789   4.284   0.954  0.8965 -0.6188 -0.4842
    1SOL    HW3 1543   1.795   4.183   0.841 -2.6945 -0.7629 -0.6038
    1SOL    MW4 1544   1.782   4.265   0.869 -0.2830 -0.3929 -0.4445
    1SOL     OW 1545   2.315   3.284   0.488  0.2626  0.0435  0.1581
    1SOL    HW2 1546   2.232   3.256   0.450  0.2985 -0.6406  0.5642
    1SOL    HW3 1547   2.304   3.272   0.582  0.9569 -0.4372  0.1847
    1SOL    MW4 1548   2.303   3.278   0.496  0.3588 -0.1101  0.2152
    1SOL     OW 1549   3.111   2.629   0.371  0.2008  0.0390  0.0779
    1SOL    HW2 1550   3.192   2.586   0.396  1.3035  1.0010 -1.7006
    1SOL    HW3 1551   3.063   2.562   0.321 -0.2378 -0.6083  1.3400
    1SOL    MW4 1552   3.115   2.614   0.367  0.2882  0.0806  0.0097
    1SOL     OW 1553   1.575   3.669   0.320 -0.0075 -0.3503 -0.1427
    1SOL    HW2 1554   1.661   3.691   0.357 -0.2097 -0.2360  0.2624
    1SOL    HW3 1555   1.548   3.591   0.368 -0.3771 -0.0641  0.1121
    1SOL    MW4 1556   1.583   3.662   0.331 -0.0830 -0.2973 -0.0557
    1SOL     OW 1557   1.836   4.007   0.741 -0.0203 -0.3378  0.1118
    1SOL    HW2 1558   1.901   3.968   0.799 -0.3845 -1.0576  0.0366
    1SOL    HW3 1559   1.755   3.959   0.758 -0.6420  0.7987  0.4877
    1SOL    MW4 1560   1.834   3.996   0.751 -0.1503 -0.2830  0.1516
    1SOL     OW 1561   3.129   3.994   0.633  0.0139  0.3334 -0.3179
    1SOL    HW2 1562   3.064   3.959   0.693  0.5636  2.4940  1.6098
    1SOL    HW3 1563   3.212   3.957   0.662 -0.1191 -1.1939 -1.8106
    1SOL    MW4 1564   3.131   3.985   0.645  0.0687  0.4170 -0.2606
    1SOL     OW 1565   2.260   2.213   0.434 -0.2493 -0.3580  0.3127
    1SOL    HW2 1566   2.339   2.161   0.447 -0.3676 -0.2562  1.4628
    1SOL    HW3 1567   2.189   2.149   0.432 -0.0655 -0.5295 -1.5785
    1SOL    MW4 1568   2.261   2.198   0.435 -0.2406 -0.3674  0.2149
    1SOL     OW 1569   2.062   1.011   0.335 -0.0791  0.3582  0.2073
    1SOL    HW2 1570   1.972   0.992   0.363 -0.1068 -0.6221 -0.4999
    1SOL    HW3 1571   2.078   0.948   0.265  1.0196  0.8101  0.0521
    1SOL    MW4 1572   2.052   1.000   0.330  0.0622  0.2885  0.0935
    1SOL     OW 1573   2.928   0.781   0.837 -0.2266  0.0272 -0.0673
    1SOL    HW2 1574   2.918   0.778   0.933  0.0956  1.2784  0.0226
    1SOL    HW3 1575   3.012   0.825   0.824  0.4326 -1.4724 -0.9235
    1SOL    MW4 1576   2.938   0.787   0.848 -0.0975 -0.0056 -0.1684
    1SOL     OW 1577   3.214   3.821   0.352 -0.0314  0.4610 -0.1951
    1SOL    HW2 1578   3.283   3.771   0.395  2.0399  2.0028 -1.5845
    1SOL    HW3 1579   3.146   3.757   0.331  1.3077 -1.2322  0.5483
    1SOL    MW4 1580   3.214   3.806   0.355  0.4187  0.4413 -0.2803
    1SOL     OW 1581   2.498   0.752   0.835  0.2284 -0.2646 -0.2410
    1SOL    HW2 1582   2.565   0.792   0.779  0.8057 -0.8223  0.0460
    1SOL    HW3 1583   2.465   0.678   0.784  1.6842 -1.5757  0.6697
    1SOL    MW4 1584   2.503   0.748   0.821  0.4971 -0.5112 -0.0830
    1SOL     OW 1585   1.794   0.919   0.377  0.3437  0.4080  0.0203
    1SOL    HW2 1586   1.705   0.946   0.355  0.7553  2.0562  0.3539
    1SOL    HW3 1587   1.789   0.893   0.469 -0.2979 -1.8030 -0.6057
    1SOL    MW4 1588   1.782   0.919   0.386  0.3133  0.3338 -0.0183
    1SOL     OW 1589   2.883   1.210   0.413 -0.1914  0.2747 -0.1311
    1SOL    HW2 1590   2.908   1.215   0.506  0.5042 -0.1663 -0.2896
    1SOL    HW3 1591   2.854   1.119   0.402  0.6242  0.0626 -0.5664
    1SOL    MW4 1592   2.883   1.198   0.424  0.0079  0.1886 -0.2095
    1SOL     OW 1593   1.064   2.789   0.459 -0.5658  0.1380  0.3089
    1SOL    HW2 1594   0.999   2.856   0.438  0.3337  0.3869 -1.8367
    1SOL    HW3 1595   1.143   2.817   0.414  0.3429 -1.4333  0.8737
    1SOL    MW4 1596   1.066   2.801   0.450 -0.3272 -0.0365  0.1004
    1SOL     OW 1597   3.355   2.541   0.458  0.0615  0.5005 -0.7966
    1SOL    HW2 1598   3.328   2.512   0.545 -1.3745 -1.1008 -1.7423
    1SOL    HW3 1599   3.432   2.488   0.438 -0.0618  0.3201 -0.7979
    1SOL    MW4 1600   3.362   2.530   0.466 -0.1440  0.2654 -0.9215
    1SOL     OW 1601   2.669   1.637   0.778 -0.0121 -0.0256 -0.4691
    1SOL    HW2 1602   2.691   1.613   0.688 -0.9509 -0.4797 -0.5855
    1SOL    HW3 1603   2.698   1.728   0.787  0.1977 -0.0239 -1.1942
    1SOL    MW4 1604   2.676   1.646   0.767 -0.1087 -0.0852 -0.5802
    1SOL     OW 1605   3.091   1.606   0.795 -0.0144 -0.2333 -0.2618
    1SOL    HW2 1606   3.090   1.611   0.699 -0.5557 -0.1861 -0.2546
    1SOL    HW3 1607   3.123   1.692   0.823  0.1608 -0.2531 -0.3968
    1SOL    MW4 1608   3.095   1.618   0.786 -0.0627 -0.2297 -0.2787
    1SOL     OW 1609   0.069   0.414   0.598  0.2558  0.0211 -0.1855
    1SOL    HW2 1610  -0.015   0.373   0.575  1.4472 -2.2979 -0.5732
    1SOL    HW3 1611   0.054   0.453   0.683 -1.5851  0.7258 -0.8039
    1SOL    MW4 1612   0.056   0.413   0.606  0.1701 -0.1918 -0.3182
    1SOL     OW 1613   1.853   2.445   0.539  0.3410  0.2639  0.0276
    1SOL    HW2 1614   1.816   2.463   0.625  0.4147 -1.3360  0.3982
    1SOL    HW3 1615   1.945   2.423   0.556 -0.1147 -1.9264 -0.2584
    1SOL    MW4 1616   1.861   2.445   0.553  0.2906 -0.2363  0.0387
    1SOL     OW 1617   2.730   1.130   0.830  0.3155  0.6246 -0.0495
    1SOL    HW2 1618   2.801   1.166   0.776 -0.6192  0.8353 -1.1651
    1SOL    HW3 1619   2.657   1.191   0.818 -0.2223  0.1323  0.6718
    1SOL    MW4 1620   2.730   1.143   0.821  0.1211  0.5873 -0.1016
    1SOL     OW 1621   2.944   2.300   0.659  0.3177 -0.3354  0.0310
    1SOL    HW2 1622   2.880   2.311   0.729 -2.4403 -0.7313 -2.3480
    1SOL    HW3 1623   2.970   2.208   0.664 -0.1611 -0.4538  0.2834
    1SOL    MW4 1624   2.939   2.289   0.669 -0.1094 -0.4032 -0.2496
    1SOL     OW 1625   2.762   2.396   0.847  0.4768  0.5170 -0.4286
    1SOL    HW2 1626   2.821   2.359   0.912 -0.0942  0.1113 -0.1318
    1SOL    HW3 1627   2.739   2.482   0.882  0.6665  0.5564 -0.4027
    1SOL    MW4 1628   2.766   2.402   0.860  0.4265  0.4685 -0.3860
    1SOL     OW 1629   2.658   2.670   0.857 -0.6144 -0.2667 -0.1077
    1SOL    HW2 1630   2.730   2.704   0.804  0.4808 -2.1006  0.1693
    1SOL    HW3 1631   2.682   2.690   0.947 -0.1595 -1.4048  0.0279
    1SOL    MW4 1632   2.670   2.677   0.862 -0.4101 -0.6590 -0.0532
    1SOL     OW 1633   1.130   1.309   0.818 -0.3767 -0.0747  0.3701
    1SOL    HW2 1634   1.050   1.278   0.859  0.3025  0.0340  1.7910
    1SOL    HW3 1635   1.121   1.284   0.726 -0.5202 -3.1214  1.1865
    1SOL    MW4 1636   1.119   1.302   0.811 -0.3060 -0.4622  0.6652
    1SOL     OW 1637   1.601   1.289   0.498  0.5578 -0.2440 -0.2237
    1SOL    HW2 1638   1.675   1.328   0.452 -0.1200  0.5245 -0.6919
    1SOL    HW3 1639   1.610   1.195   0.483  0.6145 -0.0443 -1.5371
    1SOL    MW4 1640   1.612   1.282   0.490  0.4756 -0.1163 -0.4588
    1SOL     OW 1641   2.502   3.112   0.851  0.0601  0.1666 -0.2978
    1SOL    HW2 1642   2.576   3.171   0.840  0.2702 -0.1027 -0.3147
    1SOL    HW3 1643   2.487   3.109   0.946 -0.2661  0.6366 -0.3300
    1SOL    MW4 1644   2.510   3.120   0.862  0.0448  0.1931 -0.3042
    1SOL     OW 1645   2.758   3.508   0.819 -0.6105 -0.0638  0.1396
    1SOL    HW2 1646   2.838   3.553   0.792 -1.1523  0.6051 -0.3634
    1SOL    HW3 1647   2.767   3.499   0.914 -0.4616  1.0305  0.2332
    1SOL    MW4 1648   2.770   3.513   0.828 -0.6621  0.1688  0.0856
    1SOL     OW 1649   2.965   3.639   0.688 -0.1672 -0.1382  0.2511
    1SOL    HW2 1650   3.046   3.590   0.702 -0.2779  0.3993  3.1412
    1SOL    HW3 1651   2.978   3.721   0.735 -1.9941  0.4119 -0.1496
    1SOL    MW4 1652   2.978   3.643   0.696 -0.4230  0.0052  0.5795
    1SOL     OW 1653   2.761   3.236   0.446 -0.2738 -0.7223 -0.1081
    1SOL    HW2 1654   2.685   3.184   0.423 -0.7446 -0.2332  0.3301
    1SOL    HW3 1655   2.836   3.178   0.432 -0.6735 -0.9925 -1.1786
    1SOL    MW4 1656   2.761   3.222   0.441 -0.3886 -0.6931 -0.1915
    1SOL     OW 1657   0.702   4.472   0.478  0.0735  0.0174  0.0915
    1SOL    HW2 1658   0.701   4.465   0.574 -0.7159 -0.0445  0.0828
    1SOL    HW3 1659   0.751   4.552   0.460  0.7500 -0.2980  0.5312
    1SOL    MW4 1660   0.708   4.482   0.488  0.0586 -0.0319  0.1484
    1SOL     OW 1661   2.689   4.009   0.732 -0.3704 -0.1570 -0.0785
    1SOL    HW2 1662   2.684   4.103   0.750 -0.9160 -0.1516 -0.2467
    1SOL    HW3 1663   2.630   3.969   0.797  0.7508 -0.4850  0.7551
    1SOL    MW4 1664   2.680   4.016   0.743 -0.2947 -0.1993  0.0094
    1SOL     OW 1665   2.957   1.237   0.679  0.8055 -0.4528 -0.0366
    1SOL    HW2 1666   2.937   1.308   0.739  1.6844 -0.3408  0.1345
    1SOL    HW3 1667   3.032   1.192   0.719  0.4930 -1.2411 -0.3317
    1SOL    MW4 1668   2.964   1.241   0.692  0.8800 -0.5420 -0.0530
    1SOL     OW 1669   2.008   0.517   0.700  0.0799 -0.1568 -0.2542
    1SOL    HW2 1670   1.935   0.483   0.751  0.0672 -0.1562 -0.2719
    1SOL    HW3 1671   2.018   0.607   0.730  0.4887 -0.3510  0.2118
    1SOL    MW4 1672   2.000   0.524   0.711  0.1322 -0.1823 -0.1951
    1SOL     OW 1673   2.518   0.202   0.351 -0.0605  0.1901  0.1950
    1SOL    HW2 1674   2.485   0.291   0.338  1.6465  1.1082  1.8871
    1SOL    HW3 1675   2.599   0.214   0.402  0.6163 -2.2698 -0.2603
    1SOL    MW4 1676   2.524   0.215   0.356  0.2542 -0.0133  0.3582
    1SOL     OW 1677   1.108   2.115   0.525  0.1513  0.0422  0.4105
    1SOL    HW2 1678   1.192   2.138   0.485  0.9234 -1.7993  0.8736
    1SOL    HW3 1679   1.132   2.079   0.611 -1.2678  1.3232  1.3659
    1SOL    MW4 1680   1.122   2.113   0.531  0.0660 -0.0315  0.5976
    1SOL     OW 1681   3.148   0.364   0.844  0.2307  0.6562  0.2050
    1SOL    HW2 1682   3.148   0.365   0.940  1.3434 -0.5626  0.2266
    1SOL    HW3 1683   3.228   0.412   0.819  0.7003 -0.2567 -0.0806
    1SOL    MW4 1684   3.159   0.370   0.853  0.4394  0.3749  0.1702
    1SOL     OW 1685   2.689   2.694   0.361 -0.2877 -0.6949 -0.1917
    1SOL    HW2 1686   2.626   2.755   0.398  1.2715  0.3837  0.7413
    1SOL    HW3 1687   2.646   2.609   0.366 -1.9628  0.1259 -0.2819
    1SOL    MW4 1688   2.675   2.691   0.366 -0.3028 -0.4442 -0.0805
    1SOL     OW 1689   2.422   0.490   0.698 -0.8637 -0.0385  0.0205
    1SOL    HW2 1690   2.354   0.454   0.754 -0.0223 -0.7829  0.5840
    1SOL    HW3 1691   2.504   0.457   0.736 -0.2303  0.3229 -1.0147
    1SOL    MW4 1692   2.424   0.481   0.710 -0.6692 -0.0890 -0.0417
    1SOL     OW 1693   3.834   4.395   0.714  0.0329 -0.3972  0.3747
    1SOL    HW2 1694   3.756   4.342   0.732  0.7119 -1.0825  1.3688
    1SOL    HW3 1695   3.815   4.438   0.631 -0.6804 -1.9400 -0.2844
    1SOL    MW4 1696   3.821   4.394   0.706  0.0284 -0.6909  0.4188
    1SOL     OW 1697   3.361   1.525   0.829  0.4913  0.1248  0.2078
    1SOL    HW2 1698   3.272   1.555   0.810  0.6093  0.1735 -0.2563
    1SOL    HW3 1699   3.363   1.519   0.925 -0.5824 -1.6654  0.1398
    1SOL    MW4 1700   3.350   1.529   0.839  0.3653 -0.1049  0.1376
    1SOL     OW 1701   2.266   0.903   0.721 -0.0581 -0.0644  0.0067
    1SOL    HW2 1702   2.279   0.881   0.629  3.1791 -0.2948  0.4366
    1SOL    HW3 1703   2.343   0.866   0.765 -0.5665  1.7349  2.5113
    1SOL    MW4 1704   2.278   0.895   0.715  0.3018  0.1426  0.3938
    1SOL     OW 1705   3.620   0.857   0.724 -0.0703 -0.3201 -0.1586
    1SOL    HW2 1706   3.630   0.826   0.634  1.7683  1.0689 -0.4535
    1SOL    HW3 1707   3.692   0.816   0.771 -1.2677 -1.3610  0.7867
    1SOL    MW4 1708   3.631   0.847   0.718  0.0145 -0.2742 -0.0728
    1SOL     OW 1709   3.586   2.403   0.445 -0.5840  0.2401  0.1033
    1SOL    HW2 1710   3.557   2.316   0.418 -0.7293  0.2432  0.2490
    1SOL    HW3 1711   3.576   2.404   0.540 -1.3406  0.6842  0.0276
    1SOL    MW4 1712   3.581   2.392   0.454 -0.7031  0.2987  0.1125
    1SOL     OW 1713   1.594   3.864   0.837 -0.7605  0.2196  0.3766
    1SOL    HW2 1714   1.500   3.884   0.837 -1.0352 -1.0336  1.0640
    1SOL    HW3 1715   1.602   3.786   0.782 -0.5175 -1.3828  2.6178
    1SOL    MW4 1716   1.583   3.857   0.830 -0.7647 -0.1571  0.7630
    1SOL     OW 1717   3.871   0.264   0.426  0.4559 -0.2319  0.2346
    1SOL    HW2 1718   3.847   0.353   0.450 -0.8674 -0.6889  0.6308
    1SOL    HW3 1719   3.789   0.215   0.428  1.2597 -1.6021  0.6609
    1SOL    MW4 1720   3.857   0.269   0.429  0.3877 -0.4730  0.3431
    1SOL     OW 1721   3.671   2.846   0.473  0.1802 -0.5967  0.1032
    1SOL    HW2 1722   3.681   2.923   0.417  1.2737  0.1588  1.3154
    1SOL    HW3 1723   3.577   2.840   0.491  0.2494  1.2393  1.1006
    1SOL    MW4 1724   3.660   2.855   0.468  0.3338 -0.2546  0.3947
    1SOL     OW 1725   2.882   2.778   0.740  0.2074 -0.2580  0.1012
    1SOL    HW2 1726   2.968   2.742   0.760  0.4398  0.1363 -0.1997
    1SOL    HW3 1727   2.878   2.782   0.645 -0.3372 -0.7442  0.0999
    1SOL    MW4 1728   2.893   2.774   0.730  0.1659 -0.2699  0.0613
    1SOL     OW 1729   1.798   1.670   0.729 -0.1058 -0.0125 -0.2909
    1SOL    HW2 1730   1.716   1.654   0.777 -0.3562 -1.1425 -1.0790
    1SOL    HW3 1731   1.858   1.603   0.762 -0.2626 -0.7565 -1.5185
    1SOL    MW4 1732   1.795   1.659   0.740 -0.1595 -0.2596 -0.5568
    1SOL     OW 1733   1.627   2.994   9.999 -0.0723  0.3703 -0.3955
    1SOL    HW2 1734   1.642   3.046   9.920  0.0067  0.4791 -0.3080
    1SOL    HW3 1735   1.705   3.007  10.052  0.3637 -0.5696 -0.7794
    1SOL    MW4 1736   1.639   3.002   9.995 -0.0045  0.2611 -0.4346
    1SOL     OW 1737   3.128   3.192   0.710 -0.1320 -0.3843 -0.0075
    1SOL    HW2 1738   3.065   3.134   0.754 -0.4638  0.0264  0.0635
    1SOL    HW3 1739   3.160   3.141   0.635 -1.7911  0.0298 -1.0080
    1SOL    MW4 1740   3.124   3.178   0.706 -0.3951 -0.2756 -0.1301
    1SOL     OW 1741   3.184   3.483   0.768  0.5279  0.2627  0.0003
    1SOL    HW2 1742   3.166   3.392   0.746  1.9624  0.0306 -0.3075
    1SOL    HW3 1743   3.172   3.488   0.863  1.8114 -0.6083  0.2304
    1SOL    MW4 1744   3.180   3.471   0.778  0.8862  0.1171 -0.0100
    1SOL     OW 1745   3.392   3.624   0.443  0.2530  0.0110  0.0636
    1SOL    HW2 1746   3.415   3.620   0.536  0.0623  0.8942  0.1576
    1SOL    HW3 1747   3.306   3.583   0.437 -1.0745  2.5741  0.7661
    1SOL    MW4 1748   3.383   3.618   0.454  0.0527  0.4656  0.1687
    1SOL     OW 1749   3.615   4.018   0.679 -0.5277 -0.0367 -0.1586
    1SOL    HW2 1750   3.524   3.994   0.698 -0.3146 -0.2733  0.6058
    1SOL    HW3 1751   3.667   3.950   0.722 -0.0058 -0.4917 -1.4819
    1SOL    MW4 1752   3.610   4.006   0.687 -0.4308 -0.1278 -0.2323
    1SOL     OW 1753   4.236   0.616   0.503  0.1196  0.4313 -0.1977
    1SOL    HW2 1754   4.324   0.650   0.489  0.5302 -0.5270  0.0593
    1SOL    HW3 1755   4.239   0.526   0.471 -1.0986  0.7675 -1.3486
    1SOL    MW4 1756   4.248   0.609   0.497  0.0129  0.3492 -0.3156
    1SOL     OW 1757   3.145   4.252   0.743 -0.2393  0.2700  0.0137
    1SOL    HW2 1758   3.066   4.297   0.714  0.2061 -0.0262 -1.7304
    1SOL    HW3 1759   3.137   4.164   0.705 -0.5366 -0.7464  2.3838
    1SOL    MW4 1760   3.134   4.246   0.734 -0.2196  0.0968  0.0963
    1SOL     OW 1761   2.506   1.046   0.360  0.3074 -0.1651  0.1864
    1SOL    HW2 1762   2.517   1.126   0.413  0.4588 -0.7784  1.0886
    1SOL    HW3 1763   2.589   0.999   0.371 -0.4374 -1.2859  1.0748
    1SOL    MW4 1764   2.519   1.051   0.369  0.2291 -0.3940  0.4226
    1SOL     OW 1765   2.019   1.529   0.838  0.1377  0.2788  0.1402
    1SOL    HW2 1766   2.012   1.441   0.800 -1.3380  0.3726  0.1759
    1SOL    HW3 1767   2.090   1.570   0.789  0.3153 -0.6600 -0.4116
    1SOL    MW4 1768   2.027   1.523   0.827 -0.0336  0.1673  0.0721
    1SOL     OW 1769   3.131   0.101   0.763 -0.0701 -0.2191  0.0481
    1SOL    HW2 1770   3.146   0.194   0.782  0.8458  0.1596 -2.3090
    1SOL    HW3 1771   3.210   0.057   0.796 -0.3347 -0.1339  0.8164
    1SOL    MW4 1772   3.144   0.107   0.770  0.0160 -0.1579 -0.1615
    1SOL     OW 1773   3.581   0.335   0.855 -0.2338  0.2209 -0.0793
    1SOL    HW2 1774   3.667   0.372   0.834  0.1382 -1.3590 -1.4500
    1SOL    HW3 1775   3.578   0.335   0.950  2.1377 -1.4726  0.0616
    1SOL    MW4 1776   3.592   0.340   0.865  0.1285 -0.2110 -0.2416
    1SOL     OW 1777   0.626   0.390   0.738  0.1530  0.1371 -0.6508
    1SOL    HW2 1778   0.587   0.313   0.779 -0.5661  0.1603 -1.2785
    1SOL    HW3 1779   0.720   0.379   0.750  0.1800 -1.7404 -2.3119
    1SOL    MW4 1780   0.633   0.379   0.745  0.0617 -0.1075 -0.9528
    1SOL     OW 1781   3.834   0.743   0.864 -0.1204  0.3707  0.1707
    1SOL    HW2 1782   3.834   0.746   0.960  0.2434  0.7021  0.1583
    1SOL    HW3 1783   3.896   0.810   0.838  3.1813 -2.6756 -0.2114
    1SOL    MW4 1784   3.842   0.752   0.873  0.3631  0.0124  0.1187
    1SOL     OW 1785   1.556   1.813   0.385  0.1307 -0.7719 -0.3252
    1SOL    HW2 1786   1.478   1.766   0.415  0.0155 -0.1149  0.4285
    1SOL    HW3 1787   1.630   1.765   0.423 -0.0155  0.0492  1.0096
    1SOL    MW4 1788   1.556   1.800   0.394  0.0960 -0.5769 -0.0497
    1SOL     OW 1789   3.829   1.520   0.824  0.3038 -0.5702 -0.3022
    1SOL    HW2 1790   3.827   1.436   0.778 -0.0157 -0.4656 -0.4804
    1SOL    HW3 1791   3.747   1.563   0.800 -0.0641 -0.6932  0.7138
    1SOL    MW4 1792   3.818   1.515   0.815  0.2131 -0.5726 -0.1916
    1SOL     OW 1793   2.487   2.087   0.476 -0.2946 -0.8478 -0.0665
    1SOL    HW2 1794   2.483   2.008   0.423  0.0552  0.3649 -1.9286
    1SOL    HW3 1795   2.574   2.123   0.459  0.0820 -0.7955  1.8601
    1SOL    MW4 1796   2.498   2.081   0.467 -0.1986 -0.6809 -0.0581
    1SOL     OW 1797   4.200   2.785   0.891 -0.4001 -0.5944 -0.2541
    1SOL    HW2 1798   4.282   2.739   0.870 -0.0296 -0.3494  0.6323
    1SOL    HW3 1799   4.215   2.874   0.860 -0.6743 -0.7677 -0.8996
    1SOL    MW4 1800   4.213   2.790   0.884 -0.3867 -0.5848 -0.2223
    1SOL     OW 1801   1.102   0.488   0.770 -0.0033  0.2328 -0.0091
    1SOL    HW2 1802   1.185   0.452   0.800  0.4425  0.5967 -0.7881
    1SOL    HW3 1803   1.036   0.434   0.814  0.6085  0.9062  1.7767
    1SOL    MW4 1804   1.104   0.476   0.780  0.1361  0.3697  0.1237
    1SOL     OW 1805   3.798   2.568   0.373 -0.1957  0.5496  0.4027
    1SOL    HW2 1806   3.767   2.656   0.393  0.4846  0.8225  0.2830
    1SOL    HW3 1807   3.727   2.510   0.400 -0.9275  1.1814 -0.1788
    1SOL    MW4 1808   3.785   2.572   0.380 -0.2024  0.6690  0.3101
    1SOL     OW 1809   3.369   2.294   0.856 -0.1639 -0.1919 -0.0013
    1SOL    HW2 1810   3.362   2.281   0.950  0.3466  0.0198  0.0641
    1SOL    HW3 1811   3.352   2.208   0.818 -2.8076  0.1944  0.1724
    1SOL    MW4 1812   3.366   2.281   0.863 -0.4456 -0.1130  0.0303
    1SOL     OW 1813   3.808   2.345   1.119  0.4984 -0.0514 -0.1148
    1SOL    HW2 1814   3.883   2.377   1.169 -0.5240  0.2345  1.2595
    1SOL    HW3 1815   3.843   2.329   1.031  2.2196 -0.1583  0.5733
    1SOL    MW4 1816   3.823   2.347   1.114  0.5903 -0.0279  0.1572
    1SOL     OW 1817   1.800   2.195   0.405 -0.3953 -0.3347 -0.4215
    1SOL    HW2 1818   1.817   2.229   0.318  0.2651 -0.5707 -0.3910
    1SOL    HW3 1819   1.809   2.270   0.463  0.3190 -0.4133 -0.4322
    1SOL    MW4 1820   1.803   2.209   0.402 -0.2140 -0.3757 -0.4189
    1SOL     OW 1821   3.563   2.673   0.858 -0.4946 -0.9298 -0.4280
    1SOL    HW2 1822   3.576   2.669   0.953 -0.0399 -0.5030 -0.4679
    1SOL    HW3 1823   3.640   2.720   0.826 -1.6844  0.8248 -0.7844
    1SOL    MW4 1824   3.575   2.678   0.866 -0.5915 -0.6421 -0.4804
    1SOL     OW 1825   2.014   3.611   0.462  0.1558 -0.2869  0.6390
    1SOL    HW2 1826   1.974   3.524   0.468  0.1036 -0.3260 -0.2436
    1SOL    HW3 1827   2.020   3.641   0.553 -0.7747 -0.7812  0.8684
    1SOL    MW4 1828   2.010   3.603   0.475  0.0262 -0.3574  0.5528
    1SOL     OW 1829   3.792   3.079   0.823  0.1206  0.2487  0.4465
    1SOL    HW2 1830   3.723   3.130   0.781 -0.2173  0.1926  0.9350
    1SOL    HW3 1831   3.769   2.988   0.804 -0.5989  0.1793  1.6299
    1SOL    MW4 1832   3.780   3.074   0.815 -0.0188  0.2322  0.6671
    1SOL     OW 1833   3.956   2.217   0.449  0.6005 -0.2580  0.2223
    1SOL    HW2 1834   3.990   2.269   0.521  2.2733 -0.5942 -0.2956
    1SOL    HW3 1835   3.965   2.274   0.372 -0.3752 -0.2151  0.1331
    1SOL    MW4 1836   3.961   2.231   0.448  0.6924 -0.2968  0.1422
    1SOL     OW 1837   3.565   3.223   0.707  0.2128 -0.5845  0.2446
    1SOL    HW2 1838   3.546   3.234   0.614  0.4844  0.5515  0.3124
    1SOL    HW3 1839   3.484   3.188   0.744  0.4846 -2.1549 -0.6131
    1SOL    MW4 1840   3.552   3.220   0.700  0.2844 -0.6421  0.1403
    1SOL     OW 1841   4.131   3.949   0.475 -0.6248 -0.3068 -0.0498
    1SOL    HW2 1842   4.222   3.960   0.450 -0.4631  0.8009  0.9835
    1SOL    HW3 1843   4.088   4.029   0.445 -0.9925 -0.2301  0.6795
    1SOL    MW4 1844   4.137   3.961   0.467 -0.6523 -0.1504  0.1827
    1SOL     OW 1845   3.858   3.555   0.677  0.1045  0.0419 -0.4802
    1SOL    HW2 1846   3.936   3.517   0.717  1.0846  0.3579 -2.0306
    1SOL    HW3 1847   3.861   3.526   0.586 -0.5385  1.6502 -1.0410
    1SOL    MW4 1848   3.869   3.546   0.670  0.1488  0.2959 -0.7588
    1SOL     OW 1849   0.717   1.843   0.422  0.0482 -0.0582  0.3603
    1SOL    HW2 1850   0.799   1.797   0.442 -0.1255 -0.0611  1.0956
    1SOL    HW3 1851   0.650   1.793   0.468 -0.3680 -0.0434 -0.2245
    1SOL    MW4 1852   0.719   1.830   0.431 -0.0297 -0.0566  0.3802
    1SOL     OW 1853   2.291   3.534   0.803  0.1503 -0.0467  0.1764
    1SOL    HW2 1854   2.292   3.438   0.799 -0.3569 -0.0178 -0.8717
    1SOL    HW3 1855   2.381   3.560   0.786  0.2189 -0.3252  0.1096
    1SOL    MW4 1856   2.303   3.524   0.800  0.0923 -0.0796  0.0293
    1SOL     OW 1857   1.135   4.360   0.417  0.5081  0.0038 -0.2563
    1SOL    HW2 1858   1.154   4.270   0.444 -0.2062  0.3039  1.3350
    1SOL    HW3 1859   1.045   4.357   0.385 -0.0622  0.4312  1.2546
    1SOL    MW4 1860   1.125   4.348   0.417  0.3386  0.1001  0.1530
    1SOL     OW 1861   4.371   4.660   0.884  0.4139 -0.2123  0.0674
    1SOL    HW2 1862   4.349   4.658   0.978 -1.1784 -0.7024 -0.2988
    1SOL    HW3 1863   4.326   4.738   0.851  2.5699  1.0858  0.0539
    1SOL    MW4 1864   4.362   4.670   0.892  0.4878 -0.1059  0.0173
    1SOL     OW 1865   3.563   0.074   0.754 -0.2912 -0.8595 -0.2325
    1SOL    HW2 1866   3.565   0.167   0.778 -2.5167 -0.6950 -0.5794
    1SOL    HW3 1867   3.650   0.042   0.775 -0.2519  0.7310  2.1863
    1SOL    MW4 1868   3.575   0.082   0.760 -0.5796 -0.6279  0.0408
    1SOL     OW 1869   4.121   0.216   0.333  0.3444 -0.1388 -0.1293
    1SOL    HW2 1870   4.038   0.249   0.367 -0.5999 -1.4918 -1.0452
    1SOL    HW3 1871   4.126   0.251   0.244  1.8486  1.7681  0.6725
    1SOL    MW4 1872   4.110   0.225   0.326  0.4182 -0.0657 -0.1443
    1SOL     OW 1873   4.459   2.718   0.851  0.1054 -0.0834  0.7581
    1SOL    HW2 1874   4.485   2.717   0.943  1.3436 -0.8694  0.4064
    1SOL    HW3 1875   4.531   2.762   0.806  0.1057 -0.8633 -0.0154
    1SOL    MW4 1876   4.472   2.724   0.857  0.2685 -0.2899  0.6097
    1SOL     OW 1877   4.267   0.832   0.928  0.5630 -0.0503 -0.2852
    1SOL    HW2 1878   4.248   0.827   1.022  0.6696  0.8505 -0.2062
    1SOL    HW3 1879   4.251   0.744   0.895  1.6845 -0.6676  0.7874
    1SOL    MW4 1880   4.262   0.820   0.936  0.7253 -0.0129 -0.1332
    1SOL     OW 1881   4.193   3.128   0.324 -0.1807 -0.0983 -0.7030
    1SOL    HW2 1882   4.211   3.113   0.231  1.4316  0.0841 -0.4354
    1SOL    HW3 1883   4.246   3.063   0.370 -0.7242  0.0234  0.1091
    1SOL    MW4 1884   4.203   3.118   0.317 -0.0396 -0.0582 -0.5605
    1SOL     OW 1885   1.374   1.663   0.758  0.0687  0.7450  0.3388
    1SOL    HW2 1886   1.460   1.630   0.786  0.2610  0.9228 -0.0342
    1SOL    HW3 1887   1.380   1.666   0.663 -0.7152 -0.2315  0.2448
    1SOL    MW4 1888   1.386   1.659   0.749 -0.0093  0.6394  0.2772
    1SOL     OW 1889   2.233   4.202   0.881 -0.2083  0.0504  0.0230
    1SOL    HW2 1890   2.154   4.246   0.853  0.3095  0.3882 -0.9194
    1SOL    HW3 1891   2.238   4.123   0.827  0.2251  0.1543 -0.0914
    1SOL    MW4 1892   2.224   4.197   0.870 -0.0830  0.1087 -0.1164
    1SOL     OW 1893   4.276   1.529   0.831  0.1693  0.0432  0.0517
    1SOL    HW2 1894   4.271   1.434   0.821  1.3448  0.0115 -0.2676
    1SOL    HW3 1895   4.273   1.543   0.925  0.8649 -0.3639  0.1363
    1SOL    MW4 1896   4.275   1.518   0.842  0.4163 -0.0148  0.0207
    1SOL     OW 1897   0.895   1.161   0.897 -0.1045  0.3469  1.1110
    1SOL    HW2 1898   0.817   1.203   0.861 -1.1179 -1.1822  1.4634
    1SOL    HW3 1899   0.892   1.071   0.865  0.3354 -0.3429  2.9024
    1SOL    MW4 1900   0.885   1.154   0.888 -0.1802  0.0542  1.3939
    1SOL     OW 1901   0.836   3.988   0.383 -0.6281  0.0961 -0.0362
    1SOL    HW2 1902   0.856   3.971   0.475 -0.6229  0.9090  0.1155
    1SOL    HW3 1903   0.842   4.083   0.374 -0.6042  0.0216 -0.8822
    1SOL    MW4 1904   0.840   3.998   0.394 -0.6242  0.1936 -0.1278
    1SOL     OW 1905   4.020   3.199   0.710  0.3233  0.0982  0.4950
    1SOL    HW2 1906   3.936   3.169   0.745  1.3267 -2.4190  0.8265
    1SOL    HW3 1907   4.005   3.210   0.616 -0.0037 -1.7499  0.3202
    1SOL    MW4 1908   4.007   3.197   0.702  0.4120 -0.4778  0.5156
    1SOL     OW 1909   0.197   2.291   1.135  0.1582  0.3708  0.0455
    1SOL    HW2 1910   0.122   2.326   1.182  1.0076 -0.0807  1.7929
    1SOL    HW3 1911   0.268   2.353   1.155  0.1964  0.9446 -1.7974
    1SOL    MW4 1912   0.197   2.304   1.144  0.2753  0.3870  0.0330
    1SOL     OW 1913   2.016   3.888   0.901  0.4422 -0.0613 -0.1570
    1SOL    HW2 1914   2.026   3.879   0.996 -0.8870  0.7131  0.0630
    1SOL    HW3 1915   2.004   3.799   0.870  0.6558 -0.2962  0.4179
    1SOL    MW4 1916   2.016   3.875   0.910  0.2952  0.0100 -0.0522
    1SOL     OW 1917   3.775   2.808   0.726 -0.1920 -0.0900 -0.2484
    1SOL    HW2 1918   3.864   2.783   0.700 -0.1031  0.4746 -0.4922
    1SOL    HW3 1919   3.731   2.826   0.643 -0.6668 -0.7969 -0.1559
    1SOL    MW4 1920   3.781   2.807   0.712 -0.2429 -0.1087 -0.2684
    1SOL     OW 1921   0.918   1.880   0.846 -0.1582 -0.3852  0.3338
    1SOL    HW2 1922   0.841   1.938   0.843  0.2177  0.1148  0.2231
    1SOL    HW3 1923   0.945   1.883   0.937  0.7598  0.8166  0.0367
    1SOL    MW4 1924   0.911   1.888   0.858  0.0125 -0.1606  0.2800
    1SOL     OW 1925   2.746   0.512   0.508  0.0487  0.1343  0.1232
    1SOL    HW2 1926   2.806   0.528   0.581  1.4133  0.5469 -1.0765
    1SOL    HW3 1927   2.782   0.563   0.435 -0.5928 -1.2561 -1.1998
    1SOL    MW4 1928   2.758   0.521   0.508  0.1440  0.0053 -0.2097
    1SOL     OW 1929   3.743   2.025   0.475  0.6984  0.1777  0.1973
    1SOL    HW2 1930   3.781   1.940   0.455 -0.5880 -0.1422 -0.9640
    1SOL    HW3 1931   3.812   2.088   0.452  0.8311 -0.4286 -1.0791
    1SOL    MW4 1932   3.757   2.022   0.469  0.5462  0.0556 -0.1243
    1SOL     OW 1933   3.626   3.472   0.830 -0.0305  0.0227 -0.2769
    1SOL    HW2 1934   3.701   3.514   0.789 -0.3395  0.2179 -0.6395
    1SOL    HW3 1935   3.615   3.390   0.782 -1.1349  0.8001 -1.3855
    1SOL    MW4 1936   3.635   3.467   0.818 -0.2170  0.1512 -0.4711
    1SOL     OW 1937   4.270   3.883   0.862 -0.2641  0.0491 -0.0888
    1SOL    HW2 1938   4.186   3.915   0.828 -0.9772 -2.9637 -1.3341
    1SOL    HW3 1939   4.260   3.889   0.957 -1.9553 -0.3626 -0.2149
    1SOL    MW4 1940   4.258   3.888   0.870 -0.5817 -0.4025 -0.2698
    1SOL     OW 1941   0.552   0.969   0.501 -0.2866  0.2103 -0.2675
    1SOL    HW2 1942   0.578   1.057   0.474  1.6577  0.6874  2.8874
    1SOL    HW3 1943   0.480   0.983   0.563 -1.5725 -0.5848 -1.5452
    1SOL    MW4 1944   0.546   0.982   0.506 -0.1997  0.1683 -0.0198
    1SOL     OW 1945   3.802   3.825   0.805 -0.5495  0.1205  0.0749
    1SOL    HW2 1946   3.881   3.872   0.778 -0.6669  1.2656  1.6931
    1SOL    HW3 1947   3.805   3.743   0.754  0.4534  1.1644 -1.5980
    1SOL    MW4 1948   3.813   3.820   0.794 -0.4330  0.4091  0.0677
    1SOL     OW 1949   3.951   0.092   0.645  0.0623 -0.3342 -0.1568
    1SOL    HW2 1950   3.986   0.027   0.584  0.9842  0.5858 -0.6109
    1SOL    HW3 1951   3.898   0.150   0.591 -1.5029 -1.2059  0.3916
    1SOL    MW4 1952   3.948   0.091   0.630 -0.0226 -0.3278 -0.1444
    1SOL     OW 1953   3.801   4.646   0.851 -0.0826  0.2463 -0.2777
    1SOL    HW2 1954   3.789   4.558   0.815  0.6981 -0.1674  0.4456
    1SOL    HW3 1955   3.862   4.688   0.790  1.7309 -0.6649  0.8569
    1SOL    MW4 1956   3.808   4.640   0.838  0.2594  0.0715 -0.0325
    1SOL     OW 1957   0.239   4.663   1.125  0.3640 -0.1851  0.0757
    1SOL    HW2 1958   0.329   4.693   1.131  0.5227 -0.5575 -0.4106
    1SOL    HW3 1959   0.216   4.672   1.033 -0.3029  0.4883  0.2966
    1SOL    MW4 1960   0.248   4.668   1.114  0.2969 -0.1454  0.0409
    1SOL     OW 1961   4.486   0.129   1.222  0.1628 -0.0058  0.3574
    1SOL    HW2 1962   4.419   0.069   1.190  0.2125 -0.8498  1.7522
    1SOL    HW3 1963   4.569   0.091   1.191  0.0752  0.3595 -0.3242
    1SOL    MW4 1964   4.488   0.116   1.214  0.1578 -0.0690  0.4514
    1SOL     OW 1965   4.477   0.382   1.120  0.0493  0.6314  0.6522
    1SOL    HW2 1966   4.405   0.432   1.160 -0.4685  0.6746 -0.3311
    1SOL    HW3 1967   4.468   0.294   1.158 -0.4815  0.6526  0.5847
    1SOL    MW4 1968   4.466   0.377   1.130 -0.0892  0.6399  0.5136
    1SOL     OW 1969   0.209   0.479   1.246  0.2063  0.2295  0.0046
    1SOL    HW2 1970   0.191   0.566   1.210 -0.5606 -0.1254 -0.4942
    1SOL    HW3 1971   0.132   0.427   1.221  0.3981 -0.4375  0.7923
    1SOL    MW4 1972   0.196   0.484   1.238  0.1305  0.0947  0.0427
    1SOL     OW 1973   0.199   0.735   1.105 -0.0821  0.0832  0.1649
    1SOL    HW2 1974   0.270   0.791   1.136 -0.8156  1.2641 -0.2830
    1SOL    HW3 1975   0.119   0.778   1.134 -0.6923 -0.0195 -1.3234
    1SOL    MW4 1976   0.198   0.748   1.113 -0.2593  0.2255 -0.0905
    1SOL     OW 1977   0.037   0.888   1.253 -0.0503 -0.4143  0.0151
    1SOL    HW2 1978   0.030   0.898   1.348  1.0462 -1.0756  0.1832
    1SOL    HW3 1979   0.041   0.977   1.220 -0.4295 -0.1764  0.5987
    1SOL    MW4 1980   0.037   0.901   1.262  0.0443 -0.4702  0.1142
    1SOL     OW 1981   0.004   1.140   1.116  0.2676  0.2859 -0.1040
    1SOL    HW2 1982  -0.073   1.193   1.134 -0.2129 -0.0415 -1.1855
    1SOL    HW3 1983   0.078   1.197   1.140 -0.3150  0.4034  1.4209
    1SOL    MW4 1984   0.004   1.155   1.121  0.1273  0.2582 -0.0455
    1SOL     OW 1985   0.213   1.289   1.214  0.4900 -0.0398  0.2080
    1SOL    HW2 1986   0.210   1.290   1.310  0.9353  1.6993  0.2224
    1SOL    HW3 1987   0.298   1.251   1.192  0.0702 -1.1447  0.4910
    1SOL    MW4 1988   0.224   1.284   1.224  0.4934  0.0439  0.2472
    1SOL     OW 1989   0.209   1.546   1.105  0.0564 -0.2612 -0.2253
    1SOL    HW2 1990   0.227   1.463   1.149 -2.2421 -0.3236  0.6690
    1SOL    HW3 1991   0.202   1.524   1.012  0.0636 -0.9466 -0.0608
    1SOL    MW4 1992   0.211   1.532   1.099 -0.2459 -0.3598 -0.0855
    1SOL     OW 1993   4.488   1.638   1.226 -0.0495 -0.1783 -0.4754
    1SOL    HW2 1994   4.479   1.724   1.185  0.6697  0.7515  1.2752
    1SOL    HW3 1995   4.566   1.600   1.184  0.7605  0.8155  0.1168
    1SOL    MW4 1996   4.497   1.644   1.215  0.1521  0.0755 -0.1663
    1SOL     OW 1997   4.475   1.889   1.125 -0.0083 -0.1333 -0.1998
    1SOL    HW2 1998   4.405   1.945   1.158 -0.8098 -1.5770  0.5994
    1SOL    HW3 1999   4.478   1.907   1.031 -1.5993 -0.2002 -0.2738
    1SOL    MW4 2000   4.466   1.899   1.117 -0.3242 -0.3325 -0.1042
    1SOL     OW 2001   0.240   2.028   1.219  0.2386 -0.0649  0.5098
    1SOL    HW2 2002   0.233   2.117   1.185 -0.6566 -0.0199  0.8066
    1SOL    HW3 2003   0.160   1.984   1.190  0.1074 -0.4196  1.4105
    1SOL    MW4 2004   0.229   2.034   1.210  0.1031 -0.1059  0.6678
    1SOL     OW 2005   0.222   2.311   0.848 -0.2294 -0.1910  0.5124
    1SOL    HW2 2006   0.145   2.358   0.814  0.2803 -0.2632 -0.7667
    1SOL    HW3 2007   0.206   2.305   0.942 -1.9322 -0.4484  0.2384
    1SOL    MW4 2008   0.210   2.316   0.855 -0.3868 -0.2346  0.3074
    1SOL     OW 2009   0.004   2.449   1.276  0.9747 -0.0242 -0.2777
    1SOL    HW2 2010  -0.009   2.436   1.370  0.4838 -0.1188 -0.3569
    1SOL    HW3 2011  -0.065   2.397   1.235  1.2827 -0.1013 -0.6930
    1SOL    MW4 2012  -0.007   2.441   1.283  0.9508 -0.0470 -0.3427
    1SOL     OW 2013   0.014   2.686   1.127 -0.3392 -0.0536  0.0576
    1SOL    HW2 2014  -0.070   2.727   1.146  0.0068  0.7325 -0.0557
    1SOL    HW3 2015   0.009   2.599   1.167 -1.4566 -0.2751 -0.5436
    1SOL    MW4 2016   0.003   2.680   1.135 -0.4411  0.0207 -0.0368
    1SOL     OW 2017   0.221   2.818   1.239 -0.1984 -0.3873  0.3577
    1SOL    HW2 2018   0.218   2.812   1.335 -1.9299 -0.5287  0.3044
    1SOL    HW3 2019   0.138   2.781   1.210  0.2123 -0.1139 -1.1970
    1SOL    MW4 2020   0.210   2.812   1.248 -0.3727 -0.3695  0.1456
    1SOL     OW 2021   0.249   3.083   1.155  0.6669  0.0990  0.1044
    1SOL    HW2 2022   0.312   3.137   1.201  1.2324 -0.0261 -0.5092
    1SOL    HW3 2023   0.256   2.996   1.196  1.2865 -0.0554 -0.3230
    1SOL    MW4 2024   0.258   3.078   1.166  0.8233  0.0622 -0.0329
    1SOL     OW 2025   0.017   3.236   1.224  0.3885 -0.0280  0.0322
    1SOL    HW2 2026  -0.066   3.194   1.201  1.1068 -2.7152  2.0407
    1SOL    HW3 2027   0.084   3.181   1.185  1.2973  0.3779  0.9823
    1SOL    MW4 2028   0.015   3.223   1.216  0.6027 -0.3290  0.4226
    1SOL     OW 2029   0.037   3.507   1.136  0.5928 -0.0244  0.1445
    1SOL    HW2 2030   0.042   3.422   1.180  0.7495  0.3691  0.8915
    1SOL    HW3 2031   0.039   3.486   1.043  2.4942 -0.7379  0.3191
    1SOL    MW4 2032   0.038   3.493   1.129  0.8643 -0.0665  0.2661
    1SOL     OW 2033   0.280   3.641   1.226 -0.0295  0.0617  0.1118
    1SOL    HW2 2034   0.279   3.641   1.321 -1.2012 -1.5307  0.1204
    1SOL    HW3 2035   0.197   3.601   1.201  1.0228 -1.1749 -1.5518
    1SOL    MW4 2036   0.269   3.635   1.235 -0.0453 -0.3114 -0.1066
    1SOL     OW 2037   0.283   3.896   1.104 -0.5365 -0.5737 -0.1389
    1SOL    HW2 2038   0.196   3.935   1.109  0.0152  0.6002  0.4925
    1SOL    HW3 2039   0.279   3.820   1.162 -0.3629  1.0106  2.0057
    1SOL    MW4 2040   0.271   3.891   1.113 -0.4407 -0.2098  0.2275
    1SOL     OW 2041   0.033   3.977   1.211  0.1871 -0.4577  0.1035
    1SOL    HW2 2042   0.005   3.978   1.303 -0.5037 -0.4142 -0.1078
    1SOL    HW3 2043  -0.037   3.930   1.165  0.4081 -0.2574 -0.4407
    1SOL    MW4 2044   0.020   3.971   1.217  0.1251 -0.4256  0.0037
    1SOL     OW 2045   0.035   4.226   1.095 -0.1111  0.1408  0.1986
    1SOL    HW2 2046   0.113   4.274   1.123 -1.2528  0.9674  2.0670
    1SOL    HW3 2047   0.039   4.143   1.142  0.2487 -0.2921 -0.6020
    1SOL    MW4 2048   0.046   4.221   1.105 -0.2143  0.1926  0.3394
    1SOL     OW 2049   0.236   4.394   1.184 -0.0986 -0.1620 -0.6186
    1SOL    HW2 2050   0.232   4.370   1.276  0.1406  0.4864 -0.4309
    1SOL    HW3 2051   0.241   4.490   1.185 -1.8391 -0.0413 -1.3558
    1SOL    MW4 2052   0.236   4.404   1.196 -0.2967 -0.0610 -0.6911
    1SOL     OW 2053   0.656   4.651   1.092  0.1555  0.5601  0.7049
    1SOL    HW2 2054   0.739   4.690   1.119  0.8785 -0.0845 -0.5499
    1SOL    HW3 2055   0.664   4.559   1.118  0.0950  0.3527 -0.0189
    1SOL    MW4 2056   0.668   4.644   1.099  0.2429  0.4478  0.4438
    1SOL     OW 2057   0.466   0.121   1.256 -0.1153 -0.0715  0.2094
    1SOL    HW2 2058   0.454   0.202   1.206 -1.1002 -1.1674 -1.3608
    1SOL    HW3 2059   0.542   0.079   1.215 -0.6400 -0.7523 -0.0597
    1SOL    MW4 2060   0.475   0.126   1.244 -0.3145 -0.3059 -0.0333
    1SOL     OW 2061   1.839   2.324   0.175 -0.0970  0.0795  0.4064
    1SOL    HW2 2062   1.883   2.339   0.091  1.5006  0.6524  1.3456
    1SOL    HW3 2063   1.850   2.406   0.223 -1.7660  0.0630  0.8616
    1SOL    MW4 2064   1.846   2.337   0.170 -0.1066  0.1533  0.5904
    1SOL     OW 2065   0.667   0.492   1.217  0.5148 -0.3415  0.1960
    1SOL    HW2 2066   0.670   0.578   1.175 -0.1635  0.2885  1.3889
    1SOL    HW3 2067   0.586   0.453   1.184  0.1187  0.0467  0.6802
    1SOL    MW4 2068   0.656   0.498   1.207  0.3730 -0.2072  0.4172
    1SOL     OW 2069   0.648   0.757   1.138  0.2844  0.1393  0.5950
    1SOL    HW2 2070   0.575   0.791   1.188  0.9326  0.0664  1.6006
    1SOL    HW3 2071   0.637   0.794   1.050 -1.6325 -0.8386  0.3902
    1SOL    MW4 2072   0.637   0.766   1.133  0.1170  0.0007  0.7007
    1SOL     OW 2073   0.414   0.850   1.223 -0.2174 -0.0357 -0.3421
    1SOL    HW2 2074   0.411   0.860   1.319  0.1518  0.4395 -0.3777
    1SOL    HW3 2075   0.436   0.938   1.191  2.6339 -0.8334 -0.6985
    1SOL    MW4 2076   0.417   0.863   1.232  0.2075 -0.0783 -0.3939
    1SOL     OW 2077   0.456   1.136   1.137 -0.5538 -0.0691 -0.5004
    1SOL    HW2 2078   0.537   1.172   1.172 -0.6216 -0.2565 -0.1569
    1SOL    HW3 2079   0.474   1.124   1.044 -0.2219 -0.0220 -0.4423
    1SOL    MW4 2080   0.469   1.139   1.129 -0.5190 -0.0875 -0.4474
    1SOL     OW 2081   0.694   1.258   1.229 -0.3917  0.3315 -0.1965
    1SOL    HW2 2082   0.768   1.199   1.211  0.0035  0.3430  1.3464
    1SOL    HW3 2083   0.717   1.339   1.184  1.0808  0.7069  1.1936
    1SOL    MW4 2084   0.707   1.261   1.221 -0.1453  0.3827  0.1904
    1SOL     OW 2085   0.736   1.529   1.098  0.6214  0.7455 -0.6473
    1SOL    HW2 2086   0.789   1.592   1.147  0.9105  0.0486 -0.0424
    1SOL    HW3 2087   0.647   1.561   1.107  0.9111  1.8183 -1.5039
    1SOL    MW4 2088   0.732   1.541   1.106  0.6978  0.7952 -0.6806
    1SOL     OW 2089   0.481   1.620   1.205  0.1907  0.1662 -0.1172
    1SOL    HW2 2090   0.479   1.652   1.295 -0.0465 -2.7152  0.9669
    1SOL    HW3 2091   0.390   1.623   1.177  0.1435  0.2907  0.0454
    1SOL    MW4 2092   0.469   1.624   1.214  0.1532 -0.1976  0.0473
    1SOL     OW 2093   0.483   1.913   1.121 -0.1057 -0.4431  0.1762
    1SOL    HW2 2094   0.489   1.822   1.149 -1.0257 -0.4674  0.3194
    1SOL    HW3 2095   0.403   1.946   1.163 -0.3341  0.1308 -0.6925
    1SOL    MW4 2096   0.473   1.906   1.130 -0.2572 -0.3706  0.0805
    1SOL     OW 2097   0.689   2.079   1.207  0.1595  0.5032  0.0243
    1SOL    HW2 2098   0.686   2.073   1.303  0.4978 -0.8371 -0.0451
    1SOL    HW3 2099   0.621   2.019   1.177  0.3153  0.6340 -0.5934
    1SOL    MW4 2100   0.679   2.070   1.216  0.2247  0.3438 -0.0664
    1SOL     OW 2101   0.664   2.358   1.118 -0.4988  0.5422 -0.3178
    1SOL    HW2 2102   0.573   2.380   1.139  0.2474  0.8937  2.8544
    1SOL    HW3 2103   0.668   2.263   1.125 -0.5407  0.5633  0.0399
    1SOL    MW4 2104   0.652   2.348   1.122 -0.4058  0.5915  0.1478
    1SOL     OW 2105   0.420   2.436   1.212 -0.2214 -0.0830  0.3518
    1SOL    HW2 2106   0.429   2.463   1.303  0.0889  0.6362  0.1083
    1SOL    HW3 2107   0.435   2.516   1.161 -1.1839 -0.3069 -0.3022
    1SOL    MW4 2108   0.423   2.450   1.217 -0.3074 -0.0176  0.2334
    1SOL     OW 2109   0.447   2.697   1.133  0.1007 -0.1748 -0.4745
    1SOL    HW2 2110   0.373   2.736   1.179 -0.8718 -1.2379 -1.1233
    1SOL    HW3 2111   0.416   2.687   1.042  0.4696 -2.0702 -0.4016
    1SOL    MW4 2112   0.433   2.701   1.127  0.0210 -0.5651 -0.5505
    1SOL     OW 2113   0.691   2.824   1.179 -0.3642  0.4516 -0.2611
    1SOL    HW2 2114   0.689   2.847   1.272 -1.9464 -1.3285  0.1827
    1SOL    HW3 2115   0.606   2.783   1.162  0.3538 -0.3221 -2.2122
    1SOL    MW4 2116   0.680   2.821   1.189 -0.4783  0.1147 -0.4599
    1SOL     OW 2117   0.691   3.140   1.110  0.6695  0.2341 -0.0698
    1SOL    HW2 2118   0.772   3.186   1.135  0.0577  0.1389  2.2019
    1SOL    HW3 2119   0.705   3.050   1.140  0.0018  0.0460 -0.3316
    1SOL    MW4 2120   0.704   3.134   1.117  0.5007  0.1969  0.1954
    1SOL     OW 2121   0.461   3.260   1.224  0.1985 -0.0313 -0.4888
    1SOL    HW2 2122   0.449   3.342   1.176 -0.0100 -1.1597 -2.4468
    1SOL    HW3 2123   0.541   3.222   1.187 -0.0767 -1.0142 -0.0924
    1SOL    MW4 2124   0.470   3.266   1.212  0.1347 -0.3099 -0.6948
    1SOL     OW 2125   0.480   3.496   1.076 -0.3172  0.2371  0.0072
    1SOL    HW2 2126   0.560   3.537   1.110  0.2116 -0.6608 -0.1105
    1SOL    HW3 2127   0.409   3.539   1.123  0.3642 -0.5870  1.8890
    1SOL    MW4 2128   0.481   3.507   1.087 -0.1575  0.0098  0.2400
    1SOL     OW 2129   0.719   3.608   1.185  0.2167  0.2220  0.2089
    1SOL    HW2 2130   0.716   3.603   1.281 -0.3720 -0.1398  0.1737
    1SOL    HW3 2131   0.723   3.701   1.166 -1.0583  0.3484  0.5489
    1SOL    MW4 2132   0.719   3.619   1.195 -0.0292  0.1907  0.2491
    1SOL     OW 2133   0.732   3.895   1.123 -0.2481  0.1558 -0.1040
    1SOL    HW2 2134   0.659   3.944   1.162  0.8275  2.3594 -0.8217
    1SOL    HW3 2135   0.713   3.893   1.029 -0.6061 -1.3968 -0.0193
    1SOL    MW4 2136   0.720   3.901   1.116 -0.1535  0.2415 -0.1875
    1SOL     OW 2137   0.499   4.028   1.231 -0.3702 -0.1148  0.2984
    1SOL    HW2 2138   0.495   4.115   1.193 -0.7572 -0.5705 -0.7122
    1SOL    HW3 2139   0.425   3.981   1.192 -0.8913 -0.5335  1.7542
    1SOL    MW4 2140   0.489   4.033   1.221 -0.4900 -0.2303  0.3572
    1SOL     OW 2141   0.462   4.267   1.094  0.2064  0.0399 -0.4413
    1SOL    HW2 2142   0.541   4.313   1.121 -0.4972  1.7708 -1.2574
    1SOL    HW3 2143   0.392   4.307   1.145 -0.3220 -0.5927 -0.6574
    1SOL    MW4 2144   0.463   4.278   1.104  0.0439  0.1845 -0.5774
    1SOL     OW 2145   0.683   4.389   1.172  0.0151  0.0416  0.4696
    1SOL    HW2 2146   0.682   4.401   1.267 -0.2030  0.2465  0.4441
    1SOL    HW3 2147   0.772   4.363   1.152  0.3146  0.9307  0.6219
    1SOL    MW4 2148   0.694   4.387   1.182  0.0259  0.1864  0.4863
    1SOL     OW 2149   1.145   0.012   1.091  0.1308  0.3373  0.2336
    1SOL    HW2 2150   1.166  -0.075   1.124  0.1409  0.9940  2.0448
    1SOL    HW3 2151   1.132   0.000   0.997  0.4196 -1.5533  0.4137
    1SOL    MW4 2152   1.146  -0.001   1.083  0.1701  0.1745  0.4961
    1SOL     OW 2153   0.905   0.089   1.182  0.1249  0.1159  0.1088
    1SOL    HW2 2154   0.911   0.093   1.277 -0.3897 -1.3512  0.2171
    1SOL    HW3 2155   0.992   0.063   1.153  0.2658  0.5032  0.1892
    1SOL    MW4 2156   0.917   0.086   1.191  0.0757 -0.0266  0.1338
    1SOL     OW 2157   0.875   0.348   1.090  0.0824 -0.1255 -0.2217
    1SOL    HW2 2158   0.886   0.265   1.137  0.2570  0.2961  0.4899
    1SOL    HW3 2159   0.801   0.391   1.133 -0.1353  0.0005 -0.7174
    1SOL    MW4 2160   0.867   0.343   1.102  0.0768 -0.0533 -0.1934
    1SOL     OW 2161   1.094   0.467   1.188  0.5183  0.2778 -0.0057
    1SOL    HW2 2162   1.091   0.457   1.283  2.7367 -2.7247 -0.1578
    1SOL    HW3 2163   1.014   0.425   1.157  0.2872  0.3556  0.4838
    1SOL    MW4 2164   1.083   0.460   1.197  0.7806 -0.1081  0.0389
    1SOL     OW 2165   1.123   0.732   1.107 -0.6161  0.2945  0.1119
    1SOL    HW2 2166   1.044   0.766   1.148 -0.2547  0.3613  0.7612
    1SOL    HW3 2167   1.127   0.641   1.134 -0.7975  0.1224 -0.4279
    1SOL    MW4 2168   1.113   0.725   1.116 -0.5924  0.2806  0.1262
    1SOL     OW 2169   0.904   0.838   1.214  0.2742  0.8341 -0.0153
    1SOL    HW2 2170   0.922   0.928   1.191 -0.1349  1.1941  1.0361
    1SOL    HW3 2171   0.813   0.824   1.188  0.5328  0.5261 -0.7667
    1SOL    MW4 2172   0.894   0.848   1.208  0.2545  0.8410  0.0242
    1SOL     OW 2173   0.922   1.126   1.175  0.1168 -0.0189  0.5558
    1SOL    HW2 2174   0.975   1.197   1.212  0.3847 -0.1374  0.4011
    1SOL    HW3 2175   0.931   1.136   1.080 -0.5386  0.2615  0.5241
    1SOL    MW4 2176   0.930   1.137   1.167  0.0656  0.0024  0.5312
    1SOL     OW 2177   1.120   1.315   1.251  0.2963  0.3127 -0.3084
    1SOL    HW2 2178   1.114   1.305   1.346 -0.5770  1.2730 -0.2532
    1SOL    HW3 2179   1.200   1.268   1.227  0.2956 -0.2987  0.8464
    1SOL    MW4 2180   1.130   1.308   1.261  0.1808  0.3586 -0.1489
    1SOL     OW 2181   1.127   1.577   1.161  0.1036 -0.0645 -0.3777
    1SOL    HW2 2182   1.120   1.484   1.185 -1.4804 -0.0489 -0.7406
    1SOL    HW3 2183   1.140   1.576   1.066  0.6169  0.0788 -0.3126
    1SOL    MW4 2184   1.128   1.564   1.152 -0.0376 -0.0436 -0.4171
    1SOL     OW 2185   0.900   1.709   1.241 -0.0057 -0.3705  0.4848
    1SOL    HW2 2186   0.904   1.796   1.202 -0.7071 -0.1154  0.9822
    1SOL    HW3 2187   0.980   1.666   1.210 -0.4817 -0.1356 -1.1264
    1SOL    MW4 2188   0.911   1.715   1.231 -0.1611 -0.3058  0.3381
    1SOL     OW 2189   0.931   1.956   1.130  0.2817  0.3729 -0.1734
    1SOL    HW2 2190   1.007   1.995   1.174 -0.5936  1.1706  0.6770
    1SOL    HW3 2191   0.858   2.012   1.157 -0.9669 -1.7146  0.8727
    1SOL    MW4 2192   0.932   1.969   1.140  0.0015  0.2028  0.0768
    1SOL     OW 2193   1.161   2.081   1.221 -0.4081  0.6560  0.4372
    1SOL    HW2 2194   1.138   2.082   1.314 -1.1346  0.9236  0.2637
    1SOL    HW3 2195   1.135   2.168   1.190  0.0131  0.6326  0.0297
    1SOL    MW4 2196   1.154   2.093   1.229 -0.4483  0.6883  0.3606
    1SOL     OW 2197   1.093   2.321   1.122  0.6324  0.3128  0.5918
    1SOL    HW2 2198   1.157   2.388   1.147 -0.0456  0.2098  2.6837
    1SOL    HW3 2199   1.093   2.323   1.026  1.5530  2.4102  0.5953
    1SOL    MW4 2200   1.102   2.330   1.113  0.6644  0.5758  0.8681
    1SOL     OW 2201   0.889   2.471   1.235 -0.2592  0.0038  0.7196
    1SOL    HW2 2202   0.954   2.414   1.195 -1.4819 -0.4055 -0.7379
    1SOL    HW3 2203   0.805   2.433   1.209 -1.1492  3.4949 -1.8221
    1SOL    MW4 2204   0.886   2.458   1.226 -0.5380  0.4103  0.1919
    1SOL     OW 2205   0.914   2.705   1.078  0.2233  0.5971 -0.4606
    1SOL    HW2 2206   0.915   2.631   1.139 -0.6455 -0.3738 -1.6017
    1SOL    HW3 2207   0.838   2.756   1.103  1.4753  1.7577  1.0696
    1SOL    MW4 2208   0.904   2.702   1.090  0.2739  0.6220 -0.4092
    1SOL     OW 2209   1.128   2.835   1.172 -0.0240  0.5721  0.6964
    1SOL    HW2 2210   1.127   2.811   1.265 -1.0213 -1.4624  0.1977
    1SOL    HW3 2211   1.053   2.788   1.135  0.6067  1.0403 -1.2181
    1SOL    MW4 2212   1.118   2.825   1.179 -0.0724  0.3655  0.3780
    1SOL     OW 2213   1.131   3.103   1.100 -0.1308  0.1350  0.0279
    1SOL    HW2 2214   1.120   3.012   1.127  1.3477  0.2235  1.0297
    1SOL    HW3 2215   1.111   3.104   1.007  0.2458 -1.3030 -0.0790
    1SOL    MW4 2216   1.127   3.091   1.092  0.1138 -0.0429  0.1460
    1SOL     OW 2217   0.928   3.249   1.190  0.5636  0.0095  0.9990
    1SOL    HW2 2218   0.948   3.339   1.162 -0.6382  0.1021  0.3578
    1SOL    HW3 2219   0.997   3.196   1.152  0.8315  0.5693  0.6914
    1SOL    MW4 2220   0.939   3.254   1.181  0.4404  0.0956  0.8738
    1SOL     OW 2221   0.970   3.514   1.097 -0.7063  0.1851  0.2162
    1SOL    HW2 2222   0.885   3.556   1.109 -1.0342 -0.4435  0.1100
    1SOL    HW3 2223   0.996   3.537   1.008 -1.3388 -0.6366 -0.1902
    1SOL    MW4 2224   0.962   3.523   1.087 -0.8331 -0.0064  0.1485
    1SOL     OW 2225   1.183   3.641   1.206 -0.0628 -0.1744  0.0839
    1SOL    HW2 2226   1.249   3.571   1.204  0.8755  0.6482  1.3226
    1SOL    HW3 2227   1.101   3.598   1.183  0.8104 -1.3338 -0.9067
    1SOL    MW4 2228   1.181   3.626   1.203  0.1762 -0.2191  0.1166
    1SOL     OW 2229   1.198   3.894   1.121 -0.1769  0.2504 -0.0472
    1SOL    HW2 2230   1.114   3.937   1.136 -0.6826 -0.8107  0.1543
    1SOL    HW3 2231   1.191   3.810   1.166  0.9813  0.1416 -0.0516
    1SOL    MW4 2232   1.186   3.889   1.129 -0.0908  0.0961 -0.0212
    1SOL     OW 2233   0.976   4.035   1.193 -0.4020  0.0749 -0.2609
    1SOL    HW2 2234   0.963   4.026   1.288  1.4924 -0.5871 -0.0504
    1SOL    HW3 2235   0.905   3.984   1.154 -0.7506 -0.2664  0.8001
    1SOL    MW4 2236   0.965   4.027   1.201 -0.1981 -0.0577 -0.0931
    1SOL     OW 2237   0.920   4.275   1.072 -0.2523  0.1450 -0.0482
    1SOL    HW2 2238   0.951   4.195   1.114  1.0046  0.8473  0.3943
    1SOL    HW3 2239   0.917   4.253   0.979  1.3377 -0.0388 -0.0775
    1SOL    MW4 2240   0.924   4.262   1.065  0.1233  0.2136  0.0063
    1SOL     OW 2241   1.149   4.415   1.167  0.1169 -0.2545 -0.0849
    1SOL    HW2 2242   1.128   4.399   1.259  0.1827 -1.5654 -0.2739
    1SOL    HW3 2243   1.079   4.370   1.119 -0.1572  0.8014 -0.6661
    1SOL    MW4 2244   1.137   4.407   1.173  0.0894 -0.2880 -0.1864
    1SOL     OW 2245   1.551   4.654   1.075 -0.6950  0.3985  0.2974
    1SOL    HW2 2246   1.631   4.699   1.105  1.0658 -1.3210 -1.6522
    1SOL    HW3 2247   1.568   4.562   1.092 -1.3186 -0.1961 -2.1785
    1SOL    MW4 2248   1.564   4.648   1.081 -0.5449  0.0935 -0.2865
    1SOL     OW 2249   1.365   0.122   1.214  0.2471 -0.3379 -0.1624
    1SOL    HW2 2250   1.432   0.084   1.157  0.5863 -1.3542  0.9009
    1SOL    HW3 2251   1.283   0.083   1.182  0.2176  0.4615 -1.0893
    1SOL    MW4 2252   1.363   0.112   1.202  0.2879 -0.3665 -0.1444
    1SOL     OW 2253   1.355   0.398   1.114 -0.4210 -0.0180  0.4418
    1SOL    HW2 2254   1.345   0.303   1.120  0.1436 -0.0641  0.6637
    1SOL    HW3 2255   1.281   0.433   1.162 -1.0196 -0.3422 -0.2288
    1SOL    MW4 2256   1.344   0.390   1.121 -0.4255 -0.0669  0.3827
    1SOL     OW 2257   1.581   0.522   1.227  0.0896 -0.0825 -0.2404
    1SOL    HW2 2258   1.585   0.608   1.185 -1.6633  1.0174  1.7531
    1SOL    HW3 2259   1.502   0.481   1.190  1.2084 -1.1027 -1.5864
    1SOL    MW4 2260   1.571   0.528   1.216  0.0058 -0.0719 -0.1550
    1SOL     OW 2261   1.567   0.775   1.118 -0.0518 -0.3304 -0.2235
    1SOL    HW2 2262   1.647   0.798   1.166 -0.9584  1.7377  0.3172
    1SOL    HW3 2263   1.594   0.776   1.026  0.9638 -1.3757  0.0450
    1SOL    MW4 2264   1.581   0.778   1.112 -0.0376 -0.1955 -0.1167
    1SOL     OW 2265   1.334   0.859   1.232  0.2446  0.1216  0.0135
    1SOL    HW2 2266   1.411   0.813   1.198  1.0227  0.8748  0.7485
    1SOL    HW3 2267   1.260   0.814   1.192  0.9783 -1.9811  0.9676
    1SOL    MW4 2268   1.335   0.847   1.222  0.4441 -0.0564  0.2363
    1SOL     OW 2269   1.326   1.153   1.153 -0.0806  0.5735 -0.2307
    1SOL    HW2 2270   1.311   1.060   1.173  0.3303  0.1170 -1.9601
    1SOL    HW3 2271   1.419   1.166   1.170 -0.1919  0.7280  0.2529
    1SOL    MW4 2272   1.336   1.142   1.158 -0.0411  0.5336 -0.3952
    1SOL     OW 2273   1.594   1.263   1.196 -0.8217 -0.3140 -0.4421
    1SOL    HW2 2274   1.656   1.197   1.164 -0.9562 -0.2833 -0.7652
    1SOL    HW3 2275   1.589   1.247   1.290  0.1708  0.0964 -0.3139
    1SOL    MW4 2276   1.602   1.252   1.204 -0.7085 -0.2559 -0.4679
    1SOL     OW 2277   1.556   1.542   1.169 -0.0362  0.2214 -0.3024
    1SOL    HW2 2278   1.641   1.571   1.202 -0.2773  0.0268  0.5184
    1SOL    HW3 2279   1.559   1.447   1.175 -0.0513  0.1840 -0.9274
    1SOL    MW4 2280   1.567   1.533   1.174 -0.0700  0.1909 -0.2766
    1SOL     OW 2281   1.343   1.708   1.258  0.7509 -0.6242  1.0184
    1SOL    HW2 2282   1.416   1.662   1.217  0.7225 -0.1393  0.4015
    1SOL    HW3 2283   1.265   1.661   1.229  0.7240 -0.2215  0.4131
    1SOL    MW4 2284   1.342   1.696   1.248  0.7436 -0.5070  0.8572
    1SOL     OW 2285   1.396   1.962   1.137 -0.8491  0.1967  0.4674
    1SOL    HW2 2286   1.382   1.877   1.178 -1.3705 -0.0943 -0.2965
    1SOL    HW3 2287   1.323   2.015   1.166 -0.0959  0.6431  1.5913
    1SOL    MW4 2288   1.385   1.958   1.146 -0.8185  0.2173  0.5149
    1SOL     OW 2289   1.620   2.094   1.224  0.2929  0.6265 -0.0975
    1SOL    HW2 2290   1.612   2.188   1.210  0.4274  0.4083 -1.6444
    1SOL    HW3 2291   1.546   2.056   1.176  0.4589 -0.0957  0.2114
    1SOL    MW4 2292   1.609   2.101   1.216  0.3325  0.5021 -0.2608
    1SOL     OW 2293   1.538   2.340   1.139  0.0916 -0.3961  0.0176
    1SOL    HW2 2294   1.453   2.376   1.164  0.9800  0.8103  1.3866
    1SOL    HW3 2295   1.544   2.357   1.045 -1.7596 -1.7432 -0.3630
    1SOL    MW4 2296   1.528   2.347   1.130 -0.0355 -0.4148  0.1482
    1SOL     OW 2297   1.299   2.464   1.214  0.1740  0.3075 -0.1729
    1SOL    HW2 2298   1.298   2.461   1.310 -0.7390  0.0920 -0.1835
    1SOL    HW3 2299   1.323   2.554   1.193 -1.1635  0.7866  0.2682
    1SOL    MW4 2300   1.302   2.475   1.224 -0.1229  0.3424 -0.1161
    1SOL     OW 2301   1.378   2.717   1.087  0.3495 -0.1140  0.0354
    1SOL    HW2 2302   1.449   2.761   1.135 -0.6016  0.2913  1.0938
    1SOL    HW3 2303   1.302   2.773   1.102 -0.1451 -0.4244 -1.2943
    1SOL    MW4 2304   1.377   2.730   1.095  0.1588 -0.1016 -0.0006
    1SOL     OW 2305   1.596   2.879   1.199 -0.1992 -0.1576  0.2358
    1SOL    HW2 2306   1.664   2.816   1.175 -0.0695  0.7411 -1.8837
    1SOL    HW3 2307   1.614   2.956   1.144 -1.2009  1.1877  1.7426
    1SOL    MW4 2308   1.607   2.881   1.188 -0.3141  0.1385  0.1550
    1SOL     OW 2309   1.618   3.125   1.039  0.2247 -0.2932  0.0332
    1SOL    HW2 2310   1.695   3.156   1.087 -0.5229  0.1788  0.9505
    1SOL    HW3 2311   1.544   3.164   1.085 -0.5590 -0.5949 -0.9524
    1SOL    MW4 2312   1.619   3.134   1.051  0.0225 -0.2708  0.0241
    1SOL     OW 2313   1.388   3.210   1.172  0.1108 -0.6762  0.2265
    1SOL    HW2 2314   1.386   3.216   1.268 -1.1378 -1.4560  0.2506
    1SOL    HW3 2315   1.303   3.173   1.148  0.7116 -1.1995 -1.1385
    1SOL    MW4 2316   1.377   3.206   1.182  0.0253 -0.8483  0.0496
    1SOL     OW 2317   1.389   3.478   1.117  0.4917  0.1367  0.5408
    1SOL    HW2 2318   1.376   3.387   1.142 -0.2946  0.4696  1.3593
    1SOL    HW3 2319   1.368   3.481   1.023 -0.1914 -0.3855  0.6755
    1SOL    MW4 2320   1.385   3.467   1.108  0.2979  0.1118  0.6666
    1SOL     OW 2321   1.619   3.600   1.206 -0.0527 -0.2029 -0.0035
    1SOL    HW2 2322   1.590   3.690   1.190 -1.1712 -0.1798  2.0227
    1SOL    HW3 2323   1.541   3.547   1.187  0.1665 -0.6222  0.2710
    1SOL    MW4 2324   1.605   3.605   1.201 -0.1713 -0.2551  0.3000
    1SOL     OW 2325   1.596   3.865   1.125 -0.7462 -0.0694  0.4896
    1SOL    HW2 2326   1.526   3.927   1.141  1.5069  2.6034  0.3515
    1SOL    HW3 2327   1.603   3.860   1.029  0.7973  1.5549  0.4876
    1SOL    MW4 2328   1.588   3.872   1.114 -0.2452  0.4973  0.4711
    1SOL     OW 2329   1.406   4.054   1.209 -0.1862 -0.0054  0.7369
    1SOL    HW2 2330   1.408   4.133   1.155 -0.8585  0.3737  1.2616
    1SOL    HW3 2331   1.335   4.001   1.172  0.7133 -0.7004 -0.0576
    1SOL    MW4 2332   1.397   4.057   1.197 -0.1562 -0.0472  0.7013
    1SOL     OW 2333   1.382   4.308   1.028 -0.4034 -0.0915  0.3279
    1SOL    HW2 2334   1.311   4.348   1.079 -1.7036 -0.7916 -0.9268
    1SOL    HW3 2335   1.338   4.262   0.957  1.2557 -1.3617  0.1022
    1SOL    MW4 2336   1.367   4.307   1.026 -0.3561 -0.3514  0.1327
    1SOL     OW 2337   1.603   4.404   1.163  0.4164 -0.0209  0.0235
    1SOL    HW2 2338   1.568   4.398   1.252  0.0047  1.0618 -0.0518
    1SOL    HW3 2339   1.539   4.358   1.108 -0.0280  0.4703  0.1188
    1SOL    MW4 2340   1.590   4.397   1.167  0.3033  0.1869  0.0261
    1SOL     OW 2341   1.992   4.631   1.118 -0.1213 -0.5872 -0.2011
    1SOL    HW2 2342   2.001   4.539   1.145  1.2228  0.0349  1.5477
    1SOL    HW3 2343   1.988   4.627   1.023 -0.2660 -2.4914 -0.1368
    1SOL    MW4 2344   1.993   4.618   1.109  0.0371 -0.7563  0.0381
    1SOL     OW 2345   1.780   0.123   1.201 -0.1657  0.3740 -0.2815
    1SOL    HW2 2346   1.797   0.204   1.152  0.6588  0.3335 -0.0674
    1SOL    HW3 2347   1.853   0.065   1.177 -2.0727 -1.2279 -2.4005
    1SOL    MW4 2348   1.792   0.126   1.191 -0.3085  0.1573 -0.5330
    1SOL     OW 2349   1.803   0.380   1.098 -0.1741  0.1152  0.0503
    1SOL    HW2 2350   1.738   0.438   1.139 -1.3918 -1.0724 -0.1652
    1SOL    HW3 2351   1.786   0.387   1.004 -0.7974 -1.1322  0.0662
    1SOL    MW4 2352   1.792   0.389   1.091 -0.4171 -0.2061  0.0241
    1SOL     OW 2353   2.029   0.728   1.054 -0.0595  0.0621  0.3733
    1SOL    HW2 2354   2.086   0.779   1.111 -1.1547  0.5977  1.0034
    1SOL    HW3 2355   2.040   0.637   1.084 -0.6280  0.3361  1.4555
    1SOL    MW4 2356   2.038   0.722   1.066 -0.2789  0.1689  0.5991
    1SOL     OW 2357   2.032   0.782   0.773  0.2540  0.0936 -0.1116
    1SOL    HW2 2358   2.114   0.820   0.741  0.5165 -0.8135 -0.5281
    1SOL    HW3 2359   2.043   0.778   0.868  0.1370  1.2492 -0.0435
    1SOL    MW4 2360   2.044   0.786   0.781  0.2732  0.1264 -0.1576
    1SOL     OW 2361   1.824   0.871   1.187 -0.2449  0.3722  0.2875
    1SOL    HW2 2362   1.829   0.849   1.280 -0.1941 -0.0666  0.1819
    1SOL    HW3 2363   1.877   0.804   1.144 -2.2386 -0.8626 -0.3059
    1SOL    MW4 2364   1.832   0.859   1.194 -0.5013  0.1514  0.1953
    1SOL     OW 2365   1.811   1.137   1.085 -0.1403 -0.7457 -0.0752
    1SOL    HW2 2366   1.826   1.047   1.115  4.3317 -0.5141 -1.3286
    1SOL    HW3 2367   1.794   1.128   0.991  0.2209 -0.2654 -0.1840
    1SOL    MW4 2368   1.811   1.124   1.077  0.4975 -0.6517 -0.2549
    1SOL     OW 2369   2.041   1.278   1.239  0.2176  0.1275  0.0074
    1SOL    HW2 2370   2.109   1.222   1.200 -0.8760 -0.8461 -0.5479
    1SOL    HW3 2371   1.961   1.254   1.192 -0.8629 -0.0271  1.8758
    1SOL    MW4 2372   2.039   1.267   1.228 -0.0691 -0.0213  0.1807
    1SOL     OW 2373   2.007   1.546   1.126  0.4888 -0.1470  0.1696
    1SOL    HW2 2374   2.027   1.464   1.170  0.5500 -0.5651 -0.6198
    1SOL    HW3 2375   2.020   1.527   1.033 -0.6319  0.4203 -0.1174
    1SOL    MW4 2376   2.012   1.533   1.119  0.3490 -0.1272  0.0275
    1SOL     OW 2377   1.783   1.646   1.240 -0.0492  0.2316  0.0514
    1SOL    HW2 2378   1.759   1.731   1.202 -0.1009  0.4631  0.5911
    1SOL    HW3 2379   1.862   1.620   1.192 -1.6868 -0.8025 -2.0958
    1SOL    MW4 2380   1.791   1.654   1.229 -0.2723  0.1256 -0.1607
    1SOL     OW 2381   1.819   1.920   1.155  0.2164 -0.0002 -0.3688
    1SOL    HW2 2382   1.757   1.992   1.169  0.8833  0.6869 -0.8681
    1SOL    HW3 2383   1.833   1.919   1.060  1.3083  0.1612 -0.2263
    1SOL    MW4 2384   1.813   1.930   1.144  0.4485  0.1119 -0.4159
    1SOL     OW 2385   2.057   2.005   1.246 -0.4300 -0.2918 -0.0125
    1SOL    HW2 2386   2.046   2.029   1.338  0.4431 -0.0402  0.0356
    1SOL    HW3 2387   1.970   1.979   1.217 -0.7656 -0.1017  0.8104
    1SOL    MW4 2388   2.044   2.005   1.254 -0.3593 -0.2334  0.1025
    1SOL     OW 2389   1.972   2.271   1.149 -0.0247  0.4991  0.1353
    1SOL    HW2 2390   2.041   2.334   1.171 -0.2583  1.2276 -1.1766
    1SOL    HW3 2391   2.003   2.188   1.184  2.0110  0.6029 -1.3473
    1SOL    MW4 2392   1.985   2.269   1.156  0.2131  0.6092 -0.2335
    1SOL     OW 2393   1.776   2.468   1.233  0.0631  0.6406 -0.1206
    1SOL    HW2 2394   1.831   2.390   1.222 -0.4385 -0.0516  2.0551
    1SOL    HW3 2395   1.687   2.436   1.219 -0.0877  0.9551  0.1315
    1SOL    MW4 2396   1.771   2.453   1.230 -0.0229  0.5908  0.1997
    1SOL     OW 2397   1.810   2.715   1.119  0.0754 -0.3226  0.1174
    1SOL    HW2 2398   1.798   2.625   1.148  1.6622 -0.2659  0.9947
    1SOL    HW3 2399   1.788   2.713   1.026 -0.8351 -1.4097  0.3429
    1SOL    MW4 2400   1.805   2.703   1.111  0.1647 -0.4585  0.2627
    1SOL     OW 2401   2.032   2.834   1.241  0.1528 -0.1951  0.3303
    1SOL    HW2 2402   2.058   2.923   1.217  0.8980 -0.8114 -1.2408
    1SOL    HW3 2403   1.964   2.812   1.177 -0.7889 -0.3700  1.3855
    1SOL    MW4 2404   2.026   2.843   1.229  0.1266 -0.2997  0.2621
    1SOL     OW 2405   2.053   3.099   1.134 -0.4329  0.0873 -0.2526
    1SOL    HW2 2406   1.977   3.149   1.164  0.6204  1.2402  0.5458
    1SOL    HW3 2407   2.056   3.114   1.039 -0.1381  1.5315 -0.0238
    1SOL    MW4 2408   2.043   3.108   1.125 -0.2549  0.4299 -0.1172
    1SOL     OW 2409   1.802   3.227   1.219  0.4528  0.3054  0.0398
    1SOL    HW2 2410   1.805   3.237   1.314 -1.1286  1.2486  0.0050
    1SOL    HW3 2411   1.808   3.316   1.184 -1.1390  0.1662 -0.6609
    1SOL    MW4 2412   1.803   3.240   1.227  0.0341  0.4115 -0.0572
    1SOL     OW 2413   1.833   3.476   1.083 -0.2085 -0.3344  0.4379
    1SOL    HW2 2414   1.904   3.512   1.135 -0.7007  0.9247  0.2406
    1SOL    HW3 2415   1.755   3.524   1.111 -0.5924 -0.1341 -0.9530
    1SOL    MW4 2416   1.832   3.487   1.093 -0.3240 -0.1419  0.2284
    1SOL     OW 2417   2.054   3.613   1.197  0.5718 -0.4016  0.1693
    1SOL    HW2 2418   2.059   3.605   1.292  2.1447 -0.6764  0.0774
    1SOL    HW3 2419   2.135   3.572   1.165  0.0450 -0.3396 -1.2874
    1SOL    MW4 2420   2.066   3.606   1.205  0.7095 -0.4296 -0.0352
    1SOL     OW 2421   2.075   3.886   1.185  0.0253 -0.1344 -0.3555
    1SOL    HW2 2422   1.995   3.920   1.225 -0.9593 -0.5300 -1.9076
    1SOL    HW3 2423   2.069   3.791   1.198  0.5363 -0.1114  0.0449
    1SOL    MW4 2424   2.064   3.878   1.192 -0.0372 -0.1838 -0.5076
    1SOL     OW 2425   1.823   3.956   1.277 -0.3623 -0.1828 -0.6099
    1SOL    HW2 2426   1.805   3.977   1.368 -0.0224 -0.5580 -0.4570
    1SOL    HW3 2427   1.741   3.921   1.243 -0.2567 -0.7882 -0.2349
    1SOL    MW4 2428   1.810   3.954   1.284 -0.3035 -0.3121 -0.5403
    1SOL     OW 2429   1.807   4.217   1.154  0.2861  0.5206  0.2752
    1SOL    HW2 2430   1.793   4.138   1.207  0.2034 -0.5707 -1.3589
    1SOL    HW3 2431   1.731   4.272   1.174 -0.3793 -0.4134  0.3680
    1SOL    MW4 2432   1.795   4.213   1.164  0.1873  0.2537  0.0719
    1SOL     OW 2433   2.021   4.369   1.205  0.6418 -0.1465  0.2102
    1SOL    HW2 2434   2.021   4.363   1.300  0.1407  0.8625  0.2744
    1SOL    HW3 2435   1.954   4.306   1.177 -1.7509  2.1239  0.6978
    1SOL    MW4 2436   2.012   4.360   1.214  0.2601  0.2861  0.2830
    1SOL     OW 2437   2.454   4.661   1.136  0.7571  0.2029 -0.1531
    1SOL    HW2 2438   2.531   4.708   1.168  0.8969  0.3640 -0.7110
    1SOL    HW3 2439   2.386   4.680   1.200  0.9184  0.8711 -0.1696
    1SOL    MW4 2440   2.455   4.670   1.148  0.7968  0.3123 -0.2288
    1SOL     OW 2441   2.209   0.103   1.262  0.5561  0.2164 -0.0979
    1SOL    HW2 2442   2.224   0.182   1.209  1.4174  0.2111  0.1303
    1SOL    HW3 2443   2.151   0.049   1.209 -0.2700  1.1295 -0.1382
    1SOL    MW4 2444   2.204   0.106   1.248  0.5608  0.3362 -0.0731
    1SOL     OW 2445   2.027   0.483   1.219  0.3022 -0.3622  0.0975
    1SOL    HW2 2446   2.010   0.496   1.313 -1.2575  2.1767 -0.4860
    1SOL    HW3 2447   1.959   0.421   1.192 -0.4731  0.3931  0.2745
    1SOL    MW4 2448   2.015   0.476   1.228 -0.0057  0.0724  0.0439
    1SOL     OW 2449   2.453   0.510   1.247  0.0907  0.2723  0.1749
    1SOL    HW2 2450   2.457   0.481   1.338 -1.6610 -0.4797  0.0282
    1SOL    HW3 2451   2.382   0.458   1.209  0.1861  1.2677 -1.3701
    1SOL    MW4 2452   2.444   0.499   1.254 -0.1276  0.3044 -0.0484
    1SOL     OW 2453   2.473   0.736   1.115 -0.5819 -0.4769  0.1329
    1SOL    HW2 2454   2.464   0.655   1.166  0.5988 -0.0101  1.0910
    1SOL    HW3 2455   2.496   0.706   1.027  2.4405 -1.1163  1.0950
    1SOL    MW4 2456   2.475   0.721   1.110 -0.0277 -0.4997  0.3864
    1SOL     OW 2457   2.241   0.855   1.195 -0.1166  0.5294 -0.1061
    1SOL    HW2 2458   2.250   0.872   1.289 -0.5269 -1.6657  0.3466
    1SOL    HW3 2459   2.327   0.822   1.168  0.3020  2.0572 -0.7371
    1SOL    MW4 2460   2.254   0.853   1.204 -0.1156  0.4414 -0.1298
    1SOL     OW 2461   2.254   1.120   1.103  0.2583  0.1863 -0.2508
    1SOL    HW2 2462   2.335   1.151   1.144  0.4686  0.2538 -0.7102
    1SOL    HW3 2463   2.251   1.026   1.122  0.7002  0.0883 -0.6595
    1SOL    MW4 2464   2.264   1.112   1.111  0.3440  0.1823 -0.3654
    1SOL     OW 2465   2.481   1.261   1.228 -0.3417 -0.0696 -0.0179
    1SOL    HW2 2466   2.559   1.217   1.193 -1.9421 -1.6862 -1.6047
    1SOL    HW3 2467   2.479   1.346   1.184  1.5291  0.7545  1.4110
    1SOL    MW4 2468   2.491   1.266   1.218 -0.3059 -0.1739 -0.0387
    1SOL     OW 2469   2.459   1.515   1.146  0.0986 -0.3693  0.4384
    1SOL    HW2 2470   2.398   1.558   1.205  0.6007 -1.0090  1.4322
    1SOL    HW3 2471   2.429   1.538   1.058 -0.9825  0.1162  0.9420
    1SOL    MW4 2472   2.447   1.524   1.142  0.0222 -0.3896  0.6360
    1SOL     OW 2473   2.242   1.680   1.238 -0.4308 -0.4812 -0.5750
    1SOL    HW2 2474   2.254   1.767   1.201 -0.4267 -0.9385 -1.6855
    1SOL    HW3 2475   2.158   1.650   1.201  0.1399 -1.4038 -1.1563
    1SOL    MW4 2476   2.233   1.687   1.228 -0.3550 -0.6632 -0.7982
    1SOL     OW 2477   2.297   1.925   1.139 -0.1089 -0.4312 -0.4052
    1SOL    HW2 2478   2.215   1.960   1.174  0.3715  0.1502  0.1639
    1SOL    HW3 2479   2.290   1.934   1.044 -1.6882 -2.5916 -0.5347
    1SOL    MW4 2480   2.286   1.931   1.131 -0.2539 -0.6394 -0.3470
    1SOL     OW 2481   2.530   2.059   1.219  0.6017 -0.3186 -0.3813
    1SOL    HW2 2482   2.601   2.024   1.166  0.6234  0.8970 -1.2010
    1SOL    HW3 2483   2.452   2.015   1.186  0.9004 -1.2361  0.1318
    1SOL    MW4 2484   2.529   2.049   1.208  0.6440 -0.2792 -0.4216
    1SOL     OW 2485   2.418   2.289   1.122 -0.1197  0.1784  0.2607
    1SOL    HW2 2486   2.451   2.206   1.156 -3.4710 -1.1644  0.5137
    1SOL    HW3 2487   2.439   2.287   1.029  0.0044 -0.8728  0.3069
    1SOL    MW4 2488   2.425   2.278   1.114 -0.5455 -0.1376  0.3000
    1SOL     OW 2489   2.200   2.426   1.233  0.4236 -0.5133 -0.4062
    1SOL    HW2 2490   2.211   2.434   1.327 -0.2928 -0.7602 -0.3019
    1SOL    HW3 2491   2.272   2.368   1.205  0.7415 -0.2908 -0.0414
    1SOL    MW4 2492   2.211   2.419   1.241  0.3712 -0.5164 -0.3443
    1SOL     OW 2493   2.269   2.690   1.138 -0.2078  0.2135 -0.1750
    1SOL    HW2 2494   2.233   2.606   1.167 -0.3157  0.3487  0.0901
    1SOL    HW3 2495   2.208   2.756   1.172  0.2216  0.4371  0.1761
    1SOL    MW4 2496   2.256   2.688   1.147 -0.1652  0.2611 -0.0936
    1SOL     OW 2497   2.502   2.832   1.216  0.3189 -0.3660 -0.2545
    1SOL    HW2 2498   2.483   2.849   1.309  1.2482 -1.8262  0.2182
    1SOL    HW3 2499   2.432   2.773   1.188  1.3618 -1.8314  0.1732
    1SOL    MW4 2500   2.490   2.826   1.225  0.5794 -0.7520 -0.1357
    1SOL     OW 2501   2.508   3.095   1.131 -0.3027 -0.1709 -0.2060
    1SOL    HW2 2502   2.430   3.129   1.173  0.9558  0.1724  1.9175
    1SOL    HW3 2503   2.513   3.004   1.158  0.8000  0.1903  0.8634
    1SOL    MW4 2504   2.499   3.087   1.140  0.0091 -0.0782  0.2153
    1SOL     OW 2505   2.277   3.232   1.219 -0.1763  0.0835  0.0850
    1SOL    HW2 2506   2.274   3.312   1.167  0.5206 -0.3193 -0.5870
    1SOL    HW3 2507   2.198   3.185   1.195 -0.3698  0.3707  0.1565
    1SOL    MW4 2508   2.266   3.236   1.209 -0.1099  0.0682  0.0057
    1SOL     OW 2509   2.280   3.488   1.098  0.1040 -0.1333  0.4201
    1SOL    HW2 2510   2.367   3.516   1.128 -0.4096  1.2247  0.6535
    1SOL    HW3 2511   2.288   3.485   1.003  0.7413 -1.1631  0.4920
    1SOL    MW4 2512   2.293   3.491   1.090  0.1204 -0.0901  0.4604
    1SOL     OW 2513   2.513   3.594   1.219 -0.0537  0.2466 -0.1133
    1SOL    HW2 2514   2.507   3.571   1.312 -0.4942 -0.7689 -0.3849
    1SOL    HW3 2515   2.504   3.689   1.218 -1.7532  0.1221  0.7540
    1SOL    MW4 2516   2.511   3.603   1.231 -0.3362  0.0961 -0.0348
    1SOL     OW 2517   2.497   3.864   1.159  0.0925  0.2863 -0.1290
    1SOL    HW2 2518   2.434   3.926   1.197 -0.1748  0.5123 -0.9410
    1SOL    HW3 2519   2.481   3.868   1.065  2.0170  1.1271 -0.4483
    1SOL    MW4 2520   2.486   3.873   1.152  0.3114  0.4270 -0.2782
    1SOL     OW 2521   2.312   4.033   1.258 -0.5656 -0.2711 -0.1592
    1SOL    HW2 2522   2.301   4.124   1.229  0.4868 -0.4979 -1.2662
    1SOL    HW3 2523   2.231   3.990   1.230 -0.9418  0.2414  0.1097
    1SOL    MW4 2524   2.300   4.040   1.251 -0.4766 -0.2337 -0.2698
    1SOL     OW 2525   2.279   4.285   1.139 -0.0763 -0.0899  0.0610
    1SOL    HW2 2526   2.192   4.316   1.164  0.1305  0.8442 -0.3104
    1SOL    HW3 2527   2.270   4.261   1.047 -0.2991 -1.3995  0.4239
    1SOL    MW4 2528   2.267   4.286   1.130 -0.0787 -0.1392  0.0600
    1SOL     OW 2529   2.512   4.394   1.237 -0.2827 -0.2862 -0.3450
    1SOL    HW2 2530   2.442   4.347   1.191  0.0950 -1.1371 -0.0569
    1SOL    HW3 2531   2.502   4.485   1.209  0.6701 -0.9701 -3.0368
    1SOL    MW4 2532   2.501   4.399   1.227 -0.1073 -0.4888 -0.6622
    1SOL     OW 2533   2.906   0.004   1.120  0.0555 -0.3142 -0.1861
    1SOL    HW2 2534   2.909  -0.091   1.132 -0.7274 -0.4377 -0.9068
    1SOL    HW3 2535   2.908   0.016   1.025  0.2018  0.3912 -0.0953
    1SOL    MW4 2536   2.907  -0.007   1.109 -0.0284 -0.2375 -0.2692
    1SOL     OW 2537   2.670   0.122   1.206  0.0314  0.1737 -0.2379
    1SOL    HW2 2538   2.667   0.105   1.301  0.0926  1.3418 -0.0228
    1SOL    HW3 2539   2.753   0.084   1.178  0.5249  0.7832  0.3720
    1SOL    MW4 2540   2.680   0.115   1.215  0.1044  0.4082 -0.1290
    1SOL     OW 2541   2.678   0.371   1.111  0.2023 -0.0126 -0.6762
    1SOL    HW2 2542   2.666   0.285   1.151  2.2364  0.4492  1.0283
    1SOL    HW3 2543   2.621   0.430   1.162  0.7074  0.0821 -0.2141
    1SOL    MW4 2544   2.669   0.368   1.123  0.5372  0.0608 -0.3902
    1SOL     OW 2545   2.932   0.479   1.200  0.2009  0.1267 -0.0976
    1SOL    HW2 2546   2.960   0.563   1.163  1.2896 -0.2148 -0.0511
    1SOL    HW3 2547   2.865   0.447   1.139  1.1165  0.1485 -1.1270
    1SOL    MW4 2548   2.927   0.486   1.187  0.4652  0.0845 -0.2272
    1SOL     OW 2549   2.926   0.740   1.103  0.0472  0.0912  0.0946
    1SOL    HW2 2550   2.997   0.787   1.147  0.3755  0.4835 -0.8444
    1SOL    HW3 2551   2.847   0.787   1.127  0.3404  0.9245 -0.5673
    1SOL    MW4 2552   2.925   0.752   1.112  0.1292  0.2529 -0.1166
    1SOL     OW 2553   2.701   0.875   1.213  0.2069 -0.5193 -0.3820
    1SOL    HW2 2554   2.722   0.964   1.182 -0.5832 -0.3180 -0.3334
    1SOL    HW3 2555   2.618   0.854   1.170  0.8160 -1.5712 -1.0660
    1SOL    MW4 2556   2.693   0.884   1.203  0.1829 -0.6315 -0.4658
    1SOL     OW 2557   2.704   1.130   1.124 -0.0274 -0.0181  0.1654
    1SOL    HW2 2558   2.705   1.135   1.028  0.0082  1.3828  0.2315
    1SOL    HW3 2559   2.779   1.182   1.152 -0.3267 -0.0129  0.9835
    1SOL    MW4 2560   2.714   1.137   1.115 -0.0622  0.1675  0.2820
    1SOL     OW 2561   2.922   1.264   1.232  0.1494 -0.2179 -0.6248
    1SOL    HW2 2562   2.885   1.262   1.321 -0.6496  0.0222 -0.9445
    1SOL    HW3 2563   2.908   1.354   1.202 -0.6358 -0.6001 -1.4273
    1SOL    MW4 2564   2.915   1.276   1.240 -0.0596 -0.2367 -0.7727
    1SOL     OW 2565   2.908   1.518   1.145  0.4233  0.3095  0.2674
    1SOL    HW2 2566   2.988   1.570   1.147 -1.0179  2.5794  1.6814
    1SOL    HW3 2567   2.887   1.509   1.052  1.6925  0.6917 -0.0606
    1SOL    MW4 2568   2.915   1.523   1.133  0.4008  0.6595  0.4106
    1SOL     OW 2569   2.679   1.644   1.221  0.1295 -0.0443 -0.0251
    1SOL    HW2 2570   2.748   1.584   1.192  0.3669 -0.3052  1.0637
    1SOL    HW3 2571   2.598   1.604   1.192  0.3514 -0.3769 -0.1937
    1SOL    MW4 2572   2.678   1.631   1.213  0.1898 -0.1227  0.0964
    1SOL     OW 2573   2.719   1.923   1.077 -0.0351 -0.0632 -0.3892
    1SOL    HW2 2574   2.792   1.958   1.128  0.3191  0.1059 -1.0200
    1SOL    HW3 2575   2.732   1.829   1.079  1.8814  0.1078 -3.0225
    1SOL    MW4 2576   2.730   1.916   1.084  0.2644 -0.0182 -0.8199
    1SOL     OW 2577   2.913   2.054   1.223  0.1022  0.4991  0.3997
    1SOL    HW2 2578   2.920   2.064   1.318  0.1329  1.2171  0.3269
    1SOL    HW3 2579   2.918   2.143   1.189  0.7887  0.1875 -0.3244
    1SOL    MW4 2580   2.914   2.067   1.231  0.1969  0.5527  0.2946
    1SOL     OW 2581   2.890   2.302   1.076  0.3265  0.1713 -0.3504
    1SOL    HW2 2582   2.968   2.339   1.116  0.8270  1.1192 -2.1768
    1SOL    HW3 2583   2.817   2.337   1.128  0.8369  3.0442 -1.4762
    1SOL    MW4 2584   2.891   2.311   1.088  0.4597  0.6754 -0.7399
    1SOL     OW 2585   2.654   2.402   1.207  0.4324  0.2964  0.0169
    1SOL    HW2 2586   2.656   2.392   1.302  1.2914 -1.0279 -0.1291
    1SOL    HW3 2587   2.569   2.367   1.181  0.5890 -0.2327  0.2061
    1SOL    MW4 2588   2.643   2.396   1.216  0.5662  0.0517  0.0226
    1SOL     OW 2589   2.709   2.670   1.130  0.3030 -0.4069  0.4680
    1SOL    HW2 2590   2.687   2.582   1.160  0.3926  0.0450  1.9094
    1SOL    HW3 2591   2.641   2.725   1.167  1.3538  0.3940  1.2386
    1SOL    MW4 2592   2.697   2.665   1.139  0.4537 -0.2415  0.7598
    1SOL     OW 2593   2.924   2.825   1.194 -0.5160  0.0189  0.8801
    1SOL    HW2 2594   2.955   2.809   1.283  0.1556 -2.6541  0.1992
    1SOL    HW3 2595   2.861   2.755   1.177 -0.8384  0.6582 -0.6652
    1SOL    MW4 2596   2.920   2.813   1.203 -0.4699 -0.2499  0.5864
    1SOL     OW 2597   2.968   3.071   1.083 -0.1388  0.0579 -0.0182
    1SOL    HW2 2598   2.966   2.986   1.127  1.9490  0.3813  0.7865
    1SOL    HW3 2599   2.949   3.051   0.992 -0.9315 -1.1043  0.3813
    1SOL    MW4 2600   2.965   3.057   1.077  0.0317 -0.0529  0.1407
    1SOL     OW 2601   2.748   3.212   1.185  0.3192 -0.1854 -0.4500
    1SOL    HW2 2602   2.814   3.150   1.153  0.4658 -0.4912  0.4376
    1SOL    HW3 2603   2.664   3.171   1.161  0.4482  0.4323 -1.9986
    1SOL    MW4 2604   2.745   3.198   1.177  0.3557 -0.1442 -0.5373
    1SOL     OW 2605   2.738   3.487   1.090 -0.3917 -0.0947 -0.1207
    1SOL    HW2 2606   2.737   3.398   1.126 -0.0068  0.4994  1.3927
    1SOL    HW3 2607   2.654   3.524   1.116 -0.1019  0.3435  0.1951
    1SOL    MW4 2608   2.727   3.480   1.098 -0.3030  0.0412  0.1206
    1SOL     OW 2609   2.952   3.616   1.188  0.1971 -0.0912  0.4710
    1SOL    HW2 2610   3.037   3.584   1.159  0.0206  1.4831 -2.0268
    1SOL    HW3 2611   2.889   3.560   1.142 -0.0887  0.5342  0.0855
    1SOL    MW4 2612   2.955   3.605   1.178  0.1366  0.1991  0.0906
    1SOL     OW 2613   2.938   3.877   1.085 -0.0994 -0.2679 -0.0522
    1SOL    HW2 2614   3.022   3.918   1.105  1.4092 -1.8107 -2.7545
    1SOL    HW3 2615   2.946   3.789   1.122 -1.0706  0.0321  0.8662
    1SOL    MW4 2616   2.950   3.870   1.092 -0.0284 -0.4315 -0.2877
    1SOL     OW 2617   2.721   4.021   1.224  0.0270 -0.5768 -0.7087
    1SOL    HW2 2618   2.802   3.983   1.190  0.7149 -0.0852  0.3518
    1SOL    HW3 2619   2.651   3.969   1.184  0.8631 -0.9932 -1.6425
    1SOL    MW4 2620   2.723   4.009   1.214  0.2282 -0.5670 -0.6919
    1SOL     OW 2621   2.697   4.262   1.087 -0.2027  0.1170 -0.3078
    1SOL    HW2 2622   2.710   4.178   1.131  1.8976  0.8312  0.5077
    1SOL    HW3 2623   2.633   4.308   1.143  0.3252 -0.0759  0.4638
    1SOL    MW4 2624   2.690   4.257   1.100  0.1438  0.1855 -0.0985
    1SOL     OW 2625   2.917   4.396   1.171 -0.4407  0.3970 -0.3701
    1SOL    HW2 2626   2.980   4.354   1.113 -0.8789 -0.1549 -0.4468
    1SOL    HW3 2627   2.832   4.362   1.143 -0.6296 -0.0428  0.7485
    1SOL    MW4 2628   2.914   4.386   1.159 -0.5233  0.2656 -0.2327
    1SOL     OW 2629   3.399   4.642   1.140 -0.0943  0.3112 -0.4547
    1SOL    HW2 2630   3.472   4.687   1.182 -0.5212  0.8904 -0.3337
    1SOL    HW3 2631   3.321   4.671   1.188 -0.1746 -2.2304  1.0787
    1SOL    MW4 2632   3.398   4.652   1.152 -0.1609  0.0525 -0.2364
    1SOL     OW 2633   3.168   0.081   1.234  0.3974 -0.1466 -0.1362
    1SOL    HW2 2634   3.159   0.088   1.329 -0.7830 -1.1446 -0.1637
    1SOL    HW3 2635   3.084   0.047   1.204  1.2673 -1.2580 -1.3901
    1SOL    MW4 2636   3.156   0.078   1.242  0.3562 -0.4249 -0.3053
    1SOL     OW 2637   3.159   0.342   1.122 -0.3113  0.1245  0.0899
    1SOL    HW2 2638   3.152   0.258   1.167 -0.5267  0.2336  0.2617
    1SOL    HW3 2639   3.088   0.395   1.158  0.9532  1.0155  1.3576
    1SOL    MW4 2640   3.149   0.338   1.132 -0.1729  0.2564  0.2798
    1SOL     OW 2641   3.366   0.493   1.215 -0.0416 -0.0217 -0.5043
    1SOL    HW2 2642   3.349   0.576   1.172 -0.4892  0.0275 -0.2368
    1SOL    HW3 2643   3.294   0.436   1.189 -0.7488  0.2516  0.7946
    1SOL    MW4 2644   3.355   0.496   1.206 -0.1941  0.0209 -0.2977
    1SOL     OW 2645   3.334   0.744   1.121 -0.4004 -0.3361 -0.2588
    1SOL    HW2 2646   3.368   0.760   1.032 -0.3265 -0.3306 -0.2299
    1SOL    HW3 2647   3.261   0.806   1.130  0.3557  0.5195  0.1204
    1SOL    MW4 2648   3.329   0.755   1.110 -0.2906 -0.2225 -0.2049
    1SOL     OW 2649   3.144   0.908   1.190  0.4646  0.2212  0.0886
    1SOL    HW2 2650   3.135   0.918   1.285  0.5430 -0.6804  0.1922
    1SOL    HW3 2651   3.134   0.997   1.156 -0.2567  0.4574  0.8900
    1SOL    MW4 2652   3.141   0.921   1.198  0.3798  0.1334  0.2080
    1SOL     OW 2653   3.143   1.171   1.078 -0.4780 -0.4865 -0.0284
    1SOL    HW2 2654   3.225   1.200   1.119 -0.5343  0.9839 -0.8933
    1SOL    HW3 2655   3.075   1.218   1.126 -0.6825 -0.3694 -0.4279
    1SOL    MW4 2656   3.145   1.181   1.090 -0.5126 -0.2772 -0.1953
    1SOL     OW 2657   3.374   1.245   1.221  0.6295  0.4118  0.0796
    1SOL    HW2 2658   3.360   1.235   1.315 -0.1109  2.0213  0.1607
    1SOL    HW3 2659   3.367   1.339   1.206  0.0130  0.1008 -1.7024
    1SOL    MW4 2660   3.371   1.256   1.231  0.4504  0.5831 -0.1448
    1SOL     OW 2661   3.381   1.500   1.106 -0.0598 -0.0900  0.2828
    1SOL    HW2 2662   3.455   1.528   1.160 -1.0470  1.0107  1.0908
    1SOL    HW3 2663   3.307   1.549   1.140 -1.1171 -0.9802 -0.7010
    1SOL    MW4 2664   3.381   1.510   1.118 -0.3297 -0.0621  0.2595
    1SOL     OW 2665   3.162   1.644   1.187 -0.1592  0.6516 -0.2213
    1SOL    HW2 2666   3.164   1.645   1.282  0.5115  0.9531 -0.2322
    1SOL    HW3 2667   3.136   1.733   1.162 -0.4095  0.5518 -0.3202
    1SOL    MW4 2668   3.159   1.656   1.196 -0.1035  0.6784 -0.2358
    1SOL     OW 2669   3.120   1.900   1.148  0.4053 -0.1106  0.3623
    1SOL    HW2 2670   3.196   1.937   1.193 -0.0750 -0.3696  1.3857
    1SOL    HW3 2671   3.047   1.956   1.173  0.1015 -0.3624  0.0478
    1SOL    MW4 2672   3.120   1.912   1.157  0.3016 -0.1781  0.4559
    1SOL     OW 2673   3.340   2.016   1.254  0.2599 -0.1633  0.2540
    1SOL    HW2 2674   3.420   1.978   1.216 -0.0480 -1.0725  0.5115
    1SOL    HW3 2675   3.339   2.106   1.220  1.7270  0.0669  0.7465
    1SOL    MW4 2676   3.351   2.023   1.245  0.4129 -0.2530  0.3530
    1SOL     OW 2677   3.335   2.269   1.130 -0.0467  0.7049 -0.0574
    1SOL    HW2 2678   3.412   2.322   1.149  0.0107  0.8041 -0.5817
    1SOL    HW3 2679   3.260   2.324   1.155 -0.0060  1.2082 -1.0303
    1SOL    MW4 2680   3.335   2.283   1.136 -0.0339  0.7844 -0.2549
    1SOL     OW 2681   3.107   2.416   1.179 -0.3302 -0.3566  0.3761
    1SOL    HW2 2682   3.098   2.429   1.273 -0.4646 -0.1900  0.3423
    1SOL    HW3 2683   3.126   2.504   1.145  0.0652 -0.4780  0.2880
    1SOL    MW4 2684   3.108   2.429   1.187 -0.2959 -0.3507  0.3600
    1SOL     OW 2685   3.149   2.701   1.082  0.4836  0.3349  0.2743
    1SOL    HW2 2686   3.077   2.759   1.108  0.2691 -0.5097  1.5992
    1SOL    HW3 2687   3.145   2.699   0.987 -2.2623 -0.9635  0.3624
    1SOL    MW4 2688   3.139   2.709   1.073  0.0935  0.0522  0.4606
    1SOL     OW 2689   3.364   2.812   1.225 -0.2751 -0.0116  0.5665
    1SOL    HW2 2690   3.363   2.904   1.196 -1.2489  0.2555  1.4267
    1SOL    HW3 2691   3.290   2.772   1.178  0.5413 -0.5171 -0.3007
    1SOL    MW4 2692   3.354   2.819   1.215 -0.2959 -0.0432  0.5656
    1SOL     OW 2693   3.335   3.092   1.139 -0.1523  0.3434 -0.8399
    1SOL    HW2 2694   3.417   3.123   1.177 -0.4417 -3.1330  2.9979
    1SOL    HW3 2695   3.268   3.151   1.174  0.1443  0.1443  0.0590
    1SOL    MW4 2696   3.337   3.104   1.148 -0.1514 -0.1419 -0.2149
    1SOL     OW 2697   3.100   3.271   1.200  0.1985  0.0604 -0.2004
    1SOL    HW2 2698   3.118   3.227   1.283 -2.0677 -0.2496  0.1717
    1SOL    HW3 2699   3.059   3.204   1.146 -0.7801  0.9711 -0.6072
    1SOL    MW4 2700   3.097   3.256   1.204 -0.2296  0.1395 -0.2049
    1SOL     OW 2701   3.165   3.484   1.039  0.1113 -0.1458  0.1677
    1SOL    HW2 2702   3.243   3.533   1.062 -0.1018  0.6272 -0.7160
    1SOL    HW3 2703   3.156   3.418   1.108  0.2581  1.2009  1.4875
    1SOL    MW4 2704   3.174   3.481   1.051  0.1025  0.1342  0.2252
    1SOL     OW 2705   3.386   3.618   1.175  0.2539  0.5563  0.0634
    1SOL    HW2 2706   3.368   3.632   1.268  0.7663  1.0031  0.0951
    1SOL    HW3 2707   3.455   3.552   1.174  0.2384  0.5410 -0.0037
    1SOL    MW4 2708   3.393   3.611   1.187  0.3200  0.6135  0.0589
    1SOL     OW 2709   3.415   3.877   1.024  0.4107  0.3079  0.6443
    1SOL    HW2 2710   3.413   3.790   1.066  1.4676  0.0804  0.2485
    1SOL    HW3 2711   3.342   3.924   1.064  0.0786 -0.6260  1.1741
    1SOL    MW4 2712   3.406   3.871   1.035  0.5062  0.1547  0.6621
    1SOL     OW 2713   3.188   4.012   1.146  0.5143  0.2960  0.1010
    1SOL    HW2 2714   3.181   4.042   1.236  0.1213  0.3357  0.0581
    1SOL    HW3 2715   3.198   4.092   1.094  1.0753  0.2539  0.1377
    1SOL    MW4 2716   3.189   4.027   1.151  0.5362  0.2961  0.1003
    1SOL     OW 2717   3.148   4.287   1.033  0.2387  0.0123 -0.2104
    1SOL    HW2 2718   3.223   4.329   1.075  0.2657 -0.0194 -0.2269
    1SOL    HW3 2719   3.176   4.276   0.942  0.0335  0.4368 -0.3300
    1SOL    MW4 2720   3.162   4.291   1.026  0.2153  0.0639 -0.2284
    1SOL     OW 2721   3.383   4.369   1.201 -0.2549 -0.1090 -0.3156
    1SOL    HW2 2722   3.468   4.347   1.164  0.3089  1.7240 -0.1592
    1SOL    HW3 2723   3.372   4.462   1.182 -1.8048 -0.1052  0.5029
    1SOL    MW4 2724   3.392   4.378   1.193 -0.3850  0.1330 -0.1869
    1SOL     OW 2725   3.832   4.659   1.131  0.5593 -0.2896  0.0780
    1SOL    HW2 2726   3.861   4.576   1.169  0.0912 -0.2695  0.4819
    1SOL    HW3 2727   3.824   4.641   1.037 -0.3699 -0.9449  0.2739
    1SOL    MW4 2728   3.835   4.646   1.124  0.3750 -0.3734  0.1570
    1SOL     OW 2729   3.598   0.127   1.241 -0.2753 -0.3966  0.1983
    1SOL    HW2 2730   3.596   0.219   1.213  1.0469 -0.3449  0.2599
    1SOL    HW3 2731   3.683   0.095   1.212 -0.1187 -1.1896  1.5001
    1SOL    MW4 2732   3.609   0.135   1.233 -0.0801 -0.4944  0.3783
    1SOL     OW 2733   3.606   0.381   1.132 -0.3634 -0.7008  0.0636
    1SOL    HW2 2734   3.670   0.425   1.187 -0.4258  0.2300 -0.6068
    1SOL    HW3 2735   3.522   0.422   1.154 -0.3876 -0.3188 -0.7214
    1SOL    MW4 2736   3.603   0.392   1.142 -0.3748 -0.5276 -0.1284
    1SOL     OW 2737   3.803   0.496   1.281  0.3755  0.2306  0.3623
    1SOL    HW2 2738   3.885   0.448   1.267  1.0054  1.8136 -1.6728
    1SOL    HW3 2739   3.817   0.580   1.236 -3.1358 -0.2863 -1.8993
    1SOL    MW4 2740   3.816   0.501   1.273 -0.0048  0.3712 -0.2046
    1SOL     OW 2741   3.811   0.744   1.140  0.0411 -0.2392  0.3533
    1SOL    HW2 2742   3.881   0.802   1.172 -0.0316 -0.8750  1.6841
    1SOL    HW3 2743   3.731   0.779   1.179  0.1266 -1.8266  1.9690
    1SOL    MW4 2744   3.810   0.756   1.149  0.0429 -0.5325  0.7420
    1SOL     OW 2745   3.573   0.880   1.249  0.5174  0.7498 -0.0738
    1SOL    HW2 2746   3.571   0.967   1.211 -0.2407  0.6621 -0.2327
    1SOL    HW3 2747   3.494   0.837   1.216  1.3566 -0.3088 -0.7441
    1SOL    MW4 2748   3.563   0.885   1.240  0.5279  0.5985 -0.1833
    1SOL     OW 2749   3.586   1.114   1.088 -0.1019 -0.0086  0.0661
    1SOL    HW2 2750   3.655   1.169   1.124  0.0152  1.2411 -1.9840
    1SOL    HW3 2751   3.505   1.155   1.119  0.0086  0.8172 -0.7008
    1SOL    MW4 2752   3.584   1.127   1.097 -0.0720  0.2652 -0.3057
    1SOL     OW 2753   3.796   1.239   1.205 -0.1331 -0.3687  0.2329
    1SOL    HW2 2754   3.795   1.235   1.301 -1.6708  0.4274  0.2645
    1SOL    HW3 2755   3.797   1.333   1.186 -0.6106 -0.5218 -0.5388
    1SOL    MW4 2756   3.796   1.251   1.215 -0.3991 -0.2837  0.1353
    1SOL     OW 2757   3.821   1.498   1.118  0.2471  0.0587  0.2072
    1SOL    HW2 2758   3.901   1.549   1.129  0.9583 -1.0318  0.2229
    1SOL    HW3 2759   3.805   1.498   1.024  0.0253  0.6343  0.2437
    1SOL    MW4 2760   3.829   1.505   1.107  0.3114 -0.0092  0.2141
    1SOL     OW 2761   3.599   1.633   1.237  0.3308  0.2135  0.3555
    1SOL    HW2 2762   3.585   1.723   1.207 -0.7828 -0.3422 -0.8849
    1SOL    HW3 2763   3.671   1.600   1.183 -1.9490 -0.9223 -2.1234
    1SOL    MW4 2764   3.606   1.640   1.226 -0.1166 -0.0098 -0.1352
    1SOL     OW 2765   3.573   1.906   1.162  0.1049  0.2271 -0.0709
    1SOL    HW2 2766   3.649   1.955   1.193  0.7138 -1.1080  0.6009
    1SOL    HW3 2767   3.579   1.910   1.066  1.6294 -0.7423 -0.0399
    1SOL    MW4 2768   3.584   1.913   1.153  0.3865 -0.0768  0.0218
    1SOL     OW 2769   4.028   1.941   1.086  0.4293 -0.0813  0.3661
    1SOL    HW2 2770   3.953   1.983   1.128  1.7167  1.7379  0.9055
    1SOL    HW3 2771   4.024   1.850   1.116 -1.9813 -0.2037 -0.2376
    1SOL    MW4 2772   4.018   1.934   1.096  0.2813  0.1427  0.3576
    1SOL     OW 2773   3.821   2.078   1.195  0.3577 -0.1992  0.1669
    1SOL    HW2 2774   3.807   2.170   1.172  2.4374 -0.1985 -1.1895
    1SOL    HW3 2775   3.831   2.078   1.290 -0.7329  0.8226  0.2952
    1SOL    MW4 2776   3.820   2.090   1.204  0.4883 -0.0646  0.0049
    1SOL     OW 2777   3.569   2.424   1.271  0.2717  0.2788 -0.0068
    1SOL    HW2 2778   3.575   2.415   1.366 -1.0399 -0.6288  0.0007
    1SOL    HW3 2779   3.654   2.393   1.239  0.7429  0.6510  0.8691
    1SOL    MW4 2780   3.581   2.418   1.279  0.1609  0.2081  0.1097
    1SOL     OW 2781   3.574   2.652   1.118 -0.1042  0.2157 -0.1427
    1SOL    HW2 2782   3.568   2.570   1.167 -1.9766  0.4529  0.0567
    1SOL    HW3 2783   3.505   2.707   1.155  0.8821  1.7380 -0.5479
    1SOL    MW4 2784   3.564   2.648   1.129 -0.2213  0.4480 -0.1699
    1SOL     OW 2785   3.795   2.793   1.186 -0.3376  0.2948 -0.1138
    1SOL    HW2 2786   3.781   2.800   1.281  0.3227  2.2387 -0.1429
    1SOL    HW3 2787   3.724   2.737   1.156  0.0614 -1.2396  1.6862
    1SOL    MW4 2788   3.784   2.787   1.195 -0.1979  0.3488  0.1198
    1SOL     OW 2789   3.799   3.057   1.120 -0.0735 -0.2928 -0.8937
    1SOL    HW2 2790   3.796   2.966   1.150 -0.5246  0.0586  0.1625
    1SOL    HW3 2791   3.809   3.051   1.025  0.4291 -1.4425 -0.7791
    1SOL    MW4 2792   3.800   3.044   1.111 -0.0670 -0.3982 -0.7392
    1SOL     OW 2793   3.567   3.202   1.235  0.5001  0.2168  0.1241
    1SOL    HW2 2794   3.575   3.286   1.191  0.1330  0.6392  0.8463
    1SOL    HW3 2795   3.629   3.145   1.191  0.0748  0.6025 -0.9871
    1SOL    MW4 2796   3.576   3.205   1.224  0.3955  0.3233  0.0728
    1SOL     OW 2797   3.598   3.459   1.114 -0.1410  0.2799  0.7053
    1SOL    HW2 2798   3.681   3.496   1.144  0.5887 -1.0184  0.3186
    1SOL    HW3 2799   3.600   3.471   1.019  0.3112 -1.1433  0.5224
    1SOL    MW4 2800   3.609   3.466   1.105  0.0145 -0.0792  0.6301
    1SOL     OW 2801   3.831   3.587   1.194  0.1825 -0.2658 -0.2101
    1SOL    HW2 2802   3.846   3.587   1.289 -1.6920  1.2569  0.1127
    1SOL    HW3 2803   3.836   3.679   1.169 -1.9136 -0.3778 -1.1532
    1SOL    MW4 2804   3.834   3.599   1.203 -0.3414 -0.0796 -0.2919
    1SOL     OW 2805   3.837   3.842   1.109  0.2015 -0.0763  0.2010
    1SOL    HW2 2806   3.763   3.892   1.143  0.4214 -1.1063  2.2899
    1SOL    HW3 2807   3.827   3.846   1.014 -2.3634  0.0600  0.4272
    1SOL    MW4 2808   3.826   3.849   1.101 -0.1078 -0.1941  0.5065
    1SOL     OW 2809   3.609   4.003   1.157 -0.1668 -0.5056  0.4358
    1SOL    HW2 2810   3.579   4.006   1.248  0.0461 -0.0328  0.4928
    1SOL    HW3 2811   3.545   3.948   1.113 -1.1581  0.5393  0.5376
    1SOL    MW4 2812   3.597   3.996   1.163 -0.2694 -0.3057  0.4568
    1SOL     OW 2813   3.634   4.273   1.094  0.4972  0.2245  0.3863
    1SOL    HW2 2814   3.637   4.180   1.120  0.5860  0.2663  0.5251
    1SOL    HW3 2815   3.623   4.271   0.999  1.3492  0.0740  0.2863
    1SOL    MW4 2816   3.633   4.260   1.085  0.6213  0.2098  0.3914
    1SOL     OW 2817   3.861   4.399   1.207 -0.5751  0.1785 -0.1027
    1SOL    HW2 2818   3.839   4.407   1.300 -0.2891  0.4001 -0.0548
    1SOL    HW3 2819   3.789   4.347   1.170 -0.1420 -0.8204  0.4400
    1SOL    MW4 2820   3.848   4.393   1.214 -0.4802  0.0758 -0.0248
    1SOL     OW 2821   4.276   4.617   1.127 -0.4375 -0.1508 -0.1486
    1SOL    HW2 2822   4.265   4.526   1.154 -1.1175 -0.3329 -1.0488
    1SOL    HW3 2823   4.209   4.665   1.176  0.3168 -0.0311  0.7938
    1SOL    MW4 2824   4.266   4.611   1.137 -0.4277 -0.1588 -0.1431
    1SOL     OW 2825   4.061   0.113   1.225 -0.3823  0.3414 -0.0922
    1SOL    HW2 2826   4.039   0.102   1.318  1.1842  0.3647  0.2898
    1SOL    HW3 2827   3.986   0.075   1.179 -0.4320 -1.1952  1.1870
    1SOL    MW4 2828   4.048   0.106   1.231 -0.1822  0.1417  0.1270
    1SOL     OW 2829   4.071   0.381   1.177  0.1008  0.3469 -0.1383
    1SOL    HW2 2830   4.072   0.286   1.185  2.3073  0.4278  1.0932
    1SOL    HW3 2831   4.057   0.398   1.084 -1.3837 -1.1546 -0.1985
    1SOL    MW4 2832   4.069   0.371   1.166  0.1965  0.1595  0.0161
    1SOL     OW 2833   4.296   0.534   1.264  0.0542 -0.2976 -0.3635
    1SOL    HW2 2834   4.300   0.536   1.360 -0.8815 -1.1351 -0.2935
    1SOL    HW3 2835   4.224   0.474   1.245  1.7416 -2.0014 -1.6020
    1SOL    MW4 2836   4.287   0.526   1.274  0.1531 -0.6329 -0.5176
    1SOL     OW 2837   4.245   0.798   1.219  0.1815  0.1121  0.1711
    1SOL    HW2 2838   4.251   0.706   1.245 -1.7262  0.1108  0.6756
    1SOL    HW3 2839   4.335   0.830   1.223  0.5976 -1.1962  1.9429
    1SOL    MW4 2840   4.258   0.790   1.223 -0.0153 -0.0607  0.4714
    1SOL     OW 2841   4.010   0.917   1.228  0.2470  0.4804 -0.7449
    1SOL    HW2 2842   3.989   0.925   1.321 -0.6066 -1.0723 -0.7957
    1SOL    HW3 2843   4.098   0.881   1.227  0.7165  1.6042 -0.5424
    1SOL    MW4 2844   4.019   0.913   1.240  0.1965  0.4238 -0.7249
    1SOL     OW 2845   4.020   1.142   1.062  0.2692  0.1004  0.1893
    1SOL    HW2 2846   4.024   1.062   1.113 -1.0113  0.7250  1.2856
    1SOL    HW3 2847   3.944   1.190   1.096  0.6893  1.5320 -0.8028
    1SOL    MW4 2848   4.011   1.138   1.073  0.1559  0.3718  0.2030
    1SOL     OW 2849   4.251   1.260   1.178  0.2366  0.0722  0.0312
    1SOL    HW2 2850   4.234   1.264   1.272 -0.0829 -0.3097 -0.0121
    1SOL    HW3 2851   4.171   1.224   1.140  0.2889  0.4134 -0.4098
    1SOL    MW4 2852   4.238   1.256   1.185  0.2017  0.0668 -0.0327
    1SOL     OW 2853   4.271   1.536   1.101  0.4312  0.3258  0.1358
    1SOL    HW2 2854   4.270   1.445   1.133 -2.5920  0.3165  0.1935
    1SOL    HW3 2855   4.334   1.580   1.157  1.1048 -1.5019  0.8655
    1SOL    MW4 2856   4.279   1.530   1.113  0.1206  0.0834  0.2395
    1SOL     OW 2857   4.035   1.676   1.178 -0.4447  0.0433  0.2548
    1SOL    HW2 2858   4.020   1.667   1.272  0.2777 -0.5790  0.3195
    1SOL    HW3 2859   4.118   1.630   1.163 -0.3790  0.4450 -0.6269
    1SOL    MW4 2860   4.044   1.669   1.188 -0.3409  0.0141  0.1471
    1SOL     OW 2861   3.364   1.932   0.489 -0.0842 -0.0080  0.2042
    1SOL    HW2 2862   3.418   1.996   0.444  0.6919  0.1337  1.3198
    1SOL    HW3 2863   3.419   1.853   0.494 -0.6216 -0.4118 -0.1863
    1SOL    MW4 2864   3.378   1.930   0.484 -0.0525 -0.0426  0.2999
    1SOL     OW 2865   4.246   2.052   1.222  0.3252  0.2089 -0.4709
    1SOL    HW2 2866   4.258   2.143   1.196  1.6360  0.1271 -0.2183
    1SOL    HW3 2867   4.180   2.018   1.162  1.6473  0.6392 -2.2204
    1SOL    MW4 2868   4.239   2.059   1.211  0.6728  0.2551 -0.6685
    1SOL     OW 2869   4.285   2.299   1.137 -0.1797 -0.1996 -0.6725
    1SOL    HW2 2870   4.213   2.349   1.175 -1.6234 -2.5622 -0.2220
    1SOL    HW3 2871   4.271   2.305   1.043 -0.0877  0.6247 -0.6343
    1SOL    MW4 2872   4.274   2.306   1.130 -0.3586 -0.4027 -0.6081
    1SOL     OW 2873   4.049   2.441   1.225 -0.0740 -0.1039  0.1442
    1SOL    HW2 2874   4.027   2.456   1.317  1.5687  0.0630  0.5125
    1SOL    HW3 2875   4.055   2.529   1.187 -1.3445 -0.1845 -0.2831
    1SOL    MW4 2876   4.047   2.455   1.232 -0.0253 -0.0925  0.1364
    1SOL     OW 2877   4.052   2.700   1.105 -0.0857 -0.0739  0.0447
    1SOL    HW2 2878   3.971   2.750   1.115  0.1135  0.2669 -0.0241
    1SOL    HW3 2879   4.091   2.733   1.024 -0.4056 -0.9877 -0.4920
    1SOL    MW4 2880   4.047   2.711   1.096 -0.1020 -0.1495 -0.0352
    1SOL     OW 2881   4.286   2.839   1.200  0.1420  0.3606 -0.2105
    1SOL    HW2 2882   4.288   2.931   1.173 -0.1968 -0.0772 -1.7779
    1SOL    HW3 2883   4.196   2.811   1.183  0.3389 -0.3616 -0.0714
    1SOL    MW4 2884   4.274   2.848   1.194  0.1235  0.2079 -0.3988
    1SOL     OW 2885   4.274   3.132   1.086  0.0612 -0.3003  0.2005
    1SOL    HW2 2886   4.182   3.147   1.110  0.2797  0.5058  0.5237
    1SOL    HW3 2887   4.269   3.102   0.995 -0.4745  0.4172 -0.0126
    1SOL    MW4 2888   4.261   3.130   1.077  0.0191 -0.0994  0.2151
    1SOL     OW 2889   4.024   3.186   1.200 -0.2670 -0.3602 -0.3120
    1SOL    HW2 2890   4.046   3.185   1.293  1.0874 -1.2741 -0.6156
    1SOL    HW3 2891   3.941   3.139   1.194 -1.1427  1.0520  0.6048
    1SOL    MW4 2892   4.016   3.180   1.212 -0.2046 -0.2942 -0.2311
    1SOL     OW 2893   4.044   3.441   1.090  0.2271  0.1678  0.2817
    1SOL    HW2 2894   4.032   3.352   1.121 -1.3773 -0.4029 -1.8025
    1SOL    HW3 2895   3.968   3.489   1.124 -1.1785 -0.3054 -2.0748
    1SOL    MW4 2896   4.033   3.436   1.098 -0.1702  0.0303 -0.3042
    1SOL     OW 2897   4.275   3.576   1.195 -0.3200 -0.1515  0.4580
    1SOL    HW2 2898   4.215   3.508   1.165 -0.4273  0.3463 -0.4693
    1SOL    HW3 2899   4.362   3.543   1.172 -0.2870 -0.4743  1.0189
    1SOL    MW4 2900   4.279   3.563   1.188 -0.3295 -0.1285  0.4096
    1SOL     OW 2901   4.266   3.856   1.131 -0.2207 -0.4028  0.0508
    1SOL    HW2 2902   4.209   3.886   1.202  0.3117 -1.1984  0.8173
    1SOL    HW3 2903   4.268   3.761   1.140 -0.6909 -0.5768 -1.4588
    1SOL    MW4 2904   4.259   3.847   1.142 -0.2122 -0.5312 -0.0473
    1SOL     OW 2905   4.045   3.997   1.260 -0.3738 -0.0794 -0.0028
    1SOL    HW2 2906   4.053   4.079   1.210 -0.9382 -0.9762 -1.6048
    1SOL    HW3 2907   3.985   3.944   1.208  0.2917 -1.6587  0.8287
    1SOL    MW4 2908   4.038   4.001   1.246 -0.3605 -0.4063 -0.1044
    1SOL     OW 2909   4.085   4.246   1.115 -0.0040 -0.3654  0.0602
    1SOL    HW2 2910   4.019   4.304   1.153 -2.4967 -2.8308 -0.3058
    1SOL    HW3 2911   4.069   4.249   1.021  1.5553  0.3449 -0.1874
    1SOL    MW4 2912   4.074   4.254   1.108 -0.1273 -0.5975 -0.0207
    1SOL     OW 2913   4.310   4.358   1.221 -0.4192 -0.4901  0.1938
    1SOL    HW2 2914   4.239   4.316   1.171 -0.4874  0.5374 -0.5712
    1SOL    HW3 2915   4.390   4.323   1.183 -0.4873 -0.7448  0.2772
    1SOL    MW4 2916   4.311   4.348   1.209 -0.4373 -0.3886  0.1038
    1SOL     OW 2917   0.248   4.609   1.601  0.2172 -0.0609  0.2288
    1SOL    HW2 2918   0.329   4.647   1.568  0.6439 -1.2816 -0.1605
    1SOL    HW3 2919   0.179   4.668   1.569  0.7147 -0.6054 -1.9252
    1SOL    MW4 2920   0.249   4.622   1.592  0.3391 -0.2937 -0.1067
    1SOL     OW 2921   0.017   0.093   1.501  0.0541  0.5000 -0.2465
    1SOL    HW2 2922  -0.069   0.063   1.531 -0.3014  1.8555  0.1533
    1SOL    HW3 2923   0.005   0.110   1.407  0.4104 -1.1054 -0.5935
    1SOL    MW4 2924   0.004   0.092   1.492  0.0544  0.4670 -0.2395
    1SOL     OW 2925   0.031   0.359   1.627  0.4153  0.1913  0.2410
    1SOL    HW2 2926   0.034   0.343   1.721 -0.3064  1.4659  0.4939
    1SOL    HW3 2927   0.018   0.273   1.588  0.1770 -0.2777  1.3426
    1SOL    MW4 2928   0.030   0.346   1.634  0.2886  0.2976  0.4196
    1SOL     OW 2929   0.243   0.488   1.515  0.1509 -0.0215  0.1939
    1SOL    HW2 2930   0.159   0.449   1.542  0.4817 -0.7452  0.1759
    1SOL    HW3 2931   0.235   0.497   1.420 -0.7033  1.7994  0.4160
    1SOL    MW4 2932   0.231   0.484   1.506  0.0819  0.1233  0.2209
    1SOL     OW 2933   0.220   0.765   1.611 -0.0263 -0.1895 -0.2709
    1SOL    HW2 2934   0.231   0.674   1.581  0.3269 -0.2272 -0.0228
    1SOL    HW3 2935   0.294   0.812   1.572 -0.1189 -0.0387 -0.2647
    1SOL    MW4 2936   0.231   0.759   1.602  0.0081 -0.1745 -0.2373
    1SOL     OW 2937   4.482   0.887   1.523 -0.0760 -0.2831  0.2663
    1SOL    HW2 2938   4.488   0.981   1.540 -0.6363 -0.1957 -0.0197
    1SOL    HW3 2939   4.570   0.854   1.542  0.3049  0.4018 -0.2621
    1SOL    MW4 2940   4.495   0.895   1.527 -0.0997 -0.1813  0.1589
    1SOL     OW 2941   4.474   1.160   1.580  0.2819  0.0264 -0.1465
    1SOL    HW2 2942   4.486   1.159   1.675  1.4655 -1.1481 -0.3039
    1SOL    HW3 2943   4.547   1.213   1.547  0.0636  0.1493 -0.4373
    1SOL    MW4 2944   4.485   1.167   1.589  0.4096 -0.1123 -0.2056
    1SOL     OW 2945   0.225   1.261   1.491  0.0642 -0.3241 -0.3734
    1SOL    HW2 2946   0.302   1.217   1.527 -0.1757 -0.4814 -0.0516
    1SOL    HW3 2947   0.238   1.353   1.512  0.9854 -0.1293 -1.8082
    1SOL    MW4 2948   0.237   1.267   1.499  0.1541 -0.3191 -0.5203
    1SOL     OW 2949   0.256   1.536   1.572  0.0892 -0.1380 -0.0967
    1SOL    HW2 2950   0.273   1.552   1.664 -1.4752  0.2491  0.1490
    1SOL    HW3 2951   0.166   1.566   1.559  0.5993  0.7062 -1.9531
    1SOL    MW4 2952   0.246   1.542   1.582 -0.0499  0.0244 -0.3091
    1SOL     OW 2953   0.010   1.638   1.517  0.2674 -0.0079 -0.0605
    1SOL    HW2 2954   0.020   1.730   1.541 -0.4145  0.1130 -0.2264
    1SOL    HW3 2955  -0.010   1.640   1.423 -2.9682 -0.1250  0.5830
    1SOL    MW4 2956   0.009   1.651   1.508 -0.2494 -0.0075  0.0024
    1SOL     OW 2957   0.004   1.904   1.592  0.1704  0.8518  0.5410
    1SOL    HW2 2958  -0.001   1.919   1.686  0.0906 -0.0265  0.6809
    1SOL    HW3 2959  -0.075   1.945   1.557 -1.5498 -1.6961  1.2559
    1SOL    MW4 2960  -0.007   1.911   1.600 -0.0671  0.3997  0.6539
    1SOL     OW 2961   0.189   2.091   1.492 -0.7218  0.1306 -0.5656
    1SOL    HW2 2962   0.135   2.020   1.526  1.1067 -0.1146  1.9511
    1SOL    HW3 2963   0.198   2.072   1.399 -1.5941 -2.0337 -0.2385
    1SOL    MW4 2964   0.183   2.079   1.484 -0.5957 -0.1876 -0.1905
    1SOL     OW 2965   0.199   2.366   1.607 -0.2119  0.1006 -0.1436
    1SOL    HW2 2966   0.200   2.359   1.703 -2.4446  0.3366 -0.0732
    1SOL    HW3 2967   0.216   2.277   1.576  1.7907  0.2489  0.4338
    1SOL    MW4 2968   0.201   2.354   1.616 -0.2422  0.1514 -0.0581
    1SOL     OW 2969   4.434   2.411   1.542  0.5270  0.0843 -0.1733
    1SOL    HW2 2970   4.373   2.360   1.595  1.9284 -0.3832  1.0451
    1SOL    HW3 2971   4.520   2.391   1.580  1.2182  2.4300 -0.4374
    1SOL    MW4 2972   4.438   2.402   1.554  0.8035  0.3321 -0.0474
    1SOL     OW 2973   4.477   2.685   1.596 -0.3991 -0.1289 -0.1764
    1SOL    HW2 2974   4.403   2.739   1.566 -0.3153 -0.8386 -1.6869
    1SOL    HW3 2975   4.445   2.595   1.590  0.2274 -0.3824  0.2288
    1SOL    MW4 2976   4.463   2.680   1.592 -0.3054 -0.2561 -0.3223
    1SOL     OW 2977   0.241   2.798   1.507 -0.1407  0.1818  0.1428
    1SOL    HW2 2978   0.316   2.778   1.562  0.9376  1.2625 -0.8765
    1SOL    HW3 2979   0.168   2.748   1.544  0.1068  2.1968  3.6109
    1SOL    MW4 2980   0.241   2.789   1.519  0.0342  0.5901  0.4660
    1SOL     OW 2981   0.246   3.067   1.580  0.2170 -0.4139 -0.1505
    1SOL    HW2 2982   0.168   3.118   1.555 -0.3756 -1.5697 -0.6925
    1SOL    HW3 2983   0.222   2.976   1.562  1.4669 -0.8419  0.2980
    1SOL    MW4 2984   0.232   3.062   1.574  0.3037 -0.6230 -0.1627
    1SOL     OW 2985   0.013   3.192   1.496  0.0660 -0.0214 -0.0368
    1SOL    HW2 2986   0.032   3.285   1.511  0.0181 -0.0507  0.2102
    1SOL    HW3 2987   0.006   3.184   1.401  2.2160 -0.1944 -0.1904
    1SOL    MW4 2988   0.015   3.203   1.486  0.3424 -0.0479 -0.0246
    1SOL     OW 2989   0.037   3.472   1.573  0.6736 -0.1877  0.3468
    1SOL    HW2 2990   0.037   3.467   1.669  2.0328  0.0058  0.3609
    1SOL    HW3 2991  -0.047   3.513   1.551  0.3055 -0.3380  1.4395
    1SOL    MW4 2992   0.026   3.477   1.583  0.8044 -0.1819  0.4927
    1SOL     OW 2993   0.268   3.607   1.494  0.1585  0.2059 -0.1027
    1SOL    HW2 2994   0.265   3.693   1.536  2.0417 -0.6999  1.9584
    1SOL    HW3 2995   0.184   3.567   1.517  0.2585  0.5836  0.9809
    1SOL    MW4 2996   0.256   3.613   1.503  0.4202  0.1361  0.3122
    1SOL     OW 2997   0.248   3.859   1.603  0.0305 -0.0941  0.3411
    1SOL    HW2 2998   0.257   3.866   1.698 -0.4747 -0.0086  0.3852
    1SOL    HW3 2999   0.327   3.901   1.568  0.6395 -0.9166  0.7340
    1SOL    MW4 3000   0.260   3.866   1.611  0.0442 -0.1912  0.3988
    1SOL     OW 3001   4.489   3.963   1.489  0.4642  0.0612 -0.5947
    1SOL    HW2 3002   4.504   4.050   1.525 -1.6474 -0.6192  2.1881
    1SOL    HW3 3003   4.559   3.909   1.527  1.0390  0.2908 -1.3247
    1SOL    MW4 3004   4.500   3.967   1.499  0.2613  0.0017 -0.3239
    1SOL     OW 3005   0.010   4.235   1.583 -0.0120  0.1987 -0.0725
    1SOL    HW2 3006   0.023   4.235   1.678 -1.0565 -2.3389  0.1145
    1SOL    HW3 3007  -0.072   4.284   1.571 -0.7319 -0.8302  0.5058
    1SOL    MW4 3008   0.001   4.241   1.594 -0.2446 -0.2718  0.0285
    1SOL     OW 3009   0.220   4.346   1.459  0.0537  0.1632  0.4996
    1SOL    HW2 3010   0.140   4.304   1.490 -0.0878  0.0900  0.0493
    1SOL    HW3 3011   0.226   4.427   1.508 -0.8357  0.6524 -0.1846
    1SOL    MW4 3012   0.211   4.351   1.469 -0.0823  0.2184  0.3500
    1SOL     OW 3013   0.690   4.606   1.574 -0.1976  0.3561  0.4288
    1SOL    HW2 3014   0.761   4.658   1.536 -1.7639  0.5893 -2.3458
    1SOL    HW3 3015   0.612   4.661   1.564 -0.8800 -0.0070  3.1655
    1SOL    MW4 3016   0.689   4.620   1.568 -0.4944  0.3390  0.4239
    1SOL     OW 3017   0.462   0.086   1.530 -0.0745  0.1326  0.6421
    1SOL    HW2 3018   0.461   0.174   1.567  1.3252  0.8104 -0.9028
    1SOL    HW3 3019   0.449   0.099   1.437  2.2194 -1.1415  0.1112
    1SOL    MW4 3020   0.460   0.099   1.523  0.4128  0.0539  0.3682
    1SOL     OW 3021   0.458   0.339   1.610 -0.2666 -0.7679 -0.5819
    1SOL    HW2 3022   0.530   0.387   1.568  0.2181 -0.4164  0.6371
    1SOL    HW3 3023   0.379   0.377   1.571  0.1959 -1.2051 -1.9832
    1SOL    MW4 3024   0.457   0.350   1.599 -0.1416 -0.7792 -0.6061
    1SOL     OW 3025   0.672   0.480   1.520 -0.1019  0.0617  0.0163
    1SOL    HW2 3026   0.647   0.569   1.544  0.4856  0.0583  0.6452
    1SOL    HW3 3027   0.677   0.482   1.424  0.5125  0.8731  0.0572
    1SOL    MW4 3028   0.669   0.492   1.510  0.0567  0.1683  0.1048
    1SOL     OW 3029   0.635   0.754   1.617  0.5701  0.0207  0.0131
    1SOL    HW2 3030   0.662   0.765   1.708  0.0383  1.0627  0.0537
    1SOL    HW3 3031   0.707   0.793   1.566  0.3615  0.4241  0.0269
    1SOL    MW4 3032   0.648   0.761   1.622  0.4725  0.2114  0.0203
    1SOL     OW 3033   0.435   0.893   1.494  0.0809 -0.1024 -0.4655
    1SOL    HW2 3034   0.429   0.980   1.535 -0.3454 -0.4869  0.2969
    1SOL    HW3 3035   0.500   0.846   1.547  1.0619  0.0790 -1.4894
    1SOL    MW4 3036   0.443   0.899   1.507  0.1541 -0.1291 -0.5001
    1SOL     OW 3037   0.432   1.132   1.618 -0.5726  0.3506 -0.1982
    1SOL    HW2 3038   0.516   1.169   1.594 -0.7514  1.5731  1.0221
    1SOL    HW3 3039   0.425   1.146   1.712 -0.9504 -2.1736  0.1867
    1SOL    MW4 3040   0.442   1.139   1.627 -0.6460  0.1788  0.0137
    1SOL     OW 3041   0.646   1.264   1.501  0.5849 -0.2919 -0.1471
    1SOL    HW2 3042   0.648   1.357   1.523 -2.2864 -0.5348  1.3357
    1SOL    HW3 3043   0.642   1.262   1.405 -0.0448  1.1135 -0.1569
    1SOL    MW4 3044   0.646   1.276   1.491  0.1230 -0.1385  0.0472
    1SOL     OW 3045   0.641   1.523   1.563  0.3207 -0.1886  0.0136
    1SOL    HW2 3046   0.717   1.575   1.536 -0.3686  0.4822 -0.6864
    1SOL    HW3 3047   0.566   1.576   1.536 -0.3934 -1.0024  0.3885
    1SOL    MW4 3048   0.641   1.537   1.556  0.1355 -0.2074 -0.0293
    1SOL     OW 3049   0.447   1.708   1.472  0.2643  0.4396 -0.6506
    1SOL    HW2 3050   0.441   1.796   1.508 -0.5247  0.4589 -0.8148
    1SOL    HW3 3051   0.362   1.669   1.491  0.4938 -0.1726 -0.8700
    1SOL    MW4 3052   0.435   1.714   1.479  0.1905  0.3613 -0.7012
    1SOL     OW 3053   0.422   1.954   1.582  0.3539 -0.1723  0.0416
    1SOL    HW2 3054   0.440   1.968   1.675 -0.2064 -0.6980  0.2312
    1SOL    HW3 3055   0.350   2.014   1.562  0.0191 -0.5521  0.1102
    1SOL    MW4 3056   0.415   1.964   1.592  0.2358 -0.2918  0.0757
    1SOL     OW 3057   0.647   2.062   1.470  0.2494 -0.1329 -0.5267
    1SOL    HW2 3058   0.720   2.014   1.509  0.3148  0.0494 -0.4265
    1SOL    HW3 3059   0.571   2.038   1.524  0.3771  0.2768 -0.1636
    1SOL    MW4 3060   0.647   2.052   1.483  0.2748 -0.0548 -0.4655
    1SOL     OW 3061   0.653   2.348   1.561 -0.0108  0.1058  0.5633
    1SOL    HW2 3062   0.581   2.406   1.537 -0.2747  0.4134  2.0684
    1SOL    HW3 3063   0.626   2.262   1.530 -0.5037  0.4234  0.0968
    1SOL    MW4 3064   0.640   2.345   1.554 -0.1106  0.1884  0.7004
    1SOL     OW 3065   0.431   2.491   1.479  0.3617 -0.0927 -0.5240
    1SOL    HW2 3066   0.426   2.571   1.532  0.6195 -0.8738  0.7164
    1SOL    HW3 3067   0.360   2.436   1.513 -0.2166 -0.1440 -1.7979
    1SOL    MW4 3068   0.421   2.495   1.491  0.3194 -0.2029 -0.5283
    1SOL     OW 3069   0.484   2.724   1.606  0.0742 -0.0969 -0.0262
    1SOL    HW2 3070   0.518   2.724   1.696 -1.2152  0.9302  0.4759
    1SOL    HW3 3071   0.555   2.761   1.554 -0.8021  3.6485  1.2647
    1SOL    MW4 3072   0.498   2.728   1.611 -0.2116  0.5329  0.2103
    1SOL     OW 3073   0.694   2.877   1.448  0.0485 -0.0600 -0.1638
    1SOL    HW2 3074   0.675   2.952   1.505 -1.5402 -0.4313 -0.1869
    1SOL    HW3 3075   0.771   2.836   1.487 -0.5455  0.1518  1.2565
    1SOL    MW4 3076   0.702   2.882   1.460 -0.2394 -0.0808  0.0205
    1SOL     OW 3077   0.687   3.098   1.602  0.3998  0.1916 -0.3315
    1SOL    HW2 3078   0.760   3.143   1.560 -1.2248  1.4611 -1.8716
    1SOL    HW3 3079   0.608   3.141   1.567 -1.1909 -3.0713 -0.9988
    1SOL    MW4 3080   0.686   3.110   1.592 -0.0244 -0.0715 -0.6227
    1SOL     OW 3081   0.458   3.227   1.500  0.6288 -0.0470  0.1031
    1SOL    HW2 3082   0.382   3.174   1.524  0.1055  0.1586 -1.0622
    1SOL    HW3 3083   0.456   3.230   1.404  2.2911 -0.3044  0.0491
    1SOL    MW4 3084   0.448   3.221   1.491  0.7791 -0.0539 -0.0578
    1SOL     OW 3085   0.485   3.475   1.613 -0.1742 -0.2886  0.1834
    1SOL    HW2 3086   0.488   3.382   1.595 -0.5197 -0.2379 -0.1230
    1SOL    HW3 3087   0.402   3.505   1.576  0.3852  0.3266 -0.5978
    1SOL    MW4 3088   0.475   3.467   1.606 -0.1459 -0.2007  0.0399
    1SOL     OW 3089   0.699   3.561   1.457  0.4813  0.7259 -0.3015
    1SOL    HW2 3090   0.774   3.511   1.488  0.1695 -0.9877 -2.2054
    1SOL    HW3 3091   0.624   3.524   1.503  0.2849 -0.4535 -1.5203
    1SOL    MW4 3092   0.699   3.550   1.467  0.4143  0.3440 -0.7135
    1SOL     OW 3093   0.688   3.825   1.565  0.2349 -0.2503 -0.1882
    1SOL    HW2 3094   0.764   3.879   1.545  0.9300 -0.7277  1.1502
    1SOL    HW3 3095   0.713   3.737   1.537  0.8296 -0.7295  1.8192
    1SOL    MW4 3096   0.701   3.821   1.559  0.4050 -0.3765  0.2533
    1SOL     OW 3097   0.462   3.992   1.522 -0.2097  0.3652 -0.0947
    1SOL    HW2 3098   0.532   3.929   1.538 -1.1649 -0.4552  1.0291
    1SOL    HW3 3099   0.470   4.016   1.430  0.3264 -1.2014 -0.4574
    1SOL    MW4 3100   0.472   3.987   1.512 -0.2650  0.0503  0.0057
    1SOL     OW 3101   0.445   4.248   1.607 -0.2613 -0.2803 -0.3171
    1SOL    HW2 3102   0.442   4.154   1.588 -0.2039 -0.1504 -0.9815
    1SOL    HW3 3103   0.365   4.282   1.567 -0.5636 -0.1367  0.4122
    1SOL    MW4 3104   0.434   4.240   1.599 -0.2936 -0.2441 -0.3085
    1SOL     OW 3105   0.637   4.380   1.446  0.1926  0.7039  0.6077
    1SOL    HW2 3106   0.568   4.342   1.500  2.2398 -1.0706  2.0994
    1SOL    HW3 3107   0.647   4.469   1.478 -1.6433  1.1067  0.1076
    1SOL    MW4 3108   0.630   4.387   1.457  0.2205  0.5231  0.7385
    1SOL     OW 3109   1.100   4.608   1.558  0.8031 -0.2571 -0.5000
    1SOL    HW2 3110   1.090   4.599   1.653  0.7715  0.8402 -0.3940
    1SOL    HW3 3111   1.189   4.641   1.546 -0.2775  2.8120 -0.6223
    1SOL    MW4 3112   1.111   4.611   1.569  0.6562  0.2928 -0.5022
    1SOL     OW 3113   0.898   0.077   1.464  0.0600 -0.2173 -0.2633
    1SOL    HW2 3114   0.905   0.156   1.517 -1.2943 -0.7848  0.8004
    1SOL    HW3 3115   0.972   0.023   1.491  0.0214 -0.0251  0.2240
    1SOL    MW4 3116   0.909   0.080   1.475 -0.1238 -0.2668 -0.0585
    1SOL     OW 3117   0.896   0.331   1.599 -0.1138 -0.0686 -0.0232
    1SOL    HW2 3118   0.889   0.330   1.694 -1.3724 -0.9440 -0.1046
    1SOL    HW3 3119   0.825   0.390   1.571 -0.1031 -0.2512 -0.4340
    1SOL    MW4 3120   0.886   0.339   1.608 -0.2784 -0.2082 -0.0881
    1SOL     OW 3121   1.093   0.434   1.461 -0.0591 -0.3218 -0.2665
    1SOL    HW2 3122   1.088   0.520   1.502 -1.5479 -0.1048 -0.8687
    1SOL    HW3 3123   1.016   0.388   1.493  0.3180 -1.1695 -0.5627
    1SOL    MW4 3124   1.082   0.439   1.471 -0.2056 -0.4050 -0.3852
    1SOL     OW 3125   1.086   0.685   1.578 -0.5286  0.3235 -0.2845
    1SOL    HW2 3126   1.105   0.678   1.671 -0.5462 -0.7027 -0.3425
    1SOL    HW3 3127   1.168   0.715   1.538 -0.6504  1.1845  0.1079
    1SOL    MW4 3128   1.099   0.688   1.585 -0.5471  0.3017 -0.2404
    1SOL     OW 3129   0.848   0.841   1.513 -0.0374  0.4525 -0.5201
    1SOL    HW2 3130   0.918   0.787   1.548 -0.3901  0.5708  0.3927
    1SOL    HW3 3131   0.856   0.834   1.418  1.1193  0.3532 -0.4177
    1SOL    MW4 3132   0.858   0.833   1.505  0.0687  0.4550 -0.3862
    1SOL     OW 3133   0.875   1.113   1.582 -0.0099 -0.1113 -0.3863
    1SOL    HW2 3134   0.865   1.018   1.570  0.1708 -0.2481  0.5476
    1SOL    HW3 3135   0.807   1.151   1.525  1.4436 -0.7114 -2.5960
    1SOL    MW4 3136   0.865   1.105   1.573  0.2057 -0.2085 -0.5547
    1SOL     OW 3137   1.097   1.279   1.525  0.3044  0.3484 -0.6196
    1SOL    HW2 3138   1.160   1.211   1.546  1.3640  1.4073 -0.3183
    1SOL    HW3 3139   1.014   1.248   1.562  1.8319  1.5428  4.1444
    1SOL    MW4 3140   1.094   1.266   1.533  0.6458  0.6456  0.0489
    1SOL     OW 3141   1.107   1.566   1.601 -0.2232 -0.2734  0.3678
    1SOL    HW2 3142   1.181   1.607   1.556 -0.7094 -0.7591 -0.9125
    1SOL    HW3 3143   1.116   1.473   1.583  0.1380 -0.5956  2.1608
    1SOL    MW4 3144   1.118   1.559   1.592 -0.2396 -0.3800  0.4355
    1SOL     OW 3145   0.871   1.673   1.518 -0.0869 -0.0995 -0.7351
    1SOL    HW2 3146   0.947   1.628   1.554 -0.5670 -0.9499 -0.7849
    1SOL    HW3 3147   0.883   1.669   1.423 -0.4690 -0.7060 -0.7566
    1SOL    MW4 3148   0.883   1.667   1.511 -0.2007 -0.2918 -0.7446
    1SOL     OW 3149   0.871   1.937   1.579  0.3204 -0.5807 -0.6224
    1SOL    HW2 3150   0.949   1.977   1.542  0.7332  0.1421  0.9722
    1SOL    HW3 3151   0.871   1.848   1.545  2.5848 -1.0038  0.3888
    1SOL    MW4 3152   0.882   1.930   1.570  0.6736 -0.5411 -0.2787
    1SOL     OW 3153   1.112   2.066   1.512  0.0440  0.4311  0.0945
    1SOL    HW2 3154   1.199   2.032   1.531 -0.3330  0.2630  1.5401
    1SOL    HW3 3155   1.117   2.159   1.535 -0.1369  0.4368  0.1120
    1SOL    MW4 3156   1.124   2.074   1.517 -0.0298  0.4096  0.2874
    1SOL     OW 3157   1.107   2.310   1.597  0.1626  0.4048  0.2389
    1SOL    HW2 3158   1.175   2.371   1.568  0.7416 -0.3700 -0.0539
    1SOL    HW3 3159   1.025   2.352   1.570  0.5596  0.9570 -0.1487
    1SOL    MW4 3160   1.105   2.324   1.589  0.2913  0.3755  0.1491
    1SOL     OW 3161   0.893   2.467   1.503  0.3630 -0.0603  0.1764
    1SOL    HW2 3162   0.890   2.462   1.408 -0.4332  1.7028  0.1015
    1SOL    HW3 3163   0.811   2.426   1.531  0.2577  0.0953  0.0910
    1SOL    MW4 3164   0.882   2.461   1.494  0.2441  0.1929  0.1553
    1SOL     OW 3165   0.910   2.738   1.575 -0.0803 -0.2898  0.4642
    1SOL    HW2 3166   0.912   2.742   1.671  1.6129 -0.9051  0.4774
    1SOL    HW3 3167   0.920   2.644   1.556 -0.8697 -0.2136 -0.2983
    1SOL    MW4 3168   0.912   2.726   1.585  0.0390 -0.3607  0.3655
    1SOL     OW 3169   1.133   2.817   1.456 -0.0243 -0.0536  0.3234
    1SOL    HW2 3170   1.139   2.912   1.464 -0.2031  0.1852 -1.9019
    1SOL    HW3 3171   1.043   2.796   1.483 -0.9173  0.7761 -1.8772
    1SOL    MW4 3172   1.122   2.826   1.460 -0.1657  0.0873 -0.2605
    1SOL     OW 3173   1.149   3.082   1.521 -0.0128 -0.1788 -0.1355
    1SOL    HW2 3174   1.151   3.109   1.613  0.9800 -0.3638 -0.1030
    1SOL    HW3 3175   1.236   3.104   1.488 -0.7060  0.8442 -1.3054
    1SOL    MW4 3176   1.160   3.088   1.529  0.0268 -0.0682 -0.2855
    1SOL     OW 3177   0.908   3.213   1.465  0.0298 -0.1764  0.0654
    1SOL    HW2 3178   0.990   3.167   1.483 -0.7974 -2.1483 -1.1022
    1SOL    HW3 3179   0.910   3.229   1.370  1.1566  3.9245  0.6643
    1SOL    MW4 3180   0.920   3.209   1.455  0.0693  0.1044 -0.0097
    1SOL     OW 3181   0.905   3.452   1.588  0.0872 -0.0092  0.2220
    1SOL    HW2 3182   0.970   3.507   1.543 -1.2296 -0.2402 -2.0632
    1SOL    HW3 3183   0.912   3.367   1.545  0.1417 -0.8268  1.8239
    1SOL    MW4 3184   0.915   3.448   1.576 -0.0794 -0.1473  0.1318
    1SOL     OW 3185   1.111   3.606   1.469  0.0218  0.3258 -0.0955
    1SOL    HW2 3186   1.181   3.553   1.507 -0.3498 -1.5637 -1.9545
    1SOL    HW3 3187   1.130   3.608   1.375 -1.2323  1.6094 -0.3428
    1SOL    MW4 3188   1.123   3.599   1.461 -0.1928  0.2456 -0.3732
    1SOL     OW 3189   1.120   3.851   1.612 -0.0864  0.0569 -0.2726
    1SOL    HW2 3190   1.193   3.892   1.566  1.0741 -0.1889  1.3185
    1SOL    HW3 3191   1.108   3.767   1.568  0.9887 -0.1607 -0.1465
    1SOL    MW4 3192   1.128   3.845   1.600  0.2085 -0.0045 -0.0459
    1SOL     OW 3193   0.917   4.015   1.474 -0.6532 -0.9311  0.1010
    1SOL    HW2 3194   0.887   4.093   1.520 -0.4009 -0.3364 -0.7218
    1SOL    HW3 3195   0.993   3.986   1.525 -0.4915 -0.3903  0.1830
    1SOL    MW4 3196   0.923   4.022   1.487 -0.5985 -0.7815  0.0032
    1SOL     OW 3197   0.853   4.271   1.558 -0.2002  0.3340 -0.3817
    1SOL    HW2 3198   0.852   4.288   1.652  0.0524 -1.8158  0.0465
    1SOL    HW3 3199   0.778   4.318   1.523 -0.1641  1.3192  0.8641
    1SOL    MW4 3200   0.843   4.279   1.566 -0.1621  0.1807 -0.1608
    1SOL     OW 3201   1.090   4.352   1.423 -0.1859  0.3696 -0.2414
    1SOL    HW2 3202   1.000   4.318   1.431 -0.3244  0.5835 -0.8554
    1SOL    HW3 3203   1.088   4.435   1.470  0.1592 -0.4592  1.2925
    1SOL    MW4 3204   1.078   4.358   1.430 -0.1585  0.2885 -0.1199
    1SOL     OW 3205   1.571   4.617   1.583  0.2532  0.3457  0.3898
    1SOL    HW2 3206   1.570   4.612   1.678 -0.5570 -0.8916  0.3327
    1SOL    HW3 3207   1.485   4.653   1.559 -0.1636 -0.8054  0.0819
    1SOL    MW4 3208   1.559   4.621   1.592  0.0914  0.0305  0.3417
    1SOL     OW 3209   1.333   0.069   1.497  0.2084 -0.6250  0.6816
    1SOL    HW2 3210   1.321   0.153   1.541 -1.3427 -0.7167  0.4840
    1SOL    HW3 3211   1.336   0.091   1.404 -1.1331 -0.8634  0.5717
    1SOL    MW4 3212   1.332   0.083   1.490 -0.1732 -0.6686  0.6410
    1SOL     OW 3213   1.312   0.334   1.600  0.1633  0.4297  0.1608
    1SOL    HW2 3214   1.387   0.381   1.563  0.9577 -0.7444  0.2645
    1SOL    HW3 3215   1.236   0.370   1.555  0.7802  1.6897  0.1094
    1SOL    MW4 3216   1.312   0.345   1.590  0.3495  0.4410  0.1677
    1SOL     OW 3217   1.542   0.471   1.492  0.3154  0.1125 -0.2121
    1SOL    HW2 3218   1.618   0.426   1.529  0.0626 -1.3895 -1.5067
    1SOL    HW3 3219   1.565   0.487   1.401 -0.0120  1.7488 -0.0329
    1SOL    MW4 3220   1.555   0.467   1.485  0.2389  0.1302 -0.3593
    1SOL     OW 3221   1.582   0.739   1.541  0.1160 -0.3760 -0.0555
    1SOL    HW2 3222   1.574   0.741   1.637  0.3142 -0.7116 -0.0310
    1SOL    HW3 3223   1.580   0.646   1.519 -1.4776 -0.2525 -0.5132
    1SOL    MW4 3224   1.580   0.727   1.551 -0.0681 -0.4040 -0.1127
    1SOL     OW 3225   1.312   0.831   1.500  0.0887 -0.1313  0.4846
    1SOL    HW2 3226   1.401   0.801   1.518  1.0118  2.1867 -0.0635
    1SOL    HW3 3227   1.310   0.846   1.406 -0.4092  1.2680  0.7087
    1SOL    MW4 3228   1.323   0.829   1.490  0.1447  0.3591  0.4418
    1SOL     OW 3229   1.321   1.099   1.562 -0.5074 -0.3040 -0.5735
    1SOL    HW2 3230   1.338   1.081   1.654  1.4362  1.3973 -0.5786
    1SOL    HW3 3231   1.303   1.013   1.524 -0.7692 -1.0810  1.2752
    1SOL    MW4 3232   1.321   1.085   1.569 -0.2854 -0.1822 -0.3302
    1SOL     OW 3233   1.547   1.232   1.471  0.3256 -0.7418 -0.2141
    1SOL    HW2 3234   1.470   1.186   1.506  0.0250  0.7572  1.1661
    1SOL    HW3 3235   1.621   1.192   1.516  0.1952 -0.9170 -0.1553
    1SOL    MW4 3236   1.547   1.221   1.482  0.2688 -0.5672 -0.0243
    1SOL     OW 3237   1.581   1.499   1.585  0.0051  0.3090 -0.0975
    1SOL    HW2 3238   1.558   1.496   1.678 -0.2286  0.3024 -0.1561
    1SOL    HW3 3239   1.575   1.408   1.556 -0.3257  0.3672 -0.2169
    1SOL    MW4 3240   1.577   1.486   1.593 -0.0694  0.3158 -0.1210
    1SOL     OW 3241   1.353   1.636   1.522 -0.0946 -0.1932 -0.1157
    1SOL    HW2 3242   1.427   1.578   1.540 -0.0087  0.2261  0.8735
    1SOL    HW3 3243   1.356   1.649   1.427 -0.1449 -1.8379 -0.3543
    1SOL    MW4 3244   1.363   1.630   1.512 -0.0900 -0.3548 -0.0166
    1SOL     OW 3245   1.371   1.915   1.563  0.3485  0.1160  0.0629
    1SOL    HW2 3246   1.347   1.924   1.656  0.5028  1.6264 -0.0349
    1SOL    HW3 3247   1.379   1.821   1.550 -0.3828 -0.1527  1.4130
    1SOL    MW4 3248   1.369   1.904   1.574  0.2723  0.2798  0.2282
    1SOL     OW 3249   1.595   2.067   1.500  0.1272  0.2700  0.3730
    1SOL    HW2 3250   1.523   2.006   1.520  0.3364  0.3545  1.4522
    1SOL    HW3 3251   1.594   2.075   1.405 -1.7035  0.7756  0.4123
    1SOL    MW4 3252   1.585   2.060   1.490 -0.0868  0.3479  0.5206
    1SOL     OW 3253   1.527   2.306   1.582 -0.5412 -0.6701  0.2920
    1SOL    HW2 3254   1.612   2.346   1.561 -0.8353 -0.8482 -1.2540
    1SOL    HW3 3255   1.537   2.214   1.558 -1.1129 -0.7279  0.2762
    1SOL    MW4 3256   1.539   2.299   1.576 -0.6555 -0.7012  0.0861
    1SOL     OW 3257   1.310   2.452   1.489 -0.0314 -0.4431  0.4068
    1SOL    HW2 3258   1.320   2.541   1.522  0.2866 -0.1096 -0.5423
    1SOL    HW3 3259   1.378   2.402   1.535  0.9657  0.1869 -0.3383
    1SOL    MW4 3260   1.321   2.457   1.499  0.1422 -0.3164  0.1832
    1SOL     OW 3261   1.335   2.700   1.604 -0.1595  0.1779  0.0109
    1SOL    HW2 3262   1.410   2.749   1.572 -0.2576  1.2454  1.3493
    1SOL    HW3 3263   1.261   2.735   1.555 -0.1370  0.9692  0.5179
    1SOL    MW4 3264   1.335   2.711   1.594 -0.1695  0.4230  0.2543
    1SOL     OW 3265   1.534   2.843   1.458  0.1886 -0.1163 -0.1058
    1SOL    HW2 3266   1.607   2.783   1.473 -0.6598 -1.4627 -1.2730
    1SOL    HW3 3267   1.545   2.871   1.367 -1.0086 -0.6651 -0.4217
    1SOL    MW4 3268   1.545   2.839   1.448 -0.0813 -0.3662 -0.3016
    1SOL     OW 3269   1.579   3.113   1.577 -0.0257  0.1461  0.4812
    1SOL    HW2 3270   1.652   3.161   1.538 -0.5451  0.3164 -0.2914
    1SOL    HW3 3271   1.585   3.026   1.539 -0.0407  0.0673  0.6579
    1SOL    MW4 3272   1.590   3.108   1.567 -0.0964  0.1581  0.4025
    1SOL     OW 3273   1.380   3.219   1.448  0.4102 -0.1825  0.3792
    1SOL    HW2 3274   1.354   3.302   1.488  1.6773  1.0351 -1.2128
    1SOL    HW3 3275   1.452   3.188   1.502 -0.0654 -0.2436  0.9787
    1SOL    MW4 3276   1.386   3.226   1.460  0.5146 -0.0298  0.2483
    1SOL     OW 3277   1.332   3.445   1.566  0.0948 -0.1060  0.2175
    1SOL    HW2 3278   1.344   3.435   1.660  0.7039  0.9228  0.2673
    1SOL    HW3 3279   1.403   3.503   1.539  0.0760 -0.5962 -0.9195
    1SOL    MW4 3280   1.343   3.452   1.575  0.1726 -0.0350  0.0740
    1SOL     OW 3281   1.569   3.563   1.479  0.8057 -0.3721 -0.3024
    1SOL    HW2 3282   1.561   3.646   1.527 -0.9012 -0.5647 -0.2294
    1SOL    HW3 3283   1.589   3.588   1.389 -0.9350  0.1794 -0.5505
    1SOL    MW4 3284   1.570   3.577   1.474  0.3508 -0.3247 -0.3256
    1SOL     OW 3285   1.546   3.827   1.576 -0.2015 -0.0337 -0.3219
    1SOL    HW2 3286   1.543   3.844   1.670 -0.1466 -0.7687 -0.1863
    1SOL    HW3 3287   1.477   3.882   1.540 -0.9303 -0.5397  0.2709
    1SOL    MW4 3288   1.537   3.837   1.584 -0.2904 -0.1974 -0.2258
    1SOL     OW 3289   1.319   4.003   1.459  0.0051  0.1677  0.4748
    1SOL    HW2 3290   1.314   4.081   1.514  0.8194 -0.2137  1.1144
    1SOL    HW3 3291   1.353   4.034   1.375  0.6148  0.4649  0.8235
    1SOL    MW4 3292   1.323   4.017   1.455  0.1929  0.1569  0.6051
    1SOL     OW 3293   1.327   4.257   1.582  0.0077  0.2694 -0.2225
    1SOL    HW2 3294   1.399   4.301   1.536  1.1832  0.1763  1.4729
    1SOL    HW3 3295   1.250   4.274   1.528  1.2610  0.5139 -1.9942
    1SOL    MW4 3296   1.326   4.265   1.568  0.3281  0.2899 -0.2326
    1SOL     OW 3297   1.537   4.380   1.439  0.1652 -0.1789 -0.3496
    1SOL    HW2 3298   1.616   4.335   1.469  0.0967 -1.2197 -1.6934
    1SOL    HW3 3299   1.546   4.469   1.473  3.0770  0.3802 -2.4755
    1SOL    MW4 3300   1.549   4.386   1.448  0.5403 -0.2427 -0.8074
    1SOL     OW 3301   2.004   4.622   1.597 -0.0538 -0.2677 -0.0429
    1SOL    HW2 3302   2.001   4.611   1.692  2.2348  0.9170  0.1915
    1SOL    HW3 3303   1.924   4.671   1.575 -1.2090 -1.6129  1.0918
    1SOL    MW4 3304   1.993   4.627   1.606  0.0956 -0.2890  0.1377
    1SOL     OW 3305   1.786   0.111   1.484 -0.4298  0.0009  0.1011
    1SOL    HW2 3306   1.719   0.045   1.503 -0.5122 -0.0557 -0.3867
    1SOL    HW3 3307   1.783   0.121   1.389 -0.3305  0.6177  0.1659
    1SOL    MW4 3308   1.776   0.103   1.474 -0.4277  0.0748  0.0452
    1SOL     OW 3309   1.764   0.360   1.627  0.0853 -0.5420 -0.1817
    1SOL    HW2 3310   1.835   0.413   1.589  0.4513 -0.4853  0.5650
    1SOL    HW3 3311   1.765   0.279   1.576  0.5160 -0.4340 -0.3494
    1SOL    MW4 3312   1.774   0.356   1.615  0.1904 -0.5203 -0.1054
    1SOL     OW 3313   2.017   0.486   1.511 -0.4478 -0.0574 -0.2147
    1SOL    HW2 3314   2.103   0.453   1.537 -1.1211 -0.8029  1.0842
    1SOL    HW3 3315   2.006   0.566   1.562 -0.2790  0.3509 -0.8154
    1SOL    MW4 3316   2.027   0.492   1.521 -0.5145 -0.1019 -0.1227
    1SOL     OW 3317   2.022   0.735   1.630 -0.3613  0.2274  0.1170
    1SOL    HW2 3318   2.013   0.747   1.725  1.2746 -1.5725  0.5419
    1SOL    HW3 3319   1.953   0.789   1.592 -0.8664  1.1865  2.3277
    1SOL    MW4 3320   2.011   0.744   1.638 -0.2120  0.1165  0.4647
    1SOL     OW 3321   1.823   0.858   1.483  0.6669  0.1569  0.2390
    1SOL    HW2 3322   1.811   0.947   1.517  0.6135 -0.0543  0.7727
    1SOL    HW3 3323   1.740   0.814   1.502  0.9249 -0.1946  0.5439
    1SOL    MW4 3324   1.810   0.864   1.490  0.6939  0.0826  0.3495
    1SOL     OW 3325   1.791   1.091   1.595  0.5242 -0.1549 -0.1217
    1SOL    HW2 3326   1.866   1.148   1.577  1.4385 -1.4839 -0.5612
    1SOL    HW3 3327   1.783   1.092   1.691  1.2345 -0.1894 -0.0604
    1SOL    MW4 3328   1.799   1.099   1.606  0.7385 -0.3349 -0.1717
    1SOL     OW 3329   1.992   1.284   1.513  0.1815 -0.1477  0.1702
    1SOL    HW2 3330   2.003   1.375   1.540 -2.7330  0.7951 -1.5836
    1SOL    HW3 3331   2.010   1.285   1.419  0.1117 -1.3653  0.1376
    1SOL    MW4 3332   1.996   1.297   1.504 -0.2122 -0.1841 -0.0656
    1SOL     OW 3333   2.028   1.549   1.591  0.1918  0.1247 -0.5147
    1SOL    HW2 3334   2.112   1.591   1.574  0.6528 -0.8092 -0.5766
    1SOL    HW3 3335   1.963   1.608   1.552  0.7509  1.2315  0.1959
    1SOL    MW4 3336   2.030   1.562   1.583  0.3266  0.1475 -0.4292
    1SOL     OW 3337   1.794   1.679   1.524 -0.5157  0.0950 -0.3105
    1SOL    HW2 3338   1.733   1.620   1.568  1.2219 -0.9385  0.8199
    1SOL    HW3 3339   1.777   1.666   1.431 -1.8763 -0.3034 -0.0216
    1SOL    MW4 3340   1.784   1.669   1.518 -0.4660 -0.0939 -0.1233
    1SOL     OW 3341   1.829   1.951   1.573  0.2295  0.0398  0.2591
    1SOL    HW2 3342   1.818   1.860   1.544  1.4602 -0.5101  1.4757
    1SOL    HW3 3343   1.746   1.993   1.552 -0.0075 -1.1320 -1.1874
    1SOL    MW4 3344   1.816   1.945   1.567  0.3605 -0.1873  0.2288
    1SOL     OW 3345   2.052   2.093   1.509 -0.1120 -0.2211 -0.3972
    1SOL    HW2 3346   2.128   2.044   1.539 -0.3226  0.6830  1.7450
    1SOL    HW3 3347   1.977   2.041   1.538 -0.3144  0.0029 -0.5177
    1SOL    MW4 3348   2.052   2.080   1.517 -0.1664 -0.0725 -0.1305
    1SOL     OW 3349   2.018   2.353   1.577 -0.5746  0.0671 -0.1796
    1SOL    HW2 3350   2.029   2.336   1.671  2.5621 -0.3444 -0.5734
    1SOL    HW3 3351   2.031   2.267   1.536  0.4689  0.6778 -1.1442
    1SOL    MW4 3352   2.021   2.339   1.584 -0.0231  0.0935 -0.3587
    1SOL     OW 3353   1.774   2.416   1.519  0.0233  0.2840 -0.1742
    1SOL    HW2 3354   1.862   2.385   1.541  0.7788  2.4757 -0.0366
    1SOL    HW3 3355   1.781   2.447   1.429 -1.1297 -1.3906 -0.8656
    1SOL    MW4 3356   1.787   2.416   1.510 -0.0293  0.3521 -0.2471
    1SOL     OW 3357   1.751   2.705   1.588 -0.1049  0.4716  0.1107
    1SOL    HW2 3358   1.832   2.735   1.547  1.0422 -1.3516  0.9809
    1SOL    HW3 3359   1.749   2.611   1.573 -1.6856  0.3714  0.7794
    1SOL    MW4 3360   1.761   2.697   1.581 -0.1620  0.2179  0.3139
    1SOL     OW 3361   1.992   2.811   1.510  0.0000  0.0572  0.4876
    1SOL    HW2 3362   2.008   2.898   1.545 -0.1735  0.1432  0.3506
    1SOL    HW3 3363   2.018   2.817   1.418  0.3991 -0.1526  0.5865
    1SOL    MW4 3364   1.998   2.823   1.502  0.0298  0.0408  0.4823
    1SOL     OW 3365   2.049   3.066   1.587 -0.2275 -0.4396  0.0459
    1SOL    HW2 3366   2.050   3.080   1.682 -0.9034  0.7910 -0.1176
    1SOL    HW3 3367   2.123   3.117   1.555 -0.8718  0.3337 -0.2321
    1SOL    MW4 3368   2.059   3.075   1.596 -0.4015 -0.1752 -0.0124
    1SOL     OW 3369   1.825   3.229   1.486  0.2101  0.2385 -0.2052
    1SOL    HW2 3370   1.831   3.313   1.532  2.7298  0.1756 -0.3033
    1SOL    HW3 3371   1.898   3.177   1.522 -0.2375 -1.2593 -1.4038
    1SOL    MW4 3372   1.836   3.233   1.497  0.4835  0.0324 -0.3762
    1SOL     OW 3373   1.803   3.474   1.592 -0.0693  0.4517 -0.9364
    1SOL    HW2 3374   1.781   3.459   1.684 -0.6327  0.7951 -1.0102
    1SOL    HW3 3375   1.721   3.501   1.552  0.2321  0.5628 -1.4864
    1SOL    MW4 3376   1.790   3.476   1.599 -0.1038  0.5114 -1.0186
    1SOL     OW 3377   2.042   3.590   1.475  0.0152 -0.1776  0.4761
    1SOL    HW2 3378   2.120   3.547   1.509  0.5027 -0.4096 -0.9127
    1SOL    HW3 3379   1.969   3.535   1.503  0.4413 -0.6010  0.7514
    1SOL    MW4 3380   2.042   3.577   1.483  0.1354 -0.2637  0.3290
    1SOL     OW 3381   2.015   3.844   1.596 -0.1407 -0.1262 -0.7818
    1SOL    HW2 3382   2.094   3.895   1.577  0.3619 -0.5433  0.1750
    1SOL    HW3 3383   2.031   3.759   1.554  0.4032 -0.5928  0.3560
    1SOL    MW4 3384   2.028   3.840   1.588 -0.0026 -0.2427 -0.5054
    1SOL     OW 3385   1.775   3.983   1.540  0.4382  0.1972  0.0285
    1SOL    HW2 3386   1.853   3.931   1.560  0.9629  1.2371  0.6945
    1SOL    HW3 3387   1.702   3.923   1.559  1.0222 -0.1787  1.1928
    1SOL    MW4 3388   1.776   3.968   1.545  0.5844  0.2849  0.2701
    1SOL     OW 3389   1.753   4.268   1.569 -0.0213 -0.3562 -0.0931
    1SOL    HW2 3390   1.835   4.300   1.530  0.0780  0.2956  0.6315
    1SOL    HW3 3391   1.762   4.173   1.569  0.9629 -0.2764  0.4377
    1SOL    MW4 3392   1.765   4.260   1.564  0.1218 -0.2594  0.0726
    1SOL     OW 3393   2.018   4.364   1.497  0.1026 -0.4272 -0.4003
    1SOL    HW2 3394   2.095   4.314   1.525 -0.2204  0.1741  1.6224
    1SOL    HW3 3395   2.028   4.450   1.538 -2.3000 -0.7631  1.0164
    1SOL    MW4 3396   2.029   4.369   1.506 -0.2573 -0.3924  0.0534
    1SOL     OW 3397   2.443   4.622   1.581 -0.1420  0.3096 -0.4277
    1SOL    HW2 3398   2.442   4.616   1.676 -0.4111 -0.1779 -0.4580
    1SOL    HW3 3399   2.360   4.665   1.559 -0.0485  0.4852 -0.4426
    1SOL    MW4 3400   2.432   4.627   1.591 -0.1652  0.2685 -0.4338
    1SOL     OW 3401   2.224   0.105   1.524  0.0817 -0.3477  0.0019
    1SOL    HW2 3402   2.144   0.060   1.552  0.3184 -0.4856  0.4710
    1SOL    HW3 3403   2.215   0.114   1.429 -0.4505 -0.4379  0.0417
    1SOL    MW4 3404   2.212   0.100   1.515  0.0424 -0.3778  0.0689
    1SOL     OW 3405   2.233   0.363   1.605  0.3334  0.2072  0.4057
    1SOL    HW2 3406   2.256   0.369   1.698  2.8784  1.1043 -0.2345
    1SOL    HW3 3407   2.237   0.270   1.585  0.5980  0.0902  1.0006
    1SOL    MW4 3408   2.237   0.351   1.615  0.7041  0.3101  0.3997
    1SOL     OW 3409   2.467   0.495   1.533  0.2477  0.5008 -0.0067
    1SOL    HW2 3410   2.534   0.430   1.552  0.8621  0.7948 -1.1420
    1SOL    HW3 3411   2.385   0.446   1.537  0.7950 -0.6849 -2.2317
    1SOL    MW4 3412   2.465   0.480   1.536  0.4010  0.3832 -0.4501
    1SOL     OW 3413   2.458   0.760   1.591 -0.0888  0.3148  0.1812
    1SOL    HW2 3414   2.378   0.781   1.544 -0.5796  0.5459  1.1010
    1SOL    HW3 3415   2.483   0.673   1.560 -0.3002  0.5449 -0.6298
    1SOL    MW4 3416   2.451   0.751   1.581 -0.1814  0.3756  0.1956
    1SOL     OW 3417   2.248   0.873   1.458  0.5210 -0.1861 -0.2133
    1SOL    HW2 3418   2.245   0.962   1.492 -0.3854  0.4930 -1.9956
    1SOL    HW3 3419   2.163   0.835   1.482  0.1860  0.0430 -1.0057
    1SOL    MW4 3420   2.236   0.879   1.465  0.3572 -0.0663 -0.5529
    1SOL     OW 3421   2.221   1.136   1.565  0.1226  0.1882 -0.0518
    1SOL    HW2 3422   2.239   1.147   1.658  0.7894 -0.1882 -0.1338
    1SOL    HW3 3423   2.138   1.181   1.551  0.1181  0.4118  0.6861
    1SOL    MW4 3424   2.212   1.143   1.575  0.2100  0.1680  0.0346
    1SOL     OW 3425   2.473   1.273   1.528 -0.1254 -0.0430  0.4289
    1SOL    HW2 3426   2.388   1.234   1.546 -0.9931  1.8076  0.4816
    1SOL    HW3 3427   2.480   1.274   1.433 -0.3921  0.2741  0.4126
    1SOL    MW4 3428   2.463   1.268   1.518 -0.2749  0.2429  0.4338
    1SOL     OW 3429   2.493   1.537   1.607  0.0533 -0.2558  0.7135
    1SOL    HW2 3430   2.581   1.568   1.586 -0.8192  1.2692 -0.7970
    1SOL    HW3 3431   2.491   1.447   1.576  0.8625 -0.0734  0.1262
    1SOL    MW4 3432   2.504   1.530   1.600  0.0451 -0.0306  0.4367
    1SOL     OW 3433   2.257   1.668   1.509 -0.6783  0.1116 -0.1411
    1SOL    HW2 3434   2.338   1.629   1.541 -0.5830  0.5110  0.1181
    1SOL    HW3 3435   2.265   1.668   1.414 -1.8233 -2.9521 -0.3027
    1SOL    MW4 3436   2.269   1.663   1.501 -0.8171 -0.2400 -0.1283
    1SOL     OW 3437   2.283   1.959   1.583 -0.5859  0.5351  0.0438
    1SOL    HW2 3438   2.263   1.950   1.676 -1.7010  0.7332 -0.1704
    1SOL    HW3 3439   2.291   1.869   1.552 -2.0713  0.4200 -0.0516
    1SOL    MW4 3440   2.281   1.946   1.591 -0.9291  0.5462  0.0030
    1SOL     OW 3441   2.518   2.110   1.497 -0.0848 -0.2581  0.1621
    1SOL    HW2 3442   2.441   2.059   1.520 -1.8507  2.1450 -0.1355
    1SOL    HW3 3443   2.530   2.094   1.403 -0.8554  0.1310 -0.0123
    1SOL    MW4 3444   2.509   2.101   1.487 -0.4194  0.1104  0.0999
    1SOL     OW 3445   2.467   2.361   1.620  0.1625 -0.1342  0.1133
    1SOL    HW2 3446   2.450   2.345   1.713 -3.2612 -1.3000 -0.6275
    1SOL    HW3 3447   2.478   2.273   1.583 -1.5377  0.1276 -1.0658
    1SOL    MW4 3448   2.466   2.347   1.627 -0.5136 -0.2534 -0.1401
    1SOL     OW 3449   2.250   2.476   1.498 -0.2847  0.1103 -0.2570
    1SOL    HW2 3450   2.322   2.432   1.544 -0.7352  0.0619  0.4068
    1SOL    HW3 3451   2.171   2.437   1.535 -0.6442 -0.2441 -1.3943
    1SOL    MW4 3452   2.249   2.465   1.509 -0.3915  0.0570 -0.3197
    1SOL     OW 3453   2.231   2.720   1.629 -0.2520  0.0600 -0.0951
    1SOL    HW2 3454   2.249   2.631   1.596 -1.1268 -0.0318 -0.3393
    1SOL    HW3 3455   2.142   2.739   1.599  0.0577  1.1635 -0.3511
    1SOL    MW4 3456   2.221   2.711   1.621 -0.3269  0.1936 -0.1609
    1SOL     OW 3457   2.470   2.833   1.503  0.0668 -0.2016 -0.1798
    1SOL    HW2 3458   2.469   2.925   1.529  0.1561 -0.1799 -0.2556
    1SOL    HW3 3459   2.397   2.794   1.551  0.4127 -0.2223  0.3305
    1SOL    MW4 3460   2.460   2.840   1.513  0.1242 -0.2015 -0.1224
    1SOL     OW 3461   2.484   3.097   1.557 -0.0210 -0.0119  0.0084
    1SOL    HW2 3462   2.556   3.149   1.523 -0.6393  1.2964  0.6457
    1SOL    HW3 3463   2.405   3.147   1.533 -0.6011 -0.4615  0.9461
    1SOL    MW4 3464   2.483   3.111   1.550 -0.1793  0.1013  0.2161
    1SOL     OW 3465   2.254   3.230   1.506 -0.2291 -0.0643  0.1810
    1SOL    HW2 3466   2.269   3.316   1.545  0.0783 -0.3333  0.6788
    1SOL    HW3 3467   2.251   3.245   1.412 -0.6702  0.5591  0.2985
    1SOL    MW4 3468   2.256   3.243   1.499 -0.2468 -0.0176  0.2621
    1SOL     OW 3469   2.276   3.488   1.581  0.1473 -0.3040 -0.0798
    1SOL    HW2 3470   2.258   3.493   1.675 -2.2778  3.0878 -0.5917
    1SOL    HW3 3471   2.354   3.542   1.568 -1.6293  2.2998 -0.3805
    1SOL    MW4 3472   2.284   3.496   1.591 -0.4072  0.4871 -0.1869
    1SOL     OW 3473   2.515   3.597   1.505 -0.3344  0.4818 -0.2330
    1SOL    HW2 3474   2.599   3.570   1.541  0.4032  1.3326 -1.2713
    1SOL    HW3 3475   2.502   3.686   1.537 -0.7210  0.4420 -0.2680
    1SOL    MW4 3476   2.524   3.605   1.514 -0.2878  0.5889 -0.3747
    1SOL     OW 3477   2.507   3.876   1.624  0.1456 -0.1496  0.2238
    1SOL    HW2 3478   2.509   3.905   1.716 -1.0295  0.6204  0.0136
    1SOL    HW3 3479   2.584   3.916   1.585  0.1276  0.3133  0.6493
    1SOL    MW4 3480   2.517   3.885   1.631 -0.0117  0.0131  0.2521
    1SOL     OW 3481   2.255   3.959   1.520 -0.4858  0.0332  0.5380
    1SOL    HW2 3482   2.340   3.932   1.554 -0.4819  0.8612  1.2115
    1SOL    HW3 3483   2.272   3.984   1.429  0.1937  1.1391  0.9622
    1SOL    MW4 3484   2.268   3.959   1.512 -0.3955  0.2885  0.6828
    1SOL     OW 3485   2.227   4.226   1.569  0.3978  0.2605 -0.1887
    1SOL    HW2 3486   2.311   4.258   1.536  0.3446  0.3933 -0.1967
    1SOL    HW3 3487   2.227   4.132   1.549  0.6800  0.1984  0.0943
    1SOL    MW4 3488   2.238   4.218   1.562  0.4277  0.2694 -0.1525
    1SOL     OW 3489   2.481   4.369   1.513 -0.1691 -0.2923 -0.1792
    1SOL    HW2 3490   2.461   4.458   1.542 -0.5415 -0.0845 -1.0669
    1SOL    HW3 3491   2.489   4.375   1.418  0.0356 -1.1637 -0.2290
    1SOL    MW4 3492   2.480   4.381   1.505 -0.1912 -0.3796 -0.3029
    1SOL     OW 3493   2.936   4.637   1.566  0.1261 -0.4741  0.0791
    1SOL    HW2 3494   2.930   4.641   1.661 -1.2398 -1.4292  0.0425
    1SOL    HW3 3495   2.854   4.674   1.535  1.0421  0.9192 -0.7687
    1SOL    MW4 3496   2.925   4.643   1.574  0.0668 -0.4172 -0.0374
    1SOL     OW 3497   2.678   0.076   1.479 -0.2128  0.2424 -1.0550
    1SOL    HW2 3498   2.676   0.170   1.497 -1.1878 -0.0066  0.1989
    1SOL    HW3 3499   2.593   0.044   1.508  0.7348 -1.3067  0.1537
    1SOL    MW4 3500   2.667   0.084   1.486 -0.2165  0.0051 -0.7300
    1SOL     OW 3501   2.689   0.343   1.576  0.1254 -0.2629 -0.1458
    1SOL    HW2 3502   2.686   0.329   1.671 -1.0935  0.2924 -0.0999
    1SOL    HW3 3503   2.778   0.376   1.560  0.4842 -0.7712  0.7424
    1SOL    MW4 3504   2.700   0.345   1.586  0.0117 -0.2567 -0.0226
    1SOL     OW 3505   2.943   0.469   1.507 -0.1581 -0.3903  0.0694
    1SOL    HW2 3506   2.914   0.558   1.528  0.9998 -0.1061  0.5251
    1SOL    HW3 3507   2.951   0.468   1.412  1.7775  0.6365  0.1932
    1SOL    MW4 3508   2.941   0.481   1.497  0.2499 -0.2173  0.1460
    1SOL     OW 3509   2.911   0.773   1.592  0.2256  0.4765 -0.1042
    1SOL    HW2 3510   2.907   0.779   1.687 -0.1687  0.0815 -0.0997
    1SOL    HW3 3511   2.829   0.813   1.562  0.8470  1.6231 -0.3166
    1SOL    MW4 3512   2.900   0.779   1.600  0.2556  0.5757 -0.1317
    1SOL     OW 3513   2.681   0.895   1.491  0.0743 -0.1482  1.0141
    1SOL    HW2 3514   2.592   0.865   1.507 -0.2190 -0.1031 -0.4466
    1SOL    HW3 3515   2.691   0.892   1.396  1.0046  1.6315  1.0235
    1SOL    MW4 3516   2.671   0.890   1.481  0.1588  0.0925  0.8225
    1SOL     OW 3517   2.690   1.129   1.629  0.0185 -0.0254 -0.2428
    1SOL    HW2 3518   2.684   1.040   1.594 -0.0476 -0.5773  1.1361
    1SOL    HW3 3519   2.616   1.175   1.590 -0.3555 -0.7631 -0.4120
    1SOL    MW4 3520   2.680   1.123   1.619 -0.0396 -0.1956 -0.0832
    1SOL     OW 3521   2.896   1.276   1.503 -0.2679 -0.1566  0.2268
    1SOL    HW2 3522   2.982   1.241   1.526  0.1373  0.0796 -0.9056
    1SOL    HW3 3523   2.834   1.222   1.552  0.2952 -2.9126 -1.9844
    1SOL    MW4 3524   2.900   1.265   1.513 -0.1400 -0.4890 -0.2142
    1SOL     OW 3525   2.970   1.535   1.542  0.1067  0.0008  0.2833
    1SOL    HW2 3526   2.884   1.577   1.542 -0.2110 -0.6209  1.3253
    1SOL    HW3 3527   2.952   1.443   1.526  0.8345  0.2641 -2.4307
    1SOL    MW4 3528   2.956   1.529   1.540  0.1609 -0.0465  0.0628
    1SOL     OW 3529   2.726   1.670   1.509 -0.0150  0.2750  0.0241
    1SOL    HW2 3530   2.750   1.751   1.554  1.3312 -0.0792 -0.0154
    1SOL    HW3 3531   2.706   1.698   1.420  1.3173  0.4730 -0.2330
    1SOL    MW4 3532   2.727   1.685   1.503  0.3386  0.2544 -0.0149
    1SOL     OW 3533   2.748   1.975   1.651 -0.0925  0.2136  0.1006
    1SOL    HW2 3534   2.727   1.960   1.743  1.0746  0.0378  0.3429
    1SOL    HW3 3535   2.666   2.005   1.612 -0.7714 -0.4231  1.0397
    1SOL    MW4 3536   2.734   1.977   1.658 -0.0284  0.1063  0.2563
    1SOL     OW 3537   2.964   2.091   1.490  0.2192 -0.2879 -0.2852
    1SOL    HW2 3538   2.939   2.180   1.514 -0.5266 -0.2768 -1.0601
    1SOL    HW3 3539   2.900   2.036   1.535  0.0004 -0.3654 -0.6832
    1SOL    MW4 3540   2.952   2.096   1.499  0.0918 -0.2966 -0.4400
    1SOL     OW 3541   2.931   2.351   1.602  0.0498  0.1563  0.1658
    1SOL    HW2 3542   2.903   2.331   1.691 -1.5745 -0.0327 -0.3672
    1SOL    HW3 3543   2.854   2.393   1.562  1.0144  0.9291 -0.9077
    1SOL    MW4 3544   2.917   2.354   1.608 -0.0370  0.2332 -0.0460
    1SOL     OW 3545   2.693   2.458   1.496 -0.2757 -0.0828  0.0781
    1SOL    HW2 3546   2.700   2.552   1.509  0.4816  0.0665 -1.2628
    1SOL    HW3 3547   2.611   2.434   1.538 -0.5444  1.1961  0.3061
    1SOL    MW4 3548   2.683   2.467   1.503 -0.2112  0.1056 -0.0687
    1SOL     OW 3549   2.700   2.716   1.579 -0.1657  0.3811  0.0977
    1SOL    HW2 3550   2.775   2.752   1.532 -0.4602  1.6633  0.5826
    1SOL    HW3 3551   2.626   2.770   1.550 -0.4712  0.6963  1.4554
    1SOL    MW4 3552   2.700   2.728   1.569 -0.2449  0.5918  0.3407
    1SOL     OW 3553   2.958   2.790   1.460  0.1351  0.0843  0.0079
    1SOL    HW2 3554   3.024   2.750   1.517 -0.0583  0.7110  0.6899
    1SOL    HW3 3555   2.947   2.879   1.495 -3.1749 -0.9190  1.7860
    1SOL    MW4 3556   2.965   2.797   1.472 -0.3269  0.0346  0.3325
    1SOL     OW 3557   2.929   3.061   1.545  0.0838 -0.1936 -0.1162
    1SOL    HW2 3558   2.917   3.085   1.637  0.2329  0.9566 -0.3951
    1SOL    HW3 3559   3.011   3.104   1.520 -0.9657  1.1483 -1.3453
    1SOL    MW4 3560   2.938   3.070   1.554 -0.0353  0.1349 -0.3152
    1SOL     OW 3561   2.706   3.233   1.482 -0.2774 -0.0827 -0.2825
    1SOL    HW2 3562   2.788   3.186   1.500 -0.7337 -0.6795  0.2604
    1SOL    HW3 3563   2.700   3.233   1.386  1.0028  1.0995 -0.3767
    1SOL    MW4 3564   2.716   3.227   1.472 -0.1688 -0.0052 -0.2234
    1SOL     OW 3565   2.735   3.476   1.596 -0.0219 -0.0158  0.1475
    1SOL    HW2 3566   2.732   3.472   1.691 -0.8699  0.8733  0.1741
    1SOL    HW3 3567   2.733   3.385   1.567  4.0607 -0.4781  1.0440
    1SOL    MW4 3568   2.734   3.464   1.604  0.4051  0.0405  0.2693
    1SOL     OW 3569   2.946   3.599   1.475 -0.1340 -0.2365 -0.7197
    1SOL    HW2 3570   2.873   3.544   1.501 -1.1646  1.2709 -0.3630
    1SOL    HW3 3571   2.941   3.603   1.379 -0.4295 -0.2551 -0.7043
    1SOL    MW4 3572   2.936   3.593   1.466 -0.3092 -0.0401 -0.6707
    1SOL     OW 3573   2.956   3.865   1.544  0.5233 -0.0285 -0.1435
    1SOL    HW2 3574   2.874   3.911   1.528  0.3435  0.4296  1.9215
    1SOL    HW3 3575   2.941   3.776   1.510 -0.3735  0.4147 -0.9261
    1SOL    MW4 3576   2.943   3.859   1.537  0.3812  0.0904  0.0256
    1SOL     OW 3577   2.716   4.012   1.496 -0.0342  0.3984  0.1582
    1SOL    HW2 3578   2.733   4.099   1.532 -2.2042  0.4750  1.0474
    1SOL    HW3 3579   2.708   4.026   1.401 -0.4240  1.1752  0.3008
    1SOL    MW4 3580   2.717   4.025   1.488 -0.3717  0.5107  0.2944
    1SOL     OW 3581   2.732   4.274   1.594 -0.7484 -0.3520 -0.2386
    1SOL    HW2 3582   2.801   4.307   1.536 -0.3373  0.5297  0.7565
    1SOL    HW3 3583   2.651   4.292   1.546 -0.4209  0.4893 -0.4833
    1SOL    MW4 3584   2.730   4.281   1.580 -0.6509 -0.1249 -0.1396
    1SOL     OW 3585   2.943   4.377   1.434  0.1853  0.4111  0.1268
    1SOL    HW2 3586   2.950   4.467   1.465  2.7013 -0.0056  0.8875
    1SOL    HW3 3587   2.946   4.384   1.338  0.9960  1.0876  0.2030
    1SOL    MW4 3588   2.944   4.390   1.425  0.6242  0.4449  0.2373
    1SOL     OW 3589   3.360   4.609   1.622  0.2502 -0.1181  0.6354
    1SOL    HW2 3590   3.418   4.663   1.568 -0.4127 -0.6387 -0.6157
    1SOL    HW3 3591   3.357   4.524   1.577 -0.4193 -0.5195  1.4184
    1SOL    MW4 3592   3.368   4.605   1.609  0.0741 -0.2403  0.5736
    1SOL     OW 3593   3.168   0.103   1.514  0.1187 -0.0108  0.4335
    1SOL    HW2 3594   3.235   0.052   1.559 -0.4779  0.5387  1.9593
    1SOL    HW3 3595   3.086   0.056   1.529 -0.0404  0.0283 -0.3035
    1SOL    MW4 3596   3.166   0.090   1.522  0.0191  0.0669  0.5376
    1SOL     OW 3597   3.166   0.353   1.634 -0.1917  0.2173  0.1156
    1SOL    HW2 3598   3.165   0.265   1.596  0.6850  1.8338 -3.9310
    1SOL    HW3 3599   3.085   0.393   1.602  0.0523  1.3101  0.8453
    1SOL    MW4 3600   3.155   0.347   1.625 -0.0439  0.5748 -0.3220
    1SOL     OW 3601   3.342   0.541   1.494  0.1993 -0.3351 -0.4082
    1SOL    HW2 3602   3.289   0.469   1.528  0.3034 -0.6896 -0.9873
    1SOL    HW3 3603   3.334   0.534   1.399  1.0382 -0.2098 -0.4905
    1SOL    MW4 3604   3.334   0.530   1.486  0.3238 -0.3654 -0.4956
    1SOL     OW 3605   3.325   0.796   1.622  0.3397  0.5929  0.2598
    1SOL    HW2 3606   3.327   0.777   1.716 -2.1847 -0.5890  0.1265
    1SOL    HW3 3607   3.325   0.709   1.580 -0.0898  1.0826 -0.7737
    1SOL    MW4 3608   3.325   0.782   1.629 -0.0498  0.5016  0.1059
    1SOL     OW 3609   3.130   0.923   1.466 -0.5923  0.1207 -0.2126
    1SOL    HW2 3610   3.203   0.883   1.512  0.3894  1.3730 -0.6616
    1SOL    HW3 3611   3.052   0.878   1.499  0.3719 -1.0973  0.3810
    1SOL    MW4 3612   3.129   0.912   1.477 -0.3352  0.1252 -0.1935
    1SOL     OW 3613   3.118   1.159   1.588  0.2354 -0.1622  0.0273
    1SOL    HW2 3614   3.115   1.146   1.683  0.6717  0.4985  0.1357
    1SOL    HW3 3615   3.129   1.071   1.552  0.1715 -0.4045  0.5895
    1SOL    MW4 3616   3.119   1.146   1.596  0.2844 -0.1068  0.1159
    1SOL     OW 3617   3.338   1.288   1.489  0.4138 -0.0995 -0.0633
    1SOL    HW2 3618   3.418   1.242   1.514  0.8363  0.6649  0.0009
    1SOL    HW3 3619   3.267   1.234   1.523  0.8751 -1.2184 -0.8328
    1SOL    MW4 3620   3.339   1.275   1.497  0.5305 -0.1463 -0.1564
    1SOL     OW 3621   3.398   1.546   1.599  0.2071  0.5157 -0.4484
    1SOL    HW2 3622   3.381   1.534   1.692  1.0656 -0.5372 -0.4210
    1SOL    HW3 3623   3.378   1.461   1.559 -1.3156  1.2996 -1.4113
    1SOL    MW4 3624   3.393   1.533   1.606  0.1197  0.4802 -0.5718
    1SOL     OW 3625   3.198   1.667   1.462  0.4797 -0.2543  0.6605
    1SOL    HW2 3626   3.274   1.632   1.508  1.0864 -0.0314 -0.1750
    1SOL    HW3 3627   3.126   1.610   1.489  0.9339 -0.4776  1.4355
    1SOL    MW4 3628   3.198   1.655   1.472  0.6196 -0.2543  0.6526
    1SOL     OW 3629   3.148   1.906   1.612 -0.5477 -0.0529  0.2906
    1SOL    HW2 3630   3.145   1.822   1.564 -0.2337  0.6219 -0.9359
    1SOL    HW3 3631   3.094   1.965   1.559  0.0668  0.7919  0.6005
    1SOL    MW4 3632   3.141   1.902   1.599 -0.4251  0.1476  0.1698
    1SOL     OW 3633   3.352   2.050   1.509  0.1751  0.4860  0.3926
    1SOL    HW2 3634   3.293   1.993   1.557  0.1679 -0.3919 -0.6396
    1SOL    HW3 3635   3.333   2.033   1.416  1.5550  0.6987  0.0497
    1SOL    MW4 3636   3.342   2.040   1.503  0.3562  0.3982  0.2112
    1SOL     OW 3637   3.327   2.307   1.611 -0.3285 -0.2479  0.4389
    1SOL    HW2 3638   3.417   2.335   1.595  0.4379 -1.7694  1.8384
    1SOL    HW3 3639   3.329   2.212   1.596 -1.9050 -0.1582 -0.3666
    1SOL    MW4 3640   3.339   2.298   1.607 -0.4356 -0.4370  0.5174
    1SOL     OW 3641   3.132   2.453   1.455  0.2332 -0.0502  0.0885
    1SOL    HW2 3642   3.212   2.410   1.485  0.1149 -0.0926  0.3381
    1SOL    HW3 3643   3.062   2.410   1.504 -0.0462 -0.7375 -0.8827
    1SOL    MW4 3644   3.133   2.441   1.465  0.1807 -0.1462 -0.0068
    1SOL     OW 3645   3.152   2.677   1.630 -0.4055 -0.7636  0.0842
    1SOL    HW2 3646   3.232   2.721   1.601 -0.1281 -1.0831  0.3698
    1SOL    HW3 3647   3.157   2.590   1.590 -0.5192 -0.8477  0.2535
    1SOL    MW4 3648   3.163   2.671   1.621 -0.3839 -0.8168  0.1441
    1SOL     OW 3649   3.369   2.818   1.508  0.2321  0.4778  0.1355
    1SOL    HW2 3650   3.349   2.909   1.532  1.9772  0.8301  0.3104
    1SOL    HW3 3651   3.357   2.816   1.413 -0.9274  0.5891  0.2716
    1SOL    MW4 3652   3.364   2.830   1.499  0.3095  0.5393  0.1764
    1SOL     OW 3653   3.372   3.098   1.613 -0.0681  0.4093  0.4298
    1SOL    HW2 3654   3.371   3.108   1.708  0.3840 -2.1063  0.7167
    1SOL    HW3 3655   3.448   3.149   1.584  0.9818 -0.4561  1.6252
    1SOL    MW4 3656   3.382   3.106   1.622  0.1302 -0.0367  0.6256
    1SOL     OW 3657   3.163   3.195   1.463  0.2665 -0.0836  0.4835
    1SOL    HW2 3658   3.143   3.281   1.500  1.2871  0.0170  0.8298
    1SOL    HW3 3659   3.238   3.164   1.514  1.1690 -0.3124 -0.9414
    1SOL    MW4 3660   3.170   3.202   1.475  0.5202 -0.1006  0.3411
    1SOL     OW 3661   3.167   3.458   1.566  0.4560  0.5910  0.2467
    1SOL    HW2 3662   3.163   3.457   1.661 -0.0848  1.2133  0.2377
    1SOL    HW3 3663   3.086   3.503   1.539  0.8177  0.8106 -0.4892
    1SOL    MW4 3664   3.156   3.464   1.575  0.4323  0.7019  0.1485
    1SOL     OW 3665   3.379   3.604   1.465 -0.2229  0.3969  0.2188
    1SOL    HW2 3666   3.450   3.566   1.516 -0.5383 -1.0124 -0.3463
    1SOL    HW3 3667   3.302   3.553   1.490 -0.3709 -0.3322 -1.6636
    1SOL    MW4 3668   3.378   3.592   1.475 -0.2842  0.1147 -0.1041
    1SOL     OW 3669   3.322   3.839   1.598 -0.2326 -0.5874 -0.3953
    1SOL    HW2 3670   3.256   3.884   1.546  0.9672  1.0299 -0.5711
    1SOL    HW3 3671   3.337   3.756   1.552 -1.0588 -0.3116 -1.1666
    1SOL    MW4 3672   3.315   3.834   1.585 -0.1833 -0.3376 -0.5202
    1SOL     OW 3673   3.172   3.988   1.420 -0.5554 -0.3216 -0.0707
    1SOL    HW2 3674   3.152   4.073   1.458  0.9764 -0.3466  0.8282
    1SOL    HW3 3675   3.102   3.930   1.452 -0.1048 -0.0078  1.5100
    1SOL    MW4 3676   3.160   3.991   1.429 -0.2937 -0.2835  0.2565
    1SOL     OW 3677   3.147   4.224   1.569  0.2798 -0.4079  0.4805
    1SOL    HW2 3678   3.146   4.242   1.662 -0.4609 -2.8323  0.9748
    1SOL    HW3 3679   3.071   4.271   1.534  0.7712  0.8056  1.0123
    1SOL    MW4 3680   3.137   4.232   1.576  0.2468 -0.5674  0.6158
    1SOL     OW 3681   3.361   4.375   1.494  0.4525 -0.1717  0.1034
    1SOL    HW2 3682   3.290   4.321   1.531 -1.1709  0.8848 -1.3841
    1SOL    HW3 3683   3.354   4.363   1.400 -0.7043  3.4307 -0.3771
    1SOL    MW4 3684   3.350   4.367   1.487  0.0858  0.4430 -0.1562
    1SOL     OW 3685   3.772   0.008   1.602 -0.2558  0.3228 -0.1615
    1SOL    HW2 3686   3.784  -0.001   1.697 -0.8641  2.2044  0.1089
    1SOL    HW3 3687   3.857   0.034   1.569 -0.4219  1.1510  0.0664
    1SOL    MW4 3688   3.785   0.010   1.610 -0.3581  0.6809 -0.0956
    1SOL     OW 3689   3.537   0.120   1.513 -0.0962 -0.2061  0.2232
    1SOL    HW2 3690   3.608   0.075   1.558  1.0606  1.6585  0.3300
    1SOL    HW3 3691   3.562   0.117   1.421  0.2010  0.5854  0.2774
    1SOL    MW4 3692   3.550   0.114   1.507  0.0958  0.1444  0.2444
    1SOL     OW 3693   3.542   0.351   1.651 -0.3459  0.1103  0.3126
    1SOL    HW2 3694   3.541   0.278   1.589 -1.0002  0.0182  0.4325
    1SOL    HW3 3695   3.490   0.419   1.609  0.2687  0.5129  0.1991
    1SOL    MW4 3696   3.535   0.350   1.637 -0.3512  0.1512  0.3134
    1SOL     OW 3697   3.791   0.477   1.557 -0.2645  0.4037  1.0775
    1SOL    HW2 3698   3.728   0.411   1.588 -0.5494 -0.1226 -0.6191
    1SOL    HW3 3699   3.779   0.479   1.463  0.5317  2.1052  1.0089
    1SOL    MW4 3700   3.781   0.468   1.549 -0.1967  0.5588  0.8446
    1SOL     OW 3701   3.810   0.749   1.618  0.1712 -0.1870 -0.5261
    1SOL    HW2 3702   3.728   0.791   1.592 -0.4213 -0.2119  1.2552
    1SOL    HW3 3703   3.796   0.656   1.602 -0.9085 -0.4264  1.6820
    1SOL    MW4 3704   3.797   0.742   1.612 -0.0496 -0.2218  0.0002
    1SOL     OW 3705   3.588   0.909   1.534  0.0983  0.7671 -0.0505
    1SOL    HW2 3706   3.505   0.876   1.569  1.0350 -1.2593  0.3662
    1SOL    HW3 3707   3.584   0.890   1.440  1.1226 -1.7370  0.3684
    1SOL    MW4 3708   3.577   0.902   1.526  0.3569  0.1694  0.0598
    1SOL     OW 3709   3.565   1.173   1.597  0.2782 -0.5672  0.2180
    1SOL    HW2 3710   3.648   1.204   1.561 -1.2413  1.5317 -1.5994
    1SOL    HW3 3711   3.566   1.078   1.580  2.3490 -0.6004  0.3744
    1SOL    MW4 3712   3.576   1.164   1.590  0.3510 -0.2947 -0.0012
    1SOL     OW 3713   3.816   1.233   1.480  0.0462 -0.0410  0.2566
    1SOL    HW2 3714   3.903   1.201   1.503 -0.2452 -0.6435  0.5223
    1SOL    HW3 3715   3.808   1.316   1.525 -0.0791 -0.6783  1.4181
    1SOL    MW4 3716   3.826   1.240   1.489 -0.0086 -0.2047  0.4449
    1SOL     OW 3717   3.819   1.493   1.577  0.1487 -0.3428 -0.2211
    1SOL    HW2 3718   3.830   1.518   1.669 -1.6733 -2.2528  0.5534
    1SOL    HW3 3719   3.755   1.555   1.543  1.8225  1.2152 -0.5955
    1SOL    MW4 3720   3.812   1.504   1.585  0.1290 -0.3893 -0.1683
    1SOL     OW 3721   3.631   1.682   1.495 -0.2754  0.0067  0.0535
    1SOL    HW2 3722   3.576   1.639   1.560 -0.8503  0.7586  0.0781
    1SOL    HW3 3723   3.592   1.658   1.411 -0.1913 -0.0766  0.0388
    1SOL    MW4 3724   3.618   1.673   1.493 -0.3402  0.0949  0.0547
    1SOL     OW 3725   3.609   1.943   1.583  0.2640  0.1955 -0.0344
    1SOL    HW2 3726   3.611   1.855   1.544 -0.4038  0.4021 -0.5532
    1SOL    HW3 3727   3.530   1.983   1.547 -1.4825 -0.3116  3.0249
    1SOL    MW4 3728   3.599   1.936   1.573 -0.0546  0.1558  0.3008
    1SOL     OW 3729   3.831   2.059   1.475 -0.1751 -0.2582  0.4530
    1SOL    HW2 3730   3.849   2.128   1.539 -0.7577  0.5659 -0.2635
    1SOL    HW3 3731   3.754   2.014   1.510  0.6742 -1.0591  1.3240
    1SOL    MW4 3732   3.823   2.063   1.488 -0.1400 -0.2553  0.4734
    1SOL     OW 3733   3.812   2.327   1.599  0.5319 -0.4236 -0.5327
    1SOL    HW2 3734   3.813   2.336   1.695  1.3520 -1.1393 -0.4615
    1SOL    HW3 3735   3.884   2.383   1.570  0.1435 -0.0364 -0.7560
    1SOL    MW4 3736   3.822   2.336   1.608  0.5889 -0.4671 -0.5527
    1SOL     OW 3737   3.564   2.458   1.564  0.1741 -0.0622 -0.3639
    1SOL    HW2 3738   3.587   2.550   1.568 -0.2705 -0.0364  2.0110
    1SOL    HW3 3739   3.647   2.412   1.578  0.0710 -0.0091  0.4327
    1SOL    MW4 3740   3.578   2.464   1.566  0.1018 -0.0517  0.0545
    1SOL     OW 3741   3.623   2.733   1.564  0.1481 -0.1723 -0.0317
    1SOL    HW2 3742   3.615   2.740   1.659  0.0556  0.7299 -0.0995
    1SOL    HW3 3743   3.537   2.758   1.531  0.3767  0.1650 -0.3768
    1SOL    MW4 3744   3.611   2.737   1.572  0.1659 -0.0088 -0.0862
    1SOL     OW 3745   3.841   2.843   1.466 -0.1310 -0.0687 -0.6867
    1SOL    HW2 3746   3.915   2.794   1.502  0.3365  1.3916  0.4156
    1SOL    HW3 3747   3.764   2.803   1.505  0.2100 -0.2940 -0.2378
    1SOL    MW4 3748   3.841   2.831   1.475 -0.0248  0.0942 -0.4821
    1SOL     OW 3749   3.785   3.085   1.599 -0.1322  0.3581  0.4428
    1SOL    HW2 3750   3.871   3.122   1.580 -0.6105  0.3117 -2.0492
    1SOL    HW3 3751   3.785   3.000   1.553 -1.5875  0.4741  0.2135
    1SOL    MW4 3752   3.796   3.078   1.590 -0.3874  0.3672  0.0838
    1SOL     OW 3753   3.588   3.253   1.522  0.1455  0.2362 -0.3333
    1SOL    HW2 3754   3.660   3.192   1.538 -0.0540 -0.1477 -0.8892
    1SOL    HW3 3755   3.583   3.260   1.427 -0.2757  0.5973 -0.2881
    1SOL    MW4 3756   3.597   3.246   1.512  0.0637  0.2332 -0.4007
    1SOL     OW 3757   3.590   3.513   1.624  0.1151  0.0173 -0.2323
    1SOL    HW2 3758   3.673   3.532   1.581 -0.8855  1.0781 -1.7033
    1SOL    HW3 3759   3.582   3.418   1.619  0.3413  0.0708 -1.7686
    1SOL    MW4 3760   3.600   3.503   1.618  0.0129  0.1645 -0.6291
    1SOL     OW 3761   3.818   3.586   1.474  0.4836  0.3456 -0.2038
    1SOL    HW2 3762   3.902   3.558   1.509 -0.3071 -0.1518  1.3615
    1SOL    HW3 3763   3.814   3.680   1.493  0.3728  0.2216  0.3939
    1SOL    MW4 3764   3.828   3.595   1.481  0.3645  0.2635  0.0814
    1SOL     OW 3765   3.763   3.835   1.562  0.2893 -0.0200 -0.0057
    1SOL    HW2 3766   3.841   3.885   1.541 -0.3677  0.3569 -1.6958
    1SOL    HW3 3767   3.691   3.884   1.521 -0.4979 -1.7058 -0.7350
    1SOL    MW4 3768   3.764   3.848   1.554  0.0987 -0.1926 -0.3247
    1SOL     OW 3769   3.552   3.984   1.430 -0.5279 -0.0798  0.2419
    1SOL    HW2 3770   3.567   4.059   1.487  1.5513 -1.5251  1.6802
    1SOL    HW3 3771   3.467   3.950   1.458 -0.8014  0.8579  0.5769
    1SOL    MW4 3772   3.543   3.989   1.441 -0.2894 -0.1469  0.4759
    1SOL     OW 3773   3.581   4.244   1.556 -0.3697  0.0013  0.0205
    1SOL    HW2 3774   3.572   4.242   1.651  1.2098 -0.2610  0.1733
    1SOL    HW3 3775   3.497   4.278   1.524 -1.0894 -0.3964  1.4699
    1SOL    MW4 3776   3.569   4.248   1.564 -0.2563 -0.0858  0.2319
    1SOL     OW 3777   3.794   4.423   1.502  0.3508  0.2177 -0.1776
    1SOL    HW2 3778   3.712   4.381   1.530 -0.0328  0.7578 -0.4649
    1SOL    HW3 3779   3.797   4.505   1.553  1.5520 -0.5752  1.0624
    1SOL    MW4 3780   3.783   4.428   1.513  0.4587  0.1836 -0.0519
    1SOL     OW 3781   4.267   4.626   1.602 -0.0039 -0.1012  0.5443
    1SOL    HW2 3782   4.263   4.608   1.696  0.8396 -0.1146  0.5826
    1SOL    HW3 3783   4.253   4.540   1.561 -0.1581 -0.1334  0.6655
    1SOL    MW4 3784   4.265   4.612   1.609  0.0863 -0.1078  0.5655
    1SOL     OW 3785   4.023   0.107   1.517 -0.1257 -0.6421  0.1707
    1SOL    HW2 3786   4.028   0.198   1.546  0.0988 -0.6993  0.3156
    1SOL    HW3 3787   4.110   0.071   1.536 -0.7487 -1.3713  1.7481
    1SOL    MW4 3788   4.035   0.114   1.523 -0.1783 -0.7459  0.3979
    1SOL     OW 3789   4.043   0.378   1.610 -0.0508  0.4076  0.5983
    1SOL    HW2 3790   4.051   0.380   1.705 -1.2939  0.1827  0.7065
    1SOL    HW3 3791   3.955   0.411   1.592 -0.3441 -0.8984 -0.4010
    1SOL    MW4 3792   4.033   0.383   1.620 -0.2532  0.2057  0.4807
    1SOL     OW 3793   4.279   0.508   1.534  0.1182 -0.0890 -0.3471
    1SOL    HW2 3794   4.202   0.459   1.562 -0.1949  0.2056 -0.6968
    1SOL    HW3 3795   4.351   0.471   1.586 -0.3348 -0.0434  0.3200
    1SOL    MW4 3796   4.278   0.497   1.545  0.0172 -0.0441 -0.3053
    1SOL     OW 3797   4.235   0.749   1.638 -0.2265 -0.7513  0.3860
    1SOL    HW2 3798   4.246   0.664   1.595 -0.9630  0.1208 -1.5703
    1SOL    HW3 3799   4.313   0.798   1.615 -0.8077 -0.1375 -0.2667
    1SOL    MW4 3800   4.246   0.744   1.630 -0.4001 -0.5553  0.0418
    1SOL     OW 3801   4.021   0.899   1.526 -0.1326 -0.3421 -0.0462
    1SOL    HW2 3802   4.105   0.867   1.561 -0.7990 -0.0479  1.9206
    1SOL    HW3 3803   3.957   0.833   1.553 -0.6082 -0.3302 -1.1327
    1SOL    MW4 3804   4.024   0.886   1.534 -0.2832 -0.3017  0.0700
    1SOL     OW 3805   4.049   1.147   1.615  0.0094  0.3669 -0.5390
    1SOL    HW2 3806   4.030   1.145   1.709 -1.6240 -1.0943 -0.8639
    1SOL    HW3 3807   4.037   1.056   1.586  0.2383  0.8432 -2.1935
    1SOL    MW4 3808   4.045   1.135   1.623 -0.1760  0.2370 -0.8001
    1SOL     OW 3809   4.237   1.273   1.468 -0.0263 -0.2198  0.0341
    1SOL    HW2 3810   4.166   1.230   1.516  1.3457  0.2614  2.6061
    1SOL    HW3 3811   4.317   1.231   1.501  1.0048  0.6487 -1.3072
    1SOL    MW4 3812   4.238   1.262   1.478  0.2909 -0.0416  0.1963
    1SOL     OW 3813   4.256   1.531   1.601  0.4811  0.0887 -0.8099
    1SOL    HW2 3814   4.257   1.439   1.574  2.1024  0.2201 -1.2636
    1SOL    HW3 3815   4.345   1.562   1.582 -0.0602  1.7514 -0.6762
    1SOL    MW4 3816   4.268   1.523   1.595  0.6242  0.3254 -0.8521
    1SOL     OW 3817   4.030   1.662   1.488 -0.1706 -0.0279  0.4380
    1SOL    HW2 3818   4.113   1.618   1.509  0.6777  1.2431 -0.1638
    1SOL    HW3 3819   3.962   1.600   1.516  0.9780 -1.0904  0.9367
    1SOL    MW4 3820   4.032   1.648   1.495  0.0920 -0.0005  0.4245
    1SOL     OW 3821   4.004   1.897   1.618 -0.1043  0.6324  0.1057
    1SOL    HW2 3822   4.022   1.815   1.573 -0.5766 -0.4587  1.8663
    1SOL    HW3 3823   3.946   1.945   1.558  0.4755 -0.1408 -1.0985
    1SOL    MW4 3824   3.999   1.893   1.604 -0.0904  0.3864  0.1791
    1SOL     OW 3825   4.233   2.021   1.492 -0.3398  0.0404 -0.3315
    1SOL    HW2 3826   4.158   1.964   1.507 -0.5065  0.4969  0.5993
    1SOL    HW3 3827   4.237   2.030   1.397  0.1340 -2.1007 -0.5433
    1SOL    MW4 3828   4.223   2.014   1.481 -0.2999 -0.1817 -0.2365
    1SOL     OW 3829   4.224   2.260   1.640 -0.5858  0.4770 -0.0274
    1SOL    HW2 3830   4.223   2.232   1.732 -0.2674 -0.1738 -0.2209
    1SOL    HW3 3831   4.217   2.179   1.590 -1.2732  0.8732 -0.5767
    1SOL    MW4 3832   4.223   2.245   1.646 -0.6351  0.4432 -0.1254
    1SOL     OW 3833   4.049   2.440   1.491 -0.0181 -0.6715  0.2843
    1SOL    HW2 3834   4.068   2.522   1.538  0.9645 -0.7181 -0.0351
    1SOL    HW3 3835   4.096   2.373   1.540 -0.0918 -0.9171  0.0187
    1SOL    MW4 3836   4.057   2.442   1.504  0.1016 -0.7100  0.2072
    1SOL     OW 3837   4.051   2.704   1.590 -0.0598  0.0913  0.5390
    1SOL    HW2 3838   4.070   2.688   1.682  0.8834 -0.4405  0.2647
    1SOL    HW3 3839   4.126   2.756   1.560  0.0713 -0.4684 -0.1246
    1SOL    MW4 3840   4.064   2.709   1.598  0.0825 -0.0525  0.4152
    1SOL     OW 3841   4.247   2.852   1.481  0.3049  0.1233 -0.7696
    1SOL    HW2 3842   4.223   2.940   1.509  0.5772  0.0749 -0.3829
    1SOL    HW3 3843   4.235   2.852   1.387  1.7266  1.0103 -0.9583
    1SOL    MW4 3844   4.242   2.863   1.473  0.5283  0.2339 -0.7436
    1SOL     OW 3845   4.242   3.114   1.601 -0.1672  0.4001 -0.0749
    1SOL    HW2 3846   4.242   3.104   1.696  0.3149 -0.4464 -0.1562
    1SOL    HW3 3847   4.333   3.135   1.580  0.0491 -0.8473 -0.4758
    1SOL    MW4 3848   4.254   3.115   1.611 -0.0749  0.1240 -0.1385
    1SOL     OW 3849   4.033   3.207   1.478  0.1213 -0.7347 -0.2624
    1SOL    HW2 3850   4.034   3.301   1.495  0.0397 -0.4812 -1.6155
    1SOL    HW3 3851   4.110   3.173   1.523  0.8755  0.1808 -0.8452
    1SOL    MW4 3852   4.043   3.215   1.486  0.2098 -0.5805 -0.5178
    1SOL     OW 3853   4.062   3.477   1.555  0.3049  0.2523  0.4386
    1SOL    HW2 3854   4.059   3.484   1.650  0.6360 -0.5136  0.5106
    1SOL    HW3 3855   4.155   3.488   1.533  0.3803 -0.6183  0.2972
    1SOL    MW4 3856   4.074   3.480   1.565  0.3591  0.0362  0.4295
    1SOL     OW 3857   4.305   3.598   1.481 -0.3024 -0.2407  0.1926
    1SOL    HW2 3858   4.284   3.690   1.498 -0.8273 -0.5162  1.0032
    1SOL    HW3 3859   4.287   3.586   1.388 -0.5967  0.3788  0.1704
    1SOL    MW4 3860   4.300   3.609   1.471 -0.4106 -0.1953  0.2966
    1SOL     OW 3861   4.246   3.845   1.562 -0.2130  0.2753 -0.5912
    1SOL    HW2 3862   4.176   3.909   1.549  0.3449  0.8294 -0.9403
    1SOL    HW3 3863   4.325   3.890   1.530  0.5278  0.1691  1.0658
    1SOL    MW4 3864   4.247   3.860   1.556 -0.0415  0.3345 -0.4185
    1SOL     OW 3865   3.990   4.014   1.529  0.4267  0.0104  0.2341
    1SOL    HW2 3866   4.003   4.102   1.566 -1.0582  0.6472 -0.7450
    1SOL    HW3 3867   4.010   4.024   1.436 -2.7665  0.0501 -0.4889
    1SOL    MW4 3868   3.995   4.027   1.522 -0.1905  0.0997  0.0094
    1SOL     OW 3869   4.012   4.280   1.590 -0.0941  0.2665  0.3265
    1SOL    HW2 3870   4.004   4.251   1.681 -0.4189  1.5923  0.7316
    1SOL    HW3 3871   3.939   4.342   1.577 -1.1903 -1.3200 -1.4056
    1SOL    MW4 3872   4.001   4.285   1.600 -0.2813  0.2322  0.1513
    1SOL     OW 3873   4.279   4.371   1.487 -0.1962 -0.0789  0.5801
    1SOL    HW2 3874   4.193   4.331   1.497 -1.2680  1.6320 -1.6535
    1SOL    HW3 3875   4.301   4.359   1.395  0.9860  1.4594  0.6457
    1SOL    MW4 3876   4.271   4.364   1.476 -0.1822  0.3495  0.2941
    1SOL     OW 3877   0.243   4.579   1.886 -0.8615  0.3082 -0.1204
    1SOL    HW2 3878   0.312   4.638   1.916 -0.7361  0.0262  0.1452
    1SOL    HW3 3879   0.249   4.582   1.791  0.5674 -0.9585 -0.0772
    1SOL    MW4 3880   0.253   4.587   1.878 -0.6564  0.1044 -0.0796
    1SOL     OW 3881   0.008   0.043   1.989 -0.2057 -0.4442  0.1042
    1SOL    HW2 3882   0.010   0.134   1.960 -1.8807 -1.0541 -2.1264
    1SOL    HW3 3883   0.091   0.006   1.960 -1.2146 -0.6388 -2.6369
    1SOL    MW4 3884   0.019   0.050   1.982 -0.5598 -0.5503 -0.5518
    1SOL     OW 3885   0.017   0.317   1.916 -0.0800 -0.5860 -0.3335
    1SOL    HW2 3886  -0.055   0.380   1.928 -0.4824 -0.5434 -2.8389
    1SOL    HW3 3887   0.094   0.362   1.950 -0.7419  0.4157 -0.1390
    1SOL    MW4 3888   0.018   0.331   1.922 -0.2204 -0.4482 -0.6384
    1SOL     OW 3889   0.233   0.480   1.984 -0.2054 -0.2926  0.4947
    1SOL    HW2 3890   0.307   0.431   1.948 -0.8109 -0.3253 -0.7225
    1SOL    HW3 3891   0.244   0.569   1.951 -0.8100 -0.3404  0.1515
    1SOL    MW4 3892   0.244   0.485   1.975 -0.3651 -0.3032  0.2888
    1SOL     OW 3893   0.224   0.752   1.890  0.8679 -0.0526 -0.3429
    1SOL    HW2 3894   0.301   0.806   1.909  1.1972 -0.8094  0.5263
    1SOL    HW3 3895   0.212   0.758   1.796  0.6291  1.9046 -0.1977
    1SOL    MW4 3896   0.232   0.760   1.880  0.8798  0.1057 -0.2091
    1SOL     OW 3897   0.031   0.897   2.011 -0.4788 -0.1748  0.5330
    1SOL    HW2 3898  -0.046   0.842   1.994 -0.9711  0.4529  0.6885
    1SOL    HW3 3899   0.103   0.851   1.969 -0.7025 -1.4651  1.5228
    1SOL    MW4 3900   0.030   0.884   2.003 -0.5736 -0.2622  0.6840
    1SOL     OW 3901   4.463   1.144   1.854  0.4557 -0.2074 -0.4204
    1SOL    HW2 3902   4.380   1.185   1.880  0.3179  0.1378 -1.3916
    1SOL    HW3 3903   4.467   1.063   1.904  0.2018  0.4630  0.6927
    1SOL    MW4 3904   4.453   1.139   1.864  0.4039 -0.0734 -0.4017
    1SOL     OW 3905   0.204   1.265   1.951 -0.2009  0.3314  0.4334
    1SOL    HW2 3906   0.218   1.360   1.950  0.3165  0.2617  0.6773
    1SOL    HW3 3907   0.122   1.252   1.903 -0.0777  0.8718  0.0696
    1SOL    MW4 3908   0.195   1.276   1.945 -0.1163  0.3935  0.4176
    1SOL     OW 3909   0.255   1.551   1.882 -0.2113  0.1723 -0.4599
    1SOL    HW2 3910   0.329   1.605   1.908 -0.6104  0.2595  0.5395
    1SOL    HW3 3911   0.178   1.596   1.917 -0.5132 -1.2157  0.7257
    1SOL    MW4 3912   0.255   1.564   1.890 -0.3038  0.0006 -0.1717
    1SOL     OW 3913   0.013   1.650   1.986  0.1507  0.0628 -0.0659
    1SOL    HW2 3914   0.015   1.638   2.081 -0.2541 -0.0302 -0.0683
    1SOL    HW3 3915  -0.071   1.614   1.959  0.8621 -1.2332 -0.6322
    1SOL    MW4 3916   0.003   1.644   1.995  0.1911 -0.1205 -0.1409
    1SOL     OW 3917   0.028   1.890   1.875  0.2419  0.4484 -0.7827
    1SOL    HW2 3918  -0.041   1.924   1.932  0.9884 -0.0241  0.4222
    1SOL    HW3 3919   0.042   1.800   1.906  1.2681  0.4864 -1.1405
    1SOL    MW4 3920   0.020   1.883   1.887  0.4758  0.3911 -0.6711
    1SOL     OW 3921   0.233   2.028   1.997 -0.3141  0.1104  0.0753
    1SOL    HW2 3922   0.238   2.116   1.961  1.3105  0.0418  0.0564
    1SOL    HW3 3923   0.177   1.980   1.936 -1.1583  1.1064  0.0557
    1SOL    MW4 3924   0.227   2.033   1.984 -0.2111  0.2329  0.0702
    1SOL     OW 3925   0.228   2.297   1.909 -0.1896 -0.1284  0.0786
    1SOL    HW2 3926   0.302   2.357   1.904  0.3541 -0.8241 -0.4672
    1SOL    HW3 3927   0.151   2.353   1.922  0.4171  0.6039  0.5297
    1SOL    MW4 3928   0.227   2.312   1.910 -0.0378 -0.1235  0.0662
    1SOL     OW 3929   4.481   2.441   1.951 -0.0848  0.0363 -0.1844
    1SOL    HW2 3930   4.490   2.440   2.046 -1.7055 -0.1828 -0.0228
    1SOL    HW3 3931   4.497   2.532   1.927 -0.6223  0.2952  0.4088
    1SOL    MW4 3932   4.484   2.453   1.960 -0.3696  0.0420 -0.0848
    1SOL     OW 3933   0.001   2.709   1.863  0.2757 -0.0045 -0.0076
    1SOL    HW2 3934  -0.065   2.768   1.899 -0.5928 -1.8370  1.5110
    1SOL    HW3 3935  -0.016   2.708   1.769  1.0689  3.0366 -0.2100
    1SOL    MW4 3936  -0.010   2.716   1.856  0.2656  0.1550  0.1661
    1SOL     OW 3937   0.219   2.847   1.959 -0.1426  0.4747 -0.1159
    1SOL    HW2 3938   0.225   2.933   1.916  0.1482  0.1525 -0.7314
    1SOL    HW3 3939   0.147   2.803   1.913  0.4554 -0.0350 -0.5666
    1SOL    MW4 3940   0.210   2.853   1.947 -0.0253  0.3650 -0.2567
    1SOL     OW 3941   0.202   3.092   1.843  0.0513 -0.5972 -0.3456
    1SOL    HW2 3942   0.273   3.133   1.892 -0.9712 -0.7083  1.2861
    1SOL    HW3 3943   0.229   3.097   1.752  1.2593  1.1139  0.0887
    1SOL    MW4 3944   0.215   3.098   1.838  0.0758 -0.3862 -0.0732
    1SOL     OW 3945   4.472   3.206   1.967  0.2280  0.3041 -0.1175
    1SOL    HW2 3946   4.391   3.158   1.948 -0.6256  1.5743  0.2114
    1SOL    HW3 3947   4.540   3.157   1.921 -0.6951 -0.9068 -0.2277
    1SOL    MW4 3948   4.470   3.193   1.959 -0.0067  0.3121 -0.0887
    1SOL     OW 3949   4.490   3.471   1.840 -0.1876 -0.1787  0.2665
    1SOL    HW2 3950   4.574   3.505   1.872 -0.2433 -0.5501  0.8149
    1SOL    HW3 3951   4.484   3.383   1.877 -0.4989 -0.4108 -0.3410
    1SOL    MW4 3952   4.500   3.464   1.849 -0.2365 -0.2582  0.2588
    1SOL     OW 3953   0.209   3.599   1.943  0.2286  0.0392  0.1626
    1SOL    HW2 3954   0.197   3.594   2.037  0.6460  0.9944  0.2720
    1SOL    HW3 3955   0.299   3.571   1.928 -0.1179 -0.9976 -0.0497
    1SOL    MW4 3956   0.219   3.595   1.953  0.2380  0.0286  0.1491
    1SOL     OW 3957   0.243   3.867   1.874  0.1837 -0.2118  0.2614
    1SOL    HW2 3958   0.305   3.914   1.930 -0.4302  0.5941  0.2709
    1SOL    HW3 3959   0.237   3.780   1.914 -0.6126  0.4970  1.7423
    1SOL    MW4 3960   0.250   3.862   1.887 -0.0024 -0.0119  0.4580
    1SOL     OW 3961   4.478   3.983   1.916  0.0188 -0.2129  0.1257
    1SOL    HW2 3962   4.490   4.077   1.898 -0.2597 -0.3741 -0.9343
    1SOL    HW3 3963   4.563   3.944   1.897  0.2606 -0.1289  0.9800
    1SOL    MW4 3964   4.491   3.991   1.911  0.0139 -0.2232  0.0987
    1SOL     OW 3965   4.487   4.243   1.856 -0.3722  0.1014 -0.2480
    1SOL    HW2 3966   4.401   4.271   1.889 -0.4618  1.1767 -1.3752
    1SOL    HW3 3967   4.550   4.293   1.908 -0.3659 -1.2903  1.1541
    1SOL    MW4 3968   4.484   4.253   1.867 -0.3834  0.0596 -0.2117
    1SOL     OW 3969   0.239   4.342   1.992  0.1794 -0.1548  0.4277
    1SOL    HW2 3970   0.247   4.340   2.088  0.5498 -0.5783  0.3864
    1SOL    HW3 3971   0.230   4.435   1.972  0.2028 -0.0534  0.8662
    1SOL    MW4 3972   0.239   4.354   2.002  0.2313 -0.1974  0.4802
    1SOL     OW 3973   0.659   4.648   1.861 -0.3200 -0.3041 -0.3452
    1SOL    HW2 3974   0.660   4.558   1.895 -0.3694  0.2220  1.0607
    1SOL    HW3 3975   0.674   4.638   1.767  0.8085 -1.7114 -0.0295
    1SOL    MW4 3976   0.661   4.635   1.853 -0.1776 -0.4201 -0.1179
    1SOL     OW 3977   0.439   0.089   1.985  0.5531 -0.0400  0.6902
    1SOL    HW2 3978   0.440   0.181   1.960  0.6415 -0.0714  0.5758
    1SOL    HW3 3979   0.520   0.054   1.949 -0.2157 -0.5218 -0.6358
    1SOL    MW4 3980   0.450   0.096   1.977  0.4633 -0.1077  0.5001
    1SOL     OW 3981   0.463   0.364   1.890  0.0669 -0.5391 -0.3068
    1SOL    HW2 3982   0.545   0.409   1.912 -0.4608  0.1578  0.2748
    1SOL    HW3 3983   0.457   0.370   1.794  0.1869  0.3225 -0.2681
    1SOL    MW4 3984   0.473   0.371   1.880  0.0131 -0.3335 -0.2251
    1SOL     OW 3985   0.706   0.505   1.980  0.6483 -0.2683 -0.1087
    1SOL    HW2 3986   0.697   0.481   2.072  0.6629 -1.5241 -0.4230
    1SOL    HW3 3987   0.781   0.455   1.949  0.2378 -0.3577 -0.9690
    1SOL    MW4 3988   0.714   0.495   1.988  0.5960 -0.4457 -0.2637
    1SOL     OW 3989   0.675   0.775   1.888  0.6118 -0.4483  0.1845
    1SOL    HW2 3990   0.759   0.800   1.927 -0.2626  0.1345  1.7109
    1SOL    HW3 3991   0.668   0.681   1.904  0.9523 -0.4909  0.0878
    1SOL    MW4 3992   0.685   0.766   1.895  0.5413 -0.3771  0.3731
    1SOL     OW 3993   0.444   0.912   1.953 -0.0066  0.2799  0.3165
    1SOL    HW2 3994   0.430   0.896   2.046 -0.9910  0.3014  0.1789
    1SOL    HW3 3995   0.521   0.859   1.931  0.0646  0.0573  1.0796
    1SOL    MW4 3996   0.453   0.903   1.962 -0.1271  0.2534  0.3992
    1SOL     OW 3997   0.451   1.180   1.894 -0.3304  0.2102  0.2009
    1SOL    HW2 3998   0.367   1.216   1.920 -0.0452  1.0797 -0.0529
    1SOL    HW3 3999   0.451   1.091   1.928 -1.5291  0.0635 -0.1817
    1SOL    MW4 4000   0.440   1.173   1.902 -0.4510  0.3055  0.1171
    1SOL     OW 4001   0.671   1.320   1.954  0.2957 -0.4618  0.2681
    1SOL    HW2 4002   0.680   1.304   2.048  1.7645 -0.4460  0.1388
    1SOL    HW3 4003   0.582   1.289   1.933  0.2322 -1.1612  1.5057
    1SOL    MW4 4004   0.660   1.314   1.964  0.4812 -0.5519  0.4144
    1SOL     OW 4005   0.665   1.566   1.844  0.0447  0.0098  0.3554
    1SOL    HW2 4006   0.660   1.479   1.884  0.1935  0.5595  1.6166
    1SOL    HW3 4007   0.646   1.551   1.752  1.7090 -1.6023  0.2209
    1SOL    MW4 4008   0.662   1.552   1.837  0.2838 -0.1303  0.5039
    1SOL     OW 4009   0.475   1.711   1.963 -0.2479  0.0908 -0.2156
    1SOL    HW2 4010   0.480   1.693   2.057 -0.9748 -0.5947 -0.3002
    1SOL    HW3 4011   0.547   1.661   1.925  0.6204  1.0970  0.0678
    1SOL    MW4 4012   0.485   1.702   1.970 -0.2292  0.1333 -0.1894
    1SOL     OW 4013   0.467   1.972   1.862  0.7264  0.2772  0.3959
    1SOL    HW2 4014   0.491   1.884   1.891  0.8765  1.0337  2.7114
    1SOL    HW3 4015   0.390   1.995   1.914 -0.0162  1.0679 -1.0225
    1SOL    MW4 4016   0.460   1.964   1.873  0.6482  0.4812  0.5144
    1SOL     OW 4017   0.696   2.125   1.968 -0.5305 -0.0443  0.0853
    1SOL    HW2 4018   0.701   2.130   2.064 -0.2978 -0.2162  0.0827
    1SOL    HW3 4019   0.612   2.080   1.951 -0.0596 -1.0010  0.2398
    1SOL    MW4 4020   0.685   2.120   1.978 -0.4378 -0.1931  0.1053
    1SOL     OW 4021   0.673   2.369   1.844 -0.0688 -0.1149  0.4580
    1SOL    HW2 4022   0.685   2.286   1.889 -0.3795  0.2291  1.1803
    1SOL    HW3 4023   0.669   2.346   1.751  0.0232 -0.8828  0.6441
    1SOL    MW4 4024   0.674   2.355   1.837 -0.0977 -0.1709  0.5779
    1SOL     OW 4025   0.436   2.476   1.934 -0.4228 -0.4951  0.1920
    1SOL    HW2 4026   0.432   2.481   2.030  0.6705 -0.6416  0.2570
    1SOL    HW3 4027   0.525   2.447   1.916 -0.2359  0.7237 -0.9091
    1SOL    MW4 4028   0.447   2.473   1.944 -0.2539 -0.3536  0.0553
    1SOL     OW 4029   0.479   2.761   1.879  0.4952  0.2074  0.2805
    1SOL    HW2 4030   0.466   2.673   1.914  1.3361 -0.2995 -0.6740
    1SOL    HW3 4031   0.396   2.806   1.898 -0.5050 -1.2367 -0.5533
    1SOL    MW4 4032   0.466   2.755   1.886  0.4742 -0.0501  0.0445
    1SOL     OW 4033   0.711   2.855   2.000  0.3064 -0.1142  0.0982
    1SOL    HW2 4034   0.700   2.853   2.095  1.1428  0.2328  0.2151
    1SOL    HW3 4035   0.628   2.825   1.964 -0.4504  0.9562  0.9239
    1SOL    MW4 4036   0.699   2.851   2.008  0.3169  0.0727  0.2227
    1SOL     OW 4037   0.645   3.100   1.871  0.4626 -0.4341 -0.1210
    1SOL    HW2 4038   0.672   3.011   1.893 -0.3310 -0.7846 -0.5198
    1SOL    HW3 4039   0.649   3.103   1.775  0.2648 -0.1102 -0.1193
    1SOL    MW4 4040   0.649   3.089   1.861  0.3319 -0.4375 -0.1733
    1SOL     OW 4041   0.419   3.212   1.965 -0.2325  0.1487 -0.6677
    1SOL    HW2 4042   0.415   3.302   1.932 -1.3820  0.4546  0.2530
    1SOL    HW3 4043   0.500   3.177   1.929  0.8586  1.9511 -0.0503
    1SOL    MW4 4044   0.429   3.219   1.956 -0.2402  0.4270 -0.4648
    1SOL     OW 4045   0.447   3.490   1.878 -0.3873  0.4160  0.3058
    1SOL    HW2 4046   0.529   3.524   1.913 -0.0022  0.2430 -0.4151
    1SOL    HW3 4047   0.465   3.474   1.785 -1.2013  0.2733  0.1657
    1SOL    MW4 4048   0.460   3.493   1.870 -0.4439  0.3741  0.1924
    1SOL     OW 4049   0.679   3.620   1.999 -0.2562 -0.3287  0.1967
    1SOL    HW2 4050   0.749   3.568   1.959 -0.3894 -0.6724  0.4070
    1SOL    HW3 4051   0.677   3.701   1.948  0.1044 -0.4367  0.0101
    1SOL    MW4 4052   0.688   3.624   1.987 -0.2263 -0.3884  0.1998
    1SOL     OW 4053   0.651   3.860   1.857 -0.1442 -0.3408 -0.2267
    1SOL    HW2 4054   0.729   3.903   1.892 -0.9195  0.1624  0.9411
    1SOL    HW3 4055   0.657   3.871   1.762  0.3295  1.2183 -0.0256
    1SOL    MW4 4056   0.662   3.867   1.849 -0.1839 -0.0689 -0.0461
    1SOL     OW 4057   0.457   3.993   1.996 -0.2303  0.0895  0.1056
    1SOL    HW2 4058   0.467   4.075   1.948 -1.9385  0.3600  0.1977
    1SOL    HW3 4059   0.521   3.934   1.955  1.0328  1.4642  0.0719
    1SOL    MW4 4060   0.467   3.996   1.984 -0.2891  0.3068  0.1131
    1SOL     OW 4061   0.468   4.243   1.862  0.7402  0.6857  0.1522
    1SOL    HW2 4062   0.386   4.255   1.909 -1.1456 -1.5522 -2.4154
    1SOL    HW3 4063   0.445   4.254   1.770  3.5850  1.2227 -0.5462
    1SOL    MW4 4064   0.454   4.246   1.856  0.8667  0.4606 -0.2787
    1SOL     OW 4065   0.658   4.395   1.966  0.0456 -0.5385  0.5581
    1SOL    HW2 4066   0.733   4.349   1.927  1.2164  1.8626 -0.1419
    1SOL    HW3 4067   0.581   4.354   1.926  1.1065 -0.9025 -1.1764
    1SOL    MW4 4068   0.658   4.383   1.955  0.3401 -0.2699  0.2369
    1SOL     OW 4069   1.113   4.656   1.835 -0.0590  0.4866 -0.0738
    1SOL    HW2 4070   1.186   4.699   1.881 -1.2965  0.7859  1.6315
    1SOL    HW3 4071   1.110   4.568   1.872 -0.1685  0.2599 -0.6115
    1SOL    MW4 4072   1.123   4.650   1.846 -0.2369  0.4964  0.0802
    1SOL     OW 4073   0.893   0.047   1.986 -0.2970 -0.6035  0.2398
    1SOL    HW2 4074   0.966   0.029   1.927 -0.4774  0.1275 -0.2144
    1SOL    HW3 4075   0.814   0.026   1.935 -0.4264 -0.8205  0.5239
    1SOL    MW4 4076   0.892   0.042   1.971 -0.3378 -0.5357  0.2174
    1SOL     OW 4077   0.897   0.340   1.879 -0.0327 -0.0661  0.0202
    1SOL    HW2 4078   0.987   0.367   1.899  0.4770 -0.8643 -1.1962
    1SOL    HW3 4079   0.890   0.252   1.915 -0.5435  0.2326  0.6781
    1SOL    MW4 4080   0.908   0.332   1.887 -0.0328 -0.1320 -0.0535
    1SOL     OW 4081   1.145   0.466   1.932  0.0329  0.2622  0.3033
    1SOL    HW2 4082   1.235   0.432   1.927 -0.6048 -1.2929 -0.9068
    1SOL    HW3 4083   1.152   0.555   1.899  1.0441 -0.0335 -0.3236
    1SOL    MW4 4084   1.158   0.473   1.927  0.0821  0.0180  0.0610
    1SOL     OW 4085   1.155   0.725   1.838  0.2461 -0.0531 -0.6108
    1SOL    HW2 4086   1.235   0.757   1.880 -0.3873  0.1345  0.4523
    1SOL    HW3 4087   1.085   0.780   1.873 -0.7489 -2.0570  0.6573
    1SOL    MW4 4088   1.157   0.736   1.848  0.0312 -0.2928 -0.3033
    1SOL     OW 4089   0.948   0.883   1.948  0.4344 -0.2218  0.0734
    1SOL    HW2 4090   0.928   0.884   2.042 -1.7123 -0.0075 -0.3726
    1SOL    HW3 4091   0.947   0.975   1.922 -1.6464 -0.4235 -0.6783
    1SOL    MW4 4092   0.945   0.895   1.957 -0.1233 -0.2202 -0.0846
    1SOL     OW 4093   0.916   1.165   1.879  0.0157 -0.2156  0.0521
    1SOL    HW2 4094   0.855   1.225   1.922  1.0982  0.2463  0.9536
    1SOL    HW3 4095   0.880   1.154   1.790 -0.3094  1.5781 -0.0559
    1SOL    MW4 4096   0.903   1.171   1.873  0.1156  0.0819  0.1569
    1SOL     OW 4097   1.167   1.273   1.935  0.2409  0.4535  0.0870
    1SOL    HW2 4098   1.153   1.367   1.921  1.6581  0.6468 -0.0318
    1SOL    HW3 4099   1.082   1.233   1.916 -0.9455  1.9191  2.0533
    1SOL    MW4 4100   1.154   1.280   1.931  0.2713  0.6725  0.3308
    1SOL     OW 4101   1.106   1.537   1.876  0.1717 -0.0841  0.2586
    1SOL    HW2 4102   1.025   1.584   1.898  1.0029  1.7721 -0.5614
    1SOL    HW3 4103   1.111   1.543   1.781  1.7272  0.5505  0.3772
    1SOL    MW4 4104   1.096   1.544   1.866  0.4867  0.2447  0.1663
    1SOL     OW 4105   0.878   1.672   1.958  0.2670  0.1024  0.3872
    1SOL    HW2 4106   0.873   1.761   1.923 -0.9480 -0.1449 -0.0764
    1SOL    HW3 4107   0.801   1.628   1.923  1.4382 -1.4570 -0.2745
    1SOL    MW4 4108   0.867   1.678   1.949  0.2612 -0.1359  0.2388
    1SOL     OW 4109   0.894   1.948   1.865  0.1975  0.1581 -0.4200
    1SOL    HW2 4110   0.822   2.006   1.889  0.5549  0.2157  0.5395
    1SOL    HW3 4111   0.895   1.949   1.770 -0.8657  0.4060 -0.4367
    1SOL    MW4 4112   0.885   1.956   1.856  0.1044  0.1985 -0.2955
    1SOL     OW 4113   1.134   2.038   1.967 -0.5661 -0.5217 -0.2494
    1SOL    HW2 4114   1.136   2.132   1.946 -0.6556 -0.3683  0.4193
    1SOL    HW3 4115   1.048   2.009   1.938  0.0257 -0.7238 -1.8334
    1SOL    MW4 4116   1.123   2.047   1.960 -0.4998 -0.5281 -0.3703
    1SOL     OW 4117   1.114   2.294   1.885 -0.3890  0.1456  0.3753
    1SOL    HW2 4118   1.195   2.332   1.920  0.0066 -1.7911  1.6269
    1SOL    HW3 4119   1.124   2.301   1.790  0.2763  1.8974  0.5564
    1SOL    MW4 4120   1.126   2.300   1.877 -0.2490  0.1211  0.5642
    1SOL     OW 4121   0.916   2.466   1.966 -0.1037  0.2346  0.1715
    1SOL    HW2 4122   0.983   2.407   1.932  0.3172 -1.1858  3.2805
    1SOL    HW3 4123   0.835   2.438   1.924  0.6056 -0.4788 -0.7510
    1SOL    MW4 4124   0.914   2.455   1.956  0.0454 -0.0467  0.4599
    1SOL     OW 4125   0.922   2.722   1.864 -0.3652  0.3914 -0.2285
    1SOL    HW2 4126   0.909   2.636   1.905  2.2430 -0.1546 -0.4437
    1SOL    HW3 4127   0.860   2.780   1.909  0.0216 -0.9458  2.1091
    1SOL    MW4 4128   0.912   2.718   1.876  0.0299  0.1431  0.0515
    1SOL     OW 4129   1.143   2.864   1.948 -0.0060  0.0010  0.5284
    1SOL    HW2 4130   1.110   2.888   2.035 -0.9904 -0.0278  0.1695
    1SOL    HW3 4131   1.073   2.811   1.910  0.3630  0.1329 -0.3379
    1SOL    MW4 4132   1.129   2.860   1.954 -0.0873  0.0145  0.3667
    1SOL     OW 4133   1.090   3.121   1.804  0.3539 -0.2534  0.0244
    1SOL    HW2 4134   1.019   3.152   1.861  1.0322 -0.0689  0.7879
    1SOL    HW3 4135   1.122   3.042   1.847  0.8531 -0.1314 -0.1135
    1SOL    MW4 4136   1.085   3.115   1.817  0.5093 -0.2129  0.1070
    1SOL     OW 4137   0.868   3.212   1.959 -0.2835 -0.3706 -0.1207
    1SOL    HW2 4138   0.865   3.188   2.052 -1.4160 -0.5227 -0.1897
    1SOL    HW3 4139   0.777   3.205   1.930  0.0798 -0.3624 -1.2554
    1SOL    MW4 4140   0.855   3.208   1.968 -0.3850 -0.3898 -0.2795
    1SOL     OW 4141   0.872   3.485   1.854  0.1742 -0.1511 -0.0636
    1SOL    HW2 4142   0.889   3.397   1.888 -1.4494 -1.0820 -1.6222
    1SOL    HW3 4143   0.870   3.474   1.759  0.9177  1.7584 -0.3151
    1SOL    MW4 4144   0.874   3.472   1.846  0.0581 -0.0219 -0.3026
    1SOL     OW 4145   1.116   3.601   1.937  0.2709 -0.5619 -0.3307
    1SOL    HW2 4146   1.101   3.614   2.031  2.6019 -0.5294  0.0697
    1SOL    HW3 4147   1.037   3.557   1.906 -1.0922  0.6345  1.3721
    1SOL    MW4 4148   1.104   3.597   1.945  0.3986 -0.3996 -0.0530
    1SOL     OW 4149   1.122   3.869   1.881 -0.3925 -0.3005 -0.3522
    1SOL    HW2 4150   1.120   3.774   1.896 -1.0213 -0.3645 -0.8345
    1SOL    HW3 4151   1.123   3.877   1.786  0.6346  0.1645 -0.3150
    1SOL    MW4 4152   1.122   3.857   1.871 -0.3401 -0.2475 -0.4108
    1SOL     OW 4153   0.877   4.004   1.923 -0.6786  0.1339 -0.2929
    1SOL    HW2 4154   0.877   4.020   2.017 -0.1505 -0.1720 -0.2396
    1SOL    HW3 4155   0.967   3.978   1.903 -0.2285  2.2849 -1.2320
    1SOL    MW4 4156   0.889   4.003   1.933 -0.5496  0.3772 -0.4097
    1SOL     OW 4157   0.889   4.262   1.832  0.2607 -0.5462 -0.0130
    1SOL    HW2 4158   0.971   4.297   1.866 -0.1629  0.1854  0.2660
    1SOL    HW3 4159   0.889   4.170   1.860  1.2019 -0.6839 -0.4325
    1SOL    MW4 4160   0.900   4.254   1.840  0.3290 -0.4678 -0.0315
    1SOL     OW 4161   1.098   4.401   1.935 -0.4618 -0.0893 -0.0470
    1SOL    HW2 4162   1.091   4.407   2.031 -0.6212 -2.7217  0.1439
    1SOL    HW3 4163   1.187   4.368   1.919 -0.7705 -0.5894 -0.7556
    1SOL    MW4 4164   1.109   4.397   1.946 -0.5237 -0.5021 -0.1153
    1SOL     OW 4165   1.571   4.627   1.864 -0.1395 -0.5233  0.3104
    1SOL    HW2 4166   1.643   4.676   1.904  0.6785  0.0997 -1.8835
    1SOL    HW3 4167   1.579   4.539   1.902  1.8517 -0.4987  0.0438
    1SOL    MW4 4168   1.582   4.622   1.875  0.2314 -0.4382 -0.0142
    1SOL     OW 4169   1.345   0.093   1.948 -0.3614 -0.7624 -0.2603
    1SOL    HW2 4170   1.363   0.095   2.042 -0.6022  0.1408 -0.2330
    1SOL    HW3 4171   1.426   0.058   1.910 -0.4149 -1.5352  0.3111
    1SOL    MW4 4172   1.358   0.089   1.955 -0.4003 -0.7452 -0.1812
    1SOL     OW 4173   1.395   0.359   1.854 -0.0791  0.0534  0.1074
    1SOL    HW2 4174   1.380   0.271   1.889  0.7207 -0.2480 -0.3049
    1SOL    HW3 4175   1.367   0.352   1.762 -0.2321  0.2948  0.1356
    1SOL    MW4 4176   1.389   0.346   1.846  0.0062  0.0455  0.0567
    1SOL     OW 4177   1.611   0.514   1.922  0.4483  0.2329 -0.1384
    1SOL    HW2 4178   1.692   0.469   1.901 -0.5439 -0.9706 -1.5199
    1SOL    HW3 4179   1.543   0.461   1.881 -1.1999  0.2324  2.4666
    1SOL    MW4 4180   1.612   0.501   1.914  0.0999  0.0741  0.0230
    1SOL     OW 4181   1.585   0.759   1.834  0.1414 -0.2711  0.0279
    1SOL    HW2 4182   1.648   0.813   1.882 -0.9140 -0.2104  1.3705
    1SOL    HW3 4183   1.590   0.673   1.876 -0.3213 -0.3954 -0.1760
    1SOL    MW4 4184   1.594   0.755   1.846 -0.0589 -0.2795  0.1781
    1SOL     OW 4185   1.359   0.882   1.965 -0.1593 -0.1222  0.0081
    1SOL    HW2 4186   1.361   0.899   2.059  0.1754  3.1330 -0.5287
    1SOL    HW3 4187   1.445   0.843   1.946  0.2342  0.3423  0.8324
    1SOL    MW4 4188   1.371   0.879   1.975 -0.0633  0.3687  0.0459
    1SOL     OW 4189   1.381   1.125   1.840  0.0656 -0.8384 -0.5096
    1SOL    HW2 4190   1.373   1.039   1.883 -1.4999 -0.7065 -0.5134
    1SOL    HW3 4191   1.311   1.177   1.878  0.9430  0.4143 -0.6007
    1SOL    MW4 4192   1.371   1.120   1.851 -0.0252 -0.6557 -0.5221
    1SOL     OW 4193   1.595   1.257   1.977  0.0719  0.0429  0.3569
    1SOL    HW2 4194   1.584   1.350   1.956  0.1279  0.0862  0.5245
    1SOL    HW3 4195   1.527   1.213   1.925  1.3328 -0.0194 -1.2864
    1SOL    MW4 4196   1.584   1.263   1.967  0.2456  0.0404  0.1621
    1SOL     OW 4197   1.540   1.516   1.872  0.5358  0.2245  0.1458
    1SOL    HW2 4198   1.615   1.569   1.898  0.0601  0.8648  0.2461
    1SOL    HW3 4199   1.465   1.560   1.913 -0.0878  0.5736 -1.3316
    1SOL    MW4 4200   1.540   1.529   1.881  0.3906  0.3551 -0.0359
    1SOL     OW 4201   1.340   1.674   1.964  0.2345  0.2309  0.2060
    1SOL    HW2 4202   1.334   1.665   2.059  1.8598  0.0693  0.2986
    1SOL    HW3 4203   1.263   1.628   1.931  1.0160 -1.9396  1.3361
    1SOL    MW4 4204   1.329   1.667   1.972  0.5521 -0.0768  0.3674
    1SOL     OW 4205   1.349   1.917   1.838  0.4085 -0.1667  0.4573
    1SOL    HW2 4206   1.347   1.833   1.885  0.5310 -0.0086  0.7476
    1SOL    HW3 4207   1.295   1.975   1.891 -0.0064 -0.1680  0.0439
    1SOL    MW4 4208   1.342   1.913   1.851  0.3700 -0.1460  0.4410
    1SOL     OW 4209   1.588   2.013   1.960 -0.2422  0.0303  0.1466
    1SOL    HW2 4210   1.593   2.101   1.924 -1.7811  0.0259 -0.1396
    1SOL    HW3 4211   1.514   1.973   1.913 -0.4150 -0.9494  1.2401
    1SOL    MW4 4212   1.579   2.019   1.949 -0.4681 -0.0994  0.2531
    1SOL     OW 4213   1.581   2.277   1.875  0.2429  0.0798 -0.2223
    1SOL    HW2 4214   1.662   2.328   1.884 -0.4941  1.1541  0.4934
    1SOL    HW3 4215   1.559   2.284   1.782  1.6140 -1.2317 -0.6589
    1SOL    MW4 4216   1.589   2.285   1.864  0.3265  0.0486 -0.1854
    1SOL     OW 4217   1.341   2.424   1.965 -0.2385  0.0290  0.2045
    1SOL    HW2 4218   1.343   2.515   1.936  0.5475  0.6298  2.0981
    1SOL    HW3 4219   1.423   2.386   1.934  0.1692  0.4063  0.8324
    1SOL    MW4 4220   1.352   2.431   1.957 -0.0811  0.1581  0.5373
    1SOL     OW 4221   1.346   2.688   1.897  0.3151 -0.3566  0.1818
    1SOL    HW2 4222   1.278   2.747   1.928  0.3384  0.0463 -0.5132
    1SOL    HW3 4223   1.336   2.689   1.802  0.4908 -1.2655  0.1576
    1SOL    MW4 4224   1.336   2.696   1.889  0.3414 -0.4234  0.0868
    1SOL     OW 4225   1.579   2.829   1.942  0.0020 -0.2889 -0.2340
    1SOL    HW2 4226   1.661   2.790   1.912  0.2942 -0.3344  0.6096
    1SOL    HW3 4227   1.510   2.774   1.903  0.3965 -1.1441  0.2638
    1SOL    MW4 4228   1.580   2.816   1.933  0.0927 -0.4077 -0.0571
    1SOL     OW 4229   1.542   3.110   1.841 -0.1527 -0.5563 -0.0297
    1SOL    HW2 4230   1.564   3.023   1.872  1.8640  0.0246  0.2504
    1SOL    HW3 4231   1.548   3.104   1.745  0.0101 -0.7230 -0.0094
    1SOL    MW4 4232   1.546   3.098   1.832  0.1348 -0.5016  0.0099
    1SOL     OW 4233   1.287   3.213   1.963  0.4288  0.0121 -0.2152
    1SOL    HW2 4234   1.352   3.153   1.926  0.2754  0.5648 -1.4060
    1SOL    HW3 4235   1.209   3.199   1.910  0.2721  0.9739 -0.2419
    1SOL    MW4 4236   1.285   3.203   1.951  0.3878  0.2120 -0.3759
    1SOL     OW 4237   1.363   3.466   1.861  0.5137  0.3024  0.0672
    1SOL    HW2 4238   1.352   3.377   1.893 -1.1675  0.4969  0.0510
    1SOL    HW3 4239   1.284   3.512   1.888  1.2228  1.7205 -0.1850
    1SOL    MW4 4240   1.351   3.461   1.869  0.3853  0.5152  0.0318
    1SOL     OW 4241   1.569   3.615   1.950  0.0638  0.0074 -0.0733
    1SOL    HW2 4242   1.582   3.605   2.044  0.8654  0.1609 -0.1689
    1SOL    HW3 4243   1.487   3.568   1.932 -1.6362  2.3807  1.1677
    1SOL    MW4 4244   1.560   3.608   1.960 -0.0546  0.3407  0.0778
    1SOL     OW 4245   1.552   3.864   1.840  0.3338  0.0267  0.1897
    1SOL    HW2 4246   1.629   3.901   1.883 -0.0035  0.2336  0.6191
    1SOL    HW3 4247   1.541   3.778   1.881 -0.8209  0.7942  1.5397
    1SOL    MW4 4248   1.561   3.857   1.851  0.1370  0.1554  0.4245
    1SOL     OW 4249   1.347   4.017   1.932  0.0036 -0.1341  0.0446
    1SOL    HW2 4250   1.421   3.966   1.899  0.0158 -1.2558  1.7408
    1SOL    HW3 4251   1.269   3.969   1.905 -0.0085 -0.5845  0.8540
    1SOL    MW4 4252   1.347   4.004   1.924  0.0036 -0.3414  0.3753
    1SOL     OW 4253   1.352   4.294   1.850  0.3169 -0.1040  0.6923
    1SOL    HW2 4254   1.339   4.203   1.878  1.0321 -0.0817  1.1265
    1SOL    HW3 4255   1.356   4.290   1.754  0.6717 -0.5853  0.7236
    1SOL    MW4 4256   1.351   4.281   1.841  0.4581 -0.1645  0.7538
    1SOL     OW 4257   1.577   4.384   1.999  0.0305 -0.2654  0.2872
    1SOL    HW2 4258   1.543   4.404   2.086 -1.4017  1.1576 -0.5655
    1SOL    HW3 4259   1.501   4.350   1.951  0.4241  0.4872 -0.8846
    1SOL    MW4 4260   1.562   4.382   2.004 -0.1066  0.0219  0.0200
    1SOL     OW 4261   2.004   4.620   1.863 -0.6650  0.0632 -0.3252
    1SOL    HW2 4262   2.078   4.662   1.906  1.4409 -1.4458 -2.3529
    1SOL    HW3 4263   1.998   4.534   1.903  0.2455 -0.7199 -1.8332
    1SOL    MW4 4264   2.013   4.614   1.874 -0.2668 -0.2389 -0.7917
    1SOL     OW 4265   1.787   0.096   1.985 -0.4103  0.3612  0.4522
    1SOL    HW2 4266   1.801   0.091   2.079 -0.6299 -1.2234  0.4137
    1SOL    HW3 4267   1.850   0.034   1.948 -2.2738 -1.1897 -0.2306
    1SOL    MW4 4268   1.797   0.087   1.992 -0.6852 -0.0525  0.3569
    1SOL     OW 4269   1.827   0.359   1.887 -0.2052 -0.1027  0.3530
    1SOL    HW2 4270   1.814   0.270   1.921  0.4308 -0.2750  0.1362
    1SOL    HW3 4271   1.824   0.349   1.792 -0.1769  0.1174  0.3303
    1SOL    MW4 4272   1.825   0.346   1.879 -0.1177 -0.0964  0.3213
    1SOL     OW 4273   2.053   0.498   2.008 -0.0552 -0.4074 -0.4715
    1SOL    HW2 4274   2.035   0.590   1.984 -0.2051 -0.5449 -0.9002
    1SOL    HW3 4275   1.979   0.450   1.972  0.0873 -0.7122 -0.3509
    1SOL    MW4 4276   2.041   0.504   2.000 -0.0563 -0.4657 -0.5119
    1SOL     OW 4277   2.008   0.747   1.930 -0.1221  0.0733  0.0855
    1SOL    HW2 4278   2.078   0.810   1.945  0.6434 -0.4479 -1.2503
    1SOL    HW3 4279   1.929   0.793   1.960  0.6008  1.1418  0.4027
    1SOL    MW4 4280   2.006   0.761   1.936  0.0746  0.1455 -0.0490
    1SOL     OW 4281   1.777   0.870   1.997  0.4022  0.0813  0.2555
    1SOL    HW2 4282   1.791   0.959   1.966  1.7091 -0.1086  0.2835
    1SOL    HW3 4283   1.771   0.879   2.093 -0.4249  0.2558  0.1907
    1SOL    MW4 4284   1.778   0.883   2.006  0.4656  0.0792  0.2506
    1SOL     OW 4285   1.827   1.127   1.875  0.1646 -0.0125 -0.2614
    1SOL    HW2 4286   1.761   1.191   1.901  0.3218  0.4557 -0.9940
    1SOL    HW3 4287   1.911   1.166   1.901  0.4349  1.0938 -2.6714
    1SOL    MW4 4288   1.830   1.140   1.882  0.2211  0.1951 -0.6760
    1SOL     OW 4289   2.054   1.279   1.964 -0.4768 -0.2091  0.0664
    1SOL    HW2 4290   2.128   1.238   1.920  0.9341  2.7803 -0.4498
    1SOL    HW3 4291   2.068   1.260   2.057  1.5895  1.3111  0.0882
    1SOL    MW4 4292   2.066   1.271   1.971 -0.0179  0.3860  0.0011
    1SOL     OW 4293   1.970   1.530   1.880 -0.4468 -0.4370  0.3580
    1SOL    HW2 4294   1.981   1.441   1.913  0.7444 -0.6766 -0.6509
    1SOL    HW3 4295   1.988   1.524   1.786 -1.1418  0.7217  0.1340
    1SOL    MW4 4296   1.974   1.518   1.872 -0.3814 -0.3157  0.1955
    1SOL     OW 4297   1.756   1.651   1.983  0.1346  0.0288 -0.1782
    1SOL    HW2 4298   1.762   1.732   1.933 -0.8368 -0.5789 -1.2838
    1SOL    HW3 4299   1.824   1.594   1.947  0.5162  0.1820  0.2933
    1SOL    MW4 4300   1.765   1.654   1.972  0.0569 -0.0312 -0.2618
    1SOL     OW 4301   1.799   1.882   1.853 -0.0552 -0.5664  0.2071
    1SOL    HW2 4302   1.728   1.938   1.886  0.6600  0.4877 -0.0106
    1SOL    HW3 4303   1.805   1.904   1.760  0.5806 -0.6249  0.2343
    1SOL    MW4 4304   1.790   1.892   1.845  0.1231 -0.4351  0.1818
    1SOL     OW 4305   1.984   2.035   1.961 -0.1691 -0.3514 -0.1743
    1SOL    HW2 4306   2.064   1.988   1.937 -1.0750 -1.5178 -0.9464
    1SOL    HW3 4307   1.913   1.975   1.940 -1.3558  1.2897 -0.9784
    1SOL    MW4 4308   1.986   2.021   1.955 -0.4452 -0.2890 -0.3823
    1SOL     OW 4309   2.018   2.324   1.863  0.0831 -0.3492  0.1813
    1SOL    HW2 4310   2.100   2.367   1.889  1.1905 -1.9432 -0.5980
    1SOL    HW3 4311   2.023   2.238   1.903 -1.3677 -0.3520  0.3684
    1SOL    MW4 4312   2.029   2.319   1.872  0.0377 -0.5600  0.1032
    1SOL     OW 4313   1.780   2.438   1.933  0.1064 -0.5851  0.1533
    1SOL    HW2 4314   1.772   2.429   2.028 -0.7831  1.8273  0.3385
    1SOL    HW3 4315   1.857   2.385   1.911  0.5114 -0.9264  2.2525
    1SOL    MW4 4316   1.789   2.430   1.943  0.0426 -0.3116  0.4548
    1SOL     OW 4317   1.796   2.690   1.852 -0.4574 -0.0291  0.1020
    1SOL    HW2 4318   1.797   2.598   1.879  0.1799  0.1247  0.6273
    1SOL    HW3 4319   1.791   2.687   1.756 -0.3264 -0.6127  0.1109
    1SOL    MW4 4320   1.796   2.677   1.843 -0.3561 -0.0858  0.1725
    1SOL     OW 4321   2.006   2.834   1.954  0.1318 -0.2220  0.1002
    1SOL    HW2 4322   1.979   2.837   2.046 -0.1970  0.2017 -0.0089
    1SOL    HW3 4323   1.929   2.801   1.908 -0.0174  0.4626 -0.1418
    1SOL    MW4 4324   1.992   2.830   1.960  0.0688 -0.0758  0.0539
    1SOL     OW 4325   1.968   3.116   1.860  0.5098  0.2055  0.5040
    1SOL    HW2 4326   1.905   3.163   1.915  0.6723  0.5201  0.4228
    1SOL    HW3 4327   1.965   3.026   1.892 -1.0834 -0.1186 -0.4971
    1SOL    MW4 4328   1.959   3.110   1.872  0.3210  0.2038  0.3611
    1SOL     OW 4329   1.756   3.237   2.008 -0.1650  0.1208  0.1146
    1SOL    HW2 4330   1.736   3.248   2.101 -1.1788 -0.4700 -0.0352
    1SOL    HW3 4331   1.682   3.189   1.972  1.0452 -1.2103 -0.6514
    1SOL    MW4 4332   1.744   3.232   2.016 -0.1389 -0.1326 -0.0062
    1SOL     OW 4333   1.783   3.468   1.869 -0.3484  0.6118  0.6543
    1SOL    HW2 4334   1.762   3.387   1.915  0.5605  0.2795  0.4846
    1SOL    HW3 4335   1.703   3.520   1.875 -1.2354 -0.6562 -0.0268
    1SOL    MW4 4336   1.770   3.464   1.876 -0.3456  0.4005  0.5419
    1SOL     OW 4337   2.021   3.571   1.983 -0.1650 -0.1973 -0.1064
    1SOL    HW2 4338   2.010   3.663   1.957 -0.8754 -0.1280  0.4288
    1SOL    HW3 4339   1.942   3.527   1.951 -0.4263 -0.3682  0.7585
    1SOL    MW4 4340   2.009   3.578   1.975 -0.2933 -0.2108  0.0783
    1SOL     OW 4341   2.000   3.835   1.870  0.3255 -0.1099 -0.3536
    1SOL    HW2 4342   2.083   3.878   1.892  0.3992 -0.7484  0.6536
    1SOL    HW3 4343   1.991   3.848   1.776  0.9181  1.1012 -0.2614
    1SOL    MW4 4344   2.010   3.842   1.861  0.4132 -0.0341 -0.2085
    1SOL     OW 4345   1.780   3.986   1.946 -0.2407  0.0280 -0.0213
    1SOL    HW2 4346   1.786   4.080   1.929 -1.6748  0.0823 -0.2680
    1SOL    HW3 4347   1.859   3.950   1.906  0.2825  1.1128 -0.0020
    1SOL    MW4 4348   1.791   3.994   1.939 -0.3608  0.1783 -0.0513
    1SOL     OW 4349   1.782   4.267   1.863  0.1395 -0.2566 -0.2117
    1SOL    HW2 4350   1.711   4.309   1.912  0.1121 -1.0616  0.4543
    1SOL    HW3 4351   1.760   4.282   1.771 -1.2211 -1.0192 -0.0260
    1SOL    MW4 4352   1.770   4.275   1.857 -0.0435 -0.4635 -0.0993
    1SOL     OW 4353   2.007   4.387   1.993 -0.2959 -0.0844 -0.2468
    1SOL    HW2 4354   2.068   4.319   1.965 -0.1672 -0.2818  0.5124
    1SOL    HW3 4355   1.922   4.360   1.959 -0.4249 -1.1283  0.8824
    1SOL    MW4 4356   2.004   4.375   1.985 -0.2959 -0.2484  0.0023
    1SOL     OW 4357   2.456   4.604   1.867 -0.0809  0.3918  0.0097
    1SOL    HW2 4358   2.526   4.645   1.917  0.9667 -0.3068 -0.8728
    1SOL    HW3 4359   2.454   4.513   1.898  0.7795 -0.1271 -1.4236
    1SOL    MW4 4360   2.465   4.597   1.878  0.1707  0.2308 -0.2959
    1SOL     OW 4361   2.226   0.078   1.958 -0.3275 -0.1477 -0.4984
    1SOL    HW2 4362   2.232   0.102   2.051 -0.8894 -0.8902 -0.2595
    1SOL    HW3 4363   2.310   0.034   1.939 -0.9131 -1.5890  0.1468
    1SOL    MW4 4364   2.238   0.075   1.968 -0.4790 -0.4358 -0.3817
    1SOL     OW 4365   2.263   0.365   1.884 -0.0530 -0.2170  0.2087
    1SOL    HW2 4366   2.254   0.272   1.908  0.0606 -0.1376  0.5665
    1SOL    HW3 4367   2.190   0.408   1.929  0.0255 -0.1000  0.2224
    1SOL    MW4 4368   2.252   0.358   1.893 -0.0279 -0.1911  0.2577
    1SOL     OW 4369   2.490   0.497   1.968 -0.0423  0.1183 -0.3067
    1SOL    HW2 4370   2.558   0.448   1.921 -0.8489  0.2837 -1.6593
    1SOL    HW3 4371   2.409   0.449   1.949 -0.3790  0.1935  0.9084
    1SOL    MW4 4372   2.488   0.484   1.959 -0.1936  0.1501 -0.3248
    1SOL     OW 4373   2.452   0.761   1.877  0.1516  0.1122  0.5403
    1SOL    HW2 4374   2.465   0.673   1.912 -1.0385 -0.2689  0.0359
    1SOL    HW3 4375   2.447   0.749   1.782 -0.9441  0.6035  0.5278
    1SOL    MW4 4376   2.453   0.748   1.869 -0.1502  0.1268  0.4722
    1SOL     OW 4377   2.239   0.908   1.984  0.3208  0.5310  0.4569
    1SOL    HW2 4378   2.246   0.917   2.079 -0.8658  0.2172  0.5818
    1SOL    HW3 4379   2.316   0.858   1.958 -0.2628 -0.9031  1.4765
    1SOL    MW4 4380   2.250   0.903   1.993  0.0873  0.3005  0.6080
    1SOL     OW 4381   2.248   1.134   1.842  0.4393  0.1201  0.1455
    1SOL    HW2 4382   2.325   1.178   1.878 -0.2695  0.9216  0.7120
    1SOL    HW3 4383   2.237   1.056   1.897 -0.0627  0.8269  1.0596
    1SOL    MW4 4384   2.257   1.130   1.854  0.2797  0.3191  0.3409
    1SOL     OW 4385   2.439   1.278   1.974  0.1065 -0.3231  0.2049
    1SOL    HW2 4386   2.446   1.264   2.069  0.4283 -0.8361  0.1049
    1SOL    HW3 4387   2.467   1.369   1.962 -1.2353  0.1809  0.7527
    1SOL    MW4 4388   2.444   1.288   1.985 -0.0281 -0.3242  0.2640
    1SOL     OW 4389   2.483   1.542   1.885 -0.4074  0.4530 -0.0648
    1SOL    HW2 4390   2.396   1.566   1.919  0.1871  1.2541  0.9352
    1SOL    HW3 4391   2.473   1.545   1.790 -1.4211  0.7476  0.0370
    1SOL    MW4 4392   2.470   1.545   1.877 -0.4625  0.5976  0.0805
    1SOL     OW 4393   2.221   1.656   1.945 -0.1653 -0.3307  0.2587
    1SOL    HW2 4394   2.232   1.686   2.035  0.1355  0.0457  0.0982
    1SOL    HW3 4395   2.142   1.601   1.948 -0.0292 -0.5067  0.7928
    1SOL    MW4 4396   2.212   1.652   1.957 -0.1075 -0.3043  0.3079
    1SOL     OW 4397   2.215   1.916   1.840  0.1459 -0.0612  0.4970
    1SOL    HW2 4398   2.288   1.952   1.892  0.5099  0.4230 -0.3383
    1SOL    HW3 4399   2.218   1.822   1.858  1.0624 -0.0663  0.3860
    1SOL    MW4 4400   2.225   1.909   1.850  0.3150  0.0020  0.3721
    1SOL     OW 4401   2.437   2.058   1.953  0.2538 -0.6689  0.2301
    1SOL    HW2 4402   2.526   2.026   1.938  0.7455  1.0808 -0.8078
    1SOL    HW3 4403   2.442   2.152   1.932 -1.6019 -0.3507  1.1283
    1SOL    MW4 4404   2.449   2.066   1.948  0.0739 -0.3958  0.2117
    1SOL     OW 4405   2.458   2.330   1.913 -0.2716  0.3628 -0.0198
    1SOL    HW2 4406   2.528   2.391   1.936 -0.2486  0.1414  0.5005
    1SOL    HW3 4407   2.379   2.369   1.952 -0.4569  0.6523 -0.6692
    1SOL    MW4 4408   2.457   2.344   1.921 -0.2930  0.3719 -0.0368
    1SOL     OW 4409   2.233   2.453   1.984  0.0131 -0.3032 -0.0947
    1SOL    HW2 4410   2.228   2.458   2.080  1.4140  0.4081 -0.0401
    1SOL    HW3 4411   2.246   2.543   1.956  1.5345 -0.7233 -0.8134
    1SOL    MW4 4412   2.234   2.465   1.993  0.3986 -0.2649 -0.1823
    1SOL     OW 4413   2.230   2.703   1.893 -0.2886 -0.0630  0.4789
    1SOL    HW2 4414   2.151   2.749   1.921  0.2886  1.8009 -0.8617
    1SOL    HW3 4415   2.235   2.719   1.799  1.4355 -0.5659  0.4693
    1SOL    MW4 4416   2.220   2.711   1.884  0.0148  0.1168  0.3009
    1SOL     OW 4417   2.456   2.844   1.984 -0.0428 -0.3814 -0.1754
    1SOL    HW2 4418   2.475   2.933   1.954 -0.9597  0.2255  0.9871
    1SOL    HW3 4419   2.370   2.824   1.948  0.1709 -0.8041 -0.4496
    1SOL    MW4 4420   2.447   2.854   1.975 -0.1352 -0.3572 -0.0582
    1SOL     OW 4421   2.486   3.092   1.851  0.2042 -0.4317  0.0742
    1SOL    HW2 4422   2.404   3.138   1.870 -0.9546 -2.5020  0.2049
    1SOL    HW3 4423   2.492   3.094   1.755  0.4491  0.4543  0.1006
    1SOL    MW4 4424   2.476   3.099   1.841  0.0837 -0.5882  0.0947
    1SOL     OW 4425   2.239   3.207   1.941 -0.8288 -0.1314 -0.2754
    1SOL    HW2 4426   2.248   3.204   2.036  0.5461 -2.1321 -0.4516
    1SOL    HW3 4427   2.150   3.175   1.924 -0.8769 -0.3023  0.3046
    1SOL    MW4 4428   2.229   3.202   1.951 -0.6540 -0.4179 -0.2221
    1SOL     OW 4429   2.245   3.461   1.860 -0.1328 -0.4966 -0.3360
    1SOL    HW2 4430   2.247   3.367   1.879 -1.5035 -0.6613 -0.9180
    1SOL    HW3 4431   2.178   3.496   1.920  0.1587  0.0666 -0.3287
    1SOL    MW4 4432   2.236   3.453   1.870 -0.2754 -0.4439 -0.4117
    1SOL     OW 4433   2.454   3.607   1.935  0.0523  0.2541 -0.0330
    1SOL    HW2 4434   2.439   3.615   2.029  1.6490 -1.0968  0.3567
    1SOL    HW3 4435   2.386   3.547   1.904 -0.8565  1.1763  0.1202
    1SOL    MW4 4436   2.443   3.600   1.943  0.1433  0.1979  0.0385
    1SOL     OW 4437   2.485   3.884   1.910  0.2188  0.6327  0.0914
    1SOL    HW2 4438   2.397   3.918   1.921  0.5611  1.3755  0.5487
    1SOL    HW3 4439   2.474   3.789   1.917 -0.6753  0.6607 -0.8215
    1SOL    MW4 4440   2.472   3.876   1.913  0.1462  0.7341  0.0312
    1SOL     OW 4441   2.219   3.968   1.962 -0.6795 -0.3068  0.2885
    1SOL    HW2 4442   2.220   3.985   2.056 -0.6836  1.1342  0.0287
    1SOL    HW3 4443   2.228   4.054   1.921 -2.8789 -0.6646 -1.0557
    1SOL    MW4 4444   2.220   3.981   1.969 -0.9701 -0.1638  0.0769
    1SOL     OW 4445   2.203   4.221   1.855  0.0284 -0.0226 -0.3185
    1SOL    HW2 4446   2.277   4.269   1.891 -0.2060  0.3827 -0.3773
    1SOL    HW3 4447   2.207   4.237   1.761  0.9390 -1.4923 -0.5512
    1SOL    MW4 4448   2.213   4.229   1.847  0.1175 -0.1631 -0.3569
    1SOL     OW 4449   2.438   4.350   1.958  0.0239 -0.0902  0.2366
    1SOL    HW2 4450   2.446   4.366   2.052  0.4672 -1.0075  0.3575
    1SOL    HW3 4451   2.525   4.321   1.931  0.3433  1.7248 -0.7742
    1SOL    MW4 4452   2.450   4.348   1.967  0.1247  0.0286  0.1192
    1SOL     OW 4453   2.911   0.008   1.862  0.4210  0.1173 -0.3442
    1SOL    HW2 4454   2.990   0.042   1.904 -0.7877  0.4316  1.7403
    1SOL    HW3 4455   2.905  -0.083   1.892  0.1351  0.0030 -0.7401
    1SOL    MW4 4456   2.921   0.000   1.871  0.2239  0.1435 -0.1214
    1SOL     OW 4457   2.662   0.078   1.981 -0.3458  0.1114  0.1842
    1SOL    HW2 4458   2.665   0.080   2.077 -0.2678  0.3158  0.1782
    1SOL    HW3 4459   2.750   0.050   1.955 -0.5789 -0.6363  0.1899
    1SOL    MW4 4460   2.674   0.075   1.990 -0.3662  0.0397  0.1842
    1SOL     OW 4461   2.699   0.335   1.859 -0.3645  0.1444 -0.1342
    1SOL    HW2 4462   2.770   0.378   1.907 -2.0793  1.1821  1.5129
    1SOL    HW3 4463   2.680   0.256   1.910 -1.8308  0.9793  0.6519
    1SOL    MW4 4464   2.706   0.331   1.872 -0.7842  0.3915  0.1868
    1SOL     OW 4465   2.903   0.510   1.955 -0.0061 -0.6632 -0.0331
    1SOL    HW2 4466   2.977   0.456   1.930  0.1596 -0.1278 -0.7315
    1SOL    HW3 4467   2.925   0.597   1.922 -0.6417 -0.3568  0.3405
    1SOL    MW4 4468   2.916   0.515   1.947 -0.0682 -0.5521 -0.0758
    1SOL     OW 4469   2.936   0.777   1.867 -0.1421 -0.1933  0.2942
    1SOL    HW2 4470   3.009   0.813   1.917 -0.6449  0.2093  0.7462
    1SOL    HW3 4471   2.860   0.827   1.896 -0.7585 -1.2507  0.5205
    1SOL    MW4 4472   2.935   0.788   1.877 -0.2899 -0.2798  0.3836
    1SOL     OW 4473   2.708   0.900   1.943  0.3324  0.8999  0.4017
    1SOL    HW2 4474   2.703   0.994   1.930 -0.1471  1.2309  2.7006
    1SOL    HW3 4475   2.622   0.867   1.918  0.6616  0.9787 -0.8896
    1SOL    MW4 4476   2.696   0.908   1.938  0.3126  0.9539  0.5345
    1SOL     OW 4477   2.678   1.161   1.898  0.6949  0.1131  0.2654
    1SOL    HW2 4478   2.595   1.205   1.916  1.1761  1.2136 -0.1607
    1SOL    HW3 4479   2.684   1.160   1.803  1.5488  0.7720  0.3058
    1SOL    MW4 4480   2.668   1.167   1.888  0.8709  0.3451  0.2145
    1SOL     OW 4481   2.917   1.260   1.976 -0.4706 -0.0340  0.3058
    1SOL    HW2 4482   2.925   1.343   1.931 -0.0755 -0.2821 -0.0855
    1SOL    HW3 4483   2.829   1.229   1.954 -0.6693  0.3387  0.5635
    1SOL    MW4 4484   2.906   1.267   1.967 -0.4447 -0.0174  0.2881
    1SOL     OW 4485   2.909   1.512   1.850 -0.4726 -0.0041 -0.0232
    1SOL    HW2 4486   2.979   1.545   1.906 -0.9565  1.8072 -0.4624
    1SOL    HW3 4487   2.950   1.504   1.764 -0.7073  0.6977 -0.1994
    1SOL    MW4 4488   2.924   1.515   1.846 -0.5672  0.3276 -0.1044
    1SOL     OW 4489   2.714   1.682   1.949 -0.0368 -0.2713  0.0212
    1SOL    HW2 4490   2.781   1.627   1.908 -0.3992  0.1462 -1.1460
    1SOL    HW3 4491   2.631   1.639   1.926 -0.3985  1.4311 -1.9596
    1SOL    MW4 4492   2.712   1.669   1.941 -0.1326  0.0083 -0.3941
    1SOL     OW 4493   2.687   1.958   1.939  0.2260  0.1424  0.0427
    1SOL    HW2 4494   2.774   1.992   1.956  0.4149 -0.7581  0.8975
    1SOL    HW3 4495   2.698   1.863   1.937 -0.2640  0.0887 -2.4730
    1SOL    MW4 4496   2.700   1.950   1.941  0.1864  0.0165 -0.1764
    1SOL     OW 4497   2.927   2.071   1.996 -0.4607  0.6002 -0.0413
    1SOL    HW2 4498   2.930   2.069   2.091 -1.1450  1.0488 -0.0044
    1SOL    HW3 4499   2.992   2.006   1.968  0.9259  1.6569  0.7058
    1SOL    MW4 4500   2.936   2.062   2.005 -0.3679  0.7987  0.0625
    1SOL     OW 4501   2.884   2.319   1.879  0.4099  0.2361  0.0768
    1SOL    HW2 4502   2.967   2.363   1.898  0.3631 -0.1041  1.1164
    1SOL    HW3 4503   2.888   2.238   1.931 -1.0139  0.7208  0.9680
    1SOL    MW4 4504   2.895   2.314   1.888  0.2160  0.2549  0.3315
    1SOL     OW 4505   2.675   2.469   1.975  0.0082 -0.1937  0.9294
    1SOL    HW2 4506   2.675   2.553   1.928 -0.4297 -0.0185  1.2372
    1SOL    HW3 4507   2.740   2.416   1.929 -0.4695 -0.0520  0.0842
    1SOL    MW4 4508   2.684   2.473   1.963 -0.1125 -0.1519  0.8587
    1SOL     OW 4509   2.693   2.750   1.853 -0.5670  0.4836  0.1235
    1SOL    HW2 4510   2.606   2.775   1.883 -0.4741  0.3862  0.4800
    1SOL    HW3 4511   2.684   2.737   1.759 -1.2091 -0.7244  0.3435
    1SOL    MW4 4512   2.680   2.752   1.844 -0.6397  0.3111  0.1996
    1SOL     OW 4513   2.902   2.888   1.959 -0.7903 -0.6205  0.0612
    1SOL    HW2 4514   2.911   2.959   1.895  1.6919 -1.1804 -0.2487
    1SOL    HW3 4515   2.830   2.834   1.926 -1.3906  0.6521 -0.7313
    1SOL    MW4 4516   2.893   2.890   1.946 -0.5422 -0.5264 -0.0842
    1SOL     OW 4517   2.903   3.133   1.813  0.4679 -0.3378  0.3048
    1SOL    HW2 4518   2.976   3.180   1.852 -0.1973  0.0538  1.0995
    1SOL    HW3 4519   2.827   3.159   1.866 -0.0566 -1.5832  0.1785
    1SOL    MW4 4520   2.903   3.143   1.825  0.3109 -0.4504  0.3929
    1SOL     OW 4521   2.680   3.258   1.969 -0.2450  0.0146 -0.2096
    1SOL    HW2 4522   2.668   3.350   1.947 -1.3567 -0.3175 -0.9919
    1SOL    HW3 4523   2.602   3.214   1.936 -0.0457 -1.1125  0.7655
    1SOL    MW4 4524   2.668   3.264   1.962 -0.3653 -0.1779 -0.1842
    1SOL     OW 4525   2.698   3.503   1.872 -0.0184  0.4431 -0.0386
    1SOL    HW2 4526   2.763   3.568   1.899 -0.7991  0.1384  2.6959
    1SOL    HW3 4527   2.614   3.546   1.886 -0.4919 -0.2614 -0.6598
    1SOL    MW4 4528   2.696   3.517   1.878 -0.1838  0.3102  0.2402
    1SOL     OW 4529   2.924   3.618   1.921 -0.3505 -0.1975 -0.5755
    1SOL    HW2 4530   2.925   3.624   2.017  0.9048  0.7486 -0.6400
    1SOL    HW3 4531   3.004   3.571   1.899  0.3190  1.2369 -1.2610
    1SOL    MW4 4532   2.934   3.613   1.931 -0.0963  0.1166 -0.6745
    1SOL     OW 4533   2.950   3.881   1.830 -0.1102  0.0693  0.1139
    1SOL    HW2 4534   2.948   3.793   1.869 -1.8779  0.1957  0.3480
    1SOL    HW3 4535   2.954   3.865   1.736 -2.5603 -0.3073  0.0389
    1SOL    MW4 4536   2.950   3.867   1.823 -0.6666  0.0362  0.1349
    1SOL     OW 4537   2.725   4.012   2.006 -0.4773 -0.4445 -0.0340
    1SOL    HW2 4538   2.792   3.962   1.960 -1.0307 -2.3346  1.1419
    1SOL    HW3 4539   2.643   3.986   1.963 -0.4699  1.9555 -1.5564
    1SOL    MW4 4540   2.723   4.002   1.994 -0.5496 -0.3777 -0.0796
    1SOL     OW 4541   2.681   4.256   1.869 -0.0984  0.2431 -0.0291
    1SOL    HW2 4542   2.696   4.167   1.900 -0.2118 -0.0140 -0.7085
    1SOL    HW3 4543   2.707   4.254   1.777  0.2276  0.9990  0.0400
    1SOL    MW4 4544   2.687   4.244   1.861 -0.0703  0.3095 -0.1096
    1SOL     OW 4545   2.895   4.419   1.970  0.4390 -0.3641 -0.5583
    1SOL    HW2 4546   2.882   4.421   2.065  1.2678 -0.1876 -0.4388
    1SOL    HW3 4547   2.820   4.370   1.936  0.3946 -0.8555  0.2384
    1SOL    MW4 4548   2.884   4.413   1.978  0.5426 -0.4058 -0.4375
    1SOL     OW 4549   3.394   4.630   1.924  0.0221  0.3340  0.5705
    1SOL    HW2 4550   3.398   4.538   1.952 -0.3369  0.3474  0.6695
    1SOL    HW3 4551   3.388   4.626   1.829  0.1617  0.2610  0.5637
    1SOL    MW4 4552   3.394   4.617   1.915 -0.0069  0.3262  0.5827
    1SOL     OW 4553   3.156   0.118   1.976 -0.1892  0.3878 -0.2498
    1SOL    HW2 4554   3.147   0.118   2.072 -0.2769 -1.7679 -0.2438
    1SOL    HW3 4555   3.239   0.074   1.960  0.5942  2.1313 -1.1342
    1SOL    MW4 4556   3.166   0.112   1.987 -0.0975  0.3335 -0.3657
    1SOL     OW 4557   3.153   0.392   1.907  0.1609  0.5948  0.2974
    1SOL    HW2 4558   3.153   0.302   1.941  0.1358  0.8649  1.0371
    1SOL    HW3 4559   3.171   0.383   1.814  0.6380 -0.1504  0.4562
    1SOL    MW4 4560   3.155   0.379   1.899  0.2205  0.5322  0.4159
    1SOL     OW 4561   3.375   0.535   2.019 -0.3643 -0.3226  0.0338
    1SOL    HW2 4562   3.446   0.476   1.992 -0.6913 -0.0023 -1.6012
    1SOL    HW3 4563   3.295   0.492   1.988 -1.0922 -1.5509  3.4058
    1SOL    MW4 4564   3.374   0.522   2.011 -0.5033 -0.4424  0.2630
    1SOL     OW 4565   3.366   0.782   1.890 -0.1302 -0.2026  0.6807
    1SOL    HW2 4566   3.293   0.825   1.934 -0.4412 -1.1684  1.1258
    1SOL    HW3 4567   3.363   0.692   1.921  0.5778 -0.5246 -0.1573
    1SOL    MW4 4568   3.356   0.776   1.900 -0.0777 -0.3726  0.6287
    1SOL     OW 4569   3.154   0.889   2.003 -0.6697  0.0948 -0.1777
    1SOL    HW2 4570   3.158   0.907   2.097  3.1321  1.2070 -0.4659
    1SOL    HW3 4571   3.143   0.974   1.962 -2.1048 -0.3664 -0.8021
    1SOL    MW4 4572   3.153   0.902   2.010 -0.3576  0.1807 -0.2983
    1SOL     OW 4573   3.118   1.127   1.859  0.8563  0.4360  0.1104
    1SOL    HW2 4574   3.189   1.185   1.887  0.8072  0.0377  1.0865
    1SOL    HW3 4575   3.041   1.160   1.905  0.7739 -0.2426  0.4519
    1SOL    MW4 4576   3.117   1.139   1.869  0.8388  0.2939  0.2842
    1SOL     OW 4577   3.343   1.254   1.960 -0.0888  0.0480  0.6419
    1SOL    HW2 4578   3.337   1.251   2.056 -0.8935  0.1966  0.6058
    1SOL    HW3 4579   3.347   1.348   1.940  0.7602 -0.0072  0.5671
    1SOL    MW4 4580   3.343   1.266   1.970 -0.0830  0.0603  0.6275
    1SOL     OW 4581   3.358   1.526   1.857  0.1134  0.5402  0.0862
    1SOL    HW2 4582   3.430   1.579   1.893  0.5684  1.3801 -1.9369
    1SOL    HW3 4583   3.279   1.569   1.888  0.4607 -0.4732  2.4556
    1SOL    MW4 4584   3.357   1.539   1.866  0.2193  0.5174  0.1320
    1SOL     OW 4585   3.104   1.649   1.990 -0.0279  0.3367  0.2807
    1SOL    HW2 4586   3.110   1.654   2.085 -1.0039  2.2554  0.2834
    1SOL    HW3 4587   3.109   1.741   1.962 -2.9692  0.0580 -1.2907
    1SOL    MW4 4588   3.106   1.662   1.999 -0.5450  0.5533  0.0738
    1SOL     OW 4589   3.161   1.899   1.893 -0.1962  0.6135 -0.3579
    1SOL    HW2 4590   3.238   1.950   1.915 -0.8351  1.8033 -0.8223
    1SOL    HW3 4591   3.151   1.911   1.799 -0.0241 -0.8378 -0.5648
    1SOL    MW4 4592   3.169   1.907   1.884 -0.2575  0.5791 -0.4464
    1SOL     OW 4593   3.389   2.048   2.004  0.0812  0.2740  0.0212
    1SOL    HW2 4594   3.450   1.999   1.949  0.9763  1.5403 -0.1519
    1SOL    HW3 4595   3.379   2.132   1.959 -2.4068 -0.2059 -0.3509
    1SOL    MW4 4596   3.396   2.053   1.991 -0.1292  0.3777 -0.0507
    1SOL     OW 4597   3.357   2.302   1.905 -0.4167 -0.0889 -0.2257
    1SOL    HW2 4598   3.276   2.333   1.944 -0.5579 -1.9410  0.9841
    1SOL    HW3 4599   3.342   2.309   1.810 -1.1921  1.5478  0.0040
    1SOL    MW4 4600   3.344   2.307   1.897 -0.5376 -0.1173 -0.0358
    1SOL     OW 4601   3.127   2.431   1.985  0.1805  0.1334 -1.2387
    1SOL    HW2 4602   3.147   2.435   2.078 -0.4302  0.4086 -1.1152
    1SOL    HW3 4603   3.150   2.518   1.952 -0.4324  0.3230 -1.1713
    1SOL    MW4 4604   3.133   2.443   1.993  0.0188  0.1948 -1.2136
    1SOL     OW 4605   3.152   2.724   1.906  0.1665  0.1772 -0.4186
    1SOL    HW2 4606   3.080   2.786   1.922 -0.0104  0.4900 -2.3304
    1SOL    HW3 4607   3.152   2.711   1.811  0.8497 -2.0100 -0.1458
    1SOL    MW4 4608   3.143   2.731   1.896  0.2334 -0.0699 -0.6347
    1SOL     OW 4609   3.386   2.822   2.006 -0.5915 -0.1557 -0.3527
    1SOL    HW2 4610   3.387   2.847   2.098 -0.4237  0.4502 -0.5156
    1SOL    HW3 4611   3.296   2.795   1.989 -1.0199  1.2891 -0.4187
    1SOL    MW4 4612   3.374   2.822   2.016 -0.6258  0.1149 -0.3831
    1SOL     OW 4613   3.370   3.082   1.895 -0.3697 -0.2748  0.2030
    1SOL    HW2 4614   3.435   3.135   1.939 -0.8938  1.2590 -0.8354
    1SOL    HW3 4615   3.389   2.992   1.923  0.9272  0.3764  1.4513
    1SOL    MW4 4616   3.381   3.077   1.904 -0.2680  0.0138  0.2308
    1SOL     OW 4617   3.114   3.203   1.976 -0.0569 -0.6500 -0.0245
    1SOL    HW2 4618   3.094   3.211   2.069  1.3284 -0.3682  0.2559
    1SOL    HW3 4619   3.189   3.143   1.973 -0.2207 -0.8139 -0.9686
    1SOL    MW4 4620   3.121   3.196   1.988  0.1047 -0.6344 -0.1121
    1SOL     OW 4621   3.146   3.451   1.859 -0.4671  0.1018  0.4205
    1SOL    HW2 4622   3.149   3.359   1.885 -0.7998 -0.2019 -0.5866
    1SOL    HW3 4623   3.219   3.492   1.905 -0.1090 -0.7386  0.6048
    1SOL    MW4 4624   3.156   3.445   1.869 -0.4637 -0.0494  0.3119
    1SOL     OW 4625   3.326   3.602   1.997  0.1225 -0.3988 -0.6201
    1SOL    HW2 4626   3.403   3.568   1.951 -0.2181 -0.1253 -1.3938
    1SOL    HW3 4627   3.321   3.694   1.972  1.5927  0.4939  2.2267
    1SOL    MW4 4628   3.335   3.609   1.988  0.2718 -0.2449 -0.3468
    1SOL     OW 4629   3.348   3.838   1.871  0.6222  0.3085 -0.2163
    1SOL    HW2 4630   3.283   3.904   1.895 -0.5322 -1.1562  0.7596
    1SOL    HW3 4631   3.336   3.826   1.776 -1.6716 -1.1337  0.2249
    1SOL    MW4 4632   3.338   3.845   1.861  0.1669 -0.0749 -0.0293
    1SOL     OW 4633   3.142   4.021   1.971 -0.0703 -0.1242  0.3288
    1SOL    HW2 4634   3.113   4.019   2.062 -1.8366 -0.5027 -0.2303
    1SOL    HW3 4635   3.078   3.968   1.924 -1.1279  2.8157 -1.6922
    1SOL    MW4 4636   3.130   4.014   1.977 -0.4430  0.2141 -0.0116
    1SOL     OW 4637   3.112   4.285   1.861  0.3240  0.5545  0.9553
    1SOL    HW2 4638   3.115   4.196   1.897  0.6655  0.3599  0.4502
    1SOL    HW3 4639   3.037   4.325   1.904 -0.2236 -0.1841  0.7102
    1SOL    MW4 4640   3.102   4.278   1.872  0.2968  0.4311  0.8563
    1SOL     OW 4641   3.351   4.360   1.958 -0.3953 -0.0881 -0.5936
    1SOL    HW2 4642   3.418   4.316   1.906 -0.4889 -0.0282 -0.7650
    1SOL    HW3 4643   3.268   4.331   1.919 -0.5157 -1.3732  0.5776
    1SOL    MW4 4644   3.349   4.350   1.946 -0.4237 -0.2494 -0.4617
    1SOL     OW 4645   3.821   4.643   1.888 -0.3320 -0.0277  0.4612
    1SOL    HW2 4646   3.818   4.559   1.933  1.8402  0.4018  1.5032
    1SOL    HW3 4647   3.771   4.702   1.944 -0.4114 -0.2467  0.6209
    1SOL    MW4 4648   3.814   4.640   1.901 -0.0560 -0.0005  0.6198
    1SOL     OW 4649   3.622   0.116   2.025 -0.0936  0.5018  0.1832
    1SOL    HW2 4650   3.601   0.108   2.118  1.9963 -2.2883  0.4716
    1SOL    HW3 4651   3.550   0.070   1.981 -1.5121  2.5239  0.3282
    1SOL    MW4 4652   3.609   0.109   2.031 -0.0050  0.4005  0.2403
    1SOL     OW 4653   3.578   0.380   1.930 -0.0639 -0.0485  0.0698
    1SOL    HW2 4654   3.588   0.297   1.976  0.4674  0.5599  1.0712
    1SOL    HW3 4655   3.558   0.355   1.839  2.0508 -1.2722 -0.0927
    1SOL    MW4 4656   3.577   0.366   1.924  0.2854 -0.1297  0.1805
    1SOL     OW 4657   3.808   0.513   2.011 -0.2900 -0.2646  0.6840
    1SOL    HW2 4658   3.809   0.603   1.978 -0.2580 -0.6975 -0.5111
    1SOL    HW3 4659   3.725   0.477   1.981 -0.4594 -0.5245  1.4652
    1SOL    MW4 4660   3.797   0.520   2.002 -0.3083 -0.3561  0.6294
    1SOL     OW 4661   3.851   0.758   1.905  0.1222 -0.0591  0.0504
    1SOL    HW2 4662   3.766   0.800   1.921 -0.2938 -0.9860  0.2945
    1SOL    HW3 4663   3.857   0.752   1.810 -1.9303 -3.6567  0.0670
    1SOL    MW4 4664   3.840   0.763   1.895 -0.2034 -0.6561  0.0846
    1SOL     OW 4665   3.611   0.900   1.987 -0.0381 -0.4103 -0.4767
    1SOL    HW2 4666   3.613   0.985   1.943  2.3455 -0.3000 -0.2130
    1SOL    HW3 4667   3.535   0.855   1.949  0.1258  0.8904 -2.3833
    1SOL    MW4 4668   3.601   0.905   1.976  0.2980 -0.2242 -0.6934
    1SOL     OW 4669   3.584   1.140   1.875 -0.0014 -0.0855  0.0112
    1SOL    HW2 4670   3.500   1.177   1.901  0.8075  0.8229  1.4301
    1SOL    HW3 4671   3.578   1.131   1.780 -1.4663  0.5597  0.0293
    1SOL    MW4 4672   3.572   1.144   1.866 -0.0880  0.1196  0.2007
    1SOL     OW 4673   3.811   1.286   1.968  0.0534  0.1602 -0.0015
    1SOL    HW2 4674   3.821   1.277   2.063 -0.6994  2.4165  0.3336
    1SOL    HW3 4675   3.736   1.231   1.947  0.1188 -0.2285  0.7351
    1SOL    MW4 4676   3.802   1.278   1.978 -0.0372  0.4067  0.1400
    1SOL     OW 4677   3.809   1.544   1.853  0.2390 -0.3442 -0.4831
    1SOL    HW2 4678   3.886   1.580   1.896 -0.1760 -0.2468  0.1827
    1SOL    HW3 4679   3.801   1.455   1.887  0.8819 -0.8516 -1.6323
    1SOL    MW4 4680   3.818   1.537   1.863  0.2692 -0.3984 -0.5468
    1SOL     OW 4681   3.590   1.675   1.922  0.3585  0.6385 -0.2910
    1SOL    HW2 4682   3.599   1.765   1.889 -0.6401  0.0507 -2.2779
    1SOL    HW3 4683   3.661   1.627   1.879 -0.6743 -0.0481 -1.2429
    1SOL    MW4 4684   3.601   1.680   1.912  0.0906  0.4704 -0.6788
    1SOL     OW 4685   3.599   1.937   1.860  0.1032 -0.1598 -0.1226
    1SOL    HW2 4686   3.676   1.969   1.906 -0.3192  0.1704  0.3488
    1SOL    HW3 4687   3.615   1.959   1.768  0.6341 -0.2272 -0.0501
    1SOL    MW4 4688   3.611   1.944   1.854  0.1178 -0.1251 -0.0509
    1SOL     OW 4689   3.823   2.042   1.973  0.3334  0.1088 -0.0157
    1SOL    HW2 4690   3.911   2.006   1.964  0.2146 -0.4408  0.9674
    1SOL    HW3 4691   3.828   2.130   1.934  1.1295 -0.1895 -0.5926
    1SOL    MW4 4692   3.835   2.049   1.967  0.4225 -0.0029  0.0378
    1SOL     OW 4693   3.821   2.302   1.889 -0.5805  0.4586  0.7585
    1SOL    HW2 4694   3.896   2.348   1.927 -1.2367  1.7324  0.5503
    1SOL    HW3 4695   3.745   2.337   1.935 -1.1513  0.0744  0.1269
    1SOL    MW4 4696   3.821   2.313   1.900 -0.7424  0.5760  0.6477
    1SOL     OW 4697   3.588   2.447   2.017  0.2296  0.2441 -0.1900
    1SOL    HW2 4698   3.581   2.527   1.963 -1.3178  0.1479 -0.1604
    1SOL    HW3 4699   3.506   2.401   2.001  0.2307 -0.3349  1.4080
    1SOL    MW4 4700   3.576   2.452   2.008  0.0253  0.1550  0.0248
    1SOL     OW 4701   3.606   2.681   1.850 -0.0021  0.1020  0.0771
    1SOL    HW2 4702   3.692   2.718   1.870 -0.2283  1.5420 -1.4995
    1SOL    HW3 4703   3.544   2.737   1.897 -0.1466 -0.2382  0.2924
    1SOL    MW4 4704   3.609   2.693   1.859 -0.0510  0.2475 -0.1026
    1SOL     OW 4705   3.825   2.811   1.944  0.4878 -0.1684  0.7571
    1SOL    HW2 4706   3.824   2.832   2.037 -0.3088 -0.3870  0.8021
    1SOL    HW3 4707   3.814   2.895   1.901  0.5023 -0.1081  0.8700
    1SOL    MW4 4708   3.823   2.825   1.951  0.3848 -0.1893  0.7780
    1SOL     OW 4709   3.784   3.071   1.876  0.2756 -0.0302  0.0687
    1SOL    HW2 4710   3.713   3.119   1.918  0.0728 -0.5820  0.3704
    1SOL    HW3 4711   3.766   3.076   1.782 -0.0460  0.0028  0.1344
    1SOL    MW4 4712   3.772   3.078   1.869  0.2065 -0.0985  0.1173
    1SOL     OW 4713   3.597   3.238   1.980  0.7727 -0.5852 -0.3013
    1SOL    HW2 4714   3.586   3.238   2.075  0.1777 -1.0552 -0.3713
    1SOL    HW3 4715   3.591   3.330   1.955 -0.4960 -0.6051 -0.0558
    1SOL    MW4 4716   3.595   3.250   1.989  0.5267 -0.6499 -0.2781
    1SOL     OW 4717   3.566   3.515   1.893 -0.2089 -0.4035 -0.2339
    1SOL    HW2 4718   3.642   3.549   1.940 -0.7302  0.0638  0.2788
    1SOL    HW3 4719   3.595   3.510   1.802  0.4800 -0.3530 -0.0219
    1SOL    MW4 4720   3.580   3.519   1.887 -0.1867 -0.3355 -0.1384
    1SOL     OW 4721   3.829   3.573   1.993 -0.2054  0.1236 -0.2162
    1SOL    HW2 4722   3.912   3.535   1.964  0.1987  0.7607  0.0725
    1SOL    HW3 4723   3.824   3.656   1.946 -0.2656  0.4735  0.3975
    1SOL    MW4 4724   3.840   3.579   1.983 -0.1600  0.2542 -0.0972
    1SOL     OW 4725   3.812   3.832   1.844  0.1346 -0.0025  0.0152
    1SOL    HW2 4726   3.737   3.881   1.875 -0.6163 -0.5276 -0.9280
    1SOL    HW3 4727   3.806   3.836   1.749  0.1344 -1.7825 -0.0833
    1SOL    MW4 4728   3.802   3.839   1.836  0.0355 -0.3066 -0.1223
    1SOL     OW 4729   3.579   3.986   1.930 -0.0914 -0.4404  0.5840
    1SOL    HW2 4730   3.563   3.984   2.024 -0.2203 -1.0024  0.5555
    1SOL    HW3 4731   3.502   3.943   1.892 -0.0619 -0.1725  0.2226
    1SOL    MW4 4732   3.567   3.980   1.937 -0.1044 -0.4792  0.5324
    1SOL     OW 4733   3.574   4.237   1.832 -0.3933  0.2580  0.2373
    1SOL    HW2 4734   3.646   4.285   1.873 -1.2786  0.5362  1.4882
    1SOL    HW3 4735   3.578   4.150   1.872  0.2806 -0.2556 -0.9290
    1SOL    MW4 4736   3.584   4.232   1.843 -0.4213  0.2265  0.2486
    1SOL     OW 4737   3.800   4.348   1.948  0.0484  0.0074  0.4877
    1SOL    HW2 4738   3.787   4.337   2.042  1.1750  1.7329  0.8618
    1SOL    HW3 4739   3.880   4.299   1.928 -0.4393 -0.7289  0.3514
    1SOL    MW4 4740   3.809   4.340   1.958  0.1326  0.1378  0.5189
    1SOL     OW 4741   4.263   4.594   1.880  0.2952 -0.1560 -0.0966
    1SOL    HW2 4742   4.200   4.661   1.909 -0.4192  0.3122 -2.6207
    1SOL    HW3 4743   4.348   4.628   1.910 -0.1598  1.4318 -0.5382
    1SOL    MW4 4744   4.266   4.608   1.888  0.1407  0.1149 -0.4878
    1SOL     OW 4745   4.065   0.103   1.955 -0.3643 -0.1141  0.1789
    1SOL    HW2 4746   4.058   0.093   2.050 -0.3331  0.7457  0.2755
    1SOL    HW3 4747   3.986   0.062   1.920  0.8955 -2.8469  0.4045
    1SOL    MW4 4748   4.054   0.096   1.963 -0.1936 -0.3612  0.2214
    1SOL     OW 4749   4.038   0.382   1.903  0.2767 -0.1418 -0.5300
    1SOL    HW2 4750   4.050   0.296   1.942 -0.1412 -0.7266 -1.6717
    1SOL    HW3 4751   3.954   0.412   1.937  0.9280  0.2927  0.7275
    1SOL    MW4 4752   4.029   0.375   1.913  0.3080 -0.1617 -0.5147
    1SOL     OW 4753   4.295   0.478   1.991  0.1828 -0.1894 -0.2878
    1SOL    HW2 4754   4.277   0.472   2.085  0.8143  2.8881  0.0787
    1SOL    HW3 4755   4.215   0.446   1.949 -0.7126 -0.0972  1.3170
    1SOL    MW4 4756   4.282   0.473   1.998  0.1483  0.2288 -0.0277
    1SOL     OW 4757   4.305   0.757   1.917 -0.0178  0.2118  0.1824
    1SOL    HW2 4758   4.290   0.667   1.944  1.2809  0.0503  0.3981
    1SOL    HW3 4759   4.290   0.756   1.822 -1.3287  0.0697  0.3880
    1SOL    MW4 4760   4.301   0.745   1.908 -0.0196  0.1717  0.2382
    1SOL     OW 4761   4.072   0.896   2.015 -0.1039 -0.6117  0.3264
    1SOL    HW2 4762   4.159   0.868   1.985 -0.2658 -0.9961  0.2141
    1SOL    HW3 4763   4.011   0.839   1.969 -0.3817 -0.8751  1.0121
    1SOL    MW4 4764   4.076   0.885   2.005 -0.1616 -0.6971  0.4020
    1SOL     OW 4765   4.016   1.135   1.892 -0.3441  0.0768 -0.1027
    1SOL    HW2 4766   4.021   1.057   1.947 -0.2367 -0.5311 -0.9552
    1SOL    HW3 4767   3.944   1.185   1.929 -2.7451 -2.0984 -1.5833
    1SOL    MW4 4768   4.007   1.131   1.904 -0.6471 -0.2904 -0.4106
    1SOL     OW 4769   4.225   1.294   1.956  0.2756  0.1024 -0.2764
    1SOL    HW2 4770   4.254   1.268   2.043  0.9868 -0.6306 -0.7263
    1SOL    HW3 4771   4.145   1.243   1.941 -0.7603  1.4325  0.5860
    1SOL    MW4 4772   4.218   1.284   1.965  0.2327  0.1811 -0.2218
    1SOL     OW 4773   4.262   1.559   1.883 -0.3637  0.0205 -0.4026
    1SOL    HW2 4774   4.266   1.467   1.909 -0.0351  0.1404 -0.0250
    1SOL    HW3 4775   4.257   1.557   1.787 -0.0063 -0.3795 -0.4117
    1SOL    MW4 4776   4.262   1.547   1.873 -0.2737 -0.0165 -0.3539
    1SOL     OW 4777   4.032   1.671   1.966  0.1707 -0.0243 -0.1927
    1SOL    HW2 4778   4.032   1.659   2.060 -0.3062 -0.1245 -0.2049
    1SOL    HW3 4779   4.114   1.631   1.936 -0.9811 -2.4954 -0.1390
    1SOL    MW4 4780   4.043   1.664   1.974 -0.0443 -0.3636 -0.1873
    1SOL     OW 4781   4.076   1.925   1.883 -0.2832 -0.1558  0.1835
    1SOL    HW2 4782   4.068   1.836   1.917 -1.2151 -0.0633  0.2100
    1SOL    HW3 4783   4.059   1.916   1.789  2.2136 -0.4004 -0.2756
    1SOL    MW4 4784   4.073   1.912   1.875 -0.0768 -0.1760  0.1265
    1SOL     OW 4785   4.304   2.009   2.020 -0.3324 -0.4707  0.5786
    1SOL    HW2 4786   4.291   2.011   2.114 -1.7035 -0.8023  0.3984
    1SOL    HW3 4787   4.219   1.984   1.984  0.2598 -0.6499 -0.7248
    1SOL    MW4 4788   4.291   2.006   2.027 -0.4354 -0.5381  0.3829
    1SOL     OW 4789   4.264   2.254   1.911  0.4607  0.2165 -0.0448
    1SOL    HW2 4790   4.303   2.182   1.961  1.5075 -0.0736 -1.2474
    1SOL    HW3 4791   4.326   2.326   1.920  0.0614  0.5465  0.0645
    1SOL    MW4 4792   4.277   2.254   1.918  0.5455  0.2217 -0.1891
    1SOL     OW 4793   4.060   2.416   1.968 -0.4834 -0.0108 -0.0363
    1SOL    HW2 4794   4.052   2.419   2.063  0.2355 -0.2930  0.0369
    1SOL    HW3 4795   4.132   2.355   1.951  0.5592  1.3638 -0.6833
    1SOL    MW4 4796   4.069   2.409   1.978 -0.2513  0.1335 -0.1119
    1SOL     OW 4797   4.075   2.684   1.870  0.0418  0.4901 -0.1376
    1SOL    HW2 4798   4.072   2.600   1.916  1.0009 -0.2935 -1.4608
    1SOL    HW3 4799   3.991   2.725   1.890 -0.3076 -0.6282  0.7942
    1SOL    MW4 4800   4.064   2.678   1.879  0.1221  0.2389 -0.1893
    1SOL     OW 4801   4.290   2.839   1.974 -0.1710 -0.4332  0.2640
    1SOL    HW2 4802   4.286   2.826   2.069  0.9544 -1.0274  0.2287
    1SOL    HW3 4803   4.239   2.766   1.938  0.0673 -0.6557  0.3762
    1SOL    MW4 4804   4.283   2.828   1.982  0.0086 -0.5410  0.2741
    1SOL     OW 4805   4.233   3.084   1.878  0.2703 -0.1519 -0.2790
    1SOL    HW2 4806   4.148   3.114   1.909  0.7034  0.0334  0.7568
    1SOL    HW3 4807   4.239   2.993   1.907  1.3174  0.4816  1.5616
    1SOL    MW4 4808   4.223   3.076   1.886  0.4654 -0.0441  0.1004
    1SOL     OW 4809   4.005   3.227   1.951 -0.1025  0.2383  0.1057
    1SOL    HW2 4810   4.011   3.227   2.047  0.7629  1.6853  0.0685
    1SOL    HW3 4811   3.917   3.194   1.932 -0.2260 -0.2026  1.3900
    1SOL    MW4 4812   3.994   3.222   1.961 -0.0050  0.3710  0.2702
    1SOL     OW 4813   4.049   3.473   1.837  0.1883 -0.3968  0.2750
    1SOL    HW2 4814   4.129   3.494   1.885  0.1660 -2.1634  1.1490
    1SOL    HW3 4815   4.032   3.381   1.859 -1.2685 -0.4644 -1.0698
    1SOL    MW4 4816   4.057   3.463   1.847 -0.0067 -0.6390  0.2130
    1SOL     OW 4817   4.291   3.591   1.982  0.0432  0.0526 -0.3434
    1SOL    HW2 4818   4.280   3.670   1.929  0.3396 -0.9248 -1.9003
    1SOL    HW3 4819   4.364   3.544   1.942 -0.9486 -1.6395 -0.2650
    1SOL    MW4 4820   4.299   3.595   1.969 -0.0486 -0.2997 -0.5385
    1SOL     OW 4821   4.266   3.817   1.834 -0.0778 -0.3558 -0.7066
    1SOL    HW2 4822   4.338   3.878   1.849 -1.1433  0.8155 -0.2004
    1SOL    HW3 4823   4.255   3.816   1.739  0.1294  0.0447 -0.7365
    1SOL    MW4 4824   4.274   3.825   1.823 -0.1907 -0.1483 -0.6437
    1SOL     OW 4825   4.059   3.947   1.956 -0.5778 -0.0716 -0.1501
    1SOL    HW2 4826   4.125   3.889   1.918 -0.7866 -0.4124  0.0110
    1SOL    HW3 4827   3.976   3.917   1.919 -0.5811  0.7060 -0.7823
    1SOL    MW4 4828   4.057   3.936   1.946 -0.6056 -0.0141 -0.2122
    1SOL     OW 4829   4.021   4.200   1.857 -0.3808  0.3526  0.2651
    1SOL    HW2 4830   4.092   4.245   1.904  0.3904 -0.1027 -0.4391
    1SOL    HW3 4831   4.041   4.107   1.868 -0.1107  0.2451 -1.0584
    1SOL    MW4 4832   4.033   4.194   1.864 -0.2437  0.2785 -0.0025
    1SOL     OW 4833   4.248   4.321   1.967 -0.2089 -0.2725 -0.3413
    1SOL    HW2 4834   4.247   4.300   2.060 -0.8302  0.8865 -0.0856
    1SOL    HW3 4835   4.233   4.415   1.963 -0.3378 -0.3405 -1.6203
    1SOL    MW4 4836   4.246   4.331   1.979 -0.3076 -0.1283 -0.4764
    1SOL     OW 4837   0.211   4.604   2.353  0.1798  0.2089 -0.0059
    1SOL    HW2 4838   0.217   4.623   2.446  1.5086 -0.1415 -0.0066
    1SOL    HW3 4839   0.281   4.656   2.314  0.6653 -0.8803 -0.6069
    1SOL    MW4 4840   0.221   4.614   2.360  0.4192  0.0191 -0.0858
    1SOL     OW 4841   4.479   0.084   2.268  0.0340  0.2467 -0.0947
    1SOL    HW2 4842   4.557   0.039   2.300  0.4522 -0.0720 -1.5087
    1SOL    HW3 4843   4.474   0.061   2.175 -3.0984 -1.6846  0.4717
    1SOL    MW4 4844   4.488   0.075   2.260 -0.3238 -0.0501 -0.2065
    1SOL     OW 4845   4.479   0.369   2.338 -0.4730 -0.1205  0.0935
    1SOL    HW2 4846   4.562   0.408   2.309 -0.2035 -0.2413  0.7025
    1SOL    HW3 4847   4.483   0.279   2.308 -0.0424 -0.3411  0.8018
    1SOL    MW4 4848   4.491   0.362   2.330 -0.3810 -0.1656  0.2673
    1SOL     OW 4849   0.238   0.493   2.255  0.3087  0.7466 -0.0181
    1SOL    HW2 4850   0.311   0.442   2.290 -0.4079 -0.2661  0.0251
    1SOL    HW3 4851   0.247   0.485   2.160  1.1367  1.8994 -0.0468
    1SOL    MW4 4852   0.249   0.485   2.247  0.3234  0.7651 -0.0165
    1SOL     OW 4853   0.172   0.728   2.365 -0.3522  0.0872  0.0890
    1SOL    HW2 4854   0.185   0.708   2.458  2.0716  0.6995 -0.0960
    1SOL    HW3 4855   0.182   0.643   2.322 -0.2380  0.0096  0.2645
    1SOL    MW4 4856   0.175   0.714   2.372 -0.0173  0.1578  0.0877
    1SOL     OW 4857   4.471   0.898   2.281  0.0675  0.6949  0.2448
    1SOL    HW2 4858   4.538   0.843   2.320  2.3339  3.1594  0.0101
    1SOL    HW3 4859   4.496   0.904   2.188 -1.0262  0.8393 -0.0455
    1SOL    MW4 4860   4.483   0.892   2.274  0.2222  1.0391  0.1757
    1SOL     OW 4861   0.020   1.148   2.379  0.6170 -0.0846  0.3344
    1SOL    HW2 4862   0.000   1.142   2.473  0.6718 -1.7203  0.2585
    1SOL    HW3 4863   0.012   1.058   2.348  0.1945  0.5137 -1.3210
    1SOL    MW4 4864   0.016   1.135   2.388  0.5685 -0.2215  0.1061
    1SOL     OW 4865   0.221   1.257   2.229  0.0125  0.0289 -0.3288
    1SOL    HW2 4866   0.157   1.206   2.278  0.7023 -1.6771 -1.1654
    1SOL    HW3 4867   0.206   1.233   2.137 -0.1554  1.9131 -0.8122
    1SOL    MW4 4868   0.211   1.247   2.223  0.0814  0.0526 -0.5031
    1SOL     OW 4869   0.241   1.514   2.346  0.5087 -0.0096  0.0777
    1SOL    HW2 4870   0.230   1.501   2.440 -0.7248  0.3272 -0.0116
    1SOL    HW3 4871   0.236   1.425   2.309  1.6309 -0.2056  0.3828
    1SOL    MW4 4872   0.239   1.500   2.353  0.4940  0.0091  0.1063
    1SOL     OW 4873   0.004   1.649   2.248  0.3229  0.0531 -0.5624
    1SOL    HW2 4874   0.011   1.731   2.297  0.6325  0.0941 -0.6705
    1SOL    HW3 4875   0.079   1.597   2.278 -0.3290 -0.5037  0.0923
    1SOL    MW4 4876   0.015   1.653   2.258  0.2785 -0.0149 -0.4902
    1SOL     OW 4877   4.486   1.921   2.369  0.1865 -0.1727 -0.2482
    1SOL    HW2 4878   4.403   1.952   2.331 -0.0478 -0.6104 -0.0960
    1SOL    HW3 4879   4.553   1.969   2.321 -0.1082 -0.7009 -1.2162
    1SOL    MW4 4880   4.484   1.932   2.358  0.1168 -0.3002 -0.3555
    1SOL     OW 4881   0.238   2.022   2.271  0.1057 -0.0249 -0.1145
    1SOL    HW2 4882   0.302   1.960   2.307 -1.2169 -1.1945  0.2588
    1SOL    HW3 4883   0.242   2.007   2.176  1.2240  0.7357 -0.1935
    1SOL    MW4 4884   0.247   2.012   2.263  0.0788 -0.0789 -0.0758
    1SOL     OW 4885   0.218   2.306   2.332 -0.5910  0.4792  0.3697
    1SOL    HW2 4886   0.207   2.287   2.425 -0.4953 -0.6555  0.1532
    1SOL    HW3 4887   0.240   2.222   2.292 -1.9411  0.6917 -0.8880
    1SOL    MW4 4888   0.219   2.292   2.339 -0.7565  0.3576  0.1752
    1SOL     OW 4889   0.002   2.438   2.221 -0.3685 -0.0007  0.1438
    1SOL    HW2 4890   0.007   2.526   2.258  0.3778 -0.1494  0.4071
    1SOL    HW3 4891   0.078   2.393   2.257 -1.1122 -0.9533  0.5265
    1SOL    MW4 4892   0.013   2.444   2.230 -0.3681 -0.1462  0.2291
    1SOL     OW 4893   4.488   2.690   2.329 -0.1609 -0.2328 -0.4754
    1SOL    HW2 4894   4.491   2.688   2.425  0.0352  1.5461 -0.4349
    1SOL    HW3 4895   4.572   2.727   2.303 -0.9562  1.0422 -1.2613
    1SOL    MW4 4896   4.499   2.694   2.338 -0.2399  0.1698 -0.5739
    1SOL     OW 4897   0.222   2.844   2.247  0.1482  0.0627  0.0610
    1SOL    HW2 4898   0.289   2.784   2.281  1.8121  1.2914 -0.9986
    1SOL    HW3 4899   0.230   2.838   2.152 -1.2501  0.2405 -0.0783
    1SOL    MW4 4900   0.232   2.835   2.239  0.1832  0.2480 -0.0970
    1SOL     OW 4901   0.198   3.124   2.342  0.0404 -0.2169  0.1591
    1SOL    HW2 4902   0.113   3.158   2.316  0.1524 -0.5230 -0.6415
    1SOL    HW3 4903   0.195   3.031   2.318  0.4584 -0.3161  0.4744
    1SOL    MW4 4904   0.187   3.116   2.335  0.1103 -0.2704  0.0951
    1SOL     OW 4905   4.443   3.198   2.252  0.2558 -0.1754  0.0239
    1SOL    HW2 4906   4.459   3.287   2.284  0.9665 -0.4562  0.4699
    1SOL    HW3 4907   4.482   3.196   2.165  0.0903  0.0052 -0.0524
    1SOL    MW4 4908   4.450   3.209   2.245  0.3281 -0.1886  0.0725
    1SOL     OW 4909   4.478   3.466   2.318 -0.2086 -0.2590  0.2590
    1SOL    HW2 4910   4.471   3.463   2.413 -0.6900  0.1986  0.2359
    1SOL    HW3 4911   4.410   3.526   2.290  0.4619  0.2361 -0.3258
    1SOL    MW4 4912   4.468   3.473   2.327 -0.1836 -0.1335  0.1786
    1SOL     OW 4913   0.220   3.565   2.212 -0.0562  0.1315 -0.0712
    1SOL    HW2 4914   0.299   3.536   2.256  0.3794 -0.2623 -1.1102
    1SOL    HW3 4915   0.148   3.525   2.261  0.3180  1.5298  1.6646
    1SOL    MW4 4916   0.221   3.556   2.224  0.0506  0.2639  0.0207
    1SOL     OW 4917   0.202   3.835   2.312  0.2991 -0.7545  0.5962
    1SOL    HW2 4918   0.124   3.866   2.266  0.7579 -0.6107 -0.0911
    1SOL    HW3 4919   0.218   3.747   2.276  1.1766 -0.2891 -0.1760
    1SOL    MW4 4920   0.194   3.827   2.301  0.4754 -0.6740  0.4039
    1SOL     OW 4921   4.461   3.951   2.203 -0.2363  0.2090 -0.0115
    1SOL    HW2 4922   4.482   4.039   2.234  4.0590 -0.6676 -0.1563
    1SOL    HW3 4923   4.451   3.961   2.108 -1.8750  0.8681  0.2124
    1SOL    MW4 4924   4.463   3.964   2.194  0.1144  0.1802 -0.0012
    1SOL     OW 4925   0.009   4.193   2.318  0.2477  0.3039 -0.2831
    1SOL    HW2 4926   0.006   4.181   2.413  0.5288 -1.1050 -0.4500
    1SOL    HW3 4927   0.086   4.248   2.303 -0.1073  0.9726  0.3497
    1SOL    MW4 4928   0.019   4.199   2.328  0.2380  0.2060 -0.2215
    1SOL     OW 4929   0.247   4.330   2.270 -0.5002 -0.2271 -0.0323
    1SOL    HW2 4930   0.330   4.309   2.314 -0.8064 -1.0981  0.1293
    1SOL    HW3 4931   0.226   4.418   2.302 -0.9741 -1.0458  1.9663
    1SOL    MW4 4932   0.255   4.339   2.280 -0.6031 -0.4501  0.2525
    1SOL     OW 4933   0.644   4.588   2.346 -0.2293 -0.1416 -0.0938
    1SOL    HW2 4934   0.643   4.612   2.439  0.6216 -0.6182  0.0466
    1SOL    HW3 4935   0.710   4.645   2.307 -1.0524  0.5199 -0.5466
    1SOL    MW4 4936   0.653   4.599   2.353 -0.2257 -0.1173 -0.1347
    1SOL     OW 4937   0.431   0.083   2.261  0.0747 -1.0195 -0.3648
    1SOL    HW2 4938   0.502   0.024   2.285  0.3775 -0.8362 -0.7999
    1SOL    HW3 4939   0.432   0.084   2.165  0.8914  0.6720 -0.3553
    1SOL    MW4 4940   0.441   0.076   2.251  0.2224 -0.7722 -0.4210
    1SOL     OW 4941   0.441   0.344   2.374  0.3242  0.0745  0.1320
    1SOL    HW2 4942   0.451   0.354   2.469 -1.6114 -1.7579  0.5675
    1SOL    HW3 4943   0.441   0.249   2.360  0.0322  0.3180 -1.6253
    1SOL    MW4 4944   0.442   0.333   2.385  0.0303 -0.1352 -0.0424
    1SOL     OW 4945   0.688   0.457   2.252 -0.2796  0.2588 -0.0156
    1SOL    HW2 4946   0.690   0.551   2.272  1.3264  0.3251 -0.4232
    1SOL    HW3 4947   0.604   0.427   2.288 -0.0568  1.5079  1.6114
    1SOL    MW4 4948   0.677   0.465   2.259 -0.0383  0.4323  0.1454
    1SOL     OW 4949   0.670   0.739   2.330  0.1901  0.2913  0.2833
    1SOL    HW2 4950   0.671   0.746   2.426  1.3826 -1.9948  0.4700
    1SOL    HW3 4951   0.580   0.762   2.306 -1.0689 -2.1901  2.2700
    1SOL    MW4 4952   0.658   0.743   2.340  0.1814 -0.3377  0.5703
    1SOL     OW 4953   0.413   0.855   2.246 -0.0825 -0.3186  0.0985
    1SOL    HW2 4954   0.408   0.944   2.281  1.1254 -0.1783 -0.0438
    1SOL    HW3 4955   0.328   0.816   2.266  0.2584  0.0345  2.4478
    1SOL    MW4 4956   0.401   0.862   2.254  0.1218 -0.2534  0.3898
    1SOL     OW 4957   0.448   1.128   2.345 -0.2317 -0.4229 -0.1726
    1SOL    HW2 4958   0.451   1.138   2.440 -0.8047 -0.9760 -0.0900
    1SOL    HW3 4959   0.364   1.165   2.319  0.4173  0.7585 -0.5977
    1SOL    MW4 4960   0.437   1.134   2.354 -0.2217 -0.3400 -0.2179
    1SOL     OW 4961   0.673   1.267   2.230 -0.1487  0.1079 -0.0481
    1SOL    HW2 4962   0.679   1.342   2.289 -1.0518 -0.5146  0.8504
    1SOL    HW3 4963   0.613   1.207   2.274  1.4741 -1.6536 -0.1905
    1SOL    MW4 4964   0.666   1.269   2.244 -0.0537 -0.2067  0.0517
    1SOL     OW 4965   0.656   1.504   2.375  0.2091  0.1409 -0.3519
    1SOL    HW2 4966   0.665   1.528   2.467 -0.5392  0.7022 -0.4184
    1SOL    HW3 4967   0.717   1.562   2.330 -0.2094  0.6207 -0.3132
    1SOL    MW4 4968   0.665   1.515   2.381  0.0552  0.2782 -0.3552
    1SOL     OW 4969   0.460   1.643   2.230  0.0753  0.0461  0.1064
    1SOL    HW2 4970   0.522   1.591   2.281 -0.3894  0.2174  0.8508
    1SOL    HW3 4971   0.374   1.606   2.251 -0.2233  0.8859  0.3653
    1SOL    MW4 4972   0.457   1.631   2.239 -0.0254  0.1795  0.2387
    1SOL     OW 4973   0.460   1.888   2.356  0.1042 -0.2313 -0.0336
    1SOL    HW2 4974   0.516   1.945   2.302 -0.3219  0.5292  0.3281
    1SOL    HW3 4975   0.462   1.804   2.311  0.2757  0.2243 -0.8917
    1SOL    MW4 4976   0.468   1.885   2.343  0.0706 -0.0709 -0.0989
    1SOL     OW 4977   0.625   2.076   2.232 -0.3781 -0.2248 -0.0787
    1SOL    HW2 4978   0.704   2.034   2.266 -0.3718 -0.6967 -0.6863
    1SOL    HW3 4979   0.627   2.164   2.271  1.4441  0.4395 -1.5885
    1SOL    MW4 4980   0.636   2.082   2.242 -0.1368 -0.1993 -0.3579
    1SOL     OW 4981   0.635   2.330   2.352 -0.1186 -0.3784  0.3061
    1SOL    HW2 4982   0.650   2.308   2.444 -0.9059  0.9030  0.7403
    1SOL    HW3 4983   0.716   2.373   2.325 -0.5408  0.7875  0.8791
    1SOL    MW4 4984   0.648   2.333   2.361 -0.2782 -0.0556  0.4389
    1SOL     OW 4985   0.435   2.455   2.211 -0.3290 -0.5302  0.2234
    1SOL    HW2 4986   0.510   2.414   2.255 -0.4057 -2.1830 -1.1538
    1SOL    HW3 4987   0.358   2.412   2.249 -0.5437  0.1592  0.5991
    1SOL    MW4 4988   0.435   2.444   2.222 -0.3674 -0.6576  0.0913
    1SOL     OW 4989   0.435   2.694   2.338  0.0109 -0.5108  0.8414
    1SOL    HW2 4990   0.437   2.680   2.433  0.0150 -1.9626  0.6396
    1SOL    HW3 4991   0.441   2.606   2.301  0.6465  0.0942 -0.5153
    1SOL    MW4 4992   0.436   2.680   2.346  0.0953 -0.6225  0.6359
    1SOL     OW 4993   0.682   2.833   2.270 -0.1138  0.1670 -0.5623
    1SOL    HW2 4994   0.755   2.774   2.292 -1.0155 -0.4741  0.8151
    1SOL    HW3 4995   0.604   2.782   2.292 -0.9109  1.8342  0.5233
    1SOL    MW4 4996   0.681   2.818   2.276 -0.3379  0.3026 -0.2375
    1SOL     OW 4997   0.664   3.073   2.383  0.1293 -0.4677  0.4814
    1SOL    HW2 4998   0.583   3.088   2.333  0.1389 -0.3746  0.4934
    1SOL    HW3 4999   0.685   2.981   2.367  0.6497 -0.2002 -0.4637
    1SOL    MW4 5000   0.656   3.063   2.374  0.1993 -0.4203  0.3581
    1SOL     OW 5001   0.463   3.188   2.251  0.1618 -0.5465 -0.2136
    1SOL    HW2 5002   0.385   3.154   2.294 -0.0016 -0.0066 -0.0700
    1SOL    HW3 5003   0.443   3.184   2.157 -0.2771  0.1370 -0.1557
    1SOL    MW4 5004   0.450   3.183   2.244  0.0823 -0.3850 -0.1869
    1SOL     OW 5005   0.427   3.434   2.363  0.0116 -0.1982  0.3624
    1SOL    HW2 5006   0.495   3.479   2.312 -0.5518  0.3576  0.0880
    1SOL    HW3 5007   0.435   3.342   2.337  1.6644 -0.3830  1.4924
    1SOL    MW4 5008   0.437   3.428   2.353  0.1553 -0.1493  0.4752
    1SOL     OW 5009   0.638   3.579   2.268  0.2575 -0.4139  0.4141
    1SOL    HW2 5010   0.643   3.667   2.305 -0.1805 -0.3058  0.2199
    1SOL    HW3 5011   0.642   3.592   2.174 -0.6877 -0.5302  0.3479
    1SOL    MW4 5012   0.639   3.592   2.261  0.0750 -0.4153  0.3800
    1SOL     OW 5013   0.698   3.854   2.341 -0.2767 -0.2636  0.1855
    1SOL    HW2 5014   0.718   3.884   2.430  0.1699  1.4082 -0.4505
    1SOL    HW3 5015   0.615   3.897   2.320  0.7242  1.1624 -1.0059
    1SOL    MW4 5016   0.690   3.864   2.350 -0.0857  0.1450 -0.0556
    1SOL     OW 5017   0.449   3.967   2.275 -0.0526 -0.0232  1.0233
    1SOL    HW2 5018   0.367   3.920   2.285 -0.1334  0.2453  1.6316
    1SOL    HW3 5019   0.451   3.992   2.182 -1.2844  1.1098  1.2894
    1SOL    MW4 5020   0.439   3.964   2.264 -0.2258  0.1619  1.1384
    1SOL     OW 5021   0.461   4.212   2.404  0.1999  0.3705 -0.2434
    1SOL    HW2 5022   0.539   4.228   2.352  0.4907 -1.9707 -0.5826
    1SOL    HW3 5023   0.433   4.124   2.379 -1.5240  0.4795  1.1729
    1SOL    MW4 5024   0.467   4.202   2.394  0.0108  0.0763 -0.1016
    1SOL     OW 5025   0.641   4.343   2.244  0.4473  0.5405  0.6888
    1SOL    HW2 5026   0.627   4.431   2.278 -3.1127  1.2495 -2.3271
    1SOL    HW3 5027   0.664   4.355   2.152  1.1218 -1.6386  0.5335
    1SOL    MW4 5028   0.642   4.356   2.236  0.0666  0.3467  0.2706
    1SOL     OW 5029   1.102   4.667   2.346 -0.3201 -0.2003 -0.1902
    1SOL    HW2 5030   1.105   4.650   2.440  0.4162  2.4038  0.3047
    1SOL    HW3 5031   1.014   4.700   2.330 -0.4420 -0.6302 -0.4213
    1SOL    MW4 5032   1.091   4.669   2.356 -0.2390  0.0858 -0.1554
    1SOL     OW 5033   0.840   0.084   2.265 -0.0207 -0.9134 -0.5730
    1SOL    HW2 5034   0.866   0.173   2.290 -1.8974 -0.8255  1.2410
    1SOL    HW3 5035   0.867   0.075   2.174  2.8454  0.4681  0.0932
    1SOL    MW4 5036   0.847   0.094   2.256  0.1099 -0.7196 -0.2456
    1SOL     OW 5037   0.913   0.319   2.356  0.2985 -0.2183 -0.6055
    1SOL    HW2 5038   0.974   0.370   2.303 -0.4740 -0.9561 -2.2578
    1SOL    HW3 5039   0.826   0.350   2.328 -0.1148  0.5278  1.4023
    1SOL    MW4 5040   0.909   0.330   2.345  0.1420 -0.2172 -0.5584
    1SOL     OW 5041   1.096   0.487   2.211 -0.0727 -0.3087 -0.5228
    1SOL    HW2 5042   1.185   0.458   2.234  0.2615  1.0512 -0.0344
    1SOL    HW3 5043   1.100   0.503   2.116  0.0924 -0.6265 -0.5704
    1SOL    MW4 5044   1.109   0.485   2.201 -0.0068 -0.1712 -0.4644
    1SOL     OW 5045   1.096   0.726   2.333 -0.3218 -0.1308 -0.3160
    1SOL    HW2 5046   1.023   0.776   2.298 -0.0370  0.8017  0.4154
    1SOL    HW3 5047   1.093   0.643   2.286 -0.1790  0.9443 -2.2625
    1SOL    MW4 5048   1.086   0.721   2.323 -0.2654  0.1341 -0.4761
    1SOL     OW 5049   0.896   0.870   2.232  0.3473  0.2441  0.6562
    1SOL    HW2 5050   0.879   0.960   2.261  1.0146 -0.0493  2.0120
    1SOL    HW3 5051   0.816   0.822   2.256 -0.5647  0.7443 -1.3156
    1SOL    MW4 5052   0.883   0.875   2.239  0.3151  0.2714  0.5748
    1SOL     OW 5053   0.897   1.128   2.327 -0.0157  0.2653 -0.4686
    1SOL    HW2 5054   0.971   1.170   2.282 -1.2142  2.3919 -0.5363
    1SOL    HW3 5055   0.822   1.185   2.308 -1.5548 -1.5253  0.1079
    1SOL    MW4 5056   0.897   1.141   2.319 -0.3769  0.3097 -0.4015
    1SOL     OW 5057   1.106   1.283   2.213  0.1588  0.0417  0.3283
    1SOL    HW2 5058   1.190   1.256   2.249 -0.3040 -0.4725  1.0547
    1SOL    HW3 5059   1.116   1.277   2.118  1.3217  1.1613  0.3688
    1SOL    MW4 5060   1.118   1.279   2.205  0.2511  0.1216  0.4294
    1SOL     OW 5061   1.066   1.525   2.348 -0.5108 -0.0809 -0.2244
    1SOL    HW2 5062   0.997   1.585   2.319 -0.4210 -0.2655 -0.8366
    1SOL    HW3 5063   1.067   1.457   2.281  0.6787  0.2451 -0.5424
    1SOL    MW4 5064   1.057   1.524   2.335 -0.3420 -0.0623 -0.3474
    1SOL     OW 5065   0.844   1.651   2.250 -0.2813  0.0608  0.7880
    1SOL    HW2 5066   0.856   1.743   2.274 -0.2385 -0.6271  3.5129
    1SOL    HW3 5067   0.851   1.651   2.154 -0.8760  2.9667  0.6800
    1SOL    MW4 5068   0.847   1.663   2.240 -0.3542  0.3535  1.1337
    1SOL     OW 5069   0.847   1.943   2.324  0.1387  0.0007 -0.3464
    1SOL    HW2 5070   0.844   1.950   2.419 -0.6094 -0.3952 -0.3407
    1SOL    HW3 5071   0.929   1.986   2.299 -0.3362  1.3485  0.3585
    1SOL    MW4 5072   0.858   1.950   2.333 -0.0226  0.1264 -0.2527
    1SOL     OW 5073   1.089   2.069   2.239  0.1249 -0.3315  0.4249
    1SOL    HW2 5074   1.160   2.020   2.279  0.3688 -0.4072 -0.0981
    1SOL    HW3 5075   1.101   2.057   2.145  0.1246  0.6321  0.2926
    1SOL    MW4 5076   1.100   2.061   2.232  0.1570 -0.2143  0.3386
    1SOL     OW 5077   1.123   2.340   2.341  0.0275  0.0246  0.2709
    1SOL    HW2 5078   1.205   2.375   2.307  0.8038  0.0925  2.1555
    1SOL    HW3 5079   1.123   2.248   2.314  0.5290  0.1379 -0.1140
    1SOL    MW4 5080   1.134   2.332   2.333  0.1962  0.0486  0.4687
    1SOL     OW 5081   0.878   2.421   2.241  0.5196 -0.3089  0.2039
    1SOL    HW2 5082   0.962   2.393   2.277 -0.0017 -1.3572  0.6203
    1SOL    HW3 5083   0.893   2.426   2.147  0.6244 -1.9971  0.1208
    1SOL    MW4 5084   0.891   2.418   2.234  0.4646 -0.6700  0.2480
    1SOL     OW 5085   0.900   2.676   2.341  0.0259  0.0114  0.3676
    1SOL    HW2 5086   0.885   2.664   2.435  0.6530  0.0036  0.4638
    1SOL    HW3 5087   0.907   2.587   2.307  1.8269  0.0339  0.6356
    1SOL    MW4 5088   0.899   2.663   2.349  0.3462  0.0134  0.4153
    1SOL     OW 5089   1.124   2.849   2.252 -0.0078 -0.1613 -0.1201
    1SOL    HW2 5090   1.205   2.804   2.275  0.3672  0.0789 -0.9524
    1SOL    HW3 5091   1.055   2.792   2.287  0.5080 -0.5527  0.2738
    1SOL    MW4 5092   1.125   2.835   2.259  0.1098 -0.1810 -0.1779
    1SOL     OW 5093   1.087   3.096   2.381 -0.8154  0.6047  0.2765
    1SOL    HW2 5094   1.010   3.140   2.347 -0.4960  0.8652 -0.1089
    1SOL    HW3 5095   1.094   3.016   2.330 -1.1635  0.3014  0.7040
    1SOL    MW4 5096   1.078   3.091   2.370 -0.8192  0.5991  0.2820
    1SOL     OW 5097   0.876   3.204   2.240  0.2812 -0.2045  0.0503
    1SOL    HW2 5098   0.879   3.294   2.274  0.4778 -1.1089  2.5919
    1SOL    HW3 5099   0.797   3.167   2.278  0.3788 -1.1987 -0.7106
    1SOL    MW4 5100   0.866   3.211   2.250  0.3200 -0.4549  0.2851
    1SOL     OW 5101   0.875   3.472   2.326  0.4902 -0.1466  0.2378
    1SOL    HW2 5102   0.866   3.475   2.421 -0.5221  0.1834  0.1337
    1SOL    HW3 5103   0.792   3.505   2.293  0.7771 -0.4197 -0.7671
    1SOL    MW4 5104   0.863   3.477   2.334  0.3945 -0.1390  0.0913
    1SOL     OW 5105   1.096   3.627   2.211  0.0595 -0.1740 -0.1955
    1SOL    HW2 5106   1.178   3.599   2.252  0.5603  1.5594  0.0464
    1SOL    HW3 5107   1.029   3.571   2.250  1.0705 -1.3546 -0.1154
    1SOL    MW4 5108   1.098   3.616   2.222  0.2589 -0.1011 -0.1531
    1SOL     OW 5109   1.111   3.880   2.323 -0.3852  0.4716 -0.0344
    1SOL    HW2 5110   1.169   3.935   2.271 -1.8620  0.6887 -1.4627
    1SOL    HW3 5111   1.118   3.793   2.283 -0.4017  0.2990  0.3337
    1SOL    MW4 5112   1.120   3.876   2.311 -0.5822  0.4773 -0.1740
    1SOL     OW 5113   0.882   4.007   2.235  0.1156 -0.5511  0.4307
    1SOL    HW2 5114   0.963   3.961   2.259 -0.3419 -1.9165 -0.5318
    1SOL    HW3 5115   0.813   3.955   2.277 -0.3513 -0.2031  0.0837
    1SOL    MW4 5116   0.883   3.994   2.244 -0.0064 -0.6855  0.2580
    1SOL     OW 5117   0.883   4.271   2.360 -0.0607  0.3621  0.3629
    1SOL    HW2 5118   0.902   4.183   2.326 -0.4898  0.3012  0.2791
    1SOL    HW3 5119   0.795   4.291   2.327 -0.0218  0.7648  0.5007
    1SOL    MW4 5120   0.874   4.262   2.351 -0.1122  0.4072  0.3700
    1SOL     OW 5121   1.068   4.428   2.208  0.3688 -0.0881  0.2274
    1SOL    HW2 5122   0.996   4.386   2.253  0.7733 -0.1250  0.8374
    1SOL    HW3 5123   1.068   4.518   2.241 -0.4871  0.3970 -1.0608
    1SOL    MW4 5124   1.059   4.435   2.218  0.3095 -0.0291  0.1378
    1SOL     OW 5125   1.528   0.002   2.347 -0.6007  0.2097  0.0762
    1SOL    HW2 5126   1.600   0.049   2.305 -0.4553 -0.9513 -0.9768
    1SOL    HW3 5127   1.449   0.044   2.314 -0.4833 -0.6387 -1.2863
    1SOL    MW4 5128   1.527   0.014   2.337 -0.5660 -0.0548 -0.2427
    1SOL     OW 5129   1.314   0.124   2.215  0.4487 -0.3821  0.4897
    1SOL    HW2 5130   1.311   0.218   2.235  3.4498 -0.4185  1.2441
    1SOL    HW3 5131   1.243   0.087   2.268 -1.1770  1.4870 -0.2695
    1SOL    MW4 5132   1.304   0.132   2.225  0.6301 -0.1403  0.4888
    1SOL     OW 5133   1.338   0.380   2.280 -0.0726  0.7586  0.2696
    1SOL    HW2 5134   1.349   0.379   2.376  1.0502 -0.6480  0.1542
    1SOL    HW3 5135   1.418   0.421   2.248  0.1301  0.0764 -0.1146
    1SOL    MW4 5136   1.350   0.385   2.289  0.1020  0.4830  0.2038
    1SOL     OW 5137   1.582   0.488   2.186 -0.2078 -0.0023  0.2115
    1SOL    HW2 5138   1.656   0.443   2.227  2.2096  2.8101 -0.9225
    1SOL    HW3 5139   1.603   0.488   2.093 -1.4207  1.2619 -0.0716
    1SOL    MW4 5140   1.595   0.482   2.179 -0.0489  0.5355  0.0246
    1SOL     OW 5141   1.545   0.746   2.319 -0.4500 -0.0589  0.0186
    1SOL    HW2 5142   1.622   0.800   2.299  0.4002 -0.9019  1.0145
    1SOL    HW3 5143   1.562   0.663   2.275 -1.0703 -0.0494 -0.2491
    1SOL    MW4 5144   1.557   0.742   2.310 -0.4197 -0.1689  0.1144
    1SOL     OW 5145   1.303   0.877   2.234 -0.3045 -0.5130 -0.0524
    1SOL    HW2 5146   1.375   0.820   2.260 -0.1266 -1.1238 -1.8592
    1SOL    HW3 5147   1.224   0.831   2.264 -0.0565 -0.7533  0.2407
    1SOL    MW4 5148   1.302   0.863   2.242 -0.2483 -0.6253 -0.2522
    1SOL     OW 5149   1.322   1.149   2.330 -0.1010 -0.3970 -0.1914
    1SOL    HW2 5150   1.312   1.159   2.425  1.6108 -1.0363  0.0792
    1SOL    HW3 5151   1.313   1.054   2.315  2.5887 -0.6845 -0.2507
    1SOL    MW4 5152   1.320   1.137   2.341  0.4797 -0.5193 -0.1636
    1SOL     OW 5153   1.535   1.312   2.232 -0.8321 -0.1734 -0.3307
    1SOL    HW2 5154   1.456   1.263   2.254 -1.4489  0.5517 -0.8643
    1SOL    HW3 5155   1.557   1.284   2.143 -1.6428  1.0726 -0.9417
    1SOL    MW4 5156   1.528   1.302   2.223 -1.0206  0.0868 -0.4818
    1SOL     OW 5157   1.533   1.563   2.331 -0.1071  0.0735  0.4004
    1SOL    HW2 5158   1.616   1.604   2.308 -0.3922  0.2174 -0.3770
    1SOL    HW3 5159   1.541   1.473   2.299 -0.4690  0.2493 -0.1906
    1SOL    MW4 5160   1.545   1.556   2.324 -0.1924  0.1158  0.2201
    1SOL     OW 5161   1.302   1.660   2.230  0.5016 -0.1244 -0.0058
    1SOL    HW2 5162   1.385   1.637   2.272  0.3392  0.5376  0.6738
    1SOL    HW3 5163   1.239   1.596   2.264  0.1402  1.0532  1.5801
    1SOL    MW4 5164   1.304   1.648   2.240  0.4326  0.1183  0.2930
    1SOL     OW 5165   1.302   1.913   2.351 -0.0923  0.6502  0.3239
    1SOL    HW2 5166   1.384   1.945   2.312 -0.5309  2.0733  0.5443
    1SOL    HW3 5167   1.290   1.827   2.311  1.1157  0.7425 -0.2956
    1SOL    MW4 5168   1.311   1.906   2.340  0.0091  0.8502  0.2711
    1SOL     OW 5169   1.533   1.984   2.230 -0.2459 -0.8363 -0.4144
    1SOL    HW2 5170   1.619   1.959   2.264 -0.2593  0.9400  0.9734
    1SOL    HW3 5171   1.546   1.992   2.135  0.8520 -1.5684 -0.3332
    1SOL    MW4 5172   1.546   1.982   2.222 -0.1028 -0.6984 -0.2205
    1SOL     OW 5173   1.554   2.246   2.309  0.6374  0.0039 -0.3270
    1SOL    HW2 5174   1.538   2.243   2.403 -0.5725 -0.7677 -0.5458
    1SOL    HW3 5175   1.538   2.156   2.279  0.9082  0.2653 -1.2807
    1SOL    MW4 5176   1.550   2.233   2.317  0.5134 -0.0634 -0.4816
    1SOL     OW 5177   1.358   2.437   2.264 -0.3484 -0.0339  0.2714
    1SOL    HW2 5178   1.409   2.358   2.282 -0.6618  0.1043  1.9075
    1SOL    HW3 5179   1.349   2.439   2.169  0.8225 -1.2317  0.1178
    1SOL    MW4 5180   1.364   2.427   2.254 -0.2352 -0.1736  0.4668
    1SOL     OW 5181   1.344   2.704   2.319 -0.1095  0.0724  0.2689
    1SOL    HW2 5182   1.431   2.734   2.291 -0.2318  1.3909  1.2568
    1SOL    HW3 5183   1.341   2.612   2.293  1.9624 -0.2449  1.0776
    1SOL    MW4 5184   1.355   2.696   2.312  0.1478  0.2046  0.5059
    1SOL     OW 5185   1.588   2.829   2.227 -0.2840 -0.4860 -0.1243
    1SOL    HW2 5186   1.573   2.919   2.257 -0.1068 -0.6458  0.4458
    1SOL    HW3 5187   1.590   2.836   2.132  0.3150  0.2122 -0.0691
    1SOL    MW4 5188   1.587   2.842   2.219 -0.1816 -0.4148 -0.0415
    1SOL     OW 5189   1.516   3.078   2.326  0.2661 -0.4672  0.4319
    1SOL    HW2 5190   1.530   3.079   2.421  1.9531  1.4457  0.1992
    1SOL    HW3 5191   1.445   3.140   2.312 -0.3207 -1.1220  0.4777
    1SOL    MW4 5192   1.509   3.086   2.337  0.4112 -0.3014  0.4070
    1SOL     OW 5193   1.299   3.234   2.248  0.8557  0.1206 -0.3492
    1SOL    HW2 5194   1.220   3.192   2.282 -0.2020  2.0616 -0.3129
    1SOL    HW3 5195   1.291   3.226   2.153  0.5614  0.4121 -0.3486
    1SOL    MW4 5196   1.287   3.227   2.240  0.6772  0.4151 -0.3445
    1SOL     OW 5197   1.302   3.523   2.355 -0.4506  0.5690 -0.0502
    1SOL    HW2 5198   1.314   3.505   2.448 -0.7706 -0.1251 -0.1425
    1SOL    HW3 5199   1.297   3.437   2.314 -0.4519  0.8719 -0.6910
    1SOL    MW4 5200   1.303   3.509   2.362 -0.4929  0.5174 -0.1471
    1SOL     OW 5201   1.571   3.641   2.270 -0.4449 -0.1692  0.0058
    1SOL    HW2 5202   1.556   3.736   2.271 -1.3226 -0.3078 -0.0779
    1SOL    HW3 5203   1.491   3.604   2.307 -0.0310 -0.8694  0.1991
    1SOL    MW4 5204   1.559   3.649   2.275 -0.5060 -0.2799  0.0203
    1SOL     OW 5205   1.543   3.909   2.344  0.2788  0.0481 -0.1668
    1SOL    HW2 5206   1.545   3.920   2.440 -1.1433  1.6207 -0.2888
    1SOL    HW3 5207   1.626   3.945   2.314  0.8398 -0.6838  0.5020
    1SOL    MW4 5208   1.554   3.916   2.353  0.1651  0.1590 -0.0944
    1SOL     OW 5209   1.326   4.036   2.217  0.0620 -0.1034 -0.3423
    1SOL    HW2 5210   1.401   3.997   2.262 -0.4806  0.9061  1.4415
    1SOL    HW3 5211   1.346   4.025   2.124  1.8939 -0.8462  0.1280
    1SOL    MW4 5212   1.338   4.030   2.210  0.2320 -0.0677 -0.0451
    1SOL     OW 5213   1.262   4.264   2.351  0.4268 -0.1087 -0.2080
    1SOL    HW2 5214   1.290   4.189   2.298 -0.7339 -0.6794 -0.0273
    1SOL    HW3 5215   1.183   4.296   2.308 -0.0403 -0.0472  0.6793
    1SOL    MW4 5216   1.256   4.258   2.339  0.2120 -0.1760 -0.0670
    1SOL     OW 5217   1.530   4.409   2.268  0.0897 -0.0088 -0.2873
    1SOL    HW2 5218   1.440   4.389   2.294 -0.5673  1.7601 -1.1204
    1SOL    HW3 5219   1.542   4.500   2.294  1.7656 -0.3394  0.1212
    1SOL    MW4 5220   1.519   4.418   2.275  0.2242  0.1802 -0.3433
    1SOL     OW 5221   2.010   4.647   2.330  0.5764  0.0121 -0.1822
    1SOL    HW2 5222   2.087   4.692   2.294 -0.4899  0.9376 -1.3483
    1SOL    HW3 5223   2.023   4.555   2.309  1.1735  0.2189 -0.7319
    1SOL    MW4 5224   2.022   4.641   2.323  0.5145  0.1621 -0.4086
    1SOL     OW 5225   1.763   0.104   2.274 -0.1839  0.3483  0.7762
    1SOL    HW2 5226   1.774   0.198   2.288  1.1402  0.5086 -1.0656
    1SOL    HW3 5227   1.846   0.065   2.302 -0.7483 -0.3016  1.5970
    1SOL    MW4 5228   1.776   0.111   2.279 -0.0838  0.2837  0.6416
    1SOL     OW 5229   1.786   0.383   2.334  0.2238  0.1144  0.2721
    1SOL    HW2 5230   1.789   0.361   2.427 -0.0166 -2.1445 -0.2416
    1SOL    HW3 5231   1.872   0.422   2.316  2.2625 -4.1233  0.3400
    1SOL    MW4 5232   1.798   0.386   2.344  0.4610 -0.7427  0.2131
    1SOL     OW 5233   2.026   0.508   2.276  1.3771 -0.3636  0.1664
    1SOL    HW2 5234   2.027   0.604   2.286 -2.2958  0.0274 -2.0474
    1SOL    HW3 5235   2.028   0.495   2.181 -0.5888 -2.3864  0.3846
    1SOL    MW4 5236   2.027   0.519   2.265  0.6330 -0.5789 -0.0968
    1SOL     OW 5237   1.992   0.794   2.356 -0.1270 -0.2519  0.1632
    1SOL    HW2 5238   2.076   0.825   2.322  0.1960 -0.5968  0.6465
    1SOL    HW3 5239   2.005   0.786   2.450 -0.1409 -2.0307  0.0341
    1SOL    MW4 5240   2.005   0.797   2.364 -0.0863 -0.5320  0.2100
    1SOL     OW 5241   1.757   0.888   2.277 -0.2267 -0.0704  0.6760
    1SOL    HW2 5242   1.758   0.981   2.298  1.1325  0.5215 -1.9448
    1SOL    HW3 5243   1.834   0.852   2.321  0.2816  0.3842  0.1544
    1SOL    MW4 5244   1.767   0.896   2.286  0.0198  0.0676  0.2615
    1SOL     OW 5245   1.766   1.180   2.340  0.2215  0.0520 -0.5020
    1SOL    HW2 5246   1.848   1.220   2.309  0.2120  0.9342  0.5931
    1SOL    HW3 5247   1.697   1.236   2.304  0.1741  0.4291  0.1604
    1SOL    MW4 5248   1.768   1.193   2.331  0.2140  0.2183 -0.2701
    1SOL     OW 5249   2.021   1.292   2.255  0.0372  0.0886 -0.4226
    1SOL    HW2 5250   2.026   1.387   2.266 -0.8033  0.1536 -0.5626
    1SOL    HW3 5251   2.101   1.259   2.295  0.1644  0.8313 -0.0563
    1SOL    MW4 5252   2.032   1.300   2.262 -0.0567  0.1951 -0.3929
    1SOL     OW 5253   2.041   1.572   2.302  0.3346  0.2322 -0.0062
    1SOL    HW2 5254   2.036   1.572   2.398  1.3924 -0.0158  0.0565
    1SOL    HW3 5255   1.956   1.607   2.274 -0.5362 -1.0455  0.9822
    1SOL    MW4 5256   2.029   1.577   2.311  0.3593  0.0308  0.1323
    1SOL     OW 5257   1.801   1.662   2.259  0.2538 -0.0046 -0.1301
    1SOL    HW2 5258   1.799   1.748   2.301 -1.8044 -0.4700  0.7787
    1SOL    HW3 5259   1.767   1.678   2.170 -0.3165  0.0925  0.1030
    1SOL    MW4 5260   1.796   1.676   2.253 -0.0930 -0.0533  0.0207
    1SOL     OW 5261   1.805   1.926   2.355  0.5680  0.3631  0.6537
    1SOL    HW2 5262   1.802   1.948   2.448 -1.6795  0.0701  0.6715
    1SOL    HW3 5263   1.867   1.989   2.318  0.5131  1.3119  2.1251
    1SOL    MW4 5264   1.813   1.937   2.362  0.2643  0.4495  0.8502
    1SOL     OW 5265   2.019   2.083   2.226 -0.1509  0.3584  0.3163
    1SOL    HW2 5266   2.103   2.048   2.257 -0.1463  0.1026  0.0090
    1SOL    HW3 5267   2.014   2.056   2.135 -0.2654  0.9386  0.1492
    1SOL    MW4 5268   2.029   2.075   2.218 -0.1655  0.4013  0.2537
    1SOL     OW 5269   1.969   2.332   2.332 -0.3683 -0.0803 -0.1264
    1SOL    HW2 5270   2.055   2.368   2.311  0.0611  0.1102  1.8723
    1SOL    HW3 5271   1.973   2.241   2.303  0.8888 -0.3724  0.9398
    1SOL    MW4 5272   1.981   2.325   2.325 -0.1459 -0.0939  0.2780
    1SOL     OW 5273   1.741   2.417   2.199 -0.0770 -0.1139 -0.0197
    1SOL    HW2 5274   1.822   2.379   2.234 -0.7618 -1.2498  0.3735
    1SOL    HW3 5275   1.672   2.358   2.230 -1.1482  1.3544  0.4151
    1SOL    MW4 5276   1.743   2.404   2.208 -0.3086 -0.0699  0.0896
    1SOL     OW 5277   1.783   2.677   2.315  0.4557 -0.2795 -0.1753
    1SOL    HW2 5278   1.780   2.596   2.263  0.2268  0.6957 -1.7322
    1SOL    HW3 5279   1.709   2.728   2.282  0.1547  0.2497  1.3255
    1SOL    MW4 5280   1.773   2.673   2.304  0.3859 -0.0808 -0.1826
    1SOL     OW 5281   1.988   2.850   2.234 -0.0304  0.0306 -0.0458
    1SOL    HW2 5282   2.065   2.812   2.276 -0.2255 -0.5628 -0.2245
    1SOL    HW3 5283   1.914   2.801   2.270 -0.3825  1.0474  0.6380
    1SOL    MW4 5284   1.988   2.839   2.244 -0.1025  0.0865  0.0207
    1SOL     OW 5285   2.002   3.091   2.346  0.1723 -0.0503 -0.0498
    1SOL    HW2 5286   2.091   3.118   2.324  0.6962 -1.2211  0.5810
    1SOL    HW3 5287   1.996   3.000   2.315 -0.6917 -0.0987  0.2284
    1SOL    MW4 5288   2.013   3.082   2.339  0.1273 -0.2112  0.0701
    1SOL     OW 5289   1.748   3.225   2.289  0.1873  0.5747  0.0622
    1SOL    HW2 5290   1.832   3.187   2.313 -0.4121  0.2066  1.6205
    1SOL    HW3 5291   1.683   3.159   2.313 -0.6556  1.4270  0.1662
    1SOL    MW4 5292   1.751   3.212   2.295 -0.0030  0.6385  0.2813
    1SOL     OW 5293   1.781   3.489   2.359 -0.0300 -0.1471 -0.3499
    1SOL    HW2 5294   1.750   3.398   2.354  0.6023 -0.4665  1.5129
    1SOL    HW3 5295   1.711   3.539   2.318 -0.8683 -1.3566 -0.4400
    1SOL    MW4 5296   1.768   3.483   2.353 -0.0572 -0.3490 -0.1159
    1SOL     OW 5297   1.999   3.639   2.256  0.0695  0.4117 -0.0440
    1SOL    HW2 5298   1.919   3.598   2.288 -0.4081  2.1442  1.0023
    1SOL    HW3 5299   2.006   3.609   2.165 -0.0821 -2.2462  0.7797
    1SOL    MW4 5300   1.990   3.629   2.248 -0.0135  0.2897  0.2027
    1SOL     OW 5301   2.006   3.901   2.333 -0.7168  0.3387  0.3279
    1SOL    HW2 5302   2.010   3.897   2.428  0.7453  0.2469  0.2763
    1SOL    HW3 5303   2.009   3.810   2.304  0.2838  0.4143  0.1614
    1SOL    MW4 5304   2.007   3.888   2.341 -0.3920  0.3366  0.2990
    1SOL     OW 5305   1.775   4.012   2.228 -0.0454 -0.9346  0.1478
    1SOL    HW2 5306   1.855   3.968   2.257  1.2246  1.3830  0.2912
    1SOL    HW3 5307   1.786   4.024   2.134  0.7474  1.2226  0.4826
    1SOL    MW4 5308   1.787   4.008   2.220  0.2267 -0.3448  0.2105
    1SOL     OW 5309   1.766   4.293   2.337  0.0645  0.1166  0.4146
    1SOL    HW2 5310   1.750   4.202   2.311 -0.0509 -0.1656  1.4656
    1SOL    HW3 5311   1.684   4.338   2.316 -0.2763 -0.2536  0.9343
    1SOL    MW4 5312   1.753   4.287   2.331  0.0043  0.0305  0.6220
    1SOL     OW 5313   1.999   4.378   2.268  0.3135  0.5471 -0.7282
    1SOL    HW2 5314   1.910   4.352   2.291  1.5430 -2.4167  0.9560
    1SOL    HW3 5315   1.998   4.383   2.172 -1.7192  0.8470 -0.7127
    1SOL    MW4 5316   1.987   4.375   2.258  0.2075  0.1955 -0.5040
    1SOL     OW 5317   2.451   4.639   2.379 -0.0136  0.0752  0.2819
    1SOL    HW2 5318   2.526   4.681   2.337 -1.1270  1.5215 -0.3107
    1SOL    HW3 5319   2.441   4.556   2.332  0.7680  0.2025 -0.1170
    1SOL    MW4 5320   2.460   4.633   2.367 -0.0575  0.2832  0.1512
    1SOL     OW 5321   2.233   0.096   2.245 -0.1965  0.2989 -0.4507
    1SOL    HW2 5322   2.247   0.188   2.265 -1.5393  0.5616 -0.6652
    1SOL    HW3 5323   2.304   0.050   2.291  0.7341  1.4614 -0.7045
    1SOL    MW4 5324   2.244   0.102   2.254 -0.2508  0.4870 -0.5126
    1SOL     OW 5325   2.250   0.360   2.336  0.3710  0.1260  0.2940
    1SOL    HW2 5326   2.170   0.410   2.322 -0.8026 -1.3942  1.3076
    1SOL    HW3 5327   2.319   0.411   2.294 -1.2660  1.0525 -1.3277
    1SOL    MW4 5328   2.248   0.373   2.329  0.0002  0.0477  0.2139
    1SOL     OW 5329   2.463   0.507   2.244 -0.5562 -0.0245 -0.0256
    1SOL    HW2 5330   2.540   0.456   2.268  0.1519  0.1550 -1.8146
    1SOL    HW3 5331   2.464   0.508   2.148 -1.4035  2.0821 -0.0360
    1SOL    MW4 5332   2.473   0.500   2.234 -0.5746  0.2772 -0.2630
    1SOL     OW 5333   2.479   0.758   2.354  0.0500 -0.0010 -0.1006
    1SOL    HW2 5334   2.556   0.796   2.313 -0.8770  1.6540 -0.3618
    1SOL    HW3 5335   2.475   0.669   2.319  1.4080  0.1403 -0.6515
    1SOL    MW4 5336   2.488   0.751   2.344  0.1066  0.2360 -0.2077
    1SOL     OW 5337   2.245   0.885   2.265  0.0408 -0.2449  0.3313
    1SOL    HW2 5338   2.236   0.970   2.308 -0.2079  0.0137 -0.2179
    1SOL    HW3 5339   2.319   0.843   2.308 -0.6423 -0.2828  1.4801
    1SOL    MW4 5340   2.254   0.891   2.276 -0.0820 -0.2158  0.4106
    1SOL     OW 5341   2.239   1.145   2.350  0.4644  0.3382 -0.4149
    1SOL    HW2 5342   2.326   1.181   2.331  0.5488  0.6740  0.5761
    1SOL    HW3 5343   2.237   1.136   2.445 -0.4238 -0.0905 -0.4694
    1SOL    MW4 5344   2.250   1.149   2.360  0.3586  0.3260 -0.2911
    1SOL     OW 5345   2.455   1.269   2.258  0.4645  0.2159 -0.1199
    1SOL    HW2 5346   2.523   1.212   2.293 -0.5424 -1.0196 -0.1477
    1SOL    HW3 5347   2.481   1.357   2.286  0.5100 -0.5610  2.4188
    1SOL    MW4 5348   2.467   1.273   2.266  0.3374 -0.0497  0.2117
    1SOL     OW 5349   2.492   1.552   2.318  0.0893 -0.3227 -0.1957
    1SOL    HW2 5350   2.503   1.551   2.413  0.5149  1.3467 -0.2171
    1SOL    HW3 5351   2.552   1.619   2.288  0.8647 -1.6938 -1.7790
    1SOL    MW4 5352   2.501   1.560   2.327  0.2475 -0.2835 -0.4072
    1SOL     OW 5353   2.254   1.700   2.220  0.4194 -0.2274  0.3705
    1SOL    HW2 5354   2.318   1.635   2.248  0.3405 -0.5034 -0.0957
    1SOL    HW3 5355   2.170   1.665   2.249  0.3219 -0.5843 -0.3416
    1SOL    MW4 5356   2.251   1.687   2.228  0.3958 -0.3110  0.2151
    1SOL     OW 5357   2.240   1.958   2.329  0.5517  0.3732  0.1762
    1SOL    HW2 5358   2.308   2.008   2.285 -1.1671  1.2595 -1.5776
    1SOL    HW3 5359   2.249   1.869   2.294 -0.8028  1.0714 -2.0647
    1SOL    MW4 5360   2.250   1.953   2.319  0.1462  0.5823 -0.3510
    1SOL     OW 5361   2.450   2.109   2.232 -0.3063 -0.1486  0.0227
    1SOL    HW2 5362   2.529   2.069   2.268 -0.3206  0.4342  0.7195
    1SOL    HW3 5363   2.461   2.103   2.138 -0.5999 -2.3725  0.1002
    1SOL    MW4 5364   2.462   2.103   2.225 -0.3469 -0.3648  0.1249
    1SOL     OW 5365   2.441   2.349   2.357 -0.0449 -0.2241 -0.1237
    1SOL    HW2 5366   2.529   2.376   2.332  0.4436  0.3951  2.1167
    1SOL    HW3 5367   2.435   2.258   2.328  1.1864 -0.1348 -0.6823
    1SOL    MW4 5368   2.452   2.340   2.350  0.1819 -0.1307  0.0980
    1SOL     OW 5369   2.201   2.464   2.263  0.4784 -0.3836 -0.3408
    1SOL    HW2 5370   2.187   2.557   2.281 -1.1119 -0.8593  0.9486
    1SOL    HW3 5371   2.281   2.442   2.310  0.1644  0.0374  0.3980
    1SOL    MW4 5372   2.210   2.473   2.271  0.2272 -0.3908 -0.0732
    1SOL     OW 5373   2.227   2.745   2.353  0.2326  0.1413 -0.5131
    1SOL    HW2 5374   2.218   2.761   2.447 -0.1896  0.2561 -0.5728
    1SOL    HW3 5375   2.312   2.784   2.331  0.7141 -0.6272 -0.0195
    1SOL    MW4 5376   2.237   2.753   2.363  0.2408  0.0551 -0.4559
    1SOL     OW 5377   2.488   2.852   2.272  0.3462 -0.2848 -0.2562
    1SOL    HW2 5378   2.559   2.798   2.308  0.3986 -0.1935 -0.2208
    1SOL    HW3 5379   2.500   2.846   2.177 -0.8023 -1.8654 -0.3050
    1SOL    MW4 5380   2.499   2.844   2.264  0.2017 -0.4816 -0.2582
    1SOL     OW 5381   2.468   3.115   2.327  0.3288 -0.0594 -0.0258
    1SOL    HW2 5382   2.537   3.167   2.285  1.0226 -0.3026  0.7925
    1SOL    HW3 5383   2.483   3.026   2.297  0.6890 -0.1970  0.5596
    1SOL    MW4 5384   2.479   3.110   2.317  0.4680 -0.1097  0.1595
    1SOL     OW 5385   2.224   3.206   2.234  0.1250  0.7615  0.0078
    1SOL    HW2 5386   2.213   3.298   2.262  2.0946  0.7542  0.8661
    1SOL    HW3 5387   2.305   3.178   2.276  0.6956 -0.7159 -2.0536
    1SOL    MW4 5388   2.233   3.215   2.243  0.4604  0.5655 -0.1509
    1SOL     OW 5389   2.231   3.508   2.344 -0.4924  0.2341  0.3072
    1SOL    HW2 5390   2.246   3.517   2.438  0.3244  2.4927  0.0133
    1SOL    HW3 5391   2.148   3.553   2.329  1.1033  3.0316 -0.5083
    1SOL    MW4 5392   2.222   3.515   2.355 -0.1740  0.9012  0.1609
    1SOL     OW 5393   2.443   3.591   2.220 -0.1998  0.3802  0.6543
    1SOL    HW2 5394   2.446   3.685   2.238 -2.0906  0.7938 -1.0399
    1SOL    HW3 5395   2.364   3.561   2.264 -0.1088 -0.2477  0.3951
    1SOL    MW4 5396   2.433   3.600   2.228 -0.4375  0.3519  0.3965
    1SOL     OW 5397   2.481   3.855   2.330  0.0678  0.3321 -0.5912
    1SOL    HW2 5398   2.464   3.872   2.423  0.0074  1.2432 -0.7586
    1SOL    HW3 5399   2.408   3.897   2.285  0.6099  0.7279 -1.1031
    1SOL    MW4 5400   2.469   3.863   2.337  0.1314  0.5047 -0.6807
    1SOL     OW 5401   2.248   3.995   2.241  0.1059  0.1340 -0.1284
    1SOL    HW2 5402   2.255   4.079   2.287 -1.8750  0.2950 -0.0862
    1SOL    HW3 5403   2.161   3.963   2.263  0.6661 -1.7003 -0.5600
    1SOL    MW4 5404   2.237   4.002   2.250 -0.0818 -0.0863 -0.1798
    1SOL     OW 5405   2.233   4.228   2.372  0.1795  0.7423 -0.0617
    1SOL    HW2 5406   2.222   4.243   2.466 -1.1632 -1.3126  0.1446
    1SOL    HW3 5407   2.159   4.272   2.332 -0.3975 -0.1145  0.0393
    1SOL    MW4 5408   2.222   4.236   2.379 -0.0739  0.3586 -0.0210
    1SOL     OW 5409   2.431   4.386   2.239 -0.8593 -0.2642  0.4523
    1SOL    HW2 5410   2.516   4.357   2.274 -0.5381  0.3557  0.1974
    1SOL    HW3 5411   2.366   4.335   2.288 -0.4653  1.2235  2.5982
    1SOL    MW4 5412   2.434   4.375   2.250 -0.7653  0.0134  0.7019
    1SOL     OW 5413   2.893   4.654   2.397  0.2614 -0.4074 -0.1153
    1SOL    HW2 5414   2.958   4.706   2.350  0.5455 -1.0914 -0.4890
    1SOL    HW3 5415   2.898   4.567   2.357 -0.8983 -0.4632 -0.1733
    1SOL    MW4 5416   2.902   4.650   2.385  0.1464 -0.5054 -0.1721
    1SOL     OW 5417   2.677   0.106   2.262 -0.0957 -0.4290 -0.2841
    1SOL    HW2 5418   2.670   0.196   2.294 -0.0555  0.3799 -2.4801
    1SOL    HW3 5419   2.754   0.071   2.306  0.3463  0.8754 -0.0066
    1SOL    MW4 5420   2.686   0.114   2.272 -0.0324 -0.1502 -0.5372
    1SOL     OW 5421   2.686   0.366   2.350  0.0619  0.3773 -0.2484
    1SOL    HW2 5422   2.684   0.388   2.443 -0.5104  0.6460 -0.3245
    1SOL    HW3 5423   2.765   0.409   2.317  0.2851  0.2509  0.1222
    1SOL    MW4 5424   2.696   0.375   2.358  0.0160  0.3961 -0.2096
    1SOL     OW 5425   2.933   0.490   2.224  0.0217 -0.1226 -0.0662
    1SOL    HW2 5426   2.946   0.572   2.273 -0.1502 -0.3176  0.3118
    1SOL    HW3 5427   2.927   0.517   2.133 -0.2679  0.3115  0.0796
    1SOL    MW4 5428   2.934   0.505   2.219 -0.0391 -0.0911  0.0029
    1SOL     OW 5429   2.931   0.727   2.370 -0.3752 -0.3091  0.0561
    1SOL    HW2 5430   2.912   0.740   2.463  1.2175  1.2721  0.1728
    1SOL    HW3 5431   2.856   0.767   2.325  1.0501  3.0789  0.5820
    1SOL    MW4 5432   2.918   0.734   2.376  0.0234  0.3466  0.1409
    1SOL     OW 5433   2.717   0.883   2.238 -0.2064  0.1051  0.4268
    1SOL    HW2 5434   2.698   0.972   2.267  0.6880  0.0286  1.2781
    1SOL    HW3 5435   2.705   0.885   2.143  0.5286  1.3163  0.3599
    1SOL    MW4 5436   2.713   0.895   2.229  0.0083  0.2548  0.5305
    1SOL     OW 5437   2.678   1.135   2.338 -0.5352  0.2060 -0.1842
    1SOL    HW2 5438   2.694   1.125   2.431 -0.6110  1.3259 -0.0390
    1SOL    HW3 5439   2.750   1.189   2.307 -1.2032  0.9284 -0.5179
    1SOL    MW4 5440   2.689   1.141   2.346 -0.6332  0.4492 -0.2091
    1SOL     OW 5441   2.885   1.301   2.249  0.0262  0.6191  0.5684
    1SOL    HW2 5442   2.956   1.245   2.279 -0.3961 -0.2564 -0.0345
    1SOL    HW3 5443   2.894   1.301   2.153 -1.2893 -0.1834  0.4379
    1SOL    MW4 5444   2.895   1.294   2.240 -0.2031  0.3977  0.4716
    1SOL     OW 5445   2.879   1.548   2.364 -0.1277  0.2961 -0.6901
    1SOL    HW2 5446   2.892   1.540   2.458  0.6821 -0.3506 -0.8430
    1SOL    HW3 5447   2.900   1.461   2.330  0.4498  0.7680 -1.5567
    1SOL    MW4 5448   2.884   1.535   2.372  0.0556  0.2730 -0.8247
    1SOL     OW 5449   2.688   1.721   2.224 -0.4732 -0.2580 -0.1417
    1SOL    HW2 5450   2.742   1.657   2.271 -1.9113 -0.5625  1.1322
    1SOL    HW3 5451   2.688   1.690   2.133  0.3976 -0.9975  0.1005
    1SOL    MW4 5452   2.695   1.708   2.218 -0.5481 -0.3958  0.0582
    1SOL     OW 5453   2.656   1.975   2.347 -0.3872 -0.2310 -0.0303
    1SOL    HW2 5454   2.672   1.943   2.436  2.5049  0.4287 -0.2695
    1SOL    HW3 5455   2.658   1.896   2.293 -0.8785 -0.4808  0.3027
    1SOL    MW4 5456   2.658   1.960   2.352 -0.0706 -0.1769 -0.0181
    1SOL     OW 5457   2.908   2.067   2.266  0.2054 -0.3191 -0.5519
    1SOL    HW2 5458   2.967   2.001   2.302  1.0770  0.4875 -0.5029
    1SOL    HW3 5459   2.821   2.032   2.282  0.5708 -0.1628  1.9667
    1SOL    MW4 5460   2.904   2.054   2.273  0.3686 -0.1922 -0.2131
    1SOL     OW 5461   2.913   2.324   2.333 -0.1887 -0.2617 -0.0396
    1SOL    HW2 5462   2.907   2.327   2.429 -0.9336 -0.9666 -0.0549
    1SOL    HW3 5463   2.916   2.231   2.312  0.9742 -0.0949 -0.6583
    1SOL    MW4 5464   2.912   2.312   2.343 -0.1338 -0.3326 -0.1233
    1SOL     OW 5465   2.685   2.426   2.256 -0.4445 -0.0567  0.3319
    1SOL    HW2 5466   2.769   2.388   2.282 -0.0195  1.3846  1.0875
    1SOL    HW3 5467   2.688   2.426   2.160  0.4983  0.1574  0.3524
    1SOL    MW4 5468   2.697   2.421   2.246 -0.2642  0.1616  0.4346
    1SOL     OW 5469   2.693   2.694   2.370  0.0736  0.0443 -0.1828
    1SOL    HW2 5470   2.748   2.752   2.317  0.6677 -0.0360  0.3447
    1SOL    HW3 5471   2.694   2.611   2.322  0.5005  0.0112 -0.1179
    1SOL    MW4 5472   2.700   2.691   2.357  0.2084  0.0293 -0.1047
    1SOL     OW 5473   2.876   2.860   2.243  0.0316  0.4926 -0.2746
    1SOL    HW2 5474   2.896   2.945   2.283  0.8985  0.4108 -0.5358
    1SOL    HW3 5475   2.884   2.876   2.149  2.2041 -0.3855 -0.2555
    1SOL    MW4 5476   2.879   2.873   2.236  0.4325  0.3660 -0.3066
    1SOL     OW 5477   2.908   3.096   2.391  0.2824 -0.3214  0.4528
    1SOL    HW2 5478   2.900   3.097   2.486 -0.9210  1.1033  0.3589
    1SOL    HW3 5479   2.825   3.132   2.360  0.4214 -1.3335 -1.1614
    1SOL    MW4 5480   2.896   3.101   2.400  0.1421 -0.2670  0.2277
    1SOL     OW 5481   2.706   3.235   2.233  0.1668  0.0944 -0.2053
    1SOL    HW2 5482   2.701   3.327   2.256  0.0541  0.4276 -1.5246
    1SOL    HW3 5483   2.706   3.234   2.137 -0.4165 -1.2971 -0.2073
    1SOL    MW4 5484   2.705   3.247   2.223  0.0749 -0.0451 -0.3796
    1SOL     OW 5485   2.675   3.492   2.350 -0.5074  0.4505 -0.2717
    1SOL    HW2 5486   2.757   3.525   2.312 -0.1182 -1.1064 -0.8126
    1SOL    HW3 5487   2.606   3.539   2.303  0.0431  0.9401 -0.6006
    1SOL    MW4 5488   2.677   3.502   2.339 -0.3831  0.3095 -0.3865
    1SOL     OW 5489   2.901   3.620   2.201 -0.3939 -0.3252  0.1314
    1SOL    HW2 5490   2.972   3.581   2.251  0.0027 -0.3780 -0.4702
    1SOL    HW3 5491   2.881   3.701   2.247  0.0075 -0.3423  0.3397
    1SOL    MW4 5492   2.908   3.625   2.213 -0.2887 -0.3345  0.0794
    1SOL     OW 5493   2.893   3.838   2.376 -0.5830 -0.0874  0.2889
    1SOL    HW2 5494   2.926   3.854   2.465 -1.5995 -0.7084  0.7975
    1SOL    HW3 5495   2.816   3.895   2.369 -0.8176 -0.4389  0.0018
    1SOL    MW4 5496   2.887   3.847   2.387 -0.7479 -0.2153  0.3181
    1SOL     OW 5497   2.699   4.016   2.278  0.5024 -0.0069 -0.2127
    1SOL    HW2 5498   2.622   3.961   2.296  0.7625  0.0815  1.1940
    1SOL    HW3 5499   2.707   4.015   2.183 -0.5481 -0.9753 -0.3010
    1SOL    MW4 5500   2.690   4.008   2.268  0.3979 -0.1230 -0.0391
    1SOL     OW 5501   2.663   4.292   2.340  0.1495 -0.4207 -0.2794
    1SOL    HW2 5502   2.677   4.304   2.434  1.2992  1.2135 -0.6371
    1SOL    HW3 5503   2.673   4.198   2.326  1.4944 -0.4884  0.9977
    1SOL    MW4 5504   2.666   4.281   2.351  0.4785 -0.2141 -0.1585
    1SOL     OW 5505   2.890   4.416   2.234  0.1597  0.3345  0.1166
    1SOL    HW2 5506   2.962   4.363   2.268 -0.7519 -1.7254 -1.1149
    1SOL    HW3 5507   2.811   4.376   2.270 -0.4726  1.7327  0.3220
    1SOL    MW4 5508   2.889   4.404   2.244 -0.0439  0.2475 -0.0188
    1SOL     OW 5509   3.313   4.626   2.343 -0.6486  0.3627 -0.1208
    1SOL    HW2 5510   3.310   4.623   2.439  0.2057  2.1664 -0.0184
    1SOL    HW3 5511   3.397   4.667   2.323 -1.2942  0.9729 -1.6190
    1SOL    MW4 5512   3.323   4.631   2.353 -0.6208  0.6814 -0.3052
    1SOL     OW 5513   3.098   0.117   2.271  0.3730  0.9025 -0.3120
    1SOL    HW2 5514   3.126   0.202   2.306  0.4018  0.3665  0.9563
    1SOL    HW3 5515   3.164   0.055   2.302 -1.1014 -0.0253  1.0114
    1SOL    MW4 5516   3.111   0.120   2.279  0.1824  0.7094  0.0300
    1SOL     OW 5517   3.142   0.374   2.356 -0.1817  0.0654  0.1867
    1SOL    HW2 5518   3.224   0.422   2.341  0.1886 -0.9575 -1.2035
    1SOL    HW3 5519   3.080   0.412   2.294  0.3558 -1.7795 -1.5492
    1SOL    MW4 5520   3.145   0.385   2.346 -0.0618 -0.3130 -0.2255
    1SOL     OW 5521   3.363   0.540   2.285 -0.1964  0.1754 -0.1959
    1SOL    HW2 5522   3.425   0.472   2.312 -0.3799  0.2624  0.4315
    1SOL    HW3 5523   3.364   0.535   2.189 -0.9011 -1.3438 -0.1431
    1SOL    MW4 5524   3.372   0.530   2.276 -0.3138 -0.0136 -0.1061
    1SOL     OW 5525   3.373   0.782   2.396  0.0388 -0.3221 -0.0351
    1SOL    HW2 5526   3.429   0.827   2.333  0.2333  0.8330  0.9462
    1SOL    HW3 5527   3.373   0.691   2.367  0.6974  0.0625 -1.2846
    1SOL    MW4 5528   3.380   0.776   2.384  0.1514 -0.1189 -0.0706
    1SOL     OW 5529   3.141   0.898   2.299  0.0127 -0.2921 -0.1938
    1SOL    HW2 5530   3.225   0.852   2.305 -0.7694 -2.2390 -2.9368
    1SOL    HW3 5531   3.077   0.837   2.335 -0.6272 -0.0977 -0.9837
    1SOL    MW4 5532   3.144   0.884   2.304 -0.1750 -0.5233 -0.6599
    1SOL     OW 5533   3.126   1.158   2.357 -0.1752  0.0296 -0.3187
    1SOL    HW2 5534   3.205   1.195   2.318 -0.9026 -0.6265 -2.4685
    1SOL    HW3 5535   3.131   1.064   2.340 -1.3170 -0.0494 -0.2839
    1SOL    MW4 5536   3.137   1.151   2.350 -0.4218 -0.0672 -0.5980
    1SOL     OW 5537   3.365   1.260   2.234 -0.6011  0.1386 -0.0730
    1SOL    HW2 5538   3.440   1.218   2.277  0.0875 -1.4474 -2.6724
    1SOL    HW3 5539   3.365   1.350   2.266  1.4693 -0.2732  1.1515
    1SOL    MW4 5540   3.374   1.266   2.244 -0.2375 -0.1251 -0.2546
    1SOL     OW 5541   3.390   1.526   2.326 -0.4643 -0.1053 -0.5777
    1SOL    HW2 5542   3.374   1.520   2.420  0.2301 -0.5425 -0.4864
    1SOL    HW3 5543   3.314   1.574   2.292 -0.1437  1.1117  0.3752
    1SOL    MW4 5544   3.378   1.532   2.334 -0.3302 -0.0025 -0.4401
    1SOL     OW 5545   3.128   1.648   2.273  0.1662 -0.4518  0.1542
    1SOL    HW2 5546   3.131   1.738   2.306  0.1778  0.2266 -1.6728
    1SOL    HW3 5547   3.046   1.612   2.308  0.5588 -0.0245  1.5702
    1SOL    MW4 5548   3.118   1.655   2.282  0.2196 -0.3059  0.0999
    1SOL     OW 5549   3.131   1.903   2.354  0.2577 -0.0712 -0.1073
    1SOL    HW2 5550   3.130   1.911   2.449  2.1035 -0.1163 -0.0666
    1SOL    HW3 5551   3.208   1.952   2.326 -1.3239  1.5286 -1.7603
    1SOL    MW4 5552   3.141   1.910   2.363  0.2925  0.1338 -0.3202
    1SOL     OW 5553   3.378   2.029   2.277  0.0676  0.2597 -0.2381
    1SOL    HW2 5554   3.453   1.981   2.313  0.1579 -1.2774 -2.4154
    1SOL    HW3 5555   3.390   2.025   2.182 -2.1064  1.1108 -0.5716
    1SOL    MW4 5556   3.390   2.022   2.269 -0.2074  0.1690 -0.5696
    1SOL     OW 5557   3.380   2.323   2.371 -0.4363 -0.1357 -0.0091
    1SOL    HW2 5558   3.304   2.370   2.338 -0.3717  0.2106  0.3352
    1SOL    HW3 5559   3.362   2.231   2.350 -1.5717 -0.2209  1.2461
    1SOL    MW4 5560   3.368   2.317   2.364 -0.5777 -0.1011  0.2017
    1SOL     OW 5561   3.167   2.461   2.262 -0.2589 -0.0431  0.1836
    1SOL    HW2 5562   3.156   2.549   2.298 -0.8553  0.1637 -0.4914
    1SOL    HW3 5563   3.083   2.418   2.278  0.5232 -0.9985  1.8616
    1SOL    MW4 5564   3.154   2.467   2.269 -0.2344 -0.1419  0.3159
    1SOL     OW 5565   3.122   2.719   2.352 -0.3092  0.4468 -0.3428
    1SOL    HW2 5566   3.106   2.714   2.446  0.0687 -1.0693 -0.3415
    1SOL    HW3 5567   3.038   2.745   2.314 -0.6597  0.3027  0.3411
    1SOL    MW4 5568   3.109   2.722   2.359 -0.3059  0.2277 -0.2522
    1SOL     OW 5569   3.380   2.850   2.279  0.1738  0.4963  0.1298
    1SOL    HW2 5570   3.369   2.938   2.314  0.7770  0.4387  0.4878
    1SOL    HW3 5571   3.299   2.805   2.301 -0.6650  1.3253 -1.1929
    1SOL    MW4 5572   3.368   2.856   2.286  0.1426  0.5980  0.0024
    1SOL     OW 5573   3.336   3.112   2.375  0.1637  0.3658 -0.3064
    1SOL    HW2 5574   3.420   3.150   2.349 -0.0109  0.9361 -0.0519
    1SOL    HW3 5575   3.270   3.171   2.337 -0.1091  0.3577  0.1484
    1SOL    MW4 5576   3.338   3.125   2.367  0.1044  0.4396 -0.2127
    1SOL     OW 5577   3.098   3.232   2.259  0.2689  0.3563 -0.2635
    1SOL    HW2 5578   3.082   3.323   2.285 -1.4402  0.6766 -2.3271
    1SOL    HW3 5579   3.025   3.183   2.295 -0.4663  0.3168 -1.7649
    1SOL    MW4 5580   3.086   3.238   2.267 -0.0536  0.3936 -0.7339
    1SOL     OW 5581   3.085   3.469   2.374 -0.1051  0.2640  0.0657
    1SOL    HW2 5582   3.076   3.489   2.467 -1.1339  2.0619 -0.4129
    1SOL    HW3 5583   3.174   3.496   2.352 -0.6513  2.0265 -0.0042
    1SOL    MW4 5584   3.095   3.475   2.383 -0.3128  0.7336 -0.0064
    1SOL     OW 5585   3.319   3.584   2.293 -0.4796  0.1264  0.3890
    1SOL    HW2 5586   3.402   3.553   2.329 -0.1330  2.3090  1.5138
    1SOL    HW3 5587   3.333   3.588   2.198  0.6740  0.3898  0.5729
    1SOL    MW4 5588   3.332   3.580   2.285 -0.2816  0.4492  0.5617
    1SOL     OW 5589   3.316   3.870   2.338 -0.2563 -0.1040  0.4754
    1SOL    HW2 5590   3.402   3.902   2.312 -0.1673 -1.0244 -0.3724
    1SOL    HW3 5591   3.319   3.776   2.324 -1.9594  0.0492 -1.2147
    1SOL    MW4 5592   3.328   3.862   2.333 -0.4694 -0.2053  0.1402
    1SOL     OW 5593   3.090   3.962   2.231 -0.3245  0.0356  0.2492
    1SOL    HW2 5594   3.170   3.924   2.267 -0.4862 -0.0124  0.5499
    1SOL    HW3 5595   3.019   3.916   2.274 -0.5776  2.6629  2.8435
    1SOL    MW4 5596   3.091   3.951   2.241 -0.3793  0.3757  0.6313
    1SOL     OW 5597   3.095   4.228   2.343  0.0093 -0.3053 -0.4912
    1SOL    HW2 5598   3.177   4.264   2.308 -0.6456  0.5222 -1.1741
    1SOL    HW3 5599   3.091   4.140   2.306  0.3947 -0.2136 -0.7618
    1SOL    MW4 5600   3.106   4.221   2.334 -0.0262 -0.1841 -0.6173
    1SOL     OW 5601   3.330   4.354   2.254 -0.1288  0.5584  0.6733
    1SOL    HW2 5602   3.314   4.443   2.286 -0.2010  0.9015 -0.3124
    1SOL    HW3 5603   3.329   4.362   2.159 -1.1995 -0.6894  0.5667
    1SOL    MW4 5604   3.328   4.367   2.246 -0.2794  0.4392  0.5291
    1SOL     OW 5605   3.803   4.625   2.352  0.0844  0.1695  0.1181
    1SOL    HW2 5606   3.816   4.621   2.447  0.8240  0.3737  0.0210
    1SOL    HW3 5607   3.867   4.688   2.321 -0.9398  0.9846 -0.3816
    1SOL    MW4 5608   3.813   4.633   2.360  0.0470  0.3037  0.0391
    1SOL     OW 5609   3.558   0.088   2.291 -0.0100  0.6612 -0.3590
    1SOL    HW2 5610   3.570   0.174   2.332  0.9907 -0.3665  1.5189
    1SOL    HW3 5611   3.628   0.034   2.326 -1.1597 -1.1884 -0.8456
    1SOL    MW4 5612   3.569   0.092   2.301 -0.0296  0.2816 -0.1755
    1SOL     OW 5613   3.554   0.355   2.383 -0.8491  0.7121  0.1670
    1SOL    HW2 5614   3.560   0.355   2.478 -0.5716 -0.6878  0.1476
    1SOL    HW3 5615   3.631   0.404   2.354 -0.1127 -0.1926  0.6023
    1SOL    MW4 5616   3.565   0.362   2.391 -0.7155  0.4081  0.2220
    1SOL     OW 5617   3.776   0.491   2.285  0.1404 -0.2935 -0.3576
    1SOL    HW2 5618   3.794   0.577   2.323 -0.1225  0.1078 -1.1297
    1SOL    HW3 5619   3.787   0.504   2.191 -0.7898 -0.8852 -0.5513
    1SOL    MW4 5620   3.780   0.504   2.278 -0.0169 -0.3186 -0.4849
    1SOL     OW 5621   3.790   0.754   2.358 -0.0726 -0.1926  0.5777
    1SOL    HW2 5622   3.769   0.780   2.448  2.3010  1.4519  0.7244
    1SOL    HW3 5623   3.869   0.805   2.337 -0.6341 -0.5041 -2.4660
    1SOL    MW4 5624   3.798   0.765   2.367  0.1667 -0.0167  0.1955
    1SOL     OW 5625   3.588   0.921   2.262 -0.0826 -0.1814  0.1939
    1SOL    HW2 5626   3.656   0.860   2.290 -0.3772  0.0205  1.3833
    1SOL    HW3 5627   3.592   0.920   2.166  1.0598 -0.7630  0.2437
    1SOL    MW4 5628   3.597   0.913   2.253  0.0291 -0.2316  0.3576
    1SOL     OW 5629   3.608   1.169   2.362  0.1058 -0.2573  0.1548
    1SOL    HW2 5630   3.585   1.151   2.453 -0.1300  0.3365  0.2193
    1SOL    HW3 5631   3.614   1.083   2.321  0.0048 -0.5177  0.6816
    1SOL    MW4 5632   3.606   1.155   2.368  0.0615 -0.2131  0.2329
    1SOL     OW 5633   3.844   1.268   2.238  0.0082  0.1534  0.2764
    1SOL    HW2 5634   3.855   1.359   2.265 -2.1617  0.6557 -0.3986
    1SOL    HW3 5635   3.760   1.242   2.276  0.1500 -1.2646 -0.3407
    1SOL    MW4 5636   3.834   1.277   2.247 -0.2594  0.0327  0.1061
    1SOL     OW 5637   3.823   1.531   2.348 -0.0339 -0.4790 -0.1019
    1SOL    HW2 5638   3.819   1.535   2.443 -0.5288 -2.0806 -0.0485
    1SOL    HW3 5639   3.736   1.557   2.319  0.4007  0.9451 -0.1588
    1SOL    MW4 5640   3.811   1.535   2.356 -0.0420 -0.5025 -0.1025
    1SOL     OW 5641   3.603   1.646   2.206 -0.1897  0.1785 -0.3200
    1SOL    HW2 5642   3.520   1.605   2.232 -1.1789  2.4741  0.3773
    1SOL    HW3 5643   3.607   1.634   2.111 -0.1728 -1.9578 -0.0611
    1SOL    MW4 5644   3.592   1.639   2.197 -0.3178  0.1994 -0.1938
    1SOL     OW 5645   3.607   1.879   2.364  0.0240  0.1358  0.0150
    1SOL    HW2 5646   3.675   1.933   2.321 -0.3782 -0.3523 -1.2668
    1SOL    HW3 5647   3.616   1.793   2.323 -2.1001  0.3626 -1.0060
    1SOL    MW4 5648   3.617   1.875   2.353 -0.3090  0.1013 -0.2890
    1SOL     OW 5649   3.801   2.036   2.250  0.0125  0.1010  0.2296
    1SOL    HW2 5650   3.884   1.994   2.272 -0.4651 -0.8262  0.2898
    1SOL    HW3 5651   3.800   2.038   2.155  0.2875  0.4850  0.2342
    1SOL    MW4 5652   3.811   2.030   2.241 -0.0143  0.0296  0.2382
    1SOL     OW 5653   3.818   2.266   2.386  0.0534 -0.4344  0.3803
    1SOL    HW2 5654   3.755   2.319   2.338 -0.0786 -1.3473 -0.4771
    1SOL    HW3 5655   3.812   2.179   2.346 -0.2541 -1.3025  2.2266
    1SOL    MW4 5656   3.809   2.261   2.375 -0.0045 -0.6695  0.5112
    1SOL     OW 5657   3.622   2.431   2.299  0.6668 -0.3643  0.6526
    1SOL    HW2 5658   3.533   2.406   2.323  0.6661 -0.3460  0.6675
    1SOL    HW3 5659   3.617   2.451   2.206  0.7957 -1.0254  0.4988
    1SOL    MW4 5660   3.610   2.430   2.290  0.6840 -0.4492  0.6342
    1SOL     OW 5661   3.608   2.711   2.396 -0.2869 -0.0734  0.2261
    1SOL    HW2 5662   3.604   2.621   2.362 -0.1095  0.4264 -1.1230
    1SOL    HW3 5663   3.530   2.754   2.361 -0.1517  0.4220  0.5272
    1SOL    MW4 5664   3.597   2.705   2.387 -0.2456  0.0577  0.0882
    1SOL     OW 5665   3.784   2.852   2.228 -0.1714  0.1793  0.3091
    1SOL    HW2 5666   3.794   2.936   2.273 -0.8384  0.0819  0.6428
    1SOL    HW3 5667   3.707   2.812   2.268 -0.5279 -0.0964 -0.6212
    1SOL    MW4 5668   3.775   2.858   2.239 -0.3064  0.1299  0.2306
    1SOL     OW 5669   3.794   3.088   2.351 -0.1111 -0.4001 -0.3108
    1SOL    HW2 5670   3.804   3.117   2.442 -0.6927  1.4181 -0.8184
    1SOL    HW3 5671   3.864   3.133   2.303  0.4360 -1.6542 -0.7120
    1SOL    MW4 5672   3.805   3.097   2.357 -0.1156 -0.3257 -0.4308
    1SOL     OW 5673   3.572   3.219   2.278  0.4827  0.2092  0.1615
    1SOL    HW2 5674   3.570   3.310   2.308 -1.3698  0.3184 -0.2390
    1SOL    HW3 5675   3.655   3.185   2.312  0.8570  1.8218  0.9510
    1SOL    MW4 5676   3.583   3.227   2.286  0.2875  0.4363  0.2131
    1SOL     OW 5677   3.565   3.477   2.388 -0.3661 -0.1226  0.1322
    1SOL    HW2 5678   3.558   3.486   2.483 -1.3920  3.5803 -0.2464
    1SOL    HW3 5679   3.642   3.528   2.364 -1.6507  1.2276 -1.2730
    1SOL    MW4 5680   3.574   3.485   2.397 -0.6709  0.5443 -0.1032
    1SOL     OW 5681   3.807   3.584   2.268 -0.2532  0.1538 -0.3195
    1SOL    HW2 5682   3.818   3.677   2.283 -1.1398  0.1985  0.0919
    1SOL    HW3 5683   3.801   3.575   2.172  1.8282  0.2751 -0.4856
    1SOL    MW4 5684   3.808   3.595   2.257 -0.0954  0.1757 -0.2871
    1SOL     OW 5685   3.821   3.847   2.331 -0.0883  0.3531  0.1120
    1SOL    HW2 5686   3.804   3.859   2.424  0.6310  1.7534  0.0628
    1SOL    HW3 5687   3.896   3.902   2.312 -0.1425 -0.0176 -1.2810
    1SOL    MW4 5688   3.829   3.856   2.341 -0.0007  0.4890 -0.0784
    1SOL     OW 5689   3.581   3.975   2.232  0.1669  0.3118 -0.2976
    1SOL    HW2 5690   3.573   4.054   2.286 -1.1794 -0.8644  1.2984
    1SOL    HW3 5691   3.661   3.933   2.263 -0.6768 -0.4333  0.9565
    1SOL    MW4 5692   3.590   3.979   2.243 -0.1223  0.0584  0.0782
    1SOL     OW 5693   3.574   4.249   2.366  0.1310 -0.1477 -0.1907
    1SOL    HW2 5694   3.652   4.293   2.332  0.4753 -0.8639 -0.3409
    1SOL    HW3 5695   3.501   4.291   2.321  0.3980  0.8370  0.2827
    1SOL    MW4 5696   3.575   4.260   2.356  0.2117 -0.1121 -0.1481
    1SOL     OW 5697   3.801   4.371   2.243 -0.1406 -0.0710 -0.0528
    1SOL    HW2 5698   3.879   4.326   2.275 -0.0444 -0.3602 -0.6779
    1SOL    HW3 5699   3.804   4.457   2.285  0.4781 -0.1112 -0.0114
    1SOL    MW4 5700   3.812   4.377   2.253 -0.0465 -0.1144 -0.1299
    1SOL     OW 5701   4.237   4.613   2.335  0.7458 -0.0163  0.1837
    1SOL    HW2 5702   4.237   4.603   2.430 -0.7139  1.7071  0.3959
    1SOL    HW3 5703   4.315   4.665   2.317  0.7896  0.0232  0.4792
    1SOL    MW4 5704   4.247   4.619   2.345  0.5589  0.2165  0.2506
    1SOL     OW 5705   4.024   0.096   2.237 -0.2561 -0.2467 -0.3934
    1SOL    HW2 5706   4.025   0.184   2.275 -1.2862 -0.3297 -0.1457
    1SOL    HW3 5707   4.094   0.050   2.282  0.7294  0.6350 -1.0000
    1SOL    MW4 5708   4.033   0.102   2.248 -0.2623 -0.1414 -0.4411
    1SOL     OW 5709   4.031   0.350   2.323  0.2194 -0.5228  0.0126
    1SOL    HW2 5710   4.093   0.417   2.292  0.8237 -1.1329 -0.1189
    1SOL    HW3 5711   3.945   0.391   2.316  0.5356  0.0439 -0.5937
    1SOL    MW4 5712   4.028   0.364   2.318  0.3405 -0.5285 -0.0849
    1SOL     OW 5713   4.257   0.488   2.255 -0.1762  0.3284  0.3130
    1SOL    HW2 5714   4.256   0.581   2.276  0.2419  0.1464  1.1475
    1SOL    HW3 5715   4.339   0.455   2.293  0.0610 -0.2206 -0.6587
    1SOL    MW4 5716   4.268   0.496   2.263 -0.0896  0.2320  0.2949
    1SOL     OW 5717   4.232   0.739   2.334 -0.0527  0.0703 -0.0603
    1SOL    HW2 5718   4.156   0.793   2.314 -0.1381 -0.1860 -0.4242
    1SOL    HW3 5719   4.307   0.792   2.306 -0.0182  0.8613  1.4780
    1SOL    MW4 5720   4.232   0.753   2.328 -0.0596  0.1408  0.0947
    1SOL     OW 5721   4.018   0.890   2.294 -0.0928 -0.5869 -0.3313
    1SOL    HW2 5722   4.031   0.980   2.324  0.8144 -0.9686  0.4332
    1SOL    HW3 5723   4.042   0.893   2.201 -1.5009  0.2769 -0.6807
    1SOL    MW4 5724   4.023   0.903   2.286 -0.1593 -0.5233 -0.2766
    1SOL     OW 5725   4.076   1.139   2.361 -0.4883  0.6614  0.2986
    1SOL    HW2 5726   4.070   1.136   2.457  0.2533  0.9289  0.3619
    1SOL    HW3 5727   3.999   1.188   2.334 -0.3151  1.2267  0.8126
    1SOL    MW4 5728   4.065   1.145   2.370 -0.3676  0.7713  0.3746
    1SOL     OW 5729   4.301   1.261   2.234  0.0312  0.2187 -0.0172
    1SOL    HW2 5730   4.230   1.216   2.280  0.9901 -1.6939 -0.3526
    1SOL    HW3 5731   4.380   1.231   2.277  0.7035  1.6409 -0.2406
    1SOL    MW4 5732   4.302   1.251   2.246  0.2460  0.1541 -0.0911
    1SOL     OW 5733   4.260   1.510   2.342  0.2061  0.0084 -0.1252
    1SOL    HW2 5734   4.281   1.424   2.305  0.4565  0.1072 -0.2155
    1SOL    HW3 5735   4.328   1.568   2.308  0.1170  0.2143  0.0448
    1SOL    MW4 5736   4.272   1.506   2.333  0.2275  0.0486 -0.1147
    1SOL     OW 5737   4.051   1.660   2.234 -0.2019  0.3081 -0.0234
    1SOL    HW2 5738   4.106   1.589   2.268 -0.5331  0.8496  1.6754
    1SOL    HW3 5739   3.963   1.637   2.261 -0.9263 -0.7056 -2.9807
    1SOL    MW4 5740   4.047   1.647   2.242 -0.3414  0.2457 -0.1895
    1SOL     OW 5741   4.028   1.908   2.352  0.1069 -0.1268  0.4024
    1SOL    HW2 5742   4.027   1.889   2.446  2.7829  0.0209  0.4918
    1SOL    HW3 5743   4.042   1.824   2.310 -1.1053 -0.1948  0.1201
    1SOL    MW4 5744   4.030   1.895   2.359  0.3004 -0.1163  0.3772
    1SOL     OW 5745   4.254   2.044   2.288  0.0110  0.0718 -0.5264
    1SOL    HW2 5746   4.249   2.139   2.302 -0.8996 -0.3149  2.0869
    1SOL    HW3 5747   4.170   2.011   2.321  0.3475 -1.6598 -1.3486
    1SOL    MW4 5748   4.242   2.052   2.294 -0.0644 -0.2077 -0.2902
    1SOL     OW 5749   4.269   2.330   2.353  0.0482 -0.2121 -0.3602
    1SOL    HW2 5750   4.207   2.396   2.324 -0.1066 -0.1013  0.2068
    1SOL    HW3 5751   4.354   2.358   2.318 -0.2543 -0.4764 -1.3145
    1SOL    MW4 5752   4.272   2.342   2.345 -0.0119 -0.2322 -0.4113
    1SOL     OW 5753   4.019   2.440   2.257  0.1508 -0.3633  0.1444
    1SOL    HW2 5754   4.004   2.527   2.296  0.7886  0.3053 -1.0649
    1SOL    HW3 5755   3.976   2.379   2.317  0.5426  0.6996  1.5352
    1SOL    MW4 5756   4.012   2.444   2.270  0.2861 -0.1349  0.1681
    1SOL     OW 5757   4.006   2.710   2.329  0.0667  0.0574  0.1304
    1SOL    HW2 5758   4.013   2.699   2.424  0.7851 -0.6732 -0.0029
    1SOL    HW3 5759   3.921   2.752   2.316  0.3761  1.0446  1.1669
    1SOL    MW4 5760   3.996   2.714   2.340  0.2019  0.0913  0.2496
    1SOL     OW 5761   4.258   2.783   2.239 -0.3331 -0.2147 -0.4117
    1SOL    HW2 5762   4.181   2.738   2.275 -0.9709  1.6254  0.6237
    1SOL    HW3 5763   4.332   2.736   2.277 -0.9815 -0.3417  0.7468
    1SOL    MW4 5764   4.258   2.771   2.249 -0.5026  0.0112 -0.1223
    1SOL     OW 5765   4.225   3.058   2.342 -0.2124 -0.3561 -0.0547
    1SOL    HW2 5766   4.234   2.981   2.286  0.4432 -0.4296  0.1472
    1SOL    HW3 5767   4.293   3.118   2.312 -0.5712  0.0491 -0.0600
    1SOL    MW4 5768   4.235   3.056   2.331 -0.1726 -0.3123 -0.0288
    1SOL     OW 5769   4.009   3.216   2.244 -0.1079  0.5790  0.2572
    1SOL    HW2 5770   4.009   3.296   2.298 -1.9000 -0.4296  1.8450
    1SOL    HW3 5771   4.074   3.159   2.286 -0.5210  0.3153  0.5436
    1SOL    MW4 5772   4.018   3.219   2.257 -0.3982  0.4110  0.5043
    1SOL     OW 5773   4.050   3.468   2.355  0.2346 -0.1347 -0.0203
    1SOL    HW2 5774   4.135   3.497   2.320  0.9414 -1.0926  0.8623
    1SOL    HW3 5775   3.986   3.526   2.314  1.1783 -0.2620 -1.7419
    1SOL    MW4 5776   4.053   3.480   2.345  0.4520 -0.2780 -0.1309
    1SOL     OW 5777   4.254   3.612   2.253  0.2132  0.0443 -0.1110
    1SOL    HW2 5778   4.254   3.704   2.280  1.5941 -0.1353  0.4976
    1SOL    HW3 5779   4.265   3.615   2.158 -0.3941  0.5201 -0.1719
    1SOL    MW4 5780   4.255   3.624   2.244  0.3157  0.0832 -0.0391
    1SOL     OW 5781   4.235   3.869   2.355 -0.3185  0.3512  0.5138
    1SOL    HW2 5782   4.251   3.879   2.448 -1.2069 -1.8292  0.9352
    1SOL    HW3 5783   4.311   3.908   2.312  1.2618 -0.8332  2.2012
    1SOL    MW4 5784   4.247   3.876   2.361 -0.2275 -0.0932  0.7920
    1SOL     OW 5785   4.024   3.986   2.245 -0.2338  0.1365 -0.1519
    1SOL    HW2 5786   4.108   3.952   2.277 -0.1509  1.0102  0.6007
    1SOL    HW3 5787   4.027   3.973   2.150  1.1000  0.8803 -0.2295
    1SOL    MW4 5788   4.036   3.980   2.237 -0.0472  0.3498 -0.0629
    1SOL     OW 5789   4.025   4.236   2.362 -0.8528 -0.5299 -0.4603
    1SOL    HW2 5790   4.110   4.276   2.342 -0.8158  0.0686  0.8056
    1SOL    HW3 5791   4.028   4.150   2.320  0.3902 -0.5133 -0.4189
    1SOL    MW4 5792   4.037   4.229   2.354 -0.6838 -0.4492 -0.2878
    1SOL     OW 5793   4.262   4.335   2.258  0.0228 -0.8086  0.2140
    1SOL    HW2 5794   4.269   4.430   2.268 -0.4391 -0.6002 -1.2923
    1SOL    HW3 5795   4.349   4.302   2.284  0.0348 -0.0244  1.1860
    1SOL    MW4 5796   4.275   4.343   2.262 -0.0367 -0.6781  0.1435
    1SOL     OW 5797   0.247   4.666   2.631  0.1457 -0.3875  0.4567
    1SOL    HW2 5798   0.254   4.580   2.672  0.1869 -0.5038  0.2028
    1SOL    HW3 5799   0.165   4.702   2.664 -0.1750 -0.7746  0.0823
    1SOL    MW4 5800   0.237   4.659   2.641  0.1088 -0.4535  0.3736
    1SOL     OW 5801   4.490   0.069   2.726  0.2600  0.0533 -0.4559
    1SOL    HW2 5802   4.489   0.078   2.821 -1.3657  0.2875 -0.4898
    1SOL    HW3 5803   4.468   0.156   2.693  1.3464  0.1108 -1.0621
    1SOL    MW4 5804   4.487   0.082   2.734  0.1888  0.0918 -0.5405
    1SOL     OW 5805   4.437   0.370   2.628 -0.1188 -0.0809 -0.0292
    1SOL    HW2 5806   4.523   0.409   2.644  0.0777 -1.0893  1.5184
    1SOL    HW3 5807   4.431   0.361   2.533  2.2443 -1.6457 -0.0631
    1SOL    MW4 5808   4.448   0.374   2.618  0.2189 -0.4204  0.1707
    1SOL     OW 5809   0.198   0.467   2.732  0.0663 -0.6295  0.3328
    1SOL    HW2 5810   0.210   0.462   2.826  0.4583  1.4437  0.4173
    1SOL    HW3 5811   0.280   0.434   2.695  0.3451 -0.4014  0.7420
    1SOL    MW4 5812   0.211   0.462   2.739  0.1548 -0.3258  0.3977
    1SOL     OW 5813   0.212   0.741   2.660 -0.2171  0.1125  0.0939
    1SOL    HW2 5814   0.285   0.789   2.699  0.0087 -0.1450 -0.0063
    1SOL    HW3 5815   0.213   0.656   2.704  0.2604 -0.3049 -0.7291
    1SOL    MW4 5816   0.222   0.736   2.671 -0.1243  0.0234 -0.0279
    1SOL     OW 5817   4.472   0.885   2.735 -0.3504 -0.6014  0.3856
    1SOL    HW2 5818   4.408   0.819   2.707  0.4149 -0.7169 -1.1121
    1SOL    HW3 5819   4.557   0.843   2.723  0.2253  1.1100 -1.9481
    1SOL    MW4 5820   4.475   0.871   2.730 -0.1736 -0.3908 -0.1197
    1SOL     OW 5821   4.444   1.153   2.652 -0.2433 -0.1957 -0.0449
    1SOL    HW2 5822   4.524   1.189   2.691  0.1797 -1.3292  0.1708
    1SOL    HW3 5823   4.446   1.060   2.676 -1.0936 -0.4516 -0.9317
    1SOL    MW4 5824   4.455   1.146   2.661 -0.2995 -0.3790 -0.1335
    1SOL     OW 5825   0.191   1.253   2.744  0.3682 -0.3527 -0.1778
    1SOL    HW2 5826   0.262   1.204   2.703  0.1972 -0.8427  0.1192
    1SOL    HW3 5827   0.201   1.342   2.710 -0.0209 -0.8436 -1.6222
    1SOL    MW4 5828   0.201   1.258   2.734  0.2943 -0.4821 -0.3293
    1SOL     OW 5829   0.202   1.508   2.617  0.0445 -0.0185  0.3856
    1SOL    HW2 5830   0.278   1.550   2.655 -0.3958  1.7011 -0.5737
    1SOL    HW3 5831   0.127   1.558   2.650 -0.6569 -1.4486  1.0143
    1SOL    MW4 5832   0.202   1.520   2.626 -0.1062  0.0197  0.3419
    1SOL     OW 5833   0.006   1.666   2.723 -0.3662  0.0722 -0.2162
    1SOL    HW2 5834  -0.010   1.657   2.817  1.3235  0.1831  0.1045
    1SOL    HW3 5835   0.001   1.760   2.707  1.9751  0.3191  0.2959
    1SOL    MW4 5836   0.004   1.677   2.734  0.1655  0.1192 -0.1066
    1SOL     OW 5837   4.480   1.930   2.644 -0.0819  0.1143 -0.4861
    1SOL    HW2 5838   4.558   1.978   2.674  0.5066 -0.3609 -1.2601
    1SOL    HW3 5839   4.479   1.942   2.549 -1.2802  0.5965 -0.4242
    1SOL    MW4 5840   4.491   1.938   2.636 -0.1626  0.1152 -0.5803
    1SOL     OW 5841   0.192   2.066   2.752  0.0891  0.5540  0.1102
    1SOL    HW2 5842   0.268   2.026   2.709 -0.6694 -1.3524  0.5068
    1SOL    HW3 5843   0.185   2.153   2.712  1.5178  0.1443 -1.0813
    1SOL    MW4 5844   0.201   2.072   2.741  0.1775  0.2484  0.0052
    1SOL     OW 5845   0.205   2.307   2.627  0.0144  0.2301  0.2194
    1SOL    HW2 5846   0.285   2.347   2.662 -0.0121 -0.7410  1.4126
    1SOL    HW3 5847   0.134   2.357   2.666  0.0096  0.1759  0.2795
    1SOL    MW4 5848   0.206   2.319   2.637  0.0102  0.0949  0.3850
    1SOL     OW 5849   4.483   2.445   2.726  0.0712 -0.2180 -0.2184
    1SOL    HW2 5850   4.486   2.461   2.821  1.2975  2.6400 -0.6810
    1SOL    HW3 5851   4.403   2.394   2.713 -0.0960 -0.6698  2.3533
    1SOL    MW4 5852   4.473   2.441   2.737  0.2112  0.0997  0.0598
    1SOL     OW 5853   0.006   2.693   2.610  0.3180 -0.0885 -0.0001
    1SOL    HW2 5854  -0.074   2.737   2.640  0.2063 -0.8067  0.7783
    1SOL    HW3 5855   0.011   2.614   2.664  0.9914 -0.5766 -0.7778
    1SOL    MW4 5856  -0.004   2.689   2.621  0.3920 -0.2480 -0.0002
    1SOL     OW 5857   0.222   2.842   2.706  0.3577 -0.2415 -0.2915
    1SOL    HW2 5858   0.212   2.928   2.665 -0.9533 -0.7117 -0.9999
    1SOL    HW3 5859   0.146   2.792   2.675  1.4198 -1.8455 -0.3553
    1SOL    MW4 5860   0.210   2.847   2.697  0.3249 -0.5152 -0.3934
    1SOL     OW 5861   0.168   3.096   2.630 -0.1289 -0.3845 -0.0841
    1SOL    HW2 5862   0.250   3.132   2.663  0.3106 -1.6410  0.2455
    1SOL    HW3 5863   0.179   3.096   2.535  0.0492 -0.0735 -0.0640
    1SOL    MW4 5864   0.181   3.101   2.622 -0.0474 -0.5093 -0.0381
    1SOL     OW 5865   4.433   3.198   2.732  0.6092  0.2197  0.0411
    1SOL    HW2 5866   4.351   3.163   2.698 -0.2894  1.0701  1.2734
    1SOL    HW3 5867   4.501   3.155   2.681 -0.6734  1.0540 -2.4325
    1SOL    MW4 5868   4.431   3.188   2.721  0.3214  0.4420 -0.1228
    1SOL     OW 5869   4.470   3.462   2.616  0.1164 -0.6906 -0.2537
    1SOL    HW2 5870   4.548   3.497   2.659  0.7164 -1.1981 -0.9194
    1SOL    HW3 5871   4.448   3.383   2.665 -1.0977  0.4527  1.1008
    1SOL    MW4 5872   4.477   3.456   2.628  0.0353 -0.6070 -0.1626
    1SOL     OW 5873   0.212   3.602   2.707 -0.1350 -0.5606 -0.0363
    1SOL    HW2 5874   0.224   3.596   2.802 -1.3658  0.7914  0.2157
    1SOL    HW3 5875   0.288   3.556   2.671 -0.7402 -2.9687  1.5921
    1SOL    MW4 5876   0.224   3.595   2.715 -0.3772 -0.7000  0.2122
    1SOL     OW 5877   0.221   3.868   2.597 -0.1449  0.1730  0.0499
    1SOL    HW2 5878   0.215   3.778   2.629 -0.3888  0.3458  0.5021
    1SOL    HW3 5879   0.218   3.860   2.502  1.1878 -0.3961  0.0439
    1SOL    MW4 5880   0.219   3.855   2.589 -0.0013  0.1209  0.1087
    1SOL     OW 5881   0.025   4.021   2.754 -0.4967  0.1231 -0.0802
    1SOL    HW2 5882   0.045   4.108   2.720  1.2002  0.2493  1.2488
    1SOL    HW3 5883   0.082   3.963   2.704 -0.9139 -0.1371 -0.2594
    1SOL    MW4 5884   0.035   4.025   2.743 -0.3279  0.1054  0.0715
    1SOL     OW 5885   0.024   4.260   2.616  0.4025 -0.3317  0.3943
    1SOL    HW2 5886  -0.061   4.289   2.647  0.4021 -0.1735  0.2473
    1SOL    HW3 5887   0.086   4.322   2.654  0.3657  0.0773 -0.2147
    1SOL    MW4 5888   0.021   4.272   2.625  0.3976 -0.2570  0.2947
    1SOL     OW 5889   0.225   4.426   2.748 -0.3680  0.0345  0.0376
    1SOL    HW2 5890   0.228   4.426   2.843 -0.4789 -2.2680  0.0536
    1SOL    HW3 5891   0.281   4.353   2.722 -0.2693  0.6965 -1.6834
    1SOL    MW4 5892   0.233   4.417   2.757 -0.3696 -0.1817 -0.1874
    1SOL     OW 5893   0.676   4.656   2.634 -0.4735  0.0410 -0.5375
    1SOL    HW2 5894   0.753   4.695   2.675 -0.0046  0.0505 -1.4048
    1SOL    HW3 5895   0.601   4.698   2.676 -0.0035 -0.1576  0.4966
    1SOL    MW4 5896   0.676   4.667   2.645 -0.3496  0.0162 -0.5155
    1SOL     OW 5897   0.474   0.095   2.770  0.2402  0.2476 -0.4357
    1SOL    HW2 5898   0.456   0.093   2.864  0.9312  1.4525 -0.2738
    1SOL    HW3 5899   0.404   0.042   2.731  0.7364 -1.4304  0.8717
    1SOL    MW4 5900   0.462   0.088   2.777  0.3968  0.1852 -0.2422
    1SOL     OW 5901   0.461   0.355   2.654 -0.2403 -0.0195  0.2408
    1SOL    HW2 5902   0.534   0.412   2.675  1.0106 -0.4761 -2.6644
    1SOL    HW3 5903   0.465   0.286   2.720  1.9313 -0.0296  0.1327
    1SOL    MW4 5904   0.471   0.353   2.666  0.2113 -0.0811 -0.1569
    1SOL     OW 5905   0.689   0.520   2.701 -0.1361  0.2956  0.1246
    1SOL    HW2 5906   0.683   0.521   2.797  1.3791  1.3374  0.2323
    1SOL    HW3 5907   0.766   0.466   2.683 -0.8679 -0.5235 -0.5413
    1SOL    MW4 5908   0.698   0.513   2.711 -0.0327  0.3250  0.0510
    1SOL     OW 5909   0.690   0.778   2.600 -0.0133  0.4190  0.1083
    1SOL    HW2 5910   0.763   0.825   2.640  1.9885 -0.7228 -2.0418
    1SOL    HW3 5911   0.693   0.691   2.639  0.2304  0.1662 -0.4564
    1SOL    MW4 5912   0.700   0.773   2.610  0.2830  0.2351 -0.2501
    1SOL     OW 5913   0.441   0.890   2.736  0.1585  0.0200  0.1591
    1SOL    HW2 5914   0.474   0.884   2.826  1.8177  2.2961 -0.2388
    1SOL    HW3 5915   0.510   0.851   2.682 -1.6368 -2.9916 -0.0046
    1SOL    MW4 5916   0.455   0.884   2.741  0.1405 -0.0770  0.0849
    1SOL     OW 5917   0.432   1.173   2.645 -0.3397  0.0849  0.2373
    1SOL    HW2 5918   0.506   1.224   2.677  0.2771 -0.7019  0.0848
    1SOL    HW3 5919   0.450   1.083   2.673 -0.1356 -0.4952 -1.6611
    1SOL    MW4 5920   0.444   1.168   2.653 -0.2314 -0.0955 -0.0334
    1SOL     OW 5921   0.679   1.276   2.733 -0.1181  0.6600 -0.5023
    1SOL    HW2 5922   0.685   1.278   2.828 -0.0905  0.8549 -0.5066
    1SOL    HW3 5923   0.754   1.224   2.705 -0.4132  0.1749 -0.3934
    1SOL    MW4 5924   0.690   1.270   2.742 -0.1534  0.6217 -0.4883
    1SOL     OW 5925   0.685   1.544   2.645  0.4451 -0.2895  0.0824
    1SOL    HW2 5926   0.609   1.587   2.685  0.3579 -0.2999 -0.0702
    1SOL    HW3 5927   0.677   1.453   2.673  0.7047 -0.1781  0.5165
    1SOL    MW4 5928   0.674   1.538   2.654  0.4678 -0.2761  0.1194
    1SOL     OW 5929   0.439   1.635   2.711 -0.2053 -0.2704 -0.0809
    1SOL    HW2 5930   0.433   1.624   2.806 -0.5921 -0.2363 -0.0975
    1SOL    HW3 5931   0.423   1.728   2.696  0.6436 -0.1346 -0.1216
    1SOL    MW4 5932   0.436   1.645   2.722 -0.1443 -0.2481 -0.0887
    1SOL     OW 5933   0.410   1.903   2.659 -0.2529  0.1461  0.3835
    1SOL    HW2 5934   0.491   1.944   2.690  0.1259 -1.2047  1.2311
    1SOL    HW3 5935   0.419   1.901   2.564  0.7604 -0.0875  0.4800
    1SOL    MW4 5936   0.422   1.909   2.650 -0.0693 -0.0629  0.5078
    1SOL     OW 5937   0.639   2.047   2.729  0.0625  0.1283 -0.2137
    1SOL    HW2 5938   0.659   2.052   2.823 -0.0040  0.0261 -0.1948
    1SOL    HW3 5939   0.716   2.006   2.690 -0.3573 -0.8125 -0.0616
    1SOL    MW4 5940   0.651   2.043   2.736 -0.0017 -0.0091 -0.1912
    1SOL     OW 5941   0.667   2.309   2.631 -0.6965  0.2137 -0.0527
    1SOL    HW2 5942   0.745   2.357   2.660 -0.4616  0.3905 -0.9355
    1SOL    HW3 5943   0.679   2.221   2.665 -0.6444  0.5270  0.7430
    1SOL    MW4 5944   0.679   2.304   2.639 -0.6586  0.2785 -0.0641
    1SOL     OW 5945   0.414   2.428   2.743  0.1793  0.0500 -0.0924
    1SOL    HW2 5946   0.427   2.516   2.709 -1.5712  0.1418 -0.5897
    1SOL    HW3 5947   0.488   2.378   2.709  0.6586  1.1133 -0.6174
    1SOL    MW4 5948   0.425   2.433   2.734  0.0116  0.2024 -0.2272
    1SOL     OW 5949   0.425   2.667   2.616 -0.0115 -0.4370  0.4990
    1SOL    HW2 5950   0.500   2.716   2.648 -0.4083  0.5460 -0.0468
    1SOL    HW3 5951   0.348   2.716   2.645 -0.3851  0.3081 -1.6048
    1SOL    MW4 5952   0.425   2.680   2.624 -0.1131 -0.2091  0.1493
    1SOL     OW 5953   0.644   2.813   2.730  0.4505 -0.0640  0.5565
    1SOL    HW2 5954   0.651   2.790   2.822 -1.5814 -1.4188  0.3943
    1SOL    HW3 5955   0.644   2.909   2.729 -0.6472 -0.0373  2.0697
    1SOL    MW4 5956   0.645   2.823   2.742  0.0376 -0.2391  0.7348
    1SOL     OW 5957   0.645   3.077   2.664  0.0808  0.0591 -0.8162
    1SOL    HW2 5958   0.734   3.102   2.687 -0.2498  1.0907 -0.6054
    1SOL    HW3 5959   0.643   3.081   2.568  0.1870  0.2920 -0.8080
    1SOL    MW4 5960   0.656   3.081   2.654  0.0512  0.2258 -0.7870
    1SOL     OW 5961   0.401   3.197   2.725  0.6650 -0.3155  0.4771
    1SOL    HW2 5962   0.408   3.197   2.820 -0.0964 -2.8089  0.5728
    1SOL    HW3 5963   0.485   3.164   2.694  1.0884  0.9465  0.2404
    1SOL    MW4 5964   0.413   3.193   2.733  0.6204 -0.4778  0.4585
    1SOL     OW 5965   0.433   3.453   2.633  0.5992  0.4324  0.1312
    1SOL    HW2 5966   0.411   3.366   2.665  1.6894 -0.2015 -0.8046
    1SOL    HW3 5967   0.425   3.446   2.538  0.3081  1.4614  0.0739
    1SOL    MW4 5968   0.429   3.441   2.625  0.7046  0.4842  0.0000
    1SOL     OW 5969   0.671   3.587   2.713 -0.0219 -0.4396 -0.0304
    1SOL    HW2 5970   0.685   3.585   2.808 -0.3073 -0.0681  0.0216
    1SOL    HW3 5971   0.581   3.557   2.702  0.3149 -1.3790 -0.2546
    1SOL    MW4 5972   0.661   3.583   2.724 -0.0151 -0.5147 -0.0532
    1SOL     OW 5973   0.677   3.865   2.625  0.0931 -0.0758 -0.2714
    1SOL    HW2 5974   0.596   3.908   2.653 -0.8959 -0.7196 -2.0142
    1SOL    HW3 5975   0.675   3.780   2.668  0.8246  0.6566  1.2314
    1SOL    MW4 5976   0.666   3.859   2.634  0.0591 -0.0641 -0.3033
    1SOL     OW 5977   0.445   3.977   2.751 -0.0650 -0.0186  0.3031
    1SOL    HW2 5978   0.438   4.071   2.732  0.5462  0.3231  1.6785
    1SOL    HW3 5979   0.370   3.938   2.706 -0.1704  1.1004 -0.5054
    1SOL    MW4 5980   0.434   3.984   2.743  0.0017  0.1740  0.3777
    1SOL     OW 5981   0.435   4.242   2.683  0.1075  0.2624  0.2140
    1SOL    HW2 5982   0.516   4.288   2.706  0.7512 -1.0447  0.6078
    1SOL    HW3 5983   0.432   4.244   2.588  1.5276 -1.2118  0.1149
    1SOL    MW4 5984   0.445   4.248   2.674  0.3798 -0.1049  0.2527
    1SOL     OW 5985   0.671   4.388   2.736 -0.0835  0.3619 -0.0344
    1SOL    HW2 5986   0.740   4.328   2.706  1.4815  0.4058  3.2085
    1SOL    HW3 5987   0.687   4.469   2.689  0.9829 -0.2049 -0.6717
    1SOL    MW4 5988   0.682   4.391   2.726  0.2637  0.2933  0.3090
    1SOL     OW 5989   1.156   4.613   2.618 -0.3288  0.0929 -0.1486
    1SOL    HW2 5990   1.236   4.663   2.633 -0.9447  0.2411  2.8502
    1SOL    HW3 5991   1.173   4.527   2.657 -1.9467  0.4514  1.4471
    1SOL    MW4 5992   1.169   4.608   2.625 -0.6236  0.1602  0.4575
    1SOL     OW 5993   0.926   0.094   2.732 -0.0796 -0.0280 -0.3271
    1SOL    HW2 5994   0.938   0.099   2.827  0.0842 -0.4769 -0.3203
    1SOL    HW3 5995   1.001   0.042   2.702  0.1829  0.5968 -0.7698
    1SOL    MW4 5996   0.938   0.088   2.740 -0.0234 -0.0048 -0.3848
    1SOL     OW 5997   0.908   0.354   2.646 -0.1648 -0.3393  0.0524
    1SOL    HW2 5998   0.910   0.262   2.673 -2.1693 -0.0329  1.3584
    1SOL    HW3 5999   0.922   0.352   2.552  2.8831 -1.7486  0.5014
    1SOL    MW4 6000   0.910   0.342   2.637 -0.0271 -0.4848  0.2840
    1SOL     OW 6001   1.152   0.498   2.711 -0.7551  0.0609 -0.2718
    1SOL    HW2 6002   1.132   0.584   2.674 -1.5272 -0.7618 -1.8248
    1SOL    HW3 6003   1.071   0.448   2.700  0.0336 -1.2021 -0.3932
    1SOL    MW4 6004   1.138   0.503   2.705 -0.7530 -0.2142 -0.4926
    1SOL     OW 6005   1.122   0.771   2.599  0.0175 -0.2622 -0.2580
    1SOL    HW2 6006   1.207   0.815   2.606  0.2305 -0.6338 -0.5364
    1SOL    HW3 6007   1.111   0.755   2.506 -1.3201  1.6805 -0.4451
    1SOL    MW4 6008   1.132   0.775   2.588 -0.1307 -0.0548 -0.3195
    1SOL     OW 6009   0.909   0.918   2.700 -0.4124 -0.2631  0.0695
    1SOL    HW2 6010   0.917   0.917   2.795 -1.2712  0.4184  0.1605
    1SOL    HW3 6011   0.981   0.863   2.668 -0.1468 -0.5160  1.1100
    1SOL    MW4 6012   0.919   0.911   2.708 -0.4907 -0.2065  0.2189
    1SOL     OW 6013   0.927   1.169   2.605 -0.4120  0.1841 -0.2082
    1SOL    HW2 6014   0.923   1.075   2.620  0.4335  0.2049  0.2068
    1SOL    HW3 6015   0.916   1.180   2.511 -0.4066 -0.3366 -0.2689
    1SOL    MW4 6016   0.925   1.158   2.595 -0.2998  0.1180 -0.1616
    1SOL     OW 6017   1.100   1.307   2.752 -0.3238 -0.7108  0.2881
    1SOL    HW2 6018   1.098   1.392   2.708  0.1462 -1.1997 -0.6871
    1SOL    HW3 6019   1.036   1.254   2.705  0.5270 -1.3857 -0.1379
    1SOL    MW4 6020   1.092   1.311   2.740 -0.1496 -0.8644  0.1030
    1SOL     OW 6021   1.133   1.554   2.628 -0.2300 -0.1429 -0.7391
    1SOL    HW2 6022   1.070   1.618   2.661 -0.0637 -0.6088  0.5309
    1SOL    HW3 6023   1.107   1.538   2.538 -1.9892 -0.3855 -0.2049
    1SOL    MW4 6024   1.121   1.560   2.621 -0.4401 -0.2364 -0.5009
    1SOL     OW 6025   0.923   1.697   2.724  0.1014  0.5260  0.3657
    1SOL    HW2 6026   0.921   1.677   2.818  1.6059 -0.9641  0.1073
    1SOL    HW3 6027   0.849   1.648   2.688 -0.0060  0.4623  0.6674
    1SOL    MW4 6028   0.913   1.688   2.732  0.2857  0.3209  0.3715
    1SOL     OW 6029   0.861   1.941   2.601  0.0784  0.2577  0.2047
    1SOL    HW2 6030   0.923   2.003   2.639  0.4916  0.5460 -0.9293
    1SOL    HW3 6031   0.880   1.858   2.645 -0.1212  0.7989  1.3438
    1SOL    MW4 6032   0.872   1.938   2.612  0.1066  0.3672  0.2053
    1SOL     OW 6033   1.078   2.088   2.693  0.4008 -0.3426  0.3133
    1SOL    HW2 6034   1.154   2.030   2.697  0.1578 -0.6584  0.3359
    1SOL    HW3 6035   1.113   2.170   2.658  0.7462 -0.4940  0.2956
    1SOL    MW4 6036   1.093   2.091   2.689  0.4143 -0.4044  0.3140
    1SOL     OW 6037   1.095   2.356   2.610  0.0046  0.1030 -0.3877
    1SOL    HW2 6038   1.163   2.405   2.657 -0.2179  0.1010 -0.0615
    1SOL    HW3 6039   1.114   2.371   2.518  1.4164 -1.2002 -0.3253
    1SOL    MW4 6040   1.106   2.364   2.604  0.1615 -0.0691 -0.3366
    1SOL     OW 6041   0.884   2.437   2.754 -0.0510  0.0760  0.0490
    1SOL    HW2 6042   0.870   2.521   2.711  0.3968  0.0858 -0.0783
    1SOL    HW3 6043   0.958   2.398   2.708 -1.1897 -1.0550 -0.8846
    1SOL    MW4 6044   0.892   2.443   2.742 -0.1422 -0.0718 -0.0908
    1SOL     OW 6045   0.872   2.702   2.627 -0.3192 -0.2466 -0.1031
    1SOL    HW2 6046   0.952   2.734   2.669 -0.1948 -0.6109 -0.0662
    1SOL    HW3 6047   0.802   2.754   2.666 -0.2985 -1.1442  1.1438
    1SOL    MW4 6048   0.873   2.713   2.638 -0.3001 -0.4132  0.0665
    1SOL     OW 6049   1.083   2.832   2.730  0.0000  0.0000 -0.1604
    1SOL    HW2 6050   1.106   2.825   2.823  0.0000  0.0000 -0.1582
    1SOL    HW3 6051   1.159   2.795   2.684  0.0000  0.0000 -0.1525
    1SOL    MW4 6052   1.096   2.826   2.736  0.0000  0.0000 -0.1593
    1SOL     OW 6053   1.148   3.096   2.646  0.0000  0.0000 -0.1996
    1SOL    HW2 6054   1.122   3.007   2.669  0.0000  0.0000 -0.2036
    1SOL    HW3 6055   1.136   3.101   2.551  0.0000  0.0000 -0.1995
    1SOL    MW4 6056   1.143   3.085   2.636  0.0000  0.0000 -0.1998
    1SOL     OW 6057   0.919   3.208   2.729  0.0000  0.0000  0.0631
    1SOL    HW2 6058   0.903   3.287   2.676  0.0000  0.0000  0.0648
    1SOL    HW3 6059   1.006   3.179   2.701  0.0000  0.0000  0.0550
    1SOL    MW4 6060   0.928   3.215   2.718  0.0000  0.0000  0.0622
    1SOL     OW 6061   0.887   3.462   2.605  0.0000  0.0000 -0.1192
    1SOL    HW2 6062   0.961   3.508   2.645  0.0000  0.0000 -0.1478
    1SOL    HW3 6063   0.810   3.511   2.635  0.0000  0.0000 -0.0937
    1SOL    MW4 6064   0.887   3.475   2.614  0.0000  0.0000 -0.1194
    1SOL     OW 6065   1.102   3.599   2.729  0.0000  0.0000 -0.0210
    1SOL    HW2 6066   1.101   3.626   2.821  0.0000  0.0000 -0.0210
    1SOL    HW3 6067   1.100   3.681   2.680  0.0000  0.0000 -0.0205
    1SOL    MW4 6068   1.102   3.613   2.734  0.0000  0.0000 -0.0207
    1SOL     OW 6069   1.098   3.851   2.608  0.0000  0.0000  0.3670
    1SOL    HW2 6070   1.178   3.889   2.646  0.0000  0.0000  0.3727
    1SOL    HW3 6071   1.110   3.859   2.514  0.0000  0.0000  0.3680
    1SOL    MW4 6072   1.110   3.857   2.601  0.0000  0.0000  0.3679
    1SOL     OW 6073   0.893   4.008   2.719  0.0000  0.0000 -0.3184
    1SOL    HW2 6074   0.957   3.963   2.664  0.0000  0.0000 -0.3125
    1SOL    HW3 6075   0.809   3.969   2.692  0.0000  0.0000 -0.3242
    1SOL    MW4 6076   0.890   3.997   2.708  0.0000  0.0000 -0.3183
    1SOL     OW 6077   0.888   4.266   2.632  0.0000  0.0000 -0.2324
    1SOL    HW2 6078   0.892   4.173   2.656  0.0000  0.0000 -0.2400
    1SOL    HW3 6079   0.884   4.265   2.536  0.0000  0.0000 -0.2327
    1SOL    MW4 6080   0.888   4.254   2.622  0.0000  0.0000 -0.2339
    1SOL     OW 6081   1.144   4.351   2.756  0.0000  0.0000 -0.0354
    1SOL    HW2 6082   1.137   4.378   2.848  0.0000  0.0000 -0.0350
    1SOL    HW3 6083   1.055   4.327   2.731  0.0000  0.0000 -0.0376
    1SOL    MW4 6084   1.131   4.351   2.765  0.0000  0.0000 -0.0360
    1SOL     OW 6085   1.563   4.631   2.625  0.4534  0.0963  0.0812
    1SOL    HW2 6086   1.558   4.538   2.645 -1.3768  0.1943  0.2045
    1SOL    HW3 6087   1.561   4.636   2.529 -0.1882  0.0453  0.0932
    1SOL    MW4 6088   1.562   4.619   2.615  0.1272  0.1030  0.0989
    1SOL     OW 6089   1.359   0.117   2.727 -0.4549 -0.0522  0.0762
    1SOL    HW2 6090   1.348   0.199   2.679 -0.4727 -0.4326 -0.5773
    1SOL    HW3 6091   1.433   0.074   2.685 -1.4921 -1.1390 -0.6786
    1SOL    MW4 6092   1.367   0.122   2.715 -0.5941 -0.2458 -0.1097
    1SOL     OW 6093   1.387   0.362   2.584 -0.2434 -0.4904 -0.2155
    1SOL    HW2 6094   1.462   0.407   2.621 -0.4071 -1.0204  0.7684
    1SOL    HW3 6095   1.311   0.406   2.623 -0.3979 -1.9248  1.1322
    1SOL    MW4 6096   1.387   0.374   2.594 -0.2853 -0.7496  0.0923
    1SOL     OW 6097   1.612   0.489   2.696  0.1435 -0.0041  0.4745
    1SOL    HW2 6098   1.691   0.441   2.670  0.3621  0.2366  0.6890
    1SOL    HW3 6099   1.630   0.580   2.672 -0.5806 -0.1532 -0.6276
    1SOL    MW4 6100   1.625   0.494   2.690  0.0768  0.0080  0.3574
    1SOL     OW 6101   1.580   0.767   2.609  0.0588  0.3385 -0.1851
    1SOL    HW2 6102   1.498   0.813   2.626  0.5702  1.4610 -0.7142
    1SOL    HW3 6103   1.582   0.757   2.514  0.2900 -0.1570 -0.1302
    1SOL    MW4 6104   1.569   0.772   2.599  0.1568  0.4212 -0.2475
    1SOL     OW 6105   1.363   0.901   2.653  0.0358  0.4401  0.0169
    1SOL    HW2 6106   1.376   0.891   2.747  0.4355  0.8406  0.0043
    1SOL    HW3 6107   1.365   0.995   2.638 -1.3106  0.4304 -0.2153
    1SOL    MW4 6108   1.365   0.912   2.663 -0.0890  0.4916 -0.0153
    1SOL     OW 6109   1.314   1.181   2.622 -0.4946 -0.1590 -0.0208
    1SOL    HW2 6110   1.382   1.239   2.656 -1.8499  1.4792 -0.0367
    1SOL    HW3 6111   1.234   1.210   2.665 -1.2860 -1.6937 -0.4266
    1SOL    MW4 6112   1.313   1.192   2.632 -0.7778 -0.1453 -0.0765
    1SOL     OW 6113   1.568   1.307   2.696  0.2104 -0.3161 -0.4770
    1SOL    HW2 6114   1.558   1.285   2.788 -0.4570 -1.7489 -0.8765
    1SOL    HW3 6115   1.640   1.252   2.666 -0.0604 -0.3943 -0.9847
    1SOL    MW4 6116   1.576   1.297   2.704  0.0867 -0.5155 -0.5968
    1SOL     OW 6117   1.587   1.560   2.620  0.0423 -0.0825  0.6397
    1SOL    HW2 6118   1.572   1.467   2.640  1.4451 -0.8418 -1.6737
    1SOL    HW3 6119   1.567   1.568   2.527 -0.1442  1.9698  0.8358
    1SOL    MW4 6120   1.582   1.548   2.610  0.2028  0.0880  0.3603
    1SOL     OW 6121   1.366   1.681   2.733 -0.1757 -0.3002 -0.0053
    1SOL    HW2 6122   1.450   1.636   2.724  0.7891  1.7891 -2.0224
    1SOL    HW3 6123   1.303   1.624   2.691  0.3017 -1.6696  1.1106
    1SOL    MW4 6124   1.369   1.668   2.726  0.0145 -0.2053 -0.1240
    1SOL     OW 6125   1.315   1.938   2.646 -0.1071  0.4066  0.2711
    1SOL    HW2 6126   1.323   1.845   2.666 -1.0743  0.5971  1.5658
    1SOL    HW3 6127   1.312   1.942   2.550  0.7489 -0.8189  0.1896
    1SOL    MW4 6128   1.315   1.927   2.636 -0.1218  0.2701  0.4311
    1SOL     OW 6129   1.531   2.098   2.726  0.0708 -0.5213  0.0424
    1SOL    HW2 6130   1.606   2.048   2.693 -0.6225 -1.1151 -0.6437
    1SOL    HW3 6131   1.456   2.041   2.710 -0.5998  0.3135  0.2132
    1SOL    MW4 6132   1.531   2.084   2.720 -0.1092 -0.4897 -0.0253
    1SOL     OW 6133   1.495   2.318   2.580  0.1514  0.4114  0.1488
    1SOL    HW2 6134   1.575   2.361   2.612  0.2585  0.0297  0.3963
    1SOL    HW3 6135   1.490   2.237   2.630 -0.6669  0.6637  0.4986
    1SOL    MW4 6136   1.505   2.313   2.591  0.0576  0.3941  0.2277
    1SOL     OW 6137   1.312   2.481   2.726  0.3426  0.5865  0.0973
    1SOL    HW2 6138   1.293   2.564   2.682 -0.0736  0.8665  0.8011
    1SOL    HW3 6139   1.382   2.442   2.673 -0.5862  0.6177 -1.1773
    1SOL    MW4 6140   1.319   2.487   2.713  0.1652  0.6278  0.0219
    1SOL     OW 6141   1.298   2.732   2.607  0.5952 -0.7277  0.1942
    1SOL    HW2 6142   1.388   2.755   2.631  0.4656 -0.2220  0.2137
    1SOL    HW3 6143   1.301   2.713   2.514  0.8727 -1.4908  0.3612
    1SOL    MW4 6144   1.310   2.732   2.598  0.6148 -0.7615  0.2186
    1SOL     OW 6145   1.558   2.798   2.681 -0.2272 -0.0748 -0.2166
    1SOL    HW2 6146   1.557   2.795   2.777 -1.4492  0.0889 -0.2105
    1SOL    HW3 6147   1.645   2.768   2.657  0.1656  0.0883  0.9560
    1SOL    MW4 6148   1.569   2.794   2.690 -0.3366 -0.0317 -0.0610
    1SOL     OW 6149   1.588   3.070   2.592  0.0443  0.2300 -0.2540
    1SOL    HW2 6150   1.657   3.122   2.633 -1.1099  0.0645  1.9678
    1SOL    HW3 6151   1.585   2.989   2.643 -0.4385 -0.6210 -1.5945
    1SOL    MW4 6152   1.597   3.066   2.604 -0.1715  0.0961 -0.1376
    1SOL     OW 6153   1.379   3.229   2.733 -0.2674  0.8357 -0.3074
    1SOL    HW2 6154   1.449   3.178   2.692  0.7375  1.4465  0.6092
    1SOL    HW3 6155   1.299   3.183   2.710  0.5524 -0.6600 -0.2207
    1SOL    MW4 6156   1.378   3.216   2.725 -0.0266  0.7188 -0.1750
    1SOL     OW 6157   1.355   3.496   2.634 -0.3744  0.3343 -0.1760
    1SOL    HW2 6158   1.374   3.410   2.673  0.6381  0.4867 -0.3289
    1SOL    HW3 6159   1.272   3.521   2.673  1.0021  0.8573  2.5433
    1SOL    MW4 6160   1.347   3.488   2.645 -0.0592  0.4234  0.1624
    1SOL     OW 6161   1.549   3.647   2.751  0.1914  0.8047 -0.1779
    1SOL    HW2 6162   1.621   3.604   2.706 -0.0709 -1.0933  1.1261
    1SOL    HW3 6163   1.470   3.612   2.709 -0.0176  0.2376  0.6710
    1SOL    MW4 6164   1.548   3.637   2.740  0.1292  0.4797  0.1059
    1SOL     OW 6165   1.578   3.908   2.639  0.2842  0.0874 -0.0596
    1SOL    HW2 6166   1.492   3.939   2.669 -0.7441 -0.5120 -2.2548
    1SOL    HW3 6167   1.582   3.817   2.668 -0.6574 -0.4555 -1.5408
    1SOL    MW4 6168   1.567   3.900   2.647  0.0243 -0.0632 -0.5445
    1SOL     OW 6169   1.327   3.966   2.728 -0.2755 -0.0837 -0.0478
    1SOL    HW2 6170   1.330   3.970   2.823 -0.2588  0.1511 -0.0572
    1SOL    HW3 6171   1.334   4.058   2.700 -0.3735 -0.1436 -0.2706
    1SOL    MW4 6172   1.328   3.979   2.737 -0.2863 -0.0606 -0.0784
    1SOL     OW 6173   1.346   4.219   2.639  0.3735 -0.1565  0.3676
    1SOL    HW2 6174   1.277   4.262   2.689  0.1925  1.1316 -0.9705
    1SOL    HW3 6175   1.316   4.221   2.548  2.7679  1.6475 -0.4458
    1SOL    MW4 6176   1.333   4.225   2.634  0.6655  0.2513  0.0837
    1SOL     OW 6177   1.557   4.374   2.726 -0.2502  0.0159  0.3658
    1SOL    HW2 6178   1.569   4.369   2.821  0.7243 -0.5771  0.2216
    1SOL    HW3 6179   1.491   4.307   2.707 -1.2962  0.9252  0.7578
    1SOL    MW4 6180   1.550   4.364   2.736 -0.2596  0.0572  0.3984
    1SOL     OW 6181   1.989   4.661   2.613 -0.5106  0.0923  0.2550
    1SOL    HW2 6182   2.065   4.692   2.662  1.0701 -0.5013 -1.7383
    1SOL    HW3 6183   2.021   4.652   2.523 -2.7833 -0.7730 -0.4984
    1SOL    MW4 6184   2.003   4.664   2.608 -0.6020 -0.1006 -0.1073
    1SOL     OW 6185   1.783   0.095   2.773 -0.0875 -0.2703  0.4194
    1SOL    HW2 6186   1.858   0.067   2.721  0.3093  0.9848  0.2987
    1SOL    HW3 6187   1.708   0.049   2.734  0.3871 -0.3001 -0.4628
    1SOL    MW4 6188   1.783   0.085   2.761  0.0275 -0.1086  0.2871
    1SOL     OW 6189   1.815   0.321   2.600  0.1775  0.1029  0.3835
    1SOL    HW2 6190   1.906   0.339   2.622 -0.1963 -0.0553  2.1962
    1SOL    HW3 6191   1.789   0.253   2.662 -1.4162  0.7534  0.4555
    1SOL    MW4 6192   1.824   0.314   2.611 -0.0821  0.1678  0.6320
    1SOL     OW 6193   2.027   0.472   2.700  0.5578 -0.0068  0.1576
    1SOL    HW2 6194   2.111   0.429   2.686  0.4983  0.0497 -0.3799
    1SOL    HW3 6195   2.021   0.483   2.795  0.9751 -0.3710  0.2252
    1SOL    MW4 6196   2.037   0.468   2.710  0.6049 -0.0474  0.0958
    1SOL     OW 6197   1.986   0.726   2.625  0.8982  0.3160  0.4928
    1SOL    HW2 6198   1.984   0.633   2.650  0.4487 -0.3904 -2.0789
    1SOL    HW3 6199   1.911   0.764   2.669 -0.1031 -0.9807 -0.0549
    1SOL    MW4 6200   1.976   0.718   2.634  0.7069  0.0519  0.0815
    1SOL     OW 6201   1.792   0.887   2.734 -0.7350 -0.2806 -0.0306
    1SOL    HW2 6202   1.814   0.968   2.687  0.5021 -0.0447  0.9280
    1SOL    HW3 6203   1.709   0.859   2.695 -0.7807  1.0193 -0.9247
    1SOL    MW4 6204   1.784   0.894   2.723 -0.5778 -0.0781 -0.0219
    1SOL     OW 6205   1.781   1.145   2.610 -0.5082  0.0741  0.1539
    1SOL    HW2 6206   1.857   1.199   2.630  1.1145 -2.2113  0.4102
    1SOL    HW3 6207   1.784   1.135   2.515  1.0505 -2.0841  0.3800
    1SOL    MW4 6208   1.792   1.151   2.600 -0.0886 -0.5122  0.2177
    1SOL     OW 6209   1.991   1.298   2.677 -0.1576 -0.2528  0.7221
    1SOL    HW2 6210   1.991   1.309   2.772  2.8342 -0.3767  0.7722
    1SOL    HW3 6211   2.065   1.239   2.659  0.4082  1.1429 -1.8088
    1SOL    MW4 6212   2.001   1.291   2.687  0.3116 -0.0850  0.3948
    1SOL     OW 6213   2.017   1.564   2.587 -0.1271  0.4364 -0.1848
    1SOL    HW2 6214   1.952   1.621   2.629 -1.0756  0.3985 -1.5965
    1SOL    HW3 6215   1.990   1.475   2.612 -1.0678  0.3747 -1.3691
    1SOL    MW4 6216   2.005   1.560   2.596 -0.3765  0.4232 -0.5271
    1SOL     OW 6217   1.799   1.707   2.686 -0.1143  0.2197 -0.3014
    1SOL    HW2 6218   1.799   1.697   2.782 -0.1443 -0.2292 -0.3475
    1SOL    HW3 6219   1.724   1.656   2.657 -1.3842  2.1270 -0.3952
    1SOL    MW4 6220   1.789   1.699   2.695 -0.2857  0.4120 -0.3200
    1SOL     OW 6221   1.766   1.982   2.621  0.0769 -0.1121 -0.2793
    1SOL    HW2 6222   1.849   2.026   2.640 -0.4211  0.8804 -0.3798
    1SOL    HW3 6223   1.779   1.892   2.651  0.7659  0.3527  0.8488
    1SOL    MW4 6224   1.779   1.976   2.628  0.1020  0.0802 -0.1435
    1SOL     OW 6225   2.014   2.084   2.681 -0.0613  0.1399  0.1770
    1SOL    HW2 6226   2.009   2.099   2.775 -1.1204  0.9334  0.0119
    1SOL    HW3 6227   2.003   2.171   2.643 -0.3902 -0.2809 -0.6949
    1SOL    MW4 6228   2.012   2.098   2.688 -0.2444  0.1893  0.0403
    1SOL     OW 6229   1.991   2.335   2.599  0.2868 -0.5161 -0.1936
    1SOL    HW2 6230   2.067   2.390   2.620 -0.3187  0.4008 -0.3781
    1SOL    HW3 6231   1.979   2.345   2.505  0.1155 -0.8851 -0.2106
    1SOL    MW4 6232   2.000   2.344   2.589  0.1843 -0.4437 -0.2203
    1SOL     OW 6233   1.739   2.431   2.692  0.7334  0.6460 -0.2476
    1SOL    HW2 6234   1.732   2.448   2.786  1.1920  0.8066 -0.2403
    1SOL    HW3 6235   1.821   2.383   2.683  0.8866  0.9770 -0.6137
    1SOL    MW4 6236   1.749   2.427   2.703  0.8142  0.7107 -0.2949
    1SOL     OW 6237   1.799   2.679   2.579 -0.3838  0.2881 -0.3585
    1SOL    HW2 6238   1.778   2.596   2.622 -0.8908  1.2310  1.2671
    1SOL    HW3 6239   1.787   2.662   2.486  0.2933 -1.6761 -0.0920
    1SOL    MW4 6240   1.794   2.666   2.572 -0.3612  0.1533 -0.1085
    1SOL     OW 6241   1.982   2.849   2.685  0.0670 -0.3147 -0.3614
    1SOL    HW2 6242   2.059   2.792   2.682 -0.0430 -0.4405 -0.8378
    1SOL    HW3 6243   1.914   2.799   2.641 -0.1362  0.0305 -0.4366
    1SOL    MW4 6244   1.983   2.835   2.679  0.0256 -0.2859 -0.4342
    1SOL     OW 6245   2.012   3.125   2.619  0.4017 -0.0926 -0.2041
    1SOL    HW2 6246   1.995   3.034   2.643 -0.1371 -0.0212 -0.3090
    1SOL    HW3 6247   2.018   3.124   2.524 -1.3248  0.2569 -0.3374
    1SOL    MW4 6248   2.011   3.113   2.610  0.1030 -0.0372 -0.2358
    1SOL     OW 6249   1.791   3.250   2.714  0.7381  0.5949 -0.4283
    1SOL    HW2 6250   1.809   3.336   2.678  0.5349  0.6061 -0.5090
    1SOL    HW3 6251   1.861   3.194   2.681  0.9513  0.7587 -0.2574
    1SOL    MW4 6252   1.802   3.254   2.705  0.7393  0.6182 -0.4163
    1SOL     OW 6253   1.772   3.528   2.643 -0.0293 -0.6713 -0.0741
    1SOL    HW2 6254   1.842   3.586   2.672  0.0722 -0.8384  0.0209
    1SOL    HW3 6255   1.774   3.533   2.548 -0.9812  0.6132 -0.0382
    1SOL    MW4 6256   1.782   3.536   2.635 -0.1414 -0.5238 -0.0570
    1SOL     OW 6257   2.022   3.649   2.735  0.0839 -0.3578  0.2879
    1SOL    HW2 6258   2.021   3.643   2.831  0.4885  1.0003  0.3868
    1SOL    HW3 6259   2.103   3.606   2.709  1.1133  1.2876  0.7200
    1SOL    MW4 6260   2.032   3.642   2.745  0.2732  0.0384  0.3581
    1SOL     OW 6261   2.016   3.903   2.605  0.3162 -0.0008  0.0187
    1SOL    HW2 6262   1.944   3.941   2.654  1.5498 -0.5223  2.3153
    1SOL    HW3 6263   2.039   3.824   2.654  0.8920 -1.1325 -2.0123
    1SOL    MW4 6264   2.009   3.897   2.618  0.5548 -0.2189  0.0536
    1SOL     OW 6265   1.811   4.027   2.746 -0.0585 -0.0169 -0.0262
    1SOL    HW2 6266   1.807   4.115   2.709 -0.6035  0.5672  1.3909
    1SOL    HW3 6267   1.730   3.985   2.718 -0.3084  0.2991  0.2347
    1SOL    MW4 6268   1.800   4.033   2.737 -0.1636  0.1016  0.1950
    1SOL     OW 6269   1.796   4.273   2.631 -0.6318 -0.3174 -0.3907
    1SOL    HW2 6270   1.713   4.300   2.671 -0.7452  0.0437 -0.8768
    1SOL    HW3 6271   1.780   4.276   2.537  0.4095  1.2757 -0.5373
    1SOL    MW4 6272   1.783   4.277   2.624 -0.5095 -0.0601 -0.4745
    1SOL     OW 6273   2.007   4.409   2.722 -0.0621 -0.1510  0.4765
    1SOL    HW2 6274   1.933   4.365   2.681  0.5261 -1.7088  1.0420
    1SOL    HW3 6275   2.000   4.501   2.694 -1.1858 -0.6489 -0.8946
    1SOL    MW4 6276   1.997   4.416   2.713 -0.1327 -0.4220  0.3700
    1SOL     OW 6277   2.437   4.650   2.651  0.1711 -0.1928  0.0364
    1SOL    HW2 6278   2.510   4.699   2.687  1.0244 -1.2814 -0.1633
    1SOL    HW3 6279   2.453   4.649   2.556 -1.3578  1.5450 -0.2647
    1SOL    MW4 6280   2.449   4.656   2.643  0.0820 -0.1073 -0.0298
    1SOL     OW 6281   2.214   0.101   2.750  0.0722  0.0049  0.1382
    1SOL    HW2 6282   2.280   0.044   2.711  0.2882 -0.6031  1.3607
    1SOL    HW3 6283   2.241   0.109   2.842 -0.7389  0.9430  0.2987
    1SOL    MW4 6284   2.226   0.094   2.757 -0.0064  0.0485  0.3207
    1SOL     OW 6285   2.263   0.368   2.631  0.1205  0.0463  0.2124
    1SOL    HW2 6286   2.249   0.355   2.537 -2.6411 -0.7795  0.7154
    1SOL    HW3 6287   2.276   0.279   2.666  0.4055  0.2899  0.7336
    1SOL    MW4 6288   2.263   0.354   2.623 -0.2060 -0.0305  0.3479
    1SOL     OW 6289   2.455   0.518   2.749  0.4714 -0.0859 -0.0796
    1SOL    HW2 6290   2.456   0.601   2.703  2.1665 -0.3982 -0.6670
    1SOL    HW3 6291   2.379   0.472   2.715  0.8365  0.3070 -1.4615
    1SOL    MW4 6292   2.445   0.523   2.739  0.7432 -0.0753 -0.3395
    1SOL     OW 6293   2.459   0.764   2.638  0.2494  0.5519 -0.1636
    1SOL    HW2 6294   2.372   0.797   2.662  0.4267  1.0386 -0.1844
    1SOL    HW3 6295   2.460   0.765   2.542  0.3685  0.7766 -0.1592
    1SOL    MW4 6296   2.448   0.768   2.628  0.2887  0.6458 -0.1657
    1SOL     OW 6297   2.213   0.867   2.705  0.0521 -0.4184 -0.1230
    1SOL    HW2 6298   2.224   0.880   2.799 -0.8421 -0.1545 -0.0572
    1SOL    HW3 6299   2.126   0.829   2.696 -0.7897  1.6541 -1.0218
    1SOL    MW4 6300   2.203   0.864   2.716 -0.1769 -0.1101 -0.2327
    1SOL     OW 6301   2.221   1.143   2.626 -0.0754 -0.5802 -0.4436
    1SOL    HW2 6302   2.217   1.053   2.657  0.9505 -0.6120 -0.3777
    1SOL    HW3 6303   2.292   1.183   2.677 -0.6933  0.3325 -0.2934
    1SOL    MW4 6304   2.230   1.137   2.637 -0.0217 -0.4640 -0.4151
    1SOL     OW 6305   2.476   1.255   2.698  0.5783 -0.2633  0.2042
    1SOL    HW2 6306   2.472   1.343   2.661  0.3703 -0.6231 -0.6344
    1SOL    HW3 6307   2.561   1.222   2.672  0.4394 -0.5105  0.0615
    1SOL    MW4 6308   2.486   1.262   2.689  0.5326 -0.3433  0.0749
    1SOL     OW 6309   2.447   1.532   2.596 -0.0285 -0.0449  0.0892
    1SOL    HW2 6310   2.367   1.570   2.633 -0.3048  1.0843 -1.6074
    1SOL    HW3 6311   2.518   1.582   2.636 -0.2414  0.0319  0.3759
    1SOL    MW4 6312   2.446   1.543   2.606 -0.0930  0.1143 -0.0968
    1SOL     OW 6313   2.244   1.667   2.716 -0.2760 -0.0507  0.0852
    1SOL    HW2 6314   2.242   1.754   2.677 -0.5055 -0.1235 -0.0671
    1SOL    HW3 6315   2.162   1.626   2.687  0.2683 -0.6493 -0.6076
    1SOL    MW4 6316   2.233   1.673   2.707 -0.2341 -0.1394 -0.0265
    1SOL     OW 6317   2.227   1.918   2.602 -0.6134  0.4328  0.3922
    1SOL    HW2 6318   2.153   1.973   2.627  0.6108  2.0959  0.4169
    1SOL    HW3 6319   2.239   1.934   2.509 -0.7296 -0.3920  0.2292
    1SOL    MW4 6320   2.219   1.927   2.593 -0.4671  0.5434  0.3741
    1SOL     OW 6321   2.459   2.017   2.727  0.1574  0.2764 -0.1270
    1SOL    HW2 6322   2.455   2.100   2.679 -0.1090  0.0315 -0.5324
    1SOL    HW3 6323   2.392   1.963   2.686  0.6621 -0.3088 -0.1777
    1SOL    MW4 6324   2.449   2.021   2.715  0.1888  0.1669 -0.1872
    1SOL     OW 6325   2.447   2.283   2.639  0.0118  0.0275  0.0584
    1SOL    HW2 6326   2.529   2.318   2.674  0.3514  0.3695 -1.0510
    1SOL    HW3 6327   2.442   2.318   2.550 -0.9000 -0.7115 -0.1916
    1SOL    MW4 6328   2.457   2.292   2.632 -0.0637 -0.0250 -0.1209
    1SOL     OW 6329   2.228   2.451   2.679 -0.4504 -0.4989  0.2805
    1SOL    HW2 6330   2.227   2.476   2.772  1.7812  1.4637 -0.1896
    1SOL    HW3 6331   2.304   2.395   2.670 -0.1099  0.0944 -0.5649
    1SOL    MW4 6332   2.238   2.447   2.690 -0.1113 -0.1616  0.1070
    1SOL     OW 6333   2.206   2.710   2.653 -0.2769 -0.0664  0.2213
    1SOL    HW2 6334   2.292   2.742   2.680 -0.2090  0.5434 -0.6984
    1SOL    HW3 6335   2.214   2.614   2.655  0.1974 -0.0145  0.8300
    1SOL    MW4 6336   2.218   2.701   2.657 -0.2058  0.0205  0.1802
    1SOL     OW 6337   2.420   2.881   2.747  0.5556 -0.0750 -0.0779
    1SOL    HW2 6338   2.502   2.843   2.715  0.4246 -0.7010  0.3209
    1SOL    HW3 6339   2.425   2.973   2.723  1.2831 -0.1578 -0.2482
    1SOL    MW4 6340   2.431   2.888   2.739  0.6342 -0.1686 -0.0477
    1SOL     OW 6341   2.480   3.122   2.610  0.2640  0.6571 -0.2432
    1SOL    HW2 6342   2.399   3.166   2.633 -0.1203 -0.0547 -0.2259
    1SOL    HW3 6343   2.471   3.100   2.518  0.2715  0.2224 -0.1408
    1SOL    MW4 6344   2.468   3.125   2.601  0.2139  0.5057 -0.2270
    1SOL     OW 6345   2.249   3.249   2.701 -0.2746  0.5739 -0.1801
    1SOL    HW2 6346   2.262   3.244   2.796  1.4393 -1.2789 -0.4774
    1SOL    HW3 6347   2.162   3.212   2.687 -0.8940  1.6318  0.7159
    1SOL    MW4 6348   2.239   3.244   2.712 -0.1299  0.4687 -0.1011
    1SOL     OW 6349   2.246   3.515   2.623  0.2474 -0.5223  0.4255
    1SOL    HW2 6350   2.325   3.560   2.654 -0.0463 -0.7338  1.5188
    1SOL    HW3 6351   2.253   3.427   2.660 -0.8741 -0.3095  1.1562
    1SOL    MW4 6352   2.257   3.509   2.632  0.0606 -0.5221  0.6664
    1SOL     OW 6353   2.479   3.650   2.725 -0.3382 -0.4382  0.7691
    1SOL    HW2 6354   2.503   3.661   2.817 -0.8511 -1.3629  1.0186
    1SOL    HW3 6355   2.457   3.738   2.695  0.3057 -0.0587  1.3934
    1SOL    MW4 6356   2.479   3.663   2.733 -0.3209 -0.5100  0.8845
    1SOL     OW 6357   2.485   3.912   2.616 -0.1089  0.4851 -0.1927
    1SOL    HW2 6358   2.551   3.972   2.650 -0.2136  0.4732  0.0311
    1SOL    HW3 6359   2.403   3.944   2.652  0.1838 -1.6732  2.5558
    1SOL    MW4 6360   2.483   3.924   2.625 -0.0842  0.1986  0.1996
    1SOL     OW 6361   2.255   4.007   2.724 -0.1022 -0.0870  0.1941
    1SOL    HW2 6362   2.239   4.003   2.818  0.6351 -1.0735  0.2815
    1SOL    HW3 6363   2.176   3.969   2.685  1.2698 -3.4367  0.5712
    1SOL    MW4 6364   2.242   4.001   2.731  0.1764 -0.6590  0.2553
    1SOL     OW 6365   2.237   4.278   2.655  0.2009  0.3590 -0.0171
    1SOL    HW2 6366   2.241   4.186   2.681 -0.1609  0.0404 -1.0828
    1SOL    HW3 6367   2.162   4.313   2.703  0.5367  0.1900  0.6454
    1SOL    MW4 6368   2.227   4.270   2.665  0.1974  0.2952 -0.0703
    1SOL     OW 6369   2.471   4.386   2.761  0.1069  0.1944 -0.1866
    1SOL    HW2 6370   2.388   4.346   2.736  0.3423 -0.2463 -0.2792
    1SOL    HW3 6371   2.469   4.473   2.721  0.4076 -0.4356 -1.6241
    1SOL    MW4 6372   2.460   4.392   2.752  0.1779  0.0534 -0.3886
    1SOL     OW 6373   2.863   4.659   2.688 -0.0892  0.7028  0.3888
    1SOL    HW2 6374   2.940   4.703   2.723 -0.2587  1.7807 -0.5842
    1SOL    HW3 6375   2.875   4.661   2.593 -0.9752  0.2496  0.2654
    1SOL    MW4 6376   2.875   4.665   2.680 -0.2286  0.7852  0.2439
    1SOL     OW 6377   2.613   0.140   2.759 -0.2487 -0.1918  0.2951
    1SOL    HW2 6378   2.599   0.116   2.850  0.8806 -1.6911  0.0934
    1SOL    HW3 6379   2.691   0.090   2.732 -0.3103  0.5520 -1.3525
    1SOL    MW4 6380   2.622   0.130   2.767 -0.1078 -0.2915  0.0513
    1SOL     OW 6381   2.666   0.385   2.634  0.3911 -0.1426  0.1746
    1SOL    HW2 6382   2.656   0.297   2.670 -0.7083 -0.1839 -0.1995
    1SOL    HW3 6383   2.597   0.436   2.675 -0.3774  0.0030 -1.2505
    1SOL    MW4 6384   2.656   0.380   2.644  0.1445 -0.1288 -0.0627
    1SOL     OW 6385   2.875   0.503   2.734  0.2291 -0.0884 -0.7255
    1SOL    HW2 6386   2.859   0.590   2.698  0.4685  1.2158  2.1746
    1SOL    HW3 6387   2.797   0.453   2.713 -1.8076  2.1368  1.3036
    1SOL    MW4 6388   2.863   0.507   2.727 -0.0076  0.3773 -0.0751
    1SOL     OW 6389   2.884   0.758   2.637  0.0700 -0.4486 -0.4070
    1SOL    HW2 6390   2.965   0.794   2.675 -0.1928 -0.2593 -0.0228
    1SOL    HW3 6391   2.816   0.819   2.665 -0.3772 -1.2248  0.2143
    1SOL    MW4 6392   2.886   0.771   2.646 -0.0236 -0.5261 -0.2742
    1SOL     OW 6393   2.673   0.915   2.734  0.0522 -0.1690 -0.1258
    1SOL    HW2 6394   2.646   0.913   2.826 -1.2475  3.2969 -0.3763
    1SOL    HW3 6395   2.598   0.877   2.687 -1.0171  1.7771 -0.0614
    1SOL    MW4 6396   2.659   0.909   2.740 -0.2604  0.5450 -0.1507
    1SOL     OW 6397   2.727   1.156   2.610 -0.3142 -0.0955  0.1220
    1SOL    HW2 6398   2.778   1.220   2.659  0.7039 -0.7309 -0.1083
    1SOL    HW3 6399   2.728   1.077   2.664 -0.2869 -0.3918 -0.3084
    1SOL    MW4 6400   2.734   1.154   2.623 -0.1764 -0.2185  0.0348
    1SOL     OW 6401   2.877   1.327   2.759 -0.1169 -0.2128  0.2790
    1SOL    HW2 6402   2.885   1.318   2.854 -0.9518  0.2519  0.3973
    1SOL    HW3 6403   2.951   1.278   2.724 -0.1684 -0.9191  1.1499
    1SOL    MW4 6404   2.888   1.320   2.767 -0.2337 -0.2446  0.4096
    1SOL     OW 6405   2.939   1.572   2.648  0.0201  0.2101  0.1117
    1SOL    HW2 6406   2.859   1.622   2.666 -0.6968 -0.9653  0.3070
    1SOL    HW3 6407   2.919   1.483   2.679  1.2131 -0.2295 -0.3282
    1SOL    MW4 6408   2.926   1.567   2.655  0.0830 -0.0030  0.0792
    1SOL     OW 6409   2.674   1.679   2.686 -0.4337  0.0778  0.5948
    1SOL    HW2 6410   2.673   1.678   2.781 -2.4402  0.6780  0.6001
    1SOL    HW3 6411   2.675   1.772   2.662  0.8031 -0.0718  0.0241
    1SOL    MW4 6412   2.674   1.691   2.695 -0.5352  0.1371  0.5202
    1SOL     OW 6413   2.697   1.924   2.606 -0.3512  0.3263 -0.0692
    1SOL    HW2 6414   2.763   1.975   2.653  1.4091 -0.2950 -1.7557
    1SOL    HW3 6415   2.614   1.951   2.644  0.6702  3.0711  0.3503
    1SOL    MW4 6416   2.695   1.934   2.617  0.0157  0.6065 -0.2365
    1SOL     OW 6417   2.892   2.055   2.736 -0.0499  0.0684 -0.0735
    1SOL    HW2 6418   2.978   2.026   2.704 -1.0305 -0.6545 -2.1636
    1SOL    HW3 6419   2.880   2.142   2.697 -0.1188  0.3067  0.4816
    1SOL    MW4 6420   2.902   2.063   2.726 -0.1884  0.0043 -0.2759
    1SOL     OW 6421   2.877   2.313   2.606  0.1743 -0.0647 -0.0481
    1SOL    HW2 6422   2.963   2.336   2.643 -0.3530  3.4022 -0.8960
    1SOL    HW3 6423   2.814   2.363   2.657 -1.0774  0.0222 -1.6365
    1SOL    MW4 6424   2.880   2.322   2.618 -0.0603  0.4041 -0.3695
    1SOL     OW 6425   2.673   2.458   2.744  0.2752  0.0399  0.2772
    1SOL    HW2 6426   2.664   2.455   2.839  0.0371 -0.2168  0.2457
    1SOL    HW3 6427   2.652   2.549   2.721  0.9063  0.2562  0.5282
    1SOL    MW4 6428   2.669   2.470   2.754  0.3269  0.0346  0.3064
    1SOL     OW 6429   2.638   2.709   2.646  0.0912 -0.0624 -0.0020
    1SOL    HW2 6430   2.718   2.748   2.682 -0.5414  1.5692 -0.2970
    1SOL    HW3 6431   2.661   2.687   2.555  0.0233  1.0021 -0.2828
    1SOL    MW4 6432   2.652   2.711   2.639 -0.0010  0.2933 -0.0777
    1SOL     OW 6433   2.874   2.792   2.761 -0.5530 -0.0825 -0.1629
    1SOL    HW2 6434   2.953   2.753   2.726 -1.2049 -0.3308 -1.3876
    1SOL    HW3 6435   2.891   2.802   2.854  1.6343  1.6201 -0.7241
    1SOL    MW4 6436   2.886   2.788   2.769 -0.3505  0.1092 -0.3984
    1SOL     OW 6437   2.915   3.079   2.678  0.1417  0.1879  0.1417
    1SOL    HW2 6438   2.834   3.126   2.699 -0.6962 -0.5994 -1.2664
    1SOL    HW3 6439   2.901   2.991   2.713 -0.5337 -0.6086 -2.0823
    1SOL    MW4 6440   2.903   3.074   2.686 -0.0579 -0.0212 -0.3374
    1SOL     OW 6441   2.692   3.242   2.732  0.4046  0.4474  0.4584
    1SOL    HW2 6442   2.695   3.331   2.697  0.1749  0.8636  1.4847
    1SOL    HW3 6443   2.617   3.202   2.687 -0.0827  1.0781  0.6939
    1SOL    MW4 6444   2.682   3.248   2.721  0.3102  0.5856  0.6249
    1SOL     OW 6445   2.688   3.506   2.632  0.3328  0.6650 -0.0869
    1SOL    HW2 6446   2.617   3.563   2.661 -0.7282 -0.7390  0.0978
    1SOL    HW3 6447   2.679   3.503   2.537 -0.6318 -0.5201  0.0396
    1SOL    MW4 6448   2.678   3.513   2.623  0.0656  0.3233 -0.0460
    1SOL     OW 6449   2.897   3.624   2.761 -0.0595 -0.6353 -0.1086
    1SOL    HW2 6450   2.884   3.598   2.852  0.3002 -0.8138 -0.1042
    1SOL    HW3 6451   2.836   3.569   2.711 -0.0744 -0.7204  0.0031
    1SOL    MW4 6452   2.888   3.613   2.766 -0.0141 -0.6704 -0.0935
    1SOL     OW 6453   2.921   3.902   2.646  0.3341  0.0676 -0.4709
    1SOL    HW2 6454   3.003   3.933   2.685  0.6640  0.2546 -1.2821
    1SOL    HW3 6455   2.901   3.821   2.692  0.9344  0.0616 -0.2113
    1SOL    MW4 6456   2.930   3.896   2.657  0.4568  0.0913 -0.5438
    1SOL     OW 6457   2.728   4.048   2.738 -0.2256 -0.0384  0.4122
    1SOL    HW2 6458   2.720   4.124   2.680 -0.3530  0.1268  0.6455
    1SOL    HW3 6459   2.795   3.994   2.696  0.2516  0.4568  0.5213
    1SOL    MW4 6460   2.736   4.051   2.725 -0.1795  0.0486  0.4575
    1SOL     OW 6461   2.682   4.289   2.614  0.1548  0.1352  0.0215
    1SOL    HW2 6462   2.754   4.314   2.672  0.1507  1.4052 -0.5124
    1SOL    HW3 6463   2.603   4.315   2.661  0.1696  1.7378 -0.7855
    1SOL    MW4 6464   2.681   4.296   2.628  0.1564  0.5136 -0.1554
    1SOL     OW 6465   2.915   4.385   2.747 -0.1586 -0.7629  0.5932
    1SOL    HW2 6466   2.926   4.369   2.841  2.2552 -0.7103  0.3366
    1SOL    HW3 6467   2.906   4.480   2.740 -0.1565 -0.7490  0.7557
    1SOL    MW4 6468   2.915   4.395   2.759  0.1600 -0.7544  0.5805
    1SOL     OW 6469   3.355   4.643   2.622 -0.0327  0.7180  0.1365
    1SOL    HW2 6470   3.357   4.555   2.660  0.9173  0.2761 -0.9054
    1SOL    HW3 6471   3.273   4.681   2.654 -0.6834 -0.7167  0.2017
    1SOL    MW4 6472   3.344   4.636   2.632  0.0072  0.4706  0.0076
    1SOL     OW 6473   3.131   0.122   2.720 -0.0959  0.0698 -0.1777
    1SOL    HW2 6474   3.116   0.115   2.814 -2.4911  0.6485 -0.4767
    1SOL    HW3 6475   3.119   0.215   2.700 -0.9875 -0.2595 -1.2579
    1SOL    MW4 6476   3.127   0.133   2.729 -0.5295  0.1027 -0.3600
    1SOL     OW 6477   3.119   0.401   2.664  0.6761  0.1897  0.1146
    1SOL    HW2 6478   3.037   0.447   2.685  0.2584 -0.9698  1.1278
    1SOL    HW3 6479   3.120   0.396   2.569 -0.9705 -0.6900  0.1168
    1SOL    MW4 6480   3.108   0.406   2.655  0.4039 -0.0793  0.2484
    1SOL     OW 6481   3.330   0.526   2.745 -0.1519  0.4666 -0.0084
    1SOL    HW2 6482   3.303   0.613   2.715  0.1409  0.5330 -0.0821
    1SOL    HW3 6483   3.264   0.466   2.710  0.3097  0.5112 -0.9707
    1SOL    MW4 6484   3.318   0.530   2.737 -0.0522  0.4812 -0.1450
    1SOL     OW 6485   3.309   0.795   2.664 -0.0306 -0.1188  0.2737
    1SOL    HW2 6486   3.396   0.819   2.695  0.2779  0.6785 -1.1645
    1SOL    HW3 6487   3.316   0.797   2.569 -1.6885  0.1870  0.1466
    1SOL    MW4 6488   3.321   0.798   2.656 -0.2086  0.0267  0.0672
    1SOL     OW 6489   3.084   0.928   2.740  0.2420 -0.0197  0.2640
    1SOL    HW2 6490   3.105   0.919   2.833  2.2487  1.1533 -0.0369
    1SOL    HW3 6491   3.161   0.893   2.695 -0.5881 -0.3083 -0.9578
    1SOL    MW4 6492   3.097   0.922   2.746  0.3972  0.0969  0.0629
    1SOL     OW 6493   3.099   1.194   2.650  0.0796  0.1719  0.1481
    1SOL    HW2 6494   3.093   1.103   2.677  0.1552  0.1840  0.2092
    1SOL    HW3 6495   3.101   1.192   2.554  2.7897 -0.0879  0.1591
    1SOL    MW4 6496   3.099   1.182   2.641  0.4470  0.1390  0.1574
    1SOL     OW 6497   3.336   1.288   2.754 -0.0432 -0.2466 -0.0114
    1SOL    HW2 6498   3.341   1.265   2.847  0.5121 -0.5831 -0.1193
    1SOL    HW3 6499   3.252   1.254   2.726  1.3629 -3.5284 -0.5096
    1SOL    MW4 6500   3.326   1.280   2.763  0.2155 -0.7240 -0.0916
    1SOL     OW 6501   3.340   1.516   2.590  0.3351  0.1907 -0.2589
    1SOL    HW2 6502   3.287   1.575   2.644 -0.1677 -1.0205  0.5906
    1SOL    HW3 6503   3.349   1.437   2.642  0.6948 -0.6350 -1.5371
    1SOL    MW4 6504   3.334   1.513   2.604  0.3161 -0.0780 -0.3154
    1SOL     OW 6505   3.181   1.703   2.731  0.3499 -0.1272 -0.8801
    1SOL    HW2 6506   3.103   1.660   2.696 -1.0267  1.7328 -0.1862
    1SOL    HW3 6507   3.186   1.672   2.822  0.1426  0.1043 -0.7879
    1SOL    MW4 6508   3.171   1.693   2.738  0.1407  0.1488 -0.7763
    1SOL     OW 6509   3.149   1.955   2.632 -0.4638 -0.1372  0.4744
    1SOL    HW2 6510   3.236   1.991   2.650  0.3306 -0.9754 -1.5050
    1SOL    HW3 6511   3.155   1.865   2.662 -0.1624 -0.6086 -0.9557
    1SOL    MW4 6512   3.162   1.948   2.638 -0.3188 -0.3101  0.0241
    1SOL     OW 6513   3.396   2.058   2.707  0.0862 -0.1208  0.6010
    1SOL    HW2 6514   3.384   2.055   2.802 -1.8381  0.2589  0.3750
    1SOL    HW3 6515   3.401   2.151   2.686 -1.8236 -0.1315  0.0499
    1SOL    MW4 6516   3.395   2.070   2.717 -0.4196 -0.0720  0.4985
    1SOL     OW 6517   3.368   2.311   2.646  0.0457 -0.3123  0.1322
    1SOL    HW2 6518   3.445   2.356   2.681 -0.3146  1.0146 -0.7668
    1SOL    HW3 6519   3.380   2.314   2.551  0.2144 -2.4750  0.0492
    1SOL    MW4 6520   3.380   2.317   2.638  0.0205 -0.4227  0.0029
    1SOL     OW 6521   3.125   2.420   2.726 -0.2130  0.3936  0.0511
    1SOL    HW2 6522   3.213   2.393   2.699 -0.3426  0.8671 -0.8464
    1SOL    HW3 6523   3.129   2.419   2.822 -0.4355 -3.5447  0.1216
    1SOL    MW4 6524   3.137   2.416   2.735 -0.2596 -0.0637 -0.0584
    1SOL     OW 6525   3.098   2.701   2.622 -0.0942 -0.1648 -0.2628
    1SOL    HW2 6526   3.181   2.747   2.634 -0.6476  0.5134  0.9782
    1SOL    HW3 6527   3.114   2.613   2.658  0.2533 -0.2142 -0.5371
    1SOL    MW4 6528   3.111   2.695   2.629 -0.1216 -0.0820 -0.1352
    1SOL     OW 6529   3.347   2.819   2.731 -0.1551 -0.1786 -0.2890
    1SOL    HW2 6530   3.350   2.837   2.825 -2.1840  1.1934 -0.4553
    1SOL    HW3 6531   3.434   2.786   2.710 -0.1703 -2.0360  2.3796
    1SOL    MW4 6532   3.359   2.817   2.740 -0.4249 -0.2427  0.0410
    1SOL     OW 6533   3.350   3.103   2.651 -0.0257  0.0555 -0.3226
    1SOL    HW2 6534   3.352   3.009   2.670 -1.3767 -0.3033 -1.8522
    1SOL    HW3 6535   3.340   3.108   2.556 -0.5008  1.7604 -0.2048
    1SOL    MW4 6536   3.349   3.091   2.641 -0.2666  0.2329 -0.5090
    1SOL     OW 6537   3.132   3.232   2.750  0.0625 -0.2893  0.1611
    1SOL    HW2 6538   3.218   3.192   2.732  0.3342  0.0042  0.8046
    1SOL    HW3 6539   3.069   3.167   2.718  0.5263  0.8451 -3.2861
    1SOL    MW4 6540   3.135   3.218   2.743  0.1597 -0.1009 -0.2089
    1SOL     OW 6541   3.117   3.514   2.647 -0.0468 -0.0525  0.1580
    1SOL    HW2 6542   3.108   3.425   2.680  1.2499 -0.0992  0.3786
    1SOL    HW3 6543   3.046   3.563   2.690  0.2090 -0.6239  1.2271
    1SOL    MW4 6544   3.106   3.509   2.657  0.1581 -0.1342  0.3281
    1SOL     OW 6545   3.352   3.636   2.716  0.0647  0.2623  0.1567
    1SOL    HW2 6546   3.341   3.633   2.811 -3.3554  1.1880 -0.1423
    1SOL    HW3 6547   3.279   3.584   2.682  1.8553 -0.9498 -1.9721
    1SOL    MW4 6548   3.341   3.629   2.724 -0.1502  0.2246 -0.1636
    1SOL     OW 6549   3.381   3.886   2.619  0.2814  0.0896  0.2894
    1SOL    HW2 6550   3.371   3.802   2.663 -0.4869 -0.3764 -0.7510
    1SOL    HW3 6551   3.365   3.867   2.527  1.9065  1.0398 -0.2117
    1SOL    MW4 6552   3.378   3.873   2.613  0.3946  0.1533  0.0861
    1SOL     OW 6553   3.159   4.007   2.766  0.3438 -0.1180  0.0832
    1SOL    HW2 6554   3.168   4.098   2.737  0.1631  0.0143  0.4360
    1SOL    HW3 6555   3.237   3.963   2.732  1.2184  0.5141  1.2539
    1SOL    MW4 6556   3.170   4.014   2.757  0.4354 -0.0167  0.2844
    1SOL     OW 6557   3.130   4.241   2.609  0.0015 -0.0498  0.5970
    1SOL    HW2 6558   3.051   4.287   2.639  0.1904  0.8985 -0.3464
    1SOL    HW3 6559   3.113   4.221   2.517  0.9470  0.3553  0.3257
    1SOL    MW4 6560   3.117   4.244   2.601  0.1512  0.1287  0.4365
    1SOL     OW 6561   3.347   4.385   2.720  0.0562 -0.5436  0.0594
    1SOL    HW2 6562   3.333   4.385   2.815  0.1155  0.4788  0.0825
    1SOL    HW3 6563   3.277   4.331   2.685  1.7714 -3.4284  0.9062
    1SOL    MW4 6564   3.336   4.378   2.728  0.2904 -0.7892  0.1743
    1SOL     OW 6565   3.807   4.628   2.637  0.1120  0.2653  0.3484
    1SOL    HW2 6566   3.819   4.547   2.685 -0.0789  0.2647  0.3982
    1SOL    HW3 6567   3.722   4.661   2.667  0.2853  0.5865  0.4824
    1SOL    MW4 6568   3.797   4.622   2.647  0.1099  0.3076  0.3726
    1SOL     OW 6569   3.583   0.108   2.724  0.5980 -0.3742 -0.2662
    1SOL    HW2 6570   3.580   0.202   2.709  2.3768 -0.3064 -0.3321
    1SOL    HW3 6571   3.498   0.076   2.694  0.6746  0.9680 -1.9862
    1SOL    MW4 6572   3.571   0.116   2.718  0.8428 -0.1882 -0.5019
    1SOL     OW 6573   3.553   0.377   2.653  0.4250 -0.0327  0.4448
    1SOL    HW2 6574   3.633   0.418   2.683 -0.3694  0.0056  2.5541
    1SOL    HW3 6575   3.483   0.432   2.687 -0.5170 -0.2897 -1.0374
    1SOL    MW4 6576   3.554   0.390   2.661  0.1962 -0.0615  0.5274
    1SOL     OW 6577   3.787   0.492   2.715 -0.5307  0.2693 -0.0547
    1SOL    HW2 6578   3.793   0.491   2.811 -0.7028 -0.3392 -0.0444
    1SOL    HW3 6579   3.860   0.437   2.686 -1.7058 -1.2643 -0.1932
    1SOL    MW4 6580   3.798   0.484   2.724 -0.7086 -0.0134 -0.0715
    1SOL     OW 6581   3.808   0.772   2.663 -0.5626  0.3727 -0.3274
    1SOL    HW2 6582   3.727   0.810   2.696 -0.2983  0.8609 -0.2311
    1SOL    HW3 6583   3.797   0.678   2.674 -0.9100  0.4694  0.1501
    1SOL    MW4 6584   3.796   0.765   2.668 -0.5734  0.4499 -0.2518
    1SOL     OW 6585   3.554   0.873   2.744  0.0605 -0.0093  0.3683
    1SOL    HW2 6586   3.561   0.879   2.839 -0.0477 -0.1485  0.3865
    1SOL    HW3 6587   3.558   0.964   2.714  0.8895 -0.0189  0.4441
    1SOL    MW4 6588   3.555   0.886   2.753  0.1557 -0.0290  0.3805
    1SOL     OW 6589   3.556   1.134   2.640  0.4428 -0.0199  0.5483
    1SOL    HW2 6590   3.628   1.191   2.665 -0.7947  0.7938  2.3962
    1SOL    HW3 6591   3.480   1.169   2.687 -1.1909 -0.7595 -1.4517
    1SOL    MW4 6592   3.555   1.146   2.650  0.0641 -0.0101  0.5283
    1SOL     OW 6593   3.767   1.267   2.723 -0.1694 -0.0542  0.6956
    1SOL    HW2 6594   3.841   1.218   2.686 -1.0579 -1.3508  0.5896
    1SOL    HW3 6595   3.771   1.353   2.681  0.0340 -0.8300 -0.9098
    1SOL    MW4 6596   3.777   1.272   2.712 -0.2599 -0.3275  0.4697
    1SOL     OW 6597   3.776   1.520   2.633  0.3863  0.4702 -0.5838
    1SOL    HW2 6598   3.860   1.560   2.653  0.9821 -0.8600 -0.3511
    1SOL    HW3 6599   3.716   1.554   2.699  1.3849 -0.7021  0.9636
    1SOL    MW4 6600   3.779   1.530   2.644  0.5965  0.1401 -0.3488
    1SOL     OW 6601   3.537   1.635   2.759  0.4301 -0.3713 -0.0452
    1SOL    HW2 6602   3.552   1.723   2.726  2.7369 -0.9608 -0.6919
    1SOL    HW3 6603   3.484   1.592   2.691  0.3835  0.1178 -0.3180
    1SOL    MW4 6604   3.532   1.641   2.746  0.7284 -0.3846 -0.1667
    1SOL     OW 6605   3.612   1.907   2.651 -0.3426 -0.2151  0.5643
    1SOL    HW2 6606   3.538   1.962   2.675 -1.8851 -2.0946  0.1933
    1SOL    HW3 6607   3.608   1.902   2.555 -0.0460 -0.7291  0.5741
    1SOL    MW4 6608   3.602   1.914   2.641 -0.5069 -0.5310  0.5169
    1SOL     OW 6609   3.836   2.043   2.768 -0.4647 -0.4402 -0.1744
    1SOL    HW2 6610   3.916   2.004   2.733 -0.2038 -1.8055  1.8592
    1SOL    HW3 6611   3.765   2.001   2.719 -0.0157 -0.7447 -0.5664
    1SOL    MW4 6612   3.837   2.032   2.757 -0.3710 -0.6607  0.0422
    1SOL     OW 6613   3.787   2.294   2.654 -0.2331 -0.0941 -0.1438
    1SOL    HW2 6614   3.815   2.211   2.693  1.3967  0.9364  0.9514
    1SOL    HW3 6615   3.797   2.281   2.560 -1.0523 -1.4993 -0.0524
    1SOL    MW4 6616   3.792   2.281   2.647 -0.1261 -0.1435  0.0129
    1SOL     OW 6617   3.589   2.459   2.740  0.1886 -0.0593  0.5027
    1SOL    HW2 6618   3.588   2.453   2.835  0.0007  0.8855  0.5692
    1SOL    HW3 6619   3.653   2.393   2.712  0.0642 -0.5070  1.2624
    1SOL    MW4 6620   3.597   2.449   2.749  0.1473  0.0067  0.6120
    1SOL     OW 6621   3.602   2.724   2.663 -0.0002  0.3927 -0.4703
    1SOL    HW2 6622   3.602   2.633   2.694  2.0419  0.4024 -0.3807
    1SOL    HW3 6623   3.614   2.716   2.568  2.5419  0.5943 -0.2095
    1SOL    MW4 6624   3.604   2.711   2.655  0.6044  0.4206 -0.4241
    1SOL     OW 6625   3.834   2.854   2.727 -0.2098 -0.4321  0.3379
    1SOL    HW2 6626   3.910   2.819   2.680  0.7015  1.6578  0.1625
    1SOL    HW3 6627   3.759   2.808   2.690  0.8573 -1.5248 -0.4977
    1SOL    MW4 6628   3.834   2.843   2.716  0.0510 -0.3004  0.2043
    1SOL     OW 6629   3.819   3.119   2.636 -0.4514  0.1477 -0.5949
    1SOL    HW2 6630   3.737   3.161   2.663  0.3255  1.3720 -0.1226
    1SOL    HW3 6631   3.812   3.030   2.670 -0.6763  0.8646  1.3003
    1SOL    MW4 6632   3.807   3.113   2.644 -0.3786  0.4039 -0.2825
    1SOL     OW 6633   3.571   3.223   2.764 -0.4644 -0.0602  0.0476
    1SOL    HW2 6634   3.573   3.311   2.728 -0.0678 -0.5169 -1.0682
    1SOL    HW3 6635   3.495   3.182   2.724 -0.7763 -0.1661  0.7335
    1SOL    MW4 6636   3.561   3.229   2.754 -0.4532 -0.1345 -0.0091
    1SOL     OW 6637   3.595   3.475   2.658  0.1455 -0.7021  0.4734
    1SOL    HW2 6638   3.672   3.517   2.695  0.4429  0.7158 -1.6285
    1SOL    HW3 6639   3.521   3.526   2.692  0.1971 -1.3042  1.5114
    1SOL    MW4 6640   3.595   3.487   2.667  0.1915 -0.5944  0.3331
    1SOL     OW 6641   3.801   3.624   2.741 -0.0483  0.0346 -0.4532
    1SOL    HW2 6642   3.889   3.600   2.714 -0.1120  0.6910 -1.2724
    1SOL    HW3 6643   3.787   3.711   2.703 -0.7446  0.2851  0.3491
    1SOL    MW4 6644   3.811   3.632   2.733 -0.1483  0.1540 -0.4554
    1SOL     OW 6645   3.795   3.889   2.618  0.0887 -0.2442  0.2585
    1SOL    HW2 6646   3.877   3.934   2.640  0.2987 -0.2818 -0.4278
    1SOL    HW3 6647   3.729   3.935   2.669 -0.1974  3.0412 -2.8956
    1SOL    MW4 6648   3.797   3.901   2.628  0.0792  0.1843 -0.2484
    1SOL     OW 6649   3.608   4.003   2.767  0.5714 -0.1571 -0.2959
    1SOL    HW2 6650   3.626   4.089   2.730  0.5596  0.2715  0.6598
    1SOL    HW3 6651   3.526   3.975   2.726  0.0870  0.7063  0.0833
    1SOL    MW4 6652   3.599   4.010   2.757  0.5059  0.0134 -0.1197
    1SOL     OW 6653   3.628   4.250   2.655 -0.0131  0.4802  0.1541
    1SOL    HW2 6654   3.553   4.301   2.683 -0.7387 -0.5088  0.0264
    1SOL    HW3 6655   3.625   4.252   2.559 -0.0068  0.2654  0.1472
    1SOL    MW4 6656   3.618   4.257   2.646 -0.1075  0.3214  0.1364
    1SOL     OW 6657   3.832   4.395   2.777 -0.5094 -0.1063 -0.0202
    1SOL    HW2 6658   3.901   4.342   2.735 -0.6636  0.0343 -0.4585
    1SOL    HW3 6659   3.751   4.350   2.754 -0.6091  0.0740 -0.0214
    1SOL    MW4 6660   3.830   4.382   2.768 -0.5429 -0.0644 -0.0782
    1SOL     OW 6661   4.245   4.601   2.619 -0.2532  0.3327 -0.1019
    1SOL    HW2 6662   4.175   4.658   2.649  0.5590  0.9058  0.7345
    1SOL    HW3 6663   4.323   4.633   2.664  0.0869 -1.8749  0.9354
    1SOL    MW4 6664   4.246   4.613   2.628 -0.1016  0.1173  0.1452
    1SOL     OW 6665   4.032   0.100   2.693  0.1240 -0.2506 -0.2768
    1SOL    HW2 6666   4.036   0.106   2.789 -0.3523 -0.5301 -0.2396
    1SOL    HW3 6667   3.950   0.053   2.675  0.3064 -0.3635 -0.8163
    1SOL    MW4 6668   4.021   0.095   2.703  0.0854 -0.3024 -0.3431
    1SOL     OW 6669   4.008   0.357   2.609 -0.2729 -0.5314 -0.0768
    1SOL    HW2 6670   4.022   0.267   2.638  0.9145 -0.9701 -1.9651
    1SOL    HW3 6671   4.011   0.353   2.514  1.6830  1.7944 -0.1634
    1SOL    MW4 6672   4.010   0.345   2.601  0.1426 -0.2824 -0.3374
    1SOL     OW 6673   4.214   0.491   2.725 -0.6320  0.2492 -0.4695
    1SOL    HW2 6674   4.145   0.443   2.678 -0.4152 -2.4194  1.8214
    1SOL    HW3 6675   4.296   0.457   2.689 -0.4756  0.2921 -0.1513
    1SOL    MW4 6676   4.215   0.480   2.714 -0.5822 -0.0973 -0.1252
    1SOL     OW 6677   4.257   0.740   2.623  0.3683  0.0212  0.0363
    1SOL    HW2 6678   4.239   0.648   2.645 -1.0403  0.3717  0.3779
    1SOL    HW3 6679   4.248   0.744   2.528  2.5113 -0.6298 -0.2276
    1SOL    MW4 6680   4.254   0.728   2.614  0.4654 -0.0184  0.0467
    1SOL     OW 6681   4.053   0.900   2.738 -0.2056  0.1207 -0.0732
    1SOL    HW2 6682   4.126   0.845   2.710 -0.9161 -0.7589 -0.2280
    1SOL    HW3 6683   3.975   0.852   2.710 -0.8716  0.4974  1.0882
    1SOL    MW4 6684   4.052   0.886   2.731 -0.3872  0.0544  0.0594
    1SOL     OW 6685   4.036   1.138   2.644 -0.9912 -0.0363  0.2697
    1SOL    HW2 6686   4.099   1.197   2.685 -2.2112  1.4342  0.0356
    1SOL    HW3 6687   4.055   1.052   2.683  0.3607  0.6113  1.0712
    1SOL    MW4 6688   4.047   1.134   2.655 -0.9737  0.2431  0.3445
    1SOL     OW 6689   4.238   1.290   2.751  0.3831 -0.1544 -0.3483
    1SOL    HW2 6690   4.260   1.378   2.721  1.0247 -0.1596  0.0869
    1SOL    HW3 6691   4.315   1.237   2.729  1.0946 -0.0370  1.7832
    1SOL    MW4 6692   4.251   1.295   2.744  0.5617 -0.1396 -0.0095
    1SOL     OW 6693   4.280   1.523   2.611  0.2955 -0.3208  0.2308
    1SOL    HW2 6694   4.353   1.578   2.640 -0.7607  1.4359 -0.4003
    1SOL    HW3 6695   4.285   1.524   2.515 -0.7455  0.0592  0.1784
    1SOL    MW4 6696   4.290   1.530   2.602  0.0186 -0.0390  0.1402
    1SOL     OW 6697   4.020   1.616   2.699  0.1214 -0.3225  0.3983
    1SOL    HW2 6698   4.030   1.610   2.794  1.3888  1.0352  0.3606
    1SOL    HW3 6699   4.104   1.589   2.664  0.4043  1.3470 -0.2554
    1SOL    MW4 6700   4.032   1.611   2.707  0.3262  0.0768  0.3071
    1SOL     OW 6701   4.028   1.892   2.637  0.1773 -0.5975  0.4119
    1SOL    HW2 6702   4.107   1.922   2.681 -1.7739  1.7524  2.4801
    1SOL    HW3 6703   4.025   1.797   2.653  1.6025 -0.4004  1.8558
    1SOL    MW4 6704   4.038   1.883   2.645  0.1082 -0.2614  0.8755
    1SOL     OW 6705   4.247   2.051   2.746 -0.1519  0.8915  0.0576
    1SOL    HW2 6706   4.240   2.142   2.717  0.9566  1.4579  1.5395
    1SOL    HW3 6707   4.333   2.023   2.714  0.4355  1.0512  1.4962
    1SOL    MW4 6708   4.257   2.059   2.738  0.0720  0.9873  0.4430
    1SOL     OW 6709   4.244   2.302   2.653 -0.3048 -0.5440 -0.2587
    1SOL    HW2 6710   4.159   2.341   2.674  0.6554  1.9118 -0.7361
    1SOL    HW3 6711   4.250   2.307   2.557  0.8181  0.3573 -0.1637
    1SOL    MW4 6712   4.234   2.308   2.643 -0.0300 -0.1013 -0.3090
    1SOL     OW 6713   4.009   2.440   2.737 -0.2646 -0.2348  0.1440
    1SOL    HW2 6714   4.008   2.440   2.833  0.1732  0.4945  0.1507
    1SOL    HW3 6715   3.924   2.403   2.712 -0.4751 -0.2051  0.8139
    1SOL    MW4 6716   3.998   2.435   2.746 -0.2348 -0.1347  0.2337
    1SOL     OW 6717   4.054   2.699   2.600  0.2555  0.4721  0.0074
    1SOL    HW2 6718   4.124   2.738   2.652 -0.7738  1.4142  0.7218
    1SOL    HW3 6719   4.044   2.610   2.636  0.0334  0.8711  0.9681
    1SOL    MW4 6720   4.062   2.692   2.612  0.0906  0.6487  0.2282
    1SOL     OW 6721   4.286   2.809   2.726  0.2591  0.2645 -0.3395
    1SOL    HW2 6722   4.287   2.826   2.820  0.3328 -1.4476 -0.0173
    1SOL    HW3 6723   4.261   2.893   2.686 -1.1763  0.6207  1.2894
    1SOL    MW4 6724   4.283   2.823   2.733  0.0792  0.0856 -0.0818
    1SOL     OW 6725   4.203   3.049   2.632  0.0249 -0.5834 -0.0086
    1SOL    HW2 6726   4.145   3.121   2.658  0.4973 -0.7886  1.6346
    1SOL    HW3 6727   4.186   3.038   2.538 -2.1405 -0.2319  0.3230
    1SOL    MW4 6728   4.193   3.057   2.623 -0.1988 -0.5639  0.2520
    1SOL     OW 6729   4.034   3.259   2.715 -0.5059  0.0493  0.3428
    1SOL    HW2 6730   4.020   3.345   2.675 -1.4113 -0.0824  0.3456
    1SOL    HW3 6731   3.953   3.211   2.695 -0.0806 -0.7353  0.4999
    1SOL    MW4 6732   4.021   3.264   2.707 -0.5689 -0.0715  0.3636
    1SOL     OW 6733   4.035   3.510   2.626 -0.5701 -0.6888  0.3035
    1SOL    HW2 6734   4.115   3.546   2.666 -0.6216  1.1751 -1.1603
    1SOL    HW3 6735   4.055   3.508   2.532 -2.3052 -0.0001 -0.1015
    1SOL    MW4 6736   4.048   3.514   2.619 -0.8059 -0.3521  0.0570
    1SOL     OW 6737   4.272   3.622   2.736  0.4813  0.5600 -0.5751
    1SOL    HW2 6738   4.293   3.602   2.827 -0.4340  0.4526 -0.3861
    1SOL    HW3 6739   4.341   3.579   2.686  1.0661  0.7365  0.0764
    1SOL    MW4 6740   4.284   3.613   2.741  0.4377  0.5693 -0.4644
    1SOL     OW 6741   4.276   3.882   2.641 -0.6452 -0.3485  0.1732
    1SOL    HW2 6742   4.274   3.792   2.675  0.8133 -0.8295 -0.9559
    1SOL    HW3 6743   4.348   3.924   2.688  0.7170 -0.7142 -1.5548
    1SOL    MW4 6744   4.285   3.876   2.652 -0.2732 -0.4604 -0.2038
    1SOL     OW 6745   4.021   4.007   2.721  0.0170 -0.6214 -0.0938
    1SOL    HW2 6746   4.030   3.982   2.813  0.4297 -0.3649 -0.0628
    1SOL    HW3 6747   4.099   3.972   2.678  0.1381 -0.2015 -0.2239
    1SOL    MW4 6748   4.032   3.999   2.727  0.0873 -0.5322 -0.1068
    1SOL     OW 6749   4.020   4.268   2.637 -0.0717  0.3397 -0.2798
    1SOL    HW2 6750   4.019   4.176   2.662  3.5728  0.4294  0.4315
    1SOL    HW3 6751   4.012   4.266   2.541 -2.1243 -0.5673 -0.1208
    1SOL    MW4 6752   4.019   4.255   2.627  0.1383  0.2313 -0.1647
    1SOL     OW 6753   4.279   4.344   2.706 -0.2654 -0.2090  0.2286
    1SOL    HW2 6754   4.196   4.303   2.684  1.2238 -2.3912 -1.4296
    1SOL    HW3 6755   4.275   4.430   2.664 -2.0397  0.0883  0.9524
    1SOL    MW4 6756   4.268   4.350   2.698 -0.3033 -0.4582  0.1056
    1SOL     OW 6757   0.197   4.649   3.171  0.2301  0.4816  0.4312
    1SOL    HW2 6758   0.180   4.647   3.265 -0.6097 -0.5457  0.2663
    1SOL    HW3 6759   0.115   4.681   3.132  0.1072 -0.4073 -0.0516
    1SOL    MW4 6760   0.184   4.653   3.178  0.1031  0.2284  0.3459
    1SOL     OW 6761   4.485   0.053   3.018  0.0566 -0.3913 -0.2558
    1SOL    HW2 6762   4.402   0.019   3.052 -0.1480 -0.4321 -0.7850
    1SOL    HW3 6763   4.491   0.142   3.054  0.0850 -0.6136  0.2858
    1SOL    MW4 6764   4.475   0.060   3.027  0.0334 -0.4260 -0.2544
    1SOL     OW 6765   4.483   0.318   3.118  0.0215  0.6593 -0.3595
    1SOL    HW2 6766   4.459   0.324   3.211  0.9534  0.0606 -0.0719
    1SOL    HW3 6767   4.410   0.359   3.072 -0.4253  1.0116  0.6436
    1SOL    MW4 6768   4.470   0.324   3.124  0.0854  0.6268 -0.1891
    1SOL     OW 6769   0.227   0.466   3.021 -0.0412  0.1871  0.1730
    1SOL    HW2 6770   0.304   0.428   3.063 -0.3627  0.2607  0.8298
    1SOL    HW3 6771   0.153   0.415   3.053 -0.3654  0.7098  0.2722
    1SOL    MW4 6772   0.228   0.454   3.031 -0.1264  0.2657  0.2730
    1SOL     OW 6773   0.227   0.738   3.095 -0.4976 -0.0310  0.2975
    1SOL    HW2 6774   0.223   0.752   3.189 -1.2528 -0.6911  0.3630
    1SOL    HW3 6775   0.240   0.644   3.084  1.8756  0.3310 -0.2122
    1SOL    MW4 6776   0.228   0.728   3.106 -0.2842 -0.0704  0.2389
    1SOL     OW 6777   0.002   0.895   3.001  0.4949 -0.1236 -0.4499
    1SOL    HW2 6778   0.075   0.834   3.011  1.6534  1.0996 -1.2830
    1SOL    HW3 6779  -0.022   0.890   2.909 -1.8888 -2.0605  0.2135
    1SOL    MW4 6780   0.008   0.886   2.990  0.3333 -0.2177 -0.4723
    1SOL     OW 6781   0.014   1.149   3.123  0.5072 -0.1041 -0.2286
    1SOL    HW2 6782  -0.064   1.193   3.092 -1.8894 -1.8879  2.9728
    1SOL    HW3 6783   0.014   1.064   3.078  0.6010 -0.1052 -0.2286
    1SOL    MW4 6784   0.004   1.143   3.113  0.2031 -0.3396  0.1938
    1SOL     OW 6785   0.243   1.280   3.017  0.1138  0.1385 -0.0992
    1SOL    HW2 6786   0.172   1.241   3.069  2.4792 -2.4429  1.3613
    1SOL    HW3 6787   0.224   1.255   2.927 -1.0010 -0.2848  0.2525
    1SOL    MW4 6788   0.231   1.271   3.012  0.2788 -0.2580  0.1397
    1SOL     OW 6789   0.240   1.532   3.120 -0.2820 -0.5295 -0.0966
    1SOL    HW2 6790   0.164   1.569   3.076  0.9882 -1.2313 -3.0130
    1SOL    HW3 6791   0.250   1.444   3.082  0.7430 -1.2738  1.7908
    1SOL    MW4 6792   0.232   1.525   3.109  0.0208 -0.7203 -0.2325
    1SOL     OW 6793   4.480   1.644   3.031 -0.0596  0.0313  0.1106
    1SOL    HW2 6794   4.400   1.615   3.074  0.5870 -1.1876  0.5388
    1SOL    HW3 6795   4.494   1.733   3.063 -1.5197  0.4366 -0.3790
    1SOL    MW4 6796   4.472   1.652   3.041 -0.1669 -0.0761  0.1028
    1SOL     OW 6797   4.489   1.900   3.124 -0.2979 -0.2674 -0.1009
    1SOL    HW2 6798   4.416   1.950   3.088 -0.8525 -0.5981  0.5506
    1SOL    HW3 6799   4.565   1.957   3.112 -0.6638  0.1006 -0.7354
    1SOL    MW4 6800   4.489   1.914   3.118 -0.4191 -0.2626 -0.0985
    1SOL     OW 6801   0.225   2.053   3.024  0.3652  0.0787  0.7595
    1SOL    HW2 6802   0.219   2.146   3.046  0.2468  0.3484 -0.4088
    1SOL    HW3 6803   0.224   2.050   2.929  0.9220 -1.0909  0.7786
    1SOL    MW4 6804   0.224   2.065   3.014  0.4231 -0.0401  0.6082
    1SOL     OW 6805   0.179   2.320   3.122  0.5405  0.4679  0.0666
    1SOL    HW2 6806   0.178   2.293   3.214  0.5640 -0.3363 -0.1677
    1SOL    HW3 6807   0.264   2.362   3.110  1.1834 -0.8331  0.0135
    1SOL    MW4 6808   0.190   2.322   3.133  0.6285  0.1903  0.0286
    1SOL     OW 6809   4.451   2.440   3.013  0.0868  0.5234 -0.5520
    1SOL    HW2 6810   4.455   2.526   3.055 -0.7993 -0.3486  1.3829
    1SOL    HW3 6811   4.533   2.397   3.039 -0.3996  0.0333  0.1870
    1SOL    MW4 6812   4.463   2.446   3.022 -0.0944  0.3436 -0.1993
    1SOL     OW 6813   0.010   2.704   3.073 -0.0849  0.4554 -0.0220
    1SOL    HW2 6814   0.010   2.705   3.169  0.8152  2.1270 -0.0129
    1SOL    HW3 6815   0.091   2.749   3.049 -0.3897  0.2008 -1.5659
    1SOL    MW4 6816   0.021   2.710   3.083 -0.0062  0.6423 -0.2244
    1SOL     OW 6817   0.226   2.855   2.988  0.2034  0.2100  0.1897
    1SOL    HW2 6818   0.304   2.808   3.017 -1.4607 -2.0770  1.1565
    1SOL    HW3 6819   0.240   2.871   2.895  1.2475 -1.3543  0.0656
    1SOL    MW4 6820   0.238   2.851   2.980  0.1216 -0.2978  0.3009
    1SOL     OW 6821   0.200   3.063   3.148 -0.0741  0.1847  0.2215
    1SOL    HW2 6822   0.129   3.112   3.106 -0.4934 -0.0379  0.6601
    1SOL    HW3 6823   0.203   2.980   3.101  0.0888  0.3130  0.0094
    1SOL    MW4 6824   0.191   3.059   3.137 -0.1079  0.1721  0.2513
    1SOL     OW 6825   4.471   3.196   3.010 -0.0926  0.6368 -0.2011
    1SOL    HW2 6826   4.390   3.158   3.044 -0.8527  3.0989  0.8014
    1SOL    HW3 6827   4.461   3.193   2.915 -1.3397  0.9078 -0.0744
    1SOL    MW4 6828   4.459   3.191   3.002 -0.3567  0.9978 -0.0522
    1SOL     OW 6829   0.020   3.446   3.090 -0.1318  0.3233 -0.3759
    1SOL    HW2 6830  -0.071   3.470   3.072 -0.7795 -1.3119  0.6100
    1SOL    HW3 6831   0.024   3.352   3.074  1.5182  0.4534 -0.8719
    1SOL    MW4 6832   0.008   3.437   3.085  0.0004  0.1247 -0.3111
    1SOL     OW 6833   0.219   3.598   2.997 -0.5980 -0.5294  0.2332
    1SOL    HW2 6834   0.227   3.680   3.047  1.7205 -0.1716 -0.6386
    1SOL    HW3 6835   0.140   3.556   3.032 -1.5853  1.8555  1.0140
    1SOL    MW4 6836   0.210   3.604   3.008 -0.4224 -0.1676  0.2210
    1SOL     OW 6837   0.219   3.840   3.126  0.4012 -0.2598 -0.6836
    1SOL    HW2 6838   0.233   3.863   3.218 -0.8507  0.4075 -0.6571
    1SOL    HW3 6839   0.294   3.879   3.080  1.5150 -1.3581  0.1511
    1SOL    MW4 6840   0.231   3.848   3.132  0.3830 -0.3166 -0.5698
    1SOL     OW 6841   4.487   3.989   3.027 -0.5010 -0.1098  0.2248
    1SOL    HW2 6842   4.564   3.939   3.053  1.3843  2.3289 -0.5100
    1SOL    HW3 6843   4.492   3.993   2.932 -2.5390 -1.4134  0.0217
    1SOL    MW4 6844   4.498   3.983   3.018 -0.5212  0.0398  0.1009
    1SOL     OW 6845   4.480   4.269   3.121 -0.5715 -0.4127 -0.0720
    1SOL    HW2 6846   4.490   4.263   3.216  1.7397 -0.0746 -0.2665
    1SOL    HW3 6847   4.484   4.178   3.091  1.2092 -0.3548 -0.0528
    1SOL    MW4 6848   4.481   4.256   3.130 -0.0315 -0.3610 -0.0951
    1SOL     OW 6849   0.228   4.413   3.039 -0.1465 -0.2539  0.2273
    1SOL    HW2 6850   0.155   4.367   3.079 -1.5776  1.1006 -0.7837
    1SOL    HW3 6851   0.233   4.496   3.086 -1.4564  1.0922 -1.9320
    1SOL    MW4 6852   0.219   4.418   3.051 -0.5081  0.1025 -0.1912
    1SOL     OW 6853   0.685   0.003   3.102  0.1676 -0.2641 -0.4096
    1SOL    HW2 6854   0.691  -0.084   3.062 -0.2818  0.6356 -2.5235
    1SOL    HW3 6855   0.598   0.035   3.076  0.0205  0.4923  1.0087
    1SOL    MW4 6856   0.674  -0.004   3.093  0.0889 -0.0458 -0.5014
    1SOL     OW 6857   0.432   0.074   3.060  0.1532  0.0544 -0.1328
    1SOL    HW2 6858   0.427   0.160   3.100 -0.0042  0.2739 -0.6190
    1SOL    HW3 6859   0.362   0.023   3.102  0.0259  0.2661 -0.0883
    1SOL    MW4 6860   0.422   0.079   3.071  0.1156  0.1113 -0.1912
    1SOL     OW 6861   0.443   0.342   3.139 -0.0513 -0.1423  0.0350
    1SOL    HW2 6862   0.442   0.373   3.230  1.9542  1.1403 -0.3444
    1SOL    HW3 6863   0.525   0.375   3.104 -0.6443 -0.9395 -2.1581
    1SOL    MW4 6864   0.454   0.351   3.146  0.1351 -0.0783 -0.3042
    1SOL     OW 6865   0.642   0.502   2.975 -0.6680 -0.1851  0.4436
    1SOL    HW2 6866   0.718   0.454   3.007 -0.2907 -0.8431 -1.3800
    1SOL    HW3 6867   0.639   0.582   3.028  1.2773 -0.1581  0.5215
    1SOL    MW4 6868   0.651   0.506   2.987 -0.3616 -0.2683  0.2134
    1SOL     OW 6869   0.692   0.746   3.087  0.2857 -0.0042 -0.0550
    1SOL    HW2 6870   0.681   0.782   3.175 -2.2856  0.5993 -0.5835
    1SOL    HW3 6871   0.767   0.793   3.051 -0.4560  1.8822  0.7827
    1SOL    MW4 6872   0.700   0.757   3.094 -0.1514  0.3244 -0.0143
    1SOL     OW 6873   0.459   0.886   3.025 -0.1570 -0.2249 -0.1294
    1SOL    HW2 6874   0.386   0.829   3.048 -0.3201  0.3201  0.6945
    1SOL    HW3 6875   0.537   0.837   3.052 -0.3408  0.3907  1.5541
    1SOL    MW4 6876   0.460   0.872   3.031 -0.2028 -0.0718  0.2015
    1SOL     OW 6877   0.456   1.154   3.112 -0.1377  0.1469 -0.2969
    1SOL    HW2 6878   0.450   1.060   3.093 -0.0319  0.2700 -0.9634
    1SOL    HW3 6879   0.378   1.191   3.070 -1.1058  0.1367  1.4329
    1SOL    MW4 6880   0.445   1.146   3.104 -0.2515  0.1618 -0.1569
    1SOL     OW 6881   0.700   1.237   2.999  0.0807  0.0195 -0.1368
    1SOL    HW2 6882   0.767   1.182   3.041  0.5035 -0.1874 -1.0714
    1SOL    HW3 6883   0.618   1.208   3.039  0.4046 -0.6169  0.0875
    1SOL    MW4 6884   0.698   1.226   3.010  0.1792 -0.0918 -0.2306
    1SOL     OW 6885   0.651   1.503   3.088  0.5149 -0.3008 -0.1461
    1SOL    HW2 6886   0.660   1.500   3.183 -1.3426  0.3025  0.0658
    1SOL    HW3 6887   0.673   1.415   3.059 -0.2085 -0.8610  0.9814
    1SOL    MW4 6888   0.655   1.491   3.096  0.1744 -0.2952  0.0308
    1SOL     OW 6889   0.447   1.655   2.982 -0.3633 -0.0429  0.6248
    1SOL    HW2 6890   0.528   1.621   3.019 -0.5860 -2.1907 -0.7728
    1SOL    HW3 6891   0.378   1.615   3.035 -0.5883 -0.5819 -0.0709
    1SOL    MW4 6892   0.448   1.645   2.994 -0.4224 -0.3973  0.3488
    1SOL     OW 6893   0.441   1.898   3.106 -0.0639 -0.0096  0.6051
    1SOL    HW2 6894   0.428   1.805   3.089  0.6520 -0.1236  0.6775
    1SOL    HW3 6895   0.364   1.940   3.067 -0.3702 -0.6255  0.5383
    1SOL    MW4 6896   0.429   1.891   3.098 -0.0098 -0.1060  0.6058
    1SOL     OW 6897   0.661   2.044   3.009  0.1027  0.0816 -0.0599
    1SOL    HW2 6898   0.739   2.002   3.045 -1.0553 -1.5705  0.6058
    1SOL    HW3 6899   0.588   1.993   3.045 -1.2155  0.4620 -2.1214
    1SOL    MW4 6900   0.662   2.031   3.018 -0.2240 -0.0865 -0.2441
    1SOL     OW 6901   0.653   2.302   3.121 -0.1899  0.1438 -0.1038
    1SOL    HW2 6902   0.652   2.307   3.216  1.0473 -0.3682 -0.0556
    1SOL    HW3 6903   0.656   2.208   3.102 -1.4678  0.2024 -0.6687
    1SOL    MW4 6904   0.653   2.290   3.131 -0.1953  0.0837 -0.1719
    1SOL     OW 6905   0.422   2.440   3.050  0.3228  0.4176  0.0156
    1SOL    HW2 6906   0.497   2.392   3.086 -0.7066 -1.2365  0.0389
    1SOL    HW3 6907   0.423   2.420   2.957  0.5024  1.2263 -0.1583
    1SOL    MW4 6908   0.432   2.431   3.043  0.2106  0.3059 -0.0043
    1SOL     OW 6909   0.422   2.708   3.125  0.3871 -0.0860  0.7199
    1SOL    HW2 6910   0.512   2.736   3.109  0.3102 -0.0970  0.2753
    1SOL    HW3 6911   0.422   2.615   3.104 -0.3280  0.4331 -1.7453
    1SOL    MW4 6912   0.434   2.699   3.120  0.2826 -0.0191  0.3362
    1SOL     OW 6913   0.673   2.819   3.012  0.4252  0.4903  0.2415
    1SOL    HW2 6914   0.758   2.790   3.044  0.1309 -1.0472 -0.3177
    1SOL    HW3 6915   0.671   2.913   3.029  1.4981  0.2182  1.9180
    1SOL    MW4 6916   0.684   2.828   3.018  0.5279  0.2515  0.3889
    1SOL     OW 6917   0.678   3.094   3.075 -0.2073 -0.0251 -0.8683
    1SOL    HW2 6918   0.678   3.112   3.170 -0.8317 -0.1570 -0.8403
    1SOL    HW3 6919   0.590   3.117   3.047  0.2353  0.8462 -1.5813
    1SOL    MW4 6920   0.667   3.100   3.084 -0.2313  0.0722 -0.9584
    1SOL     OW 6921   0.414   3.171   2.986  0.1082  0.3773  0.2940
    1SOL    HW2 6922   0.424   3.258   3.024 -2.9110  0.5797  0.7868
    1SOL    HW3 6923   0.351   3.127   3.044 -0.7347 -1.0518 -1.6420
    1SOL    MW4 6924   0.407   3.177   2.999 -0.4014  0.2155  0.1037
    1SOL     OW 6925   0.430   3.433   3.082  0.1719 -0.3332  0.2269
    1SOL    HW2 6926   0.432   3.437   3.178 -0.2746 -1.4789  0.2954
    1SOL    HW3 6927   0.357   3.489   3.057  0.9150  0.7676  0.5003
    1SOL    MW4 6928   0.421   3.441   3.091  0.2110 -0.3393  0.2720
    1SOL     OW 6929   0.649   3.567   2.989  0.3199  0.9018 -0.0291
    1SOL    HW2 6930   0.727   3.540   3.037  0.7514 -0.6040 -1.5505
    1SOL    HW3 6931   0.576   3.528   3.038  0.8580 -1.9854 -1.4805
    1SOL    MW4 6932   0.650   3.558   3.002  0.4479  0.3223 -0.4213
    1SOL     OW 6933   0.661   3.842   3.074  1.0014  0.5122 -0.1470
    1SOL    HW2 6934   0.653   3.821   3.168  1.1055 -0.7030 -0.3938
    1SOL    HW3 6935   0.641   3.759   3.030 -1.6543  1.7398 -1.3017
    1SOL    MW4 6936   0.658   3.828   3.081  0.6647  0.5136 -0.3319
    1SOL     OW 6937   0.438   3.996   3.030 -0.3012  0.0078  0.0537
    1SOL    HW2 6938   0.521   3.959   3.061 -0.1737  1.0450  0.9845
    1SOL    HW3 6939   0.440   3.982   2.935  2.3756  2.8011 -0.3735
    1SOL    MW4 6940   0.449   3.989   3.021  0.0688  0.5133  0.1202
    1SOL     OW 6941   0.458   4.272   3.140  0.5187 -0.3482 -0.1108
    1SOL    HW2 6942   0.454   4.181   3.112  0.6820 -0.7732  1.2140
    1SOL    HW3 6943   0.370   4.307   3.122  0.0297 -1.1613  0.6828
    1SOL    MW4 6944   0.446   4.265   3.134  0.4758 -0.5112  0.1688
    1SOL     OW 6945   0.677   4.402   3.028 -0.2740 -0.0908  0.1823
    1SOL    HW2 6946   0.593   4.366   3.057 -0.3046  0.1933  0.4522
    1SOL    HW3 6947   0.669   4.408   2.933 -0.8526  0.6363  0.2645
    1SOL    MW4 6948   0.665   4.398   3.019 -0.3543  0.0424  0.2284
    1SOL     OW 6949   1.114   4.663   3.139 -0.1147 -0.7601  0.4466
    1SOL    HW2 6950   1.198   4.684   3.097  0.2224  0.1220  1.5506
    1SOL    HW3 6951   1.050   4.715   3.091  0.2296  0.0105  0.8156
    1SOL    MW4 6952   1.117   4.672   3.127 -0.0248 -0.5420  0.6409
    1SOL     OW 6953   0.901   0.129   3.009  0.2106 -0.1744 -0.0054
    1SOL    HW2 6954   0.896   0.223   3.029  0.3961 -0.1049 -0.2819
    1SOL    HW3 6955   0.812   0.097   3.025  0.7619 -0.4707  2.5868
    1SOL    MW4 6956   0.888   0.137   3.013  0.3077 -0.2043  0.3002
    1SOL     OW 6957   0.876   0.397   3.096 -0.2464  0.2928  0.2338
    1SOL    HW2 6958   0.886   0.400   3.192 -0.1160 -0.0668  0.2331
    1SOL    HW3 6959   0.954   0.442   3.063  0.0924 -0.2591  0.2811
    1SOL    MW4 6960   0.887   0.403   3.105 -0.1845  0.1725  0.2398
    1SOL     OW 6961   1.123   0.496   2.991 -0.2789  0.1089 -0.1239
    1SOL    HW2 6962   1.197   0.443   3.019  0.8958  2.2011  0.7957
    1SOL    HW3 6963   1.130   0.500   2.895  1.5161  1.3112  0.0434
    1SOL    MW4 6964   1.133   0.490   2.982  0.1129  0.5436  0.0196
    1SOL     OW 6965   1.170   0.767   3.047  0.3136 -0.0195 -0.5690
    1SOL    HW2 6966   1.161   0.780   3.141 -0.8297  0.5687 -0.7446
    1SOL    HW3 6967   1.150   0.675   3.034 -1.0714  0.2344 -0.3946
    1SOL    MW4 6968   1.166   0.757   3.058 -0.0200  0.0916 -0.5691
    1SOL     OW 6969   0.918   0.871   2.982 -0.5183 -0.6602  0.2904
    1SOL    HW2 6970   0.927   0.952   3.033 -0.8735 -0.3957 -0.0650
    1SOL    HW3 6971   0.997   0.821   3.002  0.2532  0.2685 -0.3831
    1SOL    MW4 6972   0.930   0.875   2.992 -0.4634 -0.5028  0.1547
    1SOL     OW 6973   0.920   1.108   3.124  0.1233  0.2496 -0.1730
    1SOL    HW2 6974   0.927   1.104   3.220 -1.3554  1.7177  0.0210
    1SOL    HW3 6975   0.990   1.169   3.099  1.2402 -0.9927 -0.1541
    1SOL    MW4 6976   0.930   1.116   3.134  0.0755  0.2793 -0.1450
    1SOL     OW 6977   1.118   1.282   3.030  0.3604 -0.1263  0.0970
    1SOL    HW2 6978   1.206   1.245   3.040 -0.1104 -1.2697  0.1061
    1SOL    HW3 6979   1.105   1.287   2.935  1.0192  1.4753  0.0835
    1SOL    MW4 6980   1.128   1.277   3.019  0.3852 -0.0658  0.0963
    1SOL     OW 6981   1.121   1.529   3.147 -0.0866  0.1711 -0.0362
    1SOL    HW2 6982   1.191   1.573   3.099  0.9666  0.1496  1.4418
    1SOL    HW3 6983   1.123   1.439   3.116 -0.2199  0.4461 -0.8404
    1SOL    MW4 6984   1.131   1.523   3.137  0.0347  0.2046  0.0525
    1SOL     OW 6985   0.896   1.671   3.028  0.1257  0.0742 -0.2779
    1SOL    HW2 6986   0.963   1.618   3.072  0.0810 -0.1916 -0.5337
    1SOL    HW3 6987   0.814   1.628   3.047 -0.2208  1.6106  1.8711
    1SOL    MW4 6988   0.894   1.659   3.036  0.0740  0.2419 -0.0284
    1SOL     OW 6989   0.905   1.952   3.084 -0.3354  0.1970  0.3891
    1SOL    HW2 6990   0.898   1.944   3.179 -0.7578  0.3164  0.3686
    1SOL    HW3 6991   0.932   1.865   3.055  1.8520  0.6919  0.8017
    1SOL    MW4 6992   0.908   1.939   3.093 -0.1025  0.2780  0.4408
    1SOL     OW 6993   1.110   2.102   2.991 -0.2515 -0.2823  0.0283
    1SOL    HW2 6994   1.037   2.056   3.033 -0.2707 -0.3816 -0.1148
    1SOL    HW3 6995   1.091   2.098   2.897 -0.0788 -0.2798 -0.0075
    1SOL    MW4 6996   1.098   2.095   2.984 -0.2313 -0.2949  0.0048
    1SOL     OW 6997   1.101   2.355   3.089  0.1831  0.3271 -0.2209
    1SOL    HW2 6998   1.020   2.396   3.059 -0.6992 -0.7443  0.6339
    1SOL    HW3 6999   1.092   2.263   3.064  0.8003  0.0496  0.5552
    1SOL    MW4 7000   1.089   2.348   3.082  0.1483  0.1490 -0.0055
    1SOL     OW 7001   0.852   2.474   3.024 -0.2192 -0.6502  0.4457
    1SOL    HW2 7002   0.770   2.430   3.047  0.0676 -1.5048 -0.1467
    1SOL    HW3 7003   0.870   2.446   2.934 -0.1385  0.8485 -0.0197
    1SOL    MW4 7004   0.843   2.465   3.015 -0.1708 -0.5651  0.3061
    1SOL     OW 7005   0.907   2.743   3.096 -0.1894  0.5012 -0.1685
    1SOL    HW2 7006   0.894   2.746   3.190 -0.0127 -0.3409 -0.1164
    1SOL    HW3 7007   0.882   2.654   3.070  0.0473  0.6289 -0.8674
    1SOL    MW4 7008   0.902   2.732   3.105 -0.1348  0.4070 -0.2539
    1SOL     OW 7009   1.149   2.833   2.985 -0.3087 -0.7523 -0.0499
    1SOL    HW2 7010   1.148   2.923   3.019  1.2687 -0.3884 -0.8830
    1SOL    HW3 7011   1.070   2.793   3.019  0.4118  0.0741  2.7353
    1SOL    MW4 7012   1.139   2.840   2.994 -0.0056 -0.5951  0.2077
    1SOL     OW 7013   1.137   3.083   3.122 -0.3772 -0.6980  0.2407
    1SOL    HW2 7014   1.203   3.151   3.110 -0.3213 -0.6593  0.7766
    1SOL    HW3 7015   1.056   3.121   3.089 -0.5084 -0.0952  1.2417
    1SOL    MW4 7016   1.135   3.097   3.116 -0.3872 -0.6137  0.4435
    1SOL     OW 7017   0.916   3.213   3.016  0.2595  0.1263  0.4322
    1SOL    HW2 7018   0.827   3.185   3.036  0.1496  1.0119  1.2269
    1SOL    HW3 7019   0.916   3.228   2.922 -0.2378 -0.5473  0.3193
    1SOL    MW4 7020   0.904   3.212   3.006  0.1794  0.1545  0.5221
    1SOL     OW 7021   0.901   3.496   3.100 -0.3753 -0.1242  0.0564
    1SOL    HW2 7022   0.973   3.547   3.064  0.6723 -0.9446  0.9302
    1SOL    HW3 7023   0.914   3.408   3.063 -1.7130  0.0299 -0.8347
    1SOL    MW4 7024   0.912   3.491   3.090 -0.4136 -0.2122  0.0539
    1SOL     OW 7025   1.112   3.654   2.993 -0.0144 -0.5849 -0.1982
    1SOL    HW2 7026   1.189   3.607   3.024 -0.8557 -1.1361  1.1075
    1SOL    HW3 7027   1.104   3.728   3.053 -0.0369 -0.0787 -0.8278
    1SOL    MW4 7028   1.121   3.657   3.005 -0.1283 -0.5908 -0.1092
    1SOL     OW 7029   1.127   3.896   3.137 -0.1178 -0.4623 -0.1027
    1SOL    HW2 7030   1.130   3.879   3.231 -1.3329 -0.3260 -0.0254
    1SOL    HW3 7031   1.041   3.935   3.123 -0.5133 -1.7796 -1.4756
    1SOL    MW4 7032   1.116   3.899   3.148 -0.3303 -0.6180 -0.2737
    1SOL     OW 7033   0.897   4.003   3.032  0.0593 -0.1264 -0.2083
    1SOL    HW2 7034   0.811   3.961   3.032 -0.4754  0.9454 -0.2570
    1SOL    HW3 7035   0.924   4.004   2.940  0.3250 -0.8450 -0.1448
    1SOL    MW4 7036   0.889   3.997   3.020  0.0237 -0.0799 -0.2065
    1SOL     OW 7037   0.892   4.251   3.135  0.0027 -0.2194 -0.2101
    1SOL    HW2 7038   0.875   4.165   3.098  0.6753  0.1296 -1.3686
    1SOL    HW3 7039   0.817   4.304   3.108  0.1522 -0.1452 -0.4806
    1SOL    MW4 7040   0.880   4.247   3.126  0.1112 -0.1631 -0.3984
    1SOL     OW 7041   1.114   4.387   3.034  0.0101 -0.3937  0.1729
    1SOL    HW2 7042   1.044   4.346   3.084 -0.3710  0.4006  0.3091
    1SOL    HW3 7043   1.128   4.472   3.078  0.4004 -0.1421 -0.4286
    1SOL    MW4 7044   1.107   4.393   3.047  0.0113 -0.2556  0.1116
    1SOL     OW 7045   1.576   4.635   3.115 -0.8395 -0.0079 -0.1441
    1SOL    HW2 7046   1.566   4.619   3.209 -1.3708 -1.0049 -0.3640
    1SOL    HW3 7047   1.492   4.672   3.088 -0.5624  0.6051 -0.1532
    1SOL    MW4 7048   1.563   4.638   3.124 -0.8732 -0.0582 -0.1745
    1SOL     OW 7049   1.336   0.078   3.007 -0.5447  0.1822 -0.4089
    1SOL    HW2 7050   1.342   0.170   3.034 -0.6320  0.1240 -0.1872
    1SOL    HW3 7051   1.352   0.080   2.912  3.1657  0.0335  0.1177
    1SOL    MW4 7052   1.339   0.091   2.998 -0.0665  0.1549 -0.3097
    1SOL     OW 7053   1.338   0.336   3.100  0.0672  0.2644 -0.2006
    1SOL    HW2 7054   1.329   0.365   3.191  0.3456 -1.1895  0.3110
    1SOL    HW3 7055   1.402   0.396   3.062 -0.6736  1.4130  0.3097
    1SOL    MW4 7056   1.345   0.348   3.107  0.0062  0.2241 -0.0658
    1SOL     OW 7057   1.528   0.487   2.995 -0.2228  0.2080  0.1504
    1SOL    HW2 7058   1.542   0.576   3.027 -0.5785  0.1444  0.4879
    1SOL    HW3 7059   1.537   0.494   2.900  1.8025  0.2294  0.3059
    1SOL    MW4 7060   1.531   0.499   2.986 -0.0025  0.2024  0.2153
    1SOL     OW 7061   1.568   0.755   3.088 -0.0858 -0.0043 -0.2266
    1SOL    HW2 7062   1.531   0.757   3.176 -0.3856  1.3099 -0.3769
    1SOL    HW3 7063   1.509   0.810   3.035 -0.1323 -1.1019 -1.3324
    1SOL    MW4 7064   1.555   0.763   3.093 -0.1314  0.0243 -0.3924
    1SOL     OW 7065   1.386   0.899   2.947 -0.1191 -0.1291 -0.1947
    1SOL    HW2 7066   1.381   0.983   2.991  0.6596 -0.4334  0.4859
    1SOL    HW3 7067   1.312   0.849   2.980  0.1038 -0.1332  0.2918
    1SOL    MW4 7068   1.376   0.903   2.957  0.0131 -0.1697 -0.0408
    1SOL     OW 7069   1.358   1.150   3.080  0.3017  0.1172  0.4274
    1SOL    HW2 7070   1.360   1.142   3.175  0.1828  0.0924  0.4282
    1SOL    HW3 7071   1.441   1.190   3.057  0.4647 -0.1720  0.5143
    1SOL    MW4 7072   1.369   1.154   3.089  0.3076  0.0757  0.4389
    1SOL     OW 7073   1.563   1.295   2.981 -0.0614 -0.0678 -0.0908
    1SOL    HW2 7074   1.650   1.265   3.008  0.7442  1.1926 -1.2605
    1SOL    HW3 7075   1.552   1.379   3.026 -1.3483 -0.9748  1.3272
    1SOL    MW4 7076   1.573   1.302   2.991 -0.1248 -0.0212 -0.0577
    1SOL     OW 7077   1.556   1.538   3.096  0.0389  0.1110  0.1699
    1SOL    HW2 7078   1.630   1.591   3.067  0.6151  0.6775  2.5435
    1SOL    HW3 7079   1.479   1.592   3.077  0.4613  0.8441  0.5224
    1SOL    MW4 7080   1.556   1.552   3.090  0.1707  0.2824  0.5298
    1SOL     OW 7081   1.324   1.677   3.019 -0.0604  0.2229 -0.6124
    1SOL    HW2 7082   1.314   1.769   3.045  0.4567  0.1390 -0.1031
    1SOL    HW3 7083   1.351   1.681   2.928  1.7704  0.6379 -0.0690
    1SOL    MW4 7084   1.326   1.690   3.011  0.2495  0.2664 -0.4737
    1SOL     OW 7085   1.329   1.960   3.088  0.4137  0.0027 -0.0007
    1SOL    HW2 7086   1.324   1.984   3.181  1.4830  1.8820 -0.3895
    1SOL    HW3 7087   1.261   2.013   3.047  0.1565 -0.5882 -0.3262
    1SOL    MW4 7088   1.319   1.970   3.095  0.5207  0.1727 -0.0951
    1SOL     OW 7089   1.574   2.043   3.005  0.4562 -0.3365  0.1813
    1SOL    HW2 7090   1.483   2.020   3.024  0.7949 -0.4683  1.6742
    1SOL    HW3 7091   1.576   2.055   2.910 -0.6694 -2.3377 -0.1246
    1SOL    MW4 7092   1.563   2.041   2.995  0.3525 -0.6180  0.3376
    1SOL     OW 7093   1.529   2.321   3.114  0.1215  0.3534 -0.4086
    1SOL    HW2 7094   1.467   2.362   3.054  3.2500  2.0031 -2.6752
    1SOL    HW3 7095   1.532   2.229   3.088 -2.6135 -0.1592  0.9050
    1SOL    MW4 7096   1.521   2.315   3.103  0.1733  0.5033 -0.5343
    1SOL     OW 7097   1.340   2.481   2.999 -0.4470 -0.3919  0.0026
    1SOL    HW2 7098   1.258   2.439   3.024 -0.6797 -0.6019 -1.0841
    1SOL    HW3 7099   1.338   2.483   2.903  0.7995 -0.3751 -0.0386
    1SOL    MW4 7100   1.329   2.475   2.990 -0.3133 -0.4175 -0.1464
    1SOL     OW 7101   1.357   2.746   3.133 -0.0916  0.0290  0.2574
    1SOL    HW2 7102   1.364   2.654   3.108  0.0347  0.0944  0.0572
    1SOL    HW3 7103   1.282   2.779   3.084 -0.3071 -0.0378  0.5398
    1SOL    MW4 7104   1.348   2.738   3.124 -0.1034  0.0291  0.2685
    1SOL     OW 7105   1.557   2.811   2.977  0.3261 -0.5699 -0.5985
    1SOL    HW2 7106   1.634   2.768   3.015  0.2808 -1.8523 -1.8910
    1SOL    HW3 7107   1.485   2.783   3.033  0.6253 -0.3715 -0.1111
    1SOL    MW4 7108   1.558   2.802   2.989  0.3597 -0.7129 -0.7050
    1SOL     OW 7109   1.547   3.053   3.070 -0.0961  0.1846 -0.4246
    1SOL    HW2 7110   1.572   3.035   3.160  0.3831  0.7819 -0.4326
    1SOL    HW3 7111   1.539   2.967   3.029 -1.9102 -0.1516  0.6019
    1SOL    MW4 7112   1.549   3.040   3.076 -0.2723  0.2189 -0.2904
    1SOL     OW 7113   1.359   3.257   3.019  0.1798 -0.4066  0.1911
    1SOL    HW2 7114   1.422   3.193   3.052  0.5494 -0.1582 -0.0314
    1SOL    HW3 7115   1.360   3.245   2.924  0.1818 -0.1352  0.1562
    1SOL    MW4 7116   1.367   3.247   3.011  0.2290 -0.3381  0.1569
    1SOL     OW 7117   1.329   3.508   3.106 -0.1594 -0.0499  0.1019
    1SOL    HW2 7118   1.354   3.499   3.197  0.2381  0.0922  0.0051
    1SOL    HW3 7119   1.333   3.419   3.071  2.5094  0.2698 -0.5191
    1SOL    MW4 7120   1.333   3.495   3.113  0.2450  0.0110  0.0074
    1SOL     OW 7121   1.585   3.580   3.018  0.1505 -0.3156  0.0563
    1SOL    HW2 7122   1.494   3.557   3.035  0.1368 -0.2812  0.0292
    1SOL    HW3 7123   1.588   3.596   2.923 -0.2121  1.4334  0.3180
    1SOL    MW4 7124   1.573   3.579   3.008  0.1010 -0.0801  0.0873
    1SOL     OW 7125   1.559   3.837   3.090  0.6377 -0.1960 -0.0791
    1SOL    HW2 7126   1.635   3.880   3.050  1.1835 -1.8009 -0.8054
    1SOL    HW3 7127   1.565   3.746   3.062 -0.7073 -0.6823  1.1254
    1SOL    MW4 7128   1.570   3.831   3.081  0.5324 -0.4718 -0.0160
    1SOL     OW 7129   1.360   4.008   3.015  0.2393 -0.1419 -0.2724
    1SOL    HW2 7130   1.434   3.957   3.047 -0.0815  0.3208  1.2316
    1SOL    HW3 7131   1.283   3.965   3.053 -0.0239  1.5329  1.1626
    1SOL    MW4 7132   1.360   3.996   3.024  0.1622  0.1400  0.1154
    1SOL     OW 7133   1.356   4.259   3.138  0.2240  0.2596  0.0947
    1SOL    HW2 7134   1.377   4.172   3.104  0.7197  0.3727  0.1046
    1SOL    HW3 7135   1.272   4.281   3.098  0.1023 -0.2209  0.0833
    1SOL    MW4 7136   1.348   4.250   3.128  0.2735  0.2108  0.0944
    1SOL     OW 7137   1.559   4.395   3.015 -0.1011  0.0763 -0.2375
    1SOL    HW2 7138   1.489   4.347   3.061  0.6425  0.2764  1.1493
    1SOL    HW3 7139   1.566   4.478   3.063 -0.4519  1.0099 -1.7881
    1SOL    MW4 7140   1.551   4.399   3.028 -0.0494  0.2251 -0.2589
    1SOL     OW 7141   2.020   0.005   3.123  0.1720 -0.2793 -0.1241
    1SOL    HW2 7142   2.009   0.009   3.218  0.4739  2.2879 -0.1579
    1SOL    HW3 7143   1.943   0.050   3.088  0.2103 -0.9426 -1.1019
    1SOL    MW4 7144   2.008   0.011   3.131  0.2167 -0.0281 -0.2577
    1SOL     OW 7145   1.785   0.131   3.048 -0.2152 -0.0051  0.2787
    1SOL    HW2 7146   1.706   0.089   3.083 -0.6539  1.7281  1.4442
    1SOL    HW3 7147   1.785   0.109   2.955 -1.1354 -1.4744  0.6104
    1SOL    MW4 7148   1.775   0.123   3.040 -0.3946  0.0297  0.4761
    1SOL     OW 7149   1.771   0.400   3.104 -0.0661  0.0257 -0.5229
    1SOL    HW2 7150   1.793   0.310   3.079  0.2248  0.4325 -1.7521
    1SOL    HW3 7151   1.693   0.421   3.053 -0.3723  0.3302  0.0667
    1SOL    MW4 7152   1.764   0.391   3.094 -0.0682  0.1196 -0.6070
    1SOL     OW 7153   2.006   0.490   2.980  0.0243 -0.4081 -0.0099
    1SOL    HW2 7154   1.928   0.461   3.026  1.1566 -0.1120  2.1368
    1SOL    HW3 7155   2.080   0.458   3.032  1.3347  0.9256 -0.9669
    1SOL    MW4 7156   2.006   0.482   2.993  0.3467 -0.1930  0.1473
    1SOL     OW 7157   1.982   0.744   3.099  0.2911  0.1992 -0.2733
    1SOL    HW2 7158   1.910   0.788   3.053  0.3226 -0.0911 -0.6062
    1SOL    HW3 7159   1.988   0.658   3.057 -0.7498 -0.7094  1.3709
    1SOL    MW4 7160   1.973   0.739   3.087  0.1580  0.0411 -0.1001
    1SOL     OW 7161   1.788   0.901   3.005 -0.7228 -0.2725 -0.0972
    1SOL    HW2 7162   1.715   0.853   3.044  0.5065 -1.1156  1.1859
    1SOL    HW3 7163   1.773   0.896   2.910 -1.7720 -1.3045  0.1262
    1SOL    MW4 7164   1.776   0.894   2.997 -0.6990 -0.5199  0.1013
    1SOL     OW 7165   1.791   1.161   3.062 -0.3264  0.8437 -0.4305
    1SOL    HW2 7166   1.787   1.169   3.157  0.5525  0.5157 -0.3633
    1SOL    HW3 7167   1.791   1.066   3.046 -1.1934  0.9008 -0.7901
    1SOL    MW4 7168   1.790   1.150   3.073 -0.3248  0.8080 -0.4690
    1SOL     OW 7169   1.980   1.317   2.945 -0.4836  0.1535  0.4637
    1SOL    HW2 7170   2.061   1.275   2.974 -0.9945 -1.2745 -0.1199
    1SOL    HW3 7171   1.911   1.262   2.981 -1.1940  1.0075  0.4241
    1SOL    MW4 7172   1.982   1.304   2.954 -0.6447  0.0778  0.3812
    1SOL     OW 7173   1.937   1.545   3.101 -0.3157  0.3431  0.4786
    1SOL    HW2 7174   1.949   1.535   3.195 -0.9687  0.2834  0.5596
    1SOL    HW3 7175   1.954   1.458   3.065  0.7000  0.5413  0.4508
    1SOL    MW4 7176   1.941   1.533   3.108 -0.2679  0.3614  0.4857
    1SOL     OW 7177   1.759   1.704   2.975  0.5452  0.4422 -0.0399
    1SOL    HW2 7178   1.768   1.793   3.010 -0.2266 -0.1180  1.6157
    1SOL    HW3 7179   1.837   1.659   3.007 -0.2944 -0.1439  1.2217
    1SOL    MW4 7180   1.771   1.710   2.984  0.3325  0.2910  0.3448
    1SOL     OW 7181   1.806   1.959   3.122 -0.0506  0.1050  0.6185
    1SOL    HW2 7182   1.872   2.013   3.080  0.4380 -1.4273 -0.6713
    1SOL    HW3 7183   1.723   1.989   3.084  0.1849  0.1477  0.1353
    1SOL    MW4 7184   1.803   1.970   3.111  0.0447 -0.0914  0.3848
    1SOL     OW 7185   1.994   2.092   2.980 -0.0630  0.3441  0.1916
    1SOL    HW2 7186   2.069   2.046   3.019  0.3829  0.0532 -0.9960
    1SOL    HW3 7187   1.994   2.178   3.024 -0.2702 -0.3792  1.6582
    1SOL    MW4 7188   2.004   2.097   2.991 -0.0317  0.2103  0.2286
    1SOL     OW 7189   1.993   2.355   3.077  0.0793  0.0380 -0.2130
    1SOL    HW2 7190   2.057   2.413   3.035 -0.3519  0.4229 -0.3448
    1SOL    HW3 7191   1.908   2.391   3.051 -0.1904 -0.6299 -0.2577
    1SOL    MW4 7192   1.990   2.368   3.068 -0.0131  0.0007 -0.2363
    1SOL     OW 7193   1.744   2.456   2.975 -0.0014 -0.2625  0.3013
    1SOL    HW2 7194   1.757   2.539   3.020  0.6921  0.0244 -0.4173
    1SOL    HW3 7195   1.672   2.414   3.022 -0.2171  0.6508  0.7943
    1SOL    MW4 7196   1.737   2.461   2.987  0.0615 -0.1042  0.2718
    1SOL     OW 7197   1.771   2.692   3.117 -0.2122  0.1036  0.4552
    1SOL    HW2 7198   1.778   2.680   3.212 -1.7291  1.9663  0.8240
    1SOL    HW3 7199   1.842   2.753   3.095  0.6084 -0.8992  0.2465
    1SOL    MW4 7200   1.782   2.698   3.126 -0.3041  0.2172  0.4759
    1SOL     OW 7201   1.966   2.875   2.976 -0.0102 -0.2824 -0.5301
    1SOL    HW2 7202   1.944   2.966   2.994  1.8393  0.2519 -0.9049
    1SOL    HW3 7203   1.951   2.864   2.882 -0.6862 -0.5009 -0.3996
    1SOL    MW4 7204   1.961   2.885   2.966  0.1446 -0.2408 -0.5624
    1SOL     OW 7205   2.025   3.130   3.096 -0.2975  0.1771 -0.4431
    1SOL    HW2 7206   2.015   3.111   3.189  0.3241  0.1956 -0.3747
    1SOL    HW3 7207   1.939   3.165   3.070 -0.6992 -0.5109 -0.0482
    1SOL    MW4 7208   2.012   3.132   3.104 -0.2685  0.0887 -0.3822
    1SOL     OW 7209   1.772   3.219   2.997  0.4324  0.1136  0.0134
    1SOL    HW2 7210   1.699   3.158   3.005  0.5897 -0.1305 -0.4208
    1SOL    HW3 7211   1.783   3.233   2.903  0.0128  1.2790  0.1313
    1SOL    MW4 7212   1.764   3.212   2.986  0.3977  0.2351 -0.0284
    1SOL     OW 7213   1.810   3.457   3.140  0.4925 -0.0304 -0.2101
    1SOL    HW2 7214   1.807   3.369   3.104 -0.7443  0.1625 -0.6284
    1SOL    HW3 7215   1.737   3.503   3.097  0.3053  0.8090  0.9692
    1SOL    MW4 7216   1.800   3.452   3.129  0.3046  0.1054 -0.1094
    1SOL     OW 7217   2.020   3.607   3.016 -0.1878  0.2703 -0.2275
    1SOL    HW2 7218   2.010   3.696   3.050  0.3881 -0.0751  0.8673
    1SOL    HW3 7219   1.940   3.562   3.045  0.2633 -0.0009  0.5972
    1SOL    MW4 7220   2.008   3.613   3.024 -0.0522  0.1891  0.0260
    1SOL     OW 7221   2.009   3.872   3.090 -0.2960  0.4235 -0.4597
    1SOL    HW2 7222   2.007   3.867   3.185 -0.1406  0.6571 -0.4444
    1SOL    HW3 7223   1.933   3.925   3.066  1.2071  2.6721 -0.3137
    1SOL    MW4 7224   1.999   3.878   3.099 -0.0771  0.7508 -0.4382
    1SOL     OW 7225   1.774   4.005   3.018 -0.0317  0.3797  0.0972
    1SOL    HW2 7226   1.782   4.085   3.070 -0.3514 -0.1495  0.9679
    1SOL    HW3 7227   1.782   4.035   2.927  2.3484  1.0957  0.4947
    1SOL    MW4 7228   1.776   4.020   3.013  0.2401  0.4048  0.2646
    1SOL     OW 7229   1.783   4.265   3.112  0.3040 -0.0021 -0.2602
    1SOL    HW2 7230   1.851   4.319   3.072 -0.1110  0.4167 -0.4010
    1SOL    HW3 7231   1.702   4.293   3.071 -0.1002  0.2818  0.7063
    1SOL    MW4 7232   1.781   4.276   3.102  0.1960  0.0911 -0.1514
    1SOL     OW 7233   1.998   4.416   3.006 -0.7504  0.0557 -0.0408
    1SOL    HW2 7234   2.010   4.507   3.036 -1.0485  0.0745  0.0161
    1SOL    HW3 7235   2.006   4.421   2.911 -1.0485  0.1846 -0.0594
    1SOL    MW4 7236   2.001   4.429   2.997 -0.8290  0.0753 -0.0358
    1SOL     OW 7237   2.439   0.007   3.162 -0.4124  0.4333 -0.0702
    1SOL    HW2 7238   2.443  -0.080   3.122 -1.7282  0.9810 -1.4474
    1SOL    HW3 7239   2.363   0.048   3.120 -0.5921  1.7590  1.5369
    1SOL    MW4 7240   2.429   0.001   3.151 -0.6096  0.6804 -0.0401
    1SOL     OW 7241   2.246   0.129   3.018  0.1504 -0.0642 -0.0587
    1SOL    HW2 7242   2.236   0.224   3.026 -0.5737  0.1748 -3.1594
    1SOL    HW3 7243   2.167   0.093   3.058 -0.3073  0.7081 -0.2493
    1SOL    MW4 7244   2.234   0.137   3.025 -0.0057  0.0692 -0.4933
    1SOL     OW 7245   2.229   0.395   3.105  0.3326  0.2660  0.1032
    1SOL    HW2 7246   2.248   0.386   3.198 -0.2268  0.5525  0.2492
    1SOL    HW3 7247   2.307   0.436   3.068 -0.1439  1.8445  0.7744
    1SOL    MW4 7248   2.242   0.400   3.113  0.1957  0.5120  0.2105
    1SOL     OW 7249   2.463   0.507   3.020 -0.3951 -0.3719 -0.5693
    1SOL    HW2 7250   2.544   0.465   3.049 -0.7138 -0.4222  0.2431
    1SOL    HW3 7251   2.468   0.504   2.924  0.9625  0.3931 -0.5330
    1SOL    MW4 7252   2.475   0.501   3.011 -0.2580 -0.2776 -0.4573
    1SOL     OW 7253   2.434   0.755   3.138  0.1116  0.1708  0.0897
    1SOL    HW2 7254   2.505   0.812   3.110 -1.0295  0.4097 -2.4028
    1SOL    HW3 7255   2.445   0.675   3.088 -0.9698 -0.0594  0.1899
    1SOL    MW4 7256   2.444   0.752   3.128 -0.1814  0.1720 -0.2260
    1SOL     OW 7257   2.234   0.880   2.977 -0.1847  0.1031 -0.4076
    1SOL    HW2 7258   2.296   0.842   3.039 -1.1898  2.5327  2.2063
    1SOL    HW3 7259   2.148   0.853   3.010 -0.6960  0.7242 -1.2330
    1SOL    MW4 7260   2.231   0.871   2.990 -0.3848  0.5056 -0.1717
    1SOL     OW 7261   2.200   1.174   3.017  0.0397 -0.4601 -0.0937
    1SOL    HW2 7262   2.190   1.178   3.112 -0.1662 -0.2444 -0.1268
    1SOL    HW3 7263   2.200   1.080   2.998 -0.7173 -0.4887  0.0323
    1SOL    MW4 7264   2.199   1.162   3.027 -0.0873 -0.4354 -0.0818
    1SOL     OW 7265   2.447   1.288   2.967  0.1407 -0.1623  0.3118
    1SOL    HW2 7266   2.358   1.254   2.982 -0.1318  0.4260  0.0308
    1SOL    HW3 7267   2.463   1.273   2.874  0.0700  0.3497  0.2146
    1SOL    MW4 7268   2.437   1.281   2.957  0.0956 -0.0172  0.2618
    1SOL     OW 7269   2.452   1.551   3.089  0.0488  0.3132 -0.1059
    1SOL    HW2 7270   2.372   1.600   3.073  1.3970  1.8907 -2.3286
    1SOL    HW3 7271   2.440   1.468   3.043  0.3789  1.2931 -2.0254
    1SOL    MW4 7272   2.440   1.546   3.081  0.2701  0.6508 -0.6526
    1SOL     OW 7273   2.205   1.643   3.001  0.7138 -0.0519  0.4189
    1SOL    HW2 7274   2.114   1.615   3.011  0.5438  0.2525 -0.2245
    1SOL    HW3 7275   2.219   1.646   2.906  1.0738  0.9165  0.4937
    1SOL    MW4 7276   2.195   1.640   2.990  0.7386  0.1159  0.3438
    1SOL     OW 7277   2.201   1.929   3.092 -0.7195 -0.2302 -0.0629
    1SOL    HW2 7278   2.273   1.982   3.059 -0.6741 -0.1416  0.1763
    1SOL    HW3 7279   2.221   1.840   3.062 -0.7663 -0.1196 -0.4132
    1SOL    MW4 7280   2.213   1.924   3.084 -0.7198 -0.2040 -0.0777
    1SOL     OW 7281   2.417   2.079   3.019  0.2751  0.5778  0.4520
    1SOL    HW2 7282   2.498   2.039   3.049  0.6888  1.3251  0.3544
    1SOL    HW3 7283   2.423   2.078   2.924  0.7862  1.8366  0.4542
    1SOL    MW4 7284   2.429   2.074   3.011  0.3972  0.8423  0.4394
    1SOL     OW 7285   2.425   2.341   3.123 -0.0069  0.1526 -0.1679
    1SOL    HW2 7286   2.419   2.332   3.218  1.8501  0.8416  0.0357
    1SOL    HW3 7287   2.436   2.252   3.091  0.7362  0.0387  0.3851
    1SOL    MW4 7288   2.426   2.328   3.132  0.3364  0.2284 -0.0682
    1SOL     OW 7289   2.229   2.480   2.967 -0.0774  0.0260 -0.2213
    1SOL    HW2 7290   2.228   2.573   2.989 -0.0242  0.2802 -1.2941
    1SOL    HW3 7291   2.296   2.443   3.025 -0.2197  0.6153  0.3310
    1SOL    MW4 7292   2.238   2.487   2.978 -0.0892  0.1373 -0.2899
    1SOL     OW 7293   2.199   2.724   3.082  0.2812 -0.4984  0.0849
    1SOL    HW2 7294   2.274   2.778   3.059  0.1582 -0.2909  0.1699
    1SOL    HW3 7295   2.124   2.782   3.073  0.2753 -0.2643  1.5234
    1SOL    MW4 7296   2.199   2.739   3.078  0.2642 -0.4399  0.2856
    1SOL     OW 7297   2.446   2.841   3.024 -0.0808 -0.1385 -0.2338
    1SOL    HW2 7298   2.447   2.927   3.065  1.9165 -0.2588  0.0246
    1SOL    HW3 7299   2.447   2.859   2.930 -1.4039  0.1186 -0.2042
    1SOL    MW4 7300   2.446   2.855   3.017  0.0083 -0.1206 -0.1960
    1SOL     OW 7301   2.447   3.108   3.108  0.0549  0.0559 -0.2202
    1SOL    HW2 7302   2.532   3.138   3.075 -0.6921  2.0445 -0.3423
    1SOL    HW3 7303   2.382   3.150   3.051 -1.0760 -0.1152  0.9219
    1SOL    MW4 7304   2.450   3.117   3.096 -0.1929  0.2954 -0.0856
    1SOL     OW 7305   2.262   3.249   2.970 -0.2314  0.2128  0.2446
    1SOL    HW2 7306   2.258   3.340   2.997  2.2538 -0.1896  2.1657
    1SOL    HW3 7307   2.183   3.209   3.006 -0.7482  1.3339  0.3679
    1SOL    MW4 7308   2.251   3.256   2.978  0.0281  0.3080  0.5145
    1SOL     OW 7309   2.272   3.501   3.090 -0.7419  0.2351  0.2045
    1SOL    HW2 7310   2.339   3.567   3.072 -0.1451 -0.5090 -0.3158
    1SOL    HW3 7311   2.193   3.535   3.047  0.0220 -0.2540 -1.6196
    1SOL    MW4 7312   2.270   3.514   3.082 -0.5627  0.0725 -0.1047
    1SOL     OW 7313   2.486   3.642   3.005  0.4145 -0.0301 -0.5887
    1SOL    HW2 7314   2.549   3.585   3.050 -0.6877 -0.7373  0.0832
    1SOL    HW3 7315   2.509   3.731   3.033  0.6818 -0.3443  0.2017
    1SOL    MW4 7316   2.497   3.646   3.015  0.3045 -0.1650 -0.3960
    1SOL     OW 7317   2.471   3.894   3.110  0.1328  0.0547  0.3061
    1SOL    HW2 7318   2.481   3.876   3.204  1.3989 -0.4012  0.0922
    1SOL    HW3 7319   2.550   3.942   3.086 -0.6012  0.9413 -0.3458
    1SOL    MW4 7320   2.483   3.898   3.120  0.2027  0.1116  0.1919
    1SOL     OW 7321   2.226   4.004   2.990  0.2596  0.3625 -0.1612
    1SOL    HW2 7322   2.307   3.975   3.033 -0.5549  0.5630  1.5588
    1SOL    HW3 7323   2.156   3.957   3.036 -0.7290  1.5744 -0.4020
    1SOL    MW4 7324   2.228   3.994   3.002  0.0215  0.5486  0.0339
    1SOL     OW 7325   2.199   4.258   3.113  0.3287 -0.1791  0.0832
    1SOL    HW2 7326   2.195   4.178   3.061 -0.3072  0.6904 -1.2253
    1SOL    HW3 7327   2.127   4.312   3.081 -0.7378 -0.0182  2.5667
    1SOL    MW4 7328   2.189   4.255   3.102  0.1042 -0.0424  0.2379
    1SOL     OW 7329   2.415   4.417   3.034  0.0455  0.4839 -0.6947
    1SOL    HW2 7330   2.340   4.362   3.058 -1.3638  1.3192 -3.0690
    1SOL    HW3 7331   2.441   4.386   2.948  2.0174  0.6671 -0.1868
    1SOL    MW4 7332   2.409   4.406   3.026  0.1197  0.6180 -0.9410
    1SOL     OW 7333   2.901   4.648   3.108 -0.2404 -0.1588 -0.2603
    1SOL    HW2 7334   2.983   4.693   3.087 -0.1903  0.1572  0.5874
    1SOL    HW3 7335   2.918   4.557   3.087  0.7277 -0.2829  0.9959
    1SOL    MW4 7336   2.914   4.642   3.102 -0.1061 -0.1335  0.0174
    1SOL     OW 7337   2.662   0.126   3.065  0.4784  0.1299  0.8256
    1SOL    HW2 7338   2.727   0.058   3.081  1.0147  0.1756 -1.0656
    1SOL    HW3 7339   2.584   0.096   3.111  0.8801 -1.4740  0.4873
    1SOL    MW4 7340   2.661   0.113   3.073  0.6022 -0.0757  0.5314
    1SOL     OW 7341   2.701   0.397   3.112 -0.5414 -0.2156  0.4481
    1SOL    HW2 7342   2.708   0.302   3.097  0.4410  0.0424 -0.7830
    1SOL    HW3 7343   2.701   0.406   3.207  2.0933 -1.2792  0.5936
    1SOL    MW4 7344   2.702   0.385   3.123 -0.0639 -0.3220  0.3049
    1SOL     OW 7345   2.908   0.531   3.005  0.6188 -0.2317  0.1667
    1SOL    HW2 7346   2.830   0.485   3.036  0.2442  0.3083  0.0392
    1SOL    HW3 7347   2.895   0.540   2.911 -0.3838  2.1015  0.4910
    1SOL    MW4 7348   2.896   0.526   2.997  0.4373  0.1474  0.1926
    1SOL     OW 7349   2.883   0.798   3.090  0.1505 -0.5051 -0.0212
    1SOL    HW2 7350   2.857   0.792   3.181 -0.7990 -0.1274 -0.2632
    1SOL    HW3 7351   2.888   0.707   3.060  0.4162 -0.6253  0.3913
    1SOL    MW4 7352   2.880   0.785   3.098  0.0603 -0.4712  0.0012
    1SOL     OW 7353   2.643   0.923   3.016 -0.1170 -0.0482 -0.1525
    1SOL    HW2 7354   2.648   1.007   3.061 -1.8914  0.9941 -1.8100
    1SOL    HW3 7355   2.729   0.884   3.028  0.6935  1.9531  0.7608
    1SOL    MW4 7356   2.655   0.929   3.023 -0.2441  0.3533 -0.2506
    1SOL     OW 7357   2.655   1.175   3.143 -0.4802 -0.6204  0.2935
    1SOL    HW2 7358   2.737   1.211   3.111 -0.6116 -0.0565  0.5873
    1SOL    HW3 7359   2.588   1.214   3.087 -0.5993 -0.6488  0.4153
    1SOL    MW4 7360   2.657   1.185   3.131 -0.5133 -0.5497  0.3483
    1SOL     OW 7361   2.878   1.258   3.036 -0.0736 -0.1674 -0.0755
    1SOL    HW2 7362   2.961   1.214   3.055 -0.1877 -0.0474  0.7091
    1SOL    HW3 7363   2.891   1.348   3.063 -0.7820 -0.3734  0.9739
    1SOL    MW4 7364   2.890   1.264   3.042 -0.1822 -0.1788  0.1664
    1SOL     OW 7365   2.911   1.532   3.079  0.1153 -0.4517 -0.2687
    1SOL    HW2 7366   2.904   1.557   3.171  1.1746 -1.5899  0.1330
    1SOL    HW3 7367   2.986   1.581   3.046 -0.7982  0.6217 -0.7556
    1SOL    MW4 7368   2.920   1.542   3.087  0.1345 -0.4603 -0.2801
    1SOL     OW 7369   2.691   1.675   2.962 -0.1265 -0.2083 -0.1062
    1SOL    HW2 7370   2.772   1.647   3.005 -0.4167 -2.9626 -1.2604
    1SOL    HW3 7371   2.624   1.616   2.995 -1.1735  0.3916 -1.1032
    1SOL    MW4 7372   2.693   1.663   2.972 -0.3028 -0.4925 -0.3901
    1SOL     OW 7373   2.637   1.920   3.113  0.1219  0.0283  0.2859
    1SOL    HW2 7374   2.718   1.960   3.082 -0.6490  1.1466 -0.3226
    1SOL    HW3 7375   2.618   1.851   3.049 -0.7838  1.4894 -1.0442
    1SOL    MW4 7376   2.645   1.916   3.100 -0.0989  0.3687  0.0300
    1SOL     OW 7377   2.888   2.028   3.018 -0.2152 -0.0536  0.5953
    1SOL    HW2 7378   2.879   2.117   3.052 -1.3545 -0.0431  0.2845
    1SOL    HW3 7379   2.886   2.038   2.923  0.3704 -0.3467  0.5491
    1SOL    MW4 7380   2.886   2.041   3.010 -0.2880 -0.0911  0.5484
    1SOL     OW 7381   2.920   2.300   3.080  0.3955 -0.1229 -0.1144
    1SOL    HW2 7382   2.995   2.352   3.051  0.5589  0.3812  1.1815
    1SOL    HW3 7383   2.844   2.345   3.044  0.5862  0.5865  0.3614
    1SOL    MW4 7384   2.920   2.313   3.072  0.4420  0.0372  0.1197
    1SOL     OW 7385   2.670   2.446   3.017 -0.4178 -0.1763  0.0315
    1SOL    HW2 7386   2.689   2.533   3.053 -1.9784  0.7082 -1.2004
    1SOL    HW3 7387   2.594   2.416   3.067  0.2147 -0.9015  0.5575
    1SOL    MW4 7388   2.662   2.454   3.029 -0.5400 -0.1552 -0.0618
    1SOL     OW 7389   2.670   2.709   3.125  0.1049 -0.0682 -0.2088
    1SOL    HW2 7390   2.659   2.719   3.220  1.7677  0.3991 -0.0511
    1SOL    HW3 7391   2.586   2.737   3.089 -0.4064  0.1638  1.1035
    1SOL    MW4 7392   2.657   2.714   3.133  0.2568  0.0238 -0.0150
    1SOL     OW 7393   2.897   2.862   3.031  0.3053  0.6022  0.1385
    1SOL    HW2 7394   2.981   2.818   3.041 -0.4072 -0.9688 -0.6975
    1SOL    HW3 7395   2.836   2.811   3.084 -0.3963  0.9575 -0.3135
    1SOL    MW4 7396   2.900   2.849   3.039  0.1183  0.4420 -0.0312
    1SOL     OW 7397   2.905   3.120   3.127  0.3488 -0.2087  0.0710
    1SOL    HW2 7398   2.834   3.165   3.082  0.2683  0.6914  1.0857
    1SOL    HW3 7399   2.899   3.029   3.097 -1.7754 -0.3368  0.8102
    1SOL    MW4 7400   2.895   3.114   3.117  0.0577 -0.1070  0.3023
    1SOL     OW 7401   2.684   3.223   3.012 -0.4941  0.1401  0.3016
    1SOL    HW2 7402   2.671   3.305   3.061 -1.3857  0.7855 -0.9582
    1SOL    HW3 7403   2.669   3.248   2.920  0.8377 -1.1055 -0.2664
    1SOL    MW4 7404   2.680   3.237   3.006 -0.4361  0.0606  0.0606
    1SOL     OW 7405   2.654   3.456   3.151 -0.0187  0.3890  0.0691
    1SOL    HW2 7406   2.667   3.466   3.245  0.6429 -0.0269  0.0242
    1SOL    HW3 7407   2.725   3.505   3.111  0.8448 -1.0432 -0.1892
    1SOL    MW4 7408   2.665   3.464   3.158  0.1824  0.1452  0.0291
    1SOL     OW 7409   2.880   3.592   3.062 -0.0825  0.2450  0.3349
    1SOL    HW2 7410   2.958   3.553   3.101  0.6225  0.2658 -1.0174
    1SOL    HW3 7411   2.889   3.686   3.080 -0.6973  0.0459  1.7175
    1SOL    MW4 7412   2.891   3.599   3.069 -0.0708  0.2215  0.3388
    1SOL     OW 7413   2.906   3.872   3.125 -0.2674  0.0210 -0.4346
    1SOL    HW2 7414   2.912   3.861   3.220  0.3910 -2.4192 -0.7387
    1SOL    HW3 7415   2.828   3.927   3.113  0.0210  0.9342  1.5299
    1SOL    MW4 7416   2.896   3.878   3.136 -0.1426 -0.1805 -0.2153
    1SOL     OW 7417   2.695   4.035   3.015 -0.0195 -0.0026  0.1701
    1SOL    HW2 7418   2.688   4.127   3.041  1.4486  0.1747 -0.0526
    1SOL    HW3 7419   2.712   4.037   2.921  2.2608 -0.4129  0.5378
    1SOL    MW4 7420   2.696   4.047   3.006  0.4747 -0.0339  0.1891
    1SOL     OW 7421   2.671   4.293   3.099  0.0072  0.4075 -0.0002
    1SOL    HW2 7422   2.672   4.295   3.195  0.9979  2.0658 -0.0195
    1SOL    HW3 7423   2.594   4.343   3.074  0.1311  0.5640 -0.0715
    1SOL    MW4 7424   2.661   4.300   3.109  0.1540  0.6471 -0.0122
    1SOL     OW 7425   2.931   4.366   3.025 -0.3943  0.1277 -0.4866
    1SOL    HW2 7426   2.997   4.331   3.084 -1.0009 -0.2054  0.0037
    1SOL    HW3 7427   2.849   4.325   3.053 -1.0406  1.5566 -0.2025
    1SOL    MW4 7428   2.929   4.356   3.037 -0.5593  0.2723 -0.3843
    1SOL     OW 7429   3.319   4.634   3.117  0.2911 -0.1955 -0.3065
    1SOL    HW2 7430   3.396   4.675   3.077 -0.8862  1.1386 -1.2757
    1SOL    HW3 7431   3.327   4.542   3.094  1.0102  0.1191 -1.3868
    1SOL    MW4 7432   3.331   4.628   3.109  0.2308  0.0219 -0.5767
    1SOL     OW 7433   3.119   0.104   2.989  0.0579  0.5356  0.2704
    1SOL    HW2 7434   3.129   0.197   3.011  1.2556 -0.0073  2.1685
    1SOL    HW3 7435   3.188   0.060   3.039 -0.5664 -1.3868 -0.5188
    1SOL    MW4 7436   3.129   0.111   2.999  0.1338  0.2103  0.4165
    1SOL     OW 7437   3.138   0.379   3.063  0.3090  0.0633 -0.0753
    1SOL    HW2 7438   3.220   0.422   3.042 -1.0618  1.0820 -3.7974
    1SOL    HW3 7439   3.071   0.443   3.039 -1.6184 -1.4285  1.1826
    1SOL    MW4 7440   3.140   0.393   3.057 -0.1261  0.0009 -0.4003
    1SOL     OW 7441   3.381   0.519   3.008 -0.1890 -0.0993 -0.2490
    1SOL    HW2 7442   3.462   0.468   3.014  0.7694  1.5194  0.8871
    1SOL    HW3 7443   3.360   0.520   2.915  1.6357  0.2737 -0.6794
    1SOL    MW4 7444   3.389   0.512   2.997  0.1783  0.1635 -0.1562
    1SOL     OW 7445   3.347   0.777   3.160  0.0569  0.0208 -0.5622
    1SOL    HW2 7446   3.346   0.765   3.255 -0.2474 -0.5017 -0.6295
    1SOL    HW3 7447   3.371   0.692   3.125  1.6964  0.6093 -0.8967
    1SOL    MW4 7448   3.350   0.764   3.168  0.2329  0.0295 -0.6154
    1SOL     OW 7449   3.137   0.895   3.013  0.4395  0.2004  0.0682
    1SOL    HW2 7450   3.202   0.861   3.073  0.0694 -0.0690  0.3205
    1SOL    HW3 7451   3.055   0.852   3.039  0.3407 -0.1723 -0.8266
    1SOL    MW4 7452   3.135   0.885   3.024  0.3774  0.1156 -0.0169
    1SOL     OW 7453   3.106   1.150   3.132  0.1814  0.5341 -0.2583
    1SOL    HW2 7454   3.184   1.200   3.105  1.0446 -0.1780  0.8551
    1SOL    HW3 7455   3.120   1.062   3.097  0.1366  0.2654  0.3856
    1SOL    MW4 7456   3.118   1.145   3.124  0.2894  0.4046 -0.0265
    1SOL     OW 7457   3.335   1.252   3.040 -0.2287 -0.0284  0.1652
    1SOL    HW2 7458   3.412   1.201   3.066 -0.7344 -0.2272  1.2966
    1SOL    HW3 7459   3.345   1.336   3.085 -0.8738 -0.2009  0.6402
    1SOL    MW4 7460   3.347   1.256   3.049 -0.3808 -0.0775  0.3769
    1SOL     OW 7461   3.388   1.518   3.156  0.2095  0.2744 -0.0804
    1SOL    HW2 7462   3.400   1.534   3.249  1.9130 -0.6279 -0.1443
    1SOL    HW3 7463   3.462   1.561   3.114 -0.8921  1.2441 -1.1035
    1SOL    MW4 7464   3.399   1.526   3.162  0.2887  0.2831 -0.2239
    1SOL     OW 7465   3.177   1.634   3.002 -0.3450 -0.0913 -0.2195
    1SOL    HW2 7466   3.242   1.585   3.053 -0.6212  0.0051  0.2304
    1SOL    HW3 7467   3.173   1.719   3.045 -0.3979  0.0783 -0.5602
    1SOL    MW4 7468   3.185   1.639   3.014 -0.3884 -0.0561 -0.2050
    1SOL     OW 7469   3.135   1.910   3.091 -0.8063 -0.2971 -0.1858
    1SOL    HW2 7470   3.132   1.931   3.184  0.9800  0.4603 -0.2646
    1SOL    HW3 7471   3.051   1.939   3.056 -1.7696 -1.2448  1.3129
    1SOL    MW4 7472   3.124   1.916   3.098 -0.6976 -0.3222  0.0017
    1SOL     OW 7473   3.363   2.056   2.994  0.3024  0.1079 -0.3236
    1SOL    HW2 7474   3.438   2.028   3.046 -0.0736 -0.2528  0.0273
    1SOL    HW3 7475   3.291   1.999   3.023  0.0216  0.1043 -1.0291
    1SOL    MW4 7476   3.363   2.045   3.005  0.2158  0.0601 -0.3705
    1SOL     OW 7477   3.353   2.342   3.090 -0.2605  0.4668 -0.2493
    1SOL    HW2 7478   3.380   2.325   3.181  0.0426 -0.1871 -0.4558
    1SOL    HW3 7479   3.359   2.256   3.048  0.4727  0.9373 -1.1162
    1SOL    MW4 7480   3.358   2.328   3.097 -0.1235  0.4425 -0.3910
    1SOL     OW 7481   3.123   2.466   2.997  0.0206 -0.0057 -0.1610
    1SOL    HW2 7482   3.202   2.430   3.037  0.2236  0.6792  0.0771
    1SOL    HW3 7483   3.122   2.558   3.026 -0.7953  0.0204 -0.2586
    1SOL    MW4 7484   3.134   2.474   3.006 -0.0598  0.0880 -0.1426
    1SOL     OW 7485   3.136   2.723   3.097 -0.4458 -0.4613 -0.3553
    1SOL    HW2 7486   3.223   2.759   3.080 -2.0379  3.8759 -0.0081
    1SOL    HW3 7487   3.128   2.724   3.192 -1.7909  1.7659 -0.4429
    1SOL    MW4 7488   3.147   2.728   3.107 -0.8333  0.4046 -0.3211
    1SOL     OW 7489   3.382   2.844   3.015  0.1851 -0.0284 -0.6233
    1SOL    HW2 7490   3.465   2.817   3.054  1.2677  1.9455 -1.4993
    1SOL    HW3 7491   3.366   2.932   3.050 -2.6863 -1.1948  1.2702
    1SOL    MW4 7492   3.391   2.852   3.025 -0.0510  0.0780 -0.4890
    1SOL     OW 7493   3.325   3.092   3.134 -0.5464 -0.6085  0.2869
    1SOL    HW2 7494   3.256   3.158   3.124  0.0315 -0.1038 -0.4478
    1SOL    HW3 7495   3.339   3.085   3.228 -2.3757 -1.5246  0.5221
    1SOL    MW4 7496   3.317   3.100   3.145 -0.7114 -0.6626  0.2210
    1SOL     OW 7497   3.138   3.257   3.029 -0.3344  0.2725  0.1860
    1SOL    HW2 7498   3.064   3.200   3.051 -0.5912  0.5653  0.0761
    1SOL    HW3 7499   3.147   3.248   2.934  0.1211 -0.1903  0.2690
    1SOL    MW4 7500   3.130   3.248   3.019 -0.3083  0.2501  0.1824
    1SOL     OW 7501   3.132   3.509   3.136  0.2843  0.2968 -0.2606
    1SOL    HW2 7502   3.210   3.544   3.093 -0.1391 -0.4074 -1.6543
    1SOL    HW3 7503   3.120   3.423   3.097 -0.1336 -0.3594  1.3001
    1SOL    MW4 7504   3.140   3.503   3.125  0.1731  0.1171 -0.2384
    1SOL     OW 7505   3.337   3.617   2.988  0.5692 -0.1048  0.2268
    1SOL    HW2 7506   3.414   3.570   3.021  1.4312  0.2885 -1.1791
    1SOL    HW3 7507   3.349   3.706   3.020  1.3015  0.2281 -0.9337
    1SOL    MW4 7508   3.349   3.622   2.997  0.7799 -0.0091 -0.1118
    1SOL     OW 7509   3.374   3.862   3.111  0.2425 -0.3021 -0.4157
    1SOL    HW2 7510   3.370   3.862   3.206 -0.3958 -0.4043 -0.4364
    1SOL    HW3 7511   3.302   3.920   3.084  2.7877  2.8386 -0.7694
    1SOL    MW4 7512   3.364   3.870   3.120  0.4940  0.0987 -0.4649
    1SOL     OW 7513   3.144   4.015   3.038 -0.0185  0.3362 -0.0482
    1SOL    HW2 7514   3.061   3.972   3.060  0.4345  0.0657  1.1625
    1SOL    HW3 7515   3.148   4.011   2.942 -0.7463 -0.9059 -0.0441
    1SOL    MW4 7516   3.134   4.009   3.028 -0.0546  0.1369  0.1123
    1SOL     OW 7517   3.141   4.252   3.165 -0.1362  0.1149 -0.7717
    1SOL    HW2 7518   3.138   4.243   3.260  1.6461 -0.4338 -0.7483
    1SOL    HW3 7519   3.137   4.162   3.132  1.3839  0.1705 -1.1337
    1SOL    MW4 7520   3.140   4.239   3.173  0.2995  0.0496 -0.8166
    1SOL     OW 7521   3.327   4.357   3.007 -0.2850  0.0102 -0.0025
    1SOL    HW2 7522   3.406   4.339   3.056 -0.2576  0.2880  0.0582
    1SOL    HW3 7523   3.256   4.325   3.062 -0.2234 -0.1261 -0.0028
    1SOL    MW4 7524   3.328   4.350   3.020 -0.2735  0.0291  0.0052
    1SOL     OW 7525   3.808   0.046   3.116 -0.2234  0.3435  0.2603
    1SOL    HW2 7526   3.814  -0.048   3.099 -1.6395 -0.0334  1.6878
    1SOL    HW3 7527   3.727   0.073   3.073  0.7214  1.1344 -1.0491
    1SOL    MW4 7528   3.798   0.038   3.108 -0.2854  0.3982  0.2759
    1SOL     OW 7529   3.518   0.090   2.989 -0.2994  0.0015 -0.5887
    1SOL    HW2 7530   3.526   0.185   2.999  2.5949 -0.1083 -1.3614
    1SOL    HW3 7531   3.534   0.074   2.896 -0.4538 -1.2667 -0.4166
    1SOL    MW4 7532   3.521   0.100   2.978  0.0620 -0.1803 -0.6678
    1SOL     OW 7533   3.585   0.342   3.070  0.1111 -0.0202 -0.0242
    1SOL    HW2 7534   3.581   0.340   3.165 -0.6026  1.1563 -0.0170
    1SOL    HW3 7535   3.667   0.388   3.050 -0.2328  0.6210  0.0319
    1SOL    MW4 7536   3.595   0.348   3.080 -0.0286  0.2196 -0.0160
    1SOL     OW 7537   3.796   0.502   2.989 -0.6748  0.5657 -0.2803
    1SOL    HW2 7538   3.877   0.457   3.016 -1.6408 -0.5156  0.8954
    1SOL    HW3 7539   3.797   0.583   3.039 -1.1332 -0.2195  1.0346
    1SOL    MW4 7540   3.807   0.507   2.999 -0.8628  0.3195  0.0484
    1SOL     OW 7541   3.792   0.790   3.113  0.1346 -0.0947 -0.3897
    1SOL    HW2 7542   3.800   0.774   3.207 -1.0725 -0.2173 -0.2982
    1SOL    HW3 7543   3.878   0.823   3.087  0.3240  0.4248  0.8482
    1SOL    MW4 7544   3.804   0.792   3.122  0.0002 -0.0423 -0.2143
    1SOL     OW 7545   3.578   0.897   3.018 -0.0162  0.6661  0.0844
    1SOL    HW2 7546   3.666   0.872   3.045  0.2164  1.2473 -0.1267
    1SOL    HW3 7547   3.520   0.846   3.075  0.4344 -0.6657 -0.6235
    1SOL    MW4 7548   3.582   0.887   3.029  0.0741  0.5670 -0.0367
    1SOL     OW 7549   3.568   1.143   3.123 -0.1793 -0.1981 -0.6602
    1SOL    HW2 7550   3.651   1.178   3.091  0.3035  0.6209  1.4111
    1SOL    HW3 7551   3.568   1.052   3.094  0.3285  0.4388 -2.7500
    1SOL    MW4 7552   3.579   1.136   3.115 -0.0484 -0.0061 -0.6626
    1SOL     OW 7553   3.799   1.258   3.013 -0.1136  0.7037  0.2243
    1SOL    HW2 7554   3.811   1.348   3.042  0.5703  0.5219  0.5206
    1SOL    HW3 7555   3.771   1.264   2.922  0.9028  1.1736 -0.0513
    1SOL    MW4 7556   3.797   1.271   3.005  0.1111  0.7417  0.2270
    1SOL     OW 7557   3.808   1.516   3.118  0.0603  0.1739 -0.2445
    1SOL    HW2 7558   3.792   1.511   3.213  1.4565 -0.4802 -0.0270
    1SOL    HW3 7559   3.736   1.570   3.085  1.5465  3.5414  1.6918
    1SOL    MW4 7560   3.796   1.523   3.126  0.4408  0.5319  0.0396
    1SOL     OW 7561   3.593   1.663   3.025 -0.7011  0.4216  0.3267
    1SOL    HW2 7562   3.598   1.758   3.032 -0.3472  0.3538  0.9571
    1SOL    HW3 7563   3.572   1.647   2.933 -0.2509  1.0930  0.1054
    1SOL    MW4 7564   3.591   1.673   3.013 -0.5951  0.5013  0.3808
    1SOL     OW 7565   3.577   1.929   3.103  0.3589 -0.3850 -0.3763
    1SOL    HW2 7566   3.571   1.922   3.198  0.1060  1.1326 -0.2647
    1SOL    HW3 7567   3.664   1.966   3.087 -1.4751  4.2271 -0.4048
    1SOL    MW4 7568   3.587   1.933   3.114  0.0834  0.4237 -0.3657
    1SOL     OW 7569   3.823   2.030   3.041  0.1739 -0.0807  0.2987
    1SOL    HW2 7570   3.817   2.122   3.067  0.0824 -0.0526  0.1801
    1SOL    HW3 7571   3.825   2.032   2.946 -0.3756 -0.2279  0.2805
    1SOL    MW4 7572   3.822   2.043   3.032  0.0894 -0.0963  0.2804
    1SOL     OW 7573   3.777   2.304   3.127 -0.1723 -0.2743 -0.2742
    1SOL    HW2 7574   3.783   2.316   3.222 -0.7498 -1.8057 -0.0195
    1SOL    HW3 7575   3.702   2.356   3.101 -0.3232 -0.2534  0.1907
    1SOL    MW4 7576   3.768   2.312   3.136 -0.2685 -0.4733 -0.1793
    1SOL     OW 7577   3.574   2.458   3.006  0.2395 -0.0594 -0.0780
    1SOL    HW2 7578   3.592   2.539   3.053 -0.8774  0.2791 -0.2235
    1SOL    HW3 7579   3.490   2.428   3.041  0.2176 -0.6930 -0.6582
    1SOL    MW4 7580   3.566   2.465   3.017  0.0892 -0.0982 -0.1740
    1SOL     OW 7581   3.596   2.729   3.113 -0.4087 -0.4396 -0.1264
    1SOL    HW2 7582   3.600   2.702   3.205 -0.0318 -1.2490 -0.3765
    1SOL    HW3 7583   3.683   2.764   3.095 -0.5562 -0.0596 -0.1143
    1SOL    MW4 7584   3.608   2.730   3.123 -0.3784 -0.4961 -0.1581
    1SOL     OW 7585   3.842   2.840   3.000 -0.1339  0.2291  0.1291
    1SOL    HW2 7586   3.832   2.930   3.031  0.1705  0.4563 -0.4197
    1SOL    HW3 7587   3.837   2.847   2.905 -1.9496 -0.5734  0.1640
    1SOL    MW4 7588   3.840   2.853   2.992 -0.3335  0.1531  0.0613
    1SOL     OW 7589   3.801   3.090   3.095 -0.2381  0.0669  0.5758
    1SOL    HW2 7590   3.872   3.136   3.050  0.4614 -1.4874  0.0632
    1SOL    HW3 7591   3.721   3.128   3.059  0.3218  1.2077  0.5046
    1SOL    MW4 7592   3.800   3.101   3.084 -0.0720  0.0124  0.4988
    1SOL     OW 7593   3.569   3.234   3.056  0.0615 -0.1594  0.1926
    1SOL    HW2 7594   3.495   3.179   3.083 -0.3535  0.0371 -0.5222
    1SOL    HW3 7595   3.567   3.232   2.960  1.1710 -0.3903  0.1680
    1SOL    MW4 7596   3.559   3.227   3.047  0.1533 -0.1640  0.0949
    1SOL     OW 7597   3.563   3.494   3.114  0.4979  0.0158  0.1552
    1SOL    HW2 7598   3.647   3.528   3.083  0.6227 -0.0179  0.4546
    1SOL    HW3 7599   3.565   3.401   3.091  0.9860 -0.2187  1.0876
    1SOL    MW4 7600   3.575   3.486   3.107  0.5786 -0.0193  0.3173
    1SOL     OW 7601   3.804   3.615   3.033 -0.4143  0.3840  0.1676
    1SOL    HW2 7602   3.802   3.707   3.060 -0.5982  0.3834  0.1555
    1SOL    HW3 7603   3.794   3.617   2.938 -1.5129  0.2984  0.2741
    1SOL    MW4 7604   3.803   3.627   3.024 -0.5834  0.3726  0.1800
    1SOL     OW 7605   3.807   3.887   3.105 -0.2174 -0.2666  0.1210
    1SOL    HW2 7606   3.831   3.893   3.197  0.1475  1.4943 -0.0815
    1SOL    HW3 7607   3.736   3.949   3.094  0.2067  0.0452 -0.9379
    1SOL    MW4 7608   3.801   3.896   3.116 -0.1135  0.0072 -0.0455
    1SOL     OW 7609   3.581   4.054   3.054  0.0257 -0.1573  0.0667
    1SOL    HW2 7610   3.516   3.989   3.081  1.1631 -1.0073  0.8198
    1SOL    HW3 7611   3.587   4.044   2.959  0.7012 -1.6707  0.2462
    1SOL    MW4 7612   3.573   4.044   3.045  0.2649 -0.4687  0.1895
    1SOL     OW 7613   3.564   4.319   3.157  0.0840  0.1533  0.0254
    1SOL    HW2 7614   3.636   4.376   3.131  0.6139 -0.3818  0.3172
    1SOL    HW3 7615   3.582   4.236   3.115  0.0192 -0.1977  0.6831
    1SOL    MW4 7616   3.576   4.316   3.148  0.1454  0.0362  0.1504
    1SOL     OW 7617   3.820   4.428   3.062  0.1433  0.0822  0.3397
    1SOL    HW2 7618   3.874   4.364   3.108 -0.4020 -0.1244  0.6975
    1SOL    HW3 7619   3.824   4.401   2.970  0.9868  0.3152  0.3046
    1SOL    MW4 7620   3.827   4.416   3.056  0.1826  0.0858  0.3824
    1SOL     OW 7621   4.228   4.656   3.101  0.2865 -0.1986  0.0481
    1SOL    HW2 7622   4.223   4.657   3.196  0.4708 -1.2478  0.0810
    1SOL    HW3 7623   4.230   4.563   3.078 -0.8347  0.0241 -1.0323
    1SOL    MW4 7624   4.228   4.644   3.110  0.1636 -0.3076 -0.0901
    1SOL     OW 7625   4.024   0.102   2.965 -0.1800 -0.0022  0.1240
    1SOL    HW2 7626   4.095   0.056   3.009  0.5418  0.3267 -0.6655
    1SOL    HW3 7627   3.946   0.084   3.018  0.3990 -0.7781  0.7190
    1SOL    MW4 7628   4.023   0.094   2.977 -0.0076 -0.0612  0.0982
    1SOL     OW 7629   4.020   0.358   3.083  0.0018  0.2503 -0.2132
    1SOL    HW2 7630   4.102   0.407   3.073 -0.8818  1.7826 -0.0942
    1SOL    HW3 7631   4.027   0.286   3.020  0.9938  0.9513 -0.9153
    1SOL    MW4 7632   4.032   0.355   3.074  0.0157  0.5449 -0.2899
    1SOL     OW 7633   4.254   0.482   3.028  0.2062  0.0696 -0.0785
    1SOL    HW2 7634   4.262   0.577   3.037 -0.2509  0.0490  0.5393
    1SOL    HW3 7635   4.226   0.470   2.937  0.5699  0.5055 -0.2549
    1SOL    MW4 7636   4.252   0.493   3.017  0.1936  0.1244 -0.0200
    1SOL     OW 7637   4.256   0.744   3.094  0.1191 -0.2087  0.6979
    1SOL    HW2 7638   4.182   0.795   3.060 -0.2688 -1.2282  0.0087
    1SOL    HW3 7639   4.333   0.794   3.066 -0.2026 -0.7823 -1.3418
    1SOL    MW4 7640   4.256   0.758   3.086  0.0257 -0.4190  0.3376
    1SOL     OW 7641   4.028   0.893   3.008  0.0563 -0.0414  0.0314
    1SOL    HW2 7642   4.029   0.982   3.042 -1.8583  0.4107 -1.0491
    1SOL    HW3 7643   4.031   0.903   2.913  0.6926 -1.1504 -0.0727
    1SOL    MW4 7644   4.029   0.906   3.000 -0.1121 -0.1281 -0.1249
    1SOL     OW 7645   4.027   1.157   3.114  0.3236  0.0400 -0.0296
    1SOL    HW2 7646   4.021   1.136   3.207  1.7778 -0.9143 -0.1354
    1SOL    HW3 7647   3.939   1.186   3.090 -0.0691  0.2799  1.6301
    1SOL    MW4 7648   4.015   1.158   3.123  0.4635 -0.0545  0.1752
    1SOL     OW 7649   4.256   1.274   3.027 -0.5230 -0.2059 -0.1194
    1SOL    HW2 7650   4.169   1.242   3.053  0.1537 -0.9324  1.3081
    1SOL    HW3 7651   4.255   1.271   2.932 -2.0305 -0.3165 -0.1202
    1SOL    MW4 7652   4.244   1.270   3.018 -0.6328 -0.3164  0.0687
    1SOL     OW 7653   4.257   1.536   3.144 -0.0242  0.1970 -0.5662
    1SOL    HW2 7654   4.187   1.579   3.095 -1.3583 -1.4811 -0.1865
    1SOL    HW3 7655   4.258   1.446   3.111  1.4614  0.0057 -0.0353
    1SOL    MW4 7656   4.248   1.530   3.133 -0.0043 -0.0497 -0.4461
    1SOL     OW 7657   4.040   1.636   3.003  0.1609  0.2965  0.3394
    1SOL    HW2 7658   4.020   1.720   3.045 -0.2445  0.2303  0.2751
    1SOL    HW3 7659   3.968   1.579   3.027  0.0767  0.1696 -0.1990
    1SOL    MW4 7660   4.028   1.640   3.011  0.0958  0.2710  0.2599
    1SOL     OW 7661   4.037   1.883   3.111  0.0542  0.4168  0.4851
    1SOL    HW2 7662   4.114   1.931   3.080 -0.0440 -0.4150 -1.1278
    1SOL    HW3 7663   3.963   1.931   3.074 -0.1569  0.4989  1.0078
    1SOL    MW4 7664   4.038   1.896   3.102  0.0138  0.3179  0.3412
    1SOL     OW 7665   4.261   2.025   3.021  0.1630 -0.0064  0.2653
    1SOL    HW2 7666   4.266   2.117   3.048  1.0088  0.1211 -0.2859
    1SOL    HW3 7667   4.254   2.028   2.926  0.5964 -0.5186  0.2142
    1SOL    MW4 7668   4.261   2.037   3.012  0.3319 -0.0572  0.1857
    1SOL     OW 7669   4.249   2.273   3.120 -0.1372  0.3179 -0.2698
    1SOL    HW2 7670   4.172   2.315   3.081  1.2513  0.4543 -2.9157
    1SOL    HW3 7671   4.323   2.326   3.091  1.1434 -0.8865  0.7387
    1SOL    MW4 7672   4.248   2.286   3.111  0.2151  0.1769 -0.4859
    1SOL     OW 7673   4.001   2.401   3.013  0.3401  0.0987 -0.0130
    1SOL    HW2 7674   4.002   2.491   3.046  0.8681 -0.4875  1.6255
    1SOL    HW3 7675   3.928   2.360   3.059  0.3527 -0.4149 -0.4598
    1SOL    MW4 7676   3.991   2.408   3.023  0.4113 -0.0463  0.1440
    1SOL     OW 7677   4.032   2.680   3.113  0.3002  0.5853 -0.0007
    1SOL    HW2 7678   4.033   2.700   3.207 -1.3563  0.9476 -0.0425
    1SOL    HW3 7679   3.959   2.731   3.079 -0.1521 -0.8357 -1.2001
    1SOL    MW4 7680   4.023   2.689   3.121  0.0219  0.4456 -0.1643
    1SOL     OW 7681   4.255   2.795   3.022  0.1761  0.0236 -0.4009
    1SOL    HW2 7682   4.188   2.730   3.043 -0.3363  0.6864  0.0386
    1SOL    HW3 7683   4.337   2.754   3.046 -0.2151 -0.1343  0.6813
    1SOL    MW4 7684   4.257   2.781   3.028  0.0572  0.0904 -0.2000
    1SOL     OW 7685   4.243   3.061   3.124  0.2176 -0.1015  0.3678
    1SOL    HW2 7686   4.165   3.107   3.094 -0.2333  0.0897  1.7959
    1SOL    HW3 7687   4.239   2.975   3.081 -0.7062 -0.0383  0.3182
    1SOL    MW4 7688   4.232   3.055   3.115  0.0358 -0.0677  0.5498
    1SOL     OW 7689   4.006   3.240   3.008  0.2568  0.0069 -0.0618
    1SOL    HW2 7690   4.013   3.329   3.044 -1.3937 -0.2882  1.0762
    1SOL    HW3 7691   4.015   3.252   2.914 -1.6900  1.6399 -0.0894
    1SOL    MW4 7692   4.008   3.254   3.000 -0.2184  0.1833  0.0846
    1SOL     OW 7693   4.039   3.490   3.116 -0.2997  0.3260 -0.0274
    1SOL    HW2 7694   4.042   3.478   3.211 -0.9365  0.0055 -0.0461
    1SOL    HW3 7695   3.959   3.541   3.100 -0.0305  0.6508 -0.3653
    1SOL    MW4 7696   4.029   3.495   3.126 -0.3481  0.3262 -0.0744
    1SOL     OW 7697   4.275   3.582   3.019 -0.3868 -0.0281 -0.3348
    1SOL    HW2 7698   4.280   3.668   3.059  1.3106 -0.3043  0.0979
    1SOL    HW3 7699   4.188   3.549   3.043 -0.3822  0.8603  0.9470
    1SOL    MW4 7700   4.264   3.589   3.028 -0.1626  0.0527 -0.1085
    1SOL     OW 7701   4.262   3.852   3.120 -0.5480 -0.1963 -0.0123
    1SOL    HW2 7702   4.186   3.894   3.079 -0.6635  0.6369  1.0279
    1SOL    HW3 7703   4.334   3.912   3.103 -0.3503 -0.4428 -0.0450
    1SOL    MW4 7704   4.261   3.865   3.112 -0.5374 -0.1190  0.1206
    1SOL     OW 7705   4.033   3.982   3.001  0.0413  0.0368  0.3185
    1SOL    HW2 7706   4.012   4.071   3.029  0.9372  0.6896 -0.9859
    1SOL    HW3 7707   3.958   3.930   3.028 -1.0043  1.4000  0.1332
    1SOL    MW4 7708   4.020   3.987   3.008  0.0215  0.3028  0.1223
    1SOL     OW 7709   4.039   4.245   3.094 -0.0274 -0.0613 -0.4364
    1SOL    HW2 7710   4.054   4.245   3.189  0.7915 -0.3431 -0.5648
    1SOL    HW3 7711   4.101   4.309   3.060  0.8421 -1.1853 -0.9654
    1SOL    MW4 7712   4.049   4.254   3.102  0.1960 -0.2470 -0.5231
    1SOL     OW 7713   4.246   4.390   3.014 -0.0679 -0.7061  0.1311
    1SOL    HW2 7714   4.313   4.339   3.060 -0.6402 -0.9120  0.7621
    1SOL    HW3 7715   4.267   4.380   2.922  1.0362 -0.3841  0.3454
    1SOL    MW4 7716   4.257   4.382   3.008  0.0019 -0.6905  0.2427
    1SOL     OW 7717   0.175   0.009   3.455 -0.2733 -0.0550  0.2379
    1SOL    HW2 7718   0.248   0.070   3.442 -0.6931 -0.0149 -2.2510
    1SOL    HW3 7719   0.216  -0.069   3.492  0.7049  0.6888  0.7694
    1SOL    MW4 7720   0.190   0.007   3.458 -0.1996  0.0482 -0.0203
    1SOL     OW 7721   4.430   0.138   3.509 -0.4182  0.1958  0.1752
    1SOL    HW2 7722   4.431   0.218   3.456  1.0388  0.2849  0.3311
    1SOL    HW3 7723   4.514   0.097   3.493 -0.0722  0.0654  2.1830
    1SOL    MW4 7724   4.441   0.143   3.500 -0.1802  0.1904  0.4606
    1SOL     OW 7725   4.449   0.383   3.387  0.1991  0.3578 -0.1746
    1SOL    HW2 7726   4.380   0.426   3.436 -0.2859 -0.5131 -0.0828
    1SOL    HW3 7727   4.530   0.411   3.429 -0.1839  0.0347  0.7906
    1SOL    MW4 7728   4.451   0.392   3.399  0.0844  0.2003 -0.0350
    1SOL     OW 7729   0.192   0.516   3.510 -0.3017  0.1478 -0.0331
    1SOL    HW2 7730   0.271   0.472   3.478  0.4596  0.2794  1.6057
    1SOL    HW3 7731   0.198   0.605   3.474 -1.0007 -0.5767 -1.9877
    1SOL    MW4 7732   0.203   0.522   3.501 -0.2935  0.0696 -0.0746
    1SOL     OW 7733   0.225   0.745   3.366 -0.0782  0.0583 -0.1854
    1SOL    HW2 7734   0.277   0.803   3.421  1.5778 -1.1331 -0.4488
    1SOL    HW3 7735   0.136   0.779   3.373  0.3779  0.9181  1.9004
    1SOL    MW4 7736   0.220   0.757   3.374  0.2005  0.0145  0.0551
    1SOL     OW 7737   4.460   0.869   3.473  0.0588 -0.0996  0.0732
    1SOL    HW2 7738   4.459   0.855   3.568 -0.2274 -1.2104 -0.0847
    1SOL    HW3 7739   4.449   0.963   3.462  0.5192  0.0873  1.1578
    1SOL    MW4 7740   4.459   0.880   3.484  0.0825 -0.2214  0.1955
    1SOL     OW 7741   4.474   1.148   3.404  0.3134  0.4663 -0.3537
    1SOL    HW2 7742   4.556   1.186   3.434 -0.2960  1.1547  0.4605
    1SOL    HW3 7743   4.480   1.150   3.308  1.6454 -0.3811 -0.3016
    1SOL    MW4 7744   4.486   1.153   3.395  0.4087  0.4454 -0.2394
    1SOL     OW 7745   0.215   1.279   3.485 -0.3588 -0.4356 -0.7073
    1SOL    HW2 7746   0.230   1.276   3.579  0.4075 -0.4737 -0.8260
    1SOL    HW3 7747   0.218   1.373   3.464  0.9565 -0.5271 -0.9255
    1SOL    MW4 7748   0.217   1.291   3.495 -0.0842 -0.4529 -0.7517
    1SOL     OW 7749   0.205   1.555   3.403 -0.0133  0.0862 -0.3104
    1SOL    HW2 7750   0.290   1.585   3.434  0.0829 -0.4391 -0.0537
    1SOL    HW3 7751   0.213   1.555   3.308  0.0727  0.6136 -0.3042
    1SOL    MW4 7752   0.217   1.559   3.395  0.0108  0.0864 -0.2756
    1SOL     OW 7753   4.456   1.679   3.512  0.2525  0.2057 -0.0212
    1SOL    HW2 7754   4.394   1.611   3.487  0.5723  0.0019 -0.2722
    1SOL    HW3 7755   4.538   1.654   3.468  0.2672  0.9693 -0.4409
    1SOL    MW4 7756   4.459   1.667   3.503  0.2966  0.2795 -0.1097
    1SOL     OW 7757   4.388   1.912   3.393 -0.2425  0.2765 -0.8637
    1SOL    HW2 7758   4.409   1.834   3.444  0.2047  0.8990 -0.0850
    1SOL    HW3 7759   4.419   1.892   3.304 -0.6691 -0.6556 -0.8060
    1SOL    MW4 7760   4.395   1.899   3.388 -0.2398  0.2357 -0.7534
    1SOL     OW 7761   0.160   2.004   3.471 -0.3325  0.5037 -0.1721
    1SOL    HW2 7762   0.070   1.972   3.461  0.3515 -1.4783 -0.2819
    1SOL    HW3 7763   0.170   2.019   3.565 -0.3024 -0.8094  0.0495
    1SOL    MW4 7764   0.149   2.002   3.482 -0.2383  0.0691 -0.1574
    1SOL     OW 7765   0.220   2.264   3.413  0.0379 -0.6166  0.0191
    1SOL    HW2 7766   0.150   2.322   3.445  0.3280 -1.5092  2.3804
    1SOL    HW3 7767   0.188   2.176   3.433 -0.0300 -1.2580 -2.7766
    1SOL    MW4 7768   0.206   2.260   3.420  0.0672 -0.8190 -0.0379
    1SOL     OW 7769   0.010   2.423   3.480  0.1493  0.4966  0.0644
    1SOL    HW2 7770  -0.004   2.426   3.574  0.4722 -1.1542  0.1795
    1SOL    HW3 7771  -0.074   2.394   3.444  0.7138 -1.2285  0.0664
    1SOL    MW4 7772  -0.003   2.420   3.487  0.2666  0.0513  0.0799
    1SOL     OW 7773   0.023   2.686   3.360 -0.0158 -0.1451 -0.1457
    1SOL    HW2 7774   0.098   2.730   3.399  0.0230  0.2854 -0.7091
    1SOL    HW3 7775   0.034   2.594   3.385  0.4866 -0.0182  0.1017
    1SOL    MW4 7776   0.034   2.679   3.369  0.0556 -0.0713 -0.1874
    1SOL     OW 7777   0.214   2.813   3.506 -0.1158  0.3332 -0.5215
    1SOL    HW2 7778   0.304   2.789   3.486  0.1145  1.1439 -0.4956
    1SOL    HW3 7779   0.212   2.909   3.498 -0.5103  0.5008  1.3391
    1SOL    MW4 7780   0.225   2.823   3.502 -0.1374  0.4621 -0.2725
    1SOL     OW 7781   0.180   3.087   3.442 -0.4968  0.2033 -0.0646
    1SOL    HW2 7782   0.103   3.140   3.464  0.1515  1.1992 -0.1774
    1SOL    HW3 7783   0.164   3.059   3.352 -0.9678 -0.0264  0.0862
    1SOL    MW4 7784   0.168   3.090   3.433 -0.4734  0.3042 -0.0596
    1SOL     OW 7785   4.453   3.250   3.468 -0.3119 -0.0820  0.0052
    1SOL    HW2 7786   4.381   3.201   3.430 -1.0142  0.6262  0.3879
    1SOL    HW3 7787   4.438   3.340   3.440 -0.1679  0.2466  0.9441
    1SOL    MW4 7788   4.442   3.256   3.460 -0.3856  0.0551  0.1793
    1SOL     OW 7789   0.013   3.509   3.369 -0.2591 -0.2106  0.3198
    1SOL    HW2 7790  -0.064   3.557   3.402  0.1835 -0.5616  1.8884
    1SOL    HW3 7791   0.000   3.507   3.274 -1.5429  0.8555  0.4482
    1SOL    MW4 7792   0.001   3.515   3.361 -0.3700 -0.1163  0.5438
    1SOL     OW 7793   0.244   3.621   3.483 -0.1975 -0.3755  0.0948
    1SOL    HW2 7794   0.235   3.604   3.577  0.6748  0.2700  0.3021
    1SOL    HW3 7795   0.165   3.583   3.444 -1.4171  0.8551  1.2874
    1SOL    MW4 7796   0.232   3.614   3.491 -0.2434 -0.1278  0.2794
    1SOL     OW 7797   0.275   3.879   3.391  0.7031  0.0930  0.3067
    1SOL    HW2 7798   0.187   3.909   3.412  0.2378 -0.2973 -1.0134
    1SOL    HW3 7799   0.276   3.787   3.416  0.7948  0.1511  0.5115
    1SOL    MW4 7800   0.264   3.871   3.397  0.6538  0.0491  0.1595
    1SOL     OW 7801   0.019   3.989   3.477  0.2359 -0.1270 -0.1482
    1SOL    HW2 7802  -0.006   3.995   3.569  1.4675 -0.1800  0.1951
    1SOL    HW3 7803   0.019   4.079   3.446  0.4395 -0.0542  0.0667
    1SOL    MW4 7804   0.015   4.001   3.485  0.4258 -0.1245 -0.0746
    1SOL     OW 7805   0.006   4.248   3.394 -0.3554  0.3724 -0.0579
    1SOL    HW2 7806  -0.070   4.297   3.426 -0.1603  0.6076  0.0475
    1SOL    HW3 7807   0.082   4.300   3.421 -0.0668 -0.8606  1.5833
    1SOL    MW4 7808   0.006   4.261   3.402 -0.2918  0.2408  0.1724
    1SOL     OW 7809   0.235   4.398   3.471  0.4531 -0.3471  0.3448
    1SOL    HW2 7810   0.217   4.398   3.565  2.7342  2.3271  0.8543
    1SOL    HW3 7811   0.322   4.357   3.464  1.4209  1.7694 -0.2977
    1SOL    MW4 7812   0.244   4.393   3.483  0.8818  0.2847  0.3273
    1SOL     OW 7813   0.672   0.032   3.377  0.1347 -0.5046 -0.0130
    1SOL    HW2 7814   0.751   0.075   3.411 -0.8595  1.1359  0.2604
    1SOL    HW3 7815   0.691   0.018   3.284  1.7764 -2.5232  0.5804
    1SOL    MW4 7816   0.685   0.036   3.369  0.2201 -0.5545  0.1013
    1SOL     OW 7817   0.422   0.134   3.488  0.4965 -0.0592  0.1107
    1SOL    HW2 7818   0.430   0.144   3.583  0.3723  1.2192 -0.0040
    1SOL    HW3 7819   0.502   0.089   3.462  1.3520  1.1526  0.6067
    1SOL    MW4 7820   0.434   0.129   3.497  0.5929  0.2693  0.1609
    1SOL     OW 7821   0.434   0.401   3.404  0.2331 -0.0772  0.1198
    1SOL    HW2 7822   0.498   0.444   3.460  2.5772 -0.8417 -1.9322
    1SOL    HW3 7823   0.439   0.309   3.428 -0.2468 -0.1217  0.0685
    1SOL    MW4 7824   0.443   0.395   3.415  0.4790 -0.1840 -0.1578
    1SOL     OW 7825   0.667   0.556   3.486  0.3906  0.2769  0.3644
    1SOL    HW2 7826   0.677   0.539   3.580  1.0340  0.0562  0.2582
    1SOL    HW3 7827   0.734   0.501   3.445  0.8965  1.2800 -0.1512
    1SOL    MW4 7828   0.677   0.546   3.493  0.5423  0.3802  0.2825
    1SOL     OW 7829   0.636   0.806   3.346  0.3614  0.5107  0.0548
    1SOL    HW2 7830   0.566   0.858   3.384 -1.2838 -0.6645 -1.2905
    1SOL    HW3 7831   0.630   0.721   3.391  2.9404  1.3555  2.1520
    1SOL    MW4 7832   0.626   0.801   3.357  0.4846  0.4671  0.1543
    1SOL     OW 7833   0.413   0.924   3.495  0.1315 -0.1605 -0.0359
    1SOL    HW2 7834   0.425   0.920   3.590 -2.0258  0.2792  0.2681
    1SOL    HW3 7835   0.432   1.015   3.472  3.1967 -0.8226 -0.4386
    1SOL    MW4 7836   0.417   0.936   3.504  0.2513 -0.1899 -0.0489
    1SOL     OW 7837   0.461   1.182   3.399 -0.3429 -0.0830  0.1014
    1SOL    HW2 7838   0.378   1.229   3.413 -0.8680 -0.7926 -0.5870
    1SOL    HW3 7839   0.475   1.188   3.304  0.9337  0.9255  0.3397
    1SOL    MW4 7840   0.452   1.189   3.388 -0.2437 -0.0435  0.0420
    1SOL     OW 7841   0.715   1.276   3.505 -0.1933 -0.1022 -0.1334
    1SOL    HW2 7842   0.639   1.235   3.464 -0.2837  0.7370 -0.8327
    1SOL    HW3 7843   0.715   1.366   3.470  1.0241 -0.0528 -0.0255
    1SOL    MW4 7844   0.705   1.283   3.495 -0.0446  0.0151 -0.2112
    1SOL     OW 7845   0.711   1.542   3.374  0.5894  0.6450 -0.6572
    1SOL    HW2 7846   0.780   1.587   3.423  0.8001 -1.3361  0.9259
    1SOL    HW3 7847   0.630   1.570   3.415  0.6996 -0.1598  0.1098
    1SOL    MW4 7848   0.710   1.552   3.386  0.6317  0.2774 -0.3471
    1SOL     OW 7849   0.468   1.646   3.497 -0.2212  0.4351  0.2057
    1SOL    HW2 7850   0.458   1.655   3.591 -0.0160  0.2039  0.2511
    1SOL    HW3 7851   0.480   1.736   3.465  3.5556  0.2697  0.8585
    1SOL    MW4 7852   0.468   1.659   3.505  0.3042  0.3828  0.2980
    1SOL     OW 7853   0.426   1.903   3.384  0.0576 -0.0370 -0.0078
    1SOL    HW2 7854   0.343   1.948   3.397  0.6678  0.8212  0.9749
    1SOL    HW3 7855   0.442   1.909   3.290 -1.6795 -1.4667 -0.4445
    1SOL    MW4 7856   0.417   1.910   3.374 -0.0911 -0.1123  0.0644
    1SOL     OW 7857   0.649   2.061   3.491 -0.0377  0.2112  0.1803
    1SOL    HW2 7858   0.650   2.068   3.587 -1.0511  2.5917  0.0503
    1SOL    HW3 7859   0.584   1.994   3.472  0.0135 -0.1227  1.1469
    1SOL    MW4 7860   0.641   2.053   3.501 -0.1647  0.4814  0.2906
    1SOL     OW 7861   0.635   2.326   3.393  0.1538  0.3107  0.5071
    1SOL    HW2 7862   0.721   2.365   3.407  0.6532  0.0204 -1.5032
    1SOL    HW3 7863   0.642   2.239   3.433  1.2027 -0.1466 -0.6148
    1SOL    MW4 7864   0.648   2.319   3.400  0.3581  0.2122  0.0939
    1SOL     OW 7865   0.417   2.436   3.501 -0.3566  0.2954  0.0049
    1SOL    HW2 7866   0.496   2.407   3.455 -0.6133  1.8183 -1.4577
    1SOL    HW3 7867   0.351   2.370   3.479  0.6596 -1.3591  1.8009
    1SOL    MW4 7868   0.418   2.423   3.492 -0.2564  0.2778  0.0491
    1SOL     OW 7869   0.466   2.685   3.401 -0.5227 -0.6349 -0.1293
    1SOL    HW2 7870   0.447   2.594   3.420  1.1803 -0.9956 -0.0831
    1SOL    HW3 7871   0.445   2.695   3.308  0.2922 -1.3521 -0.3929
    1SOL    MW4 7872   0.461   2.674   3.391 -0.1906 -0.7770 -0.1576
    1SOL     OW 7873   0.668   2.862   3.488 -0.0968 -0.3048 -0.2278
    1SOL    HW2 7874   0.755   2.827   3.469 -0.4272 -0.1246 -2.1720
    1SOL    HW3 7875   0.608   2.799   3.449 -0.8190 -0.0204  0.4245
    1SOL    MW4 7876   0.672   2.849   3.481 -0.2356 -0.2434 -0.3984
    1SOL     OW 7877   0.645   3.105   3.357 -0.0833 -0.2849  0.4073
    1SOL    HW2 7878   0.563   3.136   3.396  0.2442  2.1551 -0.7235
    1SOL    HW3 7879   0.654   3.015   3.387 -3.0038 -0.4720  0.8389
    1SOL    MW4 7880   0.635   3.097   3.366 -0.4253  0.0124  0.3150
    1SOL     OW 7881   0.419   3.237   3.448  0.0333 -0.4291  0.2182
    1SOL    HW2 7882   0.422   3.242   3.543 -1.7122 -0.2820  0.2936
    1SOL    HW3 7883   0.335   3.194   3.429  0.5482 -0.8206 -1.2402
    1SOL    MW4 7884   0.408   3.232   3.458 -0.1290 -0.4613  0.0358
    1SOL     OW 7885   0.463   3.487   3.357 -0.3884  0.0152 -0.0531
    1SOL    HW2 7886   0.444   3.404   3.402  1.1565  0.9083  2.3590
    1SOL    HW3 7887   0.394   3.546   3.385 -0.5017  0.0378 -0.3796
    1SOL    MW4 7888   0.451   3.484   3.367 -0.1996  0.1361  0.2222
    1SOL     OW 7889   0.672   3.607   3.486 -0.2861 -0.3570 -0.1524
    1SOL    HW2 7890   0.749   3.566   3.447 -0.9913 -1.0292 -0.8560
    1SOL    HW3 7891   0.597   3.561   3.447 -1.0334 -0.4918  1.3759
    1SOL    MW4 7892   0.672   3.596   3.476 -0.4777 -0.4635 -0.0436
    1SOL     OW 7893   0.673   3.838   3.342  0.3832 -0.1617 -0.5531
    1SOL    HW2 7894   0.616   3.887   3.401 -0.2856 -0.7986 -0.6681
    1SOL    HW3 7895   0.679   3.750   3.381  1.4934 -0.0299 -0.3986
    1SOL    MW4 7896   0.666   3.833   3.355  0.4414 -0.2284 -0.5481
    1SOL     OW 7897   0.487   3.984   3.501 -0.4693 -0.2900 -0.0658
    1SOL    HW2 7898   0.481   4.076   3.476 -1.4496 -0.2474  0.2775
    1SOL    HW3 7899   0.407   3.944   3.466  0.6906 -1.3525 -1.5674
    1SOL    MW4 7900   0.476   3.991   3.493 -0.4456 -0.4246 -0.2184
    1SOL     OW 7901   0.474   4.256   3.422  0.0527  0.2088 -0.0107
    1SOL    HW2 7902   0.534   4.322   3.458 -1.4317  0.7156  1.5503
    1SOL    HW3 7903   0.478   4.271   3.327 -1.0382  3.2632  0.3522
    1SOL    MW4 7904   0.483   4.267   3.414 -0.2871  0.6785  0.2434
    1SOL     OW 7905   0.680   4.448   3.494 -0.2043  0.0284  0.1222
    1SOL    HW2 7906   0.758   4.414   3.450  0.3946  0.6878  0.6643
    1SOL    HW3 7907   0.672   4.538   3.464 -0.0029  0.3706  1.0743
    1SOL    MW4 7908   0.689   4.455   3.485 -0.0987  0.1602  0.3195
    1SOL     OW 7909   1.116   4.642   3.406  0.0973 -0.5478  0.5894
    1SOL    HW2 7910   1.196   4.687   3.433  0.7082 -1.5274  0.4343
    1SOL    HW3 7911   1.109   4.659   3.312 -0.8852  1.0815  0.9343
    1SOL    MW4 7912   1.125   4.650   3.397  0.0482 -0.4625  0.6144
    1SOL     OW 7913   0.919   0.160   3.449  0.0678 -0.1582 -0.4662
    1SOL    HW2 7914   0.912   0.161   3.545  0.3850  0.9271 -0.4432
    1SOL    HW3 7915   0.982   0.090   3.431 -0.3303 -0.6729  0.0885
    1SOL    MW4 7916   0.926   0.151   3.460  0.0571 -0.0830 -0.3898
    1SOL     OW 7917   0.877   0.415   3.375  0.1440 -0.3544 -0.3829
    1SOL    HW2 7918   0.959   0.457   3.402 -0.4512  0.2254  0.5339
    1SOL    HW3 7919   0.889   0.323   3.398  0.8640 -0.4384 -1.0354
    1SOL    MW4 7920   0.890   0.409   3.381  0.1605 -0.2890 -0.3481
    1SOL     OW 7921   1.101   0.551   3.450 -0.0119  0.4488 -0.4786
    1SOL    HW2 7922   1.099   0.558   3.545 -1.4666 -0.1201 -0.4525
    1SOL    HW3 7923   1.080   0.639   3.419 -1.7320  0.1457 -0.2444
    1SOL    MW4 7924   1.098   0.564   3.458 -0.4308  0.3337 -0.4442
    1SOL     OW 7925   1.113   0.796   3.326 -0.0746 -0.3281 -0.2457
    1SOL    HW2 7926   1.188   0.835   3.371  0.3420 -0.3174 -0.9425
    1SOL    HW3 7927   1.036   0.832   3.371  0.3299  0.1361  0.0746
    1SOL    MW4 7928   1.113   0.806   3.338  0.0337 -0.2655 -0.2952
    1SOL     OW 7929   0.891   0.881   3.464 -0.1267 -0.0912 -0.0569
    1SOL    HW2 7930   0.900   0.976   3.456 -0.6246 -0.1646 -1.5812
    1SOL    HW3 7931   0.802   0.863   3.433 -0.3653 -0.9604  1.1013
    1SOL    MW4 7932   0.880   0.891   3.459 -0.2239 -0.2155 -0.1049
    1SOL     OW 7933   0.932   1.147   3.407  0.0017 -0.1110  0.0484
    1SOL    HW2 7934   1.012   1.191   3.435  0.0208  0.4184 -0.8138
    1SOL    HW3 7935   0.862   1.199   3.446  0.0542 -0.0703  0.0899
    1SOL    MW4 7936   0.933   1.160   3.416  0.0112 -0.0358 -0.0598
    1SOL     OW 7937   1.141   1.301   3.503  0.0372  0.1944  0.5076
    1SOL    HW2 7938   1.122   1.297   3.596 -0.6850  0.0604  0.3571
    1SOL    HW3 7939   1.123   1.392   3.479 -0.0721  0.1567  0.4429
    1SOL    MW4 7940   1.136   1.313   3.512 -0.0725  0.1718  0.4792
    1SOL     OW 7941   1.119   1.567   3.420  0.1877  0.3011  0.5486
    1SOL    HW2 7942   1.202   1.607   3.443  0.6404  0.1964 -0.8651
    1SOL    HW3 7943   1.123   1.556   3.325 -0.6985 -1.3535  0.6867
    1SOL    MW4 7944   1.130   1.571   3.411  0.1304  0.0691  0.3800
    1SOL     OW 7945   0.889   1.700   3.501 -0.0943  0.1937 -0.1455
    1SOL    HW2 7946   0.878   1.776   3.444 -0.6292 -0.1037 -0.4359
    1SOL    HW3 7947   0.970   1.659   3.470 -0.1534  0.2777 -0.4160
    1SOL    MW4 7948   0.898   1.705   3.489 -0.1726  0.1655 -0.2196
    1SOL     OW 7949   0.860   1.944   3.367 -0.5162  0.0394 -0.0584
    1SOL    HW2 7950   0.941   1.984   3.399 -0.7655 -0.3330  1.0500
    1SOL    HW3 7951   0.790   1.988   3.417 -0.9336 -0.2827 -0.3566
    1SOL    MW4 7952   0.861   1.955   3.378 -0.6042 -0.0522  0.0482
    1SOL     OW 7953   1.103   2.054   3.461 -0.3364 -0.1454 -0.2052
    1SOL    HW2 7954   1.189   2.025   3.430 -0.4210  0.2120 -0.7709
    1SOL    HW3 7955   1.096   2.145   3.431 -0.2292  0.3625  1.2331
    1SOL    MW4 7956   1.113   2.062   3.453 -0.3333 -0.0312 -0.0899
    1SOL     OW 7957   1.099   2.305   3.350  0.4842 -0.3838  0.1975
    1SOL    HW2 7958   1.178   2.350   3.381  0.4866 -0.5826  0.4850
    1SOL    HW3 7959   1.091   2.330   3.258  0.4171  0.3102  0.3849
    1SOL    MW4 7960   1.108   2.314   3.342  0.4756 -0.3185  0.2601
    1SOL     OW 7961   0.874   2.450   3.463 -0.0567 -0.1204  0.1911
    1SOL    HW2 7962   0.873   2.438   3.558 -0.6292  0.6005  0.2779
    1SOL    HW3 7963   0.942   2.390   3.432  0.3359 -0.1416  1.0831
    1SOL    MW4 7964   0.882   2.440   3.472 -0.0805 -0.0279  0.3202
    1SOL     OW 7965   0.904   2.725   3.382  0.4498  0.0183 -0.1362
    1SOL    HW2 7966   0.988   2.757   3.415  0.0502 -0.7913  1.7093
    1SOL    HW3 7967   0.892   2.639   3.422 -0.5972 -0.5061 -1.5105
    1SOL    MW4 7968   0.913   2.718   3.391  0.2589 -0.1576 -0.0739
    1SOL     OW 7969   1.132   2.839   3.497 -0.3189  0.1349 -0.1523
    1SOL    HW2 7970   1.111   2.828   3.590 -0.6212 -0.7158 -0.3142
    1SOL    HW3 7971   1.218   2.797   3.487 -0.3952  0.0127 -0.3006
    1SOL    MW4 7972   1.141   2.832   3.508 -0.3690  0.0064 -0.1931
    1SOL     OW 7973   1.112   3.089   3.412  0.2280  0.2301  0.0070
    1SOL    HW2 7974   1.114   2.998   3.439  0.6890  0.6883  1.5919
    1SOL    HW3 7975   1.121   3.087   3.317  0.0678 -1.3728  0.0197
    1SOL    MW4 7976   1.113   3.077   3.403  0.2677  0.0792  0.2179
    1SOL     OW 7977   0.876   3.222   3.488  0.4125  0.2195  0.1535
    1SOL    HW2 7978   0.945   3.162   3.459 -0.0544  0.3943 -1.3401
    1SOL    HW3 7979   0.797   3.189   3.445  0.3758  2.6652 -1.7015
    1SOL    MW4 7980   0.875   3.210   3.479  0.3461  0.5653 -0.2882
    1SOL     OW 7981   0.892   3.472   3.398 -0.6154 -0.0472  0.1888
    1SOL    HW2 7982   0.882   3.382   3.429  1.2249 -0.1640  0.4874
    1SOL    HW3 7983   0.914   3.464   3.306  1.0613  0.0226  0.5687
    1SOL    MW4 7984   0.893   3.459   3.390 -0.1515 -0.0536  0.2785
    1SOL     OW 7985   1.145   3.570   3.476 -0.3913  0.2971  0.5802
    1SOL    HW2 7986   1.122   3.598   3.565 -1.2137 -1.1011  0.8294
    1SOL    HW3 7987   1.068   3.520   3.447  1.0174 -1.6432  0.1418
    1SOL    MW4 7988   1.132   3.567   3.484 -0.3139 -0.1431  0.5553
    1SOL     OW 7989   1.114   3.838   3.398  0.1629  0.4738  0.0456
    1SOL    HW2 7990   1.191   3.878   3.440  0.2409 -0.0946  0.4360
    1SOL    HW3 7991   1.120   3.745   3.419 -0.8796  0.4916  0.4572
    1SOL    MW4 7992   1.125   3.831   3.407  0.0356  0.4010  0.1514
    1SOL     OW 7993   0.876   3.980   3.472  0.1808  0.0323  0.1943
    1SOL    HW2 7994   0.958   3.936   3.452 -0.6845 -2.4898  2.0330
    1SOL    HW3 7995   0.810   3.932   3.422 -0.5683  0.2274  0.9869
    1SOL    MW4 7996   0.878   3.968   3.463 -0.0322 -0.2747  0.5414
    1SOL     OW 7997   0.872   4.269   3.408  0.0639 -0.2889 -0.2334
    1SOL    HW2 7998   0.838   4.188   3.445  0.9955 -0.3448  0.5331
    1SOL    HW3 7999   0.889   4.249   3.316 -1.5111 -0.3899 -0.5062
    1SOL    MW4 8000   0.870   4.256   3.401 -0.0210 -0.3099 -0.1683
    1SOL     OW 8001   1.137   4.354   3.465 -0.1037  0.2607 -0.4099
    1SOL    HW2 8002   1.045   4.339   3.442 -0.0929  0.8305 -0.8330
    1SOL    HW3 8003   1.152   4.447   3.446  0.6395  0.1015 -0.6290
    1SOL    MW4 8004   1.127   4.364   3.460 -0.0043  0.3147 -0.4945
    1SOL     OW 8005   1.557   4.660   3.393 -0.2737 -0.1034 -0.2637
    1SOL    HW2 8006   1.535   4.586   3.449  0.1655  1.5503  2.2123
    1SOL    HW3 8007   1.478   4.714   3.392 -0.5509 -0.5229 -1.9428
    1SOL    MW4 8008   1.544   4.657   3.400 -0.2522  0.0591 -0.1585
    1SOL     OW 8009   1.331   0.138   3.474 -0.0381 -0.9547  0.0788
    1SOL    HW2 8010   1.349   0.131   3.567  1.0450  0.4905  0.0049
    1SOL    HW3 8011   1.309   0.231   3.460 -0.9309 -1.3112 -0.9679
    1SOL    MW4 8012   1.331   0.150   3.484 -0.0129 -0.8111 -0.0689
    1SOL     OW 8013   1.329   0.413   3.349 -0.3267  0.3075  0.0125
    1SOL    HW2 8014   1.407   0.446   3.394 -0.1089 -0.2432  0.0439
    1SOL    HW3 8015   1.257   0.464   3.387  0.0615  1.1320 -0.3380
    1SOL    MW4 8016   1.330   0.424   3.360 -0.2468  0.3437 -0.0296
    1SOL     OW 8017   1.534   0.537   3.498  0.3653 -0.2456 -0.3663
    1SOL    HW2 8018   1.542   0.542   3.594 -0.8051 -0.7917 -0.2295
    1SOL    HW3 8019   1.624   0.522   3.468  0.4059 -2.8116  0.8524
    1SOL    MW4 8020   1.547   0.536   3.507  0.2161 -0.6562 -0.1874
    1SOL     OW 8021   1.529   0.788   3.362 -0.2738 -0.0745 -0.0574
    1SOL    HW2 8022   1.476   0.852   3.410  0.1826  0.6384 -0.4927
    1SOL    HW3 8023   1.519   0.706   3.412 -0.8382  0.3401  0.5195
    1SOL    MW4 8024   1.521   0.786   3.375 -0.2881  0.0742 -0.0389
    1SOL     OW 8025   1.326   0.941   3.457 -0.4184  0.0936 -0.2173
    1SOL    HW2 8026   1.348   0.939   3.550  0.5073 -0.7698 -0.4519
    1SOL    HW3 8027   1.331   1.033   3.433 -2.7129  0.6052  1.0668
    1SOL    MW4 8028   1.329   0.953   3.466 -0.5990  0.0471 -0.0787
    1SOL     OW 8029   1.354   1.206   3.354 -0.1081  0.3355 -0.0127
    1SOL    HW2 8030   1.429   1.251   3.395 -0.7926  2.2851 -0.8302
    1SOL    HW3 8031   1.279   1.234   3.407 -0.2716 -1.6798  0.8493
    1SOL    MW4 8032   1.354   1.216   3.367 -0.2201  0.3266 -0.0067
    1SOL     OW 8033   1.572   1.318   3.471 -0.4222 -0.4322  0.4122
    1SOL    HW2 8034   1.569   1.275   3.556  1.2530  0.8323  1.1411
    1SOL    HW3 8035   1.641   1.273   3.423 -0.2948 -0.1174  0.2981
    1SOL    MW4 8036   1.581   1.306   3.475 -0.1843 -0.2239  0.4935
    1SOL     OW 8037   1.588   1.573   3.367 -0.4183 -0.6431 -0.1011
    1SOL    HW2 8038   1.586   1.485   3.406 -2.4140 -1.3251 -1.6136
    1SOL    HW3 8039   1.570   1.557   3.274 -1.2119  1.4035 -0.3143
    1SOL    MW4 8040   1.585   1.559   3.360 -0.7863 -0.4631 -0.3290
    1SOL     OW 8041   1.364   1.695   3.449 -0.2217  0.1378  0.0809
    1SOL    HW2 8042   1.365   1.693   3.545 -2.4480  0.3564  0.1299
    1SOL    HW3 8043   1.440   1.643   3.424 -0.5878 -1.3875  1.9686
    1SOL    MW4 8044   1.374   1.688   3.459 -0.5636 -0.0346  0.3364
    1SOL     OW 8045   1.361   1.961   3.379  0.3623 -0.0685  0.3975
    1SOL    HW2 8046   1.424   2.003   3.438  0.9573  0.9478 -0.9347
    1SOL    HW3 8047   1.359   1.869   3.407  2.4273 -0.1040  0.4549
    1SOL    MW4 8048   1.369   1.954   3.390  0.7131  0.0610  0.2294
    1SOL     OW 8049   1.562   2.098   3.536  0.1804  0.1308  0.7209
    1SOL    HW2 8050   1.623   2.041   3.489 -0.4993  0.1343 -0.2060
    1SOL    HW3 8051   1.557   2.177   3.483 -1.3675 -0.2624  0.2329
    1SOL    MW4 8052   1.569   2.101   3.523 -0.1136  0.0792  0.5343
    1SOL     OW 8053   1.557   2.336   3.395  0.0059  0.6342  0.1206
    1SOL    HW2 8054   1.478   2.370   3.438 -1.5092 -1.7517 -0.6241
    1SOL    HW3 8055   1.538   2.341   3.302  0.7212  0.0128 -0.0627
    1SOL    MW4 8056   1.544   2.341   3.389 -0.0997  0.2372 -0.0019
    1SOL     OW 8057   1.316   2.422   3.497 -0.5107 -0.2217  0.0242
    1SOL    HW2 8058   1.327   2.413   3.592 -0.6122  0.0812  0.0650
    1SOL    HW3 8059   1.323   2.516   3.481 -0.5315 -0.2690 -0.2653
    1SOL    MW4 8060   1.318   2.433   3.507 -0.5268 -0.1881 -0.0083
    1SOL     OW 8061   1.371   2.708   3.435 -0.0836 -0.0625 -0.1793
    1SOL    HW2 8062   1.453   2.756   3.451  1.4384 -2.0362 -1.7549
    1SOL    HW3 8063   1.358   2.715   3.340 -2.3845  1.1752  0.1994
    1SOL    MW4 8064   1.380   2.716   3.425 -0.1863 -0.1597 -0.3371
    1SOL     OW 8065   1.604   2.822   3.520 -0.2353 -0.0079 -0.8198
    1SOL    HW2 8066   1.678   2.770   3.491  0.4397  0.6758 -0.3367
    1SOL    HW3 8067   1.602   2.898   3.461  0.0955  0.5067 -0.1772
    1SOL    MW4 8068   1.613   2.825   3.509 -0.1025  0.1502 -0.6711
    1SOL     OW 8069   1.596   3.041   3.357  0.1877 -0.0896 -0.0984
    1SOL    HW2 8070   1.661   3.102   3.390 -0.6315 -0.0182  1.4459
    1SOL    HW3 8071   1.513   3.088   3.365  0.0929  0.5402 -3.7952
    1SOL    MW4 8072   1.593   3.055   3.363  0.0671  0.0029 -0.3824
    1SOL     OW 8073   1.386   3.202   3.435  0.2207  0.3416  0.0640
    1SOL    HW2 8074   1.403   3.195   3.529  0.5876  1.1905  0.0711
    1SOL    HW3 8075   1.296   3.170   3.425 -0.1318  1.0532  0.8363
    1SOL    MW4 8076   1.376   3.197   3.446  0.2224  0.5479  0.1669
    1SOL     OW 8077   1.389   3.488   3.388 -0.1826  0.2931  0.7836
    1SOL    HW2 8078   1.397   3.400   3.425 -0.1173 -0.0961 -0.1401
    1SOL    HW3 8079   1.302   3.518   3.416 -0.6637 -0.5084  0.1773
    1SOL    MW4 8080   1.378   3.480   3.396 -0.2373  0.1359  0.5815
    1SOL     OW 8081   1.589   3.638   3.498 -0.0871 -0.5150  0.3354
    1SOL    HW2 8082   1.576   3.645   3.592 -0.6776  1.8356  0.1119
    1SOL    HW3 8083   1.512   3.592   3.466 -1.3979  1.4077  0.6534
    1SOL    MW4 8084   1.577   3.633   3.506 -0.3378  0.0489  0.3479
    1SOL     OW 8085   1.569   3.876   3.367 -0.3311  0.3234  0.0946
    1SOL    HW2 8086   1.568   3.792   3.413  2.2693  0.6551  0.8428
    1SOL    HW3 8087   1.577   3.852   3.275  0.7346 -0.2788  0.3285
    1SOL    MW4 8088   1.570   3.862   3.361  0.1526  0.2875  0.2241
    1SOL     OW 8089   1.338   3.994   3.487 -0.1385 -0.1771 -0.2751
    1SOL    HW2 8090   1.347   4.084   3.456 -0.1415  0.2178  0.8627
    1SOL    HW3 8091   1.404   3.945   3.438  0.0398  0.4861 -0.7077
    1SOL    MW4 8092   1.348   4.000   3.476 -0.1154 -0.0374 -0.1819
    1SOL     OW 8093   1.381   4.249   3.420  0.4447  0.1081  0.0900
    1SOL    HW2 8094   1.289   4.272   3.436  0.5482 -0.2882  1.3439
    1SOL    HW3 8095   1.390   4.249   3.325 -0.5634  1.2886 -0.0097
    1SOL    MW4 8096   1.370   4.252   3.410  0.3256  0.2112  0.2422
    1SOL     OW 8097   1.553   4.415   3.546  0.4599 -0.0390 -0.2550
    1SOL    HW2 8098   1.625   4.389   3.488  0.8406 -1.2765  0.7279
    1SOL    HW3 8099   1.481   4.357   3.523  0.7577 -0.8494  0.7896
    1SOL    MW4 8100   1.553   4.404   3.535  0.5494 -0.3090  0.0126
    1SOL     OW 8101   1.975   4.663   3.394 -0.1170 -0.4883 -0.1722
    1SOL    HW2 8102   2.052   4.711   3.423  0.3343 -0.5843 -1.1935
    1SOL    HW3 8103   1.902   4.699   3.445  0.5164 -0.0265  0.4016
    1SOL    MW4 8104   1.975   4.674   3.404  0.0260 -0.4400 -0.2310
    1SOL     OW 8105   1.779   0.157   3.489 -0.0624  0.1637  0.0814
    1SOL    HW2 8106   1.762   0.150   3.583  0.3697  0.4710  0.1775
    1SOL    HW3 8107   1.705   0.111   3.448  0.5516 -1.3241  0.6119
    1SOL    MW4 8108   1.767   0.150   3.496  0.0757  0.0079  0.1640
    1SOL     OW 8109   1.809   0.441   3.393  0.1789  0.2830  0.1460
    1SOL    HW2 8110   1.808   0.357   3.438 -1.2139 -0.6828 -1.5757
    1SOL    HW3 8111   1.806   0.418   3.300 -0.0665  2.2322 -0.3547
    1SOL    MW4 8112   1.808   0.427   3.386 -0.0372  0.4127 -0.1471
    1SOL     OW 8113   2.055   0.526   3.468  0.2379 -0.2756 -0.1064
    1SOL    HW2 8114   2.051   0.620   3.449  2.3620 -0.1282  0.0084
    1SOL    HW3 8115   1.964   0.496   3.461 -0.9103  2.3088  2.5195
    1SOL    MW4 8116   2.042   0.535   3.465  0.3669  0.0848  0.2553
    1SOL     OW 8117   2.019   0.787   3.373  0.0079  0.5133 -0.1279
    1SOL    HW2 8118   2.087   0.848   3.401 -0.2870  0.9890 -0.4417
    1SOL    HW3 8119   2.032   0.777   3.279 -0.1726  0.3698 -0.1397
    1SOL    MW4 8120   2.030   0.793   3.365 -0.0548  0.5571 -0.1709
    1SOL     OW 8121   1.779   0.904   3.461  0.2543 -0.0066 -0.2752
    1SOL    HW2 8122   1.853   0.852   3.433 -0.7007 -1.6981  0.2616
    1SOL    HW3 8123   1.702   0.858   3.427 -0.7157 -0.0561  1.8629
    1SOL    MW4 8124   1.778   0.891   3.453  0.0004 -0.2363  0.0777
    1SOL     OW 8125   1.780   1.176   3.354  0.2479 -0.1566  0.3114
    1SOL    HW2 8126   1.840   1.218   3.415  1.2140 -0.3109 -0.5169
    1SOL    HW3 8127   1.773   1.086   3.385  2.8061 -0.9543 -1.2885
    1SOL    MW4 8128   1.787   1.170   3.366  0.7129 -0.2823 -0.0088
    1SOL     OW 8129   2.014   1.280   3.479  0.6762 -0.0721 -0.2778
    1SOL    HW2 8130   2.031   1.268   3.573 -1.7731 -0.1258  0.1895
    1SOL    HW3 8131   1.995   1.373   3.470  0.2423 -0.1927 -0.6042
    1SOL    MW4 8132   2.013   1.291   3.490  0.2961 -0.0950 -0.2592
    1SOL     OW 8133   1.977   1.544   3.380  0.4997  0.0290  0.1256
    1SOL    HW2 8134   2.059   1.587   3.404  0.2121  0.1781  0.8388
    1SOL    HW3 8135   1.909   1.598   3.420  0.2076 -2.1158  2.6627
    1SOL    MW4 8136   1.979   1.557   3.388  0.4232 -0.2342  0.5546
    1SOL     OW 8137   1.771   1.720   3.508  0.2306 -0.2159 -0.1269
    1SOL    HW2 8138   1.774   1.806   3.466 -0.5292  0.6931  1.6455
    1SOL    HW3 8139   1.711   1.669   3.454  1.1748  0.1530 -1.5508
    1SOL    MW4 8140   1.763   1.725   3.495  0.2549 -0.0473 -0.0808
    1SOL     OW 8141   1.768   1.978   3.405 -0.2650  0.3150  0.3323
    1SOL    HW2 8142   1.848   2.017   3.439 -0.0465 -0.6666  0.9817
    1SOL    HW3 8143   1.778   1.980   3.310  0.1526  0.9544  0.3880
    1SOL    MW4 8144   1.780   1.983   3.397 -0.1810  0.2699  0.4253
    1SOL     OW 8145   1.995   2.089   3.504  0.3455 -0.3085  0.3641
    1SOL    HW2 8146   2.069   2.037   3.473  0.9259 -0.0498  1.2914
    1SOL    HW3 8147   2.008   2.175   3.463  1.5907  0.2935  1.9793
    1SOL    MW4 8148   2.006   2.094   3.494  0.5865 -0.1948  0.6998
    1SOL     OW 8149   2.043   2.314   3.351  0.3972 -0.4541 -0.0549
    1SOL    HW2 8150   1.970   2.359   3.394  2.5496  1.0281  2.1936
    1SOL    HW3 8151   2.034   2.336   3.258 -0.9514  1.1786  0.4494
    1SOL    MW4 8152   2.032   2.322   3.344  0.5033 -0.0432  0.3080
    1SOL     OW 8153   1.803   2.415   3.471 -0.4507  0.1437 -0.4522
    1SOL    HW2 8154   1.800   2.421   3.566  0.6369  2.0675 -0.5132
    1SOL    HW3 8155   1.722   2.368   3.447 -1.5515  1.1086  1.2997
    1SOL    MW4 8156   1.792   2.409   3.480 -0.4526  0.5248 -0.2294
    1SOL     OW 8157   1.810   2.695   3.397  0.1824  0.1027  0.0651
    1SOL    HW2 8158   1.895   2.727   3.427 -0.2256 -0.5945  2.0123
    1SOL    HW3 8159   1.807   2.604   3.425 -0.5512 -0.3318 -1.4094
    1SOL    MW4 8160   1.821   2.687   3.405  0.0317 -0.0465  0.1276
    1SOL     OW 8161   2.025   2.836   3.491 -0.1713  0.2270 -0.0644
    1SOL    HW2 8162   2.041   2.838   3.585 -1.5163  0.5820  0.1681
    1SOL    HW3 8163   2.030   2.928   3.464 -0.1703  0.1658 -0.2737
    1SOL    MW4 8164   2.028   2.848   3.500 -0.3488  0.2658 -0.0613
    1SOL     OW 8165   2.012   3.088   3.368  0.6697 -0.1770  0.0234
    1SOL    HW2 8166   2.091   3.135   3.394 -0.1237  0.0258  2.1404
    1SOL    HW3 8167   1.940   3.140   3.404 -0.4306 -0.6295 -1.4400
    1SOL    MW4 8168   2.013   3.101   3.376  0.4199 -0.2103  0.1097
    1SOL     OW 8169   1.790   3.215   3.472 -0.2812  0.2733 -0.2435
    1SOL    HW2 8170   1.804   3.203   3.566  0.5111  2.3681 -0.0615
    1SOL    HW3 8171   1.774   3.309   3.461 -0.1224  0.1065 -2.2284
    1SOL    MW4 8172   1.790   3.226   3.483 -0.1558  0.5276 -0.4816
    1SOL     OW 8173   1.815   3.481   3.415 -0.1603 -0.3074 -0.1123
    1SOL    HW2 8174   1.734   3.530   3.432 -0.5351 -1.0705  0.3179
    1SOL    HW3 8175   1.821   3.477   3.320 -1.1371 -1.0770 -0.1454
    1SOL    MW4 8176   1.805   3.487   3.405 -0.3386 -0.5095 -0.0598
    1SOL     OW 8177   2.026   3.646   3.527 -0.3350 -0.2971  0.5619
    1SOL    HW2 8178   2.089   3.592   3.479 -0.8339  1.2390 -1.9140
    1SOL    HW3 8179   1.942   3.604   3.512 -0.3684 -0.3324  0.8535
    1SOL    MW4 8180   2.023   3.633   3.519 -0.4053 -0.0989  0.2739
    1SOL     OW 8181   2.005   3.873   3.358  0.2290  0.1931  0.2007
    1SOL    HW2 8182   1.928   3.924   3.385 -0.0388  0.0261 -0.2415
    1SOL    HW3 8183   1.998   3.791   3.408  0.5679  0.5140  0.7830
    1SOL    MW4 8184   1.994   3.869   3.369  0.2382  0.2134  0.2193
    1SOL     OW 8185   1.787   4.026   3.454  0.1933 -0.1285 -0.4363
    1SOL    HW2 8186   1.788   4.022   3.550  0.7518  1.3039 -0.3728
    1SOL    HW3 8187   1.704   3.985   3.429 -0.3368  0.2335  0.7030
    1SOL    MW4 8188   1.776   4.020   3.464  0.1971  0.1087 -0.2775
    1SOL     OW 8189   1.757   4.285   3.396 -0.3486  0.0195  0.5081
    1SOL    HW2 8190   1.769   4.193   3.422 -0.4894 -0.2223 -0.2602
    1SOL    HW3 8191   1.754   4.282   3.300 -0.2306  0.8447  0.4776
    1SOL    MW4 8192   1.759   4.272   3.387 -0.3514  0.0968  0.4027
    1SOL     OW 8193   2.003   4.402   3.475  0.0587  0.0340  0.3958
    1SOL    HW2 8194   1.933   4.352   3.433  1.4911 -1.4605 -0.2767
    1SOL    HW3 8195   1.992   4.492   3.444 -1.5941 -0.1752  0.3629
    1SOL    MW4 8196   1.992   4.407   3.466  0.0296 -0.1912  0.3028
    1SOL     OW 8197   2.467   4.655   3.436  0.0670 -0.6912  0.3722
    1SOL    HW2 8198   2.441   4.570   3.473  0.6978 -0.5239  1.2064
    1SOL    HW3 8199   2.439   4.651   3.344  0.4786 -1.9684  0.2934
    1SOL    MW4 8200   2.460   4.643   3.429  0.2043 -0.8378  0.4721
    1SOL     OW 8201   2.200   0.115   3.491 -0.0588 -0.0374 -0.0796
    1SOL    HW2 8202   2.208   0.198   3.444  0.1633  0.7902  1.3877
    1SOL    HW3 8203   2.288   0.076   3.486 -0.3704 -0.6027 -1.4842
    1SOL    MW4 8204   2.213   0.120   3.484 -0.0708 -0.0028 -0.0718
    1SOL     OW 8205   2.259   0.349   3.367  0.6868 -0.0090 -0.2558
    1SOL    HW2 8206   2.339   0.388   3.402  0.2734 -0.1347  0.8651
    1SOL    HW3 8207   2.191   0.415   3.385  0.4531 -0.1042 -0.7798
    1SOL    MW4 8208   2.261   0.363   3.374  0.6013 -0.0382 -0.1769
    1SOL     OW 8209   2.452   0.483   3.481  0.2731 -0.0320  0.2145
    1SOL    HW2 8210   2.536   0.467   3.438 -0.3335 -0.0151 -1.0165
    1SOL    HW3 8211   2.436   0.577   3.469 -0.9758 -0.4368 -1.5879
    1SOL    MW4 8212   2.461   0.493   3.474  0.0286 -0.0832 -0.1855
    1SOL     OW 8213   2.398   0.761   3.420  0.6046 -0.0063  0.1226
    1SOL    HW2 8214   2.477   0.808   3.447  0.3260  0.3928  0.2573
    1SOL    HW3 8215   2.409   0.749   3.325  0.5551  0.5846  0.0345
    1SOL    MW4 8216   2.410   0.766   3.411  0.5612  0.1243  0.1287
    1SOL     OW 8217   2.217   0.970   3.475 -0.8659  0.3151 -0.5308
    1SOL    HW2 8218   2.210   1.034   3.404 -0.5379  0.3833 -0.5010
    1SOL    HW3 8219   2.283   0.908   3.445  1.2255  1.8203  0.8549
    1SOL    MW4 8220   2.224   0.970   3.462 -0.5467  0.5227 -0.3440
    1SOL     OW 8221   2.213   1.192   3.298 -0.2856 -0.0002  0.0078
    1SOL    HW2 8222   2.290   1.223   3.345  0.3165 -1.5017  0.0456
    1SOL    HW3 8223   2.139   1.220   3.351  0.2041  1.5984 -0.1068
    1SOL    MW4 8224   2.214   1.200   3.311 -0.1416  0.0126 -0.0021
    1SOL     OW 8225   2.439   1.284   3.449 -0.0760  0.2600 -0.0801
    1SOL    HW2 8226   2.410   1.293   3.540  1.7596  0.3142  0.5279
    1SOL    HW3 8227   2.529   1.251   3.456 -0.2580 -0.6804 -1.9029
    1SOL    MW4 8228   2.447   1.281   3.462  0.1423  0.1429 -0.2406
    1SOL     OW 8229   2.454   1.554   3.366 -0.0329  0.1660 -0.5238
    1SOL    HW2 8230   2.455   1.463   3.396  0.0032  0.4881  0.4829
    1SOL    HW3 8231   2.457   1.548   3.270 -0.1059 -0.8894 -0.4673
    1SOL    MW4 8232   2.455   1.541   3.357 -0.0379  0.0693 -0.3834
    1SOL     OW 8233   2.222   1.659   3.467  0.3052 -0.2364  0.2473
    1SOL    HW2 8234   2.227   1.663   3.562 -0.4167 -1.5449  0.3538
    1SOL    HW3 8235   2.310   1.632   3.439  0.8468  1.2863  0.4559
    1SOL    MW4 8236   2.234   1.656   3.476  0.2816 -0.2080  0.2890
    1SOL     OW 8237   2.199   1.937   3.375  0.5232  0.0977 -0.1094
    1SOL    HW2 8238   2.209   1.845   3.400 -1.5493 -0.4465 -1.1866
    1SOL    HW3 8239   2.182   1.935   3.281  2.5797  1.7537 -0.5730
    1SOL    MW4 8240   2.198   1.925   3.366  0.5209  0.2445 -0.3126
    1SOL     OW 8241   2.431   2.047   3.461  0.2250  0.0989  0.0157
    1SOL    HW2 8242   2.355   2.004   3.423  1.0634 -0.2698 -1.3054
    1SOL    HW3 8243   2.431   2.135   3.422  1.5671 -0.5620 -1.5704
    1SOL    MW4 8244   2.421   2.053   3.451  0.5128 -0.0370 -0.3681
    1SOL     OW 8245   2.443   2.326   3.408  0.2732  0.4570 -0.3788
    1SOL    HW2 8246   2.379   2.378   3.457  0.5095 -0.4518  0.9049
    1SOL    HW3 8247   2.528   2.363   3.433  0.4044 -0.1256  0.0572
    1SOL    MW4 8248   2.446   2.338   3.418  0.3219  0.2604 -0.1519
    1SOL     OW 8249   2.232   2.463   3.503  0.1107 -0.3251  0.2859
    1SOL    HW2 8250   2.176   2.404   3.452  1.1723 -1.4093  0.3735
    1SOL    HW3 8251   2.233   2.544   3.451 -1.7197 -0.1968  0.3989
    1SOL    MW4 8252   2.224   2.466   3.489  0.0093 -0.4511  0.3121
    1SOL     OW 8253   2.235   2.693   3.358 -0.2786  0.1579  0.1766
    1SOL    HW2 8254   2.159   2.738   3.396 -0.5458 -1.3390  1.5003
    1SOL    HW3 8255   2.218   2.692   3.264 -2.1373 -0.5282  0.4889
    1SOL    MW4 8256   2.222   2.699   3.351 -0.5589 -0.1302  0.3924
    1SOL     OW 8257   2.438   2.841   3.496  0.3777 -0.3637  0.1772
    1SOL    HW2 8258   2.435   2.932   3.469 -0.4464 -0.0600  1.2517
    1SOL    HW3 8259   2.356   2.804   3.465  0.2469 -0.4710  0.6400
    1SOL    MW4 8260   2.427   2.848   3.488  0.2515 -0.3378  0.3798
    1SOL     OW 8261   2.448   3.105   3.385 -0.7369  0.5006  0.2658
    1SOL    HW2 8262   2.534   3.138   3.411 -1.0876  1.7647 -0.1226
    1SOL    HW3 8263   2.449   3.108   3.289 -1.2184  0.5607  0.2574
    1SOL    MW4 8264   2.459   3.110   3.376 -0.8466  0.6754  0.2131
    1SOL     OW 8265   2.227   3.242   3.467 -0.1703 -0.4325  0.3235
    1SOL    HW2 8266   2.241   3.251   3.561  1.2405  1.8813 -0.0514
    1SOL    HW3 8267   2.306   3.197   3.435  0.0611  0.1504  0.0620
    1SOL    MW4 8268   2.240   3.237   3.475  0.0463 -0.0505  0.2396
    1SOL     OW 8269   2.245   3.509   3.386  0.0175 -0.3655 -0.5805
    1SOL    HW2 8270   2.230   3.415   3.396 -0.6210 -0.3038 -0.9148
    1SOL    HW3 8271   2.228   3.525   3.293 -0.5314  0.1944 -0.3888
    1SOL    MW4 8272   2.241   3.499   3.375 -0.1390 -0.2835 -0.5991
    1SOL     OW 8273   2.445   3.632   3.534  0.7804  0.1383  0.3191
    1SOL    HW2 8274   2.438   3.715   3.487 -1.0836  0.0486  0.4078
    1SOL    HW3 8275   2.379   3.576   3.494  0.6889 -0.6642  1.5700
    1SOL    MW4 8276   2.435   3.636   3.522  0.5221  0.0203  0.4961
    1SOL     OW 8277   2.484   3.875   3.383  0.2916 -0.3508 -0.1659
    1SOL    HW2 8278   2.555   3.930   3.416 -0.2520 -0.5132  1.3082
    1SOL    HW3 8279   2.405   3.928   3.398 -0.2575 -1.6106  1.4549
    1SOL    MW4 8280   2.483   3.889   3.389  0.1473 -0.5386  0.2425
    1SOL     OW 8281   2.236   3.994   3.453 -0.3648  0.1277 -0.2672
    1SOL    HW2 8282   2.236   4.084   3.421  1.0664 -0.0761 -0.8359
    1SOL    HW3 8283   2.159   3.954   3.411 -0.8095  0.9709 -0.2738
    1SOL    MW4 8284   2.226   4.001   3.443 -0.2346  0.2122 -0.3433
    1SOL     OW 8285   2.210   4.250   3.391  0.3246  0.4024 -0.4773
    1SOL    HW2 8286   2.136   4.303   3.421  1.4589  1.9118 -0.2138
    1SOL    HW3 8287   2.211   4.261   3.296 -0.2160 -0.1976 -0.5500
    1SOL    MW4 8288   2.201   4.259   3.382  0.4027  0.5226 -0.4520
    1SOL     OW 8289   2.437   4.378   3.497 -0.3222 -0.0042 -0.3762
    1SOL    HW2 8290   2.433   4.392   3.591 -2.0162  1.2258 -0.6066
    1SOL    HW3 8291   2.358   4.327   3.478  0.0703 -0.3422 -1.1160
    1SOL    MW4 8292   2.426   4.373   3.507 -0.4940  0.1140 -0.5043
    1SOL     OW 8293   2.889   0.027   3.381 -0.1543  0.3716 -0.2853
    1SOL    HW2 8294   2.815   0.083   3.406 -1.4650 -1.6709  0.6271
    1SOL    HW3 8295   2.872   0.004   3.290  1.3617  2.8879 -1.2362
    1SOL    MW4 8296   2.877   0.031   3.372 -0.1273  0.4339 -0.2902
    1SOL     OW 8297   2.669   0.153   3.478 -0.0469  0.0946  0.4753
    1SOL    HW2 8298   2.678   0.153   3.574 -2.5214  0.4156  0.7396
    1SOL    HW3 8299   2.598   0.092   3.460 -0.8172  1.3902 -1.0186
    1SOL    MW4 8300   2.661   0.145   3.489 -0.4752  0.3079  0.3130
    1SOL     OW 8301   2.710   0.420   3.393 -0.4885  0.1527  0.3480
    1SOL    HW2 8302   2.792   0.458   3.423 -1.4327  0.4417  2.7545
    1SOL    HW3 8303   2.709   0.331   3.430 -1.6977  0.5195  1.2606
    1SOL    MW4 8304   2.721   0.413   3.402 -0.7730  0.2392  0.7858
    1SOL     OW 8305   2.961   0.523   3.486 -0.1717  0.1074 -0.3402
    1SOL    HW2 8306   2.964   0.539   3.580 -0.1388 -1.0285 -0.1399
    1SOL    HW3 8307   2.933   0.607   3.448 -1.8990  0.0799  0.8109
    1SOL    MW4 8308   2.958   0.536   3.493 -0.3953 -0.0461 -0.1619
    1SOL     OW 8309   2.886   0.785   3.378 -0.4787  0.4129  0.2586
    1SOL    HW2 8310   2.958   0.845   3.394  0.5917 -0.6631 -0.4835
    1SOL    HW3 8311   2.820   0.808   3.444  1.3680  0.0424  2.2692
    1SOL    MW4 8312   2.887   0.796   3.389 -0.0939  0.2221  0.4261
    1SOL     OW 8313   2.640   0.892   3.529 -0.8703  0.3072  0.3322
    1SOL    HW2 8314   2.632   0.916   3.622  0.3718  0.5659  0.3838
    1SOL    HW3 8315   2.664   0.974   3.486  0.5431 -0.2172  0.0868
    1SOL    MW4 8316   2.642   0.906   3.536 -0.5200  0.2722  0.3066
    1SOL     OW 8317   2.696   1.144   3.415  0.2603 -0.0965  0.1690
    1SOL    HW2 8318   2.767   1.200   3.447 -0.0106  0.0675  0.4888
    1SOL    HW3 8319   2.686   1.169   3.323  0.4476  0.0604  0.1905
    1SOL    MW4 8320   2.704   1.155   3.407  0.2496 -0.0542  0.2141
    1SOL     OW 8321   2.897   1.321   3.508 -0.1494 -0.0521 -0.2357
    1SOL    HW2 8322   2.888   1.327   3.603  2.1090  0.9897 -0.0538
    1SOL    HW3 8323   2.977   1.270   3.495  0.0410  0.5665 -1.5621
    1SOL    MW4 8324   2.906   1.315   3.519  0.1738  0.1670 -0.3865
    1SOL     OW 8325   2.898   1.564   3.379  0.5640 -0.6371  0.4168
    1SOL    HW2 8326   2.822   1.609   3.415  1.2117  0.4984  0.3855
    1SOL    HW3 8327   2.902   1.481   3.428 -1.1125 -1.0440 -0.0966
    1SOL    MW4 8328   2.889   1.559   3.390  0.4282 -0.5411  0.3452
    1SOL     OW 8329   2.672   1.692   3.485  0.2984  0.3835  0.1208
    1SOL    HW2 8330   2.680   1.786   3.468  0.8436  0.0039 -1.8339
    1SOL    HW3 8331   2.590   1.667   3.444  0.2629 -0.0500  0.4501
    1SOL    MW4 8332   2.662   1.701   3.478  0.3657  0.2762 -0.0935
    1SOL     OW 8333   2.681   1.945   3.393 -0.3024 -0.4697  0.0111
    1SOL    HW2 8334   2.597   1.981   3.422  0.5261  2.1058 -0.6539
    1SOL    HW3 8335   2.670   1.934   3.298  0.5777  1.3669 -0.3414
    1SOL    MW4 8336   2.668   1.948   3.384 -0.0770  0.1125 -0.1233
    1SOL     OW 8337   2.929   2.068   3.483  0.0143  0.0530 -0.1336
    1SOL    HW2 8338   2.924   2.062   3.578 -0.0943  1.2335 -0.0478
    1SOL    HW3 8339   2.846   2.034   3.451  0.7515 -2.0272  0.0921
    1SOL    MW4 8340   2.918   2.063   3.491  0.0973 -0.0653 -0.0925
    1SOL     OW 8341   2.898   2.339   3.385  0.3537  0.5532  0.1354
    1SOL    HW2 8342   2.919   2.255   3.426 -0.0463  0.8852  1.0286
    1SOL    HW3 8343   2.913   2.324   3.291  0.8207 -0.3481  0.3454
    1SOL    MW4 8344   2.903   2.326   3.378  0.3624  0.4783  0.2811
    1SOL     OW 8345   2.681   2.456   3.506  0.0387  0.0508  0.1097
    1SOL    HW2 8346   2.693   2.447   3.600 -0.1532  0.9187  0.2275
    1SOL    HW3 8347   2.762   2.423   3.468  0.6580  0.9202  0.6468
    1SOL    MW4 8348   2.693   2.451   3.513  0.0954  0.2801  0.1962
    1SOL     OW 8349   2.674   2.715   3.415  0.1118  0.1024  0.1542
    1SOL    HW2 8350   2.672   2.627   3.452 -1.2714 -0.1215 -0.4186
    1SOL    HW3 8351   2.594   2.757   3.446  1.3589  1.6031  1.4483
    1SOL    MW4 8352   2.663   2.709   3.424  0.0939  0.2708  0.2491
    1SOL     OW 8353   2.906   2.870   3.493 -0.0591 -0.1039  0.4075
    1SOL    HW2 8354   2.887   2.858   3.586  1.6519 -0.5605  0.7055
    1SOL    HW3 8355   2.839   2.817   3.449  0.3097 -1.4651  1.4318
    1SOL    MW4 8356   2.894   2.862   3.499  0.2153 -0.3436  0.5817
    1SOL     OW 8357   2.925   3.127   3.399 -0.2334 -0.4007 -0.2496
    1SOL    HW2 8358   2.930   3.037   3.432 -1.0261 -0.3375  0.0593
    1SOL    HW3 8359   2.908   3.118   3.305 -0.0212 -0.5742 -0.2711
    1SOL    MW4 8360   2.923   3.114   3.391 -0.3099 -0.4153 -0.2117
    1SOL     OW 8361   2.670   3.200   3.512  0.3749 -0.0035 -0.0609
    1SOL    HW2 8362   2.680   3.197   3.607  0.4164 -0.8170 -0.0904
    1SOL    HW3 8363   2.758   3.184   3.478  0.4337  0.6658 -0.2375
    1SOL    MW4 8364   2.683   3.197   3.520  0.3879 -0.0224 -0.0880
    1SOL     OW 8365   2.664   3.488   3.429 -0.1903  0.3049  0.5901
    1SOL    HW2 8366   2.633   3.401   3.453  0.1137  0.3259  1.0695
    1SOL    HW3 8367   2.594   3.547   3.454  0.0967  0.3190  1.3740
    1SOL    MW4 8368   2.651   3.484   3.435 -0.1125  0.3099  0.7570
    1SOL     OW 8369   2.904   3.595   3.524 -0.1623  0.6827 -0.2642
    1SOL    HW2 8370   2.915   3.681   3.485 -1.4537  1.1441  0.3495
    1SOL    HW3 8371   2.818   3.566   3.495 -0.0209 -0.1024  0.0872
    1SOL    MW4 8372   2.894   3.603   3.515 -0.3138  0.6399 -0.1366
    1SOL     OW 8373   2.915   3.858   3.402 -0.1946 -0.1323  0.0972
    1SOL    HW2 8374   2.992   3.900   3.440  0.1293  0.9020 -1.6079
    1SOL    HW3 8375   2.840   3.906   3.438  0.0446  0.0222  0.3883
    1SOL    MW4 8376   2.915   3.870   3.412 -0.1204  0.0248 -0.0894
    1SOL     OW 8377   2.708   4.022   3.485  0.5786 -0.1614  0.3273
    1SOL    HW2 8378   2.678   4.029   3.576 -2.5439 -0.5457 -0.6074
    1SOL    HW3 8379   2.694   4.110   3.448 -2.2697 -1.0628 -0.9034
    1SOL    MW4 8380   2.702   4.035   3.492 -0.2091 -0.3314  0.0412
    1SOL     OW 8381   2.669   4.287   3.375 -0.0185 -0.1633 -0.3086
    1SOL    HW2 8382   2.733   4.341   3.422  0.3719 -0.2209 -0.7613
    1SOL    HW3 8383   2.585   4.307   3.416  0.4510 -0.9339  1.0386
    1SOL    MW4 8384   2.667   4.297   3.387  0.0949 -0.2728 -0.1905
    1SOL     OW 8385   2.897   4.430   3.490  0.0834 -0.1480 -0.0592
    1SOL    HW2 8386   2.910   4.438   3.585  1.9946 -0.0820 -0.3097
    1SOL    HW3 8387   2.909   4.520   3.457 -0.2320 -0.2308 -0.3982
    1SOL    MW4 8388   2.901   4.443   3.498  0.2940 -0.1507 -0.1369
    1SOL     OW 8389   3.382   4.622   3.413 -0.3532 -0.1735  0.0034
    1SOL    HW2 8390   3.304   4.663   3.451  0.2282  0.3274  0.6763
    1SOL    HW3 8391   3.385   4.655   3.324 -0.3776  0.5734  0.2702
    1SOL    MW4 8392   3.372   4.632   3.407 -0.2797 -0.0086  0.1273
    1SOL     OW 8393   3.140   0.091   3.490 -0.0063 -0.0313 -0.2472
    1SOL    HW2 8394   3.161   0.175   3.449 -0.2141  0.9639  1.6481
    1SOL    HW3 8395   3.055   0.067   3.453 -0.0551  0.7065 -0.6114
    1SOL    MW4 8396   3.131   0.099   3.479 -0.0401  0.1973 -0.0455
    1SOL     OW 8397   3.155   0.348   3.368  0.1417  0.4957 -0.4258
    1SOL    HW2 8398   3.095   0.421   3.386  1.2589  1.2673  0.2226
    1SOL    HW3 8399   3.162   0.346   3.273  0.2154  1.3367 -0.4430
    1SOL    MW4 8400   3.148   0.358   3.358  0.2987  0.7085 -0.3426
    1SOL     OW 8401   3.362   0.477   3.466 -0.2716 -0.0457 -0.0982
    1SOL    HW2 8402   3.366   0.474   3.561  0.8378 -0.5202 -0.1426
    1SOL    HW3 8403   3.278   0.435   3.444 -0.4609 -0.0739  0.6627
    1SOL    MW4 8404   3.351   0.471   3.475 -0.1504 -0.1120 -0.0033
    1SOL     OW 8405   3.317   0.741   3.442  0.2889 -0.1699  0.0968
    1SOL    HW2 8406   3.397   0.785   3.470  1.2405 -1.2718 -0.8944
    1SOL    HW3 8407   3.335   0.648   3.452  0.3377 -0.5860 -3.2629
    1SOL    MW4 8408   3.330   0.734   3.447  0.4210 -0.3702 -0.4773
    1SOL     OW 8409   3.100   0.914   3.496  0.2981 -0.5585  0.1019
    1SOL    HW2 8410   3.109   1.004   3.463  0.8324 -0.4476  0.5329
    1SOL    HW3 8411   3.186   0.875   3.481 -0.4337 -1.5283 -1.6288
    1SOL    MW4 8412   3.113   0.921   3.490  0.2723 -0.6719 -0.0696
    1SOL     OW 8413   3.085   1.167   3.401 -0.1802 -0.5731 -0.4195
    1SOL    HW2 8414   3.167   1.210   3.428  0.3127 -1.3240 -0.7060
    1SOL    HW3 8415   3.082   1.178   3.306 -0.8451  0.1973 -0.3171
    1SOL    MW4 8416   3.096   1.174   3.392 -0.2031 -0.5705 -0.4435
    1SOL     OW 8417   3.314   1.274   3.517 -0.1204 -0.2391 -0.0838
    1SOL    HW2 8418   3.398   1.229   3.505 -0.0154 -0.2779  0.7508
    1SOL    HW3 8419   3.326   1.359   3.475  0.1913 -0.4071 -0.3397
    1SOL    MW4 8420   3.327   1.279   3.510 -0.0656 -0.2663 -0.0076
    1SOL     OW 8421   3.369   1.535   3.428 -0.0339 -0.0388 -0.0845
    1SOL    HW2 8422   3.437   1.589   3.468 -0.9269  2.3693 -1.6903
    1SOL    HW3 8423   3.287   1.576   3.455 -0.7911 -1.3599 -0.3166
    1SOL    MW4 8424   3.367   1.547   3.437 -0.2515  0.1047 -0.3271
    1SOL     OW 8425   3.140   1.679   3.495  0.4705  0.4007  0.1113
    1SOL    HW2 8426   3.136   1.765   3.453  0.8049  0.3798  0.0308
    1SOL    HW3 8427   3.053   1.641   3.482  0.6958  0.2162 -0.9412
    1SOL    MW4 8428   3.128   1.685   3.487  0.5445  0.3736 -0.0384
    1SOL     OW 8429   3.158   1.927   3.393  0.1694 -0.2503  0.2386
    1SOL    HW2 8430   3.075   1.967   3.420  0.6652  0.9452  0.0659
    1SOL    HW3 8431   3.224   1.975   3.443  0.8963  0.1901 -1.1109
    1SOL    MW4 8432   3.155   1.939   3.403  0.3304 -0.0342  0.0379
    1SOL     OW 8433   3.350   2.087   3.508 -0.8572  0.0647  0.0040
    1SOL    HW2 8434   3.367   2.173   3.470 -2.1999  0.3809  0.0797
    1SOL    HW3 8435   3.375   2.096   3.600  0.1714 -0.0037 -0.2601
    1SOL    MW4 8436   3.355   2.100   3.515 -0.8986  0.0973 -0.0210
    1SOL     OW 8437   3.394   2.333   3.377 -0.3896 -0.2751 -0.1182
    1SOL    HW2 8438   3.464   2.371   3.430 -0.1270 -0.5244 -0.2846
    1SOL    HW3 8439   3.315   2.380   3.404 -0.2777 -0.4724  0.5731
    1SOL    MW4 8440   3.393   2.344   3.388 -0.3402 -0.3340 -0.0491
    1SOL     OW 8441   3.152   2.467   3.457 -0.3690  0.4038 -0.4259
    1SOL    HW2 8442   3.151   2.560   3.435 -0.5704  0.2650 -0.9952
    1SOL    HW3 8443   3.070   2.433   3.422 -0.4300  0.0693  0.0318
    1SOL    MW4 8444   3.141   2.475   3.450 -0.4036  0.3414 -0.4406
    1SOL     OW 8445   3.133   2.738   3.375 -0.1245 -0.4038 -0.2335
    1SOL    HW2 8446   3.214   2.770   3.414 -0.3279 -0.7979  0.5302
    1SOL    HW3 8447   3.066   2.800   3.405  0.0805  0.6526 -1.8938
    1SOL    MW4 8448   3.135   2.750   3.384 -0.1245 -0.3164 -0.3519
    1SOL     OW 8449   3.357   2.860   3.469  0.2006 -0.2418 -0.3641
    1SOL    HW2 8450   3.355   2.854   3.564  1.0730  0.6302 -0.2910
    1SOL    HW3 8451   3.402   2.942   3.450  0.0477 -0.4127 -1.5307
    1SOL    MW4 8452   3.363   2.870   3.479  0.2952 -0.1493 -0.5083
    1SOL     OW 8453   3.404   3.128   3.391 -0.0477  0.4195 -0.2724
    1SOL    HW2 8454   3.466   3.177   3.445  0.3877  0.2716 -0.6362
    1SOL    HW3 8455   3.318   3.162   3.416  0.2422  1.3120 -0.4652
    1SOL    MW4 8456   3.401   3.139   3.401  0.0479  0.5176 -0.3459
    1SOL     OW 8457   3.173   3.216   3.506  0.4636 -0.2225 -0.0083
    1SOL    HW2 8458   3.173   3.307   3.476  2.8746 -0.8269 -1.9671
    1SOL    HW3 8459   3.089   3.182   3.476  0.6680  0.6415 -1.6862
    1SOL    MW4 8460   3.162   3.223   3.498  0.8085 -0.1884 -0.4880
    1SOL     OW 8461   3.140   3.472   3.412  0.3905  0.1604  0.3357
    1SOL    HW2 8462   3.054   3.497   3.446  0.4395  1.2477 -0.3050
    1SOL    HW3 8463   3.128   3.471   3.317  0.9985 -0.0319  0.2631
    1SOL    MW4 8464   3.127   3.475   3.404  0.4773  0.2785  0.2418
    1SOL     OW 8465   3.353   3.632   3.503 -0.5712 -0.0916 -0.2507
    1SOL    HW2 8466   3.353   3.716   3.457 -0.1183 -0.0383 -0.1547
    1SOL    HW3 8467   3.279   3.584   3.466  0.9278 -0.8189 -2.4097
    1SOL    MW4 8468   3.343   3.637   3.492 -0.3135 -0.1805 -0.5229
    1SOL     OW 8469   3.370   3.881   3.383 -0.1541 -0.3284  0.4819
    1SOL    HW2 8470   3.446   3.925   3.420  0.4449  0.0914 -1.2157
    1SOL    HW3 8471   3.295   3.925   3.423  0.4531  1.3550 -0.2098
    1SOL    MW4 8472   3.370   3.892   3.393  0.0052 -0.0508  0.1667
    1SOL     OW 8473   3.125   3.984   3.539 -0.1209  0.0295 -0.4821
    1SOL    HW2 8474   3.126   3.976   3.635  0.5533  0.7199 -0.4244
    1SOL    HW3 8475   3.109   4.077   3.523 -0.6430 -0.1552 -1.0471
    1SOL    MW4 8476   3.123   3.995   3.550 -0.1009  0.0963 -0.5491
    1SOL     OW 8477   3.093   4.252   3.438  0.0103  0.5832 -0.0121
    1SOL    HW2 8478   3.166   4.289   3.488 -0.2165  1.2602 -0.1735
    1SOL    HW3 8479   3.017   4.302   3.467 -0.3017  0.2412 -0.2410
    1SOL    MW4 8480   3.093   4.263   3.448 -0.0608  0.6275 -0.0634
    1SOL     OW 8481   3.351   4.363   3.496 -0.1519 -0.0156 -0.2048
    1SOL    HW2 8482   3.359   4.382   3.590  0.3828  2.1761 -0.6670
    1SOL    HW3 8483   3.363   4.448   3.454 -0.5197 -0.9702 -2.2626
    1SOL    MW4 8484   3.353   4.377   3.503 -0.1299  0.1473 -0.5369
    1SOL     OW 8485   3.846   4.645   3.399  0.0759  0.2196  0.1164
    1SOL    HW2 8486   3.774   4.685   3.449 -0.0317  0.5298 -0.2871
    1SOL    HW3 8487   3.833   4.675   3.310  1.0559  0.7567  0.1509
    1SOL    MW4 8488   3.835   4.654   3.394  0.1910  0.3309  0.0677
    1SOL     OW 8489   3.617   0.097   3.512 -0.3075  0.3544  0.1818
    1SOL    HW2 8490   3.618   0.173   3.455  0.2395  0.3720  0.2075
    1SOL    HW3 8491   3.545   0.043   3.480  0.5807 -0.0696 -1.1054
    1SOL    MW4 8492   3.608   0.100   3.501 -0.1180  0.3008  0.0155
    1SOL     OW 8493   3.585   0.354   3.359 -0.8435  0.1244  0.1382
    1SOL    HW2 8494   3.665   0.382   3.403 -0.8069  0.3074 -0.0438
    1SOL    HW3 8495   3.516   0.406   3.400 -0.9956 -0.7409  0.9741
    1SOL    MW4 8496   3.587   0.365   3.370 -0.8585  0.0344  0.2244
    1SOL     OW 8497   3.813   0.473   3.460 -0.1271 -0.5128  0.0181
    1SOL    HW2 8498   3.831   0.479   3.554  2.0758  0.0231 -0.4124
    1SOL    HW3 8499   3.893   0.437   3.422 -0.8562 -0.3951 -1.7029
    1SOL    MW4 8500   3.826   0.469   3.467  0.0675 -0.4266 -0.2658
    1SOL     OW 8501   3.811   0.746   3.385  0.3339  0.7838 -0.0439
    1SOL    HW2 8502   3.887   0.783   3.430  1.5648  0.5050 -1.8489
    1SOL    HW3 8503   3.799   0.661   3.427 -0.3542  1.7375  1.7410
    1SOL    MW4 8504   3.820   0.740   3.397  0.4055  0.8729 -0.0465
    1SOL     OW 8505   3.565   0.860   3.486 -0.2894 -0.4068  0.4327
    1SOL    HW2 8506   3.575   0.859   3.582 -1.5580  1.9914  0.6150
    1SOL    HW3 8507   3.645   0.818   3.454  1.7660  1.7947  2.4483
    1SOL    MW4 8508   3.577   0.854   3.495 -0.1857  0.2000  0.7226
    1SOL     OW 8509   3.538   1.131   3.442  0.2228  0.0557 -0.0430
    1SOL    HW2 8510   3.537   1.035   3.446 -0.8798  0.0323 -0.7400
    1SOL    HW3 8511   3.554   1.151   3.350  1.1837  0.5533  0.2248
    1SOL    MW4 8512   3.540   1.121   3.431  0.2038  0.1183 -0.0997
    1SOL     OW 8513   3.797   1.250   3.486 -0.0086 -0.1093 -0.0765
    1SOL    HW2 8514   3.804   1.259   3.581 -0.3820  1.8074 -0.2179
    1SOL    HW3 8515   3.727   1.186   3.473  1.0328 -1.4790  0.9504
    1SOL    MW4 8516   3.789   1.243   3.497  0.0794 -0.0372  0.0401
    1SOL     OW 8517   3.763   1.517   3.380  0.2660  0.5021  0.4340
    1SOL    HW2 8518   3.845   1.549   3.417  0.4807 -0.0010  0.4043
    1SOL    HW3 8519   3.766   1.422   3.394 -0.3961  0.5077  0.5957
    1SOL    MW4 8520   3.775   1.509   3.386  0.2072  0.4364  0.4511
    1SOL     OW 8521   3.574   1.689   3.521 -0.3490 -0.1592 -0.3504
    1SOL    HW2 8522   3.578   1.772   3.474 -0.1861  0.3303  0.5181
    1SOL    HW3 8523   3.646   1.637   3.486  1.1649  1.0367  0.9136
    1SOL    MW4 8524   3.584   1.693   3.511 -0.1276  0.0632 -0.0691
    1SOL     OW 8525   3.576   1.933   3.394  0.0437  0.0557  1.0291
    1SOL    HW2 8526   3.648   1.958   3.452  1.1217  0.8335 -0.6342
    1SOL    HW3 8527   3.504   1.992   3.418  0.1474 -0.2934  2.2462
    1SOL    MW4 8528   3.576   1.944   3.405  0.1996  0.1124  0.9704
    1SOL     OW 8529   3.788   2.030   3.505 -0.1557  0.1249 -0.4014
    1SOL    HW2 8530   3.812   2.046   3.597  2.3942  0.5616 -1.0928
    1SOL    HW3 8531   3.864   1.984   3.469 -0.5880  1.0815 -2.6089
    1SOL    MW4 8532   3.801   2.026   3.513  0.1235  0.3083 -0.7839
    1SOL     OW 8533   3.784   2.300   3.401  0.0495  0.0548  0.1436
    1SOL    HW2 8534   3.871   2.320   3.437  0.4466 -0.3532 -0.5644
    1SOL    HW3 8535   3.769   2.208   3.424  0.4580 -0.3114 -1.0028
    1SOL    MW4 8536   3.794   2.290   3.409  0.1559 -0.0474 -0.1006
    1SOL     OW 8537   3.592   2.446   3.525  0.2114 -0.6499  0.3006
    1SOL    HW2 8538   3.603   2.530   3.479 -0.6982  0.1392  1.5046
    1SOL    HW3 8539   3.664   2.392   3.493  1.0323  0.7197 -0.2183
    1SOL    MW4 8540   3.603   2.450   3.515  0.2000 -0.3650  0.3908
    1SOL     OW 8541   3.577   2.695   3.389  0.1393  0.0260  0.1571
    1SOL    HW2 8542   3.655   2.740   3.422  0.2022  0.2367 -0.2783
    1SOL    HW3 8543   3.504   2.744   3.425  0.1752 -1.8565  2.9178
    1SOL    MW4 8544   3.578   2.707   3.398  0.1526 -0.1945  0.4640
    1SOL     OW 8545   3.805   2.840   3.496  0.3640 -0.0842 -0.0513
    1SOL    HW2 8546   3.810   2.839   3.591  0.5818 -0.3238 -0.0670
    1SOL    HW3 8547   3.791   2.933   3.474  1.7342  0.1673  0.1324
    1SOL    MW4 8548   3.804   2.852   3.505  0.5736 -0.0827 -0.0293
    1SOL     OW 8549   3.788   3.113   3.369 -0.2003 -0.2007 -0.3120
    1SOL    HW2 8550   3.875   3.150   3.388 -0.1896 -0.3303 -0.1109
    1SOL    HW3 8551   3.782   3.115   3.273 -0.0036 -0.1250 -0.3234
    1SOL    MW4 8552   3.799   3.118   3.359 -0.1731 -0.2079 -0.2871
    1SOL     OW 8553   3.619   3.251   3.531  0.6974  0.2094 -0.1649
    1SOL    HW2 8554   3.606   3.331   3.482  0.0031 -0.2539 -0.7500
    1SOL    HW3 8555   3.685   3.203   3.482  1.2534  0.5068  0.2897
    1SOL    MW4 8556   3.626   3.255   3.518  0.6793  0.1876 -0.1822
    1SOL     OW 8557   3.567   3.491   3.384  0.3262  0.8517  0.2975
    1SOL    HW2 8558   3.494   3.537   3.426  0.1400  0.4697  0.3974
    1SOL    HW3 8559   3.551   3.502   3.291 -0.5720 -0.2984  0.2862
    1SOL    MW4 8560   3.555   3.498   3.377  0.1831  0.6495  0.3092
    1SOL     OW 8561   3.828   3.603   3.471 -0.3451 -0.1882  0.2595
    1SOL    HW2 8562   3.828   3.580   3.564 -1.4672  1.4568  0.7099
    1SOL    HW3 8563   3.769   3.540   3.431 -0.7585 -0.2096  0.8842
    1SOL    MW4 8564   3.820   3.592   3.478 -0.5476  0.0260  0.4015
    1SOL     OW 8565   3.844   3.896   3.380  0.6228 -0.5443  0.2429
    1SOL    HW2 8566   3.761   3.938   3.405  0.4069 -1.0775  0.4250
    1SOL    HW3 8567   3.831   3.803   3.399  1.2617 -0.6330  0.2613
    1SOL    MW4 8568   3.831   3.889   3.386  0.6783 -0.6263  0.2694
    1SOL     OW 8569   3.610   4.004   3.467  0.0150  0.3484  0.1145
    1SOL    HW2 8570   3.591   4.011   3.560 -0.1318 -0.5960  0.1553
    1SOL    HW3 8571   3.604   4.094   3.435  1.5621  0.8842  1.3028
    1SOL    MW4 8572   3.607   4.017   3.475  0.1993  0.2947  0.2768
    1SOL     OW 8573   3.592   4.270   3.411  0.0356 -0.0568  0.6856
    1SOL    HW2 8574   3.508   4.284   3.454 -0.1201 -0.7379  0.6114
    1SOL    HW3 8575   3.572   4.280   3.318  0.0187 -0.3062  0.6627
    1SOL    MW4 8576   3.578   4.273   3.404  0.0129 -0.1798  0.6726
    1SOL     OW 8577   3.843   4.372   3.455 -0.1034  0.0513 -0.5957
    1SOL    HW2 8578   3.752   4.343   3.453  0.1755 -0.8460 -0.6482
    1SOL    HW3 8579   3.842   4.458   3.413 -0.9845  0.2300 -0.2321
    1SOL    MW4 8580   3.831   4.380   3.450 -0.1826 -0.0439 -0.5548
    1SOL     OW 8581   4.240   4.646   3.366  0.2732 -0.0692  0.3096
    1SOL    HW2 8582   4.252   4.557   3.398 -0.8544  0.4294  2.2169
    1SOL    HW3 8583   4.315   4.694   3.401  0.1465  0.0253  0.4539
    1SOL    MW4 8584   4.252   4.641   3.375  0.1073  0.0095  0.5801
    1SOL     OW 8585   4.056   0.096   3.532  0.3554 -0.0394  0.0897
    1SOL    HW2 8586   4.132   0.056   3.488  0.3664  0.4821 -0.3730
    1SOL    HW3 8587   3.980   0.054   3.491  0.3761  0.1224 -0.1183
    1SOL    MW4 8588   4.056   0.085   3.521  0.3600  0.0508  0.0012
    1SOL     OW 8589   4.045   0.343   3.372  0.2002  0.1875  0.4360
    1SOL    HW2 8590   4.034   0.254   3.405  0.4436  0.3132  0.8681
    1SOL    HW3 8591   4.044   0.334   3.277  0.9344 -0.3705  0.4782
    1SOL    MW4 8592   4.044   0.330   3.364  0.3290  0.1304  0.4985
    1SOL     OW 8593   4.231   0.495   3.505  0.0388 -0.0891  0.5517
    1SOL    HW2 8594   4.234   0.585   3.471  1.6989 -0.4575 -0.3349
    1SOL    HW3 8595   4.156   0.455   3.461  0.5525  0.2497 -0.6634
    1SOL    MW4 8596   4.221   0.502   3.494  0.3257 -0.0930  0.2747
    1SOL     OW 8597   4.246   0.746   3.385  0.0688  0.3705 -0.1543
    1SOL    HW2 8598   4.328   0.788   3.411  0.7670 -0.8528 -0.3060
    1SOL    HW3 8599   4.247   0.749   3.290 -0.0185  0.2788 -0.1580
    1SOL    MW4 8600   4.257   0.752   3.376  0.1493  0.1970 -0.1750
    1SOL     OW 8601   4.029   0.888   3.487 -0.0931  0.5739  0.1397
    1SOL    HW2 8602   4.037   0.980   3.462 -0.3581  0.2251 -1.2617
    1SOL    HW3 8603   4.110   0.848   3.455 -1.1074 -0.1769 -1.4776
    1SOL    MW4 8604   4.041   0.895   3.480 -0.2618  0.4289 -0.2587
    1SOL     OW 8605   4.033   1.145   3.383  0.4229  0.1493  0.2887
    1SOL    HW2 8606   4.104   1.187   3.430  0.3870  1.1829 -0.5430
    1SOL    HW3 8607   3.954   1.186   3.417  0.3523  0.3795 -0.1425
    1SOL    MW4 8608   4.032   1.156   3.394  0.4086  0.3159  0.1223
    1SOL     OW 8609   4.259   1.256   3.504 -0.6707 -0.2508 -0.1212
    1SOL    HW2 8610   4.251   1.341   3.459  0.9102 -0.4671 -0.8533
    1SOL    HW3 8611   4.343   1.221   3.474 -1.8776 -2.6738 -0.8328
    1SOL    MW4 8612   4.269   1.263   3.494 -0.6213 -0.5989 -0.3119
    1SOL     OW 8613   4.256   1.519   3.425 -0.0803 -0.9831  0.1997
    1SOL    HW2 8614   4.175   1.566   3.443  0.8561  0.6049  0.4155
    1SOL    HW3 8615   4.261   1.515   3.330  0.4344  0.4785  0.1508
    1SOL    MW4 8616   4.246   1.525   3.415  0.1116 -0.5807  0.2220
    1SOL     OW 8617   3.995   1.629   3.482 -0.5976  0.4808 -0.2413
    1SOL    HW2 8618   4.013   1.639   3.575  1.6312  0.6163 -0.6426
    1SOL    HW3 8619   3.992   1.719   3.449  2.1173  0.3936 -0.8656
    1SOL    MW4 8620   3.997   1.642   3.490  0.0548  0.4871 -0.3767
    1SOL     OW 8621   4.002   1.899   3.394 -0.2257 -0.0224 -0.0920
    1SOL    HW2 8622   4.069   1.960   3.425 -2.2545  2.3410 -0.2882
    1SOL    HW3 8623   3.997   1.913   3.300 -0.1216 -1.1158 -0.2744
    1SOL    MW4 8624   4.010   1.909   3.386 -0.4797  0.1452 -0.1419
    1SOL     OW 8625   4.186   2.082   3.472 -0.0906 -0.1328  0.0531
    1SOL    HW2 8626   4.198   2.168   3.433 -0.0545 -0.8122 -1.4650
    1SOL    HW3 8627   4.257   2.029   3.436 -0.9341 -1.1695 -0.1178
    1SOL    MW4 8628   4.197   2.086   3.462 -0.1974 -0.3591 -0.1695
    1SOL     OW 8629   4.244   2.339   3.405  0.2421 -0.3641  0.2789
    1SOL    HW2 8630   4.156   2.372   3.425  0.7319  0.3014  1.3555
    1SOL    HW3 8631   4.248   2.340   3.309 -1.8159 -2.7634  0.1244
    1SOL    MW4 8632   4.233   2.344   3.395  0.0353 -0.5932  0.4008
    1SOL     OW 8633   4.011   2.466   3.463  0.4764 -0.3154  0.1708
    1SOL    HW2 8634   4.028   2.490   3.554  0.6066  0.4381 -0.0491
    1SOL    HW3 8635   4.038   2.543   3.412 -0.6740 -0.2949 -0.4205
    1SOL    MW4 8636   4.017   2.479   3.468  0.3409 -0.2136  0.0639
    1SOL     OW 8637   4.057   2.737   3.393  0.3536  0.1700  0.1323
    1SOL    HW2 8638   4.127   2.768   3.451  1.3405 -0.3507 -0.7534
    1SOL    HW3 8639   3.978   2.780   3.425  1.0841  0.7850  1.1405
    1SOL    MW4 8640   4.056   2.747   3.405  0.5798  0.1822  0.1483
    1SOL     OW 8641   4.312   2.803   3.503  0.0126 -0.0809 -0.5141
    1SOL    HW2 8642   4.302   2.773   3.593 -1.0334 -0.3343 -0.7165
    1SOL    HW3 8643   4.382   2.749   3.467  0.1549 -0.2506  0.0193
    1SOL    MW4 8644   4.320   2.792   3.510 -0.1068 -0.1366 -0.4704
    1SOL     OW 8645   4.266   3.078   3.401  0.3684 -0.2357 -0.9251
    1SOL    HW2 8646   4.288   2.992   3.437  0.3478 -0.0488 -0.4535
    1SOL    HW3 8647   4.273   3.067   3.306  1.1452 -0.5445 -0.8378
    1SOL    MW4 8648   4.270   3.065   3.393  0.4678 -0.2520 -0.8514
    1SOL     OW 8649   4.021   3.215   3.467  0.1631  0.1333  0.1258
    1SOL    HW2 8650   4.028   3.304   3.433  0.2463  0.6180  1.3833
    1SOL    HW3 8651   4.107   3.177   3.453  0.4557  0.6202  0.5955
    1SOL    MW4 8652   4.033   3.222   3.461  0.2127  0.2615  0.3538
    1SOL     OW 8653   4.054   3.467   3.378  0.3711  0.1812 -0.1195
    1SOL    HW2 8654   4.123   3.527   3.408 -0.3407  1.5381 -1.1283
    1SOL    HW3 8655   3.973   3.509   3.406 -0.2092  0.5243 -2.2411
    1SOL    MW4 8656   4.052   3.480   3.386  0.2007  0.4055 -0.5329
    1SOL     OW 8657   4.279   3.626   3.498  0.3734  0.4002  0.0062
    1SOL    HW2 8658   4.250   3.619   3.588 -0.0339 -0.8182 -0.2050
    1SOL    HW3 8659   4.280   3.720   3.480  0.8550  0.6712  1.3968
    1SOL    MW4 8660   4.275   3.637   3.507  0.3834  0.2749  0.1619
    1SOL     OW 8661   4.278   3.876   3.403  0.4220  0.2828  0.1047
    1SOL    HW2 8662   4.359   3.922   3.426  1.4182 -0.8797 -0.9534
    1SOL    HW3 8663   4.275   3.878   3.307 -0.5726 -0.0790  0.1200
    1SOL    MW4 8664   4.288   3.882   3.393  0.4215  0.0815 -0.0327
    1SOL     OW 8665   4.060   4.001   3.501 -0.5200  0.3254  0.3954
    1SOL    HW2 8666   4.132   3.963   3.451 -0.6950  1.3559 -0.6901
    1SOL    HW3 8667   3.981   3.967   3.459 -0.6656  0.0905  0.8596
    1SOL    MW4 8668   4.059   3.992   3.489 -0.5622  0.4306  0.3133
    1SOL     OW 8669   4.049   4.230   3.358 -0.2396  0.0255  0.7254
    1SOL    HW2 8670   4.061   4.150   3.409  2.8300  0.2528  0.4751
    1SOL    HW3 8671   3.963   4.262   3.383 -0.9029 -2.5799  1.9297
    1SOL    MW4 8672   4.040   4.223   3.368  0.0782 -0.2880  0.8512
    1SOL     OW 8673   4.278   4.399   3.468  0.1071 -0.6189 -0.1697
    1SOL    HW2 8674   4.273   4.413   3.563 -0.0095 -2.0008  0.0413
    1SOL    HW3 8675   4.194   4.359   3.446  0.1077 -0.2321 -0.8733
    1SOL    MW4 8676   4.266   4.396   3.478  0.0920 -0.7501 -0.2346
    1SOL     OW 8677   0.237   4.644   3.832 -0.5113  0.0020 -0.4606
    1SOL    HW2 8678   0.243   4.661   3.927 -0.5494  0.4439 -0.5332
    1SOL    HW3 8679   0.153   4.683   3.807  0.0633  0.9823 -0.9006
    1SOL    MW4 8680   0.227   4.651   3.842 -0.4405  0.1898 -0.5281
    1SOL     OW 8681   4.484   0.129   3.803 -0.3288 -0.0748  0.0129
    1SOL    HW2 8682   4.496   0.215   3.843 -1.2207 -0.0219  0.1823
    1SOL    HW3 8683   4.473   0.148   3.709 -2.7931  0.2227  0.3175
    1SOL    MW4 8684   4.484   0.143   3.795 -0.7716 -0.0286  0.0753
    1SOL     OW 8685   4.470   0.378   3.924 -0.1588  0.2048  0.2647
    1SOL    HW2 8686   4.394   0.405   3.874 -0.7882 -1.1245  0.4594
    1SOL    HW3 8687   4.543   0.428   3.888 -0.7919  0.0734 -1.2290
    1SOL    MW4 8688   4.470   0.388   3.913 -0.3257  0.0121  0.0935
    1SOL     OW 8689   0.203   0.490   3.808  0.2611 -0.0795  0.1475
    1SOL    HW2 8690   0.214   0.584   3.822  1.4272 -0.1888  0.0212
    1SOL    HW3 8691   0.203   0.480   3.713  0.4941 -0.2448  0.1648
    1SOL    MW4 8692   0.205   0.501   3.798  0.4457 -0.1157  0.1328
    1SOL     OW 8693   0.242   0.771   3.834  0.1794  0.7060  0.1849
    1SOL    HW2 8694   0.243   0.786   3.928  0.3510  0.0564  0.2910
    1SOL    HW3 8695   0.162   0.813   3.803 -1.0227 -0.9352  0.9469
    1SOL    MW4 8696   0.231   0.778   3.842  0.0435  0.4037  0.2995
    1SOL     OW 8697   0.011   0.865   3.750  0.1824 -0.3564 -0.2755
    1SOL    HW2 8698  -0.074   0.838   3.785 -0.5753  0.8592 -1.1709
    1SOL    HW3 8699   0.016   0.959   3.768  0.0710  0.1612 -2.7990
    1SOL    MW4 8700   0.000   0.874   3.757  0.0677 -0.1278 -0.7265
    1SOL     OW 8701   0.015   1.144   3.861  0.3972  0.1285  0.0202
    1SOL    HW2 8702  -0.072   1.182   3.852  0.1999 -0.1540  0.7603
    1SOL    HW3 8703   0.031   1.141   3.955  1.1800  0.1171 -0.1099
    1SOL    MW4 8704   0.006   1.148   3.872  0.4745  0.0898  0.1009
    1SOL     OW 8705   0.231   1.247   3.757 -0.1255 -0.4681 -0.5181
    1SOL    HW2 8706   0.216   1.339   3.780 -0.4014 -0.7428  0.4379
    1SOL    HW3 8707   0.151   1.203   3.785 -0.5392 -0.8068 -2.1765
    1SOL    MW4 8708   0.218   1.254   3.764 -0.2165 -0.5491 -0.6108
    1SOL     OW 8709   0.204   1.515   3.809 -0.4743  0.4121  0.0942
    1SOL    HW2 8710   0.206   1.512   3.905 -1.3636  1.5220  0.1597
    1SOL    HW3 8711   0.134   1.577   3.788 -0.8676 -0.4542 -1.2900
    1SOL    MW4 8712   0.195   1.523   3.819 -0.6436  0.4442 -0.0799
    1SOL     OW 8713   4.481   1.674   3.792 -0.5443 -0.2393  0.1460
    1SOL    HW2 8714   4.465   1.767   3.808  1.0731 -0.0540  0.7835
    1SOL    HW3 8715   4.459   1.662   3.699 -0.2411  0.8996 -0.0869
    1SOL    MW4 8716   4.476   1.685   3.781 -0.2904 -0.0645  0.1991
    1SOL     OW 8717   4.432   1.949   3.863  0.1706 -0.0853  0.0526
    1SOL    HW2 8718   4.420   1.970   3.955  1.3069  0.4699  0.0861
    1SOL    HW3 8719   4.357   1.991   3.819 -0.5717 -0.6690  0.7521
    1SOL    MW4 8720   4.421   1.958   3.869  0.2227 -0.0890  0.1493
    1SOL     OW 8721   0.180   2.064   3.746 -0.2508 -0.2491 -0.0839
    1SOL    HW2 8722   0.190   2.153   3.779  0.5239  0.1415 -1.3163
    1SOL    HW3 8723   0.103   2.030   3.791 -0.0310  0.7262  1.0620
    1SOL    MW4 8724   0.171   2.072   3.756 -0.1196 -0.0689 -0.0951
    1SOL     OW 8725   0.201   2.321   3.863  0.0697  0.2947 -0.0190
    1SOL    HW2 8726   0.209   2.349   3.954 -0.2469  0.8378 -0.1550
    1SOL    HW3 8727   0.122   2.364   3.831  0.3871  0.4125 -0.6589
    1SOL    MW4 8728   0.192   2.331   3.871  0.0698  0.3819 -0.1214
    1SOL     OW 8729   4.458   2.420   3.743 -0.4106  0.0237 -0.2826
    1SOL    HW2 8730   4.372   2.382   3.763 -0.7847  1.1097  0.1979
    1SOL    HW3 8731   4.458   2.504   3.788 -0.1887  1.2827 -2.5928
    1SOL    MW4 8732   4.446   2.426   3.752 -0.4311  0.3333 -0.5240
    1SOL     OW 8733   4.459   2.675   3.860 -0.0714  0.1075 -0.0804
    1SOL    HW2 8734   4.448   2.683   3.954 -0.3512 -1.0455 -0.0120
    1SOL    HW3 8735   4.531   2.734   3.839  0.4811 -0.1933  0.9590
    1SOL    MW4 8736   4.467   2.684   3.869 -0.0358 -0.0842  0.0658
    1SOL     OW 8737   0.181   2.815   3.768 -0.0056 -0.2058 -0.5403
    1SOL    HW2 8738   0.259   2.770   3.801 -0.0490  0.6315  0.7207
    1SOL    HW3 8739   0.187   2.806   3.673  1.3588 -0.5984 -0.4306
    1SOL    MW4 8740   0.192   2.808   3.760  0.1687 -0.1469 -0.3595
    1SOL     OW 8741   0.234   3.084   3.794 -0.0737  0.3253  0.0030
    1SOL    HW2 8742   0.227   3.093   3.889 -0.9731  1.8021 -0.1962
    1SOL    HW3 8743   0.227   2.989   3.779  0.9080  0.0059  1.4590
    1SOL    MW4 8744   0.232   3.072   3.805 -0.0628  0.4778  0.1690
    1SOL     OW 8745   4.476   3.247   3.748  0.1498 -0.0653  0.2425
    1SOL    HW2 8746   4.558   3.198   3.751 -0.1415 -0.5277  0.6840
    1SOL    HW3 8747   4.459   3.259   3.654  1.2782  0.9725  0.1598
    1SOL    MW4 8748   4.484   3.242   3.736  0.2599  0.0110  0.2897
    1SOL     OW 8749   4.491   3.492   3.834 -0.0894 -0.1466 -0.4828
    1SOL    HW2 8750   4.572   3.534   3.806 -0.2266  0.1614 -0.4308
    1SOL    HW3 8751   4.505   3.399   3.818  0.5962 -0.1874  0.3459
    1SOL    MW4 8752   4.503   3.485   3.828 -0.0172 -0.1113 -0.3664
    1SOL     OW 8753   0.227   3.612   3.756  0.2975 -0.2700 -0.6546
    1SOL    HW2 8754   0.306   3.572   3.791 -0.3474 -1.2364 -0.2956
    1SOL    HW3 8755   0.224   3.699   3.795  1.0569 -0.3145 -0.4979
    1SOL    MW4 8756   0.237   3.618   3.765  0.3126 -0.4034 -0.5870
    1SOL     OW 8757   0.190   3.861   3.844  0.0551  0.1994 -0.0819
    1SOL    HW2 8758   0.265   3.893   3.794  1.4379 -0.2529  1.6444
    1SOL    HW3 8759   0.222   3.857   3.935 -1.5576 -1.5766  0.4302
    1SOL    MW4 8760   0.204   3.865   3.850  0.0247 -0.0944  0.2134
    1SOL     OW 8761   4.423   3.969   3.754 -0.6045 -0.1591 -0.1016
    1SOL    HW2 8762   4.353   3.919   3.796 -1.8201  0.6744 -1.0916
    1SOL    HW3 8763   4.503   3.932   3.789 -1.5545 -0.5641  1.7138
    1SOL    MW4 8764   4.424   3.957   3.764 -0.8898 -0.1028  0.0072
    1SOL     OW 8765   4.465   4.211   3.876 -0.3507 -0.1934 -0.0246
    1SOL    HW2 8766   4.550   4.240   3.842  0.2115 -0.0668  1.4435
    1SOL    HW3 8767   4.453   4.123   3.839  0.5238 -0.2970 -0.0716
    1SOL    MW4 8768   4.475   4.203   3.867 -0.1612 -0.1907  0.1631
    1SOL     OW 8769   0.157   4.380   3.749  0.0868 -0.4457 -0.2544
    1SOL    HW2 8770   0.240   4.334   3.765 -0.3092 -1.2754 -0.5506
    1SOL    HW3 8771   0.175   4.471   3.773  0.9857 -0.6862  0.0079
    1SOL    MW4 8772   0.171   4.386   3.755  0.1532 -0.5865 -0.2587
    1SOL     OW 8773   0.676   0.020   3.843  0.4007  0.2898 -0.2083
    1SOL    HW2 8774   0.667  -0.069   3.810  1.0657 -0.0198  0.4174
    1SOL    HW3 8775   0.594   0.063   3.820  0.3561 -0.2783 -1.1363
    1SOL    MW4 8776   0.664   0.014   3.836  0.4826  0.1745 -0.2480
    1SOL     OW 8777   0.443   0.130   3.758 -0.1459  0.2319 -0.0425
    1SOL    HW2 8778   0.444   0.211   3.810 -0.0339  0.5000 -0.4566
    1SOL    HW3 8779   0.369   0.081   3.791  0.4563 -0.0012  0.9808
    1SOL    MW4 8780   0.434   0.134   3.769 -0.0517  0.2365  0.0379
    1SOL     OW 8781   0.453   0.373   3.888 -0.1885  0.0296  0.3312
    1SOL    HW2 8782   0.520   0.428   3.848  0.3112 -1.4618 -0.9008
    1SOL    HW3 8783   0.370   0.416   3.865  0.2590  1.4075  1.1605
    1SOL    MW4 8784   0.451   0.386   3.880 -0.0635  0.0146  0.2780
    1SOL     OW 8785   0.666   0.509   3.760  0.4947  0.2658 -0.5671
    1SOL    HW2 8786   0.741   0.462   3.794 -0.1346 -0.5755 -0.3157
    1SOL    HW3 8787   0.672   0.597   3.798 -0.0355 -0.5593  1.4652
    1SOL    MW4 8788   0.676   0.515   3.769  0.3417  0.0459 -0.2658
    1SOL     OW 8789   0.693   0.759   3.866 -0.1313  0.1793  0.6972
    1SOL    HW2 8790   0.768   0.811   3.837  0.0336  0.0258  0.8569
    1SOL    HW3 8791   0.617   0.814   3.845  0.0415  0.4673  0.8250
    1SOL    MW4 8792   0.693   0.773   3.859 -0.0867  0.1970  0.7350
    1SOL     OW 8793   0.482   0.894   3.770 -0.3861  0.6755  0.2243
    1SOL    HW2 8794   0.469   0.983   3.802 -1.0615  0.2481  1.1552
    1SOL    HW3 8795   0.400   0.849   3.791 -0.2914 -0.0030 -0.8141
    1SOL    MW4 8796   0.469   0.900   3.777 -0.4627  0.5296  0.2098
    1SOL     OW 8797   0.468   1.150   3.883  0.3736  0.0707 -0.2943
    1SOL    HW2 8798   0.540   1.201   3.845 -0.7541  1.1962 -0.9758
    1SOL    HW3 8799   0.389   1.192   3.849 -0.6068 -1.5553 -0.0951
    1SOL    MW4 8800   0.467   1.162   3.873  0.0955  0.0046 -0.3579
    1SOL     OW 8801   0.686   1.300   3.804  0.0705 -0.5824  0.0017
    1SOL    HW2 8802   0.760   1.247   3.832 -0.3841 -1.7147 -0.8951
    1SOL    HW3 8803   0.686   1.293   3.709 -1.4689 -0.9895  0.0162
    1SOL    MW4 8804   0.696   1.292   3.795 -0.1926 -0.7856 -0.1147
    1SOL     OW 8805   0.640   1.570   3.895  0.0523  0.4991 -0.1677
    1SOL    HW2 8806   0.716   1.621   3.865  0.0360  0.6237  0.0054
    1SOL    HW3 8807   0.662   1.479   3.873  0.8618  0.3617  1.1340
    1SOL    MW4 8808   0.653   1.564   3.888  0.1569  0.4973  0.0269
    1SOL     OW 8809   0.419   1.680   3.776 -0.3952 -0.0661  0.0489
    1SOL    HW2 8810   0.495   1.643   3.820 -0.7178 -0.8063 -0.0047
    1SOL    HW3 8811   0.349   1.615   3.791 -1.1385  0.8292  0.5139
    1SOL    MW4 8812   0.420   1.666   3.784 -0.5358 -0.0457  0.1032
    1SOL     OW 8813   0.412   1.951   3.857  0.2095 -0.2839 -0.2841
    1SOL    HW2 8814   0.413   1.858   3.832  1.1892 -0.1864 -0.6398
    1SOL    HW3 8815   0.334   1.986   3.814 -0.3379 -1.0121  0.1035
    1SOL    MW4 8816   0.402   1.943   3.848  0.2665 -0.3672 -0.2799
    1SOL     OW 8817   0.663   2.064   3.761 -0.3138 -0.4305  0.3641
    1SOL    HW2 8818   0.664   2.151   3.800 -2.1946  0.1927 -0.8973
    1SOL    HW3 8819   0.589   2.019   3.803 -1.4999 -0.2136 -1.4129
    1SOL    MW4 8820   0.653   2.069   3.772 -0.7184 -0.3197 -0.0370
    1SOL     OW 8821   0.668   2.312   3.864 -0.2893 -0.2988  0.1278
    1SOL    HW2 8822   0.731   2.344   3.800  0.3903  1.2730  1.5289
    1SOL    HW3 8823   0.585   2.352   3.838 -0.1695 -0.2798 -0.2156
    1SOL    MW4 8824   0.665   2.322   3.852 -0.1838 -0.0889  0.2675
    1SOL     OW 8825   0.432   2.431   3.778 -0.3528  0.2886 -0.3735
    1SOL    HW2 8826   0.358   2.380   3.812  0.5674 -1.4959 -1.0091
    1SOL    HW3 8827   0.411   2.443   3.685  0.5424 -0.9079 -0.7311
    1SOL    MW4 8828   0.419   2.426   3.770 -0.1133 -0.1047 -0.5045
    1SOL     OW 8829   0.400   2.697   3.853 -0.3554  0.1018  0.1284
    1SOL    HW2 8830   0.485   2.739   3.835 -1.2294  1.1148 -1.7725
    1SOL    HW3 8831   0.416   2.604   3.838  0.6839  0.1606  0.7955
    1SOL    MW4 8832   0.414   2.691   3.849 -0.3335  0.2434 -0.0346
    1SOL     OW 8833   0.630   2.812   3.773  0.2637 -0.0131  0.2942
    1SOL    HW2 8834   0.711   2.762   3.783 -0.8583 -2.5632 -2.5793
    1SOL    HW3 8835   0.629   2.839   3.681 -0.9991  2.1342  0.8838
    1SOL    MW4 8836   0.641   2.809   3.763 -0.0509 -0.0663 -0.0069
    1SOL     OW 8837   0.692   3.076   3.836  0.0084 -0.2833  0.4765
    1SOL    HW2 8838   0.728   3.073   3.925  2.1689  0.2281 -0.3352
    1SOL    HW3 8839   0.683   2.984   3.811 -2.1341 -0.4516  1.7944
    1SOL    MW4 8840   0.696   3.063   3.845  0.0108 -0.2382  0.5434
    1SOL     OW 8841   0.467   3.198   3.726  0.3077 -0.2821  0.3046
    1SOL    HW2 8842   0.545   3.149   3.752  0.0683 -0.4233  0.7621
    1SOL    HW3 8843   0.394   3.143   3.754  0.0448 -0.8399 -1.4422
    1SOL    MW4 8844   0.468   3.184   3.733  0.2414 -0.3743  0.1347
    1SOL     OW 8845   0.448   3.457   3.856  0.0137  0.2743  0.9884
    1SOL    HW2 8846   0.519   3.519   3.835 -0.9812  1.2478  0.4478
    1SOL    HW3 8847   0.471   3.378   3.808 -0.9401  1.6588 -1.8425
    1SOL    MW4 8848   0.461   3.455   3.847 -0.2434  0.5856  0.5436
    1SOL     OW 8849   0.653   3.610   3.752 -0.2542  0.0464  0.0671
    1SOL    HW2 8850   0.632   3.699   3.781 -0.7003  0.4343 -1.4262
    1SOL    HW3 8851   0.667   3.618   3.658  1.2436 -1.1979  0.1669
    1SOL    MW4 8852   0.652   3.623   3.744 -0.1155 -0.0663 -0.1168
    1SOL     OW 8853   0.637   3.876   3.850  0.0651  0.0242  0.1625
    1SOL    HW2 8854   0.655   3.883   3.944  1.2445  0.7930 -0.1092
    1SOL    HW3 8855   0.708   3.926   3.808  0.0403 -1.0310 -1.1728
    1SOL    MW4 8856   0.649   3.884   3.857  0.2174 -0.0138 -0.0496
    1SOL     OW 8857   0.406   4.012   3.770  0.7996 -0.3745 -0.0656
    1SOL    HW2 8858   0.487   3.975   3.807  1.0012 -0.8925 -0.9991
    1SOL    HW3 8859   0.425   4.022   3.677  1.0474  2.9127  0.2847
    1SOL    MW4 8860   0.419   4.009   3.763  0.8589 -0.0095 -0.1426
    1SOL     OW 8861   0.403   4.284   3.829  0.2543  0.2545  0.2519
    1SOL    HW2 8862   0.495   4.312   3.829  0.0681  0.9107  1.8812
    1SOL    HW3 8863   0.407   4.190   3.812  1.2382  0.2674  0.3642
    1SOL    MW4 8864   0.416   4.275   3.827  0.3595  0.3424  0.4818
    1SOL     OW 8865   0.650   4.423   3.763 -0.2874 -0.1905  0.3539
    1SOL    HW2 8866   0.739   4.394   3.779 -0.6035 -0.2437  2.1097
    1SOL    HW3 8867   0.646   4.437   3.668  1.2384 -1.2973  0.1012
    1SOL    MW4 8868   0.661   4.421   3.752 -0.1277 -0.3438  0.5522
    1SOL     OW 8869   1.099   4.665   3.816 -0.0620  0.5185  0.0639
    1SOL    HW2 8870   1.175   4.706   3.774 -0.0438  0.0886 -0.3305
    1SOL    HW3 8871   1.107   4.572   3.795  0.9548  0.0049  2.5907
    1SOL    MW4 8872   1.110   4.658   3.808  0.0745  0.3939  0.3450
    1SOL     OW 8873   0.896   0.143   3.720 -0.2652  0.1613 -0.5608
    1SOL    HW2 8874   0.971   0.098   3.758 -0.8880 -0.2002  0.2334
    1SOL    HW3 8875   0.820   0.107   3.765 -0.7778  1.9396  0.0358
    1SOL    MW4 8876   0.896   0.132   3.731 -0.4151  0.3482 -0.3774
    1SOL     OW 8877   0.908   0.390   3.831  0.4505  0.0607  0.1766
    1SOL    HW2 8878   0.921   0.389   3.925  0.8030  2.0087  0.1670
    1SOL    HW3 8879   0.901   0.298   3.806 -0.1444 -0.4439  2.1650
    1SOL    MW4 8880   0.908   0.378   3.840  0.4185  0.2511  0.4375
    1SOL     OW 8881   1.135   0.524   3.722  0.6984  0.2990 -0.1867
    1SOL    HW2 8882   1.208   0.490   3.774  1.0187  1.6174  0.2293
    1SOL    HW3 8883   1.058   0.479   3.757  1.1405 -0.1671  0.2093
    1SOL    MW4 8884   1.134   0.513   3.733  0.7988  0.4115 -0.0796
    1SOL     OW 8885   1.122   0.802   3.853 -0.1804 -0.1126  0.0176
    1SOL    HW2 8886   1.121   0.786   3.948  0.7435 -0.2229  0.0093
    1SOL    HW3 8887   1.120   0.715   3.814 -2.7691 -0.0511 -0.1060
    1SOL    MW4 8888   1.121   0.789   3.861 -0.4002 -0.1190  0.0000
    1SOL     OW 8889   0.892   0.910   3.760 -0.2373  0.1736  0.4351
    1SOL    HW2 8890   0.979   0.875   3.779 -0.1029  0.9220  1.2613
    1SOL    HW3 8891   0.883   0.905   3.665 -0.4743 -2.6533  0.5812
    1SOL    MW4 8892   0.902   0.905   3.750 -0.2509 -0.1007  0.5634
    1SOL     OW 8893   0.890   1.151   3.910 -0.0208  0.4134  0.0045
    1SOL    HW2 8894   0.881   1.145   4.006 -0.7321 -0.1503 -0.0869
    1SOL    HW3 8895   0.875   1.061   3.880  1.4543  0.3436 -0.5496
    1SOL    MW4 8896   0.887   1.138   3.919  0.0799  0.3299 -0.0808
    1SOL     OW 8897   1.103   1.270   3.783  0.2646  0.4540  0.1738
    1SOL    HW2 8898   1.101   1.356   3.825 -0.2874  0.3155  0.4367
    1SOL    HW3 8899   1.039   1.219   3.831  0.1346  0.0818 -0.3901
    1SOL    MW4 8900   1.094   1.275   3.795  0.1746  0.3866  0.1340
    1SOL     OW 8901   1.110   1.546   3.851 -0.3342  0.3626 -0.3178
    1SOL    HW2 8902   1.113   1.565   3.944  1.3260  0.1024 -0.3011
    1SOL    HW3 8903   1.169   1.611   3.812 -1.2268  0.6444 -1.2127
    1SOL    MW4 8904   1.118   1.557   3.858 -0.2331  0.3655 -0.4337
    1SOL     OW 8905   0.863   1.674   3.764 -0.1178 -0.1875  0.0666
    1SOL    HW2 8906   0.947   1.631   3.782 -0.0002 -0.5553 -1.2964
    1SOL    HW3 8907   0.859   1.679   3.669 -0.9995  1.1156  0.1603
    1SOL    MW4 8908   0.874   1.669   3.754 -0.2186 -0.0641 -0.1011
    1SOL     OW 8909   0.910   1.947   3.827  0.2925  0.2434 -0.5340
    1SOL    HW2 8910   0.889   1.853   3.825  1.9796 -0.1272 -2.7157
    1SOL    HW3 8911   0.828   1.989   3.801 -0.4908 -0.6134  0.4799
    1SOL    MW4 8912   0.896   1.940   3.823  0.4118  0.0815 -0.6883
    1SOL     OW 8913   1.160   2.054   3.737  0.1211 -0.0842  0.0103
    1SOL    HW2 8914   1.082   2.010   3.771  0.0737  0.4493  0.5945
    1SOL    HW3 8915   1.150   2.050   3.642 -0.8631  0.4270  0.0915
    1SOL    MW4 8916   1.148   2.048   3.729 -0.0151  0.0539  0.0980
    1SOL     OW 8917   1.108   2.304   3.823 -0.0733  0.1899  0.4782
    1SOL    HW2 8918   1.081   2.291   3.914  0.3316  0.0215  0.5781
    1SOL    HW3 8919   1.132   2.216   3.793 -1.3522  0.0514 -0.1670
    1SOL    MW4 8920   1.108   2.291   3.831 -0.1886  0.1495  0.4065
    1SOL     OW 8921   0.875   2.424   3.734  0.5605  0.1032  0.1201
    1SOL    HW2 8922   0.871   2.512   3.772 -0.8300  0.2027 -0.2223
    1SOL    HW3 8923   0.957   2.388   3.766  0.4750  1.0181  1.4152
    1SOL    MW4 8924   0.885   2.431   3.743  0.3659  0.2367  0.2458
    1SOL     OW 8925   0.861   2.681   3.849  0.0804  0.4043  0.1542
    1SOL    HW2 8926   0.856   2.668   3.944 -0.3672 -0.0137  0.0744
    1SOL    HW3 8927   0.942   2.730   3.836  0.3227  0.1620  0.7221
    1SOL    MW4 8928   0.871   2.686   3.860  0.0533  0.3171  0.2186
    1SOL     OW 8929   1.103   2.819   3.782 -0.4808 -0.1666  0.0075
    1SOL    HW2 8930   1.187   2.777   3.797  0.1874  0.7368 -1.1181
    1SOL    HW3 8931   1.116   2.910   3.808 -0.1107  0.7716 -3.1890
    1SOL    MW4 8932   1.116   2.826   3.787 -0.3438  0.0765 -0.5629
    1SOL     OW 8933   1.121   3.087   3.832  0.1019  0.5380  0.3538
    1SOL    HW2 8934   1.205   3.106   3.789  0.2431  0.6552  0.6778
    1SOL    HW3 8935   1.062   3.156   3.802 -0.1448 -0.0909 -0.6280
    1SOL    MW4 8936   1.125   3.098   3.822  0.0881  0.4706  0.2668
    1SOL     OW 8937   0.896   3.246   3.764  0.1610 -0.1017 -0.1021
    1SOL    HW2 8938   0.828   3.185   3.794  1.1855 -1.1032  0.2030
    1SOL    HW3 8939   0.889   3.244   3.669 -0.1300 -0.3212 -0.0781
    1SOL    MW4 8940   0.886   3.238   3.756  0.2578 -0.2627 -0.0587
    1SOL     OW 8941   0.889   3.491   3.870 -0.1826 -0.3635  0.2452
    1SOL    HW2 8942   0.880   3.407   3.825 -0.8685 -0.1787  0.0347
    1SOL    HW3 8943   0.818   3.544   3.836 -0.1429  0.0892  0.8647
    1SOL    MW4 8944   0.879   3.487   3.860 -0.2679 -0.2794  0.2992
    1SOL     OW 8945   1.080   3.631   3.745 -0.0718 -0.2962  0.1127
    1SOL    HW2 8946   1.071   3.720   3.779 -0.0179 -0.4166  0.4423
    1SOL    HW3 8947   1.011   3.582   3.788 -0.1875 -0.3857 -0.1729
    1SOL    MW4 8948   1.070   3.636   3.755 -0.0799 -0.3238  0.1185
    1SOL     OW 8949   1.065   3.907   3.837 -0.0113 -0.1620  0.2127
    1SOL    HW2 8950   1.075   3.901   3.932  1.9653 -0.8361 -0.0175
    1SOL    HW3 8951   1.151   3.933   3.805 -0.4185 -0.8158 -1.4744
    1SOL    MW4 8952   1.078   3.909   3.845  0.1955 -0.3374 -0.0403
    1SOL     OW 8953   0.835   4.033   3.740  0.2090  0.2511  0.5528
    1SOL    HW2 8954   0.916   3.986   3.758  1.0420  1.8060  0.9137
    1SOL    HW3 8955   0.822   4.024   3.646  0.3642 -0.6674  0.6109
    1SOL    MW4 8956   0.844   4.026   3.730  0.3394  0.3343  0.6082
    1SOL     OW 8957   0.879   4.283   3.830  0.3682 -0.0713 -0.0644
    1SOL    HW2 8958   0.888   4.274   3.925  0.0379 -0.8480 -0.1062
    1SOL    HW3 8959   0.877   4.193   3.797 -1.6107  0.1431 -0.6006
    1SOL    MW4 8960   0.880   4.270   3.838  0.0634 -0.1450 -0.1407
    1SOL     OW 8961   1.119   4.398   3.750  0.3986 -0.5653 -0.1851
    1SOL    HW2 8962   1.042   4.346   3.773 -0.4360  0.5999 -0.3142
    1SOL    HW3 8963   1.127   4.389   3.656  0.4501 -0.7467 -0.1619
    1SOL    MW4 8964   1.110   4.390   3.741  0.2953 -0.4354 -0.1991
    1SOL     OW 8965   1.524   0.016   3.925 -0.0621  0.2430  0.5129
    1SOL    HW2 8966   1.512   0.041   4.017 -0.9221 -0.3535  0.5740
    1SOL    HW3 8967   1.561  -0.072   3.929 -0.6596 -0.0264  0.2981
    1SOL    MW4 8968   1.527   0.008   3.938 -0.2545  0.1287  0.4926
    1SOL     OW 8969   1.327   0.130   3.745 -0.0059 -0.1554  0.1366
    1SOL    HW2 8970   1.341   0.217   3.784 -0.8488  0.1195 -0.1607
    1SOL    HW3 8971   1.388   0.073   3.792  0.1827  0.4980  0.7007
    1SOL    MW4 8972   1.337   0.134   3.757 -0.0921 -0.0329  0.1719
    1SOL     OW 8973   1.335   0.391   3.856 -0.5598 -0.0375  0.0079
    1SOL    HW2 8974   1.329   0.406   3.951 -1.6288  1.6860 -0.3026
    1SOL    HW3 8975   1.411   0.443   3.829 -0.0706 -0.7704 -0.0501
    1SOL    MW4 8976   1.344   0.400   3.865 -0.6365  0.0932 -0.0408
    1SOL     OW 8977   1.562   0.512   3.762 -0.6084  0.0553  0.1559
    1SOL    HW2 8978   1.647   0.474   3.786 -0.9147 -0.4826  0.3862
    1SOL    HW3 8979   1.567   0.603   3.792 -0.7062 -0.4021  1.5907
    1SOL    MW4 8980   1.574   0.519   3.769 -0.6617 -0.0760  0.3755
    1SOL     OW 8981   1.573   0.773   3.838 -0.0231 -0.6181 -0.0976
    1SOL    HW2 8982   1.651   0.809   3.795 -0.0443 -1.8388 -1.1995
    1SOL    HW3 8983   1.502   0.832   3.813  0.3832  0.0003  0.1932
    1SOL    MW4 8984   1.574   0.786   3.829  0.0278 -0.6976 -0.2043
    1SOL     OW 8985   1.352   0.923   3.733 -0.2026  0.1045 -0.4192
    1SOL    HW2 8986   1.351   1.001   3.788 -0.3004 -0.2123  0.0358
    1SOL    HW3 8987   1.278   0.871   3.764 -0.6156  0.1981 -1.2521
    1SOL    MW4 8988   1.342   0.927   3.744 -0.2699  0.0750 -0.4692
    1SOL     OW 8989   1.321   1.148   3.888 -0.1710  0.0030  0.4268
    1SOL    HW2 8990   1.394   1.189   3.842 -0.1513 -0.9485 -0.4108
    1SOL    HW3 8991   1.243   1.190   3.852 -0.1710 -0.9480 -0.7123
    1SOL    MW4 8992   1.320   1.159   3.877 -0.1684 -0.2478  0.1657
    1SOL     OW 8993   1.525   1.234   3.737 -0.6954 -0.7517  0.2842
    1SOL    HW2 8994   1.605   1.197   3.775 -1.9845 -0.3520  3.5502
    1SOL    HW3 8995   1.524   1.324   3.768 -0.4713  0.4310 -2.9774
    1SOL    MW4 8996   1.536   1.241   3.746 -0.8359 -0.5430  0.2849
    1SOL     OW 8997   1.548   1.510   3.794 -0.3310  0.1267  0.2636
    1SOL    HW2 8998   1.540   1.527   3.888  0.4143  0.7043  0.2292
    1SOL    HW3 8999   1.629   1.554   3.769  0.0922 -1.0301 -0.4266
    1SOL    MW4 9000   1.557   1.518   3.803 -0.1768  0.0504  0.1681
    1SOL     OW 9001   1.338   1.689   3.721  0.4780 -0.6932 -0.0367
    1SOL    HW2 9002   1.364   1.769   3.767 -0.6790 -1.1402  1.4571
    1SOL    HW3 9003   1.400   1.623   3.750  0.2015 -0.8028  0.3079
    1SOL    MW4 9004   1.349   1.691   3.731  0.2890 -0.7666  0.2060
    1SOL     OW 9005   1.373   1.906   3.879 -0.5927 -0.0343 -0.4608
    1SOL    HW2 9006   1.374   1.896   3.975  0.9662  0.7547 -0.3831
    1SOL    HW3 9007   1.289   1.948   3.861 -0.1323  1.4631  0.7503
    1SOL    MW4 9008   1.362   1.910   3.889 -0.3263  0.2673 -0.2906
    1SOL     OW 9009   1.582   2.051   3.800 -0.1876 -0.1026 -0.2581
    1SOL    HW2 9010   1.513   1.995   3.836 -1.1934  1.0632 -0.3556
    1SOL    HW3 9011   1.560   2.059   3.707  0.0761  0.2803 -0.2866
    1SOL    MW4 9012   1.570   2.045   3.792 -0.2854  0.1018 -0.2749
    1SOL     OW 9013   1.554   2.303   3.898  0.1647  0.3265  0.4740
    1SOL    HW2 9014   1.564   2.303   3.994  0.4908  0.1018  0.4379
    1SOL    HW3 9015   1.571   2.213   3.872 -2.8935 -0.3048  0.4997
    1SOL    MW4 9016   1.558   2.291   3.907 -0.1959  0.2134  0.4725
    1SOL     OW 9017   1.335   2.431   3.780  0.4133  0.3954 -0.1353
    1SOL    HW2 9018   1.409   2.389   3.824  0.0351  0.6295  0.7375
    1SOL    HW3 9019   1.257   2.396   3.825  0.0968  1.9838  0.5745
    1SOL    MW4 9020   1.334   2.421   3.792  0.3217  0.6359  0.0737
    1SOL     OW 9021   1.353   2.711   3.874 -0.8689 -0.2633 -0.3762
    1SOL    HW2 9022   1.335   2.715   3.968 -2.5685 -0.2996 -0.6865
    1SOL    HW3 9023   1.349   2.617   3.853  0.0946 -0.3048 -0.3742
    1SOL    MW4 9024   1.350   2.699   3.884 -0.9661 -0.2737 -0.4168
    1SOL     OW 9025   1.598   2.817   3.800 -0.4155  0.2340 -0.0698
    1SOL    HW2 9026   1.511   2.788   3.827 -0.4715  0.9026  0.4841
    1SOL    HW3 9027   1.597   2.810   3.705 -1.1293  0.3824 -0.0767
    1SOL    MW4 9028   1.587   2.812   3.791 -0.5171  0.3417  0.0024
    1SOL     OW 9029   1.583   3.091   3.881  0.1584  0.0775 -0.1199
    1SOL    HW2 9030   1.590   3.099   3.976  2.7589  1.6843 -0.4032
    1SOL    HW3 9031   1.598   2.998   3.863  0.2415 -0.1312  1.0048
    1SOL    MW4 9032   1.586   3.080   3.891  0.5125  0.2618 -0.0091
    1SOL     OW 9033   1.367   3.176   3.717 -0.4508  0.3082 -0.0991
    1SOL    HW2 9034   1.354   3.270   3.734 -1.2199  0.1394  0.2590
    1SOL    HW3 9035   1.434   3.150   3.781 -0.1493  0.6401 -0.2792
    1SOL    MW4 9036   1.374   3.185   3.728 -0.5126  0.3297 -0.0758
    1SOL     OW 9037   1.324   3.449   3.815 -0.3374 -0.1740  0.0655
    1SOL    HW2 9038   1.408   3.488   3.792  0.3344 -0.5696  1.7794
    1SOL    HW3 9039   1.259   3.508   3.778  0.6928  0.3617 -0.9047
    1SOL    MW4 9040   1.326   3.462   3.807 -0.1128 -0.1554  0.1638
    1SOL     OW 9041   1.547   3.582   3.764  0.3836 -0.1507 -0.0193
    1SOL    HW2 9042   1.633   3.545   3.782  0.2862 -0.5160 -0.2987
    1SOL    HW3 9043   1.548   3.667   3.808  0.8622 -0.1825  0.0348
    1SOL    MW4 9044   1.558   3.589   3.772  0.4338 -0.2031 -0.0489
    1SOL     OW 9045   1.566   3.855   3.857 -0.1089 -0.2152 -0.3885
    1SOL    HW2 9046   1.551   3.846   3.951 -0.3096 -1.2779 -0.5106
    1SOL    HW3 9047   1.498   3.915   3.828 -1.2430 -1.3670 -0.1586
    1SOL    MW4 9048   1.555   3.862   3.866 -0.2850 -0.5078 -0.3743
    1SOL     OW 9049   1.317   4.000   3.773  1.0065  0.7836  0.1721
    1SOL    HW2 9050   1.322   4.091   3.802 -0.6744  0.6231  0.9873
    1SOL    HW3 9051   1.331   4.005   3.678  0.5584  1.9349  0.1571
    1SOL    MW4 9052   1.320   4.012   3.764  0.7256  0.9136  0.2778
    1SOL     OW 9053   1.345   4.256   3.865  0.0092  0.2338  0.0340
    1SOL    HW2 9054   1.428   4.304   3.868  0.4271 -0.4012 -1.1856
    1SOL    HW3 9055   1.282   4.320   3.830  0.6476 -0.1833 -1.9620
    1SOL    MW4 9056   1.348   4.271   3.861  0.1487  0.0954 -0.3905
    1SOL     OW 9057   1.587   4.401   3.853  0.4020  0.4874 -0.0905
    1SOL    HW2 9058   1.650   4.330   3.865 -0.1255 -0.2487 -1.5759
    1SOL    HW3 9059   1.593   4.424   3.760 -1.0987  0.7864 -0.1304
    1SOL    MW4 9060   1.596   4.395   3.842  0.1343  0.4301 -0.2918
    1SOL     OW 9061   1.976   4.652   3.848 -0.0813  0.0658 -0.1280
    1SOL    HW2 9062   2.054   4.689   3.806  0.7570 -0.4820  0.9227
    1SOL    HW3 9063   1.979   4.558   3.827 -1.1177  0.2358 -1.0993
    1SOL    MW4 9064   1.987   4.644   3.840 -0.1075  0.0162 -0.1173
    1SOL     OW 9065   1.746   0.117   3.756 -0.0007 -0.4310  0.2242
    1SOL    HW2 9066   1.821   0.082   3.804 -0.4450  0.0793  1.2942
    1SOL    HW3 9067   1.670   0.076   3.796 -0.4496  0.8264  0.6978
    1SOL    MW4 9068   1.746   0.107   3.768 -0.1187 -0.1978  0.4277
    1SOL     OW 9069   1.800   0.373   3.832  0.0996  0.1877 -0.5758
    1SOL    HW2 9070   1.793   0.369   3.927 -0.1861 -0.5902 -0.6296
    1SOL    HW3 9071   1.791   0.283   3.803  0.9286  0.3272 -1.2928
    1SOL    MW4 9072   1.798   0.361   3.840  0.1714  0.1034 -0.6776
    1SOL     OW 9073   2.034   0.517   3.737 -0.0410  0.0385 -0.1413
    1SOL    HW2 9074   1.953   0.475   3.768  1.0806 -2.1768 -0.1421
    1SOL    HW3 9075   2.027   0.514   3.641  0.6236 -1.3422 -0.1550
    1SOL    MW4 9076   2.022   0.511   3.728  0.1950 -0.4359 -0.1433
    1SOL     OW 9077   2.034   0.784   3.815  0.3389 -0.1842 -0.1798
    1SOL    HW2 9078   2.055   0.776   3.908  0.7359 -0.8985 -0.3242
    1SOL    HW3 9079   2.034   0.694   3.783 -0.4194  0.0117 -0.7427
    1SOL    MW4 9080   2.037   0.771   3.823  0.2911 -0.2525 -0.2732
    1SOL     OW 9081   1.796   0.907   3.749  0.4521  0.3869  0.5416
    1SOL    HW2 9082   1.867   0.851   3.780  0.9279  1.3307  1.1850
    1SOL    HW3 9083   1.808   0.910   3.654  0.4459 -0.5590  0.5003
    1SOL    MW4 9084   1.807   0.900   3.741  0.5141  0.3867  0.6213
    1SOL     OW 9085   1.781   1.164   3.840  0.0243  0.1701  0.4328
    1SOL    HW2 9086   1.767   1.154   3.934 -0.4848 -1.1312  0.2345
    1SOL    HW3 9087   1.797   1.075   3.809 -0.7045  0.4665 -0.8454
    1SOL    MW4 9088   1.781   1.151   3.848 -0.1391  0.0376  0.2379
    1SOL     OW 9089   2.014   1.290   3.767 -0.0550 -0.6819 -0.2131
    1SOL    HW2 9090   2.075   1.226   3.805 -0.4864 -2.3431 -2.2036
    1SOL    HW3 9091   1.928   1.264   3.800 -0.4329 -2.1353 -2.2337
    1SOL    MW4 9092   2.010   1.278   3.776 -0.1614 -1.0927 -0.7424
    1SOL     OW 9093   2.025   1.548   3.844  0.0411  0.0224 -0.0484
    1SOL    HW2 9094   1.942   1.581   3.812  0.9715  0.9415 -1.5622
    1SOL    HW3 9095   2.024   1.455   3.823 -0.8603 -0.1100  0.5326
    1SOL    MW4 9096   2.014   1.540   3.837  0.0451  0.1262 -0.1714
    1SOL     OW 9097   1.786   1.659   3.785  0.2399 -0.4398 -0.2833
    1SOL    HW2 9098   1.782   1.741   3.834  0.9612 -0.3681 -0.3486
    1SOL    HW3 9099   1.798   1.685   3.694  0.6226 -0.6273 -0.2853
    1SOL    MW4 9100   1.787   1.673   3.779  0.3855 -0.4550 -0.2921
    1SOL     OW 9101   1.788   1.901   3.906  0.1466 -0.1629 -0.0108
    1SOL    HW2 9102   1.719   1.951   3.861  0.8895  2.8725  2.0630
    1SOL    HW3 9103   1.869   1.946   3.883  1.0733 -1.5890  0.3952
    1SOL    MW4 9104   1.789   1.914   3.897  0.3669  0.0495  0.3164
    1SOL     OW 9105   1.997   2.378   3.891 -0.4969 -0.1785  0.3636
    1SOL    HW2 9106   2.079   2.405   3.849 -1.1125  0.4489 -0.4512
    1SOL    HW3 9107   2.007   2.405   3.982 -1.0854  2.8724 -0.4230
    1SOL    MW4 9108   2.009   2.385   3.897 -0.6559  0.3066  0.1523
    1SOL     OW 9109   2.221   2.472   3.772  0.2927 -0.3120  0.1332
    1SOL    HW2 9110   2.215   2.491   3.679  1.2996  1.2182  0.3567
    1SOL    HW3 9111   2.302   2.423   3.782  0.3331 -0.2242  0.2402
    1SOL    MW4 9112   2.231   2.468   3.761  0.4311 -0.0989  0.1764
    1SOL     OW 9113   1.768   2.446   3.745 -0.7424 -0.2901  0.4213
    1SOL    HW2 9114   1.843   2.416   3.798 -0.2030  0.6680  0.2107
    1SOL    HW3 9115   1.692   2.410   3.790 -0.1105 -2.1168  0.0817
    1SOL    MW4 9116   1.768   2.437   3.758 -0.5877 -0.4048  0.3488
    1SOL     OW 9117   3.136   2.409   4.539  0.0708 -0.2145 -0.0367
    1SOL    HW2 9118   3.054   2.453   4.560  0.7008  1.5144 -1.0637
    1SOL    HW3 9119   3.204   2.475   4.557  1.1977 -1.4404  0.3155
    1SOL    MW4 9120   3.134   2.423   4.544  0.3028 -0.1478 -0.1259
    1SOL     OW 9121   2.042   3.076   3.892  0.1194 -0.3254  0.2194
    1SOL    HW2 9122   2.117   3.120   3.853 -0.8940  0.9561 -0.3167
    1SOL    HW3 9123   2.054   3.088   3.986  0.2767  0.3979  0.1083
    1SOL    MW4 9124   2.054   3.083   3.900  0.0064 -0.0610  0.1338
    1SOL     OW 9125   2.044   2.831   3.772 -0.5075  0.1352  0.3345
    1SOL    HW2 9126   2.049   2.916   3.817 -1.4218 -0.3716  1.4188
    1SOL    HW3 9127   1.972   2.786   3.815  2.3243 -2.6864  2.3770
    1SOL    MW4 9128   2.036   2.837   3.784 -0.2544 -0.3042  0.7470
    1SOL     OW 9129   1.817   3.198   3.744 -0.3914  0.2748  0.6392
    1SOL    HW2 9130   1.901   3.169   3.780 -1.1137 -2.1031  0.4514
    1SOL    HW3 9131   1.751   3.147   3.790 -1.5485 -0.1427 -1.4030
    1SOL    MW4 9132   1.820   3.188   3.755 -0.6393 -0.0939  0.3450
    1SOL     OW 9133   1.782   3.478   3.818  0.3097  0.2556  0.2723
    1SOL    HW2 9134   1.872   3.512   3.816  0.3212  0.2230  0.2232
    1SOL    HW3 9135   1.792   3.384   3.803  0.1702  0.4330 -0.9984
    1SOL    MW4 9136   1.795   3.470   3.815  0.2928  0.2747  0.0980
    1SOL     OW 9137   2.028   3.618   3.801 -0.1990  0.3073  0.2798
    1SOL    HW2 9138   2.109   3.570   3.823  0.1855  1.0662  0.5410
    1SOL    HW3 9139   2.034   3.632   3.707  1.2925  2.7232  0.6997
    1SOL    MW4 9140   2.040   3.613   3.792  0.0486  0.7262  0.3695
    1SOL     OW 9141   1.992   3.878   3.891 -0.4857 -0.9870 -0.0826
    1SOL    HW2 9142   2.063   3.922   3.843 -0.9099 -0.9306 -0.6704
    1SOL    HW3 9143   1.992   3.789   3.857  0.7081 -1.5928  1.4813
    1SOL    MW4 9144   2.001   3.872   3.880 -0.3843 -1.0593  0.0463
    1SOL     OW 9145   1.775   3.982   3.734 -0.8378  0.0980 -0.4211
    1SOL    HW2 9146   1.851   3.949   3.782 -0.0729  2.5154  0.1052
    1SOL    HW3 9147   1.701   3.936   3.771  0.1269 -0.5529  0.7173
    1SOL    MW4 9148   1.775   3.972   3.745 -0.6095  0.3312 -0.2015
    1SOL     OW 9149   1.768   4.207   3.879 -0.4783 -0.2211 -0.1007
    1SOL    HW2 9150   1.828   4.266   3.833  0.0936 -0.2295  0.6162
    1SOL    HW3 9151   1.766   4.129   3.825 -0.6534  0.1779 -0.6717
    1SOL    MW4 9152   1.776   4.205   3.866 -0.4259 -0.1693 -0.0813
    1SOL     OW 9153   1.984   4.382   3.777 -0.7373 -0.0080  0.7172
    1SOL    HW2 9154   2.057   4.323   3.798 -0.6325 -0.1939 -0.1352
    1SOL    HW3 9155   1.995   4.400   3.684 -1.3560  0.5612  0.7553
    1SOL    MW4 9156   1.995   4.376   3.768 -0.8051  0.0424  0.6101
    1SOL     OW 9157   2.461   0.016   3.871 -0.5121  0.0327  0.5011
    1SOL    HW2 9158   2.466  -0.000   3.965 -1.2921  0.2289  0.5800
    1SOL    HW3 9159   2.476  -0.070   3.831 -1.4766 -0.3074  0.8428
    1SOL    MW4 9160   2.464   0.003   3.878 -0.7422  0.0138  0.5567
    1SOL     OW 9161   2.224   0.117   3.765 -0.4223 -0.1758  0.1520
    1SOL    HW2 9162   2.312   0.086   3.790 -0.2900 -0.7243 -0.9458
    1SOL    HW3 9163   2.226   0.116   3.669 -1.6436 -0.2074  0.1310
    1SOL    MW4 9164   2.236   0.113   3.756 -0.5660 -0.2524  0.0043
    1SOL     OW 9165   2.257   0.389   3.855 -0.2507 -0.6734  0.0888
    1SOL    HW2 9166   2.251   0.298   3.825 -0.9382 -0.8032  0.6178
    1SOL    HW3 9167   2.179   0.431   3.818 -0.0007 -0.3294 -0.0470
    1SOL    MW4 9168   2.246   0.383   3.846 -0.3088 -0.6452  0.1407
    1SOL     OW 9169   2.477   0.504   3.760  0.1194  0.3919  0.1188
    1SOL    HW2 9170   2.401   0.457   3.796  0.1290  0.0399 -0.3247
    1SOL    HW3 9171   2.469   0.494   3.665  0.7536  0.3061  0.0720
    1SOL    MW4 9172   2.466   0.497   3.752  0.2046  0.3341  0.0544
    1SOL     OW 9173   2.476   0.771   3.865 -0.1756  0.0832  0.5031
    1SOL    HW2 9174   2.406   0.817   3.818  2.0521  0.9933 -2.0490
    1SOL    HW3 9175   2.465   0.679   3.838  0.7381  0.5136 -1.3813
    1SOL    MW4 9176   2.465   0.765   3.855  0.2389  0.2601 -0.0825
    1SOL     OW 9177   2.264   0.934   3.735  0.2924 -0.1825  0.0425
    1SOL    HW2 9178   2.183   0.891   3.760  0.8986 -1.5412 -0.2193
    1SOL    HW3 9179   2.252   0.957   3.643  0.8148 -1.9442 -0.4950
    1SOL    MW4 9180   2.252   0.931   3.726  0.4413 -0.5942 -0.0632
    1SOL     OW 9181   2.229   1.161   3.882 -0.1352 -0.5206 -0.2470
    1SOL    HW2 9182   2.252   1.154   3.974 -0.2881  0.1083 -0.1621
    1SOL    HW3 9183   2.252   1.075   3.845 -1.1603 -1.1626  0.6006
    1SOL    MW4 9184   2.235   1.148   3.889 -0.2909 -0.5223 -0.1242
    1SOL     OW 9185   2.456   1.307   3.782 -0.2143 -0.2316  0.3976
    1SOL    HW2 9186   2.443   1.397   3.812 -1.1074  0.1037 -0.9576
    1SOL    HW3 9187   2.382   1.258   3.818  0.2193 -0.4055  1.0548
    1SOL    MW4 9188   2.444   1.312   3.791 -0.2749 -0.2103  0.3054
    1SOL     OW 9189   2.476   1.599   3.868 -0.4462 -0.0697  0.1671
    1SOL    HW2 9190   2.555   1.620   3.818 -0.3736 -1.2774 -0.2368
    1SOL    HW3 9191   2.406   1.647   3.824 -0.0035  0.6997  0.2967
    1SOL    MW4 9192   2.477   1.608   3.856 -0.3781 -0.1276  0.1307
    1SOL     OW 9193   2.251   1.690   3.734 -0.1214 -0.0485 -0.0187
    1SOL    HW2 9194   2.228   1.782   3.750 -2.5913 -0.3887 -1.4102
    1SOL    HW3 9195   2.175   1.641   3.764  0.7393 -1.5723 -0.3101
    1SOL    MW4 9196   2.238   1.696   3.740 -0.3338 -0.2944 -0.2408
    1SOL     OW 9197   2.199   1.956   3.796  0.7937  0.3659  0.3188
    1SOL    HW2 9198   2.122   2.012   3.783 -0.1019 -0.9661 -0.1989
    1SOL    HW3 9199   2.272   2.010   3.766 -0.3648  0.2461 -2.9422
    1SOL    MW4 9200   2.198   1.971   3.790  0.5226  0.1743 -0.1795
    1SOL     OW 9201   2.440   2.084   3.746  0.1030 -0.0769 -0.3652
    1SOL    HW2 9202   2.440   2.056   3.655 -0.6020 -1.8017  0.1503
    1SOL    HW3 9203   2.523   2.052   3.781 -0.7204 -1.5872  0.2343
    1SOL    MW4 9204   2.451   2.076   3.739 -0.0987 -0.5035 -0.2182
    1SOL     OW 9205   2.272   2.728   3.897 -0.4115 -0.8399  0.3164
    1SOL    HW2 9206   2.189   2.764   3.866  0.0379  0.0433  0.1067
    1SOL    HW3 9207   2.274   2.639   3.864 -0.6691 -0.4340 -0.8168
    1SOL    MW4 9208   2.262   2.721   3.889 -0.3865 -0.6700  0.1390
    1SOL     OW 9209   0.753   2.051   4.486 -0.2910  0.4957  0.6367
    1SOL    HW2 9210   0.694   1.992   4.533  0.7737 -0.7383  0.4391
    1SOL    HW3 9211   0.732   2.039   4.394  0.4776 -0.1776  0.5465
    1SOL    MW4 9212   0.743   2.042   4.480 -0.0491  0.2439  0.5984
    1SOL     OW 9213   1.969   2.116   3.788 -0.2240 -0.3724  0.2384
    1SOL    HW2 9214   1.987   2.203   3.825  0.6744 -0.4736  0.0307
    1SOL    HW3 9215   1.970   2.129   3.693 -2.0384 -0.2179  0.2200
    1SOL    MW4 9216   1.971   2.129   3.780 -0.3449 -0.3655  0.2086
    1SOL     OW 9217   2.507   2.826   3.785  0.4110  0.0774  0.3256
    1SOL    HW2 9218   2.428   2.782   3.815  0.4357 -0.4692 -0.3998
    1SOL    HW3 9219   2.501   2.826   3.690  1.3807 -0.1472  0.2515
    1SOL    MW4 9220   2.496   2.821   3.776  0.5422 -0.0241  0.2201
    1SOL     OW 9221   2.476   3.094   3.849  0.0410 -0.3102  0.3662
    1SOL    HW2 9222   2.462   3.109   3.943  0.5394  0.1764  0.3663
    1SOL    HW3 9223   2.484   2.999   3.841  1.4114 -0.2708  1.0307
    1SOL    MW4 9224   2.475   3.084   3.861  0.2878 -0.2408  0.4537
    1SOL     OW 9225   2.232   3.208   3.750 -0.4720 -0.0106  0.1171
    1SOL    HW2 9226   2.235   3.297   3.787  1.2327  0.6229 -1.4826
    1SOL    HW3 9227   2.316   3.169   3.776 -0.2305 -0.3434 -1.1607
    1SOL    MW4 9228   2.244   3.215   3.759 -0.2148  0.0288 -0.2623
    1SOL     OW 9229   2.256   3.486   3.868  0.2216 -0.2657  0.0870
    1SOL    HW2 9230   2.261   3.510   3.961  1.4227  0.8831 -0.2617
    1SOL    HW3 9231   2.331   3.529   3.828  0.9102 -2.4268 -1.0654
    1SOL    MW4 9232   2.267   3.495   3.875  0.4709 -0.3991 -0.1111
    1SOL     OW 9233   2.482   3.631   3.811 -0.2367 -0.1541  0.3549
    1SOL    HW2 9234   2.547   3.564   3.832 -0.4085 -0.7419 -0.9335
    1SOL    HW3 9235   2.477   3.630   3.716 -0.6864  1.2839  0.3635
    1SOL    MW4 9236   2.490   3.622   3.801 -0.3185 -0.0420  0.1862
    1SOL     OW 9237   2.404   3.897   3.893  0.0215 -0.3352 -0.1802
    1SOL    HW2 9238   2.487   3.928   3.857 -0.0308 -1.6113 -1.4851
    1SOL    HW3 9239   2.412   3.801   3.892 -2.2001 -0.5549 -2.2309
    1SOL    MW4 9240   2.416   3.888   3.888 -0.2785 -0.5326 -0.6230
    1SOL     OW 9241   2.190   4.006   3.733  0.3913  0.3330 -0.0592
    1SOL    HW2 9242   2.269   3.963   3.764  0.4667  0.2802 -0.3222
    1SOL    HW3 9243   2.194   3.997   3.637  0.2945  0.7221 -0.1002
    1SOL    MW4 9244   2.201   3.999   3.724  0.3884  0.3781 -0.0994
    1SOL     OW 9245   2.239   4.258   3.854  0.5575 -0.3560  0.2747
    1SOL    HW2 9246   2.252   4.242   3.948  2.2368 -0.6740 -0.0021
    1SOL    HW3 9247   2.251   4.172   3.814 -1.3888 -0.4726 -0.1445
    1SOL    MW4 9248   2.242   4.245   3.861  0.5221 -0.4129  0.1829
    1SOL     OW 9249   2.453   4.428   3.759  0.7020 -0.1072  0.3401
    1SOL    HW2 9250   2.531   4.372   3.767  0.3711 -0.5964  0.2007
    1SOL    HW3 9251   2.383   4.376   3.798 -0.3118 -1.2275 -2.8486
    1SOL    MW4 9252   2.454   4.413   3.765  0.5245 -0.3195 -0.0992
    1SOL     OW 9253   2.891   4.661   3.883  0.1848  0.2468  0.0153
    1SOL    HW2 9254   2.883   4.658   3.979  2.4167 -0.8401  0.2177
    1SOL    HW3 9255   2.971   4.710   3.868  0.6204 -0.8356 -1.2420
    1SOL    MW4 9256   2.900   4.667   3.894  0.5369 -0.0396 -0.1240
    1SOL     OW 9257   2.698   0.135   3.761 -0.0725  0.2643  0.1033
    1SOL    HW2 9258   2.775   0.092   3.797 -0.4247 -0.6018 -0.1706
    1SOL    HW3 9259   2.624   0.097   3.808 -0.2880  1.7414  1.0017
    1SOL    MW4 9260   2.698   0.125   3.772 -0.1473  0.3449  0.1857
    1SOL     OW 9261   2.721   0.402   3.840  0.1967  0.0666 -0.0855
    1SOL    HW2 9262   2.718   0.311   3.812  0.1626 -0.2154  0.8186
    1SOL    HW3 9263   2.641   0.441   3.804 -1.0427 -0.8681  1.5662
    1SOL    MW4 9264   2.710   0.396   3.831  0.0286 -0.0939  0.2518
    1SOL     OW 9265   2.931   0.565   3.757  0.3968  0.1372  0.2641
    1SOL    HW2 9266   3.007   0.531   3.805  0.4595  0.2407  0.2406
    1SOL    HW3 9267   2.857   0.515   3.789  0.5345 -0.2357  0.0001
    1SOL    MW4 9268   2.931   0.554   3.767  0.4232  0.1017  0.2263
    1SOL     OW 9269   2.901   0.833   3.844  0.2427  0.3532  0.4333
    1SOL    HW2 9270   2.989   0.871   3.841  0.1896  0.5221  0.9800
    1SOL    HW3 9271   2.911   0.747   3.802  0.4861  0.7146 -0.2696
    1SOL    MW4 9272   2.914   0.827   3.838  0.2677  0.4231  0.4127
    1SOL     OW 9273   2.674   0.962   3.808 -0.7261  0.5583 -0.5312
    1SOL    HW2 9274   2.755   0.911   3.817 -0.7621  0.2959 -1.6346
    1SOL    HW3 9275   2.604   0.899   3.827 -0.6912  0.6863  0.0298
    1SOL    MW4 9276   2.675   0.947   3.812 -0.7265  0.5406 -0.6027
    1SOL     OW 9277   2.684   1.219   3.906 -0.5048 -0.5033  0.0696
    1SOL    HW2 9278   2.678   1.128   3.876 -0.3621 -0.5231  0.0988
    1SOL    HW3 9279   2.614   1.264   3.859  0.5567 -0.2662 -1.3303
    1SOL    MW4 9280   2.674   1.213   3.896 -0.3457 -0.4745 -0.1113
    1SOL     OW 9281   2.920   1.293   3.782 -0.6221  0.2485 -0.2041
    1SOL    HW2 9282   2.943   1.384   3.797 -1.6139  0.7186 -1.4771
    1SOL    HW3 9283   2.833   1.283   3.820 -0.7181 -0.0521 -0.4961
    1SOL    MW4 9284   2.912   1.303   3.789 -0.7656  0.2708 -0.4106
    1SOL     OW 9285   2.913   1.553   3.856  0.8308 -0.0951 -0.1116
    1SOL    HW2 9286   2.929   1.528   3.948  1.2821 -1.3645 -0.5142
    1SOL    HW3 9287   2.981   1.618   3.837 -0.4740  1.6366  1.0190
    1SOL    MW4 9288   2.924   1.558   3.866  0.7184 -0.0342 -0.0155
    1SOL     OW 9289   2.708   1.718   3.767 -0.6547  0.1904  0.2151
    1SOL    HW2 9290   2.781   1.664   3.797  0.5071  2.3448  1.4473
    1SOL    HW3 9291   2.705   1.704   3.673  1.4353  0.1365  0.1203
    1SOL    MW4 9292   2.718   1.709   3.759 -0.2258  0.4675  0.3653
    1SOL     OW 9293   2.677   1.967   3.869  0.6897  0.0148 -0.0672
    1SOL    HW2 9294   2.688   1.962   3.964  0.8649 -1.1010 -0.1389
    1SOL    HW3 9295   2.683   1.876   3.839 -0.6048  0.2148 -1.0069
    1SOL    MW4 9296   2.679   1.954   3.877  0.5419 -0.1061 -0.2005
    1SOL     OW 9297   2.909   2.317   3.838 -0.3103  0.3534 -0.0146
    1SOL    HW2 9298   2.834   2.373   3.818  0.0361  0.3711 -1.3163
    1SOL    HW3 9299   2.986   2.371   3.819  0.0308  0.0290  0.4152
    1SOL    MW4 9300   2.910   2.331   3.832 -0.2196  0.3130 -0.1295
    1SOL     OW 9301   2.780   1.910   4.588  0.6388 -0.6103 -0.1436
    1SOL    HW2 9302   2.713   1.944   4.648  0.1436 -1.2820 -0.3061
    1SOL    HW3 9303   2.863   1.934   4.629  0.3060 -0.7161  0.6099
    1SOL    MW4 9304   2.782   1.918   4.601  0.5295 -0.7129 -0.0658
    1SOL     OW 9305   2.696   2.478   3.778  0.0706  0.0235 -0.0840
    1SOL    HW2 9306   2.710   2.561   3.822 -1.8124  0.5982 -0.5066
    1SOL    HW3 9307   2.621   2.439   3.824  0.5079 -1.1418 -0.3233
    1SOL    MW4 9308   2.688   2.484   3.790 -0.1202 -0.0546 -0.1712
    1SOL     OW 9309   2.723   2.732   3.925  0.4234 -0.7880 -0.2734
    1SOL    HW2 9310   2.651   2.783   3.887  1.5937  0.5059 -0.8079
    1SOL    HW3 9311   2.705   2.730   4.019  1.2603  2.1188 -0.0141
    1SOL    MW4 9312   2.711   2.738   3.932  0.6883 -0.2339 -0.3097
    1SOL     OW 9313   2.934   2.848   3.803  0.3233  0.2408 -0.1677
    1SOL    HW2 9314   2.937   2.939   3.833  0.6189 -0.2243  1.2780
    1SOL    HW3 9315   2.858   2.811   3.847  0.5463 -0.3658 -0.2875
    1SOL    MW4 9316   2.924   2.855   3.813  0.3920  0.0994  0.0072
    1SOL     OW 9317   2.935   3.103   3.908  0.3199  0.0696  0.2817
    1SOL    HW2 9318   3.008   3.160   3.881 -0.3537  0.7475 -0.1253
    1SOL    HW3 9319   2.858   3.141   3.866 -0.2780 -0.6335  0.7296
    1SOL    MW4 9320   2.935   3.116   3.899  0.1519  0.0663  0.2871
    1SOL     OW 9321   2.715   3.201   3.778 -0.5779 -0.1493  0.3583
    1SOL    HW2 9322   2.699   3.289   3.814  0.7475  0.2646 -0.0413
    1SOL    HW3 9323   2.634   3.153   3.796 -1.7186  1.4474 -0.2886
    1SOL    MW4 9324   2.702   3.207   3.785 -0.5536  0.1159  0.2203
    1SOL     OW 9325   2.657   3.457   3.883 -0.4426  0.3076  0.2299
    1SOL    HW2 9326   2.677   3.457   3.977 -0.4360  1.2665  0.2336
    1SOL    HW3 9327   2.738   3.485   3.841 -0.6029  0.3970 -0.0209
    1SOL    MW4 9328   2.670   3.461   3.890 -0.4628  0.4458  0.1974
    1SOL     OW 9329   2.880   3.587   3.801 -0.0254 -0.1841  0.3753
    1SOL    HW2 9330   2.956   3.547   3.842  0.6971  0.9652  0.1828
    1SOL    HW3 9331   2.902   3.589   3.708  0.5530  1.9279  0.5395
    1SOL    MW4 9332   2.893   3.582   3.794  0.1462  0.2463  0.3717
    1SOL     OW 9333   2.897   3.886   3.870  0.4340 -0.1734  0.2278
    1SOL    HW2 9334   2.873   3.872   3.962 -2.8723 -0.2840 -0.5763
    1SOL    HW3 9335   2.912   3.797   3.836 -0.9630 -0.3680  0.0547
    1SOL    MW4 9336   2.896   3.872   3.878 -0.1864 -0.2139  0.0992
    1SOL     OW 9337   2.638   4.002   3.765  0.4224  0.0766 -0.1679
    1SOL    HW2 9338   2.654   4.093   3.791 -0.1980  0.1945 -0.2097
    1SOL    HW3 9339   2.718   3.956   3.791  0.9602  0.7324 -0.6447
    1SOL    MW4 9340   2.651   4.008   3.772  0.4115  0.1788 -0.2363
    1SOL     OW 9341   2.671   4.265   3.812 -0.2802  0.0495 -0.1805
    1SOL    HW2 9342   2.748   4.315   3.787 -0.0631 -0.0930  0.1886
    1SOL    HW3 9343   2.664   4.278   3.907 -0.0518 -0.8353 -0.0353
    1SOL    MW4 9344   2.680   4.273   3.821 -0.2213 -0.0854 -0.1125
    1SOL     OW 9345   2.906   4.413   3.761  0.0490  0.2494  0.1357
    1SOL    HW2 9346   2.987   4.375   3.794 -0.6061 -0.3877  1.0417
    1SOL    HW3 9347   2.899   4.498   3.804 -0.0900  0.0280  0.5488
    1SOL    MW4 9348   2.915   4.419   3.771 -0.0558  0.1359  0.3097
    1SOL     OW 9349   3.347   4.665   3.866  0.0013 -0.2766 -0.2228
    1SOL    HW2 9350   3.354   4.648   3.960 -0.7157 -0.8543 -0.2679
    1SOL    HW3 9351   3.428   4.711   3.843 -0.2040  0.6239  0.8388
    1SOL    MW4 9352   3.359   4.669   3.875 -0.1206 -0.2346 -0.0887
    1SOL     OW 9353   3.120   0.123   3.786  0.0905  0.2050  0.3512
    1SOL    HW2 9354   3.208   0.097   3.815  0.0362 -0.1039  0.2415
    1SOL    HW3 9355   3.125   0.118   3.691  0.0916  0.6412  0.3277
    1SOL    MW4 9356   3.133   0.119   3.777  0.0834  0.2218  0.3335
    1SOL     OW 9357   3.114   0.380   3.887  0.2838  0.0017  0.3971
    1SOL    HW2 9358   3.137   0.369   3.979 -0.6870 -1.3598  0.4888
    1SOL    HW3 9359   3.111   0.291   3.852  0.3606  0.4892 -0.8864
    1SOL    MW4 9360   3.117   0.367   3.895  0.1659 -0.1137  0.2396
    1SOL     OW 9361   3.337   0.469   3.734 -0.1484  0.1271 -0.4073
    1SOL    HW2 9362   3.414   0.435   3.780  0.0156 -0.0401 -0.7928
    1SOL    HW3 9363   3.263   0.427   3.776 -0.1983  2.1451  1.5727
    1SOL    MW4 9364   3.338   0.459   3.745 -0.1335  0.3713 -0.1969
    1SOL     OW 9365   3.358   0.740   3.801 -0.1322  0.2728  0.5227
    1SOL    HW2 9366   3.340   0.743   3.895  2.3340  1.1758  1.0083
    1SOL    HW3 9367   3.336   0.650   3.775  0.2696 -0.3410  2.2119
    1SOL    MW4 9368   3.353   0.728   3.810  0.2463  0.3110  0.8097
    1SOL     OW 9369   3.148   0.920   3.760 -0.1078 -0.2884  0.0551
    1SOL    HW2 9370   3.225   0.862   3.760 -0.0396 -0.2134  1.2466
    1SOL    HW3 9371   3.127   0.932   3.667  0.1514 -1.8643 -0.2238
    1SOL    MW4 9372   3.156   0.914   3.748 -0.0644 -0.4864  0.1752
    1SOL     OW 9373   3.118   1.144   3.913 -0.0834  0.0268 -0.1190
    1SOL    HW2 9374   3.115   1.065   3.858 -2.9446 -0.3825  0.5373
    1SOL    HW3 9375   3.045   1.197   3.883  0.4758  1.4157  0.9296
    1SOL    MW4 9376   3.108   1.140   3.902 -0.3870  0.1560  0.1061
    1SOL     OW 9377   3.330   1.290   3.794 -0.1465 -0.2107 -0.2678
    1SOL    HW2 9378   3.263   1.232   3.830 -0.0771 -0.6412 -0.8173
    1SOL    HW3 9379   3.318   1.283   3.699 -0.6203  1.2295 -0.3396
    1SOL    MW4 9380   3.319   1.282   3.786 -0.2000 -0.0775 -0.3495
    1SOL     OW 9381   3.322   1.556   3.866  0.6670 -0.3592  0.0967
    1SOL    HW2 9382   3.238   1.590   3.834 -0.9998 -0.3675  4.1518
    1SOL    HW3 9383   3.321   1.464   3.840 -0.5350 -0.3373  0.0101
    1SOL    MW4 9384   3.311   1.549   3.858  0.2885 -0.3575  0.6201
    1SOL     OW 9385   3.115   1.710   3.760  0.2412 -0.4512  0.2073
    1SOL    HW2 9386   3.139   1.798   3.788 -0.3080 -0.2882  0.1779
    1SOL    HW3 9387   3.129   1.710   3.666 -1.2016  0.0828 -0.0165
    1SOL    MW4 9388   3.120   1.722   3.752 -0.0212 -0.3593  0.1738
    1SOL     OW 9389   3.186   1.979   3.823  0.2225  0.1460 -0.1989
    1SOL    HW2 9390   3.160   1.982   3.915 -0.5598 -1.6599 -0.3419
    1SOL    HW3 9391   3.106   2.000   3.775  0.5775  0.8618 -0.4893
    1SOL    MW4 9392   3.172   1.982   3.829  0.1662  0.0023 -0.2558
    1SOL     OW 9393   3.424   2.090   3.772  0.4530 -0.1416 -0.0203
    1SOL    HW2 9394   3.337   2.057   3.797  0.8531 -1.3781 -0.2159
    1SOL    HW3 9395   3.484   2.048   3.834  0.9360  0.5847  0.0088
    1SOL    MW4 9396   3.420   2.080   3.784  0.5696 -0.2086 -0.0424
    1SOL     OW 9397   3.393   2.335   3.887 -0.0609  0.0925  0.4583
    1SOL    HW2 9398   3.312   2.359   3.843 -0.3370 -1.1635  0.2484
    1SOL    HW3 9399   3.406   2.243   3.865  1.7464  0.4296 -0.0055
    1SOL    MW4 9400   3.384   2.326   3.878  0.1411 -0.0284  0.3695
    1SOL     OW 9401   3.162   2.440   3.759 -0.0473  0.0965 -0.2299
    1SOL    HW2 9402   3.169   2.533   3.781  1.6191  0.0043 -0.2902
    1SOL    HW3 9403   3.177   2.436   3.664  0.5909 -0.3012 -0.1165
    1SOL    MW4 9404   3.165   2.452   3.749  0.2568  0.0319 -0.2227
    1SOL     OW 9405   3.188   2.706   3.826 -0.4250 -0.3148  0.4273
    1SOL    HW2 9406   3.191   2.703   3.922 -1.3222 -1.0336  0.4517
    1SOL    HW3 9407   3.108   2.754   3.806 -0.2409 -0.1669  0.0411
    1SOL    MW4 9408   3.177   2.712   3.836 -0.5188 -0.3903  0.3796
    1SOL     OW 9409   3.368   2.876   3.748  0.5026  0.0767 -0.0446
    1SOL    HW2 9410   3.291   2.824   3.771  1.4215 -1.2263  0.1787
    1SOL    HW3 9411   3.367   2.950   3.808  0.6719 -1.1629  1.5204
    1SOL    MW4 9412   3.358   2.879   3.759  0.6464 -0.2587  0.1912
    1SOL     OW 9413   3.355   3.097   3.918  0.3835 -0.0699 -0.0437
    1SOL    HW2 9414   3.355   3.089   4.013  0.7974 -0.5419 -0.0762
    1SOL    HW3 9415   3.431   3.151   3.898  0.8305 -0.7244 -0.1522
    1SOL    MW4 9416   3.365   3.103   3.928  0.4973 -0.2189 -0.0622
    1SOL     OW 9417   3.149   3.226   3.780 -0.1898  0.2693 -0.0641
    1SOL    HW2 9418   3.213   3.172   3.827  0.1408  0.8149  0.1210
    1SOL    HW3 9419   3.169   3.212   3.688  0.0243  0.2204 -0.0110
    1SOL    MW4 9420   3.160   3.217   3.774 -0.1178  0.3350 -0.0329
    1SOL     OW 9421   3.115   3.480   3.879  0.2082  0.2982 -0.6473
    1SOL    HW2 9422   3.188   3.535   3.849  0.1001  0.0212 -1.4315
    1SOL    HW3 9423   3.133   3.394   3.841  0.5801 -0.3192  0.8967
    1SOL    MW4 9424   3.127   3.476   3.870  0.2429  0.1805 -0.5469
    1SOL     OW 9425   3.322   3.609   3.771 -0.6062 -0.1335 -0.3178
    1SOL    HW2 9426   3.345   3.696   3.802  1.9818 -1.2672  1.1206
    1SOL    HW3 9427   3.340   3.611   3.677 -1.4067  1.1311 -0.4456
    1SOL    MW4 9428   3.328   3.621   3.763 -0.3703 -0.1161 -0.1450
    1SOL     OW 9429   3.366   3.874   3.876 -0.1574 -0.2742 -0.4062
    1SOL    HW2 9430   3.438   3.921   3.835 -0.5467  0.1926 -0.5559
    1SOL    HW3 9431   3.287   3.923   3.851 -0.5737 -1.0539 -0.6363
    1SOL    MW4 9432   3.365   3.887   3.867 -0.2637 -0.3157 -0.4563
    1SOL     OW 9433   3.140   4.012   3.815  0.0676 -0.0215 -0.0548
    1SOL    HW2 9434   3.144   4.107   3.825 -1.0600 -0.0799  1.1136
    1SOL    HW3 9435   3.056   3.987   3.853  0.3823 -1.5030 -0.2752
    1SOL    MW4 9436   3.129   4.021   3.821 -0.0398 -0.2246  0.0703
    1SOL     OW 9437   3.126   4.288   3.844 -0.4740  0.5788  0.2265
    1SOL    HW2 9438   3.134   4.276   3.939 -0.0492  1.3567  0.2985
    1SOL    HW3 9439   3.201   4.343   3.821 -1.3705  1.5696 -0.3464
    1SOL    MW4 9440   3.137   4.293   3.854 -0.5362  0.8125  0.1605
    1SOL     OW 9441   3.359   4.404   3.772  0.1165  0.1175  0.4768
    1SOL    HW2 9442   3.443   4.359   3.778  0.4823  0.2871 -2.4804
    1SOL    HW3 9443   3.379   4.496   3.790  0.6385  0.2126 -0.5757
    1SOL    MW4 9444   3.372   4.410   3.775  0.2337  0.1521 -0.0522
    1SOL     OW 9445   3.812   4.639   3.876 -0.3090  0.0315  0.0147
    1SOL    HW2 9446   3.895   4.684   3.859 -0.2415  0.0859  0.5013
    1SOL    HW3 9447   3.816   4.561   3.820 -0.1650  0.3100 -0.3722
    1SOL    MW4 9448   3.824   4.634   3.866 -0.2811  0.0753  0.0279
    1SOL     OW 9449   3.597   0.125   3.800 -0.3111  0.0330 -0.2861
    1SOL    HW2 9450   3.665   0.067   3.832  0.9334  1.7280  0.1952
    1SOL    HW3 9451   3.614   0.132   3.706  1.7435  2.4194  0.2192
    1SOL    MW4 9452   3.608   0.118   3.792  0.1240  0.5715 -0.1557
    1SOL     OW 9453   3.597   0.383   3.864  0.2396  0.5193 -0.0762
    1SOL    HW2 9454   3.684   0.419   3.847  0.6190  0.9159  2.5475
    1SOL    HW3 9455   3.606   0.289   3.847  1.1942  0.5447  0.2627
    1SOL    MW4 9456   3.610   0.376   3.859  0.4156  0.5749  0.3147
    1SOL     OW 9457   3.835   0.493   3.751 -0.1998 -0.1927  0.3712
    1SOL    HW2 9458   3.897   0.430   3.787  0.3011 -0.0607 -0.2388
    1SOL    HW3 9459   3.834   0.565   3.814  2.1424  0.9293 -0.7792
    1SOL    MW4 9460   3.843   0.494   3.764  0.1755 -0.0272  0.1390
    1SOL     OW 9461   3.828   0.718   3.900  0.3971 -0.2583 -0.3856
    1SOL    HW2 9462   3.891   0.763   3.844  0.3046 -3.2138 -3.0305
    1SOL    HW3 9463   3.743   0.748   3.869  0.4056  1.8063  1.4948
    1SOL    MW4 9464   3.825   0.728   3.888  0.3860 -0.3759 -0.4864
    1SOL     OW 9465   3.610   0.854   3.764  0.5600 -0.0669 -0.2175
    1SOL    HW2 9466   3.604   0.950   3.762  0.2126 -0.0925 -0.4991
    1SOL    HW3 9467   3.519   0.825   3.773  0.6401 -0.3780 -0.4396
    1SOL    MW4 9468   3.597   0.863   3.765  0.5250 -0.1113 -0.2837
    1SOL     OW 9469   3.542   1.124   3.836 -0.0204  0.7317 -0.1758
    1SOL    HW2 9470   3.615   1.176   3.803 -0.9174  2.9391  1.1780
    1SOL    HW3 9471   3.466   1.182   3.829 -0.9422 -0.1758  1.9257
    1SOL    MW4 9472   3.542   1.139   3.831 -0.2606  0.9031  0.2801
    1SOL     OW 9473   3.785   1.230   3.773 -0.1879 -0.1643 -0.3882
    1SOL    HW2 9474   3.869   1.189   3.790 -0.7343 -1.1875 -0.1253
    1SOL    HW3 9475   3.797   1.322   3.799  0.7828 -0.3407 -0.2078
    1SOL    MW4 9476   3.797   1.237   3.778 -0.1316 -0.3225 -0.3295
    1SOL     OW 9477   3.817   1.513   3.868  0.2334  0.4775  0.5859
    1SOL    HW2 9478   3.829   1.527   3.962 -1.0494 -0.1105  0.8445
    1SOL    HW3 9479   3.727   1.540   3.850 -0.3277 -1.6719 -0.0183
    1SOL    MW4 9480   3.807   1.518   3.878 -0.0098  0.1163  0.5405
    1SOL     OW 9481   3.577   1.646   3.796 -0.1089  0.1778 -0.1108
    1SOL    HW2 9482   3.485   1.621   3.805  0.4926 -1.9525  0.4414
    1SOL    HW3 9483   3.590   1.655   3.702 -1.1176  1.4405 -0.1365
    1SOL    MW4 9484   3.566   1.644   3.785 -0.1628  0.0632 -0.0415
    1SOL     OW 9485   3.598   1.913   3.901  0.2181  0.1673 -0.0007
    1SOL    HW2 9486   3.580   1.820   3.889 -0.0127  0.0900  0.9180
    1SOL    HW3 9487   3.612   1.923   3.995 -0.9765  1.2759  0.0704
    1SOL    MW4 9488   3.598   1.902   3.912  0.0303  0.3033  0.1299
    1SOL     OW 9489   3.815   2.055   3.783 -0.3841  0.4436 -0.1633
    1SOL    HW2 9490   3.881   2.007   3.833  0.0344  1.3227  0.1379
    1SOL    HW3 9491   3.732   2.020   3.814 -0.0832 -0.0687  0.0771
    1SOL    MW4 9492   3.813   2.044   3.794 -0.2892  0.4916 -0.0918
    1SOL     OW 9493   3.842   2.330   3.879 -0.2796 -0.0086  0.0667
    1SOL    HW2 9494   3.807   2.244   3.857 -0.5469  0.0763  0.1569
    1SOL    HW3 9495   3.765   2.388   3.880 -0.1025  0.2294  0.0085
    1SOL    MW4 9496   3.827   2.326   3.876 -0.2916  0.0339  0.0708
    1SOL     OW 9497   3.601   2.492   3.803  0.2341 -0.0885  0.4884
    1SOL    HW2 9498   3.518   2.449   3.824 -0.4270  1.1647  0.5087
    1SOL    HW3 9499   3.609   2.483   3.709  0.0852 -0.2346  0.4879
    1SOL    MW4 9500   3.591   2.485   3.794  0.1271  0.0575  0.4909
    1SOL     OW 9501   3.571   2.760   3.902 -0.0745 -0.3662  0.6268
    1SOL    HW2 9502   3.584   2.676   3.858  0.6861 -0.1541  0.4380
    1SOL    HW3 9503   3.496   2.800   3.857  0.3147 -0.4198 -0.0695
    1SOL    MW4 9504   3.562   2.754   3.890  0.0770 -0.3450  0.5100
    1SOL     OW 9505   3.801   2.862   3.775  0.2125  0.0261 -0.1751
    1SOL    HW2 9506   3.877   2.809   3.799  0.4505  1.2701  1.9482
    1SOL    HW3 9507   3.727   2.819   3.819  0.2582  0.8636  0.7412
    1SOL    MW4 9508   3.801   2.850   3.784  0.2499  0.3009  0.2260
    1SOL     OW 9509   3.802   3.109   3.891  0.0370 -0.1412 -0.0542
    1SOL    HW2 9510   3.721   3.153   3.863 -0.8989 -0.3722  2.1786
    1SOL    HW3 9511   3.797   3.022   3.853  0.1267  0.4542 -1.4496
    1SOL    MW4 9512   3.790   3.104   3.882 -0.0744 -0.0930  0.0565
    1SOL     OW 9513   3.581   3.247   3.810  0.1957 -0.6248  0.1114
    1SOL    HW2 9514   3.579   3.339   3.833  0.1579 -0.6067  0.0351
    1SOL    HW3 9515   3.583   3.246   3.714 -0.8977 -0.7247  0.0802
    1SOL    MW4 9516   3.581   3.259   3.800  0.0463 -0.6354  0.0973
    1SOL     OW 9517   3.555   3.502   3.896 -0.1538 -0.2655 -0.0189
    1SOL    HW2 9518   3.563   3.530   3.987 -0.6617  0.9968 -0.3455
    1SOL    HW3 9519   3.469   3.534   3.869 -0.2541 -1.1404 -0.7721
    1SOL    MW4 9520   3.545   3.510   3.904 -0.2339 -0.2143 -0.1614
    1SOL     OW 9521   3.790   3.586   3.760 -0.2548 -0.0420  0.5116
    1SOL    HW2 9522   3.812   3.674   3.791  1.3101 -0.7201  1.3975
    1SOL    HW3 9523   3.717   3.559   3.815  0.1514  0.1862  1.1740
    1SOL    MW4 9524   3.783   3.594   3.771  0.0052 -0.1011  0.7160
    1SOL     OW 9525   3.799   3.875   3.882  0.1503 -0.3371  0.1350
    1SOL    HW2 9526   3.804   3.878   3.978 -0.3377  0.2271  0.1433
    1SOL    HW3 9527   3.881   3.915   3.853 -0.1118  0.3283  0.3133
    1SOL    MW4 9528   3.811   3.880   3.891  0.0513 -0.1750  0.1595
    1SOL     OW 9529   3.583   4.003   3.756 -0.2615  0.2053 -0.2832
    1SOL    HW2 9530   3.592   4.090   3.796  1.5314  0.7939 -1.8902
    1SOL    HW3 9531   3.653   3.951   3.796 -0.8127 -0.2818  0.0638
    1SOL    MW4 9532   3.593   4.008   3.766 -0.0978  0.2189 -0.4494
    1SOL     OW 9533   3.588   4.257   3.857 -0.0958  0.6319  0.6448
    1SOL    HW2 9534   3.597   4.276   3.950  2.0986 -0.5194  0.7019
    1SOL    HW3 9535   3.649   4.318   3.815  0.4564 -0.2738  0.1350
    1SOL    MW4 9536   3.597   4.268   3.864  0.2668  0.3610  0.5851
    1SOL     OW 9537   3.804   4.400   3.745  0.4718 -0.0889 -0.2169
    1SOL    HW2 9538   3.880   4.355   3.784  0.7729 -1.3418 -2.1869
    1SOL    HW3 9539   3.822   4.400   3.651 -1.1398  1.2108 -0.5399
    1SOL    MW4 9540   3.816   4.394   3.738  0.2987 -0.0825 -0.5195
    1SOL     OW 9541   4.290   4.606   3.919  0.0417  0.3977  0.3931
    1SOL    HW2 9542   4.278   4.599   4.013 -2.5150 -1.0471  0.0319
    1SOL    HW3 9543   4.352   4.678   3.907  1.1871 -0.0819  3.1904
    1SOL    MW4 9544   4.296   4.615   3.930 -0.1450  0.1435  0.7143
    1SOL     OW 9545   4.061   0.075   3.819  0.3598  0.1346 -0.1028
    1SOL    HW2 9546   4.144   0.041   3.853  0.3799  0.0873 -0.2001
    1SOL    HW3 9547   4.077   0.088   3.725  0.1130 -0.3122 -0.2072
    1SOL    MW4 9548   4.074   0.072   3.811  0.3295  0.0694 -0.1290
    1SOL     OW 9549   4.044   0.334   3.886 -0.3332  0.4655 -0.1614
    1SOL    HW2 9550   4.062   0.346   3.979  0.7843  1.1730 -0.4502
    1SOL    HW3 9551   4.049   0.239   3.873  0.8758  0.4638  0.2452
    1SOL    MW4 9552   4.047   0.323   3.896 -0.0262  0.5586 -0.1459
    1SOL     OW 9553   4.256   0.472   3.773 -0.1488  0.1968 -0.1718
    1SOL    HW2 9554   4.177   0.433   3.808  0.2491  0.6957  1.3347
    1SOL    HW3 9555   4.249   0.462   3.678 -1.6802 -0.3670  0.0007
    1SOL    MW4 9556   4.245   0.466   3.765 -0.2985  0.1883  0.0496
    1SOL     OW 9557   4.263   0.744   3.837 -0.5000 -0.1299 -0.2854
    1SOL    HW2 9558   4.180   0.788   3.817 -0.3024 -0.0395 -0.9322
    1SOL    HW3 9559   4.250   0.653   3.807 -0.7475 -0.3989  0.6278
    1SOL    MW4 9560   4.250   0.737   3.830 -0.5059 -0.1535 -0.2503
    1SOL     OW 9561   4.038   0.860   3.777 -0.5753 -0.0540  0.2182
    1SOL    HW2 9562   4.036   0.950   3.810 -1.5061  0.2018 -0.5238
    1SOL    HW3 9563   4.039   0.869   3.682  2.3870 -0.7862  0.1180
    1SOL    MW4 9564   4.038   0.873   3.769 -0.3076 -0.1169  0.1070
    1SOL     OW 9565   4.036   1.141   3.846  0.3576 -0.0664 -0.1002
    1SOL    HW2 9566   4.029   1.147   3.941  2.3015  1.0654 -0.0067
    1SOL    HW3 9567   4.123   1.177   3.826 -0.4135  0.5822 -2.3823
    1SOL    MW4 9568   4.047   1.146   3.856  0.5126  0.1684 -0.3889
    1SOL     OW 9569   4.269   1.278   3.796  0.0021 -0.0554  0.0099
    1SOL    HW2 9570   4.255   1.367   3.829  1.1792  0.1329  0.0295
    1SOL    HW3 9571   4.280   1.289   3.702  1.6098  0.0169  0.1849
    1SOL    MW4 9572   4.269   1.292   3.788  0.3695 -0.0210  0.0355
    1SOL     OW 9573   4.248   1.546   3.878  0.3634  0.0723  0.3561
    1SOL    HW2 9574   4.177   1.580   3.823  0.3419  0.9994  0.9473
    1SOL    HW3 9575   4.326   1.595   3.850  0.6176 -0.3980  0.2372
    1SOL    MW4 9576   4.249   1.557   3.867  0.3948  0.1327  0.4184
    1SOL     OW 9577   4.031   1.659   3.745 -0.2861  0.0206 -0.1279
    1SOL    HW2 9578   4.026   1.744   3.788 -1.3681  0.5017 -1.1886
    1SOL    HW3 9579   3.957   1.610   3.779 -0.0953 -0.2340 -0.0789
    1SOL    MW4 9580   4.021   1.664   3.755 -0.4039  0.0505 -0.2613
    1SOL     OW 9581   4.013   1.902   3.881 -0.0983  0.0714 -0.1483
    1SOL    HW2 9582   4.038   1.905   3.973 -1.0164 -0.6495  0.1325
    1SOL    HW3 9583   4.089   1.937   3.834  1.1269 -1.3140  0.7445
    1SOL    MW4 9584   4.027   1.907   3.887 -0.0577 -0.2067  0.0064
    1SOL     OW 9585   4.214   2.077   3.743 -0.1527 -0.0682 -0.1394
    1SOL    HW2 9586   4.197   2.164   3.779 -1.2500 -0.2655 -0.1574
    1SOL    HW3 9587   4.201   2.087   3.649 -1.9502 -0.6077  0.0188
    1SOL    MW4 9588   4.210   2.090   3.735 -0.5350 -0.1652 -0.1209
    1SOL     OW 9589   4.235   2.313   3.864 -0.1688 -0.1755 -0.4185
    1SOL    HW2 9590   4.231   2.309   3.960 -1.7375 -3.0746 -0.5286
    1SOL    HW3 9591   4.151   2.352   3.839  0.0889  0.2490 -0.6051
    1SOL    MW4 9592   4.223   2.318   3.874 -0.3419 -0.5021 -0.4575
    1SOL     OW 9593   4.035   2.462   3.747  0.0631  0.6759 -0.3792
    1SOL    HW2 9594   4.024   2.548   3.789  1.4017  0.2647  0.8599
    1SOL    HW3 9595   3.969   2.407   3.787  0.0237  0.8080 -0.2626
    1SOL    MW4 9596   4.025   2.466   3.758  0.2351  0.6390 -0.2007
    1SOL     OW 9597   4.011   2.701   3.901 -0.4117  0.0275 -0.1538
    1SOL    HW2 9598   3.988   2.720   3.992 -1.4306 -1.7241 -0.0236
    1SOL    HW3 9599   4.084   2.759   3.882  0.0431  0.1633  1.9046
    1SOL    MW4 9600   4.017   2.711   3.911 -0.4859 -0.1857  0.1349
    1SOL     OW 9601   4.230   2.831   3.815 -0.3948  0.1032 -0.0176
    1SOL    HW2 9602   4.271   2.917   3.823 -0.7423  0.1064  1.7916
    1SOL    HW3 9603   4.301   2.769   3.830 -0.5752  0.0978  0.8491
    1SOL    MW4 9604   4.245   2.834   3.818 -0.4644  0.1030  0.3357
    1SOL     OW 9605   4.290   3.112   3.881  0.0738 -0.1874 -0.0858
    1SOL    HW2 9606   4.213   3.142   3.832  0.2228 -1.9260 -1.4468
    1SOL    HW3 9607   4.362   3.165   3.847 -0.4133  1.0406  0.7767
    1SOL    MW4 9608   4.290   3.123   3.870  0.0286 -0.2549 -0.1516
    1SOL     OW 9609   4.028   3.215   3.765 -0.1939 -0.4542 -0.0002
    1SOL    HW2 9610   3.945   3.176   3.794  0.0745 -2.2605 -1.5338
    1SOL    HW3 9611   4.020   3.219   3.670  0.5281  1.6197  0.0103
    1SOL    MW4 9612   4.016   3.210   3.757 -0.0634 -0.4189 -0.2012
    1SOL     OW 9613   4.023   3.476   3.874  0.0972  0.1116  0.3425
    1SOL    HW2 9614   4.040   3.387   3.846  1.4787  1.0586 -1.9785
    1SOL    HW3 9615   3.940   3.500   3.832  0.4412  0.3825 -0.1890
    1SOL    MW4 9616   4.014   3.468   3.865  0.3247  0.2723 -0.0339
    1SOL     OW 9617   4.235   3.584   3.757 -0.2189 -0.0560  0.2059
    1SOL    HW2 9618   4.164   3.534   3.796  1.2976 -0.7111  2.2033
    1SOL    HW3 9619   4.315   3.543   3.791  1.1034  1.1694 -1.3481
    1SOL    MW4 9620   4.236   3.572   3.766  0.1554  0.0193  0.2644
    1SOL     OW 9621   4.220   3.842   3.904  0.2787 -0.2181 -0.2099
    1SOL    HW2 9622   4.146   3.890   3.866  0.6730  0.7156  0.1838
    1SOL    HW3 9623   4.224   3.760   3.855 -0.4977  0.0924 -0.7914
    1SOL    MW4 9624   4.211   3.837   3.893  0.2284 -0.0539 -0.2346
    1SOL     OW 9625   4.029   4.013   3.804  0.3393 -0.5042  0.5061
    1SOL    HW2 9626   4.041   4.106   3.824 -1.4649  0.1059 -1.0411
    1SOL    HW3 9627   4.041   4.007   3.709  1.4740 -2.0343  0.7297
    1SOL    MW4 9628   4.032   4.024   3.794  0.2508 -0.6256  0.3316
    1SOL     OW 9629   4.036   4.290   3.841 -0.1843 -0.1666  0.6552
    1SOL    HW2 9630   4.049   4.295   3.935  0.6213 -0.5883  0.5686
    1SOL    HW3 9631   4.109   4.339   3.803  0.3854 -1.3280  0.2156
    1SOL    MW4 9632   4.047   4.297   3.848 -0.0024 -0.3753  0.5858
    1SOL     OW 9633   4.274   4.400   3.754  0.2748  0.2150  0.0431
    1SOL    HW2 9634   4.276   4.469   3.819  1.2276 -0.5943  0.9040
    1SOL    HW3 9635   4.340   4.337   3.785 -1.3943 -1.6295 -0.0855
    1SOL    MW4 9636   4.283   4.400   3.767  0.1798 -0.1349  0.1395
    1SOL     OW 9637   2.899   1.485   4.676  0.1030 -0.1858  0.2018
    1SOL    HW2 9638   2.971   1.522   4.625 -0.3586  0.6210  0.1427
    1SOL    HW3 9639   2.937   1.468   4.762 -0.4017  2.9905  1.0834
    1SOL    MW4 9640   2.914   1.487   4.680 -0.0246  0.3396  0.3104
    1SOL     OW 9641   4.027   4.263   4.120 -0.1736 -0.1288 -0.4901
    1SOL    HW2 9642   4.047   4.174   4.150  0.9543  0.1761 -0.3101
    1SOL    HW3 9643   3.963   4.296   4.183  2.2541  0.5517  1.7113
    1SOL    MW4 9644   4.021   4.255   4.132  0.2956  0.0014 -0.1760
    1SOL     OW 9645   2.044   0.859   4.658 -0.1207  0.5488 -0.0571
    1SOL    HW2 9646   2.091   0.810   4.726  1.8420  0.5623 -1.3726
    1SOL    HW3 9647   2.101   0.933   4.637 -1.6784  1.7334 -0.2436
    1SOL    MW4 9648   2.057   0.862   4.664 -0.0672  0.7068 -0.2556
    1SOL     OW 9649   0.688   0.750   4.171  0.2094 -0.6181  0.4229
    1SOL    HW2 9650   0.761   0.807   4.197 -0.2341  0.3836 -0.4825
    1SOL    HW3 9651   0.694   0.745   4.076 -0.7402 -0.7639  0.3676
    1SOL    MW4 9652   0.698   0.757   4.162  0.0256 -0.5051  0.2966
    1SOL     OW 9653   4.263   0.781   4.118  0.3168 -0.1521 -0.0514
    1SOL    HW2 9654   4.287   0.767   4.026  1.0789  1.7457 -0.1642
    1SOL    HW3 9655   4.343   0.815   4.158 -0.0195 -0.9672  1.3113
    1SOL    MW4 9656   4.277   0.784   4.111  0.3729 -0.0092  0.1140
    1SOL     OW 9657   1.931   2.218   4.454 -0.4368 -0.7213  0.0005
    1SOL    HW2 9658   1.909   2.216   4.547 -0.8401  0.6728 -0.0595
    1SOL    HW3 9659   2.021   2.252   4.452 -0.1316 -1.5142 -0.0801
    1SOL    MW4 9660   1.940   2.222   4.466 -0.4497 -0.6418 -0.0181
    1SOL     OW 9661   0.033   1.116   4.134 -0.2472 -0.2131 -0.0208
    1SOL    HW2 9662  -0.055   1.152   4.147 -0.2779 -0.2523 -0.1209
    1SOL    HW3 9663   0.091   1.179   4.178 -0.3638 -0.4254  0.4438
    1SOL    MW4 9664   0.029   1.129   4.142 -0.2666 -0.2463  0.0267
    1SOL     OW 9665   1.083   2.760   4.212 -1.0327  0.1970  0.6030
    1SOL    HW2 9666   1.079   2.849   4.176  0.9344  0.9552  2.1882
    1SOL    HW3 9667   1.040   2.767   4.298  1.0324  0.1414  1.6745
    1SOL    MW4 9668   1.077   2.773   4.219 -0.5007  0.2894  0.9532
    1SOL     OW 9669   0.614   4.214   4.474 -0.3333 -0.2900 -0.0108
    1SOL    HW2 9670   0.587   4.293   4.521  0.3028 -0.0246 -0.0856
    1SOL    HW3 9671   0.534   4.163   4.464 -0.7409  0.3381  0.0532
    1SOL    MW4 9672   0.600   4.217   4.479 -0.3031 -0.1721 -0.0119
    1SOL     OW 9673   3.568   3.446   4.548  0.0020  0.4475  0.1624
    1SOL    HW2 9674   3.526   3.395   4.479 -0.1306  0.2378  0.4028
    1SOL    HW3 9675   3.646   3.396   4.571  0.2044  0.6661 -0.0416
    1SOL    MW4 9676   3.573   3.433   4.542  0.0112  0.4489  0.1669
    1SOL     OW 9677   0.113   3.509   4.478 -0.0941 -0.8561 -0.1460
    1SOL    HW2 9678   0.177   3.537   4.543 -0.4875  0.9219 -0.4875
    1SOL    HW3 9679   0.155   3.527   4.394 -1.4661  1.4062 -0.3724
    1SOL    MW4 9680   0.127   3.515   4.476 -0.3270 -0.3231 -0.2208
    1SOL     OW 9681   1.314   3.952   4.215 -0.1443  0.6365 -0.9414
    1SOL    HW2 9682   1.395   3.915   4.181 -0.7885 -0.3982 -1.3612
    1SOL    HW3 9683   1.332   3.969   4.308  0.5175  0.3023 -1.0092
    1SOL    MW4 9684   1.327   3.949   4.223 -0.1420  0.4559 -1.0061
    1SOL     OW 9685   0.237   2.387   4.132 -0.1271 -0.2287 -0.2699
    1SOL    HW2 9686   0.261   2.296   4.150 -0.9430 -0.0629  1.7413
    1SOL    HW3 9687   0.317   2.437   4.151 -0.4204 -0.2643  1.1131
    1SOL    MW4 9688   0.251   2.381   4.137 -0.2735 -0.2115  0.1779
    1SOL     OW 9689   1.122   4.412   4.200 -0.4072 -0.0258  0.0555
    1SOL    HW2 9690   1.106   4.420   4.294  0.1942  0.3382  0.1291
    1SOL    HW3 9691   1.195   4.352   4.193 -0.0103  0.4727 -0.1446
    1SOL    MW4 9692   1.129   4.405   4.211 -0.2754  0.0882  0.0386
    1SOL     OW 9693   4.280   4.356   4.253 -0.0710  0.2713  0.1024
    1SOL    HW2 9694   4.277   4.451   4.242 -0.7407  0.1692 -0.7074
    1SOL    HW3 9695   4.194   4.326   4.221 -0.0068 -0.5663  0.7020
    1SOL    MW4 9696   4.268   4.365   4.247 -0.1507  0.1473  0.0744
    1SOL     OW 9697   0.351   1.790   4.811 -0.0482  0.1105 -0.4302
    1SOL    HW2 9698   0.400   1.712   4.836  0.2735  0.3939 -0.1775
    1SOL    HW3 9699   0.316   1.825   4.893  0.5214  0.7116 -0.4368
    1SOL    MW4 9700   0.353   1.784   4.825  0.0693  0.2273 -0.3982
    1SOL     OW 9701   0.182   2.879   4.230 -0.2466 -0.4133 -0.0724
    1SOL    HW2 9702   0.204   2.947   4.167  0.4939  0.0031  0.6303
    1SOL    HW3 9703   0.105   2.836   4.193 -1.8047  1.9433  0.3278
    1SOL    MW4 9704   0.175   2.882   4.217 -0.3545 -0.0474  0.0734
    1SOL     OW 9705   2.126   1.623   4.818 -0.1739  0.0476 -0.2873
    1SOL    HW2 9706   2.053   1.683   4.831 -0.9726 -0.8650 -0.4644
    1SOL    HW3 9707   2.204   1.679   4.815 -0.9125  1.0680 -0.5534
    1SOL    MW4 9708   2.127   1.638   4.820 -0.3767  0.0618 -0.3457
    1SOL     OW 9709   4.260   3.067   4.165  0.0881 -0.1612  0.0161
    1SOL    HW2 9710   4.335   3.115   4.200 -1.1294  2.3795 -0.7375
    1SOL    HW3 9711   4.262   3.084   4.071 -0.1597 -1.9121 -0.3175
    1SOL    MW4 9712   4.270   3.076   4.157 -0.1049 -0.0570 -0.1273
    1SOL     OW 9713   3.401   2.751   4.270  0.4428  0.4130  0.0139
    1SOL    HW2 9714   3.336   2.798   4.321 -0.6019 -0.3749 -0.5869
    1SOL    HW3 9715   3.449   2.820   4.224 -1.0232  0.9243 -0.7884
    1SOL    MW4 9716   3.399   2.766   4.271  0.1116  0.3765 -0.1707
    1SOL     OW 9717   2.237   1.073   4.572 -0.2164  0.0988 -0.3071
    1SOL    HW2 9718   2.164   1.133   4.554  0.8918  1.7633  0.6196
    1SOL    HW3 9719   2.312   1.131   4.588  0.8733 -1.5413  0.6244
    1SOL    MW4 9720   2.237   1.089   4.572  0.0737  0.1020 -0.0620
    1SOL     OW 9721   1.021   1.965   4.506 -0.4354 -0.2546  0.3565
    1SOL    HW2 9722   1.076   2.029   4.551 -0.7014  0.5145 -0.4002
    1SOL    HW3 9723   0.939   2.011   4.488 -0.3327 -0.5310 -0.9133
    1SOL    MW4 9724   1.017   1.979   4.509 -0.4570 -0.1897  0.0887
    1SOL     OW 9725   0.245   4.437   4.252 -0.3548 -0.5179 -0.0247
    1SOL    HW2 9726   0.240   4.436   4.348  0.5975  0.7155  0.0430
    1SOL    HW3 9727   0.174   4.379   4.224 -0.3682 -1.2271  1.4338
    1SOL    MW4 9728   0.235   4.429   4.261 -0.2310 -0.4482  0.1764
    1SOL     OW 9729   3.173   1.128   4.179 -0.4927  0.0294 -0.1828
    1SOL    HW2 9730   3.166   1.132   4.083 -2.6777  0.3830 -0.0359
    1SOL    HW3 9731   3.097   1.177   4.210  0.3676  0.1734  1.7506
    1SOL    MW4 9732   3.162   1.135   4.170 -0.6676  0.0949  0.0916
    1SOL     OW 9733   0.766   0.890   4.494  0.0682  0.0584 -0.1697
    1SOL    HW2 9734   0.765   0.827   4.567  0.4600 -0.8020 -0.8945
    1SOL    HW3 9735   0.756   0.975   4.536 -0.4363 -0.4815  0.8368
    1SOL    MW4 9736   0.764   0.893   4.509  0.0533 -0.1264 -0.1326
    1SOL     OW 9737   0.602   0.052   4.119 -0.7109 -0.1804 -0.1623
    1SOL    HW2 9738   0.606   0.145   4.143 -0.4012 -0.3373  0.3811
    1SOL    HW3 9739   0.640   0.049   4.031  1.5716 -0.1381  0.7940
    1SOL    MW4 9740   0.607   0.064   4.110 -0.3689 -0.1955  0.0353
    1SOL     OW 9741   0.491   0.319   4.175  0.4494  0.4266  0.3505
    1SOL    HW2 9742   0.551   0.383   4.215 -0.6561  1.0548  1.0286
    1SOL    HW3 9743   0.479   0.350   4.085 -0.3549  1.3829  0.7781
    1SOL    MW4 9744   0.497   0.332   4.169  0.1974  0.6357  0.4959
    1SOL     OW 9745   0.934   0.891   4.280 -0.2032 -0.2896 -0.0436
    1SOL    HW2 9746   0.931   0.984   4.258 -0.0977 -0.1940  0.3454
    1SOL    HW3 9747   0.879   0.883   4.358 -1.6471 -0.8413 -1.0830
    1SOL    MW4 9748   0.926   0.902   4.287 -0.3798 -0.3498 -0.1297
    1SOL     OW 9749   4.208   0.706   4.660 -0.7221  0.3100 -0.3342
    1SOL    HW2 9750   4.166   0.763   4.596  1.2156  1.1060 -0.9311
    1SOL    HW3 9751   4.137   0.681   4.720 -1.9201  2.0344 -0.9939
    1SOL    MW4 9752   4.193   0.710   4.660 -0.6247  0.6425 -0.5007
    1SOL     OW 9753   2.862   2.062   4.331 -0.2700 -0.3233 -0.1010
    1SOL    HW2 9754   2.817   2.019   4.404 -2.4176 -0.5561 -1.5059
    1SOL    HW3 9755   2.820   2.026   4.253  1.2147  0.7681 -1.4302
    1SOL    MW4 9756   2.850   2.052   4.330 -0.3576 -0.2098 -0.4616
    1SOL     OW 9757   0.622   1.544   4.175 -0.1464  0.1061 -0.1880
    1SOL    HW2 9758   0.641   1.451   4.189 -0.5638  0.1249  0.5590
    1SOL    HW3 9759   0.627   1.556   4.081  0.4944 -0.5502 -0.2455
    1SOL    MW4 9760   0.625   1.534   4.165 -0.1170  0.0219 -0.0973
    1SOL     OW 9761   0.256   0.761   4.125 -0.2641  0.1703  0.0490
    1SOL    HW2 9762   0.254   0.673   4.163 -0.7875  0.7328  1.3726
    1SOL    HW3 9763   0.179   0.805   4.163  1.5787  2.1171  1.6600
    1SOL    MW4 9764   0.245   0.755   4.135 -0.0900  0.5013  0.4363
    1SOL     OW 9765   0.649   2.311   4.515  0.4539 -0.5144 -0.0767
    1SOL    HW2 9766   0.720   2.370   4.542  0.1735 -0.1908 -0.0400
    1SOL    HW3 9767   0.689   2.224   4.513  0.1423 -0.7579  2.6750
    1SOL    MW4 9768   0.664   2.308   4.518  0.3759 -0.5035  0.2913
    1SOL     OW 9769   4.026   1.112   4.554  0.6197  0.5755 -0.0524
    1SOL    HW2 9770   3.950   1.166   4.533  0.2658 -0.5258 -1.6353
    1SOL    HW3 9771   4.071   1.161   4.624 -0.4966  2.1622 -0.4157
    1SOL    MW4 9772   4.022   1.126   4.561  0.4258  0.6397 -0.3090
    1SOL     OW 9773   0.427   1.936   4.144  0.3552  0.1315  0.0473
    1SOL    HW2 9774   0.519   1.955   4.166  0.6668  0.3698 -1.3863
    1SOL    HW3 9775   0.422   1.953   4.050 -1.2137  0.2875  0.1594
    1SOL    MW4 9776   0.439   1.941   4.134  0.1893  0.1835 -0.1268
    1SOL     OW 9777   1.799   3.351   4.518 -0.2556 -0.1585 -0.0611
    1SOL    HW2 9778   1.793   3.300   4.599  0.9700  0.3584  0.3614
    1SOL    HW3 9779   1.797   3.285   4.449 -0.2449 -0.6747  0.4181
    1SOL    MW4 9780   1.798   3.335   4.520 -0.0924 -0.1583  0.0577
    1SOL     OW 9781   0.629   2.271   4.138  0.1338 -0.0500 -0.6769
    1SOL    HW2 9782   0.564   2.340   4.151 -0.0882 -0.1975 -1.0027
    1SOL    HW3 9783   0.655   2.279   4.046  1.3625  0.6917 -0.2789
    1SOL    MW4 9784   0.624   2.281   4.128  0.2666  0.0284 -0.6676
    1SOL     OW 9785   2.101   4.137   4.525 -0.1671  0.1049  0.3716
    1SOL    HW2 9786   2.087   4.230   4.507 -1.3281 -0.2749 -0.7880
    1SOL    HW3 9787   2.123   4.099   4.440 -2.5587 -1.1769  0.2881
    1SOL    MW4 9788   2.102   4.144   4.511 -0.6361 -0.1144  0.2074
    1SOL     OW 9789   0.669   2.848   4.217  0.2429  0.2466  0.0085
    1SOL    HW2 9790   0.725   2.773   4.195  1.0763  1.2189 -1.2091
    1SOL    HW3 9791   0.581   2.821   4.191  0.2157 -1.0214  1.2981
    1SOL    MW4 9792   0.665   2.835   4.211  0.3493  0.2077  0.0181
    1SOL     OW 9793   1.573   2.820   4.241  0.5710 -0.0562 -0.2042
    1SOL    HW2 9794   1.576   2.854   4.331  0.2203 -1.1099  0.2135
    1SOL    HW3 9795   1.660   2.781   4.227 -0.0478 -1.7177  0.4195
    1SOL    MW4 9796   1.585   2.819   4.251  0.4430 -0.4144 -0.0672
    1SOL     OW 9797   0.725   3.091   4.119 -0.0652  0.2930 -0.6399
    1SOL    HW2 9798   0.707   2.999   4.140 -0.2577  0.4895  0.0465
    1SOL    HW3 9799   0.642   3.135   4.132  0.7382  1.1055  1.9927
    1SOL    MW4 9800   0.712   3.085   4.123  0.0153  0.4263 -0.2022
    1SOL     OW 9801   0.015   3.223   4.208 -0.0694 -0.2738 -0.4246
    1SOL    HW2 9802  -0.012   3.306   4.168  0.3675  0.1035  0.0636
    1SOL    HW3 9803   0.011   3.240   4.302  0.9640 -0.5117 -0.3402
    1SOL    MW4 9804   0.011   3.236   4.215  0.1246 -0.2551 -0.3486
    1SOL     OW 9805   0.624   1.280   4.250  0.1960  0.3336  0.3263
    1SOL    HW2 9806   0.553   1.217   4.239 -1.1144  1.5635  1.5640
    1SOL    HW3 9807   0.609   1.318   4.337  1.1505  2.1013 -0.2593
    1SOL    MW4 9808   0.612   1.277   4.260  0.1490  0.7291  0.4129
    1SOL     OW 9809   3.831   3.764   4.771 -0.1418  0.0341 -0.4114
    1SOL    HW2 9810   3.854   3.737   4.860 -0.5447  1.4271  0.1341
    1SOL    HW3 9811   3.865   3.695   4.715 -0.4997 -1.2050  0.8833
    1SOL    MW4 9812   3.838   3.752   4.776 -0.2422  0.0546 -0.1683
    1SOL     OW 9813   0.626   3.528   4.284 -0.2636  0.0603 -0.3002
    1SOL    HW2 9814   0.705   3.493   4.244 -0.2992  0.6204 -0.8550
    1SOL    HW3 9815   0.641   3.622   4.292 -0.4219  0.0141  0.6238
    1SOL    MW4 9816   0.638   3.535   4.280 -0.2893  0.1283 -0.2513
    1SOL     OW 9817   2.565   0.192   4.483 -0.1487  0.0032  0.0484
    1SOL    HW2 9818   2.622   0.134   4.533 -1.1177 -0.4868  0.6196
    1SOL    HW3 9819   2.594   0.183   4.393  0.5712 -0.3492  0.3124
    1SOL    MW4 9820   2.576   0.183   4.478 -0.1814 -0.1079  0.1583
    1SOL     OW 9821   4.327   0.455   4.572  0.1930 -0.3148 -0.8328
    1SOL    HW2 9822   4.313   0.483   4.482  0.6857  0.7028 -0.5881
    1SOL    HW3 9823   4.287   0.524   4.625  0.3299 -0.6766 -0.2563
    1SOL    MW4 9824   4.320   0.468   4.567  0.2761 -0.2282 -0.7243
    1SOL     OW 9825   0.228   4.399   4.522  0.0481 -0.1295  0.8664
    1SOL    HW2 9826   0.165   4.471   4.528 -0.2756 -0.1887 -1.6452
    1SOL    HW3 9827   0.174   4.320   4.526  0.0709 -0.1941 -0.1328
    1SOL    MW4 9828   0.212   4.398   4.524  0.0084 -0.1459  0.4029
    1SOL     OW 9829   1.147   0.017   4.093  0.1667  0.4808  0.3598
    1SOL    HW2 9830   1.135  -0.070   4.130  1.2527 -0.0321 -0.4707
    1SOL    HW3 9831   1.120   0.009   4.001 -0.2373  1.1498  0.4138
    1SOL    MW4 9832   1.142   0.005   4.085  0.2567  0.5021  0.2570
    1SOL     OW 9833   0.958   0.170   4.247  0.0940  0.2780 -0.0933
    1SOL    HW2 9834   0.935   0.240   4.186 -0.0773 -1.0188 -1.5215
    1SOL    HW3 9835   1.033   0.127   4.208  0.8603  0.3161  1.3115
    1SOL    MW4 9836   0.965   0.174   4.234  0.1726  0.1119 -0.0963
    1SOL     OW 9837   0.903   4.133   4.508  0.3157 -0.3098 -0.0060
    1SOL    HW2 9838   0.812   4.155   4.529  0.4797 -0.3185  0.7207
    1SOL    HW3 9839   0.898   4.093   4.421 -0.0775  1.8597 -1.0146
    1SOL    MW4 9840   0.890   4.130   4.499  0.2854 -0.0243 -0.0434
    1SOL     OW 9841   0.398   1.695   4.271  0.1992  0.5134  0.1728
    1SOL    HW2 9842   0.483   1.651   4.274 -0.3118 -0.5199 -0.3720
    1SOL    HW3 9843   0.408   1.764   4.205  0.6654  0.4962  0.2280
    1SOL    MW4 9844   0.410   1.698   4.263  0.1933  0.3748  0.1078
    1SOL     OW 9845   1.144   0.765   4.132 -0.1566 -0.3962  0.2887
    1SOL    HW2 9846   1.219   0.810   4.172  0.2172  0.1354 -0.9889
    1SOL    HW3 9847   1.069   0.796   4.183  0.4225 -0.5789  1.2903
    1SOL    MW4 9848   1.144   0.775   4.144 -0.0310 -0.3501  0.2522
    1SOL     OW 9849   1.548   1.171   4.456 -0.3816 -0.0521 -0.1431
    1SOL    HW2 9850   1.636   1.159   4.491 -0.9567 -1.2450  0.9411
    1SOL    HW3 9851   1.562   1.214   4.371  1.1145  1.3778  0.8057
    1SOL    MW4 9852   1.561   1.175   4.449 -0.2601 -0.0206  0.1254
    1SOL     OW 9853   0.861   1.150   4.195  0.5484 -0.4235  0.3129
    1SOL    HW2 9854   0.779   1.184   4.231 -0.0536 -1.4053 -0.1226
    1SOL    HW3 9855   0.924   1.220   4.211  0.1179 -0.5173  2.5280
    1SOL    MW4 9856   0.858   1.164   4.202  0.4122 -0.5655  0.5479
    1SOL     OW 9857   4.427   1.734   4.481  0.5727  0.3428 -0.0286
    1SOL    HW2 9858   4.514   1.725   4.520  0.8324  0.2125 -0.6304
    1SOL    HW3 9859   4.396   1.820   4.510 -0.1365 -0.6230  2.2373
    1SOL    MW4 9860   4.434   1.744   4.490  0.5136  0.1981  0.1907
    1SOL     OW 9861   3.920   3.599   4.547 -0.4556 -0.1656  0.4638
    1SOL    HW2 9862   3.888   3.512   4.571  0.8447 -0.7381  0.1898
    1SOL    HW3 9863   3.888   3.613   4.458  0.5382 -0.9823 -0.0279
    1SOL    MW4 9864   3.912   3.589   4.538 -0.1528 -0.3490  0.3624
    1SOL     OW 9865   1.090   3.578   4.491 -0.1285  0.2317  0.1330
    1SOL    HW2 9866   1.084   3.596   4.397  1.9307  0.8871  0.0916
    1SOL    HW3 9867   1.163   3.632   4.520 -1.0320  0.3540  2.2110
    1SOL    MW4 9868   1.099   3.587   4.482  0.0238  0.3345  0.4020
    1SOL     OW 9869   0.549   1.877   4.615  0.7006 -0.4156 -0.5087
    1SOL    HW2 9870   0.497   1.878   4.695  3.6174 -0.1218  1.4503
    1SOL    HW3 9871   0.487   1.901   4.546 -1.9818 -1.1487  1.5503
    1SOL    MW4 9872   0.534   1.880   4.616  0.7315 -0.4736  0.0210
    1SOL     OW 9873   0.894   1.902   4.110 -0.4176  0.1336  0.0270
    1SOL    HW2 9874   0.972   1.933   4.156 -0.1798 -0.5724  0.1064
    1SOL    HW3 9875   0.903   1.937   4.021  0.3067 -0.4609 -0.1406
    1SOL    MW4 9876   0.906   1.911   4.104 -0.2906 -0.0379  0.0148
    1SOL     OW 9877   2.550   2.342   4.585 -0.0461  0.2463 -0.3591
    1SOL    HW2 9878   2.523   2.252   4.567 -0.7018  0.0929  1.2645
    1SOL    HW3 9879   2.481   2.396   4.548 -1.7439 -0.0859  2.1844
    1SOL    MW4 9880   2.537   2.337   4.578 -0.3564  0.1824  0.1903
    1SOL     OW 9881   0.363   4.093   4.428  0.0572  0.5209  0.0938
    1SOL    HW2 9882   0.291   4.150   4.456 -0.7265 -0.5825  0.3627
    1SOL    HW3 9883   0.358   4.018   4.486  0.4875 -0.2561 -0.8581
    1SOL    MW4 9884   0.353   4.091   4.439  0.0105  0.2732  0.0029
    1SOL     OW 9885   0.851   2.641   4.127  0.2999  0.0678  0.0345
    1SOL    HW2 9886   0.851   2.550   4.156  0.6784  0.4336  1.2121
    1SOL    HW3 9887   0.934   2.677   4.158 -0.7293  1.3612  1.4022
    1SOL    MW4 9888   0.862   2.634   4.135  0.2140  0.2868  0.3705
    1SOL     OW 9889   0.441   4.032   4.159  0.5370  0.1317  0.0229
    1SOL    HW2 9890   0.418   4.045   4.251 -0.0862 -0.4737 -0.0469
    1SOL    HW3 9891   0.449   4.121   4.124  2.5546  0.3984  1.0912
    1SOL    MW4 9892   0.439   4.046   4.167  0.7210  0.0873  0.1540
    1SOL     OW 9893   1.106   3.015   4.125 -0.1111  0.0307 -0.0893
    1SOL    HW2 9894   1.108   3.052   4.037  1.3049  1.8955  0.7094
    1SOL    HW3 9895   1.058   3.080   4.177 -0.3958 -0.7713  0.6604
    1SOL    MW4 9896   1.100   3.029   4.120  0.0381  0.1712  0.1154
    1SOL     OW 9897   3.567   0.086   4.251  0.1116 -0.4288  0.1127
    1SOL    HW2 9898   3.630   0.031   4.205  0.6238 -0.6043  1.0037
    1SOL    HW3 9899   3.579   0.174   4.214  0.5037 -0.5688 -0.0913
    1SOL    MW4 9900   3.576   0.090   4.240  0.2313 -0.4704  0.2027
    1SOL     OW 9901   0.216   3.582   4.223 -0.0400  0.3769 -0.4983
    1SOL    HW2 9902   0.245   3.670   4.199 -1.1541  0.3970 -1.8243
    1SOL    HW3 9903   0.281   3.523   4.185  0.1550  0.5719 -0.4657
    1SOL    MW4 9904   0.228   3.586   4.215 -0.1612  0.4053 -0.6690
    1SOL     OW 9905   3.937   2.773   4.175 -0.4516  0.0663 -0.1471
    1SOL    HW2 9906   3.885   2.703   4.213  0.3168 -0.7800 -0.6376
    1SOL    HW3 9907   3.914   2.851   4.226 -0.7269 -0.6953  0.9050
    1SOL    MW4 9908   3.927   2.774   4.186 -0.3867 -0.1459 -0.0730
    1SOL     OW 9909   2.052   2.895   4.219  0.2197  0.3288 -0.0144
    1SOL    HW2 9910   1.971   2.843   4.213  0.4421  0.1429 -1.9488
    1SOL    HW3 9911   2.122   2.831   4.204  0.5442  0.9729 -1.3835
    1SOL    MW4 9912   2.050   2.880   4.216  0.2918  0.3891 -0.4506
    1SOL     OW 9913   0.470   3.166   4.223 -0.1169 -0.3623 -0.2852
    1SOL    HW2 9914   0.448   3.253   4.191 -0.0245 -0.3962 -0.4420
    1SOL    HW3 9915   0.488   3.178   4.316  0.3271 -0.1404 -0.3969
    1SOL    MW4 9916   0.469   3.179   4.231 -0.0461 -0.3376 -0.3204
    1SOL     OW 9917   0.897   4.271   4.105  0.2680 -0.3082 -0.1231
    1SOL    HW2 9918   0.815   4.300   4.144  0.0289 -0.9054 -0.1817
    1SOL    HW3 9919   0.961   4.336   4.134 -0.2196  0.1533 -0.0693
    1SOL    MW4 9920   0.895   4.283   4.114  0.1721 -0.3257 -0.1235
    1SOL     OW 9921   1.166   4.643   4.579  0.5765 -0.0244 -0.0789
    1SOL    HW2 9922   1.114   4.562   4.580  2.0509 -1.0434 -1.9606
    1SOL    HW3 9923   1.103   4.711   4.557 -0.8402 -0.4988  2.2622
    1SOL    MW4 9924   1.151   4.641   4.576  0.5841 -0.2217 -0.0186
    1SOL     OW 9925   2.679   4.079   4.219 -0.0202 -0.5470  0.5793
    1SOL    HW2 9926   2.694   4.108   4.309  0.6015  1.1553 -0.0648
    1SOL    HW3 9927   2.593   4.036   4.223 -0.2980  0.0782  1.8514
    1SOL    MW4 9928   2.670   4.077   4.232  0.0253 -0.2398  0.6623
    1SOL     OW 9929   1.413   0.120   4.171  0.0255  0.2889  0.2316
    1SOL    HW2 9930   1.444   0.075   4.249 -0.7581 -1.7135 -0.5927
    1SOL    HW3 9931   1.329   0.080   4.151  1.0810 -0.6192 -2.7537
    1SOL    MW4 9932   1.406   0.109   4.178  0.0615 -0.0951 -0.2708
    1SOL     OW 9933   1.341   0.391   4.135  0.9939 -0.3081  0.2729
    1SOL    HW2 9934   1.416   0.446   4.157 -0.2695  0.9052  1.7548
    1SOL    HW3 9935   1.370   0.301   4.151  1.7701  0.2262  2.0018
    1SOL    MW4 9936   1.354   0.387   4.140  0.9296 -0.0775  0.6967
    1SOL     OW 9937   1.625   3.560   4.477  0.1450 -0.1888 -0.3683
    1SOL    HW2 9938   1.701   3.501   4.475 -0.3768 -0.8686 -0.0871
    1SOL    HW3 9939   1.658   3.638   4.522  1.3912  0.5292 -2.4686
    1SOL    MW4 9940   1.640   3.563   4.483  0.2406 -0.1833 -0.6084
    1SOL     OW 9941   2.555   2.195   4.927 -0.0888  0.1429 -0.3018
    1SOL    HW2 9942   2.536   2.281   4.888  0.0044  0.8391  1.1709
    1SOL    HW3 9943   2.626   2.212   4.989 -0.2892 -0.9472  0.2280
    1SOL    MW4 9944   2.562   2.208   4.930 -0.1030  0.0908 -0.0381
    1SOL     OW 9945   2.094   0.364   4.463 -0.1348 -0.0641 -0.2386
    1SOL    HW2 9946   2.011   0.329   4.495 -0.2698  0.2965 -0.1957
    1SOL    HW3 9947   2.158   0.296   4.484 -0.2331  0.1269  0.7034
    1SOL    MW4 9948   2.091   0.350   4.470 -0.1657  0.0087 -0.1082
    1SOL     OW 9949   0.942   3.209   4.245  0.1218 -0.0513 -0.1584
    1SOL    HW2 9950   0.927   3.198   4.338 -0.4613 -0.5002 -0.3039
    1SOL    HW3 9951   0.871   3.161   4.203  0.5700 -0.1319 -0.8363
    1SOL    MW4 9952   0.931   3.201   4.252  0.1040 -0.1211 -0.2666
    1SOL     OW 9953   1.290   1.146   4.161  0.4774 -0.0824  0.0841
    1SOL    HW2 9954   1.360   1.202   4.196 -1.3804  2.0502  0.5215
    1SOL    HW3 9955   1.302   1.149   4.066 -0.4333  2.2644  0.0033
    1SOL    MW4 9956   1.301   1.154   4.153  0.1123  0.5085  0.1311
    1SOL     OW 9957   3.126   2.799   4.717 -0.0326  0.0871 -0.1835
    1SOL    HW2 9958   3.181   2.873   4.691 -1.2435  2.0830  2.6514
    1SOL    HW3 9959   3.038   2.823   4.687 -0.8817  1.0053  2.9078
    1SOL    MW4 9960   3.122   2.812   4.709 -0.3045  0.4718  0.5980
    1SOL     OW 9961   3.284   4.285   4.469  0.1236  0.4954  0.4513
    1SOL    HW2 9962   3.355   4.253   4.525  0.1679  0.8592  0.6076
    1SOL    HW3 9963   3.260   4.369   4.508 -1.3421 -0.2619  1.2424
    1SOL    MW4 9964   3.291   4.292   4.482 -0.0641  0.4435  0.5765
    1SOL     OW 9965   2.776   2.363   4.343 -0.2464 -0.1964 -0.2620
    1SOL    HW2 9966   2.764   2.269   4.352 -1.2722 -0.1898 -1.3988
    1SOL    HW3 9967   2.688   2.399   4.353  0.2269  0.7038  0.7916
    1SOL    MW4 9968   2.763   2.356   4.345 -0.3195 -0.0765 -0.2732
    1SOL     OW 9969   0.962   0.195   4.536 -0.0027  0.3316  0.3254
    1SOL    HW2 9970   1.006   0.279   4.552  0.2923  0.3901 -0.7510
    1SOL    HW3 9971   0.975   0.178   4.443 -0.5037 -0.6667  0.4259
    1SOL    MW4 9972   0.969   0.204   4.526 -0.0299  0.2076  0.1960
    1SOL     OW 9973   2.130   1.985   4.796  0.0595  0.1135 -0.2511
    1SOL    HW2 9974   2.165   2.074   4.786  0.6309 -0.1279 -0.4265
    1SOL    HW3 9975   2.113   1.956   4.706  1.4529 -0.5771 -0.3005
    1SOL    MW4 9976   2.132   1.993   4.783  0.3188 -0.0093 -0.2809
    1SOL     OW 9977   1.831   2.697   3.889 -0.0656 -0.7495 -0.0530
    1SOL    HW2 9978   1.752   2.743   3.862  0.9082  1.4003  0.6729
    1SOL    HW3 9979   1.825   2.611   3.846 -1.2415  0.5355 -2.5350
    1SOL    MW4 9980   1.820   2.692   3.880 -0.0921 -0.2961 -0.2849
    1SOL     OW 9981   3.131   3.763   4.550  0.4447 -0.3496  0.0576
    1SOL    HW2 9982   3.145   3.856   4.530  0.0517 -0.3484 -0.2177
    1SOL    HW3 9983   3.219   3.727   4.561  0.6437 -0.2373 -1.1710
    1SOL    MW4 9984   3.145   3.771   4.549  0.4189 -0.3347 -0.1407
    1SOL     OW 9985   1.095   2.018   4.239 -0.3274 -0.0144 -0.5677
    1SOL    HW2 9986   1.184   1.984   4.227 -0.3552  0.4467 -2.3131
    1SOL    HW3 9987   1.073   1.998   4.330  1.4579 -0.3771 -0.1987
    1SOL    MW4 9988   1.104   2.011   4.249 -0.0954 -0.0014 -0.7491
    1SOL     OW 9989   3.587   3.993   4.274 -0.2155 -0.0383 -0.4232
    1SOL    HW2 9990   3.654   3.951   4.220 -0.1140  0.3313 -0.5901
    1SOL    HW3 9991   3.504   3.973   4.230 -0.2127 -0.5054 -0.2107
    1SOL    MW4 9992   3.585   3.985   4.261 -0.2015 -0.0515 -0.4172
    1SOL     OW 9993   3.109   0.837   4.518  0.3380 -0.0475 -0.4432
    1SOL    HW2 9994   3.112   0.875   4.430  0.8646  0.6502 -0.1331
    1SOL    HW3 9995   3.131   0.910   4.576 -1.2135 -0.2112  0.3632
    1SOL    MW4 9996   3.112   0.851   4.514  0.2029  0.0228 -0.2961
    1SOL     OW 9997   3.279   4.549   4.548  0.1566  0.3270  0.1670
    1SOL    HW2 9998   3.358   4.601   4.536  0.6294 -0.5477 -0.5299
    1SOL    HW3 9999   3.208   4.613   4.544  0.7488  0.9574 -0.4416
    1SOL    MW410000   3.280   4.564   4.546  0.2968  0.2947 -0.0052
    1SOL     OW10001   1.811   0.133   4.256 -0.0076  0.4875  0.1278
    1SOL    HW210002   1.875   0.078   4.210  1.2429  1.3273  0.8234
    1SOL    HW310003   1.740   0.073   4.278  1.4342 -0.9402  1.0822
    1SOL    MW410004   1.810   0.117   4.252  0.3475  0.4100  0.3452
    1SOL     OW10005   0.896   4.023   4.245  0.0566 -0.2423 -0.1554
    1SOL    HW210006   0.915   4.111   4.210  0.6460  0.0571  0.9180
    1SOL    HW310007   0.958   3.966   4.199  0.8540  0.1565  0.4124
    1SOL    MW410008   0.907   4.027   4.234  0.2396 -0.1502  0.0610
    1SOL     OW10009   0.621   3.804   4.402 -0.1445  0.0069  0.3756
    1SOL    HW210010   0.703   3.792   4.450  0.4943  0.9092 -0.4723
    1SOL    HW310011   0.647   3.844   4.319 -1.5556  1.4785  0.6084
    1SOL    MW410012   0.635   3.808   4.398 -0.2464  0.3202  0.2947
    1SOL     OW10013   1.579   0.493   4.216  0.1491 -0.0919 -0.1355
    1SOL    HW210014   1.581   0.496   4.311  0.3388 -1.0627 -0.0999
    1SOL    HW310015   1.582   0.584   4.188 -0.2412  0.2055  0.7936
    1SOL    MW410016   1.580   0.505   4.225  0.1227 -0.1807 -0.0081
    1SOL     OW10017   1.837   0.266   4.537  0.4481 -0.0585 -0.1283
    1SOL    HW210018   1.773   0.336   4.546  0.3504 -0.2739  0.9534
    1SOL    HW310019   1.828   0.236   4.447 -1.1019 -0.2159  0.0692
    1SOL    MW410020   1.827   0.271   4.527  0.2307 -0.1077  0.0405
    1SOL     OW10021   2.000   4.638   4.125 -0.1209 -0.2479 -0.2929
    1SOL    HW210022   2.057   4.709   4.153 -0.0887 -0.0225 -0.9494
    1SOL    HW310023   1.986   4.652   4.032 -1.0895 -0.4115 -0.1765
    1SOL    MW410024   2.006   4.649   4.117 -0.2444 -0.2398 -0.3638
    1SOL     OW10025   2.018   0.494   4.214  0.0356  0.1846 -0.1293
    1SOL    HW210026   2.018   0.470   4.307  0.6976 -0.0038 -0.1730
    1SOL    HW310027   1.929   0.475   4.184 -0.3633  0.8483  0.6158
    1SOL    MW410028   2.006   0.488   4.223  0.0703  0.2473 -0.0367
    1SOL     OW10029   1.593   4.655   4.350 -0.0793 -0.0459  0.0546
    1SOL    HW210030   1.542   4.677   4.428  0.5701  0.5286  0.3227
    1SOL    HW310031   1.600   4.560   4.352  0.6336  0.0230  1.1449
    1SOL    MW410032   1.587   4.646   4.361  0.1004  0.0390  0.2341
    1SOL     OW10033   1.118   0.449   4.529 -0.2438  0.4367 -0.1173
    1SOL    HW210034   1.107   0.529   4.580 -2.6564  0.3727 -0.5003
    1SOL    HW310035   1.101   0.476   4.439 -0.3782 -0.3614 -0.3312
    1SOL    MW410036   1.115   0.463   4.524 -0.5798  0.3229 -0.1960
    1SOL     OW10037   3.803   0.752   4.185 -0.1590 -0.0459 -0.0814
    1SOL    HW210038   3.711   0.778   4.191 -0.1535 -0.0845  0.1978
    1SOL    HW310039   3.817   0.735   4.092  0.2300  2.3797 -0.4953
    1SOL    MW410040   3.793   0.753   4.174 -0.1070  0.2691 -0.0992
    1SOL     OW10041   3.519   0.043   4.519  0.5766  0.1108  0.1901
    1SOL    HW210042   3.607   0.022   4.550  1.2008  0.5398 -1.2151
    1SOL    HW310043   3.530   0.058   4.425 -0.7943  1.3162  0.1951
    1SOL    MW410044   3.532   0.043   4.510  0.4783  0.3264  0.0052
    1SOL     OW10045   1.097   0.941   4.570  0.2408 -0.4064 -0.2358
    1SOL    HW210046   1.189   0.957   4.549  0.4067 -1.4386 -0.3331
    1SOL    HW310047   1.053   0.942   4.485 -0.3122  2.8722  0.0295
    1SOL    MW410048   1.104   0.943   4.556  0.1897 -0.1100 -0.2136
    1SOL     OW10049   1.512   1.950   4.548 -0.1618  0.2759  0.1187
    1SOL    HW210050   1.431   1.901   4.539  0.0471 -0.1716  0.6513
    1SOL    HW310051   1.493   2.017   4.614 -0.1995  0.3947 -0.0118
    1SOL    MW410052   1.499   1.952   4.555 -0.1391  0.2325  0.1717
    1SOL     OW10053   1.525   1.302   4.190 -0.2256  0.0126 -0.3131
    1SOL    HW210054   1.608   1.264   4.162 -0.6111 -0.8929 -0.2616
    1SOL    HW310055   1.522   1.388   4.147  1.4434  0.7275  0.9402
    1SOL    MW410056   1.536   1.308   4.181 -0.0561 -0.0125 -0.1407
    1SOL     OW10057   1.536   1.555   4.065  0.6605  0.0809 -0.2919
    1SOL    HW210058   1.475   1.584   4.133  1.1597 -0.1200  0.2453
    1SOL    HW310059   1.623   1.570   4.103  0.9338 -0.8710 -0.5261
    1SOL    MW410060   1.540   1.561   4.079  0.7625 -0.0712 -0.2522
    1SOL     OW10061   1.088   1.577   4.138  0.1592 -0.1459  0.3913
    1SOL    HW210062   1.088   1.486   4.167 -0.2601  0.0804  1.1116
    1SOL    HW310063   1.001   1.609   4.159 -0.2214 -0.0195 -1.3059
    1SOL    MW410064   1.077   1.569   4.145  0.0536 -0.0994  0.2623
    1SOL     OW10065   0.368   2.369   4.461  0.4931  0.1076 -0.4176
    1SOL    HW210066   0.314   2.290   4.454 -2.7151  2.2532 -0.8497
    1SOL    HW310067   0.457   2.335   4.471 -0.6270 -3.5528 -1.7293
    1SOL    MW410068   0.373   2.354   4.462 -0.0780 -0.0923 -0.6480
    1SOL     OW10069   3.538   2.511   4.260 -0.0006  0.1984  0.1263
    1SOL    HW210070   3.487   2.591   4.250  0.4177  0.2960 -1.4058
    1SOL    HW310071   3.487   2.443   4.216  1.1740  0.3145 -1.4982
    1SOL    MW410072   3.525   2.512   4.253  0.2098  0.2270 -0.2904
    1SOL     OW10073   3.619   1.730   4.479 -0.1008  0.3568  0.4115
    1SOL    HW210074   3.709   1.725   4.510  0.0614 -0.0485 -0.1198
    1SOL    HW310075   3.576   1.791   4.539 -0.0548 -1.2189  2.0747
    1SOL    MW410076   3.625   1.737   4.491 -0.0737  0.0955  0.5612
    1SOL     OW10077   2.251   2.706   4.181  0.3785 -0.0927  0.2493
    1SOL    HW210078   2.258   2.694   4.087  2.1082  0.2677  0.3162
    1SOL    HW310079   2.242   2.618   4.216 -0.7717 -0.1972 -0.2733
    1SOL    MW410080   2.251   2.693   4.173  0.4549 -0.0589  0.1898
    1SOL     OW10081   2.042   1.543   4.118 -0.0782  0.4819 -0.5694
    1SOL    HW210082   2.117   1.593   4.150 -0.2233 -0.0602  0.6466
    1SOL    HW310083   2.044   1.555   4.023  1.2882  0.8314 -0.5109
    1SOL    MW410084   2.052   1.551   4.110  0.0830  0.4566 -0.4015
    1SOL     OW10085   2.696   1.938   4.148  0.1987 -0.9566 -0.2146
    1SOL    HW210086   2.615   1.970   4.188  1.8108 -0.4308  2.7587
    1SOL    HW310087   2.703   1.847   4.179  1.8724 -0.2939  1.4504
    1SOL    MW410088   2.686   1.930   4.157  0.6323 -0.7999  0.3972
    1SOL     OW10089   1.355   2.676   4.155  0.7471 -0.4239 -0.3346
    1SOL    HW210090   1.272   2.699   4.195 -0.0947  0.4771 -2.4945
    1SOL    HW310091   1.420   2.726   4.203 -0.1467  0.0559  0.3816
    1SOL    MW410092   1.353   2.685   4.166  0.5180 -0.2415 -0.5245
    1SOL     OW10093   2.000   3.573   4.225 -0.3093  0.5575  0.2848
    1SOL    HW210094   1.918   3.532   4.198  0.6046 -0.7436 -0.5208
    1SOL    HW310095   1.989   3.666   4.202 -1.3663  0.3045 -0.2362
    1SOL    MW410096   1.988   3.580   4.219 -0.3281  0.3524  0.1097
    1SOL     OW10097   0.672   1.623   4.615 -0.1416 -0.2566 -0.0813
    1SOL    HW210098   0.638   1.713   4.609 -0.5601 -0.4065  0.0992
    1SOL    HW310099   0.767   1.634   4.607 -0.2567  0.1121 -1.0613
    1SOL    MW410100   0.680   1.637   4.613 -0.2120 -0.2277 -0.1869
    1SOL     OW10101   2.003   3.864   4.170  0.0724  0.5398 -0.4850
    1SOL    HW210102   1.982   3.862   4.077  0.0952 -1.6409 -0.4678
    1SOL    HW310103   1.918   3.873   4.213 -0.0427  0.3595 -0.6751
    1SOL    MW410104   1.989   3.865   4.163  0.0603  0.2282 -0.5074
    1SOL     OW10105   1.335   4.223   4.149 -0.0436  0.3335  0.0167
    1SOL    HW210106   1.343   4.238   4.055  0.5282  0.0462  0.0167
    1SOL    HW310107   1.317   4.130   4.157  1.5016  0.0323  0.2582
    1SOL    MW410108   1.334   4.213   4.138  0.2358  0.2561  0.0486
    1SOL     OW10109   1.546   3.846   4.132  0.2744 -0.0810  0.0657
    1SOL    HW210110   1.541   3.759   4.172 -0.2386 -0.1641 -0.1753
    1SOL    HW310111   1.624   3.885   4.170  0.9471 -0.9432 -0.3942
    1SOL    MW410112   1.556   3.840   4.142  0.2955 -0.2058 -0.0262
    1SOL     OW10113   2.433   2.888   4.270  0.2967 -0.1764 -0.3484
    1SOL    HW210114   2.427   2.966   4.214  1.7373 -0.1112 -0.4302
    1SOL    HW310115   2.368   2.828   4.234 -0.5202  0.8167 -0.5622
    1SOL    MW410116   2.424   2.891   4.258  0.3788 -0.0367 -0.3867
    1SOL     OW10117   2.441   4.663   4.152  0.2979  0.1761 -0.3878
    1SOL    HW210118   2.505   4.727   4.183  0.5727 -0.1556 -0.2717
    1SOL    HW310119   2.359   4.712   4.145  0.1318  0.1355  1.2713
    1SOL    MW410120   2.439   4.678   4.155  0.3123  0.1278 -0.1535
    1SOL     OW10121   4.099   2.159   4.712  0.5719 -0.0996 -0.1043
    1SOL    HW210122   4.085   2.169   4.806  0.6711  0.7388 -0.1783
    1SOL    HW310123   4.105   2.248   4.678  0.7006 -0.3946 -0.8838
    1SOL    MW410124   4.098   2.172   4.720  0.6018 -0.0277 -0.2174
    1SOL     OW10125   1.527   0.746   4.588  0.2701  0.0499 -0.4449
    1SOL    HW210126   1.473   0.709   4.657  0.5793 -0.9546 -0.7296
    1SOL    HW310127   1.475   0.817   4.551 -0.0859  0.2806  0.5059
    1SOL    MW410128   1.513   0.750   4.592  0.2640 -0.0522 -0.3572
    1SOL     OW10129   2.519   0.760   4.141  0.0085  0.3655  0.1648
    1SOL    HW210130   2.520   0.756   4.046 -0.1505 -1.2128  0.2091
    1SOL    HW310131   2.583   0.828   4.164  0.1897  0.6086 -1.0533
    1SOL    MW410132   2.527   0.768   4.131  0.0114  0.1894  0.0100
    1SOL     OW10133   3.832   2.787   4.607 -0.1094 -0.5302 -0.0760
    1SOL    HW210134   3.916   2.781   4.653 -0.2202 -0.1605  0.1786
    1SOL    HW310135   3.850   2.841   4.530 -0.3963  0.6189  0.6520
    1SOL    MW410136   3.845   2.793   4.603 -0.1619 -0.3297  0.0539
    1SOL     OW10137   2.047   0.754   4.122 -0.2911 -0.2563 -0.6077
    1SOL    HW210138   2.112   0.804   4.171 -1.9260  0.3347  1.0059
    1SOL    HW310139   2.063   0.663   4.147  1.4168 -0.3864 -2.0471
    1SOL    MW410140   2.058   0.748   4.131 -0.2813 -0.1954 -0.5846
    1SOL     OW10141   0.477   2.505   4.195  0.0999  0.1033  0.3294
    1SOL    HW210142   0.445   2.485   4.283 -0.9059  0.5699  0.0760
    1SOL    HW310143   0.457   2.597   4.182  0.2853  0.0504 -0.3694
    1SOL    MW410144   0.470   2.514   4.205 -0.0083  0.1583  0.2041
    1SOL     OW10145   0.188   1.302   4.261 -0.3004 -0.3639 -0.1813
    1SOL    HW210146   0.179   1.387   4.218  0.1416 -0.9894 -1.5388
    1SOL    HW310147   0.269   1.266   4.226 -0.5847 -1.4401  0.2457
    1SOL    MW410148   0.198   1.308   4.251 -0.2796 -0.5883 -0.3042
    1SOL     OW10149   2.704   1.239   4.178 -0.2299  0.2819 -0.3782
    1SOL    HW210150   2.711   1.146   4.199  1.3396  0.4876  0.0906
    1SOL    HW310151   2.706   1.242   4.083 -1.2977 -0.2262 -0.4267
    1SOL    MW410152   2.705   1.227   4.168 -0.1638  0.2420 -0.3228
    1SOL     OW10153   3.181   2.700   4.105  0.4024  0.2304 -0.0143
    1SOL    HW210154   3.259   2.730   4.152 -0.0247  0.1839  0.7233
    1SOL    HW310155   3.163   2.613   4.141  0.0358  0.2233 -0.2141
    1SOL    MW410156   3.189   2.692   4.116  0.2975  0.2234  0.0567
    1SOL     OW10157   0.432   4.300   4.105 -0.0477  0.0475  0.0643
    1SOL    HW210158   0.406   4.313   4.014  0.0575  0.6714  0.1162
    1SOL    HW310159   0.363   4.341   4.156  0.7245  1.2062  0.2147
    1SOL    MW410160   0.420   4.307   4.100  0.0681  0.2828  0.0906
    1SOL     OW10161   1.173   2.184   4.625  0.5966 -0.0895 -0.3705
    1SOL    HW210162   1.265   2.168   4.645  1.1517  0.0601 -2.7272
    1SOL    HW310163   1.165   2.279   4.624  0.2378 -0.1031  0.5473
    1SOL    MW410164   1.184   2.194   4.628  0.6225 -0.0715 -0.5603
    1SOL     OW10165   2.685   1.666   4.549 -0.1552 -0.5140 -0.7452
    1SOL    HW210166   2.712   1.756   4.568  1.0405 -0.7905 -1.1066
    1SOL    HW310167   2.747   1.612   4.597  1.1472 -1.1923 -3.1214
    1SOL    MW410168   2.697   1.671   4.558  0.1748 -0.6399 -1.1058
    1SOL     OW10169   2.953   1.288   4.281  0.2515 -0.1494 -0.4968
    1SOL    HW210170   2.866   1.268   4.246 -0.1326 -0.3085  0.5474
    1SOL    HW310171   2.943   1.281   4.376  1.6001 -0.9888 -0.4058
    1SOL    MW410172   2.940   1.284   4.289  0.3788 -0.2812 -0.3471
    1SOL     OW10173   2.551   2.465   4.821  0.2381 -0.0349 -0.5022
    1SOL    HW210174   2.581   2.422   4.741  1.7651  0.9947 -0.4987
    1SOL    HW310175   2.589   2.553   4.818 -0.7674  0.4747  0.7162
    1SOL    MW410176   2.560   2.471   4.810  0.3068  0.1683 -0.3405
    1SOL     OW10177   0.045   2.523   4.284 -0.2113 -0.7321 -0.2735
    1SOL    HW210178   0.102   2.550   4.355  0.1439 -1.8380 -0.1270
    1SOL    HW310179   0.101   2.469   4.227 -0.7420 -0.6656 -0.8684
    1SOL    MW410180   0.060   2.519   4.286 -0.2344 -0.8693 -0.3333
    1SOL     OW10181   4.029   3.186   4.244 -0.2306  0.4032  0.5168
    1SOL    HW210182   4.114   3.149   4.221  0.0905  1.6012 -0.2544
    1SOL    HW310183   4.034   3.277   4.216 -1.4715  0.7007  1.2252
    1SOL    MW410184   4.041   3.193   4.237 -0.3519  0.6006  0.5088
    1SOL     OW10185   1.826   2.721   4.162  0.0954 -0.0349  0.1061
    1SOL    HW210186   1.869   2.639   4.188  0.5046 -0.0809 -0.7305
    1SOL    HW310187   1.818   2.716   4.067 -1.4803  0.1161  0.2101
    1SOL    MW410188   1.831   2.709   4.153 -0.0585 -0.0210  0.0091
    1SOL     OW10189   0.697   2.977   4.474 -0.1936  0.4890  0.1181
    1SOL    HW210190   0.666   2.931   4.396  0.1421 -0.6876  0.6542
    1SOL    HW310191   0.636   3.050   4.485 -0.8719  0.0477 -0.6425
    1SOL    MW410192   0.685   2.980   4.465 -0.2387  0.2759  0.0882
    1SOL     OW10193   4.116   3.813   4.551 -0.4430 -0.2189 -0.2939
    1SOL    HW210194   4.193   3.758   4.540 -0.1208 -0.3436  2.1792
    1SOL    HW310195   4.042   3.752   4.552 -0.0541 -0.7233  2.8372
    1SOL    MW410196   4.116   3.798   4.550 -0.3486 -0.3018  0.4454
    1SOL     OW10197   2.446   3.093   4.479 -0.0007 -0.4638 -0.4356
    1SOL    HW210198   2.447   3.021   4.415 -0.1892 -1.3465  0.5381
    1SOL    HW310199   2.452   3.049   4.564  0.0655  0.6925  0.1595
    1SOL    MW410200   2.447   3.078   4.482 -0.0165 -0.4275 -0.2289
    1SOL     OW10201   2.207   4.002   4.292 -0.1498  0.1058 -0.1231
    1SOL    HW210202   2.291   3.971   4.259 -0.4129  0.9681 -1.6336
    1SOL    HW310203   2.144   3.937   4.261 -0.3851  0.8620 -1.2151
    1SOL    MW410204   2.210   3.989   4.284 -0.2155  0.3195 -0.4659
    1SOL     OW10205   2.415   4.390   4.232  0.1963 -0.4773 -0.4510
    1SOL    HW210206   2.440   4.382   4.324  0.8355  1.0482 -0.4650
    1SOL    HW310207   2.418   4.485   4.215 -0.1059 -0.7289 -1.9857
    1SOL    MW410208   2.419   4.402   4.242  0.2403 -0.3095 -0.6552
    1SOL     OW10209   2.647   0.866   4.499  0.3564 -0.0981  0.3383
    1SOL    HW210210   2.688   0.785   4.528 -0.0779 -0.1942  0.6975
    1SOL    HW310211   2.554   0.846   4.496  0.3592  0.0430 -0.7160
    1SOL    MW410212   2.640   0.853   4.503  0.2995 -0.0921  0.2465
    1SOL     OW10213   2.656   0.157   4.217 -0.1697  0.0897 -0.4692
    1SOL    HW210214   2.679   0.235   4.166 -0.3704  0.3488 -0.1610
    1SOL    HW310215   2.730   0.097   4.205  0.3311  0.6320 -0.0711
    1SOL    MW410216   2.669   0.159   4.208 -0.1299  0.1954 -0.3762
    1SOL     OW10217   2.375   4.091   4.614 -0.0890 -0.2545  0.1828
    1SOL    HW210218   2.280   4.089   4.604 -0.2668 -0.4936  1.7704
    1SOL    HW310219   2.389   4.109   4.707  1.4203  0.5252 -0.1844
    1SOL    MW410220   2.364   4.093   4.625  0.0868 -0.1841  0.3438
    1SOL     OW10221   2.730   0.396   4.115 -0.4209 -0.1423  0.3853
    1SOL    HW210222   2.652   0.428   4.161 -1.0533 -0.5781 -0.3532
    1SOL    HW310223   2.706   0.401   4.022  0.9823  1.1288  0.0632
    1SOL    MW410224   2.716   0.401   4.109 -0.3195 -0.0321  0.2451
    1SOL     OW10225   0.674   4.361   4.239  0.4832 -0.3080  0.5505
    1SOL    HW210226   0.619   4.335   4.165 -0.0971  1.5520  0.3180
    1SOL    HW310227   0.646   4.304   4.311 -1.7167  0.5552  0.4185
    1SOL    MW410228   0.663   4.350   4.239  0.1163  0.0510  0.5021
    1SOL     OW10229   2.889   0.786   4.118  0.0953 -0.4204  0.1635
    1SOL    HW210230   2.906   0.693   4.132  1.3749 -0.3735 -0.9887
    1SOL    HW310231   2.878   0.794   4.023  0.3716  0.6668  0.2221
    1SOL    MW410232   2.890   0.775   4.107  0.3006 -0.2708  0.0196
    1SOL     OW10233   2.447   2.728   4.497  0.1322  0.4145 -0.5486
    1SOL    HW210234   2.431   2.775   4.415  2.0208  0.2782 -1.0231
    1SOL    HW310235   2.401   2.645   4.486 -1.0655  1.1046 -0.7651
    1SOL    MW410236   2.439   2.723   4.485  0.2232  0.4876 -0.6404
    1SOL     OW10237   2.483   4.327   4.513  0.6557  0.0177 -0.4555
    1SOL    HW210238   2.418   4.388   4.549  0.8277  0.1833 -0.4264
    1SOL    HW310239   2.440   4.242   4.517  1.0689 -0.1333  1.1237
    1SOL    MW410240   2.469   4.324   4.518  0.7327  0.0200 -0.2432
    1SOL     OW10241   2.495   3.504   4.535 -0.1455  0.2604 -0.2412
    1SOL    HW210242   2.559   3.434   4.520  0.1338  0.6287 -0.7596
    1SOL    HW310243   2.545   3.573   4.580 -0.1884  0.5297 -0.6043
    1SOL    MW410244   2.510   3.504   4.539 -0.1142  0.3445 -0.3572
    1SOL     OW10245   3.157   1.089   4.588 -0.1913  0.3483 -0.1874
    1SOL    HW210246   3.076   1.140   4.581 -0.8067 -0.5816  0.0088
    1SOL    HW310247   3.225   1.148   4.557 -1.0458  0.9049 -1.0425
    1SOL    MW410248   3.155   1.103   4.583 -0.3853  0.2989 -0.2747
    1SOL     OW10249   4.387   3.665   4.498 -0.0353  0.6193 -0.2145
    1SOL    HW210250   4.444   3.587   4.501 -0.3162  0.4395  0.7170
    1SOL    HW310251   4.448   3.739   4.506  0.0677  0.4249  0.8972
    1SOL    MW410252   4.403   3.664   4.500 -0.0582  0.5703  0.0553
    1SOL     OW10253   3.433   3.272   4.711  0.5835  0.3400  0.3938
    1SOL    HW210254   3.483   3.338   4.662  0.4050 -0.0020 -0.2556
    1SOL    HW310255   3.363   3.323   4.754 -0.2503  0.4342 -1.0339
    1SOL    MW410256   3.430   3.288   4.710  0.4497  0.3073  0.1197
    1SOL     OW10257   2.929   2.041   3.753  0.4164 -0.0283 -0.6906
    1SOL    HW210258   2.860   1.991   3.796  1.5262  0.1629  1.3935
    1SOL    HW310259   2.923   2.129   3.790  2.9596 -0.5001  1.0036
    1SOL    MW410260   2.919   2.046   3.763  0.8984 -0.0653 -0.1922
    1SOL     OW10261   0.495   4.456   4.563  0.4041 -0.2660 -0.1339
    1SOL    HW210262   0.408   4.421   4.545  0.0695  0.1497  0.6698
    1SOL    HW310263   0.505   4.530   4.503  0.5737 -0.8754 -0.8711
    1SOL    MW410264   0.485   4.461   4.552  0.3824 -0.2913 -0.1249
    1SOL     OW10265   2.752   0.605   4.616  0.2117  0.1819 -0.0254
    1SOL    HW210266   2.668   0.569   4.592 -0.0448  0.4161  0.5012
    1SOL    HW310267   2.793   0.538   4.670 -0.1590  0.5628  0.7428
    1SOL    MW410268   2.747   0.592   4.620  0.1290  0.2632  0.1459
    1SOL     OW10269   4.387   2.815   4.502  0.1983  0.1176  0.1263
    1SOL    HW210270   4.362   2.740   4.555  0.5229 -0.2316 -0.2203
    1SOL    HW310271   4.350   2.797   4.415 -0.2182  0.6269  0.1919
    1SOL    MW410272   4.378   2.803   4.497  0.1869  0.1390  0.0896
    1SOL     OW10273   1.913   1.816   4.830  0.1010 -0.3564  0.0588
    1SOL    HW210274   1.874   1.829   4.743  0.5243 -0.8036 -0.2024
    1SOL    HW310275   1.968   1.893   4.843 -0.5199  0.0598  0.2384
    1SOL    MW410276   1.915   1.828   4.820  0.0749 -0.3604  0.0477
    1SOL     OW10277   0.368   3.567   4.638  0.2434 -0.1514  0.6873
    1SOL    HW210278   0.458   3.548   4.611  0.5968 -0.3300  1.9763
    1SOL    HW310279   0.377   3.612   4.721 -0.8333  0.7342  0.3297
    1SOL    MW410280   0.381   3.571   4.645  0.1480 -0.0582  0.8097
    1SOL     OW10281   2.675   2.667   4.660 -0.6179 -0.6130  0.3110
    1SOL    HW210282   2.751   2.619   4.626  0.1383  0.3545  0.5905
    1SOL    HW310283   2.619   2.681   4.583  0.8054  1.0575 -0.4746
    1SOL    MW410284   2.678   2.663   4.645 -0.3302 -0.2651  0.2437
    1SOL     OW10285   2.900   3.631   4.265  0.3233 -0.0025 -0.3527
    1SOL    HW210286   2.909   3.645   4.359  2.9339 -0.9042 -0.4386
    1SOL    HW310287   2.874   3.716   4.231 -1.0080  0.2461  1.2189
    1SOL    MW410288   2.898   3.644   4.273  0.4919 -0.0887 -0.1564
    1SOL     OW10289   2.667   3.206   4.226 -0.5300 -0.0426  0.0482
    1SOL    HW210290   2.679   3.298   4.202  0.4629  0.1659  1.2825
    1SOL    HW310291   2.751   3.165   4.206 -0.1910 -0.1800  1.6791
    1SOL    MW410292   2.680   3.213   4.220 -0.3545 -0.0329  0.4268
    1SOL     OW10293   2.857   3.888   4.143 -0.3563  0.0107  0.5294
    1SOL    HW210294   2.795   3.958   4.165  0.0042  0.8509 -1.0410
    1SOL    HW310295   2.943   3.927   4.158 -0.1483  0.0358 -0.6629
    1SOL    MW410296   2.860   3.902   4.148 -0.2816  0.1249  0.1650
    1SOL     OW10297   2.633   4.323   4.087  0.3340 -0.0101  0.1353
    1SOL    HW210298   2.553   4.356   4.128  0.2438  1.2773 -1.0526
    1SOL    HW310299   2.644   4.235   4.124 -1.2629  0.0578  0.8075
    1SOL    MW410300   2.624   4.316   4.097  0.1113  0.1688  0.0672
    1SOL     OW10301   2.449   3.928   4.181  0.1258  0.3656 -0.0350
    1SOL    HW210302   2.427   3.909   4.090 -0.0382 -0.4769  0.1767
    1SOL    HW310303   2.484   3.846   4.215  0.8339  0.8719  0.4676
    1SOL    MW410304   2.451   3.915   4.173  0.1974  0.3211  0.0587
    1SOL     OW10305   2.836   4.378   4.246  0.5033 -0.0238 -0.0614
    1SOL    HW210306   2.772   4.353   4.179  0.2526  0.8349 -0.1510
    1SOL    HW310307   2.917   4.334   4.219 -0.2667 -1.9038  0.5815
    1SOL    MW410308   2.838   4.369   4.234  0.3686 -0.1588  0.0114
    1SOL     OW10309   3.337   4.619   4.145  0.2145  0.3535  0.4755
    1SOL    HW210310   3.406   4.674   4.182  0.3400  0.3890  0.1944
    1SOL    HW310311   3.256   4.653   4.181  0.2867  0.7632  0.2479
    1SOL    MW410312   3.336   4.630   4.155  0.2406  0.4129  0.4082
    1SOL     OW10313   1.344   1.645   4.259 -0.3799  0.7354  0.7886
    1SOL    HW210314   1.253   1.621   4.240 -0.2214  0.3116  0.5644
    1SOL    HW310315   1.354   1.628   4.353  0.0131 -0.9932  0.4347
    1SOL    MW410316   1.333   1.640   4.269 -0.3071  0.4513  0.7119
    1SOL     OW10317   2.953   0.530   4.180  0.0526 -0.0081  0.4507
    1SOL    HW210318   2.869   0.486   4.163 -1.5562  3.1024 -0.0280
    1SOL    HW310319   2.947   0.557   4.272 -0.1858  1.6820 -0.0548
    1SOL    MW410320   2.941   0.528   4.190 -0.1910  0.6252  0.3214
    1SOL     OW10321   3.373   0.478   4.200 -0.4043 -0.0140  0.0310
    1SOL    HW210322   3.360   0.457   4.292 -2.1348 -1.3396 -0.4983
    1SOL    HW310323   3.454   0.433   4.176  0.3087  0.7279  1.0134
    1SOL    MW410324   3.382   0.469   4.209 -0.5383 -0.0910  0.0906
    1SOL     OW10325   2.238   0.588   4.611 -0.1744  0.0428 -0.2414
    1SOL    HW210326   2.317   0.539   4.587  0.4740  0.0742  1.7181
    1SOL    HW310327   2.168   0.523   4.607  0.5634 -0.9202  1.6047
    1SOL    MW410328   2.239   0.573   4.607  0.0086 -0.0802  0.2613
    1SOL     OW10329   4.169   4.416   4.723 -0.2165 -0.3399 -0.0397
    1SOL    HW210330   4.213   4.493   4.688  0.2108 -0.9729 -0.9225
    1SOL    HW310331   4.191   4.416   4.817 -0.2172  0.5994 -0.0404
    1SOL    MW410332   4.178   4.426   4.731 -0.1602 -0.2995 -0.1564
    1SOL     OW10333   3.124   0.848   4.241 -0.1786 -0.0741  0.3471
    1SOL    HW210334   3.036   0.830   4.210  0.0310  0.8542 -0.8032
    1SOL    HW310335   3.141   0.938   4.214  0.7505  0.0929  1.4383
    1SOL    MW410336   3.115   0.858   4.233 -0.0286  0.0705  0.3395
    1SOL     OW10337   1.618   0.478   4.513 -0.2958 -0.1481 -0.5117
    1SOL    HW210338   1.589   0.569   4.524 -0.9602 -0.5700  1.5780
    1SOL    HW310339   1.546   0.426   4.550  0.8186 -1.4340 -0.1182
    1SOL    MW410340   1.605   0.483   4.520 -0.2366 -0.3734 -0.1841
    1SOL     OW10341   2.821   2.859   4.346 -0.2651  0.4829  0.0511
    1SOL    HW210342   2.770   2.796   4.294  0.4139  0.1062 -0.1664
    1SOL    HW310343   2.841   2.929   4.285 -1.2882  1.0790  0.3750
    1SOL    MW410344   2.817   2.860   4.331 -0.3104  0.5119  0.0653
    1SOL     OW10345   2.482   1.567   4.153 -0.0184 -0.0008  0.5153
    1SOL    HW210346   2.416   1.633   4.174 -0.4081  0.2243 -1.3839
    1SOL    HW310347   2.490   1.569   4.058  2.0207 -0.7240  0.6376
    1SOL    MW410348   2.475   1.576   4.144  0.1988 -0.0664  0.2809
    1SOL     OW10349   2.279   0.133   4.504 -0.0564  0.1137 -0.4732
    1SOL    HW210350   2.371   0.158   4.494 -0.1867  0.4259 -0.9134
    1SOL    HW310351   2.282   0.046   4.542  0.4094  0.8477  1.2282
    1SOL    MW410352   2.291   0.125   4.508 -0.0122  0.2517 -0.3061
    1SOL     OW10353   2.393   2.351   4.102 -0.0033  0.1631 -0.1015
    1SOL    HW210354   2.423   2.272   4.147  2.3966  2.2744  2.1479
    1SOL    HW310355   2.319   2.383   4.154 -0.3063 -0.0057 -0.4212
    1SOL    MW410356   2.387   2.345   4.115  0.2732  0.4194  0.1531
    1SOL     OW10357   3.586   0.850   4.499 -0.5723  0.5845 -0.4145
    1SOL    HW210358   3.605   0.941   4.524  0.8278  0.6851 -1.8093
    1SOL    HW310359   3.561   0.855   4.407  2.1909 -0.7577 -1.2923
    1SOL    MW410360   3.585   0.863   4.490 -0.0229  0.4207 -0.7148
    1SOL     OW10361   3.129   1.583   4.557  0.2186  0.1110  1.0414
    1SOL    HW210362   3.147   1.572   4.463  0.2558 -1.6656  1.2532
    1SOL    HW310363   3.158   1.673   4.576 -0.8571  0.9150 -0.8981
    1SOL    MW410364   3.135   1.594   4.547  0.0818 -0.0173  0.8135
    1SOL     OW10365   3.370   2.317   4.173  0.6868  0.2625 -0.0221
    1SOL    HW210366   3.287   2.360   4.194 -0.2057 -0.8258 -1.2413
    1SOL    HW310367   3.377   2.324   4.078  0.7484 -1.8167 -0.1984
    1SOL    MW410368   3.360   2.324   4.164  0.5770 -0.1550 -0.2069
    1SOL     OW10369   2.209   4.225   4.138 -0.4403  0.1974 -0.4651
    1SOL    HW210370   2.228   4.140   4.178 -1.8998  0.2108  0.3069
    1SOL    HW310371   2.271   4.285   4.179 -1.0850 -0.0367  0.8987
    1SOL    MW410372   2.220   4.222   4.149 -0.7181  0.1688 -0.1836
    1SOL     OW10373   3.304   3.167   4.201  0.5420 -0.4459  0.4062
    1SOL    HW210374   3.219   3.211   4.197  0.8066 -0.0091 -0.4909
    1SOL    HW310375   3.291   3.097   4.265 -0.1551  0.3390  1.1465
    1SOL    MW410376   3.291   3.164   4.209  0.4852 -0.2844  0.3853
    1SOL     OW10377   2.429   3.138   4.117  0.0768 -0.2378  0.0324
    1SOL    HW210378   2.515   3.162   4.153  0.3405  0.0161 -0.7623
    1SOL    HW310379   2.366   3.189   4.168  0.2196 -2.1479  2.1881
    1SOL    MW410380   2.432   3.148   4.129  0.1304 -0.4566  0.2122
    1SOL     OW10381   3.363   3.686   4.288 -0.2601  0.0580 -0.0430
    1SOL    HW210382   3.295   3.632   4.249  0.1067 -0.3912 -0.0619
    1SOL    HW310383   3.338   3.694   4.380  0.2791 -1.0816  0.2142
    1SOL    MW410384   3.351   3.680   4.295 -0.1404 -0.1514 -0.0124
    1SOL     OW10385   3.570   3.534   4.174 -0.2754  0.0719  0.9700
    1SOL    HW210386   3.557   3.451   4.219  0.7586  0.4487  1.9946
    1SOL    HW310387   3.507   3.594   4.215 -0.1613  0.1065  1.0956
    1SOL    MW410388   3.560   3.531   4.186 -0.1240  0.1261  1.1220
    1SOL     OW10389   3.368   3.915   4.151 -0.5039  0.0924  0.3641
    1SOL    HW210390   3.371   3.833   4.199  2.0660 -0.4897 -0.7014
    1SOL    HW310391   3.365   3.889   4.059 -0.1737  1.1587  0.0419
    1SOL    MW410392   3.368   3.901   4.145 -0.1211  0.1564  0.1807
    1SOL     OW10393   4.458   2.731   4.137 -0.0855 -0.0338  0.3408
    1SOL    HW210394   4.371   2.747   4.173 -1.2532 -1.9447 -1.5429
    1SOL    HW310395   4.491   2.655   4.186 -1.0668 -1.6966 -1.5133
    1SOL    MW410396   4.451   2.723   4.148 -0.3686 -0.5057 -0.1526
    1SOL     OW10397   4.489   0.872   4.233 -0.1157  0.0834 -0.2277
    1SOL    HW210398   4.501   0.898   4.324 -0.5643  0.4989 -0.2810
    1SOL    HW310399   4.499   0.954   4.183  0.3597 -0.1804 -0.5708
    1SOL    MW410400   4.492   0.886   4.238 -0.1122  0.1035 -0.2799
    1SOL     OW10401   3.617   4.341   4.121 -0.1545 -0.3189 -0.1329
    1SOL    HW210402   3.527   4.353   4.152 -0.5073 -0.6732 -0.9991
    1SOL    HW310403   3.659   4.289   4.190 -0.7717 -0.6342  0.0108
    1SOL    MW410404   3.610   4.335   4.134 -0.2823 -0.4077 -0.2279
    1SOL     OW10405   3.752   4.559   4.147 -0.3211  0.6195 -0.0851
    1SOL    HW210406   3.698   4.480   4.135  0.5480 -0.0515  0.3948
    1SOL    HW310407   3.789   4.575   4.060  0.0134  0.1164 -0.0414
    1SOL    MW410408   3.750   4.550   4.134 -0.1624  0.4644 -0.0162
    1SOL     OW10409   2.468   2.114   4.237  0.2594  0.0579 -0.7023
    1SOL    HW210410   2.456   2.107   4.331  1.8906 -0.4104 -0.5185
    1SOL    HW310411   2.396   2.063   4.199  0.4479 -0.9626  0.3094
    1SOL    MW410412   2.457   2.107   4.244  0.4995 -0.1385 -0.5445
    1SOL     OW10413   3.598   0.326   4.140  0.4890 -0.4305  0.0450
    1SOL    HW210414   3.670   0.374   4.183  0.4167 -0.1186 -0.1815
    1SOL    HW310415   3.595   0.362   4.052 -0.6130  0.2810  0.3686
    1SOL    MW410416   3.607   0.337   4.134  0.3340 -0.2955  0.0572
    1SOL     OW10417   4.052   0.372   4.163 -0.6983 -0.2543 -0.3392
    1SOL    HW210418   4.056   0.307   4.233 -0.0347 -0.2006 -0.3264
    1SOL    HW310419   3.971   0.421   4.181 -0.5369 -0.2459  0.3899
    1SOL    MW410420   4.042   0.370   4.175 -0.5894 -0.2461 -0.2413
    1SOL     OW10421   1.738   0.042   4.692  0.0775  0.0217  0.5383
    1SOL    HW210422   1.643   0.042   4.682 -0.1955 -0.6645  2.7690
    1SOL    HW310423   1.769   0.113   4.636 -1.9077  1.2627  0.9831
    1SOL    MW410424   1.730   0.051   4.684 -0.2204  0.0949  0.8912
    1SOL     OW10425   2.499   0.475   4.508 -0.1652 -0.2440 -0.2423
    1SOL    HW210426   2.529   0.385   4.516  3.3604  0.7790 -1.3052
    1SOL    HW310427   2.495   0.491   4.414  0.4679  1.0846 -0.0547
    1SOL    MW410428   2.502   0.465   4.497  0.3834  0.0663 -0.3581
    1SOL     OW10429   2.136   2.169   4.232  0.1283 -0.1762  0.2219
    1SOL    HW210430   2.101   2.239   4.177  0.6389  0.3012  0.4981
    1SOL    HW310431   2.164   2.213   4.312 -1.4709 -1.0008  1.2551
    1SOL    MW410432   2.135   2.184   4.235 -0.0153 -0.2220  0.3948
    1SOL     OW10433   4.489   2.435   4.715  0.4604 -0.3732 -0.4327
    1SOL    HW210434   4.486   2.349   4.673 -1.3746 -0.3299 -0.4437
    1SOL    HW310435   4.556   2.483   4.667  0.8939 -1.5100 -0.9881
    1SOL    MW410436   4.497   2.430   4.703  0.2755 -0.5174 -0.5078
    1SOL     OW10437   4.222   2.040   4.297 -0.1371  0.5124  0.4936
    1SOL    HW210438   4.201   2.124   4.255 -0.8242 -0.3681 -0.9274
    1SOL    HW310439   4.164   1.977   4.256  1.5337 -0.9790  0.3783
    1SOL    MW410440   4.212   2.043   4.286 -0.0072  0.1996  0.2913
    1SOL     OW10441   3.365   1.547   4.138 -0.1581  0.2095 -0.1774
    1SOL    HW210442   3.287   1.589   4.174 -0.7353  0.0572 -1.2132
    1SOL    HW310443   3.350   1.547   4.043  1.4505  0.8934 -0.4553
    1SOL    MW410444   3.353   1.553   4.130 -0.0219  0.2795 -0.3510
    1SOL     OW10445   3.645   1.918   4.167 -0.0410  0.0260 -0.3729
    1SOL    HW210446   3.625   1.826   4.179  0.9164 -0.1939 -0.4259
    1SOL    HW310447   3.569   1.964   4.204  0.8643 -0.7196  2.5842
    1SOL    MW410448   3.633   1.912   4.173  0.2048 -0.1014  0.0105
    1SOL     OW10449   1.779   1.845   4.591  0.0377  0.5520 -0.0218
    1SOL    HW210450   1.835   1.888   4.526 -0.7049 -0.9497 -1.7169
    1SOL    HW310451   1.692   1.882   4.576 -0.1168  0.2734  0.1770
    1SOL    MW410452   1.775   1.855   4.580 -0.0806  0.3171 -0.2193
    1SOL     OW10453   1.044   4.363   4.471  0.4206  0.7398  0.0461
    1SOL    HW210454   0.972   4.422   4.449  0.5737  0.4643 -1.2411
    1SOL    HW310455   1.002   4.280   4.492  0.3469  0.6461 -0.4682
    1SOL    MW410456   1.029   4.360   4.471  0.4308  0.6905 -0.1912
    1SOL     OW10457   3.553   2.397   4.546  0.2021  0.0498  0.5637
    1SOL    HW210458   3.500   2.457   4.599  0.0613 -0.4462  0.9789
    1SOL    HW310459   3.560   2.441   4.461  1.2005  1.2808  1.2684
    1SOL    MW410460   3.547   2.411   4.542  0.3152  0.1469  0.7114
    1SOL     OW10461   3.859   2.046   4.307 -0.5380  0.4280 -0.1440
    1SOL    HW210462   3.793   1.999   4.256  0.8167 -0.6746 -0.9069
    1SOL    HW310463   3.874   2.126   4.258  0.9639 -0.7573 -1.6616
    1SOL    MW410464   3.852   2.050   4.294 -0.1614  0.1264 -0.4449
    1SOL     OW10465   1.834   4.165   4.614 -0.1370 -0.0501 -0.0604
    1SOL    HW210466   1.825   4.257   4.640 -0.3123 -0.2446  0.5792
    1SOL    HW310467   1.922   4.159   4.577  0.1759  0.2014  0.6274
    1SOL    MW410468   1.844   4.177   4.612 -0.1187 -0.0424  0.1149
    1SOL     OW10469   3.769   3.138   4.164 -0.0506 -0.1923  0.0290
    1SOL    HW210470   3.852   3.179   4.190  1.5722 -2.6673 -1.0442
    1SOL    HW310471   3.775   3.130   4.069 -1.2040 -1.0817  0.0180
    1SOL    MW410472   3.781   3.142   4.155  0.0112 -0.6361 -0.1140
    1SOL     OW10473   3.917   4.295   4.383  0.3597  0.0691  0.1271
    1SOL    HW210474   3.826   4.270   4.396 -0.0132 -0.9593 -3.7646
    1SOL    HW310475   3.968   4.221   4.417 -0.3276 -0.2507  0.4564
    1SOL    MW410476   3.912   4.282   4.389  0.2198 -0.1087 -0.3428
    1SOL     OW10477   3.541   3.290   4.315 -0.4667  0.2022 -0.1078
    1SOL    HW210478   3.463   3.236   4.300  0.0254 -1.4525  2.8516
    1SOL    HW310479   3.610   3.244   4.267 -0.7508  0.0967 -0.4209
    1SOL    MW410480   3.540   3.277   4.307 -0.4396 -0.0300  0.2413
    1SOL     OW10481   1.183   2.452   4.511 -0.2161  0.2490 -0.6441
    1SOL    HW210482   1.264   2.465   4.560  0.1338 -0.4536 -1.0335
    1SOL    HW310483   1.211   2.427   4.423 -0.8432  0.9921 -1.0722
    1SOL    MW410484   1.197   2.450   4.506 -0.2526  0.2544 -0.7520
    1SOL     OW10485   4.083   2.787   4.737 -0.4463 -0.0660 -0.5025
    1SOL    HW210486   4.118   2.874   4.719 -0.9802  0.0123 -1.1803
    1SOL    HW310487   4.158   2.728   4.730  0.2983  0.5485  1.7819
    1SOL    MW410488   4.098   2.791   4.734 -0.4187  0.0253 -0.2909
    1SOL     OW10489   1.309   3.438   4.103 -0.1562 -0.0814  0.1836
    1SOL    HW210490   1.322   3.424   4.009  2.0561 -0.7498  0.5632
    1SOL    HW310491   1.313   3.350   4.142 -2.3454  0.0510  0.7834
    1SOL    MW410492   1.311   3.424   4.096 -0.1533 -0.1523  0.3128
    1SOL     OW10493   3.083   4.264   4.147 -0.3737 -0.1189  0.1031
    1SOL    HW210494   3.088   4.171   4.170 -1.7216 -0.2194  0.0347
    1SOL    HW310495   3.171   4.299   4.167 -0.2528 -1.1158  1.3896
    1SOL    MW410496   3.096   4.257   4.153 -0.5357 -0.2637  0.2642
    1SOL     OW10497   0.014   1.163   4.603  0.1694  0.0029 -0.2851
    1SOL    HW210498   0.047   1.081   4.567  0.6155  1.0565 -2.3664
    1SOL    HW310499  -0.065   1.182   4.552 -0.3614  0.4945  0.6963
    1SOL    MW410500   0.008   1.155   4.592  0.1583  0.2068 -0.4301
    1SOL     OW10501   4.302   4.254   4.515 -0.2401 -0.2844  0.3697
    1SOL    HW210502   4.311   4.292   4.428 -0.9563  0.4932  0.6213
    1SOL    HW310503   4.270   4.326   4.569 -0.3796 -0.9188  1.1445
    1SOL    MW410504   4.299   4.268   4.511 -0.3529 -0.2651  0.5054
    1SOL     OW10505   4.301   2.376   4.383 -0.0264 -0.1061  0.3780
    1SOL    HW210506   4.356   2.318   4.437  1.1755 -0.0079 -0.7127
    1SOL    HW310507   4.361   2.443   4.352 -0.8283  0.1508 -0.6306
    1SOL    MW410508   4.317   2.377   4.386  0.0267 -0.0594  0.1006
    1SOL     OW10509   3.026   0.072   4.541  0.2867 -0.1690 -0.4981
    1SOL    HW210510   3.028   0.168   4.536  0.6962 -0.1585 -0.1613
    1SOL    HW310511   2.937   0.051   4.567  0.4097  0.1614  0.2108
    1SOL    MW410512   3.015   0.082   4.544  0.3572 -0.1240 -0.3605
    1SOL     OW10513   0.345   0.857   4.533  0.0698 -0.0963 -0.4101
    1SOL    HW210514   0.385   0.879   4.450  1.4424 -1.8633 -0.2462
    1SOL    HW310515   0.363   0.764   4.544 -1.7778 -0.3187  0.9432
    1SOL    MW410516   0.352   0.848   4.524  0.0072 -0.3587 -0.2098
    1SOL     OW10517   0.112   0.441   4.657 -0.1245 -0.1197 -0.4297
    1SOL    HW210518   0.021   0.430   4.629 -0.1419  0.7101 -0.7166
    1SOL    HW310519   0.146   0.352   4.666 -0.3575 -0.4022 -2.3082
    1SOL    MW410520   0.104   0.428   4.655 -0.1575 -0.0475 -0.7153
    1SOL     OW10521   4.287   4.641   4.629  0.0241 -0.5103  0.0349
    1SOL    HW210522   4.368   4.658   4.582  0.1188  0.2134  0.4553
    1SOL    HW310523   4.251   4.727   4.647 -3.0333 -0.8232 -3.8497
    1SOL    MW410524   4.293   4.654   4.625 -0.3662 -0.4563 -0.4220
    1SOL     OW10525   4.029   1.152   4.112 -0.2977  0.1806 -0.3467
    1SOL    HW210526   3.955   1.190   4.160 -0.5646 -0.7032 -0.0461
    1SOL    HW310527   4.028   1.059   4.137  0.9721  0.1847 -0.2722
    1SOL    MW410528   4.019   1.144   4.122 -0.1655  0.0645 -0.2971
    1SOL     OW10529   2.907   1.246   4.547 -0.0638  0.0110 -0.0426
    1SOL    HW210530   2.828   1.196   4.565 -0.7464  0.5539 -1.4299
    1SOL    HW310531   2.901   1.322   4.604  0.0553 -0.5357  0.7114
    1SOL    MW410532   2.896   1.249   4.557 -0.1380  0.0104 -0.1264
    1SOL     OW10533   0.708   1.124   4.621  0.6669 -0.5212  0.7740
    1SOL    HW210534   0.679   1.206   4.581  1.4937 -1.0775 -1.0272
    1SOL    HW310535   0.639   1.101   4.682 -1.6530 -0.6814 -1.8148
    1SOL    MW410536   0.695   1.132   4.624  0.4700 -0.6158  0.1950
    1SOL     OW10537   1.838   0.811   4.491 -0.2767  0.0424 -0.0256
    1SOL    HW210538   1.907   0.817   4.557 -1.4058  0.0226  1.1836
    1SOL    HW310539   1.762   0.779   4.539 -1.1240  0.0416 -1.3442
    1SOL    MW410540   1.837   0.808   4.506 -0.5374  0.0398 -0.0401
    1SOL     OW10541   1.411   0.083   4.559 -0.3475 -0.3351 -0.1609
    1SOL    HW210542   1.378   0.169   4.586 -0.6206 -0.4339 -0.1803
    1SOL    HW310543   1.333   0.029   4.548 -0.1319 -0.8603  0.7722
    1SOL    MW410544   1.396   0.087   4.561 -0.3552 -0.4174 -0.0405
    1SOL     OW10545   3.806   0.481   4.231 -0.4138  0.2478 -0.3493
    1SOL    HW210546   3.817   0.576   4.229 -1.2158  0.3522  0.0839
    1SOL    HW310547   3.811   0.459   4.324 -1.2203 -0.0113 -0.3653
    1SOL    MW410548   3.808   0.491   4.243 -0.6261  0.2274 -0.2947
    1SOL     OW10549   3.896   2.285   4.139  0.2397  0.2544  0.0816
    1SOL    HW210550   3.867   2.296   4.049 -0.4954  0.1124  0.3004
    1SOL    HW310551   3.874   2.368   4.181  1.3420  0.6297 -0.0748
    1SOL    MW410552   3.889   2.298   4.133  0.2882  0.2851  0.0896
    1SOL     OW10553   4.015   3.471   4.168 -0.2833 -0.1213  0.3335
    1SOL    HW210554   4.018   3.489   4.074  0.6937 -1.2890  0.1299
    1SOL    HW310555   4.099   3.501   4.201 -0.7891  0.6786  0.9156
    1SOL    MW410556   4.026   3.477   4.160 -0.2208 -0.1700  0.3839
    1SOL     OW10557   4.179   2.281   4.139  0.1288 -0.3489  0.2555
    1SOL    HW210558   4.084   2.285   4.138  0.1963  1.5202 -1.9764
    1SOL    HW310559   4.205   2.338   4.212 -0.3733  2.3060 -1.5896
    1SOL    MW410560   4.170   2.289   4.149  0.0715  0.2482 -0.2823
    1SOL     OW10561   1.278   3.371   4.587  0.2621 -0.1771  0.3449
    1SOL    HW210562   1.205   3.427   4.562 -0.4780 -0.7845  1.1360
    1SOL    HW310563   1.283   3.378   4.682  0.2242 -1.3740  0.4466
    1SOL    MW410564   1.269   3.379   4.596  0.1595 -0.4151  0.4625
    1SOL     OW10565   3.571   0.305   4.623  0.2301  0.0861 -0.1906
    1SOL    HW210566   3.554   0.218   4.589  0.0733 -0.0969  0.3565
    1SOL    HW310567   3.642   0.339   4.569 -1.2826  0.5249 -1.9332
    1SOL    MW410568   3.578   0.298   4.612  0.0100  0.1199 -0.3481
    1SOL     OW10569   3.828   3.622   4.272 -0.4986  0.0484 -0.3387
    1SOL    HW210570   3.743   3.585   4.248 -0.8795  0.4833  0.3385
    1SOL    HW310571   3.890   3.574   4.217 -1.0793 -0.9809 -0.1177
    1SOL    MW410572   3.825   3.611   4.262 -0.6256 -0.0298 -0.2198
    1SOL     OW10573   2.003   1.278   4.218  0.5872 -0.0263  0.1069
    1SOL    HW210574   2.008   1.370   4.193  0.5839 -0.2649 -0.8020
    1SOL    HW310575   2.091   1.244   4.203  0.5790 -0.1785  0.4017
    1SOL    MW410576   2.015   1.286   4.212  0.5856 -0.0777  0.0253
    1SOL     OW10577   4.250   3.594   4.255  0.0107  0.2566 -0.2729
    1SOL    HW210578   4.319   3.557   4.200 -0.1670 -2.4492  1.2294
    1SOL    HW310579   4.293   3.610   4.339 -0.4801  1.4050 -0.2329
    1SOL    MW410580   4.265   3.591   4.259 -0.0777  0.0510 -0.0696
    1SOL     OW10581   0.674   3.880   4.125  0.2018 -0.1723  0.3468
    1SOL    HW210582   0.589   3.922   4.133  0.3270  0.2875 -0.6651
    1SOL    HW310583   0.737   3.949   4.147  0.3587 -0.1396 -0.1867
    1SOL    MW410584   0.671   3.895   4.129  0.2391 -0.1073  0.1426
    1SOL     OW10585   1.347   0.643   4.802  0.1294  0.3680 -0.0938
    1SOL    HW210586   1.258   0.663   4.771  0.4023  0.6530 -0.7116
    1SOL    HW310587   1.337   0.625   4.895 -0.6383  0.0171 -0.2384
    1SOL    MW410588   1.334   0.643   4.810  0.0641  0.3593 -0.1941
    1SOL     OW10589   3.816   3.865   4.155 -0.1790  0.4691  0.4301
    1SOL    HW210590   3.892   3.915   4.184 -0.7234 -0.1104  2.9705
    1SOL    HW310591   3.824   3.782   4.201 -1.2076 -0.4187 -0.9761
    1SOL    MW410592   3.827   3.861   4.165 -0.3865  0.2754  0.5798
    1SOL     OW10593   2.752   0.019   4.621 -0.0963  0.0050  0.2064
    1SOL    HW210594   2.786   0.019   4.710 -0.8988 -0.8404  0.5134
    1SOL    HW310595   2.765  -0.070   4.590 -1.3061 -0.1204  0.0481
    1SOL    MW410596   2.758   0.007   4.628 -0.3619 -0.1231  0.2265
    1SOL     OW10597   3.820   2.527   4.269 -0.3959  0.4838 -0.5326
    1SOL    HW210598   3.726   2.515   4.251 -0.1306 -0.3918 -1.3484
    1SOL    HW310599   3.829   2.507   4.362 -0.8355 -0.5416 -0.7088
    1SOL    MW410600   3.809   2.523   4.279 -0.4189  0.2332 -0.6638
    1SOL     OW10601   2.348   1.794   4.799  0.2583  0.0868 -0.1147
    1SOL    HW210602   2.418   1.845   4.757 -0.7979  0.9012 -0.9261
    1SOL    HW310603   2.283   1.860   4.823 -1.1329 -0.8779 -1.1894
    1SOL    MW410604   2.349   1.810   4.796 -0.0646  0.0669 -0.3638
    1SOL     OW10605   4.299   2.000   4.572  0.1352 -0.1379 -0.1013
    1SOL    HW210606   4.284   2.034   4.484  0.4325 -0.2870 -0.2105
    1SOL    HW310607   4.237   2.048   4.627 -0.8063 -0.8265 -0.5516
    1SOL    MW410608   4.289   2.011   4.568  0.0501 -0.2484 -0.1755
    1SOL     OW10609   4.075   0.148   4.342  0.1702  0.1187  0.0685
    1SOL    HW210610   4.074   0.172   4.435  1.0465  0.3290  0.0330
    1SOL    HW310611   4.003   0.086   4.332 -0.1287  0.3344  0.8238
    1SOL    MW410612   4.065   0.143   4.353  0.2465  0.1749  0.1636
    1SOL     OW10613   0.929   2.787   4.448 -0.0300 -0.0995 -0.0107
    1SOL    HW210614   0.932   2.694   4.469  1.1527 -0.4532 -1.6364
    1SOL    HW310615   0.842   2.815   4.478 -0.2313 -1.6112  0.8891
    1SOL    MW410616   0.918   2.778   4.455  0.0995 -0.3457 -0.1068
    1SOL     OW10617   1.794   1.129   4.552 -0.0910 -0.3967 -0.0974
    1SOL    HW210618   1.802   1.035   4.542 -1.7035 -0.5508 -0.0467
    1SOL    HW310619   1.881   1.163   4.529  0.4897 -1.8721 -0.1425
    1SOL    MW410620   1.807   1.121   4.548 -0.2271 -0.6117 -0.0968
    1SOL     OW10621   1.848   3.053   4.561  0.0219 -0.0391  0.4818
    1SOL    HW210622   1.934   3.071   4.521 -0.5896  1.3364 -0.2635
    1SOL    HW310623   1.869   3.003   4.639  1.4708 -0.2565 -0.0149
    1SOL    MW410624   1.862   3.049   4.566  0.1323  0.1137  0.3181
    1SOL     OW10625   0.178   1.551   4.121 -0.0687 -0.3123 -0.3253
    1SOL    HW210626   0.096   1.583   4.157 -0.3032 -0.2107 -0.9466
    1SOL    HW310627   0.246   1.597   4.169 -0.3975  0.9690 -1.0792
    1SOL    MW410628   0.176   1.561   4.132 -0.1430 -0.1298 -0.5069
    1SOL     OW10629   3.875   4.469   4.783  0.1450  0.1044  0.3221
    1SOL    HW210630   3.958   4.435   4.750 -0.1221  0.6067 -0.8738
    1SOL    HW310631   3.830   4.392   4.819  0.0742 -0.5910 -1.2468
    1SOL    MW410632   3.880   4.455   4.784  0.1004  0.0787 -0.0429
    1SOL     OW10633   0.159   1.400   4.519  0.0751  0.4323 -0.1784
    1SOL    HW210634   0.178   1.389   4.426  0.0594  2.3439 -0.4320
    1SOL    HW310635   0.107   1.323   4.542 -0.2442  0.1240 -1.8538
    1SOL    MW410636   0.154   1.388   4.510  0.0309  0.6438 -0.4330
    1SOL     OW10637   0.438   1.021   4.728  0.4967 -0.2338  0.2379
    1SOL    HW210638   0.419   0.964   4.654 -0.0001  0.1145  0.0909
    1SOL    HW310639   0.355   1.026   4.776  0.5316  0.3509  0.2470
    1SOL    MW410640   0.424   1.014   4.724  0.4358 -0.1106  0.2198
    1SOL     OW10641   4.437   1.942   4.139 -0.0037 -0.1521 -0.0336
    1SOL    HW210642   4.441   1.849   4.160  0.3970 -0.1780 -0.2121
    1SOL    HW310643   4.359   1.974   4.184 -1.3010 -0.9858 -1.6799
    1SOL    MW410644   4.427   1.934   4.148 -0.1216 -0.2656 -0.2742
    1SOL     OW10645   1.996   3.568   4.515 -0.5341  0.7881  0.2497
    1SOL    HW210646   1.951   3.490   4.547  1.2719  0.3016  1.6203
    1SOL    HW310647   1.996   3.557   4.420 -1.2509 -0.3426  0.3638
    1SOL    MW410648   1.990   3.556   4.506 -0.3904  0.5748  0.4458
    1SOL     OW10649   3.979   0.589   4.800  0.5850 -0.5169  0.0570
    1SOL    HW210650   3.947   0.517   4.855 -1.9479  1.0482  0.7265
    1SOL    HW310651   3.914   0.594   4.729 -1.0018  2.9748  1.6253
    1SOL    MW410652   3.966   0.580   4.798  0.0412  0.1502  0.3519
    1SOL     OW10653   0.417   3.411   4.128  0.8313  0.0670 -0.2809
    1SOL    HW210654   0.490   3.451   4.175  0.4808  1.0062 -0.5276
    1SOL    HW310655   0.432   3.435   4.037  0.5765 -0.3023 -0.4179
    1SOL    MW410656   0.429   3.419   4.122  0.7514  0.1421 -0.3319
    1SOL     OW10657   3.531   1.866   4.702  0.2598 -0.2872  0.4020
    1SOL    HW210658   3.436   1.850   4.700  0.2348 -0.2284  1.2562
    1SOL    HW310659   3.541   1.955   4.668  0.1765 -1.0068 -1.6241
    1SOL    MW410660   3.520   1.876   4.697  0.2456 -0.3743  0.2470
    1SOL     OW10661   3.920   0.259   4.696 -0.4207 -0.6462  0.0510
    1SOL    HW210662   3.866   0.293   4.767 -0.6088 -1.3108  0.2304
    1SOL    HW310663   3.882   0.173   4.675  0.5571 -1.1223  0.1794
    1SOL    MW410664   3.908   0.252   4.703 -0.3164 -0.7967  0.0906
    1SOL     OW10665   3.343   0.418   4.465 -0.5278 -0.0963 -0.2060
    1SOL    HW210666   3.398   0.375   4.531 -0.1955  0.1494 -0.3178
    1SOL    HW310667   3.350   0.511   4.486 -1.6892 -0.1343  0.3735
    1SOL    MW410668   3.351   0.425   4.476 -0.6373 -0.0688 -0.1445
    1SOL     OW10669   0.185   1.676   4.614 -0.3598 -0.0940 -0.2459
    1SOL    HW210670   0.201   1.584   4.594 -0.1750 -0.1862  0.3016
    1SOL    HW310671   0.246   1.695   4.686 -0.7024  0.3388 -0.0698
    1SOL    MW410672   0.195   1.666   4.621 -0.3807 -0.0491 -0.1502
    1SOL     OW10673   0.259   3.836   4.115 -0.2689 -0.2318 -0.0044
    1SOL    HW210674   0.336   3.889   4.136 -0.3830 -0.6918  1.6118
    1SOL    HW310675   0.184   3.892   4.135 -0.3803 -0.7632  1.1254
    1SOL    MW410676   0.259   3.850   4.120 -0.2986 -0.3624  0.3581
    1SOL     OW10677   2.267   0.899   4.221  0.0549  0.3261 -0.5903
    1SOL    HW210678   2.342   0.861   4.176 -0.1191 -0.1618 -0.4767
    1SOL    HW310679   2.274   0.866   4.311 -0.1812  0.4446 -0.5278
    1SOL    MW410680   2.278   0.889   4.227  0.0007  0.2773 -0.5670
    1SOL     OW10681   1.378   3.988   4.486 -0.2333  0.1733  0.1582
    1SOL    HW210682   1.351   4.076   4.512  0.0971  0.2083  0.3818
    1SOL    HW310683   1.473   3.989   4.495 -0.3882 -0.8258  2.0799
    1SOL    MW410684   1.387   4.000   4.490 -0.2102  0.0463  0.4411
    1SOL     OW10685   3.818   3.318   4.628  0.1750  0.4383  0.2764
    1SOL    HW210686   3.784   3.277   4.707 -0.6813  0.4199 -0.1022
    1SOL    HW310687   3.883   3.256   4.594 -0.5569 -0.2579  0.1288
    1SOL    MW410688   3.822   3.304   4.634 -0.0348  0.3440  0.2069
    1SOL     OW10689   0.638   0.216   4.594 -0.1914 -0.0728 -0.1276
    1SOL    HW210690   0.634   0.163   4.515 -0.0312  1.3016 -1.0838
    1SOL    HW310691   0.730   0.217   4.618 -0.1505  0.0360 -0.2900
    1SOL    MW410692   0.650   0.209   4.587 -0.1649  0.1229 -0.2751
    1SOL     OW10693   0.168   1.037   4.823 -0.3388  0.4027 -0.2223
    1SOL    HW210694   0.115   0.957   4.827  1.2618 -0.6521  0.0414
    1SOL    HW310695   0.113   1.099   4.774 -1.7755 -0.6989 -0.0453
    1SOL    MW410696   0.154   1.035   4.817 -0.3172  0.1181 -0.1640
    1SOL     OW10697   4.197   1.518   4.149  0.2432  0.2557  0.2942
    1SOL    HW210698   4.231   1.429   4.154 -0.4157 -0.0516 -0.6019
    1SOL    HW310699   4.210   1.543   4.058 -0.3589  0.7651  0.3510
    1SOL    MW410700   4.203   1.510   4.138  0.0772  0.2824  0.1836
    1SOL     OW10701   2.908   1.539   4.149  0.4302 -0.0758  0.0131
    1SOL    HW210702   2.916   1.460   4.202  1.2079 -0.2149 -0.3022
    1SOL    HW310703   2.831   1.584   4.184  1.3484  0.1970  1.7459
    1SOL    MW410704   2.899   1.535   4.161  0.6537 -0.0582  0.1993
    1SOL     OW10705   3.589   2.916   4.143  0.1957  0.2727  0.2484
    1SOL    HW210706   3.637   2.996   4.125  1.8080 -0.9270 -0.9626
    1SOL    HW310707   3.600   2.863   4.064  0.0537 -1.5542  1.4169
    1SOL    MW410708   3.597   2.919   4.130  0.3896 -0.1266  0.2427
    1SOL     OW10709   3.863   2.044   4.587 -0.5462 -0.0454  0.2179
    1SOL    HW210710   3.945   2.088   4.613  0.3807 -1.8818  0.4901
    1SOL    HW310711   3.868   2.041   4.492  0.0202 -0.7375  0.2665
    1SOL    MW410712   3.875   2.049   4.578 -0.3490 -0.3791  0.2599
    1SOL     OW10713   4.265   1.500   4.508 -0.5026 -0.0042  0.4487
    1SOL    HW210714   4.179   1.525   4.540 -1.1185  0.9134 -1.8610
    1SOL    HW310715   4.318   1.579   4.518 -0.1714 -0.2792  0.9375
    1SOL    MW410716   4.261   1.513   4.514 -0.5398  0.0808  0.2079
    1SOL     OW10717   1.972   4.363   4.211 -0.6768  0.0153 -0.0294
    1SOL    HW210718   1.983   4.451   4.176 -1.1100 -0.0741 -0.3998
    1SOL    HW310719   2.048   4.314   4.178  0.3322  0.6113  1.3727
    1SOL    MW410720   1.983   4.368   4.202 -0.6009  0.0820  0.1068
    1SOL     OW10721   2.772   4.430   4.531  0.7143 -0.1192 -0.4463
    1SOL    HW210722   2.798   4.438   4.440  1.8293 -1.9363 -0.3238
    1SOL    HW310723   2.691   4.380   4.528  0.2901  0.5650 -0.4848
    1SOL    MW410724   2.765   4.424   4.519  0.8054 -0.2689 -0.4358
    1SOL     OW10725   2.551   1.995   4.737  0.1151 -0.0118  0.1907
    1SOL    HW210726   2.489   2.029   4.672 -0.9082  0.6579  1.4776
    1SOL    HW310727   2.546   2.058   4.809  0.1190 -1.5234  1.5452
    1SOL    MW410728   2.542   2.008   4.738 -0.0196 -0.1228  0.5393
    1SOL     OW10729   0.990   1.180   4.640  0.5961 -0.1853  0.2890
    1SOL    HW210730   1.028   1.094   4.621  0.4100  0.0357 -1.1452
    1SOL    HW310731   0.895   1.166   4.633  0.5594  0.1056  0.2135
    1SOL    MW410732   0.982   1.167   4.636  0.5667 -0.1178  0.0892
    1SOL     OW10733   0.069   0.899   4.505  0.1981 -0.3129 -0.0982
    1SOL    HW210734   0.163   0.882   4.513  0.2332  0.0618  0.3530
    1SOL    HW310735   0.029   0.839   4.568  0.1724 -0.1151  0.0729
    1SOL    MW410736   0.076   0.889   4.515  0.1993 -0.2373 -0.0162
    1SOL     OW10737   0.697   0.482   4.281  0.4365 -0.1740  0.2904
    1SOL    HW210738   0.670   0.490   4.372 -1.3664 -0.6679 -0.1880
    1SOL    HW310739   0.685   0.570   4.245 -1.6730 -0.6258 -0.1998
    1SOL    MW410740   0.692   0.495   4.288 -0.0797 -0.2988  0.1626
    1SOL     OW10741   0.888   2.501   4.506  0.1543  0.3278  0.1160
    1SOL    HW210742   0.981   2.500   4.530  0.6281 -1.0024 -1.6805
    1SOL    HW310743   0.886   2.465   4.417 -2.2718 -1.2622  0.7831
    1SOL    MW410744   0.900   2.496   4.497 -0.1032 -0.0572 -0.0329
    1SOL     OW10745   1.064   3.586   4.171 -0.3905  0.2175 -0.0087
    1SOL    HW210746   1.132   3.528   4.135  1.0131  0.6056  1.9499
    1SOL    HW310747   0.983   3.538   4.158  0.4214 -0.9135 -1.0613
    1SOL    MW410748   1.063   3.572   4.164 -0.0981  0.1199  0.1111
    1SOL     OW10749   3.052   3.292   4.245  0.1141  0.4121  0.4102
    1SOL    HW210750   3.080   3.375   4.205  0.4741  0.1137  0.0481
    1SOL    HW310751   3.027   3.317   4.334 -1.0322  1.1415 -0.0937
    1SOL    MW410752   3.052   3.307   4.252  0.0103  0.4692  0.2961
    1SOL     OW10753   3.317   2.622   4.599  0.3402  0.0544 -0.5466
    1SOL    HW210754   3.384   2.685   4.574 -0.3716  1.1899  0.3598
    1SOL    HW310755   3.252   2.673   4.648 -0.0657 -1.4467  0.5293
    1SOL    MW410756   3.317   2.637   4.602  0.1929  0.0060 -0.2847
    1SOL     OW10757   0.635   0.852   4.867  0.2481  0.3396 -0.0218
    1SOL    HW210758   0.565   0.908   4.832 -0.3085 -0.1520  0.2965
    1SOL    HW310759   0.591   0.799   4.934  1.1152  0.6614  0.8156
    1SOL    MW410760   0.620   0.853   4.871  0.2891  0.3172  0.1311
    1SOL     OW10761   1.557   2.030   4.266 -0.1212  0.1959 -0.3979
    1SOL    HW210762   1.643   1.993   4.245  0.9790  2.0222  0.7687
    1SOL    HW310763   1.546   2.014   4.359 -1.3547 -0.5922 -0.6621
    1SOL    MW410764   1.567   2.023   4.275 -0.1388  0.3331 -0.2789
    1SOL     OW10765   1.114   2.968   4.564  0.7339 -0.1011  0.2187
    1SOL    HW210766   1.062   2.895   4.530  1.5911  0.1087 -1.5839
    1SOL    HW310767   1.137   2.940   4.653 -1.6045 -0.6094  0.7018
    1SOL    MW410768   1.110   2.954   4.571  0.5385 -0.1407  0.0443
    1SOL     OW10769   0.886   3.794   4.510 -0.2396  0.2809 -0.1638
    1SOL    HW210770   0.968   3.752   4.536 -0.1441 -0.0689 -1.0130
    1SOL    HW310771   0.898   3.886   4.535 -0.2247 -0.0780  1.1613
    1SOL    MW410772   0.898   3.801   4.517 -0.2250  0.1874 -0.1016
    1SOL     OW10773   4.468   3.491   4.127 -0.1752 -0.0615 -0.1023
    1SOL    HW210774   4.546   3.527   4.168  0.2008 -1.6649  0.6000
    1SOL    HW310775   4.483   3.503   4.033  0.8913 -0.3124  0.0332
    1SOL    MW410776   4.480   3.497   4.120  0.0153 -0.3061  0.0086
    1SOL     OW10777   3.420   1.493   4.628  0.0629 -0.5356 -0.4078
    1SOL    HW210778   3.333   1.531   4.639  0.4652  0.0790  0.7965
    1SOL    HW310779   3.470   1.559   4.580  0.2090 -0.3645 -0.0230
    1SOL    MW410780   3.415   1.506   4.623  0.1352 -0.4319 -0.1974
    1SOL     OW10781   3.820   4.015   4.643 -0.2552 -0.1474 -0.4846
    1SOL    HW210782   3.904   4.038   4.603 -0.0228 -1.6981 -0.8978
    1SOL    HW310783   3.837   3.932   4.689 -1.1484  0.3604  0.8008
    1SOL    MW410784   3.833   4.007   4.644 -0.3424 -0.2847 -0.3691
    1SOL     OW10785   2.674   3.299   4.496  0.2748 -0.1270 -0.4065
    1SOL    HW210786   2.661   3.256   4.412  0.7624  0.6643 -0.8978
    1SOL    HW310787   2.649   3.234   4.561 -2.6488  0.1036 -1.2085
    1SOL    MW410788   2.669   3.285   4.493 -0.0465  0.0081 -0.5774
    1SOL     OW10789   4.471   0.746   4.740  0.2359 -0.0320 -0.6714
    1SOL    HW210790   4.504   0.659   4.758 -0.6707 -0.3369 -0.4542
    1SOL    HW310791   4.378   0.734   4.720 -0.2244  1.0264  0.7303
    1SOL    MW410792   4.463   0.733   4.740  0.0555  0.0674 -0.4582
    1SOL     OW10793   2.455   1.259   4.558 -0.2385  0.2002 -0.2753
    1SOL    HW210794   2.448   1.276   4.464 -0.2955  0.9612 -0.1378
    1SOL    HW310795   2.483   1.342   4.596  0.3185 -0.2461  0.3227
    1SOL    MW410796   2.458   1.272   4.551 -0.1726  0.2418 -0.1783
    1SOL     OW10797   1.506   3.594   4.219 -0.0598  0.4680 -0.6615
    1SOL    HW210798   1.436   3.538   4.186 -1.3972  1.9267 -0.3722
    1SOL    HW310799   1.522   3.564   4.308 -0.7466  0.5324 -0.5181
    1SOL    MW410800   1.499   3.583   4.226 -0.3268  0.6690 -0.6046
    1SOL     OW10801   3.107   3.991   4.175  0.1719  0.1289  0.0259
    1SOL    HW210802   3.197   3.966   4.155  0.6580  2.2251 -0.5003
    1SOL    HW310803   3.107   4.005   4.270  0.9749  2.2163 -0.2464
    1SOL    MW410804   3.119   3.989   4.185  0.3419  0.6807 -0.0796
    1SOL     OW10805   0.176   2.097   4.144 -0.6614 -0.2769 -0.1175
    1SOL    HW210806   0.097   2.044   4.139 -0.5117 -0.7604  2.0092
    1SOL    HW310807   0.247   2.036   4.123 -0.7165 -0.2675 -0.3293
    1SOL    MW410808   0.175   2.082   4.140 -0.6490 -0.3393  0.1354
    1SOL     OW10809   2.172   1.911   4.537 -0.2128 -0.2964  0.1419
    1SOL    HW210810   2.188   1.817   4.542 -2.5226 -0.6629  1.5097
    1SOL    HW310811   2.111   1.921   4.464 -1.5431 -0.1296  1.2517
    1SOL    MW410812   2.166   1.900   4.528 -0.6931 -0.3228  0.4687
    1SOL     OW10813   2.959   3.316   4.506  0.3953 -0.3927  0.6041
    1SOL    HW210814   2.979   3.248   4.569  0.1501 -1.2840 -0.2612
    1SOL    HW310815   2.863   3.315   4.499  0.4029 -0.0952  0.4453
    1SOL    MW410816   2.949   3.307   4.513  0.3636 -0.4709  0.4687
    1SOL     OW10817   0.363   3.810   4.485 -0.2310  0.1729 -0.1787
    1SOL    HW210818   0.454   3.819   4.454 -0.0025  3.2434  1.2306
    1SOL    HW310819   0.363   3.729   4.535  2.0465  0.6693  0.7075
    1SOL    MW410820   0.375   3.801   4.487  0.0996  0.6435  0.1240
    1SOL     OW10821   1.810   3.235   4.258 -0.1798 -0.2744  0.5639
    1SOL    HW210822   1.739   3.178   4.231  0.0066 -1.3444  2.2491
    1SOL    HW310823   1.789   3.320   4.220 -2.2555 -0.6276  0.9070
    1SOL    MW410824   1.798   3.239   4.249 -0.4290 -0.4621  0.8316
    1SOL     OW10825   2.956   2.269   4.120 -0.0419 -0.0008 -0.3211
    1SOL    HW210826   2.885   2.294   4.178  0.0855  0.7207 -0.4695
    1SOL    HW310827   2.915   2.261   4.034  0.0391  0.3510 -0.3946
    1SOL    MW410828   2.941   2.272   4.116 -0.0141  0.1404 -0.3505
    1SOL     OW10829   2.692   3.717   4.647 -0.4754  0.0315 -0.0587
    1SOL    HW210830   2.722   3.692   4.734 -1.3964  0.8843  0.5175
    1SOL    HW310831   2.770   3.710   4.592  0.0282 -0.8786  0.7497
    1SOL    MW410832   2.706   3.713   4.651 -0.5305  0.0238  0.1240
    1SOL     OW10833   1.365   0.377   4.625 -0.3852 -0.4692  0.2978
    1SOL    HW210834   1.353   0.411   4.713 -1.5064 -0.5502  0.1793
    1SOL    HW310835   1.289   0.407   4.576  0.5972  0.2176 -0.8563
    1SOL    MW410836   1.354   0.385   4.630 -0.4035 -0.3893  0.1292
    1SOL     OW10837   4.476   2.225   4.541  0.3183  0.4307  0.8520
    1SOL    HW210838   4.415   2.154   4.558 -0.5463  1.0112  0.2263
    1SOL    HW310839   4.556   2.181   4.510  0.1193 -0.3102  1.3768
    1SOL    MW410840   4.479   2.210   4.539  0.1774  0.4096  0.8392
    1SOL     OW10841   3.317   3.025   4.632 -0.0239 -0.0942  0.3160
    1SOL    HW210842   3.391   2.968   4.613  0.1399  0.4634 -0.7927
    1SOL    HW310843   3.355   3.102   4.673 -0.2043 -0.6259  1.4826
    1SOL    MW410844   3.332   3.028   4.635 -0.0262 -0.0906  0.3242
    1SOL     OW10845   1.953   1.953   4.384  0.4508 -0.2451 -0.2377
    1SOL    HW210846   1.943   2.048   4.390  0.7236 -0.3634  2.4796
    1SOL    HW310847   1.912   1.931   4.300 -1.7243  1.9868  0.1610
    1SOL    MW410848   1.946   1.963   4.374  0.1998  0.0337  0.1736
    1SOL     OW10849   1.755   1.150   4.128  0.1599  0.2536 -0.2339
    1SOL    HW210850   1.768   1.063   4.167 -1.0023  0.6690  1.1407
    1SOL    HW310851   1.828   1.202   4.161  0.3393  0.0456 -0.3004
    1SOL    MW410852   1.766   1.145   4.138  0.0303  0.2809 -0.0615
    1SOL     OW10853   3.827   2.944   4.377 -0.0087 -0.0030 -0.2416
    1SOL    HW210854   3.875   3.010   4.427  0.2442  0.3427 -0.9287
    1SOL    HW310855   3.777   2.994   4.313 -0.8624 -0.3973  0.1050
    1SOL    MW410856   3.827   2.959   4.375 -0.0877 -0.0095 -0.2866
    1SOL     OW10857   0.804   0.706   4.700 -0.3920  0.1361 -0.6056
    1SOL    HW210858   0.746   0.634   4.676 -0.8996  0.2052  0.3853
    1SOL    HW310859   0.748   0.766   4.750  0.2936  0.6885 -0.4887
    1SOL    MW410860   0.789   0.705   4.703 -0.3686  0.2181 -0.4597
    1SOL     OW10861   2.259   2.894   4.638  0.2165 -0.5658  0.2512
    1SOL    HW210862   2.323   2.831   4.605 -0.2079 -1.1009  0.4280
    1SOL    HW310863   2.206   2.843   4.700 -1.5543 -0.6462 -1.2754
    1SOL    MW410864   2.260   2.879   4.642 -0.0732 -0.6468  0.0734
    1SOL     OW10865   3.017   2.009   4.712  0.0518  0.1178  0.1571
    1SOL    HW210866   3.019   2.082   4.774 -1.8054  0.5938 -0.3237
    1SOL    HW310867   3.070   2.039   4.638 -0.4362  0.8626  0.1033
    1SOL    MW410868   3.025   2.023   4.710 -0.2575  0.2787  0.0868
    1SOL     OW10869   1.560   2.294   4.186 -0.3413  0.0182  0.6423
    1SOL    HW210870   1.637   2.325   4.234  1.0510 -0.9246 -0.9382
    1SOL    HW310871   1.551   2.203   4.214  0.1852 -0.3902 -0.5014
    1SOL    MW410872   1.569   2.286   4.196 -0.0882 -0.1602  0.2832
    1SOL     OW10873   0.923   1.662   4.544 -0.5026  0.0509 -0.0698
    1SOL    HW210874   0.944   1.755   4.552 -0.0203  0.0795 -1.4997
    1SOL    HW310875   0.896   1.651   4.452 -1.7316 -0.9882  0.3900
    1SOL    MW410876   0.922   1.672   4.533 -0.6011 -0.0825 -0.1979
    1SOL     OW10877   3.897   4.580   4.389  0.0611  0.0458 -0.5447
    1SOL    HW210878   3.919   4.489   4.407  0.1904  0.2077  0.1576
    1SOL    HW310879   3.835   4.577   4.317  1.7675 -0.4838 -2.0248
    1SOL    MW410880   3.892   4.568   4.382  0.3033 -0.0029 -0.6475
    1SOL     OW10881   2.114   3.104   4.518 -0.3398 -0.1757 -0.3835
    1SOL    HW210882   2.175   3.039   4.553 -0.5918 -1.0331 -1.4982
    1SOL    HW310883   2.163   3.186   4.516  0.7409 -0.8316 -1.1544
    1SOL    MW410884   2.128   3.106   4.522 -0.2306 -0.3755 -0.6318
    1SOL     OW10885   4.286   3.861   4.173  0.3258  0.0278  0.0525
    1SOL    HW210886   4.272   3.771   4.202  0.8461 -0.3140 -0.7393
    1SOL    HW310887   4.249   3.864   4.084 -1.3727  1.0901  0.7558
    1SOL    MW410888   4.279   3.850   4.165  0.1702  0.1230  0.0410
    1SOL     OW10889   0.521   3.203   4.486  0.2739  0.1078 -0.2568
    1SOL    HW210890   0.448   3.182   4.545 -0.0788  0.4844 -0.5590
    1SOL    HW310891   0.557   3.284   4.521 -1.0749  1.3275 -1.6014
    1SOL    MW410892   0.516   3.211   4.498  0.0495  0.3183 -0.4740
    1SOL     OW10893   1.083   0.676   4.673 -0.0666  0.1635  0.0249
    1SOL    HW210894   1.108   0.765   4.649 -0.6325  0.4708  0.5347
    1SOL    HW310895   0.988   0.681   4.686  0.2080  0.0409  2.3281
    1SOL    MW410896   1.074   0.688   4.672 -0.1051  0.1878  0.3963
    1SOL     OW10897   4.227   2.808   4.249 -0.0283  0.3225 -0.3616
    1SOL    HW210898   4.247   2.897   4.222 -0.1875  0.3957 -0.2411
    1SOL    HW310899   4.143   2.788   4.206  1.6352 -0.9724 -3.1258
    1SOL    MW410900   4.218   2.817   4.240  0.1702  0.1614 -0.7100
    1SOL     OW10901   0.314   0.006   4.099  0.2165  0.6415 -0.3510
    1SOL    HW210902   0.406   0.028   4.113  0.1515  1.1720 -0.7175
    1SOL    HW310903   0.300  -0.072   4.151  0.7622  0.8158  0.0663
    1SOL    MW410904   0.324  -0.001   4.107  0.2799  0.7345 -0.3448
    1SOL     OW10905   3.510   2.841   4.523 -0.1510 -0.1691 -0.5939
    1SOL    HW210906   3.504   2.838   4.427 -1.1302 -3.6801 -0.5025
    1SOL    HW310907   3.604   2.833   4.540  0.0417  0.5744 -1.2487
    1SOL    MW410908   3.522   2.840   4.512 -0.2546 -0.5345 -0.6685
    1SOL     OW10909   0.399   1.137   4.157  0.4925  0.2326 -0.2889
    1SOL    HW210910   0.406   1.048   4.194 -2.0715  0.5039  0.9306
    1SOL    HW310911   0.433   1.128   4.068  1.0917 -1.7828  0.1081
    1SOL    MW410912   0.405   1.124   4.150  0.2333  0.0024 -0.0753
    1SOL     OW10913   2.257   3.303   4.242 -0.9081  0.2473 -0.3649
    1SOL    HW210914   2.178   3.253   4.222 -1.1545  0.3882  0.2316
    1SOL    HW310915   2.244   3.333   4.332  0.3223 -0.6506  0.1224
    1SOL    MW410916   2.245   3.300   4.251 -0.7784  0.1476 -0.2217
    1SOL     OW10917   0.053   0.093   4.255 -0.4195 -0.8664 -0.9685
    1SOL    HW210918   0.129   0.073   4.201 -0.0633 -0.9164 -0.4587
    1SOL    HW310919   0.031   0.184   4.235  1.4269  0.0046  0.8477
    1SOL    MW410920   0.060   0.102   4.245 -0.1289 -0.7581 -0.6614
    1SOL     OW10921   1.305   4.294   4.435  0.1986  0.2438  0.6179
    1SOL    HW210922   1.217   4.318   4.463  0.4000  1.4832  0.2274
    1SOL    HW310923   1.294   4.259   4.347  0.1606  0.9696  0.3292
    1SOL    MW410924   1.292   4.293   4.427  0.2202  0.5035  0.5288
    1SOL     OW10925   0.890   3.433   4.623 -0.5861  0.1899  0.1134
    1SOL    HW210926   0.961   3.477   4.577  0.3898  0.6449  1.9905
    1SOL    HW310927   0.904   3.339   4.607  0.1700  0.3086  0.0842
    1SOL    MW410928   0.901   3.426   4.615 -0.3576  0.2654  0.3576
    1SOL     OW10929   2.476   1.526   4.630 -0.1150 -0.0107  0.0800
    1SOL    HW210930   2.548   1.583   4.604  0.9038 -1.2672  0.1085
    1SOL    HW310931   2.446   1.562   4.714 -0.7571  1.6216 -0.8169
    1SOL    MW410932   2.481   1.538   4.638 -0.0653  0.0390 -0.0348
    1SOL     OW10933   2.689   1.109   4.651  0.2156 -0.1746 -0.3832
    1SOL    HW210934   2.612   1.161   4.627 -0.3696 -0.8419  0.0263
    1SOL    HW310935   2.678   1.027   4.603 -0.6867 -1.3102  1.7006
    1SOL    MW410936   2.677   1.105   4.641  0.0191 -0.4125 -0.0544
    1SOL     OW10937   1.364   0.895   4.224  0.0725  0.1066  0.0628
    1SOL    HW210938   1.448   0.862   4.192 -0.0503 -0.6878  0.5347
    1SOL    HW310939   1.356   0.983   4.186  1.9012  0.8711  1.3883
    1SOL    MW410940   1.374   0.902   4.215  0.2975  0.1026  0.3004
    1SOL     OW10941   4.064   0.843   4.458  0.0670  0.3128 -0.2177
    1SOL    HW210942   4.063   0.929   4.501 -0.8270 -0.2183  0.8494
    1SOL    HW310943   4.079   0.863   4.366  1.5936  1.5020  0.2665
    1SOL    MW410944   4.066   0.857   4.452  0.1507  0.3996 -0.0124
    1SOL     OW10945   2.020   1.504   4.571  0.2480  0.1702  0.0173
    1SOL    HW210946   1.931   1.533   4.553 -0.5419 -1.3029  1.5454
    1SOL    HW310947   2.033   1.521   4.664  1.3765 -0.1432 -0.0757
    1SOL    MW410948   2.010   1.510   4.581  0.2930 -0.0656  0.2065
    1SOL     OW10949   1.335   3.173   4.194  0.0996 -0.4060  0.1633
    1SOL    HW210950   1.330   3.157   4.289 -2.3032 -0.9773 -0.0146
    1SOL    HW310951   1.261   3.124   4.158  1.4434 -0.8184 -2.1137
    1SOL    MW410952   1.325   3.165   4.202 -0.0404 -0.5357 -0.1602
    1SOL     OW10953   1.083   2.266   4.094  0.0181 -0.2037  0.4424
    1SOL    HW210954   1.139   2.324   4.146  1.0609 -0.1625 -0.6826
    1SOL    HW310955   1.088   2.182   4.139  1.0596 -0.2153  0.3363
    1SOL    MW410956   1.091   2.262   4.107  0.2931 -0.1998  0.2794
    1SOL     OW10957   4.274   1.225   4.453 -0.1374  0.6936  0.4734
    1SOL    HW210958   4.184   1.193   4.449 -0.4852  1.8169 -1.2471
    1SOL    HW310959   4.266   1.314   4.486  0.3007  0.9963 -0.2462
    1SOL    MW410960   4.261   1.232   4.457 -0.1264  0.8817  0.1516
    1SOL     OW10961   3.712   0.400   4.835 -0.1400 -0.2169 -0.2966
    1SOL    HW210962   3.646   0.370   4.773  0.8004  1.2721 -2.0851
    1SOL    HW310963   3.664   0.455   4.897 -0.4466  1.8265 -2.2690
    1SOL    MW410964   3.697   0.403   4.835 -0.0563  0.2491 -0.7930
    1SOL     OW10965   3.350   0.679   4.519 -0.4477  0.1369  0.3348
    1SOL    HW210966   3.422   0.742   4.519  0.4064 -0.8375  0.3945
    1SOL    HW310967   3.272   0.732   4.500  0.5576  0.8403 -1.9652
    1SOL    MW410968   3.349   0.695   4.517 -0.2024  0.1011  0.0396
    1SOL     OW10969   3.489   4.179   4.616  0.2565 -0.1778  0.3933
    1SOL    HW210970   3.501   4.085   4.609 -0.2520 -0.2596  0.6054
    1SOL    HW310971   3.531   4.203   4.698  1.0568 -0.1054 -0.0357
    1SOL    MW410972   3.496   4.170   4.626  0.2952 -0.1788  0.3653
    1SOL     OW10973   0.861   4.550   4.327  0.0213 -0.2131  0.2205
    1SOL    HW210974   0.803   4.492   4.276 -1.2627  1.1087  0.1342
    1SOL    HW310975   0.864   4.631   4.276  1.8300 -0.2053  0.3302
    1SOL    MW410976   0.854   4.553   4.313  0.0905 -0.0377  0.2232
    1SOL     OW10977   0.227   2.138   4.408 -0.1192  0.2108 -0.3797
    1SOL    HW210978   0.275   2.057   4.424 -1.7421 -0.7728 -0.3594
    1SOL    HW310979   0.204   2.135   4.315 -0.4391  0.4896 -0.3127
    1SOL    MW410980   0.230   2.127   4.398 -0.3755  0.1175 -0.3681
    1SOL     OW10981   2.029   1.240   4.497 -0.0001 -0.3485  0.0319
    1SOL    HW210982   2.022   1.256   4.403 -0.3561 -1.1697 -0.0780
    1SOL    HW310983   2.009   1.325   4.536 -2.2299 -0.5589 -0.5577
    1SOL    MW410984   2.026   1.254   4.490 -0.3412 -0.4847 -0.0606
    1SOL     OW10985   4.294   4.636   4.209  0.0742  0.2830  0.4319
    1SOL    HW210986   4.222   4.678   4.255  0.1457  1.9764 -0.9162
    1SOL    HW310987   4.371   4.686   4.235  0.5278 -0.5165  0.6369
    1SOL    MW410988   4.295   4.648   4.218  0.1440  0.4010  0.2813
    1SOL     OW10989   3.096   2.127   4.465 -0.3411  0.1674 -0.3422
    1SOL    HW210990   3.117   2.220   4.478 -1.0993  0.2963 -0.0097
    1SOL    HW310991   3.016   2.127   4.413 -1.6706 -0.2473  1.6314
    1SOL    MW410992   3.089   2.140   4.460 -0.6166  0.1297 -0.0377
    1SOL     OW10993   2.036   4.412   4.479 -0.0126 -0.4229 -0.2051
    1SOL    HW210994   2.014   4.403   4.386 -0.0228  1.3194 -0.3850
    1SOL    HW310995   1.951   4.428   4.522  0.0656 -0.6068  0.0174
    1SOL    MW410996   2.022   4.413   4.472 -0.0033 -0.2174 -0.1988
    1SOL     OW10997   2.875   4.169   4.480  0.0120 -0.3130 -0.3755
    1SOL    HW210998   2.857   4.255   4.519  0.8921 -0.9634  1.5291
    1SOL    HW310999   2.809   4.111   4.517  0.9020 -0.9602  0.2203
    1SOL    MW411000   2.864   4.173   4.490  0.2453 -0.4840 -0.0458
    1SOL     OW11001   3.656   4.225   4.381 -0.2024  0.7809  0.0248
    1SOL    HW211002   3.613   4.151   4.338  0.2709  0.4582  0.1040
    1SOL    HW311003   3.618   4.227   4.469  0.1677  0.3017  0.1995
    1SOL    MW411004   3.645   4.215   4.387 -0.0911  0.6752  0.0582
    1SOL     OW11005   3.237   1.838   4.621  0.1408  0.0063 -0.3888
    1SOL    HW211006   3.177   1.896   4.668 -0.3359  0.9994 -2.1908
    1SOL    HW311007   3.252   1.881   4.537  1.5915 -1.3605 -0.8693
    1SOL    MW411008   3.231   1.851   4.616  0.2692 -0.0430 -0.6900
    1SOL     OW11009   1.744   4.195   4.183  0.3088  0.1180  0.2537
    1SOL    HW211010   1.741   4.198   4.088 -0.7754  0.5039  0.2931
    1SOL    HW311011   1.821   4.247   4.207 -0.4947  1.5894 -0.3322
    1SOL    MW411012   1.754   4.202   4.174  0.0597  0.3629  0.1817
    1SOL     OW11013   2.255   1.174   4.151  0.0530 -0.1675 -0.0748
    1SOL    HW211014   2.324   1.230   4.186  1.3785 -1.8987  0.1183
    1SOL    HW311015   2.264   1.092   4.198 -2.0080 -0.5077 -0.2202
    1SOL    MW411016   2.265   1.171   4.162 -0.0441 -0.4410 -0.0691
    1SOL     OW11017   1.314   3.725   4.573 -0.5136 -0.1089 -0.4517
    1SOL    HW211018   1.335   3.813   4.545 -2.3115  0.6578  0.5192
    1SOL    HW311019   1.399   3.680   4.579  0.4031  1.5442 -0.9054
    1SOL    MW411020   1.328   3.730   4.570 -0.6299  0.2103 -0.3839
    1SOL     OW11021   3.068   0.362   4.474  0.1204  0.0786  0.2796
    1SOL    HW211022   3.161   0.385   4.475  0.4335 -1.1641  0.0878
    1SOL    HW311023   3.022   0.446   4.476  1.2582  0.7275 -0.8322
    1SOL    MW411024   3.074   0.376   4.474  0.3119  0.0003  0.1073
    1SOL     OW11025   4.019   1.667   4.291  0.2590 -0.0501 -0.0625
    1SOL    HW211026   4.077   1.604   4.250 -0.1940 -0.8218  0.4693
    1SOL    HW311027   3.995   1.627   4.375  0.3654  1.0506  0.4984
    1SOL    MW411028   4.023   1.654   4.297  0.2131 -0.0068  0.0815
    1SOL     OW11029   1.660   1.952   4.936  0.4500 -0.5303  0.3989
    1SOL    HW211030   1.578   1.907   4.956  0.2567 -0.6504 -0.6506
    1SOL    HW311031   1.725   1.883   4.928  0.3596 -0.5491 -0.1973
    1SOL    MW411032   1.658   1.937   4.938  0.4126 -0.5486  0.1817
    1SOL     OW11033   0.482   1.548   4.822 -0.5550 -0.0699 -0.3168
    1SOL    HW211034   0.465   1.468   4.771 -0.9680 -0.1371 -0.0766
    1SOL    HW311035   0.564   1.581   4.787 -0.3999 -0.5812 -0.4449
    1SOL    MW411036   0.490   1.542   4.810 -0.5890 -0.1463 -0.3028
    1SOL     OW11037   3.047   2.743   4.358 -0.0314  0.3164 -0.1957
    1SOL    HW211038   2.963   2.784   4.340  0.6553  1.6552 -0.4381
    1SOL    HW311039   3.084   2.724   4.272 -1.5127 -3.3598 -0.1159
    1SOL    MW411040   3.041   2.746   4.344 -0.1364  0.0079 -0.2170
    1SOL     OW11041   1.591   0.774   4.125 -0.1822  0.0850 -0.1629
    1SOL    HW211042   1.674   0.814   4.152 -1.2719  2.6157 -0.3634
    1SOL    HW311043   1.597   0.767   4.030 -0.0387 -0.0832 -0.1410
    1SOL    MW411044   1.603   0.779   4.116 -0.3071  0.3967 -0.1864
    1SOL     OW11045   4.102   2.399   4.605 -0.1143  0.3605 -0.1869
    1SOL    HW211046   4.138   2.394   4.516  0.5853  0.5802  0.0795
    1SOL    HW311047   4.015   2.438   4.593 -1.0279 -1.8757 -1.0269
    1SOL    MW411048   4.095   2.404   4.591 -0.1426  0.0942 -0.2618
    1SOL     OW11049   4.055   4.015   4.230  0.0786 -0.2770 -0.0419
    1SOL    HW211050   4.136   3.964   4.226  0.1572 -0.0970 -1.0461
    1SOL    HW311051   4.035   4.022   4.323  1.5000  0.1128  0.2510
    1SOL    MW411052   4.063   4.010   4.242  0.2766 -0.2017 -0.1364
    1SOL     OW11053   3.123   4.053   4.439 -0.0334 -0.2524  0.1441
    1SOL    HW211054   3.180   4.125   4.467  0.3225 -0.6682  0.4896
    1SOL    HW311055   3.034   4.087   4.452  0.1308 -0.0826  0.8413
    1SOL    MW411056   3.118   4.067   4.445  0.0353 -0.2847  0.2809
    1SOL     OW11057   0.185   0.136   4.695  0.1381 -0.5044  0.1027
    1SOL    HW211058   0.278   0.115   4.693  0.1188 -0.5314 -0.4099
    1SOL    HW311059   0.151   0.083   4.767  0.6863  0.2017  0.8970
    1SOL    MW411060   0.193   0.127   4.705  0.2079 -0.4148  0.1397
    1SOL     OW11061   0.909   3.135   4.539 -0.1183  0.3447  0.3538
    1SOL    HW211062   0.830   3.087   4.514 -0.4562 -0.6418  3.1417
    1SOL    HW311063   0.976   3.068   4.551  0.6322  1.0006 -0.0538
    1SOL    MW411064   0.908   3.120   4.537 -0.0639  0.3011  0.6676
    1SOL     OW11065   0.176   2.569   4.553  0.4197 -0.1589  0.1346
    1SOL    HW211066   0.203   2.661   4.555 -0.6797  0.1595  1.5545
    1SOL    HW311067   0.258   2.520   4.545  1.1549  0.8939  1.0881
    1SOL    MW411068   0.191   2.575   4.552  0.3716  0.0219  0.4482
    1SOL     OW11069   1.780   1.589   4.228 -0.1198 -0.0384 -0.1745
    1SOL    HW211070   1.779   1.566   4.321  0.2143  2.1008  0.3895
    1SOL    HW311071   1.869   1.569   4.200  0.4132  1.2852  0.5149
    1SOL    MW411072   1.791   1.583   4.237 -0.0054  0.4187 -0.0095
    1SOL     OW11073   0.446   0.877   4.285  0.1083  0.2434 -0.2528
    1SOL    HW211074   0.531   0.837   4.265  0.4428  0.1867  1.2183
    1SOL    HW311075   0.386   0.838   4.222  0.7995 -1.2210 -0.0301
    1SOL    MW411076   0.449   0.866   4.274  0.2436  0.0427 -0.0291
    1SOL     OW11077   2.247   1.695   4.215  0.3039 -0.4945 -0.2152
    1SOL    HW211078   2.256   1.706   4.310  0.2282  1.6320 -0.4296
    1SOL    HW311079   2.244   1.784   4.181 -3.0112 -1.1783 -1.9286
    1SOL    MW411080   2.248   1.708   4.223 -0.1435 -0.3043 -0.4697
    1SOL     OW11081   3.576   2.108   4.549 -0.6247 -0.0205  0.0276
    1SOL    HW211082   3.671   2.100   4.559 -0.5780  1.2983  0.7510
    1SOL    HW311083   3.559   2.202   4.553 -2.0012 -0.2650  0.2612
    1SOL    MW411084   3.586   2.119   4.551 -0.8001  0.1214  0.1535
    1SOL     OW11085   2.286   2.523   4.751  0.2179 -0.1812  0.2748
    1SOL    HW211086   2.299   2.516   4.657 -2.1638 -0.1816 -0.0727
    1SOL    HW311087   2.371   2.502   4.789  1.6123  1.3401 -1.9221
    1SOL    MW411088   2.299   2.519   4.744  0.0877  0.0193 -0.0606
    1SOL     OW11089   1.071   1.323   4.234  0.1945 -0.3174  0.3813
    1SOL    HW211090   1.144   1.262   4.223 -0.6926 -1.5964  1.4261
    1SOL    HW311091   1.070   1.343   4.328 -0.6938 -0.1620  0.3430
    1SOL    MW411092   1.081   1.318   4.245 -0.0398 -0.4656  0.5140
    1SOL     OW11093   3.579   1.110   4.618  0.0237 -0.2610 -0.0584
    1SOL    HW211094   3.500   1.145   4.575 -0.1117  1.7336  1.7324
    1SOL    HW311095   3.546   1.064   4.695  0.5608 -0.0903  0.2755
    1SOL    MW411096   3.564   1.109   4.622  0.0768  0.0247  0.2217
    1SOL     OW11097   1.754   3.942   4.264 -0.1397  0.1073  0.8690
    1SOL    HW211098   1.760   4.034   4.236 -1.0249  0.3827  1.5635
    1SOL    HW311099   1.706   3.945   4.347 -1.1981 -1.0991  0.3157
    1SOL    MW411100   1.749   3.955   4.271 -0.3960 -0.0155  0.8874
    1SOL     OW11101   4.035   0.904   4.204 -0.1738  0.1758  0.1703
    1SOL    HW211102   3.962   0.842   4.206 -0.2922  0.3023 -0.2492
    1SOL    HW311103   4.109   0.853   4.170  0.0185 -0.0409  0.9062
    1SOL    MW411104   4.035   0.889   4.200 -0.1640  0.1639  0.2117
    1SOL     OW11105   0.276   0.493   4.239  0.2400  0.5818  0.0139
    1SOL    HW211106   0.186   0.463   4.245 -0.1618  0.9267 -3.2386
    1SOL    HW311107   0.325   0.417   4.208  0.3292  1.4556 -2.0821
    1SOL    MW411108   0.271   0.479   4.236  0.1988  0.7426 -0.6919
    1SOL     OW11109   1.359   3.122   4.471 -0.5562 -0.6153  0.1666
    1SOL    HW211110   1.361   3.204   4.520 -0.3233 -2.1181  2.7503
    1SOL    HW311111   1.289   3.072   4.512 -0.3195 -1.9262 -1.0260
    1SOL    MW411112   1.350   3.127   4.483 -0.4942 -0.9868  0.3505
    1SOL     OW11113   1.793   3.751   4.596 -0.0749 -0.2691  0.4732
    1SOL    HW211114   1.784   3.739   4.691 -1.7701 -0.5622  0.2916
    1SOL    HW311115   1.871   3.701   4.573  0.3068 -0.2567  1.7073
    1SOL    MW411116   1.802   3.743   4.606 -0.2482 -0.3061  0.6118
    1SOL     OW11117   0.035   3.990   4.214 -0.7968 -0.0741 -0.1305
    1SOL    HW211118  -0.053   3.956   4.201 -1.0523  1.0207 -1.3816
    1SOL    HW311119   0.027   4.084   4.195  0.3581  0.2743  1.0493
    1SOL    MW411120   0.022   3.998   4.209 -0.6782  0.1161 -0.1397
    1SOL     OW11121   0.609   4.656   4.402 -0.0084 -0.2359 -0.4330
    1SOL    HW211122   0.693   4.613   4.421  0.9291  1.7758  0.1114
    1SOL    HW311123   0.596   4.643   4.308  0.7955 -0.7557 -0.4801
    1SOL    MW411124   0.618   4.649   4.392  0.2214 -0.0391 -0.3667
    1SOL     OW11125   0.620   3.455   4.546  0.0487  0.4321  0.0758
    1SOL    HW211126   0.628   3.485   4.455 -0.4817  1.0646  0.2339
    1SOL    HW311127   0.708   3.463   4.582  0.3747 -0.3314 -0.5406
    1SOL    MW411128   0.633   3.460   4.539  0.0217  0.4146  0.0157
    1SOL     OW11129   0.003   0.361   4.211 -0.0699  0.2580  0.1743
    1SOL    HW211130  -0.013   0.376   4.118 -0.0476  0.4889  0.2070
    1SOL    HW311131  -0.061   0.416   4.256 -0.5228 -0.3584  0.2954
    1SOL    MW411132  -0.007   0.370   4.205 -0.1268  0.2071  0.1950
    1SOL     OW11133   1.346   1.903   4.146  0.2563 -0.2160 -0.0653
    1SOL    HW211134   1.420   1.946   4.187  0.0683 -1.2503  1.3909
    1SOL    HW311135   1.357   1.810   4.166 -0.7784 -0.5293 -0.8651
    1SOL    MW411136   1.357   1.896   4.154  0.0951 -0.3937  0.0215
    1SOL     OW11137   1.604   3.075   4.162 -0.3174  0.5666 -0.1437
    1SOL    HW211138   1.522   3.116   4.191 -1.1384 -0.0788 -1.5418
    1SOL    HW311139   1.595   2.984   4.188 -0.2561  0.3927 -0.7277
    1SOL    MW411140   1.592   3.069   4.169 -0.4176  0.4587 -0.4048
    1SOL     OW11141   2.492   3.625   4.282 -0.0625  0.4470  0.2140
    1SOL    HW211142   2.409   3.591   4.249 -0.5178  0.8455  0.9576
    1SOL    HW311143   2.497   3.595   4.373  0.1588  1.2391  0.4663
    1SOL    MW411144   2.482   3.616   4.290 -0.0935  0.6039  0.3448
    1SOL     OW11145   2.541   2.484   4.280  0.0771 -0.1602 -0.7392
    1SOL    HW211146   2.475   2.485   4.349  0.6569 -2.6521 -0.0934
    1SOL    HW311147   2.496   2.449   4.204 -0.1611  1.1642 -1.2244
    1SOL    MW411148   2.526   2.479   4.279  0.1223 -0.3142 -0.7186
    1SOL     OW11149   0.068   4.162   4.513  0.2031 -0.5521  0.1146
    1SOL    HW211150  -0.023   4.189   4.528 -0.5210 -2.0332 -1.3630
    1SOL    HW311151   0.064   4.067   4.507  1.6387 -0.5598 -1.2094
    1SOL    MW411152   0.055   4.153   4.514  0.2970 -0.7482 -0.2551
    1SOL     OW11153   0.863   2.381   4.249 -0.0847 -0.0601  0.4222
    1SOL    HW211154   0.780   2.336   4.233  0.1937 -0.8373  1.0875
    1SOL    HW311155   0.923   2.343   4.185 -0.3094  0.6759 -0.2175
    1SOL    MW411156   0.860   2.370   4.239 -0.0776 -0.0653  0.4258
    1SOL     OW11157   2.245   1.946   4.078  0.2867  0.0191 -0.0166
    1SOL    HW211158   2.181   2.002   4.123  0.1951  0.2768 -0.4722
    1SOL    HW311159   2.230   1.962   3.985  1.5339  0.6616 -0.1177
    1SOL    MW411160   2.235   1.956   4.072  0.4392  0.1379 -0.0901
    1SOL     OW11161   2.643   4.012   4.560  0.0082  0.2334  0.0326
    1SOL    HW211162   2.672   3.924   4.585  0.2690  0.0194 -1.0372
    1SOL    HW311163   2.553   4.017   4.592  0.4042  0.0340  1.2075
    1SOL    MW411164   2.635   4.001   4.568  0.0949  0.1788  0.0463
    1SOL     OW11165   3.967   1.523   4.534 -0.4374  0.4144 -0.0874
    1SOL    HW211166   3.930   1.594   4.585 -1.6230 -0.1931 -0.0885
    1SOL    HW311167   3.902   1.453   4.538  0.0322 -0.1241 -1.3289
    1SOL    MW411168   3.954   1.523   4.541 -0.5317  0.2632 -0.2513
    1SOL     OW11169   3.838   1.531   4.141 -0.1585  0.1327 -0.0338
    1SOL    HW211170   3.760   1.577   4.171 -0.1218 -0.5716  1.1882
    1SOL    HW311171   3.908   1.563   4.198 -0.3372 -2.1753  1.5836
    1SOL    MW411172   3.837   1.541   4.153 -0.1771 -0.2646  0.3405
    1SOL     OW11173   4.273   1.256   4.183  0.8654 -0.0820  0.3859
    1SOL    HW211174   4.194   1.206   4.160  0.9709  0.1010 -0.3692
    1SOL    HW311175   4.271   1.260   4.279  0.2612 -0.5743  0.3989
    1SOL    MW411176   4.262   1.250   4.193  0.7992 -0.1228  0.2885
    1SOL     OW11177   2.209   0.125   4.208  0.7983  0.3856  0.3815
    1SOL    HW211178   2.229   0.117   4.301  1.1850 -0.1366  0.2606
    1SOL    HW311179   2.235   0.214   4.185 -0.5190  0.9407  1.0586
    1SOL    MW411180   2.215   0.136   4.217  0.6754  0.3899  0.4554
    1SOL     OW11181   0.396   1.320   4.676  0.0127  0.2363 -0.7241
    1SOL    HW211182   0.392   1.228   4.703 -0.7461  0.5322  0.2168
    1SOL    HW311183   0.311   1.335   4.634 -0.3299  0.8015  0.1483
    1SOL    MW411184   0.384   1.310   4.674 -0.1326  0.3499 -0.4849
    1SOL     OW11185   1.365   0.950   4.492 -0.0323 -0.0742 -0.3532
    1SOL    HW211186   1.368   0.916   4.403 -0.8196 -0.8832 -0.0830
    1SOL    HW311187   1.430   1.020   4.494  0.9829 -0.9854 -1.1735
    1SOL    MW411188   1.374   0.955   4.480 -0.0023 -0.3012 -0.4258
    1SOL     OW11189   3.395   1.273   4.232  0.0939  0.2910 -0.2611
    1SOL    HW211190   3.384   1.353   4.181  0.7629 -0.5434 -1.7442
    1SOL    HW311191   3.314   1.223   4.216  1.9666 -1.8171 -3.9214
    1SOL    MW411192   3.383   1.277   4.223  0.4294 -0.0972 -0.9398
    1SOL     OW11193   1.818   0.893   4.217 -0.4468  0.2364 -0.5349
    1SOL    HW211194   1.884   0.841   4.172  1.4326  2.1643 -0.1000
    1SOL    HW311195   1.830   0.870   4.310  1.4273  2.5015 -0.1744
    1SOL    MW411196   1.829   0.883   4.224  0.0485  0.7896 -0.4301
    1SOL     OW11197   1.775   1.876   4.187 -0.6099  0.2476 -0.7709
    1SOL    HW211198   1.766   1.780   4.191 -0.0855  0.2537  1.1725
    1SOL    HW311199   1.776   1.896   4.094 -1.4247 -1.5804 -1.2074
    1SOL    MW411200   1.774   1.866   4.176 -0.6483  0.0073 -0.5722
    1SOL     OW11201   2.384   2.093   4.505 -0.3442 -0.4758 -0.0054
    1SOL    HW211202   2.319   2.023   4.507  1.2973 -2.0779 -0.7873
    1SOL    HW311203   2.333   2.173   4.490 -2.0295 -1.8615 -2.0866
    1SOL    MW411204   2.369   2.094   4.503 -0.3500 -0.8700 -0.3834
    1SOL     OW11205   3.225   1.914   4.349 -0.6503  0.0218  0.4366
    1SOL    HW211206   3.168   1.980   4.388  0.1138  0.6643  0.4770
    1SOL    HW311207   3.303   1.962   4.322 -1.0768 -0.4410 -1.7290
    1SOL    MW411208   3.228   1.929   4.351 -0.6058  0.0454  0.1564
    1SOL     OW11209   2.224   3.389   4.521  0.3162 -0.1892  0.3274
    1SOL    HW211210   2.311   3.418   4.551 -0.0543  0.1219  1.0941
    1SOL    HW311211   2.165   3.461   4.545  0.2700  0.8301 -2.6034
    1SOL    MW411212   2.228   3.402   4.528  0.2615 -0.0136  0.0420
    1SOL     OW11213   1.761   2.415   4.375 -1.1250  0.0127  0.0415
    1SOL    HW211214   1.823   2.349   4.406 -0.9869 -0.0689 -0.4179
    1SOL    HW311215   1.785   2.495   4.422 -1.0739 -0.1745  0.3370
    1SOL    MW411216   1.772   2.417   4.385 -1.1001 -0.0229  0.0196
    1SOL     OW11217   3.796   1.267   4.522 -0.2688  0.2896  0.0388
    1SOL    HW211218   3.775   1.256   4.429  0.1516 -0.8918  0.0737
    1SOL    HW311219   3.718   1.234   4.568 -0.5124  0.9575  0.1037
    1SOL    MW411220   3.783   1.261   4.516 -0.2456  0.2218  0.0515
    1SOL     OW11221   0.070   3.879   4.485 -0.1327 -0.1586 -0.2139
    1SOL    HW211222   0.161   3.850   4.493  0.0962  0.5913 -0.0364
    1SOL    HW311223   0.061   3.906   4.394  0.3797  1.5568  0.2149
    1SOL    MW411224   0.081   3.879   4.474 -0.0349  0.1664 -0.1345
    1SOL     OW11225   2.901   2.535   4.527  0.1935 -0.0323 -0.1547
    1SOL    HW211226   2.942   2.594   4.464  0.9772 -1.3194 -0.8884
    1SOL    HW311227   2.853   2.472   4.473  0.5436 -0.9130  0.5429
    1SOL    MW411228   2.900   2.534   4.512  0.3433 -0.3183 -0.1593
    1SOL     OW11229   2.897   3.071   4.192 -0.0037  0.4148 -0.1353
    1SOL    HW211230   2.903   3.066   4.096  0.4749  1.4006 -0.1610
    1SOL    HW311231   2.961   3.138   4.217 -0.7173  0.7617  0.7993
    1SOL    MW411232   2.906   3.079   4.182 -0.0350  0.5903 -0.0157
    1SOL     OW11233   1.574   2.959   4.477 -0.1169  0.0831 -0.0928
    1SOL    HW211234   1.645   3.011   4.514 -0.7254  0.7246  0.1967
    1SOL    HW311235   1.497   3.015   4.485 -0.3847 -0.0169 -1.7602
    1SOL    MW411236   1.573   2.973   4.483 -0.2323  0.1543 -0.2742
    1SOL     OW11237   1.109   0.499   4.256  0.0166  0.3600 -0.1089
    1SOL    HW211238   1.110   0.590   4.229 -0.8258 -0.0196 -1.4544
    1SOL    HW311239   1.187   0.461   4.216  0.6275  0.5920  0.8466
    1SOL    MW411240   1.119   0.506   4.247 -0.0139  0.3406 -0.1597
    1SOL     OW11241   1.060   1.422   4.518  0.4473 -0.3140 -0.1495
    1SOL    HW211242   1.013   1.503   4.539  0.8897  0.3298 -1.5771
    1SOL    HW311243   1.027   1.358   4.582 -0.3022  0.8478  0.6453
    1SOL    MW411244   1.049   1.424   4.529  0.4067 -0.0758 -0.2327
    1SOL     OW11245   0.174   2.867   4.531  0.0328 -0.3851  0.3150
    1SOL    HW211246   0.201   2.877   4.440  0.7100 -0.5380  0.5013
    1SOL    HW311247   0.078   2.863   4.527  0.0532 -0.1928 -0.3683
    1SOL    MW411248   0.165   2.867   4.518  0.1248 -0.3800  0.2499
    1SOL     OW11249   3.444   2.058   4.305  0.0207 -0.1508 -0.2080
    1SOL    HW211250   3.421   2.144   4.268 -0.1146 -0.5051 -0.9627
    1SOL    HW311251   3.504   2.078   4.376 -0.6593  0.6276  0.1547
    1SOL    MW411252   3.449   2.072   4.309 -0.0868 -0.0947 -0.2599
    1SOL     OW11253   3.759   4.208   4.836  0.8303 -0.2589 -0.4103
    1SOL    HW211254   3.765   4.143   4.766  0.0800 -2.1122  1.2115
    1SOL    HW311255   3.786   4.162   4.915 -0.4107  1.1782  0.9095
    1SOL    MW411256   3.763   4.194   4.837  0.5677 -0.3138 -0.0219
    1SOL     OW11257   3.399   3.680   4.578  0.0300 -0.0374  0.1812
    1SOL    HW211258   3.451   3.757   4.599  0.8407 -0.0833 -1.6140
    1SOL    HW311259   3.462   3.608   4.574 -0.1701 -0.1371 -1.7573
    1SOL    MW411260   3.414   3.681   4.580  0.1106 -0.0565 -0.3119
    1SOL     OW11261   4.053   4.079   4.513  0.1917  0.3795 -0.1624
    1SOL    HW211262   4.134   4.129   4.505  0.5007 -0.2495 -0.9329
    1SOL    HW311263   4.080   3.992   4.541 -0.4441  0.9521  2.3644
    1SOL    MW411264   4.067   4.074   4.515  0.1488  0.3719  0.0691
    1SOL     OW11265   3.139   0.326   4.172 -0.3573 -0.1152  0.0700
    1SOL    HW211266   3.075   0.397   4.173 -1.4778 -1.1138  0.4910
    1SOL    HW311267   3.223   0.370   4.187 -0.8653  1.2664 -1.0308
    1SOL    MW411268   3.142   0.341   4.174 -0.5722 -0.0646 -0.0191
    1SOL     OW11269   0.237   3.090   4.073  0.0227  0.6888  0.6533
    1SOL    HW211270   0.318   3.118   4.116 -0.6612 -0.9514  3.1254
    1SOL    HW311271   0.168   3.136   4.120 -0.6447  0.1864  0.1704
    1SOL    MW411272   0.239   3.100   4.085 -0.1556  0.4060  0.9155
    1SOL     OW11273   1.317   1.536   4.550  0.4403 -0.2869 -0.0489
    1SOL    HW211274   1.386   1.472   4.564  0.3677 -0.1395  1.0119
    1SOL    HW311275   1.237   1.484   4.539  0.1152 -0.3587  2.3461
    1SOL    MW411276   1.315   1.521   4.551  0.3878 -0.2769  0.4072
    1SOL     OW11277   2.269   3.549   4.153 -0.2016 -0.4058  0.2841
    1SOL    HW211278   2.287   3.463   4.190  0.0036 -0.8618 -0.8558
    1SOL    HW311279   2.180   3.570   4.182  0.1967 -0.4717  1.5447
    1SOL    MW411280   2.259   3.541   4.161 -0.1221 -0.4742  0.2999
    1SOL     OW11281   3.803   0.414   4.489  0.2840  0.2080 -0.2079
    1SOL    HW211282   3.831   0.365   4.567 -0.2588 -1.4481 -1.0371
    1SOL    HW311283   3.810   0.506   4.515  0.9739 -0.3054  1.4991
    1SOL    MW411284   3.808   0.420   4.503  0.3035 -0.0782 -0.0920
    1SOL     OW11285   2.334   0.828   4.496  0.0213 -0.0152 -0.1799
    1SOL    HW211286   2.295   0.908   4.531  1.0372  0.5431 -0.2951
    1SOL    HW311287   2.292   0.757   4.544 -0.2682  0.6308  0.5310
    1SOL    MW411288   2.324   0.829   4.507  0.1171  0.1437 -0.1016
    1SOL     OW11289   4.241   3.037   4.614 -0.1807  0.6186  0.1874
    1SOL    HW211290   4.300   3.112   4.618 -1.2500  1.5481 -1.1095
    1SOL    HW311291   4.297   2.965   4.584  0.5616  1.2118  0.1209
    1SOL    MW411292   4.257   3.037   4.610 -0.2241  0.8194  0.0067
    1SOL     OW11293   2.262   0.378   4.125 -0.0359 -0.4910 -0.6923
    1SOL    HW211294   2.252   0.387   4.030 -1.8813 -0.3635 -0.4903
    1SOL    HW311295   2.187   0.424   4.162  0.1603 -1.3591  0.8167
    1SOL    MW411296   2.251   0.385   4.118 -0.2532 -0.5887 -0.4663
    1SOL     OW11297   3.545   0.860   4.211 -0.3771 -0.2122  0.2931
    1SOL    HW211298   3.463   0.827   4.175 -0.4723  0.1769  0.1563
    1SOL    HW311299   3.555   0.947   4.173  1.3409 -1.2049 -1.6334
    1SOL    MW411300   3.536   0.867   4.201 -0.1633 -0.2919  0.0205
    1SOL     OW11301   0.274   3.100   4.630 -0.7164  0.2906 -0.0758
    1SOL    HW211302   0.244   3.011   4.610  1.4913 -0.2660 -1.0484
    1SOL    HW311303   0.283   3.101   4.725  0.8685 -1.0941 -0.1829
    1SOL    MW411304   0.271   3.088   4.639 -0.2160  0.0343 -0.2179
    1SOL     OW11305   2.261   1.648   4.501 -0.1204  0.4610  0.1448
    1SOL    HW211306   2.338   1.615   4.548  0.7785  0.6244 -1.1767
    1SOL    HW311307   2.189   1.591   4.528  0.9863 -1.2603 -0.4759
    1SOL    MW411308   2.262   1.636   4.511  0.1442  0.2553 -0.1111
    1SOL     OW11309   0.853   1.666   4.263 -0.2273 -0.2354  0.6711
    1SOL    HW211310   0.770   1.631   4.234 -0.3791  0.5097  0.1791
    1SOL    HW311311   0.858   1.753   4.222  0.6126 -0.1221  0.9971
    1SOL    MW411312   0.843   1.673   4.254 -0.1366 -0.1221  0.6490
    1SOL     OW11313   3.610   1.655   4.209 -0.1815 -0.1181  0.5972
    1SOL    HW211314   3.598   1.666   4.303 -1.3140 -0.6812  0.5236
    1SOL    HW311315   3.527   1.621   4.178 -0.4997  1.9945 -0.9439
    1SOL    MW411316   3.598   1.652   4.217 -0.3729  0.0863  0.3843
    1SOL     OW11317   3.233   2.951   4.388 -0.5619  0.3277  0.0489
    1SOL    HW211318   3.170   2.886   4.419 -1.3359  0.8968 -0.2991
    1SOL    HW311319   3.264   2.995   4.467  0.1771 -0.6515  0.3087
    1SOL    MW411320   3.228   2.948   4.402 -0.5667  0.2737  0.0372
    1SOL     OW11321   3.854   2.513   4.560 -0.0237 -0.2959  0.2427
    1SOL    HW211322   3.765   2.483   4.576 -0.0618 -0.0118  0.5550
    1SOL    HW311323   3.855   2.604   4.590  0.2445 -0.1542 -0.1866
    1SOL    MW411324   3.842   2.521   4.566  0.0069 -0.2398  0.2275
    1SOL     OW11325   0.444   0.048   4.711 -0.2451  0.2819  0.1504
    1SOL    HW211326   0.519   0.105   4.693 -0.2568  0.0729 -0.5727
    1SOL    HW311327   0.475  -0.039   4.684 -1.0157  0.3188 -0.8696
    1SOL    MW411328   0.458   0.044   4.705 -0.3483  0.2591 -0.0796
    1SOL     OW11329   1.591   4.375   4.400  0.9828  0.1047  0.3671
    1SOL    HW211330   1.611   4.322   4.322  1.1980 -1.5446  1.5087
    1SOL    HW311331   1.500   4.353   4.421  1.4857 -0.8563  1.6225
    1SOL    MW411332   1.581   4.365   4.393  1.0774 -0.2394  0.6828
    1SOL     OW11333   3.071   2.001   4.091  0.3082  0.1848 -0.4542
    1SOL    HW211334   3.040   2.090   4.105 -1.3517 -0.5950  1.0025
    1SOL    HW311335   3.114   1.977   4.173  1.1680 -0.1982 -1.0068
    1SOL    MW411336   3.073   2.010   4.103  0.2027  0.0312 -0.3352
    1SOL     OW11337   3.584   1.099   4.107  0.3372  0.0592 -0.1861
    1SOL    HW211338   3.561   1.107   4.014  0.5531  0.7243 -0.1827
    1SOL    HW311339   3.525   1.160   4.151  0.8414  0.4009  0.0200
    1SOL    MW411340   3.573   1.108   4.100  0.4320  0.1920 -0.1583
    1SOL     OW11341   1.806   0.384   4.105 -0.1390 -0.3025  0.8950
    1SOL    HW211342   1.729   0.430   4.139  0.0898  1.0329 -0.3534
    1SOL    HW311343   1.804   0.298   4.148 -1.7555  0.0937  1.6315
    1SOL    MW411344   1.796   0.379   4.115 -0.3221 -0.0741  0.8273
    1SOL     OW11345   3.332   4.343   4.196 -0.4630 -0.6631  0.2911
    1SOL    HW211346   3.324   4.332   4.291 -2.1671 -2.5870 -0.0262
    1SOL    HW311347   3.316   4.436   4.181  2.2137  0.1173  2.0891
    1SOL    MW411348   3.329   4.354   4.207 -0.3347 -0.8140  0.4864
    1SOL     OW11349   2.501   0.494   4.227  0.0838  0.0396 -0.2963
    1SOL    HW211350   2.513   0.584   4.200 -1.2100  0.6472  1.0635
    1SOL    HW311351   2.430   0.461   4.172 -0.7554  0.4596  0.5234
    1SOL    MW411352   2.493   0.501   4.216 -0.1976  0.1752 -0.0086
    1SOL     OW11353   2.627   2.716   4.189 -0.0805  0.5611  0.0104
    1SOL    HW211354   2.565   2.784   4.215  0.1301  0.5779  0.4817
    1SOL    HW311355   2.590   2.635   4.225 -0.4480  0.3849 -0.7410
    1SOL    MW411356   2.614   2.714   4.197 -0.1011  0.5403 -0.0262
    1SOL     OW11357   2.465   1.319   4.290 -0.1576  0.1308 -0.1095
    1SOL    HW211358   2.552   1.290   4.262 -0.6981 -0.8497 -0.8157
    1SOL    HW311359   2.463   1.412   4.269  0.5573  0.0594 -0.5282
    1SOL    MW411360   2.476   1.327   4.283 -0.1345 -0.0081 -0.2575
    1SOL     OW11361   3.156   3.557   4.155  0.6022  0.0864  0.0422
    1SOL    HW211362   3.140   3.528   4.065  0.8982  1.5466 -0.5014
    1SOL    HW311363   3.073   3.594   4.184  0.8680  0.8192 -0.1109
    1SOL    MW411364   3.143   3.558   4.147  0.6762  0.3755 -0.0501
    1SOL     OW11365   3.560   3.918   4.553  0.4735  0.1980  0.1876
    1SOL    HW211366   3.574   3.938   4.461 -1.5742  0.5884 -0.0567
    1SOL    HW311367   3.642   3.944   4.596  1.5920 -0.3501 -1.5467
    1SOL    MW411368   3.573   3.924   4.547  0.3510  0.1774 -0.0739
    1SOL     OW11369   3.810   1.255   4.244  0.0244  0.5226  0.1443
    1SOL    HW211370   3.805   1.348   4.220  0.6311  0.5796  0.2173
    1SOL    HW311371   3.754   1.211   4.180  0.5073  0.8321 -0.5022
    1SOL    MW411372   3.802   1.261   4.232  0.1681  0.5709  0.0682
    1SOL     OW11373   3.151   1.639   4.263 -0.1926 -0.0304  0.4109
    1SOL    HW211374   3.065   1.620   4.226 -0.4981  0.2275  0.9655
    1SOL    HW311375   3.157   1.735   4.262 -0.3890  0.0019  1.4144
    1SOL    MW411376   3.141   1.649   4.258 -0.2589  0.0080  0.6166
    1SOL     OW11377   3.780   0.005   4.630 -0.3216  0.4259  0.1511
    1SOL    HW211378   3.809  -0.052   4.701 -0.1144  1.1249  0.6322
    1SOL    HW311379   3.830  -0.025   4.554  0.0134  0.1651  0.4707
    1SOL    MW411380   3.791  -0.006   4.629 -0.2499  0.4837  0.2565
    1SOL     OW11381   2.697   1.679   4.275  0.1362  0.0514 -0.0151
    1SOL    HW211382   2.627   1.624   4.239 -1.0325  1.5294 -0.0328
    1SOL    HW311383   2.690   1.668   4.369  1.6798 -1.9567 -0.0887
    1SOL    MW411384   2.687   1.670   4.282  0.1855 -0.0185 -0.0272
    1SOL     OW11385   4.272   0.537   4.282 -0.2772 -0.1903  0.5745
    1SOL    HW211386   4.268   0.619   4.233  0.4690 -0.6771 -0.3203
    1SOL    HW311387   4.220   0.475   4.230 -0.6424 -0.3539  1.1251
    1SOL    MW411388   4.264   0.539   4.269 -0.2270 -0.2761  0.5283
    1SOL     OW11389   4.196   0.229   4.668 -0.0429  0.2324  0.1262
    1SOL    HW211390   4.255   0.305   4.664 -0.4212  0.5168 -0.0801
    1SOL    HW311391   4.114   0.264   4.703 -0.7233  0.2401 -1.4200
    1SOL    MW411392   4.193   0.244   4.672 -0.1826  0.2709 -0.1049
    1SOL     OW11393   2.054   3.156   4.165  0.4507 -0.3509 -0.5006
    1SOL    HW211394   2.064   3.070   4.205  0.9070 -0.1506 -0.1840
    1SOL    HW311395   1.976   3.193   4.207  0.0260 -0.7662 -0.9209
    1SOL    MW411396   2.045   3.150   4.176  0.4549 -0.3793 -0.5145
    1SOL     OW11397   0.607   1.369   4.513 -0.2650 -0.1078 -0.6150
    1SOL    HW211398   0.638   1.452   4.551  0.0732 -0.7783  0.6194
    1SOL    HW311399   0.532   1.345   4.567 -0.2305 -0.7176 -0.8444
    1SOL    MW411400   0.601   1.377   4.525 -0.2159 -0.2767 -0.4826
    1SOL     OW11401   0.328   1.880   4.452 -0.1943  0.5150 -0.3892
    1SOL    HW211402   0.339   1.823   4.377  1.1502 -1.0160  0.9339
    1SOL    HW311403   0.289   1.824   4.519  0.8611  1.2251  0.8374
    1SOL    MW411404   0.324   1.865   4.451  0.1223  0.4067 -0.0525
    1SOL     OW11405   2.963   0.611   4.452 -0.2247  0.1160  0.5092
    1SOL    HW211406   3.016   0.679   4.493 -0.3347  0.7688 -0.4171
    1SOL    HW311407   2.885   0.604   4.507 -0.4347  1.0829  0.3443
    1SOL    MW411408   2.960   0.619   4.465 -0.2670  0.3297  0.3648
    1SOL     OW11409   3.335   0.740   4.077  0.5758 -0.1400 -0.2060
    1SOL    HW211410   3.340   0.648   4.103 -0.6533  0.0970  0.9378
    1SOL    HW311411   3.253   0.771   4.114  0.7745  1.3177 -0.9415
    1SOL    MW411412   3.325   0.732   4.086  0.4396  0.0834 -0.1521
    1SOL     OW11413   3.826   0.676   4.551 -0.2837  0.0262  0.0054
    1SOL    HW211414   3.896   0.724   4.507 -0.7265  0.0929 -0.6335
    1SOL    HW311415   3.746   0.712   4.513 -0.6911  0.5437  1.3407
    1SOL    MW411416   3.825   0.687   4.540 -0.3958  0.1031  0.0973
    1SOL     OW11417   2.457   2.331   3.840  0.0366 -0.3071 -0.0576
    1SOL    HW211418   2.423   2.322   3.929 -0.8637 -0.3579 -0.4011
    1SOL    HW311419   2.441   2.246   3.800  1.8437 -0.7854  0.2032
    1SOL    MW411420   2.450   2.319   3.847  0.1564 -0.3772 -0.0687
    1SOL     OW11421   2.268   4.534   4.602  0.0589  0.7259 -0.0320
    1SOL    HW211422   2.183   4.511   4.565  0.3121  1.1814 -0.9122
    1SOL    HW311423   2.257   4.521   4.696 -0.3690 -1.1498 -0.3235
    1SOL    MW411424   2.255   4.530   4.609  0.0358  0.5383 -0.1869
    1SOL     OW11425   3.382   1.255   4.518  0.0772  0.4667 -0.1555
    1SOL    HW211426   3.380   1.261   4.423 -0.9610  1.1395 -0.0928
    1SOL    HW311427   3.406   1.342   4.548 -0.6693  0.5494  0.2279
    1SOL    MW411428   3.385   1.267   4.509 -0.1583  0.5662 -0.0968
    1SOL     OW11429   3.109   0.060   4.267  0.0943  0.1908 -0.4346
    1SOL    HW211430   3.100   0.150   4.236  0.5964  0.4903  0.2650
    1SOL    HW311431   3.106   0.067   4.362  2.7857 -0.2119 -0.2712
    1SOL    MW411432   3.108   0.072   4.276  0.5157  0.1772 -0.3209
    1SOL     OW11433   2.693   3.484   4.156  0.7289  0.0891  0.2305
    1SOL    HW211434   2.775   3.530   4.174 -0.0235  1.0221  1.3618
    1SOL    HW311435   2.625   3.543   4.189 -0.4340 -0.4232 -1.1713
    1SOL    MW411436   2.695   3.498   4.163  0.4764  0.1445  0.1945
    1SOL     OW11437   1.087   3.858   4.097  0.1246  0.1706 -0.5480
    1SOL    HW211438   1.164   3.881   4.149  0.5222 -0.9465 -0.6417
    1SOL    HW311439   1.069   3.767   4.120 -1.9703  0.8058  0.4736
    1SOL    MW411440   1.095   3.849   4.107 -0.0994  0.1068 -0.4258
    1SOL     OW11441   0.340   0.563   4.529  0.4768  0.0276 -0.2160
    1SOL    HW211442   0.317   0.569   4.437  1.1394  0.1392 -0.3811
    1SOL    HW311443   0.270   0.512   4.569  0.5518 -0.6214 -0.9092
    1SOL    MW411444   0.328   0.557   4.522  0.5741 -0.0432 -0.3295
    1SOL     OW11445   0.674   2.018   4.219 -0.2564 -0.2863  0.1979
    1SOL    HW211446   0.745   1.978   4.169  1.2440  1.5997  0.7664
    1SOL    HW311447   0.665   2.106   4.182 -1.2246  0.0543  1.2066
    1SOL    MW411448   0.682   2.024   4.208 -0.1861  0.0074  0.4067
    1SOL     OW11449   0.406   2.755   4.129 -1.0022 -0.5537  0.1575
    1SOL    HW211450   0.396   2.732   4.037  1.8648  1.8664 -0.8375
    1SOL    HW311451   0.325   2.801   4.151 -1.1673 -0.0195 -1.5217
    1SOL    MW411452   0.394   2.758   4.120 -0.6458 -0.1636 -0.1955
    1SOL     OW11453   1.304   2.418   4.238  0.0837 -0.1167 -0.5206
    1SOL    HW211454   1.385   2.368   4.237  0.6264  0.7348  0.1709
    1SOL    HW311455   1.326   2.502   4.198 -0.7799 -0.3562 -1.5225
    1SOL    MW411456   1.317   2.422   4.233  0.0412 -0.0362 -0.5612
    1SOL     OW11457   2.871   2.882   4.626  0.2799  0.3668  0.2650
    1SOL    HW211458   2.822   2.807   4.660  1.8164  0.3097  2.4036
    1SOL    HW311459   2.855   2.880   4.531 -1.9446 -1.0052  0.6312
    1SOL    MW411460   2.862   2.872   4.618  0.1891  0.1781  0.5956
    1SOL     OW11461   2.711   0.966   4.236 -0.0626 -0.2656 -0.1903
    1SOL    HW211462   2.686   0.925   4.319  1.1698  0.4173  0.5176
    1SOL    HW311463   2.785   0.913   4.205  0.1876  0.1542 -0.3066
    1SOL    MW411464   2.717   0.953   4.243  0.1330 -0.1202 -0.1125
    1SOL     OW11465   0.059   4.643   4.499 -0.1728  0.5707 -0.3394
    1SOL    HW211466   0.093   4.713   4.556  0.0373  0.5990 -0.4981
    1SOL    HW311467   0.067   4.679   4.411  1.4766 -0.2867 -0.5636
    1SOL    MW411468   0.065   4.657   4.495  0.0726  0.4616 -0.3901
    1SOL     OW11469   0.030   3.238   4.536  0.2482 -0.5003 -0.3583
    1SOL    HW211470   0.103   3.178   4.552  0.1509 -0.3197  0.8008
    1SOL    HW311471   0.071   3.325   4.536 -0.0261 -0.3726  0.6682
    1SOL    MW411472   0.045   3.242   4.538  0.1992 -0.4597 -0.0696
    1SOL     OW11473   3.047   3.119   4.669 -0.0856 -0.2378 -0.3601
    1SOL    HW211474   3.136   3.085   4.675 -0.4192 -0.9410  0.6464
    1SOL    HW311475   2.994   3.044   4.642 -0.3475  0.2282 -1.1668
    1SOL    MW411476   3.052   3.105   4.666 -0.1643 -0.2692 -0.3338
    1SOL     OW11477   1.535   1.388   4.621 -0.3028 -0.1188 -0.1827
    1SOL    HW211478   1.537   1.360   4.713  1.9345 -0.6822 -0.3755
    1SOL    HW311479   1.549   1.308   4.571 -1.3430  0.2185 -1.0297
    1SOL    MW411480   1.537   1.374   4.627 -0.1448 -0.1487 -0.3200
    1SOL     OW11481   1.752   1.554   4.505 -0.1569 -0.5126 -0.0549
    1SOL    HW211482   1.669   1.514   4.533 -0.0323 -0.5509  0.2551
    1SOL    HW311483   1.747   1.644   4.539 -0.2496 -0.3929 -0.3853
    1SOL    MW411484   1.740   1.561   4.513 -0.1526 -0.5018 -0.0572
    1SOL     OW11485   4.056   1.896   4.149 -0.2849 -0.1067  0.3154
    1SOL    HW211486   3.989   1.955   4.184 -0.1685 -0.5125  1.2317
    1SOL    HW311487   4.041   1.813   4.193  0.9210 -0.1579  0.6564
    1SOL    MW411488   4.046   1.893   4.159 -0.1101 -0.1670  0.4811
    1SOL     OW11489   2.882   4.645   4.151 -0.0804  0.0175  0.2281
    1SOL    HW211490   2.963   4.672   4.194 -0.4100  0.2544  0.7108
    1SOL    HW311491   2.869   4.554   4.178  0.3740 -0.2371 -0.3921
    1SOL    MW411492   2.891   4.637   4.160 -0.0637  0.0153  0.2098
    1SOL     OW11493   0.614   0.514   4.588 -0.0284 -0.2707  0.3537
    1SOL    HW211494   0.524   0.541   4.571  0.0087 -1.6228 -2.3179
    1SOL    HW311495   0.609   0.419   4.597  0.8448 -0.1433  2.3419
    1SOL    MW411496   0.602   0.505   4.587  0.0917 -0.4323  0.2632
    1SOL     OW11497   1.797   4.449   4.595  0.2462  0.0749  0.1886
    1SOL    HW211498   1.723   4.435   4.536  0.6878 -0.5878 -0.2109
    1SOL    HW311499   1.778   4.533   4.638 -0.7806 -0.1421  0.1641
    1SOL    MW411500   1.785   4.458   4.593  0.1690 -0.0410  0.1330
    1SOL     OW11501   3.848   1.764   4.645  0.7871  0.1083 -0.3818
    1SOL    HW211502   3.870   1.857   4.641  0.4712  0.2236  0.4841
    1SOL    HW311503   3.790   1.756   4.721  1.0818 -0.8463 -0.2459
    1SOL    MW411504   3.844   1.775   4.655  0.7842 -0.0024 -0.2499
    1SOL     OW11505   4.280   2.597   4.644  0.0428 -0.0730  0.1030
    1SOL    HW211506   4.348   2.554   4.696  1.0284 -1.7593 -2.5007
    1SOL    HW311507   4.212   2.531   4.635  0.2756 -0.1037 -1.4709
    1SOL    MW411508   4.280   2.583   4.650  0.2031 -0.2995 -0.4482
    1SOL     OW11509   2.922   3.607   4.525 -0.1073  0.0493  0.0222
    1SOL    HW211510   2.950   3.516   4.525  0.6018  0.2609 -0.3540
    1SOL    HW311511   3.003   3.657   4.541 -0.2219  0.6916 -1.3508
    1SOL    MW411512   2.936   3.602   4.527 -0.0288  0.1621 -0.2084
    1SOL     OW11513   1.661   3.980   4.513 -0.2543  0.4740 -0.3142
    1SOL    HW211514   1.716   3.907   4.541 -0.1709  0.1051 -1.4227
    1SOL    HW311515   1.707   4.058   4.545 -1.5928 -0.0186  3.0589
    1SOL    MW411516   1.674   3.981   4.521 -0.4200  0.3607 -0.0157
    1SOL     OW11517   1.735   3.470   4.115 -0.0398 -0.2183 -0.0483
    1SOL    HW211518   1.741   3.506   4.026 -0.8185  0.1421  0.0394
    1SOL    HW311519   1.660   3.515   4.154  0.1306 -0.5741  0.7023
    1SOL    MW411520   1.726   3.481   4.108 -0.1200 -0.2174  0.0620
    1SOL     OW11521   1.269   1.815   4.586  0.0446 -0.1773  0.0182
    1SOL    HW211522   1.174   1.815   4.600 -0.2656 -0.1689 -1.9638
    1SOL    HW311523   1.291   1.723   4.570  0.2328 -0.0763 -0.3181
    1SOL    MW411524   1.259   1.803   4.586  0.0285 -0.1628 -0.2875
    1SOL     OW11525   2.149   2.278   4.716 -0.4590 -0.1203 -0.2643
    1SOL    HW211526   2.160   2.283   4.621  2.5106 -0.4686  0.0016
    1SOL    HW311527   2.196   2.354   4.750 -0.7617 -0.4673  0.9666
    1SOL    MW411528   2.157   2.288   4.708 -0.1073 -0.2120 -0.0672
    1SOL     OW11529   0.839   3.458   4.143  0.1066 -0.9345 -0.0720
    1SOL    HW211530   0.877   3.374   4.167 -2.1568 -2.0285 -0.1971
    1SOL    HW311531   0.837   3.457   4.047  0.3197 -0.6287 -0.0804
    1SOL    MW411532   0.844   3.447   4.134 -0.1639 -1.0388 -0.0892
    1SOL     OW11533   4.431   1.658   4.208  0.0890  0.1636  0.1788
    1SOL    HW211534   4.437   1.668   4.303  0.8210  0.9485  0.0647
    1SOL    HW311535   4.354   1.603   4.194  0.7638 -1.1035  1.2892
    1SOL    MW411536   4.422   1.652   4.219  0.2747  0.0998  0.3099
    1SOL     OW11537   3.982   3.128   4.521  0.1997  0.1143  0.3454
    1SOL    HW211538   4.060   3.102   4.570  0.5452  0.2658 -0.1285
    1SOL    HW311539   4.015   3.157   4.437 -0.3430  0.4948  0.2648
    1SOL    MW411540   3.997   3.128   4.517  0.1738  0.1845  0.2723
    1SOL     OW11541   3.152   2.460   4.249 -0.1957 -0.3268  0.3184
    1SOL    HW211542   3.148   2.452   4.344 -2.1748 -0.2783  0.2513
    1SOL    HW311543   3.099   2.387   4.216  0.2323 -0.1775 -0.7366
    1SOL    MW411544   3.145   2.449   4.257 -0.4003 -0.3009  0.1702
    1SOL     OW11545   0.032   4.254   4.144  0.2880  0.1718  0.2125
    1SOL    HW211546  -0.049   4.281   4.188 -0.0769  0.7661 -0.7862
    1SOL    HW311547   0.004   4.234   4.054  1.1219 -0.3769  0.0715
    1SOL    MW411548   0.018   4.255   4.138  0.3500  0.1779  0.0620
    1SOL     OW11549   1.965   2.441   4.170  0.0970  0.6009 -0.4206
    1SOL    HW211550   1.898   2.419   4.235  0.0494  0.0146 -0.6696
    1SOL    HW311551   2.044   2.457   4.221 -0.5576  2.6760  0.0095
    1SOL    MW411552   1.966   2.440   4.185  0.0044  0.7975 -0.3967
    1SOL     OW11553   0.901   0.395   4.094  0.3779  0.4718  0.3318
    1SOL    HW211554   0.976   0.435   4.139  0.4847  0.5210  0.1138
    1SOL    HW311555   0.825   0.419   4.147  0.7824 -1.5810  1.8567
    1SOL    MW411556   0.901   0.404   4.107  0.4453  0.2074  0.5045
    1NA      NA11557   3.141   4.058   0.407 -0.3579 -0.2426 -0.3504
    1NA      NA11558   0.892   2.439   0.703 -0.1932  0.0273  0.1671
   4.49070   4.66690  10.00000
