;
;	File 'topol.top' was generated
;	By user: root (1000)
;	On host: Cas2
;	At date: Sun Apr 13 09:22:49 2025
;
;	This is a standalone topology file
;
;	Created by:
;	                    :-) GROMACS - gmx pdb2gmx, 2020.3 (-:
;	
;	Executable:   /usr/local/gromacs/bin/gmx
;	Data prefix:  /usr/local/gromacs
;	Working dir:  /home/chemistry/MD/G_RNA
;	Command line:
;	  gmx pdb2gmx -f G_RNA.gro -ignh
;	Force field was read from the standard GROMACS share directory.
;

; Include forcefield parameters
#include "amber_na_desres.ff/forcefield.itp"

[ moleculetype ]
; Name            nrexcl
RNA                 3

[ atoms ]
;   nr       type  resnr residue  atom   cgnr     charge       mass  typeB    chargeB      massB
; residue   3 RG35 rtp RG35 q -2.0
     1          P      3   RG35      P      1     1.1662      30.97
     2    O2_case      3   RG35    O1P      2   -0.95337         16
     3    O2_case      3   RG35    O2P      3   -0.95337         16
     4    OS_case      3   RG35    O5'      4    -0.4989         16
     5         CI      3   RG35    C5'      5     0.0558      12.01
     6         H1      3   RG35   H5'1      6     0.0679      1.008
     7         H1      3   RG35   H5'2      7     0.0679      1.008
     8         CT      3   RG35    C4'      8     0.1065      12.01
     9         H1      3   RG35    H4'      9     0.1174      1.008
    10         OS      3   RG35    O4'     10    -0.3548         16
    11         CT      3   RG35    C1'     11     0.0191      12.01
    12         H2      3   RG35    H1'     12     0.2006      1.008
    13    N*_desA      3   RG35     N9     13     0.0492      14.01
    14    CK_desN      3   RG35     C8     14     0.1374      12.01
    15         H5      3   RG35     H8     15      0.164      1.008
    16    NB_desA      3   RG35     N7     16    -0.5709      14.01
    17    CB_desN      3   RG35     C5     17     0.1744      12.01
    18     C_desN      3   RG35     C6     18      0.477      13.00
    19          O      3   RG35     O6     19    -0.5597         16
    20    NA_desN      3   RG35     N1     20    -0.5606      14.01
    21      H_des      3   RG35     H1     21     0.4243      1.008
    22    CA_desN      3   RG35     C2     22     0.7657      12.01
    23    N2_desN      3   RG35     N2     23    -1.0158      14.01
    24      H_des      3   RG35    H21     24     0.4607      1.008
    25      H_des      3   RG35    H22     25     0.4607      1.008
    26    NC_desN      3   RG35     N3     26    -0.6323      14.01
    27    CB_desN      3   RG35     C4     27     0.1222      12.01
    28         CT      3   RG35    C3'     28     0.2022      12.01
    29         H1      3   RG35    H3'     29     0.0615      1.008
    30         CT      3   RG35    C2'     30      0.067      12.01
    31         H1      3   RG35   H2'1     31     0.0972      1.008
    32         OH      3   RG35    O2'     32    -0.6139         16
    33         HO      3   RG35   HO'2     33     0.4186      1.008
    34         OH      3   RG35    O3'     34    -0.6541         16
    35         HO      3   RG35    H3T     35     0.4376      1.008
    36    O2_case      3   RG35    O3P     36   -0.95337         16   ; qtot -2

[ bonds ]
;  ai    aj funct            c0            c1            c2            c3
    1     2     1 
    1     3     1 
    1     4     1 
    1    36     1 
    4     5     1 
    5     6     1 
    5     7     1 
    5     8     1 
    8     9     1 
    8    10     1 
    8    28     1 
   10    11     1 
   11    12     1 
   11    13     1 
   11    30     1 
   13    14     1 
   13    27     1 
   14    15     1 
   14    16     1 
   16    17     1 
   17    18     1 
   17    27     1 
   18    19     1 
   18    20     1 
   20    21     1 
   20    22     1 
   22    23     1 
   22    26     1 
   23    24     1 
   23    25     1 
   26    27     1 
   28    29     1 
   28    30     1 
   28    34     1 
   30    31     1 
   30    32     1 
   32    33     1 
   34    35     1 

[ pairs ]
;  ai    aj funct            c0            c1            c2            c3
    1     6     1 
    1     7     1 
    1     8     1 
    2     5     1 
    3     5     1 
    4     9     1 
    4    10     1 
    4    28     1 
    5    11     1 
    5    29     1 
    5    30     1 
    5    34     1 
    5    36     1 
    6     9     1 
    6    10     1 
    6    28     1 
    7     9     1 
    7    10     1 
    7    28     1 
    8    12     1 
    8    13     1 
    8    31     1 
    8    32     1 
    8    35     1 
    9    11     1 
    9    29     1 
    9    30     1 
    9    34     1 
   10    14     1 
   10    27     1 
   10    29     1 
   10    31     1 
   10    32     1 
   10    34     1 
   11    15     1 
   11    16     1 
   11    17     1 
   11    26     1 
   11    29     1 
   11    33     1 
   11    34     1 
   12    14     1 
   12    27     1 
   12    28     1 
   12    31     1 
   12    32     1 
   13    18     1 
   13    22     1 
   13    28     1 
   13    31     1 
   13    32     1 
   14    18     1 
   14    26     1 
   14    30     1 
   15    17     1 
   15    27     1 
   16    19     1 
   16    20     1 
   16    26     1 
   17    21     1 
   17    22     1 
   18    23     1 
   18    26     1 
   19    21     1 
   19    22     1 
   19    27     1 
   20    24     1 
   20    25     1 
   20    27     1 
   21    23     1 
   21    26     1 
   23    27     1 
   24    26     1 
   25    26     1 
   27    30     1 
   28    33     1 
   29    31     1 
   29    32     1 
   29    35     1 
   30    35     1 
   31    33     1 
   31    34     1 
   32    34     1 

[ angles ]
;  ai    aj    ak funct            c0            c1            c2            c3
    2     1     3     1 
    2     1     4     1 
    2     1    36     1 
    3     1     4     1 
    3     1    36     1 
    4     1    36     1 
    1     4     5     1 
    4     5     6     1 
    4     5     7     1 
    4     5     8     1 
    6     5     7     1 
    6     5     8     1 
    7     5     8     1 
    5     8     9     1 
    5     8    10     1 
    5     8    28     1 
    9     8    10     1 
    9     8    28     1 
   10     8    28     1 
    8    10    11     1 
   10    11    12     1 
   10    11    13     1 
   10    11    30     1 
   12    11    13     1 
   12    11    30     1 
   13    11    30     1 
   11    13    14     1 
   11    13    27     1 
   14    13    27     1 
   13    14    15     1 
   13    14    16     1 
   15    14    16     1 
   14    16    17     1 
   16    17    18     1 
   16    17    27     1 
   18    17    27     1 
   17    18    19     1 
   17    18    20     1 
   19    18    20     1 
   18    20    21     1 
   18    20    22     1 
   21    20    22     1 
   20    22    23     1 
   20    22    26     1 
   23    22    26     1 
   22    23    24     1 
   22    23    25     1 
   24    23    25     1 
   22    26    27     1 
   13    27    17     1 
   13    27    26     1 
   17    27    26     1 
    8    28    29     1 
    8    28    30     1 
    8    28    34     1 
   29    28    30     1 
   29    28    34     1 
   30    28    34     1 
   11    30    28     1 
   11    30    31     1 
   11    30    32     1 
   28    30    31     1 
   28    30    32     1 
   31    30    32     1 
   30    32    33     1 
   28    34    35     1 

[ dihedrals ]
;  ai    aj    ak    al funct            c0            c1            c2            c3            c4            c5
    2     1     4     5     9 
    3     1     4     5     9 
   36     1     4     5     9 
    1     4     5     6     9 
    1     4     5     7     9 
    1     4     5     8     9 
    4     5     8     9     9 
    4     5     8    10     9 
    4     5     8    28     9 
    6     5     8     9     9 
    6     5     8    10     9 
    6     5     8    28     9 
    7     5     8     9     9 
    7     5     8    10     9 
    7     5     8    28     9 
    5     8    10    11     9 
    9     8    10    11     9 
   28     8    10    11     9 
    5     8    28    29     9 
    5     8    28    30     9 
    5     8    28    34     9 
    9     8    28    29     9 
    9     8    28    30     9 
    9     8    28    34     9 
   10     8    28    29     9 
   10     8    28    30     9 
   10     8    28    34     9 
    8    10    11    12     9 
    8    10    11    13     9 
    8    10    11    30     9 
   10    11    13    14     9    torsion_RG_O4S_C1S_N9_C8_mult1
   10    11    13    14     9    torsion_RG_O4S_C1S_N9_C8_mult2
   10    11    13    14     9    torsion_RG_O4S_C1S_N9_C8_mult3
   10    11    13    14     9    torsion_RG_O4S_C1S_N9_C8_mult4
   10    11    13    27     9 
   12    11    13    14     9 
   12    11    13    27     9 
   30    11    13    14     9 
   30    11    13    27     9 
   10    11    30    28     9 
   10    11    30    31     9 
   10    11    30    32     9 
   12    11    30    28     9 
   12    11    30    31     9 
   12    11    30    32     9 
   13    11    30    28     9 
   13    11    30    31     9 
   13    11    30    32     9 
   11    13    14    15     9 
   11    13    14    16     9 
   27    13    14    15     9 
   27    13    14    16     9 
   11    13    27    17     9 
   11    13    27    26     9 
   14    13    27    17     9 
   14    13    27    26     9 
   13    14    16    17     9 
   15    14    16    17     9 
   14    16    17    18     9 
   14    16    17    27     9 
   16    17    18    19     9 
   16    17    18    20     9 
   27    17    18    19     9 
   27    17    18    20     9 
   16    17    27    13     9 
   16    17    27    26     9 
   18    17    27    13     9 
   18    17    27    26     9 
   17    18    20    21     9 
   17    18    20    22     9 
   19    18    20    21     9 
   19    18    20    22     9 
   18    20    22    23     9 
   18    20    22    26     9 
   21    20    22    23     9 
   21    20    22    26     9 
   20    22    23    24     9 
   20    22    23    25     9 
   26    22    23    24     9 
   26    22    23    25     9 
   20    22    26    27     9 
   23    22    26    27     9 
   22    26    27    13     9 
   22    26    27    17     9 
    8    28    30    11     9 
    8    28    30    31     9 
    8    28    30    32     9 
   29    28    30    11     9 
   29    28    30    31     9 
   29    28    30    32     9 
   34    28    30    11     9 
   34    28    30    31     9 
   34    28    30    32     9 
    8    28    34    35     9 
   29    28    34    35     9 
   30    28    34    35     9 
   11    30    32    33     9 
   28    30    32    33     9 
   31    30    32    33     9 

[ dihedrals ]
;  ai    aj    ak    al funct            c0            c1            c2            c3
   11    13    14    27     4 
   13    16    14    15     4 
   17    20    18    19     4 
   18    22    20    21     4 
   22    24    23    25     4 
   23    20    22    26     4 

; Include Position restraint file
#ifdef POSRES
#include "posre.itp"
#endif

; Include water topology
#include "amber_na_desres.ff/tip4pd.itp"

#ifdef POSRES_WATER
; Position restraint for each water oxygen
[ position_restraints ]
;  i funct       fcx        fcy        fcz
   1    1       1000       1000       1000
#endif

; Include topology for ions
#include "amber_na_desres.ff/ions.itp"

[ system ]
; Name
Gromacs Runs On Most of All Computer Systems in water

[ molecules ]
; Compound        #mols
RNA                 1
SOL              2880
NA                  2
