Gromacs Runs On Most of All Computer Systems in water
11622
    1U      O5'    1   1.386   2.393   5.067 -0.0315  0.1906 -1.0027
    1U      H5T    2   1.373   2.308   5.025  0.3154 -0.0303 -0.6653
    1U      C5'    3   1.285   2.481   5.024 -0.5515 -0.0550  0.2065
    1U     H5'1    4   1.275   2.569   5.089  0.4446  0.5098 -0.3847
    1U     H5'2    5   1.191   2.428   5.030 -0.3420 -0.6161 -1.3781
    1U      C4'    6   1.314   2.528   4.876  0.3139 -0.1961  0.4718
    1U      H4'    7   1.220   2.563   4.834  1.3509  0.8390 -1.0189
    1U      O4'    8   1.410   2.630   4.881  0.1481  0.0594  0.2004
    1U      C1'    9   1.491   2.628   4.762 -0.5549 -0.0300 -0.3730
    1U      H1'   10   1.492   2.727   4.718 -0.1874 -0.1266 -0.5861
    1U       N1   11   1.635   2.595   4.802 -0.4203 -0.5517  0.0849
    1U       C6   12   1.672   2.518   4.909  0.1273 -0.0981 -0.2140
    1U       H6   13   1.594   2.495   4.979  0.1526  1.2160  0.2622
    1U       C5   14   1.799   2.486   4.930  0.3976  0.2868 -0.0173
    1U       H5   15   1.822   2.432   5.020 -0.1641  0.0491 -0.0177
    1U       C4   16   1.904   2.534   4.849 -0.3663  0.3203 -0.2597
    1U       O4   17   2.021   2.494   4.845  0.5539  0.4753  0.5095
    1U       N3   18   1.865   2.622   4.753  0.2549  0.4007  0.0044
    1U       H3   19   1.938   2.674   4.705  1.3502 -0.3416  0.8337
    1U       C2   20   1.736   2.651   4.723  0.4590 -0.2320  0.4440
    1U       O2   21   1.708   2.734   4.629  0.2798  0.3649  0.6279
    1U      C3'   22   1.370   2.426   4.774 -0.3299  0.2456 -0.3524
    1U      H3'   23   1.459   2.377   4.814 -0.0313 -0.4101 -1.7862
    1U      C2'   24   1.434   2.519   4.670 -0.1046  0.1253 -0.1667
    1U     H2'1   25   1.506   2.472   4.604  0.0170  1.3405 -0.9183
    1U      O2'   26   1.339   2.593   4.587  0.0877 -0.0584 -0.4338
    1U     HO'2   27   1.266   2.536   4.564 -0.9752  0.6126  1.1775
    1U      O3'   28   1.280   2.332   4.715 -0.0882  0.1754 -0.4436
    2RG3      P   29   1.245   2.197   4.794 -0.1611  0.2910 -0.2934
    2RG3    O1P   30   1.102   2.205   4.821  0.3035 -0.1455  0.5720
    2RG3    O2P   31   1.347   2.186   4.904  0.1195 -0.0385  0.0848
    2RG3    O5'   32   1.274   2.075   4.697 -0.1513 -0.6812 -0.0897
    2RG3    C5'   33   1.241   1.937   4.732 -0.5138 -0.3404  0.0797
    2RG3   H5'1   34   1.238   1.875   4.643  0.0562 -1.9976  1.1948
    2RG3   H5'2   35   1.144   1.933   4.783 -0.1626  3.2476  1.1553
    2RG3    C4'   36   1.351   1.884   4.830 -0.1771 -0.8408 -0.1979
    2RG3    H4'   37   1.343   1.925   4.931 -0.0310 -2.3286  0.4294
    2RG3    O4'   38   1.323   1.744   4.843 -0.4206  0.8503 -0.0170
    2RG3    C1'   39   1.446   1.674   4.853 -0.3092 -0.1687  0.2869
    2RG3    H1'   40   1.447   1.610   4.941 -1.7355  0.4381  0.7555
    2RG3     N9   41   1.450   1.574   4.746 -0.3566  0.2854  0.2897
    2RG3     C8   42   1.375   1.573   4.633 -0.0725 -0.2500  0.2792
    2RG3     H8   43   1.305   1.650   4.605 -0.0710 -0.3909 -0.1175
    2RG3     N7   44   1.389   1.468   4.556  0.2413  0.1235 -0.4431
    2RG3     C5   45   1.482   1.390   4.626  0.4170 -0.0932  0.3403
    2RG3     C6   46   1.548   1.262   4.593 -0.1563  0.5902  0.2925
    2RG3     O6   47   1.545   1.189   4.493  0.0719 -0.1637 -0.3870
    2RG3     N1   48   1.641   1.221   4.684 -0.6380 -0.5306  0.6982
    2RG3     H1   49   1.683   1.131   4.668 -1.7077 -0.7405 -1.1400
    2RG3     C2   50   1.673   1.298   4.790 -0.2031  0.2522 -0.0799
    2RG3     N2   51   1.767   1.254   4.868  0.2382 -0.0767 -0.3582
    2RG3    H21   52   1.802   1.160   4.854 -1.3010 -0.9249  1.2539
    2RG3    H22   53   1.796   1.313   4.944 -1.0705 -0.4031  0.4176
    2RG3     N3   54   1.622   1.417   4.825 -0.4800 -0.4086 -0.5149
    2RG3     C4   55   1.518   1.455   4.743  0.4284  0.0706  0.3258
    2RG3    C3'   56   1.499   1.887   4.786 -0.3555  0.1468  0.5148
    2RG3    H3'   57   1.510   1.878   4.678 -0.9841 -0.0455  0.4663
    2RG3    C2'   58   1.561   1.767   4.857 -0.3989  0.0476 -0.6537
    2RG3   H2'1   59   1.644   1.719   4.803 -0.3597 -0.3216 -0.2713
    2RG3    O2'   60   1.592   1.790   4.989 -0.1553  0.0669 -0.0560
    2RG3   HO'2   61   1.637   1.874   4.998 -0.0928  0.0539 -0.2409
    2RG3    O3'   62   1.561   2.009   4.828  0.4412  0.3262 -0.2164
    2RG3    H3T   63   1.492   2.065   4.865 -1.5275 -1.7754 -0.5720
    3RG35     P   64   3.774   2.389   4.479  0.4530  0.1187  0.3643
    3RG35   O1P   65   3.829   2.374   4.612  0.2634 -0.2238  0.5381
    3RG35   O2P   66   3.876   2.361   4.377 -0.2985 -0.0953  0.3222
    3RG35   O5'   67   3.667   2.277   4.454 -0.1269  0.3265 -0.4517
    3RG35   C5'   68   3.530   2.279   4.505 -0.1092  0.2524 -0.2512
    3RG35  H5'1   69   3.487   2.189   4.462  2.5630 -1.3675  0.3005
    3RG35  H5'2   70   3.483   2.366   4.461  1.1697  0.6907 -0.7658
    3RG35   C4'   71   3.526   2.275   4.661  0.7692  0.0438  0.0521
    3RG35   H4'   72   3.568   2.368   4.699 -0.4111  0.3691  0.5963
    3RG35   O4'   73   3.390   2.263   4.708  0.5561 -0.2025 -0.3413
    3RG35   C1'   74   3.406   2.200   4.832  0.5898  0.7907 -0.4701
    3RG35   H1'   75   3.444   2.274   4.903  0.0058 -0.5350  1.2505
    3RG35    N9   76   3.269   2.149   4.879 -0.2762 -0.0613 -1.2999
    3RG35    C8   77   3.232   2.016   4.904  0.0145  0.0026 -0.1653
    3RG35    H8   78   3.302   1.937   4.924 -0.1305  0.2853  1.5542
    3RG35    N7   79   3.104   2.001   4.915 -0.1406 -0.7758 -0.2544
    3RG35    C5   80   3.049   2.128   4.895  0.3298  0.6498  0.3789
    3RG35    C6   81   2.911   2.174   4.900 -0.1979 -0.1961 -0.4663
    3RG35    O6   82   2.804   2.109   4.914 -0.4844  0.1882 -0.2011
    3RG35    N1   83   2.904   2.310   4.885  0.3765  0.6023 -0.0176
    3RG35    H1   84   2.810   2.349   4.885  0.2221  0.2399  1.1115
    3RG35    C2   85   3.011   2.389   4.865  0.1895 -0.5744 -0.3869
    3RG35    N2   86   2.977   2.511   4.824 -0.0041  0.1506  0.1345
    3RG35   H21   87   2.884   2.542   4.800  0.1390  0.6384  0.2014
    3RG35   H22   88   3.059   2.565   4.801 -0.4260  0.4161 -0.7937
    3RG35    N3   89   3.139   2.355   4.862 -0.1415 -0.4066  0.2439
    3RG35    C4   90   3.153   2.220   4.870 -0.2899 -0.1220 -0.3122
    3RG35   C3'   91   3.606   2.152   4.719  0.0805 -0.1827 -0.0105
    3RG35   H3'   92   3.635   2.070   4.653 -1.3257 -1.0222  0.4013
    3RG35   C2'   93   3.512   2.094   4.821  0.4328 -0.1248 -0.4525
    3RG35  H2'1   94   3.474   2.001   4.779 -0.8277 -0.5105  1.5301
    3RG35   O2'   95   3.576   2.065   4.943 -0.6034  0.6144  0.1554
    3RG35  HO'2   96   3.661   2.108   4.936 -0.8389  1.0947  0.2334
    3RG35   O3'   97   3.719   2.200   4.788 -0.2118 -0.1413  0.2180
    3RG35   H3T   98   3.759   2.259   4.723  0.9513 -1.1996 -0.0521
    3RG35   O3P   99   3.704   2.518   4.456  0.1436 -0.5345 -0.1942
    7SOL     OW  100   0.377   0.162   0.496  0.1899 -0.0602  0.0402
    7SOL    HW2  101   0.403   0.078   0.460 -0.8893  0.3198 -1.7012
    7SOL    HW3  102   0.444   0.224   0.465 -0.6542  0.2387 -1.2388
    7SOL    MW4  103   0.389   0.159   0.487 -0.0639  0.0294 -0.3583
    8SOL     OW  104   4.116   0.257   0.457 -0.0645 -0.3669 -0.1451
    8SOL    HW2  105   4.056   0.246   0.383 -0.2343 -1.5733  0.1572
    8SOL    HW3  106   4.198   0.285   0.417 -0.6138  0.5650 -0.6334
    8SOL    MW4  107   4.119   0.259   0.442 -0.1593 -0.4032 -0.1697
    9SOL     OW  108   3.748   0.514   0.229  0.1971 -0.2488  0.1751
    9SOL    HW2  109   3.821   0.529   0.289  1.7237 -0.6061 -1.5482
    9SOL    HW3  110   3.746   0.419   0.217 -0.5467 -0.2389  0.2096
    9SOL    MW4  111   3.757   0.503   0.235  0.3002 -0.2946 -0.0477
   10SOL     OW  112   0.058   1.784   0.502  0.1895  0.3395  0.0845
   10SOL    HW2  113   0.039   1.751   0.590  0.1469  0.5281  0.1457
   10SOL    HW3  114   0.118   1.720   0.465  1.5867  1.1801  0.8826
   10SOL    MW4  115   0.063   1.771   0.508  0.3682  0.4753  0.1979
   11SOL     OW  116   1.344   0.822   0.446 -0.1596  0.0179  0.3534
   11SOL    HW2  117   1.270   0.764   0.430  1.1277 -1.8068  0.9159
   11SOL    HW3  118   1.343   0.836   0.541 -0.5553  1.0468  0.2017
   11SOL    MW4  119   1.334   0.816   0.456 -0.0420 -0.0871  0.4076
   12SOL     OW  120   0.168   0.537   0.483  0.1080  0.1653 -0.3988
   12SOL    HW2  121   0.193   0.550   0.575 -0.6298  2.0693 -0.4295
   12SOL    HW3  122   0.159   0.443   0.474 -0.9896  0.0173  1.8149
   12SOL    MW4  123   0.170   0.526   0.494 -0.1342  0.3970 -0.1108
   13SOL     OW  124   0.444   0.962   0.485  0.4521  0.2792 -0.0244
   13SOL    HW2  125   0.467   0.960   0.578  0.4104  1.3613  0.0075
   13SOL    HW3  126   0.428   0.870   0.463  1.7337 -0.1357  0.7119
   13SOL    MW4  127   0.445   0.949   0.494  0.6157  0.3672  0.0770
   14SOL     OW  128   0.846   0.828   0.488  0.0677  0.3224  0.2952
   14SOL    HW2  129   0.870   0.878   0.566  1.9353  0.9720 -0.6666
   14SOL    HW3  130   0.923   0.774   0.469 -0.8301 -0.7456 -0.3868
   14SOL    MW4  131   0.859   0.827   0.496  0.1956  0.2672  0.0783
   15SOL     OW  132   0.712   1.088   0.398  0.0346  0.0342 -0.2607
   15SOL    HW2  133   0.637   1.028   0.400  0.6496 -0.8093 -1.9874
   15SOL    HW3  134   0.789   1.031   0.397  0.6340  0.8310 -1.5685
   15SOL    MW4  135   0.712   1.072   0.398  0.1948  0.0281 -0.6610
   16SOL     OW  136   0.051   1.630   0.112  0.1307 -0.1497 -0.5332
   16SOL    HW2  137  -0.019   1.576   0.148  0.0326 -0.8279 -1.7384
   16SOL    HW3  138   0.051   1.611   0.018  0.9563  0.9533 -0.7701
   16SOL    MW4  139   0.042   1.621   0.105  0.2266 -0.0937 -0.7235
   17SOL     OW  140   4.353   1.483   0.288 -0.0168  0.0229  0.0648
   17SOL    HW2  141   4.317   1.556   0.339  0.0282  0.0734  0.0255
   17SOL    HW3  142   4.420   1.445   0.346  0.0897  0.1297  0.0115
   17SOL    MW4  143   4.357   1.488   0.303  0.0029  0.0436  0.0526
   18SOL     OW  144   0.051   2.061   0.494  0.0381 -0.0568  0.0105
   18SOL    HW2  145   0.044   1.967   0.483 -0.4846 -0.1294  0.9308
   18SOL    HW3  146   0.083   2.093   0.409  0.3345 -1.0651 -0.2637
   18SOL    MW4  147   0.055   2.053   0.481  0.0083 -0.1993  0.0957
   19SOL     OW  148   0.079   2.164   0.236  0.0729  0.0382 -0.0214
   19SOL    HW2  149   0.031   2.085   0.213 -0.8282  0.4123  0.5507
   19SOL    HW3  150   0.171   2.136   0.242  0.2086 -0.2897 -2.9864
   19SOL    MW4  151   0.085   2.150   0.234 -0.0281  0.0446 -0.3371
   20SOL     OW  152   4.235   2.746   0.441  0.2833 -0.0932  0.5365
   20SOL    HW2  153   4.288   2.666   0.449  0.6921 -0.0176 -1.2765
   20SOL    HW3  154   4.282   2.800   0.378 -1.3535  0.4814 -0.2205
   20SOL    MW4  155   4.248   2.742   0.434  0.1206 -0.0074  0.1974
   21SOL     OW  156   0.145   3.442   0.221  0.2644  0.2398  0.5679
   21SOL    HW2  157   0.126   3.349   0.224 -1.7377  0.6398  1.1045
   21SOL    HW3  158   0.236   3.449   0.251 -0.5441 -1.2732  3.6231
   21SOL    MW4  159   0.155   3.431   0.226 -0.1064  0.0927  1.0418
   22SOL     OW  160   0.112   3.188   0.373 -0.0395  0.1121 -0.1233
   22SOL    HW2  161   0.185   3.130   0.392  0.1484  0.4242  0.1176
   22SOL    HW3  162   0.035   3.145   0.409  0.0442 -0.1549 -0.2627
   22SOL    MW4  163   0.111   3.175   0.380 -0.0037  0.1183 -0.1099
   23SOL     OW  164   0.434   3.736   0.401 -0.2454 -0.4310  0.0278
   23SOL    HW2  165   0.442   3.832   0.399  0.4034 -0.4957 -2.0996
   23SOL    HW3  166   0.524   3.704   0.396 -0.5983 -1.1211 -3.0438
   23SOL    MW4  167   0.447   3.745   0.400 -0.2064 -0.5307 -0.6581
   24SOL     OW  168   0.705   3.652   0.470  0.4358  0.0571 -0.6830
   24SOL    HW2  169   0.684   3.620   0.558 -0.3950  1.2587 -0.4251
   24SOL    HW3  170   0.739   3.576   0.424 -2.0625 -1.3809 -0.2712
   24SOL    MW4  171   0.707   3.638   0.476 -0.0035  0.0260 -0.5946
   25SOL     OW  172   3.910   3.402   0.338 -0.0006 -0.4158  0.1873
   25SOL    HW2  173   3.875   3.473   0.392 -0.9726 -1.8864  1.5837
   25SOL    HW3  174   3.846   3.331   0.350  0.5929 -1.2871 -1.7053
   25SOL    MW4  175   3.897   3.402   0.347 -0.0503 -0.7248  0.1219
   26SOL     OW  176   4.388   3.718   0.240 -0.3147  0.0945 -0.2584
   26SOL    HW2  177   4.383   3.811   0.261 -0.1361 -0.2292  1.2703
   26SOL    HW3  178   4.298   3.694   0.218 -0.2805  0.7234 -1.1126
   26SOL    MW4  179   4.375   3.727   0.240 -0.2866  0.1349 -0.1694
   27SOL     OW  180   0.216   4.568   0.559  0.3266 -0.0261 -0.0306
   27SOL    HW2  181   0.300   4.558   0.514 -0.8539 -0.1273 -2.2934
   27SOL    HW3  182   0.214   4.659   0.587  0.1902  0.6055 -2.0574
   27SOL    MW4  183   0.227   4.579   0.557  0.1529  0.0439 -0.5965
   28SOL     OW  184   4.380   4.299   0.246  0.0766 -0.3589  0.3681
   28SOL    HW2  185   4.409   4.312   0.156  0.5168  0.5492  0.6406
   28SOL    HW3  186   4.458   4.315   0.299 -0.3341 -0.2820  0.9473
   28SOL    MW4  187   4.394   4.302   0.241  0.0796 -0.2284  0.4805
   29SOL     OW  188   0.295   4.175   0.447 -0.0705 -0.1455 -0.5875
   29SOL    HW2  189   0.368   4.123   0.479 -0.9108 -1.3546 -0.6221
   29SOL    HW3  190   0.224   4.113   0.435 -0.6423  0.7596 -2.0644
   29SOL    MW4  191   0.295   4.160   0.450 -0.2568 -0.1855 -0.7869
   30SOL     OW  192   4.319   4.035   0.361 -0.3195  0.4721 -0.4731
   30SOL    HW2  193   4.343   4.114   0.313  0.1594  0.6375  0.0324
   30SOL    HW3  194   4.227   4.047   0.385  0.0024  1.2732  0.3805
   30SOL    MW4  195   4.310   4.047   0.358 -0.2136  0.5994 -0.2938
   31SOL     OW  196   0.675   4.353   0.298  0.0296 -0.2809 -0.4852
   31SOL    HW2  197   0.691   4.271   0.346  1.5424 -0.8244 -1.8777
   31SOL    HW3  198   0.583   4.347   0.272 -0.6191 -0.3195  1.6601
   31SOL    MW4  199   0.665   4.341   0.301  0.1436 -0.3576 -0.3859
   32SOL     OW  200   0.102   0.246   0.494  0.3131 -0.3661  0.0169
   32SOL    HW2  201   0.068   0.210   0.576  1.8702  0.7302  1.1664
   32SOL    HW3  202   0.189   0.206   0.484  0.0587 -0.6311 -1.1940
   32SOL    MW4  203   0.109   0.236   0.504  0.4850 -0.2564  0.0087
   33SOL     OW  204   4.391   0.629   0.485 -0.1081 -0.1161  0.1843
   33SOL    HW2  205   4.486   0.620   0.475 -0.0771  0.9321 -0.5211
   33SOL    HW3  206   4.365   0.688   0.415 -1.2344 -0.0805  0.6243
   33SOL    MW4  207   4.400   0.635   0.474 -0.2527  0.0269  0.1493
   34SOL     OW  208   0.966   4.332   0.321  0.2717  0.1923  0.0415
   34SOL    HW2  209   0.878   4.364   0.301 -0.5014 -1.9287 -0.0074
   34SOL    HW3  210   1.008   4.405   0.368 -1.2479  1.4746 -0.5599
   34SOL    MW4  211   0.960   4.346   0.324 -0.0308  0.0811 -0.0443
   35SOL     OW  212   1.121   0.673   0.398 -0.0605 -0.0424  0.3379
   35SOL    HW2  213   1.147   0.585   0.425  0.6431 -0.5622 -1.9689
   35SOL    HW3  214   1.098   0.665   0.306  0.4528  2.2798 -0.0335
   35SOL    MW4  215   1.121   0.661   0.389  0.1000  0.1954 -0.0155
   36SOL     OW  216   0.604   0.310   0.435 -0.4639  0.1904  0.0354
   36SOL    HW2  217   0.632   0.400   0.451  1.4156 -0.8423  2.8492
   36SOL    HW3  218   0.685   0.259   0.435 -1.5787 -1.6500 -0.5861
   36SOL    MW4  219   0.618   0.315   0.437 -0.3631 -0.1887  0.3246
   37SOL     OW  220   0.215   1.124   0.539  0.2210  0.0215 -0.0223
   37SOL    HW2  221   0.152   1.057   0.565  0.7212  0.2148  1.7131
   37SOL    HW3  222   0.282   1.075   0.491 -0.7399 -0.3216 -1.0499
   37SOL    MW4  223   0.215   1.108   0.536  0.1602  0.0018  0.0710
   38SOL     OW  224   0.451   1.649   0.485  0.5736  0.3901 -0.0875
   38SOL    HW2  225   0.518   1.615   0.425  1.5143  1.5496  0.2733
   38SOL    HW3  226   0.368   1.625   0.444  1.1598 -3.3607  0.7789
   38SOL    MW4  227   0.449   1.642   0.471  0.7751  0.0482  0.0744
   39SOL     OW  228   0.206   1.601   0.358 -0.0454  0.3219 -0.4357
   39SOL    HW2  229   0.164   1.519   0.384  0.6891 -0.0558 -0.4285
   39SOL    HW3  230   0.169   1.621   0.272 -0.7532  0.3592 -0.1259
   39SOL    MW4  231   0.195   1.593   0.350 -0.0419  0.2770 -0.3938
   40SOL     OW  232   0.349   2.129   0.265  0.1665 -0.4053  0.6725
   40SOL    HW2  233   0.419   2.190   0.288  0.6112 -1.1719  1.3923
   40SOL    HW3  234   0.363   2.054   0.323 -1.1009 -0.6761  0.6293
   40SOL    MW4  235   0.360   2.127   0.275  0.0579 -0.5422  0.7617
   41SOL     OW  236   0.074   2.447   0.306  0.0982  0.1116 -0.1771
   41SOL    HW2  237   0.165   2.465   0.281 -0.5490  0.6969 -2.1540
   41SOL    HW3  238   0.057   2.359   0.273 -0.7169  0.8381 -1.7551
   41SOL    MW4  239   0.084   2.438   0.298 -0.0947  0.2847 -0.6461
   42SOL     OW  240   3.920   2.016   0.268 -0.3149  0.6127 -0.2199
   42SOL    HW2  241   3.850   1.968   0.313  0.2935 -0.1897 -0.1188
   42SOL    HW3  242   3.897   2.010   0.175  0.8012 -1.6250 -0.3965
   42SOL    MW4  243   3.908   2.009   0.261 -0.0873  0.2117 -0.2298
   43SOL     OW  244   0.630   2.482   0.471  0.2885 -0.0130  0.3728
   43SOL    HW2  245   0.622   2.403   0.416  1.2253  0.1304  0.0119
   43SOL    HW3  246   0.725   2.494   0.481  0.1436  0.9040  0.6720
   43SOL    MW4  247   0.642   2.473   0.465  0.3930  0.1268  0.3646
   44SOL     OW  248   0.465   2.726   0.452  0.0224  0.4482 -0.1136
   44SOL    HW2  249   0.499   2.637   0.443 -0.8800  0.2365 -1.6754
   44SOL    HW3  250   0.543   2.781   0.463  0.6206 -0.4404  0.1500
   44SOL    MW4  251   0.479   2.721   0.452 -0.0177  0.3030 -0.2849
   45SOL     OW  252   4.384   3.093   0.520  0.2838  0.2444  0.5975
   45SOL    HW2  253   4.294   3.123   0.507  0.5882  0.0817 -2.2931
   45SOL    HW3  254   4.376   3.011   0.568 -0.9864  1.1275  1.9402
   45SOL    MW4  255   4.371   3.086   0.525  0.1559  0.3393  0.3933
   46SOL     OW  256   0.296   2.948   0.497  0.4425  0.1140 -0.2248
   46SOL    HW2  257   0.362   3.012   0.470  0.1720  0.9456  1.0426
   46SOL    HW3  258   0.341   2.864   0.493  1.0149  0.4595 -1.2005
   46SOL    MW4  259   0.311   2.945   0.492  0.4824  0.2694 -0.1863
   47SOL     OW  260   0.382   4.336   0.246 -0.2797 -0.0405 -0.4197
   47SOL    HW2  261   0.340   4.274   0.306  0.4270  0.2954  0.4350
   47SOL    HW3  262   0.373   4.296   0.160 -2.0860 -0.1095 -0.2107
   47SOL    MW4  263   0.376   4.322   0.242 -0.4248 -0.0052 -0.2793
   48SOL     OW  264   0.144   3.428   0.537 -0.1243  0.0089  0.3604
   48SOL    HW2  265   0.143   3.417   0.632 -0.2787 -1.0077  0.2485
   48SOL    HW3  266   0.123   3.341   0.502  0.5464  0.2234 -0.6132
   48SOL    MW4  267   0.141   3.415   0.545 -0.0562 -0.0968  0.2172
   49SOL     OW  268   0.884   3.876   0.500  0.0809  0.1601  0.0134
   49SOL    HW2  269   0.897   3.882   0.594  2.1220 -1.8967 -0.0705
   49SOL    HW3  270   0.815   3.811   0.489 -0.1908  0.4361  0.0902
   49SOL    MW4  271   0.877   3.868   0.511  0.3143 -0.0749  0.0125
   50SOL     OW  272   1.220   3.613   0.502 -0.5072  0.0562 -0.0888
   50SOL    HW2  273   1.150   3.643   0.444  1.3648 -0.2685 -2.6187
   50SOL    HW3  274   1.219   3.517   0.494  1.4580  0.1326 -1.7230
   50SOL    MW4  275   1.211   3.604   0.493 -0.0010  0.0231 -0.6381
   51SOL     OW  276   0.075   4.348   0.443  0.4977  0.2343  0.0037
   51SOL    HW2  277   0.138   4.287   0.481 -0.9240 -0.5231  1.2411
   51SOL    HW3  278   0.107   4.435   0.466  0.7477 -0.1618  1.1842
   51SOL    MW4  279   0.087   4.351   0.451  0.3431  0.0820  0.3227
   52SOL     OW  280   0.388   3.445   0.388  0.1749 -0.2447 -0.4492
   52SOL    HW2  281   0.423   3.534   0.397  0.7036 -0.5364  0.4448
   52SOL    HW3  282   0.302   3.448   0.430 -0.4600  0.2121 -1.7396
   52SOL    MW4  283   0.381   3.457   0.395  0.1609 -0.2229 -0.5015
   53SOL     OW  284   0.730   4.561   0.469 -0.1691  0.7884  0.2377
   53SOL    HW2  285   0.711   4.490   0.408  0.1404  1.6213 -0.8533
   53SOL    HW3  286   0.716   4.523   0.556  0.5094 -0.7368 -0.3131
   53SOL    MW4  287   0.725   4.547   0.473 -0.0388  0.6967  0.0210
   54SOL     OW  288   0.455   4.570   0.414 -0.2631  0.0564 -0.0542
   54SOL    HW2  289   0.549   4.572   0.432 -0.3116 -0.1020  0.2207
   54SOL    HW3  290   0.448   4.536   0.325  0.0258  1.6007 -0.6898
   54SOL    MW4  291   0.467   4.566   0.405 -0.2314  0.2394 -0.1018
   55SOL     OW  292   0.658   0.589   0.477 -0.3214 -0.1117 -0.3132
   55SOL    HW2  293   0.567   0.614   0.461 -0.1838  1.6526  1.5342
   55SOL    HW3  294   0.709   0.663   0.443  0.3956 -0.6765 -0.4812
   55SOL    MW4  295   0.653   0.602   0.470 -0.2086  0.0465 -0.0916
   56SOL     OW  296   0.400   0.675   0.419  0.3455 -0.0831  0.0533
   56SOL    HW2  297   0.313   0.640   0.436 -0.3828  1.4092 -0.5083
   56SOL    HW3  298   0.406   0.679   0.323  1.3568 -0.9655  0.0757
   56SOL    MW4  299   0.389   0.671   0.408  0.3828 -0.0026 -0.0179
   57SOL     OW  300   1.519   0.629   0.318 -0.1698 -0.1922  0.4203
   57SOL    HW2  301   1.462   0.703   0.341  0.7497  0.6044  0.1856
   57SOL    HW3  302   1.591   0.634   0.381  1.5227  1.0275 -1.5687
   57SOL    MW4  303   1.521   0.640   0.329  0.1746  0.0739  0.1269
   58SOL     OW  304   1.766   0.903   0.547  0.0512  0.3148  0.1944
   58SOL    HW2  305   1.732   0.816   0.526 -1.0429  0.9437 -0.6849
   58SOL    HW3  306   1.762   0.907   0.643 -0.4047 -0.4019  0.2114
   58SOL    MW4  307   1.761   0.892   0.557 -0.1533  0.3032  0.0806
   59SOL     OW  308   1.563   1.056   0.445 -0.0080  0.1040  0.1924
   59SOL    HW2  309   1.634   0.999   0.474  0.4382  0.2750 -0.5486
   59SOL    HW3  310   1.489   0.997   0.430 -0.6760  0.1612  2.9416
   59SOL    MW4  311   1.563   1.041   0.447 -0.0372  0.1343  0.4573
   60SOL     OW  312   0.643   1.550   0.314 -0.2274 -0.4058 -0.2411
   60SOL    HW2  313   0.673   1.504   0.392 -0.8515 -0.1950  0.1237
   60SOL    HW3  314   0.664   1.490   0.242 -0.6668 -1.0860  0.1887
   60SOL    MW4  315   0.650   1.536   0.315 -0.3678 -0.4678 -0.1363
   61SOL     OW  316   0.732   1.350   0.502  0.0782 -0.0882 -0.4476
   61SOL    HW2  317   0.716   1.268   0.455  0.0490  1.1767 -2.6715
   61SOL    HW3  318   0.827   1.356   0.509  0.0372 -1.1889  1.3297
   61SOL    MW4  319   0.742   1.340   0.497  0.0690 -0.0665 -0.5066
   62SOL     OW  320   1.830   1.407   0.375  0.6286 -0.0849 -0.1878
   62SOL    HW2  321   1.837   1.483   0.318 -0.7616  0.0455 -0.2152
   62SOL    HW3  322   1.821   1.444   0.463 -0.2816 -0.2101 -0.2267
   62SOL    MW4  323   1.830   1.422   0.379  0.3248 -0.0842 -0.1965
   63SOL     OW  324   1.012   1.399   0.488 -0.4248 -0.0200  0.5102
   63SOL    HW2  325   1.072   1.385   0.415  1.6970 -0.2568  2.2558
   63SOL    HW3  326   1.010   1.494   0.499 -1.7762  0.1054 -0.6640
   63SOL    MW4  327   1.020   1.410   0.479 -0.3231 -0.0348  0.5856
   64SOL     OW  328   1.005   1.665   0.541  0.4996  0.3807  0.0042
   64SOL    HW2  329   1.086   1.706   0.512  0.7591 -0.0827  0.0778
   64SOL    HW3  330   0.987   1.706   0.626 -0.2204  1.6757 -0.7575
   64SOL    MW4  331   1.013   1.676   0.549  0.4389  0.4904 -0.0866
   65SOL     OW  332   0.420   1.926   0.472 -0.1167  0.2767  0.2994
   65SOL    HW2  333   0.385   1.953   0.557  1.1892 -0.0071  0.9326
   65SOL    HW3  334   0.423   1.831   0.476  0.0693  0.2691 -0.0204
   65SOL    MW4  335   0.416   1.917   0.484  0.0802  0.2382  0.3408
   66SOL     OW  336   0.788   1.771   0.403 -0.2192  0.0967  0.0712
   66SOL    HW2  337   0.740   1.697   0.365  2.1894 -1.7299  0.4810
   66SOL    HW3  338   0.867   1.732   0.441  0.1879  2.6413  1.9786
   66SOL    MW4  339   0.792   1.756   0.403  0.1523  0.1915  0.3769
   67SOL     OW  340   0.902   2.485   0.510 -0.2337 -0.3378  0.2427
   67SOL    HW2  341   0.927   2.394   0.495 -1.4293 -0.4398 -1.3509
   67SOL    HW3  342   0.896   2.494   0.605 -1.3897 -2.2763  0.3673
   67SOL    MW4  343   0.904   2.474   0.520 -0.5440 -0.6070  0.0488
   68SOL     OW  344   0.670   2.021   0.483  0.1945  0.3700 -0.0162
   68SOL    HW2  345   0.712   1.943   0.448 -0.0107  0.3185 -0.1509
   68SOL    HW3  346   0.578   1.995   0.494  0.3987  0.1481  1.2536
   68SOL    MW4  347   0.663   2.007   0.480  0.1944  0.3340  0.1335
   69SOL     OW  348   1.066   2.709   0.446  0.3263 -0.3103 -0.3858
   69SOL    HW2  349   1.000   2.641   0.456 -0.7301  0.8457  0.7291
   69SOL    HW3  350   1.018   2.791   0.456  1.6396  0.5991 -1.3227
   69SOL    MW4  351   1.051   2.711   0.449  0.3604 -0.0379 -0.3623
   70SOL     OW  352   0.613   2.248   0.329  0.2903  0.0237  0.0759
   70SOL    HW2  353   0.636   2.162   0.365 -1.4537 -0.5330 -0.0768
   70SOL    HW3  354   0.672   2.260   0.255  0.5852 -1.0188  0.1317
   70SOL    MW4  355   0.623   2.238   0.324  0.0991 -0.1874  0.0631
   71SOL     OW  356   0.657   2.920   0.520  0.1280 -0.2166  0.5132
   71SOL    HW2  357   0.644   2.880   0.606  1.1826  0.4304  0.9831
   71SOL    HW3  358   0.619   3.007   0.528 -0.8458 -0.5924 -0.0479
   71SOL    MW4  359   0.651   2.926   0.533  0.1386 -0.1807  0.5011
   72SOL     OW  360   0.933   3.224   0.486 -0.0798  0.2426  0.2570
   72SOL    HW2  361   0.898   3.239   0.574 -0.5565 -0.9350  0.2716
   72SOL    HW3  362   0.859   3.242   0.427  0.1789  0.8203  0.0988
   72SOL    MW4  363   0.919   3.229   0.489 -0.1087  0.1633  0.2381
   73SOL     OW  364   1.426   3.807   0.413 -0.1830  0.3564 -0.0304
   73SOL    HW2  365   1.515   3.773   0.399 -0.0425  0.1412  1.3328
   73SOL    HW3  366   1.375   3.730   0.437 -0.6590  0.5397 -0.4552
   73SOL    MW4  367   1.431   3.792   0.414 -0.2272  0.3521  0.0934
   74SOL     OW  368   0.822   3.460   0.308  0.2615  0.7016  0.0731
   74SOL    HW2  369   0.803   3.420   0.223  0.6441 -1.2137  0.8585
   74SOL    HW3  370   0.904   3.508   0.294  0.9012 -0.5051 -0.3587
   74SOL    MW4  371   0.830   3.461   0.295  0.3964  0.2897  0.1198
   75SOL     OW  372   0.499   3.997   0.493  0.1022 -0.0424  0.1610
   75SOL    HW2  373   0.588   4.028   0.482 -0.0980  0.5799  0.3128
   75SOL    HW3  374   0.490   3.981   0.587 -0.1648  0.5548  0.2388
   75SOL    MW4  375   0.509   3.999   0.504  0.0406  0.1190  0.1912
   76SOL     OW  376   1.025   3.698   0.320  0.4091 -0.1908 -0.5157
   76SOL    HW2  377   1.086   3.746   0.263  1.9384 -0.7388  0.6016
   76SOL    HW3  378   0.972   3.766   0.361  1.3524  0.4260 -0.3002
   76SOL    MW4  379   1.026   3.713   0.318  0.7353 -0.1817 -0.3399
   77SOL     OW  380   1.220   0.413   0.461  0.3603  0.1585 -0.1375
   77SOL    HW2  381   1.175   0.332   0.434 -0.1724  0.4993 -0.2884
   77SOL    HW3  382   1.310   0.386   0.475 -0.2868 -0.9633  2.1037
   77SOL    MW4  383   1.226   0.399   0.459  0.2047  0.0555  0.1383
   78SOL     OW  384   0.857   0.168   0.485 -0.0689  0.5346  0.3568
   78SOL    HW2  385   0.822   0.082   0.462 -2.3192  1.0325  1.8084
   78SOL    HW3  386   0.880   0.160   0.577 -0.5940  1.5879  0.5824
   78SOL    MW4  387   0.855   0.156   0.494 -0.4351  0.7393  0.5781
   79SOL     OW  388   1.719   0.247   0.318 -0.4869 -0.0742 -0.4051
   79SOL    HW2  389   1.639   0.288   0.350 -1.1113 -2.9141  1.8918
   79SOL    HW3  390   1.689   0.190   0.246 -0.3066 -0.0170 -0.5256
   79SOL    MW4  391   1.705   0.245   0.313 -0.5455 -0.4413 -0.1179
   80SOL     OW  392   1.739   0.634   0.500 -0.1341 -0.2890  0.0402
   80SOL    HW2  393   1.828   0.614   0.473  0.0142 -0.1485  0.4258
   80SOL    HW3  394   1.725   0.580   0.578 -0.2167  0.0580  0.2643
   80SOL    MW4  395   1.749   0.624   0.507 -0.1254 -0.2246  0.1206
   81SOL     OW  396   1.138   0.128   0.482 -0.0822 -0.1345 -0.5794
   81SOL    HW2  397   1.048   0.157   0.470 -0.2861 -0.2364  0.6199
   81SOL    HW3  398   1.131   0.036   0.508  0.4020 -0.3395 -1.1586
   81SOL    MW4  399   1.125   0.120   0.484 -0.0452 -0.1750 -0.4976
   82SOL     OW  400   1.999   0.962   0.380  0.4017  0.5360  0.0603
   82SOL    HW2  401   1.930   0.933   0.439  1.6549 -0.8403  0.8944
   82SOL    HW3  402   1.960   0.958   0.293  0.2336 -2.8706  0.2307
   82SOL    MW4  403   1.985   0.958   0.377  0.5449 -0.0950  0.1928
   83SOL     OW  404   2.247   0.852   0.438  0.1073  0.2003 -0.1014
   83SOL    HW2  405   2.162   0.884   0.409 -1.0524 -2.9304 -0.2718
   83SOL    HW3  406   2.252   0.762   0.406  2.1448 -0.7301  2.6129
   83SOL    MW4  407   2.237   0.844   0.430  0.2232 -0.3355  0.2342
   84SOL     OW  408   2.035   1.230   0.459 -0.1852 -0.0244 -0.4128
   84SOL    HW2  409   2.021   1.139   0.435 -1.6493  0.0124  0.2177
   84SOL    HW3  410   1.951   1.272   0.444  0.1150  0.9420  0.5091
   84SOL    MW4  411   2.022   1.224   0.454 -0.3388  0.1080 -0.2080
   85SOL     OW  412   1.545   1.340   0.425 -0.3828 -0.1077 -0.2060
   85SOL    HW2  413   1.538   1.245   0.433  1.1850 -0.1502  0.8921
   85SOL    HW3  414   1.633   1.354   0.391 -0.0278  1.0151  1.1539
   85SOL    MW4  415   1.556   1.329   0.421 -0.1291  0.0348  0.1183
   86SOL     OW  416   1.294   1.414   0.321 -0.4112  0.9277  0.1634
   86SOL    HW2  417   1.375   1.380   0.358  0.1840  1.2224 -0.8415
   86SOL    HW3  418   1.286   1.370   0.236 -0.9549  1.3842 -0.0302
   86SOL    MW4  419   1.304   1.404   0.315 -0.4044  1.0269  0.0052
   87SOL     OW  420   1.264   1.690   0.434  0.3528 -0.0963 -0.2736
   87SOL    HW2  421   1.294   1.665   0.522  0.7398  1.4441  0.0546
   87SOL    HW3  422   1.270   1.610   0.383 -0.1634 -1.0797  1.1909
   87SOL    MW4  423   1.269   1.676   0.439  0.3358 -0.0229 -0.0371
   88SOL     OW  424   1.217   2.192   0.449 -0.4268  0.3793 -0.3625
   88SOL    HW2  425   1.275   2.266   0.467 -1.3322  0.8737  0.6256
   88SOL    HW3  426   1.197   2.157   0.536 -0.3517 -0.7556 -0.8052
   88SOL    MW4  427   1.222   2.197   0.463 -0.5363  0.2949 -0.2905
   89SOL     OW  428   1.316   2.642   0.370 -0.2630  0.0571 -0.2708
   89SOL    HW2  429   1.228   2.664   0.402 -0.8142 -1.6770 -0.5299
   89SOL    HW3  430   1.313   2.662   0.277 -0.1752  0.5765 -0.1667
   89SOL    MW4  431   1.304   2.648   0.362 -0.3241 -0.1030 -0.2913
   90SOL     OW  432   2.138   2.239   0.498  0.3394  0.0988 -0.2431
   90SOL    HW2  433   2.181   2.280   0.573  1.1002 -0.6721 -0.2393
   90SOL    HW3  434   2.184   2.155   0.488 -1.7544 -1.1680  0.3231
   90SOL    MW4  435   2.150   2.233   0.507  0.1638 -0.1698 -0.1678
   91SOL     OW  436   1.633   2.093   0.496  0.2696  0.3120  0.1565
   91SOL    HW2  437   1.705   2.029   0.490  0.8346  1.0708 -1.4708
   91SOL    HW3  438   1.561   2.053   0.447  0.3188  0.5105 -0.0806
   91SOL    MW4  439   1.633   2.079   0.489  0.3507  0.4385 -0.0895
   92SOL     OW  440   0.921   2.241   0.392 -0.5813 -0.1683  0.3332
   92SOL    HW2  441   1.013   2.229   0.368 -0.5460  0.7668 -0.0390
   92SOL    HW3  442   0.884   2.153   0.391 -0.1974 -0.3301 -1.6202
   92SOL    MW4  443   0.929   2.228   0.389 -0.5260 -0.0660  0.0263
   93SOL     OW  444   0.922   2.946   0.524 -0.2564 -0.1065  0.2090
   93SOL    HW2  445   0.827   2.936   0.513 -0.2415  0.3622 -0.3038
   93SOL    HW3  446   0.942   3.032   0.487  0.4487 -0.4233 -0.1490
   93SOL    MW4  447   0.912   2.956   0.518 -0.1613 -0.0865  0.0941
   94SOL     OW  448   1.923   2.406   0.362  0.1587 -0.1275  0.3894
   94SOL    HW2  449   1.958   2.467   0.296 -1.5933  0.4968  0.0049
   94SOL    HW3  450   2.000   2.365   0.400  1.2478  0.0919 -1.5106
   94SOL    MW4  451   1.937   2.409   0.358  0.0713 -0.0160  0.0880
   95SOL     OW  452   1.872   3.886   0.596  0.0290 -0.5089 -0.5958
   95SOL    HW2  453   1.927   3.941   0.540 -0.9385  0.9123 -0.1954
   95SOL    HW3  454   1.931   3.818   0.628  0.8388 -0.7269 -2.4936
   95SOL    MW4  455   1.887   3.884   0.593  0.0081 -0.3502 -0.7933
   96SOL     OW  456   1.308   4.063   0.488  0.0030  0.0829  0.1452
   96SOL    HW2  457   1.352   3.986   0.452  0.9191  1.0400 -0.8431
   96SOL    HW3  458   1.228   4.071   0.436 -1.4467 -1.7104  2.0019
   96SOL    MW4  459   1.303   4.054   0.476 -0.0672 -0.0272  0.2597
   97SOL     OW  460   1.842   2.960   0.472 -0.5795 -0.0351 -0.3584
   97SOL    HW2  461   1.763   2.910   0.453  0.5569 -1.4853 -1.4251
   97SOL    HW3  462   1.813   3.051   0.476 -2.2829 -0.5470 -0.8139
   97SOL    MW4  463   1.828   2.965   0.470 -0.6542 -0.2940 -0.5592
   98SOL     OW  464   1.832   3.578   0.223  0.4389 -0.6572 -0.4553
   98SOL    HW2  465   1.882   3.503   0.256  0.6541 -1.1937 -1.9322
   98SOL    HW3  466   1.836   3.569   0.128 -1.5782 -0.0932 -0.6180
   98SOL    MW4  467   1.839   3.567   0.215  0.2010 -0.6535 -0.6716
   99SOL     OW  468   1.232   3.333   0.498 -0.3289  0.0405  0.0883
   99SOL    HW2  469   1.267   3.282   0.571  0.5598  2.7302  1.6413
   99SOL    HW3  470   1.143   3.300   0.486  0.7287 -2.9337 -0.0728
   99SOL    MW4  471   1.225   3.322   0.506 -0.0721  0.0029  0.2719
  100SOL     OW  472   1.524   3.366   0.463 -0.3030 -0.2101 -0.6330
  100SOL    HW2  473   1.434   3.347   0.438 -0.8907  0.8597  0.6574
  100SOL    HW3  474   1.541   3.453   0.428  0.2015 -0.3641 -0.7787
  100SOL    MW4  475   1.515   3.375   0.455 -0.3140 -0.0894 -0.4819
  101SOL     OW  476   0.730   4.127   0.476 -0.3160  0.4886 -0.1831
  101SOL    HW2  477   0.773   4.186   0.537 -0.5178  0.0528  0.3822
  101SOL    HW3  478   0.785   4.049   0.475 -0.8788  0.0847  0.2403
  101SOL    MW4  479   0.743   4.125   0.484 -0.4169  0.3777 -0.0527
  102SOL     OW  480   2.140   4.494   0.433  0.0098 -0.0037 -0.0473
  102SOL    HW2  481   2.117   4.499   0.341 -2.2605  1.4554  0.5724
  102SOL    HW3  482   2.069   4.444   0.473  0.6159 -0.0250  1.0198
  102SOL    MW4  483   2.128   4.488   0.426 -0.2098  0.1864  0.1753
  103SOL     OW  484   1.929   4.282   0.492 -0.0382  0.5428 -0.2215
  103SOL    HW2  485   1.835   4.269   0.505 -0.2282  1.4529 -0.7071
  103SOL    HW3  486   1.958   4.200   0.451 -1.0014  1.0681 -2.0039
  103SOL    MW4  487   1.920   4.269   0.488 -0.1905  0.7324 -0.5207
  104SOL     OW  488   1.936   0.242   0.485  0.0843  0.1953 -0.3416
  104SOL    HW2  489   1.858   0.251   0.430 -0.3061  2.6593  0.5853
  104SOL    HW3  490   1.902   0.230   0.574  0.7511  0.7414 -0.0053
  104SOL    MW4  491   1.921   0.241   0.490  0.1208  0.5924 -0.1749
  105SOL     OW  492   1.498   0.391   0.454 -0.0475 -0.2718 -0.0409
  105SOL    HW2  493   1.540   0.425   0.533  1.2034 -0.9768 -0.3846
  105SOL    HW3  494   1.499   0.465   0.393 -1.8447  0.5543  0.8950
  105SOL    MW4  495   1.504   0.405   0.456 -0.1196 -0.2558  0.0373
  106SOL     OW  496   2.318   0.543   0.446  0.1690  0.3117 -0.4155
  106SOL    HW2  497   2.343   0.454   0.424  0.7598  0.4712 -0.4007
  106SOL    HW3  498   2.357   0.558   0.532 -0.3083  0.4276 -0.2203
  106SOL    MW4  499   2.327   0.533   0.454  0.1841  0.3481 -0.3878
  107SOL     OW  500   2.517   1.306   0.491 -0.3775 -0.0536  0.1709
  107SOL    HW2  501   2.429   1.344   0.487 -0.1445  0.4387 -0.4351
  107SOL    HW3  502   2.505   1.215   0.463 -0.4038  0.5342 -1.8303
  107SOL    MW4  503   2.504   1.299   0.487 -0.3500  0.0890 -0.1731
  108SOL     OW  504   2.732   1.279   0.159  0.6456  0.2728  0.2830
  108SOL    HW2  505   2.695   1.333   0.229 -1.7336  0.5750 -1.1565
  108SOL    HW3  506   2.811   1.326   0.131 -1.0140  2.6968 -0.4908
  108SOL    MW4  507   2.737   1.292   0.165  0.1128  0.6325 -0.0090
  109SOL     OW  508   2.248   1.414   0.489  0.0655  0.2753 -0.0389
  109SOL    HW2  509   2.172   1.359   0.469  0.4089 -0.2851  0.1827
  109SOL    HW3  510   2.240   1.432   0.582 -0.1862  0.8093 -0.1678
  109SOL    MW4  511   2.237   1.409   0.499  0.0775  0.2718 -0.0267
  110SOL     OW  512   2.682   1.478   0.332  0.2679  0.1079  0.3436
  110SOL    HW2  513   2.643   1.563   0.310 -0.4135 -0.4003 -0.4556
  110SOL    HW3  514   2.625   1.441   0.399  0.3656  0.1301  0.4388
  110SOL    MW4  515   2.669   1.484   0.338  0.1907  0.0439  0.2507
  111SOL     OW  516   2.255   1.696   0.437  0.3553 -0.3805  0.0223
  111SOL    HW2  517   2.260   1.601   0.428 -0.8679 -0.4395 -0.1442
  111SOL    HW3  518   2.161   1.715   0.445  0.3448  1.0676 -2.7639
  111SOL    MW4  519   2.243   1.686   0.437  0.1926 -0.1973 -0.3673
  112SOL     OW  520   1.914   2.016   0.562 -0.1530  0.4623 -0.1245
  112SOL    HW2  521   1.938   2.107   0.544  2.3651 -0.1407  0.0278
  112SOL    HW3  522   1.951   1.999   0.649 -0.1163 -0.8634 -0.3925
  112SOL    MW4  523   1.922   2.026   0.571  0.1842  0.2079 -0.1398
  113SOL     OW  524   2.152   2.625   0.522 -0.5150 -0.8840  0.0935
  113SOL    HW2  525   2.244   2.649   0.516 -0.5816 -0.4424  0.7820
  113SOL    HW3  526   2.150   2.549   0.579 -0.5145 -1.3068 -0.4607
  113SOL    MW4  527   2.164   2.618   0.529 -0.5238 -0.8817  0.1112
  114SOL     OW  528   1.800   3.243   0.467  0.2596 -0.2078 -0.3739
  114SOL    HW2  529   1.861   3.305   0.428  1.3429 -0.2429  1.2452
  114SOL    HW3  530   1.715   3.287   0.461  0.9850  1.4120  0.6119
  114SOL    MW4  531   1.796   3.257   0.461  0.4983  0.0014 -0.0302
  115SOL     OW  532   1.564   2.740   0.473 -0.1757  0.1344  0.5364
  115SOL    HW2  533   1.480   2.708   0.442 -0.1463 -0.7088  1.3195
  115SOL    HW3  534   1.556   2.742   0.569  1.3441 -1.8508  0.7478
  115SOL    MW4  535   1.552   2.736   0.482  0.0286 -0.2387  0.6676
  116SOL     OW  536   1.352   2.968   0.520  0.3984  0.0889  0.6138
  116SOL    HW2  537   1.441   2.934   0.508  0.8627  1.1835  0.8522
  116SOL    HW3  538   1.295   2.893   0.506  1.2908 -0.3380 -0.8880
  116SOL    MW4  539   1.356   2.954   0.516  0.5773  0.1769  0.4470
  117SOL     OW  540   1.389   1.972   0.423 -0.4710 -0.8418 -0.3942
  117SOL    HW2  541   1.329   2.046   0.432  0.5367 -0.1560  0.8774
  117SOL    HW3  542   1.332   1.898   0.401 -1.3468  0.5558 -3.1221
  117SOL    MW4  543   1.373   1.972   0.421 -0.4536 -0.5668 -0.5864
  118SOL     OW  544   3.738   1.889   0.426  0.4008  0.7295 -0.1788
  118SOL    HW2  545   3.795   1.910   0.500  1.1952 -1.5783 -0.0931
  118SOL    HW3  546   3.659   1.941   0.441  0.5926  0.3796  2.2446
  118SOL    MW4  547   3.735   1.899   0.438  0.5312  0.3788  0.1523
  119SOL     OW  548   1.842   2.642   0.511 -0.0375 -0.3377  0.1229
  119SOL    HW2  549   1.747   2.643   0.500  0.1798  0.6822 -1.9326
  119SOL    HW3  550   1.870   2.559   0.471  0.0293 -0.2436 -0.0233
  119SOL    MW4  551   1.833   2.631   0.504  0.0000 -0.1907 -0.1676
  120SOL     OW  552   1.388   2.401   0.492 -0.0829  0.1036  0.5011
  120SOL    HW2  553   1.483   2.406   0.485 -0.0663  0.2286  0.8166
  120SOL    HW3  554   1.355   2.465   0.429  0.0459  0.3116  0.6467
  120SOL    MW4  555   1.396   2.410   0.482 -0.0638  0.1473  0.5619
  121SOL     OW  556   1.236   3.841   0.184 -0.5328 -0.0274 -0.0850
  121SOL    HW2  557   1.192   3.918   0.220  0.1811 -0.3195  1.4228
  121SOL    HW3  558   1.313   3.829   0.239  0.0285 -1.0924 -1.0813
  121SOL    MW4  559   1.241   3.850   0.196 -0.3645 -0.2062 -0.0175
  122SOL     OW  560   2.203   3.243   0.442  0.0008 -0.3813 -0.2845
  122SOL    HW2  561   2.275   3.280   0.391  0.6305 -2.1596 -0.7083
  122SOL    HW3  562   2.229   3.253   0.533  0.2095  0.1132 -0.3968
  122SOL    MW4  563   2.216   3.249   0.447  0.1113 -0.5507 -0.3552
  123SOL     OW  564   1.990   3.788   0.267  0.0962  0.7299 -0.0698
  123SOL    HW2  565   1.925   3.718   0.268 -1.0166  1.7569  0.3311
  123SOL    HW3  566   2.060   3.757   0.324  0.2705 -0.6619 -1.0263
  123SOL    MW4  567   1.991   3.775   0.275 -0.0277  0.6819 -0.1431
  124SOL     OW  568   1.113   4.511   0.488 -0.2213  0.3996 -0.0848
  124SOL    HW2  569   1.200   4.471   0.478  0.3566  1.2347  1.4722
  124SOL    HW3  570   1.076   4.467   0.565 -1.1092  0.1863 -0.6310
  124SOL    MW4  571   1.120   4.500   0.497 -0.2623  0.4816  0.0486
  125SOL     OW  572   1.362   4.347   0.509 -0.0313 -0.0626 -0.2580
  125SOL    HW2  573   1.398   4.359   0.597 -0.4776  0.3656 -0.1350
  125SOL    HW3  574   1.351   4.252   0.501  0.7868 -0.1743 -0.1681
  125SOL    MW4  575   1.365   4.336   0.520  0.0178 -0.0210 -0.2300
  126SOL     OW  576   1.079   4.062   0.343  0.2174  0.0238 -0.1352
  126SOL    HW2  577   1.016   4.027   0.405  1.0068 -1.6028 -0.2274
  126SOL    HW3  578   1.044   4.148   0.319 -1.1656 -0.2190  0.9475
  126SOL    MW4  579   1.066   4.069   0.348  0.1392 -0.2227 -0.0046
  127SOL     OW  580   2.405   0.282   0.411 -0.1883  0.2640  0.5829
  127SOL    HW2  581   2.473   0.217   0.392 -0.8485  0.1675 -1.5334
  127SOL    HW3  582   2.329   0.229   0.437 -0.3313  0.2348  0.1141
  127SOL    MW4  583   2.404   0.266   0.412 -0.2942  0.2474  0.2418
  128SOL     OW  584   2.182   0.118   0.468 -0.2668 -0.0654 -0.0390
  128SOL    HW2  585   2.176   0.023   0.476 -0.1003  0.0367  1.4359
  128SOL    HW3  586   2.091   0.147   0.462 -0.3490 -0.2705  0.1985
  128SOL    MW4  587   2.169   0.110   0.468 -0.2553 -0.0790  0.1869
  129SOL     OW  588   2.899   0.949   0.354  0.1151  0.2148  0.3932
  129SOL    HW2  589   2.832   0.964   0.288 -2.1169  1.0637  2.7697
  129SOL    HW3  590   2.907   1.032   0.401  1.8539 -0.2754  1.0426
  129SOL    MW4  591   2.891   0.962   0.351  0.0501  0.2621  0.7925
  130SOL     OW  592   2.692   4.559   0.531 -0.4205 -0.5492  0.4110
  130SOL    HW2  593   2.695   4.622   0.604 -0.1052  0.3158 -0.3359
  130SOL    HW3  594   2.781   4.526   0.525 -0.7487 -1.6627  1.2886
  130SOL    MW4  595   2.704   4.563   0.540 -0.4220 -0.5817  0.4283
  131SOL     OW  596   3.263   0.646   0.242 -0.2900 -0.0604 -0.9321
  131SOL    HW2  597   3.245   0.552   0.240  1.0706 -0.3735  0.6495
  131SOL    HW3  598   3.352   0.654   0.210  0.5399  0.4076  1.4059
  131SOL    MW4  599   3.272   0.634   0.238 -0.0012 -0.0400 -0.4150
  132SOL     OW  600   3.177   0.990   0.383  0.2370 -0.2655  0.3612
  132SOL    HW2  601   3.213   1.079   0.381 -0.2398 -0.0849 -0.4725
  132SOL    HW3  602   3.093   0.997   0.338  0.6960 -1.3472 -0.6863
  132SOL    MW4  603   3.171   1.003   0.377  0.2346 -0.3843  0.1130
  133SOL     OW  604   2.869   1.185   0.505  0.1413  0.4833  0.1865
  133SOL    HW2  605   2.885   1.279   0.495 -0.0938  0.4333 -0.6335
  133SOL    HW3  606   2.944   1.153   0.556  0.5945  0.9779 -0.1715
  133SOL    MW4  607   2.881   1.193   0.511  0.1700  0.5419  0.0310
  134SOL     OW  608   2.530   1.704   0.425 -0.2839  0.6363 -0.1333
  134SOL    HW2  609   2.436   1.711   0.442  0.0757  1.3483  1.6054
  134SOL    HW3  610   2.571   1.707   0.511  1.3423  0.3341 -0.8748
  134SOL    MW4  611   2.523   1.706   0.438 -0.0219  0.6903 -0.0017
  135SOL     OW  612   2.623   0.550   0.464  0.1700  0.0116 -0.0146
  135SOL    HW2  613   2.575   0.534   0.383 -0.4096  1.3218  0.0704
  135SOL    HW3  614   2.630   0.645   0.471  3.5583 -0.1214 -0.4694
  135SOL    MW4  615   2.618   0.560   0.454  0.5407  0.1669 -0.0634
  136SOL     OW  616   2.264   1.994   0.471  0.4289  0.1990 -0.1185
  136SOL    HW2  617   2.222   1.913   0.441 -0.5120  1.1306 -1.3725
  136SOL    HW3  618   2.338   2.006   0.411  1.6531 -0.6724  1.1904
  136SOL    MW4  619   2.268   1.985   0.459  0.4666  0.2069 -0.1113
  137SOL     OW  620   1.986   1.749   0.481 -0.3642 -0.2589  0.2159
  137SOL    HW2  621   1.947   1.691   0.546 -0.4696  0.6330  0.9453
  137SOL    HW3  622   1.964   1.837   0.510  2.3250  0.2876  0.7435
  137SOL    MW4  623   1.978   1.753   0.493 -0.0232 -0.0691  0.3818
  138SOL     OW  624   2.520   2.015   0.351 -0.2192  0.2244 -0.3354
  138SOL    HW2  625   2.559   1.930   0.368 -0.9176  0.3435  2.0697
  138SOL    HW3  626   2.587   2.078   0.375 -0.4172  0.3734 -0.1677
  138SOL    MW4  627   2.534   2.012   0.356 -0.3374  0.2601  0.0041
  139SOL     OW  628   2.700   2.209   0.438  0.2875 -0.1609 -0.2005
  139SOL    HW2  629   2.681   2.303   0.446  0.5207  0.0509 -2.0650
  139SOL    HW3  630   2.768   2.193   0.504  1.8730  1.4525 -1.3827
  139SOL    MW4  631   2.706   2.219   0.448  0.5274  0.0799 -0.6025
  140SOL     OW  632   2.434   2.696   0.510  0.0703  0.6314 -0.2178
  140SOL    HW2  633   2.447   2.772   0.452  0.6068  0.9605  0.3343
  140SOL    HW3  634   2.440   2.732   0.598 -1.1713  0.2054  0.0553
  140SOL    MW4  635   2.436   2.711   0.514 -0.0226  0.6187 -0.1089
  141SOL     OW  636   1.656   2.379   0.474  0.3773  0.5056 -0.0286
  141SOL    HW2  637   1.633   2.286   0.473 -0.5272  0.7274 -0.6370
  141SOL    HW3  638   1.736   2.384   0.421 -0.0130  0.1924 -0.6489
  141SOL    MW4  639   1.664   2.367   0.467  0.2065  0.4935 -0.1907
  142SOL     OW  640   2.170   2.958   0.439  0.2283  0.0565 -0.2648
  142SOL    HW2  641   2.159   3.053   0.429  0.3452  0.1190  0.1845
  142SOL    HW3  642   2.255   2.940   0.399  0.3366  0.1841 -0.0935
  142SOL    MW4  643   2.180   2.968   0.432  0.2580  0.0815 -0.1829
  143SOL     OW  644   2.119   3.653   0.510 -0.1125 -0.2513  0.0184
  143SOL    HW2  645   2.205   3.617   0.489 -0.0785 -0.2469  0.1451
  143SOL    HW3  646   2.107   3.631   0.603  1.0365  2.3882  0.8232
  143SOL    MW4  647   2.128   3.645   0.520  0.0436  0.0973  0.1413
  144SOL     OW  648   2.278   4.031   0.495 -0.4065  0.4038  0.1805
  144SOL    HW2  649   2.358   3.981   0.485 -1.0341 -0.3717 -1.0958
  144SOL    HW3  650   2.304   4.122   0.483  0.3768  0.2044  0.3619
  144SOL    MW4  651   2.292   4.036   0.492 -0.3862  0.2747  0.0361
  145SOL     OW  652   1.687   3.698   0.460 -0.3501 -0.0659 -0.5394
  145SOL    HW2  653   1.722   3.661   0.379  0.9008  0.4726 -0.2470
  145SOL    HW3  654   1.757   3.753   0.494 -0.7377 -0.5391  1.0783
  145SOL    MW4  655   1.701   3.700   0.454 -0.2363 -0.0572 -0.2874
  146SOL     OW  656   1.994   3.413   0.373  0.3519 -0.4627  0.0221
  146SOL    HW2  657   2.069   3.353   0.371  0.7542 -0.0122  1.0535
  146SOL    HW3  658   2.021   3.483   0.432  0.2569  1.2444 -1.9323
  146SOL    MW4  659   2.007   3.414   0.381  0.3924 -0.1779 -0.0997
  147SOL     OW  660   1.663   4.254   0.517 -0.1212  0.2335 -0.2705
  147SOL    HW2  661   1.602   4.225   0.449 -0.7219  0.2847  0.2327
  147SOL    HW3  662   1.613   4.318   0.567  0.5994  0.8149 -0.2928
  147SOL    MW4  663   1.648   4.258   0.515 -0.1053  0.3171 -0.2071
  148SOL     OW  664   2.023   4.027   0.406 -0.1326 -0.4998 -0.1623
  148SOL    HW2  665   2.017   3.949   0.350 -0.5890 -0.4318 -0.2084
  148SOL    HW3  666   2.109   4.020   0.448 -0.5072 -1.4497  0.4592
  148SOL    MW4  667   2.033   4.016   0.404 -0.2425 -0.6166 -0.0864
  149SOL     OW  668   2.346   4.300   0.433  0.3697  0.1451 -0.0710
  149SOL    HW2  669   2.411   4.325   0.498  0.3675 -0.5883  0.2185
  149SOL    HW3  670   2.277   4.367   0.441 -0.2100 -0.6097  1.5304
  149SOL    MW4  671   2.345   4.312   0.443  0.2933 -0.0510  0.1785
  150SOL     OW  672   2.483   3.885   0.379 -0.0345  0.1769 -0.5644
  150SOL    HW2  673   2.441   3.899   0.294 -0.9224 -0.2689 -0.2004
  150SOL    HW3  674   2.461   3.795   0.402  1.7946 -0.3327 -0.7402
  150SOL    MW4  675   2.474   3.875   0.371  0.0896  0.0505 -0.5396
  151SOL     OW  676   2.755   3.944   0.449 -0.1536 -0.2232  0.2314
  151SOL    HW2  677   2.667   3.931   0.414 -0.5795 -1.2967  1.6702
  151SOL    HW3  678   2.767   4.039   0.449 -2.2167  0.0789  2.2007
  151SOL    MW4  679   2.745   3.955   0.444 -0.4816 -0.3250  0.6810
  152SOL     OW  680   2.676   0.831   0.494 -0.1648 -0.0545 -0.6403
  152SOL    HW2  681   2.607   0.897   0.486 -0.2167  0.1083  1.0096
  152SOL    HW3  682   2.752   0.871   0.450  0.5128  2.1698  2.3499
  152SOL    MW4  683   2.677   0.845   0.487 -0.0823  0.2604 -0.0280
  153SOL     OW  684   1.994   0.530   0.446  0.2730 -0.1027  0.2266
  153SOL    HW2  685   2.089   0.532   0.430  0.0848  0.5817 -0.8374
  153SOL    HW3  686   1.972   0.437   0.448  0.7355 -0.2499 -0.9656
  153SOL    MW4  687   2.004   0.518   0.444  0.3092 -0.0318 -0.0710
  154SOL     OW  688   3.168   0.380   0.373 -0.2533  0.1952 -0.3435
  154SOL    HW2  689   3.207   0.300   0.409 -0.4231 -0.2956 -1.2406
  154SOL    HW3  690   3.074   0.372   0.393 -0.2051  0.3996 -0.0204
  154SOL    MW4  691   3.161   0.368   0.381 -0.2694  0.1574 -0.4193
  155SOL     OW  692   2.676   1.014   0.169 -0.2390 -0.0774  0.1465
  155SOL    HW2  693   2.703   1.105   0.155  0.7334 -0.5863 -1.3607
  155SOL    HW3  694   2.657   0.980   0.081 -0.8159 -1.2636  0.7164
  155SOL    MW4  695   2.677   1.022   0.156 -0.1867 -0.3010  0.0228
  156SOL     OW  696   3.489   0.817   0.491 -0.0390 -0.0925  0.7653
  156SOL    HW2  697   3.528   0.841   0.575  1.3107 -0.7739  0.3426
  156SOL    HW3  698   3.536   0.738   0.463 -0.9923 -0.3221 -0.2666
  156SOL    MW4  699   3.500   0.810   0.498  0.0131 -0.2127  0.5734
  157SOL     OW  700   3.222   1.438   0.415 -0.4530 -0.3625  0.4458
  157SOL    HW2  701   3.128   1.452   0.425 -0.3009  0.7810  0.3178
  157SOL    HW3  702   3.263   1.516   0.454  0.4219 -0.5579 -0.0579
  157SOL    MW4  703   3.215   1.450   0.422 -0.3173 -0.2375  0.3625
  158SOL     OW  704   3.525   0.700   0.153 -0.5209 -0.3019 -0.2967
  158SOL    HW2  705   3.602   0.646   0.171 -0.0372  0.9870  1.5094
  158SOL    HW3  706   3.556   0.790   0.160 -2.2237  0.2308  0.6462
  158SOL    MW4  707   3.539   0.705   0.156 -0.6819 -0.0616  0.0660
  159SOL     OW  708   3.331   1.679   0.495  0.1876 -0.1444 -0.5095
  159SOL    HW2  709   3.324   1.764   0.452  0.9671  0.2840  0.1822
  159SOL    HW3  710   3.423   1.654   0.484  0.2713 -0.2788  0.4074
  159SOL    MW4  711   3.342   1.687   0.488  0.3016 -0.1056 -0.2973
  160SOL     OW  712   2.603   0.096   0.365 -0.3073 -0.4444  0.0862
  160SOL    HW2  713   2.688   0.137   0.380  0.4305 -1.0277 -2.2408
  160SOL    HW3  714   2.612   0.008   0.402 -0.1431 -0.2792  0.4452
  160SOL    MW4  715   2.615   0.090   0.372 -0.1884 -0.4996 -0.1734
  161SOL     OW  716   3.143   2.042   0.538 -0.4669 -0.2434 -0.6041
  161SOL    HW2  717   3.057   2.081   0.555 -0.2767  0.4473 -1.1746
  161SOL    HW3  718   3.165   1.997   0.619 -0.7117  0.8278  0.0777
  161SOL    MW4  719   3.135   2.041   0.551 -0.4742 -0.0110 -0.5894
  162SOL     OW  720   2.922   2.614   0.357  0.2103 -0.0405  0.0424
  162SOL    HW2  721   2.962   2.633   0.273  1.5315  1.3029  0.9390
  162SOL    HW3  722   2.990   2.569   0.407 -1.1363 -2.3759 -0.1820
  162SOL    MW4  723   2.936   2.611   0.353  0.2069 -0.1714  0.1311
  163SOL     OW  724   2.928   1.457   0.469 -0.2392  0.3367 -0.0790
  163SOL    HW2  725   2.850   1.474   0.416  1.1911  3.0217 -1.4075
  163SOL    HW3  726   2.923   1.521   0.540  0.5892  0.3363 -0.0157
  163SOL    MW4  727   2.917   1.468   0.471  0.0589  0.6909 -0.2459
  164SOL     OW  728   2.677   2.495   0.478 -0.0552 -0.9314 -0.2451
  164SOL    HW2  729   2.597   2.541   0.450 -0.1992 -0.0411  1.5492
  164SOL    HW3  730   2.744   2.524   0.417 -0.6883 -0.1835 -0.5915
  164SOL    MW4  731   2.675   2.505   0.466 -0.1576 -0.7155 -0.0540
  165SOL     OW  732   2.704   3.091   0.430  0.3040 -0.3279 -0.4866
  165SOL    HW2  733   2.698   3.126   0.519 -0.7916 -0.8860 -0.3433
  165SOL    HW3  734   2.779   3.031   0.434  0.6458  0.1116 -0.1049
  165SOL    MW4  735   2.713   3.088   0.443  0.2043 -0.3433 -0.4174
  166SOL     OW  736   2.836   3.428   0.483  0.2594 -0.3720  0.2303
  166SOL    HW2  737   2.922   3.386   0.476  0.7421  0.7377 -0.6703
  166SOL    HW3  738   2.855   3.522   0.478 -1.0877 -0.1470 -0.8655
  166SOL    MW4  739   2.850   3.435   0.481  0.1454 -0.1957 -0.0331
  167SOL     OW  740   3.209   3.319   0.506 -0.9540  0.4113 -0.1170
  167SOL    HW2  741   3.297   3.288   0.487 -0.8508 -0.5873  1.8637
  167SOL    HW3  742   3.195   3.298   0.598 -3.4461  0.0880 -0.5245
  167SOL    MW4  743   3.219   3.312   0.515 -1.2689  0.2367  0.0905
  168SOL     OW  744   2.587   3.388   0.631 -0.1990  0.3553  0.3356
  168SOL    HW2  745   2.660   3.411   0.573  0.1631  0.7892  0.9584
  168SOL    HW3  746   2.608   3.432   0.714 -1.3259  0.7411  0.4198
  168SOL    MW4  747   2.600   3.397   0.634 -0.2999  0.4635  0.4289
  169SOL     OW  748   2.456   3.360   0.363  0.0255  0.3410 -0.5256
  169SOL    HW2  749   2.488   3.342   0.452 -0.8003  0.1197 -0.2693
  169SOL    HW3  750   2.533   3.350   0.308  0.2990 -0.6667  0.0317
  169SOL    MW4  751   2.470   3.356   0.368 -0.0477  0.1791 -0.4183
  170SOL     OW  752   3.429   3.826   0.214 -0.0519  0.0048  0.4848
  170SOL    HW2  753   3.440   3.839   0.120  1.8045  0.1044  0.7024
  170SOL    HW3  754   3.448   3.911   0.253 -0.0929 -0.2224  1.0066
  170SOL    MW4  755   3.433   3.839   0.207  0.1879 -0.0119  0.5824
  171SOL     OW  756   2.565   4.289   0.260 -0.0565 -0.4524  0.4932
  171SOL    HW2  757   2.557   4.362   0.199  0.8524 -0.0147  0.8809
  171SOL    HW3  758   2.483   4.290   0.309 -0.2810 -0.0421  0.1147
  171SOL    MW4  759   2.553   4.298   0.259  0.0339 -0.3405  0.4944
  172SOL     OW  760   2.392   3.618   0.461  0.0860  0.1155  0.1240
  172SOL    HW2  761   2.407   3.608   0.555  1.1982  1.6639  0.1351
  172SOL    HW3  762   2.430   3.539   0.423 -0.9796 -0.8392  1.0289
  172SOL    MW4  763   2.399   3.606   0.468  0.0923  0.1938  0.2448
  173SOL     OW  764   3.526   3.968   0.517  0.8048  0.5142  0.0088
  173SOL    HW2  765   3.434   3.995   0.505  0.3491 -0.5565  1.0111
  173SOL    HW3  766   3.531   3.882   0.474  1.1099  0.1670  0.7321
  173SOL    MW4  767   3.514   3.960   0.509  0.7851  0.3273  0.2365
  174SOL     OW  768   2.958   4.424   0.539 -0.2009 -0.2915  0.4987
  174SOL    HW2  769   2.950   4.422   0.634 -0.4395 -0.3983  0.4787
  174SOL    HW3  770   2.910   4.346   0.509  2.0066 -1.6514  0.4102
  174SOL    MW4  771   2.950   4.414   0.548  0.0587 -0.4854  0.4843
  175SOL     OW  772   3.294   4.391   0.264  0.0028  0.1361  0.0792
  175SOL    HW2  773   3.377   4.439   0.256  0.3425 -0.5916 -0.8588
  175SOL    HW3  774   3.289   4.367   0.356  0.1641  1.3722  0.4250
  175SOL    MW4  775   3.304   4.394   0.275  0.0687  0.2031  0.0011
  176SOL     OW  776   3.120   4.600   0.373  0.2183  0.3582  0.4746
  176SOL    HW2  777   3.067   4.544   0.430  1.0514 -0.0732  0.8325
  176SOL    HW3  778   3.174   4.539   0.323  0.2886  0.7915  0.0241
  176SOL    MW4  779   3.120   4.585   0.374  0.3374  0.3586  0.4623
  177SOL     OW  780   2.753   4.237   0.464  0.0247 -0.0456  0.1093
  177SOL    HW2  781   2.700   4.249   0.543  0.9890 -0.8470  0.8837
  177SOL    HW3  782   2.692   4.252   0.392 -0.9037  0.5337  1.0000
  177SOL    MW4  783   2.738   4.241   0.465  0.0293 -0.0753  0.3290
  178SOL     OW  784   2.487   1.045   0.406 -0.3079  0.1056 -0.1781
  178SOL    HW2  785   2.409   0.993   0.388  1.1303 -1.8807 -0.9052
  178SOL    HW3  786   2.536   1.043   0.324  0.7027  0.9663  0.3928
  178SOL    MW4  787   2.483   1.038   0.393  0.0153 -0.0429 -0.1988
  179SOL     OW  788   3.322   0.573   0.534 -0.5251 -0.0879  0.0748
  179SOL    HW2  789   3.280   0.507   0.479  1.0514 -0.2170 -1.0121
  179SOL    HW3  790   3.416   0.562   0.518 -0.1386  1.1694  1.3227
  179SOL    MW4  791   3.329   0.563   0.525 -0.2663  0.0610  0.0961
  180SOL     OW  792   2.901   0.477   0.467  0.4453  0.2281 -0.3272
  180SOL    HW2  793   2.810   0.503   0.449  0.4890  0.2058 -0.5862
  180SOL    HW3  794   2.947   0.561   0.479  0.8267  0.3486 -2.3290
  180SOL    MW4  795   2.895   0.492   0.466  0.5014  0.2410 -0.6255
  181SOL     OW  796   3.582   0.561   0.474 -0.1656 -0.2260 -0.2329
  181SOL    HW2  797   3.636   0.528   0.546  0.3566  0.4009 -0.3353
  181SOL    HW3  798   3.619   0.520   0.396 -0.9157 -1.1342 -0.1130
  181SOL    MW4  799   3.594   0.551   0.473 -0.1957 -0.2632 -0.2306
  182SOL     OW  800   3.044   0.712   0.426 -0.4701 -0.3245  0.2526
  182SOL    HW2  801   3.000   0.793   0.402  0.7359 -0.0720 -1.2728
  182SOL    HW3  802   3.077   0.678   0.342  1.0697 -1.1444  1.1614
  182SOL    MW4  803   3.043   0.718   0.412 -0.1080 -0.3993  0.1712
  183SOL     OW  804   3.629   1.627   0.470 -0.0444  0.2301  0.6930
  183SOL    HW2  805   3.663   1.619   0.560  0.2302  1.7284  0.7435
  183SOL    HW3  806   3.656   1.714   0.443 -0.8480  0.0953 -0.5561
  183SOL    MW4  807   3.637   1.638   0.479 -0.1140  0.4101  0.5348
  184SOL     OW  808   3.267   1.897   0.348 -0.0463 -0.2442 -0.1155
  184SOL    HW2  809   3.213   1.954   0.402  0.6831 -0.0754  0.4505
  184SOL    HW3  810   3.233   1.907   0.260 -0.2022  0.7379  0.0535
  184SOL    MW4  811   3.256   1.905   0.344  0.0293 -0.0924 -0.0185
  185SOL     OW  812   3.607   0.939   0.273  0.0856  0.3118 -0.3671
  185SOL    HW2  813   3.592   1.033   0.280 -1.0323  0.2801 -1.9524
  185SOL    HW3  814   3.557   0.901   0.345 -0.4040  0.8569 -0.4178
  185SOL    MW4  815   3.598   0.946   0.283 -0.1268  0.3796 -0.5830
  186SOL     OW  816   3.505   2.032   0.464  0.2194  0.1887  0.1496
  186SOL    HW2  817   3.428   1.986   0.431 -0.4230  0.5389  1.1654
  186SOL    HW3  818   3.493   2.037   0.558  2.4592 -1.5328  0.5868
  186SOL    MW4  819   3.494   2.027   0.472  0.4301  0.0079  0.3413
  187SOL     OW  820   3.285   2.293   0.396 -0.3589  0.2122  0.3349
  187SOL    HW2  821   3.377   2.273   0.376 -0.6563 -0.8418 -0.0246
  187SOL    HW3  822   3.254   2.217   0.446 -1.1597  0.3445  0.0506
  187SOL    MW4  823   3.293   2.280   0.400 -0.5035  0.0906  0.2499
  188SOL     OW  824   3.680   2.910   0.292  0.1406  0.0779  0.0643
  188SOL    HW2  825   3.732   2.837   0.325 -0.1430 -0.0336  0.2629
  188SOL    HW3  826   3.676   2.896   0.197  0.8387  0.3223 -0.0061
  188SOL    MW4  827   3.686   2.899   0.284  0.1953  0.0954  0.0812
  189SOL     OW  828   2.449   2.937   0.347  0.4346 -0.0967  0.5861
  189SOL    HW2  829   2.533   2.977   0.370 -0.5481  1.5946  1.3127
  189SOL    HW3  830   2.438   2.958   0.254  0.2077  0.8143  0.8160
  189SOL    MW4  831   2.459   2.945   0.338  0.2751  0.2465  0.7123
  190SOL     OW  832   3.392   2.703   0.543 -0.2197 -0.0615 -0.3750
  190SOL    HW2  833   3.310   2.664   0.515  0.9903 -2.4184 -0.7072
  190SOL    HW3  834   3.458   2.636   0.528  1.7652  1.7157  0.0639
  190SOL    MW4  835   3.390   2.689   0.537  0.2017 -0.1380 -0.3610
  191SOL     OW  836   2.907   2.824   0.740 -0.2829  0.2937  0.1056
  191SOL    HW2  837   2.900   2.827   0.645  0.2560  0.8842  0.0844
  191SOL    HW3  838   2.988   2.776   0.757  0.2383  1.2120  0.2473
  191SOL    MW4  839   2.916   2.818   0.730 -0.1431  0.4926  0.1215
  192SOL     OW  840   3.258   0.128   0.507  0.7244 -0.0960  0.0946
  192SOL    HW2  841   3.240   0.144   0.600  1.3296 -0.5324  0.2900
  192SOL    HW3  842   3.200   0.055   0.484  1.5959 -0.9245  0.4983
  192SOL    MW4  843   3.248   0.120   0.516  0.9189 -0.2629  0.1737
  193SOL     OW  844   3.230   4.020   0.506  0.1760  0.4022 -0.0281
  193SOL    HW2  845   3.194   3.944   0.460  1.0568  0.9558 -1.6645
  193SOL    HW3  846   3.209   4.004   0.598 -0.2951 -1.4591 -0.4348
  193SOL    MW4  847   3.222   4.008   0.512  0.2301  0.2298 -0.2977
  194SOL     OW  848   3.540   3.663   0.419  0.2437 -0.3737  0.0394
  194SOL    HW2  849   3.502   3.699   0.339  0.1104  3.1404  1.6043
  194SOL    HW3  850   3.470   3.609   0.457 -0.4956 -0.1405 -0.9623
  194SOL    MW4  851   3.526   3.660   0.413  0.1287  0.1209  0.1138
  195SOL     OW  852   3.490   3.196   0.527 -0.1666 -0.4975  0.2599
  195SOL    HW2  853   3.576   3.213   0.490 -0.4685 -0.6807 -0.5331
  195SOL    HW3  854   3.466   3.109   0.495 -0.5472 -0.5446  0.6625
  195SOL    MW4  855   3.498   3.187   0.518 -0.2565 -0.5279  0.2084
  196SOL     OW  856   3.321   3.577   0.543  0.0366 -0.2187  0.1254
  196SOL    HW2  857   3.270   3.498   0.524  0.0238 -0.2440  0.2622
  196SOL    HW3  858   3.345   3.568   0.636 -0.2654  0.1072  0.2375
  196SOL    MW4  859   3.317   3.565   0.553 -0.0050 -0.1791  0.1583
  197SOL     OW  860   3.441   4.127   0.246  0.2691  0.2815  0.3920
  197SOL    HW2  861   3.523   4.167   0.218 -0.2559 -0.0955 -1.7170
  197SOL    HW3  862   3.376   4.196   0.235 -0.1998 -0.3464 -0.7859
  197SOL    MW4  863   3.444   4.142   0.241  0.1378  0.1488 -0.0416
  198SOL     OW  864   2.699   3.297   0.241  0.0969 -0.3666 -0.6727
  198SOL    HW2  865   2.689   3.216   0.291  2.3035 -0.1162  0.2236
  198SOL    HW3  866   2.766   3.347   0.289 -0.5093  1.5495 -1.7597
  198SOL    MW4  867   2.707   3.293   0.254  0.3080 -0.0806 -0.6979
  199SOL     OW  868   3.959   0.049   0.279 -0.5796 -0.2140  0.2353
  199SOL    HW2  869   3.931  -0.028   0.328 -0.2111  0.0937  0.9557
  199SOL    HW3  870   4.018   0.015   0.212 -0.4823 -0.5741  0.5000
  199SOL    MW4  871   3.963   0.034   0.277 -0.5181 -0.2210  0.3653
  200SOL     OW  872   3.744   0.207   0.285 -0.5166 -0.0928  0.2348
  200SOL    HW2  873   3.685   0.143   0.325  0.7452 -1.1369  0.4611
  200SOL    HW3  874   3.824   0.158   0.268  0.3941  1.3823  0.2113
  200SOL    MW4  875   3.747   0.192   0.288 -0.2301 -0.0359  0.2616
  201SOL     OW  876   3.521   0.034   0.468  0.1735 -0.1548  0.1710
  201SOL    HW2  877   3.510  -0.041   0.411  1.5073  0.7919 -1.3866
  201SOL    HW3  878   3.437   0.079   0.467  0.0649 -0.3778 -0.7361
  201SOL    MW4  879   3.509   0.030   0.460  0.3350 -0.0593 -0.1542
  202SOL     OW  880   3.930   0.511   0.463  0.0628 -0.6203  0.0638
  202SOL    HW2  881   3.884   0.506   0.547 -1.4948 -0.3206 -0.7554
  202SOL    HW3  882   3.987   0.434   0.462  0.5835 -0.2634  1.6718
  202SOL    MW4  883   3.931   0.500   0.474 -0.0739 -0.5337  0.1679
  203SOL     OW  884   4.101   1.054   0.192 -0.5165  0.5962 -0.4213
  203SOL    HW2  885   4.023   1.010   0.227  0.4049  0.5612  1.6748
  203SOL    HW3  886   4.130   0.998   0.120 -1.0719 -0.6335  0.2983
  203SOL    MW4  887   4.094   1.041   0.187 -0.4678  0.4294 -0.0498
  204SOL     OW  888   4.252   0.852   0.372 -0.3183  0.8677 -0.1091
  204SOL    HW2  889   4.187   0.823   0.436 -0.4636  0.4286 -0.4541
  204SOL    HW3  890   4.207   0.920   0.321 -1.0643 -0.5683 -1.4110
  204SOL    MW4  891   4.238   0.857   0.374 -0.4358  0.6204 -0.3264
  205SOL     OW  892   3.879   0.944   0.340 -0.3131  0.1542 -0.6660
  205SOL    HW2  893   3.787   0.946   0.315 -0.6587 -0.6291  0.5273
  205SOL    HW3  894   3.890   1.019   0.399 -0.2888 -0.0247 -0.4438
  205SOL    MW4  895   3.868   0.955   0.344 -0.3552  0.0272 -0.4792
  206SOL     OW  896   4.140   1.286   0.328  0.4364 -0.3305 -0.9521
  206SOL    HW2  897   4.186   1.359   0.287 -0.6382 -1.0147 -3.4449
  206SOL    HW3  898   4.143   1.216   0.263 -1.2249 -1.4788  0.1669
  206SOL    MW4  899   4.147   1.287   0.314  0.0753 -0.5724 -1.1333
  207SOL     OW  900   3.896   1.199   0.443  0.1745 -0.1472  0.1417
  207SOL    HW2  901   3.966   1.232   0.386  0.3140 -0.1451  0.3143
  207SOL    HW3  902   3.817   1.244   0.413  0.0771 -0.8313 -0.6564
  207SOL    MW4  903   3.895   1.209   0.431  0.1800 -0.2371  0.0592
  208SOL     OW  904   3.397   1.235   0.415 -0.2934  0.0178  0.2342
  208SOL    HW2  905   3.405   1.223   0.509 -0.0559 -0.8535  0.1070
  208SOL    HW3  906   3.341   1.312   0.405 -1.8169 -0.9560  1.0618
  208SOL    MW4  907   3.391   1.243   0.426 -0.4628 -0.2255  0.3266
  209SOL     OW  908   3.665   1.337   0.386  0.5307  0.3886  0.0342
  209SOL    HW2  909   3.572   1.318   0.393  0.8414 -0.7967  1.1132
  209SOL    HW3  910   3.674   1.428   0.413 -0.5345  1.0824 -1.8326
  209SOL    MW4  911   3.654   1.347   0.390  0.4311  0.3237 -0.0697
  210SOL     OW  912   3.586   2.507   0.545  0.0359  0.1029  0.2658
  210SOL    HW2  913   3.591   2.423   0.500  0.0678  0.8386 -1.1211
  210SOL    HW3  914   3.605   2.486   0.637  0.0424 -1.3936 -0.0640
  210SOL    MW4  915   3.589   2.493   0.551  0.0408  0.0024  0.0393
  211SOL     OW  916   3.764   2.690   0.425 -0.3568 -0.1983  0.2626
  211SOL    HW2  917   3.687   2.663   0.476 -0.0387  0.2932  1.0163
  211SOL    HW3  918   3.801   2.608   0.393 -0.1113 -0.5827  1.4926
  211SOL    MW4  919   3.759   2.675   0.428 -0.2825 -0.1845  0.5243
  212SOL     OW  920   3.176   2.529   0.487  0.3096 -0.1350 -0.2388
  212SOL    HW2  921   3.233   2.461   0.450  0.4661  0.1080 -0.4462
  212SOL    HW3  922   3.163   2.501   0.578 -0.2737 -0.8574 -0.5382
  212SOL    MW4  923   3.182   2.516   0.494  0.2534 -0.1981 -0.3057
  213SOL     OW  924   2.937   3.700   0.474 -0.1997  0.3491 -0.1445
  213SOL    HW2  925   3.022   3.721   0.434 -0.6261  1.2863 -0.5929
  213SOL    HW3  926   2.883   3.777   0.454 -1.5052 -0.7525 -0.8748
  213SOL    MW4  927   2.941   3.713   0.466 -0.4280  0.3273 -0.3000
  214SOL     OW  928   3.138   3.029   0.438 -0.2277  0.2755 -0.1901
  214SOL    HW2  929   3.134   3.125   0.444  0.7264  0.5697 -3.3772
  214SOL    HW3  930   3.229   3.009   0.420 -0.2909 -1.3223  1.1235
  214SOL    MW4  931   3.149   3.039   0.436 -0.1101  0.1035 -0.4373
  215SOL     OW  932   3.982   2.787   0.574  0.0272  0.3084 -0.4837
  215SOL    HW2  933   4.053   2.769   0.512 -0.6716  0.9313 -1.4670
  215SOL    HW3  934   3.904   2.751   0.533 -0.2319 -0.4614  0.6449
  215SOL    MW4  935   3.981   2.780   0.561 -0.0992  0.2892 -0.4646
  216SOL     OW  936   3.434   2.941   0.415  0.6140 -0.3385 -0.1429
  216SOL    HW2  937   3.520   2.946   0.374 -0.1470 -1.4569 -1.9633
  216SOL    HW3  938   3.431   2.855   0.455  0.7583  0.1456  0.9308
  216SOL    MW4  939   3.445   2.931   0.415  0.5329 -0.4222 -0.2414
  217SOL     OW  940   4.015   3.789   0.449  0.4097 -0.6248  0.3984
  217SOL    HW2  941   3.938   3.741   0.478 -0.7955  0.5678 -0.7430
  217SOL    HW3  942   3.991   3.881   0.460  1.0846 -0.2046 -1.3932
  217SOL    MW4  943   4.002   3.795   0.454  0.3400 -0.4120  0.0114
  218SOL     OW  944   3.616   2.273   0.410  0.4239  0.4161 -0.2157
  218SOL    HW2  945   3.595   2.180   0.416 -1.6349  0.9803  1.9992
  218SOL    HW3  946   3.712   2.276   0.408  0.5308 -1.7070  0.5118
  218SOL    MW4  947   3.626   2.261   0.411  0.1662  0.2105  0.1725
  219SOL     OW  948   3.190   3.766   0.382  0.7500 -0.5710 -0.4671
  219SOL    HW2  949   3.241   3.788   0.304 -1.0406 -0.2061 -1.5692
  219SOL    HW3  950   3.240   3.697   0.425  1.7682 -0.7615 -1.9193
  219SOL    MW4  951   3.203   3.760   0.377  0.6480 -0.5479 -0.8041
  220SOL     OW  952   4.299   3.517   0.494 -0.3581 -0.3632  0.0087
  220SOL    HW2  953   4.252   3.574   0.432  1.8667 -1.9053 -3.1999
  220SOL    HW3  954   4.250   3.435   0.492 -0.8844 -0.0925  1.1551
  220SOL    MW4  955   4.286   3.514   0.486 -0.1345 -0.5307 -0.2634
  221SOL     OW  956   3.237   4.326   0.533  0.1604 -0.0890  0.5659
  221SOL    HW2  957   3.222   4.232   0.522 -0.4526 -0.0544  1.0551
  221SOL    HW3  958   3.150   4.362   0.548  0.3196  0.6541 -0.3093
  221SOL    MW4  959   3.224   4.318   0.534  0.1006  0.0143  0.5150
  222SOL     OW  960   3.712   4.256   0.281 -0.2132 -0.3084  0.4334
  222SOL    HW2  961   3.692   4.199   0.355  0.2742 -1.3879 -0.2625
  222SOL    HW3  962   3.779   4.316   0.314 -1.2904  0.3849  1.3999
  222SOL    MW4  963   3.718   4.256   0.295 -0.2909 -0.3595  0.4691
  223SOL     OW  964   4.160   4.387   0.461  0.0472 -0.4563  0.4984
  223SOL    HW2  965   4.233   4.387   0.399 -1.1050  0.6930 -0.8650
  223SOL    HW3  966   4.202   4.399   0.547  1.5659 -1.1855 -0.1172
  223SOL    MW4  967   4.176   4.388   0.464  0.0958 -0.4010  0.2373
  224SOL     OW  968   4.027   0.787   0.519  0.6502 -0.1598 -0.1756
  224SOL    HW2  969   3.964   0.823   0.456  0.3284  0.6033  0.5670
  224SOL    HW3  970   4.010   0.692   0.518 -1.8619  0.2361  1.4364
  224SOL    MW4  971   4.016   0.779   0.511  0.2761 -0.0069  0.1351
  225SOL     OW  972   4.437   1.913   0.174  0.3067  0.1245  0.1956
  225SOL    HW2  973   4.482   1.831   0.157 -0.7791 -0.5636  0.6467
  225SOL    HW3  974   4.347   1.889   0.192  0.0462  1.3836  0.6715
  225SOL    MW4  975   4.431   1.899   0.174  0.1292  0.1998  0.3179
  226SOL     OW  976   4.371   0.368   0.375  0.0593 -0.4614  0.0218
  226SOL    HW2  977   4.443   0.317   0.411 -1.5981 -1.8056  1.5625
  226SOL    HW3  978   4.378   0.454   0.416 -0.2076 -1.1343  1.4964
  226SOL    MW4  979   4.381   0.372   0.385 -0.1941 -0.7276  0.4197
  227SOL     OW  980   4.445   0.961   0.555 -0.0640  0.0389  0.0575
  227SOL    HW2  981   4.420   1.053   0.554  1.6491  0.5114 -0.9460
  227SOL    HW3  982   4.383   0.918   0.496 -0.5878  0.6281  0.1841
  227SOL    MW4  983   4.434   0.967   0.547  0.0930  0.1791 -0.0583
  228SOL     OW  984   3.562   4.492   0.298 -0.5849 -0.6318 -0.3506
  228SOL    HW2  985   3.608   4.408   0.286 -1.5375 -1.3518  0.9937
  228SOL    HW3  986   3.630   4.558   0.283  0.6751 -1.6704  0.5938
  228SOL    MW4  987   3.577   4.489   0.294 -0.5445 -0.8645 -0.0486
  229SOL     OW  988   4.344   1.236   0.533 -0.2104 -0.5178  0.4422
  229SOL    HW2  989   4.321   1.267   0.621 -0.5402 -1.1472  0.5801
  229SOL    HW3  990   4.269   1.259   0.479 -0.4243 -1.0188  0.5298
  229SOL    MW4  991   4.331   1.243   0.537 -0.2818 -0.6670  0.4719
  230SOL     OW  992   0.085   1.351   0.437 -0.2163  0.6378 -0.3786
  230SOL    HW2  993   0.004   1.315   0.473 -0.4310  0.9150 -0.5756
  230SOL    HW3  994   0.149   1.281   0.445 -0.8193 -0.0500 -1.4556
  230SOL    MW4  995   0.083   1.337   0.442 -0.3242  0.5836 -0.5467
  231SOL     OW  996   3.910   2.261   0.426  0.3379 -0.0738  0.1804
  231SOL    HW2  997   3.933   2.199   0.357  0.2382  0.1807 -0.0814
  231SOL    HW3  998   3.965   2.338   0.409  0.5869 -0.1539  0.6048
  231SOL    MW4  999   3.920   2.263   0.415  0.3576 -0.0510  0.2018
  232SOL     OW 1000   4.276   1.724   0.447 -0.2064  0.1946 -0.6353
  232SOL    HW2 1001   4.364   1.755   0.465 -1.0533  1.6832  1.1127
  232SOL    HW3 1002   4.230   1.799   0.410 -0.8958 -0.4171 -1.0448
  232SOL    MW4 1003   4.282   1.738   0.445 -0.4091  0.3102 -0.4587
  233SOL     OW 1004   4.310   2.192   0.442  0.1884 -0.1917  0.3093
  233SOL    HW2 1005   4.396   2.154   0.460 -0.5675 -1.5546  1.1232
  233SOL    HW3 1006   4.319   2.284   0.467  0.7794 -0.8074  2.4988
  233SOL    MW4 1007   4.323   2.199   0.448  0.1664 -0.4528  0.7056
  234SOL     OW 1008   4.169   1.957   0.354  0.7863  0.2732 -0.1240
  234SOL    HW2 1009   4.079   1.981   0.336  0.3541  0.1542  1.7241
  234SOL    HW3 1010   4.210   2.038   0.385  1.1596  0.1946 -0.4027
  234SOL    MW4 1011   4.163   1.970   0.356  0.7782  0.2472  0.0830
  235SOL     OW 1012   4.362   2.489   0.462 -0.2043  0.1956 -0.1268
  235SOL    HW2 1013   4.419   2.482   0.385  0.1535  2.3235 -0.0777
  235SOL    HW3 1014   4.423   2.488   0.536 -0.3391  0.8038 -0.0038
  235SOL    MW4 1015   4.378   2.488   0.461 -0.1745  0.5567 -0.1041
  236SOL     OW 1016   3.745   3.164   0.385 -0.3896 -0.0814 -0.1727
  236SOL    HW2 1017   3.782   3.136   0.469 -0.0486  1.3524  0.1720
  236SOL    HW3 1018   3.723   3.083   0.340  0.2731 -0.8840  0.9301
  236SOL    MW4 1019   3.747   3.150   0.390 -0.2570  0.0019  0.0183
  237SOL     OW 1020   4.075   2.489   0.450 -0.6121 -0.0850  0.3271
  237SOL    HW2 1021   4.042   2.479   0.539 -1.2613 -0.9916 -0.0156
  237SOL    HW3 1022   4.170   2.486   0.459 -0.6277  1.4182  1.1773
  237SOL    MW4 1023   4.083   2.487   0.463 -0.6995 -0.0062  0.3940
  238SOL     OW 1024   0.177   3.730   0.498  0.2836  0.1448  0.2281
  238SOL    HW2 1025   0.270   3.740   0.480 -0.0966 -0.5121 -2.3561
  238SOL    HW3 1026   0.141   3.818   0.488  0.4641  0.2167  0.2165
  238SOL    MW4 1027   0.184   3.743   0.494  0.2572  0.0677 -0.1144
  239SOL     OW 1028   4.128   3.609   0.263 -0.8324  0.3065 -0.3969
  239SOL    HW2 1029   4.076   3.675   0.310 -1.7108  1.2595 -2.6631
  239SOL    HW3 1030   4.064   3.556   0.216 -0.0074 -1.0963  0.0298
  239SOL    MW4 1031   4.113   3.611   0.263 -0.8397  0.2475 -0.6396
  240SOL     OW 1032   0.513   3.173   0.471 -0.4259  0.0875  0.2565
  240SOL    HW2 1033   0.480   3.187   0.560 -2.3616  0.9298 -0.5602
  240SOL    HW3 1034   0.494   3.254   0.425 -0.0888 -0.5936 -1.1170
  240SOL    MW4 1035   0.506   3.185   0.477 -0.6368  0.1087 -0.0325
  241SOL     OW 1036   3.807   3.600   0.492 -0.2219  0.0019  0.1465
  241SOL    HW2 1037   3.720   3.615   0.454 -0.0806  1.3975  0.3586
  241SOL    HW3 1038   3.790   3.589   0.586 -0.0205  1.9294  0.4352
  241SOL    MW4 1039   3.793   3.600   0.500 -0.1767  0.4401  0.2126
  242SOL     OW 1040   4.146   3.279   0.478 -0.0953 -0.3726  0.0254
  242SOL    HW2 1041   4.120   3.261   0.568  0.7063  1.6171  0.6829
  242SOL    HW3 1042   4.064   3.302   0.434 -0.1989  0.8294  0.8141
  242SOL    MW4 1043   4.132   3.280   0.484 -0.0033  0.0484  0.2162
  243SOL     OW 1044   0.083   3.995   0.461  0.0808 -0.1341 -0.4099
  243SOL    HW2 1045  -0.011   3.996   0.447 -0.0979  1.5404  0.6554
  243SOL    HW3 1046   0.093   4.001   0.556  1.2604 -2.4030 -0.3565
  243SOL    MW4 1047   0.072   3.996   0.472  0.2128 -0.2124 -0.2623
  244SOL     OW 1048   4.043   4.110   0.493  0.0862 -0.9010  0.1173
  244SOL    HW2 1049   3.951   4.132   0.502 -0.1384 -0.7759 -2.2200
  244SOL    HW3 1050   4.086   4.193   0.471  0.3711 -1.3737 -1.1717
  244SOL    MW4 1051   4.037   4.124   0.491  0.0935 -0.9470 -0.3612
  245SOL     OW 1052   3.745   4.130   0.527 -0.1234 -0.4675  0.5754
  245SOL    HW2 1053   3.704   4.195   0.584  0.1791 -0.6864  1.0462
  245SOL    HW3 1054   3.682   4.059   0.522 -0.4814 -0.1119  0.0099
  245SOL    MW4 1055   3.732   4.130   0.534 -0.1307 -0.4492  0.5630
  246SOL     OW 1056   3.896   4.473   0.391 -0.0369 -0.0298  0.2491
  246SOL    HW2 1057   3.989   4.455   0.406  0.2900  0.9748 -0.4921
  246SOL    HW3 1058   3.855   4.462   0.477  0.6876 -0.9378  0.4865
  246SOL    MW4 1059   3.903   4.469   0.405  0.1020 -0.0172  0.1826
  247SOL     OW 1060   0.228   0.024   0.868  0.0246  0.5219  0.0535
  247SOL    HW2 1061   0.226  -0.071   0.857  1.9125  0.5507 -0.7543
  247SOL    HW3 1062   0.144   0.054   0.834  0.0161 -0.7404 -1.0873
  247SOL    MW4 1063   0.217   0.015   0.862  0.2726  0.3591 -0.2036
  248SOL     OW 1064   0.010   0.150   0.738 -0.0006  0.3426 -0.4910
  248SOL    HW2 1065  -0.064   0.099   0.770 -1.0859  2.1386 -0.0910
  248SOL    HW3 1066  -0.001   0.237   0.777  2.7313  0.4327  0.1792
  248SOL    MW4 1067  -0.001   0.155   0.747  0.2166  0.5915 -0.3498
  249SOL     OW 1068   4.489   0.400   0.817 -0.2475 -0.6959 -0.0425
  249SOL    HW2 1069   4.509   0.408   0.911  0.9538 -0.3602 -0.3203
  249SOL    HW3 1070   4.564   0.440   0.773  0.3070 -2.9675 -1.2122
  249SOL    MW4 1071   4.502   0.406   0.824 -0.0159 -0.9513 -0.2334
  250SOL     OW 1072   0.237   0.533   0.749  0.2156  0.2982  0.0414
  250SOL    HW2 1073   0.304   0.475   0.785  0.4360  1.4320  1.5154
  250SOL    HW3 1074   0.255   0.618   0.790 -0.7903  1.1375 -1.2211
  250SOL    MW4 1075   0.248   0.537   0.759  0.1120  0.5586  0.0692
  251SOL     OW 1076   0.247   0.805   0.856  0.3203  0.0864 -0.5650
  251SOL    HW2 1077   0.242   0.806   0.951  0.3847  0.7158 -0.5658
  251SOL    HW3 1078   0.158   0.826   0.827 -0.3047 -2.5587 -0.6663
  251SOL    MW4 1079   0.234   0.808   0.864  0.2464 -0.1796 -0.5785
  252SOL     OW 1080   4.476   0.893   0.811  0.2296 -0.2828 -0.5089
  252SOL    HW2 1081   4.398   0.857   0.853 -0.2191  0.2007 -0.9188
  252SOL    HW3 1082   4.455   0.893   0.718  0.5300  0.3032 -0.5807
  252SOL    MW4 1083   4.463   0.888   0.804  0.2098 -0.1416 -0.5724
  253SOL     OW 1084   0.022   1.146   0.892  0.3352  0.0593  0.5671
  253SOL    HW2 1085   0.006   1.164   0.985  0.9089  0.3197  0.6178
  253SOL    HW3 1086   0.013   1.051   0.884  0.6598 -0.0081  0.9698
  253SOL    MW4 1087   0.019   1.136   0.903  0.4537  0.0846  0.6269
  254SOL     OW 1088   0.200   1.299   0.756  0.1622 -0.1936  0.2927
  254SOL    HW2 1089   0.147   1.252   0.821  0.0999 -0.1878  0.2460
  254SOL    HW3 1090   0.212   1.237   0.685  1.0634 -0.5412  0.7403
  254SOL    MW4 1091   0.195   1.285   0.756  0.2729 -0.2387  0.3456
  255SOL     OW 1092   0.220   1.551   0.851 -0.0887  0.1959 -0.0952
  255SOL    HW2 1093   0.302   1.588   0.819 -0.7279  0.8582 -1.0124
  255SOL    HW3 1094   0.215   1.465   0.809  1.2933 -0.8852  1.8720
  255SOL    MW4 1095   0.230   1.545   0.841  0.0093  0.1405  0.0433
  256SOL     OW 1096   0.018   1.709   0.762  0.2514 -0.1231 -0.5447
  256SOL    HW2 1097  -0.062   1.658   0.779 -0.2281  0.4828 -0.9437
  256SOL    HW3 1098   0.086   1.665   0.814 -1.1394  1.5927  2.9098
  256SOL    MW4 1099   0.016   1.696   0.771  0.0047  0.1833 -0.1416
  257SOL     OW 1100   0.028   1.988   0.802  0.5110  0.4935  0.0991
  257SOL    HW2 1101   0.112   2.014   0.765  0.7121  1.9465  1.5070
  257SOL    HW3 1102   0.032   1.892   0.805  1.5524  0.4844 -1.1023
  257SOL    MW4 1103   0.040   1.979   0.798  0.6747  0.6840  0.1262
  258SOL     OW 1104   0.264   2.057   0.679  0.3538 -0.4474 -0.2031
  258SOL    HW2 1105   0.259   2.146   0.716 -1.3946 -1.6572  2.6068
  258SOL    HW3 1106   0.201   2.059   0.607 -1.0537  0.1083  0.9986
  258SOL    MW4 1107   0.255   2.069   0.674 -0.0626 -0.5338  0.3262
  259SOL     OW 1108   0.232   2.314   0.798  0.0099  0.0519  0.3165
  259SOL    HW2 1109   0.231   2.313   0.894 -0.9607  2.1919  0.3812
  259SOL    HW3 1110   0.310   2.365   0.776  0.2355 -0.4460 -0.0375
  259SOL    MW4 1111   0.242   2.321   0.808 -0.0884  0.2685  0.2784
  260SOL     OW 1112   0.000   2.449   0.697  0.3233  0.3864 -0.6192
  260SOL    HW2 1113  -0.079   2.412   0.736  0.0976  1.0533 -0.4501
  260SOL    HW3 1114   0.069   2.387   0.720  0.0596  0.4041  0.2065
  260SOL    MW4 1115  -0.001   2.436   0.705  0.2589  0.4766 -0.4880
  261SOL     OW 1116   0.025   2.704   0.799  0.0279  0.6568  0.1720
  261SOL    HW2 1117  -0.007   2.700   0.889 -1.8075 -0.1682 -0.4886
  261SOL    HW3 1118   0.019   2.614   0.768 -1.0102  1.2235 -1.3191
  261SOL    MW4 1119   0.020   2.692   0.807 -0.3511  0.6225 -0.1119
  262SOL     OW 1120   0.247   2.848   0.769 -0.2700  0.1574 -0.3471
  262SOL    HW2 1121   0.169   2.795   0.779 -0.0596 -0.0696  0.0905
  262SOL    HW3 1122   0.252   2.866   0.675 -1.8641  1.7295 -0.1516
  262SOL    MW4 1123   0.238   2.844   0.758 -0.4525  0.3350 -0.2636
  263SOL     OW 1124   0.176   3.097   0.859 -0.3438  0.4723  0.1044
  263SOL    HW2 1125   0.209   3.105   0.949  1.6960  0.2143 -0.6009
  263SOL    HW3 1126   0.202   3.009   0.832  1.0294  1.3539 -1.5219
  263SOL    MW4 1127   0.183   3.086   0.868  0.1065  0.5546 -0.2033
  264SOL     OW 1128   4.442   3.205   0.782 -0.3671 -0.0858  0.1953
  264SOL    HW2 1129   4.517   3.149   0.802  1.4591  2.2805  0.1924
  264SOL    HW3 1130   4.432   3.200   0.687  2.3977  2.6946 -0.3189
  264SOL    MW4 1131   4.450   3.197   0.772  0.2394  0.5934  0.1271
  265SOL     OW 1132   0.002   3.471   0.846 -0.1796  0.0234 -0.0037
  265SOL    HW2 1133  -0.086   3.502   0.823 -0.0014  0.4803 -0.0732
  265SOL    HW3 1134  -0.001   3.376   0.830 -0.5681  0.0844 -0.3003
  265SOL    MW4 1135  -0.010   3.462   0.841 -0.2069  0.0920 -0.0520
  266SOL     OW 1136   0.222   3.628   0.756  0.0346  0.6378 -0.1171
  266SOL    HW2 1137   0.199   3.645   0.665  0.1334 -1.0922 -0.4795
  266SOL    HW3 1138   0.147   3.580   0.791  0.2435  0.7928  0.5519
  266SOL    MW4 1139   0.209   3.624   0.749  0.0752  0.4301 -0.0767
  267SOL     OW 1140   0.235   3.882   0.898 -0.0192  0.1084  0.0051
  267SOL    HW2 1141   0.241   3.874   0.994 -0.8608 -0.3495  0.0229
  267SOL    HW3 1142   0.213   3.794   0.868  1.6473 -0.0754 -0.7399
  267SOL    MW4 1143   0.233   3.869   0.907  0.0897  0.0238 -0.0908
  268SOL     OW 1144   0.029   4.021   0.773  0.0042 -0.2920  0.0972
  268SOL    HW2 1145  -0.042   3.958   0.785 -0.5235  0.3044  0.1107
  268SOL    HW3 1146   0.102   3.985   0.824 -1.2204  0.5926  2.5294
  268SOL    MW4 1147   0.029   4.008   0.782 -0.2270 -0.0963  0.4198
  269SOL     OW 1148   4.486   4.285   0.827 -0.4045 -0.0362  0.1827
  269SOL    HW2 1149   4.478   4.287   0.922  0.6307  2.1387  0.2434
  269SOL    HW3 1150   4.517   4.196   0.808  0.3819 -0.1675  1.9593
  269SOL    MW4 1151   4.489   4.273   0.837 -0.1636  0.2337  0.4251
  270SOL     OW 1152   0.234   4.423   0.803  0.7205  0.0975 -0.1625
  270SOL    HW2 1153   0.149   4.381   0.814  0.1616  1.5010  1.1813
  270SOL    HW3 1154   0.233   4.457   0.713 -1.3160  2.5275  0.7150
  270SOL    MW4 1155   0.223   4.422   0.793  0.3781  0.6032  0.1305
  271SOL     OW 1156   0.679   4.631   0.844  0.2055 -0.3911 -0.0062
  271SOL    HW2 1157   0.671   4.633   0.940  1.4825  1.7697  0.0665
  271SOL    HW3 1158   0.601   4.676   0.813 -0.2348 -1.1373  0.0107
  271SOL    MW4 1159   0.668   4.637   0.853  0.3159 -0.2045  0.0055
  272SOL     OW 1160   0.474   0.149   0.766 -0.2084 -0.2536  0.2991
  272SOL    HW2 1161   0.396   0.112   0.807 -0.8300 -0.3638 -0.9664
  272SOL    HW3 1162   0.451   0.158   0.674  0.9440  0.6130  0.0825
  272SOL    MW4 1163   0.461   0.145   0.759 -0.1384 -0.1538  0.1036
  273SOL     OW 1164   0.469   0.413   0.858 -0.2289  0.0473 -0.1551
  273SOL    HW2 1165   0.545   0.459   0.824 -0.4161 -0.5175 -1.3531
  273SOL    HW3 1166   0.482   0.322   0.831  0.2071 -0.6504  2.2999
  273SOL    MW4 1167   0.481   0.407   0.850 -0.1961 -0.1193  0.0107
  274SOL     OW 1168   0.687   0.541   0.749  0.1770  0.3617  0.3822
  274SOL    HW2 1169   0.773   0.500   0.752 -0.4625 -0.9641  0.8291
  274SOL    HW3 1170   0.675   0.564   0.657  0.2084 -1.2012 -0.0246
  274SOL    MW4 1171   0.697   0.539   0.737  0.0967 -0.0194  0.3875
  275SOL     OW 1172   0.709   0.803   0.848  0.4616 -0.1067  0.2387
  275SOL    HW2 1173   0.630   0.846   0.816  0.3203  0.3254  1.1615
  275SOL    HW3 1174   0.711   0.719   0.802  0.2816  0.5086 -0.9383
  275SOL    MW4 1175   0.699   0.798   0.837  0.4192  0.0315  0.2052
  276SOL     OW 1176   0.476   0.928   0.750 -0.5340 -0.2229  0.2667
  276SOL    HW2 1177   0.484   1.013   0.793  0.7328 -0.5697  0.7514
  276SOL    HW3 1178   0.399   0.889   0.790 -1.1342  0.7054  0.0300
  276SOL    MW4 1179   0.467   0.934   0.761 -0.4461 -0.1462  0.2994
  277SOL     OW 1180   0.448   1.175   0.856  0.0067 -0.3128 -0.0385
  277SOL    HW2 1181   0.524   1.231   0.840 -0.1414 -0.0976 -0.0028
  277SOL    HW3 1182   0.376   1.221   0.812 -0.4712  0.4284  1.4792
  277SOL    MW4 1183   0.449   1.188   0.848 -0.0759 -0.1867  0.1665
  278SOL     OW 1184   0.696   1.316   0.787 -0.2432 -0.3016  0.0697
  278SOL    HW2 1185   0.696   1.410   0.806 -1.1405 -0.0423 -1.1008
  278SOL    HW3 1186   0.701   1.312   0.691  0.4658 -1.4580  0.1558
  278SOL    MW4 1187   0.696   1.328   0.777 -0.2680 -0.4201 -0.0733
  279SOL     OW 1188   0.717   1.579   0.867  0.3112 -0.5943 -0.1198
  279SOL    HW2 1189   0.696   1.551   0.956  0.8417  0.9255  0.5166
  279SOL    HW3 1190   0.632   1.596   0.826 -0.0364 -3.4375 -0.6619
  279SOL    MW4 1191   0.703   1.578   0.874  0.3353 -0.7688 -0.1073
  280SOL     OW 1192   0.473   1.644   0.766  0.0904 -0.2701 -0.1558
  280SOL    HW2 1193   0.497   1.734   0.787 -1.1768 -0.0726  0.4965
  280SOL    HW3 1194   0.467   1.642   0.671 -0.0830  0.3809 -0.1569
  280SOL    MW4 1195   0.476   1.655   0.756 -0.0997 -0.1581 -0.0699
  281SOL     OW 1196   0.455   1.920   0.845 -0.1261  0.1397  0.2607
  281SOL    HW2 1197   0.452   1.953   0.935  0.9231  1.0063 -0.0074
  281SOL    HW3 1198   0.384   1.964   0.800  0.8625  1.5659  0.0699
  281SOL    MW4 1199   0.446   1.930   0.851  0.1428  0.4421  0.2002
  282SOL     OW 1200   0.701   2.011   0.782 -0.3078 -0.3996 -0.2276
  282SOL    HW2 1201   0.617   1.976   0.812  0.0470 -1.4544 -0.4426
  282SOL    HW3 1202   0.704   1.991   0.689 -0.3016  0.6208 -0.4486
  282SOL    MW4 1203   0.691   2.004   0.774 -0.2602 -0.4044 -0.2851
  283SOL     OW 1204   0.680   2.303   0.842  0.0415  0.5546  0.1476
  283SOL    HW2 1205   0.672   2.286   0.936  0.2374  0.9818  0.2454
  283SOL    HW3 1206   0.706   2.219   0.805 -1.2087  0.0854  0.3139
  283SOL    MW4 1207   0.682   2.290   0.850 -0.0976  0.5491  0.1823
  284SOL     OW 1208   0.471   2.448   0.704  0.5567 -0.4609 -0.3243
  284SOL    HW2 1209   0.543   2.397   0.741 -0.7305 -3.2471 -1.4929
  284SOL    HW3 1210   0.499   2.471   0.616  0.6710 -0.1140 -0.1995
  284SOL    MW4 1211   0.484   2.444   0.697  0.4019 -0.7827 -0.4620
  285SOL     OW 1212   0.458   2.700   0.857  0.4138  0.1892  0.6380
  285SOL    HW2 1213   0.463   2.626   0.797  0.9342  1.3880 -0.8415
  285SOL    HW3 1214   0.381   2.749   0.830 -0.2116 -0.0588  1.9228
  285SOL    MW4 1215   0.449   2.697   0.846  0.3999  0.3142  0.6123
  286SOL     OW 1216   0.673   2.869   0.789  0.0066  0.5849 -0.3218
  286SOL    HW2 1217   0.747   2.826   0.833  0.3238  0.3210 -1.0958
  286SOL    HW3 1218   0.598   2.812   0.807  0.1646  0.4002 -0.2470
  286SOL    MW4 1219   0.673   2.856   0.797  0.0693  0.5260 -0.4140
  287SOL     OW 1220   0.614   3.119   0.883  0.4210 -0.1994 -0.1653
  287SOL    HW2 1221   0.537   3.137   0.829 -0.1208 -0.0168  0.6710
  287SOL    HW3 1222   0.631   3.026   0.869  0.4271 -0.0994 -0.8393
  287SOL    MW4 1223   0.606   3.109   0.874  0.3504 -0.1624 -0.1439
  288SOL     OW 1224   0.409   3.207   0.740 -0.1667  0.0160  0.4116
  288SOL    HW2 1225   0.432   3.291   0.779 -0.6689  0.4897 -0.2956
  288SOL    HW3 1226   0.326   3.183   0.781 -0.6453  0.4663 -0.2962
  288SOL    MW4 1227   0.401   3.215   0.750 -0.2961  0.1378  0.2249
  289SOL     OW 1228   0.459   3.461   0.824  0.1166  0.4794 -0.2203
  289SOL    HW2 1229   0.476   3.454   0.918  1.2801  0.8793 -0.4038
  289SOL    HW3 1230   0.387   3.524   0.818 -0.8047 -0.4889  0.4778
  289SOL    MW4 1231   0.451   3.468   0.836  0.1485  0.4044 -0.1524
  290SOL     OW 1232   0.675   3.604   0.746  0.0338  0.2003 -0.7593
  290SOL    HW2 1233   0.599   3.547   0.761  0.6942  0.0869  2.2944
  290SOL    HW3 1234   0.655   3.684   0.793  2.5961 -0.5252  1.6323
  290SOL    MW4 1235   0.662   3.607   0.754  0.4590  0.0896 -0.0409
  291SOL     OW 1236   0.674   3.860   0.880 -0.1620  0.2018 -0.0737
  291SOL    HW2 1237   0.748   3.918   0.862 -0.4516  0.8732  0.8591
  291SOL    HW3 1238   0.598   3.909   0.850 -0.7173  1.5863  3.4258
  291SOL    MW4 1239   0.674   3.874   0.874 -0.2735  0.4730  0.5111
  292SOL     OW 1240   0.435   3.998   0.756 -0.0912  0.1634 -0.2897
  292SOL    HW2 1241   0.418   4.086   0.789 -0.0951  0.4489 -1.0350
  292SOL    HW3 1242   0.361   3.946   0.787 -0.3498  0.5370 -0.2757
  292SOL    MW4 1243   0.423   4.003   0.764 -0.1259  0.2508 -0.3862
  293SOL     OW 1244   0.462   4.261   0.855 -0.3447  0.0944  0.2527
  293SOL    HW2 1245   0.469   4.273   0.950 -0.5599  1.5847  0.1000
  293SOL    HW3 1246   0.383   4.310   0.831 -0.1139 -0.0148 -0.7426
  293SOL    MW4 1247   0.452   4.269   0.865 -0.3427  0.2766  0.1012
  294SOL     OW 1248   0.665   4.399   0.699 -0.0143 -0.0413 -0.1105
  294SOL    HW2 1249   0.587   4.350   0.724 -0.5118  1.2430  0.9188
  294SOL    HW3 1250   0.666   4.474   0.758  0.5258  1.3931 -1.9104
  294SOL    MW4 1251   0.655   4.402   0.710 -0.0087  0.3176 -0.2123
  295SOL     OW 1252   1.099   4.651   0.863 -0.9700 -0.3370  0.1984
  295SOL    HW2 1253   1.175   4.691   0.821  0.0379 -1.6877  0.6949
  295SOL    HW3 1254   1.024   4.691   0.820  0.0269 -0.2968 -1.5331
  295SOL    MW4 1255   1.099   4.662   0.852 -0.7055 -0.5097  0.0355
  296SOL     OW 1256   0.909   0.123   0.759 -0.3893 -0.0450  0.2623
  296SOL    HW2 1257   0.916   0.207   0.804 -1.0314  0.3189 -0.3160
  296SOL    HW3 1258   0.822   0.090   0.780 -0.9813  0.4696 -1.2763
  296SOL    MW4 1259   0.899   0.130   0.767 -0.5522  0.0709 -0.0170
  297SOL     OW 1260   0.918   0.398   0.804  0.3517  0.0611 -0.8450
  297SOL    HW2 1261   0.913   0.395   0.900 -0.1885 -2.4215 -0.9252
  297SOL    HW3 1262   0.999   0.446   0.786  1.3574 -0.9602  0.8716
  297SOL    MW4 1263   0.928   0.404   0.814  0.4132 -0.4012 -0.6291
  298SOL     OW 1264   1.153   0.520   0.715 -0.2502  0.2550 -0.0240
  298SOL    HW2 1265   1.218   0.471   0.765 -0.9509  0.7427  1.3856
  298SOL    HW3 1266   1.158   0.484   0.626  0.1674 -1.4319  0.6822
  298SOL    MW4 1267   1.162   0.509   0.710 -0.2874  0.0968  0.2552
  299SOL     OW 1268   1.094   0.774   0.816  0.2881  0.0120  0.2438
  299SOL    HW2 1269   1.082   0.762   0.911 -0.5089 -1.9754 -0.0778
  299SOL    HW3 1270   1.118   0.686   0.785 -0.6195  0.4049 -1.5662
  299SOL    MW4 1271   1.096   0.760   0.825  0.0631 -0.1984 -0.0375
  300SOL     OW 1272   0.907   0.941   0.727  0.6365 -0.4818  0.5395
  300SOL    HW2 1273   0.972   0.875   0.752 -0.3240 -1.9917 -0.8935
  300SOL    HW3 1274   0.825   0.908   0.762  0.4527  0.9501  1.5142
  300SOL    MW4 1275   0.905   0.928   0.735  0.4855 -0.4921  0.4791
  301SOL     OW 1276   0.961   1.189   0.829  0.4370  0.0675  0.5324
  301SOL    HW2 1277   0.935   1.111   0.780  0.7090 -0.3057  0.9768
  301SOL    HW3 1278   0.881   1.242   0.834  0.3074 -0.0795  0.0397
  301SOL    MW4 1279   0.947   1.185   0.823  0.4557 -0.0012  0.5260
  302SOL     OW 1280   1.162   1.310   0.709  0.0785 -0.0425 -0.0883
  302SOL    HW2 1281   1.092   1.266   0.757 -0.3805  0.0368 -0.6749
  302SOL    HW3 1282   1.121   1.336   0.626  0.7546  0.1609 -0.3596
  302SOL    MW4 1283   1.147   1.308   0.704  0.1072 -0.0052 -0.2016
  303SOL     OW 1284   1.214   1.565   0.828  0.0892 -0.5268  0.7807
  303SOL    HW2 1285   1.133   1.615   0.828  1.0812  1.3759 -3.6325
  303SOL    HW3 1286   1.188   1.476   0.804 -1.1401 -1.0255  3.8419
  303SOL    MW4 1287   1.200   1.560   0.825  0.0578 -0.3415  0.6023
  304SOL     OW 1288   0.985   1.729   0.833  0.4664  0.1573 -0.4416
  304SOL    HW2 1289   0.969   1.817   0.865  0.8339 -1.0194  3.2337
  304SOL    HW3 1290   0.904   1.682   0.850  1.1124 -0.8361 -0.0589
  304SOL    MW4 1291   0.972   1.734   0.840  0.6002 -0.1290  0.0938
  305SOL     OW 1292   0.945   1.998   0.876 -0.0511 -0.4456  0.0409
  305SOL    HW2 1293   0.932   1.994   0.971 -0.2960 -2.2303 -0.0519
  305SOL    HW3 1294   0.857   2.008   0.840 -0.0012 -0.2246 -0.0202
  305SOL    MW4 1295   0.932   1.999   0.884 -0.0768 -0.6518  0.0206
  306SOL     OW 1296   1.178   2.110   0.731  0.1991  0.3123  0.2279
  306SOL    HW2 1297   1.168   2.201   0.762 -0.3305  0.2692  0.1921
  306SOL    HW3 1298   1.099   2.066   0.762  0.4163 -0.1168  0.1685
  306SOL    MW4 1299   1.166   2.116   0.739  0.1580  0.2499  0.2154
  307SOL     OW 1300   1.134   2.359   0.853  0.1736  0.1162 -0.7298
  307SOL    HW2 1301   1.138   2.342   0.947 -0.2938  0.2058 -0.6919
  307SOL    HW3 1302   1.224   2.382   0.829  0.2984  0.0712 -0.3090
  307SOL    MW4 1303   1.147   2.360   0.862  0.1283  0.1223 -0.6692
  308SOL     OW 1304   0.888   2.493   0.791  0.0231  0.7580 -0.2233
  308SOL    HW2 1305   0.964   2.444   0.822 -0.3784  0.0032 -0.4123
  308SOL    HW3 1306   0.813   2.435   0.810 -0.4880  1.4358 -0.1545
  308SOL    MW4 1307   0.888   2.479   0.798 -0.0973  0.7479 -0.2393
  309SOL     OW 1308   0.876   2.741   0.903 -0.3112  0.4067  0.1949
  309SOL    HW2 1309   0.872   2.746   0.999 -0.8503 -0.3821  0.2200
  309SOL    HW3 1310   0.893   2.649   0.884  0.9113  0.7504 -0.4516
  309SOL    MW4 1311   0.878   2.730   0.913 -0.2210  0.3481  0.1128
  310SOL     OW 1312   1.074   2.851   0.746 -0.3597  0.3819 -0.2694
  310SOL    HW2 1313   1.016   2.801   0.803  0.7514 -0.0188  0.5321
  310SOL    HW3 1314   1.035   2.844   0.659 -1.2779 -0.2238  0.1831
  310SOL    MW4 1315   1.061   2.844   0.742 -0.3341  0.2491 -0.1040
  311SOL     OW 1316   1.096   3.136   0.806 -0.1645 -0.2810 -0.3616
  311SOL    HW2 1317   1.013   3.171   0.774  0.2147 -0.7257 -1.8978
  311SOL    HW3 1318   1.088   3.041   0.795  1.2483 -0.2253 -2.4159
  311SOL    MW4 1319   1.084   3.128   0.800  0.0719 -0.3321 -0.8354
  312SOL     OW 1320   0.822   3.259   0.739 -0.4387  0.0626  0.0990
  312SOL    HW2 1321   0.850   3.332   0.795  0.2668 -0.6775  0.7258
  312SOL    HW3 1322   0.763   3.208   0.795 -1.1447  0.2938 -0.4276
  312SOL    MW4 1323   0.818   3.262   0.754 -0.4388 -0.0043  0.1123
  313SOL     OW 1324   0.895   3.497   0.857  0.2373 -0.1822  0.1180
  313SOL    HW2 1325   0.977   3.529   0.819  0.8239 -1.1561  0.5296
  313SOL    HW3 1326   0.827   3.547   0.814  1.0685  0.7811 -0.0887
  313SOL    MW4 1327   0.897   3.508   0.847  0.4244 -0.1836  0.1450
  314SOL     OW 1328   1.148   3.577   0.775 -0.2105  0.0715 -0.0236
  314SOL    HW2 1329   1.227   3.540   0.814  0.3660  2.6368  1.2917
  314SOL    HW3 1330   1.174   3.596   0.685 -0.4845 -2.5160 -0.7080
  314SOL    MW4 1331   1.162   3.574   0.768 -0.1706  0.0687  0.0596
  315SOL     OW 1332   1.145   3.844   0.865 -0.8989  0.2352  0.3368
  315SOL    HW2 1333   1.152   3.847   0.961  0.0165 -0.2764  0.2943
  315SOL    HW3 1334   1.154   3.751   0.843 -0.4706  0.4144 -0.2814
  315SOL    MW4 1335   1.147   3.832   0.875 -0.7217  0.1915  0.2496
  316SOL     OW 1336   0.897   3.971   0.759 -0.0558 -0.1966 -0.0898
  316SOL    HW2 1337   0.896   4.061   0.792 -0.6179 -0.3180  0.2285
  316SOL    HW3 1338   0.977   3.933   0.795  0.3135  0.2475 -0.4279
  316SOL    MW4 1339   0.907   3.978   0.768 -0.0813 -0.1540 -0.0924
  317SOL     OW 1340   0.850   4.228   0.852  0.1120  0.1990  0.3849
  317SOL    HW2 1341   0.924   4.285   0.833 -0.1425  0.3326 -0.2143
  317SOL    HW3 1342   0.774   4.275   0.817 -0.1010 -0.4928 -0.0852
  317SOL    MW4 1343   0.850   4.242   0.845  0.0504  0.1259  0.2437
  318SOL     OW 1344   1.074   4.370   0.775  0.3974  0.1917  0.0591
  318SOL    HW2 1345   1.142   4.311   0.807 -0.1577 -0.1365  0.6360
  318SOL    HW3 1346   1.095   4.455   0.815  0.1668 -0.0346  0.6731
  318SOL    MW4 1347   1.086   4.374   0.785  0.2939  0.1183  0.2162
  319SOL     OW 1348   1.559   4.658   0.803  0.0829 -0.3033 -0.1080
  319SOL    HW2 1349   1.561   4.676   0.897  0.5911 -0.5188 -0.0792
  319SOL    HW3 1350   1.470   4.683   0.777  0.7365  2.2484 -0.0749
  319SOL    MW4 1351   1.547   4.664   0.812  0.2363  0.0048 -0.0998
  320SOL     OW 1352   1.305   0.109   0.704 -0.3495  0.0762 -0.0888
  320SOL    HW2 1353   1.330   0.195   0.739 -0.3883  0.3964 -0.8509
  320SOL    HW3 1354   1.244   0.129   0.633 -0.5055 -0.5934 -0.1421
  320SOL    MW4 1355   1.300   0.123   0.699 -0.3753  0.0301 -0.1964
  321SOL     OW 1356   1.346   0.356   0.828 -0.1957  0.0407 -0.1914
  321SOL    HW2 1357   1.347   0.341   0.922 -1.3322 -1.0759 -0.3549
  321SOL    HW3 1358   1.420   0.415   0.813  0.3867 -0.2917  1.3026
  321SOL    MW4 1359   1.356   0.362   0.838 -0.2688 -0.1505 -0.0159
  322SOL     OW 1360   1.562   0.507   0.743 -0.6062  0.5805  0.1655
  322SOL    HW2 1361   1.553   0.584   0.799  1.1959  0.3443  0.8145
  322SOL    HW3 1362   1.638   0.460   0.779 -1.7010 -1.5274 -0.1864
  322SOL    MW4 1363   1.571   0.511   0.755 -0.5130  0.2712  0.2047
  323SOL     OW 1364   1.549   0.757   0.880 -0.3041  0.0659 -0.4325
  323SOL    HW2 1365   1.629   0.806   0.861  0.1096 -0.2888  0.3842
  323SOL    HW3 1366   1.479   0.814   0.848  0.3176 -0.1027 -2.1361
  323SOL    MW4 1367   1.550   0.771   0.873 -0.1675 -0.0031 -0.5496
  324SOL     OW 1368   1.351   0.887   0.727  0.3545  0.3883  0.0451
  324SOL    HW2 1369   1.364   0.978   0.755  0.1003  0.4976 -0.1938
  324SOL    HW3 1370   1.261   0.867   0.752  1.2937 -0.7244  2.7090
  324SOL    MW4 1371   1.341   0.896   0.734  0.4449  0.2559  0.3651
  325SOL     OW 1372   1.388   1.162   0.786 -0.3673 -0.2153 -0.1155
  325SOL    HW2 1373   1.457   1.222   0.758  0.2087 -0.4947  0.7087
  325SOL    HW3 1374   1.308   1.199   0.748  0.1758  0.3175 -0.7567
  325SOL    MW4 1375   1.387   1.175   0.777 -0.2197 -0.1819 -0.0913
  326SOL     OW 1376   1.593   1.333   0.707 -0.2771 -0.1646  0.4588
  326SOL    HW2 1377   1.585   1.422   0.741  3.7576  0.3674  0.2527
  326SOL    HW3 1378   1.585   1.342   0.612 -1.2664 -0.2379  0.5300
  326SOL    MW4 1379   1.591   1.346   0.699  0.1247 -0.1042  0.4410
  327SOL     OW 1380   1.632   1.640   0.830  0.1411  0.3179  0.3194
  327SOL    HW2 1381   1.605   1.617   0.919 -0.0543 -1.1666 -0.1197
  327SOL    HW3 1382   1.551   1.668   0.788  0.0201 -0.1637  0.2353
  327SOL    MW4 1383   1.618   1.641   0.837  0.0994  0.0584  0.2504
  328SOL     OW 1384   1.396   1.723   0.715 -0.5220  0.1148  0.5509
  328SOL    HW2 1385   1.384   1.813   0.743 -0.2641  0.3813 -0.1893
  328SOL    HW3 1386   1.333   1.673   0.767 -0.4795  0.6775  1.1520
  328SOL    MW4 1387   1.386   1.728   0.726 -0.4822  0.2242  0.5326
  329SOL     OW 1388   1.378   1.962   0.831  0.2300  0.0306 -0.2448
  329SOL    HW2 1389   1.364   1.928   0.920  1.3037  1.0065  0.3128
  329SOL    HW3 1390   1.303   2.019   0.816  0.6174  0.7376  0.4751
  329SOL    MW4 1391   1.367   1.965   0.841  0.4227  0.2526 -0.0764
  330SOL     OW 1392   1.604   2.094   0.773 -0.0264 -0.4058 -0.1605
  330SOL    HW2 1393   1.532   2.034   0.790 -2.5795  2.5514 -0.2411
  330SOL    HW3 1394   1.600   2.111   0.679  1.5608 -1.1552 -0.3871
  330SOL    MW4 1395   1.594   2.088   0.763 -0.1538 -0.1144 -0.2011
  331SOL     OW 1396   1.596   2.338   0.904  0.0458  0.8012  0.3357
  331SOL    HW2 1397   1.525   2.388   0.863  0.9654  1.5688 -0.3437
  331SOL    HW3 1398   1.595   2.254   0.857 -0.6048  0.6868  0.5421
  331SOL    MW4 1399   1.586   2.334   0.892  0.0814  0.8874  0.2733
  332SOL     OW 1400   1.369   2.456   0.774  0.0380 -0.0925 -0.6046
  332SOL    HW2 1401   1.358   2.551   0.785  0.9620  0.0394 -0.7986
  332SOL    HW3 1402   1.368   2.442   0.680  1.1249 -0.1217 -0.6169
  332SOL    MW4 1403   1.368   2.467   0.763  0.3033 -0.0789 -0.6318
  333SOL     OW 1404   1.322   2.736   0.828  0.1609 -0.1143 -0.2093
  333SOL    HW2 1405   1.335   2.716   0.921 -0.3581 -0.3702 -0.1909
  333SOL    HW3 1406   1.231   2.763   0.822 -0.3566 -1.9512 -0.9579
  333SOL    MW4 1407   1.312   2.737   0.840  0.0241 -0.3903 -0.3057
  334SOL     OW 1408   1.576   2.785   0.749 -0.1051  0.2714 -0.6082
  334SOL    HW2 1409   1.591   2.877   0.773 -0.2279 -0.0008  0.5314
  334SOL    HW3 1410   1.486   2.767   0.778 -0.1340 -0.1645 -0.9628
  334SOL    MW4 1411   1.566   2.795   0.756 -0.1252  0.1779 -0.5047
  335SOL     OW 1412   1.622   3.072   0.833 -0.6230  0.1423  0.3923
  335SOL    HW2 1413   1.621   3.071   0.928 -0.1502  0.2527  0.3970
  335SOL    HW3 1414   1.543   3.121   0.808 -1.0404 -0.3517  0.7146
  335SOL    MW4 1415   1.611   3.078   0.842 -0.6157  0.0918  0.4354
  336SOL     OW 1416   1.356   3.185   0.707  0.2844 -0.2766 -0.1646
  336SOL    HW2 1417   1.270   3.174   0.747 -0.0577  0.1732 -0.7687
  336SOL    HW3 1418   1.363   3.113   0.644  0.0769  0.0687 -0.5855
  336SOL    MW4 1419   1.346   3.174   0.704  0.2117 -0.1719 -0.2999
  337SOL     OW 1420   1.401   3.475   0.827  0.2898  0.1266  0.0032
  337SOL    HW2 1421   1.463   3.538   0.790 -0.5845  0.2014 -1.3778
  337SOL    HW3 1422   1.391   3.408   0.759 -2.1793  0.8305 -0.4000
  337SOL    MW4 1423   1.408   3.474   0.813 -0.1515  0.2294 -0.2322
  338SOL     OW 1424   1.593   3.663   0.725 -0.0311  0.1750 -0.3214
  338SOL    HW2 1425   1.663   3.611   0.764  2.2310  1.9012 -1.9374
  338SOL    HW3 1426   1.616   3.669   0.632 -1.4126  2.1792 -0.5690
  338SOL    MW4 1427   1.605   3.657   0.718  0.0851  0.6671 -0.5673
  339SOL     OW 1428   1.548   3.885   0.901 -0.0104  0.1486 -0.2766
  339SOL    HW2 1429   1.473   3.926   0.858 -0.1994 -0.1791 -0.2610
  339SOL    HW3 1430   1.578   3.819   0.839  1.6934  1.8221 -1.2862
  339SOL    MW4 1431   1.542   3.881   0.887  0.1894  0.3264 -0.4078
  340SOL     OW 1432   1.336   4.019   0.772  0.0586  0.5357  0.2892
  340SOL    HW2 1433   1.263   3.964   0.798 -0.2519  1.1917  0.8046
  340SOL    HW3 1434   1.331   4.022   0.677 -0.7181  0.7645  0.3356
  340SOL    MW4 1435   1.326   4.012   0.763 -0.0849  0.6523  0.3632
  341SOL     OW 1436   1.336   4.264   0.878  0.1711 -0.1175  0.3321
  341SOL    HW2 1437   1.416   4.305   0.844  0.9964 -0.3691  1.9618
  341SOL    HW3 1438   1.344   4.172   0.851  1.7852 -0.7661  2.8205
  341SOL    MW4 1439   1.348   4.257   0.870  0.4929 -0.2365  0.8755
  342SOL     OW 1440   1.556   4.392   0.742 -0.1910  0.1016 -0.4003
  342SOL    HW2 1441   1.632   4.341   0.768 -0.3145 -1.2937 -2.6175
  342SOL    HW3 1442   1.573   4.480   0.774  1.7811 -0.4904  0.2019
  342SOL    MW4 1443   1.568   4.397   0.749  0.0529 -0.1602 -0.6133
  343SOL     OW 1444   1.999   0.009   0.828 -0.1814  0.3757  0.4434
  343SOL    HW2 1445   2.086   0.044   0.807 -0.1961 -0.5335 -1.1615
  343SOL    HW3 1446   1.998  -0.078   0.790 -1.4572 -0.0005  1.3167
  343SOL    MW4 1447   2.010   0.002   0.820 -0.3517  0.2065  0.3468
  344SOL     OW 1448   1.788   0.119   0.692  0.2327  0.0765 -0.1200
  344SOL    HW2 1449   1.859   0.076   0.740  0.2522  0.3263  0.0759
  344SOL    HW3 1450   1.709   0.075   0.723  0.1691  0.7688  0.7418
  344SOL    MW4 1451   1.787   0.108   0.703  0.2270  0.2008  0.0195
  345SOL     OW 1452   1.796   0.393   0.829 -0.0357  0.1308 -0.1116
  345SOL    HW2 1453   1.805   0.302   0.801 -0.0066 -0.0823  0.5938
  345SOL    HW3 1454   1.876   0.436   0.797  0.3316 -0.2686  0.2708
  345SOL    MW4 1455   1.808   0.387   0.821  0.0167  0.0500  0.0319
  346SOL     OW 1456   2.000   0.526   0.721 -0.6467  0.1122  0.1766
  346SOL    HW2 1457   2.077   0.475   0.748  0.1872  1.3931  0.2248
  346SOL    HW3 1458   2.005   0.529   0.625 -0.8423 -0.1060  0.1573
  346SOL    MW4 1459   2.011   0.519   0.712 -0.5629  0.2524  0.1804
  347SOL     OW 1460   2.031   0.780   0.842 -0.3611  0.1418 -0.1657
  347SOL    HW2 1461   2.108   0.824   0.805  0.9171 -0.1756  2.0388
  347SOL    HW3 1462   2.027   0.696   0.797  0.3968  0.2925 -0.5115
  347SOL    MW4 1463   2.040   0.775   0.831 -0.0923  0.1198  0.0796
  348SOL     OW 1464   1.776   0.911   0.827 -0.2911  0.2041  0.0795
  348SOL    HW2 1465   1.783   1.007   0.832  1.1160  0.1096  0.0936
  348SOL    HW3 1466   1.864   0.880   0.845 -0.4853 -1.0653 -1.1092
  348SOL    MW4 1467   1.788   0.920   0.830 -0.1310  0.0241 -0.0755
  349SOL     OW 1468   1.805   1.181   0.833  0.0797  0.8998  0.0838
  349SOL    HW2 1469   1.885   1.217   0.795  0.7010 -0.9069 -0.4191
  349SOL    HW3 1470   1.734   1.226   0.789  0.8267  1.2060 -0.8244
  349SOL    MW4 1471   1.806   1.191   0.823  0.2604  0.7018 -0.1023
  350SOL     OW 1472   2.068   1.277   0.742 -0.3752 -0.4800 -0.1148
  350SOL    HW2 1473   2.149   1.244   0.780 -0.8495 -0.5703  0.8383
  350SOL    HW3 1474   2.065   1.239   0.654 -0.6101 -2.4773  0.7456
  350SOL    MW4 1475   2.078   1.268   0.735 -0.4687 -0.7555  0.1244
  351SOL     OW 1476   2.015   1.534   0.848  0.2046  0.3474 -0.2293
  351SOL    HW2 1477   2.087   1.564   0.793  0.2382  0.9289  0.1208
  351SOL    HW3 1478   2.022   1.438   0.848 -0.2455  0.3110 -1.8196
  351SOL    MW4 1479   2.025   1.525   0.841  0.1495  0.4194 -0.3930
  352SOL     OW 1480   1.834   1.552   0.650  0.2870 -0.2197  0.3398
  352SOL    HW2 1481   1.897   1.539   0.721  0.7306  2.8199  0.5518
  352SOL    HW3 1482   1.753   1.579   0.694 -0.0269 -0.2694 -0.1979
  352SOL    MW4 1483   1.831   1.554   0.665  0.3041  0.1748  0.2967
  353SOL     OW 1484   1.769   1.894   0.868 -0.2104  0.4555  0.3039
  353SOL    HW2 1485   1.733   1.809   0.843 -0.0277  0.6933 -0.8125
  353SOL    HW3 1486   1.703   1.957   0.839  0.3656  0.7906 -0.2985
  353SOL    MW4 1487   1.755   1.891   0.861 -0.1103  0.5311  0.0771
  354SOL     OW 1488   2.015   1.955   0.805  0.3272 -0.1945 -0.1565
  354SOL    HW2 1489   2.006   2.049   0.822  0.3172 -0.1608 -0.3525
  354SOL    HW3 1490   1.930   1.919   0.830  0.0495 -0.0366 -0.8782
  354SOL    MW4 1491   2.003   1.963   0.811  0.2892 -0.1692 -0.2775
  355SOL     OW 1492   2.017   2.234   0.811 -0.5034  0.0083  0.3494
  355SOL    HW2 1493   2.016   2.264   0.902 -0.6203 -0.1696  0.4070
  355SOL    HW3 1494   1.944   2.280   0.769 -1.0153 -0.5973  0.5678
  355SOL    MW4 1495   2.007   2.244   0.818 -0.5863 -0.0954  0.3858
  356SOL     OW 1496   1.802   2.411   0.728 -0.0917  0.2260 -0.1046
  356SOL    HW2 1497   1.735   2.374   0.785  0.0987 -0.5460 -0.3802
  356SOL    HW3 1498   1.771   2.394   0.640 -0.2431  1.1626 -0.2366
  356SOL    MW4 1499   1.789   2.404   0.724 -0.0865  0.2477 -0.1584
  357SOL     OW 1500   1.811   2.671   0.837  0.0990 -0.1348 -0.1863
  357SOL    HW2 1501   1.828   2.593   0.785  1.2237  0.7585 -1.1763
  357SOL    HW3 1502   1.725   2.701   0.808 -0.3240 -0.9922  0.1802
  357SOL    MW4 1503   1.802   2.665   0.826  0.1915 -0.1302 -0.2686
  358SOL     OW 1504   1.999   2.842   0.756 -0.5432 -0.3649  0.4338
  358SOL    HW2 1505   2.072   2.803   0.804 -0.5401 -1.9580 -0.8435
  358SOL    HW3 1506   1.921   2.800   0.793 -0.7078  0.1810  0.7106
  358SOL    MW4 1507   1.998   2.831   0.767 -0.5645 -0.5031  0.3017
  359SOL     OW 1508   2.031   3.120   0.837  0.3446  0.3046 -0.1246
  359SOL    HW2 1509   1.968   3.182   0.801 -0.7938  0.4484  2.0706
  359SOL    HW3 1510   2.016   3.040   0.787 -0.3737  0.8525 -0.8099
  359SOL    MW4 1511   2.021   3.118   0.826  0.0997  0.3960  0.0746
  360SOL     OW 1512   1.831   3.266   0.756  0.1317  0.4657  0.0919
  360SOL    HW2 1513   1.763   3.213   0.796 -1.2725  2.2620  0.1795
  360SOL    HW3 1514   1.819   3.253   0.662  0.1045  0.2284  0.1301
  360SOL    MW4 1515   1.820   3.258   0.749 -0.0571  0.6711  0.1085
  361SOL     OW 1516   1.781   3.535   0.867 -0.2163  0.3234 -0.3078
  361SOL    HW2 1517   1.798   3.537   0.961 -0.2127 -1.2002 -0.2670
  361SOL    HW3 1518   1.802   3.445   0.840  0.5494  0.9494 -1.9029
  361SOL    MW4 1519   1.786   3.523   0.876 -0.1148  0.2053 -0.5129
  362SOL     OW 1520   2.014   3.643   0.770 -0.1574 -0.2917 -0.0457
  362SOL    HW2 1521   2.010   3.722   0.824 -2.1560 -0.4927  0.1334
  362SOL    HW3 1522   1.942   3.589   0.803  1.2451 -2.2249 -0.1105
  362SOL    MW4 1523   2.004   3.646   0.782 -0.2360 -0.5736 -0.0306
  363SOL     OW 1524   2.014   3.895   0.883  0.1225  0.1456 -0.1348
  363SOL    HW2 1525   2.015   3.894   0.979 -0.9121 -0.1130 -0.1189
  363SOL    HW3 1526   1.930   3.934   0.860 -0.1381 -0.8555 -0.9326
  363SOL    MW4 1527   2.003   3.900   0.893 -0.0484 -0.0205 -0.2380
  364SOL     OW 1528   1.775   4.030   0.802  0.1571 -0.3305  0.1371
  364SOL    HW2 1529   1.698   3.993   0.845 -0.8122  0.8058 -0.5846
  364SOL    HW3 1530   1.771   3.996   0.713  1.0322 -1.0361  0.3576
  364SOL    MW4 1531   1.764   4.021   0.796  0.1447 -0.2737  0.0710
  365SOL     OW 1532   1.799   4.276   0.877 -0.3323  0.0561 -0.0404
  365SOL    HW2 1533   1.762   4.280   0.965  1.6748  1.0338  0.7988
  365SOL    HW3 1534   1.798   4.183   0.854  1.5527 -0.5216  2.0929
  365SOL    MW4 1535   1.794   4.265   0.885  0.1813  0.1087  0.3517
  366SOL     OW 1536   1.999   4.391   0.727 -0.3487  0.1410 -0.6587
  366SOL    HW2 1537   1.932   4.369   0.792  1.2122  0.1753  1.0357
  366SOL    HW3 1538   1.978   4.337   0.651 -1.5367 -0.8005  0.3088
  366SOL    MW4 1539   1.988   4.381   0.726 -0.2995  0.0215 -0.3074
  367SOL     OW 1540   2.417   4.598   0.881  0.3904 -0.1799  0.4815
  367SOL    HW2 1541   2.445   4.606   0.972 -0.6143  0.1411  0.7741
  367SOL    HW3 1542   2.393   4.505   0.872  1.0423 -0.3433  0.3701
  367SOL    MW4 1543   2.417   4.587   0.892  0.3440 -0.1588  0.5054
  368SOL     OW 1544   2.227   0.129   0.770 -0.0538  0.1813 -0.3654
  368SOL    HW2 1545   2.290   0.065   0.802 -0.5158  0.2433  0.7043
  368SOL    HW3 1546   2.215   0.108   0.677 -1.5325 -2.3823  0.3829
  368SOL    MW4 1547   2.234   0.118   0.762 -0.3099 -0.1488 -0.1255
  369SOL     OW 1548   2.245   0.397   0.821  0.1597 -0.2196  0.2567
  369SOL    HW2 1549   2.325   0.427   0.778 -1.3214  0.6062 -2.0502
  369SOL    HW3 1550   2.234   0.307   0.791 -1.0711  0.4750 -1.4755
  369SOL    MW4 1551   2.254   0.389   0.811 -0.1984 -0.0190 -0.2762
  370SOL     OW 1552   2.512   0.478   0.713 -0.0873 -0.2051  0.3025
  370SOL    HW2 1553   2.572   0.417   0.755  0.1198  0.1649  0.5487
  370SOL    HW3 1554   2.546   0.490   0.625 -0.6793 -1.2025 -0.0788
  370SOL    MW4 1555   2.524   0.471   0.707 -0.1383 -0.2879  0.2847
  371SOL     OW 1556   2.493   0.746   0.829  0.3031 -0.0457 -0.0844
  371SOL    HW2 1557   2.582   0.780   0.824 -0.0831  0.8437 -1.0550
  371SOL    HW3 1558   2.502   0.652   0.813  1.0976 -0.0044  0.1152
  371SOL    MW4 1559   2.506   0.738   0.826  0.3574  0.0771 -0.1862
  372SOL     OW 1560   2.270   0.891   0.704 -0.4501 -0.4894 -0.1713
  372SOL    HW2 1561   2.348   0.845   0.735 -0.3003 -0.4027 -0.4078
  372SOL    HW3 1562   2.269   0.875   0.609  0.4779  1.2550 -0.5101
  372SOL    MW4 1563   2.280   0.883   0.695 -0.3076 -0.2478 -0.2471
  373SOL     OW 1564   2.313   1.176   0.813 -0.3975  0.4984  0.3492
  373SOL    HW2 1565   2.313   1.165   0.908 -0.0612  1.3713  0.4490
  373SOL    HW3 1566   2.302   1.087   0.779  0.7712  0.0096  1.1915
  373SOL    MW4 1567   2.312   1.163   0.821 -0.1988  0.5491  0.4734
  374SOL     OW 1568   2.547   1.284   0.766  0.1146 -0.2342 -0.2067
  374SOL    HW2 1569   2.464   1.238   0.777 -0.1931  0.0323 -1.3396
  374SOL    HW3 1570   2.561   1.285   0.671  1.7419 -0.8772  0.0091
  374SOL    MW4 1571   2.538   1.278   0.755  0.2887 -0.2838 -0.3278
  375SOL     OW 1572   2.487   1.536   0.870 -0.1395 -0.0237 -0.1305
  375SOL    HW2 1573   2.552   1.580   0.814 -0.1302 -0.5259 -0.5194
  375SOL    HW3 1574   2.496   1.443   0.848  0.8229 -0.3774  1.7087
  375SOL    MW4 1575   2.497   1.530   0.859 -0.0112 -0.1366  0.0609
  376SOL     OW 1576   2.253   1.594   0.716  0.1631  0.1263  0.3409
  376SOL    HW2 1577   2.340   1.581   0.754  0.2420 -1.9030 -0.5113
  376SOL    HW3 1578   2.270   1.625   0.627 -0.0002  0.4043  0.4050
  376SOL    MW4 1579   2.267   1.597   0.709  0.1521 -0.1047  0.2369
  377SOL     OW 1580   2.274   1.870   0.821  0.0208 -0.4867  0.1992
  377SOL    HW2 1581   2.284   1.777   0.805  1.7368  0.2283 -3.1041
  377SOL    HW3 1582   2.183   1.889   0.796 -0.0494 -1.0579  0.0208
  377SOL    MW4 1583   2.263   1.860   0.816  0.2379 -0.4677 -0.2601
  378SOL     OW 1584   2.429   2.078   0.679  0.0499 -0.5113 -0.3564
  378SOL    HW2 1585   2.388   2.008   0.731  0.3344  0.0403  0.6285
  378SOL    HW3 1586   2.400   2.061   0.589 -1.9059 -0.4490  0.2311
  378SOL    MW4 1587   2.420   2.066   0.674 -0.1705 -0.4301 -0.1489
  379SOL     OW 1588   2.443   2.335   0.794  0.1556  0.3746 -0.3347
  379SOL    HW2 1589   2.518   2.389   0.768  0.6573 -0.2144 -0.1444
  379SOL    HW3 1590   2.448   2.258   0.737  1.6346 -1.2165  1.8538
  379SOL    MW4 1591   2.454   2.332   0.783  0.4170  0.0870 -0.0209
  380SOL     OW 1592   2.199   2.429   0.741  0.5641 -0.0073  0.3269
  380SOL    HW2 1593   2.285   2.398   0.768  1.0904  0.7423 -0.4484
  380SOL    HW3 1594   2.139   2.359   0.767  1.3424 -0.3458  1.2622
  380SOL    MW4 1595   2.202   2.416   0.748  0.7360  0.0472  0.3480
  381SOL     OW 1596   2.223   2.687   0.901  0.0933  0.5904  0.0272
  381SOL    HW2 1597   2.264   2.676   0.987  1.6003 -1.1513 -0.8701
  381SOL    HW3 1598   2.205   2.598   0.871 -0.6222  1.1796 -1.3541
  381SOL    MW4 1599   2.226   2.674   0.908  0.1976  0.4382 -0.2733
  382SOL     OW 1600   2.403   2.844   0.750 -0.2341 -0.2666  0.1936
  382SOL    HW2 1601   2.486   2.815   0.786  0.1857  0.3942 -0.2332
  382SOL    HW3 1602   2.337   2.791   0.795  0.4636 -1.3068 -0.0070
  382SOL    MW4 1603   2.405   2.834   0.760 -0.0868 -0.3164  0.1109
  383SOL     OW 1604   2.416   3.100   0.826 -0.7347 -0.2123  0.2997
  383SOL    HW2 1605   2.443   3.091   0.918 -0.8821  0.1139  0.3745
  383SOL    HW3 1606   2.396   3.011   0.799  0.3185 -0.4527  0.2761
  383SOL    MW4 1607   2.417   3.087   0.835 -0.6154 -0.2007  0.3064
  384SOL     OW 1608   2.232   3.274   0.730 -0.7655  0.4467  0.3027
  384SOL    HW2 1609   2.163   3.224   0.773 -1.2498  1.3056  0.5417
  384SOL    HW3 1610   2.311   3.221   0.740 -1.3077 -0.3497  0.3897
  384SOL    MW4 1611   2.233   3.260   0.737 -0.9010  0.4549  0.3457
  385SOL     OW 1612   2.209   3.496   0.889  0.0618  0.1738  0.3423
  385SOL    HW2 1613   2.214   3.413   0.841  0.7413  0.1426  0.4602
  385SOL    HW3 1614   2.145   3.548   0.841  0.5812  0.0671 -0.4801
  385SOL    MW4 1615   2.201   3.492   0.877  0.2196  0.1559  0.2493
  386SOL     OW 1616   2.420   3.630   0.744  0.2513  0.1910  0.4155
  386SOL    HW2 1617   2.501   3.599   0.785 -0.7850 -0.3687  2.0968
  386SOL    HW3 1618   2.351   3.594   0.799 -1.1352  0.9462 -0.8184
  386SOL    MW4 1619   2.422   3.621   0.757 -0.0679  0.2170  0.4745
  387SOL     OW 1620   2.446   3.893   0.830  0.1831  0.0375  0.0265
  387SOL    HW2 1621   2.365   3.939   0.812  0.1328  0.5978  1.6329
  387SOL    HW3 1622   2.430   3.803   0.800 -0.4832  0.5168 -1.0575
  387SOL    MW4 1623   2.434   3.887   0.823  0.0885  0.1745  0.0955
  388SOL     OW 1624   2.238   4.067   0.793  0.1886  0.5387  0.0415
  388SOL    HW2 1625   2.172   4.035   0.855 -0.7432  0.8678 -0.7500
  388SOL    HW3 1626   2.197   4.055   0.707  1.1226  0.8599 -0.4526
  388SOL    MW4 1627   2.224   4.062   0.790  0.1888  0.6247 -0.1281
  389SOL     OW 1628   2.305   4.338   0.843 -0.0275  0.2277 -0.1326
  389SOL    HW2 1629   2.311   4.266   0.780 -0.9190 -0.4755  0.5740
  389SOL    HW3 1630   2.215   4.368   0.837 -0.2113 -0.0689  1.0398
  389SOL    MW4 1631   2.294   4.332   0.834 -0.1695  0.0958  0.1153
  390SOL     OW 1632   2.555   4.337   0.622 -0.1167 -0.0827  0.2724
  390SOL    HW2 1633   2.603   4.413   0.589  0.4108 -1.0232 -1.1642
  390SOL    HW3 1634   2.592   4.321   0.709  0.6578  0.5130  0.0573
  390SOL    MW4 1635   2.566   4.345   0.629  0.0551 -0.1283  0.0545
  391SOL     OW 1636   2.894   4.626   0.851  0.8550  0.1381 -0.0763
  391SOL    HW2 1637   2.897   4.531   0.838 -0.6194 -0.2232  1.8947
  391SOL    HW3 1638   2.807   4.651   0.821  0.9133  0.7252  0.2408
  391SOL    MW4 1639   2.883   4.616   0.845  0.6683  0.1678  0.2255
  392SOL     OW 1640   2.659   0.047   0.760  0.1329  0.3093 -0.1327
  392SOL    HW2 1641   2.687   0.139   0.764  1.5296 -0.1113  0.3505
  392SOL    HW3 1642   2.575   0.045   0.805 -0.4253  1.5323 -1.0908
  392SOL    MW4 1643   2.652   0.059   0.767  0.2437  0.4151 -0.1953
  393SOL     OW 1644   2.706   0.316   0.833 -0.7281  0.0418 -0.2272
  393SOL    HW2 1645   2.680   0.315   0.925 -0.8112 -2.0535 -0.2449
  393SOL    HW3 1646   2.778   0.379   0.828 -0.5583 -0.0198  1.3192
  393SOL    MW4 1647   2.712   0.324   0.844 -0.7167 -0.2427 -0.0255
  394SOL     OW 1648   2.910   0.489   0.767 -0.3438 -0.0618 -0.1158
  394SOL    HW2 1649   2.990   0.449   0.802 -0.2625  1.4169  1.4899
  394SOL    HW3 1650   2.905   0.458   0.677  1.6826 -0.6985 -0.0415
  394SOL    MW4 1651   2.919   0.479   0.760 -0.0656  0.0493  0.1059
  395SOL     OW 1652   2.963   0.753   0.809  0.3175 -0.2675  0.0477
  395SOL    HW2 1653   2.966   0.768   0.903  3.3721 -0.9803  0.1205
  395SOL    HW3 1654   2.929   0.664   0.799  0.8422 -0.5238  0.5304
  395SOL    MW4 1655   2.959   0.743   0.820  0.7894 -0.3954  0.1210
  396SOL     OW 1656   2.729   0.867   0.764 -0.0579 -0.5794  0.1318
  396SOL    HW2 1657   2.818   0.843   0.791  0.0544 -0.8161 -0.4453
  396SOL    HW3 1658   2.726   0.847   0.671  0.1179  1.9168 -0.4435
  396SOL    MW4 1659   2.740   0.861   0.755 -0.0200 -0.2813 -0.0203
  397SOL     OW 1660   2.744   1.126   0.858 -0.1536  0.3988  0.1520
  397SOL    HW2 1661   2.744   1.040   0.816 -1.3127  0.1481  0.6557
  397SOL    HW3 1662   2.679   1.177   0.810 -0.6266  0.4866  0.8862
  397SOL    MW4 1663   2.736   1.121   0.846 -0.3691  0.3772  0.3153
  398SOL     OW 1664   2.971   1.281   0.848  0.4184  0.1211 -0.2389
  398SOL    HW2 1665   3.036   1.254   0.912  0.5994  0.8002 -0.1340
  398SOL    HW3 1666   2.900   1.217   0.858  0.4700  0.1898  0.5882
  398SOL    MW4 1667   2.970   1.269   0.858  0.4492  0.2198 -0.1159
  399SOL     OW 1668   2.912   1.519   0.752 -0.3013  0.5757 -0.2479
  399SOL    HW2 1669   2.987   1.574   0.729 -0.2231  0.4067 -0.4064
  399SOL    HW3 1670   2.951   1.436   0.779 -0.3921  0.8209  0.6268
  399SOL    MW4 1671   2.927   1.515   0.752 -0.3030  0.5857 -0.1534
  400SOL     OW 1672   2.673   1.676   0.702  0.1259 -0.3296 -0.4581
  400SOL    HW2 1673   2.688   1.770   0.715 -0.5021 -0.3460  0.4364
  400SOL    HW3 1674   2.751   1.634   0.739 -0.6369 -0.2622  1.2703
  400SOL    MW4 1675   2.685   1.683   0.709 -0.0579 -0.3228 -0.1121
  401SOL     OW 1676   2.679   1.963   0.758  0.3800  0.2603 -0.0999
  401SOL    HW2 1677   2.692   1.981   0.851 -0.9095 -2.2004  0.6032
  401SOL    HW3 1678   2.603   2.015   0.733  1.0406  1.3222  0.0815
  401SOL    MW4 1679   2.671   1.972   0.767  0.2971  0.0756  0.0168
  402SOL     OW 1680   2.883   2.118   0.625 -0.3259  0.1732 -0.1139
  402SOL    HW2 1681   2.894   2.192   0.686 -0.4942 -0.3168  0.5216
  402SOL    HW3 1682   2.809   2.069   0.662  0.4417 -0.8777  0.0278
  402SOL    MW4 1683   2.874   2.121   0.638 -0.2468 -0.0298 -0.0114
  403SOL     OW 1684   2.904   2.318   0.806 -0.2733  0.3873  0.0534
  403SOL    HW2 1685   2.901   2.313   0.902 -0.7104 -0.1362  0.0163
  403SOL    HW3 1686   2.842   2.388   0.784 -1.3586 -0.5514  0.0752
  403SOL    MW4 1687   2.895   2.327   0.816 -0.4737  0.1945  0.0514
  404SOL     OW 1688   2.680   2.480   0.738 -0.2500  0.5665 -0.2359
  404SOL    HW2 1689   2.693   2.482   0.644 -0.4092 -0.4959 -0.2787
  404SOL    HW3 1690   2.673   2.573   0.763 -1.6938  0.8078 -1.4701
  404SOL    MW4 1691   2.680   2.493   0.729 -0.4616  0.4582 -0.4044
  405SOL     OW 1692   2.650   2.748   0.836 -0.3423 -0.0254  0.4678
  405SOL    HW2 1693   2.656   2.741   0.932 -1.4215  0.7372  0.6015
  405SOL    HW3 1694   2.740   2.761   0.807 -0.0838  0.4156  1.4395
  405SOL    MW4 1695   2.662   2.749   0.845 -0.4506  0.1333  0.6136
  406SOL     OW 1696   2.888   2.871   0.465 -0.1097 -0.1972  0.2037
  406SOL    HW2 1697   2.898   2.783   0.428 -0.4235  0.6312 -1.8860
  406SOL    HW3 1698   2.971   2.915   0.446 -0.1874  0.1584  0.6838
  406SOL    MW4 1699   2.901   2.865   0.458 -0.1616 -0.0410 -0.0087
  407SOL     OW 1700   2.905   3.089   0.822 -0.4214 -0.0125  0.0176
  407SOL    HW2 1701   2.817   3.110   0.791 -0.6574  1.2593  1.5573
  407SOL    HW3 1702   2.918   2.997   0.796 -2.2064 -0.2185 -0.1776
  407SOL    MW4 1703   2.895   3.080   0.814 -0.6881  0.1280  0.1950
  408SOL     OW 1704   2.660   3.126   0.708  0.4559  0.3052 -0.2227
  408SOL    HW2 1705   2.655   3.219   0.687  1.1792  0.5457  0.6618
  408SOL    HW3 1706   2.576   3.105   0.747 -0.6310  0.0304 -2.5902
  408SOL    MW4 1707   2.648   3.135   0.710  0.4077  0.3009 -0.4184
  409SOL     OW 1708   2.661   3.533   0.855 -0.1630 -0.0549  0.3608
  409SOL    HW2 1709   2.676   3.486   0.937 -0.0243 -0.3112  0.1895
  409SOL    HW3 1710   2.744   3.578   0.838  0.2847 -1.1644 -0.3882
  409SOL    MW4 1711   2.674   3.533   0.864 -0.0861 -0.2351  0.2394
  410SOL     OW 1712   2.893   3.649   0.747  0.3968 -0.0952  0.1146
  410SOL    HW2 1713   2.899   3.738   0.783 -0.1025  0.1081 -0.2973
  410SOL    HW3 1714   2.908   3.660   0.653  2.5861 -0.7399  0.3649
  410SOL    MW4 1715   2.896   3.662   0.739  0.6199 -0.1535  0.0933
  411SOL     OW 1716   2.939   3.889   0.858  0.0327  0.0528  0.0308
  411SOL    HW2 1717   2.933   3.868   0.951  0.9742  0.8100  0.2715
  411SOL    HW3 1718   2.856   3.933   0.838 -0.3113 -0.4146  0.4349
  411SOL    MW4 1719   2.927   3.892   0.868  0.1116  0.0908  0.1158
  412SOL     OW 1720   2.695   3.987   0.721 -0.7855  0.2640  0.0030
  412SOL    HW2 1721   2.619   3.933   0.742  0.3515 -1.4629 -0.2462
  412SOL    HW3 1722   2.707   3.977   0.627  0.7661 -0.8598  0.2976
  412SOL    MW4 1723   2.687   3.978   0.712 -0.4306 -0.1118  0.0089
  413SOL     OW 1724   2.688   4.255   0.854  0.0871 -0.3811 -0.0416
  413SOL    HW2 1725   2.702   4.249   0.949  1.4533  0.1686 -0.1843
  413SOL    HW3 1726   2.704   4.166   0.822  0.8373 -0.3147  0.1176
  413SOL    MW4 1727   2.692   4.243   0.863  0.3660 -0.2999 -0.0395
  414SOL     OW 1728   2.934   4.366   0.797 -0.1396  0.1735  0.0825
  414SOL    HW2 1729   2.996   4.341   0.866  0.0018 -0.5968 -0.3182
  414SOL    HW3 1730   2.857   4.312   0.813  0.8144 -1.8227 -1.8166
  414SOL    MW4 1731   2.932   4.356   0.808  0.0050 -0.1922 -0.2210
  415SOL     OW 1732   3.337   4.625   0.865 -0.5456 -0.0138 -0.8391
  415SOL    HW2 1733   3.336   4.655   0.956  2.1930  0.4258 -0.9152
  415SOL    HW3 1734   3.266   4.673   0.823 -1.7211 -0.0838  1.0178
  415SOL    MW4 1735   3.327   4.635   0.871 -0.3393  0.0348 -0.6042
  416SOL     OW 1736   3.136   0.114   0.757 -0.0950  0.1798 -0.1509
  416SOL    HW2 1737   3.117   0.197   0.800 -0.1721 -1.3439  2.9205
  416SOL    HW3 1738   3.062   0.057   0.782 -0.2587 -0.7207 -2.5309
  416SOL    MW4 1739   3.123   0.117   0.766 -0.1266 -0.1400 -0.0597
  417SOL     OW 1740   3.129   0.367   0.896 -0.1809 -0.0120  0.3457
  417SOL    HW2 1741   3.115   0.363   0.991  0.6935 -0.3143  0.4609
  417SOL    HW3 1742   3.210   0.416   0.885  0.5501 -1.3083 -0.1731
  417SOL    MW4 1743   3.138   0.373   0.907  0.0308 -0.2229  0.2925
  418SOL     OW 1744   3.349   0.510   0.818 -0.0210  0.2068  0.1469
  418SOL    HW2 1745   3.428   0.456   0.828 -1.5382 -1.8728  1.4283
  418SOL    HW3 1746   3.344   0.528   0.725  1.5721 -0.2693 -0.0563
  418SOL    MW4 1747   3.359   0.505   0.807 -0.0110 -0.1304  0.2891
  419SOL     OW 1748   3.385   0.790   0.888  0.2079 -0.3344 -0.1965
  419SOL    HW2 1749   3.336   0.824   0.814  2.0794 -0.6962 -1.6396
  419SOL    HW3 1750   3.370   0.696   0.886  0.6468 -0.3993 -0.3972
  419SOL    MW4 1751   3.377   0.782   0.878  0.5126 -0.3908 -0.4134
  420SOL     OW 1752   3.195   0.859   0.685  0.0714  0.0149 -0.2255
  420SOL    HW2 1753   3.172   0.952   0.680  1.4677  0.3549 -0.4478
  420SOL    HW3 1754   3.126   0.820   0.739 -0.6998  1.1170 -0.4068
  420SOL    MW4 1755   3.183   0.866   0.691  0.1540  0.2052 -0.2787
  421SOL     OW 1756   3.104   1.137   0.657  0.0332 -0.5053 -0.5859
  421SOL    HW2 1757   3.055   1.178   0.728 -0.2671 -0.2606 -0.9318
  421SOL    HW3 1758   3.192   1.173   0.665 -0.3581  0.6160 -1.2042
  421SOL    MW4 1759   3.109   1.147   0.668 -0.0579 -0.3251 -0.7131
  422SOL     OW 1760   3.359   1.229   0.706  0.3086 -0.6470 -0.5585
  422SOL    HW2 1761   3.440   1.205   0.751 -0.4466 -1.6534  0.2861
  422SOL    HW3 1762   3.330   1.308   0.751  0.0110 -1.1644  0.1713
  422SOL    MW4 1763   3.366   1.236   0.718  0.1700 -0.8479 -0.3508
  423SOL     OW 1764   3.373   1.494   0.818 -0.3333 -0.2066 -0.0733
  423SOL    HW2 1765   3.369   1.501   0.914  0.7331 -0.7928  0.0145
  423SOL    HW3 1766   3.462   1.520   0.796 -0.6108  0.0328 -0.9236
  423SOL    MW4 1767   3.384   1.499   0.828 -0.2294 -0.2524 -0.1739
  424SOL     OW 1768   3.156   1.640   0.719  0.3936  0.3934 -0.1184
  424SOL    HW2 1769   3.224   1.584   0.758  0.3407 -0.5403 -1.3385
  424SOL    HW3 1770   3.192   1.665   0.634 -0.0684  1.2919 -0.0500
  424SOL    MW4 1771   3.170   1.636   0.713  0.3257  0.3887 -0.2703
  425SOL     OW 1772   3.226   1.906   0.775 -0.2182 -0.1066  0.1559
  425SOL    HW2 1773   3.199   1.927   0.864 -1.4560  0.2667 -0.2954
  425SOL    HW3 1774   3.211   1.811   0.767  1.6008 -0.4883  0.9051
  425SOL    MW4 1775   3.220   1.896   0.785 -0.1414 -0.1078  0.1953
  426SOL     OW 1776   3.459   2.039   0.758 -0.2804  0.2836  0.0473
  426SOL    HW2 1777   3.417   2.125   0.764 -0.0638  0.4765 -1.1398
  426SOL    HW3 1778   3.387   1.977   0.772 -0.5481  0.6521  0.3091
  426SOL    MW4 1779   3.444   2.042   0.761 -0.2873  0.3579 -0.0748
  427SOL     OW 1780   3.355   2.299   0.814  0.2277 -0.4586 -0.5721
  427SOL    HW2 1781   3.361   2.291   0.909  0.3695 -1.4589 -0.6690
  427SOL    HW3 1782   3.422   2.364   0.792 -1.3341  1.4959  0.2394
  427SOL    MW4 1783   3.365   2.307   0.823  0.0405 -0.3326 -0.4778
  428SOL     OW 1784   3.139   2.436   0.730  0.2042 -0.0770 -0.6183
  428SOL    HW2 1785   3.197   2.360   0.730  1.4164  0.8214 -0.8888
  428SOL    HW3 1786   3.052   2.401   0.749  0.9613 -1.3672  0.5405
  428SOL    MW4 1787   3.135   2.421   0.733  0.4642 -0.1287 -0.5011
  429SOL     OW 1788   3.132   2.695   0.826 -0.4139  0.1059  0.2061
  429SOL    HW2 1789   3.149   2.606   0.796 -0.1665  0.3560 -0.4098
  429SOL    HW3 1790   3.215   2.741   0.814 -0.0838  0.0094  2.0419
  429SOL    MW4 1791   3.145   2.690   0.820 -0.3376  0.1261  0.3670
  430SOL     OW 1792   3.383   2.837   0.818  0.4824 -0.1415  0.3372
  430SOL    HW2 1793   3.394   2.802   0.729  0.2237  1.0419 -0.1633
  430SOL    HW3 1794   3.458   2.803   0.866  1.5270  0.5529 -0.7606
  430SOL    MW4 1795   3.394   2.828   0.812  0.5860  0.1061  0.1263
  431SOL     OW 1796   3.284   3.097   0.893 -0.4325 -0.6020 -0.2218
  431SOL    HW2 1797   3.288   3.084   0.988 -1.5669  1.2218  0.0986
  431SOL    HW3 1798   3.303   3.011   0.857  1.5450 -0.9819  1.6328
  431SOL    MW4 1799   3.287   3.084   0.901 -0.3214 -0.4115  0.0652
  432SOL     OW 1800   3.125   3.283   0.753  0.0599  0.2688 -0.0478
  432SOL    HW2 1801   3.186   3.229   0.803  0.5135  0.3932 -0.4618
  432SOL    HW3 1802   3.041   3.240   0.765  0.4074 -0.5133 -0.3411
  432SOL    MW4 1803   3.122   3.270   0.761  0.1657  0.1819 -0.1411
  433SOL     OW 1804   3.121   3.528   0.866 -0.0622  0.3136 -0.2731
  433SOL    HW2 1805   3.112   3.443   0.822 -1.5268  0.2781  0.0639
  433SOL    HW3 1806   3.048   3.580   0.833 -0.1652  0.8725  0.7962
  433SOL    MW4 1807   3.110   3.524   0.856 -0.2689  0.3824 -0.0876
  434SOL     OW 1808   3.370   3.600   0.806  0.1457  0.2241  0.3589
  434SOL    HW2 1809   3.373   3.694   0.825 -0.6014  0.0494  1.3696
  434SOL    HW3 1810   3.280   3.574   0.825  0.4614 -0.7859  0.5214
  434SOL    MW4 1811   3.359   3.609   0.811  0.0887  0.0677  0.5137
  435SOL     OW 1812   3.398   3.875   0.861  0.4344 -0.3291 -0.0661
  435SOL    HW2 1813   3.385   3.879   0.956  0.0636 -0.7831 -0.0950
  435SOL    HW3 1814   3.484   3.915   0.847  0.0410  0.6685  0.3506
  435SOL    MW4 1815   3.408   3.881   0.872  0.3335 -0.2573 -0.0149
  436SOL     OW 1816   3.188   4.009   0.765  0.3323 -0.0051  0.0704
  436SOL    HW2 1817   3.256   3.963   0.814  0.8010  0.3478 -0.2518
  436SOL    HW3 1818   3.106   3.967   0.793  0.6125  0.0461  0.9792
  436SOL    MW4 1819   3.186   3.997   0.775  0.4311  0.0482  0.1477
  437SOL     OW 1820   3.182   4.266   0.884 -0.1008 -0.1675  0.1430
  437SOL    HW2 1821   3.253   4.324   0.856 -0.7960  0.7934  0.3711
  437SOL    HW3 1822   3.189   4.190   0.826  2.7740 -1.3000  1.8939
  437SOL    MW4 1823   3.192   4.263   0.872  0.1869 -0.1898  0.4042
  438SOL     OW 1824   3.402   4.390   0.742 -0.7201  0.3121  0.2748
  438SOL    HW2 1825   3.376   4.474   0.780 -0.1136  0.6892 -0.1257
  438SOL    HW3 1826   3.366   4.391   0.654  0.7807  0.9253 -0.3538
  438SOL    MW4 1827   3.394   4.401   0.736 -0.4418  0.4425  0.1391
  439SOL     OW 1828   3.823   4.654   0.796  0.6942  0.1392 -0.4058
  439SOL    HW2 1829   3.893   4.711   0.766  1.8072 -0.8114  0.3207
  439SOL    HW3 1830   3.742   4.700   0.773  1.5547  1.9303  0.0507
  439SOL    MW4 1831   3.821   4.667   0.789  0.9546  0.2499 -0.2497
  440SOL     OW 1832   3.562   0.089   0.743 -0.1948 -0.6247  0.4439
  440SOL    HW2 1833   3.493   0.046   0.794  0.4612 -2.7897 -0.4642
  440SOL    HW3 1834   3.537   0.074   0.652  0.6263 -0.0225  0.1137
  440SOL    MW4 1835   3.549   0.082   0.738  0.0000 -0.8309  0.2806
  441SOL     OW 1836   3.587   0.360   0.817 -0.2853 -0.4407 -0.0669
  441SOL    HW2 1837   3.587   0.371   0.913 -0.3561  0.1204 -0.1301
  441SOL    HW3 1838   3.569   0.267   0.804  0.7238 -0.7268  0.4927
  441SOL    MW4 1839   3.584   0.349   0.828 -0.1616 -0.4045 -0.0014
  442SOL     OW 1840   3.781   0.504   0.705 -0.0803  0.8430 -0.3506
  442SOL    HW2 1841   3.795   0.591   0.743  1.4332  0.2303  0.5557
  442SOL    HW3 1842   3.713   0.464   0.759  0.5199  0.7993  0.3952
  442SOL    MW4 1843   3.774   0.510   0.717  0.1986  0.7564 -0.1326
  443SOL     OW 1844   3.812   0.748   0.837 -0.0671  0.1888 -0.4810
  443SOL    HW2 1845   3.805   0.737   0.932 -0.7674  1.2975 -0.3906
  443SOL    HW3 1846   3.893   0.797   0.824  0.2738 -0.3729 -0.4955
  443SOL    MW4 1847   3.821   0.753   0.848 -0.1147  0.2609 -0.4711
  444SOL     OW 1848   3.607   0.905   0.733 -0.6091 -0.2005 -0.4071
  444SOL    HW2 1849   3.683   0.852   0.757  0.3673  1.7770  0.9538
  444SOL    HW3 1850   3.542   0.886   0.801 -0.6799 -0.4760 -0.5476
  444SOL    MW4 1851   3.608   0.895   0.745 -0.4895  0.0240 -0.2460
  445SOL     OW 1852   3.631   1.184   0.812  0.1886 -0.2522  0.0518
  445SOL    HW2 1853   3.633   1.178   0.907  0.6653 -0.1715  0.0471
  445SOL    HW3 1854   3.631   1.094   0.782 -0.2747 -0.2815  0.1321
  445SOL    MW4 1855   3.631   1.172   0.821  0.1903 -0.2456  0.0618
  446SOL     OW 1856   3.868   1.271   0.710 -0.6740  0.1344 -0.1490
  446SOL    HW2 1857   3.775   1.259   0.730 -0.3281 -1.1859  0.7701
  446SOL    HW3 1858   3.878   1.238   0.621 -0.8561 -0.9899  0.2321
  446SOL    MW4 1859   3.857   1.265   0.701 -0.6521 -0.1882  0.0226
  447SOL     OW 1860   3.873   1.526   0.802  0.3159 -0.7560  0.2774
  447SOL    HW2 1861   3.961   1.562   0.789 -0.0247  0.4199  1.0495
  447SOL    HW3 1862   3.877   1.438   0.766  0.9401  0.3750 -2.5141
  447SOL    MW4 1863   3.885   1.519   0.796  0.3531 -0.4517  0.0110
  448SOL     OW 1864   3.624   1.635   0.746  0.3346 -0.9583  0.1964
  448SOL    HW2 1865   3.608   1.727   0.771  1.5767  0.1024 -2.7301
  448SOL    HW3 1866   3.712   1.616   0.780  0.9799 -0.3335 -1.0911
  448SOL    MW4 1867   3.633   1.645   0.754  0.5834 -0.7360 -0.3596
  449SOL     OW 1868   3.635   1.895   0.920 -0.1955 -0.3187  0.0179
  449SOL    HW2 1869   3.728   1.918   0.925 -0.0731 -0.6958 -0.4187
  449SOL    HW3 1870   3.595   1.967   0.872  0.0825 -0.7247 -0.8371
  449SOL    MW4 1871   3.642   1.907   0.914 -0.1426 -0.4219 -0.1525
  450SOL     OW 1872   3.836   2.062   0.647  0.2496  0.0999 -0.0439
  450SOL    HW2 1873   3.909   2.018   0.690 -0.2633  0.0545  0.7964
  450SOL    HW3 1874   3.877   2.133   0.596  0.8186  0.5103  0.9772
  450SOL    MW4 1875   3.851   2.066   0.646  0.2570  0.1481  0.2016
  451SOL     OW 1876   3.825   2.280   0.815 -0.2321  0.2984  0.2862
  451SOL    HW2 1877   3.835   2.263   0.909 -1.1416  0.2455  0.3739
  451SOL    HW3 1878   3.798   2.196   0.778 -3.1259  1.0902  0.4762
  451SOL    MW4 1879   3.823   2.267   0.823 -0.7341  0.3960  0.3228
  452SOL     OW 1880   3.598   2.461   0.810 -0.1739  0.3344  0.3006
  452SOL    HW2 1881   3.609   2.523   0.882  2.9254  2.1002 -1.6160
  452SOL    HW3 1882   3.664   2.394   0.826 -0.3177  0.0684 -0.2330
  452SOL    MW4 1883   3.608   2.460   0.822  0.2160  0.5324 -0.0227
  453SOL     OW 1884   3.667   2.772   0.861 -0.0575 -0.2635  0.3793
  453SOL    HW2 1885   3.661   2.743   0.952 -0.5209  0.1924  0.4928
  453SOL    HW3 1886   3.692   2.864   0.867  0.7953 -0.4655  0.0272
  453SOL    MW4 1887   3.669   2.781   0.874 -0.0060 -0.2301  0.3479
  454SOL     OW 1888   3.896   3.058   0.597 -0.5114  0.4396  0.1028
  454SOL    HW2 1889   3.959   3.105   0.652  0.9884  1.9590 -2.8055
  454SOL    HW3 1890   3.940   2.975   0.577 -0.5957  0.3430  0.3201
  454SOL    MW4 1891   3.910   3.054   0.602 -0.3245  0.6273 -0.2522
  455SOL     OW 1892   3.760   3.035   0.844  0.0191  0.0536  0.4292
  455SOL    HW2 1893   3.811   3.038   0.763 -0.1347 -0.8942  0.3014
  455SOL    HW3 1894   3.684   3.090   0.827  1.4685  2.3224  0.9559
  455SOL    MW4 1895   3.757   3.043   0.831  0.1900  0.2277  0.4818
  456SOL     OW 1896   3.542   3.178   0.792  0.0410 -0.0210 -0.4147
  456SOL    HW2 1897   3.464   3.141   0.832  0.5825 -0.5509  0.1656
  456SOL    HW3 1898   3.518   3.191   0.700 -0.6315 -0.4477 -0.3038
  456SOL    MW4 1899   3.529   3.175   0.785  0.0238 -0.1473 -0.3235
  457SOL     OW 1900   3.584   3.435   0.908  0.1942 -0.8708  0.0412
  457SOL    HW2 1901   3.596   3.358   0.853  0.3647 -0.1806 -0.9099
  457SOL    HW3 1902   3.513   3.483   0.866  0.4943 -0.2110  0.2816
  457SOL    MW4 1903   3.576   3.431   0.895  0.2565 -0.6926 -0.0526
  458SOL     OW 1904   3.807   3.580   0.778  1.0210 -0.1327 -0.0288
  458SOL    HW2 1905   3.875   3.520   0.809 -0.0395 -1.8390 -0.9267
  458SOL    HW3 1906   3.728   3.553   0.825  0.6290  0.8213 -0.1393
  458SOL    MW4 1907   3.806   3.568   0.788  0.8295 -0.2320 -0.1618
  459SOL     OW 1908   3.875   3.860   0.809 -0.8378 -0.1075  0.0292
  459SOL    HW2 1909   3.787   3.895   0.794 -0.6457  0.0809 -0.7046
  459SOL    HW3 1910   3.867   3.766   0.791 -0.9987 -0.1760  0.4538
  459SOL    MW4 1911   3.862   3.852   0.804 -0.8335 -0.0916 -0.0116
  460SOL     OW 1912   3.629   3.978   0.772  0.1086  0.7676  0.3507
  460SOL    HW2 1913   3.624   4.072   0.787  0.8925  0.9846 -0.6912
  460SOL    HW3 1914   3.585   3.965   0.688 -0.4831  0.1370  0.7613
  460SOL    MW4 1915   3.623   3.989   0.763  0.1342  0.7131  0.2675
  461SOL     OW 1916   3.627   4.240   0.816  0.1673 -0.3410  0.3190
  461SOL    HW2 1917   3.693   4.297   0.775 -2.1675  0.7336 -2.1340
  461SOL    HW3 1918   3.545   4.289   0.808 -1.3278 -2.6154  1.2157
  461SOL    MW4 1919   3.625   4.254   0.809 -0.3381 -0.4992  0.1135
  462SOL     OW 1920   3.827   4.391   0.665 -0.3674 -0.1935 -0.0607
  462SOL    HW2 1921   3.900   4.348   0.709 -0.4696 -0.4685 -0.1593
  462SOL    HW3 1922   3.824   4.479   0.703 -0.7831 -0.6022  0.8693
  462SOL    MW4 1923   3.836   4.397   0.676 -0.4358 -0.2837  0.0489
  463SOL     OW 1924   4.264   0.020   0.816 -0.0151  0.6488 -0.3421
  463SOL    HW2 1925   4.264   0.035   0.911  0.0178  0.0859 -0.2527
  463SOL    HW3 1926   4.191   0.073   0.784  1.1465  2.3511 -0.2550
  463SOL    MW4 1927   4.254   0.029   0.825  0.1426  0.7987 -0.3189
  464SOL     OW 1928   4.055   0.173   0.715 -0.3946 -0.0522 -0.1577
  464SOL    HW2 1929   4.024   0.255   0.753  0.4496  0.9034 -1.4509
  464SOL    HW3 1930   4.092   0.199   0.630 -0.8122 -1.8795 -0.9281
  464SOL    MW4 1931   4.056   0.187   0.709 -0.3381 -0.1672 -0.4299
  465SOL     OW 1932   4.015   0.406   0.863 -0.4476  0.3621 -0.1736
  465SOL    HW2 1933   4.091   0.453   0.827  0.1889  0.0362  0.7455
  465SOL    HW3 1934   3.940   0.463   0.841 -0.1090  0.0748 -2.1867
  465SOL    MW4 1935   4.015   0.420   0.855 -0.3190  0.2811 -0.3180
  466SOL     OW 1936   4.253   0.530   0.725 -0.3166  0.1691 -0.0630
  466SOL    HW2 1937   4.334   0.483   0.743 -0.2418  0.4332  0.2851
  466SOL    HW3 1938   4.268   0.571   0.639  0.3776  1.1997  0.5297
  466SOL    MW4 1939   4.266   0.529   0.716 -0.2151  0.3400  0.0611
  467SOL     OW 1940   4.249   0.745   0.907  0.1905  0.6907  0.2769
  467SOL    HW2 1941   4.172   0.798   0.887 -0.8389 -0.2378  1.6653
  467SOL    HW3 1942   4.252   0.679   0.837 -1.0163 -0.0275  0.8741
  467SOL    MW4 1943   4.239   0.743   0.895 -0.1049  0.4734  0.5388
  468SOL     OW 1944   4.044   0.888   0.793 -0.1506 -0.4518  0.5528
  468SOL    HW2 1945   4.048   0.983   0.810  0.4085 -0.6222  1.4273
  468SOL    HW3 1946   4.030   0.881   0.699  0.6076  0.5004  0.3633
  468SOL    MW4 1947   4.043   0.900   0.783  0.0219 -0.3486  0.6431
  469SOL     OW 1948   4.089   1.163   0.849  0.0287  0.3622  0.4418
  469SOL    HW2 1949   4.068   1.165   0.942  0.0756 -0.5052  0.4741
  469SOL    HW3 1950   4.016   1.209   0.807  0.4506  1.5504  0.9794
  469SOL    MW4 1951   4.077   1.169   0.856  0.0906  0.4045  0.5170
  470SOL     OW 1952   4.301   1.308   0.791 -0.4502  0.2851 -0.5496
  470SOL    HW2 1953   4.223   1.260   0.817 -0.2139 -0.2826 -0.8871
  470SOL    HW3 1954   4.374   1.249   0.811  0.0083  1.4512  1.2909
  470SOL    MW4 1955   4.300   1.294   0.797 -0.3581  0.3641 -0.3513
  471SOL     OW 1956   4.272   1.574   0.832 -0.0775 -0.5779  0.1650
  471SOL    HW2 1957   4.293   1.579   0.926 -1.8069  0.9724  0.4831
  471SOL    HW3 1958   4.287   1.483   0.810  2.3659 -0.5484  1.4712
  471SOL    MW4 1959   4.277   1.563   0.842  0.0162 -0.3695  0.3793
  472SOL     OW 1960   4.081   1.678   0.664 -0.3846 -0.0081 -0.1199
  472SOL    HW2 1961   4.151   1.658   0.727 -0.4384 -0.3030 -0.1504
  472SOL    HW3 1962   4.123   1.669   0.578 -0.5031 -0.3604 -0.1425
  472SOL    MW4 1963   4.096   1.674   0.661 -0.4072 -0.0936 -0.1269
  473SOL     OW 1964   4.051   1.937   0.751 -0.1435 -0.2574  0.0194
  473SOL    HW2 1965   4.130   1.983   0.723 -0.5050  0.1701 -0.3090
  473SOL    HW3 1966   4.064   1.847   0.722 -0.1685  0.0095 -0.8369
  473SOL    MW4 1967   4.063   1.931   0.743 -0.1945 -0.1658 -0.1370
  474SOL     OW 1968   4.277   2.103   0.695 -0.2465 -0.1276  0.2704
  474SOL    HW2 1969   4.357   2.060   0.722 -0.6023 -0.4516  0.8110
  474SOL    HW3 1970   4.297   2.139   0.608  0.9539  1.0979  1.0458
  474SOL    MW4 1971   4.290   2.102   0.687 -0.1349 -0.0088  0.4441
  475SOL     OW 1972   4.267   2.340   0.830 -0.2253 -0.2368  0.2543
  475SOL    HW2 1973   4.184   2.379   0.803 -0.7048 -1.1843  0.3596
  475SOL    HW3 1974   4.263   2.250   0.800  0.0338 -0.7816  1.8051
  475SOL    MW4 1975   4.256   2.333   0.823 -0.2542 -0.4339  0.4728
  476SOL     OW 1976   4.035   2.470   0.763 -0.0464 -0.6400  0.3748
  476SOL    HW2 1977   4.008   2.560   0.782  1.0013 -0.5446  1.5206
  476SOL    HW3 1978   3.956   2.417   0.777 -0.5639  0.0490  0.0835
  476SOL    MW4 1979   4.021   2.475   0.768  0.0238 -0.5364  0.4876
  477SOL     OW 1980   3.949   2.722   0.840 -0.1245 -0.2515 -0.4849
  477SOL    HW2 1981   3.965   2.754   0.751 -1.9126 -0.2540 -0.8419
  477SOL    HW3 1982   3.854   2.730   0.850  0.2201  1.1398  1.9593
  477SOL    MW4 1983   3.938   2.727   0.829 -0.3147 -0.0682 -0.2096
  478SOL     OW 1984   4.298   2.878   0.685 -0.3841 -0.6428  0.1990
  478SOL    HW2 1985   4.368   2.822   0.718 -0.8199 -1.8417 -0.8747
  478SOL    HW3 1986   4.250   2.823   0.623 -0.6902  0.9913 -1.0485
  478SOL    MW4 1987   4.301   2.863   0.681 -0.4816 -0.5853 -0.1073
  479SOL     OW 1988   4.256   3.039   0.913 -0.7294  0.0501  0.2081
  479SOL    HW2 1989   4.269   2.972   0.845  0.6785 -0.9203  1.3882
  479SOL    HW3 1990   4.310   3.113   0.885 -1.0668  0.1022 -0.3107
  479SOL    MW4 1991   4.265   3.040   0.900 -0.5879 -0.0708  0.2953
  480SOL     OW 1992   4.083   3.187   0.749 -0.1561  0.4078 -0.1244
  480SOL    HW2 1993   4.060   3.265   0.800 -1.7529 -0.4079  0.4349
  480SOL    HW3 1994   4.123   3.127   0.812 -0.9548 -0.0950 -0.0959
  480SOL    MW4 1995   4.085   3.190   0.764 -0.4721  0.2339 -0.0469
  481SOL     OW 1996   4.034   3.437   0.854  0.5741  0.3690  0.1745
  481SOL    HW2 1997   4.041   3.454   0.948 -0.1975  1.6025  0.0260
  481SOL    HW3 1998   4.095   3.498   0.813  1.3389 -0.5689 -0.0986
  481SOL    MW4 1999   4.043   3.447   0.861  0.5732  0.4079  0.1190
  482SOL     OW 2000   4.254   3.593   0.769  0.3621  0.3749  0.5250
  482SOL    HW2 2001   4.260   3.686   0.789 -0.5503  0.3246  1.0434
  482SOL    HW3 2002   4.254   3.588   0.673 -2.5728  1.1160  0.4436
  482SOL    MW4 2003   4.255   3.604   0.759 -0.1454  0.4661  0.5826
  483SOL     OW 2004   4.282   3.853   0.829 -0.0179  0.4549  0.0166
  483SOL    HW2 2005   4.278   3.839   0.924 -0.2499  0.2495 -0.0224
  483SOL    HW3 2006   4.218   3.923   0.813 -0.4930  0.0028 -0.0778
  483SOL    MW4 2007   4.273   3.861   0.839 -0.1116  0.3681 -0.0010
  484SOL     OW 2008   4.080   4.043   0.765 -0.2576 -0.2652 -0.0767
  484SOL    HW2 2009   4.001   3.989   0.775 -0.6145 -0.2020 -2.3065
  484SOL    HW3 2010   4.083   4.064   0.671  0.5747  2.5254  0.5200
  484SOL    MW4 2011   4.070   4.039   0.754 -0.1950  0.1121 -0.2921
  485SOL     OW 2012   4.017   4.298   0.812  0.2842  0.3735  0.0639
  485SOL    HW2 2013   4.094   4.340   0.774 -0.2047 -0.0929 -1.5070
  485SOL    HW3 2014   4.038   4.204   0.811  0.1552  0.3326  0.7193
  485SOL    MW4 2015   4.030   4.291   0.807  0.2027  0.3071 -0.0569
  486SOL     OW 2016   4.254   4.423   0.725  0.3112 -0.2431 -0.0028
  486SOL    HW2 2017   4.267   4.512   0.759 -1.4301 -0.0214  0.1092
  486SOL    HW3 2018   4.334   4.377   0.750  0.9854  1.1280  0.4641
  486SOL    MW4 2019   4.266   4.429   0.733  0.1698 -0.0329  0.0736
  487SOL     OW 2020   0.229   4.638   1.133 -0.0885  0.0641  0.1424
  487SOL    HW2 2021   0.294   4.701   1.164  1.5624 -1.1663 -0.7283
  487SOL    HW3 2022   0.217   4.661   1.041  2.1158 -2.1594 -0.7567
  487SOL    MW4 2023   0.236   4.650   1.125  0.4202 -0.3915 -0.0911
  488SOL     OW 2024   0.020   0.133   1.194 -0.1216 -0.5573  0.4511
  488SOL    HW2 2025  -0.061   0.096   1.161 -0.5662  0.1402  0.7458
  488SOL    HW3 2026   0.086   0.065   1.179 -0.7403 -1.0872  0.1312
  488SOL    MW4 2027   0.018   0.119   1.188 -0.2619 -0.5352  0.4479
  489SOL     OW 2028   0.044   0.400   1.094  0.2963 -0.2297  0.4400
  489SOL    HW2 2029  -0.029   0.443   1.138 -0.6274 -0.0709 -1.2018
  489SOL    HW3 2030   0.040   0.309   1.125 -0.7722 -0.2902  0.1561
  489SOL    MW4 2031   0.034   0.394   1.104  0.0334 -0.2168  0.1861
  490SOL     OW 2032   0.248   0.531   1.225 -0.1828 -0.2281  0.3192
  490SOL    HW2 2033   0.231   0.624   1.214  0.0375  0.0673  2.2373
  490SOL    HW3 2034   0.170   0.488   1.191 -0.5667  0.6924  0.0142
  490SOL    MW4 2035   0.236   0.538   1.219 -0.2043 -0.0677  0.5319
  491SOL     OW 2036   0.201   0.778   1.128  0.4842 -0.2249 -0.0054
  491SOL    HW2 2037   0.289   0.803   1.153  0.8427 -0.7092 -0.7604
  491SOL    HW3 2038   0.145   0.844   1.169  1.3551  1.3937 -1.3710
  491SOL    MW4 2039   0.205   0.790   1.137  0.6464 -0.0753 -0.2851
  492SOL     OW 2040   4.487   0.941   1.254  0.2661 -0.3088 -0.0061
  492SOL    HW2 2041   4.497   0.949   1.349  0.0156  0.0709 -0.0119
  492SOL    HW3 2042   4.402   0.898   1.243  0.1546 -0.0702 -0.0692
  492SOL    MW4 2043   4.477   0.936   1.265  0.2184 -0.2272 -0.0151
  493SOL     OW 2044   0.006   1.200   1.160 -0.1066 -0.5008  0.1363
  493SOL    HW2 2045  -0.078   1.237   1.187  0.7102  1.4897  0.0491
  493SOL    HW3 2046   0.011   1.116   1.205 -3.1948 -1.7739 -1.6924
  493SOL    MW4 2047  -0.004   1.194   1.169 -0.4067 -0.4061 -0.1165
  494SOL     OW 2048   0.243   1.326   1.212  0.2898 -0.0565 -0.1343
  494SOL    HW2 2049   0.292   1.251   1.178  0.6017  0.0763  0.0260
  494SOL    HW3 2050   0.152   1.295   1.213  0.4255 -0.4642  0.0047
  494SOL    MW4 2051   0.237   1.312   1.208  0.3489 -0.0929 -0.0949
  495SOL     OW 2052   0.234   1.587   1.122  0.6103 -0.6183  0.2517
  495SOL    HW2 2053   0.243   1.497   1.154 -1.2725 -0.8704  0.1193
  495SOL    HW3 2054   0.230   1.578   1.027 -2.2437 -0.6862  0.3278
  495SOL    MW4 2055   0.235   1.574   1.114 -0.0146 -0.6605  0.2441
  496SOL     OW 2056   0.004   1.690   1.246  0.0642  0.6692 -0.0256
  496SOL    HW2 2057   0.007   1.772   1.197  1.9175 -0.0417 -1.1697
  496SOL    HW3 2058   0.087   1.647   1.225 -0.5654 -1.1626  1.1366
  496SOL    MW4 2059   0.015   1.695   1.237  0.2255  0.3337 -0.0234
  497SOL     OW 2060   0.002   1.928   1.106  0.4558  0.1371  0.1644
  497SOL    HW2 2061  -0.072   1.959   1.158 -0.3353 -0.9757 -0.2728
  497SOL    HW3 2062  -0.020   1.952   1.016  1.1956  0.8637  0.1685
  497SOL    MW4 2063  -0.010   1.935   1.101  0.4492  0.0861  0.1073
  498SOL     OW 2064   0.219   2.081   1.201  0.1587  0.3886  0.0492
  498SOL    HW2 2065   0.224   2.167   1.161 -0.5279 -0.2962 -1.5184
  498SOL    HW3 2066   0.152   2.034   1.151 -0.8570 -0.4246  2.0920
  498SOL    MW4 2067   0.211   2.086   1.189 -0.0659  0.1907  0.1119
  499SOL     OW 2068   0.240   2.320   1.079  0.5778  0.2477 -0.5845
  499SOL    HW2 2069   0.314   2.366   1.118 -0.7959  0.0744  2.3908
  499SOL    HW3 2070   0.164   2.375   1.101 -0.4279 -0.6276 -1.7962
  499SOL    MW4 2071   0.239   2.334   1.087  0.2638  0.1094 -0.3518
  500SOL     OW 2072   0.012   2.454   1.202 -0.5761  0.1374  0.3912
  500SOL    HW2 2073   0.012   2.459   1.297  0.8753  0.4990  0.3909
  500SOL    HW3 2074  -0.067   2.404   1.180 -0.1940 -1.1475  1.8506
  500SOL    MW4 2075   0.002   2.448   1.211 -0.3338  0.0157  0.5835
  501SOL     OW 2076   4.456   2.713   1.073  0.1297 -0.7074 -0.2209
  501SOL    HW2 2077   4.379   2.756   1.109  0.4496  1.2161 -1.7618
  501SOL    HW3 2078   4.457   2.627   1.115 -1.8302 -0.0955  1.1618
  501SOL    MW4 2079   4.446   2.708   1.084 -0.0868 -0.3731 -0.2418
  502SOL     OW 2080   0.224   2.820   1.189  0.6067 -0.4933 -0.2828
  502SOL    HW2 2081   0.204   2.804   1.282  1.5599 -0.9138 -0.1396
  502SOL    HW3 2082   0.145   2.794   1.143 -0.4974  1.3148  0.5418
  502SOL    MW4 2083   0.211   2.814   1.195  0.5868 -0.3102 -0.1552
  503SOL     OW 2084   0.266   3.092   1.131 -0.0210  0.2024 -0.4849
  503SOL    HW2 2085   0.325   3.132   1.195  0.2357  0.1185 -0.6645
  503SOL    HW3 2086   0.271   2.998   1.148 -0.6125  0.2457 -0.0732
  503SOL    MW4 2087   0.275   3.085   1.142 -0.0651  0.1969 -0.4543
  504SOL     OW 2088   0.042   3.223   1.228 -0.1214  0.2231 -0.0589
  504SOL    HW2 2089  -0.040   3.179   1.206 -0.3325  1.2322 -1.3865
  504SOL    HW3 2090   0.111   3.162   1.202 -0.4338 -0.2596  0.2402
  504SOL    MW4 2091   0.040   3.209   1.222 -0.1904  0.2923 -0.1945
  505SOL     OW 2092   0.004   3.479   1.126 -0.6401  0.0381  0.0548
  505SOL    HW2 2093   0.023   3.389   1.151 -1.1692  0.0150  0.3651
  505SOL    HW3 2094   0.016   3.481   1.031  2.0495  0.2836  0.3437
  505SOL    MW4 2095   0.008   3.468   1.117 -0.3551  0.0675  0.1339
  506SOL     OW 2096   0.243   3.601   1.215  0.4349 -0.0844  0.1136
  506SOL    HW2 2097   0.238   3.593   1.310  0.2033 -1.1035  0.0282
  506SOL    HW3 2098   0.165   3.555   1.183 -0.9295  2.5704 -0.4820
  506SOL    MW4 2099   0.232   3.594   1.223  0.2243  0.1314  0.0237
  507SOL     OW 2100   0.274   3.865   1.178  0.1983 -0.2254  0.0786
  507SOL    HW2 2101   0.189   3.909   1.179  0.3990  0.1731 -0.3091
  507SOL    HW3 2102   0.254   3.774   1.199 -0.4569 -0.3741 -1.1493
  507SOL    MW4 2103   0.260   3.859   1.181  0.1383 -0.1924 -0.1345
  508SOL     OW 2104   0.017   3.977   1.176 -0.0438  0.0965 -0.0844
  508SOL    HW2 2105  -0.002   3.977   1.270 -0.5136  0.1786 -0.1805
  508SOL    HW3 2106  -0.057   3.931   1.136  1.1063 -1.6942 -0.2188
  508SOL    MW4 2107   0.005   3.971   1.183  0.0458 -0.1287 -0.1147
  509SOL     OW 2108   0.024   4.252   1.104  0.2627 -0.1443  0.1854
  509SOL    HW2 2109   0.101   4.290   1.147  0.2208  0.9936 -0.7136
  509SOL    HW3 2110   0.022   4.161   1.134  1.8595 -0.1361  0.3679
  509SOL    MW4 2111   0.034   4.245   1.113  0.4678  0.0072  0.0908
  510SOL     OW 2112   0.247   4.366   1.230  0.8589  0.4428  0.5750
  510SOL    HW2 2113   0.261   4.365   1.324  0.7254 -0.7130  0.5836
  510SOL    HW3 2114   0.246   4.459   1.207  1.9561  0.6949  1.5447
  510SOL    MW4 2115   0.248   4.378   1.239  0.9861  0.3238  0.7041
  511SOL     OW 2116   0.669   0.002   1.121 -0.4314  0.1197 -0.3750
  511SOL    HW2 2117   0.746   0.043   1.160 -0.4176  0.7213 -1.0336
  511SOL    HW3 2118   0.673  -0.089   1.151  0.9231 -0.0367 -0.9540
  511SOL    MW4 2119   0.680  -0.005   1.130 -0.2509  0.1788 -0.5383
  512SOL     OW 2120   0.444   0.107   1.249  0.3119 -0.2093 -0.2856
  512SOL    HW2 2121   0.444   0.198   1.218  0.8768  0.5634  1.8555
  512SOL    HW3 2122   0.527   0.071   1.217  0.9432  0.6150  0.3753
  512SOL    MW4 2123   0.455   0.114   1.241  0.4697  0.0014  0.0842
  513SOL     OW 2124   0.416   0.363   1.128 -0.2622 -0.0627  0.4266
  513SOL    HW2 2125   0.349   0.423   1.161  0.0239  0.3923  0.1863
  513SOL    HW3 2126   0.437   0.396   1.041  1.1356  0.5211  0.9733
  513SOL    MW4 2127   0.410   0.375   1.121 -0.0400  0.0743  0.4669
  514SOL     OW 2128   0.658   0.488   1.229  0.4095 -0.2754  0.0799
  514SOL    HW2 2129   0.656   0.576   1.191  0.5199  0.2364  1.2437
  514SOL    HW3 2130   0.575   0.448   1.200  0.8683 -0.2070 -1.3940
  514SOL    MW4 2131   0.647   0.494   1.220  0.4845 -0.1988  0.0389
  515SOL     OW 2132   0.675   0.737   1.116 -0.2744 -0.2974 -0.2347
  515SOL    HW2 2133   0.593   0.780   1.139  0.2179  0.5937 -0.1164
  515SOL    HW3 2134   0.695   0.770   1.028  0.3061  0.0210  0.0156
  515SOL    MW4 2135   0.667   0.747   1.108 -0.1328 -0.1379 -0.1860
  516SOL     OW 2136   0.447   0.872   1.204 -0.1583 -0.6400  0.1908
  516SOL    HW2 2137   0.456   0.860   1.298 -2.2422 -0.4639  0.4275
  516SOL    HW3 2138   0.451   0.966   1.191 -1.1857 -0.5805  0.2613
  516SOL    MW4 2139   0.449   0.883   1.214 -0.5688 -0.6089  0.2313
  517SOL     OW 2140   0.440   1.140   1.123 -0.1822  0.4209  0.3077
  517SOL    HW2 2141   0.527   1.177   1.141 -0.2083  1.2505 -1.2147
  517SOL    HW3 2142   0.431   1.145   1.028 -0.5292 -2.7426  0.1136
  517SOL    MW4 2143   0.450   1.145   1.113 -0.2314  0.1130  0.0812
  518SOL     OW 2144   0.685   1.253   1.199  0.6163  0.0595  0.1598
  518SOL    HW2 2145   0.768   1.220   1.165  1.0406 -1.0505  2.1942
  518SOL    HW3 2146   0.689   1.348   1.185  2.5283  0.1042  0.8505
  518SOL    MW4 2147   0.696   1.261   1.193  0.9246 -0.0812  0.5195
  519SOL     OW 2148   0.697   1.511   1.151 -0.4124 -0.4099  0.3515
  519SOL    HW2 2149   0.773   1.554   1.190  0.5942 -0.8178 -1.1448
  519SOL    HW3 2150   0.626   1.575   1.159  0.7032  0.9537 -0.5408
  519SOL    MW4 2151   0.697   1.525   1.157 -0.1324 -0.2837  0.0365
  520SOL     OW 2152   0.483   1.687   1.184  0.0587  0.0487  0.3680
  520SOL    HW2 2153   0.466   1.701   1.278  0.6030 -1.6548  0.7402
  520SOL    HW3 2154   0.398   1.658   1.149  0.5223 -2.0833  0.9248
  520SOL    MW4 2155   0.469   1.685   1.192  0.1917 -0.4573  0.4905
  521SOL     OW 2156   0.462   1.991   1.115  0.0793  0.0265 -0.0233
  521SOL    HW2 2157   0.453   1.897   1.133 -0.2188 -0.0201 -0.4189
  521SOL    HW3 2158   0.381   2.030   1.148 -0.3868 -0.0324 -1.0735
  521SOL    MW4 2159   0.450   1.984   1.122 -0.0215  0.0126 -0.2140
  522SOL     OW 2160   0.671   2.072   1.273 -0.0591  0.1023  0.9471
  522SOL    HW2 2161   0.655   2.085   1.366 -1.5248  0.6777  0.6367
  522SOL    HW3 2162   0.589   2.035   1.239  0.1590  0.6767 -0.2497
  522SOL    MW4 2163   0.658   2.069   1.280 -0.2236  0.2542  0.7484
  523SOL     OW 2164   0.704   2.308   1.128  0.1231 -0.3020  0.5495
  523SOL    HW2 2165   0.618   2.346   1.147 -0.1710 -0.7093  0.0472
  523SOL    HW3 2166   0.696   2.217   1.159  0.0838 -0.5884 -0.3029
  523SOL    MW4 2167   0.691   2.301   1.135  0.0792 -0.3934  0.3709
  524SOL     OW 2168   0.464   2.420   1.208 -0.0603  0.0056  0.2820
  524SOL    HW2 2169   0.460   2.425   1.304  0.2159 -0.1407  0.3014
  524SOL    HW3 2170   0.454   2.511   1.179  0.0132  0.0707  0.4564
  524SOL    MW4 2171   0.462   2.433   1.217 -0.0142 -0.0052  0.3077
  525SOL     OW 2172   0.428   2.669   1.122 -0.2315 -0.0346 -0.4055
  525SOL    HW2 2173   0.360   2.734   1.140 -1.9088 -1.6020 -0.9294
  525SOL    HW3 2174   0.438   2.669   1.027  0.3041 -0.0147 -0.3525
  525SOL    MW4 2175   0.421   2.678   1.112 -0.3821 -0.2387 -0.4677
  526SOL     OW 2176   0.645   2.829   1.239 -0.0725  0.6216 -0.0842
  526SOL    HW2 2177   0.652   2.915   1.198 -1.9218  1.6045  1.5818
  526SOL    HW3 2178   0.566   2.790   1.200  0.0930  0.1723  0.0282
  526SOL    MW4 2179   0.635   2.835   1.228 -0.2947  0.6921  0.1506
  527SOL     OW 2180   0.702   3.085   1.144  0.0656 -0.2424  0.1539
  527SOL    HW2 2181   0.770   3.153   1.148 -0.7190  0.5144  0.5984
  527SOL    HW3 2182   0.668   3.091   1.054 -0.6236  0.5612  0.4644
  527SOL    MW4 2183   0.707   3.095   1.132 -0.1289 -0.0365  0.2536
  528SOL     OW 2184   0.471   3.239   1.254  0.0650 -0.2869 -0.1243
  528SOL    HW2 2185   0.478   3.332   1.231 -2.1865 -0.3648 -1.2886
  528SOL    HW3 2186   0.546   3.198   1.212 -0.0660  0.7038 -1.3801
  528SOL    MW4 2187   0.482   3.246   1.245 -0.2494 -0.1664 -0.4437
  529SOL     OW 2188   0.484   3.484   1.102 -0.6558  0.6128  0.0532
  529SOL    HW2 2189   0.566   3.523   1.132 -0.1855  0.3360 -0.8396
  529SOL    HW3 2190   0.416   3.538   1.141 -0.0784  0.1680  1.7271
  529SOL    MW4 2191   0.486   3.496   1.111 -0.5175  0.5176  0.1562
  530SOL     OW 2192   0.702   3.590   1.244 -0.0432 -0.4427  0.1705
  530SOL    HW2 2193   0.693   3.581   1.339 -0.2794  1.0204  0.3002
  530SOL    HW3 2194   0.677   3.681   1.227 -0.0339 -0.7186 -1.2971
  530SOL    MW4 2195   0.697   3.601   1.255 -0.0731 -0.2859 -0.0061
  531SOL     OW 2196   0.668   3.842   1.161 -0.3199  0.3259  0.2347
  531SOL    HW2 2197   0.596   3.896   1.194 -0.1196  0.7498 -0.0186
  531SOL    HW3 2198   0.667   3.855   1.066 -0.6274 -0.5606  0.1148
  531SOL    MW4 2199   0.659   3.851   1.153 -0.3339  0.2646  0.1854
  532SOL     OW 2200   0.481   4.006   1.273  0.5462 -0.2933 -0.2863
  532SOL    HW2 2201   0.483   4.088   1.222  0.8898 -0.1830 -0.0981
  532SOL    HW3 2202   0.407   3.957   1.236  0.6249 -0.0983 -0.7126
  532SOL    MW4 2203   0.471   4.011   1.261  0.6019 -0.2527 -0.3177
  533SOL     OW 2204   0.487   4.253   1.147  0.5533  0.1914  0.0154
  533SOL    HW2 2205   0.543   4.321   1.185  0.2031 -0.0617  1.0036
  533SOL    HW3 2206   0.398   4.280   1.169  0.1514  1.4538 -2.9604
  533SOL    MW4 2207   0.483   4.266   1.155  0.4541  0.3242 -0.2466
  534SOL     OW 2208   0.701   4.414   1.234  0.1536  0.8577  0.0685
  534SOL    HW2 2209   0.691   4.396   1.327 -1.1105 -0.3055 -0.2768
  534SOL    HW3 2210   0.767   4.351   1.205 -0.2364  0.4898 -0.0288
  534SOL    MW4 2211   0.709   4.403   1.242 -0.0646  0.6557  0.0101
  535SOL     OW 2212   1.155   4.660   1.147  0.0997 -0.2347  0.0581
  535SOL    HW2 2213   1.138   4.574   1.186  1.5401 -0.2837  0.5870
  535SOL    HW3 2214   1.139   4.648   1.053 -0.3328 -0.9020  0.2160
  535SOL    MW4 2215   1.150   4.647   1.140  0.2327 -0.3295  0.1487
  536SOL     OW 2216   0.915   0.106   1.218 -0.1369  0.1130 -0.1291
  536SOL    HW2 2217   0.922   0.122   1.312  1.6903 -0.9572 -0.0715
  536SOL    HW3 2218   1.002   0.075   1.192 -0.6624  0.2630 -2.1461
  536SOL    MW4 2219   0.928   0.104   1.227  0.0348 -0.0084 -0.3877
  537SOL     OW 2220   0.870   0.364   1.089 -0.1472  0.0461  0.0327
  537SOL    HW2 2221   0.894   0.280   1.128 -0.0201 -0.3489 -0.8885
  537SOL    HW3 2222   0.787   0.388   1.132  0.0098 -0.3600  0.5651
  537SOL    MW4 2223   0.862   0.356   1.100 -0.1098 -0.0595 -0.0186
  538SOL     OW 2224   1.100   0.492   1.194 -0.2635  0.2676  0.2941
  538SOL    HW2 2225   1.095   0.518   1.286 -0.4524 -1.9576  0.9351
  538SOL    HW3 2226   1.018   0.446   1.177  0.4237 -0.6842 -0.5546
  538SOL    MW4 2227   1.089   0.490   1.204 -0.1978 -0.1516  0.2667
  539SOL     OW 2228   1.133   0.751   1.119  0.2418 -0.0732 -0.0813
  539SOL    HW2 2229   1.058   0.782   1.169 -1.4983  1.1795 -3.3448
  539SOL    HW3 2230   1.133   0.656   1.132 -0.2932  0.2025  2.0625
  539SOL    MW4 2231   1.123   0.742   1.127 -0.0583  0.1284 -0.2290
  540SOL     OW 2232   0.921   0.866   1.215  0.3347 -0.0309  0.0412
  540SOL    HW2 2233   0.901   0.954   1.183  0.6795 -0.0933 -0.3468
  540SOL    HW3 2234   0.843   0.815   1.195  0.9416 -0.3256 -1.6673
  540SOL    MW4 2235   0.908   0.871   1.208  0.4603 -0.0780 -0.2354
  541SOL     OW 2236   0.908   1.115   1.097 -0.1939  0.2659 -0.5134
  541SOL    HW2 2237   0.965   1.176   1.144 -1.0761  1.4104 -0.9058
  541SOL    HW3 2238   0.932   1.126   1.005 -0.5664  0.2472 -0.6128
  541SOL    MW4 2239   0.918   1.125   1.091 -0.3595  0.4145 -0.5782
  542SOL     OW 2240   1.120   1.327   1.203  0.1260 -0.3149  0.3391
  542SOL    HW2 2241   1.125   1.326   1.298  0.3359  0.7675  0.3409
  542SOL    HW3 2242   1.196   1.277   1.173 -0.2178 -1.0845  0.7440
  542SOL    MW4 2243   1.130   1.320   1.211  0.1082 -0.2737  0.3927
  543SOL     OW 2244   1.136   1.581   1.107 -0.4370  0.2272 -0.0083
  543SOL    HW2 2245   1.122   1.490   1.135 -0.7191  0.4508  0.5683
  543SOL    HW3 2246   1.181   1.573   1.023 -0.1464 -0.4460  0.2097
  543SOL    MW4 2247   1.140   1.568   1.099 -0.4358  0.1678  0.0967
  544SOL     OW 2248   0.896   1.704   1.201  0.8189  0.2410 -0.0499
  544SOL    HW2 2249   0.888   1.796   1.178  0.0219  0.0716 -0.4443
  544SOL    HW3 2250   0.982   1.678   1.167 -0.2219  0.0598 -2.5956
  544SOL    MW4 2251   0.906   1.713   1.194  0.5764  0.1948 -0.4377
  545SOL     OW 2252   0.895   1.980   1.139 -0.0442  0.2476  0.2481
  545SOL    HW2 2253   0.978   2.021   1.166 -0.3140  1.9236 -1.3379
  545SOL    HW3 2254   0.828   2.029   1.187 -0.2867  0.8681 -0.7025
  545SOL    MW4 2255   0.897   1.992   1.149 -0.1118  0.5506 -0.0865
  546SOL     OW 2256   1.151   2.066   1.212 -0.1430 -0.2623  0.0438
  546SOL    HW2 2257   1.136   2.072   1.306  0.3041 -1.3086  0.1920
  546SOL    HW3 2258   1.141   2.156   1.180 -1.6468 -0.1171  0.8739
  546SOL    MW4 2259   1.148   2.079   1.220 -0.2824 -0.3812  0.1729
  547SOL     OW 2260   1.138   2.339   1.170 -0.1016  0.0755  0.3356
  547SOL    HW2 2261   1.217   2.384   1.200 -0.0643 -0.3628  0.9048
  547SOL    HW3 2262   1.066   2.396   1.199  0.0311  0.8628 -0.8587
  547SOL    MW4 2263   1.139   2.352   1.178 -0.0792  0.1218  0.2531
  548SOL     OW 2264   0.900   2.490   1.229 -0.2684  0.4031 -0.5528
  548SOL    HW2 2265   0.898   2.485   1.324  3.0490  0.6494 -0.4112
  548SOL    HW3 2266   0.825   2.437   1.200 -0.6347 -0.6041  2.1507
  548SOL    MW4 2267   0.889   2.482   1.238  0.1209  0.3028 -0.1775
  549SOL     OW 2268   0.898   2.752   1.177  0.3176  0.1444 -0.4296
  549SOL    HW2 2269   0.886   2.660   1.201  1.5106  0.0423 -0.1632
  549SOL    HW3 2270   0.817   2.795   1.203 -0.8722 -1.1091 -1.9281
  549SOL    MW4 2271   0.886   2.745   1.183  0.3181 -0.0343 -0.5921
  550SOL     OW 2272   1.145   2.867   1.208  0.5799  0.1188  0.1715
  550SOL    HW2 2273   1.155   2.869   1.303  0.4597 -0.8709  0.2142
  550SOL    HW3 2274   1.054   2.839   1.194  0.0560  1.9726 -0.2302
  550SOL    MW4 2275   1.134   2.864   1.219  0.4950  0.2329  0.1240
  551SOL     OW 2276   1.098   3.138   1.102 -0.1397 -0.0782  0.2184
  551SOL    HW2 2277   1.104   3.046   1.127 -0.2217 -0.1253  0.0720
  551SOL    HW3 2278   1.100   3.136   1.006  2.6723  0.2894  0.2530
  551SOL    MW4 2279   1.099   3.125   1.092  0.2205 -0.0358  0.2036
  552SOL     OW 2280   0.898   3.262   1.224 -0.0298  0.3940 -0.0652
  552SOL    HW2 2281   0.900   3.353   1.196 -0.4030  0.2723 -0.4890
  552SOL    HW3 2282   0.976   3.223   1.184  0.0805  0.5049  0.0420
  552SOL    MW4 2283   0.909   3.269   1.215 -0.0645  0.3929 -0.1069
  553SOL     OW 2284   0.950   3.517   1.129 -0.1792  0.3860  0.2219
  553SOL    HW2 2285   0.873   3.552   1.173  0.0751  0.9253  0.2445
  553SOL    HW3 2286   0.925   3.509   1.037  0.0314  1.4194  0.0701
  553SOL    MW4 2287   0.937   3.520   1.123 -0.1179  0.5934  0.2048
  554SOL     OW 2288   1.215   3.617   1.239 -0.0339 -0.4113  0.4830
  554SOL    HW2 2289   1.289   3.567   1.206 -0.0428 -0.2642  0.2292
  554SOL    HW3 2290   1.140   3.583   1.191 -0.0782 -0.3321  0.4956
  554SOL    MW4 2291   1.215   3.606   1.228 -0.0409 -0.3815  0.4512
  555SOL     OW 2292   1.170   3.896   1.136 -0.3934  0.3163  0.1144
  555SOL    HW2 2293   1.086   3.929   1.169 -1.1687 -1.0045 -0.4695
  555SOL    HW3 2294   1.179   3.809   1.176  0.7686  0.5083  0.2822
  555SOL    MW4 2295   1.160   3.889   1.145 -0.3422  0.1676  0.0596
  556SOL     OW 2296   0.914   3.973   1.241  0.6838 -0.0837  0.3995
  556SOL    HW2 2297   0.919   4.013   1.328  0.4354  0.8419 -0.0157
  556SOL    HW3 2298   0.839   3.914   1.247  0.5681  0.0990  0.7663
  556SOL    MW4 2299   0.904   3.970   1.254  0.6358  0.0625  0.3930
  557SOL     OW 2300   0.893   4.230   1.125  0.1499  0.4164 -0.0559
  557SOL    HW2 2301   0.900   4.143   1.164 -0.2185  0.7416  0.7351
  557SOL    HW3 2302   0.877   4.213   1.032  1.8308 -0.3527 -0.2304
  557SOL    MW4 2303   0.892   4.217   1.118  0.3231  0.3581  0.0254
  558SOL     OW 2304   1.095   4.409   1.227 -0.0390  0.0986 -0.2011
  558SOL    HW2 2305   1.092   4.395   1.322 -0.6717 -0.5660 -0.3113
  558SOL    HW3 2306   1.020   4.360   1.193  0.9333 -0.7502 -1.1804
  558SOL    MW4 2307   1.085   4.400   1.235  0.0058 -0.1011 -0.3449
  559SOL     OW 2308   1.580   4.659   1.096 -0.1209 -0.1571 -0.6135
  559SOL    HW2 2309   1.663   4.697   1.127  0.0916  0.1371 -1.5293
  559SOL    HW3 2310   1.577   4.572   1.136  0.8570 -0.3457 -0.9337
  559SOL    MW4 2311   1.591   4.653   1.106  0.0361 -0.1435 -0.7766
  560SOL     OW 2312   1.386   0.121   1.231  0.4523  0.8729  0.4662
  560SOL    HW2 2313   1.452   0.077   1.178 -0.2188  0.6138 -0.1630
  560SOL    HW3 2314   1.304   0.076   1.209 -0.0831  1.8065  0.5271
  560SOL    MW4 2315   1.384   0.109   1.221  0.2931  0.9619  0.3912
  561SOL     OW 2316   1.348   0.356   1.093  1.0319  0.2210  0.1765
  561SOL    HW2 2317   1.353   0.276   1.146 -0.0591  0.3946  0.5698
  561SOL    HW3 2318   1.269   0.400   1.125 -0.2253 -0.1574 -2.2989
  561SOL    MW4 2319   1.338   0.352   1.104  0.7219  0.1940 -0.0982
  562SOL     OW 2320   1.546   0.507   1.223  0.0162 -0.0594  0.2688
  562SOL    HW2 2321   1.547   0.598   1.194  0.2371 -0.3283 -0.5624
  562SOL    HW3 2322   1.473   0.467   1.177  1.6678 -1.0160 -1.5634
  562SOL    MW4 2323   1.537   0.514   1.213  0.2633 -0.2211 -0.0827
  563SOL     OW 2324   1.545   0.783   1.155  0.1543  0.0950  0.4419
  563SOL    HW2 2325   1.633   0.821   1.167 -0.1794  0.5793  1.3871
  563SOL    HW3 2326   1.534   0.778   1.060  0.2347  2.3265  0.2894
  563SOL    MW4 2327   1.555   0.788   1.144  0.1210  0.4532  0.5466
  564SOL     OW 2328   1.338   0.958   1.187 -0.7584  0.0256 -0.0343
  564SOL    HW2 2329   1.415   0.902   1.174 -1.3494 -0.4451 -1.6286
  564SOL    HW3 2330   1.264   0.901   1.165 -1.4166  1.1706 -0.7977
  564SOL    MW4 2331   1.339   0.943   1.182 -0.9232  0.1146 -0.3453
  565SOL     OW 2332   1.365   1.231   1.077  0.0672  0.0436 -0.0556
  565SOL    HW2 2333   1.342   1.141   1.100 -1.0155  0.5527  0.9321
  565SOL    HW3 2334   1.364   1.233   0.982  0.6812 -1.1320 -0.0926
  565SOL    MW4 2335   1.362   1.220   1.068  0.0054 -0.0443  0.0699
  566SOL     OW 2336   1.590   1.302   1.223 -0.1648  0.0751 -0.2898
  566SOL    HW2 2337   1.668   1.250   1.203  0.6704  1.4434 -0.6778
  566SOL    HW3 2338   1.523   1.269   1.164 -0.1601 -1.7599  0.6966
  566SOL    MW4 2339   1.591   1.291   1.213 -0.0540  0.0135 -0.2109
  567SOL     OW 2340   1.584   1.555   1.102 -0.3078  0.4286  0.5087
  567SOL    HW2 2341   1.651   1.591   1.160  1.5121 -0.7506 -0.8143
  567SOL    HW3 2342   1.577   1.463   1.128  0.7632 -0.1877 -1.3226
  567SOL    MW4 2343   1.592   1.548   1.113  0.0738  0.1917  0.0924
  568SOL     OW 2344   1.355   1.656   1.263  0.2376  0.0786 -0.2825
  568SOL    HW2 2345   1.426   1.609   1.219 -0.2842 -0.7626 -0.2348
  568SOL    HW3 2346   1.276   1.630   1.215 -0.2626 -0.3914  0.7780
  568SOL    MW4 2347   1.354   1.646   1.251  0.1028 -0.0943 -0.1364
  569SOL     OW 2348   1.346   1.889   1.096 -0.4987  0.2791 -0.0060
  569SOL    HW2 2349   1.344   1.801   1.133  0.8323 -0.1502 -0.9336
  569SOL    HW3 2350   1.276   1.936   1.142  0.4839 -0.5038  2.3500
  569SOL    MW4 2351   1.336   1.884   1.107 -0.1935  0.1192  0.1824
  570SOL     OW 2352   1.570   2.025   1.239 -0.4963 -0.5252  0.4612
  570SOL    HW2 2353   1.571   2.120   1.226  1.3099 -0.5719  0.1155
  570SOL    HW3 2354   1.497   1.994   1.185 -0.5302  0.5709 -0.1348
  570SOL    MW4 2355   1.560   2.033   1.230 -0.2626 -0.3870  0.3371
  571SOL     OW 2356   1.579   2.297   1.173  0.5061 -0.0392  0.2226
  571SOL    HW2 2357   1.508   2.354   1.201  0.2270 -0.1064 -0.3375
  571SOL    HW3 2358   1.590   2.316   1.080  0.4353 -0.8636  0.0435
  571SOL    MW4 2359   1.571   2.307   1.164  0.4599 -0.1569  0.1251
  572SOL     OW 2360   1.369   2.475   1.263  0.1334 -0.1976 -0.2554
  572SOL    HW2 2361   1.348   2.482   1.356  0.0876  1.6105 -0.3684
  572SOL    HW3 2362   1.362   2.565   1.231 -0.3974 -0.8858 -2.1284
  572SOL    MW4 2363   1.365   2.488   1.271  0.0572 -0.0501 -0.5175
  573SOL     OW 2364   1.368   2.717   1.116 -0.0539  0.6479 -1.3577
  573SOL    HW2 2365   1.441   2.750   1.169  0.0905 -2.0188  0.1764
  573SOL    HW3 2366   1.290   2.749   1.160  0.0941 -0.7988  0.0112
  573SOL    MW4 2367   1.367   2.726   1.129 -0.0153  0.1051 -0.9748
  574SOL     OW 2368   1.580   2.824   1.252 -0.1440  0.2659 -0.1262
  574SOL    HW2 2369   1.654   2.778   1.213 -0.2988 -0.6708  0.6606
  574SOL    HW3 2370   1.581   2.911   1.212  2.6491  1.0077  1.4650
  574SOL    MW4 2371   1.590   2.829   1.242  0.2042  0.2406  0.1876
  575SOL     OW 2372   1.608   3.073   1.108  0.0729  0.0533  0.4571
  575SOL    HW2 2373   1.683   3.107   1.157  0.1611  0.2962  0.1596
  575SOL    HW3 2374   1.532   3.115   1.147  0.0685 -0.4042  0.9393
  575SOL    MW4 2375   1.608   3.083   1.119  0.0840  0.0250  0.4814
  576SOL     OW 2376   1.366   3.185   1.208 -0.1877 -0.0313  0.6685
  576SOL    HW2 2377   1.357   3.198   1.302  1.1510  1.5580  0.5988
  576SOL    HW3 2378   1.276   3.177   1.176 -0.8020  2.4163  1.6771
  576SOL    MW4 2379   1.353   3.186   1.216 -0.0921  0.5014  0.7923
  577SOL     OW 2380   1.393   3.439   1.116 -0.0321  0.0903 -0.1577
  577SOL    HW2 2381   1.396   3.347   1.143 -2.5544 -0.0511 -0.2266
  577SOL    HW3 2382   1.378   3.436   1.022  2.8267  0.5996 -0.6666
  577SOL    MW4 2383   1.391   3.426   1.107  0.0123  0.1390 -0.2339
  578SOL     OW 2384   1.603   3.582   1.278 -0.2449  0.1691 -0.4465
  578SOL    HW2 2385   1.592   3.671   1.246  1.1609 -0.1533 -1.9024
  578SOL    HW3 2386   1.527   3.534   1.244 -0.7265  0.6884 -0.1010
  578SOL    MW4 2387   1.592   3.587   1.269 -0.1230  0.1948 -0.5929
  579SOL     OW 2388   1.560   3.835   1.171 -0.0663  0.1332 -0.2252
  579SOL    HW2 2389   1.492   3.884   1.217  0.5445  1.2183 -0.4552
  579SOL    HW3 2390   1.555   3.866   1.081 -1.2654 -1.9913 -0.9143
  579SOL    MW4 2391   1.551   3.846   1.165 -0.1440 -0.0036 -0.3463
  580SOL     OW 2392   1.367   4.027   1.276  0.1146  0.3694 -0.4326
  580SOL    HW2 2393   1.382   4.105   1.222  0.5721  0.1390 -0.6407
  580SOL    HW3 2394   1.303   3.976   1.227  2.0002 -0.7984 -1.7563
  580SOL    MW4 2395   1.361   4.031   1.262  0.4238  0.1850 -0.6347
  581SOL     OW 2396   1.342   4.302   1.148  0.2806  0.0635  0.4005
  581SOL    HW2 2397   1.257   4.343   1.165 -0.3480 -1.3579  0.7668
  581SOL    HW3 2398   1.348   4.296   1.053 -0.3434 -0.4860  0.3984
  581SOL    MW4 2399   1.332   4.306   1.138  0.1154 -0.1969  0.4485
  582SOL     OW 2400   1.563   4.432   1.255  0.1339  0.1719  0.0645
  582SOL    HW2 2401   1.556   4.455   1.348  1.4041 -0.5243  0.3420
  582SOL    HW3 2402   1.483   4.384   1.236 -0.1617  0.3726  0.7892
  582SOL    MW4 2403   1.552   4.429   1.265  0.2625  0.1068  0.1967
  583SOL     OW 2404   2.050   4.654   1.124  0.1910 -0.3728  0.1803
  583SOL    HW2 2405   2.047   4.568   1.165 -0.9683 -0.4998 -0.1566
  583SOL    HW3 2406   2.015   4.640   1.036 -0.6986  0.5842  0.3730
  583SOL    MW4 2407   2.045   4.641   1.117 -0.0794 -0.2632  0.1612
  584SOL     OW 2408   1.799   0.104   1.198  0.2132  0.1633 -0.1651
  584SOL    HW2 2409   1.789   0.192   1.161 -1.3418 -0.9891 -2.5819
  584SOL    HW3 2410   1.890   0.082   1.180  0.1635  0.6392 -1.0773
  584SOL    MW4 2411   1.810   0.113   1.191  0.0015  0.0741 -0.6043
  585SOL     OW 2412   1.767   0.370   1.113  0.1966 -0.1553 -0.1696
  585SOL    HW2 2413   1.690   0.416   1.146  1.1259  0.8386  0.6280
  585SOL    HW3 2414   1.755   0.368   1.018 -0.4236  0.6975 -0.1081
  585SOL    MW4 2415   1.755   0.376   1.105  0.2375  0.0884 -0.0563
  586SOL     OW 2416   1.995   0.490   1.221  0.7110  0.6559 -0.3175
  586SOL    HW2 2417   2.001   0.476   1.315  1.9142  0.6980 -0.3782
  586SOL    HW3 2418   1.912   0.450   1.196  0.6076  0.2240  0.6836
  586SOL    MW4 2419   1.985   0.483   1.230  0.8562  0.6045 -0.1935
  587SOL     OW 2420   2.007   0.752   1.128  0.4265  0.1725  0.7705
  587SOL    HW2 2421   2.002   0.665   1.168 -0.3721 -0.0053  0.2837
  587SOL    HW3 2422   2.022   0.736   1.035 -0.8889  0.5289  0.4893
  587SOL    MW4 2423   2.008   0.738   1.121  0.1476  0.1962  0.6691
  588SOL     OW 2424   1.797   0.914   1.228  0.3771 -0.3349  0.0841
  588SOL    HW2 2425   1.782   0.894   1.320  1.2422 -0.8383  0.1199
  588SOL    HW3 2426   1.880   0.871   1.207  1.5472  1.9533 -0.2157
  588SOL    MW4 2427   1.806   0.906   1.237  0.6456 -0.0994  0.0494
  589SOL     OW 2428   1.812   1.168   1.107  0.1175  0.1629 -0.3886
  589SOL    HW2 2429   1.800   1.076   1.128  1.0250 -0.0961 -0.9532
  589SOL    HW3 2430   1.807   1.172   1.011 -1.1274  0.8908 -0.3075
  589SOL    MW4 2431   1.810   1.157   1.097  0.0731  0.2248 -0.4523
  590SOL     OW 2432   2.062   1.290   1.165  0.0190 -0.0968  0.3324
  590SOL    HW2 2433   2.135   1.244   1.124  1.6893  0.1916  2.7990
  590SOL    HW3 2434   1.986   1.233   1.152  0.6262 -0.2967 -2.4751
  590SOL    MW4 2435   2.062   1.277   1.158  0.3192 -0.0852  0.2874
  591SOL     OW 2436   2.042   1.574   1.144  0.0063 -0.5618  0.1806
  591SOL    HW2 2437   2.046   1.479   1.148 -0.7047 -0.5789  0.6072
  591SOL    HW3 2438   2.035   1.594   1.050 -0.0226 -0.9366  0.1046
  591SOL    MW4 2439   2.041   1.564   1.132 -0.0913 -0.6136  0.2269
  592SOL     OW 2440   1.798   1.654   1.243 -0.3941  0.6225 -0.0901
  592SOL    HW2 2441   1.790   1.747   1.224  0.8397  0.6354 -0.6286
  592SOL    HW3 2442   1.886   1.631   1.212 -1.3537 -1.1222 -1.6543
  592SOL    MW4 2443   1.809   1.663   1.236 -0.3579  0.3939 -0.3676
  593SOL     OW 2444   1.789   1.909   1.140  0.1646 -0.5067  0.0352
  593SOL    HW2 2445   1.714   1.957   1.173 -0.1700 -1.9943  1.5591
  593SOL    HW3 2446   1.776   1.905   1.045 -0.0609  1.8788 -0.0608
  593SOL    MW4 2447   1.777   1.914   1.132  0.0906 -0.3883  0.2236
  594SOL     OW 2448   2.039   2.034   1.214 -0.0151  0.3048  0.0620
  594SOL    HW2 2449   2.037   2.054   1.308  0.7588  0.1474  0.1170
  594SOL    HW3 2450   1.953   1.998   1.195  0.1381 -0.5060  0.9017
  594SOL    MW4 2451   2.028   2.032   1.224  0.1073  0.1769  0.1802
  595SOL     OW 2452   2.016   2.282   1.085  0.2456 -0.1932  0.4354
  595SOL    HW2 2453   2.095   2.313   1.128  0.8620  0.5451 -1.1867
  595SOL    HW3 2454   1.994   2.200   1.131  2.7544 -1.1588 -0.0115
  595SOL    MW4 2455   2.024   2.275   1.097  0.6580 -0.2236  0.1622
  596SOL     OW 2456   1.802   2.435   1.189 -0.2408  0.4479 -0.1423
  596SOL    HW2 2457   1.878   2.381   1.165  0.0145  0.9308 -0.4137
  596SOL    HW3 2458   1.727   2.374   1.182  0.1364 -0.0664  0.2773
  596SOL    MW4 2459   1.802   2.420   1.185 -0.1572  0.4439 -0.1228
  597SOL     OW 2460   1.806   2.706   1.108  0.0713  0.2655 -0.4919
  597SOL    HW2 2461   1.795   2.618   1.141  2.1462  0.0346 -0.3522
  597SOL    HW3 2462   1.802   2.697   1.012  0.1839  0.0390 -0.4735
  597SOL    MW4 2463   1.804   2.693   1.099  0.3599  0.2050 -0.4711
  598SOL     OW 2464   2.031   2.818   1.226 -0.0463  0.2004 -0.0320
  598SOL    HW2 2465   2.037   2.901   1.177 -1.9801  0.7717  0.6168
  598SOL    HW3 2466   1.955   2.774   1.187 -0.9702  0.1875  1.7343
  598SOL    MW4 2467   2.021   2.823   1.214 -0.4232  0.2742  0.2867
  599SOL     OW 2468   2.028   3.065   1.106 -0.2157 -0.0534 -0.1066
  599SOL    HW2 2469   1.948   3.101   1.144 -1.8134 -1.9081 -1.5991
  599SOL    HW3 2470   2.021   3.086   1.013  2.0086  1.4829  0.0460
  599SOL    MW4 2471   2.017   3.073   1.099 -0.1330 -0.0954 -0.2835
  600SOL     OW 2472   1.816   3.189   1.248  0.0434 -0.4050 -0.2288
  600SOL    HW2 2473   1.821   3.200   1.343  1.1421  0.0370 -0.3282
  600SOL    HW3 2474   1.810   3.278   1.213 -1.3575 -0.6047 -0.5393
  600SOL    MW4 2475   1.816   3.202   1.256  0.0035 -0.3731 -0.2828
  601SOL     OW 2476   1.824   3.484   1.138  0.0020  0.2118 -0.4451
  601SOL    HW2 2477   1.902   3.524   1.174 -0.4707 -0.3257  1.2261
  601SOL    HW3 2478   1.752   3.525   1.186 -0.5422 -1.7968  0.4679
  601SOL    MW4 2479   1.824   3.495   1.149 -0.1321 -0.1240 -0.1041
  602SOL     OW 2480   2.033   3.598   1.266  0.4801  0.0975  0.2993
  602SOL    HW2 2481   2.021   3.600   1.361  0.2019 -0.0685  0.2686
  602SOL    HW3 2482   2.125   3.573   1.254  0.5021  0.0700  0.5252
  602SOL    MW4 2483   2.044   3.595   1.277  0.4463  0.0720  0.3251
  603SOL     OW 2484   2.061   3.870   1.152 -0.1364 -0.0558  0.4189
  603SOL    HW2 2485   1.979   3.910   1.181 -0.7357 -0.9733 -0.0080
  603SOL    HW3 2486   2.064   3.786   1.199  0.0221 -0.5125 -0.4129
  603SOL    MW4 2487   2.051   3.864   1.162 -0.1943 -0.2372  0.2528
  604SOL     OW 2488   1.794   3.989   1.236 -0.0061  0.0097 -0.3579
  604SOL    HW2 2489   1.780   4.013   1.327  0.8115  0.6496 -0.3911
  604SOL    HW3 2490   1.721   3.932   1.214 -0.8776  0.8497  0.3315
  604SOL    MW4 2491   1.783   3.985   1.245 -0.0131  0.2046 -0.2713
  605SOL     OW 2492   1.781   4.272   1.161  0.5835 -0.0671 -0.3703
  605SOL    HW2 2493   1.785   4.184   1.200  0.9611 -0.9328 -2.3078
  605SOL    HW3 2494   1.715   4.318   1.213  0.9156 -1.2541  1.1450
  605SOL    MW4 2495   1.773   4.266   1.173  0.6771 -0.3381 -0.4259
  606SOL     OW 2496   2.056   4.388   1.221 -0.0390 -0.0967 -0.1308
  606SOL    HW2 2497   2.057   4.388   1.317 -1.0542 -2.0246 -0.0925
  606SOL    HW3 2498   1.972   4.348   1.198  0.7649 -0.8652 -1.8187
  606SOL    MW4 2499   2.045   4.383   1.231 -0.0668 -0.4530 -0.3486
  607SOL     OW 2500   2.500   4.636   1.164 -0.3368  0.4920 -0.1629
  607SOL    HW2 2501   2.575   4.695   1.171 -0.8969  0.9482  2.2397
  607SOL    HW3 2502   2.426   4.688   1.195 -1.3742 -0.4806 -0.9784
  607SOL    MW4 2503   2.500   4.650   1.169 -0.5476  0.4244  0.0465
  608SOL     OW 2504   2.272   0.110   1.261 -0.3826  0.1078 -0.0257
  608SOL    HW2 2505   2.272   0.199   1.226 -0.5019  0.0556 -0.1577
  608SOL    HW3 2506   2.204   0.064   1.212  0.0079 -0.1914 -0.2901
  608SOL    MW4 2507   2.263   0.116   1.250 -0.3469  0.0614 -0.0782
  609SOL     OW 2508   2.220   0.355   1.106  0.3918 -0.3906  0.1648
  609SOL    HW2 2509   2.140   0.402   1.128  0.4316 -0.0033 -0.4827
  609SOL    HW3 2510   2.233   0.373   1.012  0.2860 -1.8846 -0.1372
  609SOL    MW4 2511   2.211   0.364   1.096  0.3834 -0.5366  0.0397
  610SOL     OW 2512   2.427   0.500   1.197 -0.0643  0.5241  0.2284
  610SOL    HW2 2513   2.430   0.484   1.292  1.7645 -1.5319 -0.1206
  610SOL    HW3 2514   2.361   0.438   1.165 -1.0527  1.5782  0.2033
  610SOL    MW4 2515   2.418   0.489   1.205  0.0467  0.3919  0.1791
  611SOL     OW 2516   2.432   0.763   1.110 -0.2279  0.1281 -0.6204
  611SOL    HW2 2517   2.419   0.676   1.148 -0.1298 -0.9373 -2.9786
  611SOL    HW3 2518   2.453   0.747   1.018  2.5323  2.5130 -0.4814
  611SOL    MW4 2519   2.433   0.750   1.103  0.1490  0.3023 -0.9131
  612SOL     OW 2520   2.216   0.896   1.213 -0.1364  0.2017  0.4783
  612SOL    HW2 2521   2.291   0.852   1.175  0.8384  1.2904  1.1143
  612SOL    HW3 2522   2.140   0.845   1.183  0.9216 -1.6163  0.8415
  612SOL    MW4 2523   2.216   0.884   1.204  0.1318  0.1054  0.6101
  613SOL     OW 2524   2.273   1.123   1.074 -0.2533  0.0664  0.1531
  613SOL    HW2 2525   2.337   1.184   1.112  1.6815 -1.8776  0.0835
  613SOL    HW3 2526   2.273   1.049   1.134  0.2951 -1.5551 -1.8254
  613SOL    MW4 2527   2.282   1.122   1.087  0.0744 -0.4039 -0.1172
  614SOL     OW 2528   2.478   1.261   1.192 -0.1776  0.1676 -0.6534
  614SOL    HW2 2529   2.567   1.232   1.173 -0.0170  0.0267  0.2850
  614SOL    HW3 2530   2.477   1.354   1.169  0.7149  0.5909  0.9893
  614SOL    MW4 2531   2.489   1.270   1.186 -0.0386  0.2049 -0.3128
  615SOL     OW 2532   2.470   1.519   1.149  0.2513  0.0867 -0.0486
  615SOL    HW2 2533   2.386   1.556   1.177  0.3117 -0.4058  0.7763
  615SOL    HW3 2534   2.469   1.529   1.054 -0.2524  1.1207  0.0508
  615SOL    MW4 2535   2.459   1.525   1.140  0.1929  0.1582  0.0734
  616SOL     OW 2536   2.269   1.674   1.233 -0.0840 -0.3126 -0.0962
  616SOL    HW2 2537   2.271   1.757   1.185  0.1855  0.3216  0.9979
  616SOL    HW3 2538   2.188   1.632   1.204 -0.0139  0.1408 -0.9682
  616SOL    MW4 2539   2.258   1.679   1.222 -0.0393 -0.1692 -0.0668
  617SOL     OW 2540   2.264   1.922   1.094  0.1998 -0.1441  0.2438
  617SOL    HW2 2541   2.185   1.968   1.123  0.3054 -0.0167  0.3298
  617SOL    HW3 2542   2.252   1.911   1.000 -0.1065 -0.4839  0.3211
  617SOL    MW4 2543   2.252   1.926   1.086  0.1731 -0.1721  0.2654
  618SOL     OW 2544   2.481   2.079   1.203 -0.3786 -0.0834 -0.3599
  618SOL    HW2 2545   2.561   2.038   1.172 -0.6319 -0.2944 -0.7380
  618SOL    HW3 2546   2.410   2.029   1.162 -0.6995  0.2968 -0.2773
  618SOL    MW4 2547   2.482   2.067   1.194 -0.4544 -0.0610 -0.3989
  619SOL     OW 2548   2.474   2.327   1.095 -0.4371 -0.0927 -0.5453
  619SOL    HW2 2549   2.480   2.240   1.133 -1.0363 -0.1080 -0.4732
  619SOL    HW3 2550   2.473   2.313   1.000  2.3211  0.0220 -0.6410
  619SOL    MW4 2551   2.475   2.314   1.088 -0.1519 -0.0796 -0.5484
  620SOL     OW 2552   2.225   2.417   1.202 -0.4743 -0.1157  0.0479
  620SOL    HW2 2553   2.232   2.413   1.298 -0.0286  1.3085  0.0881
  620SOL    HW3 2554   2.310   2.385   1.171 -0.0176  0.9436  0.1744
  620SOL    MW4 2555   2.237   2.412   1.211 -0.3552  0.2122  0.0699
  621SOL     OW 2556   2.275   2.689   1.177 -0.1107 -0.1569 -0.1158
  621SOL    HW2 2557   2.275   2.598   1.205 -0.4677 -0.0027  0.4139
  621SOL    HW3 2558   2.192   2.724   1.210  0.1412  0.4271 -0.0858
  621SOL    MW4 2559   2.264   2.682   1.185 -0.1249 -0.0594 -0.0421
  622SOL     OW 2560   2.484   2.843   1.274  0.7403 -0.4305 -0.0751
  622SOL    HW2 2561   2.479   2.853   1.369  2.1294 -1.5044  0.1186
  622SOL    HW3 2562   2.406   2.792   1.252  1.2159 -1.5056  0.6844
  622SOL    MW4 2563   2.473   2.837   1.284  0.9866 -0.7138  0.0507
  623SOL     OW 2564   2.481   3.078   1.110 -0.2803 -0.4655 -0.0074
  623SOL    HW2 2565   2.399   3.114   1.144 -0.4404 -1.1369  0.3272
  623SOL    HW3 2566   2.492   2.996   1.158  1.0643  0.0714  0.6321
  623SOL    MW4 2567   2.471   3.072   1.121 -0.1237 -0.4830  0.1211
  624SOL     OW 2568   2.259   3.179   1.232 -0.0594 -0.2243 -0.1277
  624SOL    HW2 2569   2.263   3.271   1.204  2.4088 -1.0134 -2.6064
  624SOL    HW3 2570   2.184   3.143   1.185  0.3088  0.0066 -0.9022
  624SOL    MW4 2571   2.249   3.186   1.222  0.3150 -0.2978 -0.5569
  625SOL     OW 2572   2.244   3.454   1.174  0.2158  0.0203 -0.0000
  625SOL    HW2 2573   2.323   3.505   1.192 -0.0337  0.3198  0.2554
  625SOL    HW3 2574   2.230   3.464   1.079  1.2306 -1.1291 -0.2804
  625SOL    MW4 2575   2.252   3.462   1.164  0.3166 -0.0918 -0.0033
  626SOL     OW 2576   2.477   3.583   1.220 -0.3395 -0.3476 -0.6550
  626SOL    HW2 2577   2.463   3.602   1.313  1.0568  1.0564 -0.6953
  626SOL    HW3 2578   2.484   3.670   1.180 -0.6472 -0.9535 -2.0179
  626SOL    MW4 2579   2.476   3.597   1.227 -0.1957 -0.2425 -0.8401
  627SOL     OW 2580   2.513   3.855   1.112 -0.3157  0.0215 -0.3884
  627SOL    HW2 2581   2.445   3.897   1.166 -0.2854  0.7360 -0.8996
  627SOL    HW3 2582   2.496   3.887   1.023  0.9385  0.5282 -0.4535
  627SOL    MW4 2583   2.502   3.865   1.108 -0.1462  0.1826 -0.4643
  628SOL     OW 2584   2.294   4.003   1.249  0.1068  0.1910 -0.3232
  628SOL    HW2 2585   2.298   4.090   1.209  1.4071 -0.1986 -1.0722
  628SOL    HW3 2586   2.210   3.967   1.219  0.1680  0.6828 -1.0881
  628SOL    MW4 2587   2.283   4.010   1.239  0.2866  0.2046 -0.5230
  629SOL     OW 2588   2.290   4.263   1.140 -0.1824 -0.2457 -0.2946
  629SOL    HW2 2589   2.209   4.310   1.161 -0.6401 -0.1724 -2.0923
  629SOL    HW3 2590   2.301   4.277   1.046  1.3610 -1.1484 -0.2594
  629SOL    MW4 2591   2.281   4.271   1.130 -0.0389 -0.3543 -0.5271
  630SOL     OW 2592   2.512   4.365   1.257 -0.0832  0.2044 -0.0260
  630SOL    HW2 2593   2.428   4.335   1.224  0.0201 -0.4072  0.2623
  630SOL    HW3 2594   2.507   4.461   1.253 -1.4916  0.2224  1.7270
  630SOL    MW4 2595   2.501   4.374   1.252 -0.2551  0.1264  0.2433
  631SOL     OW 2596   2.951   0.005   1.127  0.0442  0.5984  0.4782
  631SOL    HW2 2597   2.960  -0.082   1.165  0.9064  0.1757 -0.6432
  631SOL    HW3 2598   2.918  -0.011   1.038 -0.9892  1.4993  0.6777
  631SOL    MW4 2599   2.948  -0.008   1.120  0.0215  0.6614  0.3566
  632SOL     OW 2600   2.713   0.130   1.222  0.3580  0.1275  0.1469
  632SOL    HW2 2601   2.695   0.107   1.313  0.9788 -0.3918  0.1440
  632SOL    HW3 2602   2.795   0.085   1.202 -0.4728 -0.8560 -1.0948
  632SOL    MW4 2603   2.722   0.121   1.231  0.3302 -0.0708 -0.0173
  633SOL     OW 2604   2.639   0.375   1.083 -0.2685  0.0457 -1.1679
  633SOL    HW2 2605   2.649   0.299   1.140  2.1207  1.1834  0.0265
  633SOL    HW3 2606   2.569   0.427   1.123 -0.0712 -0.2166 -0.4746
  633SOL    MW4 2607   2.631   0.372   1.096  0.0725  0.1612 -0.9187
  634SOL     OW 2608   2.846   0.515   1.203  0.5926 -0.2138 -0.1278
  634SOL    HW2 2609   2.855   0.595   1.151 -1.4265  0.9782  1.2975
  634SOL    HW3 2610   2.775   0.467   1.160  0.3366 -0.2025  0.2811
  634SOL    MW4 2611   2.838   0.520   1.190  0.2925 -0.0551  0.1142
  635SOL     OW 2612   2.871   0.803   1.080 -0.2328  0.2196 -0.2762
  635SOL    HW2 2613   2.948   0.840   1.125 -0.0995  0.5331 -0.7498
  635SOL    HW3 2614   2.797   0.831   1.133  0.0772 -1.3999  1.0589
  635SOL    MW4 2615   2.872   0.812   1.093 -0.1743  0.0473 -0.1625
  636SOL     OW 2616   2.665   0.889   1.249 -0.1357 -0.1604  0.1085
  636SOL    HW2 2617   2.680   0.980   1.224  1.2285 -0.4620 -0.1835
  636SOL    HW3 2618   2.593   0.860   1.193  0.8112  0.1095 -1.2591
  636SOL    MW4 2619   2.658   0.897   1.238  0.1695 -0.1646 -0.1105
  637SOL     OW 2620   2.716   1.134   1.146  0.2600  0.5664  0.3429
  637SOL    HW2 2621   2.777   1.203   1.171  0.6586  0.4844 -0.3763
  637SOL    HW3 2622   2.722   1.132   1.050  0.2303 -0.4485  0.3669
  637SOL    MW4 2623   2.725   1.143   1.136  0.3088  0.4216  0.2513
  638SOL     OW 2624   2.917   1.316   1.184  0.3545  0.2629 -0.0327
  638SOL    HW2 2625   2.942   1.347   1.271  1.1377  1.5454 -0.7070
  638SOL    HW3 2626   2.891   1.395   1.137 -0.3848 -0.4663 -0.8723
  638SOL    MW4 2627   2.917   1.331   1.190  0.3603  0.3359 -0.2325
  639SOL     OW 2628   2.901   1.552   1.033  0.0314  0.0536  0.5965
  639SOL    HW2 2629   2.988   1.579   1.063  0.2895 -0.4403  0.2873
  639SOL    HW3 2630   2.909   1.546   0.938 -0.2761 -0.2103  0.5873
  639SOL    MW4 2631   2.914   1.555   1.025  0.0248 -0.0465  0.5544
  640SOL     OW 2632   2.698   1.688   1.172  0.5526  0.1592  0.3144
  640SOL    HW2 2633   2.763   1.643   1.117 -0.2433  1.1275 -1.4679
  640SOL    HW3 2634   2.618   1.636   1.161  0.2563  0.6520  0.1423
  640SOL    MW4 2635   2.696   1.675   1.163  0.4084  0.3520  0.0565
  641SOL     OW 2636   2.701   1.946   1.056  0.2225 -0.0129  0.3021
  641SOL    HW2 2637   2.778   1.984   1.099  0.3321  0.1299 -0.0163
  641SOL    HW3 2638   2.696   1.857   1.090  0.6473 -0.0859  0.1761
  641SOL    MW4 2639   2.711   1.939   1.066  0.2933 -0.0037  0.2433
  642SOL     OW 2640   2.934   2.050   1.176  0.4219  0.1922  0.4809
  642SOL    HW2 2641   2.939   2.057   1.271 -1.9609 -0.9701  0.7277
  642SOL    HW3 2642   2.930   2.141   1.145  1.4843  0.5736  1.4622
  642SOL    MW4 2643   2.934   2.063   1.184  0.2475  0.0892  0.6430
  643SOL     OW 2644   2.931   2.323   1.107  0.0367  0.0776 -0.6422
  643SOL    HW2 2645   3.008   2.349   1.158  0.6821  0.3548 -1.7556
  643SOL    HW3 2646   2.860   2.375   1.144  0.0833 -1.1899  1.3296
  643SOL    MW4 2647   2.932   2.333   1.119  0.1280 -0.0529 -0.5289
  644SOL     OW 2648   2.700   2.460   1.204  0.4695 -0.1233 -0.2015
  644SOL    HW2 2649   2.695   2.452   1.300  1.0368 -0.7805 -0.2266
  644SOL    HW3 2650   2.631   2.403   1.172  0.5484 -0.2195 -0.1986
  644SOL    MW4 2651   2.690   2.452   1.213  0.5548 -0.2229 -0.2043
  645SOL     OW 2652   2.674   2.717   1.113  0.2916 -0.1175  0.3098
  645SOL    HW2 2653   2.691   2.630   1.148  0.2495 -0.1912  0.1437
  645SOL    HW3 2654   2.621   2.760   1.181  1.3468  0.2022  0.9553
  645SOL    MW4 2655   2.669   2.711   1.127  0.4253 -0.0849  0.3729
  646SOL     OW 2656   2.924   2.821   1.190  0.2047 -0.1054  0.1210
  646SOL    HW2 2657   2.920   2.801   1.284  0.8922  0.5251  0.2872
  646SOL    HW3 2658   2.845   2.781   1.154 -0.5991  0.5355  1.1357
  646SOL    MW4 2659   2.913   2.813   1.198  0.1895  0.0625  0.2768
  647SOL     OW 2660   2.922   3.069   1.098 -0.4723 -0.4420  0.1422
  647SOL    HW2 2661   2.926   2.977   1.125  0.5959 -0.5864 -0.4944
  647SOL    HW3 2662   2.923   3.066   1.003 -0.1294  0.2497  0.1248
  647SOL    MW4 2663   2.922   3.057   1.089 -0.2861 -0.3695  0.0559
  648SOL     OW 2664   2.709   3.205   1.214 -0.7055  0.0272 -0.1621
  648SOL    HW2 2665   2.786   3.160   1.179  0.3783  0.3186  1.8150
  648SOL    HW3 2666   2.635   3.159   1.175  0.4107 -2.4185  0.5420
  648SOL    MW4 2667   2.710   3.193   1.204 -0.4153 -0.2570  0.1915
  649SOL     OW 2668   2.713   3.456   1.121 -0.5304  0.0211  0.1090
  649SOL    HW2 2669   2.716   3.369   1.161  0.9783 -0.2358 -0.5074
  649SOL    HW3 2670   2.634   3.497   1.157 -0.0466 -0.7667  2.1187
  649SOL    MW4 2671   2.703   3.450   1.131 -0.2675 -0.1166  0.2927
  650SOL     OW 2672   2.949   3.565   1.214  0.1795  0.0890  0.1121
  650SOL    HW2 2673   3.018   3.509   1.178 -0.5312 -0.7983  0.1228
  650SOL    HW3 2674   2.867   3.526   1.184 -0.4129 -0.3753  2.2470
  650SOL    MW4 2675   2.947   3.553   1.206  0.0076 -0.0892  0.3951
  651SOL     OW 2676   2.919   3.821   1.139 -0.1788 -0.3244 -0.0326
  651SOL    HW2 2677   2.999   3.863   1.172 -0.0836 -0.0286 -0.6377
  651SOL    HW3 2678   2.922   3.733   1.177 -0.6863  0.3905  1.7371
  651SOL    MW4 2679   2.930   3.815   1.149 -0.2334 -0.1910  0.1209
  652SOL     OW 2680   2.735   4.000   1.217  0.7171  0.0630  0.5105
  652SOL    HW2 2681   2.799   3.934   1.192  1.1354  0.3337  0.8530
  652SOL    HW3 2682   2.650   3.963   1.191  0.7673 -1.3939  2.2620
  652SOL    MW4 2683   2.732   3.986   1.211  0.7792 -0.0932  0.7869
  653SOL     OW 2684   2.733   4.265   1.123  0.5661 -0.2436 -0.0023
  653SOL    HW2 2685   2.744   4.178   1.161  0.1006 -0.0422  0.5986
  653SOL    HW3 2686   2.657   4.302   1.168  0.4848  0.3006 -0.5741
  653SOL    MW4 2687   2.724   4.259   1.134  0.4942 -0.1450  0.0015
  654SOL     OW 2688   2.956   4.398   1.226 -0.1873  0.3862 -0.7705
  654SOL    HW2 2689   3.029   4.340   1.201  0.2716  0.5232  0.2196
  654SOL    HW3 2690   2.878   4.352   1.195  0.2040 -0.5618 -0.3749
  654SOL    MW4 2691   2.956   4.384   1.218 -0.0753  0.2794 -0.5877
  655SOL     OW 2692   3.361   0.021   1.138  0.6628  0.2085 -0.1366
  655SOL    HW2 2693   3.441   0.065   1.167  0.3106  1.0236 -0.3770
  655SOL    HW3 2694   3.290   0.069   1.182  0.3692 -1.2376  0.9830
  655SOL    MW4 2695   3.362   0.033   1.148  0.5777  0.1253 -0.0206
  656SOL     OW 2696   3.148   0.146   1.253  0.2535 -0.0236 -0.1186
  656SOL    HW2 2697   3.145   0.119   1.344 -1.0861  1.2479  0.2313
  656SOL    HW3 2698   3.079   0.095   1.210 -0.4846  0.8626  0.0015
  656SOL    MW4 2699   3.139   0.136   1.259 -0.0205  0.2611 -0.0566
  657SOL     OW 2700   3.095   0.406   1.164  0.7437  0.2750 -0.7600
  657SOL    HW2 2701   3.090   0.320   1.206  1.9423  0.0035 -1.1575
  657SOL    HW3 2702   3.006   0.441   1.172  0.7229 -0.1448  1.2190
  657SOL    MW4 2703   3.082   0.399   1.171  0.8988  0.1838 -0.5512
  658SOL     OW 2704   3.342   0.509   1.230  0.4862 -0.0088  0.3450
  658SOL    HW2 2705   3.339   0.604   1.217  0.9503 -0.1086 -0.5501
  658SOL    HW3 2706   3.253   0.480   1.214  0.3852  0.2588  0.4186
  658SOL    MW4 2707   3.330   0.518   1.226  0.5341  0.0134  0.2366
  659SOL     OW 2708   3.341   0.789   1.163  0.2136 -0.5410  0.2913
  659SOL    HW2 2709   3.263   0.845   1.173  1.4050  1.0361  1.0194
  659SOL    HW3 2710   3.360   0.791   1.070  0.0761  0.0722  0.2715
  659SOL    MW4 2711   3.333   0.797   1.152  0.3529 -0.2520  0.3847
  660SOL     OW 2712   3.109   0.937   1.182  0.7226  0.3500 -0.4829
  660SOL    HW2 2713   3.103   0.943   1.278 -0.6316 -0.7134 -0.4911
  660SOL    HW3 2714   3.119   1.027   1.153 -0.0118  0.7805  0.5896
  660SOL    MW4 2715   3.110   0.949   1.191  0.4470  0.2666 -0.3425
  661SOL     OW 2716   3.120   1.184   1.069 -0.0345  0.3206  0.0126
  661SOL    HW2 2717   3.204   1.218   1.100  0.7098  0.5248 -2.1145
  661SOL    HW3 2718   3.055   1.237   1.115  1.0636  2.5642 -0.8890
  661SOL    MW4 2719   3.123   1.196   1.079  0.2084  0.6435 -0.3871
  662SOL     OW 2720   3.354   1.241   1.205 -0.2518 -0.8864  0.2944
  662SOL    HW2 2721   3.357   1.223   1.299 -0.4372 -0.6894  0.3368
  662SOL    HW3 2722   3.368   1.335   1.198  2.8713 -1.3192 -0.0536
  662SOL    MW4 2723   3.356   1.251   1.216  0.1357 -0.9176  0.2540
  663SOL     OW 2724   3.377   1.493   1.097 -0.4937 -0.2374 -0.6224
  663SOL    HW2 2725   3.451   1.545   1.129 -0.0521  0.2764 -2.4141
  663SOL    HW3 2726   3.300   1.546   1.118 -0.2908 -0.3212  0.3695
  663SOL    MW4 2727   3.377   1.507   1.104 -0.4084 -0.1807 -0.7280
  664SOL     OW 2728   3.141   1.659   1.144  0.1383 -0.2522  0.0873
  664SOL    HW2 2729   3.132   1.663   1.239 -0.0799  0.1891  0.0513
  664SOL    HW3 2730   3.159   1.750   1.118 -0.5181 -0.2470 -0.3640
  664SOL    MW4 2731   3.142   1.672   1.153  0.0231 -0.1932  0.0230
  665SOL     OW 2732   3.158   1.928   1.050  0.0731  0.0353 -0.0897
  665SOL    HW2 2733   3.215   1.965   1.117  0.9178  0.6114 -1.1171
  665SOL    HW3 2734   3.072   1.964   1.070  0.3040  0.1385  0.7327
  665SOL    MW4 2735   3.154   1.938   1.061  0.2151  0.1249 -0.1167
  666SOL     OW 2736   3.348   2.045   1.199 -0.2155 -0.2039 -0.5316
  666SOL    HW2 2737   3.434   2.002   1.189 -0.2785 -0.5076  0.2110
  666SOL    HW3 2738   3.363   2.135   1.170  0.5530 -0.0386  0.3700
  666SOL    MW4 2739   3.362   2.051   1.194 -0.1223 -0.2222 -0.3147
  667SOL     OW 2740   3.374   2.295   1.086  0.1547  0.2062  0.2426
  667SOL    HW2 2741   3.440   2.343   1.135 -0.2022  0.0329  0.8925
  667SOL    HW3 2742   3.290   2.333   1.113 -0.0863 -0.3332  0.2719
  667SOL    MW4 2743   3.371   2.307   1.096  0.0756  0.1123  0.3321
  668SOL     OW 2744   3.166   2.435   1.220  0.6124  0.2324 -0.2779
  668SOL    HW2 2745   3.161   2.446   1.315 -1.5993 -0.0201 -0.3161
  668SOL    HW3 2746   3.169   2.524   1.185  1.6868  0.3213  0.0321
  668SOL    MW4 2747   3.165   2.448   1.228  0.4621  0.2108 -0.2420
  669SOL     OW 2748   3.168   2.700   1.112 -0.5820 -0.4750 -0.4739
  669SOL    HW2 2749   3.083   2.731   1.142 -0.7399 -1.6019  0.2799
  669SOL    HW3 2750   3.153   2.676   1.020 -0.9807 -0.3034 -0.4547
  669SOL    MW4 2751   3.155   2.701   1.104 -0.6552 -0.6008 -0.3719
  670SOL     OW 2752   3.409   2.791   1.226 -0.1566 -0.1654  0.2571
  670SOL    HW2 2753   3.399   2.886   1.225 -0.2982 -0.1848 -1.3741
  670SOL    HW3 2754   3.329   2.758   1.185 -0.4085 -1.0234  1.4191
  670SOL    MW4 2755   3.398   2.799   1.220 -0.2084 -0.2811  0.1951
  671SOL     OW 2756   3.363   3.058   1.207  0.0037  0.0519 -0.2407
  671SOL    HW2 2757   3.440   3.111   1.223 -0.2952  0.4749 -0.1950
  671SOL    HW3 2758   3.289   3.118   1.221 -0.2997 -0.0207 -1.5263
  671SOL    MW4 2759   3.363   3.073   1.211 -0.0758  0.0982 -0.4042
  672SOL     OW 2760   3.128   3.192   1.232 -0.1679 -0.4405  0.2564
  672SOL    HW2 2761   3.143   3.275   1.187  1.1841 -0.4689  0.6384
  672SOL    HW3 2762   3.058   3.149   1.182  0.9010 -0.2004 -1.4564
  672SOL    MW4 2763   3.121   3.197   1.220  0.1514 -0.4127  0.0809
  673SOL     OW 2764   3.194   3.436   1.128 -0.1664  0.1343  0.2469
  673SOL    HW2 2765   3.267   3.489   1.161 -0.6016  1.6513 -1.1322
  673SOL    HW3 2766   3.192   3.454   1.034 -0.2246 -2.5121 -0.2758
  673SOL    MW4 2767   3.203   3.445   1.120 -0.2313 -0.0145 -0.0041
  674SOL     OW 2768   3.394   3.622   1.209 -0.1825  0.0294  0.2186
  674SOL    HW2 2769   3.396   3.617   1.304 -0.2880  0.4236  0.2423
  674SOL    HW3 2770   3.478   3.584   1.181  0.5173  1.3175  0.5368
  674SOL    MW4 2771   3.405   3.616   1.218 -0.1040  0.2513  0.2637
  675SOL     OW 2772   3.384   3.886   1.139 -0.0628  0.3428  0.2637
  675SOL    HW2 2773   3.294   3.906   1.165 -0.9674  0.0780 -2.5414
  675SOL    HW3 2774   3.400   3.798   1.174 -0.2781  1.0696  2.2310
  675SOL    MW4 2775   3.374   3.877   1.147 -0.2108  0.4039  0.1532
  676SOL     OW 2776   3.138   3.953   1.224 -0.2329 -0.0598 -1.0907
  676SOL    HW2 2777   3.150   3.938   1.317 -0.1440  1.5370 -0.8334
  676SOL    HW3 2778   3.138   4.048   1.214  1.1303 -0.2080 -2.8963
  676SOL    MW4 2779   3.139   3.963   1.235 -0.0415  0.1311 -1.2951
  677SOL     OW 2780   3.173   4.247   1.159  0.0900 -0.4180 -0.2297
  677SOL    HW2 2781   3.227   4.320   1.188 -0.0716 -0.0164 -0.9417
  677SOL    HW3 2782   3.187   4.243   1.065 -0.6185 -0.7233 -0.3217
  677SOL    MW4 2783   3.182   4.256   1.150 -0.0248 -0.4053 -0.3358
  678SOL     OW 2784   3.368   4.424   1.236 -0.0586 -0.1613 -0.1933
  678SOL    HW2 2785   3.448   4.387   1.198  0.1481  0.8975 -0.8236
  678SOL    HW3 2786   3.369   4.515   1.208 -1.0541  0.0743  0.5230
  678SOL    MW4 2787   3.379   4.431   1.227 -0.1626  0.0095 -0.1820
  679SOL     OW 2788   3.821   0.010   1.083  0.3043 -0.1061 -0.2610
  679SOL    HW2 2789   3.829  -0.075   1.127  1.8271 -0.0719 -0.4332
  679SOL    HW3 2790   3.816  -0.012   0.990  0.5563 -0.0282 -0.2950
  679SOL    MW4 2791   3.822  -0.005   1.077  0.5383 -0.0913 -0.2882
  680SOL     OW 2792   3.588   0.141   1.242 -0.0480 -0.3718 -0.1380
  680SOL    HW2 2793   3.556   0.227   1.215 -2.8700 -1.1505  0.5400
  680SOL    HW3 2794   3.678   0.138   1.209 -0.0231  2.6488 -0.5403
  680SOL    MW4 2795   3.595   0.152   1.234 -0.4170 -0.0760 -0.1014
  681SOL     OW 2796   3.555   0.397   1.107  0.1196 -0.1530 -0.1531
  681SOL    HW2 2797   3.630   0.426   1.157 -0.2333  0.1405  0.2084
  681SOL    HW3 2798   3.479   0.426   1.158 -0.2409  0.2610 -0.9094
  681SOL    MW4 2799   3.555   0.405   1.120  0.0255 -0.0597 -0.2052
  682SOL     OW 2800   3.779   0.491   1.244  0.4358  0.0703  0.6317
  682SOL    HW2 2801   3.869   0.460   1.233  0.2219 -0.5543  0.6173
  682SOL    HW3 2802   3.780   0.581   1.213  0.8842 -0.1821 -0.0872
  682SOL    MW4 2803   3.791   0.499   1.239  0.4668 -0.0454  0.5350
  683SOL     OW 2804   3.803   0.741   1.132  0.1100 -0.0743  0.2131
  683SOL    HW2 2805   3.879   0.789   1.165  0.3831 -0.7012  0.4914
  683SOL    HW3 2806   3.728   0.792   1.164  0.3983  0.1661  0.5120
  683SOL    MW4 2807   3.803   0.754   1.141  0.1838 -0.1254  0.2893
  684SOL     OW 2808   3.615   0.907   1.195  0.2190 -0.1843 -0.1417
  684SOL    HW2 2809   3.625   0.992   1.152  0.6296  0.2209  0.7425
  684SOL    HW3 2810   3.529   0.875   1.167 -0.5781  1.1950  0.6911
  684SOL    MW4 2811   3.605   0.914   1.185  0.1681  0.0511  0.0846
  685SOL     OW 2812   3.605   1.174   1.075 -0.0231  0.0419 -0.1470
  685SOL    HW2 2813   3.678   1.211   1.125 -1.2422  0.2499  1.5375
  685SOL    HW3 2814   3.529   1.222   1.106 -0.9286 -0.4551 -1.5950
  685SOL    MW4 2815   3.605   1.185   1.086 -0.3037  0.0038 -0.1160
  686SOL     OW 2816   3.831   1.291   1.165  0.1949  0.1153  0.5323
  686SOL    HW2 2817   3.845   1.299   1.260  2.5002 -0.7279  0.3140
  686SOL    HW3 2818   3.857   1.377   1.131 -0.7078  0.4444  0.6644
  686SOL    MW4 2819   3.836   1.304   1.173  0.3796  0.0473  0.5211
  687SOL     OW 2820   3.841   1.567   1.088 -0.3441 -0.1681  0.1634
  687SOL    HW2 2821   3.919   1.615   1.114  0.0816 -0.5851 -0.3425
  687SOL    HW3 2822   3.849   1.555   0.994 -1.5585  0.7511 -0.0726
  687SOL    MW4 2823   3.852   1.572   1.079 -0.4485 -0.1018  0.0656
  688SOL     OW 2824   3.585   1.652   1.218 -0.3136  0.3045 -0.4906
  688SOL    HW2 2825   3.577   1.744   1.194  1.1112  0.5294 -0.1315
  688SOL    HW3 2826   3.678   1.631   1.206 -0.5044 -0.9125  0.0289
  688SOL    MW4 2827   3.596   1.661   1.213 -0.1507  0.1736 -0.3746
  689SOL     OW 2828   3.600   1.948   1.181 -0.4610 -0.0699  0.0353
  689SOL    HW2 2829   3.669   2.006   1.212 -0.3945  0.7331 -1.5448
  689SOL    HW3 2830   3.621   1.935   1.088 -2.1930 -0.1704 -0.3476
  689SOL    MW4 2831   3.612   1.954   1.173 -0.6807  0.0226 -0.2238
  690SOL     OW 2832   3.832   2.089   1.222  0.2641  0.2516  0.0727
  690SOL    HW2 2833   3.846   2.059   1.312 -2.0375 -0.1863  0.3205
  690SOL    HW3 2834   3.904   2.050   1.172  0.3540 -1.2751  1.3386
  690SOL    MW4 2835   3.843   2.080   1.228 -0.0281 -0.0079  0.2723
  691SOL     OW 2836   3.821   2.349   1.100  0.2931  0.2043 -0.3819
  691SOL    HW2 2837   3.878   2.412   1.144  0.6239 -0.2056 -0.2074
  691SOL    HW3 2838   3.832   2.268   1.150 -0.3887  0.1025 -0.3981
  691SOL    MW4 2839   3.830   2.346   1.112  0.2468  0.1366 -0.3611
  692SOL     OW 2840   3.591   2.401   1.221 -0.6676 -0.0164 -0.1738
  692SOL    HW2 2841   3.590   2.389   1.316  0.7781 -1.2314 -0.3053
  692SOL    HW3 2842   3.678   2.373   1.194 -1.4533 -0.7545 -2.0049
  692SOL    MW4 2843   3.602   2.396   1.230 -0.5803 -0.2739 -0.4326
  693SOL     OW 2844   3.611   2.643   1.097  0.1513  0.5114 -0.3395
  693SOL    HW2 2845   3.608   2.554   1.132  0.3395 -0.5057 -2.7884
  693SOL    HW3 2846   3.547   2.692   1.148  1.9206 -0.3247  2.8432
  693SOL    MW4 2847   3.602   2.638   1.109  0.4094  0.2670 -0.2426
  694SOL     OW 2848   3.814   2.811   1.211 -0.3842 -0.0638 -0.2976
  694SOL    HW2 2849   3.795   2.823   1.304  0.5546  1.0335 -0.2364
  694SOL    HW3 2850   3.755   2.740   1.184 -1.5091  0.3974  0.8520
  694SOL    MW4 2851   3.803   2.803   1.220 -0.4086  0.1419 -0.1379
  695SOL     OW 2852   3.805   3.077   1.136 -0.0867 -0.1933  0.2972
  695SOL    HW2 2853   3.792   2.987   1.166 -1.9010 -0.6087 -1.6162
  695SOL    HW3 2854   3.799   3.071   1.041 -0.6631  2.0174  0.1813
  695SOL    MW4 2855   3.802   3.064   1.128 -0.4020  0.0436  0.0296
  696SOL     OW 2856   3.588   3.199   1.264 -0.0827 -0.6681 -0.2709
  696SOL    HW2 2857   3.578   3.290   1.238  1.7161 -0.1257  0.8318
  696SOL    HW3 2858   3.662   3.167   1.213 -0.9870 -1.6521 -0.9813
  696SOL    MW4 2859   3.596   3.207   1.254  0.0355 -0.7265 -0.2192
  697SOL     OW 2860   3.600   3.466   1.185 -0.1735  0.0683 -0.0336
  697SOL    HW2 2861   3.679   3.518   1.200  0.3466 -0.5618 -0.5297
  697SOL    HW3 2862   3.610   3.434   1.095 -0.7211 -0.4718  0.0951
  697SOL    MW4 2863   3.612   3.468   1.175 -0.1771 -0.0863 -0.0821
  698SOL     OW 2864   3.810   3.634   1.214 -0.4765 -0.0848  0.1366
  698SOL    HW2 2865   3.812   3.641   1.309 -0.7878  0.2282  0.1209
  698SOL    HW3 2866   3.799   3.724   1.183 -2.4876 -0.3947 -0.1263
  698SOL    MW4 2867   3.809   3.647   1.222 -0.7827 -0.0844  0.0999
  699SOL     OW 2868   3.830   3.890   1.095 -0.3571  0.2000  0.3804
  699SOL    HW2 2869   3.751   3.944   1.101 -2.0360 -2.2359  0.5581
  699SOL    HW3 2870   3.840   3.873   1.001 -0.6469 -0.3612  0.4509
  699SOL    MW4 2871   3.821   3.895   1.083 -0.6168 -0.1953  0.4132
  700SOL     OW 2872   3.590   4.038   1.198 -0.0941 -0.0240  0.7577
  700SOL    HW2 2873   3.599   4.036   1.293  0.9756  1.1729  0.6902
  700SOL    HW3 2874   3.512   3.986   1.181 -0.2933 -0.2617  2.2908
  700SOL    MW4 2875   3.581   4.031   1.208  0.0210  0.1025  0.9512
  701SOL     OW 2876   3.596   4.301   1.099 -0.3738 -0.0395  0.0759
  701SOL    HW2 2877   3.606   4.212   1.131 -1.2818 -0.0777  0.2565
  701SOL    HW3 2878   3.609   4.295   1.004  0.7006 -0.1774  0.2254
  701SOL    MW4 2879   3.599   4.289   1.090 -0.3514 -0.0620  0.1196
  702SOL     OW 2880   3.851   4.418   1.204 -0.1244 -0.2559  0.1104
  702SOL    HW2 2881   3.852   4.409   1.299  0.9617  1.7488  0.3232
  702SOL    HW3 2882   3.762   4.393   1.178 -0.6624 -0.0488  1.7325
  702SOL    MW4 2883   3.839   4.414   1.213 -0.0522  0.0358  0.3526
  703SOL     OW 2884   4.294   0.005   1.106 -0.3425  0.1034  0.5826
  703SOL    HW2 2885   4.296  -0.085   1.139 -0.9731  0.9145  2.9996
  703SOL    HW3 2886   4.215   0.043   1.146 -0.3013  1.6253 -0.7141
  703SOL    MW4 2887   4.284  -0.002   1.116 -0.4201  0.4112  0.7304
  704SOL     OW 2888   4.057   0.133   1.169  0.7361 -0.3835  0.5564
  704SOL    HW2 2889   4.062   0.115   1.263 -0.2010  0.2173  0.7332
  704SOL    HW3 2890   3.980   0.083   1.140 -0.4064  1.3254  0.5823
  704SOL    MW4 2891   4.047   0.124   1.178  0.4621 -0.0788  0.5831
  705SOL     OW 2892   4.041   0.421   1.154 -0.3589  0.0894 -0.0185
  705SOL    HW2 2893   4.051   0.326   1.150  1.1610  0.2143  0.5612
  705SOL    HW3 2894   4.039   0.449   1.062 -0.7851 -0.5028 -0.1872
  705SOL    MW4 2895   4.042   0.412   1.141 -0.2146  0.0277  0.0356
  706SOL     OW 2896   4.299   0.491   1.237  0.2201 -0.2480 -0.1779
  706SOL    HW2 2897   4.300   0.524   1.327 -0.9603  0.5722 -0.4517
  706SOL    HW3 2898   4.206   0.480   1.217  0.5252 -1.7346 -0.8432
  706SOL    MW4 2899   4.287   0.494   1.247  0.1044 -0.3360 -0.3018
  707SOL     OW 2900   4.272   0.774   1.181  1.2073  0.8586 -0.2029
  707SOL    HW2 2901   4.297   0.684   1.201  1.6287  1.0262  0.0066
  707SOL    HW3 2902   4.248   0.772   1.088  0.9874  0.4804 -0.1382
  707SOL    MW4 2903   4.272   0.762   1.171  1.2341  0.8308 -0.1668
  708SOL     OW 2904   4.012   0.886   1.238  0.0669 -0.0813  0.0501
  708SOL    HW2 2905   3.995   0.896   1.332  0.6063  0.8949  0.0538
  708SOL    HW3 2906   4.098   0.843   1.235  0.7615  1.2490  0.0211
  708SOL    MW4 2907   4.021   0.882   1.250  0.2298  0.2230  0.0467
  709SOL     OW 2908   4.047   1.138   1.113 -0.1262  0.0629 -0.2425
  709SOL    HW2 2909   4.027   1.049   1.142 -1.7016  0.8296  1.1097
  709SOL    HW3 2910   3.968   1.188   1.133  0.4595  1.6136 -1.6875
  709SOL    MW4 2911   4.034   1.133   1.120 -0.2570  0.3687 -0.2546
  710SOL     OW 2912   4.261   1.315   1.203  0.0110  0.2551  0.4296
  710SOL    HW2 2913   4.271   1.316   1.298  2.0351 -0.9006  0.2485
  710SOL    HW3 2914   4.206   1.239   1.185 -0.6087  0.6383  0.6847
  710SOL    MW4 2915   4.255   1.305   1.213  0.1965  0.1532  0.4394
  711SOL     OW 2916   4.275   1.585   1.099  0.0780  0.0791 -0.0952
  711SOL    HW2 2917   4.254   1.500   1.136  0.1440  0.7453  1.5245
  711SOL    HW3 2918   4.346   1.618   1.154 -0.3749  1.4490 -0.3171
  711SOL    MW4 2919   4.282   1.578   1.111  0.0272  0.3477  0.0892
  712SOL     OW 2920   4.044   1.728   1.171 -0.1137  0.1719 -0.1204
  712SOL    HW2 2921   4.026   1.705   1.262  0.2946 -1.8692 -0.5305
  712SOL    HW3 2922   4.122   1.678   1.149  0.3665  1.4231 -1.2944
  712SOL    MW4 2923   4.052   1.718   1.180  0.0038  0.0677 -0.3295
  713SOL     OW 2924   3.901   1.909   0.991  0.0229 -0.5532 -0.2356
  713SOL    HW2 2925   3.944   1.844   1.047 -0.8490 -0.4376  0.5841
  713SOL    HW3 2926   3.970   1.937   0.931  1.3118  0.1649  1.5181
  713SOL    MW4 2927   3.916   1.904   0.991  0.0780 -0.4431  0.1039
  714SOL     OW 2928   4.254   2.041   1.195  0.0355 -0.7908 -0.0673
  714SOL    HW2 2929   4.248   2.135   1.178  0.7049 -1.0567 -1.9178
  714SOL    HW3 2930   4.183   2.023   1.256 -0.4079  0.8315 -0.0675
  714SOL    MW4 2931   4.244   2.051   1.200  0.0648 -0.6118 -0.3114
  715SOL     OW 2932   4.260   2.318   1.129  0.9819 -0.2192 -0.1682
  715SOL    HW2 2933   4.198   2.385   1.157  1.5981 -0.4601  1.8161
  715SOL    HW3 2934   4.253   2.319   1.033 -1.4008  0.3749 -0.0299
  715SOL    MW4 2935   4.251   2.327   1.120  0.7486 -0.1726  0.1119
  716SOL     OW 2936   4.059   2.498   1.199 -0.2347 -0.1982 -0.4733
  716SOL    HW2 2937   4.068   2.504   1.294  2.3753  0.5310 -0.7310
  716SOL    HW3 2938   4.072   2.587   1.168 -0.6232 -0.5070 -1.5355
  716SOL    MW4 2939   4.062   2.510   1.208  0.0577 -0.1426 -0.6475
  717SOL     OW 2940   4.054   2.776   1.098 -0.3071 -0.7480  0.4242
  717SOL    HW2 2941   3.978   2.812   1.145 -0.6804 -1.4158  0.3397
  717SOL    HW3 2942   4.020   2.756   1.010  0.3496  0.3569 -0.0913
  717SOL    MW4 2943   4.039   2.778   1.092 -0.2694 -0.6902  0.3451
  718SOL     OW 2944   4.291   2.843   1.254 -0.3133 -0.0872  0.5832
  718SOL    HW2 2945   4.295   2.938   1.250 -0.8897 -0.1514 -2.4248
  718SOL    HW3 2946   4.204   2.821   1.222  0.1078 -1.6478  0.4739
  718SOL    MW4 2947   4.280   2.853   1.249 -0.3338 -0.3016  0.1719
  719SOL     OW 2948   4.277   3.104   1.179 -0.2609 -0.2212  0.1861
  719SOL    HW2 2949   4.203   3.161   1.195 -0.6250 -1.0651  1.6483
  719SOL    HW3 2950   4.260   3.065   1.094 -0.4845  1.0999 -0.3881
  719SOL    MW4 2951   4.265   3.106   1.170 -0.3386 -0.1583  0.3031
  720SOL     OW 2952   4.029   3.249   1.237  0.2589  0.3241 -0.2952
  720SOL    HW2 2953   4.037   3.242   1.332  2.0266 -0.8790 -0.5146
  720SOL    HW3 2954   3.954   3.193   1.216  1.8681 -2.0530  0.0803
  720SOL    MW4 2955   4.020   3.240   1.247  0.7043 -0.1483 -0.2748
  721SOL     OW 2956   4.039   3.496   1.123 -0.3593 -0.4326  0.1732
  721SOL    HW2 2957   4.020   3.416   1.173 -1.6167 -0.3964 -0.2215
  721SOL    HW3 2958   3.976   3.560   1.156 -0.2086  0.0205 -0.4217
  721SOL    MW4 2959   4.028   3.494   1.134 -0.5054 -0.3684  0.0427
  722SOL     OW 2960   4.260   3.585   1.245  0.0165 -0.2897  0.2346
  722SOL    HW2 2961   4.179   3.550   1.205 -0.2803  0.8509 -0.1948
  722SOL    HW3 2962   4.330   3.533   1.207 -0.4468 -0.6334 -0.1529
  722SOL    MW4 2963   4.258   3.574   1.234 -0.0839 -0.1850  0.1268
  723SOL     OW 2964   4.273   3.846   1.134  0.3390  0.0292 -0.0517
  723SOL    HW2 2965   4.200   3.901   1.163 -0.4814 -0.0683 -1.8256
  723SOL    HW3 2966   4.260   3.763   1.179 -0.3850  0.1728  0.0133
  723SOL    MW4 2967   4.261   3.842   1.144  0.1354  0.0353 -0.2772
  724SOL     OW 2968   4.069   4.022   1.202  0.1203  0.2354  0.2109
  724SOL    HW2 2969   4.055   4.104   1.155  0.8602  0.7009  0.7919
  724SOL    HW3 2970   3.998   3.965   1.172  1.0686  0.2178 -2.1539
  724SOL    MW4 2971   4.058   4.025   1.192  0.3438  0.2947 -0.0244
  725SOL     OW 2972   4.062   4.291   1.098  0.2153 -0.7340 -0.3419
  725SOL    HW2 2973   3.997   4.349   1.137  2.0363  1.4722 -0.5074
  725SOL    HW3 2974   4.047   4.297   1.004  1.0532  0.2849 -0.4188
  725SOL    MW4 2975   4.052   4.300   1.091  0.5660 -0.3085 -0.3740
  726SOL     OW 2976   4.294   4.420   1.200 -0.1596  0.0718  0.0559
  726SOL    HW2 2977   4.218   4.372   1.166  0.6093 -0.6176 -0.7170
  726SOL    HW3 2978   4.368   4.362   1.183  0.6427  1.0678  0.1253
  726SOL    MW4 2979   4.294   4.406   1.193  0.0472  0.1125 -0.0370
  727SOL     OW 2980   0.208   4.649   1.585  0.2873 -0.0549  0.1379
  727SOL    HW2 2981   0.286   4.703   1.570  0.6739 -0.4956  0.5358
  727SOL    HW3 2982   0.139   4.690   1.533  1.0754 -0.3270 -1.1287
  727SOL    MW4 2983   0.209   4.661   1.577  0.4423 -0.1488  0.0232
  728SOL     OW 2984   0.021   0.151   1.458 -0.1269  0.0320 -0.1710
  728SOL    HW2 2985  -0.063   0.111   1.480  0.5933 -1.1175  0.5850
  728SOL    HW3 2986   0.029   0.141   1.363  0.2711 -2.1580  0.0532
  728SOL    MW4 2987   0.011   0.144   1.449  0.0205 -0.4086 -0.0417
  729SOL     OW 2988   0.010   0.386   1.604  0.3920 -0.2244 -0.3577
  729SOL    HW2 2989  -0.003   0.351   1.692 -0.6012 -1.2584 -0.8913
  729SOL    HW3 2990   0.012   0.308   1.548 -1.3898  0.5520 -1.5305
  729SOL    MW4 2991   0.009   0.371   1.608  0.0259 -0.2584 -0.5828
  730SOL     OW 2992   0.269   0.490   1.519 -0.6939 -0.0176 -0.0348
  730SOL    HW2 2993   0.185   0.454   1.546  0.0507 -2.1229 -0.4570
  730SOL    HW3 2994   0.252   0.533   1.436 -1.5734  0.4888  0.4076
  730SOL    MW4 2995   0.256   0.491   1.512 -0.7117 -0.2286 -0.0322
  731SOL     OW 2996   0.226   0.752   1.607  0.3222  0.4141  0.2835
  731SOL    HW2 2997   0.302   0.798   1.571  0.4571 -0.7330 -0.9213
  731SOL    HW3 2998   0.247   0.659   1.595  0.0157  0.0227  2.5967
  731SOL    MW4 2999   0.239   0.746   1.601  0.2996  0.2111  0.4299
  732SOL     OW 3000   4.485   0.902   1.528 -0.1669 -0.1938  0.6355
  732SOL    HW2 3001   4.511   0.984   1.571 -0.0143 -0.9806  2.0836
  732SOL    HW3 3002   4.548   0.837   1.561 -0.5262 -0.9743 -0.1947
  732SOL    MW4 3003   4.497   0.904   1.538 -0.1941 -0.4005  0.7169
  733SOL     OW 3004   0.042   1.180   1.599  0.9263 -0.2494 -0.2319
  733SOL    HW2 3005   0.040   1.183   1.695 -1.5562  2.0244 -0.3054
  733SOL    HW3 3006   0.110   1.243   1.575 -0.2662  1.1713  0.0162
  733SOL    MW4 3007   0.050   1.189   1.609  0.4415  0.2382 -0.2089
  734SOL     OW 3008   0.253   1.326   1.483 -0.8060 -0.3517 -0.2045
  734SOL    HW2 3009   0.261   1.419   1.505 -1.7305 -0.2025 -0.4614
  734SOL    HW3 3010   0.245   1.324   1.388 -3.0716 -0.4963 -0.0457
  734SOL    MW4 3011   0.253   1.338   1.474 -1.2269 -0.3511 -0.2177
  735SOL     OW 3012   0.263   1.583   1.587  0.0008  0.0426 -0.5068
  735SOL    HW2 3013   0.265   1.565   1.681  0.7381 -0.1075 -0.5484
  735SOL    HW3 3014   0.179   1.627   1.573 -0.3712 -0.4469  0.1251
  735SOL    MW4 3015   0.252   1.586   1.598  0.0490 -0.0417 -0.4289
  736SOL     OW 3016   0.024   1.683   1.522 -0.0295  0.4583  0.0448
  736SOL    HW2 3017   0.014   1.772   1.556  0.6902  0.0524  1.3504
  736SOL    HW3 3018   0.024   1.694   1.427  1.4595  2.0313  0.1818
  736SOL    MW4 3019   0.023   1.696   1.514  0.2619  0.6124  0.2352
  737SOL     OW 3020   4.476   1.947   1.618  0.1115  0.0033  0.3066
  737SOL    HW2 3021   4.503   1.961   1.709 -0.6881  1.0489  0.3899
  737SOL    HW3 3022   4.392   1.991   1.611  0.0208 -0.3455 -0.8679
  737SOL    MW4 3023   4.469   1.954   1.629 -0.0057  0.0951  0.1627
  738SOL     OW 3024   0.176   2.098   1.496 -0.2490  0.1552 -0.0212
  738SOL    HW2 3025   0.108   2.040   1.533 -0.8374  0.1981 -1.0304
  738SOL    HW3 3026   0.162   2.094   1.402 -0.0965  1.7169 -0.1185
  738SOL    MW4 3027   0.165   2.090   1.489 -0.3065  0.3667 -0.1673
  739SOL     OW 3028   0.239   2.344   1.600  0.4740  0.1786  0.1280
  739SOL    HW2 3029   0.237   2.346   1.696  1.1053 -0.3050  0.1551
  739SOL    HW3 3030   0.214   2.255   1.577  1.5461 -0.0772 -0.1068
  739SOL    MW4 3031   0.236   2.333   1.610  0.6987  0.0808  0.1005
  740SOL     OW 3032   4.485   2.484   1.488 -0.2766 -0.5839 -0.3990
  740SOL    HW2 3033   4.409   2.431   1.515 -0.2390 -0.3557  0.1517
  740SOL    HW3 3034   4.560   2.437   1.523 -0.3003  0.3038  0.8369
  740SOL    MW4 3035   4.485   2.471   1.496 -0.2742 -0.4365 -0.1633
  741SOL     OW 3036   0.010   2.717   1.633 -0.2432 -0.1468 -0.1386
  741SOL    HW2 3037  -0.054   2.779   1.598 -1.8613 -0.5561  1.9836
  741SOL    HW3 3038  -0.006   2.636   1.585 -0.5751  0.0560 -0.3734
  741SOL    MW4 3039  -0.000   2.714   1.622 -0.5002 -0.1740  0.1105
  742SOL     OW 3040   0.201   2.827   1.482  0.0153 -0.2912  0.6576
  742SOL    HW2 3041   0.286   2.796   1.513 -0.3337 -0.8472  1.0558
  742SOL    HW3 3042   0.137   2.777   1.532 -0.5541 -0.9446 -0.7092
  742SOL    MW4 3043   0.204   2.817   1.492 -0.1059 -0.4511  0.5296
  743SOL     OW 3044   0.217   3.094   1.604 -0.0298  0.0366  0.3400
  743SOL    HW2 3045   0.142   3.146   1.573 -1.8252 -1.7029  1.6245
  743SOL    HW3 3046   0.210   3.012   1.555  1.9257  0.4107 -0.5988
  743SOL    MW4 3047   0.206   3.090   1.593 -0.0087 -0.1435  0.3855
  744SOL     OW 3048   0.018   3.252   1.519 -0.2527  0.3108 -0.0696
  744SOL    HW2 3049   0.031   3.334   1.567 -0.2661  0.8224 -0.9378
  744SOL    HW3 3050   0.031   3.275   1.427 -1.3418 -0.4259 -0.4249
  744SOL    MW4 3051   0.021   3.266   1.513 -0.3982  0.2811 -0.2310
  745SOL     OW 3052   0.042   3.494   1.665  0.1038 -0.4579  0.2182
  745SOL    HW2 3053   0.029   3.495   1.760  0.0821 -0.0759  0.2115
  745SOL    HW3 3054  -0.027   3.552   1.631 -0.7396 -1.6484 -0.1377
  745SOL    MW4 3055   0.031   3.502   1.673 -0.0103 -0.5643  0.1704
  746SOL     OW 3056   0.256   3.625   1.488 -0.0513 -0.2561  0.9349
  746SOL    HW2 3057   0.251   3.717   1.514 -0.9509  0.1820 -0.7364
  746SOL    HW3 3058   0.191   3.581   1.542 -1.5863  0.5622 -0.2285
  746SOL    MW4 3059   0.247   3.632   1.499 -0.3725 -0.0906  0.5610
  747SOL     OW 3060   0.219   3.895   1.583 -0.1698 -0.3251  0.1658
  747SOL    HW2 3061   0.211   3.903   1.678 -1.3413  1.2615 -0.0575
  747SOL    HW3 3062   0.297   3.947   1.562 -0.2392 -0.2157  0.1821
  747SOL    MW4 3063   0.228   3.903   1.593 -0.3335 -0.1013  0.1385
  748SOL     OW 3064   4.481   4.013   1.452 -0.8255 -0.1960 -0.0893
  748SOL    HW2 3065   4.461   4.100   1.485 -0.2505  0.5030 -1.5577
  748SOL    HW3 3066   4.557   3.984   1.503  0.7587  1.3305 -1.5330
  748SOL    MW4 3067   4.489   4.020   1.463 -0.5406  0.0973 -0.4736
  749SOL     OW 3068   0.007   4.249   1.600  0.4841 -0.2898  0.2903
  749SOL    HW2 3069   0.018   4.259   1.695  2.5834  1.2784 -0.0783
  749SOL    HW3 3070  -0.065   4.308   1.578  0.5938  0.0227  0.7658
  749SOL    MW4 3071  -0.001   4.258   1.610  0.7756 -0.0415  0.3045
  750SOL     OW 3072   0.240   4.380   1.517 -0.3542  0.1940 -0.0772
  750SOL    HW2 3073   0.161   4.340   1.552 -1.1496 -0.3742 -2.4639
  750SOL    HW3 3074   0.224   4.474   1.522 -2.0440  0.0642 -2.4136
  750SOL    MW4 3075   0.228   4.387   1.522 -0.6821  0.1016 -0.7002
  751SOL     OW 3076   0.672   4.633   1.606 -0.0780  0.3732 -0.1870
  751SOL    HW2 3077   0.735   4.702   1.586  1.2413 -0.1007  2.1365
  751SOL    HW3 3078   0.587   4.671   1.587  0.7075  2.3108  0.1193
  751SOL    MW4 3079   0.669   4.647   1.601  0.1997  0.5665  0.1601
  752SOL     OW 3080   0.435   0.134   1.555  0.0984  0.4333  0.3264
  752SOL    HW2 3081   0.452   0.217   1.599 -0.5152  0.0871  1.2423
  752SOL    HW3 3082   0.426   0.157   1.463  0.2609  1.3402  0.5333
  752SOL    MW4 3083   0.436   0.148   1.549  0.0389  0.5073  0.4746
  753SOL     OW 3084   0.501   0.380   1.647 -0.4878  0.4560 -0.2578
  753SOL    HW2 3085   0.584   0.409   1.608  0.0360 -1.3359 -0.5042
  753SOL    HW3 3086   0.435   0.433   1.602  0.3516  0.4745 -1.5135
  753SOL    MW4 3087   0.503   0.391   1.636 -0.3080  0.2220 -0.4560
  754SOL     OW 3088   0.695   0.514   1.505  0.3224 -0.3563  0.1883
  754SOL    HW2 3089   0.688   0.607   1.525 -1.5808 -0.2908 -0.6212
  754SOL    HW3 3090   0.686   0.510   1.409 -0.0495 -1.4086  0.2639
  754SOL    MW4 3091   0.693   0.526   1.495  0.0222 -0.4864  0.0914
  755SOL     OW 3092   0.678   0.774   1.605  0.7904  0.2612 -0.2394
  755SOL    HW2 3093   0.692   0.778   1.700  0.3405  2.0249 -0.2326
  755SOL    HW3 3094   0.760   0.806   1.567  1.4672 -1.7011 -0.4993
  755SOL    MW4 3095   0.691   0.779   1.612  0.8203  0.2350 -0.2728
  756SOL     OW 3096   0.459   0.875   1.482 -0.1160  0.0214 -0.0794
  756SOL    HW2 3097   0.451   0.965   1.517 -0.8184 -0.3248  0.6726
  756SOL    HW3 3098   0.534   0.839   1.529 -0.1198  0.0684 -0.0359
  756SOL    MW4 3099   0.468   0.882   1.493 -0.2092 -0.0181  0.0255
  757SOL     OW 3100   0.450   1.143   1.589  0.1847  0.3251 -0.0914
  757SOL    HW2 3101   0.535   1.179   1.562  0.4568 -0.8793 -0.8635
  757SOL    HW3 3102   0.385   1.202   1.550  0.6351  0.4143 -0.7049
  757SOL    MW4 3103   0.453   1.156   1.580  0.2800  0.1780 -0.2743
  758SOL     OW 3104   0.712   1.277   1.498  0.4798  0.2553  0.1843
  758SOL    HW2 3105   0.702   1.369   1.522  0.9335  0.5021 -0.5530
  758SOL    HW3 3106   0.702   1.276   1.403  1.5992 -0.2922  0.0582
  758SOL    MW4 3107   0.710   1.289   1.489  0.6874  0.2155  0.0703
  759SOL     OW 3108   0.683   1.538   1.583  0.3781 -0.2501 -0.2455
  759SOL    HW2 3109   0.757   1.594   1.557 -0.3465  1.4494  1.2408
  759SOL    HW3 3110   0.605   1.591   1.563 -0.4066 -1.5949 -0.8012
  759SOL    MW4 3111   0.682   1.553   1.577  0.1790 -0.2033 -0.1227
  760SOL     OW 3112   0.479   1.716   1.471 -0.1141 -0.8636  0.5305
  760SOL    HW2 3113   0.479   1.805   1.505  1.1818 -1.0318  0.9750
  760SOL    HW3 3114   0.407   1.673   1.517 -1.3566  0.1961 -0.3751
  760SOL    MW4 3115   0.469   1.722   1.481 -0.1070 -0.7460  0.4696
  761SOL     OW 3116   0.421   1.961   1.596  0.0460  0.1108 -0.2786
  761SOL    HW2 3117   0.404   1.958   1.690  1.6193 -0.4307  0.0064
  761SOL    HW3 3118   0.349   2.013   1.560 -0.2124  0.8827  1.3071
  761SOL    MW4 3119   0.409   1.968   1.604  0.2195  0.1413 -0.0318
  762SOL     OW 3120   0.659   2.091   1.546  0.0737 -0.1348 -0.2281
  762SOL    HW2 3121   0.725   2.045   1.599 -1.6433 -2.1883  0.1685
  762SOL    HW3 3122   0.576   2.052   1.571 -1.2789  2.0466 -1.1419
  762SOL    MW4 3123   0.657   2.080   1.556 -0.3313 -0.1180 -0.2961
  763SOL     OW 3124   0.642   2.375   1.615 -0.1937 -0.2913  0.1663
  763SOL    HW2 3125   0.579   2.434   1.575  0.2800  0.3420  0.3334
  763SOL    HW3 3126   0.615   2.287   1.588  0.1842  0.1256 -1.6302
  763SOL    MW4 3127   0.630   2.371   1.606 -0.0812 -0.1526 -0.0488
  764SOL     OW 3128   0.431   2.490   1.470  0.4547  0.3059  0.1326
  764SOL    HW2 3129   0.424   2.579   1.503  1.4439  0.1718  0.7459
  764SOL    HW3 3130   0.364   2.441   1.518  0.7787  0.4616  0.7543
  764SOL    MW4 3131   0.422   2.495   1.481  0.6280  0.3088  0.2954
  765SOL     OW 3132   0.435   2.739   1.590 -0.1762 -0.4459 -0.0457
  765SOL    HW2 3133   0.435   2.750   1.685 -0.2754  0.4858 -0.1547
  765SOL    HW3 3134   0.518   2.778   1.561 -0.1685 -0.6811 -0.3534
  765SOL    MW4 3135   0.446   2.745   1.598 -0.1883 -0.3541 -0.1005
  766SOL     OW 3136   0.690   2.841   1.507  0.6923 -0.7618  0.0922
  766SOL    HW2 3137   0.695   2.934   1.529  0.2162 -0.6799 -0.1564
  766SOL    HW3 3138   0.691   2.839   1.411  0.3328 -0.9942  0.0936
  766SOL    MW4 3139   0.691   2.853   1.497  0.5821 -0.7813  0.0596
  767SOL     OW 3140   0.674   3.104   1.595  0.0922  0.2291  0.0227
  767SOL    HW2 3141   0.751   3.146   1.558  0.8028 -1.2792 -0.2604
  767SOL    HW3 3142   0.602   3.163   1.574  1.0755  1.3755 -0.2139
  767SOL    MW4 3143   0.675   3.117   1.588  0.3157  0.1814 -0.0459
  768SOL     OW 3144   0.450   3.234   1.533  0.0147  0.3650  0.3176
  768SOL    HW2 3145   0.368   3.198   1.567 -0.6535 -0.6192 -2.2279
  768SOL    HW3 3146   0.443   3.224   1.438  3.4381 -0.4573  0.0935
  768SOL    MW4 3147   0.438   3.228   1.525  0.3782  0.1266 -0.0479
  769SOL     OW 3148   0.468   3.497   1.643  0.3091  0.3117  0.0944
  769SOL    HW2 3149   0.459   3.407   1.611  1.9754  0.6230 -1.3296
  769SOL    HW3 3150   0.412   3.549   1.584  0.8230  0.4535 -0.2705
  769SOL    MW4 3151   0.459   3.492   1.631  0.5968  0.3717 -0.1417
  770SOL     OW 3152   0.673   3.617   1.508 -0.5676 -0.4026 -0.3163
  770SOL    HW2 3153   0.756   3.589   1.547 -0.3235  0.1862 -0.4056
  770SOL    HW3 3154   0.606   3.566   1.553 -0.4164  1.2816  1.8777
  770SOL    MW4 3155   0.675   3.606   1.519 -0.5155 -0.1028 -0.0384
  771SOL     OW 3156   0.648   3.855   1.655 -0.1412  0.4629 -0.3179
  771SOL    HW2 3157   0.727   3.906   1.637  0.5976 -0.7175 -0.4548
  771SOL    HW3 3158   0.656   3.777   1.600 -1.6541  0.5680 -0.7260
  771SOL    MW4 3159   0.659   3.852   1.646 -0.2432  0.3209 -0.3898
  772SOL     OW 3160   0.485   4.047   1.560 -0.0214  0.1433 -0.5412
  772SOL    HW2 3161   0.541   3.980   1.600  0.4200  1.3992  0.9919
  772SOL    HW3 3162   0.500   4.038   1.466  0.9596 -1.0888 -0.2779
  772SOL    MW4 3163   0.494   4.037   1.553  0.1663  0.1459 -0.3042
  773SOL     OW 3164   0.467   4.287   1.666  0.0162 -0.0653 -0.5188
  773SOL    HW2 3165   0.472   4.202   1.623 -0.6028 -1.2352  1.6472
  773SOL    HW3 3166   0.396   4.333   1.621 -0.6056 -1.2541 -0.7705
  773SOL    MW4 3167   0.458   4.282   1.655 -0.1475 -0.3767 -0.2663
  774SOL     OW 3168   0.670   4.388   1.519 -0.4412 -0.7221  0.2958
  774SOL    HW2 3169   0.600   4.350   1.573 -1.1688 -0.2877 -0.3316
  774SOL    HW3 3170   0.668   4.482   1.540 -1.4773 -0.3721 -1.3161
  774SOL    MW4 3171   0.661   4.396   1.529 -0.6739 -0.6189  0.0002
  775SOL     OW 3172   1.079   4.642   1.626  0.3955  0.3455  0.1838
  775SOL    HW2 3173   1.090   4.631   1.720 -0.2042 -1.6381  0.0323
  775SOL    HW3 3174   1.163   4.675   1.595  0.5174  1.2545  1.4313
  775SOL    MW4 3175   1.091   4.645   1.634  0.3325  0.2036  0.3284
  776SOL     OW 3176   0.877   0.139   1.500 -0.0356 -0.1283 -0.1935
  776SOL    HW2 3177   0.886   0.222   1.548  1.0517 -0.5097  0.2915
  776SOL    HW3 3178   0.947   0.084   1.536 -0.3456 -1.0298 -0.9733
  776SOL    MW4 3179   0.888   0.143   1.511  0.0669 -0.2976 -0.2325
  777SOL     OW 3180   0.909   0.378   1.623 -0.4461 -0.5636  0.4594
  777SOL    HW2 3181   0.898   0.355   1.715 -1.1626 -0.2391  0.4597
  777SOL    HW3 3182   0.834   0.435   1.603  0.6200  0.7536  0.1367
  777SOL    MW4 3183   0.898   0.383   1.632 -0.3999 -0.3470  0.4169
  778SOL     OW 3184   1.108   0.523   1.488 -0.0017 -0.1402  0.0534
  778SOL    HW2 3185   1.113   0.616   1.510 -0.7274  0.1410 -0.9143
  778SOL    HW3 3186   1.040   0.489   1.547 -0.5044  0.1803 -0.3318
  778SOL    MW4 3187   1.099   0.531   1.499 -0.1638 -0.0608 -0.1253
  779SOL     OW 3188   1.161   0.789   1.591  0.4109 -0.0153  0.3195
  779SOL    HW2 3189   1.156   0.780   1.686  0.5873  0.4302  0.3709
  779SOL    HW3 3190   1.244   0.834   1.576  0.5848 -0.4632 -0.0700
  779SOL    MW4 3191   1.172   0.794   1.602  0.4572 -0.0156  0.2749
  780SOL     OW 3192   0.902   0.884   1.492  0.4078  0.4007 -0.0933
  780SOL    HW2 3193   0.992   0.872   1.522  0.1998 -1.3167 -0.1340
  780SOL    HW3 3194   0.908   0.886   1.396 -0.0172 -3.6163 -0.2645
  780SOL    MW4 3195   0.914   0.883   1.483  0.3243 -0.3558 -0.1212
  781SOL     OW 3196   0.938   1.157   1.576 -0.0052  0.0712  0.3823
  781SOL    HW2 3197   0.916   1.067   1.553 -0.5263  0.3293 -0.1480
  781SOL    HW3 3198   0.862   1.209   1.549  0.1803  0.6368  0.9224
  781SOL    MW4 3199   0.925   1.152   1.569 -0.0495  0.1799  0.3836
  782SOL     OW 3200   1.170   1.308   1.474  0.2815  0.2954  0.2980
  782SOL    HW2 3201   1.244   1.268   1.520  0.4050  0.0268 -0.1216
  782SOL    HW3 3202   1.092   1.271   1.516  0.3970 -0.7727 -0.3947
  782SOL    MW4 3203   1.169   1.298   1.486  0.3130  0.1191  0.1512
  783SOL     OW 3204   1.129   1.563   1.592  0.0119 -0.3379  0.1854
  783SOL    HW2 3205   1.216   1.603   1.590 -0.1409 -0.0550 -1.1757
  783SOL    HW3 3206   1.140   1.478   1.551 -0.2520 -0.5338  0.5078
  783SOL    MW4 3207   1.142   1.557   1.587 -0.0430 -0.3265  0.0484
  784SOL     OW 3208   0.905   1.711   1.504  0.1434  0.2789  0.1434
  784SOL    HW2 3209   0.981   1.673   1.549  0.6646  0.9199 -0.1837
  784SOL    HW3 3210   0.933   1.718   1.413  0.1768  1.7680  0.2599
  784SOL    MW4 3211   0.919   1.707   1.498  0.2167  0.5598  0.1155
  785SOL     OW 3212   0.874   1.955   1.632  0.5179 -0.0934  0.3888
  785SOL    HW2 3213   0.926   2.024   1.591  1.2318 -0.6765  0.2928
  785SOL    HW3 3214   0.899   1.875   1.585 -0.3206 -0.4128  0.4741
  785SOL    MW4 3215   0.884   1.954   1.620  0.5015 -0.2124  0.3874
  786SOL     OW 3216   1.095   2.096   1.500  0.1562  0.2462 -0.2976
  786SOL    HW2 3217   1.168   2.042   1.529 -0.6710 -0.8077 -0.1331
  786SOL    HW3 3218   1.092   2.169   1.562 -0.6172 -1.1490  1.3507
  786SOL    MW4 3219   1.104   2.099   1.512 -0.0551 -0.0768 -0.0583
  787SOL     OW 3220   1.100   2.350   1.632  0.6384 -0.2074 -0.3900
  787SOL    HW2 3221   1.180   2.394   1.603  0.4419  0.2951 -0.1693
  787SOL    HW3 3222   1.029   2.399   1.590  0.3046  0.9543  1.4619
  787SOL    MW4 3223   1.101   2.363   1.622  0.5685  0.0119 -0.1166
  788SOL     OW 3224   0.884   2.481   1.512  0.0206  0.0176 -0.3104
  788SOL    HW2 3225   0.872   2.572   1.540 -1.9685 -0.2566 -0.2119
  788SOL    HW3 3226   0.815   2.433   1.558  0.3718 -1.3638 -1.2210
  788SOL    MW4 3227   0.873   2.487   1.522 -0.1954 -0.2010 -0.4176
  789SOL     OW 3228   0.930   2.746   1.597  0.2006  0.1578 -0.0311
  789SOL    HW2 3229   0.911   2.733   1.690 -0.1414 -1.5334 -0.3128
  789SOL    HW3 3230   0.849   2.784   1.562  0.1985  0.4579  0.2993
  789SOL    MW4 3231   0.917   2.749   1.604  0.1552 -0.0260 -0.0247
  790SOL     OW 3232   1.170   2.865   1.491  0.7057 -0.0777  0.1960
  790SOL    HW2 3233   1.169   2.957   1.520 -0.5606  0.1082 -0.4276
  790SOL    HW3 3234   1.088   2.829   1.524  0.0423 -0.3191 -1.6936
  790SOL    MW4 3235   1.159   2.873   1.499  0.4511 -0.0851 -0.1355
  791SOL     OW 3236   1.151   3.125   1.569  0.2948  0.3883  0.0418
  791SOL    HW2 3237   1.171   3.115   1.662 -1.0743  1.8838  0.5216
  791SOL    HW3 3238   1.230   3.162   1.531  1.3063 -1.4007  0.3632
  791SOL    MW4 3239   1.164   3.129   1.576  0.2475  0.3493  0.1475
  792SOL     OW 3240   0.915   3.249   1.503  0.2402  0.2093  0.0149
  792SOL    HW2 3241   1.000   3.210   1.519 -0.8172 -2.0072  0.3780
  792SOL    HW3 3242   0.914   3.268   1.409  0.9640 -0.1090 -0.0577
  792SOL    MW4 3243   0.926   3.247   1.493  0.1962 -0.1252  0.0532
  793SOL     OW 3244   0.892   3.491   1.625  0.1574 -0.1877  0.4297
  793SOL    HW2 3245   0.974   3.522   1.587 -0.3243  0.1699 -0.3232
  793SOL    HW3 3246   0.887   3.399   1.601  0.8882 -0.4970  1.4427
  793SOL    MW4 3247   0.902   3.483   1.617  0.1903 -0.1817  0.4642
  794SOL     OW 3248   1.132   3.615   1.511 -0.5482  0.2061 -0.2318
  794SOL    HW2 3249   1.209   3.588   1.561 -0.6720  0.4990  0.1240
  794SOL    HW3 3250   1.157   3.604   1.420  0.3277  1.4390 -0.1433
  794SOL    MW4 3251   1.145   3.610   1.506 -0.4489  0.4075 -0.1732
  795SOL     OW 3252   1.108   3.887   1.619 -0.2355  0.1491 -0.5112
  795SOL    HW2 3253   1.188   3.933   1.594 -0.3518 -0.4238 -1.9764
  795SOL    HW3 3254   1.122   3.796   1.591 -0.5643 -0.4321  1.1070
  795SOL    MW4 3255   1.120   3.881   1.612 -0.2942 -0.0029 -0.4911
  796SOL     OW 3256   0.868   3.988   1.551 -0.3915  0.3350  0.7179
  796SOL    HW2 3257   0.870   4.078   1.584  0.2442  0.3572  0.6224
  796SOL    HW3 3258   0.953   3.952   1.574  0.2953  0.5385 -1.4340
  796SOL    MW4 3259   0.879   3.995   1.559 -0.2170  0.3648  0.4213
  797SOL     OW 3260   0.892   4.259   1.637  0.2043  0.7867  0.0213
  797SOL    HW2 3261   0.885   4.241   1.730 -0.1308  0.9704  0.0336
  797SOL    HW3 3262   0.823   4.323   1.620 -0.9351 -0.6029 -0.7106
  797SOL    MW4 3263   0.882   4.265   1.647  0.0097  0.6280 -0.0737
  798SOL     OW 3264   1.074   4.387   1.494  0.0302 -0.4123  0.4285
  798SOL    HW2 3265   1.015   4.329   1.542 -1.0992  0.1751 -0.2417
  798SOL    HW3 3266   1.061   4.473   1.534  0.5237 -0.3051  0.3593
  798SOL    MW4 3267   1.064   4.391   1.506 -0.0536 -0.3200  0.3309
  799SOL     OW 3268   1.573   0.037   1.575 -0.3413  0.0418  0.0046
  799SOL    HW2 3269   1.561   0.041   1.670  0.1525  1.2800  0.0198
  799SOL    HW3 3270   1.486   0.058   1.539 -0.5918 -0.6874  0.1808
  799SOL    MW4 3271   1.560   0.040   1.583 -0.3092  0.1090  0.0299
  800SOL     OW 3272   1.323   0.100   1.504  0.2632  0.3106  0.3642
  800SOL    HW2 3273   1.312   0.186   1.543 -1.9609  0.9113 -1.4187
  800SOL    HW3 3274   1.340   0.117   1.411  0.0495 -1.1350  0.0310
  800SOL    MW4 3275   1.323   0.113   1.497 -0.0585  0.1991  0.0850
  801SOL     OW 3276   1.316   0.366   1.577 -0.3174  0.4679  0.5924
  801SOL    HW2 3277   1.396   0.403   1.540 -0.3539  0.6613  0.7071
  801SOL    HW3 3278   1.245   0.416   1.536 -0.4084 -0.1321  0.0045
  801SOL    MW4 3279   1.317   0.377   1.567 -0.3341  0.4143  0.5299
  802SOL     OW 3280   1.561   0.512   1.505  0.3734  0.1181 -0.0843
  802SOL    HW2 3281   1.630   0.451   1.532  0.8269  0.7033  0.0998
  802SOL    HW3 3282   1.559   0.505   1.410  0.5747 -0.0255 -0.0780
  802SOL    MW4 3283   1.570   0.503   1.496  0.4599  0.1764 -0.0592
  803SOL     OW 3284   1.560   0.768   1.593 -0.0001  0.5735  0.0447
  803SOL    HW2 3285   1.570   0.751   1.686  1.3795  0.1111 -0.1732
  803SOL    HW3 3286   1.561   0.681   1.553  1.1141  0.8585 -0.5540
  803SOL    MW4 3287   1.561   0.754   1.600  0.3288  0.5501 -0.0629
  804SOL     OW 3288   1.371   0.933   1.468  0.1885 -0.3383 -0.5816
  804SOL    HW2 3289   1.429   0.867   1.507  2.2136  1.3336 -0.6644
  804SOL    HW3 3290   1.375   0.915   1.374 -0.9817 -1.4355 -0.4334
  804SOL    MW4 3291   1.380   0.922   1.461  0.3012 -0.2624 -0.5732
  805SOL     OW 3292   1.374   1.193   1.596 -0.2536  0.3997 -0.4516
  805SOL    HW2 3293   1.368   1.171   1.689 -2.9239  1.4446 -0.3170
  805SOL    HW3 3294   1.369   1.108   1.551 -0.0547 -0.0405  0.3436
  805SOL    MW4 3295   1.372   1.179   1.603 -0.5797  0.4793 -0.3290
  806SOL     OW 3296   1.624   1.344   1.521 -0.2974  0.5333  0.2167
  806SOL    HW2 3297   1.546   1.317   1.570  0.7697 -1.4109  0.8888
  806SOL    HW3 3298   1.596   1.344   1.429 -0.9569 -0.6237  0.4137
  806SOL    MW4 3299   1.610   1.341   1.515 -0.2437  0.1242  0.3314
  807SOL     OW 3300   1.587   1.582   1.661  0.7441  0.0190 -0.1793
  807SOL    HW2 3301   1.578   1.566   1.755 -0.7725 -1.4402 -0.5471
  807SOL    HW3 3302   1.611   1.497   1.625 -2.3360 -0.3277 -1.5662
  807SOL    MW4 3303   1.589   1.569   1.669  0.1377 -0.2192 -0.4108
  808SOL     OW 3304   1.377   1.689   1.542 -0.3703  0.1915 -0.1178
  808SOL    HW2 3305   1.456   1.649   1.580  0.3433  0.9296 -0.8039
  808SOL    HW3 3306   1.385   1.673   1.448  0.2678  2.4990 -0.4835
  808SOL    MW4 3307   1.388   1.682   1.535 -0.1920  0.5933 -0.2568
  809SOL     OW 3308   1.307   1.959   1.591  0.1154  0.1552 -0.1569
  809SOL    HW2 3309   1.307   1.950   1.686 -0.0574  1.3049 -0.0443
  809SOL    HW3 3310   1.309   1.869   1.558 -1.5070 -0.2981  0.9305
  809SOL    MW4 3311   1.308   1.946   1.599 -0.1215  0.2471  0.0013
  810SOL     OW 3312   1.557   2.036   1.500 -0.0686  0.4728  0.9240
  810SOL    HW2 3313   1.471   2.010   1.532 -0.3056  0.5153  0.3406
  810SOL    HW3 3314   1.555   2.015   1.407  0.7388  0.0091  1.0120
  810SOL    MW4 3315   1.545   2.030   1.492  0.0064  0.4175  0.8585
  811SOL     OW 3316   1.526   2.298   1.575  0.2233 -0.2433  0.2057
  811SOL    HW2 3317   1.606   2.337   1.540 -0.3107  0.5441 -0.1406
  811SOL    HW3 3318   1.527   2.208   1.540  1.1018 -0.3383  0.4527
  811SOL    MW4 3319   1.537   2.291   1.565  0.2687 -0.1521  0.1925
  812SOL     OW 3320   1.325   2.476   1.529 -0.0620 -0.2393  0.4438
  812SOL    HW2 3321   1.352   2.547   1.587 -0.2003  0.1182  0.0663
  812SOL    HW3 3322   1.387   2.405   1.548 -0.0999 -0.1208  1.0197
  812SOL    MW4 3323   1.337   2.476   1.539 -0.0852 -0.1764  0.4699
  813SOL     OW 3324   1.383   2.740   1.618  0.2282 -0.1046  0.0653
  813SOL    HW2 3325   1.463   2.766   1.572 -0.1780 -2.7514 -2.2193
  813SOL    HW3 3326   1.312   2.774   1.564 -0.2470 -0.4605  0.4609
  813SOL    MW4 3327   1.384   2.748   1.605  0.1118 -0.5004 -0.1839
  814SOL     OW 3328   1.614   2.844   1.525 -0.6735 -0.6057  0.7940
  814SOL    HW2 3329   1.677   2.778   1.556  1.0028  0.2988 -0.6061
  814SOL    HW3 3330   1.633   2.853   1.431 -0.3356  2.4239  1.1117
  814SOL    MW4 3331   1.625   2.836   1.517 -0.4077 -0.0870  0.6511
  815SOL     OW 3332   1.584   3.099   1.625 -0.1087 -0.3201  0.0694
  815SOL    HW2 3333   1.670   3.128   1.594  0.6207 -2.1997  0.2710
  815SOL    HW3 3334   1.584   3.004   1.610 -1.5952 -0.5464  1.3782
  815SOL    MW4 3335   1.595   3.090   1.619 -0.2086 -0.5980  0.2687
  816SOL     OW 3336   1.368   3.229   1.479 -0.1679 -0.2995  0.3058
  816SOL    HW2 3337   1.375   3.315   1.520 -0.3639 -0.1904  0.1173
  816SOL    HW3 3338   1.432   3.174   1.524  0.9344  0.3100 -0.5014
  816SOL    MW4 3339   1.377   3.233   1.490 -0.0484 -0.2048  0.1744
  817SOL     OW 3340   1.364   3.468   1.622  0.1138 -0.1934  0.2775
  817SOL    HW2 3341   1.353   3.466   1.717  1.4437  0.3936  0.4498
  817SOL    HW3 3342   1.442   3.522   1.607  0.0878 -0.5118 -1.1323
  817SOL    MW4 3343   1.373   3.475   1.632  0.2857 -0.1578  0.1142
  818SOL     OW 3344   1.563   3.621   1.535  0.0797 -0.3754 -0.0324
  818SOL    HW2 3345   1.587   3.710   1.561 -0.2123 -0.3620  0.2035
  818SOL    HW3 3346   1.570   3.620   1.440 -1.0072  0.2288 -0.1342
  818SOL    MW4 3347   1.567   3.632   1.526 -0.1023 -0.2937 -0.0147
  819SOL     OW 3348   1.579   3.892   1.624  0.3778 -0.0573  0.0306
  819SOL    HW2 3349   1.574   3.863   1.715  2.0550 -2.5742 -0.6395
  819SOL    HW3 3350   1.500   3.944   1.611 -1.1160 -1.7205  2.2162
  819SOL    MW4 3351   1.568   3.895   1.634  0.4021 -0.6089  0.2306
  820SOL     OW 3352   1.318   4.040   1.546 -0.1033  0.2581 -0.1734
  820SOL    HW2 3353   1.324   4.132   1.569 -1.2205  0.1900  0.4399
  820SOL    HW3 3354   1.330   4.038   1.451 -1.5066  1.2037 -0.3887
  820SOL    MW4 3355   1.320   4.052   1.536 -0.4358  0.3743 -0.1210
  821SOL     OW 3356   1.307   4.285   1.622 -0.3587  0.1467 -0.5493
  821SOL    HW2 3357   1.377   4.350   1.615 -0.9342  1.0765  1.6906
  821SOL    HW3 3358   1.229   4.332   1.589 -0.6267  0.3638  0.3741
  821SOL    MW4 3359   1.306   4.300   1.616 -0.4699  0.2980 -0.1320
  822SOL     OW 3360   1.539   4.429   1.544 -0.0831  0.6815 -0.3940
  822SOL    HW2 3361   1.611   4.384   1.588  0.6558  1.0365 -1.2339
  822SOL    HW3 3362   1.552   4.522   1.566 -0.9541  0.6201  0.4085
  822SOL    MW4 3363   1.551   4.435   1.553 -0.1005  0.7200 -0.3990
  823SOL     OW 3364   2.040   4.641   1.627 -0.0839 -0.1686 -0.0528
  823SOL    HW2 3365   2.031   4.631   1.722  1.6477  1.3076  0.2919
  823SOL    HW3 3366   1.965   4.694   1.601 -1.0667 -1.3319  0.3250
  823SOL    MW4 3367   2.029   4.646   1.637  0.0148 -0.1273  0.0424
  824SOL     OW 3368   1.824   0.118   1.472 -0.0969 -0.0934 -0.1069
  824SOL    HW2 3369   1.747   0.075   1.509  0.3866 -0.8657  0.0016
  824SOL    HW3 3370   1.813   0.109   1.377  0.0464 -0.5382 -0.0834
  824SOL    MW4 3371   1.812   0.111   1.464 -0.0142 -0.2540 -0.0895
  825SOL     OW 3372   1.761   0.341   1.616  0.3027 -0.0542 -0.5194
  825SOL    HW2 3373   1.824   0.408   1.591  0.5951  0.1352  0.6812
  825SOL    HW3 3374   1.787   0.264   1.565 -0.5213  0.9430 -2.4875
  825SOL    MW4 3375   1.773   0.339   1.606  0.2325  0.1023 -0.6206
  826SOL     OW 3376   1.967   0.485   1.519  0.5250  0.2697 -0.6055
  826SOL    HW2 3377   2.053   0.455   1.548 -0.1130 -0.3199  0.6617
  826SOL    HW3 3378   1.974   0.581   1.521  1.6034  0.2417 -1.8781
  826SOL    MW4 3379   1.979   0.494   1.523  0.5831  0.1882 -0.6063
  827SOL     OW 3380   2.041   0.761   1.551  0.6278  0.1327  0.0684
  827SOL    HW2 3381   2.109   0.815   1.512  0.2123  0.1374 -0.6733
  827SOL    HW3 3382   1.959   0.801   1.522  0.2981 -1.6519 -1.6440
  827SOL    MW4 3383   2.039   0.773   1.542  0.5295 -0.1021 -0.2555
  828SOL     OW 3384   1.789   0.869   1.514 -0.1127 -0.1130  0.5085
  828SOL    HW2 3385   1.783   0.961   1.540 -0.2700 -0.1000  0.4232
  828SOL    HW3 3386   1.710   0.829   1.550  0.7981 -0.5755  2.0430
  828SOL    MW4 3387   1.778   0.876   1.523 -0.0132 -0.1723  0.6998
  829SOL     OW 3388   1.792   1.131   1.564  0.0426  0.3106 -0.1130
  829SOL    HW2 3389   1.875   1.178   1.553  0.0333  0.4462  0.3898
  829SOL    HW3 3390   1.725   1.196   1.544  0.0790 -0.3393 -2.5596
  829SOL    MW4 3391   1.794   1.146   1.560  0.0463  0.2427 -0.3695
  830SOL     OW 3392   2.022   1.244   1.479 -0.0435  0.1869 -0.1802
  830SOL    HW2 3393   2.028   1.330   1.520 -0.9655  0.1567  0.0332
  830SOL    HW3 3394   2.014   1.262   1.385  1.9688  0.2585 -0.3501
  830SOL    MW4 3395   2.022   1.258   1.472  0.1004  0.1923 -0.1744
  831SOL     OW 3396   2.044   1.517   1.568  0.3659 -0.0471  0.0245
  831SOL    HW2 3397   2.111   1.580   1.541  1.8116 -1.5546  0.0125
  831SOL    HW3 3398   1.961   1.560   1.549  1.3142  0.0144 -4.5039
  831SOL    MW4 3399   2.042   1.531   1.562  0.6816 -0.2379 -0.5746
  832SOL     OW 3400   1.811   1.656   1.520  0.0661 -0.6957  0.1837
  832SOL    HW2 3401   1.736   1.625   1.570 -0.2918 -1.5034 -0.8257
  832SOL    HW3 3402   1.789   1.635   1.429  1.7686 -1.4371 -0.0706
  832SOL    MW4 3403   1.798   1.649   1.514  0.2435 -0.9000  0.0170
  833SOL     OW 3404   1.793   1.924   1.566  0.6554 -0.2465 -0.0481
  833SOL    HW2 3405   1.772   1.833   1.546  0.6777 -0.0964 -0.7974
  833SOL    HW3 3406   1.709   1.970   1.558  0.5594 -0.2766  0.7826
  833SOL    MW4 3407   1.779   1.918   1.562  0.6458 -0.2308 -0.0373
  834SOL     OW 3408   2.034   2.053   1.490 -0.2937  0.0343  0.4257
  834SOL    HW2 3409   2.110   2.021   1.538 -0.3497 -0.9248 -0.1202
  834SOL    HW3 3410   1.967   1.987   1.504 -0.9880  0.7963  0.7751
  834SOL    MW4 3411   2.035   2.040   1.498 -0.3927  0.0083  0.3996
  835SOL     OW 3412   2.004   2.342   1.601 -0.5612  0.2627  0.4713
  835SOL    HW2 3413   2.011   2.336   1.697  0.3050  0.4852  0.4254
  835SOL    HW3 3414   2.022   2.253   1.571  2.9753  0.9398  0.3205
  835SOL    MW4 3415   2.007   2.329   1.610  0.0193  0.3815  0.4454
  836SOL     OW 3416   1.775   2.413   1.474 -0.1672 -0.3985  0.4245
  836SOL    HW2 3417   1.860   2.386   1.509 -0.1049  0.0139  0.5970
  836SOL    HW3 3418   1.786   2.411   1.379 -0.1067 -0.7884  0.4356
  836SOL    MW4 3419   1.788   2.409   1.466 -0.1510 -0.3955  0.4487
  837SOL     OW 3420   1.793   2.648   1.640  0.2027  0.4180 -0.6669
  837SOL    HW2 3421   1.859   2.705   1.601 -0.1140 -0.1609 -2.0703
  837SOL    HW3 3422   1.791   2.571   1.583 -1.4415  0.2761 -0.4420
  837SOL    MW4 3423   1.802   2.645   1.627 -0.0559  0.3228 -0.8224
  838SOL     OW 3424   1.960   2.804   1.491 -0.5379 -0.0944 -0.1516
  838SOL    HW2 3425   1.977   2.878   1.549  0.3060 -0.0367 -0.4553
  838SOL    HW3 3426   1.973   2.840   1.403 -0.2409 -0.5713 -0.3043
  838SOL    MW4 3427   1.964   2.818   1.487 -0.3873 -0.1495 -0.2118
  839SOL     OW 3428   2.035   3.040   1.629 -0.2698 -0.2959  0.0854
  839SOL    HW2 3429   2.047   3.058   1.722  1.9542 -1.9327  0.1678
  839SOL    HW3 3430   2.109   3.083   1.587 -0.9150 -0.1094 -0.8651
  839SOL    MW4 3431   2.046   3.048   1.636 -0.0618 -0.4873 -0.0292
  840SOL     OW 3432   1.829   3.195   1.525  0.6057 -0.4779 -0.7141
  840SOL    HW2 3433   1.816   3.284   1.558  1.9087  0.0390 -1.5660
  840SOL    HW3 3434   1.901   3.161   1.579  0.4583 -0.8349 -0.7441
  840SOL    MW4 3435   1.837   3.202   1.537  0.7583 -0.4568 -0.8305
  841SOL     OW 3436   1.778   3.460   1.611 -0.2001  0.1520 -0.2379
  841SOL    HW2 3437   1.774   3.451   1.707 -0.0753 -0.4830 -0.2880
  841SOL    HW3 3438   1.698   3.506   1.587  0.6615  2.0402  0.3648
  841SOL    MW4 3439   1.767   3.465   1.621 -0.0700  0.3176 -0.1650
  842SOL     OW 3440   2.002   3.627   1.535  0.1971 -0.2931 -0.2942
  842SOL    HW2 3441   2.080   3.580   1.565  0.1062 -0.5437 -0.4531
  842SOL    HW3 3442   1.929   3.580   1.574  0.0601 -0.8035 -1.1550
  842SOL    MW4 3443   2.003   3.615   1.544  0.1671 -0.3934 -0.4288
  843SOL     OW 3444   1.979   3.914   1.563 -0.0391  0.2233  0.2972
  843SOL    HW2 3445   2.068   3.945   1.546 -0.5134  1.2031 -0.4471
  843SOL    HW3 3446   1.981   3.821   1.539  0.9190  0.1078  0.8090
  843SOL    MW4 3447   1.991   3.906   1.557  0.0248  0.3371  0.2666
  844SOL     OW 3448   1.765   4.055   1.503  0.3289 -0.2602 -0.0695
  844SOL    HW2 3449   1.843   4.001   1.517 -0.4153 -1.2477  0.3122
  844SOL    HW3 3450   1.693   4.005   1.542 -0.4686  0.7363 -0.2295
  844SOL    MW4 3451   1.766   4.041   1.510  0.1254 -0.2584 -0.0403
  845SOL     OW 3452   1.788   4.318   1.615 -0.2400 -0.1598  0.5214
  845SOL    HW2 3453   1.866   4.351   1.571 -0.1926  0.3124  0.9671
  845SOL    HW3 3454   1.781   4.227   1.585  1.4508 -0.7470  1.7946
  845SOL    MW4 3455   1.798   4.310   1.605 -0.0106 -0.1740  0.7482
  846SOL     OW 3456   2.019   4.402   1.484 -0.2427  0.2990  0.1921
  846SOL    HW2 3457   2.086   4.353   1.532  0.5089  0.6235 -0.5217
  846SOL    HW3 3458   2.016   4.488   1.526  0.4584  0.6029 -0.3796
  846SOL    MW4 3459   2.027   4.407   1.496 -0.0510  0.3819  0.0225
  847SOL     OW 3460   2.482   4.592   1.637 -0.1380 -0.1123  0.1339
  847SOL    HW2 3461   2.498   4.610   1.730  1.8892  0.5986 -0.3376
  847SOL    HW3 3462   2.399   4.636   1.619 -0.7057 -0.4976  1.6633
  847SOL    MW4 3463   2.473   4.600   1.647  0.0546 -0.0701  0.2736
  848SOL     OW 3464   2.268   0.080   1.530 -0.2925  0.2011  0.1605
  848SOL    HW2 3465   2.186   0.040   1.560 -0.9357  2.3405  1.3437
  848SOL    HW3 3466   2.261   0.078   1.434 -1.2832 -0.4964  0.2355
  848SOL    MW4 3467   2.256   0.074   1.521 -0.5078  0.3914  0.3264
  849SOL     OW 3468   2.211   0.341   1.600 -0.0423 -0.1594  0.3435
  849SOL    HW2 3469   2.217   0.343   1.695  2.6911  0.5681  0.1941
  849SOL    HW3 3470   2.233   0.251   1.576  1.0881  0.1179  0.3157
  849SOL    MW4 3471   2.215   0.329   1.609  0.4675 -0.0268  0.3201
  850SOL     OW 3472   2.436   0.460   1.480 -0.6408  0.3415  0.5162
  850SOL    HW2 3473   2.511   0.416   1.521 -0.2705  0.4652 -0.0340
  850SOL    HW3 3474   2.360   0.422   1.524 -0.3123 -0.6390  0.2548
  850SOL    MW4 3475   2.436   0.449   1.492 -0.5486  0.2284  0.4090
  851SOL     OW 3476   2.493   0.723   1.580  0.1593 -0.0546  0.0110
  851SOL    HW2 3477   2.422   0.784   1.561 -0.0403  0.5972  2.6535
  851SOL    HW3 3478   2.469   0.642   1.535 -1.1764  0.8368 -0.8867
  851SOL    MW4 3479   2.480   0.720   1.572 -0.0434  0.1490  0.2413
  852SOL     OW 3480   2.285   0.892   1.495 -0.1954 -0.4078 -0.2944
  852SOL    HW2 3481   2.284   0.984   1.523 -0.3759 -0.7086  0.7312
  852SOL    HW3 3482   2.276   0.896   1.400  1.2801  0.6925 -0.4216
  852SOL    MW4 3483   2.284   0.905   1.486 -0.0248 -0.3024 -0.1758
  853SOL     OW 3484   2.258   1.167   1.567 -0.6391 -0.1604  0.3684
  853SOL    HW2 3485   2.242   1.170   1.661 -0.0745  2.9966  0.3971
  853SOL    HW3 3486   2.175   1.194   1.528 -0.5207 -0.3648 -0.0300
  853SOL    MW4 3487   2.245   1.171   1.574 -0.5493  0.2292  0.3196
  854SOL     OW 3488   2.499   1.278   1.481  0.6483  0.0623  0.1815
  854SOL    HW2 3489   2.420   1.237   1.514  1.0481 -0.5451  0.4001
  854SOL    HW3 3490   2.489   1.277   1.386  0.1459  0.4949  0.2292
  854SOL    MW4 3491   2.488   1.272   1.473  0.6347  0.0391  0.2165
  855SOL     OW 3492   2.492   1.543   1.583  0.3964 -0.3474  0.1782
  855SOL    HW2 3493   2.561   1.601   1.551 -0.3315  0.2806 -0.2862
  855SOL    HW3 3494   2.517   1.457   1.552  1.0817 -0.1617  0.1998
  855SOL    MW4 3495   2.504   1.540   1.575  0.3905 -0.2400  0.1197
  856SOL     OW 3496   2.271   1.686   1.522  0.4670 -0.5879  0.3430
  856SOL    HW2 3497   2.349   1.634   1.539  0.6212 -0.4557  0.0382
  856SOL    HW3 3498   2.273   1.703   1.428 -0.3805 -1.3069  0.1835
  856SOL    MW4 3499   2.281   1.681   1.512  0.3755 -0.6654  0.2818
  857SOL     OW 3500   2.265   1.956   1.613  0.2323  0.6236  0.6237
  857SOL    HW2 3501   2.258   1.955   1.709 -1.6787  1.0301  0.5104
  857SOL    HW3 3502   2.268   1.863   1.589  0.4866  0.5158  1.0473
  857SOL    MW4 3503   2.265   1.943   1.623  0.0136  0.6630  0.6645
  858SOL     OW 3504   2.508   2.071   1.494  0.1373 -0.1921  0.3617
  858SOL    HW2 3505   2.429   2.027   1.523 -0.1978  0.2605  0.1424
  858SOL    HW3 3506   2.499   2.076   1.399  0.3588 -0.0106  0.3491
  858SOL    MW4 3507   2.497   2.066   1.485  0.1223 -0.1085  0.3312
  859SOL     OW 3508   2.473   2.355   1.617 -0.3955  0.6227 -0.6058
  859SOL    HW2 3509   2.484   2.345   1.712  0.8375  1.1678 -0.6756
  859SOL    HW3 3510   2.471   2.265   1.584  1.4792  0.4372 -0.2874
  859SOL    MW4 3511   2.474   2.342   1.625  0.0145  0.6702 -0.5729
  860SOL     OW 3512   2.241   2.423   1.482  0.2348 -0.5300 -0.0540
  860SOL    HW2 3513   2.315   2.413   1.541  0.2496 -2.1435 -0.3175
  860SOL    HW3 3514   2.166   2.387   1.530 -0.4137  1.2017  0.2597
  860SOL    MW4 3515   2.241   2.417   1.496  0.1514 -0.5145 -0.0474
  861SOL     OW 3516   2.207   2.686   1.564  0.1011 -0.2320 -0.2173
  861SOL    HW2 3517   2.206   2.598   1.527  0.5487  0.5992 -2.2924
  861SOL    HW3 3518   2.130   2.728   1.526  0.5714  0.6544 -0.1918
  861SOL    MW4 3519   2.197   2.680   1.554  0.2220 -0.0055 -0.4878
  862SOL     OW 3520   2.472   2.801   1.560 -0.4643 -0.2880  0.2464
  862SOL    HW2 3521   2.461   2.888   1.597 -0.8335  0.0652 -0.6892
  862SOL    HW3 3522   2.387   2.759   1.570 -0.6324 -0.1073 -0.4239
  862SOL    MW4 3523   2.460   2.807   1.566 -0.5350 -0.2174  0.0345
  863SOL     OW 3524   2.479   3.060   1.636 -0.2423  0.5906  0.2758
  863SOL    HW2 3525   2.543   3.113   1.588  0.3780 -0.8256 -0.4936
  863SOL    HW3 3526   2.395   3.082   1.597 -0.0305  1.2731  0.2060
  863SOL    MW4 3527   2.477   3.070   1.625 -0.1323  0.4940  0.1651
  864SOL     OW 3528   2.242   3.176   1.511 -0.2321  0.4705 -0.0109
  864SOL    HW2 3529   2.255   3.266   1.540 -0.3349  0.9053 -1.2956
  864SOL    HW3 3530   2.246   3.181   1.415 -0.2638 -0.8835 -0.0853
  864SOL    MW4 3531   2.244   3.189   1.502 -0.2501  0.3493 -0.1903
  865SOL     OW 3532   2.238   3.458   1.590  0.3529 -0.0673  0.1060
  865SOL    HW2 3533   2.264   3.449   1.682  2.0926 -2.6388 -0.5935
  865SOL    HW3 3534   2.308   3.509   1.550 -0.3809  1.0071  0.1625
  865SOL    MW4 3535   2.251   3.464   1.597  0.4854 -0.2651  0.0211
  866SOL     OW 3536   2.453   3.601   1.490  0.5846 -0.2052  0.0621
  866SOL    HW2 3537   2.528   3.544   1.503  0.7337  0.1441  0.7571
  866SOL    HW3 3538   2.475   3.681   1.538  0.5134  0.5536 -1.1483
  866SOL    MW4 3539   2.466   3.604   1.498  0.5949 -0.0591 -0.0060
  867SOL     OW 3540   2.467   3.845   1.608 -0.3934  0.3159 -0.5318
  867SOL    HW2 3541   2.473   3.844   1.704 -0.7632  0.9713 -0.4991
  867SOL    HW3 3542   2.541   3.898   1.580  0.0214 -0.3224 -0.6322
  867SOL    MW4 3543   2.477   3.852   1.617 -0.3874  0.3183 -0.5407
  868SOL     OW 3544   2.233   3.968   1.512 -0.0144 -0.5935  0.6984
  868SOL    HW2 3545   2.316   3.927   1.537  0.5814  0.4025  0.3738
  868SOL    HW3 3546   2.238   3.975   1.417  0.2913  1.0504  0.8196
  868SOL    MW4 3547   2.245   3.964   1.503  0.1044 -0.2453  0.6716
  869SOL     OW 3548   2.207   4.239   1.595 -0.0095 -0.2590 -0.3735
  869SOL    HW2 3549   2.282   4.295   1.575 -0.1483  0.2279  0.4341
  869SOL    HW3 3550   2.238   4.150   1.579  1.1316 -0.1563  1.1219
  869SOL    MW4 3551   2.221   4.235   1.590  0.1225 -0.1812 -0.0696
  870SOL     OW 3552   2.453   4.329   1.529 -0.3018 -0.0181  0.1202
  870SOL    HW2 3553   2.461   4.409   1.581 -2.5386  0.4946 -0.2788
  870SOL    HW3 3554   2.468   4.356   1.439 -1.3204  0.0264 -0.0467
  870SOL    MW4 3555   2.456   4.343   1.524 -0.7312  0.0553  0.0457
  871SOL     OW 3556   2.897   4.634   1.610  0.1368  0.1640 -0.4252
  871SOL    HW2 3557   2.903   4.653   1.704 -0.5593 -0.6802 -0.2000
  871SOL    HW3 3558   2.816   4.678   1.582  0.1930  0.1754 -0.5680
  871SOL    MW4 3559   2.887   4.643   1.619  0.0522  0.0544 -0.4143
  872SOL     OW 3560   2.665   0.069   1.480 -0.0915  0.4139 -0.4088
  872SOL    HW2 3561   2.674   0.160   1.509 -0.9673  0.2561  0.4129
  872SOL    HW3 3562   2.598   0.033   1.538  0.2872 -0.7702 -0.7034
  872SOL    MW4 3563   2.657   0.077   1.492 -0.1569  0.2369 -0.3394
  873SOL     OW 3564   2.673   0.326   1.595 -0.0894 -0.2783  0.2796
  873SOL    HW2 3565   2.670   0.348   1.688 -0.9387  1.6254 -0.1702
  873SOL    HW3 3566   2.737   0.387   1.557 -0.0898 -0.7284 -0.4780
  873SOL    MW4 3567   2.681   0.337   1.602 -0.2015 -0.0865  0.1203
  874SOL     OW 3568   2.877   0.480   1.495  0.4984 -0.2252 -0.0783
  874SOL    HW2 3569   2.895   0.568   1.528  2.7472 -0.1941 -1.2838
  874SOL    HW3 3570   2.872   0.491   1.400 -3.4582 -0.7171 -0.0096
  874SOL    MW4 3571   2.879   0.493   1.486  0.2730 -0.2860 -0.2283
  875SOL     OW 3572   2.929   0.758   1.574 -0.0822  0.7260 -0.1303
  875SOL    HW2 3573   2.930   0.760   1.670 -0.1710  0.4849 -0.1230
  875SOL    HW3 3574   2.850   0.807   1.550 -1.2907 -1.0919 -0.0113
  875SOL    MW4 3575   2.918   0.764   1.584 -0.2537  0.4544 -0.1136
  876SOL     OW 3576   2.689   0.912   1.515 -0.0907  0.2439  0.1268
  876SOL    HW2 3577   2.634   0.843   1.553  0.5112 -0.3563 -0.0736
  876SOL    HW3 3578   2.670   0.909   1.421  2.2445 -1.7982 -0.3410
  876SOL    MW4 3579   2.679   0.902   1.507  0.2966 -0.1048  0.0385
  877SOL     OW 3580   2.740   1.205   1.595 -0.0345  0.4053  0.0698
  877SOL    HW2 3581   2.729   1.114   1.569  1.4933  0.4956 -0.9287
  877SOL    HW3 3582   2.665   1.250   1.555 -0.4164 -0.2877 -0.0045
  877SOL    MW4 3583   2.728   1.199   1.587  0.1168  0.3259 -0.0718
  878SOL     OW 3584   2.970   1.332   1.441  0.4141  0.0264  0.7686
  878SOL    HW2 3585   3.036   1.274   1.479  0.7629  0.8822  1.4737
  878SOL    HW3 3586   2.886   1.291   1.464  0.6918 -1.3508 -0.5950
  878SOL    MW4 3587   2.967   1.319   1.449  0.4969 -0.0424  0.6818
  879SOL     OW 3588   2.967   1.560   1.590 -0.0988  0.2136 -0.0644
  879SOL    HW2 3589   2.883   1.594   1.560  0.1343  0.4646 -0.4282
  879SOL    HW3 3590   2.982   1.481   1.538 -0.2960 -0.0535  0.2784
  879SOL    MW4 3591   2.958   1.554   1.579 -0.0942  0.2117 -0.0671
  880SOL     OW 3592   2.734   1.680   1.456  0.2636  0.3014 -0.2006
  880SOL    HW2 3593   2.737   1.772   1.482 -1.8787  0.6498 -1.0511
  880SOL    HW3 3594   2.728   1.682   1.360  1.5860 -0.7773 -0.3288
  880SOL    MW4 3595   2.733   1.692   1.447  0.1552  0.2052 -0.3296
  881SOL     OW 3596   2.730   1.935   1.556  0.1126  0.2310 -0.2033
  881SOL    HW2 3597   2.726   1.910   1.649  1.2930 -1.2473 -0.5382
  881SOL    HW3 3598   2.645   1.976   1.539 -0.5436 -0.4777  1.2520
  881SOL    MW4 3599   2.718   1.937   1.566  0.1817 -0.0576 -0.0556
  882SOL     OW 3600   2.947   2.067   1.454  0.1105 -0.0054 -0.0925
  882SOL    HW2 3601   2.947   2.152   1.498 -0.8859  0.7265 -1.4863
  882SOL    HW3 3602   2.869   2.023   1.486  0.4513 -0.2715  0.3796
  882SOL    MW4 3603   2.937   2.072   1.464  0.0241  0.0560 -0.2143
  883SOL     OW 3604   2.935   2.312   1.582  0.1482 -0.3291  0.1310
  883SOL    HW2 3605   2.919   2.302   1.676 -0.5891  1.4387  0.1986
  883SOL    HW3 3606   2.861   2.363   1.549  0.9299 -0.0233 -1.2294
  883SOL    MW4 3607   2.923   2.317   1.590  0.1538 -0.0553 -0.0396
  884SOL     OW 3608   2.704   2.454   1.478  0.0018  0.8278  0.1205
  884SOL    HW2 3609   2.717   2.537   1.523 -1.8848  0.8885  0.6004
  884SOL    HW3 3610   2.630   2.413   1.523  0.0953 -0.5435 -0.9095
  884SOL    MW4 3611   2.696   2.459   1.490 -0.2351  0.6547  0.0479
  885SOL     OW 3612   2.736   2.694   1.612  0.0512 -0.2602 -0.2377
  885SOL    HW2 3613   2.804   2.736   1.559 -1.3276 -0.5598 -2.2942
  885SOL    HW3 3614   2.655   2.738   1.587 -0.7810 -1.1476  0.8515
  885SOL    MW4 3615   2.735   2.705   1.601 -0.2406 -0.4168 -0.3654
  886SOL     OW 3616   2.933   2.807   1.470 -0.0639  0.0815  0.2893
  886SOL    HW2 3617   3.018   2.772   1.498  0.1271  0.2812 -0.0302
  886SOL    HW3 3618   2.939   2.901   1.489  0.2190  0.2912 -0.7604
  886SOL    MW4 3619   2.945   2.815   1.476 -0.0012  0.1354  0.1086
  887SOL     OW 3620   2.917   3.073   1.574 -0.4812  0.2486 -0.0175
  887SOL    HW2 3621   2.895   3.078   1.667 -0.7561  1.5909 -0.1513
  887SOL    HW3 3622   3.005   3.111   1.568 -0.2203 -0.3780 -0.2258
  887SOL    MW4 3623   2.926   3.078   1.585 -0.4833  0.3431 -0.0627
  888SOL     OW 3624   2.700   3.213   1.494  0.1172 -0.4635 -0.1960
  888SOL    HW2 3625   2.775   3.156   1.516  1.1974  0.9095 -0.2317
  888SOL    HW3 3626   2.694   3.209   1.399  1.7717  1.3864 -0.4131
  888SOL    MW4 3627   2.709   3.205   1.485  0.4780 -0.0384 -0.2294
  889SOL     OW 3628   2.730   3.486   1.598  0.0017  0.2389 -0.0037
  889SOL    HW2 3629   2.713   3.486   1.692  0.5222  2.4169  0.1220
  889SOL    HW3 3630   2.722   3.394   1.572 -0.6471 -0.3167  2.0640
  889SOL    MW4 3631   2.727   3.474   1.607 -0.0150  0.4535  0.2856
  890SOL     OW 3632   2.966   3.604   1.488 -0.0942 -0.1101  0.3096
  890SOL    HW2 3633   2.887   3.554   1.510  0.6271 -1.0783  0.7458
  890SOL    HW3 3634   2.974   3.595   1.393 -0.1801 -0.5069  0.3390
  890SOL    MW4 3635   2.957   3.596   1.478 -0.0103 -0.2904  0.3711
  891SOL     OW 3636   2.929   3.858   1.601  0.3742  0.2933 -0.0808
  891SOL    HW2 3637   2.839   3.875   1.572  0.6997  1.1363 -0.6161
  891SOL    HW3 3638   2.946   3.768   1.574 -0.0455  0.3842 -0.6683
  891SOL    MW4 3639   2.919   3.848   1.594  0.3617  0.4165 -0.2289
  892SOL     OW 3640   2.673   3.979   1.489  0.3053 -0.0582 -0.5583
  892SOL    HW2 3641   2.703   4.058   1.534 -1.2063 -0.0265  0.4273
  892SOL    HW3 3642   2.706   3.988   1.400  0.8143  1.3177 -0.2411
  892SOL    MW4 3643   2.681   3.990   1.483  0.1726  0.1276 -0.3862
  893SOL     OW 3644   2.715   4.218   1.612  0.4373 -0.4053 -0.1699
  893SOL    HW2 3645   2.778   4.285   1.585 -0.3057  0.0559 -0.7841
  893SOL    HW3 3646   2.630   4.253   1.584 -0.1726 -0.7051  1.2447
  893SOL    MW4 3647   2.712   4.232   1.605  0.2587 -0.3839 -0.0643
  894SOL     OW 3648   2.928   4.383   1.523  0.0902 -0.5168  0.0466
  894SOL    HW2 3649   2.928   4.471   1.561  0.0990 -0.5867  0.2099
  894SOL    HW3 3650   2.929   4.397   1.429  1.7976 -0.3465  0.0734
  894SOL    MW4 3651   2.928   4.396   1.516  0.3169 -0.5031  0.0718
  895SOL     OW 3652   3.363   4.607   1.628  0.0294  0.0779  0.3864
  895SOL    HW2 3653   3.438   4.655   1.591  0.2063 -0.3224  0.2212
  895SOL    HW3 3654   3.368   4.521   1.587  0.1850 -0.3507  1.2866
  895SOL    MW4 3655   3.374   4.602   1.618  0.0734 -0.0319  0.4835
  896SOL     OW 3656   3.151   0.084   1.519 -0.2495  0.0601 -0.3768
  896SOL    HW2 3657   3.214   0.031   1.568 -2.0049 -1.7849 -0.0589
  896SOL    HW3 3658   3.068   0.036   1.527 -1.8099  2.6969 -0.3695
  896SOL    MW4 3659   3.148   0.070   1.526 -0.6871  0.1646 -0.3339
  897SOL     OW 3660   3.120   0.357   1.583 -0.3884 -0.5503 -0.1781
  897SOL    HW2 3661   3.116   0.264   1.560 -1.6083 -0.7727  0.8839
  897SOL    HW3 3662   3.033   0.391   1.564 -0.1029  0.2588 -0.0632
  897SOL    MW4 3663   3.108   0.349   1.578 -0.5119 -0.4729 -0.0229
  898SOL     OW 3664   3.352   0.483   1.508  0.2106  0.5504 -0.0958
  898SOL    HW2 3665   3.269   0.443   1.534  0.2578  1.3033  1.2537
  898SOL    HW3 3666   3.352   0.478   1.412  0.0053 -2.2332 -0.0017
  898SOL    MW4 3667   3.341   0.477   1.499  0.1898  0.2825  0.0945
  899SOL     OW 3668   3.342   0.762   1.582 -0.4175  0.2170 -0.1677
  899SOL    HW2 3669   3.353   0.759   1.677  0.6378  0.0289 -0.2895
  899SOL    HW3 3670   3.344   0.670   1.555  2.7228  0.3713 -0.7202
  899SOL    MW4 3671   3.344   0.750   1.591  0.1359  0.2126 -0.2565
  900SOL     OW 3672   3.124   0.919   1.463 -0.3755  0.3468  0.0951
  900SOL    HW2 3673   3.202   0.878   1.500 -0.6804  0.7067  1.1500
  900SOL    HW3 3674   3.051   0.867   1.497 -0.5479 -0.6454 -1.7475
  900SOL    MW4 3675   3.125   0.907   1.472 -0.4385  0.2633 -0.0088
  901SOL     OW 3676   3.162   1.182   1.572 -0.2379 -0.0117 -0.1975
  901SOL    HW2 3677   3.143   1.176   1.665 -1.7289  1.3593 -0.3809
  901SOL    HW3 3678   3.158   1.092   1.540 -0.1479 -0.4371  0.9744
  901SOL    MW4 3679   3.159   1.169   1.580 -0.4227  0.1130 -0.0671
  902SOL     OW 3680   3.404   1.270   1.496 -0.0381 -0.2450  0.4249
  902SOL    HW2 3681   3.470   1.220   1.544 -1.2552 -1.7865  0.5254
  902SOL    HW3 3682   3.321   1.240   1.532 -0.8283  1.1832 -0.1824
  902SOL    MW4 3683   3.402   1.259   1.507 -0.3026 -0.2600  0.3580
  903SOL     OW 3684   3.368   1.556   1.572 -0.1773 -0.1238  0.1124
  903SOL    HW2 3685   3.379   1.573   1.665  2.3538 -0.4732 -0.0764
  903SOL    HW3 3686   3.368   1.460   1.565  0.9242 -0.1021 -0.3494
  903SOL    MW4 3687   3.370   1.545   1.583  0.3018 -0.1671  0.0265
  904SOL     OW 3688   3.171   1.690   1.437 -0.2654  0.8246  0.5239
  904SOL    HW2 3689   3.248   1.654   1.482 -0.8693 -2.2720 -0.7785
  904SOL    HW3 3690   3.096   1.651   1.482 -0.9587  0.7080 -0.7109
  904SOL    MW4 3691   3.171   1.680   1.449 -0.4365  0.4007  0.1892
  905SOL     OW 3692   3.172   1.943   1.570  0.5340 -0.0606 -0.4181
  905SOL    HW2 3693   3.174   1.861   1.522 -0.9163  0.0619 -0.7108
  905SOL    HW3 3694   3.089   1.984   1.545  0.6564  0.9026  0.6924
  905SOL    MW4 3695   3.161   1.938   1.561  0.3588  0.0826 -0.3101
  906SOL     OW 3696   3.386   2.071   1.480  0.2049 -0.1358  0.5131
  906SOL    HW2 3697   3.307   2.030   1.516 -0.0283  0.1033  0.2840
  906SOL    HW3 3698   3.368   2.078   1.386  0.2591  0.4533  0.5436
  906SOL    MW4 3699   3.373   2.066   1.472  0.1814 -0.0262  0.4870
  907SOL     OW 3700   3.366   2.320   1.596 -0.1142 -0.0156  0.3762
  907SOL    HW2 3701   3.450   2.355   1.566 -0.2484 -0.8307 -0.9923
  907SOL    HW3 3702   3.362   2.232   1.558 -2.4490  0.7338 -1.2518
  907SOL    MW4 3703   3.376   2.313   1.587 -0.4401 -0.0246 -0.0191
  908SOL     OW 3704   3.153   2.450   1.483 -0.7827 -0.3389 -0.9632
  908SOL    HW2 3705   3.228   2.399   1.514 -0.2290  0.3899 -1.0883
  908SOL    HW3 3706   3.077   2.403   1.517 -0.2807 -1.1878 -0.9816
  908SOL    MW4 3707   3.153   2.437   1.492 -0.6435 -0.3548 -0.9820
  909SOL     OW 3708   3.153   2.690   1.614  0.2858 -0.3172  0.0654
  909SOL    HW2 3709   3.231   2.736   1.583 -0.0545  0.3457  0.1902
  909SOL    HW3 3710   3.157   2.605   1.570  1.5224 -0.6187  0.7062
  909SOL    MW4 3711   3.164   2.684   1.604  0.4044 -0.2692  0.1663
  910SOL     OW 3712   3.374   2.818   1.522  0.1671  0.2331 -0.0983
  910SOL    HW2 3713   3.381   2.909   1.550  0.0523  0.0916  0.3969
  910SOL    HW3 3714   3.395   2.820   1.428  0.7062  0.6863  0.0296
  910SOL    MW4 3715   3.377   2.830   1.513  0.2232  0.2742 -0.0161
  911SOL     OW 3716   3.352   3.058   1.617  0.3365  0.0153  0.0885
  911SOL    HW2 3717   3.353   3.045   1.711 -0.2285 -0.2430  0.0650
  911SOL    HW3 3718   3.427   3.115   1.599 -0.1171  0.8598  0.8102
  911SOL    MW4 3719   3.362   3.064   1.627  0.2017  0.0927  0.1806
  912SOL     OW 3720   3.135   3.206   1.508 -0.3643 -0.1082 -0.1391
  912SOL    HW2 3721   3.214   3.152   1.518  0.9864  1.9166  0.4698
  912SOL    HW3 3722   3.116   3.202   1.414  1.1855  0.3093 -0.4993
  912SOL    MW4 3723   3.143   3.199   1.497  0.0184  0.2141 -0.1062
  913SOL     OW 3724   3.159   3.462   1.632 -0.1158 -0.0149  0.1786
  913SOL    HW2 3725   3.143   3.374   1.597  0.1776 -0.0588  0.1477
  913SOL    HW3 3726   3.109   3.520   1.575 -0.9614 -0.2361  0.6949
  913SOL    MW4 3727   3.150   3.458   1.620 -0.1888 -0.0501  0.2426
  914SOL     OW 3728   3.371   3.597   1.505  0.0073  0.2508  0.2171
  914SOL    HW2 3729   3.453   3.556   1.536  0.1648  0.4587  0.0731
  914SOL    HW3 3730   3.302   3.548   1.550  0.2129  0.1080  0.3799
  914SOL    MW4 3731   3.373   3.585   1.515  0.0551  0.2594  0.2197
  915SOL     OW 3732   3.379   3.843   1.606  0.6695  0.0458  0.2787
  915SOL    HW2 3733   3.308   3.888   1.560  1.0919  0.2928 -0.1346
  915SOL    HW3 3734   3.380   3.755   1.569  0.5315  0.0201  0.3353
  915SOL    MW4 3735   3.370   3.837   1.595  0.7069  0.0749  0.2316
  916SOL     OW 3736   3.165   3.958   1.489 -0.0901  0.2411 -0.1218
  916SOL    HW2 3737   3.172   4.048   1.521 -2.3543 -0.1468  1.5605
  916SOL    HW3 3738   3.090   3.921   1.536  0.0903 -2.1746 -1.6389
  916SOL    MW4 3739   3.156   3.965   1.499 -0.3650 -0.1290 -0.1001
  917SOL     OW 3740   3.162   4.228   1.591 -0.1850  0.1732  0.3070
  917SOL    HW2 3741   3.162   4.241   1.686 -0.6700  0.6138  0.2538
  917SOL    HW3 3742   3.078   4.265   1.562  0.5699  1.3110 -0.4688
  917SOL    MW4 3743   3.151   4.235   1.600 -0.1493  0.3810  0.1978
  918SOL     OW 3744   3.389   4.364   1.505 -0.1663  0.0192  0.0109
  918SOL    HW2 3745   3.311   4.311   1.519 -0.7331  0.7739 -0.2621
  918SOL    HW3 3746   3.390   4.381   1.410 -0.0067  0.5099  0.0983
  918SOL    MW4 3747   3.379   4.359   1.494 -0.2198  0.1831 -0.0137
  919SOL     OW 3748   3.803   4.627   1.565 -0.5878  0.2092 -0.2179
  919SOL    HW2 3749   3.813   4.619   1.660 -1.3137  1.0883 -0.0640
  919SOL    HW3 3750   3.884   4.668   1.536  0.1385 -1.1304 -0.1361
  919SOL    MW4 3751   3.815   4.631   1.574 -0.5877  0.1483 -0.1868
  920SOL     OW 3752   3.553   0.083   1.508  0.2115  0.1452  0.2289
  920SOL    HW2 3753   3.626   0.029   1.537  0.6646  0.8855  0.5081
  920SOL    HW3 3754   3.574   0.107   1.418  1.2476  1.8713  0.8989
  920SOL    MW4 3755   3.565   0.079   1.500  0.4079  0.4706  0.3543
  921SOL     OW 3756   3.571   0.330   1.602  0.2837 -0.3696 -0.3019
  921SOL    HW2 3757   3.547   0.239   1.582  0.9362 -0.4112 -0.9540
  921SOL    HW3 3758   3.497   0.382   1.571 -0.0510 -0.6773 -0.0148
  921SOL    MW4 3759   3.558   0.325   1.595  0.3257 -0.4157 -0.3502
  922SOL     OW 3760   3.799   0.461   1.505 -0.1742 -0.1037  0.1173
  922SOL    HW2 3761   3.728   0.421   1.555  0.0988  0.2932  0.8299
  922SOL    HW3 3762   3.768   0.460   1.415 -0.1834 -1.9333  0.1058
  922SOL    MW4 3763   3.786   0.455   1.500 -0.1395 -0.2927  0.2097
  923SOL     OW 3764   3.808   0.740   1.603 -0.0217  0.0690  0.1351
  923SOL    HW2 3765   3.725   0.761   1.559 -0.5629  0.5892  1.3825
  923SOL    HW3 3766   3.822   0.648   1.584 -0.4993  0.1571 -0.7150
  923SOL    MW4 3767   3.799   0.731   1.594 -0.1559  0.1493  0.1875
  924SOL     OW 3768   3.584   0.881   1.489  0.1104 -0.2827  0.2416
  924SOL    HW2 3769   3.502   0.846   1.523 -0.3219  0.3351 -0.1494
  924SOL    HW3 3770   3.566   0.898   1.396  0.9175 -0.8729 -0.0234
  924SOL    MW4 3771   3.571   0.879   1.481  0.1600 -0.2790  0.1550
  925SOL     OW 3772   3.612   1.144   1.608 -0.1688  0.2143 -0.1158
  925SOL    HW2 3773   3.672   1.194   1.552  0.1372 -0.1063 -0.0693
  925SOL    HW3 3774   3.616   1.055   1.574  0.7930 -0.1954  1.0684
  925SOL    MW4 3775   3.620   1.139   1.596 -0.0017  0.1179  0.0465
  926SOL     OW 3776   3.854   1.295   1.445  0.0413 -0.1746 -0.1291
  926SOL    HW2 3777   3.922   1.235   1.477  1.4856  0.8475 -1.1960
  926SOL    HW3 3778   3.865   1.374   1.498  0.6190  0.5090 -1.2601
  926SOL    MW4 3779   3.865   1.297   1.456  0.3080  0.0504 -0.4193
  927SOL     OW 3780   3.864   1.553   1.563 -0.0646  0.4282 -0.0457
  927SOL    HW2 3781   3.870   1.567   1.657 -0.7333 -1.4236  0.2988
  927SOL    HW3 3782   3.774   1.578   1.541 -0.6742 -1.4297  0.2495
  927SOL    MW4 3783   3.853   1.558   1.572 -0.2332 -0.0614  0.0387
  928SOL     OW 3784   3.600   1.652   1.496  0.1825 -0.5711  0.2400
  928SOL    HW2 3785   3.521   1.610   1.529 -0.3305  0.9730  1.0024
  928SOL    HW3 3786   3.587   1.659   1.401 -0.8152  0.1482  0.4310
  928SOL    MW4 3787   3.588   1.647   1.488 -0.0169 -0.2725  0.3659
  929SOL     OW 3788   3.599   1.937   1.601  0.0080 -0.2304 -0.0754
  929SOL    HW2 3789   3.575   1.853   1.562  0.5501  0.3226 -1.6247
  929SOL    HW3 3790   3.528   1.997   1.576 -0.1235 -0.1001  0.5987
  929SOL    MW4 3791   3.586   1.934   1.593  0.0620 -0.1404 -0.1907
  930SOL     OW 3792   3.840   2.050   1.494 -0.1901  0.4326 -0.4131
  930SOL    HW2 3793   3.850   2.133   1.540  0.5006  0.0463  0.1441
  930SOL    HW3 3794   3.763   2.010   1.533  0.5343 -0.0029  0.5854
  930SOL    MW4 3795   3.831   2.056   1.505 -0.0031  0.3242 -0.2078
  931SOL     OW 3796   3.860   2.309   1.600  0.4183 -0.4098 -0.0182
  931SOL    HW2 3797   3.877   2.324   1.693 -0.3305  0.6430 -0.0392
  931SOL    HW3 3798   3.933   2.353   1.556  0.6511 -0.7159  0.0537
  931SOL    MW4 3799   3.872   2.317   1.607  0.3505 -0.3116 -0.0114
  932SOL     OW 3800   3.610   2.397   1.510  0.2119  0.1474  0.2443
  932SOL    HW2 3801   3.603   2.482   1.555 -0.5871  0.2246 -0.0199
  932SOL    HW3 3802   3.691   2.359   1.543  1.5629  1.8523 -1.0714
  932SOL    MW4 3803   3.619   2.403   1.521  0.2849  0.3827  0.0358
  933SOL     OW 3804   3.577   2.665   1.618  0.5229 -0.2170  0.6426
  933SOL    HW2 3805   3.568   2.675   1.713  0.9279 -1.4095  0.8120
  933SOL    HW3 3806   3.496   2.700   1.582  0.2558 -0.0034  1.4440
  933SOL    MW4 3807   3.565   2.671   1.626  0.5412 -0.3462  0.7707
  934SOL     OW 3808   3.767   2.816   1.475 -0.2067  0.4584  0.1842
  934SOL    HW2 3809   3.842   2.768   1.511  0.5101  2.2644  1.1825
  934SOL    HW3 3810   3.691   2.778   1.519  0.4691  1.0552  1.9486
  934SOL    MW4 3811   3.767   2.805   1.486 -0.0231  0.7753  0.5486
  935SOL     OW 3812   3.797   3.055   1.627  0.3848  0.7053  0.6486
  935SOL    HW2 3813   3.872   3.103   1.593 -2.3333  3.5338 -1.6746
  935SOL    HW3 3814   3.788   2.981   1.567 -0.1218  1.7354 -0.5728
  935SOL    MW4 3815   3.806   3.051   1.614 -0.0408  1.2143  0.1810
  936SOL     OW 3816   3.579   3.209   1.564  0.4785 -0.5270  0.3775
  936SOL    HW2 3817   3.658   3.161   1.591  0.6275 -0.3017  0.3452
  936SOL    HW3 3818   3.594   3.229   1.472  0.9540  0.6295  0.7002
  936SOL    MW4 3819   3.592   3.205   1.556  0.5608 -0.3450  0.4159
  937SOL     OW 3820   3.601   3.499   1.615 -0.0510 -0.3292  0.0316
  937SOL    HW2 3821   3.682   3.533   1.578  0.8595 -0.2970  1.9940
  937SOL    HW3 3822   3.610   3.404   1.611 -0.9172 -0.3493 -1.8523
  937SOL    MW4 3823   3.613   3.491   1.610 -0.0451 -0.3276  0.0418
  938SOL     OW 3824   3.823   3.603   1.502 -0.0428 -0.3962 -0.2399
  938SOL    HW2 3825   3.896   3.563   1.549 -0.9030 -0.1530  1.3469
  938SOL    HW3 3826   3.815   3.691   1.540  1.3958  1.1181 -3.2200
  938SOL    MW4 3827   3.832   3.609   1.513  0.0336 -0.1647 -0.4238
  939SOL     OW 3828   3.797   3.871   1.579  0.4206 -0.2023  0.0558
  939SOL    HW2 3829   3.877   3.917   1.554  0.7115 -0.6708  0.1085
  939SOL    HW3 3830   3.729   3.907   1.523  0.3018  1.4827  1.2499
  939SOL    MW4 3831   3.799   3.882   1.569  0.4435 -0.0420  0.2202
  940SOL     OW 3832   3.585   4.008   1.469 -0.4540  0.0457  1.1956
  940SOL    HW2 3833   3.600   4.091   1.513 -1.8232  0.8082  0.2442
  940SOL    HW3 3834   3.515   3.966   1.520 -0.4811 -0.0592  1.0727
  940SOL    MW4 3835   3.577   4.013   1.482 -0.6380  0.1326  1.0538
  941SOL     OW 3836   3.620   4.238   1.605  0.2710  0.3965  0.2766
  941SOL    HW2 3837   3.610   4.236   1.701  1.7824  1.4374  0.4612
  941SOL    HW3 3838   3.542   4.283   1.574 -0.1572  0.1869  1.0228
  941SOL    MW4 3839   3.608   4.244   1.614  0.4141  0.5064  0.3994
  942SOL     OW 3840   3.833   4.364   1.482  0.0578  0.1151 -0.2566
  942SOL    HW2 3841   3.765   4.309   1.522 -0.8448 -0.0917 -2.0510
  942SOL    HW3 3842   3.811   4.453   1.510  0.3295 -0.1935  0.9633
  942SOL    MW4 3843   3.821   4.369   1.491 -0.0255  0.0463 -0.3324
  943SOL     OW 3844   4.286   0.018   1.588  0.0886  0.0490  0.0723
  943SOL    HW2 3845   4.301   0.005   1.682  1.4757 -0.3788 -0.2078
  943SOL    HW3 3846   4.304  -0.066   1.548  1.9270  0.8612 -0.8663
  943SOL    MW4 3847   4.290   0.005   1.595  0.5140  0.0997 -0.0885
  944SOL     OW 3848   4.047   0.096   1.448  0.3319 -0.3551 -0.1178
  944SOL    HW2 3849   4.022   0.183   1.479  0.9195 -0.5366  0.8768
  944SOL    HW3 3850   4.131   0.078   1.491  0.2821 -1.3588 -0.4222
  944SOL    MW4 3851   4.055   0.105   1.458  0.4020 -0.5115 -0.0267
  945SOL     OW 3852   4.045   0.357   1.551  0.1455  0.2381  0.5233
  945SOL    HW2 3853   4.048   0.356   1.647 -1.5659 -2.3940  0.6197
  945SOL    HW3 3854   3.965   0.405   1.530  0.6136  0.9648  0.4198
  945SOL    MW4 3855   4.035   0.363   1.561 -0.0181 -0.0134  0.5225
  946SOL     OW 3856   4.278   0.539   1.514 -0.3272 -0.9245 -0.2850
  946SOL    HW2 3857   4.201   0.482   1.517 -0.4415 -0.7905 -0.7128
  946SOL    HW3 3858   4.351   0.481   1.535 -0.4016 -1.3010 -1.0623
  946SOL    MW4 3859   4.277   0.524   1.517 -0.3519 -0.9565 -0.4439
  947SOL     OW 3860   4.248   0.812   1.639  0.5350  0.5008 -0.3840
  947SOL    HW2 3861   4.242   0.724   1.602 -0.2671  0.9088 -1.2536
  947SOL    HW3 3862   4.327   0.849   1.600 -0.3260  0.9408 -1.7476
  947SOL    MW4 3863   4.257   0.805   1.629  0.3152  0.6126 -0.6787
  948SOL     OW 3864   4.016   0.895   1.519  0.5492 -0.0770 -0.0141
  948SOL    HW2 3865   4.098   0.874   1.564  0.9686 -2.2359 -1.7082
  948SOL    HW3 3866   3.949   0.846   1.567  0.3122  1.3269  1.0939
  948SOL    MW4 3867   4.018   0.885   1.531  0.5727 -0.1767 -0.0914
  949SOL     OW 3868   4.073   1.149   1.590  0.2581 -0.4263 -0.1346
  949SOL    HW2 3869   4.076   1.146   1.685 -0.1564  0.8037 -0.0620
  949SOL    HW3 3870   4.046   1.061   1.563 -0.3632 -0.5649  0.9187
  949SOL    MW4 3871   4.070   1.137   1.599  0.1216 -0.2823  0.0138
  950SOL     OW 3872   4.298   1.273   1.468 -0.1503 -0.2864  0.1733
  950SOL    HW2 3873   4.229   1.216   1.504 -0.0194 -1.1787 -0.9577
  950SOL    HW3 3874   4.376   1.253   1.520  0.0057 -1.4783 -0.5086
  950SOL    MW4 3875   4.299   1.263   1.480 -0.1125 -0.5615 -0.0659
  951SOL     OW 3876   4.303   1.519   1.601 -0.1856  0.1746  0.2408
  951SOL    HW2 3877   4.297   1.435   1.556 -2.7746  0.3144  0.2656
  951SOL    HW3 3878   4.376   1.564   1.559 -0.5109 -0.9882 -1.6218
  951SOL    MW4 3879   4.312   1.514   1.590 -0.5703  0.0395 -0.0018
  952SOL     OW 3880   4.088   1.625   1.422  0.2808  0.2134 -0.2363
  952SOL    HW2 3881   4.159   1.597   1.480  0.5962  0.3175 -0.5678
  952SOL    HW3 3882   4.008   1.598   1.466  0.4433  1.8678  1.1255
  952SOL    MW4 3883   4.087   1.618   1.435  0.3438  0.4454 -0.1004
  953SOL     OW 3884   4.087   1.955   1.401 -0.3487 -0.2466  0.5218
  953SOL    HW2 3885   4.095   1.860   1.412 -0.0096 -0.0177  2.4456
  953SOL    HW3 3886   4.001   1.977   1.437 -0.1240  0.2731  0.7508
  953SOL    MW4 3887   4.077   1.946   1.407 -0.2742 -0.1478  0.8059
  954SOL     OW 3888   4.202   2.045   1.618 -0.2241  0.4375  0.0847
  954SOL    HW2 3889   4.151   2.014   1.692 -0.3447 -0.4007 -0.3471
  954SOL    HW3 3890   4.159   2.007   1.541  0.8702 -0.0447 -0.3022
  954SOL    MW4 3891   4.190   2.036   1.617 -0.0954  0.2632 -0.0232
  955SOL     OW 3892   4.284   2.318   1.624 -0.2331  0.0529 -0.5140
  955SOL    HW2 3893   4.287   2.341   1.717  0.4604 -0.7866 -0.3246
  955SOL    HW3 3894   4.245   2.231   1.622 -1.8725  0.7843 -1.1493
  955SOL    MW4 3895   4.279   2.310   1.636 -0.3581  0.0384 -0.5729
  956SOL     OW 3896   4.065   2.464   1.475  0.0879 -0.2373 -0.0043
  956SOL    HW2 3897   4.058   2.539   1.534  0.2951  0.7465 -1.1985
  956SOL    HW3 3898   4.133   2.409   1.513 -1.1421 -0.5867  1.7113
  956SOL    MW4 3899   4.073   2.467   1.487 -0.0472 -0.1535  0.0645
  957SOL     OW 3900   4.007   2.716   1.616  0.0597  0.6764  0.1010
  957SOL    HW2 3901   4.012   2.708   1.712 -0.4292 -0.5630  0.0398
  957SOL    HW3 3902   4.083   2.767   1.592  0.7590  0.1084  1.0711
  957SOL    MW4 3903   4.017   2.722   1.626  0.0882  0.4380  0.2209
  958SOL     OW 3904   4.239   2.852   1.521 -0.1542 -0.3518  0.1641
  958SOL    HW2 3905   4.253   2.944   1.542  1.9545 -0.5764 -0.2195
  958SOL    HW3 3906   4.247   2.847   1.426 -1.4863 -0.7430  0.0541
  958SOL    MW4 3907   4.242   2.863   1.511 -0.0520 -0.4330  0.0989
  959SOL     OW 3908   4.275   3.119   1.586 -0.1080 -0.1215  0.0885
  959SOL    HW2 3909   4.283   3.123   1.681  0.4379  1.9237 -0.0211
  959SOL    HW3 3910   4.347   3.173   1.553  0.6859 -2.0945 -1.5361
  959SOL    MW4 3911   4.285   3.127   1.594  0.0691 -0.1121 -0.1403
  960SOL     OW 3912   4.024   3.209   1.517  0.0042 -0.6377  0.1457
  960SOL    HW2 3913   4.025   3.295   1.558 -0.4477 -0.5572 -0.0087
  960SOL    HW3 3914   4.109   3.171   1.538  0.4239  0.0698 -0.2658
  960SOL    MW4 3915   4.035   3.215   1.525  0.0005 -0.5336  0.0710
  961SOL     OW 3916   4.033   3.466   1.593 -0.0500  0.1903 -0.4263
  961SOL    HW2 3917   4.048   3.456   1.687  0.8499  0.3904 -0.5371
  961SOL    HW3 3918   4.114   3.507   1.561  0.3342 -1.4155 -1.5620
  961SOL    MW4 3919   4.046   3.470   1.601  0.1192  0.0050 -0.5908
  962SOL     OW 3920   4.278   3.606   1.544  0.4209  0.0911 -0.4040
  962SOL    HW2 3921   4.267   3.701   1.549  0.4771  0.0291  1.3212
  962SOL    HW3 3922   4.293   3.588   1.451  0.7611  1.8032 -0.6954
  962SOL    MW4 3923   4.279   3.616   1.533  0.4735  0.3085 -0.2148
  963SOL     OW 3924   4.265   3.891   1.566  0.4952 -0.1506  0.3107
  963SOL    HW2 3925   4.194   3.939   1.525  0.2686 -1.1987 -0.5364
  963SOL    HW3 3926   4.345   3.928   1.527  0.3244 -0.3763 -0.2606
  963SOL    MW4 3927   4.266   3.902   1.555  0.4425 -0.3185  0.1235
  964SOL     OW 3928   4.031   4.023   1.486 -0.0789 -0.3679  0.3207
  964SOL    HW2 3929   4.048   4.112   1.517 -0.0586 -0.7273  1.3646
  964SOL    HW3 3930   4.047   4.027   1.392 -1.9412  1.1891  0.0419
  964SOL    MW4 3931   4.035   4.035   1.478 -0.3219 -0.2098  0.4218
  965SOL     OW 3932   4.089   4.279   1.570  0.3468 -0.5006 -0.1120
  965SOL    HW2 3933   4.089   4.286   1.665  0.8158 -0.3514 -0.1249
  965SOL    HW3 3934   4.009   4.324   1.542  0.5327 -0.0038  0.1676
  965SOL    MW4 3935   4.078   4.286   1.579  0.4334 -0.4158 -0.0769
  966SOL     OW 3936   4.310   4.417   1.484 -0.7497  0.3770  0.1148
  966SOL    HW2 3937   4.230   4.379   1.521 -1.2179  0.9632 -0.2686
  966SOL    HW3 3938   4.293   4.417   1.389 -0.7079  1.4159  0.1023
  966SOL    MW4 3939   4.297   4.412   1.476 -0.8059  0.5913  0.0625
  967SOL     OW 3940   0.219   4.611   1.882 -0.4455  0.6124  0.3046
  967SOL    HW2 3941   0.289   4.668   1.912 -0.2094  0.4552  0.0475
  967SOL    HW3 3942   0.213   4.627   1.787 -0.8221  0.7003  0.3401
  967SOL    MW4 3943   0.227   4.621   1.873 -0.4640  0.6037  0.2754
  968SOL     OW 3944   4.468   0.089   1.965  0.3762  0.2905  0.2880
  968SOL    HW2 3945   4.474   0.182   1.942  0.5404 -0.3428 -2.3651
  968SOL    HW3 3946   4.551   0.051   1.937 -0.8662 -1.2142 -1.4609
  968SOL    MW4 3947   4.479   0.097   1.959  0.2339  0.0084 -0.2928
  969SOL     OW 3948   0.031   0.359   1.883  0.4674 -0.1744  0.3866
  969SOL    HW2 3949  -0.047   0.412   1.899  0.7935  0.2749  0.4924
  969SOL    HW3 3950   0.104   0.412   1.915  0.8763 -0.3578 -0.2217
  969SOL    MW4 3951   0.030   0.373   1.890  0.5644 -0.1393  0.3204
  970SOL     OW 3952   0.225   0.536   2.001 -0.1850  0.0723  0.0451
  970SOL    HW2 3953   0.301   0.483   1.977 -0.8201 -0.4030 -0.9849
  970SOL    HW3 3954   0.239   0.619   1.955 -0.5456 -0.2144 -0.5992
  970SOL    MW4 3955   0.237   0.540   1.992 -0.3164 -0.0283 -0.1757
  971SOL     OW 3956   0.252   0.790   1.882 -0.1415  0.0397  0.4418
  971SOL    HW2 3957   0.337   0.828   1.901  0.4335 -0.8919 -0.2369
  971SOL    HW3 3958   0.251   0.778   1.787 -1.5104  1.1837  0.2992
  971SOL    MW4 3959   0.263   0.793   1.872 -0.2462  0.0677  0.3334
  972SOL     OW 3960   0.022   0.947   1.949 -0.1201  0.3884 -0.2133
  972SOL    HW2 3961  -0.055   0.893   1.936 -0.1162  0.2060  0.5078
  972SOL    HW3 3962   0.096   0.891   1.926 -0.2232  0.7911 -1.6262
  972SOL    MW4 3963   0.022   0.933   1.944 -0.1332  0.4174 -0.3046
  973SOL     OW 3964   4.484   1.205   1.863 -0.3128 -0.0575 -0.2323
  973SOL    HW2 3965   4.414   1.247   1.913  0.9050  0.4969  1.0315
  973SOL    HW3 3966   4.490   1.117   1.900  1.1318  0.6117  1.1931
  973SOL    MW4 3967   4.476   1.199   1.875  0.0385  0.1040  0.1225
  974SOL     OW 3968   0.238   1.295   1.969  0.0358 -0.2871 -0.8952
  974SOL    HW2 3969   0.224   1.387   1.946 -1.3338  0.3359  2.0902
  974SOL    HW3 3970   0.160   1.250   1.937 -0.1193 -0.0776 -0.8149
  974SOL    MW4 3971   0.226   1.302   1.962 -0.1654 -0.1773 -0.4907
  975SOL     OW 3972   0.221   1.554   1.862  0.0192  0.1195 -0.0633
  975SOL    HW2 3973   0.291   1.601   1.907  1.1354 -1.3021 -0.2821
  975SOL    HW3 3974   0.140   1.590   1.899  0.8959 -0.5974  2.6677
  975SOL    MW4 3975   0.220   1.565   1.873  0.2822 -0.1626  0.2681
  976SOL     OW 3976   0.007   1.705   1.973  0.7618 -0.0233  0.3392
  976SOL    HW2 3977  -0.007   1.696   2.067 -1.7646  2.6179  0.2761
  976SOL    HW3 3978  -0.069   1.662   1.933  1.0666  0.1708 -0.4766
  976SOL    MW4 3979  -0.005   1.698   1.980  0.4692  0.3507  0.2232
  977SOL     OW 3980   0.024   1.974   1.886 -0.1774  0.7479  0.2603
  977SOL    HW2 3981  -0.066   2.003   1.901 -0.2915  0.1569  0.7551
  977SOL    HW3 3982   0.027   1.886   1.922  0.8176  1.0588  0.9727
  977SOL    MW4 3983   0.013   1.966   1.892 -0.0611  0.7107  0.4195
  978SOL     OW 3984   0.236   2.100   2.021 -0.2355 -0.1235 -0.5890
  978SOL    HW2 3985   0.235   2.182   1.971  0.7368 -0.3279 -0.9687
  978SOL    HW3 3986   0.154   2.057   1.999 -0.3867  0.3843 -1.0227
  978SOL    MW4 3987   0.225   2.105   2.011 -0.1272 -0.0837 -0.6962
  979SOL     OW 3988   0.218   2.348   1.877 -0.2981  0.1625  0.4404
  979SOL    HW2 3989   0.292   2.403   1.904 -0.4048  0.6133 -0.1598
  979SOL    HW3 3990   0.143   2.385   1.923 -0.9475  2.5613 -2.3713
  979SOL    MW4 3991   0.218   2.360   1.886 -0.3979  0.5383 -0.0099
  980SOL     OW 3992   0.013   2.472   2.045 -0.1307 -0.2588 -0.2305
  980SOL    HW2 3993  -0.022   2.471   2.134  0.3976 -0.7977 -0.0259
  980SOL    HW3 3994   0.014   2.564   2.020  0.5311 -0.0289  0.6373
  980SOL    MW4 3995   0.008   2.484   2.053  0.0264 -0.2995 -0.0889
  981SOL     OW 3996   4.480   2.720   1.897 -0.1903  0.0415  0.1033
  981SOL    HW2 3997   4.401   2.768   1.918 -0.6990  0.0148 -1.6922
  981SOL    HW3 3998   4.484   2.720   1.802  1.0423 -1.4520  0.1300
  981SOL    MW4 3999   4.470   2.726   1.887 -0.0949 -0.1590 -0.1302
  982SOL     OW 4000   0.234   2.868   1.960 -0.3149 -0.1905 -0.0315
  982SOL    HW2 4001   0.216   2.961   1.942  1.2458  0.1613  0.1619
  982SOL    HW3 4002   0.152   2.824   1.939 -1.2791  1.3051  0.4338
  982SOL    MW4 4003   0.221   2.875   1.955 -0.2362  0.0529  0.0554
  983SOL     OW 4004   0.214   3.146   1.877  0.0643  0.0213  0.1185
  983SOL    HW2 4005   0.298   3.178   1.909  1.0202 -1.8409 -0.4463
  983SOL    HW3 4006   0.232   3.117   1.787 -1.4624  0.7303 -0.4374
  983SOL    MW4 4007   0.228   3.146   1.869 -0.0110 -0.1309 -0.0292
  984SOL     OW 4008   4.465   3.272   1.980 -0.4014  0.2840 -0.2048
  984SOL    HW2 4009   4.392   3.229   1.934 -0.0397  1.4150 -1.9118
  984SOL    HW3 4010   4.543   3.229   1.945 -0.1723  0.3623  0.2173
  984SOL    MW4 4011   4.466   3.261   1.969 -0.3233  0.4435 -0.3743
  985SOL     OW 4012   4.469   3.547   1.935  0.0383  0.4738  0.0515
  985SOL    HW2 4013   4.555   3.585   1.951  0.5839 -0.8299  0.3120
  985SOL    HW3 4014   4.478   3.455   1.961 -1.8530  0.6700  1.4794
  985SOL    MW4 4015   4.482   3.540   1.940 -0.1388  0.3278  0.2741
  986SOL     OW 4016   0.226   3.647   1.986 -0.4870  0.1430  0.0029
  986SOL    HW2 4017   0.220   3.651   2.082  0.8273  1.6746  0.0516
  986SOL    HW3 4018   0.292   3.579   1.970 -1.9758 -1.3423  0.1226
  986SOL    MW4 4019   0.234   3.639   1.997 -0.5100  0.1490  0.0253
  987SOL     OW 4020   0.236   3.904   1.858  0.0468 -0.2397  0.3247
  987SOL    HW2 4021   0.303   3.948   1.910 -0.1977  0.3244  0.1609
  987SOL    HW3 4022   0.235   3.814   1.891  1.6433 -0.5441 -0.3864
  987SOL    MW4 4023   0.245   3.898   1.869  0.2252 -0.2053  0.2093
  988SOL     OW 4024   4.479   3.983   1.974 -0.0923 -0.1587 -0.1808
  988SOL    HW2 4025   4.463   4.076   1.954 -0.0945 -0.0369  0.3833
  988SOL    HW3 4026   4.566   3.966   1.938  0.3553  0.3446  0.6473
  988SOL    MW4 4027   4.488   3.993   1.966 -0.0334 -0.0763  0.0029
  989SOL     OW 4028   0.001   4.252   1.901 -0.2601 -0.2615 -0.0210
  989SOL    HW2 4029  -0.067   4.307   1.941 -0.4006  0.1881 -0.8606
  989SOL    HW3 4030   0.082   4.281   1.942 -0.3626  0.4239 -0.2990
  989SOL    MW4 4031   0.002   4.263   1.912 -0.2921 -0.1121 -0.1684
  990SOL     OW 4032   0.224   4.356   1.996  0.1042  0.4876 -0.2671
  990SOL    HW2 4033   0.226   4.357   2.092  0.7548 -0.5608 -0.2609
  990SOL    HW3 4034   0.230   4.448   1.971  1.0929  0.6914  0.6873
  990SOL    MW4 4035   0.225   4.368   2.005  0.3205  0.3762 -0.1402
  991SOL     OW 4036   0.687   4.637   1.882 -0.0552  0.0468 -0.3370
  991SOL    HW2 4037   0.657   4.557   1.925  0.9584 -0.2903 -0.2450
  991SOL    HW3 4038   0.699   4.613   1.791  0.5013  0.0181 -0.2599
  991SOL    MW4 4039   0.685   4.623   1.876  0.1520 -0.0014 -0.3147
  992SOL     OW 4040   0.450   0.091   1.946 -0.1243 -0.0447  0.3018
  992SOL    HW2 4041   0.461   0.183   1.921  1.7840  0.1922  1.8621
  992SOL    HW3 4042   0.539   0.056   1.947 -0.8841 -2.0448 -0.7331
  992SOL    MW4 4043   0.463   0.098   1.943  0.0273 -0.2773  0.3711
  993SOL     OW 4044   0.443   0.381   1.915  0.0363  0.2527 -0.1106
  993SOL    HW2 4045   0.516   0.436   1.942 -1.0543  0.7484  1.8736
  993SOL    HW3 4046   0.456   0.370   1.820  3.1865 -0.4497  0.3153
  993SOL    MW4 4047   0.455   0.387   1.906  0.3080  0.2254  0.2074
  994SOL     OW 4048   0.680   0.516   1.997 -0.6863  0.0468 -0.1662
  994SOL    HW2 4049   0.679   0.515   2.093  1.5657 -0.7247 -0.1055
  994SOL    HW3 4050   0.759   0.467   1.974  0.0779  2.2080 -2.3742
  994SOL    MW4 4051   0.691   0.510   2.007 -0.2883  0.2301 -0.4497
  995SOL     OW 4052   0.705   0.767   1.874  0.0344  0.4540  0.2856
  995SOL    HW2 4053   0.782   0.809   1.911 -0.6076  1.5868  0.3677
  995SOL    HW3 4054   0.700   0.683   1.919  1.4390  0.1947 -0.0169
  995SOL    MW4 4055   0.714   0.762   1.885  0.1349  0.5692  0.2565
  996SOL     OW 4056   0.480   0.919   1.952  0.3129  0.2242  0.0196
  996SOL    HW2 4057   0.490   1.013   1.940  1.0553  0.4155  1.9189
  996SOL    HW3 4058   0.558   0.881   1.911 -1.2551  0.2028 -3.0796
  996SOL    MW4 4059   0.492   0.926   1.945  0.2040  0.2466 -0.1386
  997SOL     OW 4060   0.485   1.206   1.883 -0.4144  0.1404 -0.2527
  997SOL    HW2 4061   0.401   1.250   1.895 -0.0440  1.3088 -1.8599
  997SOL    HW3 4062   0.483   1.176   1.792  0.5084 -0.6936  0.0004
  997SOL    MW4 4063   0.473   1.207   1.873 -0.2438  0.1847 -0.4313
  998SOL     OW 4064   0.730   1.287   1.977  0.5607 -0.1427 -0.2676
  998SOL    HW2 4065   0.714   1.310   2.068  0.1307  1.7372 -0.7982
  998SOL    HW3 4066   0.650   1.244   1.948  0.2778  0.2387 -0.0585
  998SOL    MW4 4067   0.718   1.285   1.985  0.4667  0.1557 -0.3102
  999SOL     OW 4068   0.716   1.550   1.858  0.3352  0.1416  0.4061
  999SOL    HW2 4069   0.726   1.459   1.885  0.1625 -0.1007 -0.3464
  999SOL    HW3 4070   0.687   1.545   1.767  0.8032  0.9597  0.2131
  999SOL    MW4 4071   0.713   1.537   1.850  0.3741  0.2174  0.2815
 1000SOL     OW 4072   0.438   1.702   1.947 -0.3188  0.4269  0.3136
 1000SOL    HW2 4073   0.441   1.684   2.041 -1.5848 -1.0581  0.0784
 1000SOL    HW3 4074   0.516   1.658   1.912  0.3881  1.3389  0.7030
 1000SOL    MW4 4075   0.449   1.694   1.955 -0.3926  0.3512  0.3339
 1001SOL     OW 4076   0.431   1.980   1.878 -0.0830 -0.4710 -0.6701
 1001SOL    HW2 4077   0.436   1.887   1.901 -1.4515 -0.7780 -1.5645
 1001SOL    HW3 4078   0.364   2.015   1.936 -0.8925 -0.4396 -1.6332
 1001SOL    MW4 4079   0.423   1.972   1.889 -0.3703 -0.5072 -0.9153
 1002SOL     OW 4080   0.673   2.122   2.006  0.1583 -0.1140  0.4352
 1002SOL    HW2 4081   0.679   2.115   2.102 -1.0825  0.3573  0.5596
 1002SOL    HW3 4082   0.591   2.077   1.984  0.9546 -1.1373 -0.5227
 1002SOL    MW4 4083   0.663   2.115   2.016  0.0996 -0.1869  0.3252
 1003SOL     OW 4084   0.653   2.368   1.878  0.2843  0.5016 -0.7391
 1003SOL    HW2 4085   0.662   2.279   1.913  2.9700  1.3421  0.8829
 1003SOL    HW3 4086   0.649   2.356   1.783 -4.4817 -1.6420 -0.4395
 1003SOL    MW4 4087   0.654   2.354   1.870  0.0098  0.3295 -0.4855
 1004SOL     OW 4088   0.413   2.511   1.965 -0.3298  0.1917  0.2838
 1004SOL    HW2 4089   0.427   2.515   2.060 -0.1958  0.7155  0.2425
 1004SOL    HW3 4090   0.493   2.472   1.931 -0.5857 -0.4696  0.4356
 1004SOL    MW4 4091   0.425   2.506   1.973 -0.3459  0.1736  0.2984
 1005SOL     OW 4092   0.462   2.757   1.864  0.0351 -0.4004  0.0380
 1005SOL    HW2 4093   0.455   2.663   1.879 -0.5590 -0.3931 -0.1819
 1005SOL    HW3 4094   0.383   2.794   1.904  0.0320 -0.0453 -0.2936
 1005SOL    MW4 4095   0.451   2.750   1.871 -0.0437 -0.3524 -0.0348
 1006SOL     OW 4096   0.698   2.826   1.975  0.3303  0.6362  0.0080
 1006SOL    HW2 4097   0.691   2.831   2.070  1.1557 -1.4215  0.2078
 1006SOL    HW3 4098   0.611   2.798   1.946  0.8107 -1.4286  0.4308
 1006SOL    MW4 4099   0.685   2.823   1.984  0.5026  0.0923  0.0902
 1007SOL     OW 4100   0.696   3.091   1.894 -0.1985 -0.6336  0.2959
 1007SOL    HW2 4101   0.705   3.002   1.928  0.3964 -1.0996 -1.0742
 1007SOL    HW3 4102   0.688   3.081   1.800 -3.1670  0.5862  0.3515
 1007SOL    MW4 4103   0.696   3.078   1.886 -0.5116 -0.5341  0.1223
 1008SOL     OW 4104   0.477   3.212   1.991  0.4948 -0.0247  0.3293
 1008SOL    HW2 4105   0.494   3.300   1.956  0.8226  0.0284  0.6241
 1008SOL    HW3 4106   0.542   3.156   1.949 -0.4976 -0.3538 -0.8024
 1008SOL    MW4 4107   0.487   3.217   1.981  0.4071 -0.0610  0.2191
 1009SOL     OW 4108   0.426   3.482   1.925 -0.5014 -0.0745  0.3038
 1009SOL    HW2 4109   0.479   3.536   1.984  0.3683  0.6509 -1.1311
 1009SOL    HW3 4110   0.447   3.514   1.837 -1.6296 -1.2865 -0.4214
 1009SOL    MW4 4111   0.436   3.493   1.921 -0.5355 -0.1385  0.0190
 1010SOL     OW 4112   0.616   3.643   2.038 -0.0054  0.3398 -0.5465
 1010SOL    HW2 4113   0.686   3.598   1.990  0.1728 -0.8576  0.7948
 1010SOL    HW3 4114   0.614   3.731   2.000 -0.8451 -0.9626 -3.7367
 1010SOL    MW4 4115   0.625   3.648   2.027 -0.0927  0.0098 -0.7904
 1011SOL     OW 4116   0.647   3.884   1.928 -0.3320 -0.4439  0.2254
 1011SOL    HW2 4117   0.731   3.920   1.954  0.4513 -2.2649  0.2776
 1011SOL    HW3 4118   0.644   3.895   1.833 -0.2051 -0.0254  0.2715
 1011SOL    MW4 4119   0.657   3.890   1.919 -0.2119 -0.6289  0.2383
 1012SOL     OW 4120   0.420   3.998   2.035  0.5818 -0.4486  0.0072
 1012SOL    HW2 4121   0.428   4.082   1.992 -0.9910  0.4349  1.3783
 1012SOL    HW3 4122   0.490   3.944   1.997 -0.0697  0.6270 -2.7809
 1012SOL    MW4 4123   0.430   4.002   2.025  0.2883 -0.1898 -0.1795
 1013SOL     OW 4124   0.463   4.262   1.923 -0.4560  0.3161 -0.0873
 1013SOL    HW2 4125   0.379   4.292   1.958 -0.1711  1.0325 -0.0183
 1013SOL    HW3 4126   0.461   4.286   1.831 -0.1176  0.7827  0.0278
 1013SOL    MW4 4127   0.452   4.269   1.915 -0.3738  0.4721 -0.0631
 1014SOL     OW 4128   0.665   4.403   2.046 -0.4042 -0.4319 -0.2471
 1014SOL    HW2 4129   0.741   4.362   2.005  0.3132 -0.6497  1.2812
 1014SOL    HW3 4130   0.590   4.354   2.011  0.0970  0.1732 -2.2095
 1014SOL    MW4 4131   0.665   4.391   2.036 -0.2435 -0.3810 -0.3042
 1015SOL     OW 4132   1.107   4.644   1.907 -0.1238  0.2509  0.5266
 1015SOL    HW2 4133   1.183   4.696   1.932  2.0814 -1.7208 -1.6871
 1015SOL    HW3 4134   1.120   4.560   1.950 -0.8675 -0.2032 -0.1124
 1015SOL    MW4 4135   1.119   4.640   1.916  0.0691 -0.0687  0.1503
 1016SOL     OW 4136   0.901   0.112   2.020 -0.0404  0.2182 -0.2115
 1016SOL    HW2 4137   0.978   0.067   1.985  0.3362  0.7553 -0.0778
 1016SOL    HW3 4138   0.827   0.072   1.974  0.3495 -0.0036 -0.6509
 1016SOL    MW4 4139   0.901   0.101   2.010  0.0607  0.2598 -0.2520
 1017SOL     OW 4140   0.882   0.353   1.902  0.2584 -0.1029  0.1075
 1017SOL    HW2 4141   0.973   0.379   1.915  0.4313 -0.3871 -0.5098
 1017SOL    HW3 4142   0.879   0.262   1.930  0.3721 -0.3670 -0.7132
 1017SOL    MW4 4143   0.893   0.344   1.907  0.2962 -0.1753 -0.0823
 1018SOL     OW 4144   1.147   0.437   1.939 -0.1623  0.0612  0.4474
 1018SOL    HW2 4145   1.235   0.419   1.905 -0.1280 -2.0727  1.5953
 1018SOL    HW3 4146   1.137   0.531   1.930  1.8233  0.1925 -0.7141
 1018SOL    MW4 4147   1.157   0.447   1.934  0.1041 -0.2030  0.4456
 1019SOL     OW 4148   1.141   0.712   1.888 -0.0771  0.0038  0.1271
 1019SOL    HW2 4149   1.223   0.757   1.910  0.1171 -0.5044  0.4477
 1019SOL    HW3 4150   1.073   0.771   1.919  0.1719  0.3032  0.1115
 1019SOL    MW4 4151   1.143   0.726   1.895 -0.0186 -0.0237  0.1673
 1020SOL     OW 4152   0.931   0.884   1.962  0.1329 -0.0145  0.3922
 1020SOL    HW2 4153   0.917   0.886   2.056 -0.1154 -0.5271  0.3668
 1020SOL    HW3 4154   0.939   0.976   1.937  0.5970  0.1028  0.9718
 1020SOL    MW4 4155   0.930   0.897   1.971  0.1613 -0.0667  0.4653
 1021SOL     OW 4156   0.947   1.137   1.876 -0.4542 -0.0770 -0.1036
 1021SOL    HW2 4157   0.879   1.200   1.898 -1.4145 -0.9226 -0.5819
 1021SOL    HW3 4158   0.951   1.138   1.780  0.7354  0.5067 -0.0587
 1021SOL    MW4 4159   0.938   1.145   1.866 -0.4238 -0.1116 -0.1608
 1022SOL     OW 4160   1.190   1.268   1.938  0.0849  0.1789  0.2858
 1022SOL    HW2 4161   1.179   1.360   1.915  0.5618 -0.0705 -0.9951
 1022SOL    HW3 4162   1.105   1.227   1.921  0.4985 -0.0510 -1.3217
 1022SOL    MW4 4163   1.178   1.274   1.933  0.2024  0.1156 -0.0952
 1023SOL     OW 4164   1.142   1.519   1.871 -0.1851 -0.6076  0.1904
 1023SOL    HW2 4165   1.067   1.566   1.906  1.6054  2.4083  0.1214
 1023SOL    HW3 4166   1.130   1.523   1.776 -0.4772 -1.0781  0.2047
 1023SOL    MW4 4167   1.130   1.525   1.863  0.0125 -0.2718  0.1832
 1024SOL     OW 4168   0.939   1.680   1.978 -0.4630  0.0707 -0.3383
 1024SOL    HW2 4169   0.935   1.771   1.947 -0.1123  0.3027  0.2977
 1024SOL    HW3 4170   0.859   1.640   1.945 -0.3734  0.4751 -1.0566
 1024SOL    MW4 4171   0.928   1.687   1.969 -0.4048  0.1547 -0.3492
 1025SOL     OW 4172   0.868   1.935   1.899  0.2595  0.1522  0.4028
 1025SOL    HW2 4173   0.812   2.005   1.934 -0.8440 -0.5490  0.0805
 1025SOL    HW3 4174   0.868   1.949   1.804 -0.4219 -0.5984  0.2821
 1025SOL    MW4 4175   0.860   1.946   1.891  0.0240 -0.0393  0.3444
 1026SOL     OW 4176   1.094   2.056   2.008  0.3558 -0.5155  0.0669
 1026SOL    HW2 4177   1.089   2.148   1.981 -1.7175 -0.6629 -0.1694
 1026SOL    HW3 4178   1.018   2.015   1.966 -0.2677 -1.7518  2.3175
 1026SOL    MW4 4179   1.083   2.063   1.999 -0.0001 -0.6981  0.3330
 1027SOL     OW 4180   1.096   2.338   1.933  0.5847 -0.4308  0.1592
 1027SOL    HW2 4181   1.181   2.372   1.961  0.8761  0.1145 -1.3526
 1027SOL    HW3 4182   1.096   2.348   1.837 -1.4931  0.2959  0.2050
 1027SOL    MW4 4183   1.107   2.344   1.924  0.3490 -0.2630 -0.0343
 1028SOL     OW 4184   0.878   2.455   2.039  0.0008 -0.6328  0.2106
 1028SOL    HW2 4185   0.955   2.416   1.997  0.2552 -0.1849  0.2580
 1028SOL    HW3 4186   0.804   2.425   1.985  0.2513 -0.7035 -0.0951
 1028SOL    MW4 4187   0.878   2.446   2.026  0.0674 -0.5832  0.1764
 1029SOL     OW 4188   0.908   2.693   1.868 -0.0297  0.6336 -0.4227
 1029SOL    HW2 4189   0.882   2.613   1.915 -0.2568 -0.0876 -1.7488
 1029SOL    HW3 4190   0.841   2.757   1.891  0.5010  0.6471  1.1569
 1029SOL    MW4 4191   0.896   2.691   1.877  0.0104  0.5403 -0.3893
 1030SOL     OW 4192   1.138   2.828   1.968 -0.3779  0.0914  0.2054
 1030SOL    HW2 4193   1.132   2.832   2.063  0.4650 -1.7849  0.3576
 1030SOL    HW3 4194   1.071   2.763   1.943  2.5308 -2.9328 -0.0537
 1030SOL    MW4 4195   1.128   2.820   1.977  0.1169 -0.5550  0.1912
 1031SOL     OW 4196   1.173   3.088   1.890 -0.2200 -0.0800 -0.0920
 1031SOL    HW2 4197   1.098   3.144   1.909 -0.2290  0.2160 -0.9518
 1031SOL    HW3 4198   1.149   3.002   1.924 -0.5767  0.2278  0.4306
 1031SOL    MW4 4199   1.160   3.084   1.897 -0.2682 -0.0005 -0.1366
 1032SOL     OW 4200   0.954   3.215   1.977 -0.4802 -0.1774 -0.1302
 1032SOL    HW2 4201   0.947   3.226   2.071  0.5612  0.6458 -0.1459
 1032SOL    HW3 4202   0.868   3.181   1.950 -0.4076 -1.4960  1.2517
 1032SOL    MW4 4203   0.942   3.212   1.986 -0.3332 -0.2429  0.0499
 1033SOL     OW 4204   0.855   3.469   1.909  0.2228  0.1794 -0.0084
 1033SOL    HW2 4205   0.888   3.382   1.933  0.1476  0.0912 -0.2194
 1033SOL    HW3 4206   0.867   3.473   1.814 -1.2546 -0.2368 -0.2338
 1033SOL    MW4 4207   0.861   3.458   1.900  0.0179  0.1130 -0.0660
 1034SOL     OW 4208   1.058   3.620   2.004 -0.3515 -0.3862 -0.4215
 1034SOL    HW2 4209   1.064   3.624   2.100  0.4205  1.6948 -0.5201
 1034SOL    HW3 4210   0.977   3.573   1.987 -1.0525  0.1566  1.2930
 1034SOL    MW4 4211   1.048   3.615   2.015 -0.3421 -0.0401 -0.2084
 1035SOL     OW 4212   1.116   3.885   1.897  0.4738  0.1697  0.2164
 1035SOL    HW2 4213   1.093   3.794   1.915  2.0414 -0.2067  0.3437
 1035SOL    HW3 4214   1.123   3.890   1.802  2.2003 -0.2942  0.3115
 1035SOL    MW4 4215   1.114   3.874   1.887  0.9083  0.0587  0.2458
 1036SOL     OW 4216   0.878   3.995   2.002 -0.3784  0.7631 -0.4768
 1036SOL    HW2 4217   0.895   3.997   2.097  1.0530 -0.8576 -0.6598
 1036SOL    HW3 4218   0.962   3.969   1.964 -0.8056  1.9385 -2.2448
 1036SOL    MW4 4219   0.892   3.992   2.010 -0.2459  0.7043 -0.7341
 1037SOL     OW 4220   0.850   4.257   1.909  0.3795  0.6587  0.1427
 1037SOL    HW2 4221   0.922   4.293   1.961  0.5639  0.4791  0.0113
 1037SOL    HW3 4222   0.840   4.167   1.941 -0.0229  0.7942  0.4110
 1037SOL    MW4 4223   0.858   4.250   1.920  0.3507  0.6528  0.1608
 1038SOL     OW 4224   1.087   4.374   2.024  0.0804  0.0933  0.0066
 1038SOL    HW2 4225   1.084   4.383   2.119 -1.3496  1.1888 -0.1086
 1038SOL    HW3 4226   1.172   4.335   2.006  0.5224  0.2136  1.7081
 1038SOL    MW4 4227   1.098   4.370   2.034 -0.0498  0.2537  0.2162
 1039SOL     OW 4228   1.557   4.650   1.847 -0.0539  0.1652  0.1177
 1039SOL    HW2 4229   1.626   4.695   1.895 -0.5409 -0.5921  1.5456
 1039SOL    HW3 4230   1.562   4.559   1.876 -0.5976 -0.2310 -0.9879
 1039SOL    MW4 4231   1.567   4.644   1.857 -0.1899  0.0124  0.1602
 1040SOL     OW 4232   1.330   0.111   1.957 -0.1581  0.1735  0.1522
 1040SOL    HW2 4233   1.345   0.115   2.051 -1.5308 -0.0348  0.3983
 1040SOL    HW3 4234   1.394   0.049   1.924  0.7596  0.7323  0.8505
 1040SOL    MW4 4235   1.340   0.104   1.965 -0.2180  0.2197  0.2768
 1041SOL     OW 4236   1.399   0.366   1.852 -0.0229 -0.1725 -0.1005
 1041SOL    HW2 4237   1.410   0.278   1.888  0.0510  0.0570  0.4416
 1041SOL    HW3 4238   1.373   0.351   1.761 -0.7394 -0.7623  0.1951
 1041SOL    MW4 4239   1.397   0.352   1.844 -0.1078 -0.2200  0.0100
 1042SOL     OW 4240   1.595   0.487   2.043 -0.2957 -0.2033  0.2194
 1042SOL    HW2 4241   1.669   0.433   2.016 -0.6352 -1.7413  2.1652
 1042SOL    HW3 4242   1.519   0.446   2.001 -0.2714  0.1480 -0.1613
 1042SOL    MW4 4243   1.595   0.474   2.034 -0.3372 -0.3598  0.4261
 1043SOL     OW 4244   1.607   0.704   1.883 -0.0973 -0.2124 -0.5991
 1043SOL    HW2 4245   1.667   0.762   1.930 -1.7319 -0.3105  1.7250
 1043SOL    HW3 4246   1.604   0.625   1.937 -0.5564 -1.0902 -1.9009
 1043SOL    MW4 4247   1.615   0.701   1.896 -0.3736 -0.3412 -0.4642
 1044SOL     OW 4248   1.372   0.842   1.955 -0.0629 -0.1787  0.2105
 1044SOL    HW2 4249   1.380   0.848   2.050 -1.0801 -1.9725  0.4173
 1044SOL    HW3 4250   1.449   0.793   1.927  0.2611  0.3891  0.0889
 1044SOL    MW4 4251   1.383   0.836   1.964 -0.1544 -0.3405  0.2217
 1045SOL     OW 4252   1.378   1.106   1.852 -0.0928 -0.0054  0.2219
 1045SOL    HW2 4253   1.372   1.016   1.883 -0.5148 -0.0261  0.0861
 1045SOL    HW3 4254   1.299   1.148   1.886 -1.5159 -0.5049 -2.3386
 1045SOL    MW4 4255   1.367   1.100   1.861 -0.3362 -0.0740 -0.1339
 1046SOL     OW 4256   1.585   1.239   1.983  0.0015  0.1064 -0.1483
 1046SOL    HW2 4257   1.592   1.331   1.959 -1.6328  0.6217  1.2110
 1046SOL    HW3 4258   1.507   1.208   1.937 -0.5310 -0.0874  0.8647
 1046SOL    MW4 4259   1.576   1.247   1.974 -0.2843  0.1488  0.1646
 1047SOL     OW 4260   1.575   1.526   1.924  0.3944  0.2036  0.2576
 1047SOL    HW2 4261   1.653   1.580   1.937  0.2477  0.7120 -0.8435
 1047SOL    HW3 4262   1.504   1.575   1.965  0.5744 -0.0542  0.8861
 1047SOL    MW4 4263   1.576   1.540   1.931  0.3986  0.2366  0.1953
 1048SOL     OW 4264   1.353   1.688   1.997  0.0759 -0.4479 -0.0675
 1048SOL    HW2 4265   1.347   1.659   2.089 -0.5455  0.4402  0.1700
 1048SOL    HW3 4266   1.283   1.641   1.952  0.4046 -0.9130 -0.0993
 1048SOL    MW4 4267   1.343   1.678   2.003  0.0372 -0.3922 -0.0403
 1049SOL     OW 4268   1.302   1.957   1.870 -0.4710 -0.1010 -0.4399
 1049SOL    HW2 4269   1.314   1.870   1.908 -0.0192  0.4609  0.7373
 1049SOL    HW3 4270   1.236   1.999   1.926  1.1465  1.1986  0.5490
 1049SOL    MW4 4271   1.295   1.951   1.882 -0.1980  0.1445 -0.1541
 1050SOL     OW 4272   1.571   2.031   1.921  0.3869  0.0556  0.2709
 1050SOL    HW2 4273   1.561   2.124   1.901 -0.4000 -0.2293 -0.6558
 1050SOL    HW3 4274   1.488   1.991   1.898  0.6890 -0.8810  0.7388
 1050SOL    MW4 4275   1.559   2.038   1.916  0.3228 -0.1059  0.2104
 1051SOL     OW 4276   1.533   2.289   1.855  0.0427 -0.5409  0.1041
 1051SOL    HW2 4277   1.608   2.340   1.885 -0.8144  0.3821  0.6742
 1051SOL    HW3 4278   1.537   2.295   1.759  0.3032  0.0575  0.1524
 1051SOL    MW4 4279   1.544   2.296   1.846 -0.0361 -0.3402  0.1857
 1052SOL     OW 4280   1.342   2.454   2.001  0.3709 -0.4110  0.2461
 1052SOL    HW2 4281   1.363   2.541   1.967 -0.4448  0.7162  2.5571
 1052SOL    HW3 4282   1.416   2.399   1.972  1.1174  1.1291 -0.8452
 1052SOL    MW4 4283   1.355   2.458   1.993  0.3618 -0.0589  0.4072
 1053SOL     OW 4284   1.376   2.701   1.902  0.2155 -0.8794 -0.4179
 1053SOL    HW2 4285   1.307   2.764   1.924  1.0392 -0.5442  1.3117
 1053SOL    HW3 4286   1.396   2.718   1.810  0.5488  1.5444  0.0669
 1053SOL    MW4 4287   1.370   2.712   1.893  0.3681 -0.5155 -0.1258
 1054SOL     OW 4288   1.604   2.835   2.006 -0.1749  0.3115  0.0171
 1054SOL    HW2 4289   1.674   2.779   1.973 -0.1598  0.1393  0.3434
 1054SOL    HW3 4290   1.525   2.782   1.998 -0.3930  0.7840 -1.0797
 1054SOL    MW4 4291   1.603   2.821   2.000 -0.2016  0.3514 -0.0846
 1055SOL     OW 4292   1.592   3.118   1.907  0.0742  0.0575 -0.3773
 1055SOL    HW2 4293   1.599   3.030   1.944  1.4461 -0.0510 -0.8404
 1055SOL    HW3 4294   1.583   3.103   1.813  1.2763  0.4231 -0.5568
 1055SOL    MW4 4295   1.592   3.104   1.900  0.4138  0.0913 -0.4621
 1056SOL     OW 4296   1.364   3.227   2.043  0.3614  0.4518  0.2530
 1056SOL    HW2 4297   1.451   3.204   2.008 -0.3214 -0.8981 -0.5924
 1056SOL    HW3 4298   1.303   3.180   1.986 -0.8864  0.4448  1.5962
 1056SOL    MW4 4299   1.368   3.218   2.031  0.1066  0.2730  0.3190
 1057SOL     OW 4300   1.313   3.471   1.908 -0.0186 -0.6396  0.0941
 1057SOL    HW2 4301   1.354   3.403   1.963 -1.6895  0.2307  2.5098
 1057SOL    HW3 4302   1.222   3.471   1.936 -1.3122 -1.2549 -3.8849
 1057SOL    MW4 4303   1.307   3.462   1.919 -0.4097 -0.6061 -0.1121
 1058SOL     OW 4304   1.540   3.598   2.010 -0.0098 -0.4045 -0.4810
 1058SOL    HW2 4305   1.533   3.583   2.104  1.2650  0.7157 -0.1925
 1058SOL    HW3 4306   1.457   3.567   1.974 -0.4801 -0.8805  1.0026
 1058SOL    MW4 4307   1.528   3.592   2.017  0.0964 -0.3195 -0.2472
 1059SOL     OW 4308   1.543   3.842   1.885 -0.0300  0.1274  0.0148
 1059SOL    HW2 4309   1.622   3.891   1.909  1.0114 -1.0524 -0.9196
 1059SOL    HW3 4310   1.547   3.762   1.938 -2.1379  1.3517  2.1366
 1059SOL    MW4 4311   1.554   3.838   1.896 -0.1708  0.1335  0.1714
 1060SOL     OW 4312   1.350   3.995   2.000  0.0640 -0.0901  0.3346
 1060SOL    HW2 4313   1.414   3.949   1.946 -0.1340 -0.6462  0.5675
 1060SOL    HW3 4314   1.266   3.957   1.975 -0.2200  0.8574 -0.1985
 1060SOL    MW4 4315   1.347   3.984   1.989  0.0005 -0.0384  0.2949
 1061SOL     OW 4316   1.310   4.244   1.911 -0.2401 -0.2414 -0.0850
 1061SOL    HW2 4317   1.332   4.158   1.948 -0.1292 -0.4104 -0.5422
 1061SOL    HW3 4318   1.294   4.227   1.818 -1.9308 -0.0624  0.1487
 1061SOL    MW4 4319   1.311   4.230   1.904 -0.4486 -0.2398 -0.1147
 1062SOL     OW 4320   1.552   4.382   1.972  0.2956  0.3604 -0.4037
 1062SOL    HW2 4321   1.544   4.383   2.068 -0.4270  0.9511 -0.4625
 1062SOL    HW3 4322   1.477   4.329   1.943  1.0895 -0.6634 -0.5969
 1062SOL    MW4 4323   1.541   4.375   1.981  0.3051  0.3037 -0.4370
 1063SOL     OW 4324   2.011   4.625   1.901 -0.5680  0.3476  0.3153
 1063SOL    HW2 4325   2.082   4.679   1.938  0.1782 -0.6317  0.3279
 1063SOL    HW3 4326   2.031   4.536   1.930 -2.5728  0.2386  1.4850
 1063SOL    MW4 4327   2.023   4.621   1.910 -0.7341  0.2046  0.4714
 1064SOL     OW 4328   1.786   0.091   1.981 -0.4433 -0.1309  0.2056
 1064SOL    HW2 4329   1.786   0.094   2.076 -0.1051  0.9319  0.1760
 1064SOL    HW3 4330   1.867   0.045   1.958 -0.1497  0.2851  0.4113
 1064SOL    MW4 4331   1.797   0.086   1.990 -0.3599  0.0642  0.2288
 1065SOL     OW 4332   1.811   0.370   1.907 -0.1553 -0.0723 -0.0292
 1065SOL    HW2 4333   1.811   0.280   1.941 -1.4817  0.3315  1.1072
 1065SOL    HW3 4334   1.788   0.361   1.815 -0.8438 -0.8562  0.2125
 1065SOL    MW4 4335   1.808   0.357   1.900 -0.4212 -0.1224  0.1527
 1066SOL     OW 4336   2.021   0.521   1.974 -0.2114  0.4144  0.0935
 1066SOL    HW2 4337   2.032   0.603   1.925  1.7668  0.3177  0.3194
 1066SOL    HW3 4338   1.949   0.476   1.930  0.7334  0.8748 -1.9912
 1066SOL    MW4 4339   2.013   0.526   1.962  0.1743  0.4624 -0.1518
 1067SOL     OW 4340   2.026   0.752   1.836 -0.0107 -0.4322 -0.3034
 1067SOL    HW2 4341   2.107   0.795   1.861  0.6342 -0.7295 -1.8155
 1067SOL    HW3 4342   2.032   0.743   1.741 -0.5253 -3.1006 -0.1087
 1067SOL    MW4 4343   2.037   0.757   1.827  0.0064 -0.8235 -0.4772
 1068SOL     OW 4344   1.816   0.865   1.975 -0.1769 -0.3988 -0.5438
 1068SOL    HW2 4345   1.809   0.944   1.922 -1.5496 -0.1587 -0.0353
 1068SOL    HW3 4346   1.893   0.820   1.941  1.5047  1.8768  0.1238
 1068SOL    MW4 4347   1.825   0.869   1.964 -0.1361 -0.0669 -0.3885
 1069SOL     OW 4348   1.805   1.102   1.843 -0.0732  0.4491  0.1053
 1069SOL    HW2 4349   1.727   1.146   1.877 -0.1027  0.8897 -0.5175
 1069SOL    HW3 4350   1.793   1.101   1.748  0.7769  0.7089 -0.0104
 1069SOL    MW4 4351   1.793   1.108   1.835  0.0350  0.5414  0.0079
 1070SOL     OW 4352   1.992   1.265   1.972 -0.3459  0.2413 -0.1823
 1070SOL    HW2 4353   2.077   1.232   1.944 -0.4015 -0.3663  0.3538
 1070SOL    HW3 4354   1.929   1.213   1.924 -0.4347 -0.4661  0.6863
 1070SOL    MW4 4355   1.995   1.254   1.962 -0.3649  0.0677  0.0031
 1071SOL     OW 4356   2.016   1.524   1.840  0.0583  0.1864 -0.6133
 1071SOL    HW2 4357   2.011   1.436   1.877  1.7639  0.5885  0.6665
 1071SOL    HW3 4358   2.021   1.510   1.745  0.1877 -1.0918 -0.4272
 1071SOL    MW4 4359   2.016   1.510   1.832  0.3004  0.0708 -0.4199
 1072SOL     OW 4360   1.802   1.674   1.943 -0.3838 -0.3564  0.1870
 1072SOL    HW2 4361   1.804   1.763   1.908  0.3122 -0.4498 -0.0296
 1072SOL    HW3 4362   1.885   1.635   1.914  0.4619 -0.2785  2.3818
 1072SOL    MW4 4363   1.813   1.681   1.934 -0.1804 -0.3585  0.4480
 1073SOL     OW 4364   1.814   1.932   1.857  0.0210  0.2490  0.0641
 1073SOL    HW2 4365   1.730   1.977   1.870  0.3313  0.7324  0.4219
 1073SOL    HW3 4366   1.824   1.928   1.762 -0.0206  0.9218  0.0246
 1073SOL    MW4 4367   1.804   1.938   1.846  0.0565  0.4016  0.1060
 1074SOL     OW 4368   2.038   2.040   1.980 -0.0219  0.3214 -0.3081
 1074SOL    HW2 4369   2.116   1.999   1.944 -0.3496  0.5638 -1.2973
 1074SOL    HW3 4370   1.965   1.992   1.942 -0.3692 -0.6360  1.4756
 1074SOL    MW4 4371   2.038   2.029   1.970 -0.1111  0.2272 -0.2034
 1075SOL     OW 4372   2.018   2.307   1.881  0.1751  0.0340  0.3528
 1075SOL    HW2 4373   2.095   2.357   1.908 -0.1047  0.3696  0.5276
 1075SOL    HW3 4374   2.036   2.218   1.912  1.1092 -0.1926 -0.8364
 1075SOL    MW4 4375   2.030   2.302   1.889  0.2618  0.0484  0.2190
 1076SOL     OW 4376   1.768   2.364   1.978  0.2172  0.0519  0.5463
 1076SOL    HW2 4377   1.786   2.384   2.070  1.5680  1.8599 -0.0962
 1076SOL    HW3 4378   1.850   2.327   1.945 -0.3241 -0.7729  0.0976
 1076SOL    MW4 4379   1.781   2.362   1.986  0.3240  0.1814  0.4022
 1077SOL     OW 4380   1.784   2.632   1.921 -0.4091  0.0927  0.0880
 1077SOL    HW2 4381   1.770   2.538   1.933 -0.0509  0.1580  1.0700
 1077SOL    HW3 4382   1.786   2.644   1.826 -0.2486 -0.9264 -0.0423
 1077SOL    MW4 4383   1.783   2.621   1.910 -0.3407 -0.0331  0.2004
 1078SOL     OW 4384   2.028   2.781   1.977 -0.3713 -0.4113 -0.1778
 1078SOL    HW2 4385   2.023   2.782   2.072 -0.0640 -0.6171 -0.1577
 1078SOL    HW3 4386   1.961   2.717   1.950 -0.0740 -0.7671 -0.0732
 1078SOL    MW4 4387   2.018   2.773   1.986 -0.2916 -0.4854 -0.1613
 1079SOL     OW 4388   2.065   3.059   1.909 -0.0633 -0.1257  0.3192
 1079SOL    HW2 4389   1.990   3.109   1.943  0.8227  0.7367  1.0479
 1079SOL    HW3 4390   2.037   2.968   1.914 -0.8543  0.1484  1.1444
 1079SOL    MW4 4391   2.051   3.054   1.914 -0.0508  0.0241  0.5242
 1080SOL     OW 4392   1.843   3.222   1.948  0.0115 -0.2061  0.3009
 1080SOL    HW2 4393   1.837   3.215   2.043 -1.0974  0.0156  0.2500
 1080SOL    HW3 4394   1.763   3.180   1.916  0.8006 -1.0722 -0.5657
 1080SOL    MW4 4395   1.831   3.215   1.956 -0.0306 -0.2913  0.1798
 1081SOL     OW 4396   1.764   3.476   1.887 -0.7819 -0.0014 -0.7532
 1081SOL    HW2 4397   1.790   3.388   1.915 -2.0236  0.1147  0.8450
 1081SOL    HW3 4398   1.685   3.495   1.937 -1.3581  1.4535 -2.1707
 1081SOL    MW4 4399   1.757   3.467   1.897 -1.0217  0.2058 -0.7294
 1082SOL     OW 4400   2.027   3.596   1.958 -0.3729  0.3415 -0.1730
 1082SOL    HW2 4401   2.019   3.682   1.916 -0.1681  0.1689 -0.5786
 1082SOL    HW3 4402   1.945   3.552   1.938 -0.2957  0.2780 -0.3545
 1082SOL    MW4 4403   2.015   3.602   1.950 -0.3357  0.3104 -0.2505
 1083SOL     OW 4404   1.979   3.848   1.850  0.0488  0.1389 -0.0838
 1083SOL    HW2 4405   2.052   3.891   1.894  0.6857  0.6432 -1.6142
 1083SOL    HW3 4406   1.991   3.868   1.757  0.4851 -3.4505 -0.8766
 1083SOL    MW4 4407   1.990   3.856   1.844  0.1904 -0.2677 -0.3903
 1084SOL     OW 4408   1.767   3.979   1.955  0.0911 -0.0056  0.0536
 1084SOL    HW2 4409   1.785   4.069   1.930 -1.3291  0.3453  0.2566
 1084SOL    HW3 4410   1.835   3.928   1.912 -0.0724  0.9806 -1.4006
 1084SOL    MW4 4411   1.778   3.984   1.946 -0.1179  0.1707 -0.1116
 1085SOL     OW 4412   1.783   4.244   1.879 -0.4621 -0.2902  0.0979
 1085SOL    HW2 4413   1.711   4.295   1.916 -0.0119  0.5072 -0.1217
 1085SOL    HW3 4414   1.793   4.278   1.791  1.6782  1.1631  0.8859
 1085SOL    MW4 4415   1.775   4.255   1.873 -0.1202  0.0067  0.1730
 1086SOL     OW 4416   2.014   4.373   2.003 -0.2923  0.0003 -0.4591
 1086SOL    HW2 4417   2.087   4.319   1.973  0.2005 -1.1200  2.5825
 1086SOL    HW3 4418   1.935   4.323   1.979  0.1146 -1.2873  0.8053
 1086SOL    MW4 4419   2.013   4.359   1.996 -0.1736 -0.3176  0.1090
 1087SOL     OW 4420   2.439   4.628   1.901 -0.6543 -0.3086 -0.0975
 1087SOL    HW2 4421   2.517   4.660   1.946 -0.7336  0.3766 -0.4458
 1087SOL    HW3 4422   2.432   4.536   1.928 -0.6700  0.0646  1.2494
 1087SOL    MW4 4423   2.448   4.620   1.911 -0.6671 -0.1683  0.0341
 1088SOL     OW 4424   2.223   0.110   1.980 -0.7070 -0.1873 -0.1258
 1088SOL    HW2 4425   2.243   0.118   2.073  0.4063  0.4631 -0.4165
 1088SOL    HW3 4426   2.298   0.064   1.943 -1.7078 -1.5542 -0.5063
 1088SOL    MW4 4427   2.235   0.105   1.988 -0.6924 -0.2818 -0.2143
 1089SOL     OW 4428   2.231   0.367   1.866 -0.0232 -0.4322 -0.4724
 1089SOL    HW2 4429   2.233   0.288   1.920  1.9104  0.8938  1.4495
 1089SOL    HW3 4430   2.163   0.422   1.906  0.4298 -0.0496 -0.2154
 1089SOL    MW4 4431   2.222   0.364   1.878  0.2918 -0.2067 -0.1850
 1090SOL     OW 4432   2.479   0.488   1.976  0.0751  0.0646 -0.1896
 1090SOL    HW2 4433   2.543   0.432   1.931 -0.0796 -0.5073  0.2918
 1090SOL    HW3 4434   2.395   0.443   1.964  0.2514 -0.9250  1.9836
 1090SOL    MW4 4435   2.476   0.474   1.969  0.0777 -0.1414  0.1606
 1091SOL     OW 4436   2.475   0.733   1.869  0.0136  0.1507  0.6082
 1091SOL    HW2 4437   2.472   0.645   1.907 -0.5832  0.6227  1.6753
 1091SOL    HW3 4438   2.469   0.719   1.774 -2.1817 -0.8765  0.8600
 1091SOL    MW4 4439   2.474   0.720   1.861 -0.3548  0.0774  0.7821
 1092SOL     OW 4440   2.258   0.888   1.911  0.0684  0.4122 -0.6870
 1092SOL    HW2 4441   2.247   0.895   2.005 -1.5863  0.4346 -0.8711
 1092SOL    HW3 4442   2.334   0.831   1.900 -0.5101 -0.6574  0.6659
 1092SOL    MW4 4443   2.266   0.881   1.922 -0.2260  0.2740 -0.5327
 1093SOL     OW 4444   2.236   1.152   1.853 -0.6436  0.4157 -0.3859
 1093SOL    HW2 4445   2.312   1.188   1.899 -1.3975  0.7668  0.6095
 1093SOL    HW3 4446   2.236   1.059   1.876 -1.0523  0.6017  0.3910
 1093SOL    MW4 4447   2.246   1.144   1.863 -0.7973  0.4867 -0.1521
 1094SOL     OW 4448   2.465   1.240   1.987 -0.6071 -0.2872 -0.0001
 1094SOL    HW2 4449   2.477   1.239   2.082  0.6596  0.1970 -0.1372
 1094SOL    HW3 4450   2.464   1.334   1.965 -1.2278 -0.3944 -0.4181
 1094SOL    MW4 4451   2.467   1.253   1.997 -0.5221 -0.2375 -0.0732
 1095SOL     OW 4452   2.469   1.518   1.867 -0.2600 -0.1303 -0.2428
 1095SOL    HW2 4453   2.392   1.572   1.887  0.1588 -0.0192  1.0944
 1095SOL    HW3 4454   2.487   1.536   1.775 -0.8767  1.0627 -0.1406
 1095SOL    MW4 4455   2.461   1.528   1.858 -0.2866  0.0417 -0.0530
 1096SOL     OW 4456   2.242   1.662   1.930  0.4072 -0.1125  0.1055
 1096SOL    HW2 4457   2.241   1.643   2.024  1.0027 -1.5941 -0.1639
 1096SOL    HW3 4458   2.165   1.617   1.895  1.5125 -1.6040 -0.4631
 1096SOL    MW4 4459   2.232   1.654   1.938  0.6313 -0.5047 -0.0052
 1097SOL     OW 4460   2.269   1.923   1.894 -0.0789 -0.1321 -0.2851
 1097SOL    HW2 4461   2.353   1.951   1.932 -0.0138 -0.1235 -0.4337
 1097SOL    HW3 4462   2.262   1.831   1.918  1.0890 -0.7729 -2.2338
 1097SOL    MW4 4463   2.279   1.915   1.902  0.0837 -0.2155 -0.5618
 1098SOL     OW 4464   2.507   2.012   2.011  0.5694  0.4389  0.4908
 1098SOL    HW2 4465   2.572   1.963   1.959  0.5079  0.2530  0.5866
 1098SOL    HW3 4466   2.513   2.101   1.979  0.3676  0.2767  0.0032
 1098SOL    MW4 4467   2.516   2.017   2.000  0.5348  0.3929  0.4389
 1099SOL     OW 4468   2.519   2.271   1.882 -0.1872  0.0539 -0.3137
 1099SOL    HW2 4469   2.592   2.323   1.915  0.6558 -0.5820 -1.1559
 1099SOL    HW3 4470   2.442   2.324   1.901  0.5399  1.0127  0.0228
 1099SOL    MW4 4471   2.518   2.285   1.889  0.0200  0.0963 -0.3805
 1100SOL     OW 4472   2.312   2.428   1.938  0.2398 -0.5773 -0.4758
 1100SOL    HW2 4473   2.285   2.433   2.030  1.4665 -0.5222 -0.1074
 1100SOL    HW3 4474   2.294   2.515   1.903 -0.6885 -0.7413 -0.4314
 1100SOL    MW4 4475   2.306   2.440   1.946  0.2794 -0.5918 -0.4214
 1101SOL     OW 4476   2.256   2.693   1.860  0.1774 -0.1317 -0.2585
 1101SOL    HW2 4477   2.176   2.717   1.907  0.5914  1.9165 -0.5746
 1101SOL    HW3 4478   2.231   2.694   1.767  0.6439  0.9006 -0.3856
 1101SOL    MW4 4479   2.242   2.696   1.854  0.2935  0.2747 -0.3170
 1102SOL     OW 4480   2.480   2.832   1.995  0.1944  0.0319 -0.2352
 1102SOL    HW2 4481   2.493   2.921   1.964  0.8609  0.4797  1.2694
 1102SOL    HW3 4482   2.391   2.809   1.966  0.1546  1.0441 -0.9393
 1102SOL    MW4 4483   2.470   2.841   1.987  0.2773  0.2246 -0.1297
 1103SOL     OW 4484   2.515   3.082   1.913  0.4493 -0.3053 -0.0185
 1103SOL    HW2 4485   2.444   3.140   1.940  1.2218  0.2087  0.9422
 1103SOL    HW3 4486   2.505   3.075   1.818  0.1502  1.1523 -0.1113
 1103SOL    MW4 4487   2.504   3.089   1.904  0.5116 -0.0453  0.0961
 1104SOL     OW 4488   2.272   3.222   2.004  0.2432 -0.2973  0.1835
 1104SOL    HW2 4489   2.292   3.220   2.097  0.4932 -0.3572  0.1286
 1104SOL    HW3 4490   2.207   3.152   1.992  0.8528 -0.8640  0.1648
 1104SOL    MW4 4491   2.266   3.212   2.015  0.3564 -0.3800  0.1736
 1105SOL     OW 4492   2.243   3.450   1.864  0.4177 -0.3883 -0.0490
 1105SOL    HW2 4493   2.249   3.369   1.915 -0.2773 -0.1517  0.4138
 1105SOL    HW3 4494   2.163   3.492   1.895  0.3028  0.0405 -0.9249
 1105SOL    MW4 4495   2.233   3.445   1.875  0.3109 -0.3004 -0.1035
 1106SOL     OW 4496   2.441   3.594   1.980  0.0240 -0.1023 -0.3432
 1106SOL    HW2 4497   2.430   3.605   2.074 -0.6514 -0.0943 -0.4252
 1106SOL    HW3 4498   2.358   3.559   1.949  0.3935 -0.5329 -0.8728
 1106SOL    MW4 4499   2.429   3.591   1.988 -0.0165 -0.1581 -0.4240
 1107SOL     OW 4500   2.448   3.840   1.882  0.5997  0.1773  0.0048
 1107SOL    HW2 4501   2.364   3.880   1.903  0.7681 -0.3323  1.7214
 1107SOL    HW3 4502   2.441   3.749   1.912  1.5164 -0.0655 -0.4685
 1107SOL    MW4 4503   2.436   3.833   1.889  0.7427  0.0782  0.1688
 1108SOL     OW 4504   2.206   3.960   1.973  0.3612 -0.1407  0.2104
 1108SOL    HW2 4505   2.236   3.959   2.064  2.4065 -0.3606 -0.4464
 1108SOL    HW3 4506   2.219   4.050   1.944  0.9673 -0.3720 -0.2550
 1108SOL    MW4 4507   2.211   3.972   1.982  0.7110 -0.2005  0.0622
 1109SOL     OW 4508   2.233   4.231   1.878  0.5039  0.6203  0.0927
 1109SOL    HW2 4509   2.321   4.264   1.896  0.8386 -0.1380 -0.1472
 1109SOL    HW3 4510   2.226   4.232   1.783  0.5990 -0.1922  0.0703
 1109SOL    MW4 4511   2.244   4.235   1.868  0.5608  0.4129  0.0582
 1110SOL     OW 4512   2.461   4.349   1.973 -0.7002  0.1018  0.5865
 1110SOL    HW2 4513   2.466   4.357   2.068 -1.1936 -0.3502  0.6575
 1110SOL    HW3 4514   2.550   4.328   1.946 -0.3155  1.3958  0.8255
 1110SOL    MW4 4515   2.473   4.347   1.982 -0.7143  0.2127  0.6275
 1111SOL     OW 4516   2.947   4.659   1.887 -0.3992 -0.2218  0.1534
 1111SOL    HW2 4517   3.036   4.688   1.906 -0.1125 -0.7429 -0.3823
 1111SOL    HW3 4518   2.939   4.575   1.934 -1.0129  0.4120  1.1889
 1111SOL    MW4 4519   2.958   4.651   1.896 -0.4425 -0.2069  0.2195
 1112SOL     OW 4520   2.692   0.110   1.989 -0.1097 -0.4711 -0.1445
 1112SOL    HW2 4521   2.691   0.102   2.084  1.8086  0.0230 -0.0645
 1112SOL    HW3 4522   2.772   0.065   1.962 -0.6746 -0.6720 -1.5364
 1112SOL    MW4 4523   2.703   0.103   1.998  0.0689 -0.4324 -0.3176
 1113SOL     OW 4524   2.685   0.362   1.860  0.1758 -0.1802 -0.2601
 1113SOL    HW2 4525   2.769   0.398   1.887 -0.3018  0.2403  0.6650
 1113SOL    HW3 4526   2.680   0.277   1.902 -0.1163  0.0440  0.1658
 1113SOL    MW4 4527   2.696   0.356   1.869  0.0741 -0.0951 -0.0818
 1114SOL     OW 4528   2.929   0.486   1.937 -0.1368  0.1954 -0.1282
 1114SOL    HW2 4529   3.014   0.445   1.921  0.2020  0.2596  1.4443
 1114SOL    HW3 4530   2.939   0.575   1.904  0.1756 -0.0025 -0.5778
 1114SOL    MW4 4531   2.942   0.492   1.930 -0.0508  0.1777  0.0198
 1115SOL     OW 4532   2.942   0.741   1.855  0.2704 -0.1306 -0.3546
 1115SOL    HW2 4533   3.019   0.789   1.886  0.8768 -1.7008  0.6547
 1115SOL    HW3 4534   2.868   0.797   1.878  1.0487  1.0128 -0.5702
 1115SOL    MW4 4535   2.942   0.755   1.862  0.4532 -0.1869 -0.2499
 1116SOL     OW 4536   2.723   0.895   1.980 -0.0890 -0.0762 -0.3877
 1116SOL    HW2 4537   2.724   0.982   1.941  0.6311  0.0900 -0.0105
 1116SOL    HW3 4538   2.645   0.853   1.943 -1.2494  1.2249  0.5088
 1116SOL    MW4 4539   2.713   0.901   1.970 -0.1471  0.1174 -0.2195
 1117SOL     OW 4540   2.714   1.153   1.897 -0.1184 -0.7159  0.2287
 1117SOL    HW2 4541   2.624   1.169   1.926 -1.1317 -1.6226 -2.2283
 1117SOL    HW3 4542   2.713   1.178   1.804  2.2344 -0.5505  0.2213
 1117SOL    MW4 4543   2.702   1.159   1.888  0.0584 -0.8137 -0.0966
 1118SOL     OW 4544   2.907   1.296   2.026  0.2577 -0.1809  0.5410
 1118SOL    HW2 4545   2.910   1.380   1.982  1.4910  0.0284  0.9952
 1118SOL    HW3 4546   2.834   1.249   1.985  0.7157  0.4051 -0.9737
 1118SOL    MW4 4547   2.898   1.301   2.015  0.4807 -0.0759  0.4015
 1119SOL     OW 4548   2.934   1.544   1.871 -0.3588  0.1252 -0.1816
 1119SOL    HW2 4549   3.013   1.573   1.917  0.2297 -0.0688 -1.0458
 1119SOL    HW3 4550   2.959   1.543   1.779 -1.0653 -0.8963 -0.3787
 1119SOL    MW4 4551   2.948   1.548   1.865 -0.3743 -0.0352 -0.3216
 1120SOL     OW 4552   2.692   1.632   1.978 -0.2397 -0.3175 -0.1005
 1120SOL    HW2 4553   2.776   1.599   1.945  0.0292 -0.2651  0.5217
 1120SOL    HW3 4554   2.630   1.563   1.958 -0.0991 -0.2346 -0.8220
 1120SOL    MW4 4555   2.695   1.618   1.971 -0.1855 -0.2996 -0.1137
 1121SOL     OW 4556   2.687   1.863   1.837  0.5450  0.0783 -0.2721
 1121SOL    HW2 4557   2.753   1.912   1.885  0.2812 -0.5026  0.6946
 1121SOL    HW3 4558   2.677   1.781   1.885  2.1346 -1.6585 -2.7492
 1121SOL    MW4 4559   2.694   1.859   1.849  0.7198 -0.2276 -0.4712
 1122SOL     OW 4560   2.881   2.031   1.945 -0.0861 -0.3822 -0.1921
 1122SOL    HW2 4561   2.894   2.025   2.039 -0.2029 -0.6827 -0.1920
 1122SOL    HW3 4562   2.956   1.985   1.907 -0.5832 -1.1960 -0.2159
 1122SOL    MW4 4563   2.892   2.024   1.952 -0.1671 -0.5291 -0.1950
 1123SOL     OW 4564   2.915   2.290   1.850  0.3484 -0.3624 -0.2426
 1123SOL    HW2 4565   2.999   2.328   1.877 -0.2625  0.0282  1.1468
 1123SOL    HW3 4566   2.909   2.208   1.899  0.3326 -0.8261 -1.0226
 1123SOL    MW4 4567   2.925   2.284   1.860  0.2656 -0.3719 -0.1621
 1124SOL     OW 4568   2.716   2.455   1.920  0.0178 -0.4905 -0.3618
 1124SOL    HW2 4569   2.740   2.545   1.901 -0.0784 -0.2415  0.6682
 1124SOL    HW3 4570   2.797   2.405   1.906  0.1801 -0.1850 -0.5076
 1124SOL    MW4 4571   2.730   2.460   1.916  0.0267 -0.4172 -0.2452
 1125SOL     OW 4572   2.719   2.743   1.887  0.2350  0.3396 -0.2147
 1125SOL    HW2 4573   2.629   2.751   1.919  0.3329 -0.6120  0.3146
 1125SOL    HW3 4574   2.710   2.721   1.794 -0.0755  0.6671 -0.2619
 1125SOL    MW4 4575   2.706   2.741   1.879  0.2067  0.2573 -0.1510
 1126SOL     OW 4576   2.955   2.848   1.955 -0.0960 -0.0884 -0.1173
 1126SOL    HW2 4577   2.978   2.922   1.899 -0.3636 -0.5561 -0.8442
 1126SOL    HW3 4578   2.866   2.825   1.929 -0.0885 -0.5408  0.2496
 1126SOL    MW4 4579   2.946   2.855   1.944 -0.1302 -0.2098 -0.1647
 1127SOL     OW 4580   2.900   3.130   1.852 -0.0248  0.3618  0.2676
 1127SOL    HW2 4581   2.985   3.141   1.893 -0.4969  0.0144  1.3469
 1127SOL    HW3 4582   2.838   3.174   1.910 -0.5573  0.8086 -0.6230
 1127SOL    MW4 4583   2.903   3.137   1.865 -0.1574  0.3748  0.2925
 1128SOL     OW 4584   2.686   3.271   2.003  0.0887 -0.2794 -0.4755
 1128SOL    HW2 4585   2.672   3.348   1.949 -1.1107  0.8104  1.3272
 1128SOL    HW3 4586   2.632   3.203   1.963 -0.4896  0.4028 -0.8610
 1128SOL    MW4 4587   2.677   3.272   1.991 -0.1457 -0.0458 -0.2885
 1129SOL     OW 4588   2.686   3.506   1.872  0.0082  0.1069  0.0154
 1129SOL    HW2 4589   2.752   3.535   1.936 -0.1972 -0.5974  0.5452
 1129SOL    HW3 4590   2.604   3.545   1.903  0.0203  0.2927 -0.1808
 1129SOL    MW4 4591   2.684   3.515   1.885 -0.0174  0.0384  0.0594
 1130SOL     OW 4592   2.906   3.576   2.028  0.3638  0.0697 -0.0095
 1130SOL    HW2 4593   2.924   3.579   2.122 -0.6744  1.1010  0.1714
 1130SOL    HW3 4594   2.979   3.527   1.991  1.3065  0.5330  1.2055
 1130SOL    MW4 4595   2.918   3.570   2.035  0.3514  0.2670  0.1748
 1131SOL     OW 4596   2.877   3.828   1.886  0.2181 -0.0158  0.6175
 1131SOL    HW2 4597   2.889   3.744   1.930  0.0070 -0.7043 -0.6157
 1131SOL    HW3 4598   2.900   3.810   1.795  1.9093  1.7085  0.6845
 1131SOL    MW4 4599   2.882   3.814   1.880  0.4134  0.1209  0.4637
 1132SOL     OW 4600   2.666   3.988   1.994  0.0686  0.0962  0.1365
 1132SOL    HW2 4601   2.736   3.941   1.949  0.7517  1.4678 -0.2511
 1132SOL    HW3 4602   2.586   3.940   1.971  0.7058 -0.6554 -0.5431
 1132SOL    MW4 4603   2.665   3.975   1.985  0.2427  0.1781 -0.0043
 1133SOL     OW 4604   2.715   4.258   1.891  0.0375 -0.0341 -0.0778
 1133SOL    HW2 4605   2.702   4.172   1.933  2.2753 -0.1085  0.5072
 1133SOL    HW3 4606   2.710   4.240   1.798 -2.9963 -0.1976  0.0513
 1133SOL    MW4 4607   2.712   4.244   1.885 -0.0677 -0.0653  0.0163
 1134SOL     OW 4608   2.914   4.417   1.997  0.3408  0.0615 -0.2833
 1134SOL    HW2 4609   2.902   4.391   2.089  0.4522  0.0817 -0.2625
 1134SOL    HW3 4610   2.846   4.369   1.950  0.1625  0.1967 -0.1653
 1134SOL    MW4 4611   2.903   4.407   2.003  0.3319  0.0825 -0.2651
 1135SOL     OW 4612   3.395   4.609   1.897  0.0102  0.6645  0.3818
 1135SOL    HW2 4613   3.378   4.518   1.923  0.0432  0.7122  0.5716
 1135SOL    HW3 4614   3.394   4.607   1.801 -0.6930  0.6002  0.3885
 1135SOL    MW4 4615   3.392   4.597   1.888 -0.0782  0.6628  0.4078
 1136SOL     OW 4616   3.186   0.115   1.948 -0.2126 -0.2922 -0.2037
 1136SOL    HW2 4617   3.166   0.098   2.040  1.6808  1.6107  0.5981
 1136SOL    HW3 4618   3.252   0.050   1.925  0.2481  0.0280  0.1852
 1136SOL    MW4 4619   3.192   0.104   1.957  0.0980  0.0011 -0.0466
 1137SOL     OW 4620   3.176   0.373   1.858 -0.3878 -0.0391 -0.0791
 1137SOL    HW2 4621   3.189   0.280   1.877  0.9069 -0.0681 -1.0572
 1137SOL    HW3 4622   3.157   0.376   1.764  0.7421  0.7911 -0.2897
 1137SOL    MW4 4623   3.175   0.361   1.848 -0.0677  0.0666 -0.2359
 1138SOL     OW 4624   3.381   0.515   1.985 -0.0974  0.1698  0.1467
 1138SOL    HW2 4625   3.463   0.472   1.963 -0.2218  0.2216 -0.4376
 1138SOL    HW3 4626   3.314   0.462   1.943 -0.2068  1.2295 -1.0635
 1138SOL    MW4 4627   3.383   0.503   1.977 -0.1283  0.3164 -0.0901
 1139SOL     OW 4628   3.381   0.765   1.848 -0.7007 -0.2087  0.0771
 1139SOL    HW2 4629   3.304   0.817   1.872 -0.6008 -0.6576  1.4285
 1139SOL    HW3 4630   3.376   0.688   1.904  1.2116  0.1767  0.8023
 1139SOL    MW4 4631   3.370   0.762   1.858 -0.4354 -0.2170  0.3511
 1140SOL     OW 4632   3.172   0.895   1.953 -0.7978 -0.3614  0.1752
 1140SOL    HW2 4633   3.160   0.904   2.047  0.5934 -0.4332  0.3672
 1140SOL    HW3 4634   3.147   0.981   1.917 -1.9466 -0.5408  0.5346
 1140SOL    MW4 4635   3.167   0.908   1.960 -0.7656 -0.3946  0.2481
 1141SOL     OW 4636   3.118   1.159   1.868 -0.7633 -0.1115 -0.3211
 1141SOL    HW2 4637   3.207   1.188   1.885 -0.6962  0.3524 -1.4227
 1141SOL    HW3 4638   3.064   1.207   1.930 -0.2760 -0.1749  0.1490
 1141SOL    MW4 4639   3.123   1.169   1.878 -0.6900 -0.0587 -0.4045
 1142SOL     OW 4640   3.377   1.250   1.926  0.2903  0.3132  0.5771
 1142SOL    HW2 4641   3.385   1.244   2.021 -0.4806  0.8777  0.6855
 1142SOL    HW3 4642   3.384   1.344   1.907  1.2054  0.1365 -0.0049
 1142SOL    MW4 4643   3.379   1.262   1.936  0.3092  0.3643  0.5146
 1143SOL     OW 4644   3.390   1.512   1.848  0.1085 -0.0043  0.7560
 1143SOL    HW2 4645   3.471   1.533   1.895  0.0040  1.3548  0.3468
 1143SOL    HW3 4646   3.323   1.564   1.891 -0.1192  0.6767 -0.3926
 1143SOL    MW4 4647   3.392   1.522   1.860  0.0648  0.2649  0.5505
 1144SOL     OW 4648   3.178   1.637   1.978  0.7433  0.1388  0.5761
 1144SOL    HW2 4649   3.160   1.651   2.071  1.5960  0.1293  0.7442
 1144SOL    HW3 4650   3.157   1.721   1.937  1.1224  0.3889  0.8905
 1144SOL    MW4 4651   3.172   1.650   1.985  0.9055  0.1706  0.6397
 1145SOL     OW 4652   3.133   1.890   1.841  0.1154 -0.1839  0.5947
 1145SOL    HW2 4653   3.203   1.940   1.883  0.1458  0.3512 -0.0888
 1145SOL    HW3 4654   3.153   1.894   1.748 -0.7981 -0.0818  0.4041
 1145SOL    MW4 4655   3.145   1.897   1.835 -0.0012 -0.0998  0.4793
 1146SOL     OW 4656   3.359   1.991   1.968 -0.3399 -0.1046  0.1459
 1146SOL    HW2 4657   3.433   1.934   1.949  0.7139  1.3481 -0.1261
 1146SOL    HW3 4658   3.389   2.079   1.946 -1.7968  0.6301  0.9918
 1146SOL    MW4 4659   3.373   1.995   1.962 -0.3929  0.1839  0.2215
 1147SOL     OW 4660   3.377   2.259   1.879  0.0862 -0.2223  0.0084
 1147SOL    HW2 4661   3.293   2.284   1.919 -0.2543 -1.5201  0.0993
 1147SOL    HW3 4662   3.366   2.281   1.786  0.1071  0.7837  0.2345
 1147SOL    MW4 4663   3.364   2.266   1.872  0.0441 -0.2608  0.0503
 1148SOL     OW 4664   3.144   2.386   1.970 -0.0408 -0.0004  0.5726
 1148SOL    HW2 4665   3.158   2.393   2.065 -1.3628  0.2192  0.7558
 1148SOL    HW3 4666   3.150   2.476   1.938  0.2709 -0.0597  0.4554
 1148SOL    MW4 4667   3.147   2.399   1.978 -0.1740  0.0210  0.5813
 1149SOL     OW 4668   3.141   2.662   1.890  0.0550 -0.0632  0.2731
 1149SOL    HW2 4669   3.067   2.713   1.922 -0.8821 -1.8786  1.1107
 1149SOL    HW3 4670   3.135   2.667   1.794 -0.9403  0.0918  0.3435
 1149SOL    MW4 4671   3.131   2.669   1.881 -0.2003 -0.2820  0.3929
 1150SOL     OW 4672   3.375   2.762   2.004  0.4451 -0.2546  0.1574
 1150SOL    HW2 4673   3.358   2.766   2.098  1.6523  0.6977  0.3399
 1150SOL    HW3 4674   3.292   2.731   1.967 -0.7820  1.5841  1.3064
 1150SOL    MW4 4675   3.362   2.758   2.012  0.4425  0.1140  0.3328
 1151SOL     OW 4676   3.351   3.040   1.915  0.3360  0.0819  0.0143
 1151SOL    HW2 4677   3.431   3.090   1.935 -0.6131  0.4658  3.2181
 1151SOL    HW3 4678   3.366   2.955   1.957 -0.1348 -0.5305 -1.0563
 1151SOL    MW4 4679   3.364   3.035   1.923  0.1488  0.0520  0.2956
 1152SOL     OW 4680   3.124   3.181   2.008 -0.3972  0.1827 -0.0015
 1152SOL    HW2 4681   3.120   3.269   1.970  0.8332 -0.1044 -0.8258
 1152SOL    HW3 4682   3.204   3.144   1.972 -0.8611 -1.2408  0.4341
 1152SOL    MW4 4683   3.134   3.188   1.998 -0.2959 -0.0429 -0.0528
 1153SOL     OW 4684   3.135   3.455   1.905  0.4523  0.0495 -0.0263
 1153SOL    HW2 4685   3.202   3.519   1.930 -0.2575  0.7054  0.2129
 1153SOL    HW3 4686   3.138   3.453   1.810  0.1674  0.7714 -0.0510
 1153SOL    MW4 4687   3.144   3.463   1.896  0.3211  0.2313  0.0020
 1154SOL     OW 4688   3.339   3.613   1.992 -0.1593  0.4036 -0.0054
 1154SOL    HW2 4689   3.415   3.565   1.959  1.1239  0.6731  2.4086
 1154SOL    HW3 4690   3.354   3.703   1.963 -0.3906  0.1565 -0.9071
 1154SOL    MW4 4691   3.351   3.618   1.984 -0.0205  0.4065  0.1941
 1155SOL     OW 4692   3.385   3.878   1.891  0.1313 -0.4759 -0.0292
 1155SOL    HW2 4693   3.296   3.911   1.892  1.1167  2.2651  0.8998
 1155SOL    HW3 4694   3.407   3.871   1.798  0.4149  3.0585 -0.2857
 1155SOL    MW4 4695   3.376   3.881   1.879  0.2987  0.3521  0.0596
 1156SOL     OW 4696   3.121   3.983   1.963 -0.2426  0.0709  0.0966
 1156SOL    HW2 4697   3.130   3.978   2.059 -0.4668 -0.6969  0.0867
 1156SOL    HW3 4698   3.043   3.929   1.945 -1.4764  1.9462 -0.3135
 1156SOL    MW4 4699   3.112   3.975   1.974 -0.4351  0.2170  0.0412
 1157SOL     OW 4700   3.128   4.255   1.878  0.9744 -0.1400  0.5502
 1157SOL    HW2 4701   3.121   4.167   1.914 -0.5826 -0.6608 -0.9399
 1157SOL    HW3 4702   3.054   4.302   1.917  0.4243 -0.1683 -0.4367
 1157SOL    MW4 4703   3.117   4.250   1.888  0.6967 -0.2122  0.2235
 1158SOL     OW 4704   3.349   4.355   1.995  0.1049  0.7491 -0.6788
 1158SOL    HW2 4705   3.425   4.314   1.953  0.3337 -0.6625  1.0540
 1158SOL    HW3 4706   3.274   4.313   1.955  0.3051 -0.0377 -0.2328
 1158SOL    MW4 4707   3.349   4.344   1.985  0.1614  0.4592 -0.3915
 1159SOL     OW 4708   3.808   4.640   1.840 -0.1808  0.1965 -0.0771
 1159SOL    HW2 4709   3.806   4.557   1.888  0.8751 -0.9964 -2.0104
 1159SOL    HW3 4710   3.745   4.696   1.885 -1.1268 -1.7546  1.0782
 1159SOL    MW4 4711   3.800   4.637   1.852 -0.1662 -0.2184 -0.1798
 1160SOL     OW 4712   3.598   0.121   1.981  0.0199 -0.6510  0.0602
 1160SOL    HW2 4713   3.605   0.119   2.077 -2.6177 -1.7546  0.2706
 1160SOL    HW3 4714   3.516   0.076   1.962  0.3843 -0.2279 -2.7339
 1160SOL    MW4 4715   3.588   0.115   1.991 -0.2801 -0.7408 -0.2807
 1161SOL     OW 4716   3.592   0.384   1.876 -0.1416 -0.2174  0.5736
 1161SOL    HW2 4717   3.595   0.298   1.918  1.8637 -0.4425  0.0269
 1161SOL    HW3 4718   3.570   0.366   1.785  0.6015 -0.1835  0.3858
 1161SOL    MW4 4719   3.590   0.371   1.870  0.2210 -0.2426  0.4767
 1162SOL     OW 4720   3.823   0.503   1.983  0.0085  0.7628 -0.5549
 1162SOL    HW2 4721   3.827   0.591   1.947 -0.9709  0.9821 -0.1545
 1162SOL    HW3 4722   3.738   0.469   1.955  0.5460 -0.2071 -1.0416
 1162SOL    MW4 4723   3.812   0.510   1.975 -0.0498  0.6638 -0.5662
 1163SOL     OW 4724   3.819   0.758   1.887 -0.2713  0.3601  0.6118
 1163SOL    HW2 4725   3.743   0.800   1.927  0.2369  1.0796  0.8199
 1163SOL    HW3 4726   3.799   0.756   1.794 -0.8518 -0.0914  0.7381
 1163SOL    MW4 4727   3.806   0.763   1.880 -0.2809  0.3955  0.6560
 1164SOL     OW 4728   3.603   0.890   1.971  0.0502 -0.2745  0.3221
 1164SOL    HW2 4729   3.604   0.978   1.934 -0.0106 -0.3782  0.0693
 1164SOL    HW3 4730   3.521   0.852   1.941  0.6634 -0.8659 -0.6471
 1164SOL    MW4 4731   3.593   0.896   1.962  0.1230 -0.3663  0.1608
 1165SOL     OW 4732   3.626   1.140   1.882 -0.2583  0.0042 -0.0998
 1165SOL    HW2 4733   3.546   1.190   1.895 -2.3725 -3.7725  2.0946
 1165SOL    HW3 4734   3.641   1.141   1.788 -3.3277  0.1076 -0.6060
 1165SOL    MW4 4735   3.618   1.147   1.871 -0.9425 -0.4804  0.1229
 1166SOL     OW 4736   3.833   1.300   1.972 -0.4191  0.4883 -0.2662
 1166SOL    HW2 4737   3.822   1.303   2.067  1.9242 -0.9971  0.0993
 1166SOL    HW3 4738   3.766   1.239   1.942 -0.1626 -0.2725  0.6566
 1166SOL    MW4 4739   3.823   1.292   1.980 -0.0761  0.1919 -0.0961
 1167SOL     OW 4740   3.841   1.554   1.856 -0.0529  0.1489  0.2307
 1167SOL    HW2 4741   3.912   1.605   1.895  0.3184 -0.2339  0.0557
 1167SOL    HW3 4742   3.844   1.469   1.900 -1.2841  0.5913  1.2032
 1167SOL    MW4 4743   3.851   1.550   1.867 -0.1664  0.1569  0.3359
 1168SOL     OW 4744   3.607   1.626   1.980 -0.2303  0.0273 -0.1791
 1168SOL    HW2 4745   3.600   1.718   1.953 -1.4455 -0.0597 -0.1821
 1168SOL    HW3 4746   3.696   1.601   1.955  0.1177  1.2024 -0.1736
 1168SOL    MW4 4747   3.618   1.635   1.973 -0.3445  0.1709 -0.1788
 1169SOL     OW 4748   3.605   1.895   1.879  0.3335 -0.6871  0.2624
 1169SOL    HW2 4749   3.678   1.953   1.900  1.2351 -1.4306 -0.7775
 1169SOL    HW3 4750   3.602   1.893   1.784 -0.9219 -0.8192  0.2938
 1169SOL    MW4 4751   3.614   1.902   1.870  0.2866 -0.8025  0.1293
 1170SOL     OW 4752   3.814   2.054   1.962  0.0494 -0.1678  0.0951
 1170SOL    HW2 4753   3.816   2.063   2.058  1.2980 -2.2881  0.3055
 1170SOL    HW3 4754   3.832   2.142   1.930 -0.1406  0.5333  1.8196
 1170SOL    MW4 4755   3.817   2.067   1.971  0.1891 -0.3552  0.3505
 1171SOL     OW 4756   3.840   2.322   1.877 -0.0946  0.2183 -0.0572
 1171SOL    HW2 4757   3.907   2.377   1.917 -0.2601  0.4483 -0.0980
 1171SOL    HW3 4758   3.757   2.364   1.901 -0.1728  0.6194 -1.0392
 1171SOL    MW4 4759   3.838   2.335   1.886 -0.1268  0.3016 -0.1922
 1172SOL     OW 4760   3.593   2.415   1.979 -0.1118  0.3786  0.5685
 1172SOL    HW2 4761   3.603   2.505   1.947  0.5183 -0.2293 -0.9890
 1172SOL    HW3 4762   3.521   2.379   1.928  1.6749 -0.9864 -1.0825
 1172SOL    MW4 4763   3.585   2.422   1.968  0.2072  0.1185  0.1452
 1173SOL     OW 4764   3.614   2.698   1.886  0.0653  0.6421 -0.1231
 1173SOL    HW2 4765   3.687   2.749   1.922  1.5891 -1.3031 -0.3768
 1173SOL    HW3 4766   3.537   2.731   1.933  1.4137  1.2215  1.7690
 1173SOL    MW4 4767   3.613   2.709   1.897  0.4442  0.4621  0.0932
 1174SOL     OW 4768   3.822   2.863   2.001  0.1300  0.3389  0.1699
 1174SOL    HW2 4769   3.813   2.861   2.096  0.3231  0.7780  0.2004
 1174SOL    HW3 4770   3.805   2.955   1.978 -0.6326  0.0915 -0.2895
 1174SOL    MW4 4771   3.818   2.875   2.011  0.0548  0.3641  0.1130
 1175SOL     OW 4772   3.790   3.119   1.899  0.0847 -0.0790  0.3377
 1175SOL    HW2 4773   3.704   3.157   1.916 -0.2551 -0.1679 -1.1780
 1175SOL    HW3 4774   3.788   3.093   1.807  1.3900 -0.9780  0.5485
 1175SOL    MW4 4775   3.779   3.121   1.889  0.2120 -0.2093  0.1656
 1176SOL     OW 4776   3.553   3.216   1.967 -0.0150 -0.0044 -0.1015
 1176SOL    HW2 4777   3.563   3.233   2.061  2.5378 -0.1424 -0.3069
 1176SOL    HW3 4778   3.551   3.303   1.927  1.8219  0.0203 -0.1628
 1176SOL    MW4 4779   3.554   3.230   1.974  0.5641 -0.0193 -0.1366
 1177SOL     OW 4780   3.566   3.484   1.898  0.1901 -0.3569  0.4744
 1177SOL    HW2 4781   3.640   3.536   1.930  0.2694  0.7046 -1.3678
 1177SOL    HW3 4782   3.575   3.485   1.802 -1.3445 -1.4974  0.2955
 1177SOL    MW4 4783   3.577   3.491   1.889 -0.0019 -0.3672  0.2078
 1178SOL     OW 4784   3.806   3.611   1.965  0.1418  0.1056  0.1327
 1178SOL    HW2 4785   3.889   3.582   1.927  0.2298  1.1710 -0.5147
 1178SOL    HW3 4786   3.807   3.706   1.955  0.2136  0.4495  2.8962
 1178SOL    MW4 4787   3.817   3.620   1.959  0.1628  0.2913  0.4120
 1179SOL     OW 4788   3.803   3.862   1.861 -0.0301  0.2890  0.2373
 1179SOL    HW2 4789   3.718   3.897   1.889  0.1098  0.2777  0.6948
 1179SOL    HW3 4790   3.799   3.859   1.766 -0.6001  0.1381  0.2694
 1179SOL    MW4 4791   3.792   3.866   1.852 -0.0868  0.2675  0.3021
 1180SOL     OW 4792   3.604   3.995   1.983 -0.2527  0.0666 -0.9405
 1180SOL    HW2 4793   3.607   3.978   2.077  0.7641  0.3716 -0.9076
 1180SOL    HW3 4794   3.519   3.962   1.955 -0.6560  0.1821  0.1279
 1180SOL    MW4 4795   3.593   3.988   1.992 -0.1717  0.1221 -0.7952
 1181SOL     OW 4796   3.570   4.250   1.878  0.0076  0.2943  0.4363
 1181SOL    HW2 4797   3.644   4.303   1.908 -0.7728  1.0525  1.0168
 1181SOL    HW3 4798   3.578   4.168   1.927  1.2212 -0.1613 -0.4752
 1181SOL    MW4 4799   3.581   4.246   1.888  0.0648  0.3338  0.3927
 1182SOL     OW 4800   3.816   4.391   1.971 -0.1237 -0.1532  0.3805
 1182SOL    HW2 4801   3.832   4.394   2.065 -0.3705 -1.0812  0.4561
 1182SOL    HW3 4802   3.890   4.342   1.936  0.0168  0.2732  0.0808
 1182SOL    MW4 4803   3.828   4.385   1.979 -0.1378 -0.2193  0.3508
 1183SOL     OW 4804   4.241   4.650   1.867  0.4737  0.5810  0.2679
 1183SOL    HW2 4805   4.165   4.698   1.900 -1.0466 -0.6773 -1.3522
 1183SOL    HW3 4806   4.315   4.687   1.915 -1.2501  1.2466  2.4860
 1183SOL    MW4 4807   4.241   4.661   1.878  0.0453  0.5026  0.3468
 1184SOL     OW 4808   4.011   0.103   1.969 -0.0714  0.4383 -0.1268
 1184SOL    HW2 4809   3.997   0.096   2.063 -1.4114  2.0626 -0.1817
 1184SOL    HW3 4810   3.940   0.051   1.930 -0.0275  0.4699 -0.2497
 1184SOL    MW4 4811   4.000   0.095   1.976 -0.2422  0.6568 -0.1502
 1185SOL     OW 4812   4.061   0.369   1.852 -0.3562  0.0307  0.2336
 1185SOL    HW2 4813   4.061   0.285   1.898 -1.0126  0.5263  1.1667
 1185SOL    HW3 4814   3.993   0.420   1.896  0.5360  1.3129  0.1485
 1185SOL    MW4 4815   4.052   0.364   1.864 -0.3247  0.2653  0.3453
 1186SOL     OW 4816   4.292   0.512   1.936 -0.1559 -0.2107 -0.1721
 1186SOL    HW2 4817   4.276   0.521   2.030 -0.2877 -1.7156 -0.0420
 1186SOL    HW3 4818   4.212   0.472   1.902 -0.0025  0.0890 -0.8834
 1186SOL    MW4 4819   4.280   0.508   1.944 -0.1535 -0.3698 -0.2487
 1187SOL     OW 4820   4.280   0.789   1.918 -0.5892 -0.2170  0.5458
 1187SOL    HW2 4821   4.295   0.694   1.922  1.5140  0.0602 -0.3563
 1187SOL    HW3 4822   4.264   0.807   1.826  1.1156  0.6150  0.4098
 1187SOL    MW4 4823   4.280   0.779   1.907 -0.0868 -0.0706  0.4089
 1188SOL     OW 4824   4.039   0.906   1.960 -0.2549  0.1048  0.6721
 1188SOL    HW2 4825   4.123   0.861   1.947 -0.8198 -1.1172  1.1085
 1188SOL    HW3 4826   3.975   0.851   1.915 -0.6815  1.6102 -0.5921
 1188SOL    MW4 4827   4.042   0.893   1.953 -0.3853  0.1422  0.5629
 1189SOL     OW 4828   4.064   1.164   1.861  0.0015  0.2845  0.0709
 1189SOL    HW2 4829   4.055   1.076   1.896  1.2572 -0.3117 -1.0507
 1189SOL    HW3 4830   3.986   1.211   1.892 -0.7793 -1.2695  0.4919
 1189SOL    MW4 4831   4.052   1.159   1.870  0.0648  0.0007 -0.0216
 1190SOL     OW 4832   4.275   1.341   2.006  0.0061 -0.5981  0.4359
 1190SOL    HW2 4833   4.274   1.332   2.102 -0.9844  0.5843  0.5459
 1190SOL    HW3 4834   4.202   1.285   1.977  0.9017 -1.7134  0.2838
 1190SOL    MW4 4835   4.265   1.332   2.015 -0.0062 -0.5893  0.4303
 1191SOL     OW 4836   4.274   1.586   1.887  0.7420 -0.0094  0.2205
 1191SOL    HW2 4837   4.281   1.500   1.927  2.0426 -0.2881 -0.5594
 1191SOL    HW3 4838   4.273   1.569   1.793 -0.0021  0.7660  0.0820
 1191SOL    MW4 4839   4.275   1.573   1.880  0.8154  0.0561  0.0994
 1192SOL     OW 4840   4.044   1.705   1.974 -0.4036 -0.3637  0.4789
 1192SOL    HW2 4841   4.048   1.714   2.069  0.7555  2.7280  0.2103
 1192SOL    HW3 4842   4.127   1.664   1.950  0.2002  0.7246  0.6618
 1192SOL    MW4 4843   4.055   1.701   1.984 -0.1712  0.1878  0.4677
 1193SOL     OW 4844   4.054   1.957   1.833 -0.1336  0.0330 -0.1170
 1193SOL    HW2 4845   3.969   1.989   1.864 -1.2143 -0.8939 -1.9914
 1193SOL    HW3 4846   4.059   1.867   1.865 -0.4954 -0.3653 -1.1424
 1193SOL    MW4 4847   4.043   1.949   1.841 -0.3238 -0.1420 -0.4995
 1194SOL     OW 4848   4.271   2.069   1.955 -0.2320  0.1789 -0.0481
 1194SOL    HW2 4849   4.263   2.077   2.050  2.2241 -2.2846  0.4271
 1194SOL    HW3 4850   4.181   2.054   1.925 -1.1269  1.6929  1.7666
 1194SOL    MW4 4851   4.258   2.068   1.963 -0.0262  0.0534  0.2540
 1195SOL     OW 4852   4.286   2.342   1.900 -0.3787  0.2239  0.2123
 1195SOL    HW2 4853   4.296   2.249   1.919 -1.5375  0.2287  0.9260
 1195SOL    HW3 4854   4.351   2.385   1.955 -0.6732 -0.0839  0.8079
 1195SOL    MW4 4855   4.296   2.335   1.909 -0.5703  0.1841  0.3852
 1196SOL     OW 4856   4.045   2.480   1.970 -0.1481 -0.5209 -0.0548
 1196SOL    HW2 4857   4.036   2.486   2.065 -1.4120  0.5737 -0.2326
 1196SOL    HW3 4858   4.128   2.434   1.957  0.7936  0.6376  1.5775
 1196SOL    MW4 4859   4.055   2.475   1.981 -0.1903 -0.2236  0.1371
 1197SOL     OW 4860   4.036   2.737   1.897 -0.0649  0.0494  0.0697
 1197SOL    HW2 4861   4.046   2.650   1.935  0.5567 -0.1868 -0.6465
 1197SOL    HW3 4862   3.957   2.772   1.939 -0.1728 -0.7569  0.5418
 1197SOL    MW4 4863   4.027   2.731   1.908  0.0033 -0.0882  0.0373
 1198SOL     OW 4864   4.269   2.899   1.972  0.1320  0.0320 -0.3935
 1198SOL    HW2 4865   4.263   2.889   2.067  2.6214 -1.1639 -0.3026
 1198SOL    HW3 4866   4.195   2.850   1.938 -0.8343  0.5516  0.9335
 1198SOL    MW4 4867   4.259   2.891   1.980  0.3328 -0.0572 -0.2065
 1199SOL     OW 4868   4.259   3.140   1.857  0.6005 -0.1529  0.8368
 1199SOL    HW2 4869   4.184   3.186   1.896  0.4851  0.6663 -0.3155
 1199SOL    HW3 4870   4.264   3.057   1.904 -0.6134  0.0803  1.3907
 1199SOL    MW4 4871   4.249   3.136   1.868  0.4249 -0.0143  0.7578
 1200SOL     OW 4872   4.012   3.247   1.975 -0.2782 -0.5005 -0.2342
 1200SOL    HW2 4873   4.014   3.255   2.070 -2.4081 -0.2884 -0.1813
 1200SOL    HW3 4874   3.937   3.191   1.957  0.6321 -1.2532 -1.7639
 1200SOL    MW4 4875   4.003   3.241   1.985 -0.4392 -0.5720 -0.4290
 1201SOL     OW 4876   4.042   3.495   1.858 -0.6185 -0.4404 -0.1591
 1201SOL    HW2 4877   4.114   3.541   1.901 -1.6707  1.4138 -0.3578
 1201SOL    HW3 4878   4.030   3.415   1.910  1.0000 -0.3563  0.3817
 1201SOL    MW4 4879   4.050   3.490   1.870 -0.5431 -0.1848 -0.1141
 1202SOL     OW 4880   4.222   3.662   1.984  0.1059 -0.0443  0.0677
 1202SOL    HW2 4881   4.231   3.746   1.940 -1.0457 -0.6966 -1.4940
 1202SOL    HW3 4882   4.308   3.621   1.976  0.0758  0.0893 -1.1463
 1202SOL    MW4 4883   4.235   3.667   1.977 -0.0501 -0.1128 -0.2984
 1203SOL     OW 4884   4.246   3.901   1.859  0.2365 -0.3139  0.5790
 1203SOL    HW2 4885   4.332   3.919   1.897  0.8208 -1.6724 -0.0639
 1203SOL    HW3 4886   4.260   3.907   1.764 -0.2995 -0.8599  0.4604
 1203SOL    MW4 4887   4.259   3.904   1.851  0.2432 -0.5651  0.4785
 1204SOL     OW 4888   4.019   4.028   1.945  0.0830  0.0544 -0.2360
 1204SOL    HW2 4889   4.097   3.982   1.914  0.0417 -1.1056  1.3388
 1204SOL    HW3 4890   3.946   3.973   1.918 -0.0189 -0.3551  0.8513
 1204SOL    MW4 4891   4.019   4.015   1.937  0.0648 -0.1521  0.1152
 1205SOL     OW 4892   4.019   4.277   1.842  0.0607 -0.2626 -0.1144
 1205SOL    HW2 4893   4.100   4.310   1.881 -0.6899 -0.9613  2.1322
 1205SOL    HW3 4894   4.011   4.187   1.876 -0.7228 -0.8356 -1.7679
 1205SOL    MW4 4895   4.028   4.269   1.852 -0.1416 -0.4306 -0.0361
 1206SOL     OW 4896   4.275   4.400   2.004 -0.9456 -0.1332 -0.1953
 1206SOL    HW2 4897   4.264   4.409   2.099 -2.3790 -0.5433 -0.3061
 1206SOL    HW3 4898   4.242   4.482   1.968 -1.8845 -0.5985 -0.4225
 1206SOL    MW4 4899   4.269   4.412   2.012 -1.2588 -0.2489 -0.2396
 1207SOL     OW 4900   0.227   0.012   2.372 -0.0791 -0.0704 -0.4351
 1207SOL    HW2 4901   0.233   0.014   2.468  1.8802 -0.5159 -0.5203
 1207SOL    HW3 4902   0.308   0.055   2.343  0.1012 -1.3820 -1.8866
 1207SOL    MW4 4903   0.239   0.018   2.381  0.2032 -0.3022 -0.6382
 1208SOL     OW 4904   0.012   0.128   2.252  0.4637  0.0391 -0.3872
 1208SOL    HW2 4905   0.087   0.084   2.292 -0.0281 -0.3189  0.1498
 1208SOL    HW3 4906   0.012   0.097   2.161  0.6055 -0.4430 -0.2287
 1208SOL    MW4 4907   0.021   0.118   2.245  0.4172 -0.0718 -0.2956
 1209SOL     OW 4908   0.016   0.395   2.359 -0.5448  0.3177  0.1788
 1209SOL    HW2 4909   0.097   0.439   2.334  0.7462 -1.9322  0.2830
 1209SOL    HW3 4910   0.028   0.305   2.330 -1.8443 -0.7203  2.7648
 1209SOL    MW4 4911   0.028   0.389   2.352 -0.5459 -0.1162  0.5338
 1210SOL     OW 4912   0.244   0.536   2.282  0.1933  0.5942 -0.0576
 1210SOL    HW2 4913   0.332   0.514   2.310  0.7838  1.8076 -0.8982
 1210SOL    HW3 4914   0.249   0.541   2.187 -1.1756 -0.9326 -0.2353
 1210SOL    MW4 4915   0.256   0.534   2.273  0.0906  0.5528 -0.1919
 1211SOL     OW 4916   0.193   0.789   2.355 -0.3746  0.1110  0.1843
 1211SOL    HW2 4917   0.186   0.791   2.451 -0.2380  1.6395  0.1720
 1211SOL    HW3 4918   0.207   0.697   2.334 -0.3637 -0.2323  1.6415
 1211SOL    MW4 4919   0.194   0.777   2.365 -0.3552  0.2673  0.3750
 1212SOL     OW 4920   4.445   0.896   2.235 -0.0009 -0.1369 -0.1269
 1212SOL    HW2 4921   4.517   0.843   2.269 -1.3586 -2.1290 -0.2376
 1212SOL    HW3 4922   4.468   0.909   2.142  1.4270  1.3866  0.4142
 1212SOL    MW4 4923   4.458   0.891   2.227  0.0086 -0.1988 -0.0703
 1213SOL     OW 4924   0.020   1.160   2.334  0.7721  0.4777 -0.2645
 1213SOL    HW2 4925   0.022   1.169   2.429  0.1975 -0.7730 -0.1243
 1213SOL    HW3 4926  -0.003   1.069   2.319  0.6406  0.7200 -1.6101
 1213SOL    MW4 4927   0.017   1.149   2.345  0.6790  0.3448 -0.4237
 1214SOL     OW 4928   0.238   1.319   2.251 -0.0661 -0.1158  0.0079
 1214SOL    HW2 4929   0.164   1.263   2.272 -0.1663 -0.1624 -0.4755
 1214SOL    HW3 4930   0.242   1.321   2.155 -0.0266  0.6535  0.0159
 1214SOL    MW4 4931   0.229   1.312   2.241 -0.0741 -0.0205 -0.0551
 1215SOL     OW 4932   0.239   1.574   2.377  0.1256 -0.0460  0.0443
 1215SOL    HW2 4933   0.240   1.551   2.470 -0.0102  0.1297  0.0911
 1215SOL    HW3 4934   0.233   1.491   2.331 -1.5753 -0.0570  0.2404
 1215SOL    MW4 4935   0.238   1.560   2.383 -0.1168 -0.0242  0.0763
 1216SOL     OW 4936   0.000   1.706   2.288  0.6877  0.4174 -0.1569
 1216SOL    HW2 4937   0.002   1.797   2.318 -0.3174 -0.1242  1.6478
 1216SOL    HW3 4938   0.085   1.670   2.316 -0.5366 -0.2907  2.8697
 1216SOL    MW4 4939   0.012   1.713   2.296  0.3934  0.2525  0.4807
 1217SOL     OW 4940   4.487   1.966   2.361 -0.2485  0.1206 -0.2465
 1217SOL    HW2 4941   4.407   2.000   2.321 -0.2079  0.7611  0.2100
 1217SOL    HW3 4942   4.555   2.028   2.336  0.0679 -0.2923 -0.4310
 1217SOL    MW4 4943   4.485   1.978   2.352 -0.2014  0.1507 -0.2105
 1218SOL     OW 4944   0.238   2.082   2.294 -0.5461 -0.5107  0.4251
 1218SOL    HW2 4945   0.313   2.035   2.331  0.3508  2.5316  2.7116
 1218SOL    HW3 4946   0.259   2.091   2.201  0.9040 -1.5744  0.6297
 1218SOL    MW4 4947   0.251   2.077   2.286 -0.2365 -0.2496  0.7539
 1219SOL     OW 4948   0.207   2.360   2.353 -0.5662 -0.0439 -0.5587
 1219SOL    HW2 4949   0.223   2.356   2.447  0.6799  0.8376 -0.7360
 1219SOL    HW3 4950   0.222   2.270   2.323  1.5193  0.2103 -0.3155
 1219SOL    MW4 4951   0.211   2.348   2.362 -0.1267  0.1061 -0.5498
 1220SOL     OW 4952   4.433   2.450   2.317 -0.0040  0.3252  0.2493
 1220SOL    HW2 4953   4.436   2.538   2.354  0.7796 -0.0064  0.9844
 1220SOL    HW3 4954   4.522   2.417   2.328 -0.3658 -0.6638  0.2165
 1220SOL    MW4 4955   4.445   2.458   2.323  0.0510  0.1509  0.3421
 1221SOL     OW 4956   4.466   2.726   2.348  0.1249  0.6517 -0.0189
 1221SOL    HW2 4957   4.478   2.736   2.443  0.8379 -0.3788  0.0008
 1221SOL    HW3 4958   4.548   2.756   2.310  0.1956  0.1564 -0.2601
 1221SOL    MW4 4959   4.478   2.731   2.356  0.2279  0.4501 -0.0479
 1222SOL     OW 4960   0.215   2.821   2.255  0.1873 -0.5345 -0.3101
 1222SOL    HW2 4961   0.294   2.779   2.289  0.4534 -0.2431 -0.5647
 1222SOL    HW3 4962   0.231   2.829   2.161  1.1090  2.2057  0.0588
 1222SOL    MW4 4963   0.228   2.816   2.247  0.3440 -0.1347 -0.2949
 1223SOL     OW 4964   0.218   3.102   2.345  0.0592 -0.3307 -0.4665
 1223SOL    HW2 4965   0.147   3.138   2.293  0.0817  0.4930  0.0632
 1223SOL    HW3 4966   0.214   3.008   2.329 -0.6950 -0.2133 -0.9998
 1223SOL    MW4 4967   0.208   3.094   2.336 -0.0373 -0.2065 -0.4668
 1224SOL     OW 4968   0.015   3.248   2.250 -0.3000 -0.0154  0.0521
 1224SOL    HW2 4969   0.021   3.341   2.274 -0.5271  0.0455 -0.1239
 1224SOL    HW3 4970   0.012   3.249   2.154  3.5751 -0.4065 -0.1540
 1224SOL    MW4 4971   0.015   3.260   2.241  0.1813 -0.0589  0.0019
 1225SOL     OW 4972   0.001   3.525   2.356 -0.6878  0.4602 -0.2453
 1225SOL    HW2 4973  -0.011   3.476   2.437  0.1673  0.4275 -0.1399
 1225SOL    HW3 4974  -0.088   3.547   2.328 -1.1609 -2.2332 -0.9893
 1225SOL    MW4 4975  -0.013   3.522   2.363 -0.6375  0.1006 -0.3295
 1226SOL     OW 4976   0.226   3.627   2.258  0.0017 -0.3905 -0.3348
 1226SOL    HW2 4977   0.304   3.579   2.287  1.2974  1.0378 -1.3689
 1226SOL    HW3 4978   0.153   3.578   2.296  1.4349 -1.0214  1.7220
 1226SOL    MW4 4979   0.227   3.614   2.267  0.3618 -0.2851 -0.1998
 1227SOL     OW 4980   0.213   3.856   2.404 -0.1600 -0.4975  0.0051
 1227SOL    HW2 4981   0.156   3.913   2.352 -0.3721 -0.2780  0.4723
 1227SOL    HW3 4982   0.221   3.776   2.352 -0.7872 -0.4802 -0.1219
 1227SOL    MW4 4983   0.206   3.853   2.390 -0.2707 -0.4663  0.0496
 1228SOL     OW 4984   0.045   3.996   2.250 -0.0669  0.0927  0.6402
 1228SOL    HW2 4985   0.024   4.083   2.284 -0.8230 -0.6986  2.2729
 1228SOL    HW3 4986   0.028   4.002   2.156 -2.8010  0.9382  1.1409
 1228SOL    MW4 4987   0.040   4.008   2.243 -0.5274  0.1001  0.9215
 1229SOL     OW 4988   0.016   4.254   2.362 -0.4236 -0.2444  0.1606
 1229SOL    HW2 4989   0.007   4.261   2.457  0.3846 -0.5110  0.2645
 1229SOL    HW3 4990   0.094   4.305   2.342 -0.3670 -0.5127 -0.3097
 1229SOL    MW4 4991   0.025   4.261   2.372 -0.3095 -0.3152  0.1123
 1230SOL     OW 4992   0.241   4.399   2.273  0.0187  0.3016  0.2365
 1230SOL    HW2 4993   0.299   4.362   2.340  0.0094  0.6078  0.4137
 1230SOL    HW3 4994   0.238   4.493   2.293  0.2485  0.4434 -0.3650
 1230SOL    MW4 4995   0.249   4.407   2.285  0.0477  0.3605  0.1807
 1231SOL     OW 4996   0.685   0.008   2.386  0.3416 -0.0640 -0.0875
 1231SOL    HW2 4997   0.699   0.022   2.479  2.7134  0.3331 -0.4785
 1231SOL    HW3 4998   0.765   0.039   2.344 -0.1865 -1.3748 -2.1704
 1231SOL    MW4 4999   0.697   0.014   2.393  0.5848 -0.1846 -0.4141
 1232SOL     OW 5000   0.443   0.142   2.259  0.1154 -0.6017 -0.0454
 1232SOL    HW2 5001   0.523   0.105   2.295  2.4772  2.9608 -1.3980
 1232SOL    HW3 5002   0.442   0.111   2.168  0.9709  0.8830 -0.5670
 1232SOL    MW4 5003   0.453   0.133   2.252  0.5399  0.0642 -0.2928
 1233SOL     OW 5004   0.474   0.403   2.376 -0.1807 -0.2215 -0.1236
 1233SOL    HW2 5005   0.443   0.396   2.466  0.4228 -1.3880  0.0058
 1233SOL    HW3 5006   0.458   0.316   2.338 -0.0607  0.1347 -1.0207
 1233SOL    MW4 5007   0.468   0.390   2.383 -0.0852 -0.3284 -0.2246
 1234SOL     OW 5008   0.698   0.554   2.280  0.1007  0.2176  0.5065
 1234SOL    HW2 5009   0.694   0.638   2.327  1.4752 -0.9687  2.8225
 1234SOL    HW3 5010   0.638   0.497   2.328  1.3006 -0.9411  0.6481
 1234SOL    MW4 5011   0.689   0.558   2.292  0.4404 -0.0918  0.8307
 1235SOL     OW 5012   0.651   0.836   2.356  0.2129 -0.1262 -0.2682
 1235SOL    HW2 5013   0.631   0.814   2.447  0.9159 -0.5793 -0.2188
 1235SOL    HW3 5014   0.568   0.866   2.320 -0.3626 -1.1782  0.1645
 1235SOL    MW4 5015   0.638   0.837   2.364  0.2297 -0.3248 -0.2043
 1236SOL     OW 5016   0.404   0.928   2.243  0.3245  0.4382  0.5342
 1236SOL    HW2 5017   0.334   0.871   2.277  2.6192 -2.7919  0.0907
 1236SOL    HW3 5018   0.418   0.897   2.153  1.8757  1.4598  0.4102
 1236SOL    MW4 5019   0.396   0.916   2.236  0.8319  0.1468  0.4594
 1237SOL     OW 5020   0.464   1.203   2.322 -0.0786  0.3177  0.2090
 1237SOL    HW2 5021   0.451   1.112   2.295  0.2792  0.4174 -0.3095
 1237SOL    HW3 5022   0.377   1.242   2.315 -0.4500 -0.2577  1.4943
 1237SOL    MW4 5023   0.450   1.196   2.317 -0.0804  0.2549  0.3102
 1238SOL     OW 5024   0.711   1.306   2.251 -0.1834  0.2290  0.0478
 1238SOL    HW2 5025   0.715   1.399   2.272  1.4860  0.1217  0.3421
 1238SOL    HW3 5026   0.627   1.277   2.285 -0.6379  1.5865  0.1216
 1238SOL    MW4 5027   0.701   1.314   2.258 -0.0231  0.3940  0.0963
 1239SOL     OW 5028   0.692   1.576   2.328  0.3150  0.2785 -0.5321
 1239SOL    HW2 5029   0.682   1.588   2.423  1.4399  1.3051 -0.5276
 1239SOL    HW3 5030   0.774   1.620   2.307  0.8650 -1.2655 -1.7502
 1239SOL    MW4 5031   0.702   1.583   2.338  0.5360  0.2103 -0.6924
 1240SOL     OW 5032   0.464   1.691   2.215 -0.2694  0.2786  0.0056
 1240SOL    HW2 5033   0.539   1.642   2.250 -0.1054 -0.7751 -1.7426
 1240SOL    HW3 5034   0.389   1.660   2.266  0.2907  0.4056  0.9159
 1240SOL    MW4 5035   0.464   1.680   2.226 -0.1739  0.1562 -0.1051
 1241SOL     OW 5036   0.469   1.940   2.371 -0.0047 -0.1261  0.0663
 1241SOL    HW2 5037   0.545   1.992   2.345  0.0325  1.3432  2.9023
 1241SOL    HW3 5038   0.488   1.851   2.341  2.0655  0.5553 -0.6863
 1241SOL    MW4 5039   0.481   1.935   2.363  0.2734  0.1578  0.3412
 1242SOL     OW 5040   0.693   2.097   2.286  0.2222  0.5452  0.1371
 1242SOL    HW2 5041   0.775   2.053   2.311  1.2607  1.7088 -1.1039
 1242SOL    HW3 5042   0.700   2.184   2.325  0.3848  1.2503 -1.4316
 1242SOL    MW4 5043   0.705   2.102   2.295  0.3806  0.7920 -0.2337
 1243SOL     OW 5044   0.649   2.349   2.368  0.4707 -0.2476 -0.1464
 1243SOL    HW2 5045   0.664   2.342   2.462  3.0048 -1.4366 -0.6041
 1243SOL    HW3 5046   0.725   2.398   2.335 -0.4685  0.3024 -1.5698
 1243SOL    MW4 5047   0.661   2.355   2.376  0.6811 -0.3319 -0.3946
 1244SOL     OW 5048   0.434   2.477   2.237 -0.2606 -0.1969  0.3464
 1244SOL    HW2 5049   0.508   2.437   2.282 -0.8939 -0.5073  1.1302
 1244SOL    HW3 5050   0.357   2.438   2.279 -0.8615  0.2338 -0.3569
 1244SOL    MW4 5051   0.434   2.467   2.249 -0.4235 -0.1810  0.3569
 1245SOL     OW 5052   0.465   2.736   2.343 -0.0384  0.4677 -0.0085
 1245SOL    HW2 5053   0.454   2.720   2.436 -0.2975 -0.1468 -0.1455
 1245SOL    HW3 5054   0.461   2.650   2.302 -1.1413  0.8315 -0.7028
 1245SOL    MW4 5055   0.463   2.723   2.350 -0.2181  0.4344 -0.1180
 1246SOL     OW 5056   0.702   2.849   2.246  0.4181  0.6967  0.4095
 1246SOL    HW2 5057   0.771   2.796   2.285 -0.3471 -0.0098  0.8292
 1246SOL    HW3 5058   0.621   2.810   2.278 -0.2383  0.2147 -1.7132
 1246SOL    MW4 5059   0.700   2.837   2.255  0.2306  0.5400  0.1848
 1247SOL     OW 5060   0.706   3.098   2.375 -0.3961 -0.0441  0.3900
 1247SOL    HW2 5061   0.623   3.140   2.354 -1.1717 -0.8349  1.7654
 1247SOL    HW3 5062   0.701   3.013   2.331  0.6655  0.7889 -1.4015
 1247SOL    MW4 5063   0.695   3.092   2.366 -0.3584 -0.0384  0.3352
 1248SOL     OW 5064   0.491   3.222   2.273 -0.6064  0.3460  0.1604
 1248SOL    HW2 5065   0.408   3.193   2.309 -0.3231  0.0994  0.6269
 1248SOL    HW3 5066   0.483   3.208   2.179 -1.0565  0.2394  0.2140
 1248SOL    MW4 5067   0.479   3.217   2.265 -0.6284  0.2995  0.2291
 1249SOL     OW 5068   0.446   3.490   2.369  0.3734  0.1914  0.4745
 1249SOL    HW2 5069   0.522   3.548   2.368  0.2438  0.3886  1.3340
 1249SOL    HW3 5070   0.478   3.408   2.331  1.6255 -0.4360  2.7223
 1249SOL    MW4 5071   0.461   3.487   2.364  0.5215  0.1345  0.8843
 1250SOL     OW 5072   0.665   3.655   2.321  0.1023 -0.4866 -0.1034
 1250SOL    HW2 5073   0.670   3.746   2.349  0.3914 -0.4724 -0.1996
 1250SOL    HW3 5074   0.639   3.659   2.229 -1.4674 -0.5519  0.3177
 1250SOL    MW4 5075   0.662   3.667   2.312 -0.0667 -0.4933 -0.0606
 1251SOL     OW 5076   0.701   3.953   2.420  0.5878 -0.1301  0.2489
 1251SOL    HW2 5077   0.679   3.943   2.513  0.5043  0.2466  0.2688
 1251SOL    HW3 5078   0.617   3.965   2.376  0.6017 -0.6099  0.0832
 1251SOL    MW4 5079   0.687   3.953   2.427  0.5786 -0.1438  0.2294
 1252SOL     OW 5080   0.451   3.981   2.321 -0.1711 -0.0334 -0.1270
 1252SOL    HW2 5081   0.377   3.929   2.352 -1.0078  1.9359  1.2397
 1252SOL    HW3 5082   0.440   3.984   2.226 -0.8360 -1.2342 -0.1035
 1252SOL    MW4 5083   0.440   3.974   2.312 -0.3692  0.0682  0.0563
 1253SOL     OW 5084   0.439   4.249   2.414 -0.1091  0.4246 -0.0070
 1253SOL    HW2 5085   0.518   4.295   2.386 -0.1093  1.2618  1.3142
 1253SOL    HW3 5086   0.450   4.160   2.381  2.1660  0.0917  1.5229
 1253SOL    MW4 5087   0.451   4.243   2.406  0.1911  0.4911  0.3691
 1254SOL     OW 5088   0.657   4.405   2.315  0.0810  0.0490  0.1764
 1254SOL    HW2 5089   0.647   4.496   2.342 -0.0953  0.2875 -0.6980
 1254SOL    HW3 5090   0.667   4.408   2.220 -0.5520 -0.8995  0.0712
 1254SOL    MW4 5091   0.657   4.417   2.306 -0.0257 -0.0443  0.0472
 1255SOL     OW 5092   1.155   0.003   2.398 -0.1961  0.3619 -0.2690
 1255SOL    HW2 5093   1.135  -0.035   2.484  0.1195 -1.1527 -0.8415
 1255SOL    HW3 5094   1.079   0.056   2.377  0.4862  2.1962  1.7376
 1255SOL    MW4 5095   1.143   0.005   2.407 -0.0645  0.4044 -0.0799
 1256SOL     OW 5096   0.927   0.124   2.297 -0.1161 -0.3104  0.1772
 1256SOL    HW2 5097   0.900   0.214   2.318  0.2797  0.1161 -1.1546
 1256SOL    HW3 5098   0.925   0.119   2.202  0.8867 -1.4099  0.2028
 1256SOL    MW4 5099   0.923   0.135   2.287  0.0684 -0.3992  0.0050
 1257SOL     OW 5100   0.907   0.397   2.383 -0.4954 -0.2197  0.2556
 1257SOL    HW2 5101   0.990   0.417   2.339 -0.6825 -1.0594 -0.5050
 1257SOL    HW3 5102   0.846   0.463   2.351 -0.5548 -0.6500 -0.5310
 1257SOL    MW4 5103   0.910   0.408   2.373 -0.5279 -0.3873  0.0515
 1258SOL     OW 5104   1.140   0.488   2.221  0.0580  0.1468  0.1663
 1258SOL    HW2 5105   1.209   0.449   2.275 -0.0907  0.4090  0.5474
 1258SOL    HW3 5106   1.158   0.456   2.132 -0.9096 -1.9772  0.6952
 1258SOL    MW4 5107   1.151   0.478   2.216 -0.0893 -0.0989  0.2863
 1259SOL     OW 5108   1.132   0.737   2.349 -0.0604 -0.1288 -0.3594
 1259SOL    HW2 5109   1.066   0.797   2.317 -0.8026 -1.3167 -1.1037
 1259SOL    HW3 5110   1.117   0.656   2.300  1.5687 -0.6055 -0.1245
 1259SOL    MW4 5111   1.121   0.734   2.338  0.0566 -0.3484 -0.4265
 1260SOL     OW 5112   0.896   0.882   2.246  0.0569 -0.0571  0.3213
 1260SOL    HW2 5113   0.922   0.966   2.284 -0.2638  0.0508  0.2963
 1260SOL    HW3 5114   0.814   0.860   2.290  0.1406 -0.3572  0.3278
 1260SOL    MW4 5115   0.889   0.890   2.257  0.0256 -0.0825  0.3188
 1261SOL     OW 5116   0.916   1.137   2.359  0.2915 -0.5786  0.1468
 1261SOL    HW2 5117   0.991   1.180   2.317  0.9223 -1.7627  0.0296
 1261SOL    HW3 5118   0.840   1.183   2.325  0.9655  0.5356  0.1346
 1261SOL    MW4 5119   0.916   1.149   2.349  0.4637 -0.5879  0.1297
 1262SOL     OW 5120   1.132   1.250   2.219  0.4589 -0.0848  0.3600
 1262SOL    HW2 5121   1.212   1.211   2.255  0.5883 -0.1297  0.0282
 1262SOL    HW3 5122   1.147   1.251   2.124 -0.0401 -0.3368  0.2758
 1262SOL    MW4 5123   1.145   1.245   2.211  0.4101 -0.1240  0.3052
 1263SOL     OW 5124   1.125   1.492   2.350  0.0028  0.2646 -0.0077
 1263SOL    HW2 5125   1.056   1.545   2.311  0.0795  0.3003 -0.0935
 1263SOL    HW3 5126   1.124   1.410   2.301  0.5394  0.5600 -0.5156
 1263SOL    MW4 5127   1.116   1.488   2.338  0.0838  0.3082 -0.0861
 1264SOL     OW 5128   0.945   1.704   2.270  0.2776  0.2882  0.2916
 1264SOL    HW2 5129   0.929   1.795   2.296  0.0427  0.4335 -0.3480
 1264SOL    HW3 5130   0.918   1.701   2.178  0.4238 -0.3933  0.2734
 1264SOL    MW4 5131   0.939   1.716   2.261  0.2659  0.2176  0.2048
 1265SOL     OW 5132   0.912   1.963   2.354 -0.3362 -0.3213  0.2044
 1265SOL    HW2 5133   0.905   1.954   2.449  0.1138 -1.0575  0.1652
 1265SOL    HW3 5134   0.996   2.008   2.341 -0.2470 -0.5122  0.1322
 1265SOL    MW4 5135   0.922   1.968   2.365 -0.2651 -0.4435  0.1895
 1266SOL     OW 5136   1.155   2.071   2.298  0.1090  0.1537  0.1282
 1266SOL    HW2 5137   1.200   1.991   2.328 -0.7690 -0.3185  0.2061
 1266SOL    HW3 5138   1.132   2.052   2.207  2.8457  1.6182 -0.9190
 1266SOL    MW4 5139   1.158   2.058   2.290  0.3543  0.2844  0.0005
 1267SOL     OW 5140   1.128   2.331   2.401  0.2589 -0.1531 -0.0928
 1267SOL    HW2 5141   1.199   2.382   2.362 -0.5653 -0.3672 -1.9098
 1267SOL    HW3 5142   1.146   2.241   2.374  0.9331 -0.6401  1.9400
 1267SOL    MW4 5143   1.140   2.326   2.392  0.2391 -0.2456 -0.0646
 1268SOL     OW 5144   0.892   2.478   2.319 -0.2480 -0.3877 -0.2242
 1268SOL    HW2 5145   0.964   2.422   2.348  0.4601  1.2774  1.3672
 1268SOL    HW3 5146   0.905   2.488   2.225  1.5450 -0.2341  0.0144
 1268SOL    MW4 5147   0.903   2.472   2.311  0.0820 -0.1478  0.0169
 1269SOL     OW 5148   0.923   2.754   2.377  0.0410  0.0544  0.2598
 1269SOL    HW2 5149   0.888   2.769   2.465 -0.3206  0.2848  0.0761
 1269SOL    HW3 5150   0.940   2.660   2.374 -1.2623 -0.1784  0.0853
 1269SOL    MW4 5151   0.921   2.744   2.389 -0.1787  0.0541  0.2124
 1270SOL     OW 5152   1.118   2.841   2.234  0.0586 -0.0731 -0.1246
 1270SOL    HW2 5153   1.201   2.812   2.273 -0.3622 -1.3657 -0.1578
 1270SOL    HW3 5154   1.051   2.797   2.287 -0.5901  0.4989 -0.4748
 1270SOL    MW4 5155   1.120   2.831   2.246 -0.0825 -0.1678 -0.1750
 1271SOL     OW 5156   1.120   3.112   2.366  0.0306 -0.2356  0.5685
 1271SOL    HW2 5157   1.068   3.178   2.320 -0.1414 -0.4058  0.5169
 1271SOL    HW3 5158   1.108   3.032   2.314  3.5308  0.6200 -1.7453
 1271SOL    MW4 5159   1.112   3.110   2.353  0.4697 -0.1454  0.2561
 1272SOL     OW 5160   0.906   3.260   2.240 -0.0221 -0.0774  0.3570
 1272SOL    HW2 5161   0.892   3.349   2.273  0.1982  0.5306 -1.1936
 1272SOL    HW3 5162   0.838   3.208   2.283  0.1004  0.7559  1.5818
 1272SOL    MW4 5163   0.896   3.265   2.250  0.0232  0.1125  0.3142
 1273SOL     OW 5164   0.889   3.521   2.409 -0.0601  0.1417  0.2266
 1273SOL    HW2 5165   0.899   3.509   2.503 -0.9955 -1.8192  0.1003
 1273SOL    HW3 5166   0.809   3.573   2.400 -0.7057 -0.8004  0.4738
 1273SOL    MW4 5167   0.880   3.526   2.420 -0.2688 -0.2415  0.2425
 1274SOL     OW 5168   1.106   3.624   2.275  0.2251  0.1455  0.2746
 1274SOL    HW2 5169   1.188   3.580   2.296  0.7496  0.9456 -0.0639
 1274SOL    HW3 5170   1.041   3.583   2.333  0.6019 -1.3647 -0.3445
 1274SOL    MW4 5171   1.108   3.613   2.285  0.3439  0.0517  0.1485
 1275SOL     OW 5172   1.134   3.882   2.366  0.6093  0.1412  0.3154
 1275SOL    HW2 5173   1.225   3.906   2.351  0.2822  0.7963 -0.6975
 1275SOL    HW3 5174   1.127   3.792   2.334  1.1351 -0.2600  1.3294
 1275SOL    MW4 5175   1.145   3.873   2.360  0.6355  0.1748  0.3157
 1276SOL     OW 5176   0.926   4.035   2.272 -0.0911  0.2281 -0.4836
 1276SOL    HW2 5177   1.007   3.989   2.296 -1.2345 -1.2284  0.6311
 1276SOL    HW3 5178   0.858   3.991   2.322 -1.4890  1.9021 -0.8925
 1276SOL    MW4 5179   0.928   4.023   2.282 -0.4264  0.2565 -0.3905
 1277SOL     OW 5180   0.885   4.279   2.413 -0.2717 -0.3422  0.3038
 1277SOL    HW2 5181   0.889   4.193   2.373 -0.2908  0.1273 -0.7247
 1277SOL    HW3 5182   0.811   4.323   2.369  0.6375  0.7021 -0.2184
 1277SOL    MW4 5183   0.875   4.274   2.402 -0.1543 -0.1431  0.0994
 1278SOL     OW 5184   1.115   4.404   2.290  0.0799  0.3748 -0.4369
 1278SOL    HW2 5185   1.033   4.376   2.332  0.2665  0.9551  0.3319
 1278SOL    HW3 5186   1.121   4.498   2.310  1.7081  0.0206  0.8582
 1278SOL    MW4 5187   1.105   4.413   2.298  0.3194  0.4044 -0.1647
 1279SOL     OW 5188   1.544   4.630   2.373 -0.1408  0.0511 -0.0314
 1279SOL    HW2 5189   1.629   4.665   2.349 -0.3021 -0.0499 -0.7585
 1279SOL    HW3 5190   1.482   4.675   2.316 -0.6330  0.4643  0.8117
 1279SOL    MW4 5191   1.547   4.640   2.362 -0.2270  0.0925 -0.0160
 1280SOL     OW 5192   1.363   0.121   2.238 -0.2672 -0.3535  0.1221
 1280SOL    HW2 5193   1.367   0.208   2.278  1.8919 -1.0663  1.5912
 1280SOL    HW3 5194   1.290   0.077   2.282  0.0294 -0.0134  0.9783
 1280SOL    MW4 5195   1.354   0.127   2.249  0.0567 -0.4027  0.4287
 1281SOL     OW 5196   1.348   0.363   2.362  0.2540 -0.2811 -0.5017
 1281SOL    HW2 5197   1.347   0.348   2.457  1.0728 -0.7936 -0.5735
 1281SOL    HW3 5198   1.423   0.420   2.347  0.8449 -1.1814 -0.9861
 1281SOL    MW4 5199   1.358   0.368   2.372  0.4400 -0.4675 -0.5751
 1282SOL     OW 5200   1.566   0.528   2.313 -0.4775  0.4094  0.0570
 1282SOL    HW2 5201   1.648   0.490   2.345  0.0418  1.4330 -0.0554
 1282SOL    HW3 5202   1.570   0.515   2.218 -0.3310  0.7036  0.0251
 1282SOL    MW4 5203   1.577   0.521   2.304 -0.3898  0.5832  0.0381
 1283SOL     OW 5204   1.594   0.787   2.387  0.1686 -0.3898  0.2290
 1283SOL    HW2 5205   1.671   0.816   2.337  0.2378 -0.4203  0.3171
 1283SOL    HW3 5206   1.585   0.695   2.364 -0.5790 -0.0798 -0.7341
 1283SOL    MW4 5207   1.603   0.779   2.378  0.0790 -0.3530  0.1132
 1284SOL     OW 5208   1.365   0.866   2.240 -0.2921  0.4002  0.2098
 1284SOL    HW2 5209   1.437   0.845   2.299  0.0919 -1.4721 -0.8619
 1284SOL    HW3 5210   1.290   0.818   2.276 -0.6209  1.1049  0.4635
 1284SOL    MW4 5211   1.365   0.857   2.252 -0.2848  0.2462  0.1020
 1285SOL     OW 5212   1.360   1.161   2.338 -0.1457 -0.0505 -0.0184
 1285SOL    HW2 5213   1.386   1.141   2.428  1.2280 -0.4899 -0.5066
 1285SOL    HW3 5214   1.379   1.081   2.288  1.1237  0.9117 -1.1089
 1285SOL    MW4 5215   1.366   1.148   2.343  0.2030  0.0186 -0.2267
 1286SOL     OW 5216   1.578   1.310   2.249 -0.3609 -0.2759  0.2275
 1286SOL    HW2 5217   1.503   1.263   2.285  0.7127 -2.7437 -0.6652
 1286SOL    HW3 5218   1.579   1.286   2.156  0.3812  1.2897 -0.1839
 1286SOL    MW4 5219   1.568   1.301   2.241 -0.1215 -0.3951  0.0553
 1287SOL     OW 5220   1.618   1.537   2.371 -0.6647  0.4856 -0.2520
 1287SOL    HW2 5221   1.677   1.583   2.311 -1.1174  0.2554 -0.8853
 1287SOL    HW3 5222   1.609   1.450   2.333 -1.2672  0.4645 -0.0673
 1287SOL    MW4 5223   1.624   1.532   2.358 -0.8039  0.4524 -0.3114
 1288SOL     OW 5224   1.367   1.617   2.272 -0.1476 -0.4293  0.0815
 1288SOL    HW2 5225   1.446   1.581   2.314  0.1242 -0.0634 -0.1125
 1288SOL    HW3 5226   1.295   1.575   2.318  0.1492 -0.0671  0.8964
 1288SOL    MW4 5227   1.368   1.607   2.284 -0.0727 -0.3333  0.1636
 1289SOL     OW 5228   1.344   1.875   2.376 -0.1746 -0.5029  0.5562
 1289SOL    HW2 5229   1.424   1.917   2.345 -0.1646  0.8515  2.3774
 1289SOL    HW3 5230   1.347   1.787   2.337  1.6507 -0.1100 -0.2531
 1289SOL    MW4 5231   1.355   1.869   2.366  0.0676 -0.2723  0.6900
 1290SOL     OW 5232   1.555   2.047   2.233  0.1063  0.0198  0.4699
 1290SOL    HW2 5233   1.637   1.998   2.243 -0.3981 -0.7579  0.8058
 1290SOL    HW3 5234   1.547   2.061   2.139 -0.3979 -1.6833  0.2323
 1290SOL    MW4 5235   1.565   2.042   2.222 -0.0267 -0.3073  0.4830
 1291SOL     OW 5236   1.567   2.303   2.339  0.2436  0.3427 -0.2475
 1291SOL    HW2 5237   1.564   2.298   2.435  1.2850 -0.2907 -0.2512
 1291SOL    HW3 5238   1.561   2.212   2.310 -1.7119  0.6281 -0.8478
 1291SOL    MW4 5239   1.566   2.291   2.348  0.1230  0.2968 -0.3273
 1292SOL     OW 5240   1.349   2.470   2.282 -0.2199  0.6913 -0.4420
 1292SOL    HW2 5241   1.434   2.429   2.300 -0.5833 -0.2418 -0.7837
 1292SOL    HW3 5242   1.345   2.474   2.186 -1.2605 -0.8103 -0.4838
 1292SOL    MW4 5243   1.360   2.465   2.272 -0.4050  0.3703 -0.4926
 1293SOL     OW 5244   1.354   2.735   2.367  0.7232 -0.0151  0.2442
 1293SOL    HW2 5245   1.438   2.781   2.355  1.8341 -1.5698  1.8251
 1293SOL    HW3 5246   1.369   2.649   2.328 -0.8686  0.4213 -1.3889
 1293SOL    MW4 5247   1.367   2.730   2.360  0.6597 -0.1626  0.2372
 1294SOL     OW 5248   1.584   2.840   2.278 -0.7080 -0.2704 -0.0173
 1294SOL    HW2 5249   1.581   2.933   2.301 -2.0893 -0.3525  0.1652
 1294SOL    HW3 5250   1.611   2.839   2.186 -0.0284  0.2698  0.1677
 1294SOL    MW4 5251   1.587   2.853   2.269 -0.8005 -0.2098  0.0312
 1295SOL     OW 5252   1.590   3.118   2.377 -0.2543 -0.0879 -0.1600
 1295SOL    HW2 5253   1.599   3.124   2.472 -0.5221 -1.8020 -0.0113
 1295SOL    HW3 5254   1.508   3.164   2.357 -0.3251  0.0487  0.4560
 1295SOL    MW4 5255   1.580   3.125   2.387 -0.2989 -0.2959 -0.0594
 1296SOL     OW 5256   1.364   3.222   2.312  0.3716 -0.6279  0.2410
 1296SOL    HW2 5257   1.280   3.192   2.346  0.3718 -0.3334  0.5101
 1296SOL    HW3 5258   1.357   3.212   2.217 -0.4654  0.6350  0.1545
 1296SOL    MW4 5259   1.352   3.217   2.304  0.2613 -0.4225  0.2651
 1297SOL     OW 5260   1.296   3.493   2.401 -0.1716  0.5976  0.0801
 1297SOL    HW2 5261   1.311   3.473   2.494 -0.3813  0.2477  0.0390
 1297SOL    HW3 5262   1.316   3.411   2.356  2.3527  1.4564 -0.4244
 1297SOL    MW4 5263   1.301   3.480   2.407  0.1339  0.6647  0.0081
 1298SOL     OW 5264   1.551   3.564   2.286  0.4732  0.2300  0.4591
 1298SOL    HW2 5265   1.571   3.648   2.325  0.5771  0.4050  0.0325
 1298SOL    HW3 5266   1.477   3.531   2.337 -0.6263  1.3194 -0.4038
 1298SOL    MW4 5267   1.544   3.570   2.298  0.3419  0.3965  0.2890
 1299SOL     OW 5268   1.601   3.815   2.393 -0.4930  0.2608  0.1951
 1299SOL    HW2 5269   1.606   3.827   2.487 -1.5317  1.7832  0.0620
 1299SOL    HW3 5270   1.664   3.878   2.357 -1.0288  0.5741 -0.1947
 1299SOL    MW4 5271   1.610   3.825   2.400 -0.7007  0.5031  0.1261
 1300SOL     OW 5272   1.395   3.956   2.284  0.1410  0.1790 -0.0267
 1300SOL    HW2 5273   1.476   3.912   2.310 -0.0221  0.1179  0.3859
 1300SOL    HW3 5274   1.394   3.950   2.189  0.1844 -0.6081  0.0159
 1300SOL    MW4 5275   1.405   3.949   2.275  0.1251  0.0675  0.0331
 1301SOL     OW 5276   1.354   4.227   2.374  0.3313  0.1541 -0.7215
 1301SOL    HW2 5277   1.367   4.140   2.336 -1.7859 -0.2271 -0.6363
 1301SOL    HW3 5278   1.268   4.255   2.342  0.0257  1.2876  1.0223
 1301SOL    MW4 5279   1.344   4.219   2.364  0.0117  0.2537 -0.4804
 1302SOL     OW 5280   1.573   4.388   2.244  0.2856  0.5516 -0.4131
 1302SOL    HW2 5281   1.507   4.327   2.278 -0.0765  1.1616 -0.0061
 1302SOL    HW3 5282   1.567   4.465   2.302  2.1477  0.1644  0.3303
 1302SOL    MW4 5283   1.563   4.390   2.256  0.4835  0.5813 -0.2615
 1303SOL     OW 5284   2.031   0.009   2.360  0.3324  0.1691 -0.3835
 1303SOL    HW2 5285   2.115   0.037   2.323  0.3158 -0.8997 -1.2779
 1303SOL    HW3 5286   2.033  -0.087   2.352 -0.9763  0.1399 -0.4436
 1303SOL    MW4 5287   2.043   0.000   2.354  0.1576  0.0243 -0.5093
 1304SOL     OW 5288   1.780   0.075   2.271 -0.1345 -0.5939  0.7424
 1304SOL    HW2 5289   1.769   0.168   2.291 -2.5298 -0.4616 -1.0942
 1304SOL    HW3 5290   1.873   0.058   2.290  0.9420  2.7195 -1.0651
 1304SOL    MW4 5291   1.791   0.086   2.276 -0.3084 -0.1393  0.2613
 1305SOL     OW 5292   1.788   0.356   2.347  0.1392  0.4076 -0.3719
 1305SOL    HW2 5293   1.791   0.349   2.443 -0.4901 -0.1267 -0.3941
 1305SOL    HW3 5294   1.864   0.411   2.326  1.3179 -0.9131  0.2957
 1305SOL    MW4 5295   1.799   0.363   2.357  0.2116  0.1629 -0.2866
 1306SOL     OW 5296   2.004   0.508   2.267 -0.0714 -0.2891 -0.0277
 1306SOL    HW2 5297   2.031   0.591   2.306 -0.7742 -0.3201  0.5455
 1306SOL    HW3 5298   2.013   0.522   2.173 -0.2791  0.4752  0.0593
 1306SOL    MW4 5299   2.008   0.521   2.260 -0.1917 -0.1923  0.0594
 1307SOL     OW 5300   2.043   0.782   2.371 -0.9111  0.7390  0.2224
 1307SOL    HW2 5301   2.116   0.828   2.330 -1.0568  0.7274 -0.0469
 1307SOL    HW3 5302   1.967   0.837   2.356 -0.8016  1.1985  1.2944
 1307SOL    MW4 5303   2.043   0.795   2.363 -0.9158  0.7981  0.3283
 1308SOL     OW 5304   1.806   0.901   2.254 -0.1259  0.5963 -0.2372
 1308SOL    HW2 5305   1.804   0.995   2.273  0.6167  0.2398  1.7735
 1308SOL    HW3 5306   1.823   0.895   2.160 -0.4541  2.4772 -0.4233
 1308SOL    MW4 5307   1.808   0.913   2.244 -0.0710  0.7974  0.0036
 1309SOL     OW 5308   1.797   1.159   2.340 -0.3663 -0.0006  0.5452
 1309SOL    HW2 5309   1.877   1.204   2.312  0.0006 -0.3557  1.0249
 1309SOL    HW3 5310   1.727   1.220   2.317 -0.1308 -0.5095 -1.6449
 1309SOL    MW4 5311   1.799   1.173   2.333 -0.2868 -0.1148  0.3195
 1310SOL     OW 5312   2.037   1.285   2.235 -0.0726  0.3622 -0.2498
 1310SOL    HW2 5313   2.028   1.378   2.256 -0.4684  0.4531 -0.8015
 1310SOL    HW3 5314   2.014   1.280   2.142 -0.5300 -0.3650 -0.0955
 1310SOL    MW4 5315   2.033   1.297   2.225 -0.1853  0.2782 -0.3023
 1311SOL     OW 5316   2.026   1.548   2.339 -0.1473 -0.2180  0.2728
 1311SOL    HW2 5317   2.006   1.532   2.431 -0.5641  1.2361  0.4355
 1311SOL    HW3 5318   1.946   1.586   2.303 -0.4068 -1.8971 -0.9902
 1311SOL    MW4 5319   2.013   1.551   2.347 -0.2363 -0.2477  0.1276
 1312SOL     OW 5320   1.815   1.666   2.210 -0.4859 -0.2024 -0.3135
 1312SOL    HW2 5321   1.802   1.758   2.233 -1.1025  0.0373 -1.5682
 1312SOL    HW3 5322   1.805   1.664   2.115  1.3434 -1.2737 -0.4954
 1312SOL    MW4 5323   1.812   1.678   2.201 -0.3260 -0.3122 -0.5031
 1313SOL     OW 5324   1.788   1.924   2.333  0.0740  0.3018 -0.1229
 1313SOL    HW2 5325   1.775   1.925   2.428 -1.2357 -0.1231 -0.2836
 1313SOL    HW3 5326   1.863   1.981   2.319 -0.3520  1.1890  1.0801
 1313SOL    MW4 5327   1.796   1.931   2.344 -0.1551  0.3629  0.0145
 1314SOL     OW 5328   2.018   2.072   2.258  0.6608  0.1255  0.1071
 1314SOL    HW2 5329   2.074   2.001   2.289 -0.9636 -0.9716  0.5606
 1314SOL    HW3 5330   2.024   2.066   2.162  0.4903 -0.6618  0.1415
 1314SOL    MW4 5331   2.026   2.062   2.249  0.4237 -0.1230  0.1714
 1315SOL     OW 5332   2.054   2.327   2.364 -0.1670  0.8129 -0.0637
 1315SOL    HW2 5333   2.133   2.357   2.319  0.5018 -0.0739  0.4977
 1315SOL    HW3 5334   2.041   2.237   2.335  0.2415  0.2492  1.4475
 1315SOL    MW4 5335   2.063   2.319   2.354 -0.0248  0.6213  0.2098
 1316SOL     OW 5336   1.816   2.438   2.264  0.0141 -0.0104 -0.5482
 1316SOL    HW2 5337   1.898   2.399   2.292  0.0997  0.7006  0.2175
 1316SOL    HW3 5338   1.748   2.385   2.305  0.1458  1.3234  1.4488
 1316SOL    MW4 5339   1.818   2.426   2.273  0.0429  0.2594 -0.1838
 1317SOL     OW 5340   1.821   2.694   2.352  0.0971  0.2786 -0.3042
 1317SOL    HW2 5341   1.801   2.607   2.318  0.4631 -0.9384  2.4503
 1317SOL    HW3 5342   1.743   2.746   2.331 -0.0734 -0.6693 -2.0830
 1317SOL    MW4 5343   1.808   2.690   2.345  0.1229 -0.0074 -0.1757
 1318SOL     OW 5344   2.050   2.812   2.241  0.1568 -0.6197 -0.4027
 1318SOL    HW2 5345   2.132   2.764   2.254  0.1836 -0.3206  0.5678
 1318SOL    HW3 5346   1.985   2.765   2.293  0.2892  0.6700  0.9539
 1318SOL    MW4 5347   2.052   2.800   2.249  0.1779 -0.4098 -0.0958
 1319SOL     OW 5348   2.025   3.109   2.344 -0.4811 -0.0108 -0.5848
 1319SOL    HW2 5349   2.105   3.156   2.319  1.0427 -0.9227  2.4202
 1319SOL    HW3 5350   2.035   3.022   2.306  0.2399 -0.3262  0.3401
 1319SOL    MW4 5351   2.037   3.104   2.336 -0.1848 -0.1726 -0.0663
 1320SOL     OW 5352   1.806   3.230   2.229  0.4003 -0.0743 -0.0701
 1320SOL    HW2 5353   1.882   3.196   2.276 -0.7634 -0.5601  1.4936
 1320SOL    HW3 5354   1.731   3.192   2.274 -0.7679 -0.2557 -2.0945
 1320SOL    MW4 5355   1.807   3.220   2.241  0.0926 -0.1626 -0.1309
 1321SOL     OW 5356   1.813   3.497   2.316  0.6984 -0.0435  0.0744
 1321SOL    HW2 5357   1.814   3.402   2.306 -0.4639 -0.0791  0.1855
 1321SOL    HW3 5358   1.720   3.520   2.312  1.0159  1.1585 -0.5863
 1321SOL    MW4 5359   1.801   3.487   2.314  0.5870  0.1101  0.0021
 1322SOL     OW 5360   2.042   3.630   2.255 -0.0337 -0.1703 -0.3989
 1322SOL    HW2 5361   1.956   3.588   2.267 -0.5099  0.8778 -0.0904
 1322SOL    HW3 5362   2.052   3.637   2.161  0.3491 -1.5720 -0.4804
 1322SOL    MW4 5363   2.032   3.625   2.244 -0.0460 -0.2167 -0.3688
 1323SOL     OW 5364   2.001   3.910   2.337  0.0989  0.0024  0.1538
 1323SOL    HW2 5365   1.997   3.913   2.432  0.9492 -0.5696  0.2097
 1323SOL    HW3 5366   2.010   3.817   2.316 -0.7915  0.0521 -0.5190
 1323SOL    MW4 5367   2.001   3.898   2.346  0.0937 -0.0663  0.0722
 1324SOL     OW 5368   1.779   4.021   2.234  0.2605 -0.0704  0.2457
 1324SOL    HW2 5369   1.866   3.995   2.265  0.3376  1.1926  1.1316
 1324SOL    HW3 5370   1.783   4.009   2.139  1.2538 -0.4496  0.3296
 1324SOL    MW4 5371   1.791   4.016   2.225  0.4017  0.0463  0.3734
 1325SOL     OW 5372   1.773   4.263   2.378 -0.3824  0.1235  0.3034
 1325SOL    HW2 5373   1.763   4.176   2.338 -0.3722 -0.2810  1.1841
 1325SOL    HW3 5374   1.704   4.315   2.336 -1.5896 -0.7975  1.1147
 1325SOL    MW4 5375   1.762   4.258   2.367 -0.5403 -0.0510  0.5264
 1326SOL     OW 5376   2.006   4.402   2.294  0.7431  0.1306  0.0723
 1326SOL    HW2 5377   1.929   4.350   2.317  0.7109  0.7038  1.2450
 1326SOL    HW3 5378   2.009   4.398   2.198 -0.0224 -0.9313  0.0879
 1326SOL    MW4 5379   1.996   4.395   2.284  0.6378  0.0658  0.2291
 1327SOL     OW 5380   2.482   4.642   2.369 -0.4137  0.1294  0.0161
 1327SOL    HW2 5381   2.561   4.688   2.339  0.0731 -0.3376  0.5683
 1327SOL    HW3 5382   2.491   4.554   2.333 -0.2262 -0.1933  0.8413
 1327SOL    MW4 5383   2.494   4.637   2.360 -0.3250  0.0248  0.1976
 1328SOL     OW 5384   2.271   0.096   2.258  0.2821 -0.3926  0.5699
 1328SOL    HW2 5385   2.282   0.188   2.285 -1.4181 -0.0148  0.0829
 1328SOL    HW3 5386   2.349   0.052   2.291  0.7355  1.0735  1.5428
 1328SOL    MW4 5387   2.283   0.103   2.266  0.1173 -0.1493  0.6340
 1329SOL     OW 5388   2.232   0.370   2.352  0.2382 -0.4724  0.0267
 1329SOL    HW2 5389   2.306   0.431   2.343 -0.0439 -0.2309 -0.6597
 1329SOL    HW3 5390   2.158   0.417   2.314  0.1625 -1.5067 -1.0965
 1329SOL    MW4 5391   2.232   0.384   2.346  0.1907 -0.5770 -0.2120
 1330SOL     OW 5392   2.453   0.503   2.247  0.2963 -0.7599 -0.0844
 1330SOL    HW2 5393   2.540   0.483   2.283  0.0332 -1.2762  0.2639
 1330SOL    HW3 5394   2.466   0.497   2.152  0.7976 -0.1800 -0.0565
 1330SOL    MW4 5395   2.466   0.499   2.239  0.3276 -0.7516 -0.0350
 1331SOL     OW 5396   2.447   0.767   2.328 -0.2813  0.1503 -0.2554
 1331SOL    HW2 5397   2.533   0.800   2.301  0.0724 -0.4040  0.1811
 1331SOL    HW3 5398   2.445   0.677   2.297  0.7863 -1.0512  2.9134
 1331SOL    MW4 5399   2.458   0.759   2.321 -0.0939 -0.0814  0.2203
 1332SOL     OW 5400   2.247   0.899   2.196  0.4752  0.1679  0.1554
 1332SOL    HW2 5401   2.236   0.984   2.238  2.9488  1.7141 -2.1486
 1332SOL    HW3 5402   2.322   0.859   2.240 -0.4056 -0.6584  0.9346
 1332SOL    MW4 5403   2.256   0.905   2.207  0.6855  0.2629 -0.0460
 1333SOL     OW 5404   2.244   1.117   2.349  0.1513 -0.2323  0.2389
 1333SOL    HW2 5405   2.333   1.148   2.329 -0.1181 -0.3886 -1.2248
 1333SOL    HW3 5406   2.187   1.186   2.316 -0.2579  0.4147  2.2161
 1333SOL    MW4 5407   2.248   1.130   2.342  0.0620 -0.1676  0.3064
 1334SOL     OW 5408   2.476   1.259   2.266  0.2843  0.0815 -0.3454
 1334SOL    HW2 5409   2.552   1.212   2.300 -0.1198 -0.0591  0.3589
 1334SOL    HW3 5410   2.484   1.347   2.301 -0.0806 -0.0378  0.0420
 1334SOL    MW4 5411   2.487   1.264   2.275  0.1826  0.0472 -0.2012
 1335SOL     OW 5412   2.447   1.519   2.381  0.0990 -0.2492 -0.1927
 1335SOL    HW2 5413   2.440   1.508   2.476  0.4580 -1.0578 -0.2576
 1335SOL    HW3 5414   2.527   1.571   2.370 -0.2946  0.3980 -0.0192
 1335SOL    MW4 5415   2.457   1.525   2.392  0.0944 -0.2704 -0.1783
 1336SOL     OW 5416   2.247   1.639   2.226  0.1331  0.8803  0.0658
 1336SOL    HW2 5417   2.324   1.601   2.268  0.7346  1.6286 -0.3602
 1336SOL    HW3 5418   2.173   1.601   2.274  0.8255  2.5103  2.4867
 1336SOL    MW4 5419   2.248   1.629   2.238  0.3037  1.1941  0.3293
 1337SOL     OW 5420   2.185   1.889   2.354 -0.0071 -0.1234 -0.0697
 1337SOL    HW2 5421   2.269   1.932   2.335  0.2049 -0.9080 -0.9127
 1337SOL    HW3 5422   2.192   1.804   2.312 -0.7841 -0.6422  0.8433
 1337SOL    MW4 5423   2.197   1.884   2.346 -0.0813 -0.2953 -0.0606
 1338SOL     OW 5424   2.441   2.004   2.282  0.2436  0.4666  0.4257
 1338SOL    HW2 5425   2.524   1.993   2.329  0.3529  0.1144  0.1472
 1338SOL    HW3 5426   2.463   1.989   2.190 -0.3800 -0.9032  0.4902
 1338SOL    MW4 5427   2.455   2.001   2.276  0.1757  0.2394  0.3974
 1339SOL     OW 5428   2.483   2.300   2.355 -0.2380 -0.6511  0.4737
 1339SOL    HW2 5429   2.553   2.342   2.305 -2.5452  2.1661 -0.5120
 1339SOL    HW3 5430   2.475   2.212   2.317  0.9344 -0.0458 -1.1960
 1339SOL    MW4 5431   2.491   2.294   2.344 -0.3879 -0.1996  0.1235
 1340SOL     OW 5432   2.261   2.400   2.208  0.0991  0.2484  0.5032
 1340SOL    HW2 5433   2.256   2.492   2.235 -0.5037  0.3067  0.2180
 1340SOL    HW3 5434   2.332   2.363   2.260  0.1086  0.7901  0.8781
 1340SOL    MW4 5435   2.270   2.408   2.219  0.0210  0.3276  0.5150
 1341SOL     OW 5436   2.253   2.647   2.322  0.0111 -0.1433 -0.7260
 1341SOL    HW2 5437   2.225   2.642   2.413 -1.6546 -1.9275 -1.2806
 1341SOL    HW3 5438   2.343   2.679   2.325  0.0711 -0.4770  1.5601
 1341SOL    MW4 5439   2.261   2.650   2.334 -0.2007 -0.4225 -0.4973
 1342SOL     OW 5440   2.494   2.799   2.272 -0.1095 -0.3580  0.0365
 1342SOL    HW2 5441   2.586   2.782   2.291  0.7063  2.0738 -1.4632
 1342SOL    HW3 5442   2.490   2.808   2.177 -1.6290  0.8524  0.1825
 1342SOL    MW4 5443   2.505   2.798   2.262 -0.2024  0.1223 -0.1421
 1343SOL     OW 5444   2.473   3.056   2.390  0.0202  0.1938 -0.3969
 1343SOL    HW2 5445   2.542   3.110   2.352 -1.0614  0.5246 -1.9635
 1343SOL    HW3 5446   2.488   2.969   2.353  0.1073  0.0649 -0.0592
 1343SOL    MW4 5447   2.484   3.051   2.380 -0.1109  0.2208 -0.5591
 1344SOL     OW 5448   2.270   3.215   2.282 -0.3696 -0.4205  0.0434
 1344SOL    HW2 5449   2.270   3.305   2.317  0.1185 -0.4824  0.2104
 1344SOL    HW3 5450   2.338   3.170   2.333 -0.5755 -0.8701 -0.0793
 1344SOL    MW4 5451   2.279   3.221   2.293 -0.3324 -0.4878  0.0494
 1345SOL     OW 5452   2.229   3.475   2.357 -0.3921  0.0956  0.1495
 1345SOL    HW2 5453   2.222   3.484   2.452 -0.4525  0.7629  0.0888
 1345SOL    HW3 5454   2.163   3.535   2.323 -0.5148 -0.3007 -0.3100
 1345SOL    MW4 5455   2.219   3.484   2.365 -0.4163  0.1311  0.0808
 1346SOL     OW 5456   2.440   3.610   2.263  0.3379  0.1338  0.0879
 1346SOL    HW2 5457   2.437   3.698   2.301 -0.7932 -0.2619  0.9486
 1346SOL    HW3 5458   2.367   3.564   2.304  0.1672 -0.8419 -1.2930
 1346SOL    MW4 5459   2.430   3.615   2.274  0.1664 -0.0472  0.0193
 1347SOL     OW 5460   2.490   3.854   2.371 -0.5464 -0.0759 -0.3381
 1347SOL    HW2 5461   2.494   3.864   2.466  0.4032  1.2386 -0.5107
 1347SOL    HW3 5462   2.420   3.913   2.342  0.9995  1.6105 -0.7232
 1347SOL    MW4 5463   2.481   3.863   2.379 -0.2172  0.3200 -0.4117
 1348SOL     OW 5464   2.265   3.973   2.251 -0.2478 -0.0891  0.1049
 1348SOL    HW2 5465   2.265   4.058   2.295 -0.5148  0.1706 -0.3943
 1348SOL    HW3 5466   2.177   3.937   2.268 -0.0622 -0.3565  0.4945
 1348SOL    MW4 5467   2.253   3.979   2.259 -0.2584 -0.0901  0.0906
 1349SOL     OW 5468   2.235   4.258   2.331 -0.1245 -0.0311  0.4883
 1349SOL    HW2 5469   2.232   4.253   2.426 -0.0334 -1.0089  0.4443
 1349SOL    HW3 5470   2.157   4.307   2.306  0.1620  0.7385  1.1017
 1349SOL    MW4 5471   2.225   4.264   2.340 -0.0746 -0.0587  0.5634
 1350SOL     OW 5472   2.462   4.395   2.249 -0.3929  0.7679 -0.0388
 1350SOL    HW2 5473   2.534   4.348   2.290  0.1368  1.2099 -0.4515
 1350SOL    HW3 5474   2.386   4.337   2.258  0.5717 -0.8160 -1.8711
 1350SOL    MW4 5475   2.461   4.381   2.255 -0.1957  0.6166 -0.3352
 1351SOL     OW 5476   2.937   4.654   2.370 -0.1526  0.1886  0.3334
 1351SOL    HW2 5477   3.017   4.681   2.325  0.3253  2.2477  2.3015
 1351SOL    HW3 5478   2.924   4.563   2.344  2.3819  0.0655 -0.6387
 1351SOL    MW4 5479   2.946   4.646   2.361  0.2451  0.4439  0.4649
 1352SOL     OW 5480   2.690   0.120   2.259 -0.2352 -0.7714  0.1267
 1352SOL    HW2 5481   2.692   0.208   2.296  0.4149 -0.5954 -0.3294
 1352SOL    HW3 5482   2.770   0.078   2.292  0.1459 -0.7410 -0.7701
 1352SOL    MW4 5483   2.700   0.126   2.269 -0.0994 -0.7442 -0.0520
 1353SOL     OW 5484   2.691   0.378   2.339  0.1964 -0.2717 -0.0657
 1353SOL    HW2 5485   2.695   0.376   2.435  1.2179  1.1265 -0.0513
 1353SOL    HW3 5486   2.775   0.416   2.313 -0.0231 -0.7698 -1.5198
 1353SOL    MW4 5487   2.703   0.383   2.348  0.3023 -0.1530 -0.2556
 1354SOL     OW 5488   2.937   0.468   2.244 -0.6924  0.0702  0.1825
 1354SOL    HW2 5489   2.919   0.552   2.285 -0.2752  0.1310  0.2489
 1354SOL    HW3 5490   2.969   0.490   2.157  0.5736  0.0464  0.6140
 1354SOL    MW4 5491   2.939   0.482   2.238 -0.4702  0.0751  0.2482
 1355SOL     OW 5492   2.906   0.728   2.373  0.4514 -0.4886  0.1977
 1355SOL    HW2 5493   2.894   0.707   2.466  0.2900 -0.1402  0.2600
 1355SOL    HW3 5494   2.825   0.775   2.349  0.7808  0.0145  0.0592
 1355SOL    MW4 5495   2.893   0.731   2.382  0.4740 -0.3763  0.1879
 1356SOL     OW 5496   2.700   0.865   2.267  0.0992  0.0082 -0.3777
 1356SOL    HW2 5497   2.700   0.949   2.312 -1.7361  0.1861 -0.6620
 1356SOL    HW3 5498   2.728   0.886   2.178  0.3417  0.2103 -0.2538
 1356SOL    MW4 5499   2.704   0.879   2.261 -0.1111  0.0583 -0.3989
 1357SOL     OW 5500   2.701   1.131   2.379 -0.1889 -0.5731  0.5298
 1357SOL    HW2 5501   2.701   1.121   2.474  0.9976  0.0311  0.5974
 1357SOL    HW3 5502   2.770   1.194   2.361 -0.9965  0.0022 -0.6695
 1357SOL    MW4 5503   2.710   1.138   2.389 -0.1390 -0.4175  0.3805
 1358SOL     OW 5504   2.909   1.294   2.312  0.0110  0.1266 -0.2050
 1358SOL    HW2 5505   2.989   1.242   2.324 -0.2168 -0.3321 -0.6720
 1358SOL    HW3 5506   2.892   1.291   2.218 -0.9673 -0.3875 -0.0205
 1358SOL    MW4 5507   2.917   1.287   2.301 -0.1481 -0.0018 -0.2422
 1359SOL     OW 5508   2.899   1.555   2.366  0.0400  0.1928 -0.0121
 1359SOL    HW2 5509   2.919   1.567   2.459 -2.1140 -0.0011  0.4924
 1359SOL    HW3 5510   2.912   1.462   2.350  1.1768  0.3591 -0.1077
 1359SOL    MW4 5511   2.904   1.544   2.376 -0.0939  0.1891  0.0420
 1360SOL     OW 5512   2.671   1.666   2.275  0.2568 -0.3838 -0.4281
 1360SOL    HW2 5513   2.755   1.635   2.308 -0.2558 -2.5733 -1.1443
 1360SOL    HW3 5514   2.680   1.663   2.180 -0.0880  0.9249 -0.5128
 1360SOL    MW4 5515   2.683   1.662   2.267  0.1435 -0.4998 -0.5338
 1361SOL     OW 5516   2.685   1.940   2.396 -0.7330  0.0452 -0.9050
 1361SOL    HW2 5517   2.683   1.914   2.488  0.3541  1.2004 -0.5532
 1361SOL    HW3 5518   2.684   1.857   2.348  3.1886 -0.7723  0.2206
 1361SOL    MW4 5519   2.685   1.925   2.401 -0.0722  0.0899 -0.7100
 1362SOL     OW 5520   2.881   2.046   2.235 -0.0349 -0.1667 -0.6650
 1362SOL    HW2 5521   2.960   2.012   2.278  0.3865  0.9126 -0.5825
 1362SOL    HW3 5522   2.811   2.030   2.298  0.2803 -0.2257 -0.3242
 1362SOL    MW4 5523   2.883   2.039   2.249  0.0625 -0.0319 -0.6092
 1363SOL     OW 5524   2.916   2.296   2.321  0.3420  0.3706  0.0251
 1363SOL    HW2 5525   2.898   2.286   2.414 -0.8278 -0.4910 -0.2675
 1363SOL    HW3 5526   2.899   2.209   2.284  1.5684  0.4985 -0.8717
 1363SOL    MW4 5527   2.911   2.283   2.328  0.3495  0.2737 -0.1316
 1364SOL     OW 5528   2.683   2.407   2.200 -0.2991 -0.4738  0.5753
 1364SOL    HW2 5529   2.766   2.374   2.235  0.8898  1.6507 -0.1358
 1364SOL    HW3 5530   2.703   2.426   2.108 -1.6187 -0.0640  0.3705
 1364SOL    MW4 5531   2.697   2.405   2.192 -0.3164 -0.1397  0.4544
 1365SOL     OW 5532   2.717   2.658   2.339  0.1856  0.0879 -0.3680
 1365SOL    HW2 5533   2.794   2.690   2.291  1.6313 -1.8293  0.5857
 1365SOL    HW3 5534   2.694   2.576   2.295  0.5734 -0.8952  1.2033
 1365SOL    MW4 5535   2.724   2.651   2.327  0.4272 -0.2949 -0.0348
 1366SOL     OW 5536   2.950   2.821   2.247  0.1507 -0.4219 -0.5060
 1366SOL    HW2 5537   2.948   2.911   2.279  0.2990 -0.0290 -1.5730
 1366SOL    HW3 5538   2.951   2.830   2.152  2.7613 -1.4696 -0.6230
 1366SOL    MW4 5539   2.950   2.834   2.239  0.5150 -0.5081 -0.6623
 1367SOL     OW 5540   2.908   3.101   2.368  0.1169  0.0230  0.7769
 1367SOL    HW2 5541   2.978   3.156   2.332  0.0271 -0.2459  0.1716
 1367SOL    HW3 5542   2.827   3.145   2.342  0.0296 -0.8207 -0.4331
 1367SOL    MW4 5543   2.907   3.114   2.359  0.0935 -0.1235  0.5372
 1368SOL     OW 5544   2.666   3.212   2.266  0.1576  0.3786 -0.0587
 1368SOL    HW2 5545   2.673   3.301   2.300  2.9077  0.0785  0.2149
 1368SOL    HW3 5546   2.658   3.224   2.171 -0.1961  0.9255  0.0366
 1368SOL    MW4 5547   2.666   3.226   2.258  0.4737  0.4110 -0.0100
 1369SOL     OW 5548   2.679   3.472   2.360  0.0407 -0.1682 -0.2706
 1369SOL    HW2 5549   2.752   3.527   2.331 -0.8816  0.3842 -1.6173
 1369SOL    HW3 5550   2.601   3.522   2.335 -0.8055 -1.3931 -0.1210
 1369SOL    MW4 5551   2.678   3.486   2.353 -0.1924 -0.2568 -0.4284
 1370SOL     OW 5552   2.904   3.628   2.306 -0.2479  0.4159  0.5574
 1370SOL    HW2 5553   2.973   3.571   2.341 -0.0974  0.4384  0.2964
 1370SOL    HW3 5554   2.921   3.714   2.345 -0.6527  0.2148  1.1893
 1370SOL    MW4 5555   2.916   3.632   2.316 -0.2816  0.3924  0.6063
 1371SOL     OW 5556   2.910   3.887   2.392  0.3593 -0.6356 -0.4323
 1371SOL    HW2 5557   2.896   3.882   2.486 -1.3949 -0.2081 -0.6553
 1371SOL    HW3 5558   2.830   3.926   2.357  1.2249 -0.2181 -2.0396
 1371SOL    MW4 5559   2.898   3.892   2.400  0.2420 -0.5240 -0.6738
 1372SOL     OW 5560   2.692   3.998   2.267 -0.1912 -0.0371  0.3410
 1372SOL    HW2 5561   2.634   3.929   2.300 -0.0506 -0.3478 -0.0525
 1372SOL    HW3 5562   2.680   3.996   2.172  0.0228  0.2928  0.3064
 1372SOL    MW4 5563   2.683   3.989   2.258 -0.1445 -0.0346  0.2847
 1373SOL     OW 5564   2.680   4.267   2.352 -0.1479  0.5701 -0.0151
 1373SOL    HW2 5565   2.684   4.270   2.447 -0.4285 -0.3145  0.0289
 1373SOL    HW3 5566   2.689   4.174   2.330 -1.3007  0.6216 -0.7824
 1373SOL    MW4 5567   2.681   4.255   2.362 -0.3371  0.4601 -0.1109
 1374SOL     OW 5568   2.917   4.389   2.268 -0.1631  0.1676 -0.0600
 1374SOL    HW2 5569   2.993   4.338   2.295 -1.0308 -0.5694  1.0372
 1374SOL    HW3 5570   2.843   4.343   2.306 -1.0545  1.5645 -0.0784
 1374SOL    MW4 5571   2.918   4.376   2.277 -0.3953  0.2537  0.0825
 1375SOL     OW 5572   3.352   4.656   2.354 -0.5316  0.3171 -0.0350
 1375SOL    HW2 5573   3.364   4.641   2.447 -1.3982 -0.4359 -0.0398
 1375SOL    HW3 5574   3.438   4.686   2.323  0.1713 -0.9040  0.7131
 1375SOL    MW4 5575   3.365   4.658   2.362 -0.5529  0.0567  0.0634
 1376SOL     OW 5576   3.141   0.090   2.220  0.8962  0.3903 -0.2709
 1376SOL    HW2 5577   3.132   0.183   2.243  2.0378  0.7001 -1.0077
 1376SOL    HW3 5578   3.214   0.059   2.273 -1.3336 -0.8718  2.1719
 1376SOL    MW4 5579   3.150   0.098   2.230  0.7527  0.2647 -0.0458
 1377SOL     OW 5580   3.154   0.350   2.361 -0.2131  0.0872  0.1241
 1377SOL    HW2 5581   3.223   0.398   2.316 -1.0734  1.1035 -0.1200
 1377SOL    HW3 5582   3.073   0.376   2.317 -0.8229 -0.6091  0.8133
 1377SOL    MW4 5583   3.152   0.360   2.349 -0.4070  0.1294  0.1829
 1378SOL     OW 5584   3.372   0.529   2.273  0.2788 -0.2738 -0.0410
 1378SOL    HW2 5585   3.458   0.495   2.300  0.5580 -0.0810 -0.6662
 1378SOL    HW3 5586   3.373   0.521   2.177 -0.0126  0.6444 -0.1221
 1378SOL    MW4 5587   3.384   0.524   2.264  0.2770 -0.1272 -0.1342
 1379SOL     OW 5588   3.347   0.800   2.341  0.0642 -0.4102 -0.2478
 1379SOL    HW2 5589   3.425   0.840   2.305 -0.3613 -0.8534 -1.7044
 1379SOL    HW3 5590   3.359   0.706   2.326 -0.1998 -0.5981  0.6384
 1379SOL    MW4 5591   3.359   0.793   2.335 -0.0269 -0.4935 -0.3231
 1380SOL     OW 5592   3.115   0.886   2.216  0.2807  0.1773  0.3911
 1380SOL    HW2 5593   3.201   0.862   2.250  0.3798  1.2717  0.9119
 1380SOL    HW3 5594   3.054   0.829   2.264  0.8385 -1.9080 -1.2833
 1380SOL    MW4 5595   3.118   0.875   2.227  0.3674  0.0466  0.2387
 1381SOL     OW 5596   3.147   1.137   2.332 -0.0537 -0.2948  0.4327
 1381SOL    HW2 5597   3.220   1.171   2.280 -0.6839 -0.4085 -0.5432
 1381SOL    HW3 5598   3.135   1.047   2.300  0.3854 -0.8065  1.6759
 1381SOL    MW4 5599   3.155   1.129   2.321 -0.0789 -0.3773  0.4680
 1382SOL     OW 5600   3.362   1.240   2.199  0.3142  0.4157 -0.0416
 1382SOL    HW2 5601   3.430   1.210   2.260  0.8379 -0.7507 -1.1801
 1382SOL    HW3 5602   3.346   1.330   2.224  2.4254  0.7738  0.1422
 1382SOL    MW4 5603   3.369   1.248   2.210  0.6621  0.3091 -0.1676
 1383SOL     OW 5604   3.336   1.489   2.305 -0.0085 -0.0597  0.3195
 1383SOL    HW2 5605   3.345   1.475   2.399  0.7288 -0.6008  0.1712
 1383SOL    HW3 5606   3.259   1.545   2.296 -0.9642 -1.2387  1.1462
 1383SOL    MW4 5607   3.327   1.495   2.316 -0.0372 -0.2867  0.4089
 1384SOL     OW 5608   3.120   1.656   2.269  0.1781 -0.2226  0.3055
 1384SOL    HW2 5609   3.124   1.743   2.309 -2.1083  0.4928 -0.9324
 1384SOL    HW3 5610   3.042   1.615   2.307  0.3988 -1.1614 -0.2241
 1384SOL    MW4 5611   3.110   1.662   2.279 -0.0944 -0.2520  0.0722
 1385SOL     OW 5612   3.120   1.930   2.334  0.6765 -0.1136 -0.2813
 1385SOL    HW2 5613   3.129   1.951   2.427  0.0351 -2.2744  0.2854
 1385SOL    HW3 5614   3.191   1.979   2.292 -0.4134  2.7263  1.0219
 1385SOL    MW4 5615   3.130   1.939   2.341  0.4480 -0.0241 -0.0348
 1386SOL     OW 5616   3.371   2.033   2.229 -0.3918 -0.5819  0.5755
 1386SOL    HW2 5617   3.440   1.974   2.258  0.8578  0.3739 -0.4148
 1386SOL    HW3 5618   3.367   2.022   2.134 -0.8881  0.1340  0.5013
 1386SOL    MW4 5619   3.379   2.024   2.220 -0.2923 -0.3612  0.4351
 1387SOL     OW 5620   3.386   2.289   2.365  0.1719 -0.3659 -0.0813
 1387SOL    HW2 5621   3.311   2.337   2.328  0.3490 -0.6122 -0.7574
 1387SOL    HW3 5622   3.386   2.205   2.320  1.3963 -0.0248 -0.7407
 1387SOL    MW4 5623   3.376   2.285   2.354  0.3567 -0.3536 -0.2575
 1388SOL     OW 5624   3.171   2.404   2.235  0.1414  0.0677  0.4666
 1388SOL    HW2 5625   3.182   2.492   2.272 -0.4362  0.7685 -0.9848
 1388SOL    HW3 5626   3.086   2.375   2.267 -0.2306  0.5512 -0.0822
 1388SOL    MW4 5627   3.162   2.412   2.244  0.0160  0.2236  0.2024
 1389SOL     OW 5628   3.167   2.655   2.351 -0.2019 -0.0767 -0.4259
 1389SOL    HW2 5629   3.164   2.652   2.446 -0.3815 -1.8584 -0.4682
 1389SOL    HW3 5630   3.089   2.706   2.326 -1.1453 -1.1273  0.3283
 1389SOL    MW4 5631   3.156   2.662   2.360 -0.3500 -0.4504 -0.3319
 1390SOL     OW 5632   3.378   2.813   2.284 -0.3095  0.7264  0.5163
 1390SOL    HW2 5633   3.370   2.902   2.320 -1.3289  0.5264  0.8162
 1390SOL    HW3 5634   3.294   2.772   2.306  0.0997 -0.2545  0.2298
 1390SOL    MW4 5635   3.366   2.819   2.292 -0.3901  0.5710  0.5181
 1391SOL     OW 5636   3.380   3.072   2.376 -0.1391  0.3870  0.4649
 1391SOL    HW2 5637   3.463   3.118   2.361  0.5483 -1.3626 -1.3895
 1391SOL    HW3 5638   3.313   3.130   2.339  0.7128 -0.0225 -1.7860
 1391SOL    MW4 5639   3.382   3.085   2.369  0.0639  0.1020 -0.0765
 1392SOL     OW 5640   3.137   3.221   2.284 -0.1574  0.7093  0.0531
 1392SOL    HW2 5641   3.126   3.313   2.308  0.0538  0.5931  0.6204
 1392SOL    HW3 5642   3.137   3.221   2.189 -0.0079  1.3202  0.0479
 1392SOL    MW4 5643   3.136   3.233   2.275 -0.1101  0.7749  0.1271
 1393SOL     OW 5644   3.119   3.480   2.397 -0.0947 -0.4131  0.1668
 1393SOL    HW2 5645   3.130   3.454   2.488  0.1291 -0.4447  0.1311
 1393SOL    HW3 5646   3.206   3.509   2.369 -0.2075 -0.2042  0.0256
 1393SOL    MW4 5647   3.132   3.481   2.405 -0.0799 -0.3896  0.1435
 1394SOL     OW 5648   3.349   3.560   2.293 -0.3715 -0.2285 -0.7097
 1394SOL    HW2 5649   3.439   3.530   2.299  0.1662  1.2345 -1.2482
 1394SOL    HW3 5650   3.338   3.586   2.202 -0.1790  3.0965  0.1514
 1394SOL    MW4 5651   3.359   3.560   2.282 -0.2754  0.4029 -0.6671
 1395SOL     OW 5652   3.357   3.833   2.373  0.1659  0.0168  0.3611
 1395SOL    HW2 5653   3.438   3.874   2.343 -0.5786  0.1623 -1.5378
 1395SOL    HW3 5654   3.371   3.739   2.357  0.2770 -0.0471  0.8245
 1395SOL    MW4 5655   3.369   3.826   2.367  0.0823  0.0277  0.1719
 1396SOL     OW 5656   3.137   3.975   2.252 -0.6679 -0.2215 -0.0781
 1396SOL    HW2 5657   3.217   3.929   2.280  0.7064  2.2422  0.1332
 1396SOL    HW3 5658   3.066   3.924   2.290  0.8404 -1.8344  0.6704
 1396SOL    MW4 5659   3.138   3.962   2.261 -0.2873 -0.1090  0.0484
 1397SOL     OW 5660   3.124   4.234   2.337  0.6690 -0.4617 -0.0668
 1397SOL    HW2 5661   3.206   4.282   2.324  0.2220 -0.0873 -1.5874
 1397SOL    HW3 5662   3.143   4.146   2.306  0.7028 -0.5562  0.2274
 1397SOL    MW4 5663   3.137   4.229   2.331  0.6144 -0.4244 -0.2286
 1398SOL     OW 5664   3.351   4.381   2.266  0.4789  0.3514 -0.5202
 1398SOL    HW2 5665   3.368   4.473   2.291  2.8091 -0.2643  0.2933
 1398SOL    HW3 5666   3.345   4.383   2.171 -1.0734  1.5790 -0.4324
 1398SOL    MW4 5667   3.353   4.394   2.257  0.5817  0.4325 -0.4010
 1399SOL     OW 5668   3.818   4.650   2.377 -0.0702  0.0438  0.4606
 1399SOL    HW2 5669   3.830   4.659   2.471 -0.2482  0.4251  0.4467
 1399SOL    HW3 5670   3.901   4.679   2.339  0.9604 -2.5816  0.6097
 1399SOL    MW4 5671   3.831   4.655   2.384  0.0424 -0.2522  0.4785
 1400SOL     OW 5672   3.594   0.102   2.251 -0.1291 -0.0556 -0.3267
 1400SOL    HW2 5673   3.592   0.187   2.295 -2.2935 -0.2776  0.0567
 1400SOL    HW3 5674   3.674   0.061   2.283 -0.3222  0.8474  1.3963
 1400SOL    MW4 5675   3.604   0.108   2.261 -0.4401  0.0342 -0.0486
 1401SOL     OW 5676   3.594   0.373   2.337 -0.4039 -0.5881 -0.4928
 1401SOL    HW2 5677   3.609   0.375   2.431  0.9063 -0.5573 -0.6929
 1401SOL    HW3 5678   3.676   0.405   2.299 -1.5372  1.0817 -1.5774
 1401SOL    MW4 5679   3.607   0.378   2.344 -0.3803 -0.3637 -0.6623
 1402SOL     OW 5680   3.847   0.496   2.261  0.2064  0.4228 -0.3490
 1402SOL    HW2 5681   3.839   0.590   2.276  2.5551  0.6495 -0.3187
 1402SOL    HW3 5682   3.860   0.488   2.167  0.1781  0.1256 -0.3277
 1402SOL    MW4 5683   3.847   0.507   2.250  0.5124  0.4135 -0.3421
 1403SOL     OW 5684   3.798   0.764   2.338 -0.3142  0.0007 -0.3582
 1403SOL    HW2 5685   3.813   0.758   2.432 -1.5645  0.0389 -0.1524
 1403SOL    HW3 5686   3.867   0.823   2.306  0.8637 -0.9674  0.3326
 1403SOL    MW4 5687   3.809   0.771   2.346 -0.3235 -0.1220 -0.2398
 1404SOL     OW 5688   3.581   0.918   2.256  0.6657 -0.0957 -0.2957
 1404SOL    HW2 5689   3.641   0.857   2.299  0.9902 -0.5888 -1.4131
 1404SOL    HW3 5690   3.603   0.911   2.163 -0.9526 -0.1035 -0.7021
 1404SOL    MW4 5691   3.591   0.909   2.249  0.4950 -0.1618 -0.4966
 1405SOL     OW 5692   3.594   1.178   2.350 -0.3751 -0.2346  0.2724
 1405SOL    HW2 5693   3.589   1.173   2.446  0.6505 -1.3210  0.2785
 1405SOL    HW3 5694   3.621   1.091   2.323 -0.5071  0.1149 -1.0032
 1405SOL    MW4 5695   3.597   1.166   2.359 -0.2575 -0.3319  0.1051
 1406SOL     OW 5696   3.810   1.316   2.241 -0.3429 -0.1489 -0.1754
 1406SOL    HW2 5697   3.817   1.402   2.284  0.4442  0.2361 -1.0551
 1406SOL    HW3 5698   3.733   1.276   2.281  0.6438 -0.0078  1.9401
 1406SOL    MW4 5699   3.801   1.322   2.252 -0.1087 -0.0794 -0.0124
 1407SOL     OW 5700   3.819   1.551   2.370  0.3130  0.1578 -0.0330
 1407SOL    HW2 5701   3.828   1.546   2.466  0.4846 -1.5575 -0.1248
 1407SOL    HW3 5702   3.731   1.586   2.357  0.0536 -0.1721  0.7584
 1407SOL    MW4 5703   3.808   1.555   2.381  0.3016 -0.1121  0.0594
 1408SOL     OW 5704   3.579   1.641   2.253 -0.0115 -0.4724  0.2095
 1408SOL    HW2 5705   3.502   1.589   2.275  1.2480 -2.5583 -0.1448
 1408SOL    HW3 5706   3.596   1.622   2.161  0.4422  0.6246  0.0544
 1408SOL    MW4 5707   3.571   1.632   2.244  0.2148 -0.6028  0.1421
 1409SOL     OW 5708   3.590   1.911   2.325  0.1855 -0.2513  0.2861
 1409SOL    HW2 5709   3.575   1.912   2.419  0.0171  0.0333  0.2560
 1409SOL    HW3 5710   3.607   1.819   2.305  0.4030 -0.2840  0.6217
 1409SOL    MW4 5711   3.590   1.899   2.335  0.1919 -0.2180  0.3266
 1410SOL     OW 5712   3.814   2.047   2.233 -0.4409  0.2631  0.1253
 1410SOL    HW2 5713   3.893   2.005   2.265  1.1569  2.9000 -0.1752
 1410SOL    HW3 5714   3.742   2.004   2.280  1.3956  0.0502  2.8373
 1410SOL    MW4 5715   3.815   2.036   2.243  0.0122  0.5832  0.4435
 1411SOL     OW 5716   3.828   2.307   2.371  0.2117  0.2120  0.1584
 1411SOL    HW2 5717   3.747   2.354   2.350 -0.4129  0.0329  2.0817
 1411SOL    HW3 5718   3.815   2.219   2.336 -0.8205 -0.0889  1.2570
 1411SOL    MW4 5719   3.815   2.302   2.364 -0.0069  0.1488  0.5569
 1412SOL     OW 5720   3.596   2.437   2.258 -0.0351  0.3104 -0.2614
 1412SOL    HW2 5721   3.522   2.384   2.288 -0.5703  0.1789 -1.7769
 1412SOL    HW3 5722   3.599   2.423   2.163  0.4393  2.2154 -0.5415
 1412SOL    MW4 5723   3.587   2.428   2.250 -0.0432  0.5443 -0.4983
 1413SOL     OW 5724   3.589   2.672   2.389  0.4791 -0.1692 -0.0390
 1413SOL    HW2 5725   3.595   2.590   2.341 -0.1367 -0.9052  1.1001
 1413SOL    HW3 5726   3.514   2.717   2.350 -0.9162 -1.4017  1.1388
 1413SOL    MW4 5727   3.580   2.667   2.378  0.2139 -0.4289  0.2668
 1414SOL     OW 5728   3.814   2.851   2.284  0.3224  0.1883 -0.0708
 1414SOL    HW2 5729   3.782   2.932   2.325 -0.3723 -0.9305  1.6388
 1414SOL    HW3 5730   3.752   2.784   2.312  1.9957 -1.3001  0.1414
 1414SOL    MW4 5731   3.802   2.853   2.293  0.4516 -0.1557  0.1829
 1415SOL     OW 5732   3.830   3.110   2.380 -0.0315  0.0192 -0.2143
 1415SOL    HW2 5733   3.836   3.120   2.474  1.2728 -0.9923 -0.1654
 1415SOL    HW3 5734   3.894   3.171   2.344 -0.8778  0.7656 -0.4780
 1415SOL    MW4 5735   3.839   3.119   2.387  0.0291 -0.0160 -0.2427
 1416SOL     OW 5736   3.597   3.216   2.268  0.3156 -0.3026  0.1404
 1416SOL    HW2 5737   3.594   3.302   2.310 -0.8063 -0.0765 -0.3833
 1416SOL    HW3 5738   3.681   3.179   2.294  1.3548  1.4661 -0.6645
 1416SOL    MW4 5739   3.607   3.222   2.277  0.3045 -0.0393 -0.0346
 1417SOL     OW 5740   3.609   3.469   2.349 -0.0451 -0.1716  0.1907
 1417SOL    HW2 5741   3.612   3.470   2.445 -0.5046 -0.6327  0.2195
 1417SOL    HW3 5742   3.695   3.498   2.321 -0.0369  0.3345  0.7451
 1417SOL    MW4 5743   3.621   3.473   2.358 -0.1049 -0.1657  0.2675
 1418SOL     OW 5744   3.828   3.599   2.246  0.0572  0.0763 -0.3265
 1418SOL    HW2 5745   3.816   3.691   2.272 -1.9891 -0.1182 -0.5125
 1418SOL    HW3 5746   3.846   3.603   2.152 -0.6285  0.2671 -0.4555
 1418SOL    MW4 5747   3.829   3.612   2.237 -0.3035  0.0758 -0.3679
 1419SOL     OW 5748   3.834   3.850   2.356  0.4808  0.0319 -0.0239
 1419SOL    HW2 5749   3.822   3.877   2.447  2.1141  0.0943  0.1924
 1419SOL    HW3 5750   3.901   3.910   2.322 -1.6321  1.3903 -1.9150
 1419SOL    MW4 5751   3.842   3.862   2.364  0.4175  0.2193 -0.2446
 1420SOL     OW 5752   3.595   3.936   2.249 -0.0242 -0.0536 -0.0230
 1420SOL    HW2 5753   3.581   4.027   2.273 -1.2220 -0.1049 -0.4654
 1420SOL    HW3 5754   3.678   3.912   2.291 -0.6171  0.7029  1.6422
 1420SOL    MW4 5755   3.604   3.945   2.258 -0.2604  0.0396  0.1385
 1421SOL     OW 5756   3.571   4.211   2.314 -0.0810  0.1019  0.1403
 1421SOL    HW2 5757   3.646   4.269   2.299 -0.2036  0.8149  2.2384
 1421SOL    HW3 5758   3.495   4.266   2.300 -0.2191 -0.0910  0.1304
 1421SOL    MW4 5759   3.571   4.226   2.310 -0.1154  0.1702  0.4158
 1422SOL     OW 5760   3.814   4.372   2.312 -0.0175 -0.2144  0.3400
 1422SOL    HW2 5761   3.888   4.334   2.359  0.1041 -0.9546 -0.4239
 1422SOL    HW3 5762   3.817   4.465   2.333  1.5721 -0.1155 -0.2509
 1422SOL    MW4 5763   3.825   4.379   2.321  0.2084 -0.2985  0.1612
 1423SOL     OW 5764   4.287   0.002   2.367 -0.1073  0.3134 -0.0967
 1423SOL    HW2 5765   4.297   0.002   2.462  0.7407 -2.9338 -0.1366
 1423SOL    HW3 5766   4.354   0.063   2.336  0.6878  0.1417  1.2688
 1423SOL    MW4 5767   4.297   0.010   2.375  0.1097 -0.1377  0.0780
 1424SOL     OW 5768   4.037   0.096   2.268 -0.0921 -0.2108  0.1789
 1424SOL    HW2 5769   4.048   0.190   2.279 -0.5475 -0.3654  2.0479
 1424SOL    HW3 5770   4.118   0.058   2.304 -0.0192 -0.5626 -0.3357
 1424SOL    MW4 5771   4.049   0.103   2.274 -0.1426 -0.2776  0.3576
 1425SOL     OW 5772   4.075   0.368   2.350  0.0157  0.2288 -0.1378
 1425SOL    HW2 5773   4.147   0.416   2.309 -0.2292  2.6559  2.1717
 1425SOL    HW3 5774   3.997   0.419   2.330 -0.6795 -0.8088 -0.1273
 1425SOL    MW4 5775   4.074   0.381   2.342 -0.1078  0.4121  0.1686
 1426SOL     OW 5776   4.288   0.516   2.202 -0.3218  0.0357  0.0967
 1426SOL    HW2 5777   4.268   0.597   2.249  1.6977  0.9996 -0.6227
 1426SOL    HW3 5778   4.364   0.480   2.248  0.3394 -0.1366 -1.0949
 1426SOL    MW4 5779   4.295   0.522   2.214  0.0319  0.1401 -0.1552
 1427SOL     OW 5780   4.222   0.759   2.323  0.5043 -0.3474  0.8212
 1427SOL    HW2 5781   4.145   0.810   2.298  0.4328 -0.1588  1.4172
 1427SOL    HW3 5782   4.296   0.808   2.287  0.4523  0.3017  1.5962
 1427SOL    MW4 5783   4.222   0.772   2.315  0.4878 -0.2369  1.0021
 1428SOL     OW 5784   4.006   0.924   2.252  0.5333 -0.6367 -0.0450
 1428SOL    HW2 5785   4.018   1.014   2.282 -0.4949 -1.1933  2.0671
 1428SOL    HW3 5786   4.003   0.932   2.156 -0.9641  1.7338  0.1595
 1428SOL    MW4 5787   4.007   0.937   2.243  0.2007 -0.3974  0.2606
 1429SOL     OW 5788   4.048   1.176   2.345  0.0522  0.0148 -0.4741
 1429SOL    HW2 5789   4.038   1.167   2.440 -1.1298 -2.1618 -0.7823
 1429SOL    HW3 5790   3.963   1.210   2.315 -0.2188 -1.0814 -0.9637
 1429SOL    MW4 5791   4.036   1.179   2.354 -0.1397 -0.4170 -0.5796
 1430SOL     OW 5792   4.282   1.309   2.276 -0.8379 -0.5309 -0.3765
 1430SOL    HW2 5793   4.204   1.258   2.296 -0.7077 -0.7066 -0.3184
 1430SOL    HW3 5794   4.355   1.249   2.292 -0.6880 -0.3458 -0.3641
 1430SOL    MW4 5795   4.282   1.295   2.281 -0.8011 -0.5296 -0.3674
 1431SOL     OW 5796   4.280   1.557   2.368  0.1487 -0.1060 -0.0682
 1431SOL    HW2 5797   4.312   1.470   2.346 -0.6341 -1.1743  2.8035
 1431SOL    HW3 5798   4.357   1.614   2.360  0.6168 -1.0000 -2.1541
 1431SOL    MW4 5799   4.295   1.553   2.364  0.1068 -0.3650  0.0355
 1432SOL     OW 5800   4.052   1.671   2.252 -0.2004 -0.4883  0.1324
 1432SOL    HW2 5801   4.128   1.635   2.298 -0.1296  0.1644  0.5414
 1432SOL    HW3 5802   3.977   1.627   2.290 -0.1357 -0.0168  0.8268
 1432SOL    MW4 5803   4.052   1.661   2.263 -0.1831 -0.3399  0.2778
 1433SOL     OW 5804   4.043   1.934   2.330 -0.0388 -0.2810  0.1629
 1433SOL    HW2 5805   4.031   1.934   2.425 -0.3683 -0.3249  0.1214
 1433SOL    HW3 5806   4.044   1.842   2.306  0.9839 -0.2934  0.2412
 1433SOL    MW4 5807   4.041   1.922   2.339  0.0529 -0.2885  0.1676
 1434SOL     OW 5808   4.266   2.080   2.225  0.1394 -0.2064 -0.1533
 1434SOL    HW2 5809   4.255   2.166   2.266 -1.7299  0.3959 -1.8418
 1434SOL    HW3 5810   4.187   2.031   2.249  1.2620 -1.5219  0.9192
 1434SOL    MW4 5811   4.254   2.085   2.234  0.0410 -0.3006 -0.2346
 1435SOL     OW 5812   4.201   2.307   2.366  0.0012  0.1270 -0.0354
 1435SOL    HW2 5813   4.130   2.358   2.328 -0.9692 -0.2855  1.2050
 1435SOL    HW3 5814   4.277   2.364   2.360 -0.3812  0.5031 -1.5346
 1435SOL    MW4 5815   4.202   2.321   2.361 -0.1774  0.1221 -0.0699
 1436SOL     OW 5816   4.011   2.494   2.258 -0.3708 -0.3554  0.1204
 1436SOL    HW2 5817   4.036   2.577   2.299 -0.4821  0.5490 -1.6080
 1436SOL    HW3 5818   3.938   2.463   2.312 -0.4673  0.7603  0.6739
 1436SOL    MW4 5819   4.005   2.501   2.271 -0.3986 -0.0892 -0.0346
 1437SOL     OW 5820   4.056   2.736   2.381  0.2902 -0.0977  0.0036
 1437SOL    HW2 5821   4.063   2.754   2.475  0.2024 -0.6305  0.1153
 1437SOL    HW3 5822   3.988   2.796   2.350 -0.1524 -0.3833  0.4089
 1437SOL    MW4 5823   4.048   2.746   2.390  0.2203 -0.2058  0.0720
 1438SOL     OW 5824   4.258   2.873   2.247  0.1825 -0.4404  0.1381
 1438SOL    HW2 5825   4.182   2.830   2.288  0.0973 -0.8468 -0.4316
 1438SOL    HW3 5826   4.334   2.832   2.289  0.1240  2.0678  2.8846
 1438SOL    MW4 5827   4.258   2.862   2.258  0.1636 -0.1631  0.4253
 1439SOL     OW 5828   4.258   3.128   2.348 -0.0314 -0.0527  0.6171
 1439SOL    HW2 5829   4.262   3.042   2.308 -0.6043 -0.1052  0.6605
 1439SOL    HW3 5830   4.338   3.173   2.319 -0.1189 -0.3219 -0.0421
 1439SOL    MW4 5831   4.269   3.123   2.339 -0.1192 -0.0951  0.5357
 1440SOL     OW 5832   4.025   3.267   2.244  0.5311  0.1015 -0.2592
 1440SOL    HW2 5833   4.043   3.352   2.284 -3.0522  0.1469  1.4309
 1440SOL    HW3 5834   4.098   3.211   2.273  1.2166  1.7618  1.2999
 1440SOL    MW4 5835   4.037   3.271   2.253  0.1488  0.3264  0.1693
 1441SOL     OW 5836   4.048   3.506   2.395  0.0806  0.0457 -0.0874
 1441SOL    HW2 5837   4.126   3.551   2.363  0.2743 -1.8912 -2.5206
 1441SOL    HW3 5838   3.975   3.550   2.351 -0.0894  0.8598  0.9973
 1441SOL    MW4 5839   4.049   3.518   2.385  0.0834 -0.1025 -0.2656
 1442SOL     OW 5840   4.254   3.627   2.271  0.2911 -0.4327 -0.0493
 1442SOL    HW2 5841   4.274   3.717   2.295 -0.4232 -0.0460 -0.8927
 1442SOL    HW3 5842   4.241   3.629   2.176  0.5129 -1.4662 -0.1090
 1442SOL    MW4 5843   4.255   3.639   2.262  0.2255 -0.5178 -0.1683
 1443SOL     OW 5844   4.297   3.886   2.346 -0.0239 -0.1218 -0.6776
 1443SOL    HW2 5845   4.285   3.881   2.441  0.7003 -0.2261 -0.5950
 1443SOL    HW3 5846   4.386   3.917   2.334 -0.6838  1.6168 -1.3099
 1443SOL    MW4 5847   4.307   3.889   2.357 -0.0157  0.0939 -0.7503
 1444SOL     OW 5848   4.052   4.008   2.246  0.0273 -0.5036 -0.1589
 1444SOL    HW2 5849   4.134   3.965   2.272 -0.0910 -0.4310  0.3531
 1444SOL    HW3 5850   4.062   4.025   2.153  0.7944 -0.0510 -0.0004
 1444SOL    MW4 5851   4.064   4.004   2.237  0.1125 -0.4344 -0.0706
 1445SOL     OW 5852   4.046   4.262   2.395 -0.1788 -0.1162 -0.3403
 1445SOL    HW2 5853   4.128   4.304   2.368 -0.0040 -0.3968 -0.2509
 1445SOL    HW3 5854   4.051   4.174   2.357  0.0874 -0.5340  0.6191
 1445SOL    MW4 5855   4.058   4.256   2.387 -0.1202 -0.2084 -0.2019
 1446SOL     OW 5856   4.285   4.382   2.292  0.4770 -0.4719 -0.3345
 1446SOL    HW2 5857   4.303   4.474   2.312 -1.0989 -0.4104  0.8793
 1446SOL    HW3 5858   4.365   4.337   2.319  0.0715  0.1714  2.1193
 1446SOL    MW4 5859   4.298   4.388   2.298  0.2155 -0.3786  0.1495
 1447SOL     OW 5860   0.266   0.040   2.645 -0.4137 -0.1822 -0.5252
 1447SOL    HW2 5861   0.264  -0.051   2.673  1.6015  0.0251  0.3731
 1447SOL    HW3 5862   0.189   0.079   2.686 -0.1557 -1.0189  0.7946
 1447SOL    MW4 5863   0.256   0.034   2.654 -0.1138 -0.2652 -0.2325
 1448SOL     OW 5864   0.026   0.145   2.729 -0.1575 -0.4141 -0.2880
 1448SOL    HW2 5865  -0.000   0.150   2.821 -1.0267  0.6688 -0.5776
 1448SOL    HW3 5866   0.023   0.236   2.699  1.4947 -0.5941 -1.0147
 1448SOL    MW4 5867   0.022   0.158   2.737 -0.0541 -0.2950 -0.4220
 1449SOL     OW 5868   4.488   0.420   2.631  0.1314 -0.0531 -0.2020
 1449SOL    HW2 5869   4.574   0.431   2.672  0.4466 -1.6368 -0.3698
 1449SOL    HW3 5870   4.506   0.424   2.537 -0.0543  0.1213 -0.2297
 1449SOL    MW4 5871   4.502   0.422   2.624  0.1488 -0.2390 -0.2279
 1450SOL     OW 5872   0.226   0.489   2.749 -0.0135  0.0436  0.4917
 1450SOL    HW2 5873   0.229   0.458   2.840 -1.3656 -0.9010  0.2206
 1450SOL    HW3 5874   0.309   0.458   2.712  0.7443  0.7980  1.4943
 1450SOL    MW4 5875   0.238   0.481   2.756 -0.0919  0.0185  0.5884
 1451SOL     OW 5876   0.183   0.761   2.642  0.5128 -0.7127 -0.0337
 1451SOL    HW2 5877   0.259   0.810   2.674 -1.0055  0.3388  2.0970
 1451SOL    HW3 5878   0.191   0.675   2.684  0.3175 -0.4621  0.5242
 1451SOL    MW4 5879   0.194   0.756   2.652  0.2867 -0.5409  0.3209
 1452SOL     OW 5880   4.454   0.902   2.710 -0.0494 -0.3158  0.1792
 1452SOL    HW2 5881   4.379   0.853   2.677 -0.0932  1.7782 -3.0175
 1452SOL    HW3 5882   4.530   0.850   2.685 -0.2221 -0.2200 -0.5360
 1452SOL    MW4 5883   4.454   0.889   2.703 -0.0782 -0.0269 -0.3369
 1453SOL     OW 5884   4.489   1.170   2.614  0.6531  0.0493 -0.2049
 1453SOL    HW2 5885   4.569   1.202   2.656 -0.9894 -0.0477  3.1812
 1453SOL    HW3 5886   4.473   1.085   2.655 -1.0766 -0.0354 -1.0095
 1453SOL    MW4 5887   4.497   1.163   2.625  0.2079  0.0254  0.1357
 1454SOL     OW 5888   0.224   1.278   2.741 -0.3547 -0.0962 -0.0622
 1454SOL    HW2 5889   0.302   1.260   2.688  0.9364  0.5115  1.5921
 1454SOL    HW3 5890   0.205   1.371   2.724  0.3119  0.2130  0.8367
 1454SOL    MW4 5891   0.232   1.288   2.731 -0.0964  0.0248  0.2744
 1455SOL     OW 5892   0.210   1.544   2.644  0.3226  0.2716 -0.0350
 1455SOL    HW2 5893   0.284   1.591   2.682 -0.2084  1.5429 -0.5345
 1455SOL    HW3 5894   0.136   1.606   2.651 -0.5957 -0.8195  0.0947
 1455SOL    MW4 5895   0.210   1.559   2.650  0.1314  0.2954 -0.0839
 1456SOL     OW 5896   0.004   1.709   2.697  0.1715 -0.2201  0.0173
 1456SOL    HW2 5897   0.011   1.705   2.792 -1.2431 -0.3573  0.1309
 1456SOL    HW3 5898  -0.027   1.798   2.679  0.5609 -0.1518 -0.3311
 1456SOL    MW4 5899   0.001   1.720   2.707  0.0362 -0.2291 -0.0136
 1457SOL     OW 5900   4.453   1.978   2.630  0.4702  0.2616  0.1492
 1457SOL    HW2 5901   4.532   2.004   2.676  0.0427  2.7541 -0.4642
 1457SOL    HW3 5902   4.468   2.004   2.539 -1.0023  0.6808  0.0099
 1457SOL    MW4 5903   4.465   1.985   2.624  0.2198  0.6455  0.0498
 1458SOL     OW 5904   0.191   2.095   2.753 -0.3879 -0.1702  0.2775
 1458SOL    HW2 5905   0.254   2.036   2.713 -0.4518 -0.4047  0.5235
 1458SOL    HW3 5906   0.210   2.181   2.714 -0.1631 -0.3132  0.0749
 1458SOL    MW4 5907   0.202   2.099   2.743 -0.3667 -0.2201  0.2832
 1459SOL     OW 5908   0.232   2.368   2.651 -0.3392 -0.3303  0.1938
 1459SOL    HW2 5909   0.320   2.393   2.679 -0.4851 -0.9542  1.1912
 1459SOL    HW3 5910   0.174   2.424   2.702 -0.5539 -0.2577 -0.1228
 1459SOL    MW4 5911   0.236   2.379   2.661 -0.3868 -0.4027  0.2837
 1460SOL     OW 5912   4.489   2.507   2.743 -0.1626 -0.2189 -0.2922
 1460SOL    HW2 5913   4.470   2.507   2.836 -0.5038 -0.9240 -0.3603
 1460SOL    HW3 5914   4.427   2.445   2.705  0.2121 -0.2088 -0.9392
 1460SOL    MW4 5915   4.478   2.499   2.750 -0.1583 -0.3107 -0.3870
 1461SOL     OW 5916   0.005   2.744   2.621  0.2505 -0.5830  0.0511
 1461SOL    HW2 5917  -0.063   2.782   2.677  0.7911  1.2802 -0.5039
 1461SOL    HW3 5918   0.028   2.662   2.663  0.1227  0.4323  2.1509
 1461SOL    MW4 5919  -0.001   2.739   2.634  0.3052 -0.2034  0.2549
 1462SOL     OW 5920   0.204   2.874   2.761 -0.0164  0.0642 -0.7186
 1462SOL    HW2 5921   0.220   2.954   2.711 -1.0535  0.4397 -0.4636
 1462SOL    HW3 5922   0.122   2.840   2.725  0.7938 -1.2857 -1.3287
 1462SOL    MW4 5923   0.195   2.880   2.750 -0.0464 -0.0646 -0.7653
 1463SOL     OW 5924   0.236   3.106   2.635 -0.1949 -0.2853  0.2523
 1463SOL    HW2 5925   0.310   3.164   2.655  0.2751 -0.7351 -0.1709
 1463SOL    HW3 5926   0.229   3.107   2.540  0.5935 -1.8610  0.1538
 1463SOL    MW4 5927   0.245   3.113   2.625 -0.0289 -0.5524  0.1831
 1464SOL     OW 5928   0.015   3.201   2.757  0.1163 -0.0353  0.1396
 1464SOL    HW2 5929  -0.060   3.149   2.730  0.4015 -0.6237  0.4483
 1464SOL    HW3 5930   0.089   3.161   2.712  0.2230  0.6435 -0.2946
 1464SOL    MW4 5931   0.015   3.189   2.748  0.1678 -0.0234  0.1228
 1465SOL     OW 5932   0.005   3.426   2.617  0.2051 -0.2644 -0.0600
 1465SOL    HW2 5933   0.053   3.492   2.667 -0.1390  0.2611 -0.4114
 1465SOL    HW3 5934   0.015   3.345   2.667 -0.1120  0.2502  0.8555
 1465SOL    MW4 5935   0.012   3.424   2.630  0.1173 -0.1273  0.0145
 1466SOL     OW 5936   0.206   3.567   2.733 -0.2831 -0.2483 -0.0377
 1466SOL    HW2 5937   0.208   3.577   2.828 -1.7462  4.0228 -0.3808
 1466SOL    HW3 5938   0.294   3.534   2.711  0.1110 -1.2157  2.7269
 1466SOL    MW4 5939   0.218   3.564   2.743 -0.4241  0.1876  0.2818
 1467SOL     OW 5940   0.231   3.825   2.673 -0.0199 -0.1586  0.0980
 1467SOL    HW2 5941   0.207   3.733   2.685 -1.5148  0.1692 -0.3921
 1467SOL    HW3 5942   0.233   3.837   2.578  0.1179  0.3416  0.1637
 1467SOL    MW4 5943   0.228   3.814   2.662 -0.1990 -0.0491  0.0422
 1468SOL     OW 5944   0.029   3.994   2.764 -0.2219 -0.0964  0.0232
 1468SOL    HW2 5945   0.052   4.070   2.710  1.5727 -0.5359  0.1409
 1468SOL    HW3 5946   0.093   3.927   2.740 -0.6106 -0.9415  1.3092
 1468SOL    MW4 5947   0.040   3.995   2.754 -0.0364 -0.2661  0.2084
 1469SOL     OW 5948   0.059   4.246   2.654 -0.1783 -0.2584  0.1723
 1469SOL    HW2 5949  -0.017   4.281   2.700  0.2240  0.5458  0.2464
 1469SOL    HW3 5950   0.134   4.289   2.696  0.2139  0.2402 -1.0190
 1469SOL    MW4 5951   0.059   4.256   2.666 -0.0736 -0.0868  0.0248
 1470SOL     OW 5952   0.265   4.445   2.748  0.1606  0.2851 -0.0356
 1470SOL    HW2 5953   0.244   4.457   2.841  0.2569 -0.5052  0.0870
 1470SOL    HW3 5954   0.334   4.379   2.747 -1.6418 -1.6454 -0.8103
 1470SOL    MW4 5955   0.271   4.438   2.760 -0.0646 -0.0739 -0.1214
 1471SOL     OW 5956   0.683   0.002   2.688 -0.1288 -0.0691 -0.1940
 1471SOL    HW2 5957   0.758   0.034   2.738 -0.4840  1.8321 -0.8377
 1471SOL    HW3 5958   0.607   0.048   2.725 -1.0131 -2.0719  0.5418
 1471SOL    MW4 5959   0.683   0.012   2.700 -0.2923 -0.0820 -0.1817
 1472SOL     OW 5960   0.470   0.154   2.772  0.6958 -0.4669 -0.2579
 1472SOL    HW2 5961   0.465   0.133   2.865 -0.2902  0.7290 -0.0324
 1472SOL    HW3 5962   0.402   0.099   2.732  0.2568 -0.0512 -0.0920
 1472SOL    MW4 5963   0.460   0.144   2.779  0.5077 -0.2542 -0.2062
 1473SOL     OW 5964   0.458   0.402   2.656  0.0140  0.0107 -0.1552
 1473SOL    HW2 5965   0.534   0.453   2.684 -1.0498  1.3870  0.3037
 1473SOL    HW3 5966   0.462   0.322   2.708  0.6502  0.4770  0.5251
 1473SOL    MW4 5967   0.468   0.398   2.667 -0.0424  0.2538 -0.0048
 1474SOL     OW 5968   0.682   0.529   2.756 -0.2406  0.0672  0.2461
 1474SOL    HW2 5969   0.681   0.522   2.852  3.1543  1.7828  0.5145
 1474SOL    HW3 5970   0.756   0.474   2.730  1.0743  2.3542 -1.0273
 1474SOL    MW4 5971   0.692   0.521   2.765  0.3808  0.5953  0.1130
 1475SOL     OW 5972   0.645   0.787   2.665 -0.1901  0.1641  0.1206
 1475SOL    HW2 5973   0.734   0.819   2.682 -0.8895  1.8174  0.6979
 1475SOL    HW3 5974   0.645   0.698   2.700  1.3094  0.0661 -0.0899
 1475SOL    MW4 5975   0.657   0.779   2.672 -0.0845  0.3693  0.1693
 1476SOL     OW 5976   0.406   0.912   2.704  0.3829 -0.1049 -0.1182
 1476SOL    HW2 5977   0.420   1.004   2.679 -0.4472 -0.3540 -1.5511
 1476SOL    HW3 5978   0.485   0.867   2.677 -0.3733 -0.3091 -2.0449
 1476SOL    MW4 5979   0.418   0.918   2.697  0.1736 -0.1647 -0.5615
 1477SOL     OW 5980   0.468   1.186   2.609  0.0812  0.5629 -0.2260
 1477SOL    HW2 5981   0.544   1.230   2.645  0.4469 -0.7951  0.6912
 1477SOL    HW3 5982   0.482   1.188   2.514  0.7095  1.2823 -0.1232
 1477SOL    MW4 5983   0.480   1.192   2.601  0.2124  0.4787 -0.0916
 1478SOL     OW 5984   0.698   1.304   2.699 -0.6290  0.1528  0.2440
 1478SOL    HW2 5985   0.689   1.269   2.788  1.1968  1.3355  0.9313
 1478SOL    HW3 5986   0.769   1.252   2.660 -0.8916  0.1635 -0.2481
 1478SOL    MW4 5987   0.706   1.293   2.706 -0.4227  0.3104  0.2699
 1479SOL     OW 5988   0.639   1.572   2.616  0.1507  0.0384 -0.4605
 1479SOL    HW2 5989   0.569   1.608   2.669  0.0112 -0.8414 -0.0352
 1479SOL    HW3 5990   0.655   1.485   2.652  3.3236  1.2241  1.1946
 1479SOL    MW4 5991   0.632   1.565   2.627  0.5509  0.0788 -0.1860
 1480SOL     OW 5992   0.412   1.682   2.754  0.5330  0.2571 -0.2158
 1480SOL    HW2 5993   0.435   1.692   2.846 -0.0775 -0.1238 -0.0242
 1480SOL    HW3 5994   0.390   1.771   2.725 -0.9508  0.1100  0.4447
 1480SOL    MW4 5995   0.412   1.695   2.762  0.2567  0.1874 -0.1035
 1481SOL     OW 5996   0.389   1.926   2.642 -0.3179 -0.1927 -0.5622
 1481SOL    HW2 5997   0.464   1.970   2.682 -0.5040 -0.5625  0.2017
 1481SOL    HW3 5998   0.418   1.905   2.553 -0.4889  2.1496 -1.1982
 1481SOL    MW4 5999   0.403   1.929   2.636 -0.3650  0.0676 -0.5453
 1482SOL     OW 6000   0.623   2.056   2.757 -0.4144  0.4371 -0.2063
 1482SOL    HW2 6001   0.657   2.069   2.845 -0.5014  0.7536 -0.2197
 1482SOL    HW3 6002   0.699   2.031   2.705 -0.2498  0.8642 -0.1749
 1482SOL    MW4 6003   0.638   2.055   2.761 -0.4042  0.5352 -0.2038
 1483SOL     OW 6004   0.682   2.323   2.654 -0.1983  0.2334  0.0920
 1483SOL    HW2 6005   0.745   2.368   2.710  1.5372 -0.8608 -0.9333
 1483SOL    HW3 6006   0.680   2.233   2.687  0.4470 -0.2898 -1.2268
 1483SOL    MW4 6007   0.690   2.317   2.665  0.1159  0.0198 -0.2174
 1484SOL     OW 6008   0.452   2.488   2.745  0.0943 -0.1012  0.3995
 1484SOL    HW2 6009   0.436   2.578   2.715 -0.3821  0.1500  1.3760
 1484SOL    HW3 6010   0.529   2.460   2.696  0.9000  1.2310  0.8851
 1484SOL    MW4 6011   0.460   2.496   2.734  0.1377  0.1078  0.5925
 1485SOL     OW 6012   0.416   2.736   2.626  0.3704 -0.1609  0.2221
 1485SOL    HW2 6013   0.492   2.772   2.672  0.1714  1.0047 -0.3483
 1485SOL    HW3 6014   0.341   2.783   2.663  0.2211  0.9034 -1.3586
 1485SOL    MW4 6015   0.417   2.747   2.637  0.3245  0.1333 -0.0613
 1486SOL     OW 6016   0.621   2.846   2.758 -0.1134 -0.3561 -0.0516
 1486SOL    HW2 6017   0.640   2.842   2.852 -0.6101 -0.3201  0.0511
 1486SOL    HW3 6018   0.640   2.937   2.734 -1.8956  0.1634  0.4313
 1486SOL    MW4 6019   0.626   2.858   2.767 -0.4141 -0.2830  0.0257
 1487SOL     OW 6020   0.710   3.092   2.653 -0.3916 -0.0075  0.0428
 1487SOL    HW2 6021   0.783   3.123   2.707  1.4365 -1.4704 -1.5051
 1487SOL    HW3 6022   0.735   3.116   2.564 -1.9309 -0.3172 -0.4816
 1487SOL    MW4 6023   0.723   3.099   2.648 -0.3535 -0.2413 -0.2306
 1488SOL     OW 6024   0.474   3.219   2.757 -0.2593 -0.0543  0.0836
 1488SOL    HW2 6025   0.481   3.210   2.852  0.8238 -1.3270 -0.0912
 1488SOL    HW3 6026   0.554   3.176   2.723 -1.7244 -1.6422 -1.4704
 1488SOL    MW4 6027   0.486   3.212   2.765 -0.3097 -0.4318 -0.1445
 1489SOL     OW 6028   0.436   3.477   2.640 -0.1058  0.6203  0.0311
 1489SOL    HW2 6029   0.459   3.387   2.664  0.4354  1.0843  1.3099
 1489SOL    HW3 6030   0.432   3.477   2.544  1.0416 -0.4924 -0.0229
 1489SOL    MW4 6031   0.439   3.465   2.631  0.1170  0.5350  0.1926
 1490SOL     OW 6032   0.654   3.617   2.742 -0.2572 -0.5939 -0.1443
 1490SOL    HW2 6033   0.637   3.630   2.835 -1.6316 -0.6888 -0.3756
 1490SOL    HW3 6034   0.575   3.576   2.708  0.7153 -1.7092 -1.1261
 1490SOL    MW4 6035   0.642   3.614   2.750 -0.3102 -0.7536 -0.3045
 1491SOL     OW 6036   0.665   3.896   2.695  0.2577  0.6316  0.1868
 1491SOL    HW2 6037   0.585   3.922   2.741 -0.0547 -1.5744  0.9414
 1491SOL    HW3 6038   0.674   3.802   2.713  1.1537  0.1180 -2.6977
 1491SOL    MW4 6039   0.655   3.887   2.703  0.3347  0.2728 -0.0942
 1492SOL     OW 6040   0.437   3.968   2.839 -0.2679  0.3426  0.2059
 1492SOL    HW2 6041   0.457   4.051   2.796 -0.9582  0.5519  0.2857
 1492SOL    HW3 6042   0.365   3.931   2.788  1.1762 -1.0435 -0.8896
 1492SOL    MW4 6043   0.430   3.974   2.826 -0.1684  0.1874  0.0720
 1493SOL     OW 6044   0.433   4.235   2.713  0.4174  0.3489  0.0432
 1493SOL    HW2 6045   0.512   4.287   2.726  0.3338  0.6248 -0.5713
 1493SOL    HW3 6046   0.424   4.227   2.618 -0.4361  0.5356  0.1080
 1493SOL    MW4 6047   0.442   4.241   2.702  0.2938  0.4101 -0.0293
 1494SOL     OW 6048   0.635   4.391   2.782  0.4730  0.1000  0.4406
 1494SOL    HW2 6049   0.720   4.358   2.753 -0.1524  0.1672 -1.5683
 1494SOL    HW3 6050   0.631   4.480   2.745  0.1393  0.6420  1.7690
 1494SOL    MW4 6051   0.646   4.399   2.773  0.3464  0.1802  0.3507
 1495SOL     OW 6052   1.121   4.614   2.665 -0.0623 -0.0353 -0.3329
 1495SOL    HW2 6053   1.195   4.665   2.698 -0.2763  0.0782 -0.0287
 1495SOL    HW3 6054   1.133   4.527   2.701 -0.8442  0.3416  0.8979
 1495SOL    MW4 6055   1.132   4.610   2.674 -0.1936  0.0296 -0.1302
 1496SOL     OW 6056   0.938   0.116   2.776  0.2658 -0.0612 -0.3676
 1496SOL    HW2 6057   0.921   0.105   2.870 -1.2148 -1.4295 -0.7576
 1496SOL    HW3 6058   1.012   0.058   2.758 -0.1880 -0.6860 -0.2445
 1496SOL    MW4 6059   0.946   0.107   2.786  0.0106 -0.3242 -0.4027
 1497SOL     OW 6060   0.897   0.361   2.669  0.0239  0.5273 -0.3518
 1497SOL    HW2 6061   0.918   0.272   2.699  0.3095  0.7286  0.0407
 1497SOL    HW3 6062   0.912   0.358   2.574  0.8971  0.4046 -0.2141
 1497SOL    MW4 6063   0.901   0.349   2.660  0.1768  0.5377 -0.2818
 1498SOL     OW 6064   1.125   0.507   2.753 -0.1692  0.0829  0.2179
 1498SOL    HW2 6065   1.112   0.597   2.722 -0.9496 -0.1499 -0.1369
 1498SOL    HW3 6066   1.042   0.463   2.734 -0.1093 -0.4696  1.2287
 1498SOL    MW4 6067   1.113   0.513   2.746 -0.2643 -0.0207  0.3042
 1499SOL     OW 6068   1.123   0.783   2.639 -0.2704 -0.0562 -0.1429
 1499SOL    HW2 6069   1.199   0.833   2.667  0.2688 -0.2340 -1.2840
 1499SOL    HW3 6070   1.122   0.792   2.544 -1.1585 -0.7980 -0.2071
 1499SOL    MW4 6071   1.133   0.791   2.630 -0.3166 -0.1776 -0.3016
 1500SOL     OW 6072   0.889   0.914   2.769 -0.1897  0.0601 -0.4039
 1500SOL    HW2 6073   0.899   0.932   2.862  0.8226 -2.0434 -0.0930
 1500SOL    HW3 6074   0.974   0.881   2.741 -0.4651  0.7312 -2.1029
 1500SOL    MW4 6075   0.901   0.912   2.777 -0.0926 -0.1289 -0.5870
 1501SOL     OW 6076   0.924   1.145   2.635  0.4219  0.2298 -0.3794
 1501SOL    HW2 6077   0.897   1.064   2.678  0.1919  1.4767  1.8975
 1501SOL    HW3 6078   0.907   1.130   2.542 -1.3066 -1.6481  0.2177
 1501SOL    MW4 6079   0.918   1.133   2.629  0.1635  0.1465 -0.0002
 1502SOL     OW 6080   1.153   1.298   2.702  0.1805 -0.5588 -0.1677
 1502SOL    HW2 6081   1.140   1.385   2.663 -0.2645 -0.8101 -0.5882
 1502SOL    HW3 6082   1.086   1.244   2.661 -0.6954 -0.6955  1.4126
 1502SOL    MW4 6083   1.143   1.303   2.691  0.0063 -0.6101 -0.0148
 1503SOL     OW 6084   1.086   1.549   2.635  0.3189  0.4012  0.0008
 1503SOL    HW2 6085   1.001   1.588   2.652  0.1609  0.5108 -1.0033
 1503SOL    HW3 6086   1.088   1.537   2.540  0.8825 -0.8257  0.1595
 1503SOL    MW4 6087   1.075   1.552   2.624  0.3724  0.2539 -0.1109
 1504SOL     OW 6088   0.865   1.697   2.723  0.3582 -0.0888  0.1095
 1504SOL    HW2 6089   0.863   1.681   2.818 -0.4276  1.0832  0.2871
 1504SOL    HW3 6090   0.781   1.664   2.691  0.2057  0.4507 -0.0390
 1504SOL    MW4 6091   0.854   1.690   2.732  0.2344  0.1371  0.1135
 1505SOL     OW 6092   0.855   1.970   2.628 -0.1725 -0.6809  0.1130
 1505SOL    HW2 6093   0.942   1.999   2.654 -0.8213  0.4316  1.0780
 1505SOL    HW3 6094   0.849   1.879   2.659 -0.0826 -0.1260  1.7805
 1505SOL    MW4 6095   0.865   1.962   2.635 -0.2462 -0.4609  0.4599
 1506SOL     OW 6096   1.111   2.032   2.705  0.3668  0.0689  0.0484
 1506SOL    HW2 6097   1.200   2.009   2.681  0.3140 -0.8086  0.6669
 1506SOL    HW3 6098   1.103   2.125   2.683  0.4870 -0.5604 -2.8182
 1506SOL    MW4 6099   1.121   2.042   2.699  0.3757 -0.1302 -0.2484
 1507SOL     OW 6100   1.089   2.314   2.673  0.4516  0.2315  0.2376
 1507SOL    HW2 6101   1.173   2.352   2.698 -0.3797  1.4220  1.3064
 1507SOL    HW3 6102   1.093   2.305   2.578  1.0105  2.1798  0.0603
 1507SOL    MW4 6103   1.101   2.318   2.664  0.4156  0.6456  0.3552
 1508SOL     OW 6104   0.885   2.464   2.790 -0.4542  0.2977  0.4533
 1508SOL    HW2 6105   0.890   2.552   2.754 -0.7632  0.2250  0.2336
 1508SOL    HW3 6106   0.955   2.416   2.745 -0.2334  0.4521  0.6329
 1508SOL    MW4 6107   0.895   2.469   2.779 -0.4658  0.3085  0.4480
 1509SOL     OW 6108   0.849   2.723   2.655  0.1199 -0.4838  0.3644
 1509SOL    HW2 6109   0.924   2.764   2.699  1.2795 -2.0287 -0.1107
 1509SOL    HW3 6110   0.773   2.774   2.684  1.1304 -0.0528  2.3386
 1509SOL    MW4 6111   0.849   2.735   2.665  0.4061 -0.6309  0.5624
 1510SOL     OW 6112   1.083   2.832   2.754  0.0000  0.0000  0.5845
 1510SOL    HW2 6113   1.106   2.825   2.847  0.0000  0.0000  0.5861
 1510SOL    HW3 6114   1.159   2.795   2.708  0.0000  0.0000  0.5899
 1510SOL    MW4 6115   1.096   2.826   2.760  0.0000  0.0000  0.5851
 1511SOL     OW 6116   1.148   3.096   2.642  0.0000  0.0000 -0.3555
 1511SOL    HW2 6117   1.122   3.007   2.665  0.0000  0.0000 -0.3561
 1511SOL    HW3 6118   1.136   3.101   2.547  0.0000  0.0000 -0.3559
 1511SOL    MW4 6119   1.143   3.085   2.632  0.0000  0.0000 -0.3557
 1512SOL     OW 6120   0.919   3.208   2.783  0.0000  0.0000 -0.1002
 1512SOL    HW2 6121   0.903   3.287   2.731  0.0000  0.0000 -0.0897
 1512SOL    HW3 6122   1.006   3.179   2.756  0.0000  0.0000 -0.0934
 1512SOL    MW4 6123   0.928   3.215   2.773  0.0000  0.0000 -0.0982
 1513SOL     OW 6124   0.887   3.462   2.672  0.0000  0.0000 -0.0273
 1513SOL    HW2 6125   0.961   3.509   2.713  0.0000  0.0000 -0.0776
 1513SOL    HW3 6126   0.810   3.512   2.699  0.0000  0.0000  0.0511
 1513SOL    MW4 6127   0.887   3.475   2.681  0.0000  0.0000 -0.0234
 1514SOL     OW 6128   1.102   3.599   2.765  0.0000  0.0000 -0.0975
 1514SOL    HW2 6129   1.101   3.626   2.857  0.0000  0.0000 -0.0982
 1514SOL    HW3 6130   1.100   3.681   2.716  0.0000  0.0000 -0.0996
 1514SOL    MW4 6131   1.102   3.613   2.771  0.0000  0.0000 -0.0978
 1515SOL     OW 6132   1.098   3.851   2.640  0.0000  0.0000 -0.1782
 1515SOL    HW2 6133   1.178   3.889   2.678  0.0000  0.0000 -0.1798
 1515SOL    HW3 6134   1.110   3.859   2.546  0.0000  0.0000 -0.1785
 1515SOL    MW4 6135   1.110   3.857   2.633  0.0000  0.0000 -0.1783
 1516SOL     OW 6136   0.893   4.008   2.781  0.0000  0.0000  0.5364
 1516SOL    HW2 6137   0.957   3.963   2.725  0.0000  0.0000  0.5361
 1516SOL    HW3 6138   0.809   3.969   2.755  0.0000  0.0000  0.5435
 1516SOL    MW4 6139   0.890   3.997   2.770  0.0000  0.0000  0.5372
 1517SOL     OW 6140   0.888   4.266   2.696  0.0000  0.0000  0.0154
 1517SOL    HW2 6141   0.892   4.173   2.721  0.0000  0.0000  0.0205
 1517SOL    HW3 6142   0.884   4.265   2.600  0.0000  0.0000  0.0156
 1517SOL    MW4 6143   0.888   4.254   2.687  0.0000  0.0000  0.0160
 1518SOL     OW 6144   1.144   4.351   2.757  0.0000  0.0000 -0.0380
 1518SOL    HW2 6145   1.137   4.378   2.849  0.0000  0.0000 -0.0372
 1518SOL    HW3 6146   1.055   4.327   2.732  0.0000  0.0000 -0.0355
 1518SOL    MW4 6147   1.131   4.351   2.766  0.0000  0.0000 -0.0377
 1519SOL     OW 6148   1.562   4.667   2.658 -0.4594  0.1991 -0.0276
 1519SOL    HW2 6149   1.555   4.573   2.678  1.9347 -0.1328 -0.5635
 1519SOL    HW3 6150   1.557   4.672   2.563 -0.3911  0.6033 -0.0118
 1519SOL    MW4 6151   1.561   4.655   2.648 -0.1346  0.2084 -0.0963
 1520SOL     OW 6152   1.320   0.106   2.754  0.0962  0.2422  0.5348
 1520SOL    HW2 6153   1.326   0.189   2.708  1.8179 -0.2779 -0.1898
 1520SOL    HW3 6154   1.390   0.052   2.718 -0.1318 -1.0591  1.9507
 1520SOL    MW4 6155   1.330   0.110   2.743  0.2933  0.0019  0.6261
 1521SOL     OW 6156   1.348   0.364   2.636 -0.3794  0.0717 -0.3755
 1521SOL    HW2 6157   1.438   0.388   2.658 -0.8356  0.9394  0.5986
 1521SOL    HW3 6158   1.294   0.428   2.683 -1.5735 -1.7478  0.7935
 1521SOL    MW4 6159   1.353   0.376   2.646 -0.5971 -0.0539 -0.0925
 1522SOL     OW 6160   1.561   0.503   2.728  0.1561  0.3278  0.2811
 1522SOL    HW2 6161   1.646   0.471   2.698  0.0467 -0.9281  1.2560
 1522SOL    HW3 6162   1.560   0.596   2.704  2.0791  0.5207  0.8589
 1522SOL    MW4 6163   1.572   0.511   2.721  0.3955  0.1876  0.4859
 1523SOL     OW 6164   1.561   0.769   2.664 -0.0092  0.0403  0.5095
 1523SOL    HW2 6165   1.488   0.821   2.697  0.5077  0.8132  0.4233
 1523SOL    HW3 6166   1.554   0.775   2.569  0.2976  0.2850  0.5045
 1523SOL    MW4 6167   1.550   0.776   2.656  0.0995  0.1746  0.4973
 1524SOL     OW 6168   1.349   0.918   2.731 -0.0272  0.1265 -0.3143
 1524SOL    HW2 6169   1.337   0.904   2.825 -1.0120  1.4134 -0.2313
 1524SOL    HW3 6170   1.379   1.009   2.724  1.3860 -0.3777 -1.1605
 1524SOL    MW4 6171   1.352   0.928   2.743  0.0293  0.2297 -0.4151
 1525SOL     OW 6172   1.395   1.178   2.618 -0.2995  0.4516 -0.3841
 1525SOL    HW2 6173   1.462   1.222   2.670 -1.6725  1.0305  0.9245
 1525SOL    HW3 6174   1.313   1.217   2.647 -1.2991 -1.0519 -1.1510
 1525SOL    MW4 6175   1.393   1.189   2.629 -0.6126  0.3296 -0.3123
 1526SOL     OW 6176   1.595   1.301   2.760 -0.2976 -0.1992  0.1412
 1526SOL    HW2 6177   1.592   1.301   2.856 -1.4006 -1.9092  0.1391
 1526SOL    HW3 6178   1.672   1.248   2.739 -0.1347  0.0603  0.0891
 1526SOL    MW4 6179   1.604   1.294   2.770 -0.4215 -0.3905  0.1342
 1527SOL     OW 6180   1.534   1.559   2.641 -0.2938 -0.2446  0.1374
 1527SOL    HW2 6181   1.537   1.474   2.685 -1.2922 -1.2063 -1.6192
 1527SOL    HW3 6182   1.582   1.546   2.560 -0.5588  0.8334 -0.2016
 1527SOL    MW4 6183   1.540   1.546   2.636 -0.4605 -0.2292 -0.1392
 1528SOL     OW 6184   1.310   1.685   2.750  0.1762 -0.6371  0.5320
 1528SOL    HW2 6185   1.379   1.642   2.701  0.8276 -1.2547  1.9579
 1528SOL    HW3 6186   1.229   1.659   2.706  0.8485  0.3741 -1.3534
 1528SOL    MW4 6187   1.308   1.676   2.738  0.3508 -0.5852  0.4716
 1529SOL     OW 6188   1.358   1.937   2.643  0.0006  0.3114 -0.3733
 1529SOL    HW2 6189   1.348   1.857   2.694  1.0984  1.1841  1.2583
 1529SOL    HW3 6190   1.352   1.908   2.552 -0.5836 -1.4714  0.2048
 1529SOL    MW4 6191   1.356   1.923   2.638  0.0684  0.1915 -0.0815
 1530SOL     OW 6192   1.593   2.063   2.744 -0.1816 -0.0170  0.1533
 1530SOL    HW2 6193   1.663   2.020   2.695 -0.6328  0.0169 -0.5200
 1530SOL    HW3 6194   1.514   2.015   2.721 -0.4222  0.1139  0.7050
 1530SOL    MW4 6195   1.592   2.051   2.735 -0.2728  0.0045  0.1371
 1531SOL     OW 6196   1.550   2.321   2.615 -0.0424 -0.6800  0.2111
 1531SOL    HW2 6197   1.616   2.373   2.662 -1.1500 -0.8793  2.0439
 1531SOL    HW3 6198   1.558   2.233   2.652 -1.3831 -0.6839  0.5278
 1531SOL    MW4 6199   1.560   2.316   2.626 -0.3655 -0.7069  0.4950
 1532SOL     OW 6200   1.336   2.445   2.715 -0.0883  0.1311  0.2467
 1532SOL    HW2 6201   1.332   2.539   2.699 -1.8069 -0.0860 -0.7132
 1532SOL    HW3 6202   1.413   2.415   2.666  0.4194  1.0127  0.4982
 1532SOL    MW4 6203   1.346   2.454   2.707 -0.2481  0.2186  0.1531
 1533SOL     OW 6204   1.324   2.716   2.651  0.3978  0.1157 -0.1570
 1533SOL    HW2 6205   1.401   2.760   2.689  0.5351 -0.3780  0.1436
 1533SOL    HW3 6206   1.347   2.704   2.559  0.2323  0.9469 -0.3150
 1533SOL    MW4 6207   1.338   2.720   2.644  0.3942  0.1602 -0.1383
 1534SOL     OW 6208   1.553   2.841   2.735 -0.2301  0.1918  0.0346
 1534SOL    HW2 6209   1.537   2.831   2.829 -1.2179  0.6737 -0.0680
 1534SOL    HW3 6210   1.641   2.807   2.721 -0.3828 -0.6340  1.0084
 1534SOL    MW4 6211   1.562   2.835   2.745 -0.3805  0.1466  0.1495
 1535SOL     OW 6212   1.607   3.133   2.660 -0.1001 -0.0692 -0.3042
 1535SOL    HW2 6213   1.663   3.168   2.729 -1.2108 -0.6201  0.8867
 1535SOL    HW3 6214   1.587   3.044   2.688 -3.2683  0.7675  0.3673
 1535SOL    MW4 6215   1.612   3.126   2.673 -0.6648 -0.0317 -0.0584
 1536SOL     OW 6216   1.365   3.195   2.785 -0.3955  0.1272  0.3046
 1536SOL    HW2 6217   1.443   3.179   2.731  0.0714  0.1459  0.9639
 1536SOL    HW3 6218   1.298   3.137   2.748 -0.1581  0.3216 -0.4507
 1536SOL    MW4 6219   1.366   3.185   2.773 -0.3026  0.1550  0.2921
 1537SOL     OW 6220   1.319   3.463   2.664  0.1133 -0.1323  0.1539
 1537SOL    HW2 6221   1.319   3.373   2.699 -1.1711 -0.8864 -1.7128
 1537SOL    HW3 6222   1.240   3.502   2.699  0.9996  0.4909  1.4802
 1537SOL    MW4 6223   1.309   3.456   2.673  0.0609 -0.1497  0.0827
 1538SOL     OW 6224   1.554   3.603   2.729 -0.6073 -0.2134  0.1257
 1538SOL    HW2 6225   1.628   3.579   2.673 -1.0598 -1.2283 -0.0499
 1538SOL    HW3 6226   1.489   3.535   2.713 -2.3515  1.6996 -1.1290
 1538SOL    MW4 6227   1.555   3.591   2.720 -0.8972 -0.0951 -0.0629
 1539SOL     OW 6228   1.590   3.873   2.679 -0.2879 -0.0221  0.4694
 1539SOL    HW2 6229   1.504   3.907   2.706 -0.7891 -0.4952 -0.4928
 1539SOL    HW3 6230   1.590   3.782   2.709 -0.1373 -0.0313  0.4417
 1539SOL    MW4 6231   1.578   3.865   2.687 -0.3340 -0.0861  0.3388
 1540SOL     OW 6232   1.336   3.956   2.746  0.2788  0.1512 -0.0273
 1540SOL    HW2 6233   1.345   3.976   2.839  0.0827  0.3765 -0.0570
 1540SOL    HW3 6234   1.327   4.042   2.703  0.1277  0.0381 -0.2262
 1540SOL    MW4 6235   1.336   3.970   2.752  0.2331  0.1659 -0.0575
 1541SOL     OW 6236   1.379   4.214   2.652 -0.0272  0.2787 -0.1201
 1541SOL    HW2 6237   1.301   4.261   2.682  1.4702  2.4441  0.5162
 1541SOL    HW3 6238   1.383   4.231   2.558 -0.8173 -0.6242 -0.3285
 1541SOL    MW4 6239   1.369   4.223   2.644  0.0660  0.4454 -0.0639
 1542SOL     OW 6240   1.555   4.413   2.744 -0.2203  0.1621 -0.0432
 1542SOL    HW2 6241   1.543   4.399   2.838  0.2946  1.0381  0.1519
 1542SOL    HW3 6242   1.500   4.346   2.703  2.2038 -2.4959  0.8638
 1542SOL    MW4 6243   1.546   4.402   2.751  0.1675 -0.0734  0.1020
 1543SOL     OW 6244   1.993   0.008   2.647  0.1477 -0.0157 -0.2432
 1543SOL    HW2 6245   2.075   0.038   2.688 -0.1876 -0.2351  0.6023
 1543SOL    HW3 6246   2.012   0.007   2.553  1.8678 -2.2587  0.0686
 1543SOL    MW4 6247   2.007   0.012   2.640  0.3304 -0.3406 -0.0904
 1544SOL     OW 6248   1.789   0.145   2.743  0.0318  0.2933  0.0668
 1544SOL    HW2 6249   1.867   0.103   2.707 -0.1089  1.6982 -2.0292
 1544SOL    HW3 6250   1.716   0.092   2.710  0.0971 -1.5914  2.8293
 1544SOL    MW4 6251   1.790   0.133   2.734  0.0218  0.2300  0.1545
 1545SOL     OW 6252   1.802   0.393   2.630  0.2018  0.2497  0.0511
 1545SOL    HW2 6253   1.871   0.437   2.680  0.0904  0.5506 -0.0581
 1545SOL    HW3 6254   1.794   0.307   2.671  0.1585  0.4704  0.5081
 1545SOL    MW4 6255   1.810   0.387   2.642  0.1814  0.3185  0.0970
 1546SOL     OW 6256   2.016   0.483   2.763  0.6658 -0.0890  0.3342
 1546SOL    HW2 6257   2.086   0.437   2.717  0.4970 -0.9618  0.9434
 1546SOL    HW3 6258   2.020   0.573   2.729 -0.2403 -0.9772 -2.3114
 1546SOL    MW4 6259   2.026   0.489   2.752  0.5238 -0.3214  0.0656
 1547SOL     OW 6260   2.015   0.737   2.663 -0.0567  0.3037  0.1205
 1547SOL    HW2 6261   1.936   0.784   2.691 -1.1524 -0.8643 -0.9099
 1547SOL    HW3 6262   2.021   0.754   2.569  0.2302 -0.6023 -0.0280
 1547SOL    MW4 6263   2.005   0.745   2.655 -0.1631  0.0300 -0.0350
 1548SOL     OW 6264   1.809   0.881   2.739  0.1412  0.1829  0.1456
 1548SOL    HW2 6265   1.810   0.971   2.707  0.2880  0.7769  1.7543
 1548SOL    HW3 6266   1.719   0.851   2.725  0.1608  0.4794 -0.6370
 1548SOL    MW4 6267   1.797   0.889   2.733  0.1631  0.3005  0.2546
 1549SOL     OW 6268   1.771   1.126   2.640 -0.6997 -0.3759 -0.3479
 1549SOL    HW2 6269   1.854   1.167   2.664  0.9319 -3.2836 -0.7913
 1549SOL    HW3 6270   1.772   1.126   2.544 -0.9385 -0.9431 -0.3503
 1549SOL    MW4 6271   1.782   1.132   2.630 -0.5161 -0.8346 -0.4067
 1550SOL     OW 6272   1.998   1.275   2.743 -0.3775 -0.6091  0.1013
 1550SOL    HW2 6273   1.997   1.258   2.837 -0.1882 -0.0984  0.1979
 1550SOL    HW3 6274   2.081   1.238   2.713  0.7877  1.5037  0.5800
 1550SOL    MW4 6275   2.009   1.268   2.751 -0.1986 -0.2629  0.1771
 1551SOL     OW 6276   1.951   1.521   2.609 -1.0046  0.2389 -0.2385
 1551SOL    HW2 6277   1.886   1.574   2.655 -0.7719  0.1836  0.1582
 1551SOL    HW3 6278   1.959   1.442   2.663 -0.8400  0.1083 -0.4555
 1551SOL    MW4 6279   1.943   1.517   2.622 -0.9522  0.2145 -0.2148
 1552SOL     OW 6280   1.755   1.679   2.736  0.0876 -0.4909 -0.1491
 1552SOL    HW2 6281   1.768   1.668   2.830  0.4965 -0.9710 -0.2620
 1552SOL    HW3 6282   1.667   1.644   2.720  0.1784 -0.7832 -0.0123
 1552SOL    MW4 6283   1.745   1.673   2.746  0.1535 -0.5928 -0.1459
 1553SOL     OW 6284   1.793   1.933   2.614  0.0858  0.1687  0.1327
 1553SOL    HW2 6285   1.868   1.979   2.651  1.2143  1.1133 -3.1322
 1553SOL    HW3 6286   1.791   1.849   2.660  1.9259  0.9128  1.6430
 1553SOL    MW4 6287   1.802   1.928   2.625  0.4776  0.3916 -0.0989
 1554SOL     OW 6288   2.000   2.083   2.711  0.2999 -0.1488 -0.3373
 1554SOL    HW2 6289   2.005   2.096   2.805 -0.5549 -0.1129 -0.2903
 1554SOL    HW3 6290   1.979   2.169   2.675 -0.5647 -0.4044 -0.4531
 1554SOL    MW4 6291   1.998   2.096   2.718  0.0731 -0.1776 -0.3467
 1555SOL     OW 6292   1.987   2.352   2.621 -0.0967 -0.4011 -0.4024
 1555SOL    HW2 6293   2.076   2.365   2.653 -0.0362 -0.5406 -0.5183
 1555SOL    HW3 6294   1.994   2.356   2.526 -0.4126  0.9063 -0.3812
 1555SOL    MW4 6295   2.000   2.355   2.613 -0.1303 -0.2472 -0.4146
 1556SOL     OW 6296   1.766   2.451   2.748  0.0326  0.0713  0.3732
 1556SOL    HW2 6297   1.783   2.472   2.840  1.2366  0.4964  0.0606
 1556SOL    HW3 6298   1.847   2.410   2.718  0.4991  2.0325 -1.1252
 1556SOL    MW4 6299   1.779   2.449   2.756  0.2532  0.3860  0.1342
 1557SOL     OW 6300   1.779   2.703   2.637 -0.3758 -0.0105  0.5463
 1557SOL    HW2 6301   1.767   2.620   2.683  0.3454  0.0163  0.7965
 1557SOL    HW3 6302   1.801   2.678   2.547 -0.4318 -0.0908  0.5550
 1557SOL    MW4 6303   1.781   2.689   2.631 -0.2880 -0.0176  0.5803
 1558SOL     OW 6304   2.004   2.858   2.675 -0.0494  0.4634  0.3551
 1558SOL    HW2 6305   2.078   2.811   2.636  0.3570  1.8574 -0.6055
 1558SOL    HW3 6306   1.930   2.798   2.667  0.2681  0.3008 -1.6552
 1558SOL    MW4 6307   2.004   2.844   2.669  0.0460  0.6258 -0.0370
 1559SOL     OW 6308   1.964   3.117   2.618 -0.1029 -0.5706 -0.6449
 1559SOL    HW2 6309   1.966   3.025   2.645 -0.5336 -0.3798  0.0629
 1559SOL    HW3 6310   1.996   3.116   2.528  0.8476 -1.2870 -0.3103
 1559SOL    MW4 6311   1.968   3.104   2.610 -0.0343 -0.6399 -0.5074
 1560SOL     OW 6312   1.807   3.275   2.774 -0.4272  0.0244  0.2558
 1560SOL    HW2 6313   1.816   3.367   2.749 -1.7835  0.1900  0.3616
 1560SOL    HW3 6314   1.866   3.229   2.715  0.0680  0.9280  0.0247
 1560SOL    MW4 6315   1.816   3.281   2.763 -0.5409  0.1655  0.2394
 1561SOL     OW 6316   1.814   3.520   2.608 -0.4971  0.2391 -0.1474
 1561SOL    HW2 6317   1.888   3.574   2.637  0.5026 -0.9601 -0.3845
 1561SOL    HW3 6318   1.830   3.507   2.515 -1.1056  0.1096 -0.2314
 1561SOL    MW4 6319   1.826   3.525   2.600 -0.4455  0.0639 -0.1893
 1562SOL     OW 6320   2.043   3.672   2.735 -0.0336 -0.1461  0.2629
 1562SOL    HW2 6321   2.025   3.663   2.829 -1.1175 -0.3140  0.0507
 1562SOL    HW3 6322   2.099   3.597   2.714 -0.6952 -0.7249  0.5548
 1562SOL    MW4 6323   2.048   3.661   2.745 -0.2637 -0.2449  0.2737
 1563SOL     OW 6324   2.011   3.927   2.616 -0.3373  0.0450  0.2343
 1563SOL    HW2 6325   1.934   3.966   2.658 -0.4452 -0.2038  0.2715
 1563SOL    HW3 6326   2.016   3.839   2.654 -0.8372 -0.4286 -0.7718
 1563SOL    MW4 6327   2.001   3.921   2.626 -0.4177 -0.0503  0.1068
 1564SOL     OW 6328   1.810   4.043   2.756  0.1428  0.1098  0.0571
 1564SOL    HW2 6329   1.799   4.136   2.733  0.3278 -0.1232 -0.9906
 1564SOL    HW3 6330   1.725   4.004   2.737  0.3212 -0.0986 -0.3193
 1564SOL    MW4 6331   1.798   4.050   2.751  0.1907  0.0515 -0.1309
 1565SOL     OW 6332   1.785   4.304   2.657 -0.4584 -0.5156  0.1554
 1565SOL    HW2 6333   1.717   4.368   2.678 -0.2303  0.0245 -0.7316
 1565SOL    HW3 6334   1.771   4.283   2.565  0.2841 -0.7387  0.0869
 1565SOL    MW4 6335   1.774   4.310   2.648 -0.3303 -0.4740  0.0291
 1566SOL     OW 6336   2.020   4.418   2.745 -0.2500  0.0241 -0.0077
 1566SOL    HW2 6337   1.943   4.368   2.718 -1.0379  0.7843  0.8105
 1566SOL    HW3 6338   2.002   4.508   2.720  0.7133  0.0822 -0.5174
 1566SOL    MW4 6339   2.008   4.423   2.738 -0.2267  0.1321  0.0331
 1567SOL     OW 6340   2.470   4.601   2.633  0.2900 -0.1181 -0.1480
 1567SOL    HW2 6341   2.555   4.637   2.659  0.4021  0.5135 -1.3176
 1567SOL    HW3 6342   2.461   4.627   2.541 -1.4951  0.4299  0.1769
 1567SOL    MW4 6343   2.480   4.609   2.624  0.0691  0.0377 -0.2594
 1568SOL     OW 6344   2.232   0.079   2.740  0.1855  0.2104 -0.1515
 1568SOL    HW2 6345   2.256   0.090   2.832  0.1979 -0.5034 -0.0697
 1568SOL    HW3 6346   2.290   0.011   2.707 -0.5353 -0.2894 -0.4086
 1568SOL    MW4 6347   2.243   0.072   2.747  0.0923  0.0503 -0.1743
 1569SOL     OW 6348   2.216   0.354   2.645  0.0960 -0.5026 -0.4216
 1569SOL    HW2 6349   2.221   0.267   2.683  0.3251 -0.4128 -0.2416
 1569SOL    HW3 6350   2.214   0.339   2.550  0.4524 -0.6907 -0.4002
 1569SOL    MW4 6351   2.216   0.341   2.637  0.1731 -0.5156 -0.3951
 1570SOL     OW 6352   2.473   0.485   2.755 -0.2160 -0.3657  0.2254
 1570SOL    HW2 6353   2.471   0.577   2.729  0.9737 -0.7142 -1.1455
 1570SOL    HW3 6354   2.392   0.448   2.720 -0.8791  0.2325  1.1055
 1570SOL    MW4 6355   2.462   0.492   2.747 -0.1464 -0.3328  0.1605
 1571SOL     OW 6356   2.430   0.731   2.602  0.2338  0.1690  0.4286
 1571SOL    HW2 6357   2.364   0.786   2.644  0.0437  0.6596 -0.5028
 1571SOL    HW3 6358   2.425   0.754   2.509  0.4566 -1.1075  0.0896
 1571SOL    MW4 6359   2.421   0.741   2.595  0.2379  0.0653  0.2608
 1572SOL     OW 6360   2.229   0.883   2.736 -0.0637 -0.0251  0.2659
 1572SOL    HW2 6361   2.238   0.897   2.831  1.4259 -0.3183  0.1767
 1572SOL    HW3 6362   2.154   0.825   2.728 -1.2153  1.2969  1.1627
 1572SOL    MW4 6363   2.221   0.877   2.748 -0.0188  0.1106  0.3724
 1573SOL     OW 6364   2.224   1.153   2.616 -0.4677 -0.0955 -0.1928
 1573SOL    HW2 6365   2.227   1.061   2.641 -3.9269 -0.7986 -2.0187
 1573SOL    HW3 6366   2.236   1.153   2.521 -1.2239  1.2653 -0.3127
 1573SOL    MW4 6367   2.226   1.141   2.606 -1.0235 -0.0087 -0.4494
 1574SOL     OW 6368   2.448   1.247   2.746 -0.2699 -0.2890 -0.2674
 1574SOL    HW2 6369   2.520   1.200   2.704  0.5229  0.9515 -0.3224
 1574SOL    HW3 6370   2.369   1.206   2.712  0.3857 -0.1938 -1.9107
 1574SOL    MW4 6371   2.447   1.236   2.736 -0.0787 -0.1129 -0.4919
 1575SOL     OW 6372   2.418   1.532   2.659  0.2291 -0.1031  0.0994
 1575SOL    HW2 6373   2.340   1.577   2.693 -0.1853 -1.3976  0.8673
 1575SOL    HW3 6374   2.411   1.443   2.691  1.9866 -0.2681  0.0834
 1575SOL    MW4 6375   2.407   1.526   2.667  0.4065 -0.2958  0.1984
 1576SOL     OW 6376   2.179   1.655   2.740  0.4924  0.0459  0.2067
 1576SOL    HW2 6377   2.201   1.742   2.706  0.4207  0.1352  0.3873
 1576SOL    HW3 6378   2.104   1.627   2.688 -0.1422  0.5369  0.8573
 1576SOL    MW4 6379   2.172   1.663   2.729  0.3994  0.1224  0.3166
 1577SOL     OW 6380   2.220   1.909   2.630  0.4655  0.1762 -0.6746
 1577SOL    HW2 6381   2.145   1.962   2.660  0.3157  0.0652 -0.8521
 1577SOL    HW3 6382   2.197   1.884   2.540  0.5288 -0.2036 -0.5847
 1577SOL    MW4 6383   2.207   1.913   2.622  0.4539  0.1115 -0.6859
 1578SOL     OW 6384   2.463   1.994   2.740 -0.1098 -0.6656 -0.2340
 1578SOL    HW2 6385   2.469   2.085   2.711  1.5853 -1.3251 -2.0793
 1578SOL    HW3 6386   2.380   1.963   2.704  0.3737 -0.4896 -1.5280
 1578SOL    MW4 6387   2.453   2.002   2.731  0.1779 -0.7293 -0.6483
 1579SOL     OW 6388   2.459   2.255   2.634  0.0708  0.2537 -0.3031
 1579SOL    HW2 6389   2.521   2.311   2.681 -1.2401  0.5154  1.1672
 1579SOL    HW3 6390   2.469   2.279   2.542  1.6022  0.8255 -0.0030
 1579SOL    MW4 6391   2.469   2.266   2.628  0.1001  0.3636 -0.0696
 1580SOL     OW 6392   2.241   2.432   2.737  0.1093 -0.3304  0.3996
 1580SOL    HW2 6393   2.221   2.406   2.826  1.7347 -0.7611  0.6681
 1580SOL    HW3 6394   2.320   2.383   2.715  0.6124  0.9281 -0.7207
 1580SOL    MW4 6395   2.249   2.422   2.746  0.3901 -0.2213  0.2873
 1581SOL     OW 6396   2.218   2.691   2.619  0.6216  0.0846  0.2538
 1581SOL    HW2 6397   2.288   2.736   2.667  1.1398 -0.8282  0.3604
 1581SOL    HW3 6398   2.215   2.604   2.657 -1.3401  0.4450  1.0330
 1581SOL    MW4 6399   2.226   2.686   2.631  0.4311  0.0117  0.3705
 1582SOL     OW 6400   2.435   2.818   2.736 -0.2375  0.0599  0.3617
 1582SOL    HW2 6401   2.515   2.787   2.692 -0.4356 -0.3289  0.2727
 1582SOL    HW3 6402   2.433   2.912   2.718 -0.5438 -0.1637 -0.8475
 1582SOL    MW4 6403   2.445   2.826   2.728 -0.3040 -0.0207  0.1903
 1583SOL     OW 6404   2.437   3.100   2.669 -0.0303 -0.5295 -0.1982
 1583SOL    HW2 6405   2.362   3.157   2.685  0.7455  0.4450 -0.0317
 1583SOL    HW3 6406   2.440   3.091   2.573 -0.6842 -1.0348 -0.1833
 1583SOL    MW4 6407   2.427   3.106   2.658 -0.0141 -0.4678 -0.1740
 1584SOL     OW 6408   2.216   3.240   2.748 -0.3636 -0.4107  0.0090
 1584SOL    HW2 6409   2.232   3.231   2.842  0.1620  0.3845  0.0016
 1584SOL    HW3 6410   2.127   3.206   2.736 -1.1422  1.1819  1.0834
 1584SOL    MW4 6411   2.206   3.234   2.759 -0.3970 -0.0958  0.1500
 1585SOL     OW 6412   2.229   3.484   2.626  0.3022 -0.2663 -0.0016
 1585SOL    HW2 6413   2.316   3.515   2.651 -0.1329  1.1911 -0.2578
 1585SOL    HW3 6414   2.229   3.391   2.649  0.9826  0.3295  2.5117
 1585SOL    MW4 6415   2.240   3.476   2.632  0.3347  0.0045  0.2961
 1586SOL     OW 6416   2.460   3.626   2.709 -0.0593  0.2574 -0.0196
 1586SOL    HW2 6417   2.468   3.615   2.804  1.8765 -1.3748 -0.3388
 1586SOL    HW3 6418   2.456   3.721   2.696 -0.2703  0.5012  1.6730
 1586SOL    MW4 6419   2.461   3.637   2.720  0.1683  0.0744  0.1616
 1587SOL     OW 6420   2.483   3.914   2.670 -0.1743 -0.4216 -0.6419
 1587SOL    HW2 6421   2.555   3.949   2.722  0.3258  0.5017 -1.9379
 1587SOL    HW3 6422   2.407   3.966   2.695  0.0802  0.0602 -0.8601
 1587SOL    MW4 6423   2.483   3.925   2.680 -0.0746 -0.2365 -0.8416
 1588SOL     OW 6424   2.229   4.055   2.751 -0.0889 -0.4342  0.5951
 1588SOL    HW2 6425   2.227   4.056   2.847 -0.1854  0.5737  0.5898
 1588SOL    HW3 6426   2.157   3.997   2.727 -1.4167  0.9519  1.1152
 1588SOL    MW4 6427   2.219   4.048   2.761 -0.2770 -0.1192  0.6630
 1589SOL     OW 6428   2.231   4.281   2.593  0.4531  0.1148  0.3861
 1589SOL    HW2 6429   2.219   4.194   2.630 -1.0584 -1.4748 -3.5748
 1589SOL    HW3 6430   2.162   4.334   2.633 -0.1245 -1.1130  1.0446
 1589SOL    MW4 6431   2.221   4.277   2.603  0.1771 -0.2570 -0.0498
 1590SOL     OW 6432   2.445   4.367   2.757 -0.3646 -0.2911  0.2176
 1590SOL    HW2 6433   2.377   4.317   2.712  0.3615  0.0680 -1.2829
 1590SOL    HW3 6434   2.446   4.452   2.712  0.2798  0.1181  0.9974
 1590SOL    MW4 6435   2.436   4.372   2.745 -0.1838 -0.1898  0.1225
 1591SOL     OW 6436   2.968   0.015   2.643 -0.2825  0.2001  0.3977
 1591SOL    HW2 6437   3.053   0.053   2.666 -0.5957  2.1430 -1.4537
 1591SOL    HW3 6438   2.964   0.022   2.547 -1.1722 -2.8518  0.1602
 1591SOL    MW4 6439   2.979   0.021   2.633 -0.4411  0.0539  0.1221
 1592SOL     OW 6440   2.694   0.066   2.696  0.2349 -0.1952  0.3916
 1592SOL    HW2 6441   2.697   0.085   2.790 -0.8367  0.5625  0.2768
 1592SOL    HW3 6442   2.783   0.038   2.675  0.5074 -0.2837  1.6137
 1592SOL    MW4 6443   2.706   0.065   2.705  0.1295 -0.1069  0.5376
 1593SOL     OW 6444   2.663   0.334   2.605  0.0428 -0.0795 -0.3092
 1593SOL    HW2 6445   2.658   0.244   2.638 -0.0306  0.2472  0.5737
 1593SOL    HW3 6446   2.598   0.382   2.656  0.0086  0.4587 -0.8528
 1593SOL    MW4 6447   2.654   0.328   2.616  0.0284  0.0346 -0.2649
 1594SOL     OW 6448   2.888   0.438   2.760 -0.1277  0.5752 -0.2142
 1594SOL    HW2 6449   2.885   0.526   2.723 -0.8497  0.7990  0.3771
 1594SOL    HW3 6450   2.818   0.390   2.714 -0.1851  0.4968 -0.0431
 1594SOL    MW4 6451   2.878   0.443   2.749 -0.2308  0.5943 -0.1135
 1595SOL     OW 6452   2.883   0.682   2.650  0.0925 -0.0880 -0.2897
 1595SOL    HW2 6453   2.962   0.736   2.654  1.4515 -2.1333  1.8460
 1595SOL    HW3 6454   2.813   0.738   2.684  1.4905  0.3357  1.9598
 1595SOL    MW4 6455   2.884   0.696   2.655  0.4563 -0.3019  0.2890
 1596SOL     OW 6456   2.654   0.846   2.713  0.4377  0.5290  0.7020
 1596SOL    HW2 6457   2.652   0.826   2.806  0.2658  0.6829  0.7315
 1596SOL    HW3 6458   2.574   0.805   2.678  1.5161 -1.2743  0.2731
 1596SOL    MW4 6459   2.643   0.838   2.721  0.5577  0.3114  0.6492
 1597SOL     OW 6460   2.658   1.116   2.652 -1.0249  0.0401 -0.1773
 1597SOL    HW2 6461   2.736   1.148   2.696 -0.7521 -1.2804  0.3217
 1597SOL    HW3 6462   2.647   1.027   2.684 -1.8904 -0.2959 -1.3606
 1597SOL    MW4 6463   2.667   1.108   2.662 -1.1029 -0.1786 -0.2680
 1598SOL     OW 6464   2.904   1.272   2.705 -0.0102  0.4383 -0.2456
 1598SOL    HW2 6465   2.906   1.274   2.801 -2.0695  0.0703 -0.1766
 1598SOL    HW3 6466   2.970   1.207   2.681 -2.2393 -2.4234  1.0925
 1598SOL    MW4 6467   2.913   1.264   2.714 -0.5758  0.0123 -0.0598
 1599SOL     OW 6468   2.933   1.531   2.631  0.0595  0.2512 -0.4348
 1599SOL    HW2 6469   2.855   1.570   2.670  0.8289  1.0748  0.2860
 1599SOL    HW3 6470   2.922   1.437   2.645 -0.4230  0.4238  0.3752
 1599SOL    MW4 6471   2.921   1.524   2.638  0.0973  0.3825 -0.2329
 1600SOL     OW 6472   2.685   1.621   2.734  0.8780 -0.3461  0.5949
 1600SOL    HW2 6473   2.679   1.628   2.829 -1.4409 -1.4460  0.5429
 1600SOL    HW3 6474   2.610   1.568   2.708  1.3381  0.1433 -1.8896
 1600SOL    MW4 6475   2.675   1.615   2.743  0.6328 -0.4265  0.2604
 1601SOL     OW 6476   2.695   1.885   2.659 -0.1513 -0.1158 -0.4529
 1601SOL    HW2 6477   2.701   1.794   2.686 -1.1019  0.3007  1.2065
 1601SOL    HW3 6478   2.610   1.915   2.693  0.0272  1.2984 -1.2186
 1601SOL    MW4 6479   2.684   1.877   2.667 -0.2534  0.1258 -0.3350
 1602SOL     OW 6480   2.884   2.057   2.745 -0.0417  0.3716  0.1348
 1602SOL    HW2 6481   2.871   2.138   2.696  1.3228 -0.3978 -1.5941
 1602SOL    HW3 6482   2.815   1.999   2.714  0.4261  0.1052 -0.4426
 1602SOL    MW4 6483   2.873   2.060   2.734  0.2000  0.2348 -0.1695
 1603SOL     OW 6484   2.867   2.287   2.596  0.2540 -0.3285 -0.1659
 1603SOL    HW2 6485   2.949   2.327   2.624  0.0455  0.4132 -0.6114
 1603SOL    HW3 6486   2.799   2.343   2.634 -0.0355  0.1516 -1.3702
 1603SOL    MW4 6487   2.869   2.299   2.605  0.1884 -0.1676 -0.3836
 1604SOL     OW 6488   2.656   2.433   2.706 -0.3766 -0.0057 -0.1507
 1604SOL    HW2 6489   2.665   2.452   2.799  2.5106 -0.9879 -0.1821
 1604SOL    HW3 6490   2.643   2.518   2.665 -1.5593  0.4412  1.1219
 1604SOL    MW4 6491   2.655   2.446   2.713 -0.1516 -0.0765  0.0131
 1605SOL     OW 6492   2.663   2.713   2.619  0.0109  0.1092 -0.3451
 1605SOL    HW2 6493   2.745   2.738   2.661  0.1724 -0.8321 -0.1112
 1605SOL    HW3 6494   2.687   2.697   2.527  0.2487 -1.0179 -0.0886
 1605SOL    MW4 6495   2.677   2.714   2.612  0.0637 -0.1638 -0.2806
 1606SOL     OW 6496   2.920   2.798   2.729 -0.0066  0.5887  0.4402
 1606SOL    HW2 6497   2.906   2.797   2.823  0.9856  0.5048  0.5893
 1606SOL    HW3 6498   2.921   2.891   2.706  0.4374  0.6274  0.6163
 1606SOL    MW4 6499   2.918   2.810   2.738  0.1829  0.5829  0.4833
 1607SOL     OW 6500   2.916   3.095   2.645  0.0833  0.1354  0.0678
 1607SOL    HW2 6501   2.827   3.115   2.675 -0.5668 -1.4803 -0.6957
 1607SOL    HW3 6502   2.910   3.099   2.550  1.0117  0.7375  0.0371
 1607SOL    MW4 6503   2.903   3.098   2.637  0.1199  0.0017 -0.0370
 1608SOL     OW 6504   2.690   3.217   2.730 -0.2503  0.7457  0.1759
 1608SOL    HW2 6505   2.708   3.307   2.702  0.0863  1.0619  1.3950
 1608SOL    HW3 6506   2.598   3.204   2.710 -0.7114  1.9189  1.4941
 1608SOL    MW4 6507   2.681   3.227   2.723 -0.2666  0.9422  0.5107
 1609SOL     OW 6508   2.691   3.487   2.629 -0.1587  0.3860 -0.1825
 1609SOL    HW2 6509   2.608   3.529   2.651 -0.0930  1.2164 -1.4598
 1609SOL    HW3 6510   2.698   3.495   2.534  0.4634 -1.4206 -0.3115
 1609SOL    MW4 6511   2.681   3.494   2.620 -0.0679  0.2573 -0.3681
 1610SOL     OW 6512   2.908   3.605   2.774  0.0225 -0.3167  0.3088
 1610SOL    HW2 6513   2.911   3.590   2.869  0.6713 -1.1549  0.1539
 1610SOL    HW3 6514   2.821   3.575   2.748 -0.2290  0.0914  0.6589
 1610SOL    MW4 6515   2.897   3.599   2.783  0.0751 -0.3734  0.3347
 1611SOL     OW 6516   2.871   3.869   2.665  0.2346  0.4750  0.0164
 1611SOL    HW2 6517   2.953   3.903   2.703  1.3578 -1.2323 -0.8266
 1611SOL    HW3 6518   2.867   3.778   2.695 -1.5463  0.6546  0.3329
 1611SOL    MW4 6519   2.881   3.862   2.674  0.1481  0.2735 -0.0529
 1612SOL     OW 6520   2.690   4.044   2.787  0.2224  0.2137 -0.3722
 1612SOL    HW2 6521   2.691   4.122   2.731 -0.8406  0.2233 -0.3793
 1612SOL    HW3 6522   2.751   3.983   2.745 -0.1322  0.4451 -1.2152
 1612SOL    MW4 6523   2.698   4.046   2.774  0.0355  0.2456 -0.4842
 1613SOL     OW 6524   2.698   4.276   2.635 -0.5480  0.2763  0.3810
 1613SOL    HW2 6525   2.774   4.319   2.672 -0.9758  3.4000 -2.1187
 1613SOL    HW3 6526   2.623   4.318   2.677 -0.9355 -0.0164 -0.0003
 1613SOL    MW4 6527   2.698   4.287   2.645 -0.6557  0.6499  0.0012
 1614SOL     OW 6528   2.923   4.413   2.747 -0.0018  0.1375 -0.1414
 1614SOL    HW2 6529   2.964   4.406   2.833  0.7800  0.5741 -0.4700
 1614SOL    HW3 6530   2.930   4.506   2.725 -1.2101  0.2223 -0.1897
 1614SOL    MW4 6531   2.929   4.424   2.756 -0.0584  0.2060 -0.1912
 1615SOL     OW 6532   3.401   4.623   2.626  0.1502 -0.0216  0.3532
 1615SOL    HW2 6533   3.394   4.529   2.643  1.1301 -0.2530 -0.5135
 1615SOL    HW3 6534   3.328   4.661   2.675 -0.3006 -1.2380  0.6482
 1615SOL    MW4 6535   3.390   4.615   2.634  0.2198 -0.2127  0.2778
 1616SOL     OW 6536   3.207   0.110   2.726  0.0617 -0.0852 -0.2089
 1616SOL    HW2 6537   3.183   0.109   2.819 -2.4493  0.3519 -0.7994
 1616SOL    HW3 6538   3.215   0.203   2.705  0.0832 -0.1671 -0.5558
 1616SOL    MW4 6539   3.205   0.122   2.736 -0.2670 -0.0383 -0.3326
 1617SOL     OW 6540   3.183   0.377   2.643 -0.5605  0.2817 -0.1144
 1617SOL    HW2 6541   3.102   0.397   2.690 -1.0850  0.9517 -1.2777
 1617SOL    HW3 6542   3.158   0.379   2.551  0.6445 -0.1446 -0.4562
 1617SOL    MW4 6543   3.169   0.380   2.637 -0.4704  0.3139 -0.3128
 1618SOL     OW 6544   3.406   0.524   2.694  0.5907  0.5372  0.0070
 1618SOL    HW2 6545   3.380   0.611   2.663 -1.3714 -0.7189 -2.0414
 1618SOL    HW3 6546   3.330   0.469   2.676  1.5975 -1.4872  1.8373
 1618SOL    MW4 6547   3.392   0.529   2.687  0.4649  0.1043 -0.0217
 1619SOL     OW 6548   3.354   0.790   2.642 -0.0627 -0.2043  0.4593
 1619SOL    HW2 6549   3.436   0.830   2.671 -0.1905  1.4238 -1.3314
 1619SOL    HW3 6550   3.346   0.816   2.550 -1.6663 -1.8923  0.0871
 1619SOL    MW4 6551   3.364   0.799   2.634 -0.2909 -0.2121  0.1740
 1620SOL     OW 6552   3.095   0.840   2.703  0.0538 -0.3554  0.1541
 1620SOL    HW2 6553   3.072   0.845   2.795  0.3877  1.9306  0.1391
 1620SOL    HW3 6554   3.186   0.812   2.702  0.1909  0.0797  0.5323
 1620SOL    MW4 6555   3.104   0.837   2.715  0.1159  0.0036  0.2022
 1621SOL     OW 6556   3.146   1.135   2.644 -0.3570 -0.3027 -0.2825
 1621SOL    HW2 6557   3.146   1.044   2.672  0.9973  0.2192  1.5339
 1621SOL    HW3 6558   3.146   1.131   2.548  0.7174 -2.2230 -0.2299
 1621SOL    MW4 6559   3.146   1.123   2.635 -0.0365 -0.4871 -0.0358
 1622SOL     OW 6560   3.354   1.285   2.758  0.2362  0.0403  0.2653
 1622SOL    HW2 6561   3.365   1.274   2.852 -0.7495  0.6170  0.4515
 1622SOL    HW3 6562   3.277   1.232   2.736  0.2725  0.1622 -0.1607
 1622SOL    MW4 6563   3.345   1.277   2.767  0.1109  0.1324  0.2334
 1623SOL     OW 6564   3.341   1.504   2.595 -0.6113  0.1188 -0.3260
 1623SOL    HW2 6565   3.275   1.566   2.625  0.0601  0.7951 -0.2422
 1623SOL    HW3 6566   3.329   1.428   2.653  0.7619  1.4573  1.8002
 1623SOL    MW4 6567   3.331   1.502   2.607 -0.3414  0.3846 -0.0341
 1624SOL     OW 6568   3.154   1.669   2.711 -0.1812 -0.0761  0.2363
 1624SOL    HW2 6569   3.140   1.760   2.684 -0.1683  0.2272  1.2241
 1624SOL    HW3 6570   3.075   1.623   2.681  0.7366 -0.1819 -2.1183
 1624SOL    MW4 6571   3.142   1.675   2.703 -0.0584 -0.0501  0.0560
 1625SOL     OW 6572   3.120   1.958   2.614  0.1185 -0.0807 -0.2448
 1625SOL    HW2 6573   3.195   1.985   2.666 -0.0169 -0.0331 -0.0735
 1625SOL    HW3 6574   3.045   2.002   2.655  0.0202 -0.0011 -0.5134
 1625SOL    MW4 6575   3.120   1.967   2.627  0.0877 -0.0640 -0.2577
 1626SOL     OW 6576   3.344   2.020   2.740 -0.1337 -0.1422  0.3273
 1626SOL    HW2 6577   3.341   2.001   2.833  0.9396  0.9292  0.6091
 1626SOL    HW3 6578   3.362   2.114   2.736 -0.1949 -0.1750 -0.9563
 1626SOL    MW4 6579   3.346   2.030   2.751  0.0000 -0.0052  0.1950
 1627SOL     OW 6580   3.355   2.297   2.658  0.1685  0.3458 -0.0710
 1627SOL    HW2 6581   3.435   2.347   2.678  0.3213 -0.1711  0.6381
 1627SOL    HW3 6582   3.356   2.287   2.563  0.7851  0.6242 -0.0988
 1627SOL    MW4 6583   3.366   2.303   2.648  0.2701  0.3142  0.0191
 1628SOL     OW 6584   3.095   2.404   2.704  0.0490 -0.2828 -0.6657
 1628SOL    HW2 6585   3.117   2.491   2.670  0.2281  0.6864  1.8230
 1628SOL    HW3 6586   3.173   2.351   2.688  0.7438  0.6140 -0.2732
 1628SOL    MW4 6587   3.108   2.409   2.698  0.1643 -0.0367 -0.2856
 1629SOL     OW 6588   3.148   2.664   2.622  0.1766  0.2932  0.0992
 1629SOL    HW2 6589   3.222   2.710   2.663  0.4360  0.2461 -0.3121
 1629SOL    HW3 6590   3.071   2.707   2.657  0.4198  1.5236 -0.8075
 1629SOL    MW4 6591   3.148   2.676   2.632  0.2429  0.4489 -0.0746
 1630SOL     OW 6592   3.357   2.819   2.744 -0.0924  0.0876  0.2854
 1630SOL    HW2 6593   3.357   2.831   2.839 -0.7073  1.1297  0.1683
 1630SOL    HW3 6594   3.434   2.766   2.726 -0.6242 -1.1214  1.4880
 1630SOL    MW4 6595   3.367   2.814   2.754 -0.2434  0.0656  0.4284
 1631SOL     OW 6596   3.375   3.071   2.670  0.2323 -0.0666 -0.1844
 1631SOL    HW2 6597   3.377   2.980   2.699  2.3957  0.2372  0.7025
 1631SOL    HW3 6598   3.388   3.066   2.575  2.3433 -0.5980  0.1152
 1631SOL    MW4 6599   3.377   3.059   2.661  0.7963 -0.0966 -0.0277
 1632SOL     OW 6600   3.139   3.205   2.771  0.3734 -0.0862  0.1059
 1632SOL    HW2 6601   3.212   3.160   2.728 -0.0947 -0.2372 -0.5199
 1632SOL    HW3 6602   3.061   3.164   2.736 -0.0459  0.8428 -0.0484
 1632SOL    MW4 6603   3.139   3.193   2.761  0.2563  0.0165  0.0026
 1633SOL     OW 6604   3.142   3.479   2.672 -0.1439  0.0157 -0.2038
 1633SOL    HW2 6605   3.138   3.390   2.707  0.9035 -0.0617 -0.2537
 1633SOL    HW3 6606   3.067   3.524   2.711  0.3614 -0.3885  1.2737
 1633SOL    MW4 6607   3.132   3.473   2.682  0.0610 -0.0477 -0.0153
 1634SOL     OW 6608   3.369   3.620   2.759  0.3979  0.3124  0.2309
 1634SOL    HW2 6609   3.372   3.625   2.855 -0.0957  0.3600  0.2452
 1634SOL    HW3 6610   3.289   3.570   2.740 -0.3467  1.6265 -0.1832
 1634SOL    MW4 6611   3.359   3.614   2.769  0.2346  0.4921  0.1781
 1635SOL     OW 6612   3.368   3.887   2.655 -0.2308 -0.1005 -0.0849
 1635SOL    HW2 6613   3.376   3.803   2.699 -0.0175  0.3457  0.7342
 1635SOL    HW3 6614   3.372   3.865   2.562 -1.0182 -1.0810  0.0994
 1635SOL    MW4 6615   3.370   3.873   2.648 -0.3066 -0.1712  0.0474
 1636SOL     OW 6616   3.106   3.977   2.789 -0.1982 -0.2149  0.3723
 1636SOL    HW2 6617   3.115   4.061   2.744  0.7265  0.3635  1.6213
 1636SOL    HW3 6618   3.192   3.936   2.782 -1.4452 -2.5249 -3.0160
 1636SOL    MW4 6619   3.119   3.982   2.782 -0.2406 -0.4435  0.0901
 1637SOL     OW 6620   3.124   4.220   2.643  0.0792 -0.2908 -0.2415
 1637SOL    HW2 6621   3.051   4.278   2.665 -0.0192 -1.1767  1.9322
 1637SOL    HW3 6622   3.117   4.208   2.548 -1.5643  1.0047 -0.3201
 1637SOL    MW4 6623   3.113   4.226   2.633 -0.1502 -0.2370  0.0348
 1638SOL     OW 6624   3.367   4.356   2.708 -0.2587  0.3439  0.0357
 1638SOL    HW2 6625   3.377   4.364   2.803 -0.4353  0.2555  0.0609
 1638SOL    HW3 6626   3.284   4.310   2.696  0.3796 -0.7788 -0.1357
 1638SOL    MW4 6627   3.357   4.351   2.719 -0.1979  0.1841  0.0165
 1639SOL     OW 6628   3.826   4.644   2.646 -0.1483  0.7256 -1.0937
 1639SOL    HW2 6629   3.812   4.565   2.699 -2.2140  0.2599 -2.2547
 1639SOL    HW3 6630   3.765   4.708   2.682 -0.5775  0.8449 -2.0244
 1639SOL    MW4 6631   3.816   4.642   2.658 -0.4776  0.6800 -1.3697
 1640SOL     OW 6632   3.596   0.111   2.762  0.5500  0.3567  0.2199
 1640SOL    HW2 6633   3.591   0.192   2.712  0.5462 -0.2279 -0.7458
 1640SOL    HW3 6634   3.542   0.049   2.713  1.3771 -0.5115  0.3931
 1640SOL    MW4 6635   3.588   0.113   2.749  0.6588  0.1650  0.1154
 1641SOL     OW 6636   3.620   0.370   2.614 -0.3208  0.1569 -0.7872
 1641SOL    HW2 6637   3.701   0.408   2.648 -0.2214 -0.1485 -0.6858
 1641SOL    HW3 6638   3.554   0.437   2.631 -0.0155  0.5916 -1.2637
 1641SOL    MW4 6639   3.622   0.384   2.621 -0.2675  0.1740 -0.8368
 1642SOL     OW 6640   3.844   0.486   2.723  0.0455  0.0435  0.5388
 1642SOL    HW2 6641   3.836   0.482   2.818  2.1470 -0.8549  0.6943
 1642SOL    HW3 6642   3.921   0.433   2.703 -0.2588  0.3957 -1.6437
 1642SOL    MW4 6643   3.853   0.479   2.733  0.2828 -0.0285  0.2716
 1643SOL     OW 6644   3.824   0.748   2.630  0.0230 -0.7969 -0.1462
 1643SOL    HW2 6645   3.742   0.790   2.657  0.7861  0.1598  0.7458
 1643SOL    HW3 6646   3.816   0.659   2.662 -0.3338 -0.4840  0.6649
 1643SOL    MW4 6647   3.812   0.742   2.638  0.0763 -0.6295  0.0784
 1644SOL     OW 6648   3.594   0.887   2.709  0.5403 -0.2254  0.1060
 1644SOL    HW2 6649   3.580   0.902   2.802  1.1509  0.9500  0.0094
 1644SOL    HW3 6650   3.608   0.974   2.672  1.9873 -0.8309 -0.8046
 1644SOL    MW4 6651   3.594   0.900   2.716  0.8116 -0.1501 -0.0269
 1645SOL     OW 6652   3.582   1.154   2.618  0.0479 -0.1630 -0.8197
 1645SOL    HW2 6653   3.656   1.209   2.643 -0.2570  0.4281 -1.2160
 1645SOL    HW3 6654   3.508   1.188   2.669  0.1675 -1.0981 -0.0151
 1645SOL    MW4 6655   3.582   1.166   2.628  0.0236 -0.2084 -0.7658
 1646SOL     OW 6656   3.795   1.278   2.733  0.2411  0.0056  0.1290
 1646SOL    HW2 6657   3.868   1.237   2.688 -0.3086 -0.1494 -0.6199
 1646SOL    HW3 6658   3.804   1.372   2.714 -1.0964 -0.2593 -1.9312
 1646SOL    MW4 6659   3.805   1.285   2.725 -0.0079 -0.0498 -0.2415
 1647SOL     OW 6660   3.810   1.545   2.662  0.2640 -0.0416  0.3133
 1647SOL    HW2 6661   3.884   1.585   2.707  0.1060 -1.8047  2.2241
 1647SOL    HW3 6662   3.738   1.607   2.672  0.5386  0.0861  1.5600
 1647SOL    MW4 6663   3.810   1.558   2.669  0.2794 -0.2573  0.7298
 1648SOL     OW 6664   3.561   1.671   2.692  0.3405  0.3970  0.7125
 1648SOL    HW2 6665   3.548   1.679   2.787 -0.6908  2.5636  0.4184
 1648SOL    HW3 6666   3.486   1.620   2.661 -0.1853  1.0760  0.8553
 1648SOL    MW4 6667   3.550   1.665   2.701  0.1349  0.7725  0.6926
 1649SOL     OW 6668   3.564   1.933   2.597  0.3595 -0.2880 -0.1410
 1649SOL    HW2 6669   3.491   1.972   2.645 -0.8849 -0.5779 -1.7607
 1649SOL    HW3 6670   3.576   1.847   2.637  0.2285  0.0025  0.5340
 1649SOL    MW4 6671   3.556   1.927   2.609  0.1781 -0.2879 -0.2656
 1650SOL     OW 6672   3.806   2.052   2.718  0.3712  0.2991 -0.4135
 1650SOL    HW2 6673   3.875   2.005   2.672 -0.3695 -1.0784 -0.1301
 1650SOL    HW3 6674   3.725   2.023   2.677 -0.0417  2.2193 -1.0259
 1650SOL    MW4 6675   3.804   2.042   2.707  0.2191  0.3705 -0.4570
 1651SOL     OW 6676   3.843   2.321   2.663 -0.0321  0.3727  0.6449
 1651SOL    HW2 6677   3.846   2.235   2.703  0.0258 -0.4477 -1.0762
 1651SOL    HW3 6678   3.852   2.304   2.569  2.2505  2.3930  0.4397
 1651SOL    MW4 6679   3.845   2.308   2.656  0.2766  0.5312  0.3905
 1652SOL     OW 6680   3.608   2.430   2.745 -0.2481  0.1103 -0.0033
 1652SOL    HW2 6681   3.616   2.404   2.837 -0.1554  1.9283  0.5161
 1652SOL    HW3 6682   3.687   2.394   2.704 -0.7613 -1.5370  0.4002
 1652SOL    MW4 6683   3.620   2.422   2.751 -0.3035  0.1328  0.1183
 1653SOL     OW 6684   3.593   2.704   2.663  0.0818 -0.0938  0.3386
 1653SOL    HW2 6685   3.604   2.619   2.704 -1.4126 -0.4088  0.1372
 1653SOL    HW3 6686   3.586   2.685   2.569  0.6017  0.3323  0.2113
 1653SOL    MW4 6687   3.593   2.691   2.656 -0.0467 -0.0794  0.2952
 1654SOL     OW 6688   3.803   2.872   2.731 -0.4124 -0.3551 -0.3448
 1654SOL    HW2 6689   3.883   2.821   2.713  0.2755  1.0302 -1.2953
 1654SOL    HW3 6690   3.735   2.826   2.683 -0.1781 -1.4757  0.3601
 1654SOL    MW4 6691   3.805   2.859   2.723 -0.2906 -0.3200 -0.3772
 1655SOL     OW 6692   3.860   3.121   2.652  0.2649  0.2115  0.0593
 1655SOL    HW2 6693   3.781   3.171   2.673 -0.4221 -0.7401 -0.2563
 1655SOL    HW3 6694   3.841   3.032   2.680  1.5732  0.1561  0.8101
 1655SOL    MW4 6695   3.847   3.116   2.658  0.3469  0.0789  0.1171
 1656SOL     OW 6696   3.597   3.227   2.730 -0.4369  0.1416  0.3708
 1656SOL    HW2 6697   3.573   3.307   2.682  1.1948 -0.8515 -2.2107
 1656SOL    HW3 6698   3.520   3.171   2.724 -0.1077 -0.1365 -1.5094
 1656SOL    MW4 6699   3.584   3.230   2.723 -0.1781 -0.0265 -0.2179
 1657SOL     OW 6700   3.566   3.483   2.626  0.1132  0.2752  0.5218
 1657SOL    HW2 6701   3.640   3.536   2.658  0.2947 -0.0591  0.6633
 1657SOL    HW3 6702   3.489   3.523   2.666  0.4118 -0.6171  2.0224
 1657SOL    MW4 6703   3.566   3.495   2.635  0.1767  0.1132  0.7381
 1658SOL     OW 6704   3.765   3.664   2.726  0.0153 -0.1170  0.3916
 1658SOL    HW2 6705   3.855   3.634   2.716 -0.0032 -0.0983  0.1534
 1658SOL    HW3 6706   3.767   3.755   2.694 -0.4802 -0.7187 -1.4182
 1658SOL    MW4 6707   3.777   3.672   2.721 -0.0525 -0.1938  0.1214
 1659SOL     OW 6708   3.816   3.929   2.625  0.2097 -0.4058 -0.4595
 1659SOL    HW2 6709   3.889   3.937   2.687  0.6833  1.0138 -1.1696
 1659SOL    HW3 6710   3.742   3.971   2.670  0.2156 -0.5317 -0.3322
 1659SOL    MW4 6711   3.816   3.936   2.639  0.2728 -0.2351 -0.5364
 1660SOL     OW 6712   3.592   4.018   2.739 -0.7342 -0.1574 -0.2989
 1660SOL    HW2 6713   3.598   4.101   2.693  0.1453 -0.1227 -0.1278
 1660SOL    HW3 6714   3.516   3.974   2.700 -1.0473  0.6111 -0.5638
 1660SOL    MW4 6715   3.582   4.023   2.728 -0.6595 -0.0510 -0.3114
 1661SOL     OW 6716   3.610   4.259   2.598 -0.8254  0.5717  0.2208
 1661SOL    HW2 6717   3.528   4.305   2.611 -0.4434  1.5024 -0.5353
 1661SOL    HW3 6718   3.606   4.229   2.507 -0.1700  0.9668  0.0581
 1661SOL    MW4 6719   3.599   4.261   2.588 -0.6883  0.7467  0.0997
 1662SOL     OW 6720   3.819   4.366   2.759 -0.1408  0.3710 -0.4128
 1662SOL    HW2 6721   3.905   4.337   2.729 -0.3644  0.4306 -1.1297
 1662SOL    HW3 6722   3.758   4.308   2.713 -0.4768  0.2716  0.1609
 1662SOL    MW4 6723   3.822   4.354   2.749 -0.2148  0.3653 -0.4315
 1663SOL     OW 6724   4.296   4.643   2.662  0.4808 -0.2401 -0.5638
 1663SOL    HW2 6725   4.215   4.688   2.685  0.3888 -0.3294 -0.7120
 1663SOL    HW3 6726   4.366   4.702   2.690  0.4048 -1.0473  1.3859
 1663SOL    MW4 6727   4.295   4.657   2.669  0.4587 -0.3581 -0.3259
 1664SOL     OW 6728   4.057   0.097   2.728 -0.1545 -0.1118  0.2156
 1664SOL    HW2 6729   4.036   0.089   2.821 -0.5581 -0.0974  0.1294
 1664SOL    HW3 6730   3.980   0.061   2.684  0.0973 -0.2482 -0.1072
 1664SOL    MW4 6731   4.044   0.091   2.735 -0.1755 -0.1279  0.1616
 1665SOL     OW 6732   4.063   0.365   2.634  0.1846 -0.3901 -0.7282
 1665SOL    HW2 6733   4.058   0.271   2.650 -1.5156 -0.2761 -0.4446
 1665SOL    HW3 6734   4.083   0.373   2.541  0.7573 -1.0243 -0.6628
 1665SOL    MW4 6735   4.065   0.354   2.624  0.0358 -0.4587 -0.6824
 1666SOL     OW 6736   4.276   0.531   2.731  0.6035  0.2564  0.0028
 1666SOL    HW2 6737   4.206   0.477   2.694  0.5258  0.5106 -0.2269
 1666SOL    HW3 6738   4.357   0.489   2.702  0.5418  0.4606 -0.4715
 1666SOL    MW4 6739   4.278   0.518   2.722  0.5851  0.3169 -0.0906
 1667SOL     OW 6740   4.238   0.769   2.614 -0.1529 -0.1102  0.0603
 1667SOL    HW2 6741   4.252   0.679   2.643 -0.3997 -0.5092 -1.0317
 1667SOL    HW3 6742   4.234   0.763   2.519  1.3382  1.2659 -0.1183
 1667SOL    MW4 6743   4.239   0.756   2.606  0.0105  0.0187 -0.1073
 1668SOL     OW 6744   4.030   0.914   2.741  0.5074 -0.3887 -0.0373
 1668SOL    HW2 6745   4.109   0.874   2.706  0.1708 -1.5828  0.5617
 1668SOL    HW3 6746   3.958   0.859   2.710 -0.0249  0.2546  0.0427
 1668SOL    MW4 6747   4.031   0.902   2.732  0.3929 -0.4614  0.0525
 1669SOL     OW 6748   4.029   1.168   2.621 -0.5282 -0.0331 -0.1198
 1669SOL    HW2 6749   4.109   1.207   2.656 -1.2979  0.7983  0.7353
 1669SOL    HW3 6750   4.030   1.078   2.654  0.3259 -0.1980 -0.5736
 1669SOL    MW4 6751   4.040   1.161   2.630 -0.5174  0.0548 -0.0668
 1670SOL     OW 6752   4.256   1.290   2.708  0.2893 -0.0090  0.3004
 1670SOL    HW2 6753   4.258   1.384   2.694 -0.1698 -0.1030 -0.4563
 1670SOL    HW3 6754   4.341   1.259   2.676 -0.0186  0.0102 -0.5548
 1670SOL    MW4 6755   4.268   1.298   2.702  0.1879 -0.0190  0.0877
 1671SOL     OW 6756   4.246   1.575   2.664  0.1440  0.1427 -0.0589
 1671SOL    HW2 6757   4.336   1.605   2.673  0.0655  0.5257 -0.5458
 1671SOL    HW3 6758   4.230   1.573   2.569 -0.8745  1.6195  0.0704
 1671SOL    MW4 6759   4.255   1.579   2.653 -0.0010  0.3881 -0.1059
 1672SOL     OW 6760   4.018   1.686   2.744  0.1379 -0.2348  0.2353
 1672SOL    HW2 6761   4.021   1.687   2.840  1.5652 -0.6924  0.2080
 1672SOL    HW3 6762   4.107   1.662   2.718  0.2172  1.5842 -1.2318
 1672SOL    MW4 6763   4.030   1.683   2.753  0.3366 -0.0552  0.0379
 1673SOL     OW 6764   4.032   1.929   2.606  0.2394 -0.5365 -0.1542
 1673SOL    HW2 6765   4.097   1.988   2.643 -1.0563  0.0643  1.2464
 1673SOL    HW3 6766   4.042   1.847   2.655  0.0169 -0.4852 -0.0233
 1673SOL    MW4 6767   4.042   1.926   2.617  0.0396 -0.4505  0.0479
 1674SOL     OW 6768   4.208   2.091   2.736 -0.3677  0.3603  0.2961
 1674SOL    HW2 6769   4.214   2.185   2.723 -1.7222  0.3237 -0.6093
 1674SOL    HW3 6770   4.285   2.055   2.692 -0.6001  0.9208 -0.5631
 1674SOL    MW4 6771   4.219   2.099   2.729 -0.5774  0.4292  0.0634
 1675SOL     OW 6772   4.277   2.363   2.646 -0.2087 -0.1329  0.1159
 1675SOL    HW2 6773   4.203   2.413   2.680  0.8601  0.9288  0.8939
 1675SOL    HW3 6774   4.249   2.337   2.558  0.1642  4.0015 -1.3209
 1675SOL    MW4 6775   4.263   2.366   2.639 -0.0181  0.5529  0.0288
 1676SOL     OW 6776   4.051   2.476   2.745 -0.4541 -0.1546 -0.0326
 1676SOL    HW2 6777   4.045   2.473   2.841  0.5338 -1.1224 -0.0039
 1676SOL    HW3 6778   3.975   2.426   2.715 -1.3526  1.0098  0.2130
 1676SOL    MW4 6779   4.040   2.469   2.754 -0.4416 -0.1285  0.0038
 1677SOL     OW 6780   4.037   2.736   2.665 -0.0145  0.2517  0.2241
 1677SOL    HW2 6781   4.115   2.777   2.703  1.0458 -0.9366 -0.6457
 1677SOL    HW3 6782   4.030   2.652   2.709 -1.2295  0.6502  0.8109
 1677SOL    MW4 6783   4.046   2.730   2.676 -0.0348  0.1476  0.1867
 1678SOL     OW 6784   4.272   2.852   2.741  0.0519 -0.2458 -0.7332
 1678SOL    HW2 6785   4.276   2.869   2.835  0.6226 -1.1200 -0.5945
 1678SOL    HW3 6786   4.271   2.939   2.701 -1.3028  0.1455  0.1177
 1678SOL    MW4 6787   4.272   2.866   2.748 -0.0515 -0.3095 -0.6027
 1679SOL     OW 6788   4.266   3.100   2.633  0.0323  0.0119  0.3446
 1679SOL    HW2 6789   4.200   3.164   2.660  1.8181  1.4338  1.4663
 1679SOL    HW3 6790   4.272   3.109   2.538  0.0335  1.3179  0.4587
 1679SOL    MW4 6791   4.258   3.109   2.624  0.2685  0.3717  0.5074
 1680SOL     OW 6792   4.076   3.255   2.746  0.1876 -0.1225  0.3414
 1680SOL    HW2 6793   4.060   3.342   2.709 -0.5068 -0.5937 -0.5030
 1680SOL    HW3 6794   3.999   3.204   2.721  1.0152 -1.2360  0.0109
 1680SOL    MW4 6795   4.064   3.260   2.738  0.2050 -0.3316  0.1862
 1681SOL     OW 6796   4.028   3.536   2.650  0.0599  0.4544  0.0175
 1681SOL    HW2 6797   4.113   3.571   2.676  0.0527  0.8824 -0.5135
 1681SOL    HW3 6798   4.038   3.517   2.556 -0.3969  0.4164 -0.0255
 1681SOL    MW4 6799   4.041   3.538   2.641 -0.0014  0.5057 -0.0584
 1682SOL     OW 6800   4.286   3.601   2.733  0.0537  0.1748  0.2556
 1682SOL    HW2 6801   4.298   3.595   2.828  1.3345  0.5718  0.1247
 1682SOL    HW3 6802   4.334   3.525   2.698  0.0194  0.3222 -0.1079
 1682SOL    MW4 6803   4.294   3.590   2.741  0.2179  0.2465  0.1903
 1683SOL     OW 6804   4.324   3.860   2.619  0.1431 -0.2703  0.6220
 1683SOL    HW2 6805   4.324   3.776   2.666  1.3809 -0.2952  0.5900
 1683SOL    HW3 6806   4.394   3.911   2.661  0.3027  0.2370 -0.2540
 1683SOL    MW4 6807   4.333   3.856   2.631  0.3271 -0.2065  0.5021
 1684SOL     OW 6808   4.063   3.965   2.721  0.0060 -0.2540  0.5467
 1684SOL    HW2 6809   4.076   3.980   2.815  0.9266  1.9508  0.1213
 1684SOL    HW3 6810   4.143   3.920   2.692 -0.2427 -0.8620  0.8034
 1684SOL    MW4 6811   4.075   3.961   2.729  0.0949 -0.0434  0.5243
 1685SOL     OW 6812   4.064   4.244   2.674 -0.1726 -0.5654  0.6135
 1685SOL    HW2 6813   4.053   4.150   2.681  0.9059 -0.6707  1.0138
 1685SOL    HW3 6814   4.058   4.263   2.580  0.3687 -1.1297  0.4639
 1685SOL    MW4 6815   4.062   4.234   2.663  0.0410 -0.6537  0.6466
 1686SOL     OW 6816   4.292   4.367   2.766  0.0017  0.1900  0.1554
 1686SOL    HW2 6817   4.219   4.325   2.720 -0.3769  0.7392  0.2566
 1686SOL    HW3 6818   4.297   4.454   2.728 -0.3631  0.6741  1.2221
 1686SOL    MW4 6819   4.283   4.373   2.755 -0.0963  0.3266  0.3095
 1687SOL     OW 6820   0.195   4.665   3.142  0.4694 -0.3514  0.2675
 1687SOL    HW2 6821   0.188   4.677   3.237 -0.8358 -1.0481  0.2657
 1687SOL    HW3 6822   0.116   4.706   3.107  0.4571 -0.9856 -0.4446
 1687SOL    MW4 6823   0.183   4.672   3.150  0.2955 -0.5274  0.1736
 1688SOL     OW 6824   4.469   0.113   3.011 -0.3116  0.7352 -0.6332
 1688SOL    HW2 6825   4.389   0.078   3.049  1.0052 -0.9784  0.6092
 1688SOL    HW3 6826   4.481   0.197   3.056 -1.5444  1.1411 -1.0338
 1688SOL    MW4 6827   4.460   0.120   3.022 -0.3004  0.5627 -0.5219
 1689SOL     OW 6828   0.007   0.348   3.148  0.1249  0.3177 -0.1417
 1689SOL    HW2 6829  -0.021   0.359   3.239 -1.2594 -0.8127 -0.4044
 1689SOL    HW3 6830  -0.054   0.401   3.097  0.7931  0.8190 -0.4309
 1689SOL    MW4 6831  -0.005   0.356   3.153  0.0305  0.2348 -0.2143
 1690SOL     OW 6832   0.223   0.481   3.049  0.6347 -0.4231 -0.0460
 1690SOL    HW2 6833   0.295   0.425   3.079 -0.7406 -1.6119  1.1061
 1690SOL    HW3 6834   0.146   0.447   3.094 -0.5703  1.1681 -0.8658
 1690SOL    MW4 6835   0.222   0.469   3.059  0.2942 -0.3700 -0.0019
 1691SOL     OW 6836   0.234   0.758   3.106 -0.5774 -0.1515  0.4968
 1691SOL    HW2 6837   0.224   0.762   3.201 -1.8986  0.6027  0.3435
 1691SOL    HW3 6838   0.236   0.664   3.086  0.0514 -0.3122  1.2974
 1691SOL    MW4 6839   0.233   0.746   3.116 -0.6687 -0.0732  0.5825
 1692SOL     OW 6840   4.486   0.919   3.014 -0.1356  0.0982  0.4870
 1692SOL    HW2 6841   4.567   0.869   3.020 -0.6880 -0.8721  0.0753
 1692SOL    HW3 6842   4.459   0.910   2.922 -1.0932 -0.2217  0.7886
 1692SOL    MW4 6843   4.493   0.911   3.002 -0.3349 -0.0720  0.4723
 1693SOL     OW 6844   4.452   1.169   3.118 -0.2306 -0.1451 -0.7426
 1693SOL    HW2 6845   4.377   1.210   3.077 -0.4223 -0.7646 -1.0256
 1693SOL    HW3 6846   4.458   1.083   3.076 -0.2878 -0.6965  0.3511
 1693SOL    MW4 6847   4.443   1.163   3.107 -0.2632 -0.2997 -0.6354
 1694SOL     OW 6848   0.235   1.290   3.010 -0.0158 -0.0895  0.0818
 1694SOL    HW2 6849   0.159   1.236   3.031 -0.6282  0.6936 -0.1077
 1694SOL    HW3 6850   0.248   1.279   2.916  0.1101 -0.2355  0.1170
 1694SOL    MW4 6851   0.227   1.282   3.001 -0.0799 -0.0054  0.0615
 1695SOL     OW 6852   0.227   1.558   3.072 -0.2043 -0.7053 -0.3059
 1695SOL    HW2 6853   0.216   1.467   3.044  0.9161 -0.7047 -0.7565
 1695SOL    HW3 6854   0.224   1.554   3.167 -0.1916 -1.2031 -0.3252
 1695SOL    MW4 6855   0.225   1.546   3.081 -0.0548 -0.7710 -0.3676
 1696SOL     OW 6856   0.011   1.693   2.977  0.4277 -0.3760  0.2460
 1696SOL    HW2 6857   0.007   1.779   3.019 -0.5547 -0.6252  0.6592
 1696SOL    HW3 6858   0.097   1.658   3.003  0.5741  0.2199  0.5728
 1696SOL    MW4 6859   0.022   1.700   2.986  0.3181 -0.3303  0.3436
 1697SOL     OW 6860   0.015   1.940   3.105  0.2239 -0.3613  0.0911
 1697SOL    HW2 6861  -0.065   1.985   3.080  1.0620  0.6162 -0.9372
 1697SOL    HW3 6862   0.085   1.996   3.072  1.3121 -3.0744 -2.4518
 1697SOL    MW4 6863   0.014   1.953   3.097  0.4778 -0.5903 -0.3798
 1698SOL     OW 6864   0.236   2.075   3.030 -0.5923 -0.5726 -0.4579
 1698SOL    HW2 6865   0.222   2.167   3.055 -0.8002 -0.3775 -1.2881
 1698SOL    HW3 6866   0.235   2.075   2.934  0.6889 -1.2406 -0.4921
 1698SOL    MW4 6867   0.234   2.087   3.021 -0.4507 -0.6351 -0.5720
 1699SOL     OW 6868   0.198   2.346   3.083  0.0454 -0.1292  0.2723
 1699SOL    HW2 6869   0.192   2.345   3.178  1.4534  0.0507  0.3678
 1699SOL    HW3 6870   0.279   2.393   3.064 -0.0374 -0.4826 -1.0031
 1699SOL    MW4 6871   0.208   2.352   3.093  0.2202 -0.1523  0.1166
 1700SOL     OW 6872   4.472   2.499   3.031  0.2182 -0.5619 -0.1982
 1700SOL    HW2 6873   4.489   2.583   3.075 -0.8180 -1.3299  1.7662
 1700SOL    HW3 6874   4.555   2.451   3.038 -0.2877 -1.1823  2.1836
 1700SOL    MW4 6875   4.485   2.504   3.038  0.0148 -0.7451  0.3753
 1701SOL     OW 6876   4.462   2.749   3.157 -0.2861  0.1136 -0.6855
 1701SOL    HW2 6877   4.454   2.724   3.249 -0.5894 -0.6198 -0.9074
 1701SOL    HW3 6878   4.554   2.772   3.146 -0.1861 -0.0847 -0.2680
 1701SOL    MW4 6879   4.473   2.748   3.168 -0.3128 -0.0093 -0.6599
 1702SOL     OW 6880   0.214   2.850   3.052  0.0410 -0.4267 -0.2776
 1702SOL    HW2 6881   0.295   2.806   3.078  0.4449  0.5124  0.0813
 1702SOL    HW3 6882   0.226   2.866   2.958  0.0610 -0.7323 -0.3281
 1702SOL    MW4 6883   0.226   2.846   3.043  0.0969 -0.3431 -0.2367
 1703SOL     OW 6884   0.236   3.113   3.165  0.0993  0.2274 -0.2298
 1703SOL    HW2 6885   0.162   3.165   3.133 -1.4278 -1.3485  0.6498
 1703SOL    HW3 6886   0.226   3.028   3.122  0.7403 -0.3623  0.7691
 1703SOL    MW4 6887   0.225   3.109   3.155 -0.0176 -0.0582  0.0176
 1704SOL     OW 6888   4.488   3.228   3.050 -0.1097  0.8383 -0.0389
 1704SOL    HW2 6889   4.405   3.190   3.080 -0.8881  1.5681 -1.1871
 1704SOL    HW3 6890   4.491   3.207   2.957  2.6114 -2.0511  0.6243
 1704SOL    MW4 6891   4.477   3.220   3.042  0.1469  0.5536 -0.1025
 1705SOL     OW 6892   4.474   3.472   3.175  0.4886  0.4865  0.2515
 1705SOL    HW2 6893   4.414   3.525   3.123  2.0671  1.4182 -0.6886
 1705SOL    HW3 6894   4.481   3.389   3.127 -0.1535  0.3328  0.4313
 1705SOL    MW4 6895   4.467   3.468   3.162  0.6118  0.5889  0.1509
 1706SOL     OW 6896   0.178   3.612   3.025  0.5057  0.2703 -0.4334
 1706SOL    HW2 6897   0.199   3.698   3.061 -0.5403  1.1616 -1.8804
 1706SOL    HW3 6898   0.108   3.579   3.081  1.0527  0.2567  0.2531
 1706SOL    MW4 6899   0.171   3.619   3.037  0.4398  0.3862 -0.5338
 1707SOL     OW 6900   0.244   3.851   3.167  0.3355 -0.1999 -0.1953
 1707SOL    HW2 6901   0.233   3.846   3.262 -0.1036 -1.8817 -0.3187
 1707SOL    HW3 6902   0.311   3.918   3.155 -0.9982  1.4712  1.1886
 1707SOL    MW4 6903   0.251   3.859   3.178  0.1016 -0.2010 -0.0288
 1708SOL     OW 6904   0.044   4.009   3.051 -0.0547  0.7769 -0.1300
 1708SOL    HW2 6905   0.109   3.943   3.075 -2.0929 -1.4107 -0.4879
 1708SOL    HW3 6906   0.050   4.015   2.956 -1.0018 -0.1337 -0.2598
 1708SOL    MW4 6907   0.053   4.001   3.042 -0.4485  0.3681 -0.1945
 1709SOL     OW 6908   4.483   4.257   3.164  0.0963  0.1672 -0.0536
 1709SOL    HW2 6909   4.465   4.252   3.258  0.1094 -0.1996 -0.0702
 1709SOL    HW3 6910   4.502   4.167   3.138 -2.6124 -0.1884 -0.9727
 1709SOL    MW4 6911   4.483   4.244   3.173 -0.2599  0.0715 -0.1771
 1710SOL     OW 6912   0.206   4.408   3.045  0.8654  0.2262 -0.1067
 1710SOL    HW2 6913   0.136   4.353   3.081  0.4671  0.2643 -0.8080
 1710SOL    HW3 6914   0.194   4.493   3.087  1.2747 -0.1217  0.7278
 1710SOL    MW4 6915   0.195   4.412   3.055  0.8668  0.1845 -0.0892
 1711SOL     OW 6916   0.657   4.649   3.184 -0.0394 -0.2069 -0.4595
 1711SOL    HW2 6917   0.673   4.564   3.145 -0.0460 -0.5220  0.2208
 1711SOL    HW3 6918   0.573   4.677   3.147 -0.5073 -0.9226  0.0434
 1711SOL    MW4 6919   0.648   4.642   3.174 -0.1020 -0.3433 -0.3035
 1712SOL     OW 6920   0.430   0.077   3.047 -0.1073  0.1753  0.3793
 1712SOL    HW2 6921   0.443   0.163   3.088 -0.9216  0.3690  0.2329
 1712SOL    HW3 6922   0.346   0.046   3.082  0.2206 -0.5989  0.4933
 1712SOL    MW4 6923   0.421   0.084   3.057 -0.1715  0.0987  0.3750
 1713SOL     OW 6924   0.436   0.333   3.144 -0.4274  0.0080  0.0592
 1713SOL    HW2 6925   0.440   0.352   3.237  1.7984 -1.7354  0.3538
 1713SOL    HW3 6926   0.502   0.389   3.104 -0.2809 -0.3777 -0.2552
 1713SOL    MW4 6927   0.445   0.343   3.151 -0.1144 -0.2729  0.0565
 1714SOL     OW 6928   0.642   0.489   3.032 -0.2161 -0.0159  0.2408
 1714SOL    HW2 6929   0.725   0.449   3.058  0.8641  1.7349 -0.4749
 1714SOL    HW3 6930   0.642   0.575   3.073 -0.5305  0.9784 -1.7749
 1714SOL    MW4 6931   0.653   0.495   3.041 -0.1150  0.3462 -0.1197
 1715SOL     OW 6932   0.654   0.763   3.111 -0.2962 -0.0473  0.2661
 1715SOL    HW2 6933   0.656   0.780   3.205  0.3252 -0.6118  0.3623
 1715SOL    HW3 6934   0.586   0.821   3.077 -1.6898 -1.0295  1.3159
 1715SOL    MW4 6935   0.645   0.773   3.119 -0.3980 -0.2514  0.4172
 1716SOL     OW 6936   0.434   0.924   3.000 -0.3418 -0.1093 -0.2562
 1716SOL    HW2 6937   0.369   0.859   3.027  0.0666 -0.7146 -0.7339
 1716SOL    HW3 6938   0.426   0.928   2.905  0.5662 -0.4445 -0.3522
 1716SOL    MW4 6939   0.424   0.916   2.991 -0.1681 -0.2334 -0.3319
 1717SOL     OW 6940   0.470   1.169   3.158 -0.5259  0.0423  1.0590
 1717SOL    HW2 6941   0.473   1.095   3.098  1.4724  1.0339 -0.1087
 1717SOL    HW3 6942   0.391   1.217   3.132 -0.1224  0.0205 -0.2447
 1717SOL    MW4 6943   0.460   1.166   3.146 -0.2090  0.1702  0.7329
 1718SOL     OW 6944   0.661   1.280   2.996  0.6139 -0.0968  0.4279
 1718SOL    HW2 6945   0.737   1.233   3.029  0.2105 -1.6186 -0.7382
 1718SOL    HW3 6946   0.592   1.261   3.058  0.8358  0.1793  0.7602
 1718SOL    MW4 6947   0.662   1.271   3.008  0.5899 -0.2612  0.3178
 1719SOL     OW 6948   0.658   1.540   3.147 -0.0115  0.2726 -0.5814
 1719SOL    HW2 6949   0.663   1.521   3.240  1.6738  0.1537 -0.6811
 1719SOL    HW3 6950   0.675   1.456   3.104  0.5650  0.5955 -0.9907
 1719SOL    MW4 6951   0.661   1.527   3.154  0.2869  0.2993 -0.6487
 1720SOL     OW 6952   0.452   1.702   3.024  0.2753  0.6971 -0.0480
 1720SOL    HW2 6953   0.527   1.656   3.061 -0.2629 -1.7035 -1.8350
 1720SOL    HW3 6954   0.377   1.645   3.042 -0.5975  1.4204 -1.2835
 1720SOL    MW4 6955   0.452   1.688   3.031  0.0891  0.4759 -0.4468
 1721SOL     OW 6956   0.470   1.970   3.111 -0.2506 -0.4053 -0.4069
 1721SOL    HW2 6957   0.462   1.875   3.101 -1.5611 -0.3501  0.0392
 1721SOL    HW3 6958   0.383   2.003   3.091 -0.1099  0.6080  0.6221
 1721SOL    MW4 6959   0.457   1.962   3.107 -0.4049 -0.2643 -0.2122
 1722SOL     OW 6960   0.714   2.085   3.024 -0.1129 -0.4462 -0.0549
 1722SOL    HW2 6961   0.792   2.036   3.051 -0.1939 -0.3849  0.2831
 1722SOL    HW3 6962   0.641   2.034   3.059 -0.2078 -0.2377  0.0454
 1722SOL    MW4 6963   0.715   2.072   3.032 -0.1361 -0.4108  0.0029
 1723SOL     OW 6964   0.631   2.345   3.119  0.4158  0.2342  0.6699
 1723SOL    HW2 6965   0.621   2.360   3.213 -1.2732 -0.3604  0.5933
 1723SOL    HW3 6966   0.660   2.254   3.112 -1.7309 -0.4624  0.5213
 1723SOL    MW4 6967   0.634   2.335   3.130 -0.0904  0.0637  0.6402
 1724SOL     OW 6968   0.414   2.486   3.020  0.3826  0.0064 -0.1135
 1724SOL    HW2 6969   0.496   2.445   3.047  0.8934  0.8745 -0.3553
 1724SOL    HW3 6970   0.415   2.481   2.924  0.8784  1.4002 -0.1958
 1724SOL    MW4 6971   0.425   2.480   3.011  0.5155  0.3052 -0.1562
 1725SOL     OW 6972   0.432   2.714   3.157 -0.2253 -0.0074  0.7202
 1725SOL    HW2 6973   0.508   2.763   3.125 -1.5380  1.5744 -0.0397
 1725SOL    HW3 6974   0.436   2.631   3.110 -0.0581  0.8488 -0.8158
 1725SOL    MW4 6975   0.442   2.710   3.146 -0.3764  0.3142  0.4175
 1726SOL     OW 6976   0.666   2.831   3.029  0.1608 -0.3633 -0.4919
 1726SOL    HW2 6977   0.741   2.791   3.072 -1.0692 -1.5632  0.5592
 1726SOL    HW3 6978   0.654   2.915   3.074  0.5884 -0.3580 -0.3875
 1726SOL    MW4 6979   0.675   2.837   3.040  0.0550 -0.5209 -0.3397
 1727SOL     OW 6980   0.674   3.085   3.150 -0.2059  0.0069  0.0775
 1727SOL    HW2 6981   0.650   3.072   3.242 -0.0130 -0.2569  0.0925
 1727SOL    HW3 6982   0.605   3.140   3.115  0.8076  1.8612  0.9064
 1727SOL    MW4 6983   0.662   3.090   3.158 -0.0468  0.2167  0.1891
 1728SOL     OW 6984   0.467   3.231   3.054 -0.0686  0.5544 -0.0738
 1728SOL    HW2 6985   0.465   3.323   3.082  0.0462  0.1752  1.2319
 1728SOL    HW3 6986   0.392   3.191   3.098  0.6259 -0.2488  0.3984
 1728SOL    MW4 6987   0.457   3.238   3.064  0.0382  0.3986  0.1609
 1729SOL     OW 6988   0.421   3.506   3.118  0.0677  0.3750  0.1885
 1729SOL    HW2 6989   0.417   3.528   3.211 -0.8731 -3.0330  1.0343
 1729SOL    HW3 6990   0.335   3.530   3.084 -0.2386 -0.0687  0.6355
 1729SOL    MW4 6991   0.409   3.512   3.126 -0.0969 -0.1333  0.3591
 1730SOL     OW 6992   0.634   3.652   3.022 -0.3921  0.5412 -0.1204
 1730SOL    HW2 6993   0.714   3.603   3.043  0.1521  1.0418 -1.0198
 1730SOL    HW3 6994   0.564   3.602   3.065  0.3918  0.0707  0.6262
 1730SOL    MW4 6995   0.635   3.639   3.030 -0.2169  0.5450 -0.1404
 1731SOL     OW 6996   0.685   3.887   3.158  0.0744 -0.0819  0.5118
 1731SOL    HW2 6997   0.674   3.879   3.252 -1.7866  1.5267  0.4676
 1731SOL    HW3 6998   0.654   3.804   3.122  0.9310 -0.7518  1.3142
 1731SOL    MW4 6999   0.679   3.875   3.165 -0.0581  0.0417  0.6120
 1732SOL     OW 7000   0.453   4.044   3.111  0.0679  0.0195  0.3032
 1732SOL    HW2 7001   0.535   3.999   3.135  0.7491  1.1968  0.2198
 1732SOL    HW3 7002   0.449   4.035   3.016  1.2032  1.7760  0.0647
 1732SOL    MW4 7003   0.464   4.037   3.102  0.3076  0.4067  0.2608
 1733SOL     OW 7004   0.419   4.303   3.165 -0.2317  0.2497 -0.1567
 1733SOL    HW2 7005   0.418   4.212   3.136 -1.2194 -0.2965  1.5779
 1733SOL    HW3 7006   0.340   4.342   3.127  0.6251  0.6362 -1.6041
 1733SOL    MW4 7007   0.409   4.296   3.156 -0.2490  0.2284 -0.1190
 1734SOL     OW 7008   0.666   4.397   3.054 -0.1786  0.1099 -0.2634
 1734SOL    HW2 7009   0.593   4.354   3.098  0.1160  0.5248  0.6341
 1734SOL    HW3 7010   0.643   4.393   2.961 -1.5335  0.5840  0.0365
 1734SOL    MW4 7011   0.653   4.391   3.047 -0.3185  0.2275 -0.1056
 1735SOL     OW 7012   1.112   0.019   3.161  0.5698  0.0811  0.0547
 1735SOL    HW2 7013   1.184   0.059   3.112 -0.2593 -0.3504 -1.5155
 1735SOL    HW3 7014   1.033   0.053   3.120 -0.1698  1.3748  2.4258
 1735SOL    MW4 7015   1.111   0.029   3.149  0.3628  0.1945  0.1605
 1736SOL     OW 7016   0.869   0.110   3.045 -0.1866 -0.4228  0.4471
 1736SOL    HW2 7017   0.878   0.202   3.067  1.7292 -0.1353 -1.4117
 1736SOL    HW3 7018   0.797   0.079   3.100 -1.8997  2.5343 -0.0427
 1736SOL    MW4 7019   0.860   0.118   3.055 -0.1599  0.0053  0.1373
 1737SOL     OW 7020   0.891   0.391   3.122 -0.1097  0.1858  0.2657
 1737SOL    HW2 7021   0.886   0.400   3.217  2.0317 -1.3472  0.5743
 1737SOL    HW3 7022   0.962   0.449   3.095  1.4533 -1.7803  0.0361
 1737SOL    MW4 7023   0.900   0.400   3.131  0.3791 -0.2759  0.2761
 1738SOL     OW 7024   1.132   0.514   3.028  0.4678  0.0283  0.9611
 1738SOL    HW2 7025   1.192   0.451   3.067  0.3607 -0.6935 -0.0236
 1738SOL    HW3 7026   1.142   0.501   2.933 -0.7388  0.3838  0.7823
 1738SOL    MW4 7027   1.141   0.504   3.020  0.2943 -0.0200  0.8078
 1739SOL     OW 7028   1.108   0.774   3.134 -0.3280 -0.4217  0.0074
 1739SOL    HW2 7029   1.119   0.749   3.226  0.0922  0.8737  0.3139
 1739SOL    HW3 7030   1.100   0.691   3.087  3.2740 -1.2423  0.7289
 1739SOL    MW4 7031   1.108   0.760   3.140  0.2028 -0.3590  0.1435
 1740SOL     OW 7032   0.888   0.912   3.047 -0.1772  0.6339  0.1899
 1740SOL    HW2 7033   0.954   0.858   3.090 -0.1703  0.5600  0.0860
 1740SOL    HW3 7034   0.806   0.864   3.060 -0.2051  0.7101  0.2926
 1740SOL    MW4 7035   0.886   0.898   3.054 -0.1800  0.6341  0.1893
 1741SOL     OW 7036   0.880   1.164   3.121  0.2466 -0.7801  0.2022
 1741SOL    HW2 7037   0.941   1.203   3.059 -0.5203  0.9918  0.5514
 1741SOL    HW3 7038   0.886   1.070   3.103  0.4854 -0.3541 -2.1284
 1741SOL    MW4 7039   0.889   1.157   3.110  0.1770 -0.4902 -0.0594
 1742SOL     OW 7040   1.091   1.252   2.967 -0.1464 -0.2725  0.7948
 1742SOL    HW2 7041   1.166   1.221   3.017 -0.4927  0.9898  2.1249
 1742SOL    HW3 7042   1.127   1.273   2.881  0.4550 -2.4312  0.4895
 1742SOL    MW4 7043   1.105   1.251   2.962 -0.1127 -0.3908  0.9301
 1743SOL     OW 7044   1.083   1.528   3.105  0.2370 -0.3321 -0.1448
 1743SOL    HW2 7045   1.166   1.564   3.074 -0.2658  0.5782 -0.4426
 1743SOL    HW3 7046   1.077   1.442   3.063  1.1375 -0.5089  0.0703
 1743SOL    MW4 7047   1.093   1.521   3.096  0.2896 -0.2352 -0.1557
 1744SOL     OW 7048   0.872   1.667   3.007 -0.2433 -0.0893 -0.0144
 1744SOL    HW2 7049   0.940   1.615   3.050 -0.5375  0.7703  1.5004
 1744SOL    HW3 7050   0.790   1.632   3.041 -0.5429 -0.4170 -1.0416
 1744SOL    MW4 7051   0.870   1.655   3.017 -0.3216 -0.0192  0.0498
 1745SOL     OW 7052   0.933   1.925   3.096  0.5916 -0.2960  0.3181
 1745SOL    HW2 7053   0.927   1.917   3.191  0.4840 -2.9453  0.1393
 1745SOL    HW3 7054   0.904   1.840   3.063  1.7318  0.1867 -2.0450
 1745SOL    MW4 7055   0.928   1.913   3.104  0.7278 -0.5819 -0.0174
 1746SOL     OW 7056   1.172   2.027   2.983  0.3515  0.0436 -0.0453
 1746SOL    HW2 7057   1.099   1.984   3.026  0.4392  0.2574  0.3153
 1746SOL    HW3 7058   1.149   2.026   2.890  1.0623 -2.1582 -0.2239
 1746SOL    MW4 7059   1.160   2.022   2.976  0.4568 -0.2186 -0.0212
 1747SOL     OW 7060   1.145   2.339   3.117  0.0755  0.2972 -0.3147
 1747SOL    HW2 7061   1.057   2.373   3.101 -0.6690 -1.2707  0.3432
 1747SOL    HW3 7062   1.139   2.246   3.098  1.8353  0.3181 -1.1301
 1747SOL    MW4 7063   1.133   2.332   3.112  0.2093  0.0932 -0.3355
 1748SOL     OW 7064   0.901   2.434   3.067 -0.1691 -0.1153  0.4515
 1748SOL    HW2 7065   0.814   2.404   3.093  0.2205 -1.0724  0.6729
 1748SOL    HW3 7066   0.897   2.436   2.971 -0.4443 -0.1107  0.4614
 1748SOL    MW4 7067   0.889   2.430   3.058 -0.1540 -0.2408  0.4818
 1749SOL     OW 7068   0.894   2.717   3.116  0.6726  0.4252  0.8889
 1749SOL    HW2 7069   0.903   2.720   3.212 -0.3317 -0.5143  1.0200
 1749SOL    HW3 7070   0.893   2.623   3.095 -0.7122  0.6148  0.1083
 1749SOL    MW4 7071   0.895   2.705   3.126  0.3574  0.3262  0.8035
 1750SOL     OW 7072   1.129   2.841   3.051  0.3555 -0.7070 -0.2027
 1750SOL    HW2 7073   1.143   2.923   3.097  1.8047 -1.9399  1.6405
 1750SOL    HW3 7074   1.048   2.806   3.088  0.2782 -0.5891 -0.2604
 1750SOL    MW4 7075   1.120   2.847   3.062  0.5366 -0.8543  0.0329
 1751SOL     OW 7076   1.141   3.109   3.144  0.2588 -0.1190  0.4702
 1751SOL    HW2 7077   1.222   3.156   3.123  0.0657 -0.1270 -0.3033
 1751SOL    HW3 7078   1.071   3.169   3.119  0.0168  0.0185  1.4344
 1751SOL    MW4 7079   1.143   3.123   3.138  0.2012 -0.1020  0.4954
 1752SOL     OW 7080   0.902   3.252   3.072  0.7444 -0.0782 -0.3036
 1752SOL    HW2 7081   0.835   3.193   3.107  0.3641  0.9942  0.8370
 1752SOL    HW3 7082   0.895   3.242   2.977  0.2497 -1.3815 -0.1378
 1752SOL    MW4 7083   0.892   3.243   3.064  0.6289 -0.1085 -0.1314
 1753SOL     OW 7084   0.855   3.514   3.119  0.0003 -0.0938 -0.3648
 1753SOL    HW2 7085   0.948   3.524   3.099 -0.1493  1.1675 -0.4719
 1753SOL    HW3 7086   0.836   3.422   3.101  1.3385 -0.4819  0.1312
 1753SOL    MW4 7087   0.865   3.504   3.114  0.1571  0.0215 -0.3138
 1754SOL     OW 7088   1.102   3.602   3.050  0.0271 -0.1313  0.2755
 1754SOL    HW2 7089   1.181   3.554   3.073 -0.2022 -0.6538 -0.0383
 1754SOL    HW3 7090   1.106   3.681   3.104  0.0252 -0.8483  1.3475
 1754SOL    MW4 7091   1.113   3.606   3.061 -0.0035 -0.2947  0.3755
 1755SOL     OW 7092   1.130   3.853   3.150 -0.2769  0.0472  0.1219
 1755SOL    HW2 7093   1.126   3.852   3.246 -0.5231 -1.1795  0.1144
 1755SOL    HW3 7094   1.050   3.898   3.123 -0.5969 -0.2944  0.4881
 1755SOL    MW4 7095   1.119   3.859   3.159 -0.3515 -0.1597  0.1693
 1756SOL     OW 7096   0.925   4.009   3.063  0.0672 -0.7379  0.3754
 1756SOL    HW2 7097   0.846   3.960   3.086  0.3144 -1.3501 -0.0579
 1756SOL    HW3 7098   0.919   4.019   2.968  0.0572  0.0109  0.4527
 1756SOL    MW4 7099   0.913   4.003   3.053  0.0984 -0.7200  0.3283
 1757SOL     OW 7100   0.921   4.293   3.174  0.2865  0.4704 -0.1644
 1757SOL    HW2 7101   0.927   4.201   3.149  2.5192  0.8241 -1.0143
 1757SOL    HW3 7102   0.835   4.321   3.141 -0.5152 -1.3435  0.3155
 1757SOL    MW4 7103   0.910   4.285   3.166  0.4752  0.2780 -0.2134
 1758SOL     OW 7104   1.138   4.424   3.041  0.1154  0.6427 -0.2488
 1758SOL    HW2 7105   1.066   4.382   3.088 -0.4967  1.5839 -0.3343
 1758SOL    HW3 7106   1.152   4.507   3.086  0.7408  0.7368 -0.6052
 1758SOL    MW4 7107   1.130   4.429   3.053  0.1171  0.7792 -0.3076
 1759SOL     OW 7108   1.587   4.630   3.133  0.1154  0.5530  0.0356
 1759SOL    HW2 7109   1.569   4.606   3.224 -1.0858  2.1803  0.2602
 1759SOL    HW3 7110   1.505   4.668   3.102  0.7727  0.7528 -1.4806
 1759SOL    MW4 7111   1.574   4.632   3.141  0.0436  0.7939 -0.1349
 1760SOL     OW 7112   1.349   0.093   3.025 -0.2577 -0.1529 -0.6245
 1760SOL    HW2 7113   1.355   0.183   3.059 -1.7700 -0.2137 -0.1811
 1760SOL    HW3 7114   1.345   0.104   2.930  1.7224  0.1277 -0.6984
 1760SOL    MW4 7115   1.349   0.106   3.017 -0.1961 -0.1239 -0.5755
 1761SOL     OW 7116   1.323   0.347   3.113 -0.2059 -0.4340 -0.1625
 1761SOL    HW2 7117   1.330   0.348   3.208  1.0413 -0.7686 -0.2537
 1761SOL    HW3 7118   1.392   0.406   3.083 -1.6425  0.9647 -0.8027
 1761SOL    MW4 7119   1.333   0.355   3.122 -0.2308 -0.2936 -0.2589
 1762SOL     OW 7120   1.538   0.498   3.021 -0.0277  0.2211 -0.4684
 1762SOL    HW2 7121   1.518   0.589   3.043  1.9074  0.0886  2.0450
 1762SOL    HW3 7122   1.541   0.497   2.925 -1.1251  2.5454 -0.5799
 1762SOL    MW4 7123   1.536   0.510   3.011  0.0827  0.5103 -0.1516
 1763SOL     OW 7124   1.519   0.757   3.086 -0.3845  0.0895  0.0710
 1763SOL    HW2 7125   1.554   0.748   3.175  1.6829 -0.4103 -0.7681
 1763SOL    HW3 7126   1.446   0.818   3.095 -0.6451 -0.5063  2.2287
 1763SOL    MW4 7127   1.514   0.764   3.099 -0.1460 -0.0551  0.2449
 1764SOL     OW 7128   1.311   0.912   2.995 -0.7567  0.1493  0.1502
 1764SOL    HW2 7129   1.322   0.999   3.032 -3.0256  0.2962  0.5627
 1764SOL    HW3 7130   1.235   0.876   3.041 -0.8218 -1.4109 -1.1434
 1764SOL    MW4 7131   1.302   0.919   3.006 -1.0645 -0.0371  0.0341
 1765SOL     OW 7132   1.318   1.157   3.104  0.3705 -0.0508  0.3421
 1765SOL    HW2 7133   1.318   1.157   3.200  0.7551 -0.4273  0.3458
 1765SOL    HW3 7134   1.395   1.209   3.080  0.4796 -0.2570  0.2432
 1765SOL    MW4 7135   1.328   1.163   3.114  0.4357 -0.1277  0.3295
 1766SOL     OW 7136   1.572   1.286   3.039  0.2443  0.3634  0.0742
 1766SOL    HW2 7137   1.635   1.227   3.079  0.3283  0.6320  0.3450
 1766SOL    HW3 7138   1.592   1.372   3.077 -0.7009  0.3415  0.6614
 1766SOL    MW4 7139   1.583   1.290   3.050  0.1307  0.3960  0.1872
 1767SOL     OW 7140   1.599   1.549   3.145 -0.1791 -0.4497 -0.0076
 1767SOL    HW2 7141   1.672   1.597   3.106 -0.4854  1.1825  1.3724
 1767SOL    HW3 7142   1.523   1.572   3.090  0.0892 -1.1080 -0.6582
 1767SOL    MW4 7143   1.598   1.558   3.133 -0.1841 -0.3213  0.0885
 1768SOL     OW 7144   1.350   1.646   3.054  0.0187 -0.3304  0.2535
 1768SOL    HW2 7145   1.368   1.730   3.095  0.3454 -0.3013  0.0537
 1768SOL    HW3 7146   1.337   1.666   2.961  1.2071 -0.6279  0.0096
 1768SOL    MW4 7147   1.351   1.659   3.047  0.2186 -0.3659  0.1953
 1769SOL     OW 7148   1.400   1.920   3.100  0.3805 -0.0293  0.1526
 1769SOL    HW2 7149   1.393   1.928   3.195  0.5519  0.4624  0.1234
 1769SOL    HW3 7150   1.330   1.975   3.065  0.7330  0.3199 -0.0160
 1769SOL    MW4 7151   1.390   1.928   3.108  0.4495  0.0815  0.1266
 1770SOL     OW 7152   1.622   2.080   3.019 -0.3337 -0.0903 -0.0826
 1770SOL    HW2 7153   1.552   2.023   3.050 -0.6176 -0.5223 -1.5040
 1770SOL    HW3 7154   1.613   2.081   2.924  1.6017 -0.1794 -0.3010
 1770SOL    MW4 7155   1.612   2.073   3.010 -0.1158 -0.1588 -0.2990
 1771SOL     OW 7156   1.596   2.357   3.095 -0.3249 -0.2640  0.0096
 1771SOL    HW2 7157   1.512   2.382   3.057 -1.1667 -1.0828  1.2604
 1771SOL    HW3 7158   1.607   2.265   3.071 -0.0531 -0.3098  0.2976
 1771SOL    MW4 7159   1.586   2.348   3.087 -0.4002 -0.3781  0.2127
 1772SOL     OW 7160   1.359   2.452   2.985 -0.0203 -0.3847 -0.0795
 1772SOL    HW2 7161   1.276   2.423   3.024  0.6010 -1.0232  0.7925
 1772SOL    HW3 7162   1.345   2.445   2.891 -1.1259 -0.0083  0.0415
 1772SOL    MW4 7163   1.346   2.447   2.978 -0.0842 -0.4194  0.0515
 1773SOL     OW 7164   1.347   2.680   3.158  0.0780  0.0406 -0.3507
 1773SOL    HW2 7165   1.377   2.606   3.107 -0.6263 -1.7382  1.7311
 1773SOL    HW3 7166   1.260   2.701   3.123 -0.5947 -1.4572  0.3983
 1773SOL    MW4 7167   1.340   2.673   3.147 -0.1037 -0.3912  0.0226
 1774SOL     OW 7168   1.516   2.861   3.022 -0.1784 -0.0655 -0.1216
 1774SOL    HW2 7169   1.605   2.841   3.049  0.0933  1.9669  0.5438
 1774SOL    HW3 7170   1.461   2.812   3.083  0.4623  0.1437  0.6255
 1774SOL    MW4 7171   1.520   2.852   3.034 -0.0581  0.2303  0.0648
 1775SOL     OW 7172   1.593   3.101   3.124  0.4544  0.2065  0.1148
 1775SOL    HW2 7173   1.593   3.099   3.220  2.0482  0.5477  0.1403
 1775SOL    HW3 7174   1.551   3.019   3.098  0.2214  0.0046  1.1040
 1775SOL    MW4 7175   1.587   3.090   3.133  0.6338  0.2246  0.2487
 1776SOL     OW 7176   1.362   3.243   3.058  0.1611  0.5102  0.1566
 1776SOL    HW2 7177   1.445   3.205   3.086  0.2691  1.0147  0.5255
 1776SOL    HW3 7178   1.361   3.231   2.963  1.4064  1.9514 -0.0736
 1776SOL    MW4 7179   1.373   3.237   3.049  0.3395  0.7668  0.1748
 1777SOL     OW 7180   1.364   3.506   3.119 -0.5041 -0.2905  0.1348
 1777SOL    HW2 7181   1.362   3.499   3.214  1.0249 -1.7485  0.0876
 1777SOL    HW3 7182   1.369   3.415   3.088 -0.8667  0.1730 -1.3366
 1777SOL    MW4 7183   1.364   3.493   3.128 -0.3501 -0.4218 -0.0656
 1778SOL     OW 7184   1.601   3.604   3.014 -0.0562  0.1795 -0.2144
 1778SOL    HW2 7185   1.521   3.571   3.055  0.3035  0.3508  0.6410
 1778SOL    HW3 7186   1.585   3.596   2.920 -0.1779 -1.9441 -0.0487
 1778SOL    MW4 7187   1.589   3.599   3.007 -0.0248 -0.0782 -0.0792
 1779SOL     OW 7188   1.565   3.863   3.099 -0.1613  0.4642  0.2391
 1779SOL    HW2 7189   1.651   3.905   3.100 -0.1404  0.4198  0.3535
 1779SOL    HW3 7190   1.579   3.779   3.054 -0.2987  0.7796 -0.3948
 1779SOL    MW4 7191   1.578   3.857   3.093 -0.1767  0.5000  0.1707
 1780SOL     OW 7192   1.330   4.017   3.044 -0.1395 -0.4458  0.0041
 1780SOL    HW2 7193   1.413   3.973   3.057  0.1016 -0.0734 -0.2698
 1780SOL    HW3 7194   1.264   3.953   3.073  0.2141 -0.9099 -0.2103
 1780SOL    MW4 7195   1.332   4.003   3.049 -0.0609 -0.4578 -0.0606
 1781SOL     OW 7196   1.370   4.252   3.157 -0.2929 -0.4627  0.2046
 1781SOL    HW2 7197   1.350   4.170   3.112 -1.4908  0.4393 -0.9671
 1781SOL    HW3 7198   1.299   4.311   3.131 -0.2890  0.4941  2.2415
 1781SOL    MW4 7199   1.358   4.249   3.148 -0.4505 -0.2170  0.3190
 1782SOL     OW 7200   1.578   4.363   3.007  0.0613 -0.3305  0.5750
 1782SOL    HW2 7201   1.504   4.328   3.056 -0.9945 -0.1029 -0.8236
 1782SOL    HW3 7202   1.592   4.451   3.044 -0.6623 -0.1948  0.5327
 1782SOL    MW4 7203   1.570   4.370   3.018 -0.1736 -0.2823  0.3846
 1783SOL     OW 7204   2.033   4.639   3.126 -0.3795 -0.0845 -0.2652
 1783SOL    HW2 7205   2.001   4.624   3.215 -0.1671  0.2239 -0.1399
 1783SOL    HW3 7206   1.962   4.685   3.082 -0.9782 -1.3064 -0.6076
 1783SOL    MW4 7207   2.019   4.643   3.132 -0.4303 -0.2050 -0.2937
 1784SOL     OW 7208   1.807   0.093   3.025 -0.1808 -0.0575 -0.2629
 1784SOL    HW2 7209   1.727   0.053   3.062  0.2033 -1.2195 -0.6548
 1784SOL    HW3 7210   1.785   0.112   2.934 -0.1758  0.0707 -0.2363
 1784SOL    MW4 7211   1.794   0.090   3.018 -0.1293 -0.1939 -0.3111
 1785SOL     OW 7212   1.737   0.341   3.147  0.1057  0.3533  0.0699
 1785SOL    HW2 7213   1.743   0.254   3.108  0.7393  0.9684 -1.2487
 1785SOL    HW3 7214   1.663   0.382   3.103  2.4564  1.9966 -2.4779
 1785SOL    MW4 7215   1.728   0.335   3.136  0.4994  0.6513 -0.4401
 1786SOL     OW 7216   1.992   0.481   3.035  0.4955 -0.3801  0.3509
 1786SOL    HW2 7217   1.919   0.423   3.057  1.1053 -0.8107  1.2978
 1786SOL    HW3 7218   1.996   0.480   2.940 -1.7281  0.8797  0.2228
 1786SOL    MW4 7219   1.983   0.473   3.026  0.2825 -0.2707  0.4590
 1787SOL     OW 7220   1.993   0.768   3.134  0.1725  0.6878 -0.0016
 1787SOL    HW2 7221   1.905   0.797   3.107 -0.3614 -0.7363  0.1258
 1787SOL    HW3 7222   1.998   0.678   3.102  0.8767  0.1430  1.6227
 1787SOL    MW4 7223   1.982   0.760   3.126  0.1949  0.4280  0.2294
 1788SOL     OW 7224   1.770   0.868   3.011  0.3760 -0.4750  0.1427
 1788SOL    HW2 7225   1.693   0.811   3.019 -0.8709  1.2371  0.4979
 1788SOL    HW3 7226   1.787   0.872   2.917  1.4971 -2.7338  0.1969
 1788SOL    MW4 7227   1.762   0.861   3.000  0.3594 -0.5471  0.1967
 1789SOL     OW 7228   1.787   1.117   3.102  0.0682  0.2522 -0.4728
 1789SOL    HW2 7229   1.774   1.110   3.197  0.7046  0.9909 -0.3284
 1789SOL    HW3 7230   1.774   1.028   3.070 -0.3526  0.0327  0.2843
 1789SOL    MW4 7231   1.784   1.104   3.110  0.0967  0.3207 -0.3536
 1790SOL     OW 7232   2.002   1.262   3.013 -0.2401  0.0607  0.0669
 1790SOL    HW2 7233   2.085   1.223   3.039 -0.1226  0.7174  0.6842
 1790SOL    HW3 7234   1.935   1.205   3.049 -0.0676 -0.9526 -1.1589
 1790SOL    MW4 7235   2.004   1.250   3.021 -0.2019  0.0138 -0.0134
 1791SOL     OW 7236   2.003   1.519   3.110  0.1236  0.5309 -0.0138
 1791SOL    HW2 7237   2.033   1.512   3.200  0.0601  1.1316  0.0542
 1791SOL    HW3 7238   1.996   1.428   3.080 -1.5549  0.2401  1.1504
 1791SOL    MW4 7239   2.006   1.506   3.118 -0.1063  0.5718  0.1490
 1792SOL     OW 7240   1.799   1.673   3.010  0.0905 -0.3131 -0.6038
 1792SOL    HW2 7241   1.828   1.760   3.038  0.2883 -0.7475  0.5538
 1792SOL    HW3 7242   1.869   1.615   3.039 -0.5654 -1.0028 -0.4235
 1792SOL    MW4 7243   1.812   1.677   3.017  0.0302 -0.4615 -0.4272
 1793SOL     OW 7244   1.840   1.941   3.079 -0.4447  0.0320  0.0150
 1793SOL    HW2 7245   1.917   1.988   3.046 -0.9071  1.1049  0.4357
 1793SOL    HW3 7246   1.766   1.993   3.050 -1.0176 -0.9927 -0.3717
 1793SOL    MW4 7247   1.840   1.954   3.071 -0.5813  0.0385  0.0193
 1794SOL     OW 7248   2.056   2.110   2.977  0.3838  0.0693 -0.1625
 1794SOL    HW2 7249   2.113   2.052   3.028  1.6586  1.0251 -0.4780
 1794SOL    HW3 7250   2.033   2.180   3.037 -0.3658 -0.2419 -0.0787
 1794SOL    MW4 7251   2.061   2.111   2.991  0.4528  0.1543 -0.1929
 1795SOL     OW 7252   2.003   2.340   3.133  0.2518 -0.6145 -0.0485
 1795SOL    HW2 7253   2.081   2.365   3.084  0.2136 -1.0599 -0.3382
 1795SOL    HW3 7254   1.934   2.399   3.100 -0.1709 -2.0217 -1.7403
 1795SOL    MW4 7255   2.004   2.351   3.122  0.1910 -0.8590 -0.3097
 1796SOL     OW 7256   1.806   2.492   3.011  0.4524  0.4832 -0.2910
 1796SOL    HW2 7257   1.803   2.572   3.063  0.6684 -0.0185  0.5001
 1796SOL    HW3 7258   1.735   2.438   3.047  0.3450  0.2988 -0.7799
 1796SOL    MW4 7259   1.796   2.495   3.023  0.4667  0.3927 -0.2511
 1797SOL     OW 7260   1.762   2.764   3.112 -0.3675  0.1711  0.1489
 1797SOL    HW2 7261   1.763   2.757   3.208 -1.1752 -1.0164  0.0831
 1797SOL    HW3 7262   1.832   2.826   3.092  1.2804 -1.2390  1.3778
 1797SOL    MW4 7263   1.771   2.771   3.122 -0.2567 -0.1717  0.3026
 1798SOL     OW 7264   2.006   2.847   2.979  0.1953 -0.3391 -0.1318
 1798SOL    HW2 7265   2.038   2.926   3.021  1.9268 -0.2376 -1.5810
 1798SOL    HW3 7266   2.000   2.870   2.886 -0.7609 -1.4287 -0.3474
 1798SOL    MW4 7267   2.010   2.860   2.972  0.2975 -0.4694 -0.3512
 1799SOL     OW 7268   2.057   3.084   3.107 -0.3055 -0.2106  0.4504
 1799SOL    HW2 7269   2.041   3.061   3.199 -0.9641  1.1603  0.6843
 1799SOL    HW3 7270   1.977   3.127   3.078  0.0534 -0.2618 -0.6552
 1799SOL    MW4 7271   2.045   3.087   3.115 -0.3450 -0.0365  0.3352
 1800SOL     OW 7272   1.831   3.226   3.043 -0.5285  0.2322 -0.0916
 1800SOL    HW2 7273   1.749   3.182   3.064  0.2375 -0.6599  1.1373
 1800SOL    HW3 7274   1.823   3.248   2.950 -2.3278  0.5651  0.1238
 1800SOL    MW4 7275   1.819   3.223   3.033 -0.6648  0.1585  0.0989
 1801SOL     OW 7276   1.814   3.488   3.148 -0.5930  0.1990  0.4254
 1801SOL    HW2 7277   1.820   3.405   3.102  1.7815  1.4126 -1.5928
 1801SOL    HW3 7278   1.726   3.520   3.128 -1.2204 -1.4162  0.5244
 1801SOL    MW4 7279   1.804   3.482   3.139 -0.3625  0.1464  0.1721
 1802SOL     OW 7280   2.019   3.627   3.019 -0.2739  0.6480 -0.2159
 1802SOL    HW2 7281   2.022   3.717   3.052  0.0546  0.3019  0.7398
 1802SOL    HW3 7282   1.954   3.584   3.074 -0.0165  0.1575 -0.2971
 1802SOL    MW4 7283   2.011   3.633   3.031 -0.1967  0.5381 -0.1006
 1803SOL     OW 7284   2.054   3.889   3.111  0.3837  0.0473  0.1700
 1803SOL    HW2 7285   2.060   3.891   3.207  1.7765  0.0810  0.0837
 1803SOL    HW3 7286   1.967   3.925   3.092  0.0811  0.0073  1.4209
 1803SOL    MW4 7287   2.043   3.894   3.122  0.5274  0.0467  0.3238
 1804SOL     OW 7288   1.808   3.977   3.032 -0.0197  0.2515  0.0046
 1804SOL    HW2 7289   1.813   4.071   3.049  1.1778  0.5242 -1.7635
 1804SOL    HW3 7290   1.792   3.970   2.938 -0.5228 -1.3184  0.1897
 1804SOL    MW4 7291   1.806   3.988   3.022  0.0719  0.0803 -0.2041
 1805SOL     OW 7292   1.796   4.236   3.117  0.2578  0.5204 -0.3377
 1805SOL    HW2 7293   1.873   4.279   3.079  0.1030 -0.4292 -1.7614
 1805SOL    HW3 7294   1.722   4.282   3.079  0.1077  0.3011 -0.3098
 1805SOL    MW4 7295   1.797   4.247   3.107  0.2177  0.3662 -0.5214
 1806SOL     OW 7296   2.013   4.368   3.041  0.1808  0.2470 -0.2638
 1806SOL    HW2 7297   2.013   4.456   3.079  4.0853  0.9431 -1.6798
 1806SOL    HW3 7298   2.007   4.383   2.946  0.8408 -0.9798 -0.5064
 1806SOL    MW4 7299   2.012   4.382   3.033  0.7830  0.1769 -0.4826
 1807SOL     OW 7300   2.519   4.632   3.131 -0.2201  0.6257 -0.0080
 1807SOL    HW2 7301   2.511   4.541   3.104 -0.9753  0.4612  0.7778
 1807SOL    HW3 7302   2.432   4.669   3.118  0.2194  1.3791 -0.8404
 1807SOL    MW4 7303   2.507   4.625   3.126 -0.2618  0.7038 -0.0143
 1808SOL     OW 7304   2.282   0.106   3.002 -0.3060 -0.0045 -0.5587
 1808SOL    HW2 7305   2.278   0.201   3.016  0.6004 -0.1981  1.1480
 1808SOL    HW3 7306   2.200   0.073   3.038 -0.5162  0.0921 -0.9402
 1808SOL    MW4 7307   2.271   0.114   3.008 -0.2139 -0.0173 -0.3836
 1809SOL     OW 7308   2.240   0.360   3.094 -0.5125 -0.3913 -0.4289
 1809SOL    HW2 7309   2.245   0.340   3.187 -0.3484 -0.3004 -0.4181
 1809SOL    HW3 7310   2.155   0.402   3.083  0.3299  1.5099  0.0538
 1809SOL    MW4 7311   2.230   0.363   3.105 -0.3798 -0.1285 -0.3638
 1810SOL     OW 7312   2.466   0.492   3.022  0.1563  0.9825 -0.4001
 1810SOL    HW2 7313   2.385   0.451   3.053  0.6034  0.2172 -0.2416
 1810SOL    HW3 7314   2.461   0.489   2.927 -0.0048  0.9503 -0.3900
 1810SOL    MW4 7315   2.455   0.486   3.014  0.1943  0.8772 -0.3781
 1811SOL     OW 7316   2.453   0.761   3.116 -0.3421  0.0345  0.0046
 1811SOL    HW2 7317   2.541   0.784   3.086 -0.1525  0.7269  1.0428
 1811SOL    HW3 7318   2.439   0.672   3.083  0.7597 -0.0914 -0.1587
 1811SOL    MW4 7319   2.463   0.752   3.108 -0.1717  0.1093  0.1202
 1812SOL     OW 7320   2.224   0.907   3.017 -0.2378 -0.5708 -0.2146
 1812SOL    HW2 7321   2.305   0.873   3.055 -0.0517  0.2346  0.1186
 1812SOL    HW3 7322   2.155   0.852   3.055  0.1515 -1.2870 -0.5318
 1812SOL    MW4 7323   2.225   0.895   3.027 -0.1616 -0.5590 -0.2127
 1813SOL     OW 7324   2.235   1.157   3.140 -0.5667 -0.7427  0.3869
 1813SOL    HW2 7325   2.238   1.143   3.234  0.7040 -1.4157  0.2543
 1813SOL    HW3 7326   2.214   1.072   3.103 -0.6979 -0.5620  0.0396
 1813SOL    MW4 7327   2.233   1.144   3.147 -0.4165 -0.8076  0.3235
 1814SOL     OW 7328   2.472   1.276   3.020  0.6927 -0.1447 -0.2235
 1814SOL    HW2 7329   2.388   1.252   3.058  1.3268 -0.0005  1.3221
 1814SOL    HW3 7330   2.460   1.268   2.925 -0.7239 -1.1688  0.0441
 1814SOL    MW4 7331   2.460   1.272   3.012  0.5894 -0.2607  0.0155
 1815SOL     OW 7332   2.452   1.548   3.117 -0.2999  0.4695  0.2072
 1815SOL    HW2 7333   2.367   1.574   3.080 -0.2770  0.4443  0.1377
 1815SOL    HW3 7334   2.455   1.453   3.104 -0.5916  0.3677  0.8951
 1815SOL    MW4 7335   2.441   1.539   3.110 -0.3355  0.4526  0.2887
 1816SOL     OW 7336   2.219   1.663   3.002 -0.0216 -0.2647 -0.3524
 1816SOL    HW2 7337   2.140   1.628   3.042 -0.9012  2.1093  0.0619
 1816SOL    HW3 7338   2.198   1.667   2.908 -0.5776  0.7631 -0.1946
 1816SOL    MW4 7339   2.206   1.659   2.995 -0.2108  0.1841 -0.2766
 1817SOL     OW 7340   2.215   1.928   3.118 -0.5004  0.1024 -0.3098
 1817SOL    HW2 7341   2.291   1.978   3.086 -1.9755  2.2534 -0.5768
 1817SOL    HW3 7342   2.221   1.844   3.073  1.1093  0.6514 -1.1762
 1817SOL    MW4 7343   2.226   1.924   3.108 -0.4826  0.4587 -0.4594
 1818SOL     OW 7344   2.456   2.046   3.010 -0.1150  0.1330 -0.5410
 1818SOL    HW2 7345   2.530   2.007   3.057  0.9665  2.3862 -0.3104
 1818SOL    HW3 7346   2.459   2.008   2.923  1.9283  0.9353 -0.8378
 1818SOL    MW4 7347   2.466   2.036   3.005  0.2973  0.5362 -0.5496
 1819SOL     OW 7348   2.437   2.293   3.144  0.0113  0.5823  0.5669
 1819SOL    HW2 7349   2.426   2.280   3.238  0.1807  1.3538  0.6974
 1819SOL    HW3 7350   2.445   2.205   3.108  0.6748  0.3209  1.3636
 1819SOL    MW4 7351   2.436   2.280   3.151  0.1214  0.6497  0.6893
 1820SOL     OW 7352   2.241   2.417   3.014  0.5477 -0.7670  0.2773
 1820SOL    HW2 7353   2.233   2.504   3.055  0.3447 -0.6424 -0.0258
 1820SOL    HW3 7354   2.319   2.379   3.055 -0.0227 -0.9081  1.2541
 1820SOL    MW4 7355   2.250   2.424   3.025  0.4458 -0.7691  0.3662
 1821SOL     OW 7356   2.193   2.678   3.101  0.0460 -0.4147  0.7248
 1821SOL    HW2 7357   2.267   2.739   3.097  1.1483 -1.7996 -0.6218
 1821SOL    HW3 7358   2.123   2.722   3.052  0.5780  0.1013  0.4131
 1821SOL    MW4 7359   2.194   2.692   3.094  0.2615 -0.5293  0.5059
 1822SOL     OW 7360   2.424   2.813   3.036 -0.4580  0.1313  0.4932
 1822SOL    HW2 7361   2.442   2.905   3.051  3.2484 -0.1491 -1.6302
 1822SOL    HW3 7362   2.408   2.806   2.942 -1.5924 -1.2621  0.7665
 1822SOL    MW4 7363   2.424   2.824   3.026 -0.1187 -0.0896  0.2491
 1823SOL     OW 7364   2.479   3.096   3.114 -0.3940  0.1549  0.1538
 1823SOL    HW2 7365   2.562   3.124   3.076 -0.0897  0.0905  0.7692
 1823SOL    HW3 7366   2.414   3.158   3.080 -0.0752  0.2670 -0.2418
 1823SOL    MW4 7367   2.481   3.108   3.105 -0.3114  0.1614  0.1829
 1824SOL     OW 7368   2.262   3.248   3.029  0.3472  0.2513 -0.2901
 1824SOL    HW2 7369   2.251   3.324   3.086  0.5786  0.3897 -0.4289
 1824SOL    HW3 7370   2.196   3.186   3.059  1.2144 -0.1244  0.8589
 1824SOL    MW4 7371   2.252   3.250   3.041  0.4923  0.2201 -0.1569
 1825SOL     OW 7372   2.246   3.495   3.136 -0.1329 -0.0428 -0.3949
 1825SOL    HW2 7373   2.318   3.534   3.086 -1.2637  0.6322 -1.5130
 1825SOL    HW3 7374   2.167   3.533   3.098 -1.1287 -1.4803  0.2124
 1825SOL    MW4 7375   2.245   3.505   3.125 -0.4134 -0.1438 -0.4623
 1826SOL     OW 7376   2.469   3.586   2.972  0.1745 -0.0527 -0.0135
 1826SOL    HW2 7377   2.532   3.533   3.022 -0.1166 -0.0578  0.3518
 1826SOL    HW3 7378   2.478   3.674   3.009  0.3175  0.0525 -0.2967
 1826SOL    MW4 7379   2.478   3.591   2.984  0.1550 -0.0396 -0.0024
 1827SOL     OW 7380   2.461   3.842   3.084 -0.2418  0.0826 -0.1578
 1827SOL    HW2 7381   2.448   3.838   3.179 -1.5363  0.9478 -0.2876
 1827SOL    HW3 7382   2.544   3.890   3.073 -0.5285  0.7333  0.5100
 1827SOL    MW4 7383   2.471   3.848   3.095 -0.4501  0.2825 -0.0870
 1828SOL     OW 7384   2.272   4.046   3.017 -0.2118 -0.2152  0.0273
 1828SOL    HW2 7385   2.345   3.987   3.037 -0.9132 -0.8601  0.7086
 1828SOL    HW3 7386   2.194   4.001   3.050 -1.0302  0.0844 -1.4501
 1828SOL    MW4 7387   2.271   4.032   3.024 -0.4125 -0.2608 -0.0777
 1829SOL     OW 7388   2.241   4.276   3.146  0.1044 -0.5709 -0.1523
 1829SOL    HW2 7389   2.255   4.188   3.111 -1.2514 -0.9327  0.2047
 1829SOL    HW3 7390   2.164   4.309   3.100  0.2075  0.1817  0.1974
 1829SOL    MW4 7391   2.233   4.269   3.135 -0.0608 -0.5193 -0.0589
 1830SOL     OW 7392   2.464   4.372   3.030 -0.0311  0.4191 -0.2213
 1830SOL    HW2 7393   2.387   4.341   3.076 -0.3962  1.8233  0.1420
 1830SOL    HW3 7394   2.446   4.353   2.937 -0.1880 -0.5349  0.0027
 1830SOL    MW4 7395   2.451   4.365   3.024 -0.0999  0.4783 -0.1440
 1831SOL     OW 7396   2.919   4.628   3.074 -0.2032  0.2865  0.0532
 1831SOL    HW2 7397   2.999   4.672   3.044 -0.7846  0.9196 -0.6164
 1831SOL    HW3 7398   2.931   4.537   3.048  0.0819  0.4800 -0.5208
 1831SOL    MW4 7399   2.931   4.622   3.067 -0.2422  0.3953 -0.1109
 1832SOL     OW 7400   2.697   0.100   2.975  0.1269 -0.0022 -0.1871
 1832SOL    HW2 7401   2.779   0.060   3.005 -0.1094 -0.1805  0.2199
 1832SOL    HW3 7402   2.628   0.048   3.016 -0.2102 -0.4525 -1.2925
 1832SOL    MW4 7403   2.699   0.088   2.984  0.0510 -0.0851 -0.2794
 1833SOL     OW 7404   2.695   0.334   3.133 -0.5263 -0.2714  0.4954
 1833SOL    HW2 7405   2.690   0.249   3.091 -2.1074 -0.6905  1.4701
 1833SOL    HW3 7406   2.623   0.384   3.095  0.5511  0.7382 -0.2655
 1833SOL    MW4 7407   2.685   0.330   3.123 -0.5929 -0.1935  0.5238
 1834SOL     OW 7408   2.923   0.467   3.036 -0.2688  0.0625  0.1068
 1834SOL    HW2 7409   2.859   0.404   3.068  0.4445 -0.6888  0.0746
 1834SOL    HW3 7410   2.909   0.469   2.941  1.0651 -1.5864 -0.1420
 1834SOL    MW4 7411   2.913   0.459   3.028  0.0012 -0.2542  0.0696
 1835SOL     OW 7412   2.900   0.721   3.136 -0.1690  0.2571  0.2284
 1835SOL    HW2 7413   2.895   0.715   3.231 -1.3575  0.5347  0.2001
 1835SOL    HW3 7414   2.906   0.630   3.106  0.1697  0.1690  0.5643
 1835SOL    MW4 7415   2.900   0.708   3.145 -0.2811  0.2820  0.2692
 1836SOL     OW 7416   2.684   0.842   3.004 -0.5371 -0.0931 -0.0422
 1836SOL    HW2 7417   2.691   0.932   3.037 -0.4378 -0.9447  2.2910
 1836SOL    HW3 7418   2.756   0.795   3.046 -1.0916 -1.4773 -0.6147
 1836SOL    MW4 7419   2.695   0.848   3.014 -0.5972 -0.3880  0.1900
 1837SOL     OW 7420   2.676   1.116   3.079 -0.0868 -0.7417  0.3669
 1837SOL    HW2 7421   2.749   1.176   3.064 -0.2183 -0.2549  1.6978
 1837SOL    HW3 7422   2.598   1.167   3.059 -0.0813 -1.2792 -1.1098
 1837SOL    MW4 7423   2.676   1.130   3.074 -0.1037 -0.7484  0.3476
 1838SOL     OW 7424   2.896   1.294   2.997 -0.0333  0.1234  0.1819
 1838SOL    HW2 7425   2.964   1.237   3.033  0.1037 -0.3359 -0.7889
 1838SOL    HW3 7426   2.913   1.379   3.036  0.7775 -0.1158  0.3558
 1838SOL    MW4 7427   2.907   1.297   3.007  0.0916  0.0312  0.0765
 1839SOL     OW 7428   2.900   1.554   3.092 -0.0908  0.3211  0.2948
 1839SOL    HW2 7429   2.909   1.548   3.187  0.0494  0.5802  0.2981
 1839SOL    HW3 7430   2.976   1.605   3.063 -1.2563  2.0568  0.2664
 1839SOL    MW4 7431   2.911   1.560   3.100 -0.2260  0.5844  0.2916
 1840SOL     OW 7432   2.683   1.687   2.999  0.1423 -0.3451 -0.1077
 1840SOL    HW2 7433   2.760   1.641   3.032  0.3618  0.2154  0.1708
 1840SOL    HW3 7434   2.609   1.640   3.036  0.3421 -1.0751 -0.6247
 1840SOL    MW4 7435   2.683   1.675   3.008  0.1976 -0.3675 -0.1390
 1841SOL     OW 7436   2.666   1.929   3.149 -0.5405  0.2839 -0.1527
 1841SOL    HW2 7437   2.744   1.972   3.114 -0.7533  0.8697  0.0935
 1841SOL    HW3 7438   2.675   1.838   3.120  1.6876 -0.3477  2.2927
 1841SOL    MW4 7439   2.678   1.923   3.140 -0.2747  0.2779  0.2027
 1842SOL     OW 7440   2.889   2.055   3.060 -0.0275 -0.5361 -0.4913
 1842SOL    HW2 7441   2.889   2.149   3.081  0.6202 -0.7421  0.4833
 1842SOL    HW3 7442   2.889   2.052   2.965 -0.1937  0.4595 -0.5310
 1842SOL    MW4 7443   2.889   2.067   3.050  0.0358 -0.4320 -0.3676
 1843SOL     OW 7444   2.901   2.323   3.135  0.1767  0.5763  0.4538
 1843SOL    HW2 7445   2.978   2.365   3.097  0.0899  0.6532  0.3615
 1843SOL    HW3 7446   2.827   2.366   3.092  0.0800  0.6003  0.6426
 1843SOL    MW4 7447   2.901   2.334   3.124  0.1523  0.5898  0.4666
 1844SOL     OW 7448   2.683   2.442   3.011 -0.0498 -0.0427 -0.4600
 1844SOL    HW2 7449   2.693   2.528   3.053  0.7653 -0.6763  0.6784
 1844SOL    HW3 7450   2.595   2.413   3.036 -0.1228  0.2331 -0.3983
 1844SOL    MW4 7451   2.673   2.449   3.020  0.0482 -0.0904 -0.3016
 1845SOL     OW 7452   2.667   2.693   3.099  0.6183  0.1394 -0.2532
 1845SOL    HW2 7453   2.654   2.675   3.193  1.2368 -1.9075 -0.5220
 1845SOL    HW3 7454   2.581   2.720   3.068 -0.1550 -1.4374  0.4420
 1845SOL    MW4 7455   2.654   2.694   3.108  0.5980 -0.3388 -0.1969
 1846SOL     OW 7456   2.897   2.845   2.995 -0.2216 -0.5343 -0.3456
 1846SOL    HW2 7457   2.954   2.774   3.023 -0.3761  0.1129  1.6883
 1846SOL    HW3 7458   2.810   2.820   3.027 -0.2163  0.7196  0.7085
 1846SOL    MW4 7459   2.893   2.832   3.003 -0.2413 -0.2835  0.0622
 1847SOL     OW 7460   2.948   3.070   3.148  0.5740 -0.1864  0.2928
 1847SOL    HW2 7461   2.878   3.116   3.103  0.5856  1.0401  1.4886
 1847SOL    HW3 7462   2.940   2.980   3.118  0.5075  0.5588 -2.0325
 1847SOL    MW4 7463   2.937   3.064   3.138  0.5667  0.0739  0.1438
 1848SOL     OW 7464   2.719   3.172   3.006 -0.3753 -0.1546 -0.2635
 1848SOL    HW2 7465   2.715   3.265   3.029  1.4465 -0.4119  1.1949
 1848SOL    HW3 7466   2.732   3.171   2.911  2.0241  1.1458  0.0221
 1848SOL    MW4 7467   2.720   3.184   2.997  0.1817 -0.0172 -0.0334
 1849SOL     OW 7468   2.662   3.427   3.098 -0.0896 -0.6237  0.1979
 1849SOL    HW2 7469   2.657   3.407   3.191 -0.8818  0.1010  0.3130
 1849SOL    HW3 7470   2.733   3.490   3.090 -2.0201  1.7069  0.7441
 1849SOL    MW4 7471   2.671   3.433   3.109 -0.4489 -0.2208  0.2849
 1850SOL     OW 7472   2.898   3.562   3.036 -0.2645 -0.4368 -0.1712
 1850SOL    HW2 7473   2.967   3.526   3.092 -0.3844 -0.2694  0.0871
 1850SOL    HW3 7474   2.888   3.653   3.066  0.3166 -0.0677 -1.0920
 1850SOL    MW4 7475   2.906   3.569   3.048 -0.2038 -0.3662 -0.2587
 1851SOL     OW 7476   2.897   3.825   3.115  0.1760 -0.5565 -0.3650
 1851SOL    HW2 7477   2.900   3.834   3.210  1.8659 -1.3993 -0.3184
 1851SOL    HW3 7478   2.821   3.877   3.089 -0.5980 -0.7006  1.4776
 1851SOL    MW4 7479   2.887   3.833   3.124  0.2971 -0.6866 -0.1156
 1852SOL     OW 7480   2.683   4.010   3.052  0.2859  0.4163 -0.1556
 1852SOL    HW2 7481   2.683   4.100   3.084 -0.5049  0.7222 -0.9851
 1852SOL    HW3 7482   2.685   4.019   2.956 -0.4307 -0.4355 -0.2593
 1852SOL    MW4 7483   2.683   4.023   3.043  0.0873  0.3443 -0.2787
 1853SOL     OW 7484   2.716   4.292   3.119 -0.4737  0.5263 -0.0607
 1853SOL    HW2 7485   2.716   4.309   3.213  1.2433 -3.0927  0.7059
 1853SOL    HW3 7486   2.639   4.338   3.086 -1.7287  0.9813  3.3140
 1853SOL    MW4 7487   2.706   4.300   3.127 -0.4129  0.1092  0.4857
 1854SOL     OW 7488   2.959   4.367   3.011 -0.8173 -0.0152 -0.2409
 1854SOL    HW2 7489   3.032   4.326   3.058 -1.2535 -1.7587 -1.0491
 1854SOL    HW3 7490   2.881   4.325   3.046 -1.3340  0.6328 -0.5916
 1854SOL    MW4 7491   2.959   4.356   3.022 -0.9429 -0.1597 -0.3936
 1855SOL     OW 7492   3.332   4.641   3.134  0.3579 -0.2354 -0.0494
 1855SOL    HW2 7493   3.415   4.682   3.108  0.7286 -0.3068  1.0144
 1855SOL    HW3 7494   3.342   4.549   3.108 -0.5532  0.3551 -2.6273
 1855SOL    MW4 7495   3.345   4.634   3.127  0.2866 -0.1664 -0.2491
 1856SOL     OW 7496   3.149   0.120   3.007 -0.6054 -0.1142  0.0833
 1856SOL    HW2 7497   3.154   0.208   3.044 -0.6485 -0.3259  0.5963
 1856SOL    HW3 7498   3.224   0.074   3.044 -0.5738 -0.2886 -0.1944
 1856SOL    MW4 7499   3.160   0.125   3.017 -0.6065 -0.1651  0.1144
 1857SOL     OW 7500   3.177   0.348   3.130  0.0163 -0.1350  0.2681
 1857SOL    HW2 7501   3.251   0.395   3.091 -0.1339 -0.3777 -0.3051
 1857SOL    HW3 7502   3.100   0.391   3.095 -0.1234  0.2624  1.0432
 1857SOL    MW4 7503   3.177   0.360   3.121 -0.0219 -0.1146  0.2949
 1858SOL     OW 7504   3.372   0.475   2.969  0.2168 -0.1559 -0.2560
 1858SOL    HW2 7505   3.457   0.444   3.000  1.0860  1.0733 -1.3497
 1858SOL    HW3 7506   3.389   0.506   2.879 -1.4906 -0.3995 -0.6747
 1858SOL    MW4 7507   3.386   0.475   2.961  0.1063 -0.0258 -0.4556
 1859SOL     OW 7508   3.365   0.732   3.088  0.1777  0.1561  0.1545
 1859SOL    HW2 7509   3.366   0.712   3.182 -0.5738  1.5696  0.4697
 1859SOL    HW3 7510   3.361   0.646   3.046  0.8904 -0.5094  1.4034
 1859SOL    MW4 7511   3.365   0.718   3.095  0.1726  0.2548  0.3610
 1860SOL     OW 7512   3.127   0.844   3.002 -0.7309 -0.1037 -0.3280
 1860SOL    HW2 7513   3.208   0.816   3.044 -1.1817 -0.1709  0.5212
 1860SOL    HW3 7514   3.058   0.802   3.053 -1.2716 -1.0203 -1.7795
 1860SOL    MW4 7515   3.128   0.835   3.014 -0.8614 -0.2335 -0.4077
 1861SOL     OW 7516   3.104   1.118   3.077  0.0078  0.2578 -0.2675
 1861SOL    HW2 7517   3.183   1.169   3.058 -0.3768  0.4289 -1.4134
 1861SOL    HW3 7518   3.121   1.032   3.038  0.2956 -0.2300  0.9102
 1861SOL    MW4 7519   3.116   1.114   3.070 -0.0050  0.2160 -0.2630
 1862SOL     OW 7520   3.335   1.271   3.029 -0.6062  0.2493  0.3694
 1862SOL    HW2 7521   3.408   1.227   3.073  2.3716  0.6082 -3.9758
 1862SOL    HW3 7522   3.343   1.363   3.057 -0.6657 -0.0653  1.4659
 1862SOL    MW4 7523   3.345   1.278   3.039 -0.2210  0.2553 -0.0591
 1863SOL     OW 7524   3.355   1.526   3.123  0.2332  0.2086  0.6476
 1863SOL    HW2 7525   3.350   1.521   3.219  2.6739 -1.7348  0.7274
 1863SOL    HW3 7526   3.422   1.592   3.106  1.1028 -0.7473  0.3255
 1863SOL    MW4 7527   3.363   1.534   3.134  0.6702 -0.1739  0.6158
 1864SOL     OW 7528   3.139   1.681   3.014 -0.2859 -0.0679 -0.3200
 1864SOL    HW2 7529   3.206   1.620   3.046  0.5076  1.0839  0.2382
 1864SOL    HW3 7530   3.144   1.673   2.918  0.1725 -0.4978 -0.2630
 1864SOL    MW4 7531   3.149   1.672   3.005 -0.1204  0.0274 -0.2387
 1865SOL     OW 7532   3.118   1.936   3.172  0.2403  0.1231 -0.4230
 1865SOL    HW2 7533   3.126   1.857   3.118  0.9640  0.0629 -0.2350
 1865SOL    HW3 7534   3.035   1.975   3.146  0.2237 -0.3187 -1.0299
 1865SOL    MW4 7535   3.108   1.931   3.162  0.3338  0.0570 -0.4783
 1866SOL     OW 7536   3.349   2.014   3.023  0.0010 -0.1864 -0.6530
 1866SOL    HW2 7537   3.431   1.980   3.059 -0.2323 -0.2126 -0.1541
 1866SOL    HW3 7538   3.280   1.972   3.074 -0.3078  0.3311 -0.6377
 1866SOL    MW4 7539   3.351   2.004   3.034 -0.0703 -0.1216 -0.5851
 1867SOL     OW 7540   3.338   2.304   3.079  0.2539  0.3292  0.2034
 1867SOL    HW2 7541   3.338   2.306   3.175 -0.0918 -1.1454  0.2461
 1867SOL    HW3 7542   3.351   2.212   3.057  2.4867  0.9482 -1.1887
 1867SOL    MW4 7543   3.339   2.292   3.089  0.5031  0.2162  0.0255
 1868SOL     OW 7544   3.135   2.462   2.982 -0.0392  0.1792 -0.0787
 1868SOL    HW2 7545   3.205   2.406   3.016 -1.0132 -0.2620  1.2284
 1868SOL    HW3 7546   3.126   2.436   2.890  0.1460 -1.1522  0.2728
 1868SOL    MW4 7547   3.143   2.451   2.974 -0.1433 -0.0544  0.1402
 1869SOL     OW 7548   3.129   2.711   3.077  0.0797  0.5089 -0.2669
 1869SOL    HW2 7549   3.137   2.700   3.172  0.4955 -1.6578 -0.5284
 1869SOL    HW3 7550   3.144   2.624   3.041 -0.7762  1.1586 -2.2936
 1869SOL    MW4 7551   3.132   2.698   3.085  0.0215  0.3088 -0.5689
 1870SOL     OW 7552   3.368   2.835   3.003 -0.2276  0.0740 -0.1116
 1870SOL    HW2 7553   3.372   2.914   3.058  0.1502 -1.0717  1.5666
 1870SOL    HW3 7554   3.291   2.788   3.035 -1.0050  0.2220 -1.7537
 1870SOL    MW4 7555   3.359   2.840   3.015 -0.2804 -0.0575 -0.1066
 1871SOL     OW 7556   3.380   3.074   3.152 -0.4234 -0.1630  0.3552
 1871SOL    HW2 7557   3.357   3.083   3.245 -0.6525 -0.1580  0.2998
 1871SOL    HW3 7558   3.316   3.130   3.107 -0.0193  0.2041  0.2309
 1871SOL    MW4 7559   3.368   3.083   3.158 -0.4005 -0.1137  0.3316
 1872SOL     OW 7560   3.166   3.210   3.043 -0.3536  0.3358 -0.3639
 1872SOL    HW2 7561   3.105   3.156   3.093  0.7563 -0.0955  0.5453
 1872SOL    HW3 7562   3.146   3.190   2.952 -0.3305 -1.1875 -0.0493
 1872SOL    MW4 7563   3.155   3.200   3.038 -0.2041  0.0777 -0.2024
 1873SOL     OW 7564   3.153   3.474   3.138  0.5498  0.0615  0.1010
 1873SOL    HW2 7565   3.232   3.516   3.103  0.7445 -0.3571  0.0390
 1873SOL    HW3 7566   3.153   3.387   3.099 -0.0733  0.1465 -0.0914
 1873SOL    MW4 7567   3.164   3.468   3.128  0.4935  0.0172  0.0675
 1874SOL     OW 7568   3.404   3.626   3.032 -0.0145 -0.1549  0.8120
 1874SOL    HW2 7569   3.486   3.587   3.063  1.0662  0.4194 -1.2292
 1874SOL    HW3 7570   3.420   3.721   3.035 -0.1195 -0.0691 -0.7924
 1874SOL    MW4 7571   3.417   3.634   3.036  0.1140 -0.0682  0.3312
 1875SOL     OW 7572   3.397   3.895   3.117  0.0593  0.4042 -0.4104
 1875SOL    HW2 7573   3.387   3.891   3.213  0.4195  1.3644 -0.3199
 1875SOL    HW3 7574   3.310   3.923   3.086 -0.4198 -1.1407 -0.4732
 1875SOL    MW4 7575   3.384   3.898   3.126  0.0436  0.3269 -0.4070
 1876SOL     OW 7576   3.110   3.996   3.053 -0.0294 -0.2165 -0.3577
 1876SOL    HW2 7577   3.044   3.930   3.072 -1.6402  1.2020 -0.9876
 1876SOL    HW3 7578   3.119   3.995   2.958 -0.6951  1.0826 -0.4385
 1876SOL    MW4 7579   3.103   3.987   3.043 -0.3297  0.1423 -0.4518
 1877SOL     OW 7580   3.174   4.239   3.131  0.2525 -0.0155 -0.3473
 1877SOL    HW2 7581   3.158   4.234   3.225  0.3805  1.2672 -0.2363
 1877SOL    HW3 7582   3.155   4.152   3.098 -1.1461 -0.1108  0.6668
 1877SOL    MW4 7583   3.170   4.227   3.139  0.0849  0.1411 -0.1988
 1878SOL     OW 7584   3.379   4.398   3.008  0.6810 -0.2220 -0.4188
 1878SOL    HW2 7585   3.449   4.374   3.070  0.7056  0.6628 -0.1038
 1878SOL    HW3 7586   3.303   4.348   3.039  0.3051  1.3009  1.2023
 1878SOL    MW4 7587   3.379   4.388   3.020  0.6344  0.0954 -0.1633
 1879SOL     OW 7588   3.799   0.024   3.123 -0.0835 -0.2077  0.0218
 1879SOL    HW2 7589   3.802  -0.067   3.093 -1.7497 -0.2559 -0.0439
 1879SOL    HW3 7590   3.721   0.060   3.081  1.2936  1.6290 -0.9986
 1879SOL    MW4 7591   3.789   0.017   3.113 -0.1218  0.0284 -0.1216
 1880SOL     OW 7592   3.548   0.119   3.033  0.0206  0.1710  0.6340
 1880SOL    HW2 7593   3.550   0.214   3.047 -2.6074  0.6268 -1.5431
 1880SOL    HW3 7594   3.566   0.108   2.940 -0.4972 -1.4071  0.7054
 1880SOL    MW4 7595   3.550   0.130   3.023 -0.3943  0.0230  0.3562
 1881SOL     OW 7596   3.617   0.384   3.088 -0.0068 -0.0815 -0.2704
 1881SOL    HW2 7597   3.616   0.377   3.184 -0.3973 -1.1972 -0.3440
 1881SOL    HW3 7598   3.702   0.422   3.068 -0.2591  0.9554  0.5670
 1881SOL    MW4 7599   3.628   0.388   3.098 -0.0918 -0.0919 -0.1698
 1882SOL     OW 7600   3.841   0.531   2.998 -0.2128  0.1368 -0.3985
 1882SOL    HW2 7601   3.932   0.510   3.019 -0.8593 -1.6656  0.7865
 1882SOL    HW3 7602   3.829   0.620   3.030  0.4665 -0.4783  1.7065
 1882SOL    MW4 7603   3.852   0.540   3.005 -0.2084 -0.1822  0.0358
 1883SOL     OW 7604   3.789   0.795   3.115  0.0480  0.4546 -0.0228
 1883SOL    HW2 7605   3.793   0.766   3.206  0.0399 -0.8336 -0.4220
 1883SOL    HW3 7606   3.877   0.828   3.097 -0.2606  1.7668  0.7776
 1883SOL    MW4 7607   3.802   0.795   3.125  0.0062  0.4578  0.0300
 1884SOL     OW 7608   3.567   0.882   2.990 -0.2376  0.2097 -0.3846
 1884SOL    HW2 7609   3.643   0.839   3.030 -0.5374 -0.5791 -0.6396
 1884SOL    HW3 7610   3.493   0.827   3.016 -0.7212  0.9626 -0.1507
 1884SOL    MW4 7611   3.567   0.869   2.999 -0.3409  0.2050 -0.3877
 1885SOL     OW 7612   3.548   1.140   3.128  0.1745 -0.4808 -0.2384
 1885SOL    HW2 7613   3.629   1.182   3.098  0.3123 -0.6291 -0.0762
 1885SOL    HW3 7614   3.556   1.050   3.098  1.0170 -1.0305  1.5804
 1885SOL    MW4 7615   3.560   1.134   3.120  0.3037 -0.5728  0.0229
 1886SOL     OW 7616   3.773   1.248   3.016  0.1964  0.2033  0.0003
 1886SOL    HW2 7617   3.781   1.339   3.043 -0.3147 -0.0453  1.0244
 1886SOL    HW3 7618   3.762   1.252   2.921  0.6070  1.1763 -0.0124
 1886SOL    MW4 7619   3.773   1.260   3.007  0.1833  0.2989  0.1335
 1887SOL     OW 7620   3.800   1.513   3.073  0.2392  0.4640  0.1624
 1887SOL    HW2 7621   3.869   1.569   3.037  0.4192  0.6581  0.8042
 1887SOL    HW3 7622   3.808   1.524   3.168 -0.5548  0.3322  0.2408
 1887SOL    MW4 7623   3.810   1.521   3.081  0.1581  0.4722  0.2575
 1888SOL     OW 7624   3.562   1.657   2.979  0.4429 -0.5907  0.0225
 1888SOL    HW2 7625   3.604   1.732   3.020 -0.6650  1.3786 -2.3141
 1888SOL    HW3 7626   3.628   1.588   2.980  2.1039  0.9931  0.6046
 1888SOL    MW4 7627   3.576   1.658   2.984  0.5157 -0.1220 -0.2091
 1889SOL     OW 7628   3.597   1.908   3.112  0.0459  0.1578  0.0451
 1889SOL    HW2 7629   3.615   1.892   3.204  1.0189 -4.0108 -0.7234
 1889SOL    HW3 7630   3.667   1.967   3.083  0.4195  0.5379  1.7090
 1889SOL    MW4 7631   3.609   1.913   3.120  0.2232 -0.3422  0.1633
 1890SOL     OW 7632   3.804   2.062   3.009  0.3306  0.0141  0.3531
 1890SOL    HW2 7633   3.816   2.151   3.041  0.7639  0.5720 -1.2885
 1890SOL    HW3 7634   3.830   2.066   2.917 -1.3016 -1.4194 -0.1991
 1890SOL    MW4 7635   3.809   2.074   3.001  0.1726 -0.1013  0.0634
 1891SOL     OW 7636   3.825   2.328   3.077  0.1408  0.1383 -0.0812
 1891SOL    HW2 7637   3.825   2.323   3.173 -1.0231 -0.4542 -0.0999
 1891SOL    HW3 7638   3.733   2.344   3.054  0.0696 -1.6533 -1.1723
 1891SOL    MW4 7639   3.813   2.329   3.087 -0.0219 -0.1762 -0.2277
 1892SOL     OW 7640   3.583   2.402   3.008 -0.7452  0.0424 -0.3437
 1892SOL    HW2 7641   3.579   2.497   3.022  0.5373 -0.2298  2.1528
 1892SOL    HW3 7642   3.494   2.371   3.026 -0.9662  0.6845 -0.3268
 1892SOL    MW4 7643   3.571   2.411   3.012 -0.6051  0.0911 -0.0122
 1893SOL     OW 7644   3.573   2.667   3.089 -0.3946 -0.4583  0.8010
 1893SOL    HW2 7645   3.646   2.722   3.063  0.5781 -1.4529  1.3826
 1893SOL    HW3 7646   3.496   2.722   3.075  0.3954  0.3621 -0.4681
 1893SOL    MW4 7647   3.572   2.682   3.084 -0.1621 -0.4814  0.7102
 1894SOL     OW 7648   3.792   2.846   3.043  0.4665  0.2432 -0.0838
 1894SOL    HW2 7649   3.813   2.933   3.076  0.4795 -0.2763  1.3368
 1894SOL    HW3 7650   3.783   2.857   2.948 -1.2941  2.1435  0.2697
 1894SOL    MW4 7651   3.794   2.859   3.035  0.2360  0.4253  0.1500
 1895SOL     OW 7652   3.844   3.105   3.109 -0.1393 -0.2940 -0.1867
 1895SOL    HW2 7653   3.915   3.162   3.080  0.0258  0.0493  0.8713
 1895SOL    HW3 7654   3.765   3.146   3.074  0.1081 -0.2294 -0.6774
 1895SOL    MW4 7655   3.843   3.118   3.101 -0.0849 -0.2401 -0.1116
 1896SOL     OW 7656   3.609   3.220   3.004 -0.1254  0.1120  0.5194
 1896SOL    HW2 7657   3.528   3.172   3.019 -0.2750  0.0795 -0.3790
 1896SOL    HW3 7658   3.613   3.232   2.909 -0.1806  2.0302  0.7306
 1896SOL    MW4 7659   3.599   3.216   2.993 -0.1521  0.3610  0.4287
 1897SOL     OW 7660   3.624   3.498   3.144 -0.2331 -0.1373  0.1878
 1897SOL    HW2 7661   3.673   3.559   3.090 -2.1535  1.7300  0.4913
 1897SOL    HW3 7662   3.636   3.413   3.101  1.7230  0.5806 -0.7372
 1897SOL    MW4 7663   3.632   3.495   3.131 -0.2284  0.2038  0.1059
 1898SOL     OW 7664   3.804   3.665   3.002 -0.1113  0.0460  0.1175
 1898SOL    HW2 7665   3.814   3.749   3.048  1.6001  0.3317 -0.7413
 1898SOL    HW3 7666   3.788   3.689   2.911 -0.2790 -0.5638 -0.0158
 1898SOL    MW4 7667   3.803   3.680   2.996  0.0923  0.0033 -0.0131
 1899SOL     OW 7668   3.800   3.909   3.120 -0.1168 -0.3663 -0.0706
 1899SOL    HW2 7669   3.798   3.895   3.214 -0.4065 -1.7492 -0.2731
 1899SOL    HW3 7670   3.728   3.969   3.103  0.8715  1.0722  0.7717
 1899SOL    MW4 7671   3.791   3.915   3.130 -0.0243 -0.3591  0.0141
 1900SOL     OW 7672   3.593   4.069   3.024  0.0670 -0.2029  0.5056
 1900SOL    HW2 7673   3.533   4.002   3.054  0.8623 -1.0470  0.2464
 1900SOL    HW3 7674   3.606   4.051   2.931  0.1794  0.3864  0.4011
 1900SOL    MW4 7675   3.587   4.058   3.016  0.1869 -0.2370  0.4578
 1901SOL     OW 7676   3.600   4.318   3.146 -0.4924  0.2318  0.0432
 1901SOL    HW2 7677   3.680   4.360   3.115 -0.0525  0.3723  1.3653
 1901SOL    HW3 7678   3.598   4.234   3.101 -1.0437  1.3586 -2.1223
 1901SOL    MW4 7679   3.610   4.313   3.136 -0.5071  0.3986 -0.0684
 1902SOL     OW 7680   3.831   4.421   3.028  0.4157  0.3636 -0.2230
 1902SOL    HW2 7681   3.898   4.363   3.064 -0.2155 -0.6994 -0.7314
 1902SOL    HW3 7682   3.819   4.390   2.938 -2.4917 -1.0610  0.5902
 1902SOL    MW4 7683   3.838   4.409   3.021 -0.0513  0.0353 -0.1826
 1903SOL     OW 7684   4.248   4.634   3.098 -0.0163  0.1122 -0.5160
 1903SOL    HW2 7685   4.236   4.658   3.190 -1.1429  0.8925 -0.8568
 1903SOL    HW3 7686   4.257   4.538   3.099 -1.7660 -0.0582  0.2360
 1903SOL    MW4 7687   4.248   4.624   3.111 -0.3963  0.1931 -0.4616
 1904SOL     OW 7688   4.035   0.118   3.000 -0.0842 -0.1677 -0.3511
 1904SOL    HW2 7689   4.103   0.055   3.027  0.1668 -0.1565 -0.9492
 1904SOL    HW3 7690   3.959   0.095   3.054  0.2027 -0.5836 -0.1168
 1904SOL    MW4 7691   4.034   0.106   3.011 -0.0129 -0.2211 -0.3989
 1905SOL     OW 7692   4.061   0.389   3.105  0.1108 -0.2218 -0.1531
 1905SOL    HW2 7693   4.137   0.422   3.057  0.4086 -0.1777  0.3449
 1905SOL    HW3 7694   4.040   0.306   3.063  1.3851 -0.9929  0.6771
 1905SOL    MW4 7695   4.068   0.383   3.093  0.3181 -0.3177  0.0222
 1906SOL     OW 7696   4.304   0.491   3.007  0.2076  0.6062 -0.1378
 1906SOL    HW2 7697   4.297   0.572   3.058  0.0127  0.8112 -0.4947
 1906SOL    HW3 7698   4.308   0.520   2.916 -2.0068  0.1366 -0.4200
 1906SOL    MW4 7699   4.304   0.506   3.002 -0.1101  0.5713 -0.2220
 1907SOL     OW 7700   4.283   0.751   3.116 -0.0385  0.0249  0.1760
 1907SOL    HW2 7701   4.208   0.781   3.064 -0.8649 -0.1864  1.2074
 1907SOL    HW3 7702   4.352   0.814   3.098 -0.4973  0.2790 -0.7283
 1907SOL    MW4 7703   4.282   0.763   3.107 -0.2079  0.0306  0.1924
 1908SOL     OW 7704   4.049   0.879   3.015 -0.5045  0.1866  0.3223
 1908SOL    HW2 7705   4.062   0.960   3.063 -0.6437  0.7333 -0.5491
 1908SOL    HW3 7706   4.028   0.907   2.926 -0.3855 -0.8080 -0.0248
 1908SOL    MW4 7707   4.048   0.893   3.010 -0.5078  0.1275  0.1616
 1909SOL     OW 7708   4.043   1.146   3.131  0.0585 -0.0219  0.6318
 1909SOL    HW2 7709   4.061   1.166   3.222 -0.2226  1.7148  0.3165
 1909SOL    HW3 7710   3.955   1.177   3.115  0.0786 -0.3662 -0.2255
 1909SOL    MW4 7711   4.034   1.152   3.141  0.0243  0.1619  0.4771
 1910SOL     OW 7712   4.238   1.280   2.990  0.1277 -0.0159  0.5420
 1910SOL    HW2 7713   4.170   1.230   3.035  1.2157 -0.3473  1.8531
 1910SOL    HW3 7714   4.231   1.253   2.898 -1.6042  0.0797  0.6334
 1910SOL    MW4 7715   4.228   1.270   2.984  0.0429 -0.0471  0.7269
 1911SOL     OW 7716   4.263   1.571   3.070  0.0435  0.3282  0.1984
 1911SOL    HW2 7717   4.339   1.620   3.040 -0.9388  2.3524  0.9813
 1911SOL    HW3 7718   4.274   1.484   3.030  2.1609  0.9333 -0.6020
 1911SOL    MW4 7719   4.274   1.566   3.061  0.1931  0.6751  0.1962
 1912SOL     OW 7720   4.016   1.680   3.026 -0.1203 -0.2410  0.0757
 1912SOL    HW2 7721   4.033   1.764   3.069 -0.8759 -0.0394 -0.0164
 1912SOL    HW3 7722   4.092   1.626   3.048  0.0271  0.2304  0.7334
 1912SOL    MW4 7723   4.028   1.684   3.034 -0.2003 -0.1522  0.1504
 1913SOL     OW 7724   4.045   1.939   3.112 -0.0049 -0.0228  0.3443
 1913SOL    HW2 7725   4.127   1.984   3.089  2.0404 -4.3208 -1.2921
 1913SOL    HW3 7726   3.980   1.977   3.053  1.4892  1.1734 -0.5747
 1913SOL    MW4 7727   4.047   1.950   3.101  0.4625 -0.4319  0.0072
 1914SOL     OW 7728   4.259   2.081   3.011 -0.2896 -0.2139  0.0085
 1914SOL    HW2 7729   4.266   2.173   3.037 -1.9222 -0.1075  0.0949
 1914SOL    HW3 7730   4.237   2.084   2.918  0.7661 -0.5421 -0.2591
 1914SOL    MW4 7731   4.257   2.094   3.002 -0.3657 -0.2432 -0.0153
 1915SOL     OW 7732   4.260   2.344   3.117  0.2422  0.2572  0.0405
 1915SOL    HW2 7733   4.178   2.392   3.110  0.2403  0.7835  3.1200
 1915SOL    HW3 7734   4.326   2.404   3.082 -0.2837  1.0423  0.3856
 1915SOL    MW4 7735   4.258   2.358   3.111  0.1731  0.4301  0.4923
 1916SOL     OW 7736   4.047   2.476   3.022 -0.1804  0.4762  0.4007
 1916SOL    HW2 7737   4.032   2.565   3.054 -0.2548  0.0893  1.4721
 1916SOL    HW3 7738   3.963   2.432   3.035 -0.4958  0.5601 -1.2095
 1916SOL    MW4 7739   4.034   2.482   3.028 -0.2313  0.4361  0.3297
 1917SOL     OW 7740   4.046   2.744   3.092 -0.8458 -0.6556 -0.2376
 1917SOL    HW2 7741   4.054   2.753   3.187 -0.9834  1.9616 -0.4382
 1917SOL    HW3 7742   3.959   2.778   3.072 -1.1751 -2.0528 -1.2090
 1917SOL    MW4 7743   4.036   2.750   3.102 -0.9074 -0.4947 -0.3922
 1918SOL     OW 7744   4.253   2.906   3.031  0.2902 -0.2091 -0.3143
 1918SOL    HW2 7745   4.185   2.839   3.044  0.3306  0.0630  1.4287
 1918SOL    HW3 7746   4.333   2.865   3.064  0.5824  0.1932 -0.5263
 1918SOL    MW4 7747   4.254   2.892   3.037  0.3343 -0.1204 -0.1123
 1919SOL     OW 7748   4.264   3.143   3.153  0.1201  0.1544 -0.0502
 1919SOL    HW2 7749   4.199   3.201   3.113 -0.5984 -0.5970  0.0220
 1919SOL    HW3 7750   4.250   3.058   3.111  1.6097  0.1717 -0.6437
 1919SOL    MW4 7751   4.254   3.139   3.142  0.2222  0.0577 -0.1192
 1920SOL     OW 7752   4.053   3.275   3.033  0.1463  0.2552  0.1063
 1920SOL    HW2 7753   4.049   3.368   3.052  1.6342  0.4193 -0.3171
 1920SOL    HW3 7754   4.069   3.270   2.939  1.6565 -0.3743  0.3711
 1920SOL    MW4 7755   4.055   3.286   3.023  0.5412  0.1936  0.0854
 1921SOL     OW 7756   4.040   3.543   3.083  0.1110 -0.3821 -0.5075
 1921SOL    HW2 7757   4.046   3.544   3.178  0.5622 -1.0722 -0.5313
 1921SOL    HW3 7758   3.954   3.581   3.065 -0.3637 -1.0908  0.2095
 1921SOL    MW4 7759   4.029   3.548   3.093  0.1078 -0.5667 -0.4160
 1922SOL     OW 7760   4.289   3.624   2.994  0.2738 -0.0348  0.2755
 1922SOL    HW2 7761   4.302   3.706   3.042 -0.0940 -0.0543  0.4097
 1922SOL    HW3 7762   4.200   3.596   3.017 -0.5650  0.8624 -1.7673
 1922SOL    MW4 7763   4.279   3.631   3.003  0.1149  0.0811  0.0236
 1923SOL     OW 7764   4.297   3.882   3.126  0.1234  0.5894 -0.3011
 1923SOL    HW2 7765   4.233   3.930   3.074  0.2413  1.5029  0.3744
 1923SOL    HW3 7766   4.382   3.920   3.101  0.2200  0.7215  0.2112
 1923SOL    MW4 7767   4.300   3.894   3.116  0.1516  0.7274 -0.1445
 1924SOL     OW 7768   4.037   3.990   2.986 -0.3723  0.3375  0.0764
 1924SOL    HW2 7769   4.040   4.079   3.021  0.3502  0.5422 -0.4919
 1924SOL    HW3 7770   3.965   3.948   3.032 -0.4120  1.0772  0.6861
 1924SOL    MW4 7771   4.028   3.996   2.996 -0.2823  0.4623  0.0815
 1925SOL     OW 7772   4.017   4.233   3.108  0.4602  0.6622 -0.0477
 1925SOL    HW2 7773   4.012   4.238   3.204  1.7036 -0.7716  0.1070
 1925SOL    HW3 7774   4.097   4.281   3.086  0.9248 -0.1940 -0.2481
 1925SOL    MW4 7775   4.027   4.240   3.118  0.6862  0.3595 -0.0536
 1926SOL     OW 7776   4.259   4.365   3.048 -0.1524 -0.3416  0.4189
 1926SOL    HW2 7777   4.334   4.331   3.096 -0.3263 -1.1306  0.1503
 1926SOL    HW3 7778   4.287   4.361   2.956 -0.6189 -0.9129  0.2963
 1926SOL    MW4 7779   4.273   4.360   3.042 -0.2370 -0.5207  0.3674
 1927SOL     OW 7780   0.211   0.012   3.431  0.2842 -0.1935 -0.6039
 1927SOL    HW2 7781   0.284   0.053   3.477 -0.3985  0.0405  0.2666
 1927SOL    HW3 7782   0.204  -0.075   3.469 -0.0352 -0.1361 -0.5287
 1927SOL    MW4 7783   0.220   0.006   3.442  0.1520 -0.1550 -0.4792
 1928SOL     OW 7784   4.464   0.100   3.518 -0.1716  0.2318  0.5656
 1928SOL    HW2 7785   4.469   0.195   3.510 -0.4240  0.1586 -0.4789
 1928SOL    HW3 7786   4.550   0.069   3.488  0.1703  0.1678  1.5873
 1928SOL    MW4 7787   4.476   0.108   3.513 -0.1597  0.2137  0.5624
 1929SOL     OW 7788   4.450   0.366   3.424 -0.1394  0.2246 -0.0040
 1929SOL    HW2 7789   4.376   0.414   3.460  0.0450  1.3688 -1.1248
 1929SOL    HW3 7790   4.524   0.425   3.433  0.1992 -0.0533 -0.8926
 1929SOL    MW4 7791   4.450   0.380   3.430 -0.0706  0.3390 -0.2689
 1930SOL     OW 7792   0.192   0.516   3.476 -0.0993  0.6246  0.4442
 1930SOL    HW2 7793   0.277   0.479   3.452 -1.4033 -1.3383 -1.3161
 1930SOL    HW3 7794   0.193   0.604   3.439  0.8928  0.3434 -0.2188
 1930SOL    MW4 7795   0.203   0.523   3.468 -0.1404  0.3285  0.1245
 1931SOL     OW 7796   0.197   0.788   3.393  0.1271  0.1471  0.3573
 1931SOL    HW2 7797   0.279   0.822   3.428 -0.1151 -0.0123  1.0938
 1931SOL    HW3 7798   0.129   0.843   3.431 -0.1614 -0.2087  0.3685
 1931SOL    MW4 7799   0.199   0.800   3.403  0.0571  0.0792  0.4561
 1932SOL     OW 7800   4.465   0.903   3.531 -0.1245  0.0728 -0.0102
 1932SOL    HW2 7801   4.489   0.920   3.622  0.1604 -0.4711  0.0194
 1932SOL    HW3 7802   4.462   0.990   3.491  0.5413  0.2535  0.3224
 1932SOL    MW4 7803   4.468   0.917   3.538  0.0010  0.0248  0.0377
 1933SOL     OW 7804   4.475   1.158   3.398 -0.1114  0.0796  0.1353
 1933SOL    HW2 7805   4.559   1.202   3.412 -0.0917  0.2490 -0.5204
 1933SOL    HW3 7806   4.463   1.159   3.303 -1.4242  1.1323  0.2949
 1933SOL    MW4 7807   4.485   1.164   3.388 -0.2818  0.2409  0.0696
 1934SOL     OW 7808   0.255   1.281   3.444  0.3749  0.3933 -0.1513
 1934SOL    HW2 7809   0.346   1.252   3.445  0.1319 -0.3973 -0.3342
 1934SOL    HW3 7810   0.253   1.354   3.382  0.5144 -0.8686 -1.6890
 1934SOL    MW4 7811   0.266   1.287   3.436  0.3613  0.1224 -0.3781
 1935SOL     OW 7812   0.229   1.533   3.330 -0.5227  0.0437 -0.1849
 1935SOL    HW2 7813   0.305   1.572   3.372 -1.0921  1.2557 -0.2733
 1935SOL    HW3 7814   0.155   1.557   3.386 -1.4289  2.4922 -2.3382
 1935SOL    MW4 7815   0.229   1.541   3.343 -0.7174  0.5265 -0.4807
 1936SOL     OW 7816   0.039   1.643   3.493 -0.6062 -0.2439  0.4430
 1936SOL    HW2 7817  -0.035   1.595   3.454 -1.6746  1.7157  0.0032
 1936SOL    HW3 7818   0.026   1.734   3.465  0.4530  0.6159  2.6431
 1936SOL    MW4 7819   0.027   1.649   3.484 -0.6073  0.1283  0.6752
 1937SOL     OW 7820   4.484   1.914   3.411  0.6564  0.0011 -0.0750
 1937SOL    HW2 7821   4.426   1.980   3.449 -0.2500 -0.3719 -0.7859
 1937SOL    HW3 7822   4.470   1.922   3.316  1.4774 -0.3625 -0.2308
 1937SOL    MW4 7823   4.474   1.924   3.403  0.6452 -0.0962 -0.1895
 1938SOL     OW 7824   0.221   2.036   3.525  0.1029  0.0297  0.3949
 1938SOL    HW2 7825   0.224   2.031   3.621  0.6701  0.4590  0.3978
 1938SOL    HW3 7826   0.138   1.994   3.503 -0.1067  0.0589  1.0854
 1938SOL    MW4 7827   0.210   2.030   3.535  0.1501  0.0904  0.4864
 1939SOL     OW 7828   0.192   2.270   3.361  0.3758 -0.4537 -0.0115
 1939SOL    HW2 7829   0.128   2.317   3.415 -1.6517 -2.0401 -0.9279
 1939SOL    HW3 7830   0.208   2.188   3.409  1.8603 -0.0129  0.2734
 1939SOL    MW4 7831   0.185   2.265   3.375  0.3041 -0.6051 -0.0951
 1940SOL     OW 7832   0.023   2.439   3.511  0.1405  0.3049 -0.0775
 1940SOL    HW2 7833   0.021   2.429   3.606 -1.8699 -0.1557 -0.1615
 1940SOL    HW3 7834  -0.062   2.406   3.481  0.9571 -0.0594 -2.0839
 1940SOL    MW4 7835   0.012   2.433   3.520 -0.0167  0.1962 -0.3533
 1941SOL     OW 7836   4.466   2.686   3.418  0.1789 -0.0819 -0.0478
 1941SOL    HW2 7837   4.507   2.742   3.484 -1.6252  0.8871  0.2914
 1941SOL    HW3 7838   4.481   2.597   3.450  0.2004  0.3352  1.1435
 1941SOL    MW4 7839   4.473   2.682   3.431 -0.0558  0.1011  0.1543
 1942SOL     OW 7840   0.184   2.806   3.573 -0.0195 -0.0064 -0.1277
 1942SOL    HW2 7841   0.250   2.752   3.530 -0.4583  0.2634 -1.1371
 1942SOL    HW3 7842   0.195   2.893   3.536 -1.8572 -0.2673 -1.3422
 1942SOL    MW4 7843   0.194   2.810   3.563 -0.3198 -0.0050 -0.4213
 1943SOL     OW 7844   0.195   3.049   3.448  0.4690 -0.2581 -0.2076
 1943SOL    HW2 7845   0.134   3.115   3.479  0.1246 -0.4018 -0.5762
 1943SOL    HW3 7846   0.205   3.067   3.354  1.0420 -0.1904 -0.1373
 1943SOL    MW4 7847   0.189   3.060   3.439  0.4991 -0.2682 -0.2470
 1944SOL     OW 7848   0.021   3.233   3.544 -0.0025 -0.2300  0.4731
 1944SOL    HW2 7849  -0.058   3.189   3.512 -0.6789  0.6600  0.9150
 1944SOL    HW3 7850   0.025   3.315   3.494  1.8473 -1.2386 -1.1396
 1944SOL    MW4 7851   0.011   3.238   3.533  0.1526 -0.2456  0.3185
 1945SOL     OW 7852   0.006   3.482   3.450  0.2397 -0.5612  0.0782
 1945SOL    HW2 7853  -0.081   3.499   3.486  0.0142 -2.1989  0.3043
 1945SOL    HW3 7854  -0.008   3.480   3.355  0.0527 -0.7606  0.1113
 1945SOL    MW4 7855  -0.008   3.484   3.442  0.1850 -0.8037  0.1123
 1946SOL     OW 7856   0.216   3.613   3.529  0.2049 -0.4110 -0.1315
 1946SOL    HW2 7857   0.208   3.618   3.624 -2.1648  0.2963 -0.3158
 1946SOL    HW3 7858   0.137   3.567   3.501  0.6425 -0.1947 -1.7769
 1946SOL    MW4 7859   0.204   3.608   3.538 -0.0500 -0.2892 -0.3729
 1947SOL     OW 7860   0.241   3.869   3.453 -0.0347 -0.9129 -0.1555
 1947SOL    HW2 7861   0.160   3.914   3.476  0.1033 -0.7761  0.0727
 1947SOL    HW3 7862   0.228   3.779   3.484 -0.0156 -0.8365  0.0804
 1947SOL    MW4 7863   0.229   3.863   3.460 -0.0140 -0.8848 -0.0944
 1948SOL     OW 7864   0.010   4.026   3.514 -0.6378 -0.1921  0.6218
 1948SOL    HW2 7865   0.019   4.031   3.609  0.6849 -0.4433  0.5342
 1948SOL    HW3 7866   0.009   4.117   3.484  0.9588 -0.1225  0.7326
 1948SOL    MW4 7867   0.011   4.038   3.523 -0.2522 -0.2165  0.6247
 1949SOL     OW 7868   4.455   4.304   3.435 -0.3588 -0.3342  0.3132
 1949SOL    HW2 7869   4.376   4.344   3.470 -0.6769 -1.5615  1.0557
 1949SOL    HW3 7870   4.526   4.357   3.469 -0.8225  0.3661  0.2065
 1949SOL    MW4 7871   4.454   4.316   3.444 -0.4619 -0.4044  0.3972
 1950SOL     OW 7872   0.180   4.435   3.538 -0.4051  0.4074 -0.2296
 1950SOL    HW2 7873   0.181   4.440   3.633 -0.8581  2.1813 -0.2943
 1950SOL    HW3 7874   0.263   4.393   3.515 -0.3259 -0.0832  0.9444
 1950SOL    MW4 7875   0.191   4.430   3.548 -0.4544  0.5765 -0.0834
 1951SOL     OW 7876   0.658   0.021   3.466 -0.1527  0.1790  0.1561
 1951SOL    HW2 7877   0.733   0.078   3.482  0.6410 -0.4198 -1.3567
 1951SOL    HW3 7878   0.649   0.019   3.371 -1.4483 -0.5865  0.2772
 1951SOL    MW4 7879   0.666   0.028   3.456 -0.2189 -0.0010 -0.0274
 1952SOL     OW 7880   0.426   0.126   3.546 -0.4107 -0.2265 -0.2073
 1952SOL    HW2 7881   0.422   0.152   3.638  1.5751  2.3439 -0.7737
 1952SOL    HW3 7882   0.516   0.097   3.533 -0.8087 -1.0515 -1.2293
 1952SOL    MW4 7883   0.437   0.126   3.556 -0.2012  0.0038 -0.4168
 1953SOL     OW 7884   0.425   0.397   3.408  0.5949 -0.0067 -0.0753
 1953SOL    HW2 7885   0.512   0.431   3.428  1.2721 -2.1507  0.8340
 1953SOL    HW3 7886   0.422   0.312   3.453 -2.0539  0.1421  0.0986
 1953SOL    MW4 7887   0.436   0.390   3.416  0.3348 -0.2699  0.0675
 1954SOL     OW 7888   0.662   0.519   3.512  0.2777 -0.2976 -0.4124
 1954SOL    HW2 7889   0.673   0.511   3.607 -1.1451  0.9319 -0.1367
 1954SOL    HW3 7890   0.738   0.474   3.476  0.8279 -0.7921  1.3128
 1954SOL    MW4 7891   0.674   0.512   3.520  0.1626 -0.2006 -0.1483
 1955SOL     OW 7892   0.682   0.765   3.391  0.1031  0.2311 -0.0226
 1955SOL    HW2 7893   0.604   0.811   3.424  0.5675  0.7530  0.3492
 1955SOL    HW3 7894   0.682   0.683   3.439  1.8148  1.7668  2.6939
 1955SOL    MW4 7895   0.671   0.760   3.402  0.3902  0.5026  0.3848
 1956SOL     OW 7896   0.451   0.876   3.470 -0.2840 -0.1523 -0.0022
 1956SOL    HW2 7897   0.431   0.860   3.562 -0.5682  0.8362  0.1106
 1956SOL    HW3 7898   0.456   0.971   3.462 -1.5537 -0.1788 -1.2786
 1956SOL    MW4 7899   0.449   0.886   3.481 -0.4890 -0.0255 -0.1559
 1957SOL     OW 7900   0.492   1.170   3.427 -0.4190  0.3852 -0.8396
 1957SOL    HW2 7901   0.578   1.199   3.459 -0.6559  1.0386 -0.7990
 1957SOL    HW3 7902   0.505   1.154   3.334  0.2301 -1.3492 -0.4679
 1957SOL    MW4 7903   0.505   1.171   3.419 -0.3646  0.2426 -0.7856
 1958SOL     OW 7904   0.728   1.266   3.539  0.4659  0.3006 -0.1245
 1958SOL    HW2 7905   0.811   1.235   3.503  0.1948  0.4725 -0.8984
 1958SOL    HW3 7906   0.723   1.357   3.511  0.1591  0.3816  0.1917
 1958SOL    MW4 7907   0.738   1.274   3.530  0.3896  0.3339 -0.1848
 1959SOL     OW 7908   0.690   1.522   3.444 -0.2467  0.5164 -0.0466
 1959SOL    HW2 7909   0.764   1.576   3.472 -0.4686  0.7900  0.0040
 1959SOL    HW3 7910   0.614   1.579   3.451 -0.4010  0.3739 -0.5406
 1959SOL    MW4 7911   0.690   1.536   3.449 -0.2963  0.5336 -0.1054
 1960SOL     OW 7912   0.451   1.652   3.437 -0.0907  0.0479 -0.3822
 1960SOL    HW2 7913   0.436   1.654   3.531 -1.6075 -1.5267 -0.5573
 1960SOL    HW3 7914   0.452   1.745   3.411 -0.4453  0.4641  1.0565
 1960SOL    MW4 7915   0.449   1.665   3.446 -0.3376 -0.1049 -0.2155
 1961SOL     OW 7916   0.460   1.935   3.387 -0.4383  0.5021  0.1426
 1961SOL    HW2 7917   0.380   1.973   3.424 -1.5174 -1.1083 -0.4736
 1961SOL    HW3 7918   0.453   1.954   3.293 -1.0608 -1.2978 -0.1945
 1961SOL    MW4 7919   0.448   1.942   3.379 -0.6628  0.0522  0.0172
 1962SOL     OW 7920   0.663   2.096   3.490 -0.5076  0.4831 -0.2640
 1962SOL    HW2 7921   0.653   2.077   3.584 -0.5259  1.0028 -0.1600
 1962SOL    HW3 7922   0.591   2.049   3.448 -0.2173 -0.1488 -0.0717
 1962SOL    MW4 7923   0.652   2.087   3.497 -0.4718  0.4687 -0.2253
 1963SOL     OW 7924   0.650   2.381   3.397 -0.0336 -0.0908  0.0693
 1963SOL    HW2 7925   0.735   2.415   3.423  0.7743 -0.4719 -1.9812
 1963SOL    HW3 7926   0.652   2.288   3.419  0.4205 -0.2822 -0.7497
 1963SOL    MW4 7927   0.661   2.373   3.403  0.1329 -0.1664 -0.3090
 1964SOL     OW 7928   0.396   2.436   3.483 -0.0885 -0.4449 -0.4534
 1964SOL    HW2 7929   0.475   2.401   3.442 -1.1283 -2.0740 -1.1174
 1964SOL    HW3 7930   0.324   2.388   3.441 -1.3509  0.1031  1.0416
 1964SOL    MW4 7931   0.397   2.425   3.472 -0.3923 -0.5877 -0.3436
 1965SOL     OW 7932   0.395   2.703   3.429  0.2071 -0.1549 -0.1538
 1965SOL    HW2 7933   0.400   2.611   3.454  0.1236 -0.3186 -0.7341
 1965SOL    HW3 7934   0.403   2.703   3.334 -2.6215  0.1995 -0.4498
 1965SOL    MW4 7935   0.396   2.691   3.420 -0.1771 -0.1297 -0.2697
 1966SOL     OW 7936   0.646   2.841   3.519  0.2083 -0.3581 -0.7167
 1966SOL    HW2 7937   0.723   2.791   3.492  1.4533  1.3090 -0.2746
 1966SOL    HW3 7938   0.573   2.798   3.474  1.1933 -2.8253 -0.0454
 1966SOL    MW4 7939   0.646   2.828   3.509  0.5025 -0.4637 -0.5701
 1967SOL     OW 7940   0.644   3.099   3.419  0.7266 -0.1116  0.0604
 1967SOL    HW2 7941   0.560   3.140   3.436  0.2786 -0.4671 -1.2354
 1967SOL    HW3 7942   0.642   3.017   3.467 -0.2237 -0.7629 -1.0656
 1967SOL    MW4 7943   0.633   3.093   3.427  0.5421 -0.2444 -0.2592
 1968SOL     OW 7944   0.413   3.231   3.499  0.2517 -0.0818  0.5037
 1968SOL    HW2 7945   0.429   3.237   3.593 -1.2775  0.5332  0.7482
 1968SOL    HW3 7946   0.333   3.178   3.492 -1.4934  2.5691 -0.2533
 1968SOL    MW4 7947   0.404   3.225   3.511 -0.1803  0.3490  0.4361
 1969SOL     OW 7948   0.450   3.526   3.404  0.1821  0.6611 -0.0087
 1969SOL    HW2 7949   0.447   3.433   3.427  0.2849  0.3901 -1.0844
 1969SOL    HW3 7950   0.378   3.565   3.454 -0.3008 -0.1185 -0.0897
 1969SOL    MW4 7951   0.440   3.519   3.414  0.1319  0.5224 -0.1614
 1970SOL     OW 7952   0.665   3.620   3.555  0.1654 -0.4885 -0.3367
 1970SOL    HW2 7953   0.742   3.577   3.517  0.9644  0.4745  0.1660
 1970SOL    HW3 7954   0.591   3.580   3.510  0.8122 -3.2577  0.9991
 1970SOL    MW4 7955   0.666   3.609   3.544  0.3562 -0.7267 -0.0937
 1971SOL     OW 7956   0.673   3.863   3.426 -0.2695  0.0640 -0.3211
 1971SOL    HW2 7957   0.614   3.921   3.474 -0.8703 -0.9618  0.2111
 1971SOL    HW3 7958   0.676   3.784   3.480  0.9774 -0.1825 -0.7489
 1971SOL    MW4 7959   0.665   3.860   3.440 -0.1842 -0.1037 -0.3076
 1972SOL     OW 7960   0.468   4.036   3.519  0.5986  0.1396 -0.0384
 1972SOL    HW2 7961   0.457   4.123   3.480 -1.1297  0.2240  0.5709
 1972SOL    HW3 7962   0.399   3.983   3.479 -0.7635  0.0486  2.3077
 1972SOL    MW4 7963   0.457   4.040   3.509  0.1909  0.1388  0.3514
 1973SOL     OW 7964   0.408   4.313   3.447  0.3743  0.3617 -0.4350
 1973SOL    HW2 7965   0.492   4.351   3.473  0.1875  0.3657  0.1814
 1973SOL    HW3 7966   0.407   4.320   3.352  0.9742  0.5705 -0.4314
 1973SOL    MW4 7967   0.419   4.319   3.438  0.4288  0.3896 -0.3531
 1974SOL     OW 7968   0.669   4.413   3.526 -0.4970  0.0848  0.2498
 1974SOL    HW2 7969   0.754   4.370   3.514  0.5055  1.5028  1.9167
 1974SOL    HW3 7970   0.684   4.503   3.498 -2.2512 -0.2964 -2.0864
 1974SOL    MW4 7971   0.682   4.419   3.521 -0.5962  0.2213  0.1616
 1975SOL     OW 7972   1.073   4.613   3.439  0.4269 -0.0799  0.2947
 1975SOL    HW2 7973   1.149   4.664   3.466  0.2359  0.6454 -0.5091
 1975SOL    HW3 7974   1.076   4.613   3.343 -0.9054  0.4536  0.2367
 1975SOL    MW4 7975   1.083   4.620   3.430  0.2259  0.0863  0.1810
 1976SOL     OW 7976   0.900   0.129   3.525 -0.5305 -0.2275  0.7821
 1976SOL    HW2 7977   0.909   0.120   3.620 -0.3421  0.7768  0.8677
 1976SOL    HW3 7978   0.957   0.062   3.489  0.3042  0.1500  1.3817
 1976SOL    MW4 7979   0.908   0.119   3.533 -0.3955 -0.0452  0.8724
 1977SOL     OW 7980   0.890   0.394   3.399  0.3974 -0.4411  0.0874
 1977SOL    HW2 7981   0.968   0.437   3.432  2.2098 -2.8537 -0.8885
 1977SOL    HW3 7982   0.892   0.307   3.439 -1.3744 -0.8189 -0.5849
 1977SOL    MW4 7983   0.900   0.388   3.409  0.4027 -0.8093 -0.1299
 1978SOL     OW 7984   1.141   0.464   3.513  0.5062 -0.3215 -0.1106
 1978SOL    HW2 7985   1.132   0.477   3.607 -0.1936 -0.3775 -0.1672
 1978SOL    HW3 7986   1.143   0.552   3.476  0.5431 -0.3040 -0.0667
 1978SOL    MW4 7987   1.140   0.477   3.521  0.4188 -0.3266 -0.1123
 1979SOL     OW 7988   1.136   0.715   3.387 -0.0964 -0.4747  1.0516
 1979SOL    HW2 7989   1.206   0.774   3.414  0.4272 -1.4048  1.7063
 1979SOL    HW3 7990   1.057   0.751   3.428  0.1496  0.0224  1.0897
 1979SOL    MW4 7991   1.135   0.728   3.396  0.0051 -0.5317  1.1430
 1980SOL     OW 7992   0.914   0.861   3.503  0.0696 -0.1714  0.2879
 1980SOL    HW2 7993   0.929   0.946   3.460  0.6752 -1.7273 -2.7261
 1980SOL    HW3 7994   0.837   0.825   3.457  0.4697 -1.7053  0.7930
 1980SOL    MW4 7995   0.906   0.868   3.491  0.2023 -0.5791 -0.0432
 1981SOL     OW 7996   0.940   1.124   3.417 -0.3195 -0.4143  0.0595
 1981SOL    HW2 7997   1.000   1.195   3.440 -1.6066  0.7144  0.0416
 1981SOL    HW3 7998   0.910   1.146   3.329  0.1631 -1.6218 -0.4174
 1981SOL    MW4 7999   0.944   1.137   3.408 -0.4256 -0.4246 -0.0057
 1982SOL     OW 8000   1.120   1.299   3.515 -0.1799 -0.0505  0.3413
 1982SOL    HW2 8001   1.130   1.317   3.609 -2.0409 -0.7179  0.6919
 1982SOL    HW3 8002   1.141   1.382   3.472 -1.2649  0.8278  1.4694
 1982SOL    MW4 8003   1.124   1.312   3.522 -0.5686 -0.0226  0.5364
 1983SOL     OW 8004   1.101   1.552   3.390  0.1750  0.0732  0.1110
 1983SOL    HW2 8005   1.184   1.597   3.403  0.4848 -0.5388  0.2401
 1983SOL    HW3 8006   1.085   1.555   3.296  1.7924 -2.3930 -0.2774
 1983SOL    MW4 8007   1.110   1.558   3.380  0.4294 -0.3332  0.0768
 1984SOL     OW 8008   0.899   1.695   3.525  0.2602  0.1624  0.1298
 1984SOL    HW2 8009   0.890   1.770   3.466 -1.0195 -0.7605 -0.8934
 1984SOL    HW3 8010   0.964   1.639   3.483 -0.0004 -0.0742  0.0380
 1984SOL    MW4 8011   0.906   1.698   3.512  0.0570  0.0095 -0.0174
 1985SOL     OW 8012   0.866   1.931   3.366 -0.1671  0.1172  0.2431
 1985SOL    HW2 8013   0.944   1.983   3.385  0.2825 -0.6514  0.5527
 1985SOL    HW3 8014   0.793   1.984   3.397  0.4636 -0.7040  3.3611
 1985SOL    MW4 8015   0.867   1.945   3.373 -0.0246 -0.0926  0.6952
 1986SOL     OW 8016   1.084   2.087   3.420  0.3214 -0.0768 -0.1187
 1986SOL    HW2 8017   1.162   2.039   3.391  0.1225  0.4020 -1.4533
 1986SOL    HW3 8018   1.106   2.179   3.408  0.2281  0.1321  1.2509
 1986SOL    MW4 8019   1.097   2.093   3.415  0.2828  0.0141 -0.1142
 1987SOL     OW 8020   1.143   2.360   3.393 -0.0845 -0.3309  0.0131
 1987SOL    HW2 8021   1.230   2.368   3.432  0.3707 -1.4936 -0.7277
 1987SOL    HW3 8022   1.158   2.374   3.299 -0.7208 -0.4001 -0.1013
 1987SOL    MW4 8023   1.157   2.363   3.386 -0.1084 -0.4930 -0.0997
 1988SOL     OW 8024   0.908   2.464   3.487 -0.1629 -0.2905  0.1193
 1988SOL    HW2 8025   0.906   2.438   3.579  0.2204 -0.4348  0.0872
 1988SOL    HW3 8026   0.994   2.437   3.456 -0.3641 -0.4190 -0.3361
 1988SOL    MW4 8027   0.919   2.457   3.495 -0.1389 -0.3266  0.0551
 1989SOL     OW 8028   0.885   2.723   3.399  0.6655  0.3504 -0.2458
 1989SOL    HW2 8029   0.953   2.771   3.446  0.0571  0.1029  0.8893
 1989SOL    HW3 8030   0.889   2.635   3.435 -1.4027  0.7650  1.0484
 1989SOL    MW4 8031   0.895   2.718   3.410  0.3123  0.3724  0.0746
 1990SOL     OW 8032   1.090   2.849   3.550  0.5286  0.2754 -0.3058
 1990SOL    HW2 8033   1.080   2.852   3.646 -0.4118 -1.7270 -0.3288
 1990SOL    HW3 8034   1.158   2.783   3.536  0.2237  0.1308 -1.0643
 1990SOL    MW4 8035   1.098   2.841   3.561  0.3643 -0.0079 -0.4086
 1991SOL     OW 8036   1.097   3.117   3.420 -0.1277  0.5073 -0.1112
 1991SOL    HW2 8037   1.095   3.027   3.452  2.2113  0.5359  0.2322
 1991SOL    HW3 8038   1.122   3.109   3.328 -1.9876  0.7046 -0.6483
 1991SOL    MW4 8039   1.100   3.104   3.412 -0.0645  0.5372 -0.1369
 1992SOL     OW 8040   0.850   3.241   3.518 -0.3637  0.1730  0.0320
 1992SOL    HW2 8041   0.932   3.209   3.480 -0.4841  0.3435 -0.3736
 1992SOL    HW3 8042   0.783   3.188   3.476 -0.4196 -0.3821  0.8105
 1992SOL    MW4 8043   0.852   3.230   3.507 -0.3870  0.1223  0.0813
 1993SOL     OW 8044   0.865   3.498   3.409  0.2886 -0.1592  0.0149
 1993SOL    HW2 8045   0.856   3.406   3.431  0.7297 -0.0860  0.5160
 1993SOL    HW3 8046   0.864   3.500   3.313  1.6862 -0.8417 -0.0304
 1993SOL    MW4 8047   0.864   3.486   3.399  0.5311 -0.2396  0.0751
 1994SOL     OW 8048   1.088   3.580   3.524  0.1434 -0.3789  0.2016
 1994SOL    HW2 8049   1.094   3.572   3.619 -0.3609 -1.6749  0.1351
 1994SOL    HW3 8050   0.999   3.551   3.503  0.1317  0.2261 -0.6408
 1994SOL    MW4 8051   1.077   3.575   3.533  0.0753 -0.4702  0.0818
 1995SOL     OW 8052   1.108   3.853   3.435 -0.2547 -0.0901  0.3269
 1995SOL    HW2 8053   1.184   3.891   3.478  0.4542 -0.4834 -0.5527
 1995SOL    HW3 8054   1.099   3.766   3.474  1.0296 -0.8627 -1.0336
 1995SOL    MW4 8055   1.117   3.847   3.446  0.0082 -0.2439  0.0315
 1996SOL     OW 8056   0.888   3.999   3.519  0.0185  0.3282  0.3457
 1996SOL    HW2 8057   0.966   3.950   3.493  0.4935  1.9468 -1.4689
 1996SOL    HW3 8058   0.815   3.945   3.489  0.4901 -0.2636  0.2425
 1996SOL    MW4 8059   0.889   3.986   3.511  0.1434  0.4635  0.0925
 1997SOL     OW 8060   0.897   4.270   3.462 -0.2312 -0.1660  0.6153
 1997SOL    HW2 8061   0.905   4.177   3.483 -0.2246 -0.0329  1.1935
 1997SOL    HW3 8062   0.911   4.274   3.367 -0.3086 -0.7635  0.5778
 1997SOL    MW4 8063   0.900   4.258   3.452 -0.2405 -0.2275  0.6866
 1998SOL     OW 8064   1.123   4.356   3.562  0.2681 -0.1658 -0.4588
 1998SOL    HW2 8065   1.034   4.327   3.543 -0.8688  0.8230  2.9415
 1998SOL    HW3 8066   1.124   4.448   3.537  0.4576 -0.2560 -0.7922
 1998SOL    MW4 8067   1.111   4.364   3.556  0.1431 -0.0477 -0.0544
 1999SOL     OW 8068   1.542   4.578   3.405  0.2129  0.2375  0.4453
 1999SOL    HW2 8069   1.546   4.492   3.447  1.7375  0.2370  0.3207
 1999SOL    HW3 8070   1.465   4.620   3.445  0.7527 -0.3439  2.1344
 1999SOL    MW4 8071   1.532   4.572   3.416  0.4854  0.1612  0.6516
 2000SOL     OW 8072   1.318   0.059   3.505 -0.2264 -0.5457  0.2037
 2000SOL    HW2 8073   1.329   0.079   3.598  0.0046 -0.7104  0.2125
 2000SOL    HW3 8074   1.322   0.144   3.461 -2.0726 -0.2877  0.5031
 2000SOL    MW4 8075   1.320   0.073   3.511 -0.4394 -0.5334  0.2444
 2001SOL     OW 8076   1.349   0.337   3.409  0.1520 -0.1237  0.1494
 2001SOL    HW2 8077   1.430   0.371   3.448  0.2176  1.0350 -0.9411
 2001SOL    HW3 8078   1.279   0.387   3.452  0.1612  0.3904 -0.4155
 2001SOL    MW4 8079   1.350   0.348   3.420  0.1619  0.0970 -0.0689
 2002SOL     OW 8080   1.569   0.492   3.483 -0.2240 -0.1356 -0.3698
 2002SOL    HW2 8081   1.572   0.505   3.577 -0.0277  0.9700 -0.5127
 2002SOL    HW3 8082   1.651   0.447   3.462 -0.0862 -0.0362 -0.0531
 2002SOL    MW4 8083   1.580   0.488   3.492 -0.1799  0.0233 -0.3469
 2003SOL     OW 8084   1.564   0.739   3.356 -0.1483  0.4292  0.5888
 2003SOL    HW2 8085   1.503   0.800   3.398 -1.8756 -1.2508  0.5942
 2003SOL    HW3 8086   1.547   0.655   3.398  1.2648 -0.3433 -0.3379
 2003SOL    MW4 8087   1.553   0.736   3.367 -0.1898  0.1056  0.4675
 2004SOL     OW 8088   1.353   0.874   3.457  0.4418  0.4432 -0.0168
 2004SOL    HW2 8089   1.314   0.886   3.544  0.5933  0.1100  0.0962
 2004SOL    HW3 8090   1.346   0.960   3.415 -0.5490  0.3470 -0.0504
 2004SOL    MW4 8091   1.347   0.887   3.463  0.3310  0.3865 -0.0067
 2005SOL     OW 8092   1.303   1.139   3.372  0.0507  0.1079  0.3417
 2005SOL    HW2 8093   1.383   1.184   3.399 -0.1169  0.0518  0.9291
 2005SOL    HW3 8094   1.232   1.191   3.410 -0.1895  0.0960 -0.0864
 2005SOL    MW4 8095   1.304   1.151   3.380 -0.0031  0.0988  0.3629
 2006SOL     OW 8096   1.539   1.244   3.489  0.1132  0.1674  0.0870
 2006SOL    HW2 8097   1.543   1.243   3.585 -1.5084 -1.8986  0.1736
 2006SOL    HW3 8098   1.619   1.199   3.462 -1.0267 -2.3230  0.6207
 2006SOL    MW4 8099   1.550   1.238   3.498 -0.2513 -0.4339  0.1688
 2007SOL     OW 8100   1.550   1.515   3.438  0.2132  0.1978  0.4397
 2007SOL    HW2 8101   1.527   1.422   3.449  1.1742  0.2059  2.6936
 2007SOL    HW3 8102   1.551   1.528   3.343  0.0646 -2.1090  0.0932
 2007SOL    MW4 8103   1.547   1.504   3.427  0.3206 -0.1055  0.6914
 2008SOL     OW 8104   1.328   1.692   3.492 -0.1941  0.2115 -0.3156
 2008SOL    HW2 8105   1.324   1.706   3.587 -0.3192 -1.0401 -0.1292
 2008SOL    HW3 8106   1.401   1.631   3.480  0.4737  1.1642 -1.1216
 2008SOL    MW4 8107   1.337   1.686   3.503 -0.1224  0.1721 -0.3974
 2009SOL     OW 8108   1.340   1.954   3.384 -0.5014 -0.2033 -0.2830
 2009SOL    HW2 8109   1.428   1.975   3.413 -0.7430  0.3425  0.0594
 2009SOL    HW3 8110   1.325   1.864   3.414 -0.9062  0.5054  1.6656
 2009SOL    MW4 8111   1.350   1.945   3.391 -0.5867 -0.0378  0.0188
 2010SOL     OW 8112   1.590   2.021   3.471 -0.4356 -0.0313  0.6405
 2010SOL    HW2 8113   1.674   1.978   3.461 -0.4492  0.1185 -0.1702
 2010SOL    HW3 8114   1.604   2.110   3.437 -1.0207 -0.1323  0.1121
 2010SOL    MW4 8115   1.603   2.027   3.465 -0.5146 -0.0250  0.4640
 2011SOL     OW 8116   1.572   2.285   3.377 -0.1962  0.2448 -0.5988
 2011SOL    HW2 8117   1.496   2.321   3.423  1.1587  1.2721  0.8919
 2011SOL    HW3 8118   1.569   2.326   3.290 -0.7446  1.1177 -0.1748
 2011SOL    MW4 8119   1.561   2.295   3.371 -0.0898  0.4954 -0.3462
 2012SOL     OW 8120   1.388   2.423   3.516 -0.1476 -0.2045 -0.2240
 2012SOL    HW2 8121   1.365   2.417   3.609 -2.3125 -1.1124 -0.7932
 2012SOL    HW3 8122   1.368   2.513   3.492 -1.3828 -0.4810 -0.2572
 2012SOL    MW4 8123   1.382   2.434   3.525 -0.5963 -0.3610 -0.3035
 2013SOL     OW 8124   1.311   2.702   3.434  0.0481  0.0516 -0.3115
 2013SOL    HW2 8125   1.382   2.755   3.470  0.3685  0.2401 -1.2111
 2013SOL    HW3 8126   1.322   2.708   3.339 -1.4044  0.4014 -0.4741
 2013SOL    MW4 8127   1.321   2.710   3.426 -0.1013  0.1228 -0.4518
 2014SOL     OW 8128   1.537   2.829   3.526  0.1302  0.1402  0.0221
 2014SOL    HW2 8129   1.622   2.797   3.497  0.3196  1.0371 -0.4453
 2014SOL    HW3 8130   1.539   2.923   3.506 -1.3607 -0.0132 -0.9638
 2014SOL    MW4 8131   1.548   2.837   3.519 -0.0415  0.2384 -0.1693
 2015SOL     OW 8132   1.572   3.101   3.408 -0.0594  0.5891 -0.2643
 2015SOL    HW2 8133   1.639   3.149   3.458  1.0032 -1.4642  0.3556
 2015SOL    HW3 8134   1.489   3.131   3.445  0.6989 -1.2146  3.1644
 2015SOL    MW4 8135   1.570   3.111   3.420  0.1808  0.0801  0.2699
 2016SOL     OW 8136   1.341   3.231   3.518 -0.5829 -0.6449  0.4506
 2016SOL    HW2 8137   1.359   3.218   3.611 -0.8368 -0.4419  0.5292
 2016SOL    HW3 8138   1.259   3.184   3.502  0.3104 -2.0688 -0.0375
 2016SOL    MW4 8139   1.333   3.223   3.528 -0.4984 -0.8059  0.3965
 2017SOL     OW 8140   1.306   3.467   3.386 -0.4452  0.0304 -0.4558
 2017SOL    HW2 8141   1.313   3.385   3.434  1.7920  0.5614  0.1863
 2017SOL    HW3 8142   1.228   3.509   3.421 -0.9604 -1.3022  0.0106
 2017SOL    MW4 8143   1.297   3.462   3.397 -0.2180 -0.0753 -0.3095
 2018SOL     OW 8144   1.532   3.573   3.482  0.2078  0.1439 -0.1052
 2018SOL    HW2 8145   1.526   3.585   3.577  0.0019 -1.9857  0.1648
 2018SOL    HW3 8146   1.455   3.522   3.459  1.0172 -0.6056 -1.1995
 2018SOL    MW4 8147   1.521   3.568   3.492  0.2874 -0.2358 -0.2141
 2019SOL     OW 8148   1.527   3.817   3.381 -0.1768  0.2723  0.1488
 2019SOL    HW2 8149   1.516   3.724   3.403 -1.4221  0.3088 -0.2902
 2019SOL    HW3 8150   1.540   3.818   3.286  1.4570  0.4286  0.3529
 2019SOL    MW4 8151   1.527   3.805   3.372 -0.1254  0.2975  0.1178
 2020SOL     OW 8152   1.341   3.958   3.556 -0.0549 -0.7533  0.5155
 2020SOL    HW2 8153   1.350   4.042   3.510  0.1290 -0.8566  0.3634
 2020SOL    HW3 8154   1.408   3.902   3.517  0.9535 -0.4488  1.7909
 2020SOL    MW4 8155   1.351   3.962   3.544  0.1024 -0.7269  0.6638
 2021SOL     OW 8156   1.348   4.219   3.433  0.5539  0.3756 -0.4852
 2021SOL    HW2 8157   1.271   4.267   3.463  0.0709 -0.6484 -0.0248
 2021SOL    HW3 8158   1.351   4.234   3.339 -0.0461  0.6699 -0.4592
 2021SOL    MW4 8159   1.338   4.227   3.425  0.4110  0.2799 -0.4208
 2022SOL     OW 8160   1.570   4.341   3.555 -0.2952  0.0424  0.6216
 2022SOL    HW2 8161   1.651   4.309   3.516 -0.2020  1.1153 -0.1013
 2022SOL    HW3 8162   1.501   4.290   3.512 -0.1961  1.2435 -1.0439
 2022SOL    MW4 8163   1.572   4.330   3.544 -0.2699  0.3428  0.3066
 2023SOL     OW 8164   1.952   4.586   3.402  0.3320 -0.0461 -0.4211
 2023SOL    HW2 8165   2.031   4.639   3.416  0.5894 -1.1111  2.6245
 2023SOL    HW3 8166   1.880   4.643   3.432  0.3894 -0.5252  0.6780
 2023SOL    MW4 8167   1.953   4.601   3.408  0.3734 -0.2499  0.1256
 2024SOL     OW 8168   1.756   0.095   3.494  0.1950  0.2771 -0.1514
 2024SOL    HW2 8169   1.745   0.104   3.588 -0.9409 -0.0890 -0.2370
 2024SOL    HW3 8170   1.671   0.061   3.463  0.4187  0.7790 -1.3495
 2024SOL    MW4 8171   1.743   0.091   3.502  0.0745  0.2950 -0.3209
 2025SOL     OW 8172   1.818   0.358   3.420 -0.5733  0.2296 -0.5966
 2025SOL    HW2 8173   1.793   0.272   3.454  0.5184  0.0436 -0.2527
 2025SOL    HW3 8174   1.799   0.353   3.326 -0.3286 -0.4600 -0.6132
 2025SOL    MW4 8175   1.812   0.346   3.412 -0.3970  0.1141 -0.5536
 2026SOL     OW 8176   2.041   0.448   3.530 -0.2581 -0.4558  0.6999
 2026SOL    HW2 8177   2.051   0.524   3.473  2.1467 -1.4878 -0.3472
 2026SOL    HW3 8178   1.954   0.414   3.509 -0.5679  0.8708 -0.2322
 2026SOL    MW4 8179   2.031   0.453   3.519  0.0184 -0.4169  0.4387
 2027SOL     OW 8180   2.020   0.702   3.412 -0.0028 -0.3702  0.0105
 2027SOL    HW2 8181   2.089   0.755   3.452 -0.3982 -0.8418  1.3533
 2027SOL    HW3 8182   2.017   0.732   3.321 -0.0654  1.7685  0.6700
 2027SOL    MW4 8183   2.029   0.713   3.406 -0.0629 -0.1503  0.2747
 2028SOL     OW 8184   1.779   0.834   3.496 -0.0495 -0.3219  0.5076
 2028SOL    HW2 8185   1.858   0.792   3.464 -0.2335  0.8010 -1.4618
 2028SOL    HW3 8186   1.709   0.798   3.441 -0.3233  1.8776 -0.6139
 2028SOL    MW4 8187   1.780   0.823   3.485 -0.1098  0.1164  0.0999
 2029SOL     OW 8188   1.759   1.101   3.394 -0.1723  0.1653 -0.3524
 2029SOL    HW2 8189   1.838   1.142   3.428 -0.8309  0.7103  0.5546
 2029SOL    HW3 8190   1.754   1.017   3.439 -0.3019  0.2921 -0.1269
 2029SOL    MW4 8191   1.769   1.095   3.404 -0.2762  0.2540 -0.2029
 2030SOL     OW 8192   1.995   1.228   3.485  0.0693 -0.1669  0.1857
 2030SOL    HW2 8193   1.972   1.242   3.577 -0.9654  0.9931 -0.2332
 2030SOL    HW3 8194   2.000   1.316   3.448  0.1373 -0.6456 -0.9528
 2030SOL    MW4 8195   1.993   1.242   3.492 -0.0583 -0.0770 -0.0198
 2031SOL     OW 8196   2.030   1.498   3.379 -0.7064  0.2085  0.2840
 2031SOL    HW2 8197   2.099   1.554   3.414  1.0419 -2.1151  0.6448
 2031SOL    HW3 8198   1.953   1.520   3.432  0.4445  0.8761  1.7275
 2031SOL    MW4 8199   2.029   1.509   3.391 -0.3238 -0.0100  0.5219
 2032SOL     OW 8200   1.810   1.602   3.513  0.4109 -0.1084  0.2639
 2032SOL    HW2 8201   1.822   1.678   3.456  2.7493  0.4682  1.4489
 2032SOL    HW3 8202   1.730   1.560   3.481  0.3851  1.5134 -1.9036
 2032SOL    MW4 8203   1.801   1.607   3.501  0.7160  0.1817  0.1342
 2033SOL     OW 8204   1.815   1.859   3.350  0.1811  0.3223  0.1898
 2033SOL    HW2 8205   1.880   1.916   3.390 -0.2752  1.0578 -0.0836
 2033SOL    HW3 8206   1.827   1.873   3.256  0.2386 -0.2346  0.1140
 2033SOL    MW4 8207   1.825   1.869   3.343  0.1285  0.3459  0.1440
 2034SOL     OW 8208   1.967   2.048   3.472  0.0018  0.4829 -0.2076
 2034SOL    HW2 8209   2.049   1.998   3.465  0.1247  0.7064 -0.3566
 2034SOL    HW3 8210   1.985   2.130   3.427 -0.7874 -0.0635 -1.5461
 2034SOL    MW4 8211   1.980   2.052   3.465 -0.0862  0.4404 -0.4039
 2035SOL     OW 8212   1.991   2.308   3.401  0.1382 -0.2622 -0.1956
 2035SOL    HW2 8213   2.074   2.336   3.441 -0.4156 -0.9252  1.4865
 2035SOL    HW3 8214   1.995   2.341   3.312  0.9273  2.2793  0.7301
 2035SOL    MW4 8215   2.003   2.316   3.395  0.1693 -0.0143  0.1485
 2036SOL     OW 8216   1.764   2.459   3.487  0.2789 -0.5174 -0.2661
 2036SOL    HW2 8217   1.842   2.408   3.465  0.0171 -2.0222  2.0582
 2036SOL    HW3 8218   1.692   2.408   3.452  0.2300  0.0737 -1.0359
 2036SOL    MW4 8219   1.765   2.445   3.479  0.2378 -0.6380 -0.0613
 2037SOL     OW 8220   1.781   2.735   3.393  0.1331 -0.3128 -0.2479
 2037SOL    HW2 8221   1.863   2.777   3.422  0.9169 -1.7066 -0.3899
 2037SOL    HW3 8222   1.784   2.648   3.432 -2.6080  0.5446  2.0309
 2037SOL    MW4 8223   1.793   2.729   3.402 -0.1252 -0.3836  0.0341
 2038SOL     OW 8224   2.043   2.792   3.473 -0.0180 -0.0749  0.1139
 2038SOL    HW2 8225   2.025   2.785   3.567  0.0670  1.3405  0.2455
 2038SOL    HW3 8226   2.048   2.886   3.457  1.4609 -0.3350 -1.0243
 2038SOL    MW4 8227   2.042   2.803   3.484  0.1884  0.0775 -0.0188
 2039SOL     OW 8228   2.010   3.044   3.400  0.4389 -0.2861  0.2783
 2039SOL    HW2 8229   2.083   3.100   3.427  0.6431  1.3589 -3.4291
 2039SOL    HW3 8230   1.932   3.092   3.428  0.6782 -0.7380  1.7952
 2039SOL    MW4 8231   2.009   3.058   3.408  0.4973 -0.1285 -0.0107
 2040SOL     OW 8232   1.786   3.209   3.518  0.1615 -0.2586 -0.1283
 2040SOL    HW2 8233   1.796   3.189   3.612  0.8678 -1.4644 -0.4493
 2040SOL    HW3 8234   1.790   3.304   3.514  1.1394 -0.2323  0.9841
 2040SOL    MW4 8235   1.788   3.219   3.530  0.3836 -0.4144 -0.0238
 2041SOL     OW 8236   1.817   3.484   3.450 -0.2789  0.4000 -0.2833
 2041SOL    HW2 8237   1.724   3.502   3.468 -0.3595 -0.5467  0.2826
 2041SOL    HW3 8238   1.823   3.484   3.355 -0.7969  0.7621 -0.3213
 2041SOL    MW4 8239   1.805   3.487   3.440 -0.3580  0.3228 -0.2136
 2042SOL     OW 8240   2.031   3.614   3.542  0.6020  0.0364  0.2950
 2042SOL    HW2 8241   2.106   3.557   3.526  0.6873  0.4136 -0.6951
 2042SOL    HW3 8242   1.956   3.565   3.507  0.6527  0.4591 -0.4101
 2042SOL    MW4 8243   2.031   3.600   3.535  0.6199  0.1419  0.0715
 2043SOL     OW 8244   2.007   3.843   3.394  0.2981  0.1846  0.3772
 2043SOL    HW2 8245   1.927   3.891   3.416  1.6629  0.9333  4.0201
 2043SOL    HW3 8246   2.006   3.767   3.453  1.6834 -0.4457 -0.3822
 2043SOL    MW4 8247   1.996   3.839   3.405  0.6609  0.2000  0.7575
 2044SOL     OW 8248   1.753   3.952   3.460  0.2983  0.2515  0.0701
 2044SOL    HW2 8249   1.738   3.945   3.554 -0.6786 -0.3390 -0.1185
 2044SOL    HW3 8250   1.666   3.937   3.421  0.4379  1.7711 -0.8693
 2044SOL    MW4 8251   1.739   3.949   3.467  0.1876  0.3743 -0.0784
 2045SOL     OW 8252   1.798   4.225   3.424  0.0149  0.5951  0.0782
 2045SOL    HW2 8253   1.780   4.132   3.433 -1.5746  0.7891 -0.9260
 2045SOL    HW3 8254   1.793   4.241   3.329  0.5509  1.6390  0.2235
 2045SOL    MW4 8255   1.795   4.215   3.412 -0.1241  0.7586 -0.0348
 2046SOL     OW 8256   2.018   4.359   3.538 -0.0570 -0.2142 -0.3229
 2046SOL    HW2 8257   1.945   4.303   3.513  0.0194 -0.4871  0.0808
 2046SOL    HW3 8258   1.998   4.443   3.497 -0.9520 -0.0826  0.3815
 2046SOL    MW4 8259   2.006   4.363   3.529 -0.1652 -0.2332 -0.1767
 2047SOL     OW 8260   2.459   4.591   3.420  0.6265 -0.1120  0.0937
 2047SOL    HW2 8261   2.460   4.499   3.448  0.9561 -0.4060 -0.8883
 2047SOL    HW3 8262   2.472   4.588   3.326 -2.5053  0.7743 -0.4370
 2047SOL    MW4 8263   2.461   4.579   3.411  0.2565 -0.0334 -0.1059
 2048SOL     OW 8264   2.197   0.056   3.469 -0.0823  0.2058 -0.0421
 2048SOL    HW2 8265   2.227   0.143   3.442 -0.2004  0.4003  0.4414
 2048SOL    HW3 8266   2.273  -0.000   3.459  0.2337  0.5402  0.4576
 2048SOL    MW4 8267   2.211   0.060   3.464 -0.0563  0.2756  0.0880
 2049SOL     OW 8268   2.233   0.316   3.364 -0.7701  0.6629  0.4197
 2049SOL    HW2 8269   2.303   0.363   3.409 -1.1317  1.0613  0.5704
 2049SOL    HW3 8270   2.153   0.344   3.409 -1.1596  1.2498 -0.6303
 2049SOL    MW4 8271   2.231   0.326   3.376 -0.8693  0.7929  0.3011
 2050SOL     OW 8272   2.467   0.436   3.491 -0.1186  0.1885 -0.2644
 2050SOL    HW2 8273   2.543   0.390   3.457 -0.9898 -0.4628 -1.4011
 2050SOL    HW3 8274   2.474   0.524   3.454  0.1964  0.1998 -0.1802
 2050SOL    MW4 8275   2.478   0.442   3.481 -0.1919  0.1041 -0.4032
 2051SOL     OW 8276   2.456   0.693   3.383 -0.2720  0.1888  0.3298
 2051SOL    HW2 8277   2.531   0.732   3.427  0.7450 -1.3722  0.0481
 2051SOL    HW3 8278   2.469   0.716   3.290 -0.1231 -0.1073  0.2771
 2051SOL    MW4 8279   2.468   0.701   3.376 -0.1178 -0.0563  0.2854
 2052SOL     OW 8280   2.234   0.836   3.503 -0.3214  0.1836 -0.4917
 2052SOL    HW2 8281   2.258   0.918   3.460  0.1117 -0.0949 -0.7777
 2052SOL    HW3 8282   2.298   0.772   3.473 -1.0744 -0.4304 -0.8239
 2052SOL    MW4 8283   2.246   0.838   3.493 -0.3636  0.0659 -0.5734
 2053SOL     OW 8284   2.243   1.114   3.409 -0.0229  0.2074 -0.1378
 2053SOL    HW2 8285   2.317   1.171   3.429  0.5100  0.0620 -1.6332
 2053SOL    HW3 8286   2.171   1.150   3.459  0.8685  0.8221  0.7237
 2053SOL    MW4 8287   2.243   1.126   3.418  0.1650  0.2693 -0.2215
 2054SOL     OW 8288   2.490   1.249   3.469  0.3683  0.1362 -0.1039
 2054SOL    HW2 8289   2.476   1.231   3.562  1.4617  1.4556  0.3206
 2054SOL    HW3 8290   2.570   1.200   3.447  1.2939  1.4945  0.1726
 2054SOL    MW4 8291   2.499   1.240   3.478  0.6347  0.4895 -0.0112
 2055SOL     OW 8292   2.460   1.545   3.404  0.3598 -0.2437  0.2956
 2055SOL    HW2 8293   2.479   1.453   3.419  0.3743 -0.4603 -1.0046
 2055SOL    HW3 8294   2.457   1.554   3.308 -0.6858  0.8840  0.4245
 2055SOL    MW4 8295   2.462   1.534   3.393  0.2236 -0.1234  0.1414
 2056SOL     OW 8296   2.224   1.651   3.496 -0.0833  0.0262 -0.5017
 2056SOL    HW2 8297   2.209   1.634   3.589 -0.7415  0.4360 -0.5318
 2056SOL    HW3 8298   2.317   1.629   3.482  0.2431  0.7802  0.4461
 2056SOL    MW4 8299   2.235   1.646   3.506 -0.1273  0.1796 -0.3808
 2057SOL     OW 8300   2.210   1.922   3.399  0.1334  0.1271 -0.1834
 2057SOL    HW2 8301   2.216   1.828   3.418 -2.4678 -0.2798 -1.1405
 2057SOL    HW3 8302   2.206   1.927   3.303 -0.4519  1.1531 -0.1124
 2057SOL    MW4 8303   2.210   1.910   3.389 -0.2873  0.2087 -0.3002
 2058SOL     OW 8304   2.453   2.022   3.513 -0.3093 -0.0480 -0.1894
 2058SOL    HW2 8305   2.437   2.013   3.607 -0.5389  0.8724 -0.1382
 2058SOL    HW3 8306   2.371   1.996   3.472 -0.8556  1.4531 -0.0566
 2058SOL    MW4 8307   2.440   2.017   3.520 -0.4120  0.2713 -0.1652
 2059SOL     OW 8308   2.423   2.273   3.417  0.0554  0.2259  0.1090
 2059SOL    HW2 8309   2.491   2.325   3.460  0.4966  0.2387 -0.5942
 2059SOL    HW3 8310   2.428   2.187   3.459 -1.2798  1.0037  1.9038
 2059SOL    MW4 8311   2.433   2.268   3.428 -0.0625  0.3304  0.2532
 2060SOL     OW 8312   2.203   2.416   3.536  0.2643 -0.5005 -0.3851
 2060SOL    HW2 8313   2.212   2.501   3.492  2.2121 -0.1174  0.6795
 2060SOL    HW3 8314   2.276   2.364   3.504 -0.1016 -1.2859  0.0398
 2060SOL    MW4 8315   2.214   2.421   3.526  0.4728 -0.5538 -0.1884
 2061SOL     OW 8316   2.244   2.633   3.371  0.4465 -0.0238  0.5193
 2061SOL    HW2 8317   2.165   2.675   3.406 -0.1023 -1.4156  0.9832
 2061SOL    HW3 8318   2.229   2.629   3.277 -0.2320 -0.6646  0.6481
 2061SOL    MW4 8319   2.231   2.638   3.364  0.2847 -0.2916  0.5975
 2062SOL     OW 8320   2.451   2.758   3.478  0.5986  0.5950 -0.1098
 2062SOL    HW2 8321   2.449   2.851   3.454 -0.9442  0.3084 -1.1199
 2062SOL    HW3 8322   2.375   2.720   3.435  1.9072 -1.4066 -0.6992
 2062SOL    MW4 8323   2.441   2.766   3.469  0.5677  0.2930 -0.3207
 2063SOL     OW 8324   2.470   3.028   3.402  0.6364  0.0205 -0.2608
 2063SOL    HW2 8325   2.553   3.049   3.446  0.7210 -0.6963 -0.0813
 2063SOL    HW3 8326   2.487   3.043   3.309  0.8969  0.0950 -0.2002
 2063SOL    MW4 8327   2.483   3.033   3.396  0.6819 -0.0644 -0.2291
 2064SOL     OW 8328   2.233   3.185   3.491  0.0043  0.1087  0.0701
 2064SOL    HW2 8329   2.238   3.171   3.586 -0.9714 -1.0760 -0.0393
 2064SOL    HW3 8330   2.315   3.151   3.457 -0.2716 -0.8413  0.3430
 2064SOL    MW4 8331   2.244   3.179   3.499 -0.1609 -0.1731  0.0918
 2065SOL     OW 8332   2.242   3.468   3.433  0.1617 -0.0747  0.0341
 2065SOL    HW2 8333   2.233   3.375   3.453 -0.1453 -0.2496 -0.9064
 2065SOL    HW3 8334   2.240   3.472   3.338 -0.9770  1.0234  0.1046
 2065SOL    MW4 8335   2.241   3.456   3.423 -0.0291  0.0470 -0.0806
 2066SOL     OW 8336   2.491   3.598   3.475  0.2234 -0.2138  0.4344
 2066SOL    HW2 8337   2.468   3.680   3.431  1.0393  0.3558  1.0545
 2066SOL    HW3 8338   2.413   3.544   3.467 -0.4019  0.7117  0.2143
 2066SOL    MW4 8339   2.478   3.602   3.468  0.2484 -0.0167  0.4873
 2067SOL     OW 8340   2.484   3.862   3.366 -0.1481 -0.1094 -0.0902
 2067SOL    HW2 8341   2.559   3.909   3.405  0.4713 -2.1839  1.2950
 2067SOL    HW3 8342   2.409   3.892   3.416  0.0252  0.4572 -0.1547
 2067SOL    MW4 8343   2.484   3.872   3.378 -0.0436 -0.3083  0.0844
 2068SOL     OW 8344   2.240   3.962   3.513  0.2120  0.4609  0.0852
 2068SOL    HW2 8345   2.248   4.057   3.501  0.1734  0.4074 -0.3695
 2068SOL    HW3 8346   2.157   3.939   3.473  0.4725  0.1535 -0.2830
 2068SOL    MW4 8347   2.230   3.971   3.506  0.2413  0.4132 -0.0234
 2069SOL     OW 8348   2.225   4.234   3.419 -0.2972 -0.4960  0.2689
 2069SOL    HW2 8349   2.152   4.278   3.462  0.0953  0.4256  0.0255
 2069SOL    HW3 8350   2.215   4.257   3.326  0.9880  0.6853  0.3950
 2069SOL    MW4 8351   2.214   4.243   3.412 -0.0758 -0.2184  0.2534
 2070SOL     OW 8352   2.456   4.350   3.552  0.1708  0.5826  0.1818
 2070SOL    HW2 8353   2.441   4.364   3.645 -0.1264  0.2694  0.1816
 2070SOL    HW3 8354   2.373   4.316   3.519  0.6796 -0.5496  0.0562
 2070SOL    MW4 8355   2.443   4.348   3.560  0.1988  0.3915  0.1650
 2071SOL     OW 8356   2.952   4.620   3.378 -0.3857 -0.2758 -0.4335
 2071SOL    HW2 8357   2.866   4.643   3.415 -0.8104 -1.8232 -0.4234
 2071SOL    HW3 8358   2.937   4.620   3.283 -0.6385 -1.4286 -0.4007
 2071SOL    MW4 8359   2.938   4.623   3.370 -0.4752 -0.6318 -0.4275
 2072SOL     OW 8360   2.704   0.032   3.491 -0.2001  0.1067  0.2356
 2072SOL    HW2 8361   2.717   0.121   3.456  1.4920 -0.5040 -0.7432
 2072SOL    HW3 8362   2.614   0.010   3.466 -0.3257  1.1962 -0.3186
 2072SOL    MW4 8363   2.694   0.041   3.483  0.0064  0.1699  0.0334
 2073SOL     OW 8364   2.701   0.295   3.404  0.2459  0.2708  0.3328
 2073SOL    HW2 8365   2.783   0.339   3.425  0.3975  0.5329 -0.7874
 2073SOL    HW3 8366   2.695   0.298   3.308 -0.5726 -0.6411  0.3416
 2073SOL    MW4 8367   2.711   0.301   3.394  0.1578  0.1851  0.1860
 2074SOL     OW 8368   2.923   0.448   3.487  0.2008  0.2837 -0.0273
 2074SOL    HW2 8369   2.906   0.454   3.581  0.3286 -1.7273  0.1526
 2074SOL    HW3 8370   2.914   0.537   3.455 -0.7403  0.8472  1.7455
 2074SOL    MW4 8371   2.920   0.460   3.496  0.0937  0.0927  0.2303
 2075SOL     OW 8372   2.904   0.714   3.408  0.1909 -0.1080  0.5886
 2075SOL    HW2 8373   2.982   0.763   3.433 -0.8030  1.0739  1.4208
 2075SOL    HW3 8374   2.832   0.761   3.449 -1.0147 -0.8973 -0.5853
 2075SOL    MW4 8375   2.905   0.727   3.417 -0.0994 -0.0563  0.5436
 2076SOL     OW 8376   2.678   0.849   3.495 -0.2618  0.0878  0.2742
 2076SOL    HW2 8377   2.697   0.879   3.584 -2.2503  0.5432  0.5648
 2076SOL    HW3 8378   2.691   0.926   3.440  0.1791  0.0131  0.2727
 2076SOL    MW4 8379   2.682   0.863   3.499 -0.4659  0.1380  0.3123
 2077SOL     OW 8380   2.714   1.104   3.350 -0.0359  0.2894 -0.4930
 2077SOL    HW2 8381   2.791   1.158   3.367  0.9768 -1.0405 -0.7810
 2077SOL    HW3 8382   2.706   1.104   3.254 -0.7179  0.8668 -0.4374
 2077SOL    MW4 8383   2.723   1.111   3.339  0.0079  0.1900 -0.5236
 2078SOL     OW 8384   2.938   1.249   3.436  0.1401  0.1534 -0.0370
 2078SOL    HW2 8385   2.933   1.235   3.531  0.1855 -2.1020 -0.3362
 2078SOL    HW3 8386   3.013   1.196   3.408 -1.3439 -1.1438 -1.6594
 2078SOL    MW4 8387   2.947   1.240   3.445 -0.0496 -0.3153 -0.2906
 2079SOL     OW 8388   2.955   1.536   3.358 -0.2818  0.2726  0.2222
 2079SOL    HW2 8389   2.880   1.572   3.406 -0.2031  0.1055  0.4673
 2079SOL    HW3 8390   2.944   1.441   3.364 -0.1281  0.2499  0.1353
 2079SOL    MW4 8391   2.944   1.528   3.365 -0.2511  0.2476  0.2429
 2080SOL     OW 8392   2.729   1.613   3.486  0.0727 -0.1866 -0.2011
 2080SOL    HW2 8393   2.742   1.702   3.455 -0.9357  0.4236  1.1293
 2080SOL    HW3 8394   2.639   1.592   3.461  0.3828 -0.9396 -0.7338
 2080SOL    MW4 8395   2.719   1.622   3.478 -0.0191 -0.2054 -0.0956
 2081SOL     OW 8396   2.712   1.887   3.413  0.1998 -0.3188  0.1012
 2081SOL    HW2 8397   2.628   1.919   3.445  1.2772  1.3897  1.2646
 2081SOL    HW3 8398   2.708   1.901   3.318 -0.4147  0.6907  0.2723
 2081SOL    MW4 8399   2.700   1.893   3.405  0.2608  0.0399  0.2773
 2082SOL     OW 8400   2.900   2.063   3.523  0.0250 -0.1454 -0.1162
 2082SOL    HW2 8401   2.883   2.055   3.617  0.7741 -1.5303 -0.0823
 2082SOL    HW3 8402   2.841   1.998   3.483 -0.6858  0.8196 -0.6478
 2082SOL    MW4 8403   2.890   2.053   3.530  0.0303 -0.2010 -0.1822
 2083SOL     OW 8404   2.892   2.338   3.412 -0.7318  0.6333 -0.1649
 2083SOL    HW2 8405   2.889   2.246   3.440 -0.9889  0.7232  0.1047
 2083SOL    HW3 8406   2.885   2.334   3.317  2.7922  0.1683 -0.4873
 2083SOL    MW4 8407   2.891   2.325   3.403 -0.3011  0.5836 -0.1717
 2084SOL     OW 8408   2.642   2.420   3.504  0.2662 -0.0754 -0.1809
 2084SOL    HW2 8409   2.652   2.427   3.599 -1.4883  0.0202  0.0204
 2084SOL    HW3 8410   2.723   2.379   3.474  0.3786 -1.1170  1.4738
 2084SOL    MW4 8411   2.654   2.416   3.513  0.0494 -0.2005  0.0639
 2085SOL     OW 8412   2.681   2.644   3.381 -0.6526  0.0409  0.0538
 2085SOL    HW2 8413   2.671   2.557   3.417 -0.6569  0.0263  0.0185
 2085SOL    HW3 8414   2.612   2.696   3.423 -0.9719 -0.0936 -0.2997
 2085SOL    MW4 8415   2.671   2.640   3.391 -0.6957  0.0210  0.0024
 2086SOL     OW 8416   2.924   2.781   3.465  0.0147  0.5496 -0.5305
 2086SOL    HW2 8417   2.916   2.794   3.559 -0.4238  0.0288 -0.4870
 2086SOL    HW3 8418   2.847   2.728   3.442 -0.1462  1.0813 -1.2564
 2086SOL    MW4 8419   2.913   2.776   3.474 -0.0644  0.5512 -0.6206
 2087SOL     OW 8420   2.915   3.038   3.422  0.0455 -0.1770 -0.1559
 2087SOL    HW2 8421   2.912   2.943   3.434 -1.1639 -0.0965  0.3245
 2087SOL    HW3 8422   2.936   3.051   3.330  0.5110 -0.9065 -0.1510
 2087SOL    MW4 8423   2.917   3.027   3.412 -0.0529 -0.2625 -0.0920
 2088SOL     OW 8424   2.679   3.164   3.528  0.1772 -0.2855  0.0703
 2088SOL    HW2 8425   2.690   3.164   3.623  1.0928  0.4779 -0.0236
 2088SOL    HW3 8426   2.745   3.103   3.497  0.7311  0.4271 -0.1587
 2088SOL    MW4 8427   2.689   3.156   3.537  0.3712 -0.0908  0.0277
 2089SOL     OW 8428   2.708   3.421   3.394  0.0904  0.5954  0.1784
 2089SOL    HW2 8429   2.691   3.339   3.439 -0.6472  1.0371  0.7304
 2089SOL    HW3 8430   2.631   3.475   3.413 -0.0589  0.9203 -1.3078
 2089SOL    MW4 8431   2.696   3.417   3.403 -0.0265  0.6964  0.0553
 2090SOL     OW 8432   2.936   3.567   3.499  0.3789 -0.3775 -0.2892
 2090SOL    HW2 8433   2.915   3.656   3.471 -0.7182 -0.5032  0.0714
 2090SOL    HW3 8434   2.863   3.514   3.467  1.4460 -1.2900 -1.2252
 2090SOL    MW4 8435   2.923   3.571   3.491  0.3750 -0.5147 -0.3653
 2091SOL     OW 8436   2.915   3.820   3.395 -0.0064 -0.1456  0.7480
 2091SOL    HW2 8437   2.988   3.857   3.445  0.4380 -0.1739  0.1278
 2091SOL    HW3 8438   2.840   3.874   3.420  0.0495 -0.6229  2.0061
 2091SOL    MW4 8439   2.915   3.832   3.405  0.0596 -0.2124  0.8321
 2092SOL     OW 8440   2.693   4.004   3.464 -0.0343  0.1055  0.2542
 2092SOL    HW2 8441   2.676   4.003   3.558 -0.5074  0.6713  0.1752
 2092SOL    HW3 8442   2.702   4.097   3.441  2.9219 -0.1384  0.2350
 2092SOL    MW4 8443   2.692   4.016   3.473  0.2930  0.1478  0.2413
 2093SOL     OW 8444   2.676   4.276   3.400 -0.1050 -0.4904  0.3308
 2093SOL    HW2 8445   2.751   4.320   3.439 -0.3365  0.4616 -0.2772
 2093SOL    HW3 8446   2.602   4.302   3.455  0.0174 -1.5531  1.0244
 2093SOL    MW4 8447   2.676   4.285   3.413 -0.1192 -0.5050  0.3421
 2094SOL     OW 8448   2.932   4.349   3.500  0.0255 -0.2076  0.0775
 2094SOL    HW2 8449   2.919   4.338   3.594 -0.1618 -0.6995 -0.0035
 2094SOL    HW3 8450   2.975   4.434   3.491 -0.2425 -0.0178  0.5855
 2094SOL    MW4 8451   2.936   4.359   3.511 -0.0343 -0.2470  0.1340
 2095SOL     OW 8452   3.379   4.664   3.390 -0.2306  0.5590  0.0188
 2095SOL    HW2 8453   3.298   4.704   3.421 -0.5900  0.3941 -0.6969
 2095SOL    HW3 8454   3.364   4.647   3.297  0.0014 -0.9915  0.2456
 2095SOL    MW4 8455   3.366   4.667   3.382 -0.2472  0.3324 -0.0458
 2096SOL     OW 8456   3.153   0.087   3.507 -0.0595 -0.6789 -0.0265
 2096SOL    HW2 8457   3.153   0.172   3.464 -0.7476 -0.2031  0.8936
 2096SOL    HW3 8458   3.081   0.039   3.466  1.4070 -1.4734 -1.7661
 2096SOL    MW4 8459   3.143   0.092   3.496  0.0432 -0.7210 -0.1347
 2097SOL     OW 8460   3.171   0.337   3.403  0.0597 -0.0678 -0.5778
 2097SOL    HW2 8461   3.087   0.375   3.428  0.4794  0.7548 -0.4160
 2097SOL    HW3 8462   3.169   0.335   3.307 -0.7399 -1.4076 -0.5435
 2097SOL    MW4 8463   3.160   0.342   3.394  0.0093 -0.1360 -0.5519
 2098SOL     OW 8464   3.379   0.463   3.515  0.3756 -0.1532 -0.2833
 2098SOL    HW2 8465   3.371   0.452   3.610  1.2706 -0.0333 -0.1951
 2098SOL    HW3 8466   3.306   0.412   3.479  0.3360 -0.6221  0.4502
 2098SOL    MW4 8467   3.368   0.455   3.523  0.4883 -0.1992 -0.1748
 2099SOL     OW 8468   3.371   0.687   3.343  0.2390  0.1215  0.4849
 2099SOL    HW2 8469   3.452   0.727   3.374 -0.1929 -0.4078  2.3943
 2099SOL    HW3 8470   3.375   0.597   3.376  0.5243 -1.0008 -2.5042
 2099SOL    MW4 8471   3.382   0.680   3.352  0.2198 -0.0964  0.3424
 2100SOL     OW 8472   3.171   0.800   3.479 -0.1172  0.2381  0.2372
 2100SOL    HW2 8473   3.172   0.885   3.435  1.1051  1.0469  1.8110
 2100SOL    HW3 8474   3.251   0.756   3.449 -0.4432 -0.1429 -0.1002
 2100SOL    MW4 8475   3.182   0.805   3.469  0.0010  0.2944  0.4003
 2101SOL     OW 8476   3.153   1.049   3.339  0.3002 -0.3732 -0.2580
 2101SOL    HW2 8477   3.218   1.113   3.369  1.8153 -1.5855 -0.8423
 2101SOL    HW3 8478   3.147   1.064   3.244  0.7610 -1.1604 -0.4186
 2101SOL    MW4 8479   3.161   1.060   3.330  0.5608 -0.6369 -0.3562
 2102SOL     OW 8480   3.320   1.234   3.465 -0.3723 -0.3095 -0.0564
 2102SOL    HW2 8481   3.407   1.194   3.471 -0.0274  0.5847  1.1973
 2102SOL    HW3 8482   3.338   1.326   3.443 -1.1371 -0.7628 -2.7449
 2102SOL    MW4 8483   3.334   1.241   3.463 -0.4277 -0.2514 -0.2456
 2103SOL     OW 8484   3.360   1.517   3.421  0.4177 -0.1985  0.0840
 2103SOL    HW2 8485   3.434   1.576   3.437  0.2537 -0.2971  1.2313
 2103SOL    HW3 8486   3.284   1.564   3.455  0.2806 -1.0550  0.9804
 2103SOL    MW4 8487   3.360   1.531   3.427  0.3779 -0.3245  0.3536
 2104SOL     OW 8488   3.145   1.632   3.527  0.1565 -0.1301  0.6430
 2104SOL    HW2 8489   3.143   1.720   3.491  0.8032 -0.0157  0.8662
 2104SOL    HW3 8490   3.078   1.584   3.479  1.5072 -0.1826 -1.2492
 2104SOL    MW4 8491   3.136   1.637   3.516  0.4201 -0.1218  0.4227
 2105SOL     OW 8492   3.128   1.901   3.440  0.4449  0.0831  0.0325
 2105SOL    HW2 8493   3.060   1.962   3.468  1.5268  2.0277 -1.4103
 2105SOL    HW3 8494   3.132   1.912   3.345  1.3493 -1.5410 -0.1386
 2105SOL    MW4 8495   3.119   1.910   3.431  0.7071  0.1253 -0.1807
 2106SOL     OW 8496   3.378   2.046   3.473 -0.3927 -0.3314  0.6332
 2106SOL    HW2 8497   3.355   2.121   3.418 -1.6955 -1.5019 -0.4563
 2106SOL    HW3 8498   3.306   1.985   3.461  1.9622 -2.9294 -0.6466
 2106SOL    MW4 8499   3.366   2.048   3.464 -0.2539 -0.8285  0.3207
 2107SOL     OW 8500   3.313   2.280   3.359 -0.2229  0.2112 -0.1830
 2107SOL    HW2 8501   3.396   2.322   3.382  0.1410 -0.5176 -0.1599
 2107SOL    HW3 8502   3.248   2.325   3.413  0.3530 -0.1360  0.8187
 2107SOL    MW4 8503   3.315   2.291   3.369 -0.0989  0.0691 -0.0477
 2108SOL     OW 8504   3.159   2.450   3.496  0.6647  0.0789 -0.1422
 2108SOL    HW2 8505   3.182   2.519   3.434  0.8367 -0.1238 -0.3029
 2108SOL    HW3 8506   3.071   2.424   3.471  0.6563  0.1374 -0.1739
 2108SOL    MW4 8507   3.151   2.456   3.484  0.6862  0.0601 -0.1676
 2109SOL     OW 8508   3.177   2.697   3.347  0.2683  0.7707  0.2858
 2109SOL    HW2 8509   3.241   2.730   3.410 -1.4568  2.4630  1.1993
 2109SOL    HW3 8510   3.092   2.719   3.385 -0.8414 -0.0039 -1.6704
 2109SOL    MW4 8511   3.174   2.704   3.360 -0.1059  0.8919  0.1483
 2110SOL     OW 8512   3.368   2.813   3.500 -0.2785  0.1507  0.0220
 2110SOL    HW2 8513   3.441   2.780   3.447 -1.3449  0.4821 -1.6844
 2110SOL    HW3 8514   3.366   2.907   3.483  0.1495  0.4557  1.6354
 2110SOL    MW4 8515   3.377   2.821   3.490 -0.3626  0.2346  0.0098
 2111SOL     OW 8516   3.369   3.085   3.425 -0.2649  0.5730 -0.2625
 2111SOL    HW2 8517   3.448   3.135   3.445 -0.3819  1.8020 -2.7025
 2111SOL    HW3 8518   3.302   3.123   3.482 -0.0279  2.2545 -1.0792
 2111SOL    MW4 8519   3.371   3.097   3.436 -0.2491  0.9573 -0.6921
 2112SOL     OW 8520   3.139   3.186   3.542  0.4262  0.0462 -0.0866
 2112SOL    HW2 8521   3.141   3.276   3.510 -1.2428 -0.0232 -0.4074
 2112SOL    HW3 8522   3.061   3.148   3.502  0.8182 -1.3767  0.4907
 2112SOL    MW4 8523   3.129   3.193   3.533  0.2575 -0.1509 -0.0527
 2113SOL     OW 8524   3.149   3.433   3.424 -0.0504 -0.2908  0.2496
 2113SOL    HW2 8525   3.070   3.485   3.443 -0.5984 -1.2906  0.8052
 2113SOL    HW3 8526   3.162   3.442   3.330 -0.2382  0.7057  0.3109
 2113SOL    MW4 8527   3.140   3.441   3.414 -0.1476 -0.2913  0.3312
 2114SOL     OW 8528   3.359   3.599   3.515  0.3406 -0.0022  0.3698
 2114SOL    HW2 8529   3.365   3.682   3.467 -1.9471 -0.4053 -0.7133
 2114SOL    HW3 8530   3.288   3.552   3.471  0.2591 -1.6845  2.2529
 2114SOL    MW4 8531   3.350   3.604   3.503  0.0281 -0.2773  0.4754
 2115SOL     OW 8532   3.361   3.848   3.384 -0.1297  0.0263 -0.1215
 2115SOL    HW2 8533   3.431   3.887   3.436 -0.7733  0.9333  0.0711
 2115SOL    HW3 8534   3.282   3.893   3.413 -0.7464 -0.7614 -0.5754
 2115SOL    MW4 8535   3.360   3.859   3.395 -0.2964  0.0420 -0.1559
 2116SOL     OW 8536   3.115   3.951   3.490  0.4995 -0.1706 -0.0226
 2116SOL    HW2 8537   3.135   3.945   3.584 -1.7171  1.1897  0.5675
 2116SOL    HW3 8538   3.125   4.044   3.470 -0.1181 -0.2843 -0.8774
 2116SOL    MW4 8539   3.119   3.963   3.500  0.1254 -0.0062 -0.0575
 2117SOL     OW 8540   3.148   4.212   3.401 -0.0337 -0.0882  0.0616
 2117SOL    HW2 8541   3.214   4.281   3.408 -0.1742  0.0401  0.1187
 2117SOL    HW3 8542   3.069   4.250   3.439 -0.0144 -0.4053  0.4180
 2117SOL    MW4 8543   3.146   4.226   3.407 -0.0496 -0.1135  0.1163
 2118SOL     OW 8544   3.348   4.399   3.478  0.1818  0.3706 -0.2620
 2118SOL    HW2 8545   3.346   4.406   3.574 -1.2184 -0.1130 -0.2415
 2118SOL    HW3 8546   3.359   4.489   3.448 -0.0531  0.6120  0.3544
 2118SOL    MW4 8547   3.349   4.412   3.487 -0.0339  0.3386 -0.1779
 2119SOL     OW 8548   3.800   4.611   3.383 -0.2161 -0.0082  0.6944
 2119SOL    HW2 8549   3.732   4.658   3.431  1.0692  0.4494  2.1484
 2119SOL    HW3 8550   3.801   4.651   3.296 -0.1337  1.6796  1.4527
 2119SOL    MW4 8551   3.791   4.622   3.378 -0.0360  0.2747  0.9863
 2120SOL     OW 8552   3.612   0.105   3.511  0.3132 -0.3389  0.0696
 2120SOL    HW2 8553   3.631   0.187   3.465  1.6863 -0.8810 -0.3741
 2120SOL    HW3 8554   3.530   0.074   3.473 -0.1176  0.7448  0.1197
 2120SOL    MW4 8555   3.604   0.111   3.500  0.4377 -0.2674  0.0174
 2121SOL     OW 8556   3.605   0.330   3.359 -0.5427  0.0214 -0.1165
 2121SOL    HW2 8557   3.672   0.390   3.394 -0.1651 -0.2674 -0.3473
 2121SOL    HW3 8558   3.528   0.345   3.415 -0.9790  1.8962 -1.1726
 2121SOL    MW4 8559   3.603   0.340   3.371 -0.5505  0.2307 -0.2861
 2122SOL     OW 8560   3.782   0.487   3.493 -0.3416 -0.4691  0.3590
 2122SOL    HW2 8561   3.768   0.474   3.586  1.0124  1.7372  0.9126
 2122SOL    HW3 8562   3.872   0.458   3.477  0.1617  1.1419  0.1788
 2122SOL    MW4 8563   3.792   0.482   3.503 -0.0963  0.0345  0.4082
 2123SOL     OW 8564   3.834   0.756   3.392 -0.4993  0.3001 -0.2282
 2123SOL    HW2 8565   3.911   0.794   3.433 -0.2919 -0.3331 -0.0198
 2123SOL    HW3 8566   3.814   0.679   3.445 -0.8835  0.0925 -0.6681
 2123SOL    MW4 8567   3.841   0.751   3.404 -0.5226  0.1892 -0.2584
 2124SOL     OW 8568   3.571   0.848   3.438 -0.3634  0.2605  0.0866
 2124SOL    HW2 8569   3.555   0.855   3.532  0.3016  0.3098  0.1916
 2124SOL    HW3 8570   3.666   0.841   3.429 -0.5038 -0.9947 -0.5059
 2124SOL    MW4 8571   3.581   0.848   3.449 -0.2940  0.1014  0.0224
 2125SOL     OW 8572   3.578   1.133   3.426  0.1323  0.2732 -0.0946
 2125SOL    HW2 8573   3.594   1.039   3.429 -0.2191  0.1968 -0.6981
 2125SOL    HW3 8574   3.559   1.152   3.334 -1.2410  0.6934  0.2659
 2125SOL    MW4 8575   3.578   1.123   3.414 -0.0956  0.3184 -0.1268
 2126SOL     OW 8576   3.816   1.284   3.480  0.2822  0.0218  0.1564
 2126SOL    HW2 8577   3.833   1.280   3.574  0.2153  0.4302  0.1884
 2126SOL    HW3 8578   3.733   1.237   3.468 -0.2462  0.8718  0.4446
 2126SOL    MW4 8579   3.807   1.278   3.491  0.2038  0.1879  0.1981
 2127SOL     OW 8580   3.810   1.543   3.360  0.3369 -0.1869 -0.1824
 2127SOL    HW2 8581   3.876   1.597   3.403 -0.6619  0.8843  0.0140
 2127SOL    HW3 8582   3.815   1.459   3.405  1.4067 -0.0453 -0.0242
 2127SOL    MW4 8583   3.819   1.539   3.371  0.3459 -0.0269 -0.1359
 2128SOL     OW 8584   3.580   1.684   3.470  0.0343  0.0395  0.3666
 2128SOL    HW2 8585   3.654   1.635   3.433  0.5724  1.2644 -0.2047
 2128SOL    HW3 8586   3.589   1.673   3.564  1.1372  0.4418  0.3193
 2128SOL    MW4 8587   3.591   1.676   3.477  0.2508  0.2543  0.2851
 2129SOL     OW 8588   3.613   1.939   3.400 -0.4957  0.0717  0.0353
 2129SOL    HW2 8589   3.533   1.983   3.428 -0.4779  0.3279 -0.3005
 2129SOL    HW3 8590   3.604   1.849   3.430 -1.0602  0.0212 -0.2938
 2129SOL    MW4 8591   3.602   1.933   3.407 -0.5677  0.0987 -0.0527
 2130SOL     OW 8592   3.843   2.076   3.484 -0.0747 -0.2911 -0.3666
 2130SOL    HW2 8593   3.835   2.067   3.579  0.5298 -1.3706 -0.4098
 2130SOL    HW3 8594   3.764   2.034   3.450  0.2700 -0.9490 -0.3741
 2130SOL    MW4 8595   3.831   2.069   3.492  0.0508 -0.5205 -0.3734
 2131SOL     OW 8596   3.806   2.314   3.357  0.2436  0.1915 -0.3233
 2131SOL    HW2 8597   3.874   2.377   3.381 -0.1002 -0.0825  1.4309
 2131SOL    HW3 8598   3.819   2.242   3.418 -1.7060  0.1764  0.0766
 2131SOL    MW4 8599   3.817   2.313   3.368 -0.0591  0.1535 -0.0393
 2132SOL     OW 8600   3.550   2.410   3.440  0.7032 -0.3699  0.1212
 2132SOL    HW2 8601   3.550   2.495   3.397 -1.3716 -0.7614 -0.7518
 2132SOL    HW3 8602   3.638   2.375   3.426  1.2145  1.1397 -0.4854
 2132SOL    MW4 8603   3.561   2.416   3.433  0.4969 -0.2224 -0.0739
 2133SOL     OW 8604   3.574   2.678   3.358  0.8654 -0.8106  0.0880
 2133SOL    HW2 8605   3.649   2.734   3.373 -0.2648  0.7763 -0.0945
 2133SOL    HW3 8606   3.569   2.669   3.263  0.4374 -0.3674  0.0662
 2133SOL    MW4 8607   3.583   2.684   3.348  0.6597 -0.5426  0.0613
 2134SOL     OW 8608   3.785   2.847   3.437  0.4420 -0.1584 -0.2661
 2134SOL    HW2 8609   3.786   2.842   3.533  1.4938 -0.2778 -0.2782
 2134SOL    HW3 8610   3.805   2.938   3.418  0.5405 -0.2037 -0.3781
 2134SOL    MW4 8611   3.788   2.858   3.447  0.5939 -0.1800 -0.2825
 2135SOL     OW 8612   3.825   3.109   3.389 -0.4520  0.4112 -0.1249
 2135SOL    HW2 8613   3.889   3.165   3.434  1.2107 -1.2236 -0.3933
 2135SOL    HW3 8614   3.850   3.114   3.297 -1.0895  0.2199 -0.3099
 2135SOL    MW4 8615   3.837   3.117   3.383 -0.3169  0.1702 -0.1845
 2136SOL     OW 8616   3.597   3.220   3.509  0.0938 -0.3024 -0.4641
 2136SOL    HW2 8617   3.587   3.315   3.496  1.3511  0.0872  1.1248
 2136SOL    HW3 8618   3.683   3.200   3.471  0.1620 -0.6555 -0.1295
 2136SOL    MW4 8619   3.607   3.230   3.502  0.2687 -0.2975 -0.2105
 2137SOL     OW 8620   3.587   3.469   3.420  0.1346  0.3511 -0.2435
 2137SOL    HW2 8621   3.511   3.526   3.434  1.0346  1.0026  2.2771
 2137SOL    HW3 8622   3.606   3.479   3.327 -1.6301  1.7684 -0.4997
 2137SOL    MW4 8623   3.579   3.478   3.410  0.0203  0.6239  0.0551
 2138SOL     OW 8624   3.804   3.632   3.486 -0.1049 -0.3209  0.5735
 2138SOL    HW2 8625   3.819   3.616   3.579 -0.5915  0.5320  0.8003
 2138SOL    HW3 8626   3.727   3.580   3.465  0.0112 -0.5224  0.6450
 2138SOL    MW4 8627   3.796   3.623   3.496 -0.1538 -0.2351  0.6130
 2139SOL     OW 8628   3.835   3.891   3.395  0.1083  0.9736  0.3361
 2139SOL    HW2 8629   3.755   3.927   3.432 -0.7603  0.3219 -0.8463
 2139SOL    HW3 8630   3.835   3.799   3.422 -0.5031  0.5062 -1.1638
 2139SOL    MW4 8631   3.825   3.883   3.403 -0.0868  0.8259 -0.0179
 2140SOL     OW 8632   3.575   3.977   3.480 -0.0158  0.3601 -0.5914
 2140SOL    HW2 8633   3.587   3.969   3.575  0.1227 -2.9512 -0.8466
 2140SOL    HW3 8634   3.584   4.071   3.463  0.1481  0.9904  2.6349
 2140SOL    MW4 8635   3.578   3.988   3.491  0.0238  0.0064 -0.1991
 2141SOL     OW 8636   3.584   4.260   3.421  0.1744 -0.0863 -0.1310
 2141SOL    HW2 8637   3.503   4.303   3.449 -0.9744 -1.4208 -1.3144
 2141SOL    HW3 8638   3.584   4.270   3.326  0.2482 -2.0476 -0.3560
 2141SOL    MW4 8639   3.573   4.267   3.412  0.0329 -0.5212 -0.3166
 2142SOL     OW 8640   3.812   4.365   3.526 -0.1562  0.0981 -0.0161
 2142SOL    HW2 8641   3.724   4.344   3.496 -0.1227 -0.7892  0.4822
 2142SOL    HW3 8642   3.829   4.453   3.493 -1.4214  0.4692  0.3056
 2142SOL    MW4 8643   3.803   4.373   3.518 -0.3188  0.0300  0.0920
 2143SOL     OW 8644   4.236   4.667   3.405 -0.0377  0.0504  0.0001
 2143SOL    HW2 8645   4.223   4.586   3.455 -0.2426  0.5293  0.7212
 2143SOL    HW3 8646   4.314   4.706   3.444 -1.6471  1.6868  1.5970
 2143SOL    MW4 8647   4.245   4.661   3.416 -0.2770  0.3295  0.3061
 2144SOL     OW 8648   4.003   0.099   3.510 -0.0930  0.5821 -0.1649
 2144SOL    HW2 8649   4.086   0.072   3.472 -0.2996  1.1884 -1.0883
 2144SOL    HW3 8650   3.937   0.054   3.457 -0.3397 -0.6532  1.1659
 2144SOL    MW4 8651   4.005   0.090   3.498 -0.1526  0.4991 -0.1111
 2145SOL     OW 8652   4.012   0.360   3.413  0.5605 -0.0230  0.0045
 2145SOL    HW2 8653   4.009   0.269   3.444 -0.8241  0.7797  2.4081
 2145SOL    HW3 8654   4.032   0.353   3.320  0.0609 -2.8216  0.0523
 2145SOL    MW4 8655   4.014   0.347   3.405  0.3119 -0.2863  0.3283
 2146SOL     OW 8656   4.229   0.503   3.531 -0.2894  0.3416  0.0446
 2146SOL    HW2 8657   4.228   0.583   3.480  0.0675 -0.1860 -0.7918
 2146SOL    HW3 8658   4.148   0.458   3.507 -0.7820  0.7245  0.9585
 2146SOL    MW4 8659   4.218   0.507   3.521 -0.3076  0.3225  0.0548
 2147SOL     OW 8660   4.252   0.753   3.403  0.0726 -0.1964  0.2754
 2147SOL    HW2 8661   4.317   0.815   3.435 -1.0951  0.6202  1.1088
 2147SOL    HW3 8662   4.264   0.752   3.308  1.9899 -0.8478  0.5190
 2147SOL    MW4 8663   4.262   0.761   3.395  0.1712 -0.1746  0.4172
 2148SOL     OW 8664   4.047   0.895   3.520  0.3690 -0.0351 -0.1367
 2148SOL    HW2 8665   4.039   0.978   3.472 -0.2413  0.3148  0.5534
 2148SOL    HW3 8666   4.117   0.848   3.475  0.3513  0.6269 -0.8726
 2148SOL    MW4 8667   4.055   0.900   3.508  0.2861  0.0983 -0.1428
 2149SOL     OW 8668   4.055   1.158   3.401 -0.6116 -0.4169  0.0721
 2149SOL    HW2 8669   4.125   1.214   3.435 -0.1927 -0.5547 -0.5536
 2149SOL    HW3 8670   3.975   1.198   3.435 -0.2716  0.0993  0.2906
 2149SOL    MW4 8671   4.054   1.171   3.410 -0.5116 -0.3670  0.0186
 2150SOL     OW 8672   4.264   1.308   3.518 -0.1428  0.0042 -0.2770
 2150SOL    HW2 8673   4.271   1.394   3.477  0.9950  0.6880  1.3095
 2150SOL    HW3 8674   4.334   1.256   3.477 -0.9075 -0.2291 -1.3231
 2150SOL    MW4 8675   4.274   1.312   3.507 -0.0935  0.0635 -0.2055
 2151SOL     OW 8676   4.260   1.568   3.359 -0.2275 -0.7539 -0.0032
 2151SOL    HW2 8677   4.170   1.582   3.388 -0.0612  1.5974 -0.4708
 2151SOL    HW3 8678   4.254   1.555   3.265 -0.1044 -0.7407 -0.0141
 2151SOL    MW4 8679   4.247   1.568   3.351 -0.1893 -0.4419 -0.0663
 2152SOL     OW 8680   4.020   1.691   3.450 -0.0001 -0.4682 -0.5348
 2152SOL    HW2 8681   4.025   1.693   3.546 -1.0655 -1.4609 -0.4472
 2152SOL    HW3 8682   4.034   1.782   3.424 -1.0666  0.0542  0.6368
 2152SOL    MW4 8683   4.023   1.703   3.460 -0.2809 -0.5301 -0.3686
 2153SOL     OW 8684   4.066   1.954   3.385 -0.4635 -0.0444 -0.2978
 2153SOL    HW2 8685   3.989   2.002   3.414 -0.4441 -0.4885  0.4908
 2153SOL    HW3 8686   4.060   1.956   3.289 -0.8278  0.9244 -0.2635
 2153SOL    MW4 8687   4.055   1.961   3.376 -0.5088  0.0248 -0.1893
 2154SOL     OW 8688   4.288   2.107   3.489  0.1895  0.1348  0.1979
 2154SOL    HW2 8689   4.280   2.195   3.452 -0.7367 -0.3484 -0.7781
 2154SOL    HW3 8690   4.209   2.061   3.459  1.6153 -1.6305 -0.9045
 2154SOL    MW4 8691   4.276   2.112   3.480  0.2551 -0.1619 -0.0763
 2155SOL     OW 8692   4.263   2.356   3.399 -0.3347  0.0350 -0.7537
 2155SOL    HW2 8693   4.181   2.403   3.417 -0.0251  0.4244 -0.3518
 2155SOL    HW3 8694   4.262   2.342   3.304 -0.6364  0.4712 -0.8152
 2155SOL    MW4 8695   4.252   2.360   3.389 -0.3333  0.1438 -0.7086
 2156SOL     OW 8696   3.996   2.480   3.471  0.1068 -0.4485 -0.3498
 2156SOL    HW2 8697   3.997   2.478   3.567 -1.5763  1.8684 -0.2470
 2156SOL    HW3 8698   3.999   2.573   3.449  2.8573 -1.0190 -2.6343
 2156SOL    MW4 8699   3.996   2.492   3.481  0.2477 -0.2182 -0.6378
 2157SOL     OW 8700   4.026   2.735   3.379 -0.8111 -0.2639  0.1492
 2157SOL    HW2 8701   4.081   2.794   3.430 -0.2684 -0.3140 -0.3829
 2157SOL    HW3 8702   3.936   2.764   3.398 -0.5799  0.1974  0.5401
 2157SOL    MW4 8703   4.021   2.747   3.388 -0.7091 -0.2098  0.1304
 2158SOL     OW 8704   4.262   2.858   3.480  0.2689 -0.0318 -0.4021
 2158SOL    HW2 8705   4.264   2.866   3.575 -1.5020 -2.0041 -0.1564
 2158SOL    HW3 8706   4.319   2.784   3.461  0.0790 -0.0777 -0.7966
 2158SOL    MW4 8707   4.270   2.849   3.490  0.0100 -0.2980 -0.4218
 2159SOL     OW 8708   4.257   3.147   3.437 -0.3435  0.1933 -0.2135
 2159SOL    HW2 8709   4.262   3.054   3.460  0.1870  0.4674  0.7913
 2159SOL    HW3 8710   4.262   3.147   3.341 -1.1452 -0.8587 -0.2638
 2159SOL    MW4 8711   4.258   3.135   3.427 -0.3796  0.0906 -0.0873
 2160SOL     OW 8712   4.007   3.277   3.508 -0.3624  0.0714  0.1048
 2160SOL    HW2 8713   3.982   3.350   3.451 -0.8606 -0.5421 -0.4816
 2160SOL    HW3 8714   4.098   3.257   3.483 -0.6151 -0.2619 -0.5461
 2160SOL    MW4 8715   4.016   3.284   3.497 -0.4616 -0.0532 -0.0579
 2161SOL     OW 8716   4.019   3.516   3.358  0.2429 -0.2431  0.2074
 2161SOL    HW2 8717   4.095   3.549   3.407  0.3221 -1.6006  0.9995
 2161SOL    HW3 8718   3.945   3.565   3.393  0.7815  1.3493 -0.8169
 2161SOL    MW4 8719   4.019   3.527   3.369  0.3242 -0.2122  0.1769
 2162SOL     OW 8720   4.245   3.605   3.512  0.1853 -0.2372 -0.0199
 2162SOL    HW2 8721   4.245   3.614   3.608 -0.2502  0.6350 -0.1002
 2162SOL    HW3 8722   4.269   3.691   3.480  0.6527 -0.6194 -0.6941
 2162SOL    MW4 8723   4.248   3.617   3.521  0.1898 -0.1726 -0.1192
 2163SOL     OW 8724   4.305   3.858   3.427 -0.3209  0.5500  0.1220
 2163SOL    HW2 8725   4.362   3.928   3.459  1.1154 -0.1391 -0.8639
 2163SOL    HW3 8726   4.311   3.863   3.332 -0.6191 -0.5634  0.0334
 2163SOL    MW4 8727   4.314   3.868   3.419 -0.1707  0.3123 -0.0198
 2164SOL     OW 8728   4.067   3.990   3.512 -0.1969  0.0220 -0.3748
 2164SOL    HW2 8729   4.146   3.950   3.477 -0.6843  0.2225 -1.7608
 2164SOL    HW3 8730   3.995   3.938   3.475 -0.7331  0.3006  0.2634
 2164SOL    MW4 8731   4.068   3.978   3.502 -0.3319  0.0854 -0.4735
 2165SOL     OW 8732   4.031   4.235   3.408 -0.0704 -0.3767  0.1086
 2165SOL    HW2 8733   4.048   4.144   3.433  1.3946  0.2211  1.3325
 2165SOL    HW3 8734   3.958   4.263   3.464  0.6152 -0.2627  0.9446
 2165SOL    MW4 8735   4.024   4.227   3.418  0.2131 -0.2832  0.3803
 2166SOL     OW 8736   4.215   4.407   3.517 -0.1950  0.2013  0.5925
 2166SOL    HW2 8737   4.212   4.409   3.613 -1.0277  1.3172  0.5460
 2166SOL    HW3 8738   4.146   4.345   3.492 -0.8324  0.8670  0.6793
 2166SOL    MW4 8739   4.205   4.399   3.526 -0.3896  0.4363  0.5977
 2167SOL     OW 8740   0.187   0.037   3.894  0.5158  0.4630 -0.3195
 2167SOL    HW2 8741   0.201   0.050   3.987  0.4330  1.4590 -0.4418
 2167SOL    HW3 8742   0.095   0.058   3.880  0.4826  0.1396 -0.5979
 2167SOL    MW4 8743   0.177   0.042   3.904  0.5005  0.5518 -0.3726
 2168SOL     OW 8744   4.411   0.078   3.793 -0.5585 -0.3669  0.0983
 2168SOL    HW2 8745   4.400   0.173   3.790 -0.4246 -0.3288  0.7228
 2168SOL    HW3 8746   4.432   0.053   3.703  0.9422  0.3860  0.2285
 2168SOL    MW4 8747   4.412   0.087   3.781 -0.3433 -0.2625  0.1979
 2169SOL     OW 8748   4.470   0.349   3.821  0.5076  0.0166  0.1060
 2169SOL    HW2 8749   4.396   0.409   3.807 -0.3062 -0.6932  1.2792
 2169SOL    HW3 8750   4.547   0.399   3.795 -0.5536  0.0859 -3.0976
 2169SOL    MW4 8751   4.470   0.364   3.816  0.2604 -0.0679 -0.1619
 2170SOL     OW 8752   0.214   0.488   3.771  0.0621  0.0764 -0.4391
 2170SOL    HW2 8753   0.193   0.573   3.810 -1.5678 -0.2560 -0.5645
 2170SOL    HW3 8754   0.230   0.507   3.679  0.9893  0.4298 -0.2118
 2170SOL    MW4 8755   0.213   0.502   3.764 -0.0306  0.0792 -0.4258
 2171SOL     OW 8756   0.194   0.752   3.892  0.0281  0.6112 -0.1958
 2171SOL    HW2 8757   0.196   0.758   3.988 -0.0135  0.5248 -0.1892
 2171SOL    HW3 8758   0.121   0.808   3.866 -0.0267  0.5521 -0.1699
 2171SOL    MW4 8759   0.185   0.760   3.901  0.0154  0.5921 -0.1917
 2172SOL     OW 8760   0.009   0.912   3.803 -0.4583 -0.1544  0.3585
 2172SOL    HW2 8761  -0.064   0.860   3.836 -0.2970 -1.1793 -0.9164
 2172SOL    HW3 8762  -0.005   0.999   3.842 -1.3152 -0.8419  1.6121
 2172SOL    MW4 8763  -0.002   0.917   3.813 -0.5501 -0.3803  0.3560
 2173SOL     OW 8764   0.005   1.169   3.900  0.5355  0.2534  0.2422
 2173SOL    HW2 8765  -0.071   1.214   3.864  1.1053 -0.4749 -1.9054
 2173SOL    HW3 8766   0.080   1.222   3.871  0.9503  0.1229  1.0662
 2173SOL    MW4 8767   0.005   1.182   3.892  0.6657  0.1401  0.0677
 2174SOL     OW 8768   0.242   1.284   3.770  0.0754  0.7689 -0.0839
 2174SOL    HW2 8769   0.272   1.367   3.808 -1.6137  1.7969 -0.8870
 2174SOL    HW3 8770   0.240   1.301   3.676 -1.1459  0.1145 -0.1815
 2174SOL    MW4 8771   0.246   1.297   3.763 -0.3086  0.8181 -0.2029
 2175SOL     OW 8772   0.245   1.562   3.901  0.2787 -0.0493 -0.4030
 2175SOL    HW2 8773   0.263   1.577   3.994  0.3425 -0.6655 -0.3192
 2175SOL    HW3 8774   0.154   1.588   3.890 -0.2850 -1.7167  0.2179
 2175SOL    MW4 8775   0.236   1.568   3.912  0.2127 -0.3507 -0.3099
 2176SOL     OW 8776   4.482   1.641   3.775  0.1401 -0.1445 -0.0275
 2176SOL    HW2 8777   4.486   1.735   3.795  1.1929 -0.1755 -0.0631
 2176SOL    HW3 8778   4.508   1.636   3.683 -0.9626 -0.3761 -0.3373
 2176SOL    MW4 8779   4.486   1.653   3.765  0.1330 -0.1792 -0.0734
 2177SOL     OW 8780   4.449   1.903   3.868 -0.0503 -0.7952  0.0494
 2177SOL    HW2 8781   4.454   1.931   3.959 -0.4717 -1.4476  0.2841
 2177SOL    HW3 8782   4.382   1.960   3.829 -1.2873 -1.7916  0.6541
 2177SOL    MW4 8783   4.441   1.914   3.875 -0.2689 -1.0128  0.1602
 2178SOL     OW 8784   0.194   2.031   3.806 -0.2064 -0.1037  0.5606
 2178SOL    HW2 8785   0.208   2.114   3.852 -0.0998 -0.6811  1.5770
 2178SOL    HW3 8786   0.111   1.997   3.840 -0.9357  0.2285 -0.8399
 2178SOL    MW4 8787   0.185   2.038   3.817 -0.2885 -0.1361  0.5097
 2179SOL     OW 8788   0.223   2.313   3.894  0.5364 -0.4392 -0.2476
 2179SOL    HW2 8789   0.231   2.306   3.989  1.2339  1.1275 -0.1777
 2179SOL    HW3 8790   0.148   2.371   3.881  0.1763 -0.9924 -0.6700
 2179SOL    MW4 8791   0.214   2.320   3.905  0.5809 -0.3057 -0.2940
 2180SOL     OW 8792   0.004   2.466   3.798 -0.2959  0.4340  0.0226
 2180SOL    HW2 8793  -0.081   2.435   3.829  0.1477  0.4876  1.3261
 2180SOL    HW3 8794   0.009   2.557   3.828 -0.8856  1.2792 -2.3321
 2180SOL    MW4 8795  -0.006   2.474   3.806 -0.3152  0.5527 -0.1161
 2181SOL     OW 8796   4.488   2.746   3.920 -0.4329  0.2807 -0.0196
 2181SOL    HW2 8797   4.467   2.726   4.012 -2.1542  1.3455 -0.1686
 2181SOL    HW3 8798   4.569   2.796   3.925 -0.6319  0.5194  0.9326
 2181SOL    MW4 8799   4.496   2.750   3.933 -0.6863  0.4528  0.0863
 2182SOL     OW 8800   0.233   2.877   3.841 -0.3967 -0.0087 -0.0660
 2182SOL    HW2 8801   0.308   2.828   3.876  0.1723  0.6540 -0.3628
 2182SOL    HW3 8802   0.221   2.842   3.753 -0.7813 -0.4990  0.1791
 2182SOL    MW4 8803   0.241   2.866   3.834 -0.3724  0.0141 -0.0725
 2183SOL     OW 8804   0.232   3.142   3.918  0.4274  0.4910  0.0186
 2183SOL    HW2 8805   0.221   3.132   4.013  3.3003 -1.0783  0.2439
 2183SOL    HW3 8806   0.245   3.053   3.886  1.9457  1.2209 -1.4700
 2183SOL    MW4 8807   0.232   3.129   3.927  1.0067  0.3803 -0.1481
 2184SOL     OW 8808   4.484   3.224   3.831 -0.1363 -0.2505 -0.2985
 2184SOL    HW2 8809   4.569   3.201   3.869 -0.7583 -1.5522  0.3417
 2184SOL    HW3 8810   4.501   3.229   3.737  0.8369  0.3995 -0.1036
 2184SOL    MW4 8811   4.498   3.222   3.824 -0.0901 -0.3364 -0.1884
 2185SOL     OW 8812   4.456   3.500   3.903  0.1205  0.5172  0.5804
 2185SOL    HW2 8813   4.536   3.543   3.872  0.9626 -1.3909  0.0354
 2185SOL    HW3 8814   4.467   3.408   3.878 -2.3601  0.2740  0.3085
 2185SOL    MW4 8815   4.468   3.493   3.896 -0.0958  0.2332  0.4725
 2186SOL     OW 8816   0.193   3.625   3.811 -0.2433  0.4338  0.1606
 2186SOL    HW2 8817   0.257   3.570   3.857 -1.2654  0.1552  1.2595
 2186SOL    HW3 8818   0.190   3.705   3.862  0.5080  1.1464 -0.8847
 2186SOL    MW4 8819   0.201   3.628   3.823 -0.2790  0.4914  0.1674
 2187SOL     OW 8820   0.181   3.875   3.952 -0.0496  0.5145  0.2066
 2187SOL    HW2 8821   0.201   3.882   4.045  1.6405 -0.1036 -0.0860
 2187SOL    HW3 8822   0.247   3.931   3.909 -0.6230  0.5545 -0.6418
 2187SOL    MW4 8823   0.193   3.884   3.958  0.0978  0.4382  0.0560
 2188SOL     OW 8824   4.477   4.022   3.808 -0.1277 -0.2436  0.1476
 2188SOL    HW2 8825   4.403   3.962   3.814  0.1361 -0.6853 -0.9134
 2188SOL    HW3 8826   4.545   3.981   3.862 -0.6901  0.2227  1.2159
 2188SOL    MW4 8827   4.477   4.008   3.816 -0.1671 -0.2398  0.1485
 2189SOL     OW 8828   4.454   4.282   3.885  0.4497 -0.2042  0.0649
 2189SOL    HW2 8829   4.531   4.336   3.866  0.5149 -0.0588  0.7433
 2189SOL    HW3 8830   4.479   4.194   3.858  1.3196 -0.4000  1.4376
 2189SOL    MW4 8831   4.467   4.278   3.879  0.5727 -0.2108  0.3355
 2190SOL     OW 8832   0.185   4.424   3.818 -0.2549 -0.2488 -0.0393
 2190SOL    HW2 8833   0.267   4.393   3.857 -1.0163 -0.7281  1.2032
 2190SOL    HW3 8834   0.191   4.519   3.824  0.1744 -0.2843  0.1497
 2190SOL    MW4 8835   0.196   4.432   3.824 -0.2988 -0.3166  0.1497
 2191SOL     OW 8836   0.653   4.657   3.918 -0.2113 -0.2878 -0.2135
 2191SOL    HW2 8837   0.654   4.568   3.883  0.4534  0.5494 -2.4020
 2191SOL    HW3 8838   0.578   4.699   3.875 -0.3368  0.2917  0.5705
 2191SOL    MW4 8839   0.643   4.651   3.908 -0.1401 -0.1008 -0.3989
 2192SOL     OW 8840   0.445   0.176   3.820  0.2757  0.6208 -0.0220
 2192SOL    HW2 8841   0.459   0.268   3.843  0.5928  0.8781 -1.2238
 2192SOL    HW3 8842   0.356   0.157   3.849  0.5805  1.0074  1.1774
 2192SOL    MW4 8843   0.435   0.186   3.827  0.3578  0.7057 -0.0222
 2193SOL     OW 8844   0.458   0.438   3.925  0.0948 -0.2389 -0.1207
 2193SOL    HW2 8845   0.535   0.472   3.879  0.4516 -1.1732 -0.2243
 2193SOL    HW3 8846   0.383   0.476   3.879  0.4617 -0.6465 -1.0629
 2193SOL    MW4 8847   0.458   0.448   3.913  0.1903 -0.4160 -0.2587
 2194SOL     OW 8848   0.687   0.504   3.789  0.5939 -0.1412 -0.0304
 2194SOL    HW2 8849   0.759   0.453   3.825 -0.6176 -1.5861  0.3926
 2194SOL    HW3 8850   0.704   0.594   3.819  1.7163 -0.6383  0.8474
 2194SOL    MW4 8851   0.699   0.509   3.798  0.5821 -0.3974  0.1414
 2195SOL     OW 8852   0.657   0.768   3.834  0.0783 -0.0151 -0.1442
 2195SOL    HW2 8853   0.706   0.844   3.803 -0.8644  0.5216 -0.3045
 2195SOL    HW3 8854   0.566   0.785   3.810 -0.3765 -0.4798  1.1705
 2195SOL    MW4 8855   0.652   0.780   3.827 -0.1061 -0.0056  0.0079
 2196SOL     OW 8856   0.402   0.844   3.739 -0.4583 -0.9688  0.2203
 2196SOL    HW2 8857   0.419   0.933   3.770 -3.6925  0.0670 -0.7426
 2196SOL    HW3 8858   0.333   0.811   3.798 -1.7839 -1.4911 -1.5857
 2196SOL    MW4 8859   0.395   0.851   3.751 -1.0599 -0.9010 -0.1450
 2197SOL     OW 8860   0.447   1.110   3.843  0.3384  0.4739  0.1662
 2197SOL    HW2 8861   0.522   1.168   3.832  1.3495 -1.0226 -1.1204
 2197SOL    HW3 8862   0.372   1.163   3.815  1.2041  1.2630 -0.7383
 2197SOL    MW4 8863   0.447   1.125   3.838  0.5860  0.3806 -0.1225
 2198SOL     OW 8864   0.655   1.291   3.810  0.2578  0.2910 -0.1939
 2198SOL    HW2 8865   0.742   1.264   3.840  0.9329  1.8611 -0.6684
 2198SOL    HW3 8866   0.655   1.275   3.716 -0.0179  0.1433 -0.1698
 2198SOL    MW4 8867   0.666   1.286   3.802  0.3104  0.4786 -0.2532
 2199SOL     OW 8868   0.631   1.557   3.867  0.4974  0.0383 -0.1125
 2199SOL    HW2 8869   0.710   1.597   3.831 -0.5555  1.4700 -0.8738
 2199SOL    HW3 8870   0.645   1.463   3.857  2.5687  0.2144  0.7647
 2199SOL    MW4 8871   0.643   1.550   3.861  0.6317  0.2503 -0.0968
 2200SOL     OW 8872   0.426   1.690   3.715  0.2335 -0.4132  0.0070
 2200SOL    HW2 8873   0.505   1.655   3.754  0.7136 -0.7969 -1.2731
 2200SOL    HW3 8874   0.354   1.653   3.766  0.8158 -1.5585 -0.0068
 2200SOL    MW4 8875   0.427   1.681   3.727  0.3737 -0.6149 -0.1638
 2201SOL     OW 8876   0.419   1.904   3.895 -0.4759 -0.0609  0.4491
 2201SOL    HW2 8877   0.415   1.827   3.838  1.1616  1.3712 -1.6304
 2201SOL    HW3 8878   0.343   1.957   3.869 -0.8242 -0.3071  0.9474
 2201SOL    MW4 8879   0.408   1.901   3.884 -0.3058  0.0955  0.2406
 2202SOL     OW 8880   0.636   2.078   3.771  0.3319  0.0216  0.3549
 2202SOL    HW2 8881   0.626   2.163   3.814  0.0759  0.3574 -0.3662
 2202SOL    HW3 8882   0.568   2.023   3.810 -0.2721  0.4907 -0.0208
 2202SOL    MW4 8883   0.626   2.082   3.782  0.2185  0.1278  0.2103
 2203SOL     OW 8884   0.639   2.333   3.894  0.4341  0.5411 -0.0758
 2203SOL    HW2 8885   0.717   2.357   3.844 -0.3331  1.0501 -1.0407
 2203SOL    HW3 8886   0.567   2.380   3.852 -0.4941 -0.3911  0.4298
 2203SOL    MW4 8887   0.640   2.342   3.882  0.2105  0.4852 -0.1364
 2204SOL     OW 8888   0.430   2.468   3.760 -0.0204  0.1121 -0.2605
 2204SOL    HW2 8889   0.357   2.419   3.798  1.2569 -3.1433 -1.8171
 2204SOL    HW3 8890   0.418   2.460   3.666  2.5284 -0.8094 -0.5553
 2204SOL    MW4 8891   0.419   2.461   3.753  0.4844 -0.4387 -0.5045
 2205SOL     OW 8892   0.441   2.704   3.922  0.2544 -0.0129  0.7676
 2205SOL    HW2 8893   0.525   2.745   3.900  0.4569 -0.4909  0.6537
 2205SOL    HW3 8894   0.435   2.627   3.865 -0.4456  0.2384  0.4863
 2205SOL    MW4 8895   0.451   2.699   3.912  0.1888 -0.0427  0.7155
 2206SOL     OW 8896   0.680   2.849   3.816 -0.0362  0.1410  0.0144
 2206SOL    HW2 8897   0.746   2.783   3.840  0.3147  0.7050  0.6031
 2206SOL    HW3 8898   0.661   2.830   3.724 -0.6861 -1.4196  0.4589
 2206SOL    MW4 8899   0.686   2.837   3.807 -0.0755  0.0095  0.1507
 2207SOL     OW 8900   0.636   3.114   3.890 -0.3401 -0.2321 -0.4564
 2207SOL    HW2 8901   0.655   3.111   3.984 -0.8896 -0.5511 -0.3515
 2207SOL    HW3 8902   0.630   3.022   3.864 -0.7024 -0.1401 -0.6969
 2207SOL    MW4 8903   0.637   3.101   3.899 -0.4603 -0.2620 -0.4745
 2208SOL     OW 8904   0.429   3.259   3.781  0.2387 -0.1169 -0.2221
 2208SOL    HW2 8905   0.508   3.221   3.817  0.7899  0.0270 -1.2509
 2208SOL    HW3 8906   0.358   3.219   3.831  0.8537 -1.8698 -0.6986
 2208SOL    MW4 8907   0.430   3.249   3.792  0.3926 -0.3295 -0.4206
 2209SOL     OW 8908   0.438   3.492   3.920  0.1635 -0.5050 -0.3467
 2209SOL    HW2 8909   0.513   3.539   3.884 -1.0883 -0.3436 -2.8332
 2209SOL    HW3 8910   0.433   3.411   3.869 -2.0821  0.0431 -1.0551
 2209SOL    MW4 8911   0.447   3.487   3.909 -0.2980 -0.4115 -0.7682
 2210SOL     OW 8912   0.683   3.609   3.836  0.2678 -0.3678 -0.4002
 2210SOL    HW2 8913   0.659   3.689   3.884  1.8525 -0.0374 -0.1395
 2210SOL    HW3 8914   0.669   3.632   3.744  0.7683  0.2415 -0.3315
 2210SOL    MW4 8915   0.678   3.623   3.831  0.5429 -0.2437 -0.3569
 2211SOL     OW 8916   0.622   3.879   3.938 -0.1096  0.3834  0.4179
 2211SOL    HW2 8917   0.633   3.875   4.033 -0.4729 -0.1922  0.4400
 2211SOL    HW3 8918   0.697   3.929   3.907  0.0248  0.5517  1.0080
 2211SOL    MW4 8919   0.633   3.885   3.947 -0.1398  0.3297  0.4988
 2212SOL     OW 8920   0.407   3.980   3.776 -0.3068 -0.1900 -0.2213
 2212SOL    HW2 8921   0.486   3.957   3.825 -0.2912 -0.1793 -0.2414
 2212SOL    HW3 8922   0.439   3.997   3.687 -0.2475  0.3611 -0.1006
 2212SOL    MW4 8923   0.422   3.979   3.770 -0.2970 -0.1159 -0.2081
 2213SOL     OW 8924   0.424   4.289   3.865  0.3356 -0.5522 -0.3012
 2213SOL    HW2 8925   0.514   4.322   3.856  1.0525 -2.3673  0.0058
 2213SOL    HW3 8926   0.422   4.210   3.812 -0.5425 -1.5415  1.1555
 2213SOL    MW4 8927   0.436   4.283   3.857  0.3144 -0.9222 -0.0684
 2214SOL     OW 8928   0.669   4.409   3.795  0.6923  0.5963 -0.1442
 2214SOL    HW2 8929   0.742   4.354   3.823 -0.7168 -1.3432 -0.2035
 2214SOL    HW3 8930   0.665   4.396   3.700 -0.9789 -0.8864  0.1154
 2214SOL    MW4 8931   0.678   4.400   3.786  0.2859  0.1454 -0.1175
 2215SOL     OW 8932   1.118   4.646   3.900  0.0114  0.1319 -0.1013
 2215SOL    HW2 8933   1.195   4.678   3.853 -0.6628  1.6128 -0.2286
 2215SOL    HW3 8934   1.113   4.553   3.878  0.3411  0.5632 -2.0460
 2215SOL    MW4 8935   1.128   4.638   3.891 -0.0340  0.3839 -0.3748
 2216SOL     OW 8936   0.885   0.099   3.805 -0.1012 -0.5059 -0.2212
 2216SOL    HW2 8937   0.960   0.053   3.843 -0.4407 -0.0274  1.0563
 2216SOL    HW3 8938   0.808   0.059   3.845 -0.5109 -0.5153 -0.9955
 2216SOL    MW4 8939   0.885   0.088   3.815 -0.2000 -0.4440 -0.1550
 2217SOL     OW 8940   0.891   0.365   3.886 -0.0155 -0.1072 -0.4847
 2217SOL    HW2 8941   0.887   0.383   3.980  0.6016 -0.3527 -0.4101
 2217SOL    HW3 8942   0.886   0.269   3.880  0.9217 -0.1478 -0.6484
 2217SOL    MW4 8943   0.890   0.355   3.897  0.1895 -0.1450 -0.4966
 2218SOL     OW 8944   1.152   0.494   3.783 -0.4299 -0.2423  0.0146
 2218SOL    HW2 8945   1.234   0.449   3.804  0.5543  1.4854 -0.0421
 2218SOL    HW3 8946   1.083   0.435   3.815  0.8249 -1.7003  0.0730
 2218SOL    MW4 8947   1.153   0.481   3.790 -0.1345 -0.2067  0.0148
 2219SOL     OW 8948   1.087   0.761   3.862 -0.3063 -0.1593 -0.2051
 2219SOL    HW2 8949   1.103   0.769   3.956  1.7321  0.7497 -0.6024
 2219SOL    HW3 8950   1.098   0.667   3.844 -0.5037 -0.3058  0.4214
 2219SOL    MW4 8951   1.091   0.749   3.872 -0.0633 -0.0587 -0.1752
 2220SOL     OW 8952   0.871   0.932   3.764 -0.3634 -0.3844  0.2699
 2220SOL    HW2 8953   0.944   0.879   3.797  1.5473  2.4528  0.7234
 2220SOL    HW3 8954   0.876   0.923   3.669  0.8938  0.1764  0.2745
 2220SOL    MW4 8955   0.881   0.924   3.756  0.0546  0.0639  0.3302
 2221SOL     OW 8956   0.898   1.192   3.882  0.7217  0.1214 -0.4987
 2221SOL    HW2 8957   0.904   1.168   3.975  1.4253 -0.0521 -0.5816
 2221SOL    HW3 8958   0.896   1.108   3.836  0.9004  0.2073 -0.6651
 2221SOL    MW4 8959   0.899   1.178   3.888  0.8381  0.1098 -0.5317
 2222SOL     OW 8960   1.104   1.351   3.793  0.5755 -0.0670 -0.4452
 2222SOL    HW2 8961   1.109   1.432   3.843  1.4514 -0.1003 -0.4711
 2222SOL    HW3 8962   1.030   1.303   3.832  0.6043  0.3594  0.1363
 2222SOL    MW4 8963   1.095   1.355   3.805  0.6950 -0.0151 -0.3722
 2223SOL     OW 8964   1.080   1.573   3.932 -0.1764  0.1809  0.3995
 2223SOL    HW2 8965   1.094   1.556   4.025  0.1197  1.5817  0.6272
 2223SOL    HW3 8966   1.162   1.611   3.901 -0.1156 -0.6872 -0.5511
 2223SOL    MW4 8967   1.093   1.576   3.940 -0.1293  0.2512  0.3042
 2224SOL     OW 8968   0.856   1.702   3.806 -0.3262 -0.0077 -0.3515
 2224SOL    HW2 8969   0.936   1.661   3.839 -1.0029 -0.9559  0.1328
 2224SOL    HW3 8970   0.874   1.717   3.713  0.0038 -1.2735 -0.5084
 2224SOL    MW4 8971   0.869   1.698   3.798 -0.3719 -0.2998 -0.3085
 2225SOL     OW 8972   0.864   1.970   3.859 -0.1769  0.0422 -0.1458
 2225SOL    HW2 8973   0.849   1.876   3.858 -0.0272  0.0253 -0.7404
 2225SOL    HW3 8974   0.779   2.009   3.838 -0.0393  0.0177 -0.7499
 2225SOL    MW4 8975   0.851   1.963   3.856 -0.1389  0.0367 -0.3037
 2226SOL     OW 8976   1.127   2.007   3.691 -0.2727 -0.4587 -0.0063
 2226SOL    HW2 8977   1.040   1.989   3.727 -0.0365 -1.0477  0.2789
 2226SOL    HW3 8978   1.110   2.036   3.601 -0.8107  0.2112  0.3135
 2226SOL    MW4 8979   1.113   2.008   3.684 -0.3127 -0.4482  0.0734
 2227SOL     OW 8980   1.111   2.265   3.786 -0.0275  0.1096 -0.0850
 2227SOL    HW2 8981   1.112   2.268   3.882  0.2473  0.0034 -0.0849
 2227SOL    HW3 8982   1.116   2.172   3.765  0.5593  0.1718 -0.2134
 2227SOL    MW4 8983   1.112   2.253   3.796  0.0862  0.1037 -0.1020
 2228SOL     OW 8984   0.882   2.410   3.742  0.4158 -0.4838 -0.3463
 2228SOL    HW2 8985   0.876   2.494   3.788 -2.8040 -0.6975 -0.2528
 2228SOL    HW3 8986   0.961   2.369   3.777  0.5039  1.3256  1.6591
 2228SOL    MW4 8987   0.891   2.415   3.753  0.0027 -0.2732 -0.0696
 2229SOL     OW 8988   0.881   2.656   3.862 -0.7336  0.6677  0.4925
 2229SOL    HW2 8989   0.863   2.652   3.956 -1.0173  0.3083  0.4208
 2229SOL    HW3 8990   0.962   2.708   3.856  0.8833 -1.6990  1.1269
 2229SOL    MW4 8991   0.889   2.663   3.874 -0.5577  0.3080  0.5667
 2230SOL     OW 8992   1.109   2.859   3.845  0.4842  0.4710 -0.1816
 2230SOL    HW2 8993   1.194   2.819   3.864  0.4360  0.8128  0.7322
 2230SOL    HW3 8994   1.119   2.951   3.870 -0.3108  0.4021  0.3975
 2230SOL    MW4 8995   1.121   2.866   3.851  0.3730  0.5071  0.0153
 2231SOL     OW 8996   1.113   3.116   3.917  0.3641  0.5741  0.3992
 2231SOL    HW2 8997   1.194   3.152   3.880 -0.0123  1.1093  0.0925
 2231SOL    HW3 8998   1.043   3.163   3.872 -0.1161  0.2918  0.8474
 2231SOL    MW4 8999   1.114   3.127   3.907  0.2511  0.6075  0.4179
 2232SOL     OW 9000   0.878   3.224   3.804 -0.2233 -0.0340 -0.3708
 2232SOL    HW2 9001   0.804   3.169   3.828 -0.9168  0.4707 -1.3134
 2232SOL    HW3 9002   0.868   3.239   3.710  0.5665  0.7938 -0.3377
 2232SOL    MW4 9003   0.867   3.219   3.795 -0.2106  0.1419 -0.4907
 2233SOL     OW 9004   0.867   3.449   3.981  0.3734  0.1056 -0.5124
 2233SOL    HW2 9005   0.870   3.377   3.918  2.2085 -0.8929  0.6589
 2233SOL    HW3 9006   0.795   3.505   3.951  0.0617 -1.2883 -2.4420
 2233SOL    MW4 9007   0.858   3.447   3.968  0.5744 -0.2100 -0.6125
 2234SOL     OW 9008   1.074   3.564   3.843 -0.0057  0.3937  0.3397
 2234SOL    HW2 9009   1.071   3.653   3.877 -0.8158  0.3895  0.2932
 2234SOL    HW3 9010   1.000   3.520   3.885  2.0100 -1.0391  2.4980
 2234SOL    MW4 9011   1.064   3.570   3.853  0.1533  0.2043  0.6182
 2235SOL     OW 9012   1.061   3.840   3.897 -0.2789  1.1941 -0.3280
 2235SOL    HW2 9013   1.051   3.841   3.992 -0.0201 -1.7696 -0.2248
 2235SOL    HW3 9014   1.144   3.885   3.881  0.5675  0.1344  0.9940
 2235SOL    MW4 9015   1.071   3.847   3.907 -0.1332  0.6633 -0.1400
 2236SOL     OW 9016   0.861   4.009   3.814 -0.4844  0.3468 -0.3384
 2236SOL    HW2 9017   0.928   3.955   3.857 -0.8790  0.5278  0.5279
 2236SOL    HW3 9018   0.882   4.004   3.721 -0.8881 -1.8267 -0.3415
 2236SOL    MW4 9019   0.873   4.001   3.808 -0.5898  0.0839 -0.2246
 2237SOL     OW 9020   0.875   4.264   3.908  0.1434 -0.0810 -0.5911
 2237SOL    HW2 9021   0.870   4.265   4.003  0.5990  3.3378 -0.5216
 2237SOL    HW3 9022   0.876   4.171   3.884  1.5641 -0.9898  2.7924
 2237SOL    MW4 9023   0.874   4.252   3.917  0.3909  0.2499 -0.1354
 2238SOL     OW 9024   1.130   4.375   3.852  0.2554  0.4168 -0.4349
 2238SOL    HW2 9025   1.041   4.343   3.870  0.1871  1.2214  0.7266
 2238SOL    HW3 9026   1.134   4.380   3.756 -0.5272 -0.7912 -0.5425
 2238SOL    MW4 9027   1.119   4.372   3.841  0.1431  0.3633 -0.2959
 2239SOL     OW 9028   1.565   4.641   3.872 -0.2233  0.3085 -0.2161
 2239SOL    HW2 9029   1.576   4.651   3.966  0.1798  0.7675 -0.3113
 2239SOL    HW3 9030   1.569   4.547   3.857  0.9677  0.3049  0.0716
 2239SOL    MW4 9031   1.567   4.630   3.882 -0.0130  0.3686 -0.1910
 2240SOL     OW 9032   1.329   0.077   3.769 -0.0505 -0.1553 -0.6997
 2240SOL    HW2 9033   1.335   0.172   3.779  1.4784 -0.2212 -0.8682
 2240SOL    HW3 9034   1.415   0.045   3.796 -1.2718 -1.6827  1.4648
 2240SOL    MW4 9035   1.341   0.085   3.774 -0.0100 -0.3655 -0.4363
 2241SOL     OW 9036   1.365   0.330   3.848  0.2691 -0.2594 -0.0617
 2241SOL    HW2 9037   1.357   0.349   3.942  1.0230  0.3026 -0.1039
 2241SOL    HW3 9038   1.446   0.374   3.822  0.0045 -0.3184 -1.0022
 2241SOL    MW4 9039   1.375   0.339   3.857  0.3338 -0.1930 -0.1915
 2242SOL     OW 9040   1.581   0.481   3.762 -0.0137 -0.5525  0.0010
 2242SOL    HW2 9041   1.663   0.460   3.806 -0.1864 -1.1248  0.0559
 2242SOL    HW3 9042   1.555   0.566   3.798  0.2929 -0.6113  0.3645
 2242SOL    MW4 9043   1.588   0.489   3.773  0.0038 -0.6358  0.0563
 2243SOL     OW 9044   1.500   0.734   3.835 -0.4076  0.2898 -0.1094
 2243SOL    HW2 9045   1.582   0.778   3.812  0.4172 -0.2322  1.6551
 2243SOL    HW3 9046   1.432   0.797   3.814  0.5309  1.1636 -0.6003
 2243SOL    MW4 9047   1.502   0.748   3.829 -0.1750  0.3362  0.0584
 2244SOL     OW 9048   1.290   0.879   3.733 -0.0265 -0.3857  0.1455
 2244SOL    HW2 9049   1.292   0.970   3.764 -0.1805  0.1181 -1.2788
 2244SOL    HW3 9050   1.214   0.840   3.776  0.0897  0.1371  0.8310
 2244SOL    MW4 9051   1.280   0.886   3.743 -0.0316 -0.2503  0.0479
 2245SOL     OW 9052   1.284   1.130   3.858 -0.2360  0.4424  0.1360
 2245SOL    HW2 9053   1.348   1.186   3.813 -1.3380  1.6845  0.1027
 2245SOL    HW3 9054   1.207   1.185   3.869 -0.5943 -0.3824  2.0332
 2245SOL    MW4 9055   1.282   1.144   3.854 -0.4288  0.4975  0.3822
 2246SOL     OW 9056   1.514   1.284   3.770  0.2013  0.0999 -0.1314
 2246SOL    HW2 9057   1.592   1.240   3.804 -0.4652 -0.9718  0.0345
 2246SOL    HW3 9058   1.528   1.377   3.790  1.1414 -0.1639  0.4615
 2246SOL    MW4 9059   1.526   1.291   3.777  0.2375 -0.0764 -0.0312
 2247SOL     OW 9060   1.569   1.553   3.822  0.3625 -0.2930  0.2406
 2247SOL    HW2 9061   1.542   1.568   3.913 -0.8075 -0.7674 -0.0154
 2247SOL    HW3 9062   1.654   1.597   3.815 -0.1591  0.9185  1.1907
 2247SOL    MW4 9063   1.576   1.561   3.833  0.1394 -0.1957  0.3321
 2248SOL     OW 9064   1.298   1.660   3.773  0.0814  0.7004  0.0723
 2248SOL    HW2 9065   1.312   1.749   3.804 -0.3358  0.5889  0.5749
 2248SOL    HW3 9066   1.385   1.620   3.773  0.4718  1.5127 -1.4129
 2248SOL    MW4 9067   1.312   1.666   3.777  0.0778  0.7929 -0.0572
 2249SOL     OW 9068   1.344   1.916   3.849 -0.1668 -0.5277  0.2905
 2249SOL    HW2 9069   1.333   1.900   3.942 -0.2879  0.0822  0.3879
 2249SOL    HW3 9070   1.258   1.944   3.819  0.0857  0.1635  0.1883
 2249SOL    MW4 9071   1.332   1.918   3.857 -0.1494 -0.3561  0.2897
 2250SOL     OW 9072   1.532   2.096   3.720  0.1641 -0.1484  0.7590
 2250SOL    HW2 9073   1.454   2.048   3.745 -0.0162 -0.0661  0.3702
 2250SOL    HW3 9074   1.551   2.066   3.631  0.3774  0.0778  0.7263
 2250SOL    MW4 9075   1.524   2.086   3.711  0.1684 -0.1078  0.7033
 2251SOL     OW 9076   1.563   2.344   3.862  0.3164 -0.3116 -0.0990
 2251SOL    HW2 9077   1.647   2.374   3.827 -0.2181  0.1881 -0.9724
 2251SOL    HW3 9078   1.547   2.260   3.819 -0.4159  0.3771 -1.1680
 2251SOL    MW4 9079   1.572   2.337   3.852  0.1491 -0.1550 -0.3552
 2252SOL     OW 9080   1.315   2.448   3.770  0.0351 -0.0289 -0.1092
 2252SOL    HW2 9081   1.399   2.409   3.795  0.0994  0.0165 -0.2580
 2252SOL    HW3 9082   1.254   2.375   3.773  0.0969 -0.0800 -0.0895
 2252SOL    MW4 9083   1.318   2.433   3.774  0.0516 -0.0293 -0.1261
 2253SOL     OW 9084   1.330   2.715   3.890  0.0644  0.6824 -0.0671
 2253SOL    HW2 9085   1.319   2.702   3.984 -1.1204 -2.0009 -0.5513
 2253SOL    HW3 9086   1.348   2.628   3.855  0.1300  1.5836 -2.3807
 2253SOL    MW4 9087   1.331   2.702   3.898 -0.0832  0.4473 -0.4361
 2254SOL     OW 9088   1.567   2.820   3.791 -0.0873 -0.4486 -0.0858
 2254SOL    HW2 9089   1.479   2.791   3.815 -0.1272 -1.0980 -1.0084
 2254SOL    HW3 9090   1.569   2.813   3.695  0.5728  0.6825 -0.1652
 2254SOL    MW4 9091   1.555   2.816   3.781 -0.0055 -0.3853 -0.2179
 2255SOL     OW 9092   1.591   3.074   3.908  0.0169  0.1321  0.0910
 2255SOL    HW2 9093   1.564   3.084   4.000 -2.8303  0.4167 -0.7238
 2255SOL    HW3 9094   1.571   2.983   3.887 -0.1755  0.3105 -0.4991
 2255SOL    MW4 9095   1.585   3.064   3.917 -0.3842  0.1931 -0.0944
 2256SOL     OW 9096   1.356   3.188   3.798  0.0890  0.0036 -0.1394
 2256SOL    HW2 9097   1.363   3.278   3.830  0.5481  0.4893 -1.5765
 2256SOL    HW3 9098   1.436   3.145   3.830 -0.0216  0.1548  0.3520
 2256SOL    MW4 9099   1.368   3.194   3.807  0.1349  0.0875 -0.2642
 2257SOL     OW 9100   1.332   3.449   3.889  0.0470  0.0788 -0.2409
 2257SOL    HW2 9101   1.389   3.508   3.840 -0.0243 -0.8497 -1.4784
 2257SOL    HW3 9102   1.244   3.481   3.873  0.1071  0.5322  0.3242
 2257SOL    MW4 9103   1.328   3.461   3.880  0.0454  0.0162 -0.3295
 2258SOL     OW 9104   1.542   3.593   3.757  0.1057  0.1672 -0.0023
 2258SOL    HW2 9105   1.626   3.560   3.790 -0.8922 -1.6569  0.7253
 2258SOL    HW3 9106   1.543   3.686   3.780  1.5480 -0.0300  0.8082
 2258SOL    MW4 9107   1.553   3.601   3.764  0.1643 -0.0997  0.2007
 2259SOL     OW 9108   1.526   3.868   3.879  0.6582 -0.0801 -0.0439
 2259SOL    HW2 9109   1.531   3.869   3.975 -3.5839 -0.8163  0.2971
 2259SOL    HW3 9110   1.439   3.902   3.860  1.0845 -0.8576 -3.6151
 2259SOL    MW4 9111   1.515   3.872   3.889  0.1547 -0.2797 -0.4699
 2260SOL     OW 9112   1.289   3.972   3.833  0.1093 -0.2076  0.0163
 2260SOL    HW2 9113   1.309   4.058   3.870  0.4712  0.0080 -0.6862
 2260SOL    HW3 9114   1.305   3.981   3.740 -0.9681 -0.7060 -0.2325
 2260SOL    MW4 9115   1.294   3.985   3.826  0.0149 -0.2449 -0.1092
 2261SOL     OW 9116   1.352   4.219   3.926  0.0115  0.3266  0.2084
 2261SOL    HW2 9117   1.423   4.262   3.878 -0.8995  1.6004 -0.0441
 2261SOL    HW3 9118   1.274   4.271   3.904 -1.2430 -1.8443 -0.5797
 2261SOL    MW4 9119   1.351   4.232   3.916 -0.2743  0.2084  0.0710
 2262SOL     OW 9120   1.559   4.348   3.823 -0.1719 -0.1352  0.0707
 2262SOL    HW2 9121   1.643   4.310   3.848 -0.7652 -1.6580 -0.2204
 2262SOL    HW3 9122   1.564   4.355   3.728 -1.1449 -2.1260 -0.1486
 2262SOL    MW4 9123   1.571   4.344   3.814 -0.3784 -0.5989  0.0031
 2263SOL     OW 9124   2.010   0.017   3.900  0.0176  0.2228  0.3151
 2263SOL    HW2 9125   2.065   0.051   3.829  0.6951  0.7745  1.1085
 2263SOL    HW3 9126   1.994  -0.075   3.875  1.2184  0.0776  0.0385
 2263SOL    MW4 9127   2.015   0.009   3.887  0.2654  0.2764  0.3831
 2264SOL     OW 9128   1.779   0.115   3.770  0.1336  0.1192  0.1361
 2264SOL    HW2 9129   1.855   0.090   3.823 -0.7634 -2.6519  0.1911
 2264SOL    HW3 9130   1.706   0.068   3.810 -0.9533 -0.2104 -2.1996
 2264SOL    MW4 9131   1.780   0.105   3.782 -0.1280 -0.2899 -0.1647
 2265SOL     OW 9132   1.809   0.389   3.862 -0.2981  0.3892  0.1167
 2265SOL    HW2 9133   1.802   0.385   3.958  0.5390  1.1385  0.2085
 2265SOL    HW3 9134   1.810   0.297   3.835 -0.0203  0.1646  0.8628
 2265SOL    MW4 9135   1.808   0.376   3.871 -0.1509  0.4584  0.2275
 2266SOL     OW 9136   2.036   0.530   3.787 -0.1376  0.1850  0.5239
 2266SOL    HW2 9137   1.952   0.486   3.806 -0.0387 -0.4091 -0.3600
 2266SOL    HW3 9138   2.056   0.503   3.697  0.7542  0.7332  0.5626
 2266SOL    MW4 9139   2.027   0.520   3.778 -0.0067  0.1789  0.4125
 2267SOL     OW 9140   1.978   0.763   3.900  0.4740 -0.0798 -0.0568
 2267SOL    HW2 9141   1.995   0.760   3.995 -0.0679  0.4113  0.0555
 2267SOL    HW3 9142   2.001   0.676   3.869 -0.2848 -0.5554  0.6906
 2267SOL    MW4 9143   1.983   0.751   3.909  0.3024 -0.0778  0.0563
 2268SOL     OW 9144   1.745   0.847   3.776  0.2123  0.0257  0.0605
 2268SOL    HW2 9145   1.829   0.822   3.816 -0.1238  0.0070  0.7647
 2268SOL    HW3 9146   1.753   0.820   3.685  1.0781  0.2586  0.0590
 2268SOL    MW4 9147   1.757   0.840   3.769  0.2822  0.0540  0.1533
 2269SOL     OW 9148   1.730   1.109   3.882 -0.1181  0.0583  0.6885
 2269SOL    HW2 9149   1.749   1.107   3.976  1.0518  1.5211  0.4944
 2269SOL    HW3 9150   1.720   1.016   3.858  0.7975 -0.4001  2.0063
 2269SOL    MW4 9151   1.731   1.096   3.891  0.1571  0.1907  0.8366
 2270SOL     OW 9152   1.948   1.231   3.754  0.5404  0.3461 -0.0594
 2270SOL    HW2 9153   2.027   1.181   3.774  0.7958  1.0736  0.7779
 2270SOL    HW3 9154   1.879   1.186   3.801  0.3240 -0.7104 -1.3659
 2270SOL    MW4 9155   1.950   1.218   3.763  0.5456  0.3027 -0.1211
 2271SOL     OW 9156   2.030   1.472   3.868  0.0278  0.2226  0.1506
 2271SOL    HW2 9157   1.951   1.526   3.873 -0.2063 -0.0571 -0.4466
 2271SOL    HW3 9158   2.000   1.389   3.830  0.4294 -0.2393  0.8112
 2271SOL    MW4 9159   2.016   1.468   3.864  0.0501  0.1248  0.1588
 2272SOL     OW 9160   1.820   1.681   3.789 -0.0843 -0.0032 -0.0023
 2272SOL    HW2 9161   1.789   1.771   3.798  2.2509  0.8616 -0.0066
 2272SOL    HW3 9162   1.812   1.663   3.695 -1.1322 -0.0328  0.0872
 2272SOL    MW4 9163   1.815   1.690   3.777  0.0856  0.1069  0.0088
 2273SOL     OW 9164   1.732   1.944   3.837 -0.0911  0.0527 -0.3543
 2273SOL    HW2 9165   1.721   1.954   3.932 -0.9308  0.6159 -0.5098
 2273SOL    HW3 9166   1.658   1.991   3.799 -0.7171 -1.6200 -1.2550
 2273SOL    MW4 9167   1.721   1.952   3.845 -0.2846 -0.0937 -0.4938
 2274SOL     OW 9168   1.968   2.046   3.747 -0.4617 -0.0227  0.2378
 2274SOL    HW2 9169   1.891   1.999   3.778  0.5429 -2.0405 -0.2261
 2274SOL    HW3 9170   1.960   2.044   3.651 -0.1597  0.3339  0.2043
 2274SOL    MW4 9171   1.957   2.040   3.738 -0.2893 -0.2418  0.1724
 2275SOL     OW 9172   1.974   2.294   3.892  0.1407 -0.1334  0.0004
 2275SOL    HW2 9173   1.902   2.347   3.858 -0.3405 -0.1528  0.9930
 2275SOL    HW3 9174   1.962   2.208   3.851 -0.7482 -0.3126  0.6234
 2275SOL    MW4 9175   1.963   2.290   3.882 -0.0401 -0.1597  0.2134
 2276SOL     OW 9176   1.779   2.450   3.759  0.2343 -0.5694  0.7916
 2276SOL    HW2 9177   1.787   2.541   3.788 -1.7447 -0.4168  0.9381
 2276SOL    HW3 9178   1.788   2.454   3.664  0.9683 -0.3347  0.8648
 2276SOL    MW4 9179   1.782   2.463   3.751  0.0701 -0.5183  0.8206
 2277SOL     OW 9180   1.787   2.701   3.887  0.0966 -0.0926  0.0723
 2277SOL    HW2 9181   1.790   2.688   3.982  1.6858  1.3128  0.2233
 2277SOL    HW3 9182   1.702   2.742   3.872 -1.0496 -2.2048  0.6321
 2277SOL    MW4 9183   1.776   2.705   3.898  0.1551 -0.1855  0.1662
 2278SOL     OW 9184   2.007   2.788   3.740 -0.0763  0.0407  0.1893
 2278SOL    HW2 9185   2.079   2.753   3.792  0.4493  2.4338  1.1410
 2278SOL    HW3 9186   1.928   2.748   3.778  0.5559 -0.7028  0.7260
 2278SOL    MW4 9187   2.006   2.779   3.752  0.0765  0.2580  0.3855
 2279SOL     OW 9188   2.050   3.030   3.895  0.2398  0.5000 -0.0890
 2279SOL    HW2 9189   2.120   3.077   3.850  0.7180 -0.6592 -0.5685
 2279SOL    HW3 9190   2.045   2.946   3.850 -0.8221  0.2083  0.5583
 2279SOL    MW4 9191   2.058   3.025   3.883  0.1628  0.3088 -0.0665
 2280SOL     OW 9192   1.821   3.164   3.796  0.5839  0.4985 -0.1843
 2280SOL    HW2 9193   1.899   3.127   3.836  0.2512 -0.0201  0.0007
 2280SOL    HW3 9194   1.748   3.119   3.839  0.1067  2.4307  1.0874
 2280SOL    MW4 9195   1.822   3.153   3.807  0.4771  0.6850  0.0076
 2281SOL     OW 9196   1.779   3.430   3.828  0.8016 -0.1863 -0.5603
 2281SOL    HW2 9197   1.863   3.475   3.816  0.0752  0.7582 -2.3001
 2281SOL    HW3 9198   1.800   3.337   3.815  1.3188  0.1842 -2.6172
 2281SOL    MW4 9199   1.793   3.423   3.824  0.7739 -0.0126 -1.0612
 2282SOL     OW 9200   1.996   3.602   3.830  0.4896 -0.0719  0.4041
 2282SOL    HW2 9201   2.072   3.549   3.855  0.4385  0.2405  1.2368
 2282SOL    HW3 9202   2.002   3.609   3.734  1.8070  0.4029  0.5078
 2282SOL    MW4 9203   2.007   3.596   3.820  0.6566  0.0319  0.5276
 2283SOL     OW 9204   1.966   3.867   3.872  0.0308  0.0946  0.8169
 2283SOL    HW2 9205   2.056   3.898   3.863  0.1229 -0.6623 -1.3578
 2283SOL    HW3 9206   1.971   3.773   3.854 -1.2039  0.0563  0.5806
 2283SOL    MW4 9207   1.978   3.859   3.868 -0.1199 -0.0105  0.4990
 2284SOL     OW 9208   1.747   3.982   3.732  0.1936 -0.2428 -0.2745
 2284SOL    HW2 9209   1.823   3.954   3.783 -0.5444 -0.7393  0.5709
 2284SOL    HW3 9210   1.672   3.950   3.782 -0.5955  1.0380 -0.6267
 2284SOL    MW4 9211   1.747   3.974   3.745 -0.0079 -0.1392 -0.2093
 2285SOL     OW 9212   1.796   4.232   3.875 -0.0149 -0.0676 -0.0285
 2285SOL    HW2 9213   1.879   4.276   3.853  0.6183 -0.1301  2.0975
 2285SOL    HW3 9214   1.799   4.150   3.827  0.4640  0.6122 -1.1753
 2285SOL    MW4 9215   1.807   4.227   3.866  0.1318  0.0134  0.1009
 2286SOL     OW 9216   1.997   4.426   3.793 -0.4854 -0.8297  0.0977
 2286SOL    HW2 9217   2.065   4.367   3.828 -2.6374 -3.3977  0.1051
 2286SOL    HW3 9218   1.994   4.406   3.700 -0.7017 -0.1675 -0.0384
 2286SOL    MW4 9219   2.006   4.416   3.786 -0.7975 -1.0819  0.0806
 2287SOL     OW 9220   2.416   4.622   3.892 -0.1624  0.0198  0.0299
 2287SOL    HW2 9221   2.408   4.645   3.984  1.7284 -1.1708  0.5238
 2287SOL    HW3 9222   2.493   4.670   3.862  0.4498 -1.2004 -0.3859
 2287SOL    MW4 9223   2.425   4.631   3.900  0.1678 -0.2985  0.0401
 2288SOL     OW 9224   2.221   0.116   3.746 -0.5729 -0.3919 -0.3573
 2288SOL    HW2 9225   2.282   0.057   3.790 -0.3229  0.8148  0.9737
 2288SOL    HW3 9226   2.232   0.098   3.653  1.8051 -0.2297 -0.1433
 2288SOL    MW4 9227   2.230   0.106   3.740 -0.2260 -0.2113 -0.1535
 2289SOL     OW 9228   2.234   0.362   3.899 -0.1923  0.9510 -0.1601
 2289SOL    HW2 9229   2.226   0.280   3.851  0.4480  2.3568 -2.7659
 2289SOL    HW3 9230   2.164   0.417   3.864  0.4973  2.1158  0.2757
 2289SOL    MW4 9231   2.224   0.359   3.888 -0.0167  1.2901 -0.4463
 2290SOL     OW 9232   2.446   0.473   3.764 -0.0543  0.6485  0.2127
 2290SOL    HW2 9233   2.374   0.442   3.819 -0.1312 -0.6049 -0.5733
 2290SOL    HW3 9234   2.421   0.445   3.675  0.2686  2.2655 -0.3979
 2290SOL    MW4 9235   2.433   0.465   3.759 -0.0217  0.6965  0.0284
 2291SOL     OW 9236   2.455   0.713   3.886  0.1279  0.2806 -0.6991
 2291SOL    HW2 9237   2.392   0.777   3.853 -0.7581 -0.6001 -0.7547
 2291SOL    HW3 9238   2.435   0.633   3.838  2.1072  0.3035 -1.6052
 2291SOL    MW4 9239   2.444   0.711   3.875  0.2720  0.1674 -0.8261
 2292SOL     OW 9240   2.235   0.829   3.784 -0.7203 -0.1327  0.2253
 2292SOL    HW2 9241   2.150   0.805   3.820 -1.1674  1.1801  0.0772
 2292SOL    HW3 9242   2.220   0.834   3.689 -0.5439  0.3627  0.2247
 2292SOL    MW4 9243   2.222   0.826   3.776 -0.7558  0.1059  0.2058
 2293SOL     OW 9244   2.185   1.088   3.824  0.0172  0.1842 -0.1430
 2293SOL    HW2 9245   2.193   1.106   3.918  0.9570  1.9604 -0.5404
 2293SOL    HW3 9246   2.210   0.997   3.814 -0.2866 -0.0737  1.3656
 2293SOL    MW4 9247   2.189   1.079   3.835  0.1011  0.3844  0.0033
 2294SOL     OW 9248   2.417   1.220   3.754 -0.0307 -0.2114 -0.4702
 2294SOL    HW2 9249   2.409   1.309   3.789  1.0595 -0.0417 -0.6569
 2294SOL    HW3 9250   2.331   1.181   3.772 -0.3777  0.7299  0.0057
 2294SOL    MW4 9251   2.404   1.227   3.761  0.0672 -0.0647 -0.4318
 2295SOL     OW 9252   2.444   1.482   3.857  0.0763 -0.1196  0.2214
 2295SOL    HW2 9253   2.528   1.525   3.841 -0.0124  0.3342  0.9962
 2295SOL    HW3 9254   2.378   1.546   3.831 -0.0813  0.7966  2.7611
 2295SOL    MW4 9255   2.446   1.496   3.851  0.0436  0.0613  0.6585
 2296SOL     OW 9256   2.217   1.637   3.790 -0.1580  0.3259  0.2875
 2296SOL    HW2 9257   2.200   1.722   3.831 -0.7667  0.7240 -0.7888
 2296SOL    HW3 9258   2.143   1.582   3.816 -0.3101  0.4453  0.1120
 2296SOL    MW4 9259   2.205   1.641   3.799 -0.2587  0.3942  0.1223
 2297SOL     OW 9260   2.186   1.902   3.861 -0.5759 -0.2499  0.1378
 2297SOL    HW2 9261   2.178   1.883   3.954 -0.5538 -1.0595 -0.0212
 2297SOL    HW3 9262   2.101   1.938   3.836 -0.3619  0.5976  0.6119
 2297SOL    MW4 9263   2.174   1.904   3.870 -0.5445 -0.2449  0.1795
 2298SOL     OW 9264   2.412   2.033   3.796 -0.0858 -0.3804  0.0809
 2298SOL    HW2 9265   2.407   2.115   3.845  2.4238 -1.7612  2.7722
 2298SOL    HW3 9266   2.325   1.994   3.806 -0.2034  0.2893  1.7825
 2298SOL    MW4 9267   2.400   2.038   3.803  0.2298 -0.4740  0.6607
 2299SOL     OW 9268   2.447   2.311   3.920  0.0270  0.1955 -0.1944
 2299SOL    HW2 9269   2.512   2.353   3.864  0.8450  0.3289  0.8467
 2299SOL    HW3 9270   2.363   2.348   3.891  0.0510 -2.2452 -3.6260
 2299SOL    MW4 9271   2.445   2.322   3.909  0.1383 -0.1087 -0.5097
 2300SOL     OW 9272   2.220   2.409   3.807 -0.3043  0.0498 -0.0241
 2300SOL    HW2 9273   2.146   2.356   3.835 -0.1796 -0.1267 -0.0308
 2300SOL    HW3 9274   2.199   2.437   3.718 -0.9683  1.0865  0.4444
 2300SOL    MW4 9275   2.208   2.406   3.799 -0.3753  0.1631  0.0372
 2301SOL     OW 9276   2.212   2.673   3.875  0.3705 -0.2970 -0.3443
 2301SOL    HW2 9277   2.191   2.684   3.968 -0.2406 -0.5660 -0.4497
 2301SOL    HW3 9278   2.207   2.579   3.860  0.3397 -0.2434 -0.6777
 2301SOL    MW4 9279   2.208   2.662   3.886  0.2859 -0.3254 -0.4020
 2302SOL     OW 9280   2.452   2.774   3.754  0.2858 -0.7158 -0.1728
 2302SOL    HW2 9281   2.369   2.738   3.788  0.0839 -0.0930 -0.0088
 2302SOL    HW3 9282   2.445   2.766   3.659  0.0506 -0.6895 -0.1572
 2302SOL    MW4 9283   2.440   2.768   3.746  0.2282 -0.6304 -0.1490
 2303SOL     OW 9284   2.474   3.038   3.845  0.1999 -0.1045 -0.1013
 2303SOL    HW2 9285   2.477   3.039   3.941  0.0461 -0.1793 -0.0954
 2303SOL    HW3 9286   2.463   2.946   3.822 -1.6041  0.1091 -0.1262
 2303SOL    MW4 9287   2.473   3.026   3.855 -0.0584 -0.0863 -0.1037
 2304SOL     OW 9288   2.240   3.173   3.771  0.2891  0.1111 -0.2480
 2304SOL    HW2 9289   2.244   3.262   3.806 -1.1738  0.3985 -0.7725
 2304SOL    HW3 9290   2.325   3.135   3.792  0.4149  1.1594  1.2416
 2304SOL    MW4 9291   2.252   3.180   3.779  0.1128  0.2873 -0.1209
 2305SOL     OW 9292   2.244   3.459   3.868 -0.3262 -0.2429  0.1769
 2305SOL    HW2 9293   2.257   3.467   3.962  1.2853  1.0590 -0.1534
 2305SOL    HW3 9294   2.322   3.497   3.829 -0.3604 -1.9995 -1.6831
 2305SOL    MW4 9295   2.256   3.465   3.875 -0.1180 -0.3030 -0.1123
 2306SOL     OW 9296   2.446   3.585   3.745 -0.1825 -0.3144  1.2018
 2306SOL    HW2 9297   2.523   3.543   3.784 -0.3925 -0.6629  1.2476
 2306SOL    HW3 9298   2.474   3.611   3.658  0.3021  0.4942  1.5995
 2306SOL    MW4 9299   2.460   3.583   3.739 -0.1464 -0.2534  1.2603
 2307SOL     OW 9300   2.447   3.840   3.867  0.4435 -0.2347  0.0337
 2307SOL    HW2 9301   2.521   3.889   3.830 -0.4848 -0.8544 -2.7767
 2307SOL    HW3 9302   2.462   3.750   3.839 -1.7252 -0.2469 -1.2370
 2307SOL    MW4 9303   2.459   3.835   3.858  0.0350 -0.3181 -0.5047
 2308SOL     OW 9304   2.213   3.973   3.798  0.4339 -0.6397 -0.0239
 2308SOL    HW2 9305   2.284   3.914   3.825  2.0321  1.4339  0.4074
 2308SOL    HW3 9306   2.221   3.977   3.702  2.0510  0.9854  0.1656
 2308SOL    MW4 9307   2.223   3.965   3.789  0.8585 -0.1514  0.0579
 2309SOL     OW 9308   2.171   4.223   3.886 -0.1449  0.4496  0.2873
 2309SOL    HW2 9309   2.179   4.220   3.982 -2.7132 -0.0921  0.5313
 2309SOL    HW3 9310   2.197   4.135   3.858  0.8412  0.6790  0.4464
 2309SOL    MW4 9311   2.175   4.211   3.895 -0.3533  0.4086  0.3405
 2310SOL     OW 9312   2.407   4.362   3.810  0.0281  0.2412  0.8486
 2310SOL    HW2 9313   2.334   4.318   3.852 -0.6826  0.1929 -0.4320
 2310SOL    HW3 9314   2.406   4.451   3.847  0.6182 -0.3893  2.3920
 2310SOL    MW4 9315   2.397   4.368   3.821  0.0124  0.1512  0.8831
 2311SOL     OW 9316   2.871   4.583   3.874  0.2083  0.0354 -0.3420
 2311SOL    HW2 9317   2.867   4.578   3.969  1.1694  0.4308 -0.2759
 2311SOL    HW3 9318   2.949   4.635   3.856 -0.3384  0.5249 -1.3350
 2311SOL    MW4 9319   2.881   4.589   3.884  0.2630  0.1516 -0.4640
 2312SOL     OW 9320   2.640   0.045   3.774 -0.0301 -0.0151 -0.4916
 2312SOL    HW2 9321   2.713  -0.001   3.814 -0.2993 -0.5857 -0.6526
 2312SOL    HW3 9322   2.656   0.039   3.680 -0.2884 -0.1565 -0.5288
 2312SOL    MW4 9323   2.652   0.038   3.767 -0.0997 -0.1090 -0.5178
 2313SOL     OW 9324   2.668   0.300   3.839  0.2974  0.0831 -0.2767
 2313SOL    HW2 9325   2.647   0.213   3.807 -0.5858 -0.5350  1.8493
 2313SOL    HW3 9326   2.596   0.355   3.808 -0.9525 -0.6560  1.2029
 2313SOL    MW4 9327   2.656   0.296   3.831  0.0157 -0.0959  0.1988
 2314SOL     OW 9328   2.895   0.486   3.751  0.1991  1.4662  0.0184
 2314SOL    HW2 9329   2.967   0.437   3.789  0.0870  0.4562 -1.0528
 2314SOL    HW3 9330   2.816   0.440   3.781  0.1379  0.0395 -2.2363
 2314SOL    MW4 9331   2.894   0.474   3.760  0.1764  1.1447 -0.4203
 2315SOL     OW 9332   2.897   0.732   3.873  0.3903  0.3589 -0.0161
 2315SOL    HW2 9333   2.976   0.772   3.837 -0.6750  1.1843 -1.5356
 2315SOL    HW3 9334   2.887   0.650   3.825  0.3189  0.2783  0.1384
 2315SOL    MW4 9335   2.906   0.727   3.862  0.2401  0.4572 -0.1965
 2316SOL     OW 9336   2.667   0.856   3.785 -0.3708 -0.0263  0.0649
 2316SOL    HW2 9337   2.744   0.814   3.824 -0.0836 -1.0964 -1.6260
 2316SOL    HW3 9338   2.593   0.806   3.819 -0.1874 -0.3587 -0.0283
 2316SOL    MW4 9339   2.668   0.844   3.795 -0.3085 -0.2114 -0.1707
 2317SOL     OW 9340   2.661   1.136   3.847 -0.0880 -0.3805 -0.1298
 2317SOL    HW2 9341   2.637   1.046   3.823 -1.5177 -0.0440  0.0011
 2317SOL    HW3 9342   2.582   1.187   3.831  0.4345  0.7024  0.6893
 2317SOL    MW4 9343   2.647   1.131   3.841 -0.2079 -0.1931 -0.0043
 2318SOL     OW 9344   2.901   1.238   3.731  0.3230 -0.3830 -0.0708
 2318SOL    HW2 9345   2.897   1.324   3.774 -0.4352 -0.4371 -0.0183
 2318SOL    HW3 9346   2.817   1.198   3.751  0.5301 -0.9901 -0.4128
 2318SOL    MW4 9347   2.889   1.244   3.740  0.2501 -0.4703 -0.1090
 2319SOL     OW 9348   2.894   1.479   3.858 -0.2548  0.1378  0.2725
 2319SOL    HW2 9349   2.869   1.488   3.950 -0.4852  0.1914  0.2052
 2319SOL    HW3 9350   2.968   1.539   3.847  1.4234 -1.7560  1.0527
 2319SOL    MW4 9351   2.900   1.488   3.869 -0.0637 -0.1049  0.3664
 2320SOL     OW 9352   2.672   1.638   3.767 -0.1626  0.0122 -0.0247
 2320SOL    HW2 9353   2.746   1.585   3.796  0.2671  0.4420 -0.3480
 2320SOL    HW3 9354   2.679   1.639   3.671  0.1596  1.1390  0.0063
 2320SOL    MW4 9355   2.682   1.631   3.758 -0.0637  0.2177 -0.0632
 2321SOL     OW 9356   2.627   1.894   3.884 -0.1937  0.2423  0.0012
 2321SOL    HW2 9357   2.632   1.803   3.852  0.6826 -0.4688  2.0473
 2321SOL    HW3 9358   2.541   1.925   3.856 -1.5736 -2.1056  1.4272
 2321SOL    MW4 9359   2.616   1.886   3.876 -0.2601 -0.1613  0.4592
 2322SOL     OW 9360   2.852   2.041   3.790  0.1049 -0.0917 -0.4569
 2322SOL    HW2 9361   2.847   2.126   3.834  1.1557 -0.6428  0.7567
 2322SOL    HW3 9362   2.769   1.999   3.809  0.4397 -0.2076  0.7801
 2322SOL    MW4 9363   2.841   2.047   3.798  0.2875 -0.1798 -0.1338
 2323SOL     OW 9364   2.891   2.308   3.864 -0.3571 -0.0365 -0.6588
 2323SOL    HW2 9365   2.888   2.292   3.959 -1.5446 -1.3936 -0.8968
 2323SOL    HW3 9366   2.977   2.347   3.849  0.1842 -0.5767  0.8701
 2323SOL    MW4 9367   2.902   2.311   3.875 -0.4423 -0.2868 -0.4883
 2324SOL     OW 9368   2.658   2.440   3.788 -0.6205  0.3336  0.2419
 2324SOL    HW2 9369   2.670   2.533   3.810 -0.4706  0.8277 -1.7651
 2324SOL    HW3 9370   2.741   2.399   3.812 -0.3406  0.9073  0.2835
 2324SOL    MW4 9371   2.671   2.447   3.794 -0.5639  0.4747 -0.0174
 2325SOL     OW 9372   2.688   2.685   3.880 -0.2297 -0.1036 -0.0227
 2325SOL    HW2 9373   2.674   2.675   3.974  1.6572  0.6091  0.3565
 2325SOL    HW3 9374   2.603   2.713   3.846 -0.7796  0.1950  1.5538
 2325SOL    MW4 9375   2.675   2.687   3.888 -0.0534  0.0296  0.2353
 2326SOL     OW 9376   2.894   2.806   3.732  0.2307  0.1693  0.1777
 2326SOL    HW2 9377   2.916   2.883   3.785 -2.1218  2.2498 -1.7974
 2326SOL    HW3 9378   2.813   2.773   3.770  1.1550 -1.3158  0.9283
 2326SOL    MW4 9379   2.886   2.812   3.744  0.0424  0.2477  0.0162
 2327SOL     OW 9380   2.954   3.028   3.891  0.4351  0.0372 -0.4147
 2327SOL    HW2 9381   3.027   3.086   3.869 -0.0898  0.9025  0.0775
 2327SOL    HW3 9382   2.876   3.075   3.859  0.0880 -0.8374 -0.8661
 2327SOL    MW4 9383   2.953   3.042   3.884  0.3202  0.0360 -0.4096
 2328SOL     OW 9384   2.707   3.178   3.818  0.4390  0.7338  0.0273
 2328SOL    HW2 9385   2.699   3.271   3.837  0.1144  1.0239 -1.4464
 2328SOL    HW3 9386   2.617   3.144   3.827  0.7283  0.3304  1.6230
 2328SOL    MW4 9387   2.694   3.185   3.822  0.4346  0.7191  0.0432
 2329SOL     OW 9388   2.667   3.457   3.879 -0.5345  0.1045 -0.0183
 2329SOL    HW2 9389   2.668   3.454   3.974 -0.8099 -1.6839 -0.0461
 2329SOL    HW3 9390   2.744   3.508   3.855 -0.4134  0.4806  1.1590
 2329SOL    MW4 9391   2.677   3.463   3.888 -0.5553 -0.0820  0.1335
 2330SOL     OW 9392   2.903   3.595   3.787 -0.1380 -0.1589 -0.2245
 2330SOL    HW2 9393   2.978   3.553   3.829 -0.4459  0.8783  1.3894
 2330SOL    HW3 9394   2.917   3.579   3.693  1.2815 -1.3016  0.1584
 2330SOL    MW4 9395   2.915   3.588   3.780  0.0088 -0.1731  0.0391
 2331SOL     OW 9396   2.888   3.865   3.831 -0.4478 -0.1865 -0.5489
 2331SOL    HW2 9397   2.879   3.860   3.926  2.0883 -1.4348 -0.3380
 2331SOL    HW3 9398   2.903   3.775   3.804  0.8915  0.4341 -1.9045
 2331SOL    MW4 9399   2.888   3.853   3.840  0.0634 -0.2689 -0.6998
 2332SOL     OW 9400   2.657   3.968   3.744  0.0413 -0.2223  0.1884
 2332SOL    HW2 9401   2.652   4.056   3.783  0.1071 -0.6936  1.2550
 2332SOL    HW3 9402   2.729   3.925   3.789 -0.7642 -1.2470  0.5176
 2332SOL    MW4 9403   2.666   3.974   3.755 -0.0563 -0.4196  0.3724
 2333SOL     OW 9404   2.628   4.212   3.876  0.0409  0.6842 -0.3302
 2333SOL    HW2 9405   2.706   4.236   3.827  1.5197  2.1223  2.6057
 2333SOL    HW3 9406   2.563   4.277   3.849  0.8281  1.4677 -0.3717
 2333SOL    MW4 9407   2.630   4.224   3.866  0.3395  0.9775  0.0517
 2334SOL     OW 9408   2.865   4.318   3.774 -0.1491 -0.2736  0.0126
 2334SOL    HW2 9409   2.952   4.278   3.782  0.4018  0.7661 -0.7317
 2334SOL    HW3 9410   2.876   4.407   3.808 -1.1883 -0.4748  0.9206
 2334SOL    MW4 9411   2.878   4.324   3.780 -0.2134 -0.1636  0.0341
 2335SOL     OW 9412   3.362   4.640   3.910  0.2320  0.3056 -0.3258
 2335SOL    HW2 9413   3.389   4.618   3.999  0.8456 -0.6756 -0.7387
 2335SOL    HW3 9414   3.439   4.681   3.871  0.2325  0.0206 -0.6368
 2335SOL    MW4 9415   3.375   4.642   3.916  0.3130  0.1388 -0.4210
 2336SOL     OW 9416   3.111   0.043   3.807  0.0897 -0.1196 -0.7333
 2336SOL    HW2 9417   3.193   0.015   3.849  0.1102 -0.1560 -0.7975
 2336SOL    HW3 9418   3.136   0.063   3.717 -0.2450 -1.4868 -1.1325
 2336SOL    MW4 9419   3.125   0.042   3.801  0.0479 -0.3048 -0.7946
 2337SOL     OW 9420   3.087   0.317   3.869 -0.1393 -0.1625  0.3267
 2337SOL    HW2 9421   3.093   0.324   3.965 -0.7417 -2.4893  0.5708
 2337SOL    HW3 9422   3.111   0.226   3.851  0.3227  0.3509 -1.7902
 2337SOL    MW4 9423   3.091   0.306   3.879 -0.1578 -0.4018  0.0796
 2338SOL     OW 9424   3.318   0.453   3.790 -0.1072  0.6301  0.4023
 2338SOL    HW2 9425   3.384   0.417   3.849  0.3631 -1.4975 -1.3675
 2338SOL    HW3 9426   3.235   0.417   3.822 -0.0063  0.4981  0.5122
 2338SOL    MW4 9427   3.316   0.444   3.802 -0.0317  0.3320  0.1831
 2339SOL     OW 9428   3.349   0.725   3.845 -0.3466 -0.2340 -0.4195
 2339SOL    HW2 9429   3.353   0.720   3.940 -0.0968 -0.0216 -0.4167
 2339SOL    HW3 9430   3.326   0.637   3.817 -3.4146  0.3716 -0.0103
 2339SOL    MW4 9431   3.346   0.713   3.854 -0.7186 -0.1261 -0.3648
 2340SOL     OW 9432   3.133   0.862   3.752  0.0038  0.4732  0.2850
 2340SOL    HW2 9433   3.215   0.830   3.789 -0.3649  0.2712  0.9419
 2340SOL    HW3 9434   3.133   0.832   3.661 -0.2560 -1.2352  0.8425
 2340SOL    MW4 9435   3.144   0.854   3.745 -0.0792  0.2211  0.4454
 2341SOL     OW 9436   3.129   1.130   3.875  0.4609  0.1458 -0.0854
 2341SOL    HW2 9437   3.137   1.041   3.840 -0.1654 -0.7726  1.9845
 2341SOL    HW3 9438   3.049   1.164   3.834 -0.2916 -0.9222  0.4446
 2341SOL    MW4 9439   3.119   1.123   3.865  0.2789 -0.1162  0.2575
 2342SOL     OW 9440   3.346   1.249   3.739 -0.3260  0.5180  0.0323
 2342SOL    HW2 9441   3.266   1.217   3.781 -0.1022  0.3796  0.3657
 2342SOL    HW3 9442   3.326   1.253   3.646 -1.0607  1.5022  0.2284
 2342SOL    MW4 9443   3.333   1.245   3.733 -0.3936  0.6298  0.1020
 2343SOL     OW 9444   3.350   1.499   3.858 -0.4622  0.3272  0.0395
 2343SOL    HW2 9445   3.268   1.548   3.846 -0.1786  1.1154  1.2049
 2343SOL    HW3 9446   3.329   1.411   3.827 -1.1292  1.0362 -1.6461
 2343SOL    MW4 9447   3.336   1.494   3.852 -0.5128  0.5246 -0.0291
 2344SOL     OW 9448   3.123   1.645   3.812 -0.2425 -0.4330 -0.0103
 2344SOL    HW2 9449   3.111   1.738   3.832  0.1317 -0.7146  1.6618
 2344SOL    HW3 9450   3.140   1.642   3.718  0.5421  1.2551  0.0584
 2344SOL    MW4 9451   3.123   1.657   3.803 -0.0896 -0.2475  0.2193
 2345SOL     OW 9452   3.134   1.918   3.871  0.1216 -0.1025  0.0627
 2345SOL    HW2 9453   3.120   1.918   3.966  0.1849  1.3475  0.0774
 2345SOL    HW3 9454   3.053   1.954   3.835 -0.0220 -0.9341 -0.4566
 2345SOL    MW4 9455   3.121   1.923   3.879  0.1113 -0.0211 -0.0038
 2346SOL     OW 9456   3.381   2.054   3.749  0.0752  0.1516  0.0541
 2346SOL    HW2 9457   3.316   1.990   3.775  1.1775 -0.9579  0.1105
 2346SOL    HW3 9458   3.371   2.062   3.654 -0.4633  0.3434  0.1268
 2346SOL    MW4 9459   3.371   2.047   3.740  0.1495  0.0308  0.0710
 2347SOL     OW 9460   3.356   2.313   3.879 -0.0341  0.1501  0.0230
 2347SOL    HW2 9461   3.281   2.356   3.838  0.6906  0.7208 -0.7008
 2347SOL    HW3 9462   3.359   2.227   3.839  0.6082  0.6680 -1.0332
 2347SOL    MW4 9463   3.346   2.307   3.869  0.1464  0.2940 -0.2117
 2348SOL     OW 9464   3.122   2.439   3.779 -0.7032  0.7096  0.0035
 2348SOL    HW2 9465   3.112   2.527   3.816 -1.3498  0.7124 -0.1803
 2348SOL    HW3 9466   3.138   2.453   3.686 -1.0972  0.6144 -0.0760
 2348SOL    MW4 9467   3.123   2.452   3.772 -0.8407  0.6976 -0.0315
 2349SOL     OW 9468   3.093   2.681   3.872  0.0333  0.2253 -0.3349
 2349SOL    HW2 9469   3.073   2.686   3.966  0.1317  1.3448 -0.3644
 2349SOL    HW3 9470   3.013   2.711   3.829  0.0694 -0.0674 -0.6096
 2349SOL    MW4 9471   3.080   2.686   3.879  0.0513  0.3345 -0.3750
 2350SOL     OW 9472   3.351   2.792   3.794 -0.6008  0.1641 -0.3450
 2350SOL    HW2 9473   3.262   2.770   3.819 -0.2204 -1.7970 -0.6450
 2350SOL    HW3 9474   3.351   2.788   3.698 -0.0251 -0.5631 -0.3197
 2350SOL    MW4 9475   3.339   2.788   3.784 -0.4747 -0.1907 -0.3812
 2351SOL     OW 9476   3.353   3.062   3.926  0.5099  0.3463  0.2257
 2351SOL    HW2 9477   3.433   3.109   3.900  0.2540  1.0249  0.6601
 2351SOL    HW3 9478   3.358   2.980   3.878  1.5847  0.2899  0.4119
 2351SOL    MW4 9479   3.365   3.058   3.916  0.6177  0.4282  0.3076
 2352SOL     OW 9480   3.156   3.194   3.816  0.2891 -0.5088 -0.1176
 2352SOL    HW2 9481   3.233   3.148   3.850 -0.3789 -2.0237 -0.6126
 2352SOL    HW3 9482   3.153   3.171   3.723  0.9608  2.0083 -0.7986
 2352SOL    MW4 9483   3.166   3.185   3.808  0.2897 -0.3767 -0.2728
 2353SOL     OW 9484   3.132   3.469   3.871 -0.0027 -0.1877 -0.2365
 2353SOL    HW2 9485   3.218   3.490   3.836 -0.2853 -0.3224 -1.0424
 2353SOL    HW3 9486   3.128   3.373   3.867  0.0199 -0.2109  0.3103
 2353SOL    MW4 9487   3.143   3.459   3.866 -0.0372 -0.2086 -0.2704
 2354SOL     OW 9488   3.371   3.569   3.790  0.2706  0.1094  0.3047
 2354SOL    HW2 9489   3.369   3.662   3.816 -0.2826  0.3453 -0.6019
 2354SOL    HW3 9490   3.373   3.570   3.695  2.4636 -0.7704  0.2961
 2354SOL    MW4 9491   3.371   3.582   3.781  0.4869  0.0243  0.1838
 2355SOL     OW 9492   3.368   3.829   3.864  0.6864  0.0716  0.2461
 2355SOL    HW2 9493   3.433   3.879   3.814  0.2202  0.9842  0.5501
 2355SOL    HW3 9494   3.284   3.856   3.827  0.2829  1.3797  2.0915
 2355SOL    MW4 9495   3.366   3.839   3.852  0.5717  0.3645  0.5298
 2356SOL     OW 9496   3.148   3.956   3.750 -0.3129  0.4260 -0.1903
 2356SOL    HW2 9497   3.155   4.050   3.767  0.4110  0.2429  0.5872
 2356SOL    HW3 9498   3.063   3.931   3.786 -0.1432  0.6353  0.3691
 2356SOL    MW4 9499   3.138   3.965   3.757 -0.1948  0.4296 -0.0138
 2357SOL     OW 9500   3.125   4.223   3.819 -0.0862 -0.1625 -0.4477
 2357SOL    HW2 9501   3.137   4.217   3.914 -1.9135  0.4550 -0.1653
 2357SOL    HW3 9502   3.194   4.284   3.791 -1.3591  1.9651  0.9017
 2357SOL    MW4 9503   3.136   4.230   3.828 -0.4952  0.1998 -0.2327
 2358SOL     OW 9504   3.347   4.391   3.764  0.2601 -0.3453  0.8290
 2358SOL    HW2 9505   3.426   4.341   3.784  0.4578 -0.3481  0.0797
 2358SOL    HW3 9506   3.360   4.475   3.807  0.3784 -0.5809  1.2573
 2358SOL    MW4 9507   3.359   4.395   3.772  0.3021 -0.3772  0.7868
 2359SOL     OW 9508   3.775   4.665   3.917 -0.3042 -0.2021 -0.1498
 2359SOL    HW2 9509   3.853   4.710   3.883 -1.9633  1.6002 -1.6486
 2359SOL    HW3 9510   3.777   4.580   3.872  0.3606  0.1421 -0.7993
 2359SOL    MW4 9511   3.786   4.660   3.907 -0.4351  0.0811 -0.4332
 2360SOL     OW 9512   3.553   0.102   3.798  0.4236  0.0694  0.1712
 2360SOL    HW2 9513   3.630   0.069   3.843  0.8454  0.1119 -0.5083
 2360SOL    HW3 9514   3.573   0.091   3.705  0.3702  1.7575 -0.0554
 2360SOL    MW4 9515   3.566   0.096   3.792  0.4723  0.2978  0.0515
 2361SOL     OW 9516   3.527   0.344   3.932  0.2211 -0.1986 -0.1101
 2361SOL    HW2 9517   3.601   0.376   3.881  0.7390 -1.7358 -0.3456
 2361SOL    HW3 9518   3.510   0.256   3.898 -2.2947  0.4590 -0.6742
 2361SOL    MW4 9519   3.535   0.337   3.921 -0.0424 -0.3147 -0.2155
 2362SOL     OW 9520   3.748   0.460   3.758  0.1000  0.0253 -0.2770
 2362SOL    HW2 9521   3.830   0.421   3.787 -0.2017 -1.2540 -1.1159
 2362SOL    HW3 9522   3.752   0.550   3.790  2.3911  0.3491 -1.3923
 2362SOL    MW4 9523   3.759   0.467   3.766  0.3626 -0.1008 -0.5348
 2363SOL     OW 9524   3.765   0.712   3.859  0.3533 -0.1851 -0.0912
 2363SOL    HW2 9525   3.839   0.770   3.838  0.1283 -0.2638 -1.1405
 2363SOL    HW3 9526   3.688   0.758   3.826  0.0821 -0.7121 -0.1992
 2363SOL    MW4 9527   3.765   0.726   3.852  0.2878 -0.2649 -0.2437
 2364SOL     OW 9528   3.553   0.850   3.703 -0.4357 -0.3351 -0.0819
 2364SOL    HW2 9529   3.544   0.931   3.752  0.9719 -0.3546  0.2345
 2364SOL    HW3 9530   3.490   0.790   3.742 -0.5172  0.1861  0.5788
 2364SOL    MW4 9531   3.544   0.853   3.714 -0.2611 -0.2689  0.0467
 2365SOL     OW 9532   3.574   1.099   3.811 -0.3653 -0.0412  0.5529
 2365SOL    HW2 9533   3.650   1.155   3.797  0.7586 -1.6820 -0.0333
 2365SOL    HW3 9534   3.501   1.146   3.771  0.9491  0.0613 -1.7748
 2365SOL    MW4 9535   3.574   1.112   3.804 -0.0439 -0.2441  0.1683
 2366SOL     OW 9536   3.819   1.242   3.750  0.3481  0.3314  0.2687
 2366SOL    HW2 9537   3.881   1.199   3.809 -0.4689 -0.3661  0.6288
 2366SOL    HW3 9538   3.820   1.334   3.778  1.1644  0.3092  0.3177
 2366SOL    MW4 9539   3.827   1.249   3.762  0.3481  0.2365  0.3231
 2367SOL     OW 9540   3.816   1.528   3.802  0.1276 -0.8894 -0.0380
 2367SOL    HW2 9541   3.805   1.503   3.893 -0.4588 -0.2448  0.0783
 2367SOL    HW3 9542   3.738   1.580   3.782  1.2282  0.6960 -0.3009
 2367SOL    MW4 9543   3.804   1.532   3.811  0.1957 -0.5952 -0.0577
 2368SOL     OW 9544   3.580   1.642   3.762  0.4384 -0.5436  0.0221
 2368SOL    HW2 9545   3.503   1.604   3.804  0.5902 -0.1173  0.6889
 2368SOL    HW3 9546   3.579   1.734   3.787 -0.0910 -0.0148 -1.8304
 2368SOL    MW4 9547   3.570   1.649   3.771  0.3886 -0.4177 -0.1345
 2369SOL     OW 9548   3.591   1.910   3.841 -0.2552  0.2772  0.3763
 2369SOL    HW2 9549   3.625   1.944   3.924 -0.9270  0.9145  0.3966
 2369SOL    HW3 9550   3.517   1.968   3.820 -0.7714 -0.5546 -0.1099
 2369SOL    MW4 9551   3.586   1.922   3.849 -0.4120  0.2518  0.3147
 2370SOL     OW 9552   3.812   2.078   3.753 -0.5451 -0.0645  0.7391
 2370SOL    HW2 9553   3.890   2.042   3.796 -0.6584  0.0977  1.0775
 2370SOL    HW3 9554   3.743   2.015   3.773 -0.6580  0.1501  1.0142
 2370SOL    MW4 9555   3.813   2.065   3.761 -0.5748 -0.0145  0.8204
 2371SOL     OW 9556   3.796   2.335   3.849  0.2597  0.4063  0.2184
 2371SOL    HW2 9557   3.721   2.374   3.806  0.6423  0.9506  0.0280
 2371SOL    HW3 9558   3.787   2.241   3.835 -0.3943  0.4683  0.2229
 2371SOL    MW4 9559   3.785   2.328   3.842  0.2239  0.4864  0.1938
 2372SOL     OW 9560   3.567   2.446   3.734 -0.1044  0.2389  0.2652
 2372SOL    HW2 9561   3.497   2.398   3.780  0.2658 -1.0893 -0.5313
 2372SOL    HW3 9562   3.547   2.433   3.641  1.6551 -0.8748  0.0190
 2372SOL    MW4 9563   3.555   2.438   3.728  0.1767 -0.0832  0.1276
 2373SOL     OW 9564   3.628   2.692   3.830  0.3418 -0.6184 -0.7945
 2373SOL    HW2 9565   3.613   2.600   3.809  2.0979 -0.9955 -0.4790
 2373SOL    HW3 9566   3.544   2.735   3.813 -1.5504 -2.8770  2.4697
 2373SOL    MW4 9567   3.615   2.686   3.825  0.3238 -0.9663 -0.3221
 2374SOL     OW 9568   3.825   2.836   3.735 -0.6099  0.7245  0.0710
 2374SOL    HW2 9569   3.898   2.799   3.784 -1.0029 -0.1180  0.0284
 2374SOL    HW3 9570   3.748   2.789   3.766 -0.4823 -2.1851 -3.6501
 2374SOL    MW4 9571   3.824   2.825   3.746 -0.6444  0.2296 -0.4258
 2375SOL     OW 9572   3.815   3.080   3.878  0.3101 -0.5527 -0.0203
 2375SOL    HW2 9573   3.731   3.124   3.869  0.2123 -0.6683  0.3358
 2375SOL    HW3 9574   3.803   2.997   3.830 -0.6511 -1.7721  2.2540
 2375SOL    MW4 9575   3.802   3.075   3.870  0.1705 -0.7286  0.3269
 2376SOL     OW 9576   3.584   3.198   3.795 -0.3786 -0.0971  0.2717
 2376SOL    HW2 9577   3.593   3.288   3.826  0.0958  0.1405 -0.5670
 2376SOL    HW3 9578   3.572   3.205   3.701 -1.8149 -0.8355  0.3732
 2376SOL    MW4 9579   3.584   3.211   3.787 -0.5054 -0.1631  0.1748
 2377SOL     OW 9580   3.610   3.470   3.898 -0.1090  0.2690  0.6898
 2377SOL    HW2 9581   3.600   3.473   3.993 -0.9439  1.0048  0.5817
 2377SOL    HW3 9582   3.534   3.517   3.864  1.1429  1.6379 -0.2875
 2377SOL    MW4 9583   3.599   3.476   3.906 -0.0541  0.5469  0.5467
 2378SOL     OW 9584   3.829   3.595   3.753  0.4153 -0.1433  0.1689
 2378SOL    HW2 9585   3.819   3.682   3.790 -1.5904 -0.2739 -0.0057
 2378SOL    HW3 9586   3.762   3.542   3.797  0.7337 -1.2767 -0.6694
 2378SOL    MW4 9587   3.819   3.599   3.764  0.1926 -0.3102  0.0353
 2379SOL     OW 9588   3.825   3.853   3.839 -0.1709 -0.2164  0.0452
 2379SOL    HW2 9589   3.820   3.830   3.932  0.5147 -1.6471 -0.2612
 2379SOL    HW3 9590   3.904   3.907   3.832  0.0741 -0.5551  0.1978
 2379SOL    MW4 9591   3.835   3.857   3.850 -0.0482 -0.4497  0.0250
 2380SOL     OW 9592   3.582   3.971   3.750  0.5130  0.1859 -0.4197
 2380SOL    HW2 9593   3.569   4.063   3.771 -1.1063 -0.6827  2.6461
 2380SOL    HW3 9594   3.665   3.948   3.790  0.1878 -0.0625  0.1107
 2380SOL    MW4 9595   3.591   3.980   3.758  0.2565  0.0389  0.0546
 2381SOL     OW 9596   3.578   4.230   3.834 -0.6894 -0.0800 -0.3826
 2381SOL    HW2 9597   3.576   4.207   3.927 -0.4546 -2.3800 -0.9234
 2381SOL    HW3 9598   3.651   4.292   3.826 -1.3252  0.9042  1.1058
 2381SOL    MW4 9599   3.587   4.235   3.845 -0.7422 -0.2537 -0.2575
 2382SOL     OW 9600   3.777   4.416   3.791 -0.6701  0.0889 -0.4448
 2382SOL    HW2 9601   3.842   4.358   3.830 -0.8742 -0.1862 -0.5139
 2382SOL    HW3 9602   3.795   4.413   3.697 -1.3966 -0.7376 -0.5586
 2382SOL    MW4 9603   3.788   4.408   3.784 -0.7930 -0.0563 -0.4690
 2383SOL     OW 9604   4.191   4.644   3.920  0.0000  0.2024  0.1053
 2383SOL    HW2 9605   4.188   4.655   4.015  0.8370 -0.6516  0.2338
 2383SOL    HW3 9606   4.272   4.686   3.893  0.5144 -0.8736 -0.0455
 2383SOL    MW4 9607   4.201   4.651   3.929  0.1788 -0.0525  0.1023
 2384SOL     OW 9608   3.989   0.120   3.780 -0.1348 -0.8528  0.0806
 2384SOL    HW2 9609   4.061   0.067   3.814  0.8622  0.1220 -0.4854
 2384SOL    HW3 9610   3.990   0.103   3.685 -0.1129 -0.1807 -0.0368
 2384SOL    MW4 9611   3.998   0.110   3.772 -0.0002 -0.6355 -0.0093
 2385SOL     OW 9612   3.996   0.373   3.867  0.1349  0.0983 -0.1804
 2385SOL    HW2 9613   4.005   0.359   3.961 -0.3796  0.2471 -0.1048
 2385SOL    HW3 9614   3.984   0.285   3.830 -1.9955  0.2010  0.1679
 2385SOL    MW4 9615   3.995   0.359   3.875 -0.2139  0.1315 -0.1245
 2386SOL     OW 9616   4.242   0.497   3.805  0.6431 -0.3646 -0.1455
 2386SOL    HW2 9617   4.160   0.459   3.835  0.3552 -0.1710 -0.6797
 2386SOL    HW3 9618   4.227   0.518   3.713  0.7769  1.0708  0.1385
 2386SOL    MW4 9619   4.229   0.495   3.797  0.6232 -0.1497 -0.1783
 2387SOL     OW 9620   4.246   0.788   3.884 -0.5567  0.0034  0.2216
 2387SOL    HW2 9621   4.162   0.833   3.871 -0.3683  0.3589  0.2320
 2387SOL    HW3 9622   4.229   0.698   3.855 -0.6606  0.3214 -0.7395
 2387SOL    MW4 9623   4.233   0.782   3.879 -0.5460  0.0923  0.0961
 2388SOL     OW 9624   3.994   0.877   3.801  0.6602 -0.1881 -0.1867
 2388SOL    HW2 9625   3.987   0.971   3.821  0.1503 -0.2837  0.0831
 2388SOL    HW3 9626   4.022   0.875   3.709  0.8379  0.2314 -0.1437
 2388SOL    MW4 9627   3.997   0.889   3.791  0.6166 -0.1454 -0.1452
 2389SOL     OW 9628   4.035   1.138   3.886 -0.1193  0.3128  0.0077
 2389SOL    HW2 9629   4.046   1.125   3.980 -1.5371 -1.8490 -0.0784
 2389SOL    HW3 9630   4.116   1.181   3.858 -0.1780  2.0392  2.3859
 2389SOL    MW4 9631   4.047   1.142   3.895 -0.3147  0.2555  0.3104
 2390SOL     OW 9632   4.249   1.281   3.806 -0.5448 -0.4402 -0.1069
 2390SOL    HW2 9633   4.249   1.370   3.841  0.3262 -0.4271 -0.1262
 2390SOL    HW3 9634   4.244   1.292   3.711 -1.2657 -0.4327 -0.0675
 2390SOL    MW4 9635   4.248   1.294   3.798 -0.5250 -0.4375 -0.1042
 2391SOL     OW 9636   4.238   1.546   3.875 -0.0766  0.2322  0.6980
 2391SOL    HW2 9637   4.168   1.600   3.838 -0.4857 -0.0129  1.1157
 2391SOL    HW3 9638   4.318   1.580   3.835 -0.5630 -0.3509 -0.7677
 2391SOL    MW4 9639   4.240   1.558   3.865 -0.1950  0.1227  0.5598
 2392SOL     OW 9640   4.026   1.685   3.724  0.1798  0.0073  0.4538
 2392SOL    HW2 9641   4.041   1.772   3.759  0.8624 -0.1496  0.5513
 2392SOL    HW3 9642   3.952   1.651   3.774  0.1293  0.3997  0.6435
 2392SOL    MW4 9643   4.018   1.692   3.735  0.2632  0.0384  0.4916
 2393SOL     OW 9644   4.066   1.926   3.841 -0.0678 -0.3076 -0.4294
 2393SOL    HW2 9645   4.066   1.925   3.936  0.2249 -2.0855 -0.4346
 2393SOL    HW3 9646   4.133   1.990   3.817  0.2723 -0.2938  0.5533
 2393SOL    MW4 9647   4.075   1.935   3.850  0.0157 -0.5403 -0.3006
 2394SOL     OW 9648   4.281   2.080   3.765 -0.0168  0.2258 -0.1145
 2394SOL    HW2 9649   4.284   2.165   3.808  0.6623  0.1401  0.0169
 2394SOL    HW3 9650   4.294   2.100   3.672 -0.8343  0.3519 -0.2040
 2394SOL    MW4 9651   4.283   2.094   3.759 -0.0353  0.2310 -0.1090
 2395SOL     OW 9652   4.269   2.347   3.867  0.5342 -0.1197 -0.4544
 2395SOL    HW2 9653   4.254   2.351   3.962  0.1963  0.7924 -0.5367
 2395SOL    HW3 9654   4.187   2.380   3.829  0.6333 -0.5822 -1.0633
 2395SOL    MW4 9655   4.256   2.352   3.875  0.5021 -0.0606 -0.5457
 2396SOL     OW 9656   4.026   2.467   3.748 -0.2809 -0.2924 -0.1849
 2396SOL    HW2 9657   4.040   2.553   3.788  0.0319 -0.1748 -0.5501
 2396SOL    HW3 9658   3.944   2.437   3.786 -0.9354  0.6239 -0.8456
 2396SOL    MW4 9659   4.017   2.474   3.759 -0.3257 -0.1559 -0.3204
 2397SOL     OW 9660   4.050   2.721   3.862  0.1926 -0.0039 -0.0966
 2397SOL    HW2 9661   4.076   2.744   3.952  0.0807  0.3682 -0.1564
 2397SOL    HW3 9662   4.118   2.761   3.807  0.6595 -0.8489 -0.1402
 2397SOL    MW4 9663   4.062   2.729   3.867  0.2398 -0.0660 -0.1101
 2398SOL     OW 9664   4.284   2.851   3.746  0.1444 -0.2968  0.4867
 2398SOL    HW2 9665   4.278   2.930   3.800  0.7770  0.5333 -0.6431
 2398SOL    HW3 9666   4.362   2.806   3.778 -0.2629 -0.5134  1.1875
 2398SOL    MW4 9667   4.294   2.856   3.757  0.1740 -0.2158  0.4301
 2399SOL     OW 9668   4.250   3.079   3.890 -0.1050 -0.3833 -0.3699
 2399SOL    HW2 9669   4.174   3.132   3.866 -0.6514 -0.8702  0.2459
 2399SOL    HW3 9670   4.326   3.132   3.867 -0.6481  0.5291 -0.0464
 2399SOL    MW4 9671   4.250   3.093   3.884 -0.2484 -0.3271 -0.2458
 2400SOL     OW 9672   4.024   3.256   3.784  0.0530 -0.4970 -0.5752
 2400SOL    HW2 9673   3.942   3.209   3.799 -0.2193 -0.1076 -0.8119
 2400SOL    HW3 9674   4.024   3.275   3.690  0.0361  0.1840 -0.4412
 2400SOL    MW4 9675   4.013   3.253   3.774  0.0148 -0.3557 -0.5887
 2401SOL     OW 9676   4.023   3.497   3.924 -0.2142 -0.0919  0.1548
 2401SOL    HW2 9677   4.029   3.408   3.891 -2.0411 -0.4186  0.6884
 2401SOL    HW3 9678   3.955   3.538   3.872 -0.1466  0.6614  0.6473
 2401SOL    MW4 9679   4.015   3.491   3.913 -0.4458 -0.0353  0.2899
 2402SOL     OW 9680   4.235   3.626   3.794 -0.0008  0.0977 -0.2602
 2402SOL    HW2 9681   4.172   3.578   3.847  0.6547  0.0387  0.4799
 2402SOL    HW3 9682   4.321   3.602   3.830  0.4478  0.1462 -1.2771
 2402SOL    MW4 9683   4.238   3.617   3.806  0.1445  0.0963 -0.2971
 2403SOL     OW 9684   4.247   3.874   3.884 -0.0755  0.0572  0.1471
 2403SOL    HW2 9685   4.177   3.924   3.842 -0.3480  0.5219  1.1355
 2403SOL    HW3 9686   4.241   3.787   3.846 -0.2434  0.4896 -0.8523
 2403SOL    MW4 9687   4.237   3.869   3.873 -0.1335  0.1757  0.1457
 2404SOL     OW 9688   4.035   4.006   3.787  0.4827 -0.1023  0.1492
 2404SOL    HW2 9689   4.001   4.090   3.820  1.2196  0.2478  0.0270
 2404SOL    HW3 9690   4.035   4.016   3.692 -1.0889 -0.8995  0.0438
 2404SOL    MW4 9691   4.030   4.018   3.779  0.3729 -0.1616  0.1192
 2405SOL     OW 9692   3.986   4.270   3.870  0.0615 -0.0911  0.0341
 2405SOL    HW2 9693   4.014   4.261   3.961  1.6601  0.0773 -0.4081
 2405SOL    HW3 9694   4.063   4.307   3.826 -0.5688 -0.5209 -1.4507
 2405SOL    MW4 9695   4.000   4.274   3.876  0.1893 -0.1254 -0.2205
 2406SOL     OW 9696   4.225   4.391   3.787  0.1190 -0.0238  0.8180
 2406SOL    HW2 9697   4.206   4.478   3.822  1.0496  0.6474 -0.3109
 2406SOL    HW3 9698   4.299   4.360   3.841 -0.1203 -0.0647  1.1261
 2406SOL    MW4 9699   4.233   4.398   3.799  0.2108  0.0596  0.7100
 2407SOL     OW 9700   0.202   0.005   4.155  0.0421 -0.1911  0.0731
 2407SOL    HW2 9701   0.273   0.048   4.204 -0.1057  0.5973 -0.3827
 2407SOL    HW3 9702   0.229  -0.086   4.149  0.3532 -0.1696  1.1028
 2407SOL    MW4 9703   0.215  -0.001   4.160  0.0637 -0.0842  0.1488
 2408SOL     OW 9704   4.439   0.090   4.220  0.4650  0.4310 -0.5307
 2408SOL    HW2 9705   4.445   0.099   4.315  0.8263 -0.0580 -0.5053
 2408SOL    HW3 9706   4.528   0.065   4.193  0.1294 -0.3672 -0.8948
 2408SOL    MW4 9707   4.452   0.088   4.229  0.4683  0.2612 -0.5760
 2409SOL     OW 9708   0.001   0.340   4.114  0.2385  0.1750 -0.1287
 2409SOL    HW2 9709  -0.009   0.249   4.145  1.8174 -0.0694 -0.3032
 2409SOL    HW3 9710   0.013   0.331   4.020 -0.0937  0.6107 -0.2119
 2409SOL    MW4 9711   0.001   0.327   4.106  0.4025  0.2003 -0.1626
 2410SOL     OW 9712   0.186   0.491   4.254 -0.2844 -0.3950 -0.1415
 2410SOL    HW2 9713   0.275   0.461   4.237 -0.0987  1.1933 -2.0095
 2410SOL    HW3 9714   0.131   0.431   4.204 -0.1801 -0.3778 -0.2768
 2410SOL    MW4 9715   0.191   0.479   4.245 -0.2462 -0.1831 -0.4058
 2411SOL     OW 9716   0.189   0.774   4.171  0.2532  0.1211  0.4061
 2411SOL    HW2 9717   0.099   0.791   4.199  0.5017  0.7982  0.8021
 2411SOL    HW3 9718   0.204   0.682   4.193 -0.7969 -0.3913 -0.9265
 2411SOL    MW4 9719   0.179   0.764   4.178  0.1474  0.1428  0.2818
 2412SOL     OW 9720   4.449   0.875   4.298 -0.2652  0.0810  0.2734
 2412SOL    HW2 9721   4.371   0.828   4.268  0.0691 -0.4192  0.1664
 2412SOL    HW3 9722   4.451   0.955   4.246 -1.3552  0.6672  1.1071
 2412SOL    MW4 9723   4.439   0.879   4.287 -0.3648  0.0923  0.3691
 2413SOL     OW 9724   4.448   1.129   4.160 -0.4813  0.0107 -0.5634
 2413SOL    HW2 9725   4.521   1.177   4.200  1.0746 -2.4506 -0.3744
 2413SOL    HW3 9726   4.465   1.134   4.066 -0.8075  0.5860 -0.5923
 2413SOL    MW4 9727   4.460   1.136   4.153 -0.3190 -0.2381 -0.5422
 2414SOL     OW 9728   0.194   1.243   4.248  0.3496  0.2760  0.0426
 2414SOL    HW2 9729   0.229   1.232   4.336  1.1407  0.8807 -0.1945
 2414SOL    HW3 9730   0.251   1.188   4.193 -0.5832 -0.6711  0.0069
 2414SOL    MW4 9731   0.206   1.234   4.252  0.3309  0.2308  0.0067
 2415SOL     OW 9732   0.159   1.498   4.579  0.2054 -0.2739  0.0997
 2415SOL    HW2 9733   0.250   1.500   4.549  0.2189  0.6570  0.1858
 2415SOL    HW3 9734   0.130   1.589   4.572 -0.4790 -0.4363  0.8079
 2415SOL    MW4 9735   0.167   1.510   4.574  0.1169 -0.1725  0.2046
 2416SOL     OW 9736   0.008   1.657   4.227 -0.0425 -0.4831 -0.3002
 2416SOL    HW2 9737  -0.078   1.618   4.210 -0.6758 -0.2267  2.1825
 2416SOL    HW3 9738  -0.000   1.746   4.194 -0.9795 -0.2427  0.5493
 2416SOL    MW4 9739  -0.005   1.663   4.220 -0.2499 -0.4176  0.1392
 2417SOL     OW 9740   0.200   2.033   4.240  0.7244  0.7499 -0.0450
 2417SOL    HW2 9741   0.193   2.006   4.332  0.8549 -0.9861 -0.5296
 2417SOL    HW3 9742   0.281   1.994   4.210 -0.5525 -0.7670 -1.5872
 2417SOL    MW4 9743   0.209   2.025   4.248  0.5731  0.3207 -0.3123
 2418SOL     OW 9744   0.522   2.042   4.598  0.1536  0.1353 -0.0668
 2418SOL    HW2 9745   0.426   2.038   4.595  0.1980 -1.1227 -0.2656
 2418SOL    HW3 9746   0.549   1.951   4.610  1.2757  0.6883  1.8775
 2418SOL    MW4 9747   0.513   2.029   4.599  0.3076  0.0422  0.1636
 2419SOL     OW 9748   0.234   2.296   4.178 -0.3664 -0.0281 -0.0928
 2419SOL    HW2 9749   0.266   2.350   4.251  0.4507 -0.1423 -0.3685
 2419SOL    HW3 9750   0.218   2.210   4.218 -1.0111  0.2236  0.1974
 2419SOL    MW4 9751   0.236   2.292   4.193 -0.3436 -0.0098 -0.0911
 2420SOL     OW 9752   4.488   2.457   4.270 -0.3812 -0.2981 -0.5669
 2420SOL    HW2 9753   4.413   2.404   4.295 -1.0657  0.6877 -0.4693
 2420SOL    HW3 9754   4.547   2.396   4.226  0.2589 -1.7684  2.2600
 2420SOL    MW4 9755   4.486   2.442   4.267 -0.3871 -0.3622 -0.1812
 2421SOL     OW 9756   4.402   2.701   4.203 -0.3136  0.2268 -0.0401
 2421SOL    HW2 9757   4.465   2.770   4.222  0.2284  0.2098 -1.7168
 2421SOL    HW3 9758   4.449   2.620   4.220  0.1059  0.2171 -1.1814
 2421SOL    MW4 9759   4.416   2.699   4.208 -0.1869  0.2232 -0.4115
 2422SOL     OW 9760   0.171   2.814   4.239  0.0391 -0.1043 -0.2578
 2422SOL    HW2 9761   0.255   2.770   4.229  0.3896  0.4302  0.2330
 2422SOL    HW3 9762   0.191   2.906   4.221  0.0779  0.4094  2.2258
 2422SOL    MW4 9763   0.185   2.821   4.235  0.0904  0.0339  0.1345
 2423SOL     OW 9764   0.218   3.089   4.199  0.0878 -0.1784 -0.1402
 2423SOL    HW2 9765   0.305   3.117   4.225 -0.4948  1.0296  0.5701
 2423SOL    HW3 9766   0.159   3.150   4.244 -1.0568 -0.1428 -1.6464
 2423SOL    MW4 9767   0.222   3.101   4.208 -0.1401 -0.0143 -0.2451
 2424SOL     OW 9768   0.082   3.283   4.350 -0.3339  0.0807  0.5478
 2424SOL    HW2 9769   0.003   3.235   4.372 -0.8529  0.4385 -0.5052
 2424SOL    HW3 9770   0.052   3.359   4.299  0.6070  0.6452  0.8098
 2424SOL    MW4 9771   0.068   3.287   4.346 -0.2782  0.2024  0.4439
 2425SOL     OW 9772   4.479   3.495   4.179 -0.1706 -0.3105 -0.0506
 2425SOL    HW2 9773   4.403   3.534   4.222  0.3094  0.4430  0.1201
 2425SOL    HW3 9774   4.457   3.497   4.085 -0.3857 -0.1445  0.0039
 2425SOL    MW4 9775   4.466   3.501   4.172 -0.1354 -0.1891 -0.0215
 2426SOL     OW 9776   0.218   3.608   4.290  0.3313 -0.1211  0.2791
 2426SOL    HW2 9777   0.289   3.551   4.261  0.3862  0.1380 -0.1068
 2426SOL    HW3 9778   0.141   3.577   4.244  0.8407  1.6545 -1.8656
 2426SOL    MW4 9779   0.217   3.597   4.280  0.4057  0.1473 -0.0553
 2427SOL     OW 9780   0.233   3.875   4.240 -0.0475 -0.5307  0.2393
 2427SOL    HW2 9781   0.149   3.910   4.268 -0.4899 -0.1654 -1.5019
 2427SOL    HW3 9782   0.238   3.789   4.281 -0.0957  0.4819  2.4575
 2427SOL    MW4 9783   0.223   3.869   4.249 -0.1122 -0.3490  0.3018
 2428SOL     OW 9784   4.485   4.014   4.274 -0.1721  0.3070  0.0984
 2428SOL    HW2 9785   4.489   4.002   4.369  1.0294 -0.1803 -0.0131
 2428SOL    HW3 9786   4.407   3.964   4.248 -1.1378  1.3363  0.9527
 2428SOL    MW4 9787   4.475   4.006   4.283 -0.1411  0.3791  0.1965
 2429SOL     OW 9788   4.454   4.269   4.177  0.1436 -0.1762  0.3350
 2429SOL    HW2 9789   4.474   4.180   4.205  0.7272 -0.0329  0.3917
 2429SOL    HW3 9790   4.481   4.272   4.085 -1.2527 -0.4846 -0.0996
 2429SOL    MW4 9791   4.460   4.258   4.169  0.0358 -0.1984  0.2847
 2430SOL     OW 9792   0.215   4.398   4.225  0.1167 -0.4926 -0.6595
 2430SOL    HW2 9793   0.219   4.446   4.308 -0.1889  1.3289 -1.6640
 2430SOL    HW3 9794   0.132   4.350   4.228 -0.2410  0.1516 -0.2039
 2430SOL    MW4 9795   0.204   4.398   4.236  0.0292 -0.1674 -0.7319
 2431SOL     OW 9796   0.663   0.011   4.195  0.3735  0.0871 -0.0602
 2431SOL    HW2 9797   0.579   0.038   4.233  0.6780  1.6893 -0.4995
 2431SOL    HW3 9798   0.650   0.014   4.101  0.1475 -2.2210 -0.1274
 2431SOL    MW4 9799   0.650   0.015   4.188  0.3839 -0.0060 -0.1268
 2432SOL     OW 9800   0.415   0.145   4.284  0.1991 -0.2693  0.0131
 2432SOL    HW2 9801   0.401   0.152   4.378  1.2405  0.9434  0.0942
 2432SOL    HW3 9802   0.421   0.235   4.254  0.2447 -0.6515 -1.1559
 2432SOL    MW4 9803   0.414   0.158   4.292  0.3425 -0.1597 -0.1307
 2433SOL     OW 9804   0.453   0.410   4.204 -0.3292 -0.0581  0.0310
 2433SOL    HW2 9805   0.527   0.453   4.246 -2.0537  2.2869  0.7626
 2433SOL    HW3 9806   0.461   0.433   4.111 -0.3986  0.6039  0.1873
 2433SOL    MW4 9807   0.464   0.418   4.197 -0.5659  0.3386  0.1478
 2434SOL     OW 9808   0.674   0.533   4.306 -0.0599  0.1727 -0.1504
 2434SOL    HW2 9809   0.741   0.486   4.256  0.2178  0.9544 -0.5256
 2434SOL    HW3 9810   0.671   0.620   4.266  0.1403  0.7992  1.1644
 2434SOL    MW4 9811   0.682   0.539   4.294  0.0032  0.3585 -0.0262
 2435SOL     OW 9812   0.668   0.738   4.126 -0.3233  0.0250 -0.0315
 2435SOL    HW2 9813   0.591   0.784   4.160 -0.5341  0.3220 -0.8894
 2435SOL    HW3 9814   0.662   0.749   4.031  1.2999  0.9026 -0.0472
 2435SOL    MW4 9815   0.657   0.746   4.118 -0.1369  0.1799 -0.1464
 2436SOL     OW 9816   0.448   0.866   4.191  0.4392  0.0087  0.1500
 2436SOL    HW2 9817   0.438   0.960   4.175  0.4658  0.0770  0.5282
 2436SOL    HW3 9818   0.358   0.833   4.196  0.4114  0.2114  1.1471
 2436SOL    MW4 9819   0.435   0.874   4.190  0.4390  0.0445  0.3314
 2437SOL     OW 9820   0.408   1.135   4.113  0.1893 -0.3543  0.0490
 2437SOL    HW2 9821   0.482   1.188   4.141 -1.5299  2.6460 -0.9188
 2437SOL    HW3 9822   0.416   1.132   4.017 -0.8093 -0.2313 -0.0396
 2437SOL    MW4 9823   0.419   1.141   4.104 -0.1693  0.0578 -0.0906
 2438SOL     OW 9824   0.648   1.251   4.200  0.3803  0.5622  0.3246
 2438SOL    HW2 9825   0.619   1.258   4.290  0.7988 -0.1753  0.5222
 2438SOL    HW3 9826   0.662   1.342   4.171  1.1735  0.7557  1.3022
 2438SOL    MW4 9827   0.646   1.264   4.208  0.5402  0.4903  0.4797
 2439SOL     OW 9828   0.679   1.526   4.133 -0.1094  0.0681  0.0643
 2439SOL    HW2 9829   0.731   1.591   4.182 -2.3368  2.3514 -0.4978
 2439SOL    HW3 9830   0.685   1.555   4.042  0.5265 -1.7117 -0.4700
 2439SOL    MW4 9831   0.687   1.539   4.128 -0.3194  0.1346 -0.0801
 2440SOL     OW 9832   0.237   1.518   4.176  0.2281  0.6271 -0.0591
 2440SOL    HW2 9833   0.213   1.427   4.191  0.4655  0.4603 -0.6681
 2440SOL    HW3 9834   0.160   1.568   4.203  0.2084  0.2687  0.5537
 2440SOL    MW4 9835   0.224   1.513   4.181  0.2569  0.5577 -0.0587
 2441SOL     OW 9836   0.443   1.917   4.156  0.8260  0.0139 -0.1836
 2441SOL    HW2 9837   0.464   1.829   4.186 -0.2830 -0.9084 -2.0285
 2441SOL    HW3 9838   0.438   1.909   4.060  1.0813  2.1513 -0.3981
 2441SOL    MW4 9839   0.445   1.905   4.147  0.7134  0.1742 -0.4549
 2442SOL     OW 9840   0.607   2.085   4.334 -0.1190  0.3158  0.0203
 2442SOL    HW2 9841   0.572   2.063   4.421 -0.0713  0.0374 -0.0293
 2442SOL    HW3 9842   0.553   2.034   4.273 -0.4440  0.8578 -0.1460
 2442SOL    MW4 9843   0.596   2.075   4.337 -0.1555  0.3502 -0.0081
 2443SOL     OW 9844   0.688   2.344   4.219  0.5498 -0.2837  0.2313
 2443SOL    HW2 9845   0.665   2.259   4.258  1.0269 -0.2602  0.5648
 2443SOL    HW3 9846   0.676   2.332   4.125  0.1611 -0.5814  0.3191
 2443SOL    MW4 9847   0.683   2.331   4.212  0.5615 -0.3200  0.2871
 2444SOL     OW 9848   0.348   2.451   4.367 -0.1764 -0.5377 -0.3630
 2444SOL    HW2 9849   0.381   2.506   4.296 -0.4717  0.0691 -0.0285
 2444SOL    HW3 9850   0.425   2.428   4.418 -0.0784 -0.3027 -0.4088
 2444SOL    MW4 9851   0.362   2.455   4.365 -0.2024 -0.4268 -0.3252
 2445SOL     OW 9852   0.424   2.696   4.202  0.0938 -0.0295  0.6058
 2445SOL    HW2 9853   0.500   2.742   4.236  0.5287  1.4497 -2.2420
 2445SOL    HW3 9854   0.447   2.673   4.113 -2.4239 -0.4018  0.0026
 2445SOL    MW4 9855   0.437   2.699   4.195 -0.1810  0.1163  0.1507
 2446SOL     OW 9856   0.671   2.832   4.250 -0.1386  0.2634  0.1864
 2446SOL    HW2 9857   0.699   2.831   4.342 -1.3609  1.6476  0.5980
 2446SOL    HW3 9858   0.700   2.918   4.218  3.9143 -1.7184 -1.9270
 2446SOL    MW4 9859   0.679   2.844   4.258  0.2348  0.1845 -0.0386
 2447SOL     OW 9860   0.691   3.103   4.171 -0.4129 -0.5623 -0.2377
 2447SOL    HW2 9861   0.765   3.138   4.220 -0.6503  1.4293 -1.2039
 2447SOL    HW3 9862   0.614   3.127   4.223 -0.5186 -0.4052 -0.4607
 2447SOL    MW4 9863   0.690   3.111   4.184 -0.4582 -0.2789 -0.3948
 2448SOL     OW 9864   0.466   3.188   4.287 -0.3670 -0.3029  0.0306
 2448SOL    HW2 9865   0.442   3.194   4.379  1.4728 -1.1859  0.5886
 2448SOL    HW3 9866   0.472   3.278   4.257  0.0044  0.0165  1.0464
 2448SOL    MW4 9867   0.464   3.201   4.295 -0.0752 -0.3772  0.2379
 2449SOL     OW 9868   0.442   3.446   4.205  0.1453  0.6904 -0.1679
 2449SOL    HW2 9869   0.526   3.481   4.234  0.8941  0.0700 -1.5676
 2449SOL    HW3 9870   0.446   3.449   4.110 -0.7980 -0.8059 -0.2700
 2449SOL    MW4 9871   0.453   3.451   4.196  0.1196  0.4113 -0.3662
 2450SOL     OW 9872   0.635   3.595   4.298  0.6003 -0.0349 -0.1295
 2450SOL    HW2 9873   0.621   3.590   4.392  0.8613 -1.4362 -0.1675
 2450SOL    HW3 9874   0.724   3.562   4.285  0.2862 -0.5643 -0.9471
 2450SOL    MW4 9875   0.645   3.590   4.308  0.5934 -0.2894 -0.2422
 2451SOL     OW 9876   0.648   3.864   4.222  0.0425  0.6495 -0.0026
 2451SOL    HW2 9877   0.575   3.918   4.251  0.1664 -0.2645  2.0651
 2451SOL    HW3 9878   0.628   3.776   4.256  1.8303  0.2728  0.1259
 2451SOL    MW4 9879   0.636   3.859   4.230  0.2948  0.4790  0.2871
 2452SOL     OW 9880   0.453   4.033   4.305 -0.2375  0.0711  0.5242
 2452SOL    HW2 9881   0.445   4.115   4.256 -0.1971  0.4408  1.1167
 2452SOL    HW3 9882   0.372   3.985   4.286 -0.1637  0.1589  0.0032
 2452SOL    MW4 9883   0.441   4.038   4.296 -0.2224  0.1307  0.5336
 2453SOL     OW 9884   0.442   4.271   4.141 -0.1283 -0.6336 -0.1845
 2453SOL    HW2 9885   0.360   4.314   4.168  0.3016  0.6085 -0.8130
 2453SOL    HW3 9886   0.434   4.264   4.045  0.7635  0.0737 -0.3194
 2453SOL    MW4 9887   0.430   4.276   4.132  0.0461 -0.3767 -0.2851
 2454SOL     OW 9888   0.652   4.403   4.270 -0.9060 -0.1589 -0.4177
 2454SOL    HW2 9889   0.587   4.364   4.211 -0.4641 -0.3313 -0.7942
 2454SOL    HW3 9890   0.672   4.488   4.230  1.4485 -1.4292 -2.0459
 2454SOL    MW4 9891   0.646   4.409   4.257 -0.5370 -0.3495 -0.6824
 2455SOL     OW 9892   1.102   0.010   4.169 -0.3235  0.2331 -0.7988
 2455SOL    HW2 9893   1.087  -0.077   4.204  0.8338  0.3669  0.0335
 2455SOL    HW3 9894   1.117  -0.004   4.075  0.1361 -0.4822 -0.6189
 2455SOL    MW4 9895   1.102  -0.003   4.161 -0.1101  0.1564 -0.6657
 2456SOL     OW 9896   0.886   0.151   4.321  0.2867 -0.2405 -0.2396
 2456SOL    HW2 9897   0.948   0.099   4.270  0.1389 -0.7213  0.0710
 2456SOL    HW3 9898   0.801   0.108   4.308  0.1714 -0.1030  0.0476
 2456SOL    MW4 9899   0.883   0.139   4.312  0.2520 -0.2858 -0.1607
 2457SOL     OW 9900   0.849   0.380   4.171 -0.4231 -0.1931  0.0408
 2457SOL    HW2 9901   0.927   0.430   4.193  0.0749 -1.1352  0.4294
 2457SOL    HW3 9902   0.866   0.292   4.205 -1.1365 -0.7258 -0.9434
 2457SOL    MW4 9903   0.861   0.375   4.178 -0.4515 -0.3877 -0.0372
 2458SOL     OW 9904   1.118   0.499   4.230  0.1340  0.4571  0.4361
 2458SOL    HW2 9905   1.101   0.478   4.322 -0.2018  0.0837  0.2922
 2458SOL    HW3 9906   1.175   0.429   4.199  0.3742  0.6670  0.3990
 2458SOL    MW4 9907   1.123   0.487   4.238  0.1214  0.4355  0.4120
 2459SOL     OW 9908   1.132   0.763   4.148 -0.0894 -0.0270  0.1422
 2459SOL    HW2 9909   1.202   0.807   4.196 -0.4164  0.1858  0.4222
 2459SOL    HW3 9910   1.135   0.673   4.179  0.4433 -0.1602 -0.2775
 2459SOL    MW4 9911   1.142   0.757   4.159 -0.0622 -0.0165  0.1240
 2460SOL     OW 9912   0.893   0.858   4.251  0.1288  0.1886  0.3449
 2460SOL    HW2 9913   0.973   0.825   4.210 -0.1248  0.6661 -0.5472
 2460SOL    HW3 9914   0.822   0.816   4.201 -0.1782  0.6644  0.3813
 2460SOL    MW4 9915   0.894   0.848   4.239  0.0548  0.3144  0.2327
 2461SOL     OW 9916   0.902   1.123   4.149 -0.2131  0.0720  0.0713
 2461SOL    HW2 9917   0.901   1.032   4.177  0.9317  0.0428  0.0796
 2461SOL    HW3 9918   0.817   1.158   4.173 -0.7910 -1.0942 -0.2632
 2461SOL    MW4 9919   0.891   1.116   4.156 -0.1383 -0.0857  0.0281
 2462SOL     OW 9920   1.147   1.226   4.274  0.1269 -0.2847  0.4285
 2462SOL    HW2 9921   1.145   1.195   4.365  0.9321 -1.0788  0.1819
 2462SOL    HW3 9922   1.061   1.203   4.239 -0.0930 -0.2091  0.9049
 2462SOL    MW4 9923   1.135   1.219   4.281  0.2041 -0.3796  0.4587
 2463SOL     OW 9924   1.121   1.507   4.193  0.1211 -0.3028  0.1622
 2463SOL    HW2 9925   1.089   1.558   4.267 -1.3400 -0.7891 -0.1158
 2463SOL    HW3 9926   1.124   1.417   4.226 -1.2193 -0.6317 -0.5584
 2463SOL    MW4 9927   1.117   1.502   4.207 -0.2486 -0.4103  0.0300
 2464SOL     OW 9928   0.795   1.707   4.302  0.3108  0.0761 -0.1829
 2464SOL    HW2 9929   0.863   1.670   4.358 -0.4134  0.2163  0.8051
 2464SOL    HW3 9930   0.818   1.800   4.295  0.0095  0.2031  0.4715
 2464SOL    MW4 9931   0.807   1.715   4.308  0.1755  0.1113  0.0339
 2465SOL     OW 9932   0.854   1.977   4.262 -0.6990 -0.1694  0.0496
 2465SOL    HW2 9933   0.920   1.988   4.330 -2.3550 -0.5832  1.7682
 2465SOL    HW3 9934   0.776   2.019   4.297 -1.7763 -0.9737 -1.3126
 2465SOL    MW4 9935   0.852   1.984   4.275 -1.0597 -0.3300  0.0973
 2466SOL     OW 9936   1.048   2.016   4.065  0.4646  0.2012 -0.9372
 2466SOL    HW2 9937   0.983   2.009   4.135  1.1622  0.7021 -0.2320
 2466SOL    HW3 9938   0.998   1.998   3.985 -0.1152 -1.3918 -0.2377
 2466SOL    MW4 9939   1.033   2.013   4.063  0.4803  0.0575 -0.7520
 2467SOL     OW 9940   1.076   2.293   4.066  0.0088  0.6527 -0.9177
 2467SOL    HW2 9941   1.167   2.319   4.084  0.1456  0.0903 -0.7768
 2467SOL    HW3 9942   1.072   2.201   4.094 -0.8297  0.9245 -0.1437
 2467SOL    MW4 9943   1.088   2.284   4.072 -0.0838  0.6144 -0.7973
 2468SOL     OW 9944   0.949   2.435   4.284  0.0063  0.1169  0.3823
 2468SOL    HW2 9945   1.012   2.401   4.220 -1.1573  1.4981 -1.5435
 2468SOL    HW3 9946   0.875   2.374   4.279 -0.1562  0.3220  0.2849
 2468SOL    MW4 9947   0.947   2.422   4.275 -0.1686  0.3259  0.1154
 2469SOL     OW 9948   0.848   2.659   4.132  0.1090 -0.3079 -0.0667
 2469SOL    HW2 9949   0.872   2.577   4.176 -1.0141 -1.1790 -1.0460
 2469SOL    HW3 9950   0.773   2.691   4.182  0.7627  0.3040  0.5229
 2469SOL    MW4 9951   0.841   2.652   4.144  0.0471 -0.3421 -0.1178
 2470SOL     OW 9952   1.053   2.790   4.258  0.1105  0.3265 -0.5144
 2470SOL    HW2 9953   1.075   2.879   4.230  1.1573  0.1511 -0.2874
 2470SOL    HW3 9954   0.987   2.761   4.195  0.2057  1.0432 -0.9589
 2470SOL    MW4 9955   1.047   2.798   4.246  0.2613  0.3982 -0.5431
 2471SOL     OW 9956   1.125   3.048   4.199 -0.1389 -0.1591 -0.0944
 2471SOL    HW2 9957   1.203   3.093   4.228  0.2695  0.5368 -2.1468
 2471SOL    HW3 9958   1.105   3.087   4.113 -1.8043 -1.4168 -0.3168
 2471SOL    MW4 9959   1.132   3.059   4.191 -0.3047 -0.2332 -0.3943
 2472SOL     OW 9960   0.915   3.193   4.300  0.5583  0.2460 -0.4021
 2472SOL    HW2 9961   0.910   3.160   4.390  2.9830  1.7937  0.3372
 2472SOL    HW3 9962   0.985   3.142   4.259 -0.1440 -0.0531 -1.2460
 2472SOL    MW4 9963   0.924   3.182   4.307  0.7855  0.4106 -0.4158
 2473SOL     OW 9964   0.875   3.480   4.266 -0.1169 -0.0383  0.2129
 2473SOL    HW2 9965   0.873   3.389   4.297  1.7578  0.1113  0.8244
 2473SOL    HW3 9966   0.886   3.473   4.172 -0.6501 -0.4531  0.1815
 2473SOL    MW4 9967   0.876   3.467   4.258  0.0601 -0.0734  0.2894
 2474SOL     OW 9968   1.137   3.609   4.296  0.3770 -0.2623 -0.0304
 2474SOL    HW2 9969   1.115   3.700   4.276  1.2301 -0.3450 -1.3894
 2474SOL    HW3 9970   1.052   3.565   4.302  0.0047  0.3720 -0.5897
 2474SOL    MW4 9971   1.123   3.615   4.294  0.4404 -0.1895 -0.2837
 2475SOL     OW 9972   1.090   3.868   4.189 -0.2384  0.2972  0.4802
 2475SOL    HW2 9973   1.168   3.923   4.202  0.0040  0.0298  0.1626
 2475SOL    HW3 9974   1.018   3.921   4.224 -0.3218  1.7378 -1.7851
 2475SOL    MW4 9975   1.091   3.883   4.195 -0.2174  0.4520  0.1397
 2476SOL     OW 9976   0.870   4.002   4.301 -0.4069  0.1274  0.2758
 2476SOL    HW2 9977   0.848   4.082   4.253 -1.5769  0.2292  0.9576
 2476SOL    HW3 9978   0.805   3.937   4.270  0.0656 -0.3497  0.2792
 2476SOL    MW4 9979   0.858   4.004   4.290 -0.4990  0.0782  0.3662
 2477SOL     OW 9980   0.873   4.278   4.187  0.4199  0.0694 -0.1282
 2477SOL    HW2 9981   0.949   4.332   4.210 -0.5906  1.3915  0.2021
 2477SOL    HW3 9982   0.800   4.319   4.234  0.0783 -3.2716  2.3930
 2477SOL    MW4 9983   0.874   4.291   4.196  0.2415 -0.1974  0.2480
 2478SOL     OW 9984   1.093   4.423   4.261  0.1627  0.2240  0.2165
 2478SOL    HW2 9985   1.099   4.429   4.357  0.4456 -0.4249  0.2378
 2478SOL    HW3 9986   1.174   4.381   4.234 -0.3148 -0.4243 -0.2322
 2478SOL    MW4 9987   1.104   4.418   4.270  0.1372  0.0529  0.1593
 2479SOL     OW 9988   1.570   4.630   4.138  0.2058  0.6703 -0.4757
 2479SOL    HW2 9989   1.653   4.662   4.173  0.9187  0.5094 -1.9515
 2479SOL    HW3 9990   1.506   4.697   4.163  1.2260  2.0226 -1.3642
 2479SOL    MW4 9991   1.572   4.643   4.146  0.4344  0.8268 -0.7873
 2480SOL     OW 9992   1.356   0.108   4.233  0.0256  0.7241  0.2765
 2480SOL    HW2 9993   1.373   0.093   4.326 -0.4378  1.8254  0.5369
 2480SOL    HW3 9994   1.285   0.048   4.212  2.1062 -1.7288 -0.1052
 2480SOL    MW4 9995   1.349   0.098   4.242  0.2389  0.5457  0.2604
 2481SOL     OW 9996   1.326   0.367   4.118  0.0746  0.3376  0.3944
 2481SOL    HW2 9997   1.401   0.411   4.159  0.8451  0.6661 -1.2934
 2481SOL    HW3 9998   1.328   0.278   4.153  0.3717  0.7709  1.4891
 2481SOL    MW4 9999   1.336   0.361   4.128  0.2154  0.4382  0.3161
 2482SOL     OW10000   1.563   0.471   4.213  0.2725 -0.4915  0.3143
 2482SOL    HW210001   1.576   0.488   4.307  0.0961  0.4479  0.1727
 2482SOL    HW310002   1.543   0.556   4.176 -0.4329 -0.9942 -0.4622
 2482SOL    MW410003   1.562   0.484   4.221  0.1563 -0.4339  0.1931
 2483SOL     OW10004   1.525   0.734   4.128 -0.2145 -0.4679  0.2413
 2483SOL    HW210005   1.609   0.776   4.150 -0.0596 -0.9357  0.5419
 2483SOL    HW310006   1.514   0.751   4.034 -0.0400  0.0524  0.3120
 2483SOL    MW410007   1.535   0.742   4.119 -0.1709 -0.4609  0.2904
 2484SOL     OW10008   1.341   0.869   4.282 -0.5542  0.0945 -0.0801
 2484SOL    HW210009   1.341   0.957   4.244 -0.8541  0.0671 -0.1477
 2484SOL    HW310010   1.411   0.823   4.237 -1.5911 -0.2664 -1.3791
 2484SOL    MW410011   1.350   0.874   4.271 -0.7306  0.0433 -0.2604
 2485SOL     OW10012   1.364   1.131   4.121 -0.0960 -0.0440  0.4622
 2485SOL    HW210013   1.291   1.184   4.151  0.2510  0.4950  0.3682
 2485SOL    HW310014   1.343   1.111   4.029 -0.8966 -1.2439  0.8938
 2485SOL    MW410015   1.352   1.135   4.113 -0.1558 -0.1312  0.5069
 2486SOL     OW10016   1.582   1.256   4.218 -0.3284  0.0087  0.0364
 2486SOL    HW210017   1.554   1.247   4.309  0.0385  0.5504  0.2033
 2486SOL    HW310018   1.516   1.207   4.168 -0.3384 -0.5863  0.6179
 2486SOL    MW410019   1.569   1.248   4.224 -0.2812  0.0018  0.1354
 2487SOL     OW10020   1.561   1.518   4.095  0.8760  0.1119 -0.6296
 2487SOL    HW210021   1.484   1.530   4.150  0.8803  0.5953 -0.7255
 2487SOL    HW310022   1.593   1.430   4.116 -0.0810 -0.3465 -1.0800
 2487SOL    MW410023   1.555   1.508   4.105  0.7503  0.1154 -0.7014
 2488SOL     OW10024   1.371   1.569   4.300  0.1359 -0.0801  0.5042
 2488SOL    HW210025   1.284   1.544   4.268 -0.0105  0.0913  0.7715
 2488SOL    HW310026   1.383   1.516   4.379 -0.3238  0.9544  1.2725
 2488SOL    MW410027   1.361   1.558   4.306  0.0558  0.0790  0.6409
 2489SOL     OW10028   1.270   1.826   4.102 -0.5002  0.0306 -0.1899
 2489SOL    HW210029   1.281   1.831   4.197 -2.8327  0.8074  0.0621
 2489SOL    HW310030   1.199   1.888   4.082 -1.5167 -1.7088 -2.1846
 2489SOL    MW410031   1.262   1.835   4.112 -0.9421 -0.0964 -0.4196
 2490SOL     OW10032   1.549   2.050   4.293 -0.1684  0.1873  0.0936
 2490SOL    HW210033   1.543   2.091   4.379 -0.5408 -0.1002  0.2082
 2490SOL    HW310034   1.518   2.118   4.232 -1.0693 -0.0176  0.3128
 2490SOL    MW410035   1.544   2.064   4.296 -0.3364  0.1223  0.1373
 2491SOL     OW10036   1.556   2.286   4.136  0.7004 -0.0008  0.2172
 2491SOL    HW210037   1.620   2.331   4.190  0.2778  0.6024  0.2336
 2491SOL    HW310038   1.573   2.318   4.047 -0.5675  1.3736  0.4422
 2491SOL    MW410039   1.566   2.296   4.131  0.4774  0.2601  0.2489
 2492SOL     OW10040   1.314   2.390   4.188  0.3041 -0.7790  0.1220
 2492SOL    HW210041   1.328   2.484   4.197  0.3913 -0.8144  0.3567
 2492SOL    HW310042   1.400   2.354   4.164  0.3151 -0.8240  0.2283
 2492SOL    MW410043   1.327   2.397   4.186  0.3170 -0.7896  0.1674
 2493SOL     OW10044   1.321   2.685   4.169  0.0277  0.4873 -0.5114
 2493SOL    HW210045   1.402   2.730   4.192  0.9047 -1.0341 -0.5432
 2493SOL    HW310046   1.254   2.728   4.222  1.6370 -1.4365  3.3722
 2493SOL    MW410047   1.323   2.696   4.179  0.3558  0.0329 -0.0033
 2494SOL     OW10048   1.571   2.810   4.245 -0.2262 -0.3140  0.2009
 2494SOL    HW210049   1.534   2.805   4.333  0.1532  0.8787  0.4410
 2494SOL    HW310050   1.571   2.904   4.224  3.8517 -0.0922  0.7514
 2494SOL    MW410051   1.566   2.822   4.254  0.3619 -0.1273  0.3057
 2495SOL     OW10052   1.535   3.071   4.184 -0.1521  0.0209 -0.2213
 2495SOL    HW210053   1.619   3.107   4.209 -0.6848 -0.8123  2.9780
 2495SOL    HW310054   1.472   3.110   4.245 -1.5053 -2.1316 -0.1577
 2495SOL    MW410055   1.538   3.081   4.195 -0.4009 -0.3729  0.2084
 2496SOL     OW10056   1.316   3.207   4.293  0.1405  0.2262 -0.2753
 2496SOL    HW210057   1.316   3.207   4.389  0.0734  0.9792 -0.2711
 2496SOL    HW310058   1.324   3.300   4.270 -2.8483  0.3420 -1.0013
 2496SOL    MW410059   1.317   3.219   4.303 -0.2627  0.3407 -0.3710
 2497SOL     OW10060   1.343   3.456   4.160  0.2825 -0.2747  0.3519
 2497SOL    HW210061   1.265   3.506   4.184  0.3366 -0.7463  1.5723
 2497SOL    HW310062   1.335   3.443   4.066 -0.8403  0.1524  0.3785
 2497SOL    MW410063   1.331   3.460   4.151  0.1414 -0.2804  0.5169
 2498SOL     OW10064   1.569   3.588   4.230 -0.2216  0.1287  0.3519
 2498SOL    HW210065   1.579   3.590   4.325 -0.4754  1.3475  0.3567
 2498SOL    HW310066   1.487   3.540   4.215  0.0811 -0.5046  0.7249
 2498SOL    MW410067   1.559   3.582   4.240 -0.2151  0.2060  0.4020
 2499SOL     OW10068   1.512   3.856   4.159 -0.1182 -0.2535  0.0013
 2499SOL    HW210069   1.442   3.897   4.209  0.3226  0.5766 -0.0578
 2499SOL    HW310070   1.515   3.766   4.191 -0.9225 -0.1722  0.3062
 2499SOL    MW410071   1.503   3.849   4.169 -0.1661 -0.1335  0.0339
 2500SOL     OW10072   1.323   4.016   4.282  0.2664 -0.2055  0.0528
 2500SOL    HW210073   1.329   4.016   4.377 -0.3222  0.1903  0.0911
 2500SOL    HW310074   1.332   4.108   4.257  1.1425 -0.3916 -0.3212
 2500SOL    MW410075   1.325   4.028   4.291  0.3043 -0.1779  0.0091
 2501SOL     OW10076   1.340   4.292   4.212 -0.0033 -0.0034 -0.1760
 2501SOL    HW210077   1.425   4.324   4.244 -0.6125  1.4308  0.0352
 2501SOL    HW310078   1.356   4.270   4.120  0.5708  0.3927 -0.1779
 2501SOL    MW410079   1.353   4.294   4.204 -0.0079  0.2379 -0.1488
 2502SOL     OW10080   1.584   4.399   4.298 -0.0628 -0.7153 -0.3711
 2502SOL    HW210081   1.572   4.483   4.255 -2.4469 -1.2359 -0.7819
 2502SOL    HW310082   1.665   4.364   4.260  0.9881  1.3821 -0.1477
 2502SOL    MW410083   1.593   4.405   4.287 -0.2387 -0.5074 -0.3963
 2503SOL     OW10084   2.032   4.659   4.186  0.7177  0.5053 -0.3527
 2503SOL    HW210085   1.953   4.693   4.227  0.1375  0.3345 -1.3239
 2503SOL    HW310086   2.020   4.674   4.092  1.6543  0.1140 -0.5499
 2503SOL    MW410087   2.020   4.665   4.179  0.7648  0.4311 -0.5064
 2504SOL     OW10088   1.793   0.080   4.266  0.2953 -0.2370  0.1670
 2504SOL    HW210089   1.763   0.080   4.357 -1.0585  0.1840 -0.2744
 2504SOL    HW310090   1.789   0.172   4.240 -0.6323 -0.5367 -0.7535
 2504SOL    MW410091   1.789   0.092   4.275 -0.0057 -0.2210 -0.0124
 2505SOL     OW10092   1.795   0.331   4.145 -0.1296 -0.0233 -0.4401
 2505SOL    HW210093   1.850   0.365   4.216  0.2788 -1.9968  0.2322
 2505SOL    HW310094   1.708   0.367   4.164  0.2685  0.6139  0.2550
 2505SOL    MW410095   1.790   0.340   4.157 -0.0232 -0.1996 -0.2599
 2506SOL     OW10096   1.985   0.477   4.303  0.2305 -0.1885  0.2241
 2506SOL    HW210097   2.017   0.485   4.392 -0.5513 -1.4254  0.6238
 2506SOL    HW310098   2.051   0.423   4.258  0.4514  0.1541  0.1299
 2506SOL    MW410099   1.998   0.471   4.309  0.1565 -0.3065  0.2642
 2507SOL     OW10100   2.012   0.730   4.183  0.1280  0.3901  0.0229
 2507SOL    HW210101   2.089   0.779   4.213 -0.4040  0.0776  1.9804
 2507SOL    HW310102   2.025   0.642   4.218  0.1517 -0.3975 -1.8854
 2507SOL    MW410103   2.024   0.725   4.191  0.0610  0.2449  0.0291
 2508SOL     OW10104   1.762   0.857   4.202 -0.0470  0.2546 -0.2196
 2508SOL    HW210105   1.778   0.950   4.186 -1.2511  0.4027 -0.5683
 2508SOL    HW310106   1.847   0.815   4.184  0.4308  1.2426 -0.3166
 2508SOL    MW410107   1.776   0.864   4.198 -0.1428  0.4045 -0.2785
 2509SOL     OW10108   1.823   1.114   4.126  0.3221  0.2886  0.3595
 2509SOL    HW210109   1.900   1.134   4.179  0.4152 -0.2746  0.4412
 2509SOL    HW310110   1.750   1.151   4.176  0.5839  1.2095  0.0614
 2509SOL    MW410111   1.823   1.121   4.140  0.3690  0.3359  0.3309
 2510SOL     OW10112   2.032   1.227   4.270 -0.0407  0.3371  0.1313
 2510SOL    HW210113   2.068   1.198   4.354  0.5905  0.5282 -0.0672
 2510SOL    HW310114   2.104   1.216   4.208 -0.8467 -0.8570 -0.6057
 2510SOL    MW410115   2.046   1.222   4.273 -0.0639  0.2049  0.0076
 2511SOL     OW10116   1.941   1.493   4.297 -0.4220  0.0588 -0.0841
 2511SOL    HW210117   2.010   1.558   4.287  0.1893 -0.4748  0.6235
 2511SOL    HW310118   1.980   1.412   4.266 -1.1833  0.0158 -0.9719
 2511SOL    MW410119   1.955   1.491   4.291 -0.4419 -0.0173 -0.1082
 2512SOL     OW10120   1.758   1.675   4.215 -0.1106 -0.0851  0.5340
 2512SOL    HW210121   1.817   1.606   4.245 -0.1646 -0.6198 -0.5654
 2512SOL    HW310122   1.686   1.628   4.173  0.2446  0.6654 -0.9259
 2512SOL    MW410123   1.756   1.660   4.213 -0.0708 -0.0566  0.1965
 2513SOL     OW10124   1.777   1.941   4.139  0.9177  0.6632 -0.5112
 2513SOL    HW210125   1.789   1.855   4.179  0.3440  0.4570 -0.7792
 2513SOL    HW310126   1.703   1.979   4.186  1.6887  1.3439  0.1571
 2513SOL    MW410127   1.769   1.934   4.150  0.9437  0.7260 -0.4582
 2514SOL     OW10128   1.992   2.067   4.290  0.7224 -0.2797  0.0075
 2514SOL    HW210129   2.063   2.018   4.249  1.0093 -0.9443  1.2666
 2514SOL    HW310130   1.912   2.028   4.253  0.9906 -0.1719 -0.6954
 2514SOL    MW410131   1.991   2.055   4.280  0.7957 -0.3531  0.0811
 2515SOL     OW10132   2.023   2.319   4.185  0.3019 -0.2787  0.3510
 2515SOL    HW210133   2.013   2.235   4.230 -2.3379  0.0116  0.3666
 2515SOL    HW310134   2.002   2.300   4.093 -0.6434  0.4172  0.4168
 2515SOL    MW410135   2.019   2.305   4.179 -0.1712 -0.1488  0.3614
 2516SOL     OW10136   1.772   2.408   4.263  0.3432  0.4872  0.3639
 2516SOL    HW210137   1.758   2.375   4.352 -0.8236  0.3737  0.1445
 2516SOL    HW310138   1.858   2.374   4.238  0.0804 -0.6164  0.9374
 2516SOL    MW410139   1.782   2.399   4.272  0.1546  0.3264  0.4106
 2517SOL     OW10140   1.791   2.676   4.184  0.1339  0.5818 -0.0092
 2517SOL    HW210141   1.783   2.592   4.230  0.5108  0.6558  0.1925
 2517SOL    HW310142   1.715   2.726   4.211 -0.4246  0.0735 -0.6145
 2517SOL    MW410143   1.780   2.671   4.193  0.1100  0.5243 -0.0625
 2518SOL     OW10144   1.978   2.835   4.279  0.2555 -0.8089 -0.7376
 2518SOL    HW210145   1.936   2.887   4.347  1.0588 -2.8140  1.3359
 2518SOL    HW310146   1.907   2.782   4.242  0.0448 -0.5634 -0.6860
 2518SOL    MW410147   1.963   2.835   4.283  0.3337 -1.0412 -0.4573
 2519SOL     OW10148   2.048   3.082   4.167 -0.4051  0.3098  0.2915
 2519SOL    HW210149   2.049   2.991   4.196  0.2892  0.1606 -0.2036
 2519SOL    HW310150   2.045   3.078   4.072  0.5568  0.7972  0.2295
 2519SOL    MW410151   2.048   3.070   4.158 -0.1869  0.3545  0.2179
 2520SOL     OW10152   1.787   3.190   4.226  0.3081  0.0879  0.4437
 2520SOL    HW210153   1.796   3.277   4.186 -0.0940  0.7671  1.7832
 2520SOL    HW310154   1.859   3.139   4.189  1.6421  1.5350  0.9738
 2520SOL    MW410155   1.798   3.195   4.216  0.4311  0.3686  0.6905
 2521SOL     OW10156   1.772   3.435   4.103  0.3199 -0.0301  0.4178
 2521SOL    HW210157   1.706   3.495   4.138  2.8334  3.1242 -0.0084
 2521SOL    HW310158   1.767   3.446   4.008 -0.1110 -1.5655  0.2438
 2521SOL    MW410159   1.763   3.445   4.095  0.5949  0.1836  0.3386
 2522SOL     OW10160   1.995   3.569   4.207  0.2835 -0.2630  0.7722
 2522SOL    HW210161   1.994   3.661   4.180  0.2755 -0.5123 -0.1188
 2522SOL    HW310162   1.923   3.530   4.158 -0.5405 -0.4752  2.1429
 2522SOL    MW410163   1.985   3.576   4.197  0.1738 -0.3240  0.8354
 2523SOL     OW10164   1.979   3.834   4.132 -0.1968  0.3126  0.1034
 2523SOL    HW210165   1.905   3.877   4.175  0.5460  1.6905  0.0395
 2523SOL    HW310166   1.964   3.846   4.039  0.1807  0.7484  0.0936
 2523SOL    MW410167   1.968   3.842   4.125 -0.0490  0.5522  0.0935
 2524SOL     OW10168   1.764   3.978   4.249 -0.5512  0.5958  0.0187
 2524SOL    HW210169   1.762   4.066   4.210 -0.5384  0.0523 -1.2386
 2524SOL    HW310170   1.675   3.945   4.238 -0.9630  1.0464  1.9064
 2524SOL    MW410171   1.752   3.985   4.242 -0.6038  0.5834  0.1016
 2525SOL     OW10172   1.774   4.234   4.155 -0.0977 -1.2303  0.2403
 2525SOL    HW210173   1.851   4.275   4.194 -0.6924 -0.8510  1.0296
 2525SOL    HW310174   1.783   4.250   4.061 -0.6111  1.2378  0.5805
 2525SOL    MW410175   1.785   4.241   4.148 -0.2438 -0.8545  0.3891
 2526SOL     OW10176   1.990   4.375   4.255 -0.3379 -0.0752  0.3787
 2526SOL    HW210177   2.007   4.369   4.349 -0.1207  1.1515  0.4317
 2526SOL    HW310178   1.996   4.469   4.236 -2.2031 -0.1275 -0.5278
 2526SOL    MW410179   1.993   4.387   4.265 -0.5552  0.0796  0.2656
 2527SOL     OW10180   2.443   4.653   4.175  0.2996 -0.0810 -0.5346
 2527SOL    HW210181   2.530   4.679   4.205  0.2995  0.3519 -0.9165
 2527SOL    HW310182   2.436   4.561   4.200  0.7260 -0.0210 -0.1831
 2527SOL    MW410183   2.453   4.644   4.183  0.3557 -0.0153 -0.5388
 2528SOL     OW10184   2.238   0.104   4.334  0.2009  0.4262  0.4774
 2528SOL    HW210185   2.310   0.053   4.296  0.8992  1.7505 -0.0017
 2528SOL    HW310186   2.159   0.065   4.297  0.7013 -0.5514  0.4128
 2528SOL    MW410187   2.237   0.092   4.324  0.3593  0.4719  0.4058
 2529SOL     OW10188   2.205   0.345   4.181 -0.0790  0.1897 -0.4061
 2529SOL    HW210189   2.213   0.253   4.207 -0.7002  0.4164  0.6279
 2529SOL    HW310190   2.208   0.343   4.085  0.5357 -0.8417 -0.3803
 2529SOL    MW410191   2.207   0.333   4.172 -0.0801  0.0835 -0.2661
 2530SOL     OW10192   2.472   0.430   4.238 -0.0312 -0.4542 -0.0979
 2530SOL    HW210193   2.492   0.425   4.331 -0.5807 -1.5072 -0.0330
 2530SOL    HW310194   2.384   0.393   4.229 -0.4857  0.7772 -0.8708
 2530SOL    MW410195   2.463   0.425   4.249 -0.1636 -0.4306 -0.1917
 2531SOL     OW10196   2.479   0.696   4.172  0.0301 -0.4821  0.2052
 2531SOL    HW210197   2.480   0.602   4.194 -1.6084 -0.5121  0.2453
 2531SOL    HW310198   2.452   0.699   4.081 -3.3813  0.0589  1.1534
 2531SOL    MW410199   2.476   0.684   4.163 -0.6361 -0.4147  0.3357
 2532SOL     OW10200   2.242   0.853   4.259 -0.0186  0.2704 -0.2912
 2532SOL    HW210201   2.234   0.883   4.349  0.7595 -0.0986 -0.0875
 2532SOL    HW310202   2.326   0.807   4.257 -0.0215  0.2950 -1.2096
 2532SOL    MW410203   2.252   0.851   4.271  0.0839  0.2249 -0.3853
 2533SOL     OW10204   2.218   1.080   4.107 -0.2163 -0.0801  0.2303
 2533SOL    HW210205   2.294   1.134   4.129 -0.3191 -0.4926  1.6344
 2533SOL    HW310206   2.235   0.996   4.150 -0.6183 -0.7788 -0.9551
 2533SOL    MW410207   2.230   1.076   4.116 -0.2830 -0.2266  0.2594
 2534SOL     OW10208   2.440   1.238   4.217 -0.4103 -0.0584  0.1645
 2534SOL    HW210209   2.442   1.253   4.311  0.1507 -2.0595  0.4864
 2534SOL    HW310210   2.523   1.195   4.197 -0.4695  0.4480 -1.2584
 2534SOL    MW410211   2.451   1.234   4.227 -0.3440 -0.2555  0.0191
 2535SOL     OW10212   2.390   1.502   4.126 -0.0574  0.4687 -0.4394
 2535SOL    HW210213   2.397   1.411   4.155 -0.9694  0.3881 -0.4339
 2535SOL    HW310214   2.399   1.498   4.030 -1.7409  0.1632 -0.6019
 2535SOL    MW410215   2.392   1.490   4.117 -0.3998  0.4177 -0.4606
 2536SOL     OW10216   2.167   1.650   4.272  0.1483 -0.1808  0.5711
 2536SOL    HW210217   2.197   1.658   4.362  1.1514  1.7462  0.0892
 2536SOL    HW310218   2.238   1.602   4.227  0.2493  0.0239  0.5127
 2536SOL    MW410219   2.181   1.644   4.278  0.2942  0.1004  0.4997
 2537SOL     OW10220   2.156   1.903   4.155  0.4791  0.3717 -0.4196
 2537SOL    HW210221   2.233   1.954   4.181  1.0221 -0.5176 -0.2297
 2537SOL    HW310222   2.167   1.820   4.201 -1.2439  0.6889  0.5724
 2537SOL    MW410223   2.168   1.899   4.165  0.3233  0.2962 -0.2632
 2538SOL     OW10224   2.395   2.028   4.249 -0.2327  0.1079 -0.2418
 2538SOL    HW210225   2.412   2.045   4.341 -0.4906 -0.6991 -0.0416
 2538SOL    HW310226   2.473   1.982   4.218 -0.9301 -1.2989  0.0456
 2538SOL    MW410227   2.407   2.024   4.257 -0.3588 -0.1841 -0.1774
 2539SOL     OW10228   2.459   2.284   4.191  0.1670 -0.1479  0.0525
 2539SOL    HW210229   2.427   2.194   4.193  0.8703 -0.4327 -0.8717
 2539SOL    HW310230   2.443   2.313   4.101 -0.6006  0.8555  0.5037
 2539SOL    MW410231   2.453   2.276   4.179  0.1585 -0.0534 -0.0100
 2540SOL     OW10232   2.244   2.486   4.248 -0.4753 -0.0192 -0.4626
 2540SOL    HW210233   2.306   2.413   4.245 -2.0913 -1.4313 -0.3168
 2540SOL    HW310234   2.163   2.451   4.209 -1.4374  1.5469  0.0484
 2540SOL    MW410235   2.241   2.472   4.242 -0.8156  0.0010 -0.3762
 2541SOL     OW10236   2.215   2.734   4.144  0.1406 -0.1261 -0.2718
 2541SOL    HW210237   2.226   2.644   4.176 -0.8286 -0.2134 -0.1637
 2541SOL    HW310238   2.134   2.764   4.185  0.3388  0.7154 -0.4986
 2541SOL    MW410239   2.205   2.726   4.153  0.0391 -0.0265 -0.2875
 2542SOL     OW10240   2.463   2.810   4.251 -0.5417  0.1575  0.1280
 2542SOL    HW210241   2.454   2.800   4.345 -0.3573 -0.0993  0.1202
 2542SOL    HW310242   2.373   2.804   4.217 -0.5017 -0.9779  0.1735
 2542SOL    MW410243   2.450   2.808   4.259 -0.5121 -0.0262  0.1326
 2543SOL     OW10244   2.480   3.069   4.140  0.1540 -0.0001 -0.7397
 2543SOL    HW210245   2.407   3.115   4.181 -0.0221 -0.2435 -0.7764
 2543SOL    HW310246   2.485   2.986   4.186 -0.6889 -0.6897 -1.8644
 2543SOL    MW410247   2.471   3.064   4.151  0.0196 -0.1230 -0.8926
 2544SOL     OW10248   2.272   3.203   4.263  0.2434 -0.2770 -0.3015
 2544SOL    HW210249   2.259   3.289   4.224 -0.5673  0.1023  0.7842
 2544SOL    HW310250   2.190   3.157   4.247  0.1897 -0.3838  0.2811
 2544SOL    MW410251   2.259   3.208   4.256  0.1295 -0.2410 -0.0815
 2545SOL     OW10252   2.233   3.457   4.137  0.1152 -0.1875 -0.6327
 2545SOL    HW210253   2.300   3.513   4.177 -0.9088  0.6742 -0.0925
 2545SOL    HW310254   2.150   3.492   4.170 -0.5397 -2.3071  0.0735
 2545SOL    MW410255   2.231   3.469   4.147 -0.1066 -0.3538 -0.4683
 2546SOL     OW10256   2.439   3.579   4.263 -0.0535 -0.1887 -0.3605
 2546SOL    HW210257   2.401   3.600   4.349  2.3193  0.1469  0.6497
 2546SOL    HW310258   2.454   3.664   4.222 -0.3643 -0.3170 -0.7374
 2546SOL    MW410259   2.436   3.593   4.269  0.2186 -0.1614 -0.2770
 2547SOL     OW10260   2.453   3.835   4.142 -0.0926  0.3640  0.2532
 2547SOL    HW210261   2.538   3.869   4.170  0.2017 -1.3031  1.4828
 2547SOL    HW310262   2.452   3.847   4.047  1.3966  0.6358  0.2644
 2547SOL    MW410263   2.464   3.841   4.133  0.1426  0.1798  0.4168
 2548SOL     OW10264   2.213   3.935   4.260 -0.5444 -0.1095  0.3615
 2548SOL    HW210265   2.296   3.907   4.223 -0.8765 -0.0780 -0.4274
 2548SOL    HW310266   2.147   3.894   4.203 -1.0704 -0.4789  1.2240
 2548SOL    MW410267   2.215   3.926   4.248 -0.6576 -0.1540  0.3715
 2549SOL     OW10268   2.218   4.232   4.158  0.2559 -0.2321  0.2856
 2549SOL    HW210269   2.219   4.142   4.189 -0.6997 -0.5483 -0.5683
 2549SOL    HW310270   2.141   4.272   4.199  0.3036  0.0059  0.1499
 2549SOL    MW410271   2.208   4.226   4.167  0.1359 -0.2427  0.1554
 2550SOL     OW10272   2.434   4.383   4.249  0.4892 -0.5284 -0.2431
 2550SOL    HW210273   2.511   4.334   4.221 -0.1423 -1.1877 -0.8641
 2550SOL    HW310274   2.361   4.337   4.208 -0.1829  0.4266 -0.1270
 2550SOL    MW410275   2.435   4.371   4.240  0.3173 -0.4897 -0.3095
 2551SOL     OW10276   2.884   4.629   4.156  0.1997  0.5253 -0.1823
 2551SOL    HW210277   2.974   4.660   4.165 -0.0684  1.0603  0.8689
 2551SOL    HW310278   2.885   4.540   4.192  0.6434 -0.0876 -1.7048
 2551SOL    MW410279   2.896   4.622   4.162  0.2229  0.5145 -0.2446
 2552SOL     OW10280   2.677   0.103   4.278  0.0602  0.2642  0.4514
 2552SOL    HW210281   2.678   0.183   4.226 -0.3675  0.3340  0.5488
 2552SOL    HW310282   2.751   0.052   4.245 -1.4641 -0.6434 -1.6862
 2552SOL    MW410283   2.687   0.107   4.267 -0.1974  0.1537  0.1822
 2553SOL     OW10284   2.721   0.341   4.106  0.5666 -0.2802 -0.3285
 2553SOL    HW210285   2.632   0.362   4.133  0.4663 -0.4976 -0.4917
 2553SOL    HW310286   2.717   0.340   4.010  0.6775 -0.5956 -0.3288
 2553SOL    MW410287   2.709   0.344   4.097  0.5682 -0.3505 -0.3500
 2554SOL     OW10288   2.903   0.460   4.277 -0.3860  0.1524 -0.4785
 2554SOL    HW210289   2.904   0.552   4.250 -1.9615  0.1299 -0.6878
 2554SOL    HW310290   2.840   0.419   4.218  0.4272 -1.1025 -0.4920
 2554SOL    MW410291   2.894   0.467   4.265 -0.4866 -0.0161 -0.5083
 2555SOL     OW10292   2.915   0.730   4.146  0.0554  0.0906 -0.1505
 2555SOL    HW210293   2.985   0.794   4.161 -0.6741  0.7444  0.5283
 2555SOL    HW310294   2.906   0.725   4.051  0.6273  0.4459 -0.2209
 2555SOL    MW410295   2.923   0.738   4.135  0.0346  0.2238 -0.0701
 2556SOL     OW10296   2.681   0.855   4.241  0.5334  0.0458  0.0462
 2556SOL    HW210297   2.766   0.817   4.220 -0.0234  0.0646 -2.3783
 2556SOL    HW310298   2.617   0.798   4.198 -0.8711 -1.1995  3.5814
 2556SOL    MW410299   2.683   0.843   4.233  0.2747 -0.1160  0.1926
 2557SOL     OW10300   2.680   1.109   4.147  0.2850  0.4846 -0.1326
 2557SOL    HW210301   2.660   1.022   4.179 -1.2742  1.3167  1.2313
 2557SOL    HW310302   2.682   1.100   4.052  0.7905 -1.1644  0.0306
 2557SOL    MW410303   2.677   1.097   4.139  0.1462  0.3769  0.0687
 2558SOL     OW10304   2.885   1.268   4.255  0.0346 -0.1439 -0.4100
 2558SOL    HW210305   2.964   1.225   4.223  0.7408  1.0591 -0.2834
 2558SOL    HW310306   2.814   1.210   4.227  0.9287 -1.1135 -0.7226
 2558SOL    MW410307   2.886   1.254   4.247  0.2458 -0.1131 -0.4344
 2559SOL     OW10308   2.843   1.496   4.124  0.0980 -0.6000  0.1190
 2559SOL    HW210309   2.918   1.545   4.158  0.2263 -1.0804  0.5295
 2559SOL    HW310310   2.848   1.411   4.167 -0.9141 -0.4945  0.4534
 2559SOL    MW410311   2.854   1.491   4.134 -0.0184 -0.6495  0.2174
 2560SOL     OW10312   2.610   1.640   4.230  0.3347 -0.1095 -0.2032
 2560SOL    HW210313   2.677   1.579   4.200 -0.1958 -1.1287  0.6317
 2560SOL    HW310314   2.527   1.597   4.208 -0.0510 -0.1724  1.3098
 2560SOL    MW410315   2.608   1.627   4.223  0.2134 -0.2522  0.1063
 2561SOL     OW10316   2.634   1.924   4.161  0.0434  0.0585 -0.3695
 2561SOL    HW210317   2.637   1.831   4.182  1.3004 -0.1116 -1.2301
 2561SOL    HW310318   2.634   1.927   4.065  0.3257  0.9468 -0.3502
 2561SOL    MW410319   2.634   1.912   4.151  0.2468  0.1533 -0.4802
 2562SOL     OW10320   2.869   2.027   4.259 -0.2381  0.2832 -0.3555
 2562SOL    HW210321   2.880   2.115   4.222 -2.3831  1.0223  0.6962
 2562SOL    HW310322   2.785   1.997   4.224  0.0046 -0.9374  0.1076
 2562SOL    MW410323   2.860   2.035   4.250 -0.4892  0.2193 -0.1554
 2563SOL     OW10324   2.881   2.289   4.150  0.2249  0.0376 -0.0756
 2563SOL    HW210325   2.958   2.335   4.182  0.3364  0.9558 -1.6435
 2563SOL    HW310326   2.808   2.326   4.201  0.4812  1.0170 -0.4114
 2563SOL    MW410327   2.882   2.300   4.161  0.2735  0.2880 -0.3271
 2564SOL     OW10328   2.680   2.401   4.299 -0.2020  0.2417  0.2165
 2564SOL    HW210329   2.715   2.358   4.378  0.6396  0.5613  0.0224
 2564SOL    HW310330   2.602   2.350   4.277  0.5406 -0.9284  0.2374
 2564SOL    MW410331   2.674   2.388   4.307  0.0072  0.1295  0.1941
 2565SOL     OW10332   2.673   2.639   4.176 -0.4138 -0.0733 -0.3685
 2565SOL    HW210333   2.694   2.558   4.223 -0.5555 -0.1927 -0.5117
 2565SOL    HW310334   2.589   2.667   4.214 -0.0555  0.3463  0.1266
 2565SOL    MW410335   2.664   2.632   4.188 -0.3855 -0.0339 -0.3223
 2566SOL     OW10336   2.863   2.793   4.274 -0.4177 -0.4826 -0.1790
 2566SOL    HW210337   2.871   2.770   4.367  0.3523  1.2332  0.1949
 2566SOL    HW310338   2.794   2.735   4.241  0.1491 -1.9676  1.1609
 2566SOL    MW410339   2.855   2.782   4.282 -0.2413 -0.4523  0.0472
 2567SOL     OW10340   2.914   3.035   4.175 -0.2877 -0.6614 -0.5684
 2567SOL    HW210341   2.890   2.950   4.212 -0.4559 -0.7530 -0.8803
 2567SOL    HW310342   2.914   3.021   4.080 -0.3938 -0.2946 -0.6245
 2567SOL    MW410343   2.911   3.022   4.167 -0.3238 -0.6251 -0.6170
 2568SOL     OW10344   2.705   3.176   4.291  0.6808  0.1605 -0.7081
 2568SOL    HW210345   2.780   3.135   4.249  0.1651  0.8305 -2.3071
 2568SOL    HW310346   2.629   3.140   4.244  0.0596  0.4337  0.0701
 2568SOL    MW410347   2.705   3.166   4.279  0.5305  0.2851 -0.8163
 2569SOL     OW10348   2.668   3.417   4.154 -0.1191  0.4591  0.6822
 2569SOL    HW210349   2.669   3.330   4.192 -3.3257 -1.8817 -4.1979
 2569SOL    HW310350   2.599   3.463   4.201  0.9128  0.1205  2.5878
 2569SOL    MW410351   2.659   3.412   4.165 -0.4060  0.1056  0.2899
 2570SOL     OW10352   2.883   3.600   4.209 -0.3962 -0.0337 -0.3945
 2570SOL    HW210353   2.853   3.625   4.296 -1.6246 -0.6257 -0.6369
 2570SOL    HW310354   2.820   3.533   4.180  0.5262 -0.5062 -1.3584
 2570SOL    MW410355   2.871   3.594   4.217 -0.4365 -0.1740 -0.5541
 2571SOL     OW10356   2.866   3.857   4.101  0.2800 -0.0728 -0.3572
 2571SOL    HW210357   2.942   3.908   4.129  1.2828 -1.5223 -0.3684
 2571SOL    HW310358   2.895   3.766   4.108 -0.7497 -0.5729 -2.4291
 2571SOL    MW410359   2.880   3.852   4.106  0.2763 -0.3300 -0.6323
 2572SOL     OW10360   2.661   3.986   4.282 -0.3395  0.2226  0.1948
 2572SOL    HW210361   2.647   4.076   4.254 -1.3594 -0.1509 -0.5181
 2572SOL    HW310362   2.738   3.957   4.232  1.0718  1.2456  1.7319
 2572SOL    MW410363   2.669   3.994   4.271 -0.2880  0.3088  0.3033
 2573SOL     OW10364   2.644   4.242   4.170 -0.1269  0.2574  0.2790
 2573SOL    HW210365   2.723   4.287   4.200  0.2972  0.7399 -1.4622
 2573SOL    HW310366   2.657   4.234   4.075 -2.5456  1.1165 -0.1496
 2573SOL    MW410367   2.656   4.247   4.161 -0.3898  0.4344 -0.0072
 2574SOL     OW10368   2.918   4.341   4.226  0.0950 -0.0945  0.2063
 2574SOL    HW210369   2.967   4.352   4.307  1.9563 -0.5448 -0.8398
 2574SOL    HW310370   2.980   4.300   4.165 -0.9921  1.0188 -1.7062
 2574SOL    MW410371   2.933   4.337   4.228  0.1972 -0.0072 -0.1841
 2575SOL     OW10372   3.376   4.586   4.175 -0.0913  0.8007 -0.3194
 2575SOL    HW210373   3.449   4.620   4.227  1.7149 -0.3306 -2.0181
 2575SOL    HW310374   3.382   4.491   4.185 -1.2221  0.6944 -0.6148
 2575SOL    MW410375   3.387   4.578   4.183 -0.0021  0.6375 -0.5827
 2576SOL     OW10376   3.140   0.077   4.171 -0.1562 -0.0330  0.8129
 2576SOL    HW210377   3.142   0.076   4.267  0.5347 -1.2599  0.7971
 2576SOL    HW310378   3.215   0.023   4.145 -1.0644 -0.7197 -0.4046
 2576SOL    MW410379   3.150   0.069   4.180 -0.1845 -0.2855  0.6504
 2577SOL     OW10380   3.143   0.352   4.137 -0.5100  0.2225  0.3718
 2577SOL    HW210381   3.132   0.257   4.149 -4.1256  0.5629  0.2814
 2577SOL    HW310382   3.069   0.390   4.185 -0.1909  2.8981 -1.2164
 2577SOL    MW410383   3.132   0.344   4.145 -0.9449  0.6204  0.1507
 2578SOL     OW10384   3.358   0.501   4.232 -0.7570  0.1288  0.1337
 2578SOL    HW210385   3.429   0.438   4.221  0.6800  1.8517 -0.5029
 2578SOL    HW310386   3.282   0.458   4.193 -0.1577 -1.8276  1.0583
 2578SOL    MW410387   3.357   0.487   4.226 -0.4883  0.0980  0.1717
 2579SOL     OW10388   3.336   0.749   4.122 -0.0890  0.3040  0.0288
 2579SOL    HW210389   3.253   0.780   4.158 -1.1051 -1.1746 -0.9716
 2579SOL    HW310390   3.352   0.666   4.165  0.9870  0.6569  0.3405
 2579SOL    MW410391   3.327   0.742   4.132 -0.0815  0.1554 -0.0625
 2580SOL     OW10392   3.130   0.891   4.238  0.4167 -0.1523  0.5513
 2580SOL    HW210393   3.125   0.902   4.333 -2.1145  1.1455  0.3146
 2580SOL    HW310394   3.145   0.980   4.205  0.6952 -0.5122 -0.2938
 2580SOL    MW410395   3.131   0.904   4.246  0.1194 -0.0286  0.4086
 2581SOL     OW10396   3.116   1.169   4.162  0.4927  0.0026 -0.1865
 2581SOL    HW210397   3.196   1.212   4.190  0.2202  0.4115 -0.0315
 2581SOL    HW310398   3.127   1.159   4.067  0.8097 -0.1189 -0.1372
 2581SOL    MW410399   3.128   1.174   4.153  0.4985  0.0405 -0.1593
 2582SOL     OW10400   3.383   1.241   4.197 -0.6571 -0.0849 -0.4998
 2582SOL    HW210401   3.426   1.257   4.281 -1.4424 -0.6278  0.0182
 2582SOL    HW310402   3.370   1.329   4.160  0.4644  0.1025 -0.4522
 2582SOL    MW410403   3.387   1.255   4.204 -0.6127 -0.1318 -0.4253
 2583SOL     OW10404   3.344   1.515   4.136 -0.2610  0.5303  0.0620
 2583SOL    HW210405   3.256   1.543   4.163  0.2747  2.5034 -0.1643
 2583SOL    HW310406   3.341   1.516   4.041 -0.5003 -1.0972  0.0427
 2583SOL    MW410407   3.332   1.519   4.127 -0.2217  0.5759  0.0300
 2584SOL     OW10408   3.087   1.601   4.204  0.2823  0.4781  0.1748
 2584SOL    HW210409   3.120   1.596   4.294 -0.9733 -0.5021  0.5919
 2584SOL    HW310410   3.082   1.695   4.186  1.0312  0.6709  0.9466
 2584SOL    MW410411   3.091   1.613   4.214  0.2153  0.3742  0.3309
 2585SOL     OW10412   3.070   1.890   4.139 -0.2504  0.5904 -0.6235
 2585SOL    HW210413   3.151   1.928   4.174 -0.3806 -0.4589  0.8120
 2585SOL    HW310414   3.001   1.945   4.175 -0.2647  0.6904 -0.8020
 2585SOL    MW410415   3.072   1.903   4.148 -0.2694  0.4650 -0.4578
 2586SOL     OW10416   3.281   2.041   4.248  0.0788  0.1459 -0.0288
 2586SOL    HW210417   3.367   2.000   4.238 -0.7089 -1.2115 -1.3868
 2586SOL    HW310418   3.294   2.130   4.214  0.6790 -0.3990 -1.2727
 2586SOL    MW410419   3.294   2.047   4.242  0.0544 -0.1049 -0.3724
 2587SOL     OW10420   3.362   2.296   4.151  0.0527 -0.3359  0.0490
 2587SOL    HW210421   3.439   2.346   4.178 -1.0518  1.3701  0.0981
 2587SOL    HW310422   3.363   2.300   4.056  0.0150 -0.2852  0.0501
 2587SOL    MW410423   3.372   2.303   4.142 -0.0980 -0.1042  0.0548
 2588SOL     OW10424   3.130   2.422   4.231  0.1427 -0.1390  0.0294
 2588SOL    HW210425   3.122   2.512   4.201 -0.2241  0.6034  2.2735
 2588SOL    HW310426   3.222   2.399   4.216  0.9576  1.5958  2.0289
 2588SOL    MW410427   3.141   2.431   4.225  0.2017  0.1881  0.5898
 2589SOL     OW10428   3.091   2.682   4.145 -0.3569  0.1389 -0.3722
 2589SOL    HW210429   3.169   2.730   4.173  0.6811 -1.4422 -0.5303
 2589SOL    HW310430   3.020   2.720   4.198  0.8802  0.0517  1.3864
 2589SOL    MW410431   3.092   2.693   4.155 -0.0567 -0.0813 -0.1607
 2590SOL     OW10432   3.326   2.781   4.263  0.1737  0.3891 -0.6606
 2590SOL    HW210433   3.413   2.755   4.294 -0.1259  0.9741  0.7201
 2590SOL    HW310434   3.336   2.872   4.236 -0.1917  0.7152  0.2808
 2590SOL    MW410435   3.338   2.789   4.263  0.0863  0.5090 -0.3543
 2591SOL     OW10436   3.342   3.047   4.191 -0.4519 -0.0314 -0.3425
 2591SOL    HW210437   3.277   3.107   4.228 -0.2582  2.0305 -3.1882
 2591SOL    HW310438   3.329   3.053   4.096  0.4686 -3.5474 -0.7526
 2591SOL    MW410439   3.332   3.056   4.183 -0.3049 -0.2234 -0.7720
 2592SOL     OW10440   3.134   3.215   4.271 -0.1035  0.4978 -0.2821
 2592SOL    HW210441   3.121   3.294   4.219  1.7051  0.0917 -1.3861
 2592SOL    HW310442   3.062   3.158   4.246 -0.5159  1.1701 -0.6521
 2592SOL    MW410443   3.123   3.218   4.261  0.0806  0.5326 -0.4759
 2593SOL     OW10444   3.117   3.473   4.147  0.2583  0.5294  0.5420
 2593SOL    HW210445   3.038   3.524   4.166  0.0961  0.6130 -0.3464
 2593SOL    HW310446   3.118   3.464   4.052 -0.5933 -2.4639  0.7555
 2593SOL    MW410447   3.107   3.478   4.137  0.1247  0.1454  0.4530
 2594SOL     OW10448   3.342   3.597   4.236 -0.0414  0.3309  0.1839
 2594SOL    HW210449   3.338   3.614   4.330 -0.3632 -1.1037  0.4364
 2594SOL    HW310450   3.260   3.552   4.216  0.8111 -0.9642 -0.4443
 2594SOL    MW410451   3.331   3.594   4.246  0.0286 -0.0293  0.1345
 2595SOL     OW10452   3.337   3.854   4.136 -0.3406 -0.2503 -0.2753
 2595SOL    HW210453   3.344   3.760   4.151  2.9475 -0.0808 -0.2592
 2595SOL    HW310454   3.350   3.865   4.042  0.0126  0.2100 -0.1788
 2595SOL    MW410455   3.340   3.843   4.126  0.1400 -0.1671 -0.2608
 2596SOL     OW10456   3.081   3.974   4.218  0.6133  0.0585  0.0954
 2596SOL    HW210457   3.060   3.942   4.305  0.7263 -1.7125 -0.5064
 2596SOL    HW310458   3.164   3.932   4.196  0.9565  1.0678 -0.5796
 2596SOL    MW410459   3.089   3.964   4.226  0.6733 -0.0422 -0.0725
 2597SOL     OW10460   3.124   4.218   4.097 -0.3925  0.2919 -0.3779
 2597SOL    HW210461   3.197   4.259   4.143  0.1349 -0.8778 -0.1332
 2597SOL    HW310462   3.115   4.132   4.139 -2.8300  0.9592  0.5420
 2597SOL    MW410463   3.132   4.212   4.108 -0.6444  0.2255 -0.2246
 2598SOL     OW10464   3.364   4.302   4.207  0.4336  0.0479  0.2850
 2598SOL    HW210465   3.400   4.298   4.296  0.7660  1.0834  0.1994
 2598SOL    HW310466   3.428   4.255   4.154 -0.7382 -2.3157  0.8890
 2598SOL    MW410467   3.377   4.295   4.212  0.3231 -0.1278  0.3538
 2599SOL     OW10468   3.796   4.627   4.208  0.0002 -0.4423 -0.6248
 2599SOL    HW210469   3.859   4.694   4.237  0.0741 -0.7330 -0.1077
 2599SOL    HW310470   3.781   4.647   4.116  0.7168 -0.2653 -0.7057
 2599SOL    MW410471   3.803   4.639   4.200  0.1042 -0.4573 -0.5670
 2600SOL     OW10472   3.569   0.069   4.310  0.1733 -0.6425 -0.1907
 2600SOL    HW210473   3.562   0.156   4.270  1.0596  0.1313  1.2577
 2600SOL    HW310474   3.636   0.024   4.258  0.2600 -0.1887 -0.4768
 2600SOL    MW410475   3.577   0.075   4.298  0.3016 -0.4806 -0.0372
 2601SOL     OW10476   3.559   0.333   4.207  0.0630  0.4616  0.2934
 2601SOL    HW210477   3.632   0.393   4.224  0.8763 -0.6401  0.7536
 2601SOL    HW310478   3.554   0.329   4.112  0.5934  0.5611  0.2561
 2601SOL    MW410479   3.568   0.340   4.197  0.2401  0.3294  0.3490
 2602SOL     OW10480   3.796   0.486   4.250 -0.4992 -0.5346 -0.0088
 2602SOL    HW210481   3.805   0.501   4.344  0.5907 -0.2273 -0.1603
 2602SOL    HW310482   3.806   0.572   4.210 -0.8394 -0.6807 -0.4201
 2602SOL    MW410483   3.799   0.499   4.257 -0.4003 -0.5134 -0.0834
 2603SOL     OW10484   3.816   0.734   4.134 -0.5474  0.0661 -0.3564
 2603SOL    HW210485   3.738   0.786   4.149 -0.8704 -0.2414 -0.9184
 2603SOL    HW310486   3.818   0.722   4.039  0.2142  0.1225 -0.3462
 2603SOL    MW410487   3.806   0.739   4.123 -0.4895  0.0330 -0.4296
 2604SOL     OW10488   3.571   0.877   4.159  0.6907  0.1581  0.2462
 2604SOL    HW210489   3.565   0.966   4.125 -0.6824  0.2497  0.7017
 2604SOL    HW310490   3.485   0.838   4.142  0.3179 -0.1501  2.5762
 2604SOL    MW410491   3.559   0.883   4.152  0.4604  0.1295  0.6142
 2605SOL     OW10492   3.607   1.134   4.087 -0.3020 -0.6545  0.1036
 2605SOL    HW210493   3.531   1.175   4.129  0.0909 -0.4966  0.6584
 2605SOL    HW310494   3.591   1.145   3.993  0.0463  1.2280  0.2448
 2605SOL    MW410495   3.595   1.141   4.080 -0.2046 -0.3852  0.1950
 2606SOL     OW10496   3.835   1.275   4.164  0.4315 -0.6369  0.4044
 2606SOL    HW210497   3.758   1.224   4.137  0.0553  0.8107 -1.3087
 2606SOL    HW310498   3.815   1.364   4.138  1.6259  0.2143  2.2715
 2606SOL    MW410499   3.822   1.280   4.157  0.5393 -0.3337  0.4249
 2607SOL     OW10500   3.783   1.557   4.097 -0.0158  0.1717 -0.5071
 2607SOL    HW210501   3.854   1.598   4.146  0.7481 -0.2269 -1.2817
 2607SOL    HW310502   3.704   1.586   4.143  0.6262  0.7260  0.2784
 2607SOL    MW410503   3.782   1.567   4.110  0.1698  0.1924 -0.5059
 2608SOL     OW10504   3.565   1.615   4.270  0.1830 -0.0082  0.2842
 2608SOL    HW210505   3.498   1.560   4.230  0.8395 -0.7422  0.1647
 2608SOL    HW310506   3.550   1.606   4.365 -0.8708  1.0954  0.2355
 2608SOL    MW410507   3.554   1.606   4.278  0.1307  0.0407  0.2618
 2609SOL     OW10508   3.520   1.903   4.223 -0.2970 -0.3171  0.1072
 2609SOL    HW210509   3.518   1.808   4.234 -0.5267 -0.3229  0.0155
 2609SOL    HW310510   3.590   1.919   4.160 -0.1517 -0.4135  0.2429
 2609SOL    MW410511   3.529   1.893   4.216 -0.3080 -0.3306  0.1130
 2610SOL     OW10512   3.725   1.985   4.076  0.0483  0.0183  0.3752
 2610SOL    HW210513   3.816   1.957   4.081 -0.2757 -1.1448 -0.0178
 2610SOL    HW310514   3.727   2.080   4.090  1.1670 -0.2225  1.8864
 2610SOL    MW410515   3.737   1.994   4.079  0.1533 -0.1669  0.5226
 2611SOL     OW10516   3.604   2.455   4.202  0.0284  0.5186 -0.2946
 2611SOL    HW210517   3.642   2.466   4.289 -1.1501  1.5854  0.0961
 2611SOL    HW310518   3.659   2.388   4.160  2.7872  2.5076 -0.0019
 2611SOL    MW410519   3.616   2.448   4.208  0.2370  0.9220 -0.2041
 2612SOL     OW10520   3.571   2.743   4.367 -0.1427  0.2230 -0.2870
 2612SOL    HW210521   3.599   2.657   4.396 -0.7929  0.3607  0.7828
 2612SOL    HW310522   3.652   2.788   4.344  0.4496  0.2349  1.7087
 2612SOL    MW410523   3.585   2.738   4.368 -0.1502  0.2427  0.1173
 2613SOL     OW10524   3.758   2.664   4.093 -0.0659 -0.0053 -0.4191
 2613SOL    HW210525   3.690   2.602   4.120 -0.3366  0.9349  1.1438
 2613SOL    HW310526   3.746   2.674   3.999 -0.3054 -1.9800 -0.6125
 2613SOL    MW410527   3.748   2.657   4.084 -0.1335 -0.1419 -0.2389
 2614SOL     OW10528   3.803   2.854   4.297 -0.8503 -0.2696  0.0292
 2614SOL    HW210529   3.858   2.815   4.364  2.3589  1.4912 -1.4298
 2614SOL    HW310530   3.798   2.788   4.228  0.5388  0.0365 -0.3764
 2614SOL    MW410531   3.809   2.840   4.297 -0.2437  0.0031 -0.2165
 2615SOL     OW10532   3.807   3.095   4.158  0.0334 -0.7788  0.4858
 2615SOL    HW210533   3.811   3.013   4.207 -2.2172 -0.5759  1.0411
 2615SOL    HW310534   3.810   3.069   4.066  1.1705 -1.3484  0.6714
 2615SOL    MW410535   3.808   3.081   4.153 -0.1135 -0.8271  0.5836
 2616SOL     OW10536   3.581   3.201   4.291 -0.5971  0.4178 -0.1975
 2616SOL    HW210537   3.672   3.175   4.281 -0.8014 -1.2304  1.7155
 2616SOL    HW310538   3.532   3.141   4.234 -0.6212  0.2310  0.0195
 2616SOL    MW410539   3.586   3.190   4.282 -0.6273  0.1757  0.0834
 2617SOL     OW10540   3.583   3.472   4.176 -0.3657 -0.3712  0.0091
 2617SOL    HW210541   3.583   3.389   4.223  0.7207 -0.0742  0.5494
 2617SOL    HW310542   3.503   3.516   4.205  0.9597  0.3935  2.6640
 2617SOL    MW410543   3.572   3.467   4.186 -0.0474 -0.2313  0.4306
 2618SOL     OW10544   3.798   3.619   4.285  0.1893 -0.1696 -0.2079
 2618SOL    HW210545   3.880   3.575   4.262 -0.1712 -2.5764  2.8812
 2618SOL    HW310546   3.730   3.571   4.239  0.3900  1.4789 -2.3142
 2618SOL    MW410547   3.800   3.607   4.276  0.1681 -0.2694 -0.0782
 2619SOL     OW10548   3.796   3.865   4.119  0.0437 -0.0653  0.4145
 2619SOL    HW210549   3.732   3.925   4.157 -0.1695 -0.4798  0.7143
 2619SOL    HW310550   3.790   3.786   4.173  1.3703  0.1841  0.9359
 2619SOL    MW410551   3.787   3.863   4.131  0.1905 -0.0870  0.5231
 2620SOL     OW10552   3.572   3.987   4.227 -0.1272  0.7142  0.3564
 2620SOL    HW210553   3.563   3.993   4.322 -0.6910 -0.4226  0.3913
 2620SOL    HW310554   3.496   3.934   4.200 -0.0669  1.1889 -0.7399
 2620SOL    MW410555   3.561   3.981   4.236 -0.1936  0.6266  0.2165
 2621SOL     OW10556   3.595   4.213   4.101 -0.2856  0.1025  0.2003
 2621SOL    HW210557   3.662   4.265   4.146 -1.5333  2.0901 -0.1926
 2621SOL    HW310558   3.591   4.132   4.151  1.4157  0.5281  1.0710
 2621SOL    MW410559   3.603   4.209   4.114 -0.2260  0.4210  0.2632
 2622SOL     OW10560   3.800   4.356   4.217  0.2918 -0.8914  0.3773
 2622SOL    HW210561   3.886   4.326   4.190  1.1797  0.4722  1.5649
 2622SOL    HW310562   3.802   4.451   4.201 -0.9217 -0.8270  0.5652
 2622SOL    MW410563   3.811   4.365   4.212  0.2487 -0.7033  0.5589
 2623SOL     OW10564   4.201   4.631   4.196  0.1129 -0.2780 -0.0890
 2623SOL    HW210565   4.198   4.540   4.224 -0.9533 -0.3112 -0.3209
 2623SOL    HW310566   4.285   4.663   4.230  0.2550 -1.1947  0.4408
 2623SOL    MW410567   4.212   4.623   4.204 -0.0091 -0.4034 -0.0491
 2624SOL     OW10568   4.007   0.123   4.319  0.3777  0.1059 -0.1555
 2624SOL    HW210569   4.008   0.199   4.261  0.4284  0.7705  0.7118
 2624SOL    HW310570   4.087   0.076   4.298  1.4260  1.4312  0.8017
 2624SOL    MW410571   4.017   0.127   4.309  0.5221  0.3684  0.0858
 2625SOL     OW10572   4.009   0.343   4.148  0.1051 -0.1705 -0.4160
 2625SOL    HW210573   4.088   0.392   4.170  0.2135 -0.0630 -1.0340
 2625SOL    HW310574   3.938   0.393   4.187  0.3753 -0.4719  0.4702
 2625SOL    MW410575   4.010   0.356   4.156  0.1550 -0.1961 -0.3810
 2626SOL     OW10576   4.266   0.452   4.223  0.4865 -0.4664 -0.1451
 2626SOL    HW210577   4.268   0.541   4.190  0.9672 -0.1892  0.6021
 2626SOL    HW310578   4.342   0.409   4.182 -0.7412 -1.0459 -1.8641
 2626SOL    MW410579   4.276   0.458   4.214  0.3877 -0.5063 -0.2732
 2627SOL     OW10580   4.256   0.754   4.160 -0.2997  0.6153  0.4291
 2627SOL    HW210581   4.175   0.782   4.201  0.2992  0.7095  1.5847
 2627SOL    HW310582   4.240   0.760   4.066 -1.3329  1.4683  0.6589
 2627SOL    MW410583   4.243   0.759   4.153 -0.3567  0.7403  0.6118
 2628SOL     OW10584   4.031   0.855   4.287 -0.3772  0.2541 -0.2217
 2628SOL    HW210585   4.018   0.942   4.247  0.7583  0.5226 -0.0104
 2628SOL    HW310586   3.952   0.806   4.262 -1.8059  1.8392  1.0106
 2628SOL    MW410587   4.019   0.860   4.278 -0.4158  0.4986 -0.0315
 2629SOL     OW10588   4.061   1.103   4.180  0.4013 -0.1990 -0.2877
 2629SOL    HW210589   4.134   1.143   4.228 -0.3342  0.2824  0.4437
 2629SOL    HW310590   3.988   1.164   4.192 -0.1788 -0.7743 -0.8517
 2629SOL    MW410591   4.061   1.116   4.188  0.2279 -0.2115 -0.2656
 2630SOL     OW10592   4.252   1.274   4.274 -0.0700 -0.1824  0.2408
 2630SOL    HW210593   4.282   1.329   4.346  1.2472  0.2479 -0.6213
 2630SOL    HW310594   4.332   1.241   4.234 -0.6647  1.6806 -2.6388
 2630SOL    MW410595   4.266   1.277   4.278  0.0257  0.1202 -0.2532
 2631SOL     OW10596   4.260   1.537   4.162 -0.4044 -0.1715  0.3457
 2631SOL    HW210597   4.248   1.444   4.181  1.9301 -0.6225 -0.1975
 2631SOL    HW310598   4.257   1.543   4.067 -1.7291  0.4916  0.4267
 2631SOL    MW410599   4.258   1.525   4.152 -0.2708 -0.1434  0.2851
 2632SOL     OW10600   4.003   1.661   4.226 -0.0518 -0.2982  0.1082
 2632SOL    HW210601   3.997   1.639   4.319  0.3846 -1.4353 -0.1225
 2632SOL    HW310602   4.084   1.619   4.197  0.5362  1.2151 -0.4748
 2632SOL    MW410603   4.013   1.652   4.234  0.0830 -0.2486  0.0010
 2633SOL     OW10604   3.987   1.933   4.132 -0.1617  0.2696 -0.2132
 2633SOL    HW210605   3.996   1.842   4.161  0.6813  0.4515  0.0910
 2633SOL    HW310606   4.017   1.986   4.205  0.1805  0.7741 -0.7089
 2633SOL    MW410607   3.992   1.928   4.145 -0.0055  0.3603 -0.2384
 2634SOL     OW10608   4.465   1.919   4.162 -0.2229 -0.2320  0.3878
 2634SOL    HW210609   4.533   1.973   4.202 -0.2068 -0.2608  0.3989
 2634SOL    HW310610   4.389   1.928   4.220 -0.5728  0.6585 -0.1926
 2634SOL    MW410611   4.464   1.927   4.175 -0.2670 -0.1184  0.3123
 2635SOL     OW10612   4.172   2.375   4.133 -0.4551 -0.1948  0.0861
 2635SOL    HW210613   4.113   2.435   4.178 -0.8539 -1.7661  1.7492
 2635SOL    HW310614   4.203   2.316   4.202 -0.2122 -1.9849 -1.4980
 2635SOL    MW410615   4.168   2.375   4.148 -0.4759 -0.6385  0.0963
 2636SOL     OW10616   3.992   2.559   4.245 -0.0280 -0.0627 -0.1857
 2636SOL    HW210617   3.958   2.495   4.308  1.0732 -1.5902 -1.1273
 2636SOL    HW310618   3.922   2.567   4.180 -0.5876  0.4766  0.4655
 2636SOL    MW410619   3.978   2.552   4.245  0.0434 -0.1929 -0.2241
 2637SOL     OW10620   4.142   2.777   4.121  0.0675 -0.2118 -0.1413
 2637SOL    HW210621   4.081   2.728   4.177  1.3942  0.8396  2.2813
 2637SOL    HW310622   4.226   2.734   4.133 -0.0545 -1.4766 -3.2715
 2637SOL    MW410623   4.145   2.765   4.130  0.2265 -0.2398 -0.2346
 2638SOL     OW10624   4.236   2.702   4.428 -0.2159 -0.2472 -0.4423
 2638SOL    HW210625   4.293   2.709   4.504 -0.3174  0.1391 -0.4035
 2638SOL    HW310626   4.294   2.717   4.353 -0.3113  0.3623 -0.3910
 2638SOL    MW410627   4.251   2.705   4.428 -0.2422 -0.1159 -0.4306
 2639SOL     OW10628   4.198   3.061   4.167 -0.2724 -0.1876  0.3717
 2639SOL    HW210629   4.175   2.970   4.148 -0.4536  0.1706 -1.2395
 2639SOL    HW310630   4.212   3.101   4.081  0.3615  1.1726  1.0751
 2639SOL    MW410631   4.197   3.054   4.153 -0.2127  0.0393  0.2518
 2640SOL     OW10632   4.012   3.236   4.285 -0.1935 -0.5140  0.2745
 2640SOL    HW210633   4.084   3.178   4.259  0.5341  0.6100 -0.2509
 2640SOL    HW310634   3.935   3.197   4.245  0.5341 -0.2292 -1.4513
 2640SOL    MW410635   4.012   3.223   4.276 -0.0014 -0.3281 -0.0219
 2641SOL     OW10636   4.038   3.488   4.205  0.3004 -0.2130 -0.3018
 2641SOL    HW210637   4.024   3.396   4.230  1.1979 -0.4910 -0.7909
 2641SOL    HW310638   4.010   3.492   4.113 -1.0171  0.3204  0.1173
 2641SOL    MW410639   4.033   3.476   4.196  0.2451 -0.1795 -0.3109
 2642SOL     OW10640   4.264   3.618   4.304  0.0552  0.0445  0.0390
 2642SOL    HW210641   4.268   3.697   4.251 -0.0550  1.0797  1.5253
 2642SOL    HW310642   4.181   3.576   4.279 -0.3892  0.9409 -0.0238
 2642SOL    MW410643   4.253   3.623   4.294 -0.0176  0.2992  0.2270
 2643SOL     OW10644   4.280   3.865   4.167 -0.2064 -0.2602  0.3990
 2643SOL    HW210645   4.198   3.910   4.189 -0.1627  0.3672 -0.6991
 2643SOL    HW310646   4.278   3.857   4.072  0.5742 -1.0976  0.4489
 2643SOL    MW410647   4.269   3.870   4.157 -0.0978 -0.2878  0.2608
 2644SOL     OW10648   4.024   3.980   4.220 -0.2748 -0.3841  0.4184
 2644SOL    HW210649   4.017   3.956   4.312  1.1355 -0.6089  0.4828
 2644SOL    HW310650   3.945   3.943   4.179  0.7268 -3.2521  0.9249
 2644SOL    MW410651   4.013   3.972   4.227  0.0434 -0.7920  0.4935
 2645SOL     OW10652   4.034   4.235   4.138  0.4077 -0.8302  0.1287
 2645SOL    HW210653   4.091   4.294   4.187 -2.3536 -0.1505  2.7258
 2645SOL    HW310654   4.050   4.149   4.176 -0.8547 -0.4941  1.5030
 2645SOL    MW410655   4.044   4.232   4.150 -0.1230 -0.6962  0.6523
 2646SOL     OW10656   4.279   4.627   4.694 -0.5146  0.0327  0.4994
 2646SOL    HW210657   4.262   4.592   4.782  0.3390 -1.5942  0.0509
 2646SOL    HW310658   4.193   4.651   4.660 -1.1237 -1.4464  0.9337
 2646SOL    MW410659   4.266   4.626   4.701 -0.4830 -0.3767  0.4973
 2647SOL     OW10660   0.176   0.227   4.629 -0.3557  0.0292  0.8800
 2647SOL    HW210661   0.182   0.320   4.605  0.3158 -0.3852 -0.6599
 2647SOL    HW310662   0.101   0.195   4.579  1.6270 -1.0676 -1.5035
 2647SOL    MW410663   0.167   0.235   4.619 -0.0055 -0.1702  0.3619
 2648SOL     OW10664   4.273   4.350   4.581 -0.1507  0.6698 -0.0327
 2648SOL    HW210665   4.208   4.291   4.620  0.7644  0.8823  1.8831
 2648SOL    HW310666   4.256   4.435   4.621  1.3587  0.6996  0.6009
 2648SOL    MW410667   4.262   4.353   4.592  0.1693  0.7014  0.3037
 2649SOL     OW10668   4.022   0.064   4.581 -0.1029 -0.0339  0.0363
 2649SOL    HW210669   4.021   0.089   4.489 -0.5000 -1.0643 -0.2475
 2649SOL    HW310670   3.941   0.015   4.593 -0.2518  0.4498  1.0381
 2649SOL    MW410671   4.011   0.061   4.571 -0.1750 -0.1060  0.1302
 2650SOL     OW10672   4.188   1.330   4.761  0.0328  0.1618  0.3534
 2650SOL    HW210673   4.180   1.415   4.718 -1.3939  0.1026  0.4641
 2650SOL    HW310674   4.194   1.350   4.854  0.2959  0.1648  0.3360
 2650SOL    MW410675   4.188   1.344   4.768 -0.1206  0.1544  0.3653
 2651SOL     OW10676   0.392   0.083   4.555 -0.1395  0.3432 -0.4047
 2651SOL    HW210677   0.321   0.132   4.597 -0.9338 -1.4915  0.4833
 2651SOL    HW310678   0.348   0.008   4.514  1.1029  0.0482 -1.2342
 2651SOL    MW410679   0.377   0.079   4.555 -0.0804  0.0622 -0.3977
 2652SOL     OW10680   0.680   1.031   4.735  0.4073 -0.3499 -0.3527
 2652SOL    HW210681   0.590   1.063   4.743  0.4999 -0.4968  1.5924
 2652SOL    HW310682   0.672   0.946   4.691 -0.3148  0.0535 -1.0044
 2652SOL    MW410683   0.667   1.024   4.730  0.3242 -0.3161 -0.1817
 2653SOL     OW10684   4.328   0.913   4.576  0.0421  0.4194  0.0960
 2653SOL    HW210685   4.394   0.865   4.625 -0.3811 -0.2072  0.0521
 2653SOL    HW310686   4.364   0.919   4.488  0.3984  0.7667  0.2642
 2653SOL    MW410687   4.341   0.908   4.571  0.0334  0.3826  0.1125
 2654SOL     OW10688   0.739   1.301   4.677  0.0368  0.1200 -0.1095
 2654SOL    HW210689   0.688   1.291   4.597 -1.4790 -0.9707  0.9650
 2654SOL    HW310690   0.735   1.215   4.719  0.3016  0.8393  1.4355
 2654SOL    MW410691   0.732   1.288   4.672 -0.1282  0.0710  0.2360
 2655SOL     OW10692   0.726   2.238   4.650 -0.0660 -0.5035  0.1033
 2655SOL    HW210693   0.797   2.175   4.640  0.1568 -0.1206 -0.7472
 2655SOL    HW310694   0.646   2.184   4.648  0.1102 -0.7411 -0.9102
 2655SOL    MW410695   0.725   2.223   4.648 -0.0133 -0.4845 -0.1426
 2656SOL     OW10696   4.406   1.418   4.496 -0.2025  0.9576 -0.1561
 2656SOL    HW210697   4.401   1.334   4.542 -0.0571  0.6937 -0.6124
 2656SOL    HW310698   4.498   1.444   4.504 -0.0038  0.5273 -0.9558
 2656SOL    MW410699   4.418   1.410   4.503 -0.1574  0.8661 -0.3219
 2657SOL     OW10700   0.214   1.985   4.505 -0.6819  0.7911 -0.5666
 2657SOL    HW210701   0.159   1.907   4.514  0.4148 -0.2719 -2.6978
 2657SOL    HW310702   0.159   2.057   4.537 -1.8946 -0.7667  0.9649
 2657SOL    MW410703   0.199   1.984   4.510 -0.6972  0.4455 -0.6456
 2658SOL     OW10704   0.467   1.633   4.271 -0.1476 -0.0745  0.2166
 2658SOL    HW210705   0.388   1.587   4.242 -0.3771  0.0678  0.6199
 2658SOL    HW310706   0.536   1.600   4.212 -0.7228  0.6894 -0.9080
 2658SOL    MW410707   0.466   1.622   4.259 -0.2538  0.0452  0.1216
 2659SOL     OW10708   0.024   2.196   4.595 -0.5795 -0.5666  0.1642
 2659SOL    HW210709  -0.049   2.211   4.655 -0.8583  0.8263 -0.4946
 2659SOL    HW310710   0.057   2.284   4.576  1.1896 -1.1545  0.3390
 2659SOL    MW410711   0.019   2.210   4.601 -0.3829 -0.4604  0.1001
 2660SOL     OW10712   3.890   2.572   4.768  0.3110  0.3863 -0.7681
 2660SOL    HW210713   3.796   2.586   4.780  0.4437 -0.8025  1.8987
 2660SOL    HW310714   3.896   2.494   4.714 -0.2432 -0.9506  1.0587
 2660SOL    MW410715   3.878   2.564   4.762  0.2553  0.0529 -0.1750
 2661SOL     OW10716   0.278   2.858   4.529 -0.1781 -0.6041  0.2013
 2661SOL    HW210717   0.251   2.854   4.437  0.7437  0.0154 -0.1059
 2661SOL    HW310718   0.360   2.809   4.532 -0.6761 -1.4144  0.8852
 2661SOL    MW410719   0.285   2.851   4.517 -0.1222 -0.6294  0.2513
 2662SOL     OW10720   0.401   3.104   4.565  0.4932  0.0307 -0.1565
 2662SOL    HW210721   0.359   3.019   4.556  0.2735 -0.3888  3.7652
 2662SOL    HW310722   0.332   3.161   4.599  1.6928  0.6379  1.3530
 2662SOL    MW410723   0.386   3.100   4.568  0.6225  0.0558  0.5598
 2663SOL     OW10724   4.270   2.217   4.709  0.1133 -0.1701 -0.1987
 2663SOL    HW210725   4.184   2.199   4.671  0.5766 -1.2238 -0.7618
 2663SOL    HW310726   4.264   2.307   4.741 -0.2889  0.7555 -2.7772
 2663SOL    MW410727   4.258   2.227   4.708  0.1211 -0.1874 -0.6132
 2664SOL     OW10728   4.279   3.279   4.593 -0.2704  0.4264  0.1795
 2664SOL    HW210729   4.284   3.217   4.520  0.4884  0.7680 -0.0677
 2664SOL    HW310730   4.191   3.267   4.630 -0.7720  0.4557 -0.9802
 2664SOL    MW410731   4.268   3.270   4.588 -0.2360  0.4754 -0.0057
 2665SOL     OW10732   0.210   3.307   4.616 -0.2221  0.3138  0.2458
 2665SOL    HW210733   0.172   3.316   4.528  0.6927  3.6943  0.1036
 2665SOL    HW310734   0.136   3.284   4.672 -1.3308  0.7818 -0.9932
 2665SOL    MW410735   0.195   3.305   4.611 -0.2477  0.8218  0.0634
 2666SOL     OW10736   4.240   3.970   4.658 -0.6043  0.4207  0.2641
 2666SOL    HW210737   4.177   3.940   4.592 -0.5325  0.7780  0.0336
 2666SOL    HW310738   4.251   3.895   4.716 -1.8644  0.6142  0.7825
 2666SOL    MW410739   4.233   3.956   4.657 -0.7615  0.4930  0.3018
 2667SOL     OW10740   4.421   0.150   4.507 -0.2778  0.1012 -0.0599
 2667SOL    HW210741   4.376   0.233   4.496  0.7132  0.5883 -0.4953
 2667SOL    HW310742   4.363   0.098   4.563 -0.7825  1.1644  0.4098
 2667SOL    MW410743   4.407   0.154   4.513 -0.2136  0.3058 -0.0548
 2668SOL     OW10744   3.819   0.498   4.531 -0.2095 -0.5050 -0.4322
 2668SOL    HW210745   3.730   0.470   4.552 -0.5830  0.1483 -1.0758
 2668SOL    HW310746   3.816   0.593   4.539  0.6044 -0.5303  0.1661
 2668SOL    MW410747   3.806   0.507   4.535 -0.1514 -0.4221 -0.4382
 2669SOL     OW10748   3.899   3.655   4.568 -0.0763  0.0013  0.2587
 2669SOL    HW210749   3.900   3.572   4.616 -3.0812 -0.2901 -0.0603
 2669SOL    HW310750   3.838   3.639   4.496  1.1243  1.7770 -1.1593
 2669SOL    MW410751   3.891   3.642   4.565 -0.3145  0.1972  0.0300
 2670SOL     OW10752   3.826   4.101   4.615  0.2693  0.1543 -0.1418
 2670SOL    HW210753   3.787   4.182   4.579 -3.0632 -0.7634  1.2023
 2670SOL    HW310754   3.769   4.078   4.688  2.7175 -2.0224  1.1335
 2670SOL    MW410755   3.813   4.109   4.620  0.1526 -0.2537  0.2036
 2671SOL     OW10756   0.655   0.002   4.617 -0.0129 -0.0102  0.6254
 2671SOL    HW210757   0.711   0.079   4.606  0.6191 -0.3050  1.7110
 2671SOL    HW310758   0.566   0.036   4.616  0.1943  0.5341 -0.5443
 2671SOL    MW410759   0.651   0.016   4.615  0.0979  0.0227  0.6137
 2672SOL     OW10760   4.391   1.174   4.644  0.1975  0.1916 -0.6159
 2672SOL    HW210761   4.318   1.222   4.683  0.8191  0.7486 -0.1257
 2672SOL    HW310762   4.357   1.086   4.631 -0.0343 -0.0108  1.1838
 2672SOL    MW410763   4.377   1.169   4.648  0.2489  0.2384 -0.3138
 2673SOL     OW10764   1.232   0.738   4.527  0.4328  0.0427  0.0954
 2673SOL    HW210765   1.252   0.775   4.441 -1.0287  0.4921 -0.0657
 2673SOL    HW310766   1.163   0.794   4.561  0.3523 -0.7024  1.1723
 2673SOL    MW410767   1.226   0.751   4.520  0.2295  0.0036  0.2155
 2674SOL     OW10768   0.805   0.527   4.547 -0.0198 -0.0265 -0.0667
 2674SOL    HW210769   0.805   0.435   4.570  0.3724  0.3991  1.7037
 2674SOL    HW310770   0.762   0.531   4.461  0.4996 -1.8966 -0.4137
 2674SOL    MW410771   0.799   0.516   4.539  0.1005 -0.2170  0.1211
 2675SOL     OW10772   1.104   1.106   4.554  0.4734 -0.3843  0.1050
 2675SOL    HW210773   1.166   1.091   4.625 -0.7433 -0.6591  1.1329
 2675SOL    HW310774   1.043   1.033   4.559 -0.0593 -0.0087 -0.7462
 2675SOL    MW410775   1.104   1.095   4.564  0.2427 -0.3710  0.1292
 2676SOL     OW10776   0.425   0.841   4.468 -0.3322 -0.1655  0.2014
 2676SOL    HW210777   0.333   0.820   4.482 -0.1683 -0.5126  0.8102
 2676SOL    HW310778   0.436   0.845   4.373 -1.2917  1.3286  0.1378
 2676SOL    MW410779   0.415   0.839   4.458 -0.4372 -0.0142  0.2732
 2677SOL     OW10780   2.145   1.172   4.509  0.6520 -0.6271  0.1843
 2677SOL    HW210781   2.097   1.245   4.547  0.1574 -1.3766  1.0315
 2677SOL    HW310782   2.236   1.201   4.505  0.3174  0.3606 -0.3128
 2677SOL    MW410783   2.151   1.185   4.513  0.5426 -0.5957  0.2308
 2678SOL     OW10784   0.618   1.748   4.548  0.1861 -0.3824  0.1582
 2678SOL    HW210785   0.702   1.764   4.592  0.5039 -0.4212 -0.4260
 2678SOL    HW310786   0.642   1.730   4.457 -0.5872  1.1836 -0.3572
 2678SOL    MW410787   0.633   1.748   4.542  0.1261 -0.1808  0.0129
 2679SOL     OW10788   1.031   1.616   4.427  0.0087  0.3858  0.1296
 2679SOL    HW210789   1.016   1.539   4.483 -0.2030  0.5299  0.2709
 2679SOL    HW310790   1.027   1.690   4.487  1.6694  0.4047  0.2392
 2679SOL    MW410791   1.029   1.616   4.442  0.1998  0.4072  0.1626
 2680SOL     OW10792   0.951   2.063   4.644  0.0109 -0.0418  0.4698
 2680SOL    HW210793   0.997   2.053   4.561 -0.3670 -0.2209  0.2873
 2680SOL    HW310794   1.016   2.106   4.701  0.0187  0.7560 -0.1269
 2680SOL    MW410795   0.966   2.068   4.641 -0.0380  0.0398  0.3672
 2681SOL     OW10796   0.602   2.422   4.471 -0.1332 -0.1868 -0.6966
 2681SOL    HW210797   0.636   2.409   4.383  0.3727  0.6974 -0.6386
 2681SOL    HW310798   0.660   2.369   4.527  2.3403  2.7076 -0.3795
 2681SOL    MW410799   0.614   2.413   4.467  0.2599  0.3116 -0.6471
 2682SOL     OW10800   0.901   1.786   4.664 -0.1028 -0.2396 -0.4219
 2682SOL    HW210801   0.958   1.727   4.713 -1.0283 -0.7477  0.0532
 2682SOL    HW310802   0.931   1.874   4.688 -1.5889 -0.4480  2.3618
 2682SOL    MW410803   0.912   1.790   4.674 -0.4210 -0.3341  0.0081
 2683SOL     OW10804   0.110   2.489   4.544 -0.6559  0.1424  0.1854
 2683SOL    HW210805   0.066   2.481   4.459 -0.5879 -0.7926  0.2276
 2683SOL    HW310806   0.204   2.482   4.522 -0.6313  0.0682  0.3152
 2683SOL    MW410807   0.117   2.487   4.530 -0.6437  0.0093  0.2089
 2684SOL     OW10808   0.941   2.423   4.767  0.1038 -0.5970  0.4737
 2684SOL    HW210809   0.856   2.378   4.763 -0.5010  0.5193  0.7894
 2684SOL    HW310810   1.000   2.358   4.806 -0.8568 -0.9712  1.3175
 2684SOL    MW410811   0.938   2.408   4.771 -0.1028 -0.4990  0.6266
 2685SOL     OW10812   0.510   2.675   4.585  0.5863  0.1689 -0.1014
 2685SOL    HW210813   0.459   2.653   4.663 -0.0326 -0.2609 -0.6262
 2685SOL    HW310814   0.539   2.591   4.550  0.0717  0.3032 -0.8616
 2685SOL    MW410815   0.507   2.661   4.591  0.4367  0.1302 -0.2708
 2686SOL     OW10816   1.165   3.009   4.607 -0.0485 -0.8082 -0.4147
 2686SOL    HW210817   1.142   2.917   4.616 -1.3650 -0.4971 -0.3870
 2686SOL    HW310818   1.080   3.054   4.599  0.4446  0.6772  2.1428
 2686SOL    MW410819   1.151   3.003   4.607 -0.1571 -0.5710 -0.0730
 2687SOL     OW10820   0.660   3.272   4.634  0.0099 -0.2901  0.3803
 2687SOL    HW210821   0.629   3.360   4.609  0.2087 -0.3464 -0.0729
 2687SOL    HW310822   0.580   3.220   4.643 -0.0797 -0.2040  0.0951
 2687SOL    MW410823   0.645   3.277   4.632  0.0244 -0.2863  0.2828
 2688SOL     OW10824   1.366   4.504   4.666  0.0919  0.0125 -0.8361
 2688SOL    HW210825   1.296   4.450   4.628  0.3950 -0.8312 -0.2247
 2688SOL    HW310826   1.447   4.458   4.642  0.2793 -0.6519  0.9732
 2688SOL    MW410827   1.367   4.491   4.658  0.1566 -0.1860 -0.5159
 2689SOL     OW10828   4.406   2.687   4.639 -0.0011 -0.4688  0.5000
 2689SOL    HW210829   4.340   2.636   4.685 -0.4391  0.3474  0.7896
 2689SOL    HW310830   4.481   2.627   4.630 -0.7451 -1.3661  0.2290
 2689SOL    MW410831   4.407   2.672   4.644 -0.1574 -0.4795  0.5026
 2690SOL     OW10832   4.338   3.553   4.556 -0.1180 -0.4524 -0.4328
 2690SOL    HW210833   4.334   3.458   4.561 -0.1879 -0.4331 -0.0948
 2690SOL    HW310834   4.304   3.574   4.470 -0.7208 -0.6968 -0.2563
 2690SOL    MW410835   4.333   3.544   4.546 -0.2069 -0.4821 -0.3653
 2691SOL     OW10836   1.108   0.024   4.627  0.2174 -0.1314 -0.3505
 2691SOL    HW210837   1.130  -0.056   4.578  0.8766  0.3004 -0.7672
 2691SOL    HW310838   1.122   0.001   4.719  0.2251 -0.5546 -0.4567
 2691SOL    MW410839   1.113   0.010   4.632  0.3054 -0.1303 -0.4187
 2692SOL     OW10840   0.063   4.313   4.523 -0.4747 -0.2076 -0.5734
 2692SOL    HW210841  -0.026   4.317   4.560 -0.2598 -1.1254  0.0943
 2692SOL    HW310842   0.088   4.221   4.535  0.5702  0.0580 -0.7432
 2692SOL    MW410843   0.054   4.301   4.530 -0.3085 -0.2933 -0.5074
 2693SOL     OW10844   0.012   4.012   4.554 -0.1551  0.2461 -0.1232
 2693SOL    HW210845   0.051   3.926   4.568 -0.9473 -0.2958 -1.1752
 2693SOL    HW310846  -0.073   4.007   4.597  0.0689  0.7312  0.3837
 2693SOL    MW410847   0.006   4.000   4.561 -0.2301  0.2389 -0.1955
 2694SOL     OW10848   0.247   4.522   4.467  0.2694 -0.2247 -0.0003
 2694SOL    HW210849   0.316   4.464   4.499  0.3534  0.5358  1.2298
 2694SOL    HW310850   0.166   4.478   4.492  0.2933 -0.7761 -0.8376
 2694SOL    MW410851   0.246   4.508   4.474  0.2836 -0.1974  0.0520
 2695SOL     OW10852   1.260   0.252   4.588 -0.3883  0.1660 -0.2587
 2695SOL    HW210853   1.197   0.311   4.548 -2.7933 -3.2039 -1.6208
 2695SOL    HW310854   1.208   0.177   4.617  2.8413 -2.3016 -0.5710
 2695SOL    MW410855   1.245   0.250   4.587 -0.2795 -0.6042 -0.4797
 2696SOL     OW10856   0.874   0.221   4.575 -0.0802 -0.2645 -0.3037
 2696SOL    HW210857   0.886   0.213   4.480  0.1541 -1.9703 -0.1445
 2696SOL    HW310858   0.947   0.173   4.613  0.3273  1.1689  0.7741
 2696SOL    MW410859   0.885   0.214   4.568  0.0045 -0.3004 -0.1402
 2697SOL     OW10860   0.681   0.803   4.578  0.2524  0.1888  0.0856
 2697SOL    HW210861   0.708   0.712   4.588 -0.7265 -0.1773 -0.5348
 2697SOL    HW310862   0.596   0.798   4.534  1.0686  1.4835 -1.6899
 2697SOL    MW410863   0.673   0.791   4.574  0.2309  0.3113 -0.2303
 2698SOL     OW10864   1.539   0.816   4.800 -0.4056 -0.2008 -0.3664
 2698SOL    HW210865   1.474   0.755   4.765 -0.1802 -0.5610 -0.1624
 2698SOL    HW310866   1.599   0.761   4.851  1.5952 -0.2734 -2.7067
 2698SOL    MW410867   1.539   0.801   4.802 -0.1119 -0.2579 -0.6480
 2699SOL     OW10868   1.751   0.789   4.470 -0.1183  0.3556 -0.3584
 2699SOL    HW210869   1.675   0.828   4.514  0.7245  0.2190  1.2609
 2699SOL    HW310870   1.756   0.834   4.386 -0.9566  1.5925  0.2373
 2699SOL    MW410871   1.742   0.800   4.465 -0.1177  0.5008 -0.0663
 2700SOL     OW10872   0.411   1.080   4.598 -0.1333 -0.2704 -0.2960
 2700SOL    HW210873   0.412   0.989   4.566  0.9366  0.1697 -1.5211
 2700SOL    HW310874   0.320   1.108   4.586  0.1953 -0.1773 -2.8051
 2700SOL    MW410875   0.399   1.071   4.593  0.0512 -0.2000 -0.7887
 2701SOL     OW10876   0.548   1.297   4.465 -0.2485  0.3343  0.1450
 2701SOL    HW210877   0.510   1.381   4.488  0.8136  0.3711  1.8799
 2701SOL    HW310878   0.497   1.233   4.515 -0.8030 -0.0265 -0.8685
 2701SOL    MW410879   0.537   1.299   4.475 -0.1816  0.2916  0.2403
 2702SOL     OW10880   0.971   0.858   4.541 -0.3665 -0.7229  0.1264
 2702SOL    HW210881   0.890   0.867   4.591  0.0227  2.1191  0.3295
 2702SOL    HW310882   0.943   0.857   4.450 -0.6609  0.0827  0.1999
 2702SOL    MW410883   0.957   0.859   4.536 -0.3539 -0.2416  0.1631
 2703SOL     OW10884   1.773   0.958   4.733 -0.3574  0.9829 -0.3847
 2703SOL    HW210885   1.833   0.899   4.686 -0.0418  1.0696 -0.0970
 2703SOL    HW310886   1.698   0.904   4.754 -0.0574  0.6750 -0.1015
 2703SOL    MW410887   1.771   0.943   4.729 -0.2762  0.9537 -0.3099
 2704SOL     OW10888   0.983   1.375   4.582 -0.5370 -0.2574 -0.0934
 2704SOL    HW210889   1.032   1.297   4.556 -0.6898 -0.1719 -0.6412
 2704SOL    HW310890   0.903   1.341   4.623 -1.6947 -0.3932 -2.4065
 2704SOL    MW410891   0.979   1.360   4.584 -0.7099 -0.2640 -0.4711
 2705SOL     OW10892   1.476   2.181   4.516 -0.3848 -0.0163  0.2237
 2705SOL    HW210893   1.440   2.139   4.594 -1.1882  0.9080  0.3616
 2705SOL    HW310894   1.400   2.214   4.468  0.2034  1.0616  0.0029
 2705SOL    MW410895   1.461   2.180   4.520 -0.4132  0.2482  0.2131
 2706SOL     OW10896   1.619   3.014   4.600 -0.4024  0.2335 -0.2999
 2706SOL    HW210897   1.675   3.052   4.668  0.1848  0.4329 -0.8975
 2706SOL    HW310898   1.624   2.920   4.615 -0.5002  0.2921  0.1108
 2706SOL    MW410899   1.627   3.007   4.611 -0.3378  0.2675 -0.3247
 2707SOL     OW10900   1.780   3.134   4.787  0.0321 -0.3126 -0.1302
 2707SOL    HW210901   1.746   3.219   4.816  0.2173 -0.4647  0.5633
 2707SOL    HW310902   1.871   3.133   4.819 -0.1007 -0.9447  0.2505
 2707SOL    MW410903   1.788   3.145   4.795  0.0390 -0.4163  0.0114
 2708SOL     OW10904   1.605   3.563   4.503  0.0052  0.5446  0.4677
 2708SOL    HW210905   1.671   3.615   4.548 -0.3780 -0.9801  2.9296
 2708SOL    HW310906   1.613   3.476   4.542 -2.3670 -0.0596 -0.3052
 2708SOL    MW410907   1.615   3.558   4.514 -0.3583  0.2637  0.6909
 2709SOL     OW10908   0.760   2.850   4.533 -0.2273  0.0078 -0.0480
 2709SOL    HW210909   0.833   2.789   4.545 -0.2875 -0.0285  0.1273
 2709SOL    HW310910   0.686   2.808   4.576 -0.5283 -0.2888 -0.8466
 2709SOL    MW410911   0.760   2.836   4.540 -0.2750 -0.0362 -0.1297
 2710SOL     OW10912   0.614   4.171   4.514  0.2910  0.6897  0.4887
 2710SOL    HW210913   0.551   4.235   4.546 -0.5103  1.3669 -2.3306
 2710SOL    HW310914   0.566   4.121   4.449  1.6641 -1.1367  0.8416
 2710SOL    MW410915   0.599   4.173   4.510  0.3665  0.5383  0.1640
 2711SOL     OW10916   1.053   2.757   4.548  0.2284  0.0450  0.0746
 2711SOL    HW210917   1.053   2.782   4.455  2.8085  1.0292  0.3054
 2711SOL    HW310918   1.076   2.664   4.548  1.7560  0.4112 -0.2101
 2711SOL    MW410919   1.056   2.748   4.535  0.7702  0.2232  0.0672
 2712SOL     OW10920   0.908   3.120   4.573  0.3779 -0.5661  0.0537
 2712SOL    HW210921   0.841   3.175   4.614  0.6247  0.3810 -0.7812
 2712SOL    HW310922   0.866   3.035   4.564 -2.2453  0.9815 -4.0979
 2712SOL    MW410923   0.894   3.116   4.577  0.0644 -0.2370 -0.6042
 2713SOL     OW10924   1.817   3.750   4.621  0.4056 -0.0952  0.5429
 2713SOL    HW210925   1.809   3.835   4.577  0.1356 -0.0575  0.6630
 2713SOL    HW310926   1.866   3.695   4.559  1.8467  0.5762  1.0570
 2713SOL    MW410927   1.823   3.754   4.607  0.5602 -0.0014  0.6266
 2714SOL     OW10928   0.285   3.567   4.567  0.1402  0.1243  0.2512
 2714SOL    HW210929   0.259   3.478   4.593 -0.1223  0.1016 -0.0839
 2714SOL    HW310930   0.255   3.575   4.477  0.0622  0.5967  0.3170
 2714SOL    MW410931   0.278   3.556   4.559  0.0953  0.1838  0.2155
 2715SOL     OW10932   0.509   4.422   4.512 -0.0001 -0.4338 -0.6614
 2715SOL    HW210933   0.552   4.419   4.426 -1.2508  0.3065 -1.3217
 2715SOL    HW310934   0.563   4.482   4.564  0.3637 -0.3339 -1.1506
 2715SOL    MW410935   0.522   4.429   4.507 -0.1171 -0.3228 -0.8130
 2716SOL     OW10936   0.871   4.098   4.557  0.7182  0.0362 -0.2015
 2716SOL    HW210937   0.782   4.132   4.553  0.7727  0.1579 -0.3665
 2716SOL    HW310938   0.886   4.059   4.471  1.0728  0.6443 -0.4213
 2716SOL    MW410939   0.862   4.097   4.545  0.7722  0.1326 -0.2522
 2717SOL     OW10940   0.834   4.455   4.547  0.6208 -0.1622 -0.5654
 2717SOL    HW210941   0.770   4.523   4.569  1.0359 -0.4428  1.6180
 2717SOL    HW310942   0.782   4.376   4.532  0.5203 -0.7967  2.8520
 2717SOL    MW410943   0.819   4.454   4.548  0.6622 -0.2832  0.1731
 2718SOL     OW10944   1.624   4.204   4.920  0.0583  0.1356 -0.1175
 2718SOL    HW210945   1.534   4.225   4.894  0.2855 -1.0751 -1.9634
 2718SOL    HW310946   1.614   4.159   5.004 -1.1880 -1.0985 -0.8991
 2718SOL    MW410947   1.611   4.201   4.928 -0.0762 -0.1869 -0.4644
 2719SOL     OW10948   1.594   4.366   4.570  0.2045 -0.5627 -0.0551
 2719SOL    HW210949   1.681   4.397   4.595  0.1423 -0.3719 -0.0687
 2719SOL    HW310950   1.592   4.372   4.475 -0.0745  0.1331 -0.0139
 2719SOL    MW410951   1.605   4.371   4.561  0.1595 -0.4458 -0.0510
 2720SOL     OW10952   1.110   4.425   4.548  0.0903  0.4128 -0.2972
 2720SOL    HW210953   1.129   4.334   4.573  0.3798  0.6755  0.4537
 2720SOL    HW310954   1.015   4.433   4.559  0.1369  0.3563  0.1652
 2720SOL    MW410955   1.100   4.414   4.553  0.1347  0.4401 -0.1373
 2721SOL     OW10956   1.079   0.521   4.504 -0.3867  0.2494  0.1920
 2721SOL    HW210957   1.111   0.609   4.526  1.1815 -0.3712  0.4789
 2721SOL    HW310958   0.984   0.527   4.513 -0.4991  2.5012 -1.9145
 2721SOL    MW410959   1.071   0.534   4.508 -0.1945  0.4646 -0.0482
 2722SOL     OW10960   1.744   0.109   4.541  0.1527  0.0758  0.0150
 2722SOL    HW210961   1.653   0.079   4.537  0.1823 -0.1408  0.7959
 2722SOL    HW310962   1.789   0.041   4.593  0.9182 -0.2079 -1.0042
 2722SOL    MW410963   1.738   0.096   4.547  0.2577  0.0098 -0.0167
 2723SOL     OW10964   1.422   0.593   4.677 -0.3155 -0.1018 -0.0985
 2723SOL    HW210965   1.367   0.523   4.711 -0.5054  0.2981  0.4116
 2723SOL    HW310966   1.360   0.652   4.634  0.0818 -1.4853 -2.6952
 2723SOL    MW410967   1.407   0.591   4.675 -0.2880 -0.2316 -0.3734
 2724SOL     OW10968   1.788   0.617   4.802 -0.0624  0.0941 -0.3963
 2724SOL    HW210969   1.794   0.532   4.760 -0.1376  0.3346 -0.9017
 2724SOL    HW310970   1.866   0.664   4.774 -0.8959  0.8215 -1.5621
 2724SOL    MW410971   1.799   0.612   4.793 -0.1823  0.2218 -0.6175
 2725SOL     OW10972   1.350   1.043   4.699 -0.1008  0.0654 -0.2952
 2725SOL    HW210973   1.404   1.000   4.766  1.2424  1.0453 -0.7248
 2725SOL    HW310974   1.391   1.018   4.616 -0.1818  0.9871 -0.6153
 2725SOL    MW410975   1.362   1.034   4.697  0.0657  0.3164 -0.3943
 2726SOL     OW10976   2.050   0.484   4.602  0.0159 -0.6067  0.0973
 2726SOL    HW210977   2.120   0.422   4.621  0.0329 -0.0193  2.0351
 2726SOL    HW310978   1.971   0.443   4.637 -0.3164 -0.4486 -0.4591
 2726SOL    MW410979   2.049   0.470   4.609 -0.0255 -0.5083  0.2794
 2727SOL     OW10980   1.504   0.926   4.489  0.0064  0.1539 -0.3001
 2727SOL    HW210981   1.452   0.912   4.410  1.0868 -1.1561 -0.7893
 2727SOL    HW310982   1.532   1.018   4.483 -1.5677  0.6503 -0.4217
 2727SOL    MW410983   1.501   0.937   4.478 -0.0589  0.0466 -0.3805
 2728SOL     OW10984   1.323   1.842   4.375 -0.3112  0.0364  0.2720
 2728SOL    HW210985   1.403   1.893   4.365  0.1854 -0.7460  0.2309
 2728SOL    HW310986   1.346   1.755   4.342 -1.4286  0.0447 -0.5724
 2728SOL    MW410987   1.336   1.837   4.369 -0.3930 -0.0658  0.1554
 2729SOL     OW10988   1.380   2.850   4.456 -0.0967 -0.3540  0.2689
 2729SOL    HW210989   1.367   2.770   4.506 -0.7698 -0.5083 -0.1467
 2729SOL    HW310990   1.308   2.907   4.483  0.7145  0.3452  1.0105
 2729SOL    MW410991   1.369   2.847   4.466 -0.0784 -0.2823  0.3119
 2730SOL     OW10992   1.894   2.964   4.510 -0.1293 -0.2512 -0.0400
 2730SOL    HW210993   1.801   2.969   4.532 -0.2899  0.1556 -0.8092
 2730SOL    HW310994   1.928   3.050   4.531  0.0976 -0.4267  0.3206
 2730SOL    MW410995   1.886   2.976   4.516 -0.1205 -0.2208 -0.0939
 2731SOL     OW10996   1.076   2.490   4.523 -0.0631  0.2818  0.1164
 2731SOL    HW210997   1.020   2.468   4.598  0.5173  1.2941  0.8640
 2731SOL    HW310998   1.017   2.491   4.448 -0.5096 -1.5535  0.4121
 2731SOL    MW410999   1.061   2.487   4.523 -0.0454  0.1731  0.2542
 2732SOL     OW11000   1.329   3.977   4.542 -0.0808  0.2116  0.2995
 2732SOL    HW211001   1.332   3.881   4.550  1.0411  0.1332 -0.8965
 2732SOL    HW311002   1.412   4.006   4.581  0.0286  0.6134 -0.2283
 2732SOL    MW411003   1.341   3.968   4.548  0.0817  0.2546  0.0720
 2733SOL     OW11004   1.206   2.275   4.426 -0.0536 -0.1451 -0.2408
 2733SOL    HW211005   1.236   2.316   4.344 -1.8113 -0.2908 -0.9837
 2733SOL    HW311006   1.162   2.345   4.473 -1.4086 -0.7152 -0.6500
 2733SOL    MW411007   1.204   2.290   4.421 -0.4644 -0.2396 -0.3929
 2734SOL     OW11008   2.066   3.177   4.862 -0.4818 -0.0342 -0.4419
 2734SOL    HW211009   2.136   3.239   4.884 -0.6622  0.4547 -1.1934
 2734SOL    HW311010   2.106   3.091   4.869 -0.3195  0.1420  0.9616
 2734SOL    MW411011   2.080   3.174   4.866 -0.4840  0.0534 -0.3552
 2735SOL     OW11012   1.397   3.172   4.575 -0.0531 -0.1389 -0.0898
 2735SOL    HW211013   1.477   3.119   4.575 -1.0420 -1.6891 -0.7637
 2735SOL    HW311014   1.328   3.110   4.600 -1.2156  0.8615 -0.7791
 2735SOL    MW411015   1.399   3.157   4.578 -0.3369 -0.2112 -0.2694
 2736SOL     OW11016   1.348   3.707   4.481 -0.0726 -0.4541  0.0147
 2736SOL    HW211017   1.414   3.641   4.502 -0.0379 -0.0242  1.2488
 2736SOL    HW311018   1.273   3.657   4.450  0.1266 -1.0487  0.4833
 2736SOL    MW411019   1.347   3.692   4.479 -0.0417 -0.4756  0.2384
 2737SOL     OW11020   0.574   3.549   4.576  0.5418 -0.0370  0.0008
 2737SOL    HW211021   0.617   3.600   4.645  0.3359  1.2275 -0.7884
 2737SOL    HW311022   0.481   3.564   4.590  0.5387  1.1910 -1.2696
 2737SOL    MW411023   0.568   3.558   4.587  0.5143  0.2921 -0.2708
 2738SOL     OW11024   1.931   3.571   4.467  0.1460 -0.4307  0.6638
 2738SOL    HW211025   1.865   3.502   4.473  0.3232 -0.5474  1.3918
 2738SOL    HW311026   1.953   3.576   4.374 -1.8437  0.5254  0.2201
 2738SOL    MW411027   1.926   3.562   4.456 -0.0931 -0.3202  0.7010
 2739SOL     OW11028   1.612   3.335   4.648 -0.3065 -0.0176 -0.4127
 2739SOL    HW211029   1.526   3.300   4.623 -0.4677 -1.3797  1.9386
 2739SOL    HW311030   1.673   3.292   4.588 -0.8965 -1.8042  0.2198
 2739SOL    MW411031   1.609   3.325   4.636 -0.4055 -0.4332 -0.0186
 2740SOL     OW11032   2.140   3.541   4.654 -0.0544 -0.0695  0.0390
 2740SOL    HW211033   2.135   3.612   4.718  1.3786  1.3244 -1.3941
 2740SOL    HW311034   2.058   3.547   4.605 -0.0974  0.3693  0.1654
 2740SOL    MW411035   2.128   3.551   4.656  0.1292  0.1721 -0.1335
 2741SOL     OW11036   1.146   4.162   4.648  0.3381 -0.8249  0.2631
 2741SOL    HW211037   1.058   4.127   4.660  0.0862 -0.0817  0.6537
 2741SOL    HW311038   1.201   4.086   4.630 -0.3134 -1.3314  0.4190
 2741SOL    MW411039   1.142   4.147   4.647  0.2189 -0.7935  0.3352
 2742SOL     OW11040   1.855   4.375   4.883  0.1993 -0.3664  0.6991
 2742SOL    HW211041   1.916   4.304   4.861  0.2794 -0.1446  0.1940
 2742SOL    HW311042   1.772   4.330   4.902 -0.0909 -0.5271 -0.8355
 2742SOL    MW411043   1.852   4.360   4.883  0.1717 -0.3576  0.4296
 2743SOL     OW11044   2.263   0.268   4.597 -0.2186  0.1867  0.2518
 2743SOL    HW211045   2.219   0.225   4.524  0.6834  0.0245 -0.1992
 2743SOL    HW311046   2.326   0.327   4.557 -0.1838  0.5897  0.8919
 2743SOL    MW411047   2.265   0.270   4.582 -0.0949  0.2185  0.2766
 2744SOL     OW11048   1.461   0.073   4.491 -0.4672  0.3042 -0.4762
 2744SOL    HW211049   1.420   0.150   4.529  0.2379  0.3432  0.2353
 2744SOL    HW311050   1.429  -0.000   4.543  1.1728  0.4491  0.7921
 2744SOL    MW411051   1.452   0.073   4.503 -0.1578  0.3285 -0.2146
 2745SOL     OW11052   1.796   0.373   4.645  0.2260 -0.2886 -0.1660
 2745SOL    HW211053   1.772   0.284   4.622  0.6970  0.2493 -2.9388
 2745SOL    HW311054   1.742   0.428   4.589  0.1781  1.1753  1.2769
 2745SOL    MW411055   1.786   0.369   4.635  0.2819 -0.0245 -0.3414
 2746SOL     OW11056   2.410   4.648   4.626  0.0010 -0.5414 -0.1131
 2746SOL    HW211057   2.381   4.722   4.572  0.2007 -0.9325 -0.7597
 2746SOL    HW311058   2.408   4.682   4.715  1.2899  0.6360 -0.5093
 2746SOL    MW411059   2.405   4.662   4.630  0.1972 -0.4377 -0.2503
 2747SOL     OW11060   1.980   0.773   4.639 -0.3065  0.4726 -0.0455
 2747SOL    HW211061   2.014   0.685   4.627  0.4556  0.6357  0.8398
 2747SOL    HW311062   1.907   0.780   4.578 -0.7853 -0.9940  0.3578
 2747SOL    MW411063   1.975   0.762   4.629 -0.2692  0.3006  0.1245
 2748SOL     OW11064   1.628   0.529   4.472  0.0020  0.2488 -0.2380
 2748SOL    HW211065   1.666   0.616   4.462 -1.6122  0.8147 -1.6197
 2748SOL    HW311066   1.551   0.543   4.527  0.8023 -0.6126  1.1157
 2748SOL    MW411067   1.623   0.543   4.478 -0.1056  0.2099 -0.2413
 2749SOL     OW11068   2.035   1.401   4.552 -0.0540  0.0070  0.2584
 2749SOL    HW211069   2.102   1.468   4.565  1.7958 -1.4794 -1.3373
 2749SOL    HW311070   1.993   1.424   4.469 -0.6106  0.1640  0.5786
 2749SOL    MW411071   2.038   1.413   4.543  0.1166 -0.1684  0.0896
 2750SOL     OW11072   1.089   2.021   4.408  0.1418 -0.8721 -0.3892
 2750SOL    HW211073   1.161   1.958   4.400 -0.3409 -1.5520  0.5922
 2750SOL    HW311074   1.132   2.106   4.418  0.7990 -1.1907 -0.4903
 2750SOL    MW411075   1.104   2.024   4.408  0.1649 -1.0037 -0.2732
 2751SOL     OW11076   1.839   1.571   4.637  0.2224  0.6072  0.5007
 2751SOL    HW211077   1.915   1.518   4.615 -0.6100 -0.2955 -0.2153
 2751SOL    HW311078   1.779   1.511   4.682 -0.9931  0.7511 -0.8791
 2751SOL    MW411079   1.841   1.556   4.640 -0.0478  0.5070  0.2246
 2752SOL     OW11080   1.766   2.033   4.645  0.5858 -0.0110 -0.0914
 2752SOL    HW211081   1.691   2.040   4.704 -0.0624  1.0879 -1.0125
 2752SOL    HW311082   1.747   1.957   4.591  0.3396  0.0063 -0.0304
 2752SOL    MW411083   1.754   2.024   4.646  0.4678  0.1366 -0.2050
 2753SOL     OW11084   1.757   1.786   4.483  0.0599  0.0415 -0.0907
 2753SOL    HW211085   1.784   1.714   4.540 -0.9155  0.3583  0.7846
 2753SOL    HW311086   1.752   1.747   4.396 -0.3989 -0.9443  0.3641
 2753SOL    MW411087   1.760   1.772   4.479 -0.1293 -0.0468  0.0844
 2754SOL     OW11088   2.015   2.110   4.573  0.2418  0.2613  0.1173
 2754SOL    HW211089   1.927   2.081   4.594  0.7744 -1.5699 -0.1084
 2754SOL    HW311090   2.022   2.099   4.478  0.8018  0.1133  0.1734
 2754SOL    MW411091   2.005   2.105   4.563  0.3862  0.0002  0.0958
 2755SOL     OW11092   1.743   2.317   4.524  0.7043  0.3185 -0.3579
 2755SOL    HW211093   1.647   2.316   4.532  0.5272  0.4577 -2.2539
 2755SOL    HW311094   1.772   2.237   4.568 -0.2889  0.2085  0.1068
 2755SOL    MW411095   1.734   2.306   4.531  0.5498  0.3223 -0.5469
 2756SOL     OW11096   2.063   2.780   4.617 -0.5117 -0.4209 -0.1347
 2756SOL    HW211097   2.008   2.826   4.553  0.2309 -0.6725 -0.9547
 2756SOL    HW311098   2.090   2.700   4.572 -0.6543 -0.9957  0.7892
 2756SOL    MW411099   2.059   2.776   4.603 -0.4327 -0.5300 -0.1211
 2757SOL     OW11100   2.200   2.544   4.523  0.0204  0.7971 -0.3194
 2757SOL    HW211101   2.186   2.465   4.576 -0.2846  1.1384  0.1123
 2757SOL    HW311102   2.224   2.510   4.437 -1.3113  0.2021 -0.4849
 2757SOL    MW411103   2.201   2.529   4.518 -0.1955  0.7637 -0.2842
 2758SOL     OW11104   1.575   4.083   4.623 -0.1987  0.3605 -0.1407
 2758SOL    HW211105   1.563   4.176   4.602 -0.6950  0.2551 -0.3344
 2758SOL    HW311106   1.586   4.081   4.718  0.8760  0.7242 -0.2593
 2758SOL    MW411107   1.575   4.095   4.633 -0.1223  0.3943 -0.1822
 2759SOL     OW11108   2.297   3.061   4.489  0.5830 -0.2896  0.0035
 2759SOL    HW211109   2.295   3.120   4.414 -0.2099 -0.7620 -0.3501
 2759SOL    HW311110   2.316   3.118   4.564  0.0304  0.3796 -0.3654
 2759SOL    MW411111   2.299   3.076   4.489  0.4058 -0.2639 -0.0916
 2760SOL     OW11112   1.810   3.318   4.475  0.3003  0.0646  0.1500
 2760SOL    HW211113   1.787   3.251   4.411  1.9895 -0.3694 -0.0331
 2760SOL    HW311114   1.898   3.293   4.505 -0.5223  0.2049  2.7244
 2760SOL    MW411115   1.819   3.306   4.470  0.4146  0.0257  0.4654
 2761SOL     OW11116   2.320   3.700   4.496 -0.0302  0.1826  0.1182
 2761SOL    HW211117   2.271   3.644   4.556 -0.4456  1.2373  0.7941
 2761SOL    HW311118   2.290   3.789   4.517  0.0411  0.5841 -1.4662
 2761SOL    MW411119   2.310   3.705   4.507 -0.0756  0.3748 -0.0014
 2762SOL     OW11120   2.189   4.069   4.886 -0.0018  0.0310 -0.0095
 2762SOL    HW211121   2.175   3.975   4.880  0.8536 -0.1637  0.8787
 2762SOL    HW311122   2.254   4.088   4.818 -0.7472  0.1081 -0.7049
 2762SOL    MW411123   2.196   4.059   4.877  0.0126  0.0153  0.0162
 2763SOL     OW11124   2.049   3.835   4.760  0.0906  0.0943 -0.0616
 2763SOL    HW211125   2.094   3.885   4.692 -0.8778  0.0414 -0.7385
 2763SOL    HW311126   1.966   3.808   4.721 -0.5592  0.2148  1.1942
 2763SOL    MW411127   2.044   3.838   4.746 -0.1230  0.1032  0.0148
 2764SOL     OW11128   1.822   4.027   4.512 -0.6240 -0.3722 -0.5736
 2764SOL    HW211129   1.739   4.051   4.553  0.3249  2.3491 -0.1522
 2764SOL    HW311130   1.800   4.015   4.420 -1.4799  0.3517 -0.4760
 2764SOL    MW411131   1.808   4.029   4.506 -0.6118  0.0825 -0.5054
 2765SOL     OW11132   1.988   4.193   4.726  0.0333 -0.1025  0.0543
 2765SOL    HW211133   2.044   4.137   4.780  0.2508 -1.1767 -1.2622
 2765SOL    HW311134   1.950   4.133   4.661 -2.5032  0.6396  0.7935
 2765SOL    MW411135   1.990   4.177   4.724 -0.2726 -0.1464 -0.0224
 2766SOL     OW11136   1.823   4.538   4.659  0.5553  0.1613  0.0246
 2766SOL    HW211137   1.891   4.496   4.607 -1.2449 -2.2394 -0.5015
 2766SOL    HW311138   1.833   4.500   4.746 -0.6905 -0.9272 -0.2933
 2766SOL    MW411139   1.834   4.527   4.664  0.1533 -0.2985 -0.0868
 2767SOL     OW11140   2.039   4.383   4.520 -0.3944 -0.0669  0.0861
 2767SOL    HW211141   2.020   4.308   4.577 -0.5810  0.0857  0.2240
 2767SOL    HW311142   2.134   4.384   4.513 -0.4659 -1.2851 -1.2155
 2767SOL    MW411143   2.049   4.373   4.527 -0.4284 -0.2074 -0.0672
 2768SOL     OW11144   2.318   4.367   4.508 -0.0678  0.4585 -0.0451
 2768SOL    HW211145   2.351   4.379   4.419  0.8036  0.7365  0.3159
 2768SOL    HW311146   2.350   4.443   4.556  0.8524 -0.5286  0.9093
 2768SOL    MW411147   2.326   4.379   4.503  0.1686  0.3643  0.1287
 2769SOL     OW11148   1.075   1.606   4.754 -0.5998 -0.2358 -0.2875
 2769SOL    HW211149   1.065   1.525   4.705 -0.2663 -1.3912  1.4999
 2769SOL    HW311150   1.157   1.594   4.803 -1.5796  0.3334  1.5408
 2769SOL    MW411151   1.085   1.594   4.754 -0.6850 -0.3132  0.1893
 2770SOL     OW11152   2.667   0.068   4.590  0.2006  0.0213 -0.1038
 2770SOL    HW211153   2.583   0.023   4.603  0.5256 -0.7658 -0.7205
 2770SOL    HW311154   2.663   0.102   4.501  0.4938  0.0913 -0.0906
 2770SOL    MW411155   2.655   0.067   4.580  0.2823 -0.0734 -0.1831
 2771SOL     OW11156   2.379   0.671   4.615  0.2242  0.4919 -0.2012
 2771SOL    HW211157   2.301   0.726   4.605  1.0631  1.9877  1.3652
 2771SOL    HW311158   2.452   0.728   4.592  0.9780 -0.5018 -0.3065
 2771SOL    MW411159   2.378   0.686   4.610  0.4342  0.5581 -0.0086
 2772SOL     OW11160   2.911   0.822   4.576 -0.6707 -0.2791  0.2093
 2772SOL    HW211161   2.930   0.760   4.647 -0.3248 -1.0616 -0.5591
 2772SOL    HW311162   2.996   0.860   4.555 -0.4716 -1.3924 -1.0266
 2772SOL    MW411163   2.925   0.819   4.583 -0.5984 -0.5292 -0.0553
 2773SOL     OW11164   2.425   1.263   4.507  0.0354  0.1498 -0.1687
 2773SOL    HW211165   2.503   1.220   4.543  0.7730  1.0027 -0.7098
 2773SOL    HW311166   2.432   1.354   4.538 -0.7885  0.2151 -0.1666
 2773SOL    MW411167   2.437   1.270   4.516  0.0241  0.2708 -0.2403
 2774SOL     OW11168   2.456   1.532   4.638  0.3886 -0.1378  0.0479
 2774SOL    HW211169   2.504   1.492   4.710 -0.7942  0.2923  1.1002
 2774SOL    HW311170   2.518   1.593   4.598  2.0175 -2.5534 -1.2045
 2774SOL    MW411171   2.470   1.535   4.642  0.4478 -0.3998  0.0215
 2775SOL     OW11172   2.198   1.613   4.581 -0.0454  0.1434 -0.7439
 2775SOL    HW211173   2.287   1.595   4.613 -0.0678 -0.1718 -0.8637
 2775SOL    HW311174   2.181   1.703   4.611 -0.5562 -0.5866  1.2530
 2775SOL    MW411175   2.208   1.623   4.589 -0.1159  0.0054 -0.4964
 2776SOL     OW11176   2.173   1.887   4.640  0.3270  0.1974 -0.3820
 2776SOL    HW211177   2.164   1.865   4.733  0.7342  1.2214 -0.1013
 2776SOL    HW311178   2.107   1.954   4.624  2.0746  2.0054 -0.1745
 2776SOL    MW411179   2.163   1.893   4.650  0.6111  0.5711 -0.3171
 2777SOL     OW11180   2.185   2.315   4.704  0.1243  0.4096  0.2744
 2777SOL    HW211181   2.122   2.246   4.683  0.7943 -0.3040  0.5532
 2777SOL    HW311182   2.138   2.376   4.760 -0.7376  0.6349 -0.6899
 2777SOL    MW411183   2.171   2.314   4.708  0.0989  0.3455  0.1841
 2778SOL     OW11184   2.395   2.078   4.520 -0.0071 -0.5391 -0.0724
 2778SOL    HW211185   2.411   2.145   4.588  1.0713 -2.0561  1.2008
 2778SOL    HW311186   2.332   2.018   4.560 -0.8351 -0.3944 -1.1510
 2778SOL    MW411187   2.389   2.079   4.534  0.0257 -0.7205 -0.0472
 2779SOL     OW11188   2.801   2.308   4.538  0.0950  0.4536  0.3929
 2779SOL    HW211189   2.752   2.340   4.614 -0.4119 -0.1496  0.3217
 2779SOL    HW311190   2.888   2.345   4.548  0.1230  0.1029  1.4375
 2779SOL    MW411191   2.806   2.317   4.549  0.0319  0.3278  0.5217
 2780SOL     OW11192   2.467   2.271   4.712  0.1137  0.1082 -0.4357
 2780SOL    HW211193   2.378   2.301   4.730 -0.0895  0.6524 -2.3100
 2780SOL    HW311194   2.488   2.214   4.786 -1.2292  1.1509  0.7709
 2780SOL    MW411195   2.458   2.267   4.724 -0.0901  0.3176 -0.5236
 2781SOL     OW11196   2.057   3.187   4.574  0.1100 -0.0026  0.0251
 2781SOL    HW211197   2.082   3.178   4.666 -0.1236 -0.8419  0.0075
 2781SOL    HW311198   2.129   3.148   4.526  0.0242  0.0356 -0.1349
 2781SOL    MW411199   2.070   3.181   4.580  0.0677 -0.1085  0.0014
 2782SOL     OW11200   2.402   2.792   4.539 -0.0065  0.3733 -0.0856
 2782SOL    HW211201   2.337   2.722   4.537 -0.2174  0.4404  2.3153
 2782SOL    HW311202   2.350   2.872   4.536  0.0094  0.4211  0.7261
 2782SOL    MW411203   2.386   2.793   4.538 -0.0324  0.3886  0.3381
 2783SOL     OW11204   2.400   3.131   4.744 -0.1118 -0.2546  0.0633
 2783SOL    HW211205   2.337   3.066   4.776 -1.6649  0.5034 -1.3900
 2783SOL    HW311206   2.484   3.084   4.742 -0.8421 -1.6298  0.8776
 2783SOL    MW411207   2.403   3.116   4.748 -0.4129 -0.3359 -0.0210
 2784SOL     OW11208   1.361   4.296   4.876  0.2028  0.4759  0.3379
 2784SOL    HW211209   1.289   4.253   4.830 -0.0239  1.0929  0.1197
 2784SOL    HW311210   1.362   4.385   4.843  0.3520  0.7929  1.1683
 2784SOL    MW411211   1.352   4.302   4.866  0.1925  0.5994  0.4187
 2785SOL     OW11212   2.650   4.053   4.567 -0.7986 -0.0961 -0.0430
 2785SOL    HW211213   2.615   3.968   4.593 -0.3312 -0.2270  0.1699
 2785SOL    HW311214   2.667   4.045   4.474 -1.3371 -0.0275 -0.1514
 2785SOL    MW411215   2.647   4.041   4.559 -0.8080 -0.1044 -0.0291
 2786SOL     OW11216   2.407   3.397   4.650 -0.4482  0.0891  0.1136
 2786SOL    HW211217   2.396   3.312   4.693 -0.0413  0.3094  0.6522
 2786SOL    HW311218   2.322   3.439   4.656 -0.0045  0.7752  2.1050
 2786SOL    MW411219   2.395   3.391   4.656 -0.3362  0.2089  0.4473
 2787SOL     OW11220   3.338   3.964   4.809  0.1788 -0.2494 -0.4872
 2787SOL    HW211221   3.304   4.051   4.788  0.4484  0.0654  0.3497
 2787SOL    HW311222   3.326   3.956   4.904  1.8837 -0.3594 -0.2619
 2787SOL    MW411223   3.332   3.975   4.819  0.4394 -0.2222 -0.3467
 2788SOL     OW11224   2.978   3.903   4.467  0.0081  0.4738  0.2472
 2788SOL    HW211225   2.907   3.844   4.492  0.5495 -0.8334 -1.2134
 2788SOL    HW311226   3.054   3.873   4.516  0.1183  0.3737  0.0187
 2788SOL    MW411227   2.978   3.891   4.477  0.0942  0.2882  0.0238
 2789SOL     OW11228   2.209   3.959   4.539 -0.4340  0.2004  0.1090
 2789SOL    HW211229   2.282   4.013   4.567 -0.5360  0.8146 -0.8309
 2789SOL    HW311230   2.201   3.974   4.445  0.1060 -2.1153 -0.3478
 2789SOL    MW411231   2.218   3.968   4.531 -0.3762 -0.0238 -0.0753
 2790SOL     OW11232   2.379   4.134   4.652 -0.1472  0.3470  0.4290
 2790SOL    HW211233   2.345   4.205   4.598  0.1994 -0.2649 -0.6126
 2790SOL    HW311234   2.471   4.128   4.629 -0.3318 -0.9182 -0.0417
 2790SOL    MW411235   2.387   4.142   4.642 -0.1256  0.0992  0.2294
 2791SOL     OW11236   2.995   0.362   4.533 -0.2292 -0.1209 -0.1993
 2791SOL    HW211237   2.945   0.400   4.461 -0.5031  1.6468  0.8971
 2791SOL    HW311238   3.063   0.426   4.551  1.8807 -2.0798 -1.0434
 2791SOL    MW411239   2.997   0.375   4.526  0.0131 -0.1461 -0.1659
 2792SOL     OW11240   2.945   4.616   4.550 -0.3924 -0.3114  0.0733
 2792SOL    HW211241   2.985   4.692   4.509 -0.7876  0.3235  0.8589
 2792SOL    HW311242   2.860   4.647   4.581 -0.2326 -0.8713  1.0901
 2792SOL    MW411243   2.939   4.630   4.549 -0.4237 -0.3014  0.3109
 2793SOL     OW11244   3.126   0.143   4.434  0.0167 -0.0200 -0.1242
 2793SOL    HW211245   3.100   0.223   4.479 -0.4851  1.0794 -2.2630
 2793SOL    HW311246   3.204   0.112   4.481 -0.1649  1.3704  1.1154
 2793SOL    MW411247   3.133   0.149   4.446 -0.0737  0.3085 -0.2432
 2794SOL     OW11248   2.634   0.819   4.546  0.3168  0.2854 -0.4145
 2794SOL    HW211249   2.727   0.799   4.556  0.7400  1.6485 -1.5135
 2794SOL    HW311250   2.625   0.842   4.453 -1.2035 -0.2728 -0.4179
 2794SOL    MW411251   2.645   0.819   4.535  0.1717  0.3917 -0.5603
 2795SOL     OW11252   3.554   0.708   4.737  0.3982 -0.1228  0.2669
 2795SOL    HW211253   3.550   0.612   4.740 -0.3218 -0.2054 -2.1961
 2795SOL    HW311254   3.635   0.727   4.689 -0.8085  0.4282 -1.5871
 2795SOL    MW411255   3.564   0.698   4.731  0.1442 -0.0611 -0.3023
 2796SOL     OW11256   2.218   0.895   4.542  0.5251 -0.2754 -0.0764
 2796SOL    HW211257   2.199   0.988   4.548 -0.6643 -0.5970  1.3917
 2796SOL    HW311258   2.137   0.852   4.570  1.7794 -1.7172  1.4454
 2796SOL    MW411259   2.205   0.901   4.546  0.5338 -0.5081  0.3181
 2797SOL     OW11260   2.617   1.346   4.769  0.4879  0.0527  0.1801
 2797SOL    HW211261   2.711   1.342   4.750  0.0102  0.0038 -2.3794
 2797SOL    HW311262   2.589   1.254   4.768  0.6512 -0.0483  2.4156
 2797SOL    MW411263   2.626   1.333   4.766  0.4463  0.0330  0.1373
 2798SOL     OW11264   2.906   1.341   4.528  0.0328  0.2890  0.3588
 2798SOL    HW211265   2.912   1.436   4.540  0.7521  0.2974 -0.0376
 2798SOL    HW311266   2.885   1.329   4.436  0.0404  0.0595  0.3868
 2798SOL    MW411267   2.904   1.352   4.518  0.1287  0.2599  0.3104
 2799SOL     OW11268   2.931   1.621   4.559  0.1145 -0.0495 -0.2602
 2799SOL    HW211269   2.843   1.652   4.538 -0.0414  0.2848  0.8133
 2799SOL    HW311270   2.965   1.685   4.622  0.7775 -0.6626  0.0249
 2799SOL    MW411271   2.924   1.633   4.565  0.1817 -0.0862 -0.0811
 2800SOL     OW11272   2.670   1.675   4.503  0.3084  0.1095 -0.7650
 2800SOL    HW211273   2.661   1.769   4.513  1.7526  0.1701  0.0226
 2800SOL    HW311274   2.644   1.658   4.412 -0.1564  1.2284 -0.8434
 2800SOL    MW411275   2.665   1.685   4.492  0.4375  0.2654 -0.6714
 2801SOL     OW11276   2.601   1.926   4.632 -0.1540  0.3843 -0.1932
 2801SOL    HW211277   2.521   1.959   4.592 -0.1777 -2.2851 -2.5154
 2801SOL    HW311278   2.671   1.972   4.586 -0.2862  0.8071  0.0269
 2801SOL    MW411279   2.600   1.936   4.621 -0.1748  0.0879 -0.4706
 2802SOL     OW11280   2.827   2.036   4.514 -0.1588  0.4445 -0.2674
 2802SOL    HW211281   2.832   2.129   4.539 -1.1612  0.2244  0.8046
 2802SOL    HW311282   2.845   2.036   4.420  0.2024  1.6934 -0.2134
 2802SOL    MW411283   2.830   2.048   4.505 -0.2437  0.5803 -0.1187
 2803SOL     OW11284   3.021   1.872   4.658  0.1444 -0.0649  0.8307
 2803SOL    HW211285   3.037   1.910   4.744 -0.3872  1.0018  0.4682
 2803SOL    HW311286   2.962   1.934   4.615 -0.1433 -0.9313 -0.0492
 2803SOL    MW411287   3.015   1.885   4.663  0.0362 -0.0384  0.6671
 2804SOL     OW11288   2.692   2.422   4.775 -0.3696 -0.5146 -0.1884
 2804SOL    HW211289   2.604   2.384   4.772 -0.5286 -0.2881  1.4584
 2804SOL    HW311290   2.680   2.513   4.749 -0.7265 -0.3051  0.7094
 2804SOL    MW411291   2.679   2.429   4.771 -0.4377 -0.4570  0.1469
 2805SOL     OW11292   2.777   3.067   4.538 -0.5790  0.1551 -0.0183
 2805SOL    HW211293   2.841   3.127   4.577 -0.3728 -0.2030  0.1936
 2805SOL    HW311294   2.756   3.108   4.454  0.9529 -0.4040 -0.6957
 2805SOL    MW411295   2.783   3.080   4.532 -0.3495  0.0343 -0.0792
 2806SOL     OW11296   2.599   2.916   4.690 -0.8410  0.0378  0.4040
 2806SOL    HW211297   2.674   2.955   4.647 -1.6082  1.0547 -0.0408
 2806SOL    HW311298   2.555   2.864   4.622 -1.5750  0.9551  0.1666
 2806SOL    MW411299   2.603   2.914   4.676 -1.0390  0.2933  0.3142
 2807SOL     OW11300   2.701   3.421   4.534  0.0242 -0.7764  0.0795
 2807SOL    HW211301   2.614   3.406   4.571  0.3020  0.2007  1.1516
 2807SOL    HW311302   2.709   3.356   4.465 -0.9801 -1.8534  0.9536
 2807SOL    MW411303   2.690   3.410   4.530 -0.0720 -0.7896  0.3362
 2808SOL     OW11304   2.204   2.926   4.799  0.3713 -0.5043  0.1972
 2808SOL    HW211305   2.148   2.878   4.737  2.0421 -0.3906 -1.4288
 2808SOL    HW311306   2.243   2.857   4.853  1.2050 -0.8379 -0.8179
 2808SOL    MW411307   2.202   2.910   4.798  0.7017 -0.5331 -0.1512
 2809SOL     OW11308   2.794   3.674   4.464  0.4462  0.2931  0.4487
 2809SOL    HW211309   2.714   3.710   4.503 -0.8780 -0.5294 -1.4508
 2809SOL    HW311310   2.797   3.583   4.494  0.0783  0.0105 -0.3553
 2809SOL    MW411311   2.784   3.667   4.473  0.2232  0.1473  0.0920
 2810SOL     OW11312   3.218   3.822   4.569  0.4865  0.5427 -0.3854
 2810SOL    HW211313   3.266   3.740   4.563  1.3988  1.0854 -0.6560
 2810SOL    HW311314   3.231   3.852   4.659 -0.2985  0.1287 -0.1273
 2810SOL    MW411315   3.226   3.815   4.580  0.5031  0.5598 -0.3867
 2811SOL     OW11316   3.687   3.695   4.745 -0.1544 -0.3727 -0.1106
 2811SOL    HW211317   3.753   3.706   4.676 -0.3796  0.1678 -0.2462
 2811SOL    HW311318   3.648   3.610   4.727 -0.4319 -0.0981 -0.8407
 2811SOL    MW411319   3.691   3.686   4.733 -0.2208 -0.2651 -0.2251
 2812SOL     OW11320   2.568   3.783   4.620 -0.0791 -0.4464  0.0510
 2812SOL    HW211321   2.488   3.756   4.576 -0.6065  0.6194  0.3308
 2812SOL    HW311322   2.552   3.765   4.712  0.6421 -1.7491 -0.0656
 2812SOL    MW411323   2.555   3.777   4.626 -0.0534 -0.4780  0.0725
 2813SOL     OW11324   2.935   4.145   4.613  0.2967 -0.3027 -0.2511
 2813SOL    HW211325   2.840   4.138   4.626 -0.0798  0.4452 -2.3684
 2813SOL    HW311326   2.957   4.067   4.561  0.4480  0.6713 -1.6694
 2813SOL    MW411327   2.925   4.134   4.608  0.2673 -0.0758 -0.7181
 2814SOL     OW11328   3.049   4.370   4.476 -0.2447  0.0807 -0.6041
 2814SOL    HW211329   3.006   4.299   4.522  0.7208 -1.4495 -2.0286
 2814SOL    HW311330   3.006   4.449   4.510 -1.8763 -1.1915  0.4011
 2814SOL    MW411331   3.038   4.371   4.487 -0.3328 -0.2894 -0.6595
 2815SOL     OW11332   3.277   0.535   4.515 -0.1448 -0.2515  0.2862
 2815SOL    HW211333   3.291   0.522   4.421 -2.5168 -1.0356  0.0096
 2815SOL    HW311334   3.298   0.627   4.530 -2.2977  0.5789 -1.5279
 2815SOL    MW411335   3.282   0.545   4.505 -0.7417 -0.2453  0.0105
 2816SOL     OW11336   2.488   0.425   4.511  0.0981  0.1887 -0.6073
 2816SOL    HW211337   2.567   0.395   4.555  0.6643 -0.6808 -2.1583
 2816SOL    HW311338   2.461   0.503   4.560 -0.0475 -1.4636  2.0235
 2816SOL    MW411339   2.495   0.432   4.523  0.1535 -0.1440 -0.4649
 2817SOL     OW11340   2.653   1.099   4.565  0.8465  0.3943 -0.4416
 2817SOL    HW211341   2.742   1.133   4.551  0.0783  2.2615 -0.9113
 2817SOL    HW311342   2.666   1.006   4.587  2.9446  0.7870  0.0723
 2817SOL    MW411343   2.667   1.091   4.566  1.0219  0.6926 -0.4358
 2818SOL     OW11344   2.727   0.357   4.631  0.4788 -0.2454 -0.1267
 2818SOL    HW211345   2.718   0.267   4.662  0.6474 -0.4809 -0.7567
 2818SOL    HW311346   2.818   0.364   4.603  0.6642  0.3447  0.6189
 2818SOL    MW411347   2.738   0.346   4.632  0.5255 -0.1986 -0.1116
 2819SOL     OW11348   3.406   0.811   4.538 -0.0738 -0.0269 -0.2008
 2819SOL    HW211349   3.476   0.856   4.490 -0.7330  0.0347 -1.1204
 2819SOL    HW311350   3.446   0.785   4.620  0.2542  2.4860  0.4724
 2819SOL    MW411351   3.420   0.814   4.542 -0.1178  0.3127 -0.2327
 2820SOL     OW11352   3.538   1.280   4.426 -0.5309  0.1284 -0.0454
 2820SOL    HW211353   3.475   1.320   4.486  1.0700 -0.6122  2.1820
 2820SOL    HW311354   3.622   1.318   4.451  0.4603 -1.7257 -0.4720
 2820SOL    MW411355   3.541   1.291   4.437 -0.1888 -0.2141  0.1922
 2821SOL     OW11356   2.528   2.056   4.878  0.0257 -0.4266  0.0790
 2821SOL    HW211357   2.532   2.006   4.796  1.3772 -0.7064  0.2967
 2821SOL    HW311358   2.619   2.057   4.909 -0.2953  0.6403  0.9969
 2821SOL    MW411359   2.540   2.050   4.871  0.1619 -0.3228  0.2289
 2822SOL     OW11360   4.015   1.198   4.561 -0.0399  0.0117 -0.0070
 2822SOL    HW211361   4.054   1.216   4.647  1.5252 -0.5371 -0.5779
 2822SOL    HW311362   4.020   1.103   4.552 -1.8788 -0.1087  0.0462
 2822SOL    MW411363   4.021   1.188   4.571 -0.0753 -0.0767 -0.0753
 2823SOL     OW11364   3.367   1.426   4.594  0.2418 -0.3097 -0.0733
 2823SOL    HW211365   3.415   1.490   4.647  0.0710 -0.4142  0.2075
 2823SOL    HW311366   3.307   1.478   4.542 -0.8132 -0.3395  1.1023
 2823SOL    MW411367   3.366   1.441   4.594  0.0801 -0.3275  0.1187
 2824SOL     OW11368   3.183   1.600   4.450  0.1265  0.3661  0.0132
 2824SOL    HW211369   3.217   1.687   4.469 -1.8187  1.1986 -0.1858
 2824SOL    HW311370   3.101   1.594   4.500 -0.0493 -1.1305 -0.4095
 2824SOL    MW411371   3.176   1.611   4.459 -0.1533  0.2784 -0.0691
 2825SOL     OW11372   3.268   1.875   4.526  0.3899  0.2726  0.3010
 2825SOL    HW211373   3.193   1.896   4.581 -0.4130 -0.9397 -0.3131
 2825SOL    HW311374   3.261   1.935   4.451 -0.9015 -0.9375 -0.5707
 2825SOL    MW411375   3.257   1.886   4.523  0.1132 -0.0470  0.1049
 2826SOL     OW11376   3.713   2.010   4.412 -0.5013  0.0041 -0.0551
 2826SOL    HW211377   3.654   1.988   4.340  1.1695  0.1997 -1.5223
 2826SOL    HW311378   3.702   2.105   4.424  0.0795  0.1827 -0.8684
 2826SOL    MW411379   3.704   2.020   4.404 -0.2043  0.0534 -0.3557
 2827SOL     OW11380   2.741   2.673   4.696  0.1588  0.1556 -0.4894
 2827SOL    HW211381   2.701   2.758   4.716  1.0249  0.7933 -1.4006
 2827SOL    HW311382   2.819   2.695   4.645 -0.1632 -1.2470 -1.6015
 2827SOL    MW411383   2.746   2.687   4.692  0.2308  0.0548 -0.7558
 2828SOL     OW11384   3.279   2.536   4.653 -0.1616  0.2488  0.2347
 2828SOL    HW211385   3.266   2.468   4.720 -0.6924  1.4686  1.3870
 2828SOL    HW311386   3.374   2.547   4.649 -0.0213 -1.1512 -0.5697
 2828SOL    MW411387   3.290   2.528   4.662 -0.2129  0.2251  0.2809
 2829SOL     OW11388   3.046   2.440   4.500  0.4928 -0.4942 -0.2784
 2829SOL    HW211389   3.084   2.414   4.416 -0.5782 -2.4929 -0.1974
 2829SOL    HW311390   3.120   2.447   4.560  1.0596 -1.1428 -0.8989
 2829SOL    MW411391   3.061   2.437   4.497  0.4263 -0.8435 -0.3490
 2830SOL     OW11392   3.554   2.619   4.651 -0.2781  0.5556 -0.4515
 2830SOL    HW211393   3.557   2.714   4.641 -0.1184  0.5188 -0.7455
 2830SOL    HW311394   3.621   2.586   4.592  0.8080  0.3500  0.8553
 2830SOL    MW411395   3.563   2.627   4.642 -0.1137  0.5238 -0.3181
 2831SOL     OW11396   2.951   3.276   4.661  0.1759 -0.3285  0.0232
 2831SOL    HW211397   2.900   3.347   4.621  0.9022  0.6705  0.8318
 2831SOL    HW311398   3.040   3.289   4.629  0.4495 -0.4603  0.7179
 2831SOL    MW411399   2.956   3.287   4.651  0.3078 -0.2141  0.2217
 2832SOL     OW11400   3.203   2.779   4.503  0.1232  0.0372 -0.0585
 2832SOL    HW211401   3.240   2.771   4.415 -1.3555 -0.7280 -0.6368
 2832SOL    HW311402   3.236   2.702   4.549 -0.2595 -0.3316 -0.3924
 2832SOL    MW411403   3.212   2.767   4.498 -0.1223 -0.1123 -0.1788
 2833SOL     OW11404   4.336   3.113   4.394  0.6011  0.1128 -0.6504
 2833SOL    HW211405   4.372   3.037   4.438 -0.9023 -0.0402  0.3463
 2833SOL    HW311406   4.283   3.077   4.323 -0.9304  0.1766  0.4436
 2833SOL    MW411407   4.334   3.099   4.390  0.2007  0.1011 -0.3743
 2834SOL     OW11408   3.477   3.184   4.555 -0.2987  0.4326 -0.3955
 2834SOL    HW211409   3.482   3.092   4.579 -1.9615  0.4020 -0.1552
 2834SOL    HW311410   3.519   3.188   4.469  0.0766 -0.4810 -0.2621
 2834SOL    MW411411   3.483   3.173   4.547 -0.4687  0.3083 -0.3457
 2835SOL     OW11412   3.480   4.013   4.518  0.0191 -0.2944  0.6043
 2835SOL    HW211413   3.542   3.999   4.590  0.9256  2.4128  0.4336
 2835SOL    HW311414   3.395   3.986   4.553  0.7681 -0.8931  2.0006
 2835SOL    MW411415   3.477   4.008   4.532  0.2375 -0.0157  0.7658
 2836SOL     OW11416   3.232   4.216   4.726  0.6059  0.2611  0.4260
 2836SOL    HW211417   3.261   4.302   4.697  1.8939 -0.5947 -0.8787
 2836SOL    HW311418   3.142   4.209   4.693  1.2832  0.1932 -1.4626
 2836SOL    MW411419   3.224   4.226   4.718  0.8655  0.1388  0.0043
 2837SOL     OW11420   3.295   4.438   4.572 -0.4694 -0.2798 -0.0023
 2837SOL    HW211421   3.362   4.387   4.527  0.8101  1.4336 -0.1088
 2837SOL    HW311422   3.213   4.412   4.530  0.1876 -1.9801 -0.2695
 2837SOL    MW411423   3.293   4.428   4.560 -0.2139 -0.2785 -0.0510
 2838SOL     OW11424   3.481   4.275   4.453  0.2308 -0.4721  0.0028
 2838SOL    HW211425   3.479   4.183   4.479  0.7213 -0.0147  1.7437
 2838SOL    HW311426   3.571   4.303   4.469 -0.1359  0.5453  0.3439
 2838SOL    MW411427   3.493   4.267   4.459  0.2472 -0.2775  0.2780
 2839SOL     OW11428   3.610   3.967   4.767  0.1301 -0.7001 -0.2017
 2839SOL    HW211429   3.652   3.887   4.796  0.7507 -0.3169 -0.0209
 2839SOL    HW311430   3.521   3.962   4.802  0.5577 -0.7146  0.9076
 2839SOL    MW411431   3.603   3.956   4.776  0.2680 -0.6516 -0.0315
 2840SOL     OW11432   3.606   0.138   4.570  0.5417 -0.0346 -0.0993
 2840SOL    HW211433   3.516   0.117   4.595  0.3117  1.8015  0.7383
 2840SOL    HW311434   3.608   0.130   4.475 -0.6587  0.4919 -0.1670
 2840SOL    MW411435   3.595   0.134   4.561  0.3526  0.2771  0.0029
 2841SOL     OW11436   3.169   0.939   4.513 -0.6165  0.4829 -0.1692
 2841SOL    HW211437   3.189   1.033   4.520  0.7806  0.0772  1.6549
 2841SOL    HW311438   3.253   0.896   4.528 -1.5622 -1.1061  0.6522
 2841SOL    MW411439   3.183   0.946   4.516 -0.5567  0.2197  0.1798
 2842SOL     OW11440   3.185   1.222   4.503 -0.5196  0.2267 -0.2778
 2842SOL    HW211441   3.238   1.289   4.547  0.4767 -0.2152 -0.7907
 2842SOL    HW311442   3.095   1.245   4.525 -0.0444 -0.4656  2.7288
 2842SOL    MW411443   3.180   1.234   4.512 -0.3254  0.0770  0.0510
 2843SOL     OW11444   4.204   1.569   4.622 -0.6254 -0.1336 -0.2908
 2843SOL    HW211445   4.274   1.536   4.565 -1.2982  0.9910 -1.7715
 2843SOL    HW311446   4.127   1.573   4.566 -1.9565 -1.5063  1.3764
 2843SOL    MW411447   4.203   1.565   4.607 -0.8903 -0.1663 -0.2656
 2844SOL     OW11448   3.806   1.339   4.441 -0.3854 -0.2292  0.3677
 2844SOL    HW211449   3.819   1.305   4.353 -0.1226  0.6719  0.0582
 2844SOL    HW311450   3.868   1.290   4.496 -0.3433 -0.5763  0.0097
 2844SOL    MW411451   3.816   1.328   4.437 -0.3452 -0.1562  0.2799
 2845SOL     OW11452   4.046   0.917   4.554 -0.0099  0.2739  0.6456
 2845SOL    HW211453   4.140   0.904   4.567 -0.4013 -1.2185  2.2998
 2845SOL    HW311454   4.029   0.885   4.466  0.7193 -1.3896  1.0766
 2845SOL    MW411455   4.057   0.911   4.544  0.0348 -0.1425  0.9212
 2846SOL     OW11456   4.331   0.403   4.480 -0.0300 -0.7402  0.0489
 2846SOL    HW211457   4.248   0.416   4.527  0.1091  1.8520 -0.3963
 2846SOL    HW311458   4.308   0.413   4.388  1.0011  1.2756 -0.0026
 2846SOL    MW411459   4.317   0.406   4.474  0.1240 -0.1322 -0.0162
 2847SOL     OW11460   3.768   1.771   4.553  0.1335  0.0250 -0.0654
 2847SOL    HW211461   3.817   1.801   4.629 -0.5723 -0.9091  0.7623
 2847SOL    HW311462   3.752   1.850   4.502 -2.1160  1.1806  2.3290
 2847SOL    MW411463   3.772   1.785   4.556 -0.2565  0.0542  0.3600
 2848SOL     OW11464   3.882   1.946   4.749  0.3155 -0.0295 -0.3239
 2848SOL    HW211465   3.919   2.009   4.687 -2.8742  0.4050 -1.8368
 2848SOL    HW311466   3.827   1.999   4.807  1.9599 -0.6733  1.9167
 2848SOL    MW411467   3.880   1.962   4.749  0.1116 -0.0573 -0.2279
 2849SOL     OW11468   3.490   1.683   4.577  0.0464 -0.0836  0.4303
 2849SOL    HW211469   3.428   1.756   4.569 -0.4808 -0.4400  1.1526
 2849SOL    HW311470   3.576   1.725   4.574 -0.2511  0.5702  0.7880
 2849SOL    MW411471   3.493   1.698   4.576 -0.0625 -0.0443  0.5732
 2850SOL     OW11472   4.008   2.155   4.611 -0.0048  0.2615  0.0647
 2850SOL    HW211473   3.955   2.235   4.614 -1.7191 -0.8433 -0.0594
 2850SOL    HW311474   4.008   2.130   4.518  0.1780 -0.1086  0.1620
 2850SOL    MW411475   4.001   2.162   4.599 -0.2069  0.0670  0.0610
 2851SOL     OW11476   0.046   1.746   4.481 -0.3160  0.1525 -0.1032
 2851SOL    HW211477   0.015   1.700   4.402 -0.8740  0.4099 -0.0408
 2851SOL    HW311478  -0.035   1.771   4.526 -0.0012  0.4801  0.2760
 2851SOL    MW411479   0.031   1.743   4.477 -0.3481  0.2296 -0.0448
 2852SOL     OW11480   4.135   2.432   4.478  0.4267  0.1774 -0.1817
 2852SOL    HW211481   4.139   2.521   4.443 -0.6104  0.5095  0.5196
 2852SOL    HW311482   4.045   2.404   4.461  0.5000 -0.4092  0.4010
 2852SOL    MW411483   4.123   2.440   4.471  0.2995  0.1440 -0.0124
 2853SOL     OW11484   3.847   2.729   4.549 -0.0299  0.4332 -0.1607
 2853SOL    HW211485   3.873   2.693   4.634  0.0433  0.0674 -0.3380
 2853SOL    HW311486   3.799   2.659   4.507  0.6411  0.3321 -0.7609
 2853SOL    MW411487   3.844   2.715   4.555  0.0687  0.3715 -0.2632
 2854SOL     OW11488   3.490   2.894   4.580 -0.2971 -0.0704  0.0157
 2854SOL    HW211489   3.399   2.866   4.568  0.1201 -2.2070  1.4781
 2854SOL    HW311490   3.537   2.856   4.506 -0.4594  0.3560 -0.3057
 2854SOL    MW411491   3.484   2.885   4.569 -0.2637 -0.2964  0.1659
 2855SOL     OW11492   4.058   2.913   4.526  0.0618 -0.4578  0.3520
 2855SOL    HW211493   3.991   2.863   4.573  1.2345 -2.0809  0.3077
 2855SOL    HW311494   4.100   2.850   4.469  1.1495  0.7179 -0.1704
 2855SOL    MW411495   4.055   2.898   4.525  0.3600 -0.5171  0.2770
 2856SOL     OW11496   3.215   3.326   4.528 -0.5454 -0.7448  0.0925
 2856SOL    HW211497   3.179   3.298   4.444 -0.8748 -2.3680  0.7600
 2856SOL    HW311498   3.291   3.269   4.542 -0.5555 -0.5636  0.9393
 2856SOL    MW411499   3.220   3.315   4.519 -0.5898 -0.9353  0.2928
 2857SOL     OW11500   3.873   3.405   4.692 -0.5079 -0.1134  0.0135
 2857SOL    HW211501   3.905   3.410   4.782  0.0343 -0.6262 -0.1508
 2857SOL    HW311502   3.914   3.326   4.656  0.3052  0.7923 -1.0817
 2857SOL    MW411503   3.883   3.395   4.699 -0.3293 -0.0615 -0.1526
 2858SOL     OW11504   3.340   3.577   4.541 -0.5817 -0.0361 -0.2142
 2858SOL    HW211505   3.288   3.497   4.540  0.1436 -0.5191 -0.1820
 2858SOL    HW311506   3.428   3.548   4.568  0.0703  0.5147 -1.6533
 2858SOL    MW411507   3.345   3.563   4.544 -0.4001 -0.0269 -0.4001
 2859SOL     OW11508   3.595   3.442   4.647 -0.2163 -0.0453  0.2273
 2859SOL    HW211509   3.540   3.366   4.626  0.2024 -0.0199 -1.0063
 2859SOL    HW311510   3.684   3.407   4.651 -0.3713 -0.2390  3.0173
 2859SOL    MW411511   3.599   3.427   4.645 -0.1817 -0.0677  0.4330
 2860SOL     OW11512   0.010   3.188   4.761  0.5101  0.3427 -0.3047
 2860SOL    HW211513  -0.075   3.223   4.736  0.5318 -0.8237 -2.0745
 2860SOL    HW311514   0.021   3.110   4.708  2.0618 -0.3354  0.9629
 2860SOL    MW411515   0.000   3.182   4.751  0.7176  0.0994 -0.3705
 2861SOL     OW11516   4.005   3.909   4.485 -0.0918 -0.0349  0.6501
 2861SOL    HW211517   3.942   3.965   4.530  0.9657  1.1896  0.6542
 2861SOL    HW311518   3.981   3.820   4.510 -0.4320  0.5397  2.4548
 2861SOL    MW411519   3.994   3.905   4.494  0.0031  0.2022  0.8883
 2862SOL     OW11520   3.726   4.342   4.492  0.3285  0.2561 -0.0627
 2862SOL    HW211521   3.752   4.346   4.400  1.3243  0.9329  0.2426
 2862SOL    HW311522   3.748   4.428   4.527  0.2939 -0.1220  0.8997
 2862SOL    MW411523   3.732   4.354   4.484  0.4554  0.2956  0.1044
 2863SOL     OW11524   3.342   0.041   4.631  0.2900 -0.2309 -0.4207
 2863SOL    HW211525   3.346  -0.050   4.601  0.4742 -0.2001 -0.4921
 2863SOL    HW311526   3.258   0.048   4.676 -0.7277  0.1683 -2.3548
 2863SOL    MW411527   3.332   0.030   4.633  0.1802 -0.1742 -0.6852
 2864SOL     OW11528   3.619   0.965   4.414  0.3795 -0.2743  0.2077
 2864SOL    HW211529   3.596   1.058   4.420 -1.1087 -0.5631 -0.9030
 2864SOL    HW311530   3.615   0.945   4.321  1.5615 -1.2538  0.3544
 2864SOL    MW411531   3.616   0.975   4.403  0.3390 -0.4416  0.0806
 2865SOL     OW11532   3.789   0.764   4.557  0.0097 -0.2349  0.1972
 2865SOL    HW211533   3.868   0.815   4.576 -0.3209 -0.0111  1.0072
 2865SOL    HW311534   3.730   0.825   4.514 -0.5853  0.2256  1.6328
 2865SOL    MW411535   3.792   0.778   4.554 -0.1125 -0.1446  0.4940
 2866SOL     OW11536   0.093   0.516   4.517  0.3118  0.0424  0.1394
 2866SOL    HW211537   0.009   0.471   4.517  0.4704 -0.2604 -0.4159
 2866SOL    HW311538   0.127   0.505   4.428  1.1493 -0.2489  0.4794
 2866SOL    MW411539   0.087   0.509   4.505  0.4431 -0.0360  0.1106
 2867SOL     OW11540   0.152   0.818   4.516  0.1145  0.3142 -0.2827
 2867SOL    HW211541   0.097   0.825   4.438 -0.3994  0.1070  0.0583
 2867SOL    HW311542   0.126   0.734   4.555  0.2044  0.5314  0.2380
 2867SOL    MW411543   0.141   0.808   4.511  0.0585  0.3155 -0.1688
 2868SOL     OW11544   4.064   0.365   4.557 -0.0607  0.0237  0.2924
 2868SOL    HW211545   4.031   0.275   4.553  0.9616 -0.4587  1.9361
 2868SOL    HW311546   3.986   0.419   4.544 -0.6035 -1.0857 -1.2680
 2868SOL    MW411547   4.049   0.360   4.555  0.0029 -0.1863  0.3037
 2869SOL     OW11548   3.958   1.582   4.488  0.0835  0.3949 -0.0759
 2869SOL    HW211549   3.906   1.502   4.479  2.1247 -1.0686  0.6926
 2869SOL    HW311550   3.896   1.648   4.520 -1.6867 -0.8052 -0.9581
 2869SOL    MW411551   3.943   1.580   4.491  0.1190  0.0434 -0.0911
 2870SOL     OW11552   0.166   1.213   4.581  0.0099 -0.1258 -0.1272
 2870SOL    HW211553   0.150   1.306   4.600  0.4698 -0.2021  0.6488
 2870SOL    HW311554   0.085   1.169   4.606 -0.3703  0.1170 -0.9081
 2870SOL    MW411555   0.153   1.220   4.587  0.0204 -0.1040 -0.1278
 2871SOL     OW11556   0.428   1.536   4.526  0.0492  0.0895 -0.4103
 2871SOL    HW211557   0.486   1.586   4.584  0.5292 -0.5611 -0.3301
 2871SOL    HW311558   0.446   1.571   4.438  0.0644  0.3671 -0.2955
 2871SOL    MW411559   0.438   1.547   4.522  0.1146  0.0402 -0.3843
 2872SOL     OW11560   4.294   1.828   4.599 -0.4633  0.1631 -0.4644
 2872SOL    HW211561   4.265   1.737   4.613 -1.8046  0.6656  0.1593
 2872SOL    HW311562   4.251   1.877   4.669 -1.0524  1.5493 -1.7845
 2872SOL    MW411563   4.284   1.822   4.610 -0.7181  0.4123 -0.5560
 2873SOL     OW11564   2.935   2.703   4.524 -0.0183 -0.2751  0.2337
 2873SOL    HW211565   3.017   2.752   4.522  0.4412 -1.0822 -1.0177
 2873SOL    HW311566   2.960   2.612   4.510 -1.2069 -0.4147 -1.1893
 2873SOL    MW411567   2.949   2.697   4.522 -0.1147 -0.4001 -0.1187
 2874SOL     OW11568   4.243   1.942   4.331  0.1308 -0.3702 -0.0346
 2874SOL    HW211569   4.194   2.020   4.355  0.1140 -0.2855 -0.3517
 2874SOL    HW311570   4.252   1.893   4.413 -1.2701 -0.8354 -0.1568
 2874SOL    MW411571   4.238   1.946   4.345 -0.0567 -0.4205 -0.0920
 2875SOL     OW11572   4.328   2.256   4.386 -0.0141 -0.2327  0.2400
 2875SOL    HW211573   4.373   2.233   4.467 -0.3747  1.3924  0.9161
 2875SOL    HW311574   4.253   2.309   4.413 -0.5658 -0.2831 -1.1021
 2875SOL    MW411575   4.324   2.260   4.400 -0.1345 -0.0248  0.1516
 2876SOL     OW11576   3.977   2.101   4.344  0.2329  0.4156 -0.0021
 2876SOL    HW211577   3.942   2.190   4.344  0.2197  0.4108  0.1219
 2876SOL    HW311578   3.902   2.045   4.362  0.0131  0.2835 -1.3025
 2876SOL    MW411579   3.963   2.105   4.347  0.2024  0.3974 -0.1578
 2877SOL     OW11580   3.777   2.247   4.132  0.7158 -0.3394  0.2253
 2877SOL    HW211581   3.823   2.301   4.068  0.2281  0.7829  0.8176
 2877SOL    HW311582   3.794   2.290   4.216 -0.1799 -0.7650  0.6305
 2877SOL    MW411583   3.786   2.260   4.135  0.5333 -0.2475  0.3567
 2878SOL     OW11584   4.184   2.532   4.727  0.3680 -0.1450  0.5438
 2878SOL    HW211585   4.100   2.551   4.768  0.4991  1.7614 -0.0022
 2878SOL    HW311586   4.162   2.492   4.643 -0.0274  1.1121  0.0375
 2878SOL    MW411587   4.170   2.530   4.721  0.3333  0.2723  0.4048
 2879SOL     OW11588   0.031   2.965   4.562  0.5994 -0.0752 -0.2719
 2879SOL    HW211589  -0.027   2.900   4.601  2.2968 -1.2165  0.3858
 2879SOL    HW311590   0.118   2.926   4.566  1.3035  1.1970 -2.1307
 2879SOL    MW411591   0.034   2.951   4.568  0.9160 -0.0579 -0.4296
 2880SOL     OW11592   4.005   3.191   4.561  0.1400  0.2554 -0.2740
 2880SOL    HW211593   4.023   3.205   4.468  0.1022 -0.7998 -0.4459
 2880SOL    HW311594   4.008   3.096   4.571 -0.8987  0.3136  0.5932
 2880SOL    MW411595   4.008   3.181   4.550 -0.0019  0.1240 -0.1822
 2881SOL     OW11596   0.067   3.747   4.614  0.1630 -0.2495 -0.1489
 2881SOL    HW211597   0.142   3.687   4.615 -0.8436 -1.5325  0.1592
 2881SOL    HW311598  -0.004   3.695   4.578 -0.4843  1.0978 -0.8615
 2881SOL    MW411599   0.068   3.732   4.610 -0.0552 -0.2413 -0.2022
 2882SOL     OW11600   4.092   4.190   4.724 -0.0574  0.0689  0.1062
 2882SOL    HW211601   4.009   4.158   4.688 -0.9737  0.4366  1.8566
 2882SOL    HW311602   4.147   4.112   4.730 -1.0350 -0.5650  0.9820
 2882SOL    MW411603   4.088   4.176   4.720 -0.3076  0.0339  0.4525
 2883SOL     OW11604   3.783   4.593   4.621  0.4179  0.5723 -0.4530
 2883SOL    HW211605   3.784   4.564   4.712 -0.8365  0.7107 -0.3873
 2883SOL    HW311606   3.725   4.669   4.621  0.7447  0.8248 -1.2913
 2883SOL    MW411607   3.776   4.599   4.633  0.2954  0.6232 -0.5546
 2884SOL     OW11608   4.306   3.704   4.783  0.3924  0.0175  0.0154
 2884SOL    HW211609   4.287   3.651   4.706 -0.4440  1.4572 -0.8017
 2884SOL    HW311610   4.400   3.693   4.798  0.7258  0.3686 -1.7183
 2884SOL    MW411611   4.316   3.696   4.775  0.3257  0.2537 -0.3214
 2885SOL     OW11612   3.543   0.431   4.590 -0.4180 -0.4270  0.0654
 2885SOL    HW211613   3.452   0.455   4.572 -0.5519 -0.1245  1.0786
 2885SOL    HW311614   3.545   0.336   4.581 -0.9603 -0.4891  0.5144
 2885SOL    MW411615   3.531   0.421   4.587 -0.5071 -0.3953  0.2580
 2886SOL     OW11616   4.204   4.374   4.284 -0.6980  0.1578  0.2147
 2886SOL    HW211617   4.290   4.336   4.266 -2.1085 -3.4014  0.4532
 2886SOL    HW311618   4.197   4.370   4.380 -0.4861  2.0014  0.3187
 2886SOL    MW411619   4.215   4.368   4.294 -0.8564 -0.0687  0.2599
 2887NA      NA11620   0.016   3.568   0.362  0.0053  0.1707 -0.3160
 2888NA      NA11621   3.260   0.786   0.456 -0.2367 -0.2977 -0.1399
 2889NA      NA11622   2.007   2.815   0.523 -0.0043 -0.1842 -0.1425
   4.49070   4.66690  10.00000
