Gromacs Runs On Most of All Computer Systems
   36
    3RG35     P    1   0.686   0.026   0.342
    3RG35   OP1    2   0.646   0.145   0.420
    3RG35   OP2    3   0.824  -0.028   0.355
    3RG35   O3P    4   0.660   0.058   0.186
    3RG35   O5'    5   0.583  -0.093   0.375
    3RG35   C5'    6   0.446  -0.065   0.405
    3RG35  H5'1    7   0.402  -0.007   0.321
    3RG35  H5'2    8   0.440  -0.006   0.499
    3RG35   C4'    9   0.371  -0.195   0.421
    3RG35   H4'   10   0.265  -0.173   0.448
    3RG35   O4'   11   0.375  -0.270   0.297
    3RG35   C3'   12   0.442  -0.282   0.524
    3RG35   H3'   13   0.551  -0.262   0.520
    3RG35   O3'   14   0.392  -0.253   0.654
    3RG35   C2'   15   0.400  -0.423   0.483
    3RG35   C1'   16   0.384  -0.408   0.332
    3RG35   H1'   17   0.290  -0.456   0.299
    3RG35   H2'   18   0.482  -0.495   0.505
    3RG35   O2'   19   0.274  -0.452   0.540
    3RG35  HO'2   20   0.264  -0.401   0.621
    3RG35    N9   21   0.502  -0.465   0.265
    3RG35    C8   22   0.632  -0.418   0.265
    3RG35    H8   23   0.662  -0.329   0.318
    3RG35    N7   24   0.714  -0.492   0.195
    3RG35    C5   25   0.633  -0.594   0.146
    3RG35    C4   26   0.504  -0.578   0.188
    3RG35    C6   27   0.661  -0.705   0.064
    3RG35    N3   28   0.398  -0.658   0.160
    3RG35    C2   29   0.417  -0.764   0.083
    3RG35    N1   30   0.550  -0.785   0.037
    3RG35    H1   31   0.566  -0.866  -0.021
    3RG35    N2   32   0.314  -0.845   0.054
    3RG35   H21   33   0.222  -0.824   0.090
    3RG35   H22   34   0.328  -0.926  -0.004
    3RG35    O6   35   0.773  -0.729   0.020
    3RG35   H3T   36   0.423  -0.175   0.700
   0.00000   0.00000   0.00000
