Gromacs Runs On Most of All Computer Systems
   99
    1U      O5'    1   2.214   2.392   5.351
    1U      H5T    2   2.305   2.388   5.392
    1U      C5'    3   2.183   2.526   5.317
    1U     H5'1    4   2.252   2.558   5.253
    1U     H5'2    5   2.187   2.581   5.401
    1U      C4'    6   2.045   2.532   5.255
    1U      H4'    7   2.020   2.627   5.238
    1U      O4'    8   2.046   2.458   5.130
    1U      C1'    9   1.910   2.406   5.117
    1U      H1'   10   1.866   2.458   5.044
    1U       N1   11   1.913   2.264   5.078
    1U       C6   12   1.996   2.191   5.157
    1U       H6   13   2.046   2.236   5.231
    1U       C5   14   2.012   2.058   5.136
    1U       H5   15   2.073   2.003   5.193
    1U       C4   16   1.937   2.000   5.029
    1U       O4   17   1.948   1.869   5.004
    1U       N3   18   1.855   2.074   4.953
    1U       H3   19   1.804   2.031   4.879
    1U       C2   20   1.841   2.207   4.975
    1U       O2   21   1.766   2.275   4.905
    1U      C3'   22   1.946   2.458   5.345
    1U      H3'   23   1.983   2.382   5.398
    1U      C2'   24   1.834   2.422   5.248
    1U     H2'1   25   1.776   2.345   5.274
    1U      O2'   26   1.744   2.531   5.238
    1U     HO'2   27   1.694   2.541   5.324
    1U      O3'   28   1.897   2.547   5.444
    2RG3      P   29   1.923   2.515   5.600
    2RG3    O1P   30   1.883   2.634   5.678
    2RG3    O2P   31   2.061   2.461   5.613
    2RG3    O5'   32   1.820   2.396   5.633
    2RG3    C5'   33   1.683   2.424   5.663
    2RG3   H5'1   34   1.645   2.478   5.588
    2RG3   H5'2   35   1.679   2.477   5.748
    2RG3    C4'   36   1.608   2.294   5.679
    2RG3    H4'   37   1.513   2.314   5.702
    2RG3    O4'   38   1.612   2.219   5.555
    2RG3    C1'   39   1.621   2.081   5.590
    2RG3    H1'   40   1.537   2.037   5.557
    2RG3     N9   41   1.739   2.024   5.523
    2RG3     C8   42   1.869   2.071   5.523
    2RG3     H8   43   1.898   2.154   5.572
    2RG3     N7   44   1.951   1.997   5.453
    2RG3     C5   45   1.870   1.895   5.404
    2RG3     C6   46   1.898   1.784   5.322
    2RG3     O6   47   2.010   1.760   5.278
    2RG3     N1   48   1.787   1.704   5.295
    2RG3     H1   49   1.802   1.624   5.237
    2RG3     C2   50   1.654   1.725   5.341
    2RG3     N2   51   1.551   1.644   5.312
    2RG3    H21   52   1.565   1.563   5.255
    2RG3    H22   53   1.460   1.664   5.348
    2RG3     N3   54   1.635   1.831   5.418
    2RG3     C4   55   1.741   1.911   5.446
    2RG3    C3'   56   1.679   2.207   5.782
    2RG3    H3'   57   1.777   2.222   5.790
    2RG3    C2'   58   1.637   2.066   5.741
    2RG3   H2'1   59   1.696   1.991   5.772
    2RG3    O2'   60   1.511   2.037   5.798
    2RG3   HO'2   61   1.521   2.027   5.897
    2RG3    O3'   62   1.629   2.236   5.912
    2RG3    H3T   63   1.676   2.179   5.979
    3RG35     P   64   2.923   2.515   5.600
    3RG35   O1P   65   2.883   2.634   5.678
    3RG35   O2P   66   3.061   2.461   5.613
    3RG35   O5'   67   2.820   2.396   5.633
    3RG35   C5'   68   2.683   2.424   5.663
    3RG35  H5'1   69   2.645   2.478   5.588
    3RG35  H5'2   70   2.679   2.477   5.748
    3RG35   C4'   71   2.608   2.294   5.679
    3RG35   H4'   72   2.513   2.314   5.702
    3RG35   O4'   73   2.612   2.219   5.555
    3RG35   C1'   74   2.621   2.081   5.590
    3RG35   H1'   75   2.537   2.037   5.557
    3RG35    N9   76   2.739   2.024   5.523
    3RG35    C8   77   2.869   2.071   5.523
    3RG35    H8   78   2.898   2.154   5.572
    3RG35    N7   79   2.951   1.997   5.453
    3RG35    C5   80   2.870   1.895   5.404
    3RG35    C6   81   2.898   1.784   5.322
    3RG35    O6   82   3.010   1.760   5.278
    3RG35    N1   83   2.787   1.704   5.295
    3RG35    H1   84   2.802   1.624   5.237
    3RG35    C2   85   2.654   1.725   5.341
    3RG35    N2   86   2.551   1.644   5.312
    3RG35   H21   87   2.565   1.563   5.255
    3RG35   H22   88   2.460   1.664   5.348
    3RG35    N3   89   2.635   1.831   5.418
    3RG35    C4   90   2.741   1.911   5.446
    3RG35   C3'   91   2.679   2.207   5.782
    3RG35   H3'   92   2.777   2.222   5.790
    3RG35   C2'   93   2.637   2.066   5.741
    3RG35  H2'1   94   2.696   1.991   5.772
    3RG35   O2'   95   2.511   2.037   5.798
    3RG35  HO'2   96   2.521   2.027   5.897
    3RG35   O3'   97   2.629   2.236   5.912
    3RG35   H3T   98   2.676   2.179   5.979
    3RG35   O3P   99   2.897   2.547   5.444
   4.49070   4.66690  10.00000
