Gromacs Runs On Most of All Computer Systems in water
11622
    1U      O5'    1   2.987   2.539   5.065 -0.0638  0.0559  0.5863
    1U      H5T    2   2.924   2.602   5.028  0.9987  1.0326  0.4070
    1U      C5'    3   3.084   2.509   4.968 -0.2971  0.2589  0.1500
    1U     H5'1    4   3.159   2.459   5.028 -1.9293 -1.5872  0.6886
    1U     H5'2    5   3.119   2.599   4.916 -0.5314 -0.4049 -1.1840
    1U      C4'    6   3.028   2.409   4.864 -0.0195 -0.5136 -0.2467
    1U      H4'    7   3.103   2.417   4.785  1.0224 -0.2849  0.7484
    1U      O4'    8   3.010   2.284   4.922  0.3464 -0.1490  0.1427
    1U      C1'    9   2.908   2.219   4.844 -0.1625 -0.5965  0.2428
    1U      H1'   10   2.946   2.196   4.745 -1.3828 -1.3809 -0.0524
    1U       N1   11   2.861   2.095   4.908 -0.3666  0.2599  0.0337
    1U       C6   12   2.850   2.081   5.044 -0.0573 -0.2637 -0.1597
    1U       H6   13   2.873   2.168   5.104  0.3603 -0.0912 -0.5675
    1U       C5   14   2.804   1.970   5.103  0.0757 -0.3958  0.5414
    1U       H5   15   2.787   1.971   5.210  0.5041 -0.9707  0.6179
    1U       C4   16   2.775   1.852   5.027  0.1970  0.0634  0.6589
    1U       O4   17   2.730   1.744   5.074  0.6406 -0.4541  0.5960
    1U       N3   18   2.801   1.870   4.888  0.2214  0.0500  0.1681
    1U       H3   19   2.777   1.796   4.824  0.4193 -0.5292  0.7590
    1U       C2   20   2.826   1.989   4.828  0.4638 -0.5688 -0.1661
    1U       O2   21   2.834   1.981   4.702  0.2714  0.6236 -0.1025
    1U      C3'   22   2.895   2.454   4.805 -0.7788  0.2641 -0.0029
    1U      H3'   23   2.857   2.535   4.867 -0.6195  1.2418 -1.1675
    1U      C2'   24   2.804   2.328   4.818 -0.2870 -0.0154  0.0487
    1U     H2'1   25   2.741   2.338   4.906 -1.3598  0.5295 -0.7789
    1U      O2'   26   2.727   2.284   4.703  0.0268 -0.1004 -0.1555
    1U     HO'2   27   2.632   2.275   4.715  0.0006 -1.8788 -1.6586
    1U      O3'   28   2.909   2.501   4.668 -0.1869  0.2541  0.3647
    2RG3      P   29   2.978   2.642   4.627 -0.0755 -0.3239  0.0384
    2RG3    O1P   30   2.930   2.692   4.495 -0.1123 -0.4547 -0.5265
    2RG3    O2P   31   3.125   2.627   4.650 -0.2569  0.0626  0.2827
    2RG3    O5'   32   2.921   2.748   4.742  0.0155  0.1981 -0.2691
    2RG3    C5'   33   2.791   2.805   4.736 -0.1236 -0.0477 -0.4400
    2RG3   H5'1   34   2.788   2.873   4.650  0.4454 -0.6489 -0.9474
    2RG3   H5'2   35   2.782   2.866   4.826  0.2227 -0.2954 -0.2375
    2RG3    C4'   36   2.677   2.702   4.740 -0.4292 -0.3922  0.1369
    2RG3    H4'   37   2.696   2.621   4.670  1.8422 -0.7107  1.0774
    2RG3    O4'   38   2.657   2.643   4.861  0.1688  0.2804 -0.3389
    2RG3    C1'   39   2.533   2.585   4.862  0.3205  0.0168 -0.5368
    2RG3    H1'   40   2.542   2.478   4.842  0.9253  0.0490 -0.4361
    2RG3     N9   41   2.468   2.602   4.989 -0.4930 -0.0386  0.2793
    2RG3     C8   42   2.411   2.715   5.035 -0.3118 -0.3262  0.1159
    2RG3     H8   43   2.409   2.807   4.979  0.1489 -1.0243 -1.0548
    2RG3     N7   44   2.375   2.707   5.163 -0.2707 -0.5525 -0.0447
    2RG3     C5   45   2.391   2.575   5.200 -0.5489  0.1515 -0.0462
    2RG3     C6   46   2.366   2.499   5.317 -0.4978  0.5913  0.3407
    2RG3     O6   47   2.304   2.530   5.416  0.1321 -0.0102  0.0019
    2RG3     N1   48   2.403   2.364   5.306  0.4819  0.1567 -0.6795
    2RG3     H1   49   2.376   2.310   5.386  0.0621 -0.6323 -1.3502
    2RG3     C2   50   2.459   2.311   5.194  0.1746 -0.4027  0.4905
    2RG3     N2   51   2.474   2.180   5.193 -0.3101 -0.0168  0.0696
    2RG3    H21   52   2.433   2.121   5.264  1.8335 -1.0331  0.5086
    2RG3    H22   53   2.508   2.135   5.109 -0.4081 -0.4126  0.2434
    2RG3     N3   54   2.492   2.380   5.086  0.0620 -0.0617 -0.6912
    2RG3     C4   55   2.453   2.509   5.091 -0.3747  0.5965  0.1634
    2RG3    C3'   56   2.544   2.767   4.715 -0.1634  0.4569 -0.2225
    2RG3    H3'   57   2.520   2.857   4.772 -2.0641  0.3792 -0.8662
    2RG3    C2'   58   2.450   2.649   4.753 -0.4217  0.0185  0.1783
    2RG3   H2'1   59   2.352   2.679   4.790 -0.5213  1.5102 -1.2598
    2RG3    O2'   60   2.442   2.561   4.643  0.2646 -0.3455 -0.1057
    2RG3   HO'2   61   2.379   2.495   4.671 -1.3400  0.4985 -1.6346
    2RG3    O3'   62   2.521   2.811   4.583 -0.2187  0.6978  0.5552
    2RG3    H3T   63   2.529   2.736   4.524  0.2226  0.8864  0.3725
    3RG35     P   64   2.355   2.248   4.643  0.5780 -0.4681 -0.5123
    3RG35   O1P   65   2.370   2.269   4.497 -0.3285 -0.4438  0.1614
    3RG35   O2P   66   2.267   2.353   4.705  0.3456  0.3466  0.5037
    3RG35   O5'   67   2.266   2.118   4.651  0.0759  0.0699  0.6119
    3RG35   C5'   68   2.189   2.063   4.758  0.1241  0.5418  0.1352
    3RG35  H5'1   69   2.150   1.965   4.731  0.9021  0.1638  0.3589
    3RG35  H5'2   70   2.106   2.131   4.777  0.0486 -0.0294  1.9398
    3RG35   C4'   71   2.272   2.049   4.891 -0.1943  0.2433  0.2602
    3RG35   H4'   72   2.317   2.146   4.912  2.9022 -1.1188  0.1983
    3RG35   O4'   73   2.201   2.000   5.011  0.1126  0.3194 -0.0668
    3RG35   C1'   74   2.228   1.866   5.032 -0.0934  0.1294  0.1342
    3RG35   H1'   75   2.225   1.843   5.138  4.0517  1.0565  0.5485
    3RG35    N9   76   2.132   1.784   4.948 -0.3736  0.1036 -0.3930
    3RG35    C8   77   2.014   1.833   4.888  0.2685 -0.9699 -0.2012
    3RG35    H8   78   1.985   1.936   4.900  2.2122 -0.5976  1.6925
    3RG35    N7   79   1.948   1.750   4.813 -0.1078  0.2606  0.4838
    3RG35    C5   80   2.022   1.634   4.823  0.1350  0.1044  0.0772
    3RG35    C6   81   2.016   1.510   4.753 -0.2634  0.5428  0.3085
    3RG35    O6   82   1.937   1.478   4.665 -0.1892  0.2421  0.2931
    3RG35    N1   83   2.118   1.419   4.782 -0.4389  0.5047  0.2498
    3RG35    H1   84   2.117   1.332   4.731  0.3489 -0.0964  1.2268
    3RG35    C2   85   2.224   1.448   4.864  0.5926  0.4786 -0.2333
    3RG35    N2   86   2.315   1.355   4.894 -0.6234 -0.6273 -0.0202
    3RG35   H21   87   2.313   1.260   4.861 -0.0890 -0.1602 -1.4185
    3RG35   H22   88   2.393   1.400   4.940 -1.1124 -0.8454  1.0425
    3RG35    N3   89   2.234   1.556   4.935 -0.0547  0.3274 -0.3334
    3RG35    C4   90   2.131   1.652   4.907 -0.5703  0.1195 -0.4614
    3RG35   C3'   91   2.392   1.949   4.872 -0.0985 -0.4721  0.5964
    3RG35   H3'   92   2.384   1.895   4.778 -0.3146  0.9607 -0.2215
    3RG35   C2'   93   2.374   1.845   4.985 -0.2778 -0.1709  0.5661
    3RG35  H2'1   94   2.395   1.747   4.942  0.5071  0.2906 -0.0938
    3RG35   O2'   95   2.465   1.862   5.096  0.1434 -0.4991  0.5416
    3RG35  HO'2   96   2.553   1.853   5.059  0.7335  1.3948  1.4088
    3RG35   O3'   97   2.520   2.013   4.876 -0.2733  0.9561 -0.3318
    3RG35   H3T   98   2.523   2.091   4.819  2.7215  0.0823 -1.4944
    3RG35   O3P   99   2.482   2.223   4.714 -0.3038  0.1122  0.3500
    7SOL     OW  100   0.446   0.127   0.490  0.1391 -0.2611 -0.2517
    7SOL    HW2  101   0.496   0.201   0.455 -0.5963 -0.5777 -2.0349
    7SOL    HW3  102   0.358   0.139   0.456 -0.4013 -1.0461  0.8539
    7SOL    MW4  103   0.441   0.138   0.481 -0.0292 -0.4064 -0.3411
    8SOL     OW  104   3.759   0.865   0.121 -0.3040 -0.0899 -0.0389
    8SOL    HW2  105   3.752   0.778   0.159  0.3759  0.5770  1.6848
    8SOL    HW3  106   3.830   0.858   0.056  1.3632 -0.2766  1.7538
    8SOL    MW4  107   3.768   0.853   0.117  0.0055 -0.0266  0.4250
    9SOL     OW  108   0.095   0.483   0.535  0.0974  0.1899 -0.4270
    9SOL    HW2  109   0.166   0.445   0.483 -0.4256  0.1961 -1.1448
    9SOL    HW3  110   0.136   0.503   0.619  0.7643 -0.5125 -0.5734
    9SOL    MW4  111   0.110   0.481   0.539  0.1164  0.0980 -0.5410
   10SOL     OW  112   4.466   2.125   0.451 -0.6776 -0.5220 -0.0968
   10SOL    HW2  113   4.547   2.078   0.432 -0.0008 -0.3026  2.1151
   10SOL    HW3  114   4.396   2.062   0.434  0.1533 -1.8974  1.4686
   10SOL    MW4  115   4.467   2.111   0.447 -0.4787 -0.6745  0.4016
   11SOL     OW  116   1.221   0.807   0.284 -0.3785 -0.1291 -0.0345
   11SOL    HW2  117   1.215   0.834   0.192  0.2705 -0.5153 -0.1919
   11SOL    HW3  118   1.151   0.856   0.328 -0.7283  0.0121 -0.7441
   11SOL    MW4  119   1.211   0.817   0.278 -0.3390 -0.1615 -0.1488
   12SOL     OW  120   0.335   0.681   0.528 -0.6347  0.2827  0.3247
   12SOL    HW2  121   0.285   0.694   0.609 -0.4669  0.8723  0.3377
   12SOL    HW3  122   0.279   0.624   0.475 -0.7781 -0.0465  0.8249
   12SOL    MW4  123   0.321   0.675   0.532 -0.6315  0.3170  0.3924
   13SOL     OW  124   0.584   1.064   0.471 -0.1324 -0.3250 -0.7569
   13SOL    HW2  125   0.567   1.158   0.480  1.3145 -0.2008  0.8781
   13SOL    HW3  126   0.498   1.023   0.486 -0.5846  0.6735 -0.5840
   13SOL    MW4  127   0.570   1.071   0.474 -0.0012 -0.1769 -0.5183
   14SOL     OW  128   0.738   0.843   0.490 -0.0824 -0.2544 -0.4863
   14SOL    HW2  129   0.796   0.848   0.566  0.1718 -0.1056 -0.6884
   14SOL    HW3  130   0.700   0.930   0.484  0.4505 -0.0451 -0.9584
   14SOL    MW4  131   0.741   0.855   0.499  0.0213 -0.2072 -0.5752
   15SOL     OW  132   0.593   1.348   0.301 -0.0387 -0.3321  0.3899
   15SOL    HW2  133   0.680   1.355   0.340 -1.0554  1.0710  2.4541
   15SOL    HW3  134   0.595   1.264   0.255  2.0720 -0.7954  1.2648
   15SOL    MW4  135   0.604   1.338   0.300  0.1056 -0.2080  0.7777
   16SOL     OW  136   4.011   2.642   0.452  0.1729  0.0733 -0.1399
   16SOL    HW2  137   4.022   2.636   0.357  0.9179 -0.2637 -0.0313
   16SOL    HW3  138   4.034   2.555   0.484  1.3237  0.6065  0.4956
   16SOL    MW4  139   4.015   2.629   0.444  0.4234  0.0989 -0.0417
   17SOL     OW  140   0.290   1.350   0.361  0.1396 -0.1885 -0.3291
   17SOL    HW2  141   0.249   1.264   0.358 -0.3112  0.0741 -2.5583
   17SOL    HW3  142   0.378   1.335   0.327 -0.4538  0.4893 -2.2030
   17SOL    MW4  143   0.296   1.337   0.357  0.0018 -0.0645 -0.8705
   18SOL     OW  144   4.010   2.630   0.159  0.1779  0.0201 -0.0265
   18SOL    HW2  145   4.040   2.630   0.068  0.9373  1.6656  0.2045
   18SOL    HW3  146   3.935   2.689   0.159 -0.1340 -0.3767  0.3236
   18SOL    MW4  147   4.004   2.638   0.147  0.2370  0.1850  0.0502
   19SOL     OW  148   4.185   3.471   0.379 -0.0244  0.1736 -0.4790
   19SOL    HW2  149   4.276   3.447   0.397  0.2384  2.5179  1.5315
   19SOL    HW3  150   4.186   3.501   0.287  0.8616 -1.4724 -1.0174
   19SOL    MW4  151   4.197   3.472   0.369  0.1273  0.2656 -0.2847
   20SOL     OW  152   0.356   2.847   0.367 -0.5395  0.0326  0.0769
   20SOL    HW2  153   0.373   2.775   0.306  0.0863 -1.7966  2.3731
   20SOL    HW3  154   0.440   2.861   0.411 -1.4710  0.0818  1.8528
   20SOL    MW4  155   0.370   2.839   0.364 -0.5799 -0.2024  0.6141
   21SOL     OW  156   0.177   3.426   0.570  0.2202  0.1669 -0.1154
   21SOL    HW2  157   0.223   3.488   0.513  0.0943  0.7144  0.3751
   21SOL    HW3  158   0.094   3.409   0.524 -0.3715  1.4771  0.4414
   21SOL    MW4  159   0.172   3.432   0.556  0.1255  0.4120  0.0228
   22SOL     OW  160   0.395   3.210   0.501  0.0999  0.1723 -0.5089
   22SOL    HW2  161   0.338   3.287   0.501  1.6090  1.3437  0.0901
   22SOL    HW3  162   0.336   3.136   0.508 -1.3945  1.2915 -0.9709
   22SOL    MW4  163   0.380   3.211   0.502  0.1019  0.4742 -0.4908
   23SOL     OW  164   0.735   3.401   0.360 -0.3755 -0.1867 -0.3910
   23SOL    HW2  165   0.704   3.486   0.391 -1.4846 -0.7835  0.1566
   23SOL    HW3  166   0.780   3.420   0.278  0.4065  1.0786  0.3289
   23SOL    MW4  167   0.737   3.414   0.353 -0.4186 -0.0982 -0.2238
   24SOL     OW  168   0.973   3.676   0.286 -0.0086 -0.0503  0.1640
   24SOL    HW2  169   1.066   3.679   0.311  0.3436  0.1250 -1.1098
   24SOL    HW3  170   0.944   3.767   0.293  0.3840  0.1846 -1.0921
   24SOL    MW4  171   0.982   3.688   0.290  0.0897  0.0038 -0.1698
   25SOL     OW  172   3.798   3.320   0.474  0.0322 -0.0027  0.3155
   25SOL    HW2  173   3.802   3.415   0.483 -1.6792  0.3015 -1.6959
   25SOL    HW3  174   3.885   3.294   0.447  0.0679  1.2109 -0.7916
   25SOL    MW4  175   3.810   3.329   0.472 -0.1888  0.1974 -0.0960
   26SOL     OW  176   0.292   3.663   0.750  0.1471  0.2611 -0.2601
   26SOL    HW2  177   0.303   3.656   0.655 -2.2713 -2.3564 -0.4239
   26SOL    HW3  178   0.355   3.600   0.786 -0.7016 -0.6214 -0.2863
   26SOL    MW4  179   0.302   3.654   0.742 -0.2839 -0.2005 -0.2852
   27SOL     OW  180   4.317   4.509   0.490  0.4070  0.8842 -0.4113
   27SOL    HW2  181   4.284   4.472   0.572  0.9972  1.4078  0.0709
   27SOL    HW3  182   4.370   4.439   0.451  0.7999  0.9112  0.0679
   27SOL    MW4  183   4.320   4.495   0.496  0.5369  0.9565 -0.2845
   28SOL     OW  184   0.914   4.201   0.466  0.2204  0.2176  0.3905
   28SOL    HW2  185   0.850   4.255   0.419  0.9710 -0.0991 -1.0237
   28SOL    HW3  186   0.996   4.250   0.460  0.5084 -0.2288  0.6529
   28SOL    MW4  187   0.917   4.215   0.459  0.3574  0.1168  0.2385
   29SOL     OW  188   4.479   4.302   0.392  0.5093  0.1636  0.1705
   29SOL    HW2  189   4.571   4.328   0.387  0.4478  0.1247 -1.6432
   29SOL    HW3  190   4.482   4.210   0.419  1.0923 -0.2797 -1.3117
   29SOL    MW4  191   4.492   4.293   0.395  0.5779  0.1001 -0.2644
   30SOL     OW  192   0.396   4.063   0.496 -0.3629  0.4331  0.1635
   30SOL    HW2  193   0.472   4.015   0.461  0.0269  0.9112  0.3437
   30SOL    HW3  194   0.409   4.059   0.591 -1.5725 -1.1289  0.2821
   30SOL    MW4  195   0.408   4.056   0.504 -0.4711  0.2899  0.2029
   31SOL     OW  196   0.836   0.264   0.435  0.2375  0.4623 -0.1215
   31SOL    HW2  197   0.825   0.232   0.525  1.0000  0.5518 -0.0007
   31SOL    HW3  198   0.902   0.332   0.441 -0.0781  0.8236 -0.6750
   31SOL    MW4  199   0.843   0.269   0.448  0.2965  0.5218 -0.1786
   32SOL     OW  200   0.193   0.164   0.360 -0.2505  0.2847 -0.5488
   32SOL    HW2  201   0.188   0.125   0.273  0.3214 -0.0120 -0.4502
   32SOL    HW3  202   0.105   0.153   0.397 -0.0839 -0.9394 -0.5059
   32SOL    MW4  203   0.181   0.158   0.354 -0.1530  0.0841 -0.5301
   33SOL     OW  204   4.309   0.549   0.510 -0.0401  0.0082 -0.2478
   33SOL    HW2  205   4.403   0.537   0.496 -0.2887 -0.5677 -1.4486
   33SOL    HW3  206   4.290   0.633   0.468 -0.3732 -0.6888 -1.5249
   33SOL    MW4  207   4.319   0.559   0.503 -0.1163 -0.1597 -0.5747
   34SOL     OW  208   0.580   4.510   0.486  0.3444 -0.8405 -0.2724
   34SOL    HW2  209   0.616   4.499   0.574 -0.9621 -0.3177  0.3403
   34SOL    HW3  210   0.535   4.594   0.488  0.9069 -0.4839 -1.6651
   34SOL    MW4  211   0.579   4.520   0.498  0.2462 -0.7248 -0.3753
   35SOL     OW  212   1.009   0.944   0.422 -0.3616 -0.0938  0.1368
   35SOL    HW2  213   0.914   0.944   0.405 -0.3556  1.0486  0.0661
   35SOL    HW3  214   1.019   0.898   0.505 -0.7001 -2.9113 -1.3181
   35SOL    MW4  215   0.997   0.938   0.430 -0.4054 -0.3148 -0.0645
   36SOL     OW  216   0.314   0.432   0.350 -0.1657  0.0044  0.2446
   36SOL    HW2  217   0.409   0.426   0.365 -0.0069  0.8658 -0.4073
   36SOL    HW3  218   0.287   0.341   0.336  0.6930 -0.1751 -0.2908
   36SOL    MW4  219   0.323   0.419   0.350 -0.0315  0.0944  0.0880
   37SOL     OW  220   0.143   1.127   0.459 -0.0197 -0.5893  0.1460
   37SOL    HW2  221   0.055   1.089   0.449 -0.0808 -0.2404 -0.6804
   37SOL    HW3  222   0.199   1.052   0.479 -0.1942 -1.0762 -1.1436
   37SOL    MW4  223   0.139   1.112   0.460 -0.0508 -0.6076 -0.1331
   38SOL     OW  224   0.599   1.649   0.427 -0.1089 -0.4910 -0.2694
   38SOL    HW2  225   0.693   1.640   0.443  0.2710  0.2755 -1.8954
   38SOL    HW3  226   0.573   1.565   0.389 -0.1243 -0.7883  0.4057
   38SOL    MW4  227   0.608   1.637   0.424 -0.0607 -0.4290 -0.3949
   39SOL     OW  228   0.230   1.981   0.410  0.2433  0.2586  0.1063
   39SOL    HW2  229   0.271   1.915   0.465 -0.7844  1.2082  2.0880
   39SOL    HW3  230   0.303   2.028   0.369  1.0798  0.3545  1.6681
   39SOL    MW4  231   0.245   1.978   0.412  0.2180  0.3965  0.5738
   40SOL     OW  232   0.461   2.110   0.303 -0.0583 -0.2910 -0.1310
   40SOL    HW2  233   0.474   2.100   0.209 -1.2132  0.1727 -0.3545
   40SOL    HW3  234   0.518   2.044   0.342  3.5445  2.1584 -0.9578
   40SOL    MW4  235   0.470   2.100   0.296  0.2647  0.0935 -0.2696
   41SOL     OW  236   0.453   2.383   0.426  0.3915  0.1096  0.0058
   41SOL    HW2  237   0.446   2.302   0.375  0.5644  0.1700 -0.1142
   41SOL    HW3  238   0.431   2.452   0.364 -1.0110  0.0623  0.4289
   41SOL    MW4  239   0.449   2.381   0.411  0.2293  0.1113  0.0458
   42SOL     OW  240   3.874   2.147   0.479 -0.1536  0.3390 -0.1504
   42SOL    HW2  241   3.924   2.229   0.488  0.2083  0.1636 -0.5356
   42SOL    HW3  242   3.784   2.175   0.465 -0.5393  0.6496  2.6499
   42SOL    MW4  243   3.869   2.162   0.479 -0.1564  0.3569  0.1683
   43SOL     OW  244   0.704   2.658   0.272  0.0278  0.0477  0.1763
   43SOL    HW2  245   0.732   2.590   0.333 -0.2410  0.5084  0.8226
   43SOL    HW3  246   0.699   2.737   0.325 -1.2533  0.2338 -0.2029
   43SOL    MW4  247   0.707   2.659   0.287 -0.1766  0.1330  0.2114
   44SOL     OW  248   0.759   2.439   0.432  0.1196  0.1640  0.3033
   44SOL    HW2  249   0.783   2.449   0.524  1.3706  1.3061 -0.1356
   44SOL    HW3  250   0.676   2.391   0.434 -0.7021  1.6291  2.0712
   44SOL    MW4  251   0.752   2.434   0.444  0.1763  0.5078  0.4787
   45SOL     OW  252   4.060   3.240   0.479 -0.3982  0.3098 -0.2114
   45SOL    HW2  253   4.095   3.226   0.567  0.4657  1.3540 -0.3652
   45SOL    HW3  254   4.118   3.307   0.441 -0.6323 -0.2681 -1.6387
   45SOL    MW4  255   4.072   3.247   0.485 -0.3152  0.3712 -0.4200
   46SOL     OW  256   0.425   2.608   0.231 -0.0022 -0.2692  0.0281
   46SOL    HW2  257   0.520   2.610   0.243 -0.0416  0.2559  0.2688
   46SOL    HW3  258   0.413   2.593   0.138  0.3240  0.7017 -0.1726
   46SOL    MW4  259   0.436   2.606   0.221  0.0356 -0.0720  0.0334
   47SOL     OW  260   0.739   4.363   0.319 -0.1280 -0.2114  0.3640
   47SOL    HW2  261   0.711   4.380   0.229 -1.1058 -1.2591  0.4562
   47SOL    HW3  262   0.679   4.413   0.373 -1.4376 -1.9086  0.5343
   47SOL    MW4  263   0.727   4.372   0.314 -0.4298 -0.5732  0.3986
   48SOL     OW  264   0.124   3.388   0.923  0.0467 -0.5645 -0.4520
   48SOL    HW2  265   0.089   3.405   1.010  0.5177 -0.0075 -0.3652
   48SOL    HW3  266   0.145   3.295   0.923 -0.5757 -0.7116 -0.2011
   48SOL    MW4  267   0.122   3.378   0.934  0.0267 -0.5102 -0.4073
   49SOL     OW  268   0.631   3.641   0.424 -0.6832 -0.4246  0.6742
   49SOL    HW2  269   0.619   3.733   0.401 -0.2982 -0.7016 -0.6762
   49SOL    HW3  270   0.665   3.643   0.514 -1.1323  0.7273  0.8239
   49SOL    MW4  271   0.634   3.653   0.433 -0.6917 -0.3092  0.5158
   50SOL     OW  272   1.113   3.362   0.283 -0.2661  0.0461  0.2363
   50SOL    HW2  273   1.046   3.376   0.215  0.6695 -1.5926 -1.0518
   50SOL    HW3  274   1.066   3.319   0.354 -0.4391 -1.8756 -1.0094
   50SOL    MW4  275   1.098   3.359   0.283 -0.1653 -0.4234 -0.0980
   51SOL     OW  276   0.332   4.355   0.486  0.1709  0.3736 -0.6002
   51SOL    HW2  277   0.354   4.265   0.463  1.4753 -0.0542  2.1895
   51SOL    HW3  278   0.413   4.404   0.472  0.3690  0.5012  0.8992
   51SOL    MW4  279   0.346   4.350   0.481  0.3692  0.3338 -0.0343
   52SOL     OW  280   0.919   3.455   0.113  0.6984 -0.1954 -0.2838
   52SOL    HW2  281   0.944   3.534   0.161 -0.8814 -0.4640  1.0403
   52SOL    HW3  282   0.938   3.476   0.021  1.2088  1.3450  0.1463
   52SOL    MW4  283   0.925   3.469   0.107  0.5574 -0.0274 -0.0524
   53SOL     OW  284   0.321   3.648   0.468  0.1157 -0.7197  0.1447
   53SOL    HW2  285   0.293   3.735   0.441 -0.7507 -0.9379  0.3078
   53SOL    HW3  286   0.415   3.645   0.449  0.4693  0.7829  1.5640
   53SOL    MW4  287   0.330   3.659   0.462  0.0481 -0.5500  0.3535
   54SOL     OW  288   0.590   0.353   0.412 -0.0937 -0.1057  0.2632
   54SOL    HW2  289   0.592   0.437   0.457 -0.8348  0.0656 -0.0181
   54SOL    HW3  290   0.681   0.325   0.409 -0.0537 -0.2659  2.1383
   54SOL    MW4  291   0.602   0.360   0.418 -0.1861 -0.1043  0.4735
   55SOL     OW  292   0.607   0.597   0.526 -0.0178 -0.2916 -0.6315
   55SOL    HW2  293   0.642   0.684   0.511  1.4821 -0.8557 -0.5035
   55SOL    HW3  294   0.514   0.611   0.545  0.3323  1.3190 -0.0184
   55SOL    MW4  295   0.600   0.610   0.527  0.2263 -0.1535 -0.5336
   56SOL     OW  296   0.330   0.954   0.523  0.0163 -0.0999 -0.1667
   56SOL    HW2  297   0.334   0.865   0.489 -0.0474 -0.6716  1.2892
   56SOL    HW3  298   0.354   0.946   0.615 -0.4294  1.3268  0.0901
   56SOL    MW4  299   0.334   0.941   0.530 -0.0509  0.0129  0.0592
   57SOL     OW  300   1.290   0.542   0.349 -0.4992  0.6434  0.2968
   57SOL    HW2  301   1.266   0.632   0.328  0.3558  0.6063 -0.8966
   57SOL    HW3  302   1.375   0.550   0.392  0.4803  0.2797 -1.5178
   57SOL    MW4  303   1.298   0.555   0.352 -0.2571  0.5906 -0.1001
   58SOL     OW  304   1.777   0.630   0.366 -0.6604 -0.2521  0.1765
   58SOL    HW2  305   1.772   0.719   0.402 -1.6922 -0.0910 -0.3536
   58SOL    HW3  306   1.690   0.593   0.381 -0.5346 -0.8245 -0.4988
   58SOL    MW4  307   1.765   0.637   0.373 -0.7799 -0.3064  0.0174
   59SOL     OW  308   1.490   0.918   0.452  0.1415 -0.1127 -0.2602
   59SOL    HW2  309   1.439   0.897   0.374  0.3713  2.5469 -1.1983
   59SOL    HW3  310   1.430   0.904   0.525 -0.5017 -1.3155 -1.0116
   59SOL    MW4  311   1.475   0.914   0.452  0.0870  0.0795 -0.4832
   60SOL     OW  312   0.909   1.626   0.474 -0.0722  0.3050 -0.0151
   60SOL    HW2  313   0.994   1.664   0.449  0.0298 -0.1323 -0.3530
   60SOL    HW3  314   0.901   1.645   0.567 -0.8594  2.7221 -0.5440
   60SOL    MW4  315   0.919   1.633   0.483 -0.1626  0.5662 -0.1295
   61SOL     OW  316   1.036   1.219   0.393  0.7204 -0.1541  0.3057
   61SOL    HW2  317   1.029   1.125   0.413  1.0520 -0.2228  0.1054
   61SOL    HW3  318   1.113   1.248   0.442 -0.3911  0.4016  1.7770
   61SOL    MW4  319   1.045   1.210   0.402  0.6175 -0.0898  0.4735
   62SOL     OW  320   1.767   1.265   0.465 -0.0122  0.2345 -0.1184
   62SOL    HW2  321   1.794   1.357   0.466  0.7591  0.0219 -0.3148
   62SOL    HW3  322   1.850   1.217   0.456 -0.2963 -0.5220  1.0948
   62SOL    MW4  323   1.782   1.271   0.464  0.0521  0.1067  0.0158
   63SOL     OW  324   1.247   1.322   0.549  0.7637  0.1621 -0.0669
   63SOL    HW2  325   1.328   1.276   0.528  1.0636  0.5536  0.2415
   63SOL    HW3  326   1.271   1.414   0.550  0.0898  0.3588 -1.0062
   63SOL    MW4  327   1.261   1.328   0.546  0.7143  0.2397 -0.1502
   64SOL     OW  328   1.143   1.784   0.462 -0.2769  0.1079 -0.6093
   64SOL    HW2  329   1.189   1.786   0.378 -0.2553 -0.0274 -0.6005
   64SOL    HW3  330   1.202   1.737   0.520 -0.2575  0.2714 -0.4982
   64SOL    MW4  331   1.157   1.778   0.458 -0.2714  0.1116 -0.5935
   65SOL     OW  332   4.323   2.400   0.530 -0.3134 -0.3542 -0.3515
   65SOL    HW2  333   4.372   2.455   0.591 -0.5514 -0.2103 -0.2900
   65SOL    HW3  334   4.375   2.320   0.521  0.2875  0.0932 -0.8395
   65SOL    MW4  335   4.336   2.397   0.537 -0.2656 -0.2761 -0.4078
   66SOL     OW  336   0.891   1.951   0.409  0.3454 -0.1044 -0.1241
   66SOL    HW2  337   0.957   2.014   0.381  2.1093 -1.9405 -0.1697
   66SOL    HW3  338   0.939   1.885   0.459 -1.6764 -0.6902  1.1527
   66SOL    MW4  339   0.906   1.950   0.412  0.3114 -0.4239  0.0383
   67SOL     OW  340   0.948   2.845   0.471 -0.1222 -0.0650  0.1979
   67SOL    HW2  341   0.959   2.763   0.424  0.7937  0.1871 -0.0267
   67SOL    HW3  342   0.859   2.874   0.449  0.5093  0.3634 -1.8598
   67SOL    MW4  343   0.938   2.838   0.462  0.0820  0.0250 -0.1032
   68SOL     OW  344   0.617   1.952   0.475 -0.4022  0.2691  0.2831
   68SOL    HW2  345   0.711   1.954   0.456 -0.2625  1.4935  1.0644
   68SOL    HW3  346   0.589   1.865   0.448  1.0810 -0.3152  0.5750
   68SOL    MW4  347   0.626   1.941   0.469 -0.1881  0.3535  0.4247
   69SOL     OW  348   1.288   2.482   0.428 -0.1133 -0.1352  0.0155
   69SOL    HW2  349   1.204   2.435   0.424 -0.3115 -0.0161  2.4131
   69SOL    HW3  350   1.265   2.573   0.412 -0.4013 -0.1498  0.3391
   69SOL    MW4  351   1.274   2.488   0.425 -0.1773 -0.1214  0.3745
   70SOL     OW  352   0.998   2.646   0.273 -0.4182  0.2494  0.0863
   70SOL    HW2  353   0.945   2.635   0.195  1.0225 -1.0553 -0.7377
   70SOL    HW3  354   1.027   2.557   0.296  1.1547  0.8899  0.6761
   70SOL    MW4  355   0.995   2.633   0.266 -0.0206  0.1619  0.0555
   71SOL     OW  356   0.647   2.867   0.458 -0.1083 -0.2311  0.1163
   71SOL    HW2  357   0.653   2.854   0.553 -1.5430 -1.3711  0.0555
   71SOL    HW3  358   0.640   2.962   0.448 -0.4028 -0.1369  1.1757
   71SOL    MW4  359   0.647   2.878   0.469 -0.3364 -0.3693  0.2481
   72SOL     OW  360   0.950   3.303   0.512  0.1047  0.3397  0.3170
   72SOL    HW2  361   0.925   3.291   0.603  0.0945  0.4667  0.3306
   72SOL    HW3  362   0.876   3.348   0.472  0.7298  1.6088  0.5868
   72SOL    MW4  363   0.937   3.307   0.519  0.1858  0.5240  0.3543
   73SOL     OW  364   1.228   3.616   0.396  0.0729 -0.0752 -0.2941
   73SOL    HW2  365   1.316   3.648   0.377  1.0570 -1.6057  1.4278
   73SOL    HW3  366   1.231   3.522   0.376 -0.9325 -0.2954  0.4962
   73SOL    MW4  367   1.240   3.608   0.391  0.0702 -0.3059  0.0373
   74SOL     OW  368   1.202   3.883   0.433  0.3618  0.2662 -0.2820
   74SOL    HW2  369   1.107   3.897   0.432  0.3542  0.2353 -0.0226
   74SOL    HW3  370   1.212   3.789   0.417  0.2964  0.0320  1.0570
   74SOL    MW4  371   1.191   3.872   0.431  0.3521  0.2315 -0.0711
   75SOL     OW  372   0.649   3.920   0.382  0.3541  0.1494  0.0934
   75SOL    HW2  373   0.738   3.942   0.408  0.6691  0.3452 -1.0918
   75SOL    HW3  374   0.653   3.915   0.286 -0.7106 -0.7175  0.0862
   75SOL    MW4  375   0.661   3.923   0.373  0.2552  0.0610 -0.0639
   76SOL     OW  376   1.179   4.328   0.507 -0.2667 -0.3962 -0.1959
   76SOL    HW2  377   1.192   4.413   0.466  0.5714 -0.8286 -0.8652
   76SOL    HW3  378   1.151   4.347   0.596 -1.4157  0.5658 -0.7622
   76SOL    MW4  379   1.177   4.342   0.513 -0.3078 -0.3262 -0.3589
   77SOL     OW  380   1.079   0.388   0.489 -0.3032 -0.4305 -0.3212
   77SOL    HW2  381   1.135   0.311   0.497 -0.1755 -0.2681  0.3904
   77SOL    HW3  382   1.132   0.453   0.444 -0.2604 -0.6139 -0.5322
   77SOL    MW4  383   1.093   0.386   0.484 -0.2809 -0.4333 -0.2552
   78SOL     OW  384   0.918   0.010   0.345  0.2817 -0.2465 -0.5170
   78SOL    HW2  385   0.832  -0.032   0.340  1.2541 -2.2553 -0.6053
   78SOL    HW3  386   0.898   0.103   0.355 -1.9350 -0.8741  1.4296
   78SOL    MW4  387   0.904   0.017   0.346  0.1176 -0.5941 -0.2719
   79SOL     OW  388   1.410   0.404   0.133  0.3383 -0.1263 -0.2977
   79SOL    HW2  389   1.395   0.446   0.218  0.9341  0.7567 -0.6183
   79SOL    HW3  390   1.325   0.410   0.089  0.4219  0.7781 -0.3513
   79SOL    MW4  391   1.397   0.411   0.139  0.4281  0.1096 -0.3471
   80SOL     OW  392   1.548   0.479   0.470  0.1762  0.1466  0.0311
   80SOL    HW2  393   1.605   0.404   0.454 -1.7674 -1.9449  2.4685
   80SOL    HW3  394   1.571   0.509   0.558 -1.5037  0.1228  0.5048
   80SOL    MW4  395   1.559   0.473   0.479 -0.3018 -0.1325  0.4152
   81SOL     OW  396   1.242   0.165   0.481 -0.0534  0.5439  0.3826
   81SOL    HW2  397   1.201   0.084   0.450  0.1001 -0.3403  2.4254
   81SOL    HW3  398   1.315   0.179   0.420 -0.5595 -0.4190 -0.4645
   81SOL    MW4  399   1.246   0.156   0.469 -0.0999  0.3002  0.5404
   82SOL     OW  400   2.031   0.525   0.244 -0.3674 -0.0088  0.4407
   82SOL    HW2  401   2.018   0.497   0.153  1.4481  1.3879 -0.2758
   82SOL    HW3  402   1.954   0.579   0.264 -0.0460  0.9158 -0.7730
   82SOL    MW4  403   2.019   0.528   0.235 -0.0856  0.2975  0.1860
   83SOL     OW  404   2.173   0.620   0.465 -0.0384  0.1090 -0.0309
   83SOL    HW2  405   2.137   0.589   0.381 -1.2449  0.6609  0.2789
   83SOL    HW3  406   2.105   0.600   0.529  0.9264 -0.4165  0.8590
   83SOL    MW4  407   2.160   0.613   0.462 -0.0706  0.1125  0.1274
   84SOL     OW  408   1.775   0.895   0.516 -0.3534 -0.2812 -0.1716
   84SOL    HW2  409   1.782   0.891   0.611  1.3544  0.7163 -0.2410
   84SOL    HW3  410   1.681   0.898   0.499 -0.6626  3.0523  1.6533
   84SOL    MW4  411   1.764   0.895   0.526 -0.1689  0.2903  0.0601
   85SOL     OW  412   1.496   1.191   0.483  0.5659  0.1602  0.0136
   85SOL    HW2  413   1.489   1.102   0.448  2.3729  0.2420 -0.5883
   85SOL    HW3  414   1.580   1.223   0.451 -0.3203  2.3040 -0.2420
   85SOL    MW4  415   1.506   1.184   0.474  0.6875  0.4538 -0.0996
   86SOL     OW  416   1.574   1.693   0.374  0.3281  0.2961 -0.0186
   86SOL    HW2  417   1.654   1.640   0.383 -0.0699 -0.5115 -1.0649
   86SOL    HW3  418   1.597   1.777   0.413  1.5100 -0.1100  0.2094
   86SOL    MW4  419   1.588   1.697   0.381  0.4315  0.1359 -0.1266
   87SOL     OW  420   1.338   1.583   0.548  0.1249  0.6849  0.2564
   87SOL    HW2  421   1.342   1.623   0.635  0.4204  1.1400  0.0389
   87SOL    HW3  422   1.414   1.618   0.503  1.2427 -1.3430  0.5608
   87SOL    MW4  423   1.348   1.593   0.554  0.3114  0.4774  0.2679
   88SOL     OW  424   1.120   2.113   0.412 -0.2930 -0.2069  0.0855
   88SOL    HW2  425   1.205   2.091   0.372 -0.7036 -0.9569 -0.3692
   88SOL    HW3  426   1.127   2.081   0.502 -0.3126 -0.8181 -0.1265
   88SOL    MW4  427   1.132   2.106   0.419 -0.3498 -0.3865 -0.0024
   89SOL     OW  428   1.548   2.472   0.333 -0.2800 -0.3323  0.0166
   89SOL    HW2  429   1.463   2.479   0.375 -0.0911  0.9288  0.2237
   89SOL    HW3  430   1.556   2.552   0.281  0.5530 -0.6832 -0.4185
   89SOL    MW4  431   1.538   2.484   0.332 -0.1452 -0.2122 -0.0135
   90SOL     OW  432   1.860   2.073   0.412  0.0187 -0.1749  0.4998
   90SOL    HW2  433   1.869   2.092   0.505  1.2776 -1.0217  0.5738
   90SOL    HW3  434   1.927   2.006   0.395  0.4944  0.7116 -1.2285
   90SOL    MW4  435   1.870   2.066   0.422  0.2475 -0.1695  0.2816
   91SOL     OW  436   1.388   2.046   0.334 -0.3333 -0.3735  0.1490
   91SOL    HW2  437   1.375   1.972   0.275 -0.2696 -0.3772  0.1387
   91SOL    HW3  438   1.449   2.103   0.287 -0.0557 -0.5143  0.3315
   91SOL    MW4  439   1.394   2.044   0.320 -0.2884 -0.3924  0.1718
   92SOL     OW  440   1.034   2.373   0.359 -0.3292  0.2641 -0.0877
   92SOL    HW2  441   0.941   2.364   0.378 -1.0493  0.4034 -3.1790
   92SOL    HW3  442   1.071   2.287   0.378 -1.4688 -0.3658 -0.6245
   92SOL    MW4  443   1.027   2.361   0.364 -0.5745  0.1993 -0.5663
   93SOL     OW  444   1.085   3.074   0.418 -0.2264 -0.3383  0.3204
   93SOL    HW2  445   1.032   2.999   0.444 -1.4848  0.6703  0.7167
   93SOL    HW3  446   1.032   3.150   0.442  0.3490  0.6582 -1.4872
   93SOL    MW4  447   1.071   3.074   0.424 -0.3166 -0.0739  0.1342
   94SOL     OW  448   1.935   2.341   0.383 -0.1358  0.0644  0.2840
   94SOL    HW2  449   2.027   2.362   0.372  0.5270 -0.5303  3.9307
   94SOL    HW3  450   1.931   2.245   0.378 -0.9281  0.2014 -2.0862
   94SOL    MW4  451   1.946   2.331   0.381 -0.1529  0.0038  0.4524
   95SOL     OW  452   1.745   3.996   0.438  0.1254  0.3274  0.4490
   95SOL    HW2  453   1.685   4.045   0.382  0.2320 -0.2706 -0.1896
   95SOL    HW3  454   1.743   3.907   0.403  1.4374  0.3191  0.3861
   95SOL    MW4  455   1.737   3.991   0.426  0.3127  0.2475  0.3564
   96SOL     OW  456   1.361   4.111   0.482 -0.0300  0.2911 -0.7541
   96SOL    HW2  457   1.307   4.037   0.454  0.7359 -0.2063 -0.9230
   96SOL    HW3  458   1.307   4.188   0.464 -0.5415 -0.1822 -1.2578
   96SOL    MW4  459   1.347   4.111   0.476  0.0036  0.1636 -0.8429
   97SOL     OW  460   1.841   2.748   0.333  0.0730 -0.5688  0.0662
   97SOL    HW2  461   1.822   2.663   0.374 -0.3326 -1.3751 -1.7274
   97SOL    HW3  462   1.769   2.761   0.271 -0.4329  1.6111  1.0831
   97SOL    MW4  463   1.829   2.738   0.330 -0.0472 -0.3877 -0.0363
   98SOL     OW  464   2.032   3.632   0.208 -0.0165  0.3688 -0.0074
   98SOL    HW2  465   2.051   3.680   0.128  0.3124 -0.0279 -0.1722
   98SOL    HW3  466   2.095   3.664   0.272  3.2295 -2.9941 -1.3443
   98SOL    MW4  467   2.043   3.642   0.206  0.4551 -0.1276 -0.2055
   99SOL     OW  468   1.340   3.137   0.488 -0.0648 -0.1377 -0.1065
   99SOL    HW2  469   1.256   3.102   0.458  0.0931 -0.7428  0.1512
   99SOL    HW3  470   1.361   3.206   0.425 -0.0874 -0.9190 -0.9836
   99SOL    MW4  471   1.331   3.142   0.475 -0.0468 -0.3207 -0.1882
  100SOL     OW  472   1.426   3.344   0.309 -0.3099  0.2325 -0.5217
  100SOL    HW2  473   1.361   3.293   0.259 -0.1390  0.4729 -0.9958
  100SOL    HW3  474   1.508   3.297   0.296 -0.3229  0.1280 -0.2178
  100SOL    MW4  475   1.428   3.331   0.300 -0.2890  0.2506 -0.5442
  101SOL     OW  476   0.936   3.932   0.428  0.0483  0.3922  0.6845
  101SOL    HW2  477   0.917   3.917   0.520 -0.1301  1.4634  0.8306
  101SOL    HW3  478   0.920   4.026   0.415  1.7100  0.5900 -0.0377
  101SOL    MW4  479   0.931   3.942   0.438  0.2440  0.5598  0.6085
  102SOL     OW  480   2.212   4.516   0.425  0.2044 -0.3817  0.6974
  102SOL    HW2  481   2.294   4.471   0.446  0.0725 -0.5315  0.8846
  102SOL    HW3  482   2.144   4.449   0.435  0.2836 -0.8364 -1.5095
  102SOL    MW4  483   2.214   4.501   0.429  0.1974 -0.4616  0.4310
  103SOL     OW  484   1.962   4.367   0.503 -0.1494 -0.0859 -0.0838
  103SOL    HW2  485   1.870   4.374   0.479 -0.3849 -0.5217  0.6841
  103SOL    HW3  486   1.987   4.278   0.477 -0.3860 -0.5349  1.2112
  103SOL    MW4  487   1.953   4.356   0.496 -0.2116 -0.2022  0.1884
  104SOL     OW  488   1.678   0.003   0.280  0.3805 -0.3338  0.3015
  104SOL    HW2  489   1.771   0.017   0.260  0.1982  2.3272  1.1638
  104SOL    HW3  490   1.677  -0.075   0.335  1.8315 -1.9653 -1.8798
  104SOL    MW4  491   1.690  -0.006   0.284  0.5479 -0.1979  0.1275
  105SOL     OW  492   1.426   0.150   0.248  0.0886 -0.2823 -0.2098
  105SOL    HW2  493   1.451   0.235   0.210 -0.8066 -0.7361 -1.8939
  105SOL    HW3  494   1.498   0.092   0.225  0.9825  0.1391  1.4582
  105SOL    MW4  495   1.439   0.154   0.240  0.0883 -0.2866 -0.2119
  106SOL     OW  496   1.996   0.295   0.447 -0.2081 -0.0585  0.1334
  106SOL    HW2  497   1.904   0.272   0.434 -0.1106 -0.9748  1.0879
  106SOL    HW3  498   2.017   0.351   0.371 -1.7548  0.7942  0.3128
  106SOL    MW4  499   1.987   0.300   0.435 -0.3992 -0.0669  0.2830
  107SOL     OW  500   2.186   1.468   0.525  0.2159  0.4694  0.1895
  107SOL    HW2  501   2.117   1.403   0.543  0.2897  0.3950  0.2036
  107SOL    HW3  502   2.151   1.521   0.454 -0.7267  1.7154  1.5358
  107SOL    MW4  503   2.172   1.466   0.518  0.1013  0.6241  0.3690
  108SOL     OW  504   2.201   0.921   0.514  0.3373 -0.2454  0.5148
  108SOL    HW2  505   2.284   0.970   0.511  0.4215 -0.4067  0.2165
  108SOL    HW3  506   2.213   0.849   0.452 -0.2219  0.0316  0.0842
  108SOL    MW4  507   2.214   0.918   0.505  0.2744 -0.2301  0.4186
  109SOL     OW  508   1.976   1.081   0.497  0.4555  0.0336  0.3614
  109SOL    HW2  509   1.900   1.022   0.494  1.3141 -1.1072  0.9416
  109SOL    HW3  510   2.050   1.025   0.517  1.4486  1.1758 -0.0283
  109SOL    MW4  511   1.975   1.066   0.499  0.6999  0.0337  0.3866
  110SOL     OW  512   2.442   1.334   0.497  0.1573  0.3080 -0.3913
  110SOL    HW2  513   2.514   1.396   0.486 -0.8984  2.1400  2.5832
  110SOL    HW3  514   2.364   1.388   0.499 -1.1294 -1.4650 -1.1241
  110SOL    MW4  515   2.441   1.349   0.496 -0.1516  0.3159 -0.0956
  111SOL     OW  516   2.084   1.656   0.352 -0.1258  0.2903  0.1406
  111SOL    HW2  517   2.082   1.672   0.258 -0.6388  1.1100  0.2888
  111SOL    HW3  518   2.108   1.740   0.391  0.8601 -0.2447  0.6986
  111SOL    MW4  519   2.087   1.669   0.345 -0.0634  0.3279  0.2338
  112SOL     OW  520   1.609   1.964   0.445  0.0145  0.3670 -0.5682
  112SOL    HW2  521   1.673   2.005   0.387 -0.1196  1.5224  0.0758
  112SOL    HW3  522   1.524   1.995   0.413 -0.0555  1.1008  0.2781
  112SOL    MW4  523   1.606   1.974   0.433 -0.0124  0.6161 -0.3715
  113SOL     OW  524   2.237   2.349   0.417 -0.1243  0.1952  0.1797
  113SOL    HW2  525   2.287   2.426   0.393 -2.0260  1.3869 -0.0647
  113SOL    HW3  526   2.205   2.367   0.505 -1.7108  0.3054 -0.3967
  113SOL    MW4  527   2.239   2.361   0.425 -0.5846  0.3669  0.0714
  114SOL     OW  528   1.704   3.271   0.283  0.2353 -0.4745  0.3782
  114SOL    HW2  529   1.768   3.338   0.306 -0.7804  1.2039 -1.4596
  114SOL    HW3  530   1.756   3.191   0.274  2.0177  0.7320 -0.5478
  114SOL    MW4  531   1.719   3.269   0.285  0.3364 -0.0942  0.0136
  115SOL     OW  532   1.533   2.739   0.268  0.1704 -0.0935 -0.0155
  115SOL    HW2  533   1.438   2.747   0.268  0.2021  0.3645 -1.2707
  115SOL    HW3  534   1.564   2.806   0.329 -0.3246 -0.5563  0.7517
  115SOL    MW4  535   1.525   2.749   0.276  0.1092 -0.0944 -0.0799
  116SOL     OW  536   1.250   2.749   0.337 -0.4465  0.1960 -0.3035
  116SOL    HW2  537   1.220   2.833   0.371 -0.7493  0.4104 -1.0868
  116SOL    HW3  538   1.174   2.715   0.288 -0.3302 -0.5311  0.0187
  116SOL    MW4  539   1.236   2.755   0.335 -0.4711  0.1285 -0.3643
  117SOL     OW  540   1.334   1.765   0.246 -0.1230  0.2607  0.4426
  117SOL    HW2  541   1.301   1.693   0.193 -0.5683  0.2313  0.7573
  117SOL    HW3  542   1.420   1.735   0.276  0.1518  0.3040 -0.3036
  117SOL    MW4  543   1.341   1.752   0.243 -0.1456  0.2625  0.3857
  118SOL     OW  544   3.606   2.241   0.450 -0.4564 -0.3559 -0.4253
  118SOL    HW2  545   3.553   2.320   0.459 -0.6173 -0.7045  1.9244
  118SOL    HW3  546   3.545   2.175   0.418 -0.3361  0.4361 -2.3403
  118SOL    MW4  547   3.591   2.243   0.447 -0.4618 -0.2973 -0.3679
  119SOL     OW  548   2.083   2.638   0.495  0.1794 -0.4820 -0.1412
  119SOL    HW2  549   2.088   2.579   0.570  1.7297 -0.6929 -0.4015
  119SOL    HW3  550   2.169   2.632   0.454 -0.7380 -0.5990 -2.1139
  119SOL    MW4  551   2.095   2.629   0.499  0.2630 -0.5255 -0.4358
  120SOL     OW  552   1.625   2.197   0.265 -0.0993  0.2973 -0.0291
  120SOL    HW2  553   1.719   2.204   0.251 -0.5590  1.3254 -2.9806
  120SOL    HW3  554   1.594   2.288   0.267 -1.1232 -0.0427  0.1678
  120SOL    MW4  555   1.633   2.210   0.263 -0.2950  0.3881 -0.3925
  121SOL     OW  556   1.833   3.056   0.438 -0.5856 -0.3814 -0.1459
  121SOL    HW2  557   1.832   3.112   0.515 -0.9932  0.9478 -1.1051
  121SOL    HW3  558   1.747   3.014   0.437  0.1767 -2.0313  1.2811
  121SOL    MW4  559   1.822   3.058   0.448 -0.5388 -0.4239 -0.0841
  122SOL     OW  560   2.145   3.309   0.463 -0.2251 -0.0709  0.5244
  122SOL    HW2  561   2.222   3.360   0.437 -1.1761  1.2837  0.3127
  122SOL    HW3  562   2.159   3.290   0.556  1.1064 -1.1989  0.1195
  122SOL    MW4  563   2.157   3.313   0.472 -0.1748 -0.0410  0.4430
  123SOL     OW  564   1.782   3.738   0.339 -0.1946 -0.0882 -0.0793
  123SOL    HW2  565   1.796   3.673   0.408 -0.7380 -1.1837 -0.9900
  123SOL    HW3  566   1.860   3.733   0.284  1.0184  1.9788  1.3717
  123SOL    MW4  567   1.794   3.728   0.341 -0.1062  0.0403 -0.0080
  124SOL     OW  568   1.563   4.208   0.324  0.2678  0.3763 -0.1000
  124SOL    HW2  569   1.492   4.169   0.376  0.5440 -1.2289 -0.8935
  124SOL    HW3  570   1.528   4.215   0.236  0.3182  1.7079 -0.0228
  124SOL    MW4  571   1.549   4.204   0.319  0.3110  0.3405 -0.1945
  125SOL     OW  572   1.698   4.410   0.451  0.3264 -0.2611  0.2206
  125SOL    HW2  573   1.663   4.423   0.539  1.6891 -0.9393  0.8715
  125SOL    HW3  574   1.635   4.352   0.408 -0.8214  0.8092  0.4318
  125SOL    MW4  575   1.685   4.404   0.457  0.3548 -0.2089  0.3344
  126SOL     OW  576   1.198   4.569   0.367  0.3221 -0.0518 -0.2478
  126SOL    HW2  577   1.251   4.617   0.302  0.1871  0.6933  0.1936
  126SOL    HW3  578   1.108   4.593   0.347  0.2575 -0.0806  0.0145
  126SOL    MW4  579   1.193   4.578   0.356  0.2956  0.0424 -0.1549
  127SOL     OW  580   2.566   0.080   0.445 -0.3108  0.2900  0.0403
  127SOL    HW2  581   2.471   0.065   0.443 -0.1844 -0.4237 -0.7790
  127SOL    HW3  582   2.604   0.001   0.407  0.5077  1.4710 -1.6375
  127SOL    MW4  583   2.558   0.068   0.440 -0.1862  0.3517 -0.2892
  128SOL     OW  584   1.976   0.024   0.230  0.6254  0.5812  0.0888
  128SOL    HW2  585   2.008   0.075   0.156 -0.5121  0.3722 -0.5564
  128SOL    HW3  586   2.038  -0.049   0.238  0.7514  0.6125 -0.6331
  128SOL    MW4  587   1.989   0.021   0.221  0.4919  0.5574 -0.0916
  129SOL     OW  588   2.718   0.904   0.450  0.2310  0.3132  0.1710
  129SOL    HW2  589   2.745   0.813   0.437  1.3099  0.5462  0.7193
  129SOL    HW3  590   2.795   0.956   0.429 -0.3790  1.1120 -0.1473
  129SOL    MW4  591   2.731   0.899   0.445  0.2928  0.4493  0.2014
  130SOL     OW  592   2.793   0.591   0.358  0.0168  0.7960  0.2880
  130SOL    HW2  593   2.733   0.530   0.400  0.5503 -0.6428 -1.0019
  130SOL    HW3  594   2.779   0.577   0.264 -0.4476  3.2500 -0.0414
  130SOL    MW4  595   2.783   0.581   0.351  0.0260  0.9300  0.0744
  131SOL     OW  596   3.383   0.730   0.391  0.2604  0.1820 -0.0499
  131SOL    HW2  597   3.405   0.823   0.399  0.8228  0.2187 -1.6763
  131SOL    HW3  598   3.291   0.725   0.415  0.7500  0.8122  2.0846
  131SOL    MW4  599   3.374   0.742   0.395  0.3994  0.2700  0.0171
  132SOL     OW  600   3.126   0.799   0.501 -0.3359 -0.0003  0.2490
  132SOL    HW2  601   3.122   0.829   0.592  0.8825  0.4341  0.1742
  132SOL    HW3  602   3.077   0.866   0.452 -1.8783 -0.7755  0.6970
  132SOL    MW4  603   3.119   0.812   0.507 -0.3786 -0.0453  0.2983
  133SOL     OW  604   2.970   1.062   0.465 -0.3729  0.1899 -0.1855
  133SOL    HW2  605   2.951   1.109   0.546  0.6084  0.4715 -0.1114
  133SOL    HW3  606   3.008   1.129   0.407  0.3624 -0.3482 -0.3316
  133SOL    MW4  607   2.973   1.077   0.468 -0.1464  0.1560 -0.1950
  134SOL     OW  608   2.633   1.527   0.522 -0.6574  0.3022 -0.3036
  134SOL    HW2  609   2.635   1.566   0.610 -0.6536  1.2075 -0.6967
  134SOL    HW3  610   2.724   1.506   0.503 -0.4567  1.4852 -0.6880
  134SOL    MW4  611   2.645   1.530   0.531 -0.6304  0.5777 -0.4063
  135SOL     OW  612   3.040   0.527   0.470 -0.0987 -0.0252 -0.2842
  135SOL    HW2  613   3.068   0.618   0.482 -1.6193  0.4834 -0.4612
  135SOL    HW3  614   2.963   0.534   0.413 -1.1584 -1.2930  0.9717
  135SOL    MW4  615   3.034   0.540   0.464 -0.4389 -0.1255 -0.1419
  136SOL     OW  616   2.133   1.917   0.468 -0.3178  0.1714 -0.5466
  136SOL    HW2  617   2.210   1.965   0.436  1.2992 -1.5933  0.5461
  136SOL    HW3  618   2.097   1.973   0.537  0.6264  0.5394 -0.3444
  136SOL    MW4  619   2.139   1.931   0.473  0.0200 -0.0129 -0.3758
  137SOL     OW  620   1.808   1.545   0.448  0.0361  0.2940  0.1004
  137SOL    HW2  621   1.801   1.577   0.538 -0.3787  1.2496 -0.2667
  137SOL    HW3  622   1.879   1.597   0.410  0.1963 -0.0919 -0.1311
  137SOL    MW4  623   1.817   1.556   0.454  0.0025  0.3692  0.0214
  138SOL     OW  624   2.360   2.105   0.441  0.4402 -1.0430 -0.3739
  138SOL    HW2  625   2.306   2.182   0.422 -0.7692 -1.5986  0.7359
  138SOL    HW3  626   2.445   2.125   0.401 -0.1088  0.5062 -0.8095
  138SOL    MW4  627   2.364   2.117   0.433  0.2081 -0.9120 -0.2849
  139SOL     OW  628   2.654   2.194   0.408 -0.3083  0.4778 -0.7965
  139SOL    HW2  629   2.700   2.141   0.343 -1.1730 -1.3112  0.0123
  139SOL    HW3  630   2.695   2.172   0.491 -1.0237  0.6796 -0.3837
  139SOL    MW4  631   2.666   2.184   0.410 -0.5169  0.2685 -0.6353
  140SOL     OW  632   2.399   2.885   0.468 -0.3084  0.0783 -0.2744
  140SOL    HW2  633   2.488   2.919   0.461  1.3768 -4.0627 -0.2264
  140SOL    HW3  634   2.383   2.879   0.562 -0.1694 -0.4378 -0.2882
  140SOL    MW4  635   2.409   2.889   0.479 -0.0675 -0.5364 -0.2699
  141SOL     OW  636   1.763   2.525   0.485  0.0422 -0.5023  0.2629
  141SOL    HW2  637   1.683   2.504   0.437  0.3374  0.2047 -0.5391
  141SOL    HW3  638   1.827   2.462   0.453  0.7563  1.1869 -1.6804
  141SOL    MW4  639   1.761   2.514   0.475  0.1752 -0.1864 -0.0994
  142SOL     OW  640   2.162   3.011   0.460 -0.3178 -0.3630 -0.1656
  142SOL    HW2  641   2.161   3.100   0.425 -0.0646 -0.3003 -0.0103
  142SOL    HW3  642   2.247   2.975   0.432 -0.3842 -0.5278 -0.1564
  142SOL    MW4  643   2.173   3.018   0.451 -0.2933 -0.3765 -0.1439
  143SOL     OW  644   2.207   3.755   0.391 -0.3411  0.0463 -0.0709
  143SOL    HW2  645   2.294   3.722   0.415  0.1562  0.7158 -0.9383
  143SOL    HW3  646   2.170   3.785   0.474  0.8983  1.2572  0.0652
  143SOL    MW4  647   2.214   3.755   0.405 -0.1118  0.2944 -0.1674
  144SOL     OW  648   2.494   3.664   0.488 -0.1582  0.1754 -0.0525
  144SOL    HW2  649   2.489   3.646   0.581  0.8955 -1.6288 -0.3191
  144SOL    HW3  650   2.468   3.582   0.446  2.1035  0.0488 -1.3338
  144SOL    MW4  651   2.490   3.651   0.494  0.2794 -0.0794 -0.2567
  145SOL     OW  652   1.504   3.629   0.340 -0.4033 -0.3835  0.4282
  145SOL    HW2  653   1.494   3.535   0.323  0.4997 -0.4899  0.4336
  145SOL    HW3  654   1.590   3.650   0.304 -0.3762  0.3370  0.9111
  145SOL    MW4  655   1.514   3.619   0.333 -0.2807 -0.3026  0.4926
  146SOL     OW  656   1.899   3.431   0.377 -0.1869 -0.0750 -0.0563
  146SOL    HW2  657   1.986   3.398   0.401 -0.2505 -0.3818 -0.2362
  146SOL    HW3  658   1.913   3.474   0.293  0.1484  1.5055  0.7926
  146SOL    MW4  659   1.913   3.432   0.369 -0.1509  0.0930  0.0320
  147SOL     OW  660   2.256   4.002   0.302 -0.0200 -0.2084 -0.3401
  147SOL    HW2  661   2.185   4.049   0.347  0.2315 -0.9541  0.8522
  147SOL    HW3  662   2.235   3.909   0.316  0.7505 -0.4340 -0.6926
  147SOL    MW4  663   2.244   3.996   0.310  0.1149 -0.3364 -0.2294
  148SOL     OW  664   2.016   4.084   0.425 -0.0028 -0.1476  0.2982
  148SOL    HW2  665   1.921   4.082   0.417 -0.1424 -0.1012  1.8540
  148SOL    HW3  666   2.037   4.020   0.493  1.0259  0.2722  0.3993
  148SOL    MW4  667   2.006   4.075   0.433  0.1144 -0.0863  0.5169
  149SOL     OW  668   2.456   4.080   0.454  0.3814 -0.3909 -0.1400
  149SOL    HW2  669   2.444   4.174   0.443  1.1547 -0.4225 -1.3017
  149SOL    HW3  670   2.384   4.040   0.405  1.1629 -0.4332 -1.2762
  149SOL    MW4  671   2.445   4.087   0.446  0.5865 -0.4010 -0.4432
  150SOL     OW  672   2.642   3.884   0.408  0.2246 -0.4036 -0.9211
  150SOL    HW2  673   2.597   3.802   0.429  0.7622 -0.4036  0.2712
  150SOL    HW3  674   2.574   3.951   0.410 -0.1032 -0.7259 -1.2766
  150SOL    MW4  675   2.627   3.882   0.411  0.2522 -0.4461 -0.8107
  151SOL     OW  676   2.703   4.043   0.800  0.2850 -0.0067 -0.1309
  151SOL    HW2  677   2.719   4.046   0.706  0.2607 -2.0152 -0.2060
  151SOL    HW3  678   2.691   4.135   0.825  1.8196  0.6687 -1.8019
  151SOL    MW4  679   2.703   4.056   0.791  0.4842 -0.1826 -0.3612
  152SOL     OW  680   2.626   0.343   0.453 -0.0670 -0.0372  0.2111
  152SOL    HW2  681   2.537   0.378   0.443  0.3274  0.5842 -1.2979
  152SOL    HW3  682   2.616   0.249   0.436 -0.6053 -0.1472  1.1015
  152SOL    MW4  683   2.613   0.335   0.450 -0.0863  0.0303  0.1294
  153SOL     OW  684   1.710   0.222   0.449 -0.3808  0.1753 -0.0779
  153SOL    HW2  685   1.671   0.150   0.400  1.7198  0.1650 -1.8404
  153SOL    HW3  686   1.708   0.193   0.540  2.3194 -3.0995 -0.9569
  153SOL    MW4  687   1.705   0.209   0.455  0.2526 -0.2581 -0.4264
  154SOL     OW  688   3.011   4.376   0.421  0.1013 -0.3343 -0.1583
  154SOL    HW2  689   2.983   4.293   0.382 -1.2128  0.7621 -1.5978
  154SOL    HW3  690   2.938   4.403   0.477  0.6513 -0.3039  0.5472
  154SOL    MW4  691   2.998   4.369   0.423  0.0005 -0.1850 -0.2551
  155SOL     OW  692   2.433   1.041   0.483 -0.0787  0.4679  0.1634
  155SOL    HW2  693   2.521   1.005   0.493 -0.1080 -0.1427 -1.5723
  155SOL    HW3  694   2.447   1.134   0.463  0.2121  0.2489 -0.6903
  155SOL    MW4  695   2.447   1.049   0.481 -0.0441  0.3583 -0.1782
  156SOL     OW  696   3.714   0.828   0.538  0.1764 -0.2215  0.2763
  156SOL    HW2  697   3.703   0.894   0.470 -0.7590 -0.6452  0.0125
  156SOL    HW3  698   3.674   0.868   0.616 -1.0197 -0.7600 -0.0601
  156SOL    MW4  699   3.707   0.842   0.540 -0.1051 -0.3484  0.1971
  157SOL     OW  700   2.917   1.471   0.483  0.5651 -0.2557 -0.6436
  157SOL    HW2  701   2.929   1.417   0.560  1.6275  0.7488 -0.0888
  157SOL    HW3  702   2.972   1.548   0.498 -1.2740  1.2224 -1.1828
  157SOL    MW4  703   2.926   1.474   0.495  0.4628  0.0719 -0.6416
  158SOL     OW  704   3.441   1.030   0.379  0.2346 -0.4105  0.5174
  158SOL    HW2  705   3.409   1.055   0.293 -3.3820 -1.5491  1.4054
  158SOL    HW3  706   3.535   1.045   0.376 -0.0674  1.1943 -3.0272
  158SOL    MW4  707   3.449   1.035   0.368 -0.2823 -0.3489  0.1669
  159SOL     OW  708   3.159   1.653   0.523  0.4537 -0.2106 -0.1951
  159SOL    HW2  709   3.175   1.736   0.478  0.3727 -0.2771 -0.3452
  159SOL    HW3  710   3.225   1.593   0.488 -0.2079 -0.5223 -0.9094
  159SOL    MW4  711   3.170   1.656   0.513  0.3560 -0.2605 -0.3092
  160SOL     OW  712   2.449   4.659   0.843 -0.2155  0.1753 -0.1970
  160SOL    HW2  713   2.533   4.699   0.820  0.6520 -1.6623 -0.3132
  160SOL    HW3  714   2.442   4.671   0.938 -0.7367  2.0094 -0.4518
  160SOL    MW4  715   2.459   4.666   0.852 -0.1698  0.1748 -0.2460
  161SOL     OW  716   3.069   2.061   0.584 -0.1699  0.1049  0.4442
  161SOL    HW2  717   2.975   2.077   0.589 -0.6666 -2.3367  0.0154
  161SOL    HW3  718   3.093   2.029   0.671 -0.0744 -0.7076  0.1328
  161SOL    MW4  719   3.060   2.059   0.596 -0.2227 -0.3242  0.3465
  162SOL     OW  720   2.582   2.450   0.442 -0.0921 -0.0539 -0.8417
  162SOL    HW2  721   2.599   2.356   0.441 -3.1035 -0.7087  1.2854
  162SOL    HW3  722   2.669   2.490   0.438  1.5298 -3.0029  1.9620
  162SOL    MW4  723   2.595   2.443   0.442 -0.2759 -0.5293 -0.1912
  163SOL     OW  724   3.109   1.284   0.359  0.4043 -0.2967 -0.0749
  163SOL    HW2  725   3.039   1.348   0.365  0.3978 -0.3601  0.5031
  163SOL    HW3  726   3.189   1.336   0.360  0.4077 -0.3172  0.6986
  163SOL    MW4  727   3.111   1.299   0.360  0.4039 -0.3077  0.1034
  164SOL     OW  728   2.361   2.616   0.408 -0.2546  0.4110  0.2057
  164SOL    HW2  729   2.374   2.707   0.432 -1.4189  0.2925  1.3736
  164SOL    HW3  730   2.447   2.576   0.415  0.3689  1.5456 -0.8996
  164SOL    MW4  731   2.374   2.622   0.412 -0.3259  0.5450  0.2140
  165SOL     OW  732   2.594   3.277   0.463 -0.2793  0.0031 -0.7276
  165SOL    HW2  733   2.669   3.317   0.421 -0.0264  0.2483 -0.0577
  165SOL    HW3  734   2.614   3.280   0.557 -1.3678  0.5810 -0.4973
  165SOL    MW4  735   2.606   3.283   0.470 -0.3893  0.1118 -0.6088
  166SOL     OW  736   3.123   3.508   0.671 -0.1422  0.0661 -0.7464
  166SOL    HW2  737   3.142   3.444   0.603  1.6111 -0.3902  0.1305
  166SOL    HW3  738   3.199   3.566   0.671 -1.0313  1.2545 -0.5255
  166SOL    MW4  739   3.136   3.507   0.662 -0.0281  0.1626 -0.6016
  167SOL     OW  740   2.967   3.215   0.451  0.0701 -0.1281  0.1191
  167SOL    HW2  741   2.919   3.193   0.531  0.1726  0.1180  0.2479
  167SOL    HW3  742   2.994   3.130   0.415  1.4992 -0.1674  1.2382
  167SOL    MW4  743   2.964   3.201   0.456  0.2723 -0.1006  0.2838
  168SOL     OW  744   2.800   3.424   0.347 -0.1286  0.2006  0.1140
  168SOL    HW2  745   2.818   3.516   0.366  0.5312  0.0629  0.1732
  168SOL    HW3  746   2.871   3.376   0.390 -1.2331 -0.4391  1.2478
  168SOL    MW4  747   2.812   3.430   0.355 -0.1874  0.0982  0.2714
  169SOL     OW  748   1.565   2.952   0.452 -0.2350 -0.0764 -0.0247
  169SOL    HW2  749   1.491   3.012   0.463 -0.5834 -0.0995 -2.0579
  169SOL    HW3  750   1.566   2.900   0.533  0.3171  2.8807  1.9626
  169SOL    MW4  751   1.555   2.953   0.464 -0.2081  0.3107 -0.0307
  170SOL     OW  752   3.635   3.074   0.474  0.1939  0.0662 -0.6077
  170SOL    HW2  753   3.674   3.160   0.455 -0.9677  0.8313  0.3845
  170SOL    HW3  754   3.699   3.032   0.531  0.7850  0.2548 -1.1158
  170SOL    MW4  755   3.649   3.080   0.479  0.1185  0.1924 -0.5438
  171SOL     OW  756   2.851   3.686   0.425 -0.3088  0.2103 -0.0131
  171SOL    HW2  757   2.791   3.758   0.406  0.6300  1.5430  1.8884
  171SOL    HW3  758   2.835   3.666   0.517  1.3064 -0.2023  0.1952
  171SOL    MW4  759   2.841   3.693   0.434  0.0284  0.3314  0.2653
  172SOL     OW  760   3.084   2.987   0.331 -0.1680 -0.0478 -0.1914
  172SOL    HW2  761   3.152   2.988   0.398  0.4921  0.5060 -0.8668
  172SOL    HW3  762   3.132   2.984   0.248 -0.9800 -1.1631 -0.6325
  172SOL    MW4  763   3.099   2.986   0.329 -0.1879 -0.1218 -0.3387
  173SOL     OW  764   3.649   4.067   0.499  0.5957  0.4218  0.2130
  173SOL    HW2  765   3.589   4.125   0.453  1.0106  0.3509 -0.4220
  173SOL    HW3  766   3.625   3.979   0.470  1.4662  0.4447 -0.5864
  173SOL    MW4  767   3.638   4.063   0.489  0.7653  0.4153  0.0237
  174SOL     OW  768   2.753   4.356   0.548  0.7469 -0.4191  0.0608
  174SOL    HW2  769   2.795   4.378   0.631  0.0301 -2.4398  1.0055
  174SOL    HW3  770   2.755   4.260   0.545 -4.0305 -0.6438  0.3080
  174SOL    MW4  771   2.759   4.346   0.558  0.0222 -0.7153  0.2180
  175SOL     OW  772   3.293   4.489   0.509 -0.3954 -0.0531  0.3047
  175SOL    HW2  773   3.362   4.448   0.456  0.6087 -0.0132  1.5463
  175SOL    HW3  774   3.212   4.450   0.478  0.2203 -0.3560 -0.9535
  175SOL    MW4  775   3.291   4.479   0.498 -0.1817 -0.0882  0.3025
  176SOL     OW  776   2.223   0.121   0.454  0.1535 -0.2500 -0.0684
  176SOL    HW2  777   2.136   0.158   0.446 -0.3769 -0.9147  2.2268
  176SOL    HW3  778   2.212   0.028   0.434  0.6118 -0.0790 -1.1692
  176SOL    MW4  779   2.210   0.113   0.451  0.1438 -0.3151  0.0892
  177SOL     OW  780   3.117   3.780   0.456 -0.5641  0.1825  0.6173
  177SOL    HW2  781   3.032   3.737   0.454 -0.1829 -0.6749  1.8280
  177SOL    HW3  782   3.171   3.731   0.394 -0.7743  0.3417  0.3077
  177SOL    MW4  783   3.113   3.768   0.448 -0.5417  0.0906  0.7362
  178SOL     OW  784   2.356   0.407   0.469  0.0782 -0.0882  0.3684
  178SOL    HW2  785   2.289   0.476   0.467 -0.6376 -0.8182 -1.4106
  178SOL    HW3  786   2.307   0.326   0.482  0.6375 -0.5948 -0.6511
  178SOL    MW4  787   2.341   0.406   0.470  0.0579 -0.2513 -0.0008
  179SOL     OW  788   3.542   0.387   0.306 -0.1198 -0.3486 -0.0049
  179SOL    HW2  789   3.481   0.366   0.377 -0.8431  0.4338 -0.3790
  179SOL    HW3  790   3.622   0.338   0.327 -0.5359 -0.6011  1.0189
  179SOL    MW4  791   3.544   0.378   0.318 -0.2699 -0.2787  0.0808
  180SOL     OW  792   3.280   0.098   0.571 -0.4611  0.0771  0.1940
  180SOL    HW2  793   3.269   0.007   0.544  1.3109 -0.2018  0.3092
  180SOL    HW3  794   3.208   0.114   0.632  1.2148 -2.3605  2.9330
  180SOL    MW4  795   3.269   0.088   0.576 -0.0062 -0.2813  0.5705
  181SOL     OW  796   3.723   0.593   0.232 -0.1864  0.1438  0.0614
  181SOL    HW2  797   3.682   0.509   0.213  1.0487 -0.3986 -0.2731
  181SOL    HW3  798   3.816   0.572   0.243  0.2390  1.5623 -0.6937
  181SOL    MW4  799   3.730   0.579   0.231  0.0329  0.2594 -0.0824
  182SOL     OW  800   3.269   0.360   0.498 -0.3192 -0.0718  0.1123
  182SOL    HW2  801   3.252   0.266   0.504 -1.6849  0.0717 -1.1759
  182SOL    HW3  802   3.182   0.400   0.492  0.2354  1.3081  0.8971
  182SOL    MW4  803   3.256   0.353   0.498 -0.4263  0.1292  0.0459
  183SOL     OW  804   3.551   1.745   0.393  0.1703 -0.3147 -0.2029
  183SOL    HW2  805   3.532   1.747   0.486  1.0950 -0.3633 -0.0068
  183SOL    HW3  806   3.523   1.831   0.361 -3.0090 -1.3761 -0.4872
  183SOL    MW4  807   3.545   1.757   0.401 -0.1271 -0.4611 -0.2145
  184SOL     OW  808   3.178   1.885   0.371  0.3382 -0.3197 -0.1637
  184SOL    HW2  809   3.129   1.953   0.416  0.6357  0.4269 -0.9431
  184SOL    HW3  810   3.125   1.865   0.293  0.7539 -0.2419 -0.4714
  184SOL    MW4  811   3.164   1.891   0.366  0.4325 -0.2109 -0.3071
  185SOL     OW  812   3.704   1.032   0.365 -0.1761 -0.0763  0.2113
  185SOL    HW2  813   3.731   0.991   0.283  0.6651 -0.6238  0.7591
  185SOL    HW3  814   3.774   1.094   0.385 -0.4334  0.1335  0.4662
  185SOL    MW4  815   3.717   1.035   0.357 -0.0992 -0.1208  0.3172
  186SOL     OW  816   3.415   2.005   0.441 -0.1967  0.6845 -0.2082
  186SOL    HW2  817   3.325   1.978   0.424  0.3383 -0.9985 -0.4003
  186SOL    HW3  818   3.419   2.018   0.536  0.1917 -2.4023  0.2403
  186SOL    MW4  819   3.403   2.003   0.451 -0.0749  0.0553 -0.1743
  187SOL     OW  820   3.205   2.314   0.580  0.1079  0.2294 -0.1638
  187SOL    HW2  821   3.166   2.229   0.565 -2.4680  1.3574 -0.0876
  187SOL    HW3  822   3.268   2.300   0.651  1.9559 -2.1869 -2.2014
  187SOL    MW4  823   3.209   2.301   0.587  0.0119  0.0594 -0.4227
  188SOL     OW  824   3.801   2.785   0.230 -0.0471 -0.2277  0.5761
  188SOL    HW2  825   3.775   2.719   0.294 -0.0142 -0.5883  0.2193
  188SOL    HW3  826   3.727   2.845   0.226 -1.3585 -1.8695 -1.2694
  188SOL    MW4  827   3.788   2.784   0.238 -0.2160 -0.4919  0.2856
  189SOL     OW  828   2.373   3.444   0.365  0.2305  0.2908 -0.0890
  189SOL    HW2  829   2.445   3.391   0.397 -0.6554 -1.1774 -0.4696
  189SOL    HW3  830   2.378   3.438   0.270 -0.4606  0.0740 -0.1180
  189SOL    MW4  831   2.383   3.436   0.357  0.0224  0.0682 -0.1430
  190SOL     OW  832   3.313   2.966   0.514 -0.1520 -0.1602 -1.0265
  190SOL    HW2  833   3.371   2.892   0.499 -0.0027 -0.2815  0.0952
  190SOL    HW3  834   3.371   3.039   0.537 -0.4665 -0.4890  0.9056
  190SOL    MW4  835   3.328   2.966   0.515 -0.1736 -0.2198 -0.6236
  191SOL     OW  836   2.858   2.806   0.739 -0.0961  0.3658 -0.1204
  191SOL    HW2  837   2.863   2.785   0.646  0.4538  0.3150 -0.0817
  191SOL    HW3  838   2.938   2.768   0.776 -0.5078  0.0350  0.4382
  191SOL    MW4  839   2.869   2.798   0.732 -0.0777  0.3154 -0.0416
  192SOL     OW  840   2.674   0.105   0.716 -0.2102 -0.1762  0.4506
  192SOL    HW2  841   2.684   0.201   0.719 -0.1378 -0.1575 -0.1954
  192SOL    HW3  842   2.643   0.088   0.627 -0.2762 -0.7523  0.5866
  192SOL    MW4  843   2.671   0.116   0.704 -0.2093 -0.2498  0.3833
  193SOL     OW  844   3.532   3.788   0.439  0.0212 -0.0577  0.5213
  193SOL    HW2  845   3.475   3.764   0.513 -0.9194  0.4530 -0.0271
  193SOL    HW3  846   3.498   3.737   0.365  0.9760 -0.5829  0.4417
  193SOL    MW4  847   3.520   3.778   0.439  0.0231 -0.0594  0.4385
  194SOL     OW  848   3.809   3.584   0.526  0.4162 -0.0369  0.2192
  194SOL    HW2  849   3.767   3.598   0.611  0.3056 -0.3681  0.2195
  194SOL    HW3  850   3.740   3.604   0.462  0.4736  0.1254  0.2057
  194SOL    MW4  851   3.794   3.589   0.529  0.4094 -0.0591  0.2174
  195SOL     OW  852   3.751   2.678   0.527  0.3613 -0.1200  0.6178
  195SOL    HW2  853   3.843   2.659   0.510  0.4761 -0.3572  1.4695
  195SOL    HW3  854   3.724   2.611   0.590 -0.4353 -0.1441  0.2543
  195SOL    MW4  855   3.760   2.666   0.533  0.2711 -0.1543  0.6822
  196SOL     OW  856   3.325   3.040   0.127 -0.1619 -0.0692 -0.2436
  196SOL    HW2  857   3.349   3.080   0.043 -0.8713  0.4644 -0.1927
  196SOL    HW3  858   3.407   3.002   0.159  0.7892  2.2936  0.2315
  196SOL    MW4  859   3.339   3.040   0.120 -0.1302  0.3128 -0.1742
  197SOL     OW  860   2.788   4.082   0.524 -0.0872 -0.0758  0.0025
  197SOL    HW2  861   2.882   4.068   0.517 -0.0552  0.1785 -0.0911
  197SOL    HW3  862   2.749   4.007   0.479  0.0854  0.5376 -1.1991
  197SOL    MW4  863   2.795   4.070   0.517 -0.0601  0.0391 -0.1684
  198SOL     OW  864   3.567   2.939   0.237 -0.2829  0.0918  0.4879
  198SOL    HW2  865   3.606   2.986   0.311  1.9275  0.1018 -0.6586
  198SOL    HW3  866   3.528   2.861   0.277 -1.7739  1.5973  2.0595
  198SOL    MW4  867   3.567   2.935   0.252 -0.1881  0.2918  0.5440
  199SOL     OW  868   3.969   0.147   0.490 -0.2923 -0.7668 -0.0001
  199SOL    HW2  869   4.038   0.208   0.465 -0.2285 -1.2808 -1.1160
  199SOL    HW3  870   4.003   0.060   0.468 -0.8521 -1.1199  0.4764
  199SOL    MW4  871   3.982   0.143   0.484 -0.3579 -0.8812 -0.0844
  200SOL     OW  872   3.743   0.219   0.367 -0.0156  0.0111 -0.7596
  200SOL    HW2  873   3.830   0.195   0.399 -0.0197  1.5142  0.4222
  200SOL    HW3  874   3.686   0.148   0.399  0.3134  0.4612  0.9034
  200SOL    MW4  875   3.747   0.206   0.376  0.0272  0.2688 -0.3843
  201SOL     OW  876   3.569   0.026   0.479  0.2040 -0.1470  0.1610
  201SOL    HW2  877   3.476   0.036   0.500  0.2147  0.3531 -0.0115
  201SOL    HW3  878   3.581  -0.067   0.465 -0.4319 -0.1167 -0.5807
  201SOL    MW4  879   3.559   0.015   0.480  0.1214 -0.0770  0.0404
  202SOL     OW  880   3.761   0.465   0.498 -0.1880 -0.0678  0.3207
  202SOL    HW2  881   3.754   0.376   0.462 -2.0451 -0.5322  1.7307
  202SOL    HW3  882   3.776   0.451   0.591 -0.3678  1.0988  0.5247
  202SOL    MW4  883   3.762   0.451   0.505 -0.4563  0.0248  0.5336
  203SOL     OW  884   3.981   0.514   0.327 -0.1632 -0.1630  0.3805
  203SOL    HW2  885   4.024   0.430   0.310 -0.8537 -0.5674  0.5975
  203SOL    HW3  886   3.930   0.498   0.407  0.1692  0.6358  0.7530
  203SOL    MW4  887   3.980   0.501   0.335 -0.2105 -0.1109  0.4583
  204SOL     OW  888   4.163   0.766   0.375  0.2234 -0.6873  0.0428
  204SOL    HW2  889   4.093   0.821   0.411  0.8456 -0.1146  0.3894
  204SOL    HW3  890   4.119   0.685   0.350 -0.4994 -0.4904  0.6376
  204SOL    MW4  891   4.148   0.763   0.377  0.2103 -0.5857  0.1670
  205SOL     OW  892   3.963   1.166   0.440  0.1225  0.5328 -0.1510
  205SOL    HW2  893   3.927   1.254   0.454 -0.2974  0.5504 -1.3413
  205SOL    HW3  894   4.058   1.180   0.436  0.1785  0.7022  1.3207
  205SOL    MW4  895   3.971   1.180   0.441  0.0744  0.5573 -0.1139
  206SOL     OW  896   3.823   1.660   0.458  0.1415 -0.5642 -0.0775
  206SOL    HW2  897   3.873   1.669   0.377 -0.3944 -0.8421 -0.4390
  206SOL    HW3  898   3.739   1.703   0.440  0.3471  0.1560  0.6217
  206SOL    MW4  899   3.818   1.667   0.445  0.0980 -0.5059 -0.0330
  207SOL     OW  900   3.774   1.365   0.497 -0.1827  0.2683 -0.0301
  207SOL    HW2  901   3.774   1.460   0.486 -0.6529  0.3032  0.2664
  207SOL    HW3  902   3.682   1.341   0.499 -0.0595 -0.2581 -0.6272
  207SOL    MW4  903   3.762   1.375   0.496 -0.2284  0.2034 -0.0698
  208SOL     OW  904   3.496   1.287   0.517 -0.2395  0.8978  0.2466
  208SOL    HW2  905   3.470   1.266   0.607  1.3680  1.0232  0.7581
  208SOL    HW3  906   3.473   1.209   0.466  0.4421  0.1413  1.0919
  208SOL    MW4  907   3.490   1.274   0.522  0.0622  0.8146  0.4256
  209SOL     OW  908   3.354   1.484   0.389 -0.4037 -0.2553  0.6366
  209SOL    HW2  909   3.413   1.419   0.428  0.0450 -0.3013 -0.1029
  209SOL    HW3  910   3.409   1.561   0.376 -0.9657  0.3228  1.6202
  209SOL    MW4  911   3.369   1.485   0.392 -0.4187 -0.1850  0.6688
  210SOL     OW  912   3.443   2.471   0.481  0.1166  0.0245 -0.2636
  210SOL    HW2  913   3.363   2.419   0.488  1.4113 -2.0159  0.1529
  210SOL    HW3  914   3.465   2.494   0.571  0.5937 -0.3811 -0.2742
  210SOL    MW4  915   3.435   2.467   0.494  0.3505 -0.2983 -0.2101
  211SOL     OW  916   4.285   2.578   0.287 -0.3026  0.1773  0.1455
  211SOL    HW2  917   4.288   2.499   0.340 -0.7575  0.3043  0.3603
  211SOL    HW3  918   4.209   2.566   0.230  0.1150  0.0922 -0.3971
  211SOL    MW4  919   4.276   2.566   0.286 -0.3080  0.1829  0.1022
  212SOL     OW  920   2.835   2.562   0.454  0.1182  0.4722  0.4154
  212SOL    HW2  921   2.853   2.654   0.437  2.9077 -0.3429 -1.2719
  212SOL    HW3  922   2.904   2.535   0.515 -0.4123 -0.6099  0.5550
  212SOL    MW4  923   2.846   2.570   0.460  0.4160  0.2217  0.2112
  213SOL     OW  924   3.334   3.710   0.613  0.3844 -0.1721  0.3207
  213SOL    HW2  925   3.263   3.746   0.561  1.2419  0.7120 -0.2487
  213SOL    HW3  926   3.344   3.771   0.686  0.4959 -0.3408  0.4461
  213SOL    MW4  927   3.326   3.723   0.616  0.5124 -0.0780  0.2622
  214SOL     OW  928   2.855   2.845   0.450  0.3299  0.4547 -0.4271
  214SOL    HW2  929   2.930   2.879   0.402  0.5815 -0.8035 -0.9345
  214SOL    HW3  930   2.779   2.891   0.413  0.4145 -1.1698 -2.6998
  214SOL    MW4  931   2.855   2.856   0.439  0.3741  0.0746 -0.7939
  215SOL     OW  932   4.422   3.070   0.530 -0.7503 -0.4790  0.1646
  215SOL    HW2  933   4.399   3.085   0.622  1.2089 -0.9922  0.7417
  215SOL    HW3  934   4.368   2.996   0.504  0.6020 -2.0244  1.6712
  215SOL    MW4  935   4.412   3.062   0.539 -0.3133 -0.7508  0.4394
  216SOL     OW  936   4.276   2.836   0.442  0.1326  0.0421 -0.3920
  216SOL    HW2  937   4.287   2.752   0.399 -0.9596  0.1632 -0.9343
  216SOL    HW3  938   4.193   2.870   0.409 -0.1644  0.6735  0.9261
  216SOL    MW4  939   4.266   2.830   0.432 -0.0505  0.1411 -0.2896
  217SOL     OW  940   4.083   3.685   0.548  0.3365 -0.1542  0.3130
  217SOL    HW2  941   3.990   3.663   0.537  0.9041 -2.3989 -0.3436
  217SOL    HW3  942   4.129   3.618   0.497  2.3548  0.3148  1.4658
  217SOL    MW4  943   4.077   3.673   0.540  0.6776 -0.3881  0.3785
  218SOL     OW  944   3.487   2.756   0.467 -0.3016 -0.2334  0.6703
  218SOL    HW2  945   3.456   2.665   0.469 -0.6506 -0.1687 -0.8309
  218SOL    HW3  946   3.581   2.749   0.482 -0.1916 -0.9328 -0.2946
  218SOL    MW4  947   3.495   2.743   0.469 -0.3328 -0.3173  0.3449
  219SOL     OW  948   3.210   3.339   0.475  0.0783 -0.2619  0.4207
  219SOL    HW2  949   3.135   3.281   0.460  0.2542 -0.8124  1.5680
  219SOL    HW3  950   3.270   3.287   0.528  0.7124  0.6141  0.5742
  219SOL    MW4  951   3.208   3.324   0.480  0.1855 -0.2191  0.5923
  220SOL     OW  952   4.377   3.429   0.750 -0.4486  0.3684  0.0153
  220SOL    HW2  953   4.293   3.474   0.759 -0.1848  0.7918  0.3546
  220SOL    HW3  954   4.374   3.358   0.813 -0.7823  0.0324 -0.3755
  220SOL    MW4  955   4.366   3.425   0.759 -0.4578  0.3798  0.0085
  221SOL     OW  956   3.054   4.035   0.515  0.1253  0.1199 -0.1395
  221SOL    HW2  957   3.072   3.949   0.479 -0.7983  0.0742 -0.5130
  221SOL    HW3  958   3.090   4.033   0.604 -0.3736 -0.8288  0.0431
  221SOL    MW4  959   3.061   4.024   0.522 -0.0625 -0.0114 -0.1647
  222SOL     OW  960   3.833   4.385   0.461  0.0314  0.2075 -0.3856
  222SOL    HW2  961   3.913   4.437   0.450  0.5382 -0.4508  0.1643
  222SOL    HW3  962   3.830   4.364   0.554 -0.1977 -0.7085 -0.5950
  222SOL    MW4  963   3.843   4.389   0.472  0.0684  0.0000 -0.3407
  223SOL     OW  964   4.417   0.132   0.459 -0.3914 -0.3245  0.0615
  223SOL    HW2  965   4.397   0.039   0.462 -0.8919 -0.1920  1.4571
  223SOL    HW3  966   4.440   0.154   0.549  1.9575  0.4382 -0.6671
  223SOL    MW4  967   4.418   0.123   0.471 -0.1473 -0.2064  0.1495
  224SOL     OW  968   3.982   0.895   0.532 -0.8291  0.6988 -0.0419
  224SOL    HW2  969   3.971   0.985   0.500 -1.6394  0.1757 -1.2809
  224SOL    HW3  970   3.894   0.859   0.534 -0.4827 -0.1513  0.2269
  224SOL    MW4  971   3.969   0.902   0.528 -0.8905  0.5177 -0.1699
  225SOL     OW  972   0.311   1.739   0.535 -0.0204 -0.3529 -0.0456
  225SOL    HW2  973   0.239   1.678   0.520  0.7378 -1.4192  0.6499
  225SOL    HW3  974   0.384   1.704   0.483 -0.3058  1.3416 -1.6788
  225SOL    MW4  975   0.311   1.727   0.526  0.0420 -0.2700 -0.1693
  226SOL     OW  976   4.181   0.311   0.412 -0.6711  0.3639  0.4356
  226SOL    HW2  977   4.255   0.251   0.415 -1.2344 -0.3320  0.7701
  226SOL    HW3  978   4.213   0.392   0.452  0.4702  0.7152 -1.1832
  226SOL    MW4  979   4.195   0.314   0.418 -0.5951  0.3184  0.2662
  227SOL     OW  980   4.367   0.932   0.509 -0.1379  0.1941  0.0037
  227SOL    HW2  981   4.317   1.010   0.531  0.8261  0.9252 -0.3645
  227SOL    HW3  982   4.310   0.882   0.450  0.1267  1.6895 -1.5285
  227SOL    MW4  983   4.353   0.935   0.504  0.0238  0.4879 -0.2471
  228SOL     OW  984   3.560   4.410   0.391 -0.3005 -0.1390  0.5292
  228SOL    HW2  985   3.653   4.407   0.412 -0.2799 -0.3950  0.4126
  228SOL    HW3  986   3.557   4.406   0.295 -0.4164  0.3020  0.5137
  228SOL    MW4  987   3.572   4.409   0.381 -0.3133 -0.1149  0.5117
  229SOL     OW  988   4.233   1.193   0.521 -0.2037  0.2149  0.2713
  229SOL    HW2  989   4.254   1.228   0.608  0.6279 -1.7745  0.8834
  229SOL    HW3  990   4.280   1.251   0.460  1.7615 -0.2622  1.3127
  229SOL    MW4  991   4.242   1.206   0.524  0.1655 -0.1105  0.4895
  230SOL     OW  992   0.118   1.538   0.489  0.3047 -0.3132  0.1358
  230SOL    HW2  993   0.177   1.471   0.454  0.5547  0.1426 -0.3064
  230SOL    HW3  994   0.112   1.517   0.582 -0.4012 -1.5623 -0.1670
  230SOL    MW4  995   0.125   1.526   0.497  0.2446 -0.4178  0.0375
  231SOL     OW  996   4.012   1.962   0.320 -0.3174  0.3242 -0.3475
  231SOL    HW2  997   3.962   2.023   0.375  0.7124  0.4893  0.4166
  231SOL    HW3  998   3.993   1.989   0.230 -2.3829 -0.2367 -0.1102
  231SOL    MW4  999   4.003   1.973   0.315 -0.4535  0.2720 -0.2154
  232SOL     OW 1000   4.311   1.627   0.445 -0.0105  0.2931  0.2377
  232SOL    HW2 1001   4.279   1.594   0.529  0.7466  0.2828  0.5221
  232SOL    HW3 1002   4.406   1.617   0.449  0.0430  0.3944 -0.5780
  232SOL    MW4 1003   4.319   1.621   0.456  0.0963  0.3052  0.1676
  233SOL     OW 1004   4.221   1.511   0.677  0.1746  0.0610 -0.0540
  233SOL    HW2 1005   4.272   1.564   0.739  0.2662  0.4830 -0.4846
  233SOL    HW3 1006   4.219   1.424   0.716  1.0759  0.0852  0.0529
  233SOL    MW4 1007   4.228   1.507   0.691  0.3052  0.1199 -0.0967
  234SOL     OW 1008   0.827   1.362   0.454 -0.0410 -0.2374  0.1125
  234SOL    HW2 1009   0.866   1.448   0.443 -0.0639 -0.2447 -0.0295
  234SOL    HW3 1010   0.896   1.301   0.430  0.2582 -0.2838  1.0497
  234SOL    MW4 1011   0.841   1.365   0.450 -0.0045 -0.2446  0.2174
  235SOL     OW 1012   4.261   1.914   0.449  0.1376  0.1439 -0.3286
  235SOL    HW2 1013   4.272   1.821   0.429 -0.3519  0.4362 -2.0245
  235SOL    HW3 1014   4.184   1.941   0.398  0.1862  1.4414  0.2581
  235SOL    MW4 1015   4.252   1.905   0.440  0.0796  0.3537 -0.4749
  236SOL     OW 1016   4.403   3.358   0.489 -0.1514  0.9891 -0.5101
  236SOL    HW2 1017   4.388   3.378   0.581  0.4046  1.2209 -0.4717
  236SOL    HW3 1018   4.416   3.263   0.487  0.6820  1.0951 -0.2355
  236SOL    MW4 1019   4.403   3.348   0.501  0.0315  1.0338 -0.4689
  237SOL     OW 1020   4.044   2.369   0.545  0.1549 -0.5624  0.1040
  237SOL    HW2 1021   4.139   2.366   0.534  0.3169  1.8173  0.5528
  237SOL    HW3 1022   4.031   2.359   0.640 -0.0395 -1.0013  0.0293
  237SOL    MW4 1023   4.055   2.367   0.556  0.1507 -0.3066  0.1534
  238SOL     OW 1024   4.489   3.709   0.583 -0.2340 -0.8570  0.6463
  238SOL    HW2 1025   4.549   3.775   0.546 -0.1824 -0.2716  1.7657
  238SOL    HW3 1026   4.403   3.737   0.553 -0.1531 -0.6130  0.6374
  238SOL    MW4 1027   4.486   3.722   0.574 -0.2165 -0.7472  0.7929
  239SOL     OW 1028   3.262   3.581   0.317  0.1687 -0.0415 -0.1755
  239SOL    HW2 1029   3.225   3.552   0.234 -1.2872 -0.8181  0.7262
  239SOL    HW3 1030   3.266   3.501   0.370  2.1366  0.2236  0.1391
  239SOL    MW4 1031   3.258   3.567   0.313  0.2363 -0.1092 -0.0150
  240SOL     OW 1032   0.675   3.168   0.491 -0.3715  0.0026 -0.8916
  240SOL    HW2 1033   0.580   3.174   0.489 -0.4092 -0.5019 -0.8446
  240SOL    HW3 1034   0.706   3.246   0.444 -0.8185 -0.0860 -1.3352
  240SOL    MW4 1035   0.667   3.179   0.484 -0.4354 -0.0758 -0.9440
  241SOL     OW 1036   3.252   2.888   0.781 -0.1680 -0.4457  0.8670
  241SOL    HW2 1037   3.264   2.905   0.687  1.6303 -0.6723  1.0473
  241SOL    HW3 1038   3.180   2.947   0.806  0.1020  0.4551 -0.4017
  241SOL    MW4 1039   3.244   2.898   0.772  0.1051 -0.3569  0.7234
  242SOL     OW 1040   0.186   3.891   0.463  0.4517 -0.0524  0.6823
  242SOL    HW2 1041   0.107   3.941   0.443  0.0367 -1.4168 -1.2700
  242SOL    HW3 1042   0.255   3.957   0.469 -0.7727  1.1088  2.0621
  242SOL    MW4 1043   0.185   3.906   0.461  0.2353 -0.0792  0.6067
  243SOL     OW 1044   4.437   4.033   0.467 -0.0910  0.2790  0.4763
  243SOL    HW2 1045   4.343   4.026   0.450 -0.1734 -1.2774  1.4254
  243SOL    HW3 1046   4.443   4.046   0.562  0.6493  0.0903  0.4551
  243SOL    MW4 1047   4.425   4.033   0.477 -0.0043  0.0486  0.5987
  244SOL     OW 1048   4.165   3.954   0.408 -0.2387  0.4589  0.0929
  244SOL    HW2 1049   4.087   4.009   0.411 -0.6021 -0.0516 -0.0120
  244SOL    HW3 1050   4.134   3.867   0.431  0.3427  0.3019  0.2959
  244SOL    MW4 1051   4.151   3.950   0.412 -0.2093  0.3710  0.1059
  245SOL     OW 1052   3.915   4.105   0.504 -0.4305  0.1902  0.3528
  245SOL    HW2 1053   3.921   4.194   0.467 -2.4044  0.1865 -0.0427
  245SOL    HW3 1054   3.821   4.088   0.510 -0.0740 -2.5087 -1.0483
  245SOL    MW4 1055   3.903   4.115   0.500 -0.6437 -0.1664  0.1158
  246SOL     OW 1056   4.054   4.552   0.388  0.2106 -0.1135  0.5545
  246SOL    HW2 1057   4.066   4.570   0.294  0.0117 -2.6730  0.0015
  246SOL    HW3 1058   4.142   4.538   0.421  0.0744 -2.0364  0.1288
  246SOL    MW4 1059   4.067   4.553   0.380  0.1669 -0.7048  0.4253
  247SOL     OW 1060   0.191   0.053   0.856 -0.3028 -0.0456  0.1701
  247SOL    HW2 1061   0.184  -0.041   0.843  0.6489 -0.0007 -0.7143
  247SOL    HW3 1062   0.103   0.087   0.839 -0.7199 -0.7967  0.7905
  247SOL    MW4 1063   0.178   0.045   0.852 -0.2322 -0.1388  0.1353
  248SOL     OW 1064   4.465   0.193   0.728 -0.5510  0.4238 -0.1709
  248SOL    HW2 1065   4.384   0.147   0.751 -0.8626  0.4014 -1.3180
  248SOL    HW3 1066   4.458   0.278   0.773 -0.7459  0.0273  0.5568
  248SOL    MW4 1067   4.453   0.198   0.737 -0.6180  0.3686 -0.2263
  249SOL     OW 1068   4.426   0.431   0.892  0.0619 -0.0681  0.6883
  249SOL    HW2 1069   4.461   0.414   0.979  1.8709  1.6756  0.3362
  249SOL    HW3 1070   4.492   0.487   0.850 -0.5146 -1.3007 -1.9753
  249SOL    MW4 1071   4.439   0.436   0.898  0.2241 -0.0006  0.2904
  250SOL     OW 1072   0.171   0.543   0.793 -0.4071 -0.2547 -0.2792
  250SOL    HW2 1073   0.248   0.501   0.831  0.5004  0.0355 -1.7389
  250SOL    HW3 1074   0.171   0.631   0.832 -0.6419 -0.6210  0.5627
  250SOL    MW4 1075   0.181   0.549   0.803 -0.3183 -0.2648 -0.3608
  251SOL     OW 1076   0.208   0.813   0.856  0.6163  0.0515  0.6053
  251SOL    HW2 1077   0.213   0.826   0.951  0.8744  1.4405  0.4151
  251SOL    HW3 1078   0.122   0.846   0.832  0.5454 -0.3176  0.3506
  251SOL    MW4 1079   0.197   0.819   0.866  0.6410  0.1861  0.5467
  252SOL     OW 1080   4.415   0.908   0.786 -0.1017  0.0647  0.0459
  252SOL    HW2 1081   4.337   0.863   0.820  0.3662 -1.0154 -0.2810
  252SOL    HW3 1082   4.404   0.905   0.691  0.6951 -0.7721 -0.0303
  252SOL    MW4 1083   4.403   0.901   0.778  0.0653 -0.1881 -0.0073
  253SOL     OW 1084   0.004   1.166   0.884  0.3343 -0.2647  0.0198
  253SOL    HW2 1085   0.008   1.167   0.980  1.6001 -0.8711 -0.0100
  253SOL    HW3 1086  -0.010   1.074   0.862  1.1255 -0.2920 -0.3966
  253SOL    MW4 1087   0.003   1.154   0.894  0.6061 -0.3481 -0.0391
  254SOL     OW 1088   0.228   1.266   0.722 -0.2443  0.1164  0.1435
  254SOL    HW2 1089   0.156   1.230   0.774  0.7141 -0.5315  1.0259
  254SOL    HW3 1090   0.205   1.245   0.632 -2.0192  1.4087  0.2683
  254SOL    MW4 1091   0.215   1.259   0.717 -0.3520  0.2013  0.2765
  255SOL     OW 1092   0.156   1.539   0.786 -0.3404 -0.1918  0.5001
  255SOL    HW2 1093   0.245   1.574   0.790 -0.4782  0.5414 -1.9177
  255SOL    HW3 1094   0.167   1.444   0.780  0.1880 -0.2698  2.5605
  255SOL    MW4 1095   0.169   1.531   0.786 -0.2889 -0.1054  0.4529
  256SOL     OW 1096   4.382   1.626   0.869 -0.2119  0.5609  0.2848
  256SOL    HW2 1097   4.350   1.588   0.950  0.8323  0.7913  0.8090
  256SOL    HW3 1098   4.469   1.589   0.857 -0.1700  0.8920 -0.4845
  256SOL    MW4 1099   4.389   1.616   0.878 -0.0691  0.6350  0.2524
  257SOL     OW 1100   4.466   1.886   0.845 -0.4302 -0.3372 -0.1591
  257SOL    HW2 1101   4.554   1.891   0.807 -0.0069  0.4050  0.8859
  257SOL    HW3 1102   4.443   1.793   0.840  0.9439 -0.7584  0.6963
  257SOL    MW4 1103   4.475   1.874   0.840 -0.1926 -0.2948  0.0916
  258SOL     OW 1104   0.221   2.039   0.741  0.3155 -0.2739  0.3738
  258SOL    HW2 1105   0.214   2.130   0.770  0.7869 -0.6845  1.8085
  258SOL    HW3 1106   0.201   2.043   0.647  0.4557  1.3247  0.3857
  258SOL    MW4 1107   0.218   2.052   0.732  0.3962 -0.1173  0.5647
  259SOL     OW 1108   0.183   2.311   0.831 -0.6033 -0.0370 -0.4878
  259SOL    HW2 1109   0.199   2.311   0.926 -2.0150 -0.2137 -0.2271
  259SOL    HW3 1110   0.256   2.360   0.794  0.0089 -0.0419  0.6901
  259SOL    MW4 1111   0.194   2.318   0.839 -0.7087 -0.0610 -0.2980
  260SOL     OW 1112   4.444   2.444   0.806  0.1118  1.0499 -0.5824
  260SOL    HW2 1113   4.377   2.384   0.837  0.6221  0.6929 -0.1657
  260SOL    HW3 1114   4.526   2.397   0.817  0.4714  1.6347 -0.7146
  260SOL    MW4 1115   4.446   2.430   0.811  0.2260  1.0803 -0.5449
  261SOL     OW 1116   4.432   2.724   0.823 -0.0856  0.3150  0.0271
  261SOL    HW2 1117   4.468   2.745   0.909 -2.0225  1.5431  0.5787
  261SOL    HW3 1118   4.424   2.628   0.823 -0.5463  0.3465  1.4110
  261SOL    MW4 1119   4.436   2.714   0.835 -0.4015  0.4811  0.2825
  262SOL     OW 1120   0.176   2.842   0.769 -0.2404  0.1259 -0.4868
  262SOL    HW2 1121   0.098   2.787   0.773 -1.2256  1.4344 -1.0805
  262SOL    HW3 1122   0.179   2.872   0.678  0.8681  0.2097 -0.4214
  262SOL    MW4 1123   0.166   2.839   0.757 -0.2242  0.3097 -0.5565
  263SOL     OW 1124   0.135   3.089   0.906 -0.7908 -0.0494 -0.6407
  263SOL    HW2 1125   0.163   3.074   0.997  2.1143  2.5059 -1.0460
  263SOL    HW3 1126   0.149   3.005   0.863  0.0915 -0.6366  0.7367
  263SOL    MW4 1127   0.141   3.076   0.913 -0.2911  0.2103 -0.5125
  264SOL     OW 1128   0.215   2.993   0.545 -0.1476  0.6326 -0.1313
  264SOL    HW2 1129   0.259   2.942   0.476  0.2129  0.1190  0.4700
  264SOL    HW3 1130   0.129   3.014   0.508 -0.5653 -1.0104 -0.1331
  264SOL    MW4 1131   0.209   2.989   0.531 -0.1551  0.3479 -0.0523
  265SOL     OW 1132   4.365   3.165   0.861 -0.2560 -0.2217  0.1514
  265SOL    HW2 1133   4.308   3.127   0.929 -0.4177  1.9523  1.2923
  265SOL    HW3 1134   4.454   3.142   0.889 -0.2386  1.7854  1.8808
  265SOL    MW4 1135   4.369   3.157   0.874 -0.2747  0.3302  0.5301
  266SOL     OW 1136   0.018   3.687   0.932 -0.0107 -0.1010 -0.5140
  266SOL    HW2 1137   0.025   3.659   1.023  1.1849  0.2570 -0.4817
  266SOL    HW3 1138  -0.064   3.736   0.928 -0.0059 -0.0117  0.4046
  266SOL    MW4 1139   0.008   3.690   0.943  0.1473 -0.0422 -0.3885
  267SOL     OW 1140   0.185   3.914   0.863  0.1574 -0.0521 -0.0055
  267SOL    HW2 1141   0.184   3.919   0.958  1.4626 -0.9082  0.0734
  267SOL    HW3 1142   0.198   3.821   0.844  1.3369  0.2943 -0.9906
  267SOL    MW4 1143   0.187   3.902   0.873  0.4852 -0.1192 -0.1251
  268SOL     OW 1144   4.458   4.029   0.768  0.2742  0.2125  0.1580
  268SOL    HW2 1145   4.396   3.970   0.810  0.1032 -0.5774 -1.1828
  268SOL    HW3 1146   4.543   4.000   0.799  0.0876  0.2703  0.7333
  268SOL    MW4 1147   4.461   4.017   0.777  0.2270  0.1163  0.0570
  269SOL     OW 1148   4.475   4.308   0.830 -0.0551  0.1063 -0.1834
  269SOL    HW2 1149   4.477   4.331   0.922  2.0483  0.1891 -0.2421
  269SOL    HW3 1150   4.473   4.212   0.828 -2.5950  0.1141 -0.0467
  269SOL    MW4 1151   4.475   4.298   0.842 -0.1125  0.1183 -0.1732
  270SOL     OW 1152   0.187   4.464   0.736 -0.0328 -0.1980  0.0157
  270SOL    HW2 1153   0.110   4.409   0.748  0.1297 -0.6026 -0.7572
  270SOL    HW3 1154   0.214   4.449   0.646  0.6484  0.3360  0.1209
  270SOL    MW4 1155   0.181   4.455   0.726  0.0785 -0.1807 -0.0723
  271SOL     OW 1156   0.625   0.013   0.820  0.1777  0.4744 -0.0444
  271SOL    HW2 1157   0.645   0.009   0.913  0.3671  2.5288  0.0199
  271SOL    HW3 1158   0.550   0.072   0.813 -1.3647 -1.5143 -0.9840
  271SOL    MW4 1159   0.618   0.020   0.831 -0.0008  0.4830 -0.1599
  272SOL     OW 1160   0.421   0.209   0.763  0.2508 -0.0596  0.5184
  272SOL    HW2 1161   0.347   0.157   0.795 -1.1640  1.8011  0.3713
  272SOL    HW3 1162   0.415   0.203   0.667 -0.4416  1.0472  0.4799
  272SOL    MW4 1163   0.411   0.201   0.754 -0.0273  0.3319  0.4938
  273SOL     OW 1164   0.416   0.456   0.875 -0.0047  0.4361  0.3370
  273SOL    HW2 1165   0.503   0.495   0.882  0.6694 -1.0447  0.4555
  273SOL    HW3 1166   0.433   0.365   0.849 -1.5192  0.1367  0.3707
  273SOL    MW4 1167   0.430   0.449   0.872 -0.1156  0.2012  0.3571
  274SOL     OW 1168   0.662   0.564   0.816 -0.4290 -0.2120 -0.0184
  274SOL    HW2 1169   0.737   0.512   0.844 -1.1356 -1.2964 -0.1065
  274SOL    HW3 1170   0.647   0.537   0.725 -0.8510  0.0967 -0.0412
  274SOL    MW4 1171   0.670   0.553   0.807 -0.5779 -0.3143 -0.0330
  275SOL     OW 1172   0.688   0.857   0.867 -0.4082 -0.1625 -0.2459
  275SOL    HW2 1173   0.604   0.887   0.834 -0.1487 -0.1757 -0.9344
  275SOL    HW3 1174   0.687   0.762   0.854 -0.6845 -0.2838  0.6655
  275SOL    MW4 1175   0.677   0.849   0.861 -0.4103 -0.1802 -0.2165
  276SOL     OW 1176   0.441   0.940   0.772  0.4876 -0.1477  0.6646
  276SOL    HW2 1177   0.447   1.018   0.827  0.7421 -1.0110  1.9128
  276SOL    HW3 1178   0.357   0.900   0.797  0.1627 -0.0455 -0.2660
  276SOL    MW4 1179   0.431   0.945   0.783  0.4783 -0.2481  0.7066
  277SOL     OW 1180   0.461   1.187   0.869  0.3116  0.3717 -0.1314
  277SOL    HW2 1181   0.542   1.205   0.822  0.0222 -0.2485 -0.8601
  277SOL    HW3 1182   0.392   1.225   0.814  0.1975  2.0231  1.0903
  277SOL    MW4 1183   0.463   1.195   0.856  0.2584  0.5078 -0.0664
  278SOL     OW 1184   0.680   1.290   0.705  0.0549 -0.1237 -0.2674
  278SOL    HW2 1185   0.663   1.382   0.728 -2.5889 -0.0302 -2.3364
  278SOL    HW3 1186   0.733   1.295   0.626  0.9550 -0.3802  0.3247
  278SOL    MW4 1187   0.684   1.303   0.698 -0.1751 -0.1453 -0.4622
  279SOL     OW 1188   0.668   1.559   0.807  0.1003  0.1005 -0.3358
  279SOL    HW2 1189   0.668   1.524   0.896 -0.4102 -1.6026 -0.9951
  279SOL    HW3 1190   0.579   1.591   0.793  0.2661  0.6609 -0.1321
  279SOL    MW4 1191   0.656   1.559   0.817  0.0549 -0.0504 -0.3959
  280SOL     OW 1192   0.406   1.645   0.780 -0.0727 -0.1487 -0.3268
  280SOL    HW2 1193   0.403   1.731   0.822 -0.8799 -0.5632  0.4790
  280SOL    HW3 1194   0.375   1.662   0.690 -0.2970  0.3923 -0.1524
  280SOL    MW4 1195   0.401   1.659   0.773 -0.2088 -0.1320 -0.1975
  281SOL     OW 1196   0.424   1.906   0.871 -0.2619 -0.4579 -0.1877
  281SOL    HW2 1197   0.431   1.930   0.963 -1.2125  1.1945 -0.5237
  281SOL    HW3 1198   0.343   1.949   0.841 -0.2671 -1.4300 -1.6516
  281SOL    MW4 1199   0.414   1.915   0.879 -0.3880 -0.3681 -0.4252
  282SOL     OW 1200   0.649   2.009   0.748 -0.3209 -0.3026 -0.2127
  282SOL    HW2 1201   0.571   1.971   0.788  0.4313 -1.8138 -0.1453
  282SOL    HW3 1202   0.642   1.985   0.655  0.5353 -1.2906 -0.0349
  282SOL    MW4 1203   0.638   2.001   0.741 -0.1087 -0.6320 -0.1803
  283SOL     OW 1204   0.629   2.289   0.786 -0.3342 -0.0688  0.1498
  283SOL    HW2 1205   0.611   2.292   0.880 -0.2022  0.9510  0.1564
  283SOL    HW3 1206   0.648   2.197   0.768 -1.1148 -0.3994  0.9748
  283SOL    MW4 1207   0.629   2.277   0.796 -0.4198  0.0219  0.2595
  284SOL     OW 1208   0.409   2.434   0.700  0.4065  0.5388  0.1095
  284SOL    HW2 1209   0.487   2.382   0.720  1.5949  2.1410 -0.3334
  284SOL    HW3 1210   0.394   2.419   0.607  0.2300  0.2952  0.1768
  284SOL    MW4 1211   0.417   2.425   0.691  0.5400  0.7181  0.0600
  285SOL     OW 1212   0.413   2.701   0.814  0.0837  0.3279 -0.2609
  285SOL    HW2 1213   0.408   2.617   0.768 -1.3134 -0.6258  1.5814
  285SOL    HW3 1214   0.325   2.738   0.807  0.3216  0.9922  0.1723
  285SOL    MW4 1215   0.401   2.695   0.807 -0.0692  0.2899  0.0393
  286SOL     OW 1216   0.634   2.852   0.732 -0.4040 -0.5617  0.4032
  286SOL    HW2 1217   0.701   2.795   0.770 -0.1200  0.2629  1.1956
  286SOL    HW3 1218   0.552   2.820   0.768 -0.3836 -1.2768 -0.1851
  286SOL    MW4 1219   0.632   2.840   0.742 -0.3638 -0.5474  0.4302
  287SOL     OW 1220   0.631   3.113   0.868  0.0629  0.5546 -0.3116
  287SOL    HW2 1221   0.555   3.150   0.824 -1.0669 -0.6561  0.5562
  287SOL    HW3 1222   0.638   3.024   0.833  0.6796  0.4431  0.0867
  287SOL    MW4 1223   0.622   3.106   0.858 -0.0048  0.3800 -0.1445
  288SOL     OW 1224   0.373   3.222   0.802  0.2056 -0.0507  0.1297
  288SOL    HW2 1225   0.295   3.168   0.813 -0.0558  0.3737  0.3676
  288SOL    HW3 1226   0.377   3.240   0.709 -0.7594  1.0789  0.2957
  288SOL    MW4 1227   0.363   3.217   0.792  0.0438  0.1545  0.1830
  289SOL     OW 1228   0.485   3.490   0.856 -0.2129  0.2829 -0.1543
  289SOL    HW2 1229   0.475   3.512   0.949  0.5180 -0.2713  0.0592
  289SOL    HW3 1230   0.444   3.404   0.848 -0.3503  0.3681 -0.3632
  289SOL    MW4 1231   0.478   3.481   0.868 -0.1346  0.2213 -0.1537
  290SOL     OW 1232   0.660   3.649   0.700 -0.2117  0.6220 -0.3124
  290SOL    HW2 1233   0.605   3.582   0.740 -0.1421 -0.1588 -1.5013
  290SOL    HW3 1234   0.650   3.725   0.756 -0.7091 -0.2250  0.7567
  290SOL    MW4 1235   0.652   3.650   0.712 -0.2681  0.4072 -0.3282
  291SOL     OW 1236   0.628   3.876   0.859 -0.1496  0.1558 -0.2070
  291SOL    HW2 1237   0.704   3.921   0.822  0.2658  0.5463  1.0819
  291SOL    HW3 1238   0.552   3.925   0.828  0.1284 -0.1242 -1.3490
  291SOL    MW4 1239   0.628   3.888   0.850 -0.0581  0.1702 -0.1876
  292SOL     OW 1240   0.422   4.033   0.776  0.1491  0.0126 -0.1042
  292SOL    HW2 1241   0.420   4.125   0.805 -0.6002  0.3352 -1.1524
  292SOL    HW3 1242   0.334   4.000   0.796  0.4978 -0.5488  0.4998
  292SOL    MW4 1243   0.410   4.041   0.783  0.0963 -0.0186 -0.1628
  293SOL     OW 1244   0.410   4.299   0.877 -0.2224 -0.2401 -0.1130
  293SOL    HW2 1245   0.391   4.321   0.968  2.1070  2.1343 -0.1204
  293SOL    HW3 1246   0.349   4.352   0.826 -1.1350 -1.1321  0.0408
  293SOL    MW4 1247   0.399   4.309   0.882 -0.0354 -0.0443 -0.0936
  294SOL     OW 1248   0.644   4.413   0.738  0.2933  0.1839  0.0348
  294SOL    HW2 1249   0.573   4.370   0.785 -0.3702  0.8811 -0.3260
  294SOL    HW3 1250   0.647   4.502   0.774  1.4168 -0.0354  0.5166
  294SOL    MW4 1251   0.635   4.419   0.749  0.3540  0.2470  0.0508
  295SOL     OW 1252   1.070   0.004   0.853  0.0795  0.6487 -0.3490
  295SOL    HW2 1253   1.152   0.038   0.817 -0.1692  0.4469 -1.1190
  295SOL    HW3 1254   1.001   0.053   0.808 -0.2845 -0.8021 -1.4145
  295SOL    MW4 1255   1.072   0.015   0.843 -0.0014  0.4307 -0.5912
  296SOL     OW 1256   0.834   0.172   0.707  0.1479 -0.2584 -0.2911
  296SOL    HW2 1257   0.833   0.257   0.752 -0.6788  0.2188 -1.1835
  296SOL    HW3 1258   0.778   0.116   0.761 -0.4381  0.1669 -0.4534
  296SOL    MW4 1259   0.827   0.176   0.720 -0.0385 -0.1393 -0.4303
  297SOL     OW 1260   0.886   0.408   0.870 -0.5650  0.1967 -0.5035
  297SOL    HW2 1261   0.887   0.396   0.965 -1.4002  1.2579 -0.3435
  297SOL    HW3 1262   0.977   0.425   0.847 -0.7211  2.4670  0.4684
  297SOL    MW4 1263   0.898   0.409   0.880 -0.6959  0.6362 -0.3541
  298SOL     OW 1264   1.123   0.496   0.762  0.3113 -0.2038 -0.1739
  298SOL    HW2 1265   1.214   0.469   0.776 -0.2426 -2.1434 -0.0514
  298SOL    HW3 1266   1.102   0.464   0.674 -0.5293 -0.6396  0.1750
  298SOL    MW4 1267   1.132   0.488   0.752  0.1274 -0.5172 -0.1117
  299SOL     OW 1268   1.127   0.756   0.861  0.4166 -0.1244  0.1999
  299SOL    HW2 1269   1.128   0.764   0.956 -0.7859 -0.1145  0.2145
  299SOL    HW3 1270   1.123   0.662   0.844 -0.4520 -0.0854  0.1730
  299SOL    MW4 1271   1.127   0.745   0.871  0.1434 -0.1180  0.1983
  300SOL     OW 1272   0.910   0.877   0.711 -0.0657  0.1398  0.1846
  300SOL    HW2 1273   0.986   0.840   0.755  0.5831 -0.0416 -1.0566
  300SOL    HW3 1274   0.839   0.870   0.774  0.9590  0.3359  1.3656
  300SOL    MW4 1275   0.911   0.871   0.725  0.1551  0.1417  0.1767
  301SOL     OW 1276   0.888   1.158   0.815 -0.1816 -0.2576  0.1216
  301SOL    HW2 1277   0.896   1.075   0.768  1.0743  0.5340 -1.0973
  301SOL    HW3 1278   0.811   1.200   0.776  1.1186  0.5977 -1.5955
  301SOL    MW4 1279   0.879   1.152   0.803  0.1557 -0.0403 -0.2658
  302SOL     OW 1280   1.102   1.344   0.793 -0.2577  0.0505  0.5168
  302SOL    HW2 1281   1.023   1.291   0.783 -0.6776  0.5672  1.0142
  302SOL    HW3 1282   1.150   1.332   0.711 -1.5809  0.9206 -0.4088
  302SOL    MW4 1283   1.098   1.336   0.781 -0.4877  0.2335  0.4603
  303SOL     OW 1284   1.101   1.590   0.902  0.1964 -0.0890  0.6133
  303SOL    HW2 1285   1.036   1.641   0.854 -0.9988  0.1211  2.3798
  303SOL    HW3 1286   1.100   1.504   0.860 -1.1144 -0.0329  0.4913
  303SOL    MW4 1287   1.092   1.586   0.890 -0.1343 -0.0539  0.8303
  304SOL     OW 1288   0.899   1.689   0.739  0.5946  0.0199  0.1132
  304SOL    HW2 1289   0.890   1.782   0.760 -0.8630 -0.0430 -0.1852
  304SOL    HW3 1290   0.819   1.649   0.773  0.4598 -0.8574 -1.2049
  304SOL    MW4 1291   0.888   1.696   0.746  0.3845 -0.1042 -0.1000
  305SOL     OW 1292   0.924   1.945   0.824 -0.0083 -0.1242  0.4971
  305SOL    HW2 1293   0.927   1.950   0.920 -0.2543 -1.5089  0.5887
  305SOL    HW3 1294   0.836   1.972   0.801  0.4015  1.3211  0.5746
  305SOL    MW4 1295   0.913   1.950   0.834  0.0134 -0.1162  0.5194
  306SOL     OW 1296   1.156   2.071   0.689 -0.5656 -0.5817 -0.3530
  306SOL    HW2 1297   1.123   2.150   0.731 -1.3592 -0.1064 -1.8476
  306SOL    HW3 1298   1.091   2.004   0.708  0.2585 -0.9767  1.1752
  306SOL    MW4 1299   1.143   2.073   0.697 -0.5615 -0.5708 -0.3485
  307SOL     OW 1300   1.090   2.308   0.803  0.3223 -0.2168  0.6334
  307SOL    HW2 1301   1.114   2.297   0.895  1.4569  0.3840  0.4202
  307SOL    HW3 1302   1.163   2.358   0.765  0.0524 -0.8085 -0.6801
  307SOL    MW4 1303   1.103   2.313   0.810  0.4365 -0.2155  0.4320
  308SOL     OW 1304   0.853   2.460   0.701 -0.4924  0.1454 -0.0991
  308SOL    HW2 1305   0.931   2.405   0.711 -0.6203  0.3280  2.2043
  308SOL    HW3 1306   0.784   2.411   0.747 -1.1992  1.0441 -0.2015
  308SOL    MW4 1307   0.854   2.446   0.709 -0.6025  0.2880  0.1913
  309SOL     OW 1308   0.848   2.703   0.833  0.2501  0.0774  0.0549
  309SOL    HW2 1309   0.865   2.702   0.927 -0.7497 -1.3596  0.2458
  309SOL    HW3 1310   0.860   2.612   0.806 -1.3089  0.1125 -0.8504
  309SOL    MW4 1311   0.852   2.691   0.842 -0.0876 -0.1075 -0.0394
  310SOL     OW 1312   1.060   2.844   0.740  0.3311  0.1556  0.1300
  310SOL    HW2 1313   0.986   2.802   0.785  1.9912 -1.0731  1.7870
  310SOL    HW3 1314   1.034   2.845   0.648 -1.2992 -1.2554  0.5500
  310SOL    MW4 1315   1.047   2.838   0.734  0.3350 -0.1929  0.4041
  311SOL     OW 1316   1.102   3.132   0.848  0.4434  0.0620 -0.3371
  311SOL    HW2 1317   1.022   3.173   0.817 -0.2829 -0.0033  1.3948
  311SOL    HW3 1318   1.093   3.040   0.822 -0.5102 -0.1511  0.6751
  311SOL    MW4 1319   1.091   3.125   0.841  0.2217  0.0253  0.0250
  312SOL     OW 1320   0.855   3.261   0.778  0.3751 -0.1379  0.7000
  312SOL    HW2 1321   0.845   3.352   0.806  0.0604 -0.1908  0.7587
  312SOL    HW3 1322   0.773   3.219   0.805  0.2415 -0.2808  0.0662
  312SOL    MW4 1323   0.843   3.268   0.785  0.3160 -0.1636  0.6241
  313SOL     OW 1324   0.877   3.532   0.836  0.2310 -0.0018  0.0360
  313SOL    HW2 1325   0.955   3.548   0.783 -0.0041  1.4863  0.1264
  313SOL    HW3 1326   0.805   3.570   0.785 -0.3154 -0.5897  0.3620
  313SOL    MW4 1327   0.878   3.539   0.822  0.1279  0.1166  0.0909
  314SOL     OW 1328   1.141   3.600   0.693  0.1126 -0.0125  0.0668
  314SOL    HW2 1329   1.220   3.562   0.731 -1.4453 -2.0696  1.3691
  314SOL    HW3 1330   1.153   3.592   0.599  0.5038 -2.3414  0.3009
  314SOL    MW4 1331   1.153   3.594   0.686 -0.0414 -0.5910  0.2695
  315SOL     OW 1332   1.130   3.856   0.807 -0.0680 -0.0651 -0.0245
  315SOL    HW2 1333   1.149   3.847   0.900  2.4157 -0.0841 -0.4920
  315SOL    HW3 1334   1.129   3.767   0.774  2.4941  0.0781 -0.6075
  315SOL    MW4 1335   1.132   3.843   0.815  0.5977 -0.0489 -0.1631
  316SOL     OW 1336   0.875   3.964   0.725  0.3878 -0.3067  0.1099
  316SOL    HW2 1337   0.880   4.057   0.748  0.2819 -0.2171 -0.2387
  316SOL    HW3 1338   0.953   3.926   0.766  0.0204 -0.2053  0.9083
  316SOL    MW4 1339   0.886   3.972   0.734  0.3254 -0.2816  0.1693
  317SOL     OW 1340   0.872   4.234   0.787 -0.3219  0.2870  1.0913
  317SOL    HW2 1341   0.953   4.285   0.781  0.0438 -0.3245  0.8686
  317SOL    HW3 1342   0.805   4.292   0.751  0.0703  0.6769  0.9857
  317SOL    MW4 1343   0.874   4.249   0.782 -0.2219  0.2580  1.0481
  318SOL     OW 1344   1.099   4.406   0.768  0.1698 -0.2288  0.2727
  318SOL    HW2 1345   1.185   4.388   0.807  0.7577  0.4313 -0.6819
  318SOL    HW3 1346   1.062   4.475   0.823  0.6732  0.1766  0.1060
  318SOL    MW4 1347   1.105   4.413   0.780  0.3138 -0.0877  0.1248
  319SOL     OW 1348   1.541   4.667   0.818 -0.0908 -0.0903 -0.1030
  319SOL    HW2 1349   1.527   4.650   0.911  1.8082 -0.3478  0.1631
  319SOL    HW3 1350   1.461   4.711   0.789 -1.0070 -0.6664  1.4752
  319SOL    MW4 1351   1.529   4.670   0.826  0.0390 -0.2003  0.1404
  320SOL     OW 1352   1.314   0.124   0.751 -0.0998 -0.1929  0.0527
  320SOL    HW2 1353   1.317   0.217   0.771 -1.0098 -0.1752  0.1045
  320SOL    HW3 1354   1.285   0.120   0.660 -0.5294 -0.4395  0.1982
  320SOL    MW4 1355   1.311   0.136   0.741 -0.2766 -0.2231  0.0787
  321SOL     OW 1356   1.365   0.383   0.834  0.0739 -0.9319  0.4118
  321SOL    HW2 1357   1.376   0.381   0.929  0.3865 -0.7558  0.3786
  321SOL    HW3 1358   1.436   0.439   0.803 -1.1872  0.6220  0.2456
  321SOL    MW4 1359   1.376   0.390   0.843 -0.0511 -0.7037  0.3855
  322SOL     OW 1360   1.578   0.531   0.746  0.0639 -0.4809 -0.1801
  322SOL    HW2 1361   1.582   0.613   0.795  0.5501 -0.4542 -0.2638
  322SOL    HW3 1362   1.656   0.482   0.774 -0.0844 -0.8007 -0.3275
  322SOL    MW4 1363   1.589   0.535   0.756  0.1085 -0.5196 -0.2106
  323SOL     OW 1364   1.552   0.780   0.878  0.4528  0.0085  0.0196
  323SOL    HW2 1365   1.626   0.838   0.858  0.0653  0.5451  0.1358
  323SOL    HW3 1366   1.476   0.825   0.842  0.0441 -0.0563  0.7975
  323SOL    MW4 1367   1.552   0.793   0.871  0.3479  0.0707  0.1376
  324SOL     OW 1368   1.342   0.907   0.735 -0.1161 -0.4903 -0.3342
  324SOL    HW2 1369   1.337   0.988   0.785  1.1425  0.0870 -1.1283
  324SOL    HW3 1370   1.263   0.859   0.758 -0.8054  0.9165  0.2205
  324SOL    MW4 1371   1.331   0.911   0.745 -0.0409 -0.2285 -0.3658
  325SOL     OW 1372   1.309   1.148   0.860 -0.2829  0.0242  0.3595
  325SOL    HW2 1373   1.393   1.180   0.827 -0.3484 -0.8570 -0.6968
  325SOL    HW3 1374   1.246   1.216   0.834 -0.4545 -1.0120 -2.0656
  325SOL    MW4 1375   1.312   1.161   0.852 -0.3142 -0.2289 -0.0998
  326SOL     OW 1376   1.550   1.235   0.756  0.2468  0.3764 -0.6682
  326SOL    HW2 1377   1.543   1.330   0.762 -0.4437  0.3288 -0.7773
  326SOL    HW3 1378   1.558   1.217   0.663  1.4648  0.4041 -0.5779
  326SOL    MW4 1379   1.551   1.245   0.745  0.3164  0.3738 -0.6707
  327SOL     OW 1380   1.524   1.493   0.829 -0.2788  0.0958 -0.1782
  327SOL    HW2 1381   1.542   1.495   0.923 -1.6620 -2.3593  0.1924
  327SOL    HW3 1382   1.459   1.562   0.815 -0.6743 -0.0741  0.8001
  327SOL    MW4 1383   1.518   1.502   0.840 -0.5134 -0.2506 -0.0002
  328SOL     OW 1384   1.337   1.696   0.794  0.0281  0.6556 -0.2961
  328SOL    HW2 1385   1.344   1.792   0.802 -1.4619  0.6908  0.7185
  328SOL    HW3 1386   1.266   1.672   0.853  0.1471 -1.0531 -0.8247
  328SOL    MW4 1387   1.329   1.706   0.802 -0.1529  0.4349 -0.2320
  329SOL     OW 1388   1.376   1.960   0.828 -0.6270  0.1910  0.0860
  329SOL    HW2 1389   1.356   1.979   0.920 -1.5239 -1.1206  0.1689
  329SOL    HW3 1390   1.308   2.006   0.779 -1.1880 -0.5652  0.1583
  329SOL    MW4 1391   1.365   1.969   0.834 -0.8193 -0.0817  0.1065
  330SOL     OW 1392   1.601   2.043   0.729  0.2998 -0.4608 -0.5422
  330SOL    HW2 1393   1.514   2.009   0.750  0.3248 -0.0662  0.2324
  330SOL    HW3 1394   1.606   2.038   0.633 -0.8254  0.1308 -0.6420
  330SOL    MW4 1395   1.590   2.038   0.719  0.1546 -0.3304 -0.4532
  331SOL     OW 1396   1.556   2.329   0.827  0.2129 -0.1191  0.3633
  331SOL    HW2 1397   1.464   2.350   0.814  0.3002  1.0073  1.4759
  331SOL    HW3 1398   1.565   2.239   0.795 -1.0782  0.0634 -0.5351
  331SOL    MW4 1399   1.545   2.320   0.821  0.0542  0.0536  0.3915
  332SOL     OW 1400   1.290   2.471   0.709 -0.4734 -0.3563  0.7161
  332SOL    HW2 1401   1.303   2.559   0.743 -0.3374 -0.6220  1.3554
  332SOL    HW3 1402   1.274   2.484   0.615 -0.6708  0.3611  0.8438
  332SOL    MW4 1403   1.289   2.484   0.701 -0.4815 -0.2966  0.8174
  333SOL     OW 1404   1.315   2.722   0.821 -0.2710 -0.1904  0.4230
  333SOL    HW2 1405   1.228   2.755   0.797  0.0943  1.4799  1.3450
  333SOL    HW3 1406   1.317   2.729   0.917  0.8697 -0.2669  0.4018
  333SOL    MW4 1407   1.304   2.727   0.831 -0.0724  0.0198  0.5419
  334SOL     OW 1408   1.546   2.851   0.720  0.0810 -0.1088  0.5155
  334SOL    HW2 1409   1.552   2.935   0.765  1.1593 -0.1028  0.3828
  334SOL    HW3 1410   1.468   2.810   0.755 -0.1312  0.7084  1.0022
  334SOL    MW4 1411   1.537   2.857   0.730  0.1951 -0.0002  0.5621
  335SOL     OW 1412   1.566   3.123   0.792 -0.0774 -0.2404  0.2079
  335SOL    HW2 1413   1.575   3.122   0.887 -0.2150 -1.2487  0.2186
  335SOL    HW3 1414   1.483   3.168   0.775  0.7011  1.3201  0.4933
  335SOL    MW4 1415   1.556   3.129   0.802  0.0072 -0.1678  0.2469
  336SOL     OW 1416   1.336   3.241   0.733  0.0959 -0.6304 -0.7237
  336SOL    HW2 1417   1.253   3.205   0.765  0.6260 -1.1763  0.0568
  336SOL    HW3 1418   1.340   3.213   0.641 -1.0963  0.3441 -1.0945
  336SOL    MW4 1419   1.325   3.232   0.725  0.0085 -0.5741 -0.6696
  337SOL     OW 1420   1.371   3.499   0.800  0.0210 -0.4995  0.0928
  337SOL    HW2 1421   1.416   3.549   0.733 -0.0314  0.6459  0.9054
  337SOL    HW3 1422   1.366   3.410   0.764  0.8835 -0.1253 -0.9749
  337SOL    MW4 1423   1.376   3.494   0.786  0.1279 -0.2992  0.0590
  338SOL     OW 1424   1.540   3.637   0.627  0.0240  0.3433  0.3162
  338SOL    HW2 1425   1.605   3.567   0.631  0.0142  0.3063 -0.0765
  338SOL    HW3 1426   1.525   3.650   0.533 -1.0394 -0.1230  0.4111
  338SOL    MW4 1427   1.546   3.630   0.615 -0.1175  0.2768  0.2769
  339SOL     OW 1428   1.512   3.876   0.809 -0.1656 -0.2700  0.1988
  339SOL    HW2 1429   1.433   3.919   0.778  0.1426 -0.6165 -1.0781
  339SOL    HW3 1430   1.508   3.787   0.774  0.7959 -0.2882  0.1133
  339SOL    MW4 1431   1.501   3.870   0.801  0.0019 -0.3181  0.0191
  340SOL     OW 1432   1.302   4.052   0.757 -0.0523  0.4320  0.0494
  340SOL    HW2 1433   1.226   3.994   0.764  0.7549 -0.4864  1.2451
  340SOL    HW3 1434   1.306   4.074   0.664 -1.7927  0.5070 -0.0399
  340SOL    MW4 1435   1.292   4.048   0.746 -0.1755  0.3209  0.1954
  341SOL     OW 1436   1.353   4.313   0.833  0.1463  0.3127 -0.3627
  341SOL    HW2 1437   1.414   4.351   0.770  1.3095  0.4232  0.7945
  341SOL    HW3 1438   1.348   4.220   0.808 -0.6230  0.6671 -1.5578
  341SOL    MW4 1439   1.360   4.305   0.822  0.1982  0.3738 -0.3676
  342SOL     OW 1440   1.579   4.419   0.695  0.8667  0.0154 -0.0592
  342SOL    HW2 1441   1.627   4.363   0.755  0.5838  0.5782  0.7084
  342SOL    HW3 1442   1.564   4.500   0.744 -1.2446 -0.3154 -0.1109
  342SOL    MW4 1443   1.583   4.422   0.709  0.5507  0.0463  0.0353
  343SOL     OW 1444   1.977   0.056   0.849  0.5003 -0.0822 -0.1156
  343SOL    HW2 1445   2.061   0.098   0.831  0.5321 -0.1147 -0.0416
  343SOL    HW3 1446   1.985  -0.032   0.811  0.7238 -0.3016  0.4435
  343SOL    MW4 1447   1.989   0.050   0.842  0.5341 -0.1155 -0.0320
  344SOL     OW 1448   1.752   0.147   0.702  0.2251  0.1597 -0.1464
  344SOL    HW2 1449   1.840   0.117   0.725 -0.1489  0.6189  2.0220
  344SOL    HW3 1450   1.694   0.096   0.759 -0.7122  1.7843  0.3884
  344SOL    MW4 1451   1.756   0.136   0.713  0.0521  0.4347  0.2102
  345SOL     OW 1452   1.809   0.384   0.815 -0.3986  0.1470 -0.1721
  345SOL    HW2 1453   1.785   0.301   0.773 -1.0772  0.7497 -0.9818
  345SOL    HW3 1454   1.885   0.415   0.765  1.3462 -1.1554  1.6245
  345SOL    MW4 1455   1.816   0.377   0.803 -0.2578  0.0547 -0.0419
  346SOL     OW 1456   2.017   0.491   0.669 -0.2334 -0.2793 -0.1622
  346SOL    HW2 1457   2.081   0.462   0.734 -0.2863 -0.6228 -0.2603
  346SOL    HW3 1458   2.016   0.420   0.604 -1.0111 -0.4651  0.0537
  346SOL    MW4 1459   2.025   0.478   0.669 -0.3433 -0.3492 -0.1467
  347SOL     OW 1460   1.996   0.692   0.891  1.3156  0.1577  0.4415
  347SOL    HW2 1461   2.074   0.728   0.851  0.9600  0.0369 -0.3787
  347SOL    HW3 1462   1.959   0.634   0.824  1.6312 -1.3650  1.5686
  347SOL    MW4 1463   2.001   0.689   0.877  1.3102 -0.0591  0.4820
  348SOL     OW 1464   1.813   0.876   0.788  0.3467 -0.3373  0.4201
  348SOL    HW2 1465   1.825   0.970   0.798  0.6096 -0.3065 -0.1862
  348SOL    HW3 1466   1.891   0.837   0.827  1.5438 -0.2050 -1.7766
  348SOL    MW4 1467   1.825   0.883   0.795  0.5394 -0.3158  0.0502
  349SOL     OW 1468   1.777   1.150   0.871  0.6280  0.2337  0.4136
  349SOL    HW2 1469   1.851   1.190   0.825  1.0151 -1.7934 -0.7944
  349SOL    HW3 1470   1.700   1.179   0.822  0.7884  0.5299  0.3334
  349SOL    MW4 1471   1.776   1.159   0.859  0.7002  0.0051  0.2436
  350SOL     OW 1472   2.002   1.276   0.734  0.1685  0.0964 -0.6193
  350SOL    HW2 1473   2.077   1.237   0.779 -1.2417 -1.1678  0.7095
  350SOL    HW3 1474   1.990   1.221   0.657  0.3273  0.0273 -0.5955
  350SOL    MW4 1475   2.011   1.264   0.730  0.0036 -0.0796 -0.4408
  351SOL     OW 1476   1.974   1.498   0.882  0.0400 -0.0832 -0.8631
  351SOL    HW2 1477   2.037   1.554   0.835 -0.5575  0.0597 -1.5123
  351SOL    HW3 1478   1.984   1.412   0.841  1.3748 -0.6192  0.5294
  351SOL    MW4 1479   1.984   1.494   0.870  0.1374 -0.1351 -0.7651
  352SOL     OW 1480   1.768   1.605   0.724  0.2996 -0.3650  0.3726
  352SOL    HW2 1481   1.843   1.570   0.773  0.0539 -0.6768  0.5256
  352SOL    HW3 1482   1.692   1.562   0.762  0.0708 -0.3153 -0.0270
  352SOL    MW4 1483   1.768   1.595   0.736  0.2369 -0.3997  0.3400
  353SOL     OW 1484   1.813   1.895   0.819 -0.3587 -0.4048 -0.3644
  353SOL    HW2 1485   1.792   1.804   0.797 -0.5512 -0.6127  0.6283
  353SOL    HW3 1486   1.739   1.946   0.785 -0.1710 -0.5997 -1.0673
  353SOL    MW4 1487   1.801   1.890   0.812 -0.3593 -0.4580 -0.3262
  354SOL     OW 1488   1.989   2.044   0.680 -0.1245  0.6310  0.4806
  354SOL    HW2 1489   1.972   2.121   0.735  1.4064  2.2273 -1.1834
  354SOL    HW3 1490   1.930   1.977   0.713 -0.3724  2.0349  3.0224
  354SOL    MW4 1491   1.979   2.046   0.692  0.0448  1.0269  0.5964
  355SOL     OW 1492   1.940   2.287   0.798 -0.2834  0.2067  0.1069
  355SOL    HW2 1493   1.958   2.280   0.892 -0.4567  1.3752  0.2314
  355SOL    HW3 1494   1.874   2.356   0.791 -0.6633 -0.2382 -0.8356
  355SOL    MW4 1495   1.934   2.295   0.810 -0.3564  0.3023 -0.0011
  356SOL     OW 1496   1.760   2.495   0.754 -0.2658  0.1307 -0.1003
  356SOL    HW2 1497   1.756   2.517   0.661 -0.5543 -0.9317 -0.3431
  356SOL    HW3 1498   1.676   2.454   0.773 -0.0550 -0.0149  0.5280
  356SOL    MW4 1499   1.749   2.492   0.744 -0.2760 -0.0286 -0.0494
  357SOL     OW 1500   1.799   2.753   0.837 -0.1962 -0.2061  0.1742
  357SOL    HW2 1501   1.795   2.660   0.813 -2.1527 -0.4464  1.3314
  357SOL    HW3 1502   1.715   2.789   0.808 -0.0665  0.8652  1.0809
  357SOL    MW4 1503   1.787   2.745   0.830 -0.4371 -0.0963  0.4464
  358SOL     OW 1504   2.021   2.887   0.722 -0.6897 -0.1415 -0.0544
  358SOL    HW2 1505   2.087   2.835   0.768 -1.4248 -1.3611 -0.3441
  358SOL    HW3 1506   1.937   2.853   0.754 -1.1882  1.0676 -0.0428
  358SOL    MW4 1507   2.018   2.875   0.732 -0.8526 -0.1428 -0.0911
  359SOL     OW 1508   1.986   3.140   0.835 -0.5274 -0.0686  0.0599
  359SOL    HW2 1509   1.912   3.170   0.783  0.0361 -0.5155 -1.0193
  359SOL    HW3 1510   2.006   3.053   0.801 -0.0314 -0.2918  0.9012
  359SOL    MW4 1511   1.979   3.133   0.824 -0.3875 -0.1574  0.0286
  360SOL     OW 1512   1.781   3.207   0.658 -0.4312  0.4183 -0.5749
  360SOL    HW2 1513   1.703   3.187   0.710  0.4459  0.8010  0.9429
  360SOL    HW3 1514   1.766   3.296   0.625 -0.8575  0.3081 -0.6695
  360SOL    MW4 1515   1.769   3.216   0.661 -0.3718  0.4542 -0.3871
  361SOL     OW 1516   1.919   3.558   0.830 -0.3875  0.2052  0.3888
  361SOL    HW2 1517   1.899   3.539   0.921 -2.9070 -0.9580 -0.3635
  361SOL    HW3 1518   1.897   3.650   0.819 -0.5187  0.2275  0.8373
  361SOL    MW4 1519   1.914   3.567   0.840 -0.7372  0.0548  0.3487
  362SOL     OW 1520   1.752   3.471   0.607  0.5445  0.1034  0.1417
  362SOL    HW2 1521   1.796   3.496   0.688 -0.1613  1.5304  0.0938
  362SOL    HW3 1522   1.822   3.470   0.541  0.7607  0.9483  0.3553
  362SOL    MW4 1523   1.767   3.474   0.609  0.4798  0.4027  0.1635
  363SOL     OW 1524   1.911   3.832   0.775 -0.1136 -0.2910  0.7971
  363SOL    HW2 1525   1.933   3.834   0.868  1.7563  0.6917  0.3580
  363SOL    HW3 1526   1.852   3.906   0.763  0.5534  0.2758  0.9892
  363SOL    MW4 1527   1.906   3.842   0.785  0.2211 -0.0865  0.7644
  364SOL     OW 1528   1.727   4.031   0.735  0.1465  0.0946 -0.3896
  364SOL    HW2 1529   1.646   3.984   0.752 -0.7195  1.0170 -1.9023
  364SOL    HW3 1530   1.735   4.033   0.639  2.4554 -0.8330 -0.2608
  364SOL    MW4 1531   1.717   4.025   0.725  0.3368  0.0939 -0.5721
  365SOL     OW 1532   1.793   4.297   0.839  0.3490 -0.3517 -0.4981
  365SOL    HW2 1533   1.787   4.281   0.933 -0.7723  1.6908 -0.1847
  365SOL    HW3 1534   1.778   4.212   0.799 -0.9979 -0.9232  1.1432
  365SOL    MW4 1535   1.790   4.284   0.846  0.0234 -0.1574 -0.2401
  366SOL     OW 1536   2.015   4.435   0.761  0.4585 -0.3200  0.1445
  366SOL    HW2 1537   1.939   4.392   0.800 -0.8488  2.0059  0.2497
  366SOL    HW3 1538   2.012   4.409   0.669 -0.2710 -0.5279  0.2185
  366SOL    MW4 1539   2.004   4.426   0.754  0.1895 -0.0405  0.1681
  367SOL     OW 1540   2.466   4.386   0.774 -0.1296 -0.7446 -0.3136
  367SOL    HW2 1541   2.469   4.477   0.801 -0.9024 -0.6092 -0.6689
  367SOL    HW3 1542   2.386   4.352   0.814  0.7035 -1.5596  0.7097
  367SOL    MW4 1543   2.456   4.393   0.783 -0.1218 -0.8349 -0.2254
  368SOL     OW 1544   2.223   0.130   0.734 -0.2824  0.2428 -0.0270
  368SOL    HW2 1545   2.306   0.087   0.755 -1.0069 -1.2013 -0.0599
  368SOL    HW3 1546   2.214   0.120   0.640 -0.7253 -0.0206  0.0438
  368SOL    MW4 1547   2.233   0.123   0.725 -0.4363  0.0175 -0.0220
  369SOL     OW 1548   2.226   0.403   0.820 -0.0695  0.1036 -0.3139
  369SOL    HW2 1549   2.312   0.435   0.792  0.2032 -1.0416 -0.8201
  369SOL    HW3 1550   2.228   0.310   0.800 -1.1917 -0.0528  0.2906
  369SOL    MW4 1551   2.237   0.395   0.813 -0.1817 -0.0682 -0.3009
  370SOL     OW 1552   2.479   0.486   0.742 -0.0748 -0.0044 -0.1567
  370SOL    HW2 1553   2.571   0.465   0.756  0.5338  2.2840 -0.5927
  370SOL    HW3 1554   2.466   0.473   0.648 -0.1825 -0.2932 -0.1011
  370SOL    MW4 1555   2.489   0.481   0.731 -0.0086  0.2594 -0.2068
  371SOL     OW 1556   2.462   0.746   0.840  0.2873  0.3954  0.4067
  371SOL    HW2 1557   2.545   0.787   0.813 -0.0653  0.5638 -0.4568
  371SOL    HW3 1558   2.463   0.660   0.798  0.2864  0.1713  0.8694
  371SOL    MW4 1559   2.473   0.740   0.831  0.2403  0.3880  0.3538
  372SOL     OW 1560   2.208   0.840   0.779  0.1981  0.2282 -0.6036
  372SOL    HW2 1561   2.299   0.825   0.804  0.6192  2.2374 -0.8093
  372SOL    HW3 1562   2.209   0.839   0.684 -0.1642 -0.6089 -0.6039
  372SOL    MW4 1563   2.220   0.838   0.770  0.2058  0.3829 -0.6309
  373SOL     OW 1564   2.226   1.128   0.821 -0.0940 -0.1610 -0.3860
  373SOL    HW2 1565   2.249   1.133   0.914  0.1494  0.3090 -0.4667
  373SOL    HW3 1566   2.216   1.035   0.804 -0.3498 -0.2373  0.1624
  373SOL    MW4 1567   2.228   1.117   0.831 -0.0958 -0.1091 -0.3243
  374SOL     OW 1568   2.463   1.252   0.768 -0.2482  0.3744 -0.0526
  374SOL    HW2 1569   2.379   1.208   0.777 -0.7936  1.6779  1.2214
  374SOL    HW3 1570   2.466   1.281   0.677 -1.4696  0.9150  0.0790
  374SOL    MW4 1571   2.453   1.250   0.757 -0.4811  0.6177  0.1328
  375SOL     OW 1572   2.396   1.522   0.878 -0.0310  0.4187 -0.0735
  375SOL    HW2 1573   2.480   1.560   0.853  0.8445 -1.2308  0.3189
  375SOL    HW3 1574   2.394   1.437   0.835 -0.8532 -0.1723  1.1066
  375SOL    MW4 1575   2.407   1.516   0.869 -0.0238  0.1231  0.1340
  376SOL     OW 1576   2.184   1.623   0.747  0.2362 -0.2381  0.0665
  376SOL    HW2 1577   2.250   1.590   0.808 -0.4968 -0.3718  0.7854
  376SOL    HW3 1578   2.198   1.572   0.667  0.1293 -1.1893  0.6562
  376SOL    MW4 1579   2.195   1.612   0.744  0.1256 -0.3812  0.2391
  377SOL     OW 1580   2.218   1.912   0.817 -0.0589 -0.1702 -0.1559
  377SOL    HW2 1581   2.223   1.823   0.782  1.0624  0.2090 -0.9885
  377SOL    HW3 1582   2.136   1.947   0.782 -0.4605 -0.8455  0.1029
  377SOL    MW4 1583   2.208   1.905   0.808  0.0362 -0.2093 -0.2317
  378SOL     OW 1584   2.412   2.064   0.697 -0.0809  0.0530 -0.0981
  378SOL    HW2 1585   2.332   2.023   0.729  0.2987  0.2517  1.1273
  378SOL    HW3 1586   2.398   2.073   0.603 -0.7532 -1.5798 -0.1774
  378SOL    MW4 1587   2.400   2.060   0.689 -0.1197 -0.1361  0.0532
  379SOL     OW 1588   2.356   2.299   0.831  0.2341 -0.2079  0.4711
  379SOL    HW2 1589   2.434   2.347   0.804 -0.6352  1.0547  0.1313
  379SOL    HW3 1590   2.366   2.212   0.793  0.9889  0.2744 -0.4576
  379SOL    MW4 1591   2.367   2.294   0.822  0.2191  0.0226  0.3037
  380SOL     OW 1592   2.154   2.426   0.706  0.2462 -0.2057  0.5342
  380SOL    HW2 1593   2.226   2.385   0.754 -0.4248 -1.1485  0.7516
  380SOL    HW3 1594   2.076   2.380   0.737 -0.3575  0.2537 -0.3037
  380SOL    MW4 1595   2.153   2.415   0.716  0.0780 -0.2697  0.4523
  381SOL     OW 1596   2.185   2.675   0.838 -0.4998 -0.1299  0.5027
  381SOL    HW2 1597   2.211   2.670   0.930 -1.6858  1.0665  0.9086
  381SOL    HW3 1598   2.174   2.584   0.812  0.3419 -0.5011  1.3936
  381SOL    MW4 1599   2.187   2.662   0.847 -0.5453 -0.0212  0.6737
  382SOL     OW 1600   2.406   2.824   0.751 -0.4581 -0.1992 -0.1529
  382SOL    HW2 1601   2.479   2.774   0.787  0.4240  0.9138 -0.3538
  382SOL    HW3 1602   2.330   2.767   0.762  0.4307 -1.3605  0.0895
  382SOL    MW4 1603   2.406   2.810   0.757 -0.2246 -0.2055 -0.1474
  383SOL     OW 1604   2.436   3.099   0.821 -0.0364  0.0014 -0.3783
  383SOL    HW2 1605   2.446   3.107   0.916  0.6090  1.2094 -0.5336
  383SOL    HW3 1606   2.454   3.007   0.803 -0.5329 -0.3209  0.7083
  383SOL    MW4 1607   2.440   3.088   0.831 -0.0169  0.1183 -0.2554
  384SOL     OW 1608   2.222   3.255   0.737  0.3529 -0.2956  0.0670
  384SOL    HW2 1609   2.143   3.229   0.785  1.0151 -2.2974  0.1065
  384SOL    HW3 1610   2.288   3.190   0.761  1.0741 -0.5962 -2.5584
  384SOL    MW4 1611   2.220   3.243   0.747  0.5355 -0.5994 -0.2742
  385SOL     OW 1612   2.209   3.522   0.801 -0.3414 -0.1221  0.0611
  385SOL    HW2 1613   2.223   3.430   0.776 -0.0314 -0.3483  1.0549
  385SOL    HW3 1614   2.115   3.536   0.787 -0.0991 -0.1123 -1.6374
  385SOL    MW4 1615   2.198   3.512   0.796 -0.2685 -0.1507 -0.0318
  386SOL     OW 1616   2.115   3.899   0.607  0.4487 -0.4192 -0.1220
  386SOL    HW2 1617   2.176   3.956   0.653  0.8367 -0.9471  0.0302
  386SOL    HW3 1618   2.053   3.871   0.674  1.6803 -2.0966  0.3671
  386SOL    MW4 1619   2.115   3.902   0.622  0.6621 -0.7100 -0.0374
  387SOL     OW 1620   2.453   3.914   0.883  0.1033 -0.3220  0.6200
  387SOL    HW2 1621   2.534   3.959   0.858  0.0299 -0.0257  0.9092
  387SOL    HW3 1622   2.464   3.825   0.851  0.4597 -0.2277  0.4773
  387SOL    MW4 1623   2.465   3.908   0.876  0.1407 -0.2704  0.6393
  388SOL     OW 1624   2.319   4.069   0.708 -0.0252  0.5045  0.2363
  388SOL    HW2 1625   2.367   4.017   0.773  1.5011 -0.3154 -1.5105
  388SOL    HW3 1626   2.376   4.070   0.631 -1.8825  1.3165 -1.1678
  388SOL    MW4 1627   2.333   4.062   0.707 -0.0684  0.5035 -0.1794
  389SOL     OW 1628   2.226   4.282   0.883 -0.0235 -0.3416 -0.2144
  389SOL    HW2 1629   2.237   4.216   0.815  0.9906 -0.4288  0.0216
  389SOL    HW3 1630   2.163   4.344   0.846 -0.6085 -1.1770 -0.6324
  389SOL    MW4 1631   2.219   4.281   0.869  0.0329 -0.4640 -0.2384
  390SOL     OW 1632   2.623   4.506   0.351 -0.2777 -0.1525  0.1931
  390SOL    HW2 1633   2.683   4.471   0.416  0.3637  1.4783  0.4994
  390SOL    HW3 1634   2.638   4.452   0.273 -0.5906 -1.6906  1.1877
  390SOL    MW4 1635   2.633   4.494   0.349 -0.2341 -0.1397  0.3648
  391SOL     OW 1636   2.913   0.014   0.865  0.1410  0.0252  0.2553
  391SOL    HW2 1637   2.922  -0.078   0.839  0.6134  0.1632 -0.0739
  391SOL    HW3 1638   2.831   0.042   0.825  0.6980  0.1422 -0.8350
  391SOL    MW4 1639   2.904   0.006   0.856  0.2768  0.0591  0.0681
  392SOL     OW 1640   2.437   4.365   0.493 -0.0667  0.2995  0.0343
  392SOL    HW2 1641   2.511   4.408   0.450  0.6171  0.0371  0.9594
  392SOL    HW3 1642   2.450   4.381   0.586 -1.1076  0.1369  0.2157
  392SOL    MW4 1643   2.448   4.373   0.499 -0.1137  0.2432  0.1802
  393SOL     OW 1644   2.733   0.366   0.787 -0.3187  0.6460 -0.2612
  393SOL    HW2 1645   2.712   0.366   0.881 -1.1523 -0.0778 -0.4337
  393SOL    HW3 1646   2.826   0.387   0.783  0.2850 -1.5903  0.8852
  393SOL    MW4 1647   2.743   0.369   0.799 -0.3490  0.2554 -0.1327
  394SOL     OW 1648   2.986   0.448   0.731 -0.0901 -0.0818  0.0356
  394SOL    HW2 1649   3.076   0.440   0.761 -0.2730  0.0074  0.6159
  394SOL    HW3 1650   2.993   0.476   0.640  0.4670 -0.1329  0.0641
  394SOL    MW4 1651   2.998   0.450   0.723 -0.0408 -0.0768  0.1159
  395SOL     OW 1652   2.896   0.715   0.862 -0.0551  0.3003  0.0624
  395SOL    HW2 1653   2.901   0.722   0.957 -0.4287 -0.7148  0.1620
  395SOL    HW3 1654   2.882   0.622   0.845 -0.9375  0.5963 -0.9379
  395SOL    MW4 1655   2.895   0.704   0.872 -0.2210  0.2055 -0.0565
  396SOL     OW 1656   2.700   0.879   0.736 -0.0850  0.2700  0.1973
  396SOL    HW2 1657   2.771   0.820   0.763 -0.4544 -0.7709 -1.0128
  396SOL    HW3 1658   2.718   0.894   0.643 -0.5966  1.2221  0.2587
  396SOL    MW4 1659   2.712   0.873   0.727 -0.2015  0.2583  0.0458
  397SOL     OW 1660   2.709   1.156   0.830  0.1701 -0.6964 -0.2410
  397SOL    HW2 1661   2.708   1.065   0.802 -0.2431 -0.6331 -0.4346
  397SOL    HW3 1662   2.620   1.188   0.812 -0.6535 -1.1652  2.8128
  397SOL    MW4 1663   2.697   1.149   0.824  0.0069 -0.7498  0.1364
  398SOL     OW 1664   2.911   1.265   0.683 -0.5985 -0.5222 -0.0133
  398SOL    HW2 1665   2.984   1.224   0.731 -0.6268 -1.8784 -1.0828
  398SOL    HW3 1666   2.833   1.227   0.723 -0.7517  1.1164  1.2967
  398SOL    MW4 1667   2.910   1.254   0.695 -0.6225 -0.4849  0.0185
  399SOL     OW 1668   2.870   1.514   0.819 -0.1420 -0.0247  0.2079
  399SOL    HW2 1669   2.961   1.543   0.815 -0.4323  0.8097 -0.5303
  399SOL    HW3 1670   2.872   1.424   0.788  0.3728  0.1182 -0.1739
  399SOL    MW4 1671   2.882   1.506   0.815 -0.1125  0.1042  0.0601
  400SOL     OW 1672   2.625   1.620   0.773  0.2964 -0.3055 -0.1477
  400SOL    HW2 1673   2.627   1.716   0.777 -2.1786 -0.2277 -0.0064
  400SOL    HW3 1674   2.710   1.593   0.807  1.1444  1.8490 -0.4536
  400SOL    MW4 1675   2.637   1.629   0.778  0.0818 -0.0110 -0.1695
  401SOL     OW 1676   2.653   1.924   0.800 -0.2359 -0.3721  0.1644
  401SOL    HW2 1677   2.660   1.945   0.893  0.1798  1.8598 -0.3213
  401SOL    HW3 1678   2.564   1.948   0.776 -0.5722 -1.6295  0.1350
  401SOL    MW4 1679   2.642   1.930   0.809 -0.2255 -0.2435  0.0964
  402SOL     OW 1680   2.780   2.110   0.637  0.2121  0.4712  0.0236
  402SOL    HW2 1681   2.793   2.179   0.702 -1.8975  0.7238  0.2024
  402SOL    HW3 1682   2.738   2.039   0.685  2.4064 -1.0220 -0.1406
  402SOL    MW4 1683   2.776   2.110   0.652  0.2234  0.3078  0.0255
  403SOL     OW 1684   2.833   2.334   0.821  0.1613 -0.3427 -0.0459
  403SOL    HW2 1685   2.850   2.331   0.915  1.2294  1.1083 -0.1844
  403SOL    HW3 1686   2.755   2.388   0.813 -0.7585 -1.6115  0.0875
  403SOL    MW4 1687   2.825   2.340   0.832  0.1810 -0.3188 -0.0466
  404SOL     OW 1688   2.572   2.442   0.727 -0.4582  0.2884  0.3907
  404SOL    HW2 1689   2.566   2.445   0.632  2.4069 -1.6874  0.0597
  404SOL    HW3 1690   2.591   2.532   0.753  1.5394  0.3729 -1.2067
  404SOL    MW4 1691   2.574   2.454   0.718  0.1833  0.0389  0.1362
  405SOL     OW 1692   2.631   2.686   0.847  0.6416 -0.4012 -0.2818
  405SOL    HW2 1693   2.647   2.669   0.940  1.7035 -0.2179 -0.4180
  405SOL    HW3 1694   2.713   2.724   0.815  0.6325 -1.3811 -1.5208
  405SOL    MW4 1695   2.644   2.689   0.855  0.7806 -0.5062 -0.4632
  406SOL     OW 1696   2.664   3.018   0.370 -0.1560 -0.0211  0.0597
  406SOL    HW2 1697   2.629   3.017   0.281  1.2986  0.4233 -0.5325
  406SOL    HW3 1698   2.654   3.109   0.398 -0.2529 -0.0760  0.2011
  406SOL    MW4 1699   2.658   3.030   0.362  0.0229  0.0303  0.0002
  407SOL     OW 1700   2.870   3.104   0.678 -0.4193  0.7894  0.4188
  407SOL    HW2 1701   2.790   3.147   0.708 -0.9517  0.9493 -1.1808
  407SOL    HW3 1702   2.852   3.010   0.690  0.6387  0.9368  3.6460
  407SOL    MW4 1703   2.857   3.097   0.683 -0.3502  0.8299  0.6336
  408SOL     OW 1704   2.642   3.264   0.728  0.3357 -0.0699  0.0444
  408SOL    HW2 1705   2.633   3.340   0.786  2.3042 -0.0245  0.3346
  408SOL    HW3 1706   2.567   3.208   0.749 -0.3536  1.1286  0.8295
  408SOL    MW4 1707   2.631   3.267   0.739  0.5043  0.0944  0.1863
  409SOL     OW 1708   2.650   3.510   0.859 -0.2825 -0.0953  0.0625
  409SOL    HW2 1709   2.678   3.507   0.951 -0.0078  1.3402  0.0422
  409SOL    HW3 1710   2.731   3.524   0.810 -0.4592 -0.6058 -0.3763
  409SOL    MW4 1711   2.665   3.512   0.865 -0.2697  0.0267  0.0019
  410SOL     OW 1712   2.862   3.615   0.698  0.7910  0.3286 -0.2445
  410SOL    HW2 1713   2.856   3.698   0.745 -0.9540 -0.3787  0.8448
  410SOL    HW3 1714   2.956   3.594   0.697  1.1401  1.8453  0.2941
  410SOL    MW4 1715   2.874   3.623   0.704  0.6068  0.4354 -0.0297
  411SOL     OW 1716   2.919   3.867   0.843  0.3080 -0.2243  0.2654
  411SOL    HW2 1717   2.921   3.868   0.938  1.0405  0.5637  0.2458
  411SOL    HW3 1718   2.848   3.926   0.819  0.4701 -0.0146  0.3082
  411SOL    MW4 1719   2.910   3.875   0.852  0.4258 -0.0927  0.2685
  412SOL     OW 1720   2.445   3.670   0.759  0.6701  0.0827 -0.2608
  412SOL    HW2 1721   2.365   3.626   0.786  0.7670 -0.4795 -0.8860
  412SOL    HW3 1722   2.515   3.615   0.793  0.8210  1.2984  1.5051
  412SOL    MW4 1723   2.444   3.657   0.767  0.7026  0.1688 -0.1103
  413SOL     OW 1724   2.701   4.319   0.911  0.5717  0.2268  0.5579
  413SOL    HW2 1725   2.688   4.309   1.005  0.5539  0.0359  0.5369
  413SOL    HW3 1726   2.619   4.356   0.879  0.3880 -0.1764  0.5475
  413SOL    MW4 1727   2.689   4.322   0.919  0.5450  0.1483  0.5538
  414SOL     OW 1728   2.934   4.404   0.772 -0.2256 -0.1555 -0.3147
  414SOL    HW2 1729   3.012   4.359   0.804 -0.3339 -0.6711 -0.7746
  414SOL    HW3 1730   2.865   4.382   0.836  0.0844  0.5776  0.2775
  414SOL    MW4 1731   2.935   4.395   0.785 -0.1988 -0.1268 -0.2973
  415SOL     OW 1732   3.349   0.027   0.882 -0.0680  0.0287  0.4487
  415SOL    HW2 1733   3.352   0.030   0.978  0.6194 -1.0449  0.4724
  415SOL    HW3 1734   3.275   0.083   0.859 -0.8100 -0.4271  1.6465
  415SOL    MW4 1735   3.340   0.035   0.892 -0.0753 -0.1731  0.6099
  416SOL     OW 1736   3.129   0.176   0.807 -0.0646  0.0072 -0.3098
  416SOL    HW2 1737   3.101   0.268   0.808  1.2731  0.4647  3.7005
  416SOL    HW3 1738   3.050   0.127   0.828  0.1386  0.6291  2.0640
  416SOL    MW4 1739   3.115   0.182   0.810  0.1388  0.1496  0.5325
  417SOL     OW 1740   3.232   0.432   0.871  0.1726 -0.2334 -0.4489
  417SOL    HW2 1741   3.189   0.432   0.956  0.5581 -0.1348 -0.2525
  417SOL    HW3 1742   3.317   0.390   0.886 -0.2840 -1.3747 -1.0595
  417SOL    MW4 1743   3.238   0.427   0.884  0.1631 -0.3710 -0.5035
  418SOL     OW 1744   3.466   0.504   0.622  0.0889  0.0582  0.2755
  418SOL    HW2 1745   3.492   0.460   0.704  0.0567 -1.3887 -0.4797
  418SOL    HW3 1746   3.395   0.450   0.587  0.2082  0.5854 -0.7882
  418SOL    MW4 1747   3.460   0.491   0.628  0.1004 -0.0632  0.0355
  419SOL     OW 1748   3.322   0.732   0.838  0.0426  0.3702  0.3519
  419SOL    HW2 1749   3.237   0.770   0.814  0.4051 -0.3650 -2.1327
  419SOL    HW3 1750   3.309   0.637   0.829  1.2986  0.2836 -0.6286
  419SOL    MW4 1751   3.309   0.724   0.834  0.2563  0.2617 -0.1053
  420SOL     OW 1752   3.108   0.887   0.766 -0.0657 -0.4602 -0.4949
  420SOL    HW2 1753   3.116   0.979   0.791 -0.1816 -0.1676 -1.5260
  420SOL    HW3 1754   3.025   0.858   0.805  0.8594 -0.6524  1.4115
  420SOL    MW4 1755   3.098   0.895   0.775  0.0412 -0.4470 -0.3793
  421SOL     OW 1756   3.128   1.157   0.815 -0.4123 -0.2318  0.0447
  421SOL    HW2 1757   3.116   1.189   0.904 -0.0941  1.7414 -0.5971
  421SOL    HW3 1758   3.213   1.193   0.788 -0.2835 -1.2080 -0.8931
  421SOL    MW4 1759   3.138   1.166   0.823 -0.3533 -0.1003 -0.1636
  422SOL     OW 1760   3.391   1.255   0.772 -0.2566 -0.0761  0.2761
  422SOL    HW2 1761   3.462   1.218   0.824 -0.7712 -0.0794  0.9837
  422SOL    HW3 1762   3.393   1.349   0.792  0.3515  0.1252 -0.6788
  422SOL    MW4 1763   3.400   1.263   0.781 -0.2444 -0.0501  0.2434
  423SOL     OW 1764   3.393   1.542   0.841 -0.0488  0.1374 -0.5897
  423SOL    HW2 1765   3.399   1.549   0.936  0.8138 -0.7077 -0.5651
  423SOL    HW3 1766   3.472   1.587   0.809  0.6905 -1.2769 -0.8062
  423SOL    MW4 1767   3.404   1.549   0.849  0.1626 -0.1607 -0.6151
  424SOL     OW 1768   3.145   1.634   0.792 -0.1550  1.2628 -0.2120
  424SOL    HW2 1769   3.235   1.608   0.812 -0.1149  1.9195  0.5034
  424SOL    HW3 1770   3.138   1.624   0.697 -0.1343 -1.2784  0.0173
  424SOL    MW4 1771   3.156   1.630   0.782 -0.1471  1.0142 -0.0874
  425SOL     OW 1772   3.163   1.903   0.809 -0.0832  0.3559  0.0781
  425SOL    HW2 1773   3.142   1.930   0.899  2.2327  1.0067  0.4619
  425SOL    HW3 1774   3.160   1.807   0.812 -0.3556  0.3770  0.7501
  425SOL    MW4 1775   3.160   1.894   0.821  0.1862  0.4445  0.2174
  426SOL     OW 1776   3.410   2.029   0.711  0.4716 -0.5447 -0.3521
  426SOL    HW2 1777   3.426   2.110   0.759  0.0501 -0.8401  0.2917
  426SOL    HW3 1778   3.332   1.992   0.752  2.3341 -2.7690  1.2918
  426SOL    MW4 1779   3.402   2.035   0.723  0.6618 -0.8771 -0.0503
  427SOL     OW 1780   3.381   2.301   0.802  0.1602  0.0735  0.0986
  427SOL    HW2 1781   3.368   2.330   0.892 -0.7616  1.4731 -0.4850
  427SOL    HW3 1782   3.462   2.344   0.774 -0.8690  1.6429 -0.5524
  427SOL    MW4 1783   3.390   2.310   0.810 -0.0973  0.4652 -0.0643
  428SOL     OW 1784   3.010   2.479   0.669  0.1467  0.0375  0.0686
  428SOL    HW2 1785   3.068   2.413   0.632  1.4883  0.8614  0.6611
  428SOL    HW3 1786   2.964   2.434   0.740  0.6161 -0.4270  0.0834
  428SOL    MW4 1787   3.012   2.464   0.673  0.3855  0.0849  0.1487
  429SOL     OW 1788   3.087   2.676   0.861 -0.2857  0.4298  0.4586
  429SOL    HW2 1789   3.083   2.602   0.799  1.8579 -0.9608  1.8980
  429SOL    HW3 1790   3.163   2.726   0.832 -0.0303  0.4690  1.1943
  429SOL    MW4 1791   3.097   2.673   0.849  0.0310  0.2518  0.7455
  430SOL     OW 1792   3.437   3.075   0.842 -0.3637  0.3674 -0.2351
  430SOL    HW2 1793   3.418   3.112   0.928  1.4642 -0.0483  0.3574
  430SOL    HW3 1794   3.395   2.989   0.844 -0.2623  0.3289  0.2699
  430SOL    MW4 1795   3.429   3.068   0.854 -0.1094  0.3076 -0.0902
  431SOL     OW 1796   3.701   3.043   0.900 -0.7171 -0.1292 -0.3788
  431SOL    HW2 1797   3.609   3.067   0.907 -0.2443  2.1047 -1.3207
  431SOL    HW3 1798   3.739   3.110   0.843  1.4721 -1.0766 -0.0916
  431SOL    MW4 1799   3.694   3.055   0.893 -0.3657  0.0405 -0.4651
  432SOL     OW 1800   3.095   3.114   0.850  0.1412 -0.5361 -0.2765
  432SOL    HW2 1801   3.046   3.105   0.932  0.8006  0.5389  0.2547
  432SOL    HW3 1802   3.028   3.119   0.782 -0.4778  0.4700  0.3940
  432SOL    MW4 1803   3.080   3.113   0.852  0.1464 -0.2613 -0.1179
  433SOL     OW 1804   3.229   3.359   0.893  0.6440 -0.1014  0.1064
  433SOL    HW2 1805   3.209   3.267   0.879  0.8065  0.1673 -2.1334
  433SOL    HW3 1806   3.182   3.405   0.823  1.1106  1.4408  0.7853
  433SOL    MW4 1807   3.221   3.353   0.882  0.7269  0.1373 -0.0995
  434SOL     OW 1808   3.475   3.546   0.890  0.0969  0.1099 -0.5253
  434SOL    HW2 1809   3.443   3.620   0.838 -0.5183  0.2855  0.0946
  434SOL    HW3 1810   3.409   3.477   0.877  0.4716 -0.1993 -0.7970
  434SOL    MW4 1811   3.462   3.547   0.881  0.0653  0.0925 -0.4793
  435SOL     OW 1812   3.377   3.866   0.849  0.5978  0.1083  0.4195
  435SOL    HW2 1813   3.360   3.868   0.943 -0.8555  0.2986  0.1751
  435SOL    HW3 1814   3.448   3.928   0.835  1.0014 -0.1236  1.4276
  435SOL    MW4 1815   3.384   3.874   0.859  0.4592  0.1028  0.5202
  436SOL     OW 1816   3.144   4.001   0.768  0.1921 -0.0678 -0.2164
  436SOL    HW2 1817   3.225   3.961   0.800 -0.5454 -0.7628  0.8286
  436SOL    HW3 1818   3.076   3.940   0.794 -0.6572  0.4215 -1.2568
  436SOL    MW4 1819   3.146   3.988   0.776 -0.0172 -0.0949 -0.2158
  437SOL     OW 1820   3.117   4.246   0.889  0.1401 -0.0693 -0.1989
  437SOL    HW2 1821   3.201   4.289   0.874  0.3644 -0.4313  0.0253
  437SOL    HW3 1822   3.127   4.158   0.853 -0.0309 -0.2237  0.1271
  437SOL    MW4 1823   3.129   4.240   0.883  0.1471 -0.1378 -0.1264
  438SOL     OW 1824   3.323   4.452   0.781 -0.4973  0.8657  0.1053
  438SOL    HW2 1825   3.337   4.539   0.817 -0.4506  0.2611  1.5957
  438SOL    HW3 1826   3.305   4.467   0.688  0.8937  2.3428  0.0517
  438SOL    MW4 1827   3.322   4.465   0.774 -0.3076  0.9809  0.2949
  439SOL     OW 1828   3.804   4.639   0.872  0.1821 -0.3046  0.1595
  439SOL    HW2 1829   3.878   4.681   0.828 -0.5078 -0.3231 -1.0371
  439SOL    HW3 1830   3.728   4.689   0.843 -0.5115 -1.6020 -0.2902
  439SOL    MW4 1831   3.804   4.651   0.862 -0.0005 -0.4783 -0.0577
  440SOL     OW 1832   3.592   0.108   0.741  0.3209 -0.6762  0.0054
  440SOL    HW2 1833   3.512   0.064   0.771 -0.0778  0.1719  0.2012
  440SOL    HW3 1834   3.601   0.081   0.650 -0.7524  0.0258 -0.3185
  440SOL    MW4 1835   3.583   0.098   0.733  0.1266 -0.4717 -0.0115
  441SOL     OW 1836   3.528   0.373   0.867 -0.0319  0.1837  0.9211
  441SOL    HW2 1837   3.557   0.383   0.958 -0.6752 -0.6356  1.2300
  441SOL    HW3 1838   3.535   0.279   0.850  2.4324  0.6230 -0.6934
  441SOL    MW4 1839   3.533   0.362   0.877  0.2081  0.1335  0.7488
  442SOL     OW 1840   3.778   0.505   0.783  0.0663 -0.4891 -0.1857
  442SOL    HW2 1841   3.771   0.591   0.825 -0.9754 -1.1510  1.0144
  442SOL    HW3 1842   3.700   0.458   0.811  0.2929 -1.6073 -1.3844
  442SOL    MW4 1843   3.767   0.510   0.792 -0.0415 -0.7240 -0.1855
  443SOL     OW 1844   3.765   0.737   0.939 -0.0288  0.9926 -0.1399
  443SOL    HW2 1845   3.771   0.757   1.032 -0.3265  2.1436 -0.3646
  443SOL    HW3 1846   3.841   0.781   0.900  1.2078 -1.0933 -0.1855
  443SOL    MW4 1847   3.776   0.746   0.946  0.0949  0.8692 -0.1755
  444SOL     OW 1848   3.571   0.894   0.804 -0.0209 -0.1148  0.2554
  444SOL    HW2 1849   3.629   0.837   0.854  0.9286 -0.0454 -0.7389
  444SOL    HW3 1850   3.488   0.845   0.799  0.4306 -0.9059  0.3618
  444SOL    MW4 1851   3.567   0.880   0.810  0.1638 -0.2101  0.1383
  445SOL     OW 1852   3.635   1.153   0.871  0.5123  0.0721 -0.0815
  445SOL    HW2 1853   3.638   1.172   0.965  0.0210 -0.1964 -0.0092
  445SOL    HW3 1854   3.607   1.061   0.866  1.6687 -0.2763 -0.4607
  445SOL    MW4 1855   3.632   1.143   0.883  0.6001 -0.0092 -0.1220
  446SOL     OW 1856   3.834   1.313   0.770 -0.0753  0.6018  0.1594
  446SOL    HW2 1857   3.759   1.269   0.810  0.7882 -0.5992  0.4760
  446SOL    HW3 1858   3.813   1.316   0.677 -0.1547 -0.5054  0.1285
  446SOL    MW4 1859   3.821   1.308   0.763  0.0281  0.2972  0.1971
  447SOL     OW 1860   3.829   1.556   0.885 -0.1549  0.2397 -0.0425
  447SOL    HW2 1861   3.893   1.597   0.827  0.4884  0.4554  0.8115
  447SOL    HW3 1862   3.824   1.466   0.854 -0.0080  0.4234 -0.6041
  447SOL    MW4 1863   3.837   1.549   0.874 -0.0505  0.2924 -0.0039
  448SOL     OW 1864   3.611   1.654   0.718 -0.2528 -0.2756  0.2228
  448SOL    HW2 1865   3.607   1.744   0.752 -0.0138  0.1102 -0.7545
  448SOL    HW3 1866   3.694   1.620   0.751  1.0561  0.8473 -1.7353
  448SOL    MW4 1867   3.621   1.661   0.727 -0.0489 -0.0765 -0.1644
  449SOL     OW 1868   3.644   1.907   0.797 -0.3928  0.0077  0.1499
  449SOL    HW2 1869   3.717   1.957   0.761 -1.1995  0.1948 -1.2566
  449SOL    HW3 1870   3.566   1.957   0.774 -1.0401 -0.6582  0.8482
  449SOL    MW4 1871   3.644   1.920   0.789 -0.5846 -0.0556  0.0565
  450SOL     OW 1872   3.865   2.072   0.748 -0.1855 -0.8943 -0.7335
  450SOL    HW2 1873   3.931   2.018   0.792  0.6921  0.8359  0.1445
  450SOL    HW3 1874   3.902   2.090   0.662  0.3727 -0.1730 -0.3496
  450SOL    MW4 1875   3.879   2.068   0.743  0.0038 -0.5705 -0.5670
  451SOL     OW 1876   3.735   2.294   0.836  0.0983  0.2509 -0.3933
  451SOL    HW2 1877   3.748   2.292   0.931  0.8557 -0.6356 -0.5040
  451SOL    HW3 1878   3.766   2.208   0.806 -0.4684  0.3897 -1.4005
  451SOL    MW4 1879   3.741   2.282   0.845  0.1237  0.1523 -0.5407
  452SOL     OW 1880   3.598   2.506   0.734  0.0097 -0.3762 -0.1357
  452SOL    HW2 1881   3.629   2.586   0.776 -0.1577  0.1151 -0.9383
  452SOL    HW3 1882   3.645   2.436   0.780  0.0961  0.1702  0.6224
  452SOL    MW4 1883   3.609   2.507   0.746 -0.0012 -0.2394 -0.1416
  453SOL     OW 1884   3.715   2.761   0.854 -0.1041 -0.8606 -0.3168
  453SOL    HW2 1885   3.716   2.850   0.819 -1.0961 -1.5151 -2.0352
  453SOL    HW3 1886   3.679   2.771   0.942 -0.0229  0.4520 -0.4165
  453SOL    MW4 1887   3.710   2.774   0.861 -0.2241 -0.7739 -0.5566
  454SOL     OW 1888   4.036   2.966   0.426  0.1731 -0.1678  0.6821
  454SOL    HW2 1889   4.056   3.060   0.422 -0.4341 -0.0647  0.0415
  454SOL    HW3 1890   3.990   2.948   0.345  1.8658 -1.4084 -0.0259
  454SOL    MW4 1891   4.033   2.976   0.415  0.3161 -0.3181  0.5042
  455SOL     OW 1892   3.781   3.258   0.771 -0.0393  0.0327  0.0483
  455SOL    HW2 1893   3.795   3.286   0.681  0.2879  0.1024  0.1198
  455SOL    HW3 1894   3.853   3.298   0.820 -1.2828  1.5852  0.6711
  455SOL    MW4 1895   3.792   3.267   0.766 -0.1605  0.2468  0.1399
  456SOL     OW 1896   3.833   2.935   0.613  0.0475 -0.2498 -0.1255
  456SOL    HW2 1897   3.821   2.841   0.605 -1.3971  0.0020 -1.2650
  456SOL    HW3 1898   3.911   2.955   0.561  1.7386 -1.0761  1.9894
  456SOL    MW4 1899   3.842   2.926   0.605  0.0799 -0.3257  0.0032
  457SOL     OW 1900   3.429   3.219   0.597  0.2553  0.3156 -0.0164
  457SOL    HW2 1901   3.507   3.176   0.563 -0.0871 -0.3211  0.0025
  457SOL    HW3 1902   3.433   3.203   0.692  0.8247  1.4650  0.1689
  457SOL    MW4 1903   3.440   3.211   0.605  0.2851  0.3831  0.0105
  458SOL     OW 1904   3.745   3.607   0.805  0.3137  0.7823  0.2706
  458SOL    HW2 1905   3.798   3.536   0.842 -0.4818 -1.3639 -2.5175
  458SOL    HW3 1906   3.656   3.586   0.832  0.1395  1.0081 -0.1373
  458SOL    MW4 1907   3.741   3.595   0.814  0.1857  0.5288 -0.1511
  459SOL     OW 1908   3.826   3.895   0.852  0.2070 -0.0278 -0.2224
  459SOL    HW2 1909   3.744   3.942   0.834 -0.9369 -0.3924  3.5966
  459SOL    HW3 1910   3.807   3.805   0.827 -0.1606  0.1113 -0.4628
  459SOL    MW4 1911   3.813   3.889   0.847  0.0074 -0.0577  0.2497
  460SOL     OW 1912   3.587   4.027   0.780 -0.0962 -0.1443 -0.0600
  460SOL    HW2 1913   3.592   4.121   0.800  1.8273 -0.4423  0.9959
  460SOL    HW3 1914   3.599   4.022   0.686  0.7543  0.6083  0.0003
  460SOL    MW4 1915   3.589   4.039   0.770  0.2699 -0.0844  0.0873
  461SOL     OW 1916   3.533   4.304   0.879  0.0522 -0.2752  0.3773
  461SOL    HW2 1917   3.607   4.343   0.832 -0.2608 -1.8709 -1.5000
  461SOL    HW3 1918   3.459   4.362   0.859  0.0101 -0.7170 -0.8209
  461SOL    MW4 1919   3.533   4.317   0.870  0.0052 -0.5441 -0.0284
  462SOL     OW 1920   3.792   4.335   0.734  0.5660  0.1204 -0.5358
  462SOL    HW2 1921   3.862   4.279   0.767 -0.0164 -0.9187 -1.0254
  462SOL    HW3 1922   3.797   4.414   0.787  1.1468 -0.5627  0.4430
  462SOL    MW4 1923   3.802   4.338   0.745  0.5658 -0.1068 -0.4713
  463SOL     OW 1924   4.255   0.010   0.843 -0.3896 -0.1814  0.3835
  463SOL    HW2 1925   4.255   0.020   0.938  0.0476  2.1878  0.1662
  463SOL    HW3 1926   4.170   0.044   0.815 -0.1609 -0.0496 -0.1612
  463SOL    MW4 1927   4.244   0.016   0.851 -0.3014  0.1486  0.2829
  464SOL     OW 1928   4.007   0.115   0.750  0.2855 -0.0917 -0.6240
  464SOL    HW2 1929   3.979   0.194   0.796 -2.8259 -0.9814 -0.8929
  464SOL    HW3 1930   3.998   0.137   0.657  1.0831 -0.1864 -0.7241
  464SOL    MW4 1931   4.002   0.128   0.744 -0.0196 -0.2216 -0.6727
  465SOL     OW 1932   3.988   0.355   0.880 -0.2080  0.1079  0.5247
  465SOL    HW2 1933   4.052   0.406   0.830 -1.1645  2.2049  1.3532
  465SOL    HW3 1934   3.907   0.406   0.874 -1.4174 -1.7448  0.7350
  465SOL    MW4 1935   3.986   0.368   0.873 -0.4938  0.1402  0.6618
  466SOL     OW 1936   4.192   0.504   0.754  0.0823 -0.0284 -0.2560
  466SOL    HW2 1937   4.263   0.468   0.806  0.1160 -0.3185 -0.5037
  466SOL    HW3 1938   4.234   0.532   0.672 -0.0832 -0.1816 -0.3937
  466SOL    MW4 1939   4.207   0.503   0.750  0.0648 -0.0869 -0.3068
  467SOL     OW 1940   4.198   0.747   0.874  0.3061 -0.1835 -0.0578
  467SOL    HW2 1941   4.115   0.791   0.854  0.2115 -0.2144  0.2668
  467SOL    HW3 1942   4.188   0.659   0.836  0.0949 -0.2693  0.1993
  467SOL    MW4 1943   4.186   0.741   0.866  0.2656 -0.1988  0.0190
  468SOL     OW 1944   3.971   0.865   0.814 -0.5292  0.0693  0.0583
  468SOL    HW2 1945   3.988   0.953   0.848  0.5463 -0.7414  1.7217
  468SOL    HW3 1946   3.967   0.876   0.719 -0.6666  1.9488  0.2659
  468SOL    MW4 1947   3.973   0.878   0.806 -0.4055  0.2103  0.3051
  469SOL     OW 1948   4.008   1.118   0.887  0.0514 -0.4695  0.2621
  469SOL    HW2 1949   4.017   1.146   0.978 -0.6721 -0.8720  0.4598
  469SOL    HW3 1950   3.951   1.183   0.847 -1.7048 -1.6950  0.7454
  469SOL    MW4 1951   4.002   1.130   0.894 -0.2761 -0.6844  0.3519
  470SOL     OW 1952   4.246   1.252   0.785 -0.2430 -0.2061  0.6428
  470SOL    HW2 1953   4.175   1.195   0.815 -0.9720  0.1329 -0.3949
  470SOL    HW3 1954   4.325   1.217   0.827 -1.0147 -0.6293  1.7470
  470SOL    MW4 1955   4.247   1.240   0.794 -0.4416 -0.2171  0.6515
  471SOL     OW 1956   3.996   1.663   0.685  0.2377 -0.7466 -0.3483
  471SOL    HW2 1957   4.057   1.591   0.667  1.0325  0.0917 -1.0393
  471SOL    HW3 1958   3.939   1.667   0.608  0.5622 -0.2621 -0.5641
  471SOL    MW4 1959   3.996   1.654   0.673  0.3855 -0.5721 -0.4680
  472SOL     OW 1960   4.356   1.366   0.356  0.0031  0.0234 -0.1053
  472SOL    HW2 1961   4.446   1.384   0.327  0.2863 -1.0573  0.0852
  472SOL    HW3 1962   4.320   1.453   0.376  0.1337  0.7473 -2.6798
  472SOL    MW4 1963   4.363   1.380   0.355  0.0572 -0.0236 -0.4198
  473SOL     OW 1964   4.068   1.899   0.840  0.3975  0.4338  0.1703
  473SOL    HW2 1965   4.134   1.949   0.793  0.5746  1.0268  1.0418
  473SOL    HW3 1966   4.047   1.826   0.782 -0.2026  1.7638 -1.3052
  473SOL    MW4 1967   4.074   1.896   0.826  0.3414  0.6875  0.0906
  474SOL     OW 1968   4.276   2.032   0.707 -0.3374 -0.0993  0.6017
  474SOL    HW2 1969   4.342   1.982   0.755  0.5559  0.8515  0.3800
  474SOL    HW3 1970   4.280   1.997   0.617 -0.6357 -0.5227  0.7492
  474SOL    MW4 1971   4.285   2.021   0.701 -0.2589 -0.0300  0.5919
  475SOL     OW 1972   4.236   2.263   0.872 -0.3664  0.2366 -0.0576
  475SOL    HW2 1973   4.150   2.303   0.856 -0.6991  0.0873  1.2533
  475SOL    HW3 1974   4.247   2.201   0.801 -1.9277 -0.6657  0.4644
  475SOL    MW4 1975   4.226   2.260   0.861 -0.6161  0.0980  0.1842
  476SOL     OW 1976   3.990   2.380   0.820  0.3446  0.2725  0.0756
  476SOL    HW2 1977   3.987   2.475   0.828 -0.5345  0.1049  2.1301
  476SOL    HW3 1978   3.899   2.352   0.834  1.0072 -1.0089  1.9322
  476SOL    MW4 1979   3.977   2.389   0.823  0.3159  0.0813  0.5916
  477SOL     OW 1980   3.967   2.656   0.867 -0.1703  0.7666 -0.1355
  477SOL    HW2 1981   4.023   2.701   0.803  0.4850  1.4019  0.8593
  477SOL    HW3 1982   3.884   2.703   0.863  0.4489  1.9713  0.7624
  477SOL    MW4 1983   3.964   2.668   0.858 -0.0021  1.0095  0.1142
  478SOL     OW 1984   4.169   2.807   0.705 -0.2213  0.0028 -0.2219
  478SOL    HW2 1985   4.253   2.787   0.745 -0.3974 -2.1356 -0.8930
  478SOL    HW3 1986   4.187   2.808   0.611 -0.9731 -0.5244 -0.3717
  478SOL    MW4 1987   4.182   2.805   0.698 -0.3438 -0.3488 -0.3303
  479SOL     OW 1988   4.020   2.956   0.886 -0.1303 -0.0411 -0.2613
  479SOL    HW2 1989   4.062   2.919   0.809  0.4473 -0.0497  0.0571
  479SOL    HW3 1990   3.926   2.953   0.866 -0.1594 -2.3752  0.0668
  479SOL    MW4 1991   4.013   2.951   0.873 -0.0582 -0.3500 -0.1760
  480SOL     OW 1992   4.092   3.205   0.768 -0.0369 -0.1270  0.1176
  480SOL    HW2 1993   4.187   3.197   0.773 -0.0080  0.0779 -0.0977
  480SOL    HW3 1994   4.059   3.135   0.825  0.2176 -1.3109 -1.1590
  480SOL    MW4 1995   4.100   3.194   0.776  0.0010 -0.2563 -0.0792
  481SOL     OW 1996   3.956   3.433   0.926  0.0544  0.2745  0.3038
  481SOL    HW2 1997   3.966   3.475   1.012  0.0405 -0.6137  0.7380
  481SOL    HW3 1998   4.027   3.472   0.873  0.1028  0.7766  0.7290
  481SOL    MW4 1999   3.967   3.444   0.930  0.0589  0.2236  0.4171
  482SOL     OW 2000   4.160   3.578   0.793  0.3439  0.1964  0.1702
  482SOL    HW2 2001   4.198   3.652   0.842 -0.9499  1.1583 -0.2512
  482SOL    HW3 2002   4.117   3.619   0.718 -1.9446 -0.8300  0.8979
  482SOL    MW4 2003   4.159   3.593   0.789 -0.1287  0.1879  0.2106
  483SOL     OW 2004   4.266   3.830   0.873 -0.3116  0.2794 -0.3482
  483SOL    HW2 2005   4.260   3.868   0.961 -0.8775 -0.3847 -0.0985
  483SOL    HW3 2006   4.192   3.867   0.826 -0.0283  0.6072 -0.5387
  483SOL    MW4 2007   4.256   3.840   0.879 -0.3490  0.2348 -0.3404
  484SOL     OW 2008   4.072   3.989   0.728  0.5165 -0.4394 -0.5855
  484SOL    HW2 2009   3.993   3.960   0.773  0.4434  2.8711  1.6705
  484SOL    HW3 2010   4.045   4.004   0.638 -0.7107 -1.9832 -0.4981
  484SOL    MW4 2011   4.058   3.987   0.722  0.3448 -0.2060 -0.2763
  485SOL     OW 2012   4.038   4.242   0.822  0.4497  0.2206 -0.2621
  485SOL    HW2 2013   4.112   4.288   0.784  1.2887 -1.0953 -0.2639
  485SOL    HW3 2014   4.046   4.153   0.789 -0.7751 -0.0873  0.2440
  485SOL    MW4 2015   4.049   4.236   0.813  0.3986  0.0067 -0.1956
  486SOL     OW 2016   4.223   4.420   0.724  0.0225 -0.2959 -0.9243
  486SOL    HW2 2017   4.235   4.502   0.773 -0.6502 -0.7820  0.0773
  486SOL    HW3 2018   4.287   4.360   0.763 -0.1032 -0.5068 -1.0446
  486SOL    MW4 2019   4.233   4.423   0.736 -0.0834 -0.3881 -0.8081
  487SOL     OW 2020   0.214   0.078   1.144 -0.3846  0.2109 -0.1321
  487SOL    HW2 2021   0.297   0.121   1.165 -0.2742 -0.1446  0.1522
  487SOL    HW3 2022   0.206   0.087   1.049 -0.1375  0.4520 -0.1314
  487SOL    MW4 2023   0.224   0.085   1.134 -0.3375  0.1958 -0.0945
  488SOL     OW 2024   4.471   0.142   1.259  0.3670  0.0922 -0.4714
  488SOL    HW2 2025   4.396   0.094   1.223 -0.1474  0.3630  0.2267
  488SOL    HW3 2026   4.547   0.099   1.220 -0.1679  0.1802 -1.6234
  488SOL    MW4 2027   4.471   0.130   1.249  0.2289  0.1395 -0.5313
  489SOL     OW 2028   0.011   0.419   1.159 -0.0916 -0.0712  0.3373
  489SOL    HW2 2029  -0.067   0.458   1.199  0.0976  0.3153  0.3317
  489SOL    HW3 2030  -0.000   0.325   1.173 -0.6398 -0.0315  0.1861
  489SOL    MW4 2031  -0.001   0.412   1.166 -0.1383 -0.0150  0.3166
  490SOL     OW 2032   0.233   0.551   1.254  0.5561  0.0506  0.1296
  490SOL    HW2 2033   0.231   0.642   1.222  0.2750  0.2291  0.6494
  490SOL    HW3 2034   0.157   0.510   1.215 -1.1212  0.9009  2.4128
  490SOL    MW4 2035   0.223   0.558   1.244  0.2977  0.1863  0.4994
  491SOL     OW 2036   0.232   0.825   1.126 -0.3553 -0.1072  0.1851
  491SOL    HW2 2037   0.306   0.880   1.152 -0.0062 -0.2238 -0.5542
  491SOL    HW3 2038   0.159   0.858   1.178  0.0057  0.6235  0.2412
  491SOL    MW4 2039   0.232   0.837   1.136 -0.2616 -0.0262  0.0950
  492SOL     OW 2040   4.476   0.897   1.237 -0.6541 -0.5680 -0.1034
  492SOL    HW2 2041   4.500   0.877   1.327  1.5588  0.5218 -0.4290
  492SOL    HW3 2042   4.390   0.856   1.225 -0.2966 -1.9796  2.0310
  492SOL    MW4 2043   4.468   0.889   1.247 -0.3149 -0.6105  0.1352
  493SOL     OW 2044   0.014   1.166   1.161 -0.1959  0.0967  0.2331
  493SOL    HW2 2045  -0.056   1.227   1.185 -0.9802 -0.6955  0.0009
  493SOL    HW3 2046  -0.015   1.081   1.195 -0.3028 -0.6213 -1.5749
  493SOL    MW4 2047   0.001   1.163   1.169 -0.3138 -0.1025 -0.0361
  494SOL     OW 2048   0.211   1.329   1.246  0.2675 -0.0463  0.5317
  494SOL    HW2 2049   0.293   1.295   1.210 -0.0711  0.3932 -0.7036
  494SOL    HW3 2050   0.144   1.267   1.217 -0.0184  0.3292  0.3849
  494SOL    MW4 2051   0.213   1.316   1.237  0.1851  0.0610  0.3493
  495SOL     OW 2052   0.208   1.567   1.106 -0.0155  0.1088 -0.0013
  495SOL    HW2 2053   0.229   1.483   1.148  0.1009  0.4498  0.6145
  495SOL    HW3 2054   0.207   1.546   1.012 -0.8699 -0.7739  0.1961
  495SOL    MW4 2055   0.211   1.553   1.099 -0.1129  0.0373  0.1061
  496SOL     OW 2056   0.013   1.681   1.261  0.0024  0.2994 -0.4647
  496SOL    HW2 2057   0.026   1.762   1.212 -0.2106  1.1840  0.8946
  496SOL    HW3 2058   0.076   1.619   1.223 -1.4346  0.3694 -3.0432
  496SOL    MW4 2059   0.023   1.683   1.250 -0.2153  0.4252 -0.6256
  497SOL     OW 2060   0.024   1.931   1.110  0.2221 -0.3550 -0.2814
  497SOL    HW2 2061  -0.037   1.994   1.146  2.1286  0.6487  1.2976
  497SOL    HW3 2062  -0.001   1.922   1.018 -1.3410  1.1292 -0.0149
  497SOL    MW4 2063   0.013   1.938   1.103  0.2674 -0.0267 -0.0378
  498SOL     OW 2064   0.239   2.083   1.212 -0.6134  0.3128  0.1256
  498SOL    HW2 2065   0.208   2.170   1.184 -1.6876 -0.7515 -2.1547
  498SOL    HW3 2066   0.175   2.022   1.176 -0.1236 -1.4161  2.1098
  498SOL    MW4 2067   0.227   2.087   1.203 -0.6905 -0.0558  0.0867
  499SOL     OW 2068   0.206   2.335   1.107  0.6110  0.3993  0.1363
  499SOL    HW2 2069   0.280   2.379   1.147  0.5987  1.0438 -0.5510
  499SOL    HW3 2070   0.130   2.388   1.130  0.4500  0.1258  0.2464
  499SOL    MW4 2071   0.206   2.348   1.115  0.5881  0.4482  0.0602
  500SOL     OW 2072   4.479   2.481   1.203 -0.1463 -0.1556  0.1276
  500SOL    HW2 2073   4.511   2.486   1.293  0.2531 -0.3690 -0.0054
  500SOL    HW3 2074   4.408   2.417   1.206  0.2983 -0.6501  0.1633
  500SOL    MW4 2075   4.474   2.474   1.215 -0.0353 -0.2487  0.1148
  501SOL     OW 2076   0.008   2.751   1.105 -0.2069 -0.0302  0.2952
  501SOL    HW2 2077  -0.064   2.800   1.144 -0.2738 -0.1472  0.3209
  501SOL    HW3 2078  -0.001   2.663   1.141  0.3370  0.1217  0.8085
  501SOL    MW4 2079  -0.002   2.746   1.115 -0.1440 -0.0255  0.3662
  502SOL     OW 2080   0.266   2.834   1.183 -0.0431 -0.2979  0.1370
  502SOL    HW2 2081   0.252   2.845   1.277  0.7446  2.9462 -0.0892
  502SOL    HW3 2082   0.181   2.805   1.150 -0.7683  0.0982  1.6123
  502SOL    MW4 2083   0.253   2.832   1.191 -0.0349  0.1824  0.3017
  503SOL     OW 2084   0.180   3.107   1.185 -0.1352  0.2732 -0.4802
  503SOL    HW2 2085   0.254   3.165   1.205 -1.2218  1.9283 -1.1177
  503SOL    HW3 2086   0.211   3.020   1.207  1.8531  0.9996 -0.2930
  503SOL    MW4 2087   0.194   3.103   1.190 -0.0162  0.5875 -0.5395
  504SOL     OW 2088   4.419   3.185   1.248  0.4320  0.4765  0.5872
  504SOL    HW2 2089   4.357   3.169   1.177 -0.5214  0.3563  1.4418
  504SOL    HW3 2090   4.500   3.142   1.219  0.8507  2.6007 -1.6057
  504SOL    MW4 2091   4.421   3.177   1.234  0.3610  0.7410  0.4106
  505SOL     OW 2092   0.001   3.451   1.201 -0.2176 -0.4060 -0.1956
  505SOL    HW2 2093  -0.017   3.357   1.210 -0.3248 -0.2900  0.8581
  505SOL    HW3 2094  -0.081   3.494   1.224 -0.0163 -0.0355 -0.1605
  505SOL    MW4 2095  -0.012   3.444   1.205 -0.2055 -0.3414 -0.0520
  506SOL     OW 2096   0.182   3.657   1.203 -0.1148  0.4711  0.3811
  506SOL    HW2 2097   0.207   3.678   1.293  0.1051 -1.3074  0.7360
  506SOL    HW3 2098   0.125   3.581   1.210 -0.9795  0.9711 -0.9073
  506SOL    MW4 2099   0.178   3.650   1.215 -0.1999  0.3023  0.2580
  507SOL     OW 2100   0.180   3.922   1.134  0.0276  0.2738  0.2998
  507SOL    HW2 2101   0.115   3.972   1.184 -0.4230 -0.9225  0.9079
  507SOL    HW3 2102   0.172   3.833   1.166 -0.1902 -0.5013 -1.8436
  507SOL    MW4 2103   0.170   3.917   1.145 -0.0606  0.0138  0.0973
  508SOL     OW 2104   4.477   4.082   1.253  0.3670  0.4475 -0.2167
  508SOL    HW2 2105   4.486   4.068   1.347  1.7219  0.8030 -0.2784
  508SOL    HW3 2106   4.403   4.027   1.227  1.6499 -1.7404  0.6250
  508SOL    MW4 2107   4.468   4.073   1.262  0.7153  0.2060 -0.1137
  509SOL     OW 2108   4.460   4.314   1.106 -0.4879 -0.6859 -0.3277
  509SOL    HW2 2109   4.531   4.373   1.132  0.4792 -0.6413 -2.9085
  509SOL    HW3 2110   4.469   4.239   1.165  1.2339 -0.3101 -0.0723
  509SOL    MW4 2111   4.471   4.312   1.117 -0.1335 -0.6304 -0.6346
  510SOL     OW 2112   0.188   4.483   1.218 -0.1944 -0.2238 -0.0652
  510SOL    HW2 2113   0.200   4.460   1.310  2.2178 -0.7126 -0.4751
  510SOL    HW3 2114   0.201   4.578   1.214 -1.5919 -0.0019  0.2714
  510SOL    MW4 2115   0.191   4.492   1.230 -0.0605 -0.2589 -0.0749
  511SOL     OW 2116   0.684   4.656   1.079 -0.0921 -0.3553  0.1110
  511SOL    HW2 2117   0.762   4.686   1.125  1.1880 -0.6640 -1.7706
  511SOL    HW3 2118   0.678   4.562   1.100  0.3037 -0.4271 -0.0859
  511SOL    MW4 2119   0.693   4.647   1.088  0.1290 -0.4053 -0.1631
  512SOL     OW 2120   0.465   0.131   1.220  0.1865  0.5989  0.2948
  512SOL    HW2 2121   0.481   0.224   1.205  0.4701  0.5528  0.3035
  512SOL    HW3 2122   0.538   0.087   1.177 -0.3363  0.3430 -0.3380
  512SOL    MW4 2123   0.477   0.137   1.213  0.1549  0.5590  0.2123
  513SOL     OW 2124   0.480   0.412   1.161 -0.5476 -0.3575  0.2067
  513SOL    HW2 2125   0.419   0.480   1.189  0.6047  0.6770  0.2926
  513SOL    HW3 2126   0.465   0.404   1.067 -0.2997  0.4578  0.0852
  513SOL    MW4 2127   0.470   0.420   1.152 -0.3629 -0.1134  0.2019
  514SOL     OW 2128   0.722   0.513   1.243 -0.1772 -0.2653  0.3648
  514SOL    HW2 2129   0.705   0.601   1.208  1.2765  0.1703  0.7353
  514SOL    HW3 2130   0.643   0.463   1.221 -0.0886  0.5133 -1.8382
  514SOL    MW4 2131   0.709   0.518   1.235  0.0263 -0.1051  0.1230
  515SOL     OW 2132   0.641   0.771   1.152  0.0506 -0.3602 -0.1316
  515SOL    HW2 2133   0.578   0.823   1.203  0.6979 -1.4536  1.8228
  515SOL    HW3 2134   0.635   0.806   1.063 -1.1895  1.5051  0.6713
  515SOL    MW4 2135   0.632   0.782   1.147 -0.0277 -0.2583  0.2322
  516SOL     OW 2136   0.445   0.985   1.216  0.3525  0.1617  0.1232
  516SOL    HW2 2137   0.446   0.979   1.311  1.1672 -1.9394 -0.0028
  516SOL    HW3 2138   0.429   1.078   1.198 -2.5307  0.1427  2.2682
  516SOL    MW4 2139   0.443   0.997   1.226  0.0796 -0.1180  0.3897
  517SOL     OW 2140   0.438   1.239   1.135  0.4069 -0.4404 -0.0210
  517SOL    HW2 2141   0.525   1.255   1.172  0.5101 -1.2064  0.0916
  517SOL    HW3 2142   0.452   1.237   1.041  0.3484  0.3636 -0.0463
  517SOL    MW4 2143   0.452   1.241   1.128  0.4128 -0.4355 -0.0097
  518SOL     OW 2144   0.701   1.283   1.246 -0.0780 -0.5502  0.5344
  518SOL    HW2 2145   0.766   1.217   1.221 -1.6140 -1.6606 -0.6109
  518SOL    HW3 2146   0.713   1.354   1.182 -1.3950 -1.6962 -1.0411
  518SOL    MW4 2147   0.711   1.283   1.234 -0.4545 -0.8479  0.1754
  519SOL     OW 2148   0.693   1.511   1.089 -0.0040 -0.1902  0.1067
  519SOL    HW2 2149   0.759   1.552   1.144  0.5193  0.0500 -0.6911
  519SOL    HW3 2150   0.612   1.559   1.109  0.3931  0.5588 -0.0729
  519SOL    MW4 2151   0.691   1.523   1.099  0.1175 -0.0596 -0.0223
  520SOL     OW 2152   0.476   1.654   1.178  0.6771  0.0102 -0.4832
  520SOL    HW2 2153   0.475   1.641   1.273  0.6841  1.7688 -0.2214
  520SOL    HW3 2154   0.392   1.619   1.149 -0.0949  1.0473  0.4267
  520SOL    MW4 2155   0.464   1.648   1.187  0.5762  0.3790 -0.3287
  521SOL     OW 2156   0.478   1.936   1.136 -0.5797  0.4415 -0.0066
  521SOL    HW2 2157   0.476   1.848   1.174 -0.7252 -0.0184 -1.0543
  521SOL    HW3 2158   0.402   1.980   1.173 -1.0660 -0.2008 -0.2382
  521SOL    MW4 2159   0.468   1.930   1.145 -0.6630  0.2961 -0.1752
  522SOL     OW 2160   0.685   2.086   1.245  0.2631 -0.7133  0.3284
  522SOL    HW2 2161   0.679   2.062   1.337 -1.5611 -2.0517 -0.1024
  522SOL    HW3 2162   0.609   2.044   1.204  1.6316 -1.0369 -1.9754
  522SOL    MW4 2163   0.674   2.077   1.251  0.2030 -0.9327 -0.0323
  523SOL     OW 2164   0.626   2.300   1.077  0.3071 -0.1882 -0.1246
  523SOL    HW2 2165   0.590   2.353   1.148  0.6974  0.2617 -0.2628
  523SOL    HW3 2166   0.648   2.217   1.119 -0.0502 -0.1503  0.1488
  523SOL    MW4 2167   0.624   2.296   1.092  0.3115 -0.1240 -0.1066
  524SOL     OW 2168   0.442   2.446   1.231 -0.3640 -0.3710 -0.1642
  524SOL    HW2 2169   0.433   2.469   1.323 -1.2020  0.3687 -0.4279
  524SOL    HW3 2170   0.455   2.530   1.186 -0.3158 -0.6963 -0.7657
  524SOL    MW4 2171   0.443   2.460   1.237 -0.4682 -0.3166 -0.2784
  525SOL     OW 2172   0.487   2.706   1.086  0.0859 -0.0926 -0.0187
  525SOL    HW2 2173   0.418   2.757   1.128 -1.4785 -2.0912 -0.1038
  525SOL    HW3 2174   0.463   2.705   0.993 -1.2270 -2.9456  0.3054
  525SOL    MW4 2175   0.475   2.713   1.079 -0.2937 -0.7327  0.0130
  526SOL     OW 2176   0.660   2.836   1.251  0.4349  0.2370  0.2483
  526SOL    HW2 2177   0.645   2.925   1.220 -0.6379  0.0349  0.1632
  526SOL    HW3 2178   0.609   2.781   1.191 -0.1749 -0.3072  1.2578
  526SOL    MW4 2179   0.652   2.840   1.239  0.2128  0.1385  0.3703
  527SOL     OW 2180   0.647   3.113   1.137  0.7251 -0.2423 -0.2683
  527SOL    HW2 2181   0.728   3.151   1.171  0.1313  1.2590 -0.5133
  527SOL    HW3 2182   0.658   3.115   1.042  0.3960 -0.0446 -0.3006
  527SOL    MW4 2183   0.659   3.118   1.129  0.6033 -0.0181 -0.3049
  528SOL     OW 2184   0.412   3.267   1.238 -0.3540  0.1710  0.0954
  528SOL    HW2 2185   0.415   3.349   1.190  0.5997 -1.0218 -1.9565
  528SOL    HW3 2186   0.481   3.213   1.199  0.4571 -0.8757  2.7952
  528SOL    MW4 2187   0.422   3.271   1.227 -0.1212 -0.1245  0.1808
  529SOL     OW 2188   0.424   3.523   1.132  0.1425 -0.0400  0.3574
  529SOL    HW2 2189   0.498   3.574   1.165 -0.2457  1.8497 -1.5914
  529SOL    HW3 2190   0.348   3.580   1.142 -0.7260 -1.2038  0.4834
  529SOL    MW4 2191   0.424   3.537   1.138 -0.0233  0.0558  0.1169
  530SOL     OW 2192   0.652   3.668   1.226 -0.2922 -0.1711 -0.0345
  530SOL    HW2 2193   0.649   3.673   1.322 -1.8115  0.6137 -0.0987
  530SOL    HW3 2194   0.649   3.760   1.198 -1.4780 -0.4476 -0.8545
  530SOL    MW4 2195   0.651   3.681   1.235 -0.6491 -0.1040 -0.1513
  531SOL     OW 2196   0.640   3.928   1.120  0.3630  0.0722 -0.0545
  531SOL    HW2 2197   0.561   3.967   1.158  0.0559  0.7908 -1.3841
  531SOL    HW3 2198   0.615   3.909   1.029  1.2350 -1.1381 -0.0528
  531SOL    MW4 2199   0.626   3.930   1.113  0.4375  0.0072 -0.2298
  532SOL     OW 2200   0.404   4.053   1.231 -0.0897 -0.1164 -0.7195
  532SOL    HW2 2201   0.397   4.135   1.181  1.9369 -0.8447 -2.2240
  532SOL    HW3 2202   0.320   4.009   1.217 -0.1036  0.3914 -2.2380
  532SOL    MW4 2203   0.392   4.058   1.223  0.1759 -0.1450 -1.1182
  533SOL     OW 2204   0.401   4.331   1.146  0.0471 -0.1506 -0.3428
  533SOL    HW2 2205   0.480   4.370   1.182 -0.1058  0.6430 -0.8480
  533SOL    HW3 2206   0.330   4.385   1.179 -0.1642  0.0478 -1.0958
  533SOL    MW4 2207   0.402   4.343   1.155 -0.0010 -0.0191 -0.5088
  534SOL     OW 2208   0.641   4.413   1.208 -0.3306 -0.1307  0.0646
  534SOL    HW2 2209   0.643   4.416   1.303 -0.1546  2.9064  0.0250
  534SOL    HW3 2210   0.710   4.352   1.184 -0.1062 -0.6027  1.8799
  534SOL    MW4 2211   0.650   4.406   1.217 -0.2778  0.2079  0.2990
  535SOL     OW 2212   1.122   0.011   1.123  0.1539 -0.3924 -0.3801
  535SOL    HW2 2213   1.117  -0.082   1.144 -0.5153 -0.1390  0.6214
  535SOL    HW3 2214   1.101   0.015   1.030 -2.5298 -1.0125  0.1409
  535SOL    MW4 2215   1.118  -0.001   1.114 -0.2885 -0.4411 -0.1793
  536SOL     OW 2216   0.881   0.109   1.223  0.5654  0.7147  0.4093
  536SOL    HW2 2217   0.876   0.127   1.317 -0.4769 -0.1531  0.5409
  536SOL    HW3 2218   0.963   0.061   1.212  0.0475 -0.3575  1.0985
  536SOL    MW4 2219   0.891   0.105   1.234  0.3596  0.4587  0.5176
  537SOL     OW 2220   0.940   0.370   1.143  0.4317 -0.2274 -0.2271
  537SOL    HW2 2221   0.933   0.275   1.157  0.7866  0.0066  1.6638
  537SOL    HW3 2222   0.856   0.405   1.173  0.7443  0.1864  0.1513
  537SOL    MW4 2223   0.928   0.362   1.149  0.5198 -0.1419  0.0724
  538SOL     OW 2224   1.147   0.505   1.270  0.3175 -0.5006 -0.1324
  538SOL    HW2 2225   1.135   0.518   1.364 -1.0214 -0.0291 -0.3641
  538SOL    HW3 2226   1.076   0.447   1.244  0.0668  0.1958 -1.0379
  538SOL    MW4 2227   1.136   0.499   1.279  0.1076 -0.3465 -0.2824
  539SOL     OW 2228   1.112   0.760   1.148  0.0752  0.1390  0.0436
  539SOL    HW2 2229   1.030   0.795   1.184 -1.0015 -0.0848 -2.1410
  539SOL    HW3 2230   1.120   0.673   1.188 -1.0158 -0.0392 -0.1061
  539SOL    MW4 2231   1.102   0.753   1.158 -0.2108  0.0859 -0.2643
  540SOL     OW 2232   0.881   0.888   1.247  0.3860  0.0425 -0.4092
  540SOL    HW2 2233   0.888   0.980   1.221  2.0042 -0.3168 -1.3352
  540SOL    HW3 2234   0.801   0.857   1.204 -1.5353  1.6467  1.9488
  540SOL    MW4 2235   0.872   0.896   1.238  0.3460  0.2068 -0.2202
  541SOL     OW 2236   0.881   1.125   1.112  0.0510 -0.4578  0.8175
  541SOL    HW2 2237   0.962   1.174   1.124  1.2305 -2.1166 -0.1442
  541SOL    HW3 2238   0.860   1.134   1.019 -0.7957 -0.1366  1.0362
  541SOL    MW4 2239   0.889   1.132   1.102  0.0948 -0.6343  0.7195
  542SOL     OW 2240   1.077   1.270   1.214  0.1632 -0.1859  0.4201
  542SOL    HW2 2241   1.071   1.270   1.309 -2.1994 -2.0884  0.3285
  542SOL    HW3 2242   1.157   1.222   1.195  0.4792 -0.0781  1.4420
  542SOL    MW4 2243   1.087   1.263   1.224 -0.1068 -0.4227  0.5428
  543SOL     OW 2244   1.083   1.553   1.156 -0.0847  0.5767 -0.1332
  543SOL    HW2 2245   1.065   1.459   1.165  0.5669  0.6032  1.6903
  543SOL    HW3 2246   1.101   1.565   1.063 -1.4638 -0.8669 -0.6130
  543SOL    MW4 2247   1.083   1.542   1.145 -0.1808  0.3897  0.0440
  544SOL     OW 2248   0.877   1.702   1.230  0.2627  0.4140 -0.0727
  544SOL    HW2 2249   0.891   1.782   1.179  1.7185  0.2411  0.0330
  544SOL    HW3 2250   0.957   1.651   1.216 -0.6679 -1.0448 -0.1655
  544SOL    MW4 2251   0.889   1.706   1.221  0.3320  0.1988 -0.0709
  545SOL     OW 2252   0.910   1.957   1.107  0.1780 -0.6627  0.5167
  545SOL    HW2 2253   0.979   2.001   1.156 -0.1236  0.1563  0.2260
  545SOL    HW3 2254   0.830   2.005   1.131  0.0419 -0.1515 -0.8671
  545SOL    MW4 2255   0.908   1.969   1.117  0.1202 -0.4871  0.2960
  546SOL     OW 2256   1.108   2.082   1.242  0.0898  0.0019  0.6880
  546SOL    HW2 2257   1.100   2.090   1.337 -1.3950  0.9422  0.4924
  546SOL    HW3 2258   1.112   2.172   1.210  2.1942 -0.3207 -0.0279
  546SOL    MW4 2259   1.108   2.095   1.251  0.1715  0.0834  0.5678
  547SOL     OW 2260   1.107   2.318   1.090  0.2212  0.0215  0.2369
  547SOL    HW2 2261   1.172   2.376   1.129 -0.3253  0.5118  0.4318
  547SOL    HW3 2262   1.024   2.345   1.129 -0.1442 -0.3906 -0.2394
  547SOL    MW4 2263   1.104   2.329   1.100  0.1009  0.0319  0.1997
  548SOL     OW 2264   0.869   2.448   1.181  0.1466 -0.0733 -0.1539
  548SOL    HW2 2265   0.854   2.425   1.273 -0.4815  1.1998  0.0672
  548SOL    HW3 2266   0.796   2.406   1.135 -1.2324  1.7574  0.3023
  548SOL    MW4 2267   0.857   2.439   1.187 -0.1183  0.3364 -0.0645
  549SOL     OW 2268   0.877   2.718   1.114 -0.2001  0.3484  0.4026
  549SOL    HW2 2269   0.879   2.627   1.143  1.9803  0.5505  0.9739
  549SOL    HW3 2270   0.804   2.757   1.162 -1.5141 -1.2182 -0.2663
  549SOL    MW4 2271   0.868   2.711   1.124 -0.0858  0.1686  0.3898
  550SOL     OW 2272   1.098   2.881   1.201  0.0350 -0.2150 -0.2123
  550SOL    HW2 2273   1.095   2.883   1.297  3.1985 -1.3599 -0.0467
  550SOL    HW3 2274   1.031   2.817   1.176 -0.7688  0.0483  1.2223
  550SOL    MW4 2275   1.089   2.873   1.210  0.3463 -0.3314 -0.0012
  551SOL     OW 2276   1.097   3.147   1.127 -0.1730 -0.0048  0.2650
  551SOL    HW2 2277   1.094   3.055   1.150  1.1586 -0.1991 -0.2543
  551SOL    HW3 2278   1.111   3.148   1.032  1.3146  0.6932  0.4626
  551SOL    MW4 2279   1.099   3.135   1.117  0.1988  0.0618  0.2226
  552SOL     OW 2280   0.862   3.250   1.241  0.3313  0.3885 -0.1423
  552SOL    HW2 2281   0.855   3.335   1.197 -0.6841 -0.3470 -1.4571
  552SOL    HW3 2282   0.939   3.209   1.202 -1.4972 -0.9388 -2.5244
  552SOL    MW4 2283   0.871   3.256   1.230 -0.0439  0.1166 -0.6301
  553SOL     OW 2284   0.855   3.526   1.138  0.6396 -0.5173 -0.0353
  553SOL    HW2 2285   0.778   3.577   1.163  0.2956 -1.0644  0.0295
  553SOL    HW3 2286   0.848   3.518   1.042  1.1586  0.2973 -0.1460
  553SOL    MW4 2287   0.844   3.532   1.128  0.6627 -0.4821 -0.0415
  554SOL     OW 2288   1.121   3.628   1.213  0.3520 -0.3411  0.3806
  554SOL    HW2 2289   1.179   3.579   1.155  0.2285 -0.2361  0.1685
  554SOL    HW3 2290   1.033   3.605   1.185  0.2764  1.4943 -1.0044
  554SOL    MW4 2291   1.117   3.619   1.202  0.3258 -0.0851  0.1701
  555SOL     OW 2292   1.118   3.872   1.088  0.7230  0.2624 -0.5431
  555SOL    HW2 2293   1.039   3.907   1.129  1.5394  0.9600  0.4808
  555SOL    HW3 2294   1.131   3.787   1.128 -0.4291 -0.6012 -1.9426
  555SOL    MW4 2295   1.109   3.866   1.098  0.6787  0.2406 -0.5927
  556SOL     OW 2296   0.891   4.014   1.202 -0.0793  0.6287 -0.1164
  556SOL    HW2 2297   0.886   3.994   1.295  0.7710 -0.2125 -0.2366
  556SOL    HW3 2298   0.807   3.985   1.167 -0.5353  1.2757  0.4510
  556SOL    MW4 2299   0.880   4.007   1.209 -0.0273  0.6027 -0.0575
  557SOL     OW 2300   0.863   4.270   1.101 -0.8690  0.5512 -0.0951
  557SOL    HW2 2301   0.867   4.179   1.129  1.5841  0.5097 -0.4466
  557SOL    HW3 2302   0.878   4.267   1.006 -0.1426  1.3549 -0.0164
  557SOL    MW4 2303   0.866   4.258   1.092 -0.4495  0.6518 -0.1310
  558SOL     OW 2304   1.097   4.413   1.209  0.0177  0.0963 -0.1108
  558SOL    HW2 2305   1.099   4.413   1.304 -1.1628  3.2215 -0.0242
  558SOL    HW3 2306   1.012   4.376   1.186 -1.0837  2.3917  0.1712
  558SOL    MW4 2307   1.086   4.408   1.218 -0.2835  0.8116 -0.0621
  559SOL     OW 2308   1.564   4.616   1.093  0.0835  0.0729 -0.0733
  559SOL    HW2 2309   1.639   4.663   1.127 -1.7114  1.2009  2.5109
  559SOL    HW3 2310   1.572   4.528   1.130 -0.4275  0.5194  1.1361
  559SOL    MW4 2311   1.575   4.610   1.103 -0.2208  0.2804  0.4272
  560SOL     OW 2312   1.367   0.105   1.204 -0.1348 -0.0577 -0.1834
  560SOL    HW2 2313   1.442   0.055   1.173  0.2706  0.6815 -0.4269
  560SOL    HW3 2314   1.292   0.067   1.160  0.4894  1.3268 -2.5324
  560SOL    MW4 2315   1.367   0.094   1.194  0.0010  0.2225 -0.5254
  561SOL     OW 2316   1.369   0.390   1.122  0.1730 -0.4779 -0.0606
  561SOL    HW2 2317   1.387   0.301   1.152  1.1982  0.3287  1.7690
  561SOL    HW3 2318   1.296   0.419   1.176  0.7570  0.2889  0.3238
  561SOL    MW4 2319   1.362   0.382   1.133  0.3854 -0.2703  0.2316
  562SOL     OW 2320   1.589   0.518   1.244 -0.0844  0.0479 -0.2124
  562SOL    HW2 2321   1.577   0.606   1.208 -0.8565  0.2469  0.5067
  562SOL    HW3 2322   1.523   0.464   1.200  0.8052 -0.3187 -1.1159
  562SOL    MW4 2323   1.579   0.523   1.234 -0.0689  0.0257 -0.2367
  563SOL     OW 2324   1.547   0.771   1.155  0.1692  0.0938  0.4700
  563SOL    HW2 2325   1.628   0.816   1.180 -0.9212  2.3093  0.1314
  563SOL    HW3 2326   1.543   0.779   1.060  0.9283 -2.4661  0.1837
  563SOL    MW4 2327   1.557   0.778   1.146  0.1254  0.0483  0.3874
  564SOL     OW 2328   1.319   0.886   1.272  0.1590  0.6007  0.5956
  564SOL    HW2 2329   1.390   0.842   1.226 -0.2474 -0.9680  1.4308
  564SOL    HW3 2330   1.239   0.844   1.239 -0.3249  1.5208  0.5509
  564SOL    MW4 2331   1.318   0.875   1.262  0.0416  0.5151  0.7000
  565SOL     OW 2332   1.323   1.138   1.141  0.4590 -0.2330 -0.3444
  565SOL    HW2 2333   1.319   1.044   1.161  0.2739 -0.2665 -0.5366
  565SOL    HW3 2334   1.330   1.142   1.046  0.8141 -0.0581 -0.3126
  565SOL    MW4 2335   1.323   1.126   1.131  0.4815 -0.2143 -0.3655
  566SOL     OW 2336   1.534   1.286   1.268 -0.4245 -0.3653 -0.1709
  566SOL    HW2 2337   1.607   1.239   1.228 -0.4676  0.4815 -1.2788
  566SOL    HW3 2338   1.456   1.242   1.235 -0.4410 -0.5792  0.1462
  566SOL    MW4 2339   1.534   1.274   1.258 -0.4324 -0.2818 -0.2754
  567SOL     OW 2340   1.563   1.525   1.101  0.0446  0.5789 -0.3819
  567SOL    HW2 2341   1.636   1.572   1.141 -0.1952  1.2116 -0.6923
  567SOL    HW3 2342   1.555   1.445   1.154  1.6231  0.0029 -0.9816
  567SOL    MW4 2343   1.571   1.521   1.113  0.2214  0.5863 -0.5020
  568SOL     OW 2344   1.326   1.676   1.205 -0.6107 -0.2415  0.4536
  568SOL    HW2 2345   1.392   1.626   1.157 -0.2037  0.3274  0.4201
  568SOL    HW3 2346   1.248   1.622   1.201 -0.2764 -0.7009  0.0856
  568SOL    MW4 2347   1.325   1.662   1.198 -0.5128 -0.2270  0.4005
  569SOL     OW 2348   1.299   1.960   1.086  0.4119  0.3327  0.1900
  569SOL    HW2 2349   1.314   1.873   1.123  0.7126  0.3098  0.0205
  569SOL    HW3 2350   1.238   2.002   1.146 -0.4002 -0.3004 -0.1741
  569SOL    MW4 2351   1.293   1.954   1.098  0.3444  0.2463  0.1196
  570SOL     OW 2352   1.529   2.070   1.215  0.3080 -0.1624 -0.6238
  570SOL    HW2 2353   1.529   2.163   1.191  0.6206  0.0737  0.2798
  570SOL    HW3 2354   1.444   2.038   1.183 -1.8186  1.5007  2.9848
  570SOL    MW4 2355   1.518   2.078   1.207  0.0687  0.0885 -0.0285
  571SOL     OW 2356   1.555   2.320   1.109  0.3519 -0.0229  0.5552
  571SOL    HW2 2357   1.474   2.366   1.132 -1.1143 -1.7352 -1.0013
  571SOL    HW3 2358   1.560   2.327   1.014  1.9921 -0.0120  0.6389
  571SOL    MW4 2359   1.545   2.327   1.099  0.3749 -0.2475  0.3611
  572SOL     OW 2360   1.339   2.475   1.173  0.2972  0.2802 -0.1083
  572SOL    HW2 2361   1.337   2.478   1.269  0.5471 -1.4721 -0.0458
  572SOL    HW3 2362   1.335   2.567   1.147 -2.8426  0.6624  1.5201
  572SOL    MW4 2363   1.338   2.488   1.182 -0.0842  0.0997  0.1146
  573SOL     OW 2364   1.316   2.740   1.098 -0.1885  0.0914  0.2181
  573SOL    HW2 2365   1.386   2.783   1.147  0.3495 -0.5151  0.0047
  573SOL    HW3 2366   1.235   2.767   1.142  0.0898  1.7500 -0.2510
  573SOL    MW4 2367   1.315   2.749   1.110 -0.0808  0.2303  0.1280
  574SOL     OW 2368   1.559   2.848   1.212  0.3318  0.0451 -0.3829
  574SOL    HW2 2369   1.633   2.796   1.180  0.3041 -0.3402  0.1688
  574SOL    HW3 2370   1.566   2.931   1.164  1.7084  0.3914  0.3827
  574SOL    MW4 2371   1.570   2.852   1.201  0.5097  0.0401 -0.2091
  575SOL     OW 2372   1.556   3.100   1.064  0.3522 -0.0178  0.1377
  575SOL    HW2 2373   1.627   3.156   1.095 -1.6083  1.7672  1.5529
  575SOL    HW3 2374   1.483   3.119   1.122 -1.0403 -2.5016 -0.6988
  575SOL    MW4 2375   1.556   3.110   1.076 -0.0902 -0.1099  0.2141
  576SOL     OW 2376   1.348   3.241   1.222 -0.1259 -0.3382  0.0468
  576SOL    HW2 2377   1.346   3.241   1.317 -0.3057 -0.6348  0.0413
  576SOL    HW3 2378   1.269   3.194   1.195  0.6244 -1.4515 -0.2343
  576SOL    MW4 2379   1.337   3.235   1.231 -0.0507 -0.5240  0.0091
  577SOL     OW 2380   1.346   3.483   1.098  0.3544  0.6958  0.0290
  577SOL    HW2 2381   1.341   3.399   1.142 -0.6191  0.4485 -0.5422
  577SOL    HW3 2382   1.360   3.461   1.006 -0.0015  1.1499 -0.1353
  577SOL    MW4 2383   1.347   3.469   1.091  0.1791  0.7229 -0.0681
  578SOL     OW 2384   1.574   3.632   1.189 -0.3333 -0.3679 -0.5736
  578SOL    HW2 2385   1.564   3.719   1.150  0.6046 -0.9185 -2.0629
  578SOL    HW3 2386   1.498   3.583   1.156 -0.7983 -0.1623  0.1731
  578SOL    MW4 2387   1.563   3.637   1.179 -0.2708 -0.4137 -0.6715
  579SOL     OW 2388   1.548   3.878   1.084  0.0460  0.1360 -0.3618
  579SOL    HW2 2389   1.469   3.911   1.126 -0.2277 -0.2123 -0.5989
  579SOL    HW3 2390   1.535   3.895   0.991 -0.4422 -1.3217 -0.5763
  579SOL    MW4 2391   1.536   3.884   1.077 -0.0546 -0.1023 -0.4213
  580SOL     OW 2392   1.318   4.002   1.225 -0.4151  0.4231  0.1409
  580SOL    HW2 2393   1.319   4.095   1.203  1.2216  0.0568 -1.4945
  580SOL    HW3 2394   1.247   3.965   1.172 -1.1582  0.7503  0.8980
  580SOL    MW4 2395   1.309   4.009   1.215 -0.2972  0.4177  0.0250
  581SOL     OW 2396   1.323   4.274   1.148 -0.5312  0.2025  0.7190
  581SOL    HW2 2397   1.243   4.322   1.170 -0.4640  0.4338  0.4558
  581SOL    HW3 2398   1.328   4.278   1.053  0.2017  0.8339  0.7834
  581SOL    MW4 2399   1.313   4.281   1.139 -0.4257  0.3157  0.6928
  582SOL     OW 2400   1.565   4.367   1.223  0.1590  0.1203 -0.1662
  582SOL    HW2 2401   1.574   4.355   1.318  0.8553 -0.0357 -0.2483
  582SOL    HW3 2402   1.477   4.337   1.203  0.9242 -2.3499  0.0249
  582SOL    MW4 2403   1.555   4.362   1.233  0.3518 -0.2260 -0.1518
  583SOL     OW 2404   1.996   0.011   1.123  0.0123 -0.1391  0.2429
  583SOL    HW2 2405   2.001  -0.083   1.140 -1.1763 -0.4788 -1.1086
  583SOL    HW3 2406   1.987   0.017   1.027  0.3288  1.3515  0.2973
  583SOL    MW4 2407   1.995  -0.001   1.112 -0.1028  0.0127  0.0718
  584SOL     OW 2408   1.768   0.126   1.202 -0.3728  0.0491  0.3191
  584SOL    HW2 2409   1.773   0.221   1.189  1.0621  0.3475  2.6342
  584SOL    HW3 2410   1.854   0.094   1.174 -0.5224 -0.4407  0.4224
  584SOL    MW4 2411   1.780   0.135   1.196 -0.2033  0.0238  0.6381
  585SOL     OW 2412   1.802   0.383   1.112 -0.5625 -0.1892  0.0766
  585SOL    HW2 2413   1.719   0.416   1.147 -0.9088 -1.3316  0.3368
  585SOL    HW3 2414   1.793   0.394   1.017 -0.3692  1.1542  0.1958
  585SOL    MW4 2415   1.790   0.389   1.104 -0.5826 -0.1626  0.1266
  586SOL     OW 2416   2.032   0.484   1.223 -0.2676 -0.3286 -0.7450
  586SOL    HW2 2417   2.018   0.495   1.317  0.3055  3.4174 -1.0355
  586SOL    HW3 2418   1.948   0.454   1.190 -1.3019  1.0653  0.5625
  586SOL    MW4 2419   2.019   0.481   1.231 -0.3283  0.3496 -0.6107
  587SOL     OW 2420   1.984   0.761   1.156 -0.5487 -0.2931  0.3009
  587SOL    HW2 2421   1.992   0.678   1.204  4.2445 -0.3481 -0.3451
  587SOL    HW3 2422   1.978   0.735   1.064  1.1643  0.0160  0.0810
  587SOL    MW4 2423   1.984   0.746   1.150  0.3098 -0.2596  0.1866
  588SOL     OW 2424   1.760   0.909   1.244 -0.5681  0.2112 -0.1392
  588SOL    HW2 2425   1.756   0.901   1.340 -1.7939 -2.7845 -0.3901
  588SOL    HW3 2426   1.842   0.866   1.220 -0.5742  0.3866 -0.4713
  588SOL    MW4 2427   1.770   0.902   1.254 -0.7306 -0.1609 -0.2162
  589SOL     OW 2428   1.760   1.178   1.150  0.4855  0.6349 -0.1078
  589SOL    HW2 2429   1.753   1.094   1.195  0.3723  0.9592  0.4845
  589SOL    HW3 2430   1.759   1.156   1.057  2.2258 -0.1662  0.0496
  589SOL    MW4 2431   1.759   1.164   1.144  0.7002  0.5720 -0.0089
  590SOL     OW 2432   2.003   1.266   1.245  0.5030 -0.8074 -0.0037
  590SOL    HW2 2433   2.078   1.229   1.197  1.0445  0.8947 -0.4844
  590SOL    HW3 2434   1.927   1.221   1.208  1.0526 -0.6158 -1.3990
  590SOL    MW4 2435   2.003   1.255   1.234  0.6471 -0.5574 -0.2512
  591SOL     OW 2436   2.019   1.540   1.160  0.4333  0.1978 -0.2123
  591SOL    HW2 2437   2.002   1.457   1.206  1.2530 -0.2036 -0.6166
  591SOL    HW3 2438   1.998   1.521   1.068 -2.5870  1.4076  0.1608
  591SOL    MW4 2439   2.014   1.526   1.154  0.1431  0.3045 -0.2165
  592SOL     OW 2440   1.778   1.645   1.219  0.2281  0.1898 -0.3653
  592SOL    HW2 2441   1.785   1.738   1.200 -0.3860  0.1810 -0.6307
  592SOL    HW3 2442   1.861   1.608   1.188  0.6441  0.7064  0.1180
  592SOL    MW4 2443   1.790   1.652   1.212  0.2018  0.2569 -0.3365
  593SOL     OW 2444   1.757   1.906   1.112  0.0655 -0.1023  0.2806
  593SOL    HW2 2445   1.697   1.974   1.143  1.7275  2.0630 -1.1178
  593SOL    HW3 2446   1.755   1.914   1.017  0.6192 -1.7438  0.1146
  593SOL    MW4 2447   1.749   1.916   1.104  0.3579 -0.0331  0.0741
  594SOL     OW 2448   2.008   2.043   1.172 -0.2058  0.1189 -0.1523
  594SOL    HW2 2449   2.010   2.034   1.268  0.9174 -0.9428 -0.2621
  594SOL    HW3 2450   1.927   1.998   1.147 -1.5246  2.0872  0.4376
  594SOL    MW4 2451   1.998   2.036   1.182 -0.2316  0.2387 -0.0890
  595SOL     OW 2452   1.976   2.290   1.080 -0.1274 -0.0853  0.3924
  595SOL    HW2 2453   2.052   2.329   1.123 -0.8889  0.1931  1.5013
  595SOL    HW3 2454   1.972   2.201   1.114 -0.7712  0.1564  0.9717
  595SOL    MW4 2455   1.985   2.283   1.090 -0.3128 -0.0169  0.6152
  596SOL     OW 2456   1.782   2.448   1.211 -0.1430 -0.5484  0.0830
  596SOL    HW2 2457   1.854   2.397   1.175 -0.9850 -0.4452 -1.7911
  596SOL    HW3 2458   1.703   2.406   1.176 -0.8990  0.9814 -0.0796
  596SOL    MW4 2459   1.781   2.435   1.202 -0.3539 -0.3326 -0.1856
  597SOL     OW 2460   1.784   2.710   1.110 -0.0351 -0.5583  0.1677
  597SOL    HW2 2461   1.789   2.614   1.117  2.2956 -0.4577  0.2790
  597SOL    HW3 2462   1.792   2.727   1.016  0.5684 -0.4254  0.2430
  597SOL    MW4 2463   1.785   2.699   1.098  0.3520 -0.5271  0.1923
  598SOL     OW 2464   2.049   2.825   1.190 -0.1050  0.2699  0.2092
  598SOL    HW2 2465   2.027   2.915   1.168 -2.7795 -0.2325  0.7130
  598SOL    HW3 2466   1.974   2.774   1.161  0.8617 -1.6647  1.0139
  598SOL    MW4 2467   2.036   2.830   1.183 -0.3304 -0.0515  0.3819
  599SOL     OW 2468   1.991   3.076   1.118  0.2329  0.3658 -0.0659
  599SOL    HW2 2469   1.908   3.115   1.147 -0.5638 -0.6536 -0.9242
  599SOL    HW3 2470   1.994   3.093   1.024  0.6748 -0.1822 -0.1551
  599SOL    MW4 2471   1.980   3.083   1.109  0.1861  0.1588 -0.1907
  600SOL     OW 2472   1.779   3.227   1.195 -0.5431  0.2093 -0.0126
  600SOL    HW2 2473   1.800   3.240   1.288  1.1782  0.4992 -0.4323
  600SOL    HW3 2474   1.791   3.313   1.156  1.2178 -0.4477 -0.9671
  600SOL    MW4 2475   1.783   3.240   1.202 -0.0836  0.1609 -0.1940
  601SOL     OW 2476   1.807   3.502   1.072 -0.4228  0.1801 -0.2855
  601SOL    HW2 2477   1.867   3.522   1.144  0.6991  0.0545 -1.1725
  601SOL    HW3 2478   1.727   3.551   1.094 -0.1594  0.0180  1.1140
  601SOL    MW4 2479   1.804   3.511   1.085 -0.2401  0.1426 -0.2178
  602SOL     OW 2480   2.026   3.620   1.193 -0.6585 -0.5072 -0.2646
  602SOL    HW2 2481   2.030   3.629   1.288 -0.3187  1.4836 -0.4495
  602SOL    HW3 2482   2.107   3.575   1.169 -0.0729  0.2478  0.2674
  602SOL    MW4 2483   2.037   3.615   1.202 -0.5364 -0.1447 -0.2187
  603SOL     OW 2484   1.997   3.889   1.032 -0.1408  0.2935  0.4471
  603SOL    HW2 2485   1.921   3.925   1.076  0.2380  1.8475 -0.0985
  603SOL    HW3 2486   2.010   3.803   1.070 -2.7835 -0.4148 -0.1888
  603SOL    MW4 2487   1.989   3.883   1.043 -0.4394  0.4053  0.2912
  604SOL     OW 2488   1.781   3.990   1.180 -0.0097 -0.2856  0.3376
  604SOL    HW2 2489   1.782   4.000   1.275  1.8507  0.9225  0.2063
  604SOL    HW3 2490   1.696   3.949   1.161 -0.8285  0.4040  2.4069
  604SOL    MW4 2491   1.770   3.986   1.190  0.1278 -0.0350  0.5932
  605SOL     OW 2492   1.809   4.264   1.119  0.2330 -0.1696 -0.6843
  605SOL    HW2 2493   1.797   4.169   1.123  0.0605 -0.1528 -0.8466
  605SOL    HW3 2494   1.728   4.300   1.155  0.9658 -0.1114  0.9545
  605SOL    MW4 2495   1.797   4.256   1.124  0.3070 -0.1597 -0.4895
  606SOL     OW 2496   2.006   4.420   1.226  0.3267  0.5544 -0.0256
  606SOL    HW2 2497   1.997   4.424   1.321  0.5160  0.7851 -0.0177
  606SOL    HW3 2498   1.933   4.365   1.198  0.1607  0.6367  0.2376
  606SOL    MW4 2499   1.995   4.414   1.235  0.3299  0.5960  0.0103
  607SOL     OW 2500   2.454   4.651   1.119  0.1344  0.2722 -0.2118
  607SOL    HW2 2501   2.534   4.699   1.143 -0.3885  0.5600  1.0149
  607SOL    HW3 2502   2.384   4.699   1.163 -0.6985 -0.0703 -1.1557
  607SOL    MW4 2503   2.455   4.664   1.128 -0.0448  0.2651 -0.1744
  608SOL     OW 2504   2.229   0.128   1.212 -0.0446  0.0608  0.2342
  608SOL    HW2 2505   2.241   0.218   1.180 -0.4394 -0.3215 -1.0243
  608SOL    HW3 2506   2.148   0.098   1.170  2.1066 -2.2162 -2.4557
  608SOL    MW4 2507   2.220   0.136   1.202  0.1874 -0.2901 -0.2867
  609SOL     OW 2508   2.253   0.390   1.114 -0.1328 -0.1271 -0.1181
  609SOL    HW2 2509   2.173   0.426   1.151  0.6296  2.2581 -0.7182
  609SOL    HW3 2510   2.243   0.402   1.019 -0.4083 -2.6852 -0.4469
  609SOL    MW4 2511   2.241   0.396   1.106 -0.0684 -0.1499 -0.2407
  610SOL     OW 2512   2.492   0.485   1.200  0.3046 -0.1906  0.6627
  610SOL    HW2 2513   2.493   0.467   1.295 -0.8384 -0.9417  0.5345
  610SOL    HW3 2514   2.403   0.466   1.173  0.3882  0.9112 -0.4194
  610SOL    MW4 2515   2.481   0.480   1.209  0.1645 -0.1444  0.5029
  611SOL     OW 2516   2.493   0.763   1.127  0.0909  0.2334  0.1782
  611SOL    HW2 2517   2.500   0.680   1.174  1.4940  0.6592  0.7378
  611SOL    HW3 2518   2.482   0.738   1.035  1.3601 -0.5583  0.2418
  611SOL    MW4 2519   2.492   0.748   1.121  0.4432  0.1851  0.2605
  612SOL     OW 2520   2.238   0.897   1.202 -0.0786  0.4073  0.3565
  612SOL    HW2 2521   2.315   0.848   1.171 -0.0139  1.0989 -0.5857
  612SOL    HW3 2522   2.163   0.845   1.173  0.0082  0.3850  0.1715
  612SOL    MW4 2523   2.239   0.884   1.194 -0.0587  0.4957  0.2080
  613SOL     OW 2524   2.230   1.157   1.107  0.2660  0.4011  0.1651
  613SOL    HW2 2525   2.315   1.180   1.145  0.5565 -0.8370  0.2756
  613SOL    HW3 2526   2.212   1.069   1.140 -1.4304  0.9565  0.7785
  613SOL    MW4 2527   2.239   1.149   1.116  0.0806  0.3111  0.2606
  614SOL     OW 2528   2.456   1.249   1.262 -0.0295 -0.4613  0.1521
  614SOL    HW2 2529   2.542   1.228   1.227  1.8359  2.8058  2.5177
  614SOL    HW3 2530   2.442   1.341   1.240 -2.4460 -0.6400  0.7572
  614SOL    MW4 2531   2.465   1.258   1.254 -0.1018 -0.0538  0.5440
  615SOL     OW 2532   2.447   1.510   1.169 -0.2302 -0.5358  0.0485
  615SOL    HW2 2533   2.381   1.561   1.217  0.9668 -0.4737  1.6592
  615SOL    HW3 2534   2.427   1.526   1.077 -2.0453  0.0313  0.5136
  615SOL    MW4 2535   2.435   1.519   1.163 -0.3119 -0.4528  0.3225
  616SOL     OW 2536   2.223   1.685   1.256  0.2740  0.1109 -0.0998
  616SOL    HW2 2537   2.231   1.760   1.198  0.8152 -1.2596 -1.8228
  616SOL    HW3 2538   2.156   1.630   1.215  0.8123 -0.9685  0.4434
  616SOL    MW4 2539   2.215   1.688   1.243  0.4168 -0.2124 -0.2555
  617SOL     OW 2540   2.254   1.918   1.098 -0.0879 -0.1859  0.3967
  617SOL    HW2 2541   2.180   1.972   1.125  0.4718  0.4515  0.6850
  617SOL    HW3 2542   2.250   1.918   1.003 -0.9484 -0.8530  0.4292
  617SOL    MW4 2543   2.244   1.925   1.089 -0.1278 -0.1898  0.4389
  618SOL     OW 2544   2.483   2.054   1.214  0.8727  0.5904 -0.5447
  618SOL    HW2 2545   2.552   1.998   1.178 -0.2515 -1.9828  1.0729
  618SOL    HW3 2546   2.402   2.020   1.175  0.1474  0.9462  0.6218
  618SOL    MW4 2547   2.481   2.042   1.204  0.6287  0.2978 -0.1774
  619SOL     OW 2548   2.416   2.315   1.124 -0.1698  0.2338  0.5626
  619SOL    HW2 2549   2.438   2.226   1.153 -0.3995  0.7757  2.4487
  619SOL    HW3 2550   2.407   2.307   1.029  0.0145 -1.7224  0.6797
  619SOL    MW4 2551   2.418   2.302   1.115 -0.1757  0.0470  0.8271
  620SOL     OW 2552   2.171   2.413   1.218  0.3702 -0.2387 -0.2185
  620SOL    HW2 2553   2.169   2.419   1.313  0.8301  2.3169 -0.3204
  620SOL    HW3 2554   2.255   2.372   1.198  0.9853  0.6828  0.4462
  620SOL    MW4 2555   2.182   2.409   1.228  0.5121  0.2203 -0.1442
  621SOL     OW 2556   2.252   2.657   1.102 -0.2481  0.2171 -0.0131
  621SOL    HW2 2557   2.232   2.574   1.145  1.5098 -1.2708 -1.9721
  621SOL    HW3 2558   2.198   2.721   1.148 -3.2143 -2.2979  0.2071
  621SOL    MW4 2559   2.242   2.654   1.114 -0.4077 -0.3107 -0.2425
  622SOL     OW 2560   2.467   2.833   1.218 -0.6143  0.3452 -0.1690
  622SOL    HW2 2561   2.448   2.843   1.311 -0.8430  0.1242 -0.1898
  622SOL    HW3 2562   2.400   2.772   1.186  0.4539 -0.8756 -0.1348
  622SOL    MW4 2563   2.456   2.826   1.226 -0.5035  0.1550 -0.1673
  623SOL     OW 2564   2.459   3.084   1.107 -0.2597  0.1959  0.4331
  623SOL    HW2 2565   2.372   3.111   1.135 -0.5227  1.4986 -1.6035
  623SOL    HW3 2566   2.471   2.997   1.147 -2.3797  0.0919  0.8833
  623SOL    MW4 2567   2.449   3.076   1.116 -0.5741  0.3543  0.2238
  624SOL     OW 2568   2.222   3.225   1.203 -0.3579  0.3540 -0.3093
  624SOL    HW2 2569   2.220   3.318   1.177 -0.5902  0.6526  0.7502
  624SOL    HW3 2570   2.134   3.193   1.186 -0.4364  0.4778 -0.1362
  624SOL    MW4 2571   2.210   3.233   1.198 -0.3991  0.4096 -0.1467
  625SOL     OW 2572   2.231   3.482   1.093  0.1619 -0.1754  0.4798
  625SOL    HW2 2573   2.314   3.524   1.114  0.7710 -1.3027  0.3834
  625SOL    HW3 2574   2.219   3.496   0.999  0.5285 -0.4980  0.3834
  625SOL    MW4 2575   2.240   3.489   1.083  0.2906 -0.3667  0.4544
  626SOL     OW 2576   2.485   3.590   1.184  0.2379 -0.0426 -0.1342
  626SOL    HW2 2577   2.472   3.598   1.279  1.1329 -0.0916 -0.0014
  626SOL    HW3 2578   2.463   3.677   1.150 -1.1920 -0.3456 -0.0206
  626SOL    MW4 2579   2.480   3.603   1.192  0.1671 -0.0892 -0.1017
  627SOL     OW 2580   2.465   3.865   1.141  0.0003  0.2275  0.3484
  627SOL    HW2 2581   2.392   3.904   1.190 -0.6525 -1.1713  0.5027
  627SOL    HW3 2582   2.446   3.885   1.049 -0.1293  0.6029  0.4574
  627SOL    MW4 2583   2.453   3.873   1.135 -0.1030  0.0925  0.3831
  628SOL     OW 2584   2.192   3.978   1.216 -0.1025  0.3071 -0.2640
  628SOL    HW2 2585   2.204   4.062   1.171 -0.5178  0.1977 -0.5753
  628SOL    HW3 2586   2.141   3.925   1.155 -0.9504  0.2715  0.4749
  628SOL    MW4 2587   2.187   3.982   1.202 -0.2692  0.2875 -0.2077
  629SOL     OW 2588   2.232   4.245   1.161  0.5955 -0.5449  0.3021
  629SOL    HW2 2589   2.149   4.285   1.188 -0.2068 -0.8189 -1.6281
  629SOL    HW3 2590   2.229   4.247   1.065  3.5479  0.9046  0.1846
  629SOL    MW4 2591   2.221   4.251   1.152  0.8790 -0.3901  0.0319
  630SOL     OW 2592   2.441   4.410   1.241 -0.1462 -0.0781  0.0023
  630SOL    HW2 2593   2.366   4.370   1.197 -0.1281  0.7170 -0.7722
  630SOL    HW3 2594   2.444   4.499   1.207  1.6703 -0.3529 -0.6007
  630SOL    MW4 2595   2.431   4.417   1.231  0.0958 -0.0100 -0.1794
  631SOL     OW 2596   2.945   0.044   1.143  1.0033 -0.3194 -0.4169
  631SOL    HW2 2597   2.949  -0.043   1.182  1.3117  0.1771  0.6693
  631SOL    HW3 2598   2.943   0.028   1.048 -2.2435 -1.6449 -0.1917
  631SOL    MW4 2599   2.945   0.030   1.135  0.6156 -0.4288 -0.2438
  632SOL     OW 2600   2.690   0.130   1.187 -0.3385 -0.2715 -0.2346
  632SOL    HW2 2601   2.691   0.126   1.283 -1.0272 -0.6009 -0.2358
  632SOL    HW3 2602   2.777   0.100   1.161 -0.8960 -2.3860  0.2181
  632SOL    MW4 2603   2.702   0.126   1.197 -0.5028 -0.5939 -0.1750
  633SOL     OW 2604   2.703   0.379   1.060  0.2633 -0.2978  0.0867
  633SOL    HW2 2605   2.708   0.289   1.091 -1.1302 -0.0819  1.0007
  633SOL    HW3 2606   2.625   0.415   1.103  0.9620  1.4246 -0.0205
  633SOL    MW4 2607   2.693   0.372   1.070  0.1717 -0.0421  0.1932
  634SOL     OW 2608   2.882   0.492   1.230 -0.3643  0.1364 -0.3654
  634SOL    HW2 2609   2.881   0.585   1.208 -0.3742  0.2513  0.1134
  634SOL    HW3 2610   2.812   0.454   1.178 -0.0054  0.3002 -0.9780
  634SOL    MW4 2611   2.873   0.500   1.220 -0.3181  0.1732 -0.3830
  635SOL     OW 2612   2.942   0.759   1.137  0.0376 -0.9706 -0.0396
  635SOL    HW2 2613   3.025   0.802   1.159 -0.3467 -0.6165  0.7189
  635SOL    HW3 2614   2.876   0.825   1.154 -0.4916 -1.5936  0.3136
  635SOL    MW4 2615   2.944   0.773   1.142 -0.0830 -1.0061  0.1069
  636SOL     OW 2616   2.707   0.902   1.209 -0.5907  0.1314 -0.1151
  636SOL    HW2 2617   2.698   0.986   1.164  0.5233 -0.3970 -1.3688
  636SOL    HW3 2618   2.639   0.847   1.170  0.6820 -0.4718 -1.5410
  636SOL    MW4 2619   2.697   0.906   1.198 -0.2759 -0.0179 -0.4686
  637SOL     OW 2620   2.688   1.154   1.101 -0.1592  0.4955  0.6213
  637SOL    HW2 2621   2.762   1.207   1.130  0.0047  0.0103  1.0812
  637SOL    HW3 2622   2.701   1.146   1.006 -0.5401  1.8264  0.4498
  637SOL    MW4 2623   2.700   1.160   1.092 -0.1879  0.6071  0.6593
  638SOL     OW 2624   2.911   1.286   1.193 -0.0129  0.4163  0.0665
  638SOL    HW2 2625   2.897   1.278   1.287 -1.4462  1.6203 -0.0324
  638SOL    HW3 2626   2.895   1.378   1.174 -0.0637  0.1130 -1.4060
  638SOL    MW4 2627   2.907   1.297   1.203 -0.2089  0.5351 -0.1408
  639SOL     OW 2628   2.887   1.549   1.106 -0.3238  0.5776  0.0894
  639SOL    HW2 2629   2.954   1.617   1.120  0.4290 -0.5640  2.0875
  639SOL    HW3 2630   2.893   1.530   1.012  0.3282  2.3648 -0.2611
  639SOL    MW4 2631   2.897   1.556   1.095 -0.1388  0.6627  0.3068
  640SOL     OW 2632   2.658   1.674   1.210  0.5471 -0.2205  0.4861
  640SOL    HW2 2633   2.724   1.618   1.169  0.9589 -0.9006  2.0447
  640SOL    HW3 2634   2.575   1.628   1.195  0.5635  0.0621 -0.4870
  640SOL    MW4 2635   2.656   1.661   1.203  0.6034 -0.2730  0.5633
  641SOL     OW 2636   2.675   1.915   1.070  0.0767 -0.8185  0.2905
  641SOL    HW2 2637   2.761   1.942   1.102 -0.0932 -0.7228  0.6702
  641SOL    HW3 2638   2.664   1.826   1.104  0.0932 -0.8906  0.1073
  641SOL    MW4 2639   2.685   1.907   1.079  0.0565 -0.8153  0.3165
  642SOL     OW 2640   2.905   2.052   1.173 -0.0102  0.1311 -0.0167
  642SOL    HW2 2641   2.887   2.044   1.266 -1.5772 -0.0674 -0.3287
  642SOL    HW3 2642   2.898   2.145   1.154 -3.9978 -0.2391 -0.7506
  642SOL    MW4 2643   2.902   2.063   1.182 -0.7432  0.0563 -0.1547
  643SOL     OW 2644   2.881   2.338   1.096  0.2842  0.1121  0.6467
  643SOL    HW2 2645   2.962   2.383   1.119 -0.7662  2.2341  0.2704
  643SOL    HW3 2646   2.812   2.386   1.141 -0.9312 -0.7440 -0.2539
  643SOL    MW4 2647   2.883   2.350   1.105 -0.0148  0.2794  0.4783
  644SOL     OW 2648   2.635   2.437   1.210  0.2224 -0.2097  0.2048
  644SOL    HW2 2649   2.646   2.411   1.302 -1.4183 -0.4020  0.3527
  644SOL    HW3 2650   2.550   2.401   1.185 -0.6062  2.2102 -0.5666
  644SOL    MW4 2651   2.625   2.429   1.219 -0.1035  0.0842  0.1225
  645SOL     OW 2652   2.682   2.675   1.119  0.0597 -0.0934 -0.3764
  645SOL    HW2 2653   2.662   2.589   1.156  0.2585  0.4160  0.9272
  645SOL    HW3 2654   2.622   2.735   1.164 -0.4109  0.3907 -1.6164
  645SOL    MW4 2655   2.671   2.672   1.130  0.0238  0.0377 -0.3680
  646SOL     OW 2656   2.890   2.813   1.199  0.3691  0.2427  0.4635
  646SOL    HW2 2657   2.875   2.810   1.293 -0.6399  0.7756  0.3330
  646SOL    HW3 2658   2.825   2.753   1.163 -0.6145  1.5663 -0.0265
  646SOL    MW4 2659   2.879   2.805   1.207  0.1063  0.4878  0.3816
  647SOL     OW 2660   2.938   3.086   1.105 -0.6103  0.4230 -0.4621
  647SOL    HW2 2661   3.015   3.103   1.160 -0.0090 -0.2186 -1.0966
  647SOL    HW3 2662   2.914   2.995   1.125 -0.1765  0.0690 -1.5062
  647SOL    MW4 2663   2.945   3.076   1.115 -0.4737  0.2916 -0.6837
  648SOL     OW 2664   2.702   3.196   1.204  0.2292 -0.2628 -0.7836
  648SOL    HW2 2665   2.773   3.149   1.159 -1.0371 -1.6301 -1.4283
  648SOL    HW3 2666   2.622   3.154   1.171 -0.8382  0.6120  0.6475
  648SOL    MW4 2667   2.701   3.184   1.193 -0.0787 -0.3278 -0.6797
  649SOL     OW 2668   2.722   3.468   1.123  0.3882 -0.1829 -0.5969
  649SOL    HW2 2669   2.727   3.380   1.159  0.6428  0.6040  1.3523
  649SOL    HW3 2670   2.639   3.503   1.156  0.5839  0.5280 -0.8453
  649SOL    MW4 2671   2.711   3.461   1.132  0.4478  0.0143 -0.3724
  650SOL     OW 2672   2.921   3.634   1.234 -0.2743  0.2407  0.1961
  650SOL    HW2 2673   2.998   3.584   1.210  0.2096  0.5749  1.0411
  650SOL    HW3 2674   2.847   3.577   1.212  0.2758 -1.0744  1.6646
  650SOL    MW4 2675   2.921   3.620   1.228 -0.1378  0.1113  0.5014
  651SOL     OW 2676   2.902   3.886   1.118  0.1842  0.3386 -0.4146
  651SOL    HW2 2677   2.982   3.928   1.150  0.0366  0.9305 -0.8317
  651SOL    HW3 2678   2.902   3.800   1.161  0.0104  1.1081  1.1668
  651SOL    MW4 2679   2.913   3.880   1.128  0.1416  0.5183 -0.2611
  652SOL     OW 2680   2.681   4.016   1.221  0.3955  0.5319 -0.2471
  652SOL    HW2 2681   2.758   3.967   1.193  1.9897  2.4485  0.7030
  652SOL    HW3 2682   2.607   3.959   1.200  2.1161 -1.6490 -0.4604
  652SOL    MW4 2683   2.681   4.002   1.214  0.8328  0.4973 -0.1498
  653SOL     OW 2684   2.691   4.288   1.190 -0.4017 -0.0673 -0.6232
  653SOL    HW2 2685   2.700   4.193   1.195 -0.4798 -0.1922 -2.3249
  653SOL    HW3 2686   2.598   4.304   1.207 -0.2219 -0.2231  0.5030
  653SOL    MW4 2687   2.680   4.278   1.193 -0.3884 -0.1040 -0.6992
  654SOL     OW 2688   2.904   4.451   1.251 -0.2247  0.1850 -0.4437
  654SOL    HW2 2689   2.976   4.391   1.231 -0.1546  0.1542 -0.1021
  654SOL    HW3 2690   2.825   4.402   1.229 -0.2452 -0.6969  1.5340
  654SOL    MW4 2691   2.903   4.436   1.245 -0.2182  0.0648 -0.1377
  655SOL     OW 2692   3.370   0.002   1.166  0.2510 -0.0843 -0.0041
  655SOL    HW2 2693   3.452   0.048   1.184 -0.1344  0.6435 -0.0711
  655SOL    HW3 2694   3.303   0.058   1.206 -0.3127 -0.0692 -0.9753
  655SOL    MW4 2695   3.372   0.016   1.174  0.1256  0.0134 -0.1410
  656SOL     OW 2696   3.156   0.181   1.248  0.1848 -0.3933 -0.0233
  656SOL    HW2 2697   3.150   0.148   1.338  1.0603  1.6305  0.7959
  656SOL    HW3 2698   3.083   0.139   1.202 -1.6144  0.2425  2.1749
  656SOL    MW4 2699   3.146   0.171   1.254  0.0629 -0.0424  0.3748
  657SOL     OW 2700   3.145   0.442   1.151 -0.1789  0.0072 -0.5396
  657SOL    HW2 2701   3.144   0.357   1.194 -1.3442 -0.2153 -1.0090
  657SOL    HW3 2702   3.060   0.481   1.172  0.4547  1.1897 -0.0724
  657SOL    MW4 2703   3.134   0.436   1.159 -0.2489  0.1339 -0.5399
  658SOL     OW 2704   3.394   0.530   1.219  0.1896 -0.1884 -0.2143
  658SOL    HW2 2705   3.406   0.614   1.175 -0.2971 -0.0433 -0.0759
  658SOL    HW3 2706   3.305   0.504   1.197  0.0360 -0.2413  0.4617
  658SOL    MW4 2707   3.384   0.538   1.211  0.1049 -0.1762 -0.1068
  659SOL     OW 2708   3.394   0.805   1.096 -0.1432  0.0766  0.0598
  659SOL    HW2 2709   3.313   0.844   1.129  0.6238  2.0439 -0.2978
  659SOL    HW3 2710   3.372   0.775   1.008 -0.8175 -0.5095  0.4299
  659SOL    MW4 2711   3.381   0.806   1.089 -0.1307  0.2588  0.0614
  660SOL     OW 2712   3.162   0.915   1.209  0.7057 -0.8306 -0.1708
  660SOL    HW2 2713   3.141   0.912   1.302  0.9790  0.0200 -0.0784
  660SOL    HW3 2714   3.147   1.006   1.184  0.7919 -1.0175 -0.9216
  660SOL    MW4 2715   3.157   0.926   1.218  0.7532 -0.7431 -0.2577
  661SOL     OW 2716   3.143   1.176   1.098 -0.0625 -0.1191  0.3008
  661SOL    HW2 2717   3.221   1.218   1.135 -0.3876  0.1659  0.6633
  661SOL    HW3 2718   3.070   1.222   1.138 -0.4218 -0.8913  0.5473
  661SOL    MW4 2719   3.144   1.188   1.108 -0.1528 -0.1835  0.3812
  662SOL     OW 2720   3.351   1.308   1.207 -0.2700  0.0923  0.9128
  662SOL    HW2 2721   3.355   1.309   1.303  0.2668  0.7051  0.8890
  662SOL    HW3 2722   3.345   1.401   1.183 -0.1656 -0.0477  0.3454
  662SOL    MW4 2723   3.351   1.321   1.216 -0.1853  0.1547  0.8348
  663SOL     OW 2724   3.343   1.581   1.102 -0.0252 -0.4065  0.4296
  663SOL    HW2 2725   3.418   1.633   1.132  0.3733  0.3802 -1.8177
  663SOL    HW3 2726   3.267   1.631   1.129  0.2698 -0.5720  1.6080
  663SOL    MW4 2727   3.343   1.595   1.110  0.0665 -0.3247  0.2886
  664SOL     OW 2728   3.108   1.722   1.177 -0.4170  0.1899  0.4680
  664SOL    HW2 2729   3.119   1.716   1.272  0.1051 -0.0302  0.3914
  664SOL    HW3 2730   3.128   1.814   1.157  0.0605  0.0933  0.4934
  664SOL    MW4 2731   3.112   1.733   1.187 -0.2849  0.1482  0.4612
  665SOL     OW 2732   3.146   1.981   1.069 -0.0278  0.1710  0.3488
  665SOL    HW2 2733   3.216   2.023   1.118 -1.6102  3.1948  0.1523
  665SOL    HW3 2734   3.066   2.014   1.110 -1.3421 -0.4774 -1.6381
  665SOL    MW4 2735   3.144   1.991   1.081 -0.4103  0.4845  0.0607
  666SOL     OW 2736   3.354   2.065   1.203 -0.2594 -0.3062  0.1096
  666SOL    HW2 2737   3.436   2.021   1.179 -0.7011 -1.0887  0.0015
  666SOL    HW3 2738   3.367   2.156   1.176  0.5057 -0.4613 -0.0737
  666SOL    MW4 2739   3.367   2.071   1.196 -0.2167 -0.4301  0.0712
  667SOL     OW 2740   3.392   2.327   1.082 -0.1703  0.7104 -0.0494
  667SOL    HW2 2741   3.443   2.406   1.101 -1.1954  1.4714 -0.4241
  667SOL    HW3 2742   3.301   2.353   1.096 -0.5246 -0.3863 -0.2553
  667SOL    MW4 2743   3.387   2.341   1.086 -0.3521  0.6659 -0.1260
  668SOL     OW 2744   3.130   2.416   1.157 -0.3040 -0.4383  0.2530
  668SOL    HW2 2745   3.116   2.412   1.252 -0.2619 -0.9275  0.2413
  668SOL    HW3 2746   3.138   2.509   1.138 -0.3463 -0.3350  0.7276
  668SOL    MW4 2747   3.129   2.428   1.167 -0.3040 -0.4888  0.3141
  669SOL     OW 2748   3.140   2.705   1.132 -0.5121 -0.5107  0.2533
  669SOL    HW2 2749   3.056   2.740   1.163  0.5232  2.1088  0.1901
  669SOL    HW3 2750   3.134   2.708   1.037 -0.1333  0.1797  0.2533
  669SOL    MW4 2751   3.128   2.710   1.124 -0.3254 -0.0741  0.2450
  670SOL     OW 2752   3.358   2.860   1.200 -0.3268  0.0852 -0.5371
  670SOL    HW2 2753   3.352   2.947   1.160 -1.2466  0.4113  0.2875
  670SOL    HW3 2754   3.275   2.818   1.177  0.0565 -0.5283 -0.8121
  670SOL    MW4 2755   3.346   2.866   1.192 -0.3977  0.0470 -0.4646
  671SOL     OW 2756   3.393   3.137   1.108 -0.4138 -0.2553 -0.0665
  671SOL    HW2 2757   3.463   3.166   1.167 -0.2384 -0.8651  0.0355
  671SOL    HW3 2758   3.312   3.158   1.154 -0.2972  0.5899 -0.2477
  671SOL    MW4 2759   3.392   3.143   1.122 -0.3753 -0.2241 -0.0770
  672SOL     OW 2760   3.154   3.191   1.249  0.4089 -0.2234  0.0499
  672SOL    HW2 2761   3.125   3.278   1.220  0.2579 -0.1354  0.4626
  672SOL    HW3 2762   3.132   3.188   1.342 -1.7133 -1.5723 -0.4416
  672SOL    MW4 2763   3.147   3.202   1.257  0.1092 -0.3898  0.0396
  673SOL     OW 2764   3.128   3.453   1.160  0.4186 -0.1578  0.1240
  673SOL    HW2 2765   3.209   3.488   1.198  1.5129 -1.9217 -0.5497
  673SOL    HW3 2766   3.155   3.419   1.074 -0.8922 -1.4281  0.2057
  673SOL    MW4 2767   3.142   3.453   1.153  0.3903 -0.5579  0.0458
  674SOL     OW 2768   3.328   3.622   1.245  0.7968 -0.2905 -0.0010
  674SOL    HW2 2769   3.356   3.607   1.335  1.5012 -1.5157 -0.4160
  674SOL    HW3 2770   3.407   3.611   1.192  0.9464  2.9262 -0.5543
  674SOL    MW4 2771   3.342   3.619   1.250  0.9093 -0.0277 -0.1287
  675SOL     OW 2772   3.363   3.892   1.146  0.1238 -0.3318 -0.5918
  675SOL    HW2 2773   3.297   3.954   1.176 -0.4975 -0.4711 -1.6598
  675SOL    HW3 2774   3.347   3.813   1.198 -0.3009 -0.2300 -0.5650
  675SOL    MW4 2775   3.352   3.890   1.157 -0.0143 -0.3366 -0.7292
  676SOL     OW 2776   3.117   4.005   1.230  0.2494  0.5394 -0.2215
  676SOL    HW2 2777   3.110   3.988   1.324  0.3540 -0.6800 -0.4200
  676SOL    HW3 2778   3.103   4.099   1.221 -0.1156  0.6060  0.9780
  676SOL    MW4 2779   3.115   4.015   1.241  0.2151  0.3867 -0.0895
  677SOL     OW 2780   3.091   4.268   1.166 -0.1608 -0.1166 -0.1568
  677SOL    HW2 2781   3.169   4.320   1.187  0.0006 -0.6073  0.4694
  677SOL    HW3 2782   3.097   4.254   1.071  0.4468 -0.0412 -0.1341
  677SOL    MW4 2783   3.102   4.273   1.156 -0.0594 -0.1712 -0.0712
  678SOL     OW 2784   3.331   4.391   1.237  0.6228  0.3523 -0.0775
  678SOL    HW2 2785   3.413   4.343   1.228  1.6097  1.7303  1.4084
  678SOL    HW3 2786   3.347   4.475   1.194 -0.8709 -0.3379 -2.0478
  678SOL    MW4 2787   3.344   4.396   1.230  0.5558  0.4430 -0.1414
  679SOL     OW 2788   3.833   4.640   1.163  0.5805  0.1714  0.4804
  679SOL    HW2 2789   3.810   4.557   1.203  1.0397 -0.0720  0.2515
  679SOL    HW3 2790   3.815   4.628   1.070 -0.6631  0.7977  0.6370
  679SOL    MW4 2791   3.828   4.627   1.156  0.4768  0.2217  0.4709
  680SOL     OW 2792   3.629   0.137   1.250  0.0674  0.1267  0.2488
  680SOL    HW2 2793   3.619   0.225   1.212 -0.3710  0.3799  0.9597
  680SOL    HW3 2794   3.706   0.101   1.205 -0.2191  0.5715 -0.6171
  680SOL    MW4 2795   3.638   0.144   1.239 -0.0284  0.2188  0.2284
  681SOL     OW 2796   3.607   0.382   1.126 -0.1341 -0.1116 -0.1582
  681SOL    HW2 2797   3.678   0.430   1.170  0.9385 -1.3565 -0.4921
  681SOL    HW3 2798   3.527   0.413   1.169  0.8046 -0.4639  1.9014
  681SOL    MW4 2799   3.606   0.393   1.138  0.1316 -0.3224  0.0695
  682SOL     OW 2800   3.806   0.495   1.276  0.1858 -0.2139  0.0433
  682SOL    HW2 2801   3.891   0.469   1.241  0.5025  0.4416  0.3063
  682SOL    HW3 2802   3.796   0.586   1.249 -0.2486 -0.1642  0.3583
  682SOL    MW4 2803   3.816   0.504   1.268  0.1707 -0.1209  0.1196
  683SOL     OW 2804   3.784   0.767   1.222 -0.0055 -0.2301  0.0678
  683SOL    HW2 2805   3.859   0.814   1.258 -0.2782 -1.7647  2.7712
  683SOL    HW3 2806   3.709   0.824   1.240  0.1659  0.0964 -0.2433
  683SOL    MW4 2807   3.784   0.781   1.229 -0.0188 -0.3895  0.3834
  684SOL     OW 2808   3.578   0.946   1.258  0.0842  0.4637 -0.0788
  684SOL    HW2 2809   3.569   1.034   1.221 -1.0496 -0.0044 -0.9428
  684SOL    HW3 2810   3.523   0.891   1.202  0.3328 -0.6970  0.8067
  684SOL    MW4 2811   3.569   0.950   1.246 -0.0329  0.2487 -0.0761
  685SOL     OW 2812   3.589   1.195   1.134  0.6148 -0.0726  0.3198
  685SOL    HW2 2813   3.650   1.250   1.183  0.2597 -1.0409  1.8637
  685SOL    HW3 2814   3.505   1.240   1.141  0.5227 -0.3179  0.7485
  685SOL    MW4 2815   3.586   1.208   1.141  0.5555 -0.2327  0.5802
  686SOL     OW 2816   3.810   1.324   1.238  0.0187  0.8039  0.1182
  686SOL    HW2 2817   3.820   1.330   1.333 -0.5651  1.8315  0.1208
  686SOL    HW3 2818   3.829   1.412   1.206  2.2466 -0.0384 -0.9299
  686SOL    MW4 2819   3.814   1.336   1.246  0.2356  0.8284 -0.0197
  687SOL     OW 2820   3.836   1.592   1.174  0.0421  0.5018  0.0227
  687SOL    HW2 2821   3.914   1.642   1.198  0.5243 -0.7479  1.1189
  687SOL    HW3 2822   3.832   1.599   1.079  1.3385  0.8054 -0.0256
  687SOL    MW4 2823   3.846   1.599   1.165  0.2768  0.3771  0.1611
  688SOL     OW 2824   3.574   1.704   1.206 -0.0216 -0.6344 -0.0988
  688SOL    HW2 2825   3.578   1.790   1.164 -2.3597 -1.1193 -1.3994
  688SOL    HW3 2826   3.660   1.665   1.190  0.3860  0.6777 -1.1657
  688SOL    MW4 2827   3.586   1.710   1.199 -0.2761 -0.5254 -0.4112
  689SOL     OW 2828   3.612   1.975   1.109 -0.4057  0.0462  0.2507
  689SOL    HW2 2829   3.691   1.985   1.163 -1.8826  0.9756  2.2841
  689SOL    HW3 2830   3.642   1.994   1.020  1.4461  1.4066  1.1321
  689SOL    MW4 2831   3.627   1.979   1.105 -0.3564  0.3482  0.6354
  690SOL     OW 2832   3.846   2.075   1.218  0.0324  0.5518  0.1726
  690SOL    HW2 2833   3.865   2.104   1.307  0.2110  2.1419 -0.3709
  690SOL    HW3 2834   3.932   2.053   1.182  0.1293  1.3818 -0.1076
  690SOL    MW4 2835   3.860   2.075   1.225  0.0689  0.8709  0.0638
  691SOL     OW 2836   3.803   2.313   1.096  0.6326  0.4104  0.0989
  691SOL    HW2 2837   3.879   2.360   1.130 -0.5300  1.0463  1.8735
  691SOL    HW3 2838   3.807   2.227   1.139  2.6804 -1.1649 -3.0289
  691SOL    MW4 2839   3.813   2.308   1.106  0.7493  0.2866 -0.0796
  692SOL     OW 2840   3.611   2.508   1.175  0.5724 -0.1186  0.1296
  692SOL    HW2 2841   3.603   2.489   1.268 -0.3580 -1.6109 -0.2368
  692SOL    HW3 2842   3.677   2.446   1.144 -0.0132 -0.4726 -0.4307
  692SOL    MW4 2843   3.619   2.497   1.183  0.3726 -0.3622  0.0073
  693SOL     OW 2844   3.616   2.775   1.100  0.0313 -0.3960 -0.2436
  693SOL    HW2 2845   3.622   2.685   1.130  0.7555  0.0088  0.8621
  693SOL    HW3 2846   3.526   2.801   1.119  0.2828 -0.3716  0.9815
  693SOL    MW4 2847   3.605   2.767   1.106  0.1605 -0.3393  0.0639
  694SOL     OW 2848   3.840   2.882   1.224 -0.3947  0.0364 -0.5175
  694SOL    HW2 2849   3.818   2.888   1.317  1.6686 -0.3564  0.0101
  694SOL    HW3 2850   3.757   2.862   1.181 -1.2119 -0.6095  1.3280
  694SOL    MW4 2851   3.826   2.880   1.230 -0.2303 -0.1011 -0.2044
  695SOL     OW 2852   3.820   3.142   1.152  0.1258  0.1642 -0.0180
  695SOL    HW2 2853   3.832   3.055   1.192  0.2042  0.6710  1.0656
  695SOL    HW3 2854   3.817   3.124   1.058 -1.5406 -1.2100  0.2824
  695SOL    MW4 2855   3.821   3.128   1.145 -0.0837  0.0501  0.1645
  696SOL     OW 2856   3.595   3.256   1.274  0.1033  0.6199  0.2377
  696SOL    HW2 2857   3.584   3.346   1.244 -0.4398  0.5408  0.1966
  696SOL    HW3 2858   3.681   3.230   1.242 -0.2057  0.7434 -0.7153
  696SOL    MW4 2859   3.605   3.264   1.266 -0.0091  0.6258  0.1065
  697SOL     OW 2860   3.589   3.509   1.166 -0.1494 -0.2586 -0.2007
  697SOL    HW2 2861   3.666   3.556   1.198 -0.4565  0.9166 -1.1312
  697SOL    HW3 2862   3.594   3.517   1.071 -1.4268 -0.1462 -0.2690
  697SOL    MW4 2863   3.600   3.517   1.158 -0.3583 -0.0887 -0.3325
  698SOL     OW 2864   3.828   3.616   1.270  0.4045 -0.1038 -0.6786
  698SOL    HW2 2865   3.830   3.610   1.365 -1.8812  1.5485 -0.4912
  698SOL    HW3 2866   3.842   3.709   1.251  0.2228 -0.3179 -1.9472
  698SOL    MW4 2867   3.830   3.628   1.280  0.0789  0.0858 -0.8212
  699SOL     OW 2868   3.841   3.865   1.132  0.2399  0.1878 -0.5682
  699SOL    HW2 2869   3.761   3.905   1.167  0.8152  0.7992  0.0856
  699SOL    HW3 2870   3.830   3.866   1.037 -0.8855 -0.4898 -0.4395
  699SOL    MW4 2871   3.829   3.871   1.124  0.1671  0.1791 -0.4650
  700SOL     OW 2872   3.603   3.988   1.205 -0.0645  0.6187 -0.6394
  700SOL    HW2 2873   3.607   3.989   1.301 -0.2599  2.3957 -0.6187
  700SOL    HW3 2874   3.510   3.977   1.186  0.0964 -0.8121 -0.6501
  700SOL    MW4 2875   3.591   3.987   1.216 -0.0691  0.6642 -0.6381
  701SOL     OW 2876   3.559   4.252   1.151  0.2229 -0.4070  0.4742
  701SOL    HW2 2877   3.600   4.166   1.159 -1.5536 -1.1983  1.3136
  701SOL    HW3 2878   3.539   4.261   1.058  1.2208 -0.5113  0.2439
  701SOL    MW4 2879   3.562   4.242   1.140  0.1202 -0.5255  0.5546
  702SOL     OW 2880   3.794   4.380   1.235  0.3505 -0.3410  0.1067
  702SOL    HW2 2881   3.789   4.391   1.330  1.3516  0.4471  0.0747
  702SOL    HW3 2882   3.708   4.348   1.210 -0.7695  1.9235  0.9422
  702SOL    MW4 2883   3.782   4.377   1.244  0.3350  0.0610  0.2127
  703SOL     OW 2884   4.246   0.013   1.137  0.2484  0.0722  0.2423
  703SOL    HW2 2885   4.245  -0.075   1.174  0.4768  1.0889  2.7674
  703SOL    HW3 2886   4.164   0.053   1.167  0.5660  1.0095 -0.1103
  703SOL    MW4 2887   4.235   0.007   1.146  0.3204  0.3300  0.5288
  704SOL     OW 2888   4.025   0.146   1.261  0.1679  0.2838  0.2738
  704SOL    HW2 2889   4.032   0.136   1.356  0.6122  0.7889  0.2936
  704SOL    HW3 2890   3.955   0.085   1.236  0.1804  0.0094  0.8968
  704SOL    MW4 2891   4.016   0.137   1.270  0.2284  0.3142  0.3586
  705SOL     OW 2892   4.012   0.388   1.148 -0.4919  0.2086  0.3468
  705SOL    HW2 2893   4.040   0.307   1.190  1.9770  1.3472  1.0316
  705SOL    HW3 2894   4.016   0.369   1.054 -0.7241 -0.7143  0.5259
  705SOL    MW4 2895   4.016   0.375   1.141 -0.1965  0.2371  0.4609
  706SOL     OW 2896   4.250   0.519   1.238  0.4326 -0.4852 -0.3276
  706SOL    HW2 2897   4.255   0.535   1.332  1.1190  0.3374 -0.4915
  706SOL    HW3 2898   4.161   0.486   1.223 -0.4540  1.5448  0.3033
  706SOL    MW4 2899   4.239   0.517   1.248  0.4063 -0.1088 -0.2660
  707SOL     OW 2900   4.242   0.774   1.164  0.1012 -0.4343 -0.3605
  707SOL    HW2 2901   4.245   0.681   1.189  0.7039 -0.2981  0.0588
  707SOL    HW3 2902   4.227   0.772   1.069  0.1030 -0.9619 -0.3521
  707SOL    MW4 2903   4.240   0.761   1.155  0.1812 -0.4860 -0.3040
  708SOL     OW 2904   4.024   0.914   1.288 -0.5529 -0.2247 -0.2232
  708SOL    HW2 2905   4.038   0.917   1.383 -0.7140 -1.1716 -0.1570
  708SOL    HW3 2906   4.107   0.881   1.253 -0.6271 -0.2550 -0.3701
  708SOL    MW4 2907   4.037   0.910   1.296 -0.5836 -0.3536 -0.2339
  709SOL     OW 2908   4.027   1.160   1.163  0.1152  0.5325  0.2669
  709SOL    HW2 2909   4.000   1.078   1.205 -1.4194  1.0211  0.2600
  709SOL    HW3 2910   3.963   1.224   1.193  0.7988  1.5456 -0.4202
  709SOL    MW4 2911   4.015   1.158   1.173  0.0029  0.7305  0.1754
  710SOL     OW 2912   4.280   1.296   1.226  0.0197  0.0834 -0.3004
  710SOL    HW2 2913   4.287   1.301   1.321  0.9824  0.0795 -0.3727
  710SOL    HW3 2914   4.201   1.243   1.211 -0.4522  0.5548  0.4836
  710SOL    MW4 2915   4.270   1.289   1.237  0.0849  0.1451 -0.2066
  711SOL     OW 2916   4.311   1.552   1.126  0.1447  0.0952 -0.6492
  711SOL    HW2 2917   4.293   1.460   1.145  0.3984 -0.4159 -2.8252
  711SOL    HW3 2918   4.374   1.578   1.193 -0.6847 -1.0190  0.5904
  711SOL    MW4 2919   4.317   1.543   1.137  0.0687 -0.1192 -0.7727
  712SOL     OW 2920   4.087   1.704   1.200 -0.1766 -0.6648 -0.2444
  712SOL    HW2 2921   4.086   1.711   1.296  1.1447  2.0706 -0.3763
  712SOL    HW3 2922   4.168   1.657   1.181 -0.4593 -1.2473 -0.0141
  712SOL    MW4 2923   4.098   1.699   1.210 -0.0401 -0.3808 -0.2314
  713SOL     OW 2924   4.077   1.960   1.113  0.4674  0.4553  0.6558
  713SOL    HW2 2925   4.091   1.869   1.139  1.1171  0.6875  1.1248
  713SOL    HW3 2926   4.088   1.959   1.018 -0.7578 -0.1789  0.5120
  713SOL    MW4 2927   4.080   1.948   1.104  0.3910  0.4023  0.6987
  714SOL     OW 2928   4.322   2.079   1.215  0.0513  0.3874 -0.3926
  714SOL    HW2 2929   4.313   2.169   1.185 -1.1288  0.6320  0.6863
  714SOL    HW3 2930   4.244   2.035   1.184  0.3557 -0.1282 -0.4283
  714SOL    MW4 2931   4.311   2.085   1.207 -0.0644  0.3517 -0.2551
  715SOL     OW 2932   4.249   2.329   1.142  0.7135 -0.1545 -0.0523
  715SOL    HW2 2933   4.162   2.366   1.155  0.7733  0.4309 -1.2784
  715SOL    HW3 2934   4.249   2.298   1.051  1.6584 -0.4905  0.0557
  715SOL    MW4 2935   4.238   2.330   1.132  0.8459 -0.1216 -0.1999
  716SOL     OW 2936   4.007   2.464   1.192  0.0733 -0.0434  0.0691
  716SOL    HW2 2937   3.995   2.466   1.287  1.2190 -0.5594  0.2319
  716SOL    HW3 2938   4.004   2.556   1.165 -0.3966  0.0916  0.5895
  716SOL    MW4 2939   4.005   2.476   1.201  0.1626 -0.0932  0.1594
  717SOL     OW 2940   4.049   2.741   1.120  0.2385 -0.1260 -0.0505
  717SOL    HW2 2941   3.975   2.786   1.161  0.4949  0.5649 -0.3383
  717SOL    HW3 2942   4.022   2.728   1.030  0.8286  0.9683 -0.4004
  717SOL    MW4 2943   4.036   2.745   1.114  0.3505  0.1092 -0.1347
  718SOL     OW 2944   4.273   2.871   1.197  0.2735 -0.1002 -0.2096
  718SOL    HW2 2945   4.250   2.957   1.161 -0.0371 -0.2481 -0.3693
  718SOL    HW3 2946   4.203   2.813   1.166  0.5232 -0.4245 -0.1657
  718SOL    MW4 2947   4.261   2.874   1.188  0.2656 -0.1624 -0.2248
  719SOL     OW 2948   4.196   3.092   1.072  0.2009 -0.2405 -0.1581
  719SOL    HW2 2949   4.151   3.146   1.137 -0.3234 -1.4207  0.4726
  719SOL    HW3 2950   4.126   3.042   1.030  0.8038 -1.2524  0.0407
  719SOL    MW4 2951   4.181   3.093   1.075  0.2112 -0.5298 -0.0486
  720SOL     OW 2952   4.051   3.246   1.253 -0.3086  0.5806  0.0071
  720SOL    HW2 2953   4.037   3.252   1.347  0.0992  0.8327  0.0559
  720SOL    HW3 2954   3.967   3.217   1.217 -0.1468 -0.5574  0.5576
  720SOL    MW4 2955   4.038   3.243   1.260 -0.2337  0.4637  0.0862
  721SOL     OW 2956   4.052   3.510   1.196  0.3514  0.1591 -0.5410
  721SOL    HW2 2957   4.066   3.421   1.229  0.3758  0.1050 -0.6967
  721SOL    HW3 2958   3.968   3.536   1.232 -0.0392 -0.2370 -1.1657
  721SOL    MW4 2959   4.043   3.501   1.205  0.3033  0.0997 -0.6438
  722SOL     OW 2960   4.281   3.636   1.232 -0.3889  0.3299  0.1350
  722SOL    HW2 2961   4.199   3.595   1.203 -0.6852 -0.4047  1.9442
  722SOL    HW3 2962   4.282   3.623   1.327  2.0833 -0.1446  0.0753
  722SOL    MW4 2963   4.271   3.629   1.241 -0.1020  0.1705  0.3657
  723SOL     OW 2964   4.289   3.900   1.161  0.6244 -0.2479 -0.6690
  723SOL    HW2 2965   4.210   3.943   1.193  1.5109  1.4318 -0.7048
  723SOL    HW3 2966   4.287   3.813   1.202 -1.5795 -0.4846 -1.2188
  723SOL    MW4 2967   4.278   3.894   1.170  0.4501 -0.0575 -0.7461
  724SOL     OW 2968   4.064   4.039   1.236 -0.4762 -0.0622 -0.2984
  724SOL    HW2 2969   4.044   4.127   1.205  0.4321 -0.1334 -1.1337
  724SOL    HW3 2970   3.991   3.986   1.205 -1.9299  0.7001  1.7453
  724SOL    MW4 2971   4.052   4.044   1.228 -0.5484  0.0286 -0.1389
  725SOL     OW 2972   4.039   4.289   1.116 -0.6093 -0.0033 -0.0286
  725SOL    HW2 2973   3.960   4.340   1.133 -0.6629  0.1065 -0.6030
  725SOL    HW3 2974   4.045   4.285   1.020 -0.3361 -0.6472  0.0101
  725SOL    MW4 2975   4.029   4.295   1.105 -0.5803 -0.0739 -0.0994
  726SOL     OW 2976   4.252   4.427   1.240 -0.1673  0.5408 -0.6491
  726SOL    HW2 2977   4.178   4.377   1.206 -0.1551  0.1431 -0.0970
  726SOL    HW3 2978   4.327   4.396   1.191  0.0875 -1.0728  0.7252
  726SOL    MW4 2979   4.252   4.417   1.229 -0.1316  0.2756 -0.3949
  727SOL     OW 2980   0.194   4.662   1.586  0.1640 -0.2220 -0.1524
  727SOL    HW2 2981   0.275   4.709   1.566  0.2597  0.1979  1.1721
  727SOL    HW3 2982   0.124   4.723   1.564  0.3004  0.9498  2.4224
  727SOL    MW4 2983   0.195   4.676   1.581  0.1947 -0.0120  0.3620
  728SOL     OW 2984   4.478   0.187   1.526  0.0872 -0.1555 -0.1295
  728SOL    HW2 2985   4.409   0.138   1.570  1.2893 -1.5456  0.2771
  728SOL    HW3 2986   4.467   0.168   1.433 -0.6501  0.3873 -0.1506
  728SOL    MW4 2987   4.468   0.178   1.520  0.1488 -0.2673 -0.0786
  729SOL     OW 2988   0.005   0.436   1.638  0.4460  0.1393 -0.3178
  729SOL    HW2 2989   0.009   0.422   1.732  0.2178  2.3410  0.0551
  729SOL    HW3 2990   0.002   0.348   1.600 -0.9496 -0.7477  1.7901
  729SOL    MW4 2991   0.005   0.423   1.645  0.2318  0.3127  0.0095
  730SOL     OW 2992   0.254   0.535   1.546  0.0741 -0.2506 -0.1847
  730SOL    HW2 2993   0.173   0.492   1.571  0.4006  0.0627  1.4626
  730SOL    HW3 2994   0.244   0.553   1.452 -0.5929 -2.7308 -0.6410
  730SOL    MW4 2995   0.242   0.531   1.537  0.0292 -0.5364 -0.0275
  731SOL     OW 2996   0.253   0.794   1.629  0.2097 -0.0653 -0.4026
  731SOL    HW2 2997   0.316   0.849   1.582 -1.1065  0.7126 -1.3072
  731SOL    HW3 2998   0.274   0.705   1.603  0.4178  0.2549 -1.3592
  731SOL    MW4 2999   0.264   0.790   1.619  0.0635  0.0796 -0.6481
  732SOL     OW 3000   0.016   0.876   1.504  0.4456 -0.1321  0.0787
  732SOL    HW2 3001   0.018   0.968   1.528  1.7689 -0.2023  0.2872
  732SOL    HW3 3002   0.092   0.838   1.549 -0.5533 -1.4913  0.6832
  732SOL    MW4 3003   0.027   0.883   1.513  0.4884 -0.3207  0.1860
  733SOL     OW 3004   4.482   1.141   1.628 -0.4548  0.2045  0.2599
  733SOL    HW2 3005   4.469   1.132   1.722  0.9883 -0.7567  0.3749
  733SOL    HW3 3006   4.563   1.190   1.619 -1.1167  1.1875 -0.4873
  733SOL    MW4 3007   4.491   1.146   1.639 -0.3517  0.2074  0.1764
  734SOL     OW 3008   0.226   1.318   1.546  0.2171 -0.4808 -0.0057
  734SOL    HW2 3009   0.231   1.399   1.597  0.0865 -0.8798  0.6481
  734SOL    HW3 3010   0.217   1.348   1.455 -1.6615  0.2539  0.3990
  734SOL    MW4 3011   0.225   1.333   1.541 -0.0480 -0.4364  0.1340
  735SOL     OW 3012   0.229   1.607   1.634 -0.6009  0.4225 -0.0313
  735SOL    HW2 3013   0.218   1.594   1.728  0.0833 -0.0790 -0.0163
  735SOL    HW3 3014   0.143   1.634   1.603 -1.1345 -0.6232  0.5323
  735SOL    MW4 3015   0.216   1.609   1.643 -0.5810  0.2184  0.0451
  736SOL     OW 3016   4.446   1.709   1.532  0.2115  0.4814  0.3052
  736SOL    HW2 3017   4.485   1.787   1.572 -0.3252  0.9231 -0.0157
  736SOL    HW3 3018   4.461   1.721   1.438  1.1832 -0.3884  0.3517
  736SOL    MW4 3019   4.453   1.721   1.525  0.2689  0.4250  0.2691
  737SOL     OW 3020   0.055   1.976   1.615 -0.1973 -0.2242 -0.1576
  737SOL    HW2 3021   0.023   1.964   1.704  0.7185  0.7769  0.3146
  737SOL    HW3 3022  -0.011   2.030   1.572  0.9060  1.9956  0.8652
  737SOL    MW4 3023   0.042   1.981   1.621  0.0691  0.2009  0.0397
  738SOL     OW 3024   0.293   2.072   1.507  0.2680 -0.4351  0.4596
  738SOL    HW2 3025   0.235   2.012   1.554  0.9416 -0.8622  0.7490
  738SOL    HW3 3026   0.267   2.065   1.415 -1.1442  0.5023  0.7717
  738SOL    MW4 3027   0.282   2.063   1.501  0.1706 -0.3676  0.5389
  739SOL     OW 3028   0.235   2.327   1.591  0.1611  0.2355  0.0185
  739SOL    HW2 3029   0.234   2.327   1.686  0.6562  1.2584  0.0331
  739SOL    HW3 3030   0.262   2.238   1.567 -1.7073 -0.5514  0.7968
  739SOL    MW4 3031   0.239   2.315   1.600 -0.0201  0.2666  0.1230
  740SOL     OW 3032   0.007   2.439   1.481  0.0183  0.3957  0.1351
  740SOL    HW2 3033  -0.078   2.420   1.520 -0.5042  1.0405 -0.6626
  740SOL    HW3 3034   0.070   2.393   1.536 -0.8382  0.0093  0.8004
  740SOL    MW4 3035   0.004   2.431   1.493 -0.1636  0.4299  0.1178
  741SOL     OW 3036   4.471   2.687   1.601  0.0291 -0.2087  0.0517
  741SOL    HW2 3037   4.404   2.740   1.557  0.2915 -0.0177 -0.1240
  741SOL    HW3 3038   4.484   2.612   1.543 -0.7365 -0.7470  0.5705
  741SOL    MW4 3039   4.464   2.684   1.587 -0.0377 -0.2542  0.0972
  742SOL     OW 3040   0.214   2.831   1.476  0.1101 -0.4499 -0.1576
  742SOL    HW2 3041   0.296   2.793   1.509 -0.5234 -3.0593 -1.3976
  742SOL    HW3 3042   0.145   2.787   1.527 -0.6023  0.0418 -0.6832
  742SOL    MW4 3043   0.216   2.820   1.488 -0.0674 -0.7293 -0.3905
  743SOL     OW 3044   0.231   3.097   1.609  0.0279  0.3377 -0.1832
  743SOL    HW2 3045   0.148   3.140   1.589  0.0794  0.7050  0.4056
  743SOL    HW3 3046   0.231   3.019   1.552  0.0796  1.2617 -1.4627
  743SOL    MW4 3047   0.220   3.092   1.599  0.0416  0.5078 -0.2744
  744SOL     OW 3048   0.017   3.260   1.525  0.2970  0.6141  0.5229
  744SOL    HW2 3049  -0.004   3.353   1.537 -0.1388  0.9464 -2.5481
  744SOL    HW3 3050  -0.010   3.241   1.436 -1.8616 -3.0942  1.8624
  744SOL    MW4 3051   0.011   3.270   1.515 -0.0453  0.1688  0.2943
  745SOL     OW 3052   0.004   3.528   1.593 -0.0610  0.1034  0.6794
  745SOL    HW2 3053  -0.008   3.541   1.687 -0.7339 -0.5406  0.6850
  745SOL    HW3 3054  -0.069   3.575   1.552 -0.6047 -0.8545  0.5478
  745SOL    MW4 3055  -0.007   3.536   1.600 -0.2215 -0.1080  0.6628
  746SOL     OW 3056   0.223   3.670   1.495 -0.3644 -0.4500 -0.3484
  746SOL    HW2 3057   0.236   3.755   1.538 -0.5968 -0.4994 -0.1795
  746SOL    HW3 3058   0.143   3.635   1.535  0.9373 -1.7484  1.2115
  746SOL    MW4 3059   0.214   3.677   1.506 -0.2233 -0.6280 -0.1203
  747SOL     OW 3060   0.239   3.928   1.628 -0.2560  0.0406 -0.1865
  747SOL    HW2 3061   0.238   3.916   1.723  1.3910  0.3486 -0.1157
  747SOL    HW3 3062   0.312   3.986   1.612 -1.1135  0.7653 -1.5799
  747SOL    MW4 3063   0.248   3.934   1.638 -0.1518  0.1767 -0.3611
  748SOL     OW 3064   0.011   4.021   1.525  0.6930  0.5726 -0.2927
  748SOL    HW2 3065   0.010   4.104   1.572  1.1134 -0.5056  1.6854
  748SOL    HW3 3066   0.092   3.978   1.555 -0.1906 -1.1003 -0.2595
  748SOL    MW4 3067   0.022   4.026   1.535  0.6323  0.2093 -0.0272
  749SOL     OW 3068   4.483   4.273   1.632 -0.1170  0.2728  0.2161
  749SOL    HW2 3069   4.476   4.273   1.728  0.9270  1.2013  0.2969
  749SOL    HW3 3070   4.400   4.309   1.602 -0.6790 -0.5488  0.7451
  749SOL    MW4 3071   4.471   4.278   1.641 -0.0534  0.2866  0.2967
  750SOL     OW 3072   0.202   4.407   1.506 -0.2590 -0.1914 -0.2812
  750SOL    HW2 3073   0.131   4.366   1.557 -0.3204 -1.1989 -1.1672
  750SOL    HW3 3074   0.206   4.497   1.539 -1.9916 -0.1110 -0.2570
  750SOL    MW4 3075   0.193   4.413   1.517 -0.4957 -0.3138 -0.3951
  751SOL     OW 3076   0.655   4.667   1.605  0.0136  0.1966 -0.1323
  751SOL    HW2 3077   0.726   4.726   1.582 -1.3168  2.1653  0.7239
  751SOL    HW3 3078   0.576   4.709   1.571 -1.0888 -0.5671  1.4120
  751SOL    MW4 3079   0.654   4.680   1.598 -0.3073  0.3548  0.1845
  752SOL     OW 3080   0.432   0.112   1.506  0.3422 -0.2085 -0.4329
  752SOL    HW2 3081   0.457   0.203   1.525 -0.3736  0.2799 -1.8049
  752SOL    HW3 3082   0.442   0.104   1.412  0.5722 -1.6243 -0.2909
  752SOL    MW4 3083   0.437   0.123   1.496  0.2781 -0.3308 -0.5952
  753SOL     OW 3084   0.483   0.372   1.577 -0.0720 -0.0558 -0.4102
  753SOL    HW2 3085   0.560   0.423   1.556 -0.8716  1.4101  0.1531
  753SOL    HW3 3086   0.409   0.431   1.560 -0.9832 -0.8221  0.7549
  753SOL    MW4 3087   0.483   0.386   1.572 -0.2977  0.0364 -0.1822
  754SOL     OW 3088   0.705   0.512   1.536  0.0412  0.0013 -0.7746
  754SOL    HW2 3089   0.686   0.599   1.571  1.4118  0.1279 -0.2957
  754SOL    HW3 3090   0.708   0.525   1.441 -0.6232  0.2893 -0.7604
  754SOL    MW4 3091   0.703   0.525   1.528  0.1345  0.0560 -0.7094
  755SOL     OW 3092   0.654   0.781   1.609  0.1769 -0.3283 -0.2877
  755SOL    HW2 3093   0.669   0.782   1.704  0.6579  0.1892 -0.3679
  755SOL    HW3 3094   0.727   0.830   1.572  0.3611 -1.1220 -0.9891
  755SOL    MW4 3095   0.666   0.787   1.617  0.2646 -0.3647 -0.3909
  756SOL     OW 3096   0.463   0.940   1.495  0.0744  0.6072 -0.0146
  756SOL    HW2 3097   0.455   1.022   1.544 -1.4085  0.1949  0.4687
  756SOL    HW3 3098   0.535   0.893   1.538 -0.0651  1.0065  0.6612
  756SOL    MW4 3099   0.471   0.944   1.507 -0.1397  0.6054  0.1384
  757SOL     OW 3100   0.460   1.190   1.611 -0.1854 -0.1519 -0.3943
  757SOL    HW2 3101   0.538   1.244   1.595 -0.2930  0.0225 -0.3290
  757SOL    HW3 3102   0.386   1.248   1.594 -0.3114 -0.5181 -1.1552
  757SOL    MW4 3103   0.461   1.205   1.606 -0.2162 -0.1771 -0.4861
  758SOL     OW 3104   0.699   1.305   1.519 -0.4333 -0.1761  0.1716
  758SOL    HW2 3105   0.688   1.398   1.539 -0.3140 -0.3369  0.9878
  758SOL    HW3 3106   0.699   1.301   1.423  0.7072  0.8032  0.1170
  758SOL    MW4 3107   0.698   1.317   1.509 -0.2671 -0.0681  0.2722
  759SOL     OW 3108   0.651   1.576   1.610  0.1917  0.2631  0.0217
  759SOL    HW2 3109   0.717   1.641   1.584 -0.1415  0.6748  0.1857
  759SOL    HW3 3110   0.572   1.603   1.562 -0.3419  0.8361  1.2038
  759SOL    MW4 3111   0.649   1.588   1.600  0.0774  0.3930  0.1994
  760SOL     OW 3112   0.436   1.663   1.467 -0.0615  0.2104 -0.2503
  760SOL    HW2 3113   0.451   1.753   1.495  0.9849  0.1845 -0.7099
  760SOL    HW3 3114   0.359   1.635   1.518 -0.9982  1.6619 -0.8312
  760SOL    MW4 3115   0.428   1.671   1.478 -0.0470  0.3984 -0.3874
  761SOL     OW 3116   0.511   1.900   1.577 -0.8112 -0.4527 -0.2308
  761SOL    HW2 3117   0.503   1.896   1.672  0.5342  1.8131  0.0211
  761SOL    HW3 3118   0.449   1.968   1.550 -0.5472 -0.4468 -0.8496
  761SOL    MW4 3119   0.502   1.909   1.586 -0.5989 -0.1529 -0.2793
  762SOL     OW 3120   0.737   2.065   1.518  0.1080  0.0656 -0.9124
  762SOL    HW2 3121   0.817   2.036   1.562  0.2712 -0.1042 -1.3141
  762SOL    HW3 3122   0.670   2.003   1.547  0.7394 -1.5856 -2.8116
  762SOL    MW4 3123   0.739   2.053   1.528  0.2128 -0.1748 -1.2158
  763SOL     OW 3124   0.673   2.329   1.602  0.3138  0.1354 -0.1947
  763SOL    HW2 3125   0.602   2.377   1.559 -0.7812 -0.4522  0.9441
  763SOL    HW3 3126   0.666   2.240   1.567 -0.6105 -0.3579  1.2078
  763SOL    MW4 3127   0.663   2.324   1.592  0.0474 -0.0072  0.1405
  764SOL     OW 3128   0.451   2.471   1.502 -0.2249  0.2244  0.3733
  764SOL    HW2 3129   0.452   2.550   1.555  0.7394 -0.6812  1.7302
  764SOL    HW3 3130   0.370   2.426   1.526 -1.6770  1.6143 -1.6880
  764SOL    MW4 3131   0.440   2.475   1.512 -0.2893  0.2885  0.2804
  765SOL     OW 3132   0.432   2.724   1.625 -0.5087  0.0428 -0.6319
  765SOL    HW2 3133   0.420   2.736   1.719 -0.6177  0.6918 -0.7260
  765SOL    HW3 3134   0.506   2.780   1.603 -0.9421  0.4477 -1.0603
  765SOL    MW4 3135   0.440   2.733   1.635 -0.5802  0.1819 -0.7008
  766SOL     OW 3136   0.663   2.863   1.526 -0.2907  0.2446  0.0044
  766SOL    HW2 3137   0.677   2.956   1.546  1.1227  0.1377 -0.4523
  766SOL    HW3 3138   0.650   2.861   1.431 -0.0643 -0.0649 -0.0186
  766SOL    MW4 3139   0.663   2.875   1.516 -0.0744  0.1898 -0.0589
  767SOL     OW 3140   0.682   3.129   1.600 -0.2511 -0.2440  0.0271
  767SOL    HW2 3141   0.748   3.197   1.588 -0.0587 -0.5926 -0.8929
  767SOL    HW3 3142   0.600   3.170   1.572 -0.0630 -0.5332 -0.9496
  767SOL    MW4 3143   0.680   3.143   1.595 -0.2009 -0.3278 -0.2230
  768SOL     OW 3144   0.458   3.266   1.508  0.2235 -0.1402  0.3095
  768SOL    HW2 3145   0.372   3.232   1.532  0.8446 -1.1230  1.1514
  768SOL    HW3 3146   0.456   3.271   1.412 -0.4622 -0.9681  0.2799
  768SOL    MW4 3147   0.446   3.263   1.499  0.2150 -0.3793  0.4165
  769SOL     OW 3148   0.422   3.507   1.623  0.3490  0.4641 -0.1518
  769SOL    HW2 3149   0.433   3.421   1.582 -0.5912 -0.0410  0.6199
  769SOL    HW3 3150   0.344   3.544   1.581 -0.2613  0.2010  0.7181
  769SOL    MW4 3151   0.413   3.501   1.612  0.1445  0.3626  0.0647
  770SOL     OW 3152   0.651   3.633   1.502 -0.1054 -0.1793  0.1435
  770SOL    HW2 3153   0.731   3.607   1.547 -0.6513 -0.4616  0.9500
  770SOL    HW3 3154   0.581   3.585   1.547 -0.8641  0.9955  0.2337
  770SOL    MW4 3155   0.652   3.623   1.514 -0.2775 -0.0618  0.2618
  771SOL     OW 3156   0.665   3.891   1.597 -0.2337  0.4188 -0.1554
  771SOL    HW2 3157   0.754   3.919   1.574  0.6679 -0.8075  1.7515
  771SOL    HW3 3158   0.655   3.806   1.554  0.5632 -0.7448  1.9135
  771SOL    MW4 3159   0.676   3.884   1.588 -0.0096  0.1037  0.3691
  772SOL     OW 3160   0.452   4.056   1.515 -0.0168  1.1566 -0.0874
  772SOL    HW2 3161   0.535   4.009   1.524  0.8733  2.6929  0.0918
  772SOL    HW3 3162   0.433   4.055   1.421  0.3534  1.0470 -0.1609
  772SOL    MW4 3163   0.461   4.050   1.504  0.1495  1.3452 -0.0733
  773SOL     OW 3164   0.439   4.319   1.616  0.0041  0.6305  0.0719
  773SOL    HW2 3165   0.450   4.230   1.582  0.3708  0.4420  0.6912
  773SOL    HW3 3166   0.351   4.345   1.587 -1.1203 -0.8700  2.0554
  773SOL    MW4 3167   0.429   4.311   1.607 -0.0958  0.4077  0.4154
  774SOL     OW 3168   0.671   4.425   1.497 -0.2628 -0.1091 -0.2167
  774SOL    HW2 3169   0.586   4.385   1.515  0.0638 -0.3834  0.7501
  774SOL    HW3 3170   0.666   4.512   1.537  0.3407 -0.5824  0.8897
  774SOL    MW4 3171   0.659   4.432   1.504 -0.1400 -0.2079  0.0567
  775SOL     OW 3172   1.098   4.637   1.605  0.0022  0.2751 -0.4802
  775SOL    HW2 3173   1.098   4.662   1.698 -1.1293 -1.5339  0.0320
  775SOL    HW3 3174   1.162   4.696   1.565 -0.6546  2.1951  1.1498
  775SOL    MW4 3175   1.106   4.648   1.612 -0.2338  0.2904 -0.1976
  776SOL     OW 3176   0.890   0.133   1.504 -0.1095  0.6074  0.0951
  776SOL    HW2 3177   0.901   0.221   1.540  2.1580  1.2141 -1.9242
  776SOL    HW3 3178   0.955   0.080   1.550  0.7332  0.7266 -0.9349
  776SOL    MW4 3179   0.900   0.138   1.515  0.3009  0.7032 -0.3072
  777SOL     OW 3180   0.908   0.363   1.656 -0.5702 -0.2168  0.1091
  777SOL    HW2 3181   0.909   0.354   1.752  0.5294 -0.2043  0.1154
  777SOL    HW3 3182   0.833   0.419   1.638 -0.5971  0.0480  0.9946
  777SOL    MW4 3183   0.899   0.369   1.666 -0.4287 -0.1802  0.2267
  778SOL     OW 3184   1.107   0.505   1.548  0.2668 -0.2778 -0.1213
  778SOL    HW2 3185   1.092   0.594   1.579 -0.4723 -0.4572  0.0395
  778SOL    HW3 3186   1.030   0.456   1.575 -0.0313 -0.6241 -1.5397
  778SOL    MW4 3187   1.095   0.510   1.556  0.1299 -0.3472 -0.2872
  779SOL     OW 3188   1.117   0.804   1.631 -0.5690 -0.6845  0.3969
  779SOL    HW2 3189   1.114   0.811   1.727  1.0485 -0.9468  0.4853
  779SOL    HW3 3190   1.193   0.856   1.606 -0.4606 -1.3434 -0.6754
  779SOL    MW4 3191   1.127   0.812   1.641 -0.3413 -0.8061  0.2671
  780SOL     OW 3192   0.864   0.916   1.516  0.7252 -0.3565  0.2208
  780SOL    HW2 3193   0.953   0.889   1.539  1.2481  0.8632 -0.3280
  780SOL    HW3 3194   0.857   0.899   1.422  0.3257 -0.5660  0.2839
  780SOL    MW4 3195   0.875   0.910   1.506  0.7414 -0.2232  0.1569
  781SOL     OW 3196   0.898   1.155   1.658 -0.2606  0.5102  0.4470
  781SOL    HW2 3197   0.900   1.072   1.610  0.5025  0.3301  0.7758
  781SOL    HW3 3198   0.830   1.206   1.615 -0.9553 -0.4069  0.4392
  781SOL    MW4 3199   0.889   1.151   1.646 -0.2516  0.3654  0.4894
  782SOL     OW 3200   1.090   1.307   1.500 -0.6035 -0.2120 -0.1266
  782SOL    HW2 3201   1.183   1.286   1.513 -0.5660  0.7611  1.3691
  782SOL    HW3 3202   1.045   1.262   1.572 -0.8687  2.1011  1.2360
  782SOL    MW4 3203   1.096   1.299   1.511 -0.6336  0.2215  0.2505
  783SOL     OW 3204   1.087   1.579   1.603 -0.1298 -0.0502  0.3731
  783SOL    HW2 3205   1.168   1.608   1.561 -1.4897  0.9119 -1.6653
  783SOL    HW3 3206   1.069   1.494   1.562 -0.2399 -0.1832  0.6986
  783SOL    MW4 3207   1.095   1.571   1.592 -0.3238  0.0590  0.1471
  784SOL     OW 3208   0.859   1.711   1.504 -0.0258  0.1440 -0.2235
  784SOL    HW2 3209   0.944   1.667   1.515  0.0082  0.4248  0.6631
  784SOL    HW3 3210   0.850   1.723   1.410  1.2190  0.6702 -0.2865
  784SOL    MW4 3211   0.869   1.707   1.493  0.1429  0.2505 -0.1149
  785SOL     OW 3212   0.937   1.938   1.662 -0.1046  0.1277 -0.1920
  785SOL    HW2 3213   0.999   1.983   1.604  0.0276 -0.3576 -0.4309
  785SOL    HW3 3214   0.913   1.858   1.614 -0.6441  0.1399  0.0540
  785SOL    MW4 3215   0.942   1.933   1.648 -0.1583  0.0651 -0.1911
  786SOL     OW 3216   1.098   2.096   1.528 -0.4875 -0.0663 -0.0928
  786SOL    HW2 3217   1.179   2.052   1.555 -1.5825 -1.9310  0.2633
  786SOL    HW3 3218   1.105   2.185   1.564  0.2309 -1.0179  2.2125
  786SOL    MW4 3219   1.110   2.102   1.537 -0.5372 -0.4380  0.2583
  787SOL     OW 3220   1.102   2.364   1.615 -0.0920 -0.1988 -0.1805
  787SOL    HW2 3221   1.177   2.397   1.566 -0.5887  0.5759 -0.4247
  787SOL    HW3 3222   1.026   2.385   1.561 -0.7516  1.6733  1.4180
  787SOL    MW4 3223   1.102   2.371   1.602 -0.2446  0.1504 -0.0019
  788SOL     OW 3224   0.885   2.435   1.461  0.4732  0.5593  0.0631
  788SOL    HW2 3225   0.897   2.527   1.484 -0.1357  0.6517  0.0034
  788SOL    HW3 3226   0.812   2.406   1.516  1.5921 -0.2658  1.1380
  788SOL    MW4 3227   0.877   2.443   1.472  0.5405  0.4628  0.1971
  789SOL     OW 3228   0.893   2.704   1.552 -0.5775  0.3112 -0.3865
  789SOL    HW2 3229   0.904   2.707   1.647  1.4381 -0.5755 -0.5868
  789SOL    HW3 3230   0.809   2.748   1.537 -1.4068 -0.4279  1.8762
  789SOL    MW4 3231   0.883   2.710   1.563 -0.4210  0.0968 -0.1144
  790SOL     OW 3232   1.110   2.879   1.466  0.1504 -0.3692 -0.5898
  790SOL    HW2 3233   1.112   2.957   1.520 -0.2747  0.5844 -1.9199
  790SOL    HW3 3234   1.040   2.825   1.503 -0.4273  0.4682 -0.4471
  790SOL    MW4 3235   1.101   2.882   1.478  0.0182 -0.1328 -0.7465
  791SOL     OW 3236   1.109   3.121   1.610 -0.0004 -0.3753  0.4444
  791SOL    HW2 3237   1.109   3.134   1.704 -0.3141 -2.3509  0.7369
  791SOL    HW3 3238   1.181   3.175   1.578  0.6884 -0.4082  1.9159
  791SOL    MW4 3239   1.118   3.130   1.618  0.0490 -0.6402  0.6771
  792SOL     OW 3240   0.890   3.296   1.528  0.1269  0.6189 -0.3464
  792SOL    HW2 3241   0.961   3.235   1.548 -0.5746 -0.2170 -0.3651
  792SOL    HW3 3242   0.881   3.293   1.433 -1.5596 -1.1687 -0.1678
  792SOL    MW4 3243   0.898   3.288   1.518 -0.1881  0.2725 -0.3254
  793SOL     OW 3244   0.877   3.550   1.622 -0.4910  0.0344 -0.3366
  793SOL    HW2 3245   0.956   3.580   1.577 -0.7323  0.5464 -0.4282
  793SOL    HW3 3246   0.863   3.461   1.590  0.5279 -0.3739  0.3328
  793SOL    MW4 3247   0.885   3.542   1.612 -0.3884  0.0482 -0.2604
  794SOL     OW 3248   1.118   3.625   1.491  0.4090 -0.1561  0.2185
  794SOL    HW2 3249   1.197   3.575   1.514  0.6570  0.5046  0.8180
  794SOL    HW3 3250   1.124   3.636   1.396  0.5740 -0.8936  0.1417
  794SOL    MW4 3251   1.129   3.620   1.481  0.4635 -0.1664  0.2874
  795SOL     OW 3252   1.126   3.872   1.599  0.4808 -0.0793  0.0485
  795SOL    HW2 3253   1.199   3.920   1.560  0.4935 -0.9059 -0.9891
  795SOL    HW3 3254   1.141   3.781   1.574  0.5522 -0.6583  2.1538
  795SOL    MW4 3255   1.137   3.867   1.590  0.4921 -0.2646  0.1893
  796SOL     OW 3256   0.895   4.001   1.467  0.2156 -0.0049 -0.4151
  796SOL    HW2 3257   0.884   4.093   1.492 -1.4689 -0.0153 -1.0297
  796SOL    HW3 3258   0.966   3.970   1.523 -1.3067  0.8389  2.1273
  796SOL    MW4 3259   0.903   4.009   1.478 -0.2075  0.1044 -0.1607
  797SOL     OW 3260   0.878   4.247   1.583  0.6839 -0.1416  0.3332
  797SOL    HW2 3261   0.887   4.243   1.678  1.5084  1.3426  0.3402
  797SOL    HW3 3262   0.807   4.310   1.568  0.9755  0.1094 -0.0277
  797SOL    MW4 3263   0.870   4.255   1.594  0.8311  0.0873  0.2865
  798SOL     OW 3264   1.111   4.382   1.489  0.0891 -0.6791  0.7452
  798SOL    HW2 3265   1.029   4.339   1.513 -1.0254  0.6748 -0.5081
  798SOL    HW3 3266   1.102   4.471   1.522  0.4354 -0.1078 -0.6474
  798SOL    MW4 3267   1.099   4.388   1.496 -0.0124 -0.4249  0.3960
  799SOL     OW 3268   1.560   4.627   1.563  0.0591  0.3684 -0.5798
  799SOL    HW2 3269   1.578   4.638   1.657  2.6554  1.9070 -1.1952
  799SOL    HW3 3270   1.476   4.670   1.549 -0.4317 -0.0237  1.0711
  799SOL    MW4 3271   1.552   4.634   1.574  0.3369  0.5198 -0.4430
  800SOL     OW 3272   1.339   0.093   1.479 -0.4319 -0.0325  0.4838
  800SOL    HW2 3273   1.359   0.179   1.516 -2.1426  0.4385  0.3459
  800SOL    HW3 3274   1.325   0.110   1.386  1.2816 -0.7992  0.0789
  800SOL    MW4 3275   1.340   0.107   1.471 -0.4317 -0.0715  0.4122
  801SOL     OW 3276   1.341   0.351   1.586  0.4736  0.7750  0.0205
  801SOL    HW2 3277   1.419   0.403   1.567  0.0553  1.5813  0.4972
  801SOL    HW3 3278   1.268   0.408   1.563  0.0236 -0.0142 -0.5108
  801SOL    MW4 3279   1.342   0.365   1.581  0.3589  0.7772  0.0134
  802SOL     OW 3280   1.574   0.505   1.540 -0.1491 -0.0196  0.3470
  802SOL    HW2 3281   1.657   0.478   1.581  0.1778  1.8069  0.9424
  802SOL    HW3 3282   1.592   0.503   1.446  0.5965  0.3935  0.4710
  802SOL    MW4 3283   1.588   0.501   1.533 -0.0075  0.2759  0.4419
  803SOL     OW 3284   1.540   0.766   1.616 -0.3807 -0.5700 -0.2795
  803SOL    HW2 3285   1.557   0.767   1.710 -0.3398  0.9768 -0.2952
  803SOL    HW3 3286   1.559   0.676   1.589  0.3313 -0.8302  1.0569
  803SOL    MW4 3287   1.545   0.755   1.625 -0.2815 -0.4002 -0.1053
  804SOL     OW 3288   1.330   0.935   1.552 -0.2438 -0.2892 -0.0324
  804SOL    HW2 3289   1.413   0.891   1.570  0.0965  0.7134  0.8879
  804SOL    HW3 3290   1.315   0.921   1.459  0.3081 -1.5839  0.0672
  804SOL    MW4 3291   1.339   0.928   1.542 -0.1260 -0.3277  0.1023
  805SOL     OW 3292   1.321   1.197   1.631  0.1407 -0.1309  0.3768
  805SOL    HW2 3293   1.323   1.198   1.727 -1.1547 -1.1902  0.4300
  805SOL    HW3 3294   1.323   1.104   1.608  0.9395  0.1332 -0.6429
  805SOL    MW4 3295   1.321   1.184   1.641  0.0751 -0.2358  0.2493
  806SOL     OW 3296   1.560   1.305   1.536  0.0843  0.4125 -0.0975
  806SOL    HW2 3297   1.483   1.263   1.576  0.0246 -0.3986 -1.0364
  806SOL    HW3 3298   1.541   1.305   1.442  0.3620  2.0213 -0.1657
  806SOL    MW4 3299   1.547   1.299   1.529  0.1129  0.5177 -0.2304
  807SOL     OW 3300   1.539   1.574   1.586 -0.4258  0.7320  0.0879
  807SOL    HW2 3301   1.538   1.578   1.682 -0.0788 -1.1486  0.1830
  807SOL    HW3 3302   1.547   1.481   1.566  2.4155  1.3206 -1.7511
  807SOL    MW4 3303   1.540   1.562   1.596 -0.0052  0.5615 -0.1422
  808SOL     OW 3304   1.312   1.700   1.480 -0.0274 -0.1038  0.2231
  808SOL    HW2 3305   1.384   1.650   1.519  1.1331 -0.4174 -2.2128
  808SOL    HW3 3306   1.330   1.699   1.386 -1.8465  2.0010 -0.2019
  808SOL    MW4 3307   1.324   1.693   1.473 -0.1144  0.1326 -0.1543
  809SOL     OW 3308   1.329   1.947   1.586  0.0531  0.3773 -0.0942
  809SOL    HW2 3309   1.325   1.922   1.678  0.8061 -1.5650 -0.5685
  809SOL    HW3 3310   1.320   1.865   1.538  1.7089  1.1102 -1.7220
  809SOL    MW4 3311   1.327   1.933   1.592  0.3710  0.2178 -0.3717
  810SOL     OW 3312   1.560   2.073   1.496  0.0469 -0.6011 -0.5440
  810SOL    HW2 3313   1.477   2.035   1.524  0.3555 -0.2784  0.8575
  810SOL    HW3 3314   1.562   2.059   1.401 -1.2775 -1.2389 -0.4931
  810SOL    MW4 3315   1.549   2.066   1.487 -0.0871 -0.6428 -0.3524
  811SOL     OW 3316   1.510   2.328   1.591 -0.1745 -0.1925 -0.0374
  811SOL    HW2 3317   1.589   2.382   1.584 -1.0932  1.3011  0.7810
  811SOL    HW3 3318   1.535   2.244   1.554  1.5171  0.5678 -0.6787
  811SOL    MW4 3319   1.523   2.324   1.585 -0.0725  0.1049 -0.0141
  812SOL     OW 3320   1.307   2.481   1.461 -0.0045  0.0049  0.6688
  812SOL    HW2 3321   1.299   2.565   1.506  0.7362  0.5781 -0.2494
  812SOL    HW3 3322   1.375   2.435   1.510 -1.0585 -0.4489  1.7408
  812SOL    MW4 3323   1.315   2.486   1.474 -0.0459  0.0210  0.6890
  813SOL     OW 3324   1.309   2.728   1.583 -0.3303  0.1613 -0.3331
  813SOL    HW2 3325   1.389   2.771   1.553 -0.5314  0.2594 -0.7349
  813SOL    HW3 3326   1.238   2.784   1.551 -0.6529 -1.2692 -2.2405
  813SOL    MW4 3327   1.310   2.741   1.575 -0.3992 -0.0145 -0.6378
  814SOL     OW 3328   1.527   2.864   1.484  0.2451  0.7557 -0.7208
  814SOL    HW2 3329   1.608   2.825   1.518  0.2206  1.3119 -0.0161
  814SOL    HW3 3330   1.536   2.860   1.389 -0.6709 -2.9402 -0.7534
  814SOL    MW4 3331   1.539   2.858   1.476  0.1211  0.3414 -0.6322
  815SOL     OW 3332   1.553   3.140   1.564 -0.1377 -0.1094  0.5547
  815SOL    HW2 3333   1.635   3.186   1.546  0.0289 -0.5542  0.1555
  815SOL    HW3 3334   1.568   3.051   1.530 -0.8156 -0.1641  0.4029
  815SOL    MW4 3335   1.566   3.134   1.557 -0.2053 -0.1757  0.4820
  816SOL     OW 3336   1.319   3.247   1.496  0.1637  0.9262 -0.3084
  816SOL    HW2 3337   1.326   3.333   1.536  0.2598  0.7465  0.0616
  816SOL    HW3 3338   1.404   3.206   1.510  0.2767  0.9495 -0.9031
  816SOL    MW4 3339   1.331   3.253   1.503  0.1915  0.9058 -0.3381
  817SOL     OW 3340   1.364   3.513   1.561 -0.3361 -0.0595 -0.1562
  817SOL    HW2 3341   1.359   3.521   1.656 -0.1501  0.4631 -0.1886
  817SOL    HW3 3342   1.454   3.540   1.539 -0.4087 -0.0793 -0.4845
  817SOL    MW4 3343   1.375   3.518   1.570 -0.3213  0.0069 -0.2037
  818SOL     OW 3344   1.607   3.647   1.483 -0.5654  0.4731  0.0921
  818SOL    HW2 3345   1.623   3.734   1.518 -0.5804  0.2876  0.5618
  818SOL    HW3 3346   1.589   3.661   1.390 -0.6699  0.9767  0.1907
  818SOL    MW4 3347   1.607   3.660   1.475 -0.5811  0.5152  0.1670
  819SOL     OW 3348   1.614   3.895   1.570 -0.4851 -0.0976 -0.2031
  819SOL    HW2 3349   1.608   3.908   1.665 -0.0090 -0.2795 -0.1504
  819SOL    HW3 3350   1.523   3.903   1.540 -0.4740  1.3134  0.0927
  819SOL    MW4 3351   1.601   3.898   1.579 -0.4209  0.0646 -0.1572
  820SOL     OW 3352   1.359   3.984   1.495 -0.5859  0.5928 -0.4551
  820SOL    HW2 3353   1.343   4.076   1.515  1.5930  1.0074 -0.5882
  820SOL    HW3 3354   1.351   3.979   1.400 -0.2840  0.7091 -0.4844
  820SOL    MW4 3355   1.356   3.995   1.485 -0.2586  0.6628 -0.4766
  821SOL     OW 3356   1.333   4.248   1.596 -0.2236 -0.2519  0.2297
  821SOL    HW2 3357   1.409   4.291   1.556 -0.1993 -0.0807  0.4604
  821SOL    HW3 3358   1.258   4.295   1.560 -0.1458  0.9725  1.6447
  821SOL    MW4 3359   1.333   4.260   1.586 -0.2100 -0.0677  0.4467
  822SOL     OW 3360   1.578   4.361   1.490 -0.4589  0.4696  0.2008
  822SOL    HW2 3361   1.653   4.323   1.536 -0.6798  1.0433  1.0342
  822SOL    HW3 3362   1.588   4.455   1.502 -0.0599  0.6860 -1.6346
  822SOL    MW4 3363   1.589   4.368   1.498 -0.4352  0.5741  0.0685
  823SOL     OW 3364   2.017   4.665   1.593 -0.1133  0.0362  0.1137
  823SOL    HW2 3365   2.007   4.670   1.688 -0.0070  0.0797  0.1220
  823SOL    HW3 3366   1.941   4.712   1.558 -1.2913 -1.7976  0.1603
  823SOL    MW4 3367   2.005   4.672   1.601 -0.2546 -0.1998  0.1209
  824SOL     OW 3368   1.793   0.139   1.483  0.4939 -0.4057 -0.6985
  824SOL    HW2 3369   1.719   0.082   1.504  1.1343 -0.8552  0.3762
  824SOL    HW3 3370   1.795   0.141   1.387 -1.5874  0.5193 -0.7460
  824SOL    MW4 3371   1.784   0.131   1.473  0.3037 -0.3430 -0.5630
  825SOL     OW 3372   1.811   0.371   1.634 -0.2205  0.2772  0.0045
  825SOL    HW2 3373   1.886   0.414   1.591 -0.5946  1.4703  0.5317
  825SOL    HW3 3374   1.795   0.292   1.581  1.1384  0.2320 -0.3564
  825SOL    MW4 3375   1.819   0.366   1.621 -0.0906  0.4286  0.0266
  826SOL     OW 3376   1.996   0.529   1.502  0.2566  0.0780  0.1192
  826SOL    HW2 3377   2.076   0.487   1.532 -0.5128 -0.2546  1.7965
  826SOL    HW3 3378   1.998   0.616   1.542  0.0797  0.2860 -0.3237
  826SOL    MW4 3379   2.007   0.535   1.512  0.1318  0.0616  0.2820
  827SOL     OW 3380   2.016   0.782   1.604  0.1027 -0.0893 -0.3326
  827SOL    HW2 3381   2.095   0.793   1.551  0.0126 -0.8245 -0.6161
  827SOL    HW3 3382   1.952   0.840   1.563  0.4584  0.4286 -0.1657
  827SOL    MW4 3383   2.018   0.791   1.592  0.1376 -0.1180 -0.3481
  828SOL     OW 3384   1.770   0.900   1.529 -0.3093 -0.0430  0.0890
  828SOL    HW2 3385   1.766   0.982   1.578  0.8384 -0.8899  1.6528
  828SOL    HW3 3386   1.703   0.845   1.570  0.8276 -0.8446  0.8769
  828SOL    MW4 3387   1.761   0.904   1.541 -0.0077 -0.2605  0.3992
  829SOL     OW 3388   1.775   1.171   1.656 -0.0957 -0.1673  0.0785
  829SOL    HW2 3389   1.849   1.220   1.619 -0.5413  0.8200  0.4794
  829SOL    HW3 3390   1.698   1.211   1.616 -0.3383 -2.6391 -2.0374
  829SOL    MW4 3391   1.775   1.183   1.646 -0.1866 -0.3632 -0.1477
  830SOL     OW 3392   1.993   1.256   1.517  0.2016 -0.2786 -0.0198
  830SOL    HW2 3393   1.998   1.350   1.537  0.5688  0.0476 -1.5256
  830SOL    HW3 3394   1.994   1.253   1.421 -0.5100 -1.7922  0.0167
  830SOL    MW4 3395   1.994   1.268   1.507  0.1564 -0.4352 -0.2137
  831SOL     OW 3396   1.988   1.518   1.597 -0.1150 -0.3054  0.7047
  831SOL    HW2 3397   2.067   1.570   1.586  1.2712 -2.4943 -0.0173
  831SOL    HW3 3398   1.916   1.577   1.571  1.4068  1.1703 -0.2490
  831SOL    MW4 3399   1.989   1.532   1.592  0.2687 -0.3996  0.4836
  832SOL     OW 3400   1.790   1.679   1.501 -0.0095  0.0766  0.1892
  832SOL    HW2 3401   1.710   1.642   1.538 -0.8431  1.3772 -0.3134
  832SOL    HW3 3402   1.779   1.673   1.407 -0.0751  1.4527  0.1054
  832SOL    MW4 3403   1.778   1.673   1.494 -0.1281  0.4299  0.1118
  833SOL     OW 3404   1.780   1.939   1.585  0.0321 -0.3168 -0.5228
  833SOL    HW2 3405   1.776   1.854   1.542  0.8911 -0.5827 -0.1098
  833SOL    HW3 3406   1.698   1.982   1.562 -0.1352 -1.0089 -1.2504
  833SOL    MW4 3407   1.769   1.933   1.577  0.1234 -0.4431 -0.5643
  834SOL     OW 3408   2.012   2.005   1.440 -0.3197 -0.3688  0.1395
  834SOL    HW2 3409   2.079   1.976   1.502  0.2556  0.1314 -0.2475
  834SOL    HW3 3410   1.929   1.984   1.483  0.0798 -0.7963  0.7121
  834SOL    MW4 3411   2.010   1.998   1.453 -0.1910 -0.3592  0.1639
  835SOL     OW 3412   1.971   2.273   1.564 -0.0912 -0.0894  0.2088
  835SOL    HW2 3413   1.995   2.263   1.656 -2.2996  0.9636  0.9181
  835SOL    HW3 3414   1.991   2.188   1.525  3.6433  0.3363  0.9601
  835SOL    MW4 3415   1.977   2.260   1.571  0.1103  0.1056  0.4017
  836SOL     OW 3416   1.749   2.436   1.485  0.0702  0.3784  0.3937
  836SOL    HW2 3417   1.816   2.381   1.525 -1.1877 -1.3936  0.1117
  836SOL    HW3 3418   1.773   2.441   1.393  1.6595  2.5368  0.8739
  836SOL    MW4 3419   1.761   2.429   1.478  0.1138  0.4294  0.4200
  837SOL     OW 3420   1.741   2.719   1.557 -0.4504 -0.2575 -0.5138
  837SOL    HW2 3421   1.815   2.743   1.501 -0.7824 -1.0244 -1.2822
  837SOL    HW3 3422   1.726   2.626   1.538  0.4855 -0.9809  2.0257
  837SOL    MW4 3423   1.749   2.710   1.547 -0.3709 -0.4547 -0.2803
  838SOL     OW 3424   1.993   2.819   1.452 -0.4625 -0.3664  0.4077
  838SOL    HW2 3425   1.996   2.910   1.482 -0.2666 -0.2145 -0.0773
  838SOL    HW3 3426   2.015   2.823   1.359  0.5404 -1.0203  0.6110
  838SOL    MW4 3427   1.996   2.831   1.444 -0.3043 -0.4327  0.3705
  839SOL     OW 3428   2.007   3.080   1.552 -0.2230  0.1835  0.2892
  839SOL    HW2 3429   2.003   3.078   1.647 -0.3016  3.3258  0.3766
  839SOL    HW3 3430   2.078   3.140   1.531 -0.6173  0.0235 -1.6514
  839SOL    MW4 3431   2.016   3.088   1.562 -0.2854  0.5770  0.0447
  840SOL     OW 3432   1.806   3.235   1.461 -0.2404 -0.0258  0.5786
  840SOL    HW2 3433   1.814   3.316   1.513 -0.4621 -0.0542  0.6587
  840SOL    HW3 3434   1.879   3.181   1.491  0.1592  0.3117  0.2228
  840SOL    MW4 3435   1.817   3.239   1.472 -0.2168  0.0148  0.5423
  841SOL     OW 3436   1.816   3.493   1.570  0.0019  0.2062 -0.4867
  841SOL    HW2 3437   1.815   3.500   1.666  0.3013 -3.2805 -0.1653
  841SOL    HW3 3438   1.738   3.540   1.542 -0.2885  0.9515  1.4928
  841SOL    MW4 3439   1.806   3.501   1.579  0.0031 -0.1554 -0.1832
  842SOL     OW 3440   2.033   3.642   1.463 -0.4749 -0.5327 -0.0328
  842SOL    HW2 3441   2.103   3.601   1.515 -1.1280 -0.9108  0.5628
  842SOL    HW3 3442   1.954   3.592   1.486 -0.7793 -0.6654 -1.3574
  842SOL    MW4 3443   2.032   3.630   1.473 -0.6013 -0.6001 -0.1290
  843SOL     OW 3444   2.003   3.889   1.603 -0.2684  0.0619 -0.3800
  843SOL    HW2 3445   2.084   3.934   1.579 -0.5644  0.4382 -0.6959
  843SOL    HW3 3446   2.009   3.804   1.560  0.2371 -0.1506  0.1111
  843SOL    MW4 3447   2.014   3.884   1.594 -0.2408  0.0834 -0.3568
  844SOL     OW 3448   1.818   4.032   1.465 -0.1825 -0.0304  0.1556
  844SOL    HW2 3449   1.898   3.990   1.495 -0.7374 -0.1769  1.4585
  844SOL    HW3 3450   1.748   3.976   1.500 -0.9625  2.3989  2.6265
  844SOL    MW4 3451   1.819   4.019   1.474 -0.3587  0.2713  0.6535
  845SOL     OW 3452   1.794   4.285   1.613 -0.4158  0.0590  0.1070
  845SOL    HW2 3453   1.864   4.338   1.575 -0.9219  0.6639  0.0107
  845SOL    HW3 3454   1.798   4.202   1.565 -0.3204  0.4042 -0.4841
  845SOL    MW4 3455   1.804   4.281   1.601 -0.4699  0.1841  0.0163
  846SOL     OW 3456   2.019   4.414   1.501 -0.3338  0.2503 -0.0722
  846SOL    HW2 3457   2.090   4.370   1.548 -0.8949  0.4017  0.9174
  846SOL    HW3 3458   2.030   4.507   1.520 -0.5358  0.3199 -0.2810
  846SOL    MW4 3459   2.030   4.420   1.509 -0.4344  0.2799  0.0309
  847SOL     OW 3460   2.467   0.008   1.601 -0.6415  0.1153  0.0230
  847SOL    HW2 3461   2.481   0.030   1.693 -0.0970 -1.8460  0.4260
  847SOL    HW3 3462   2.385   0.051   1.578 -0.0851  1.7664  1.0183
  847SOL    MW4 3463   2.458   0.016   1.610 -0.4964  0.0743  0.2074
  848SOL     OW 3464   2.217   0.156   1.484  0.5454  0.4021 -0.2915
  848SOL    HW2 3465   2.149   0.101   1.523  0.2075  0.7878 -0.3251
  848SOL    HW3 3466   2.206   0.144   1.390  0.1296  0.9207 -0.3154
  848SOL    MW4 3467   2.206   0.147   1.477  0.4461  0.5214 -0.2991
  849SOL     OW 3468   2.240   0.397   1.604  0.1673  0.2487  0.0127
  849SOL    HW2 3469   2.243   0.389   1.700  0.0571 -1.2713 -0.1011
  849SOL    HW3 3470   2.243   0.307   1.572 -0.2577  0.7277 -1.4171
  849SOL    MW4 3471   2.241   0.384   1.613  0.0966  0.1114 -0.1910
  850SOL     OW 3472   2.475   0.508   1.500  0.3958 -0.3062 -0.1490
  850SOL    HW2 3473   2.549   0.459   1.537  0.7022 -0.3165 -0.7645
  850SOL    HW3 3474   2.398   0.464   1.535  0.6731 -0.9249 -0.2999
  850SOL    MW4 3475   2.475   0.496   1.510  0.4725 -0.3892 -0.2502
  851SOL     OW 3476   2.488   0.769   1.593 -0.5372 -0.6031  0.1178
  851SOL    HW2 3477   2.401   0.795   1.562 -0.8255 -1.3978  0.2307
  851SOL    HW3 3478   2.498   0.679   1.560  1.1402  0.2362 -1.7465
  851SOL    MW4 3479   2.477   0.760   1.584 -0.3538 -0.5973 -0.1132
  852SOL     OW 3480   2.254   0.866   1.472 -0.0884  0.0976  0.2717
  852SOL    HW2 3481   2.244   0.949   1.519  0.6877  0.0430  0.5426
  852SOL    HW3 3482   2.257   0.890   1.380  1.2035  0.4686  0.4098
  852SOL    MW4 3483   2.253   0.880   1.466  0.1843  0.1394  0.3257
  853SOL     OW 3484   2.211   1.112   1.611  0.0562 -0.2864 -0.1397
  853SOL    HW2 3485   2.206   1.123   1.706 -0.0843 -0.9646 -0.0683
  853SOL    HW3 3486   2.135   1.161   1.578  0.7554  0.9318  0.0078
  853SOL    MW4 3487   2.200   1.120   1.619  0.1299 -0.2151 -0.1107
  854SOL     OW 3488   2.482   1.202   1.536 -0.3137  0.5553  0.4039
  854SOL    HW2 3489   2.397   1.164   1.558 -0.8477  1.9610  0.8416
  854SOL    HW3 3490   2.481   1.210   1.441 -0.0348 -0.8769  0.2737
  854SOL    MW4 3491   2.471   1.198   1.526 -0.3471  0.5517  0.4445
  855SOL     OW 3492   2.454   1.465   1.591 -0.0989 -0.1579 -0.2497
  855SOL    HW2 3493   2.530   1.506   1.551 -0.3350 -0.7548 -1.3330
  855SOL    HW3 3494   2.471   1.371   1.584 -0.6764 -0.2873  0.0167
  855SOL    MW4 3495   2.466   1.458   1.585 -0.2065 -0.2538 -0.3574
  856SOL     OW 3496   2.228   1.626   1.547  0.1436  0.1964  0.0623
  856SOL    HW2 3497   2.303   1.570   1.564  0.0575  0.3036  0.7949
  856SOL    HW3 3498   2.233   1.644   1.453  0.6888 -0.2868 -0.0070
  856SOL    MW4 3499   2.238   1.621   1.536  0.2041  0.1467  0.1497
  857SOL     OW 3500   2.239   1.911   1.612 -0.3163 -0.8901  0.1990
  857SOL    HW2 3501   2.226   1.914   1.707 -0.1152  0.0029  0.2044
  857SOL    HW3 3502   2.249   1.818   1.592 -0.1324 -1.0654  1.0862
  857SOL    MW4 3503   2.239   1.899   1.622 -0.2654 -0.7952  0.3166
  858SOL     OW 3504   2.480   2.002   1.517 -0.2773  0.2831 -0.4955
  858SOL    HW2 3505   2.399   1.966   1.554 -0.1170  0.7107  0.2723
  858SOL    HW3 3506   2.465   2.001   1.423 -0.7056 -0.7806 -0.4313
  858SOL    MW4 3507   2.467   1.997   1.510 -0.3126  0.1992 -0.3856
  859SOL     OW 3508   2.420   2.285   1.571  0.2668  0.1048 -0.0875
  859SOL    HW2 3509   2.432   2.275   1.665  1.0649 -0.2557 -0.2264
  859SOL    HW3 3510   2.431   2.196   1.535  1.1876  0.4407 -0.6506
  859SOL    MW4 3511   2.423   2.272   1.578  0.4935  0.1016 -0.1801
  860SOL     OW 3512   2.180   2.432   1.494  0.2829  0.5259 -0.4129
  860SOL    HW2 3513   2.265   2.402   1.528  0.6176  2.4120  0.4720
  860SOL    HW3 3514   2.116   2.377   1.539  1.0038 -0.7950 -0.9518
  860SOL    MW4 3515   2.183   2.421   1.504  0.4225  0.6006 -0.3673
  861SOL     OW 3516   2.196   2.695   1.583 -0.7415 -0.2643 -0.3119
  861SOL    HW2 3517   2.192   2.600   1.570 -2.2595 -0.1934 -0.4467
  861SOL    HW3 3518   2.116   2.728   1.543 -0.4948  1.0262  0.2313
  861SOL    MW4 3519   2.185   2.687   1.576 -0.9093 -0.0846 -0.2581
  862SOL     OW 3520   2.437   2.815   1.503 -0.3084 -0.0642 -0.0020
  862SOL    HW2 3521   2.430   2.908   1.525 -0.9873  0.3124 -1.6739
  862SOL    HW3 3522   2.350   2.779   1.522 -0.7541  0.1616 -1.5038
  862SOL    MW4 3523   2.424   2.822   1.508 -0.4566  0.0153 -0.4207
  863SOL     OW 3524   2.446   3.075   1.561 -0.3344 -0.3690  0.3618
  863SOL    HW2 3525   2.519   3.117   1.516 -0.9708  2.1160  1.5477
  863SOL    HW3 3526   2.372   3.134   1.547 -2.0172 -2.5836 -0.3907
  863SOL    MW4 3527   2.446   3.088   1.553 -0.6406 -0.3333  0.4190
  864SOL     OW 3528   2.226   3.250   1.492 -0.1432 -0.1081  0.6578
  864SOL    HW2 3529   2.225   3.341   1.523 -1.7631  0.2853 -0.4719
  864SOL    HW3 3530   2.236   3.258   1.397  0.6571 -1.1452  0.6555
  864SOL    MW4 3531   2.227   3.263   1.484 -0.2513 -0.1931  0.5084
  865SOL     OW 3532   2.246   3.505   1.600 -0.1872 -0.1050  0.0935
  865SOL    HW2 3533   2.264   3.495   1.693  0.5586 -1.1031 -0.1507
  865SOL    HW3 3534   2.326   3.543   1.563  0.4296 -1.9461 -0.5250
  865SOL    MW4 3535   2.259   3.508   1.607 -0.0074 -0.4797 -0.0203
  866SOL     OW 3536   2.482   3.611   1.481  0.1818 -0.5531  0.9776
  866SOL    HW2 3537   2.557   3.577   1.529 -0.9360  0.1387  3.2600
  866SOL    HW3 3538   2.485   3.706   1.495  1.0328 -0.0593 -2.0979
  866SOL    MW4 3539   2.493   3.619   1.489  0.1469 -0.3967  0.8731
  867SOL     OW 3540   2.476   3.883   1.540 -0.3378  0.4090 -0.6906
  867SOL    HW2 3541   2.460   3.877   1.634  1.5898  0.2830 -0.3539
  867SOL    HW3 3542   2.560   3.928   1.532 -0.3911  0.2754 -2.3576
  867SOL    MW4 3543   2.485   3.888   1.551 -0.0906  0.3746 -0.8663
  868SOL     OW 3544   2.239   3.999   1.500  0.3723  0.5404 -0.2921
  868SOL    HW2 3545   2.318   3.946   1.511  0.5871  0.6432 -1.2974
  868SOL    HW3 3546   2.221   3.997   1.406  0.2951  2.1108 -0.3280
  868SOL    MW4 3547   2.247   3.992   1.489  0.3901  0.7610 -0.4295
  869SOL     OW 3548   2.226   4.258   1.617 -0.0225 -0.0522 -0.0464
  869SOL    HW2 3549   2.304   4.297   1.577  0.8893 -1.1834  0.5931
  869SOL    HW3 3550   2.223   4.169   1.581 -1.4480  0.2265 -0.6370
  869SOL    MW4 3551   2.236   4.251   1.607 -0.0904 -0.1645 -0.0399
  870SOL     OW 3552   2.458   4.402   1.524  0.6323 -0.4480  0.1797
  870SOL    HW2 3553   2.460   4.494   1.552 -1.6813 -0.7102  1.3349
  870SOL    HW3 3554   2.465   4.405   1.429 -0.2881  0.9839  0.1487
  870SOL    MW4 3555   2.459   4.415   1.515  0.2055 -0.2942  0.3281
  871SOL     OW 3556   2.893   0.001   1.591  0.2342 -0.5947  0.1625
  871SOL    HW2 3557   2.884  -0.002   1.686  0.1382  0.8351  0.2077
  871SOL    HW3 3558   2.819   0.055   1.562  1.0161  0.0752 -0.6096
  871SOL    MW4 3559   2.882   0.008   1.600  0.3247 -0.3177  0.0668
  872SOL     OW 3560   2.683   0.130   1.473  0.0175 -0.3970 -0.0889
  872SOL    HW2 3561   2.686   0.219   1.509 -0.6776 -0.0218 -0.9349
  872SOL    HW3 3562   2.609   0.089   1.517  0.3269 -0.5560  0.2879
  872SOL    MW4 3563   2.674   0.137   1.483 -0.0336 -0.3684 -0.1509
  873SOL     OW 3564   2.731   0.367   1.602 -0.1964 -0.2619 -0.4240
  873SOL    HW2 3565   2.724   0.383   1.696  1.1865 -0.7036 -0.2332
  873SOL    HW3 3566   2.820   0.395   1.580 -1.1829  1.7501 -1.9851
  873SOL    MW4 3567   2.742   0.373   1.611 -0.1440 -0.0547 -0.6047
  874SOL     OW 3568   2.962   0.478   1.495 -0.0775  0.1969 -0.1248
  874SOL    HW2 3569   2.949   0.571   1.512 -3.1918 -0.2246  0.1176
  874SOL    HW3 3570   2.940   0.467   1.402 -1.7820 -0.6024  0.3528
  874SOL    MW4 3571   2.957   0.489   1.485 -0.7133  0.0359 -0.0297
  875SOL     OW 3572   2.913   0.753   1.552 -0.0207  0.1653 -0.7127
  875SOL    HW2 3573   2.920   0.754   1.647  0.2207  0.2572 -0.7326
  875SOL    HW3 3574   2.833   0.803   1.534  1.6565  2.9630 -0.7165
  875SOL    MW4 3575   2.903   0.760   1.562  0.2325  0.5465 -0.7159
  876SOL     OW 3576   2.707   0.899   1.486  0.1590 -0.0355 -0.4042
  876SOL    HW2 3577   2.623   0.865   1.517  0.1593  0.7243  0.4656
  876SOL    HW3 3578   2.699   0.900   1.391 -0.8888  0.1922 -0.3251
  876SOL    MW4 3579   2.695   0.894   1.478  0.0207  0.0948 -0.2791
  877SOL     OW 3580   2.742   1.124   1.633  0.2016 -0.0580 -0.0909
  877SOL    HW2 3581   2.744   1.036   1.596 -0.4909 -0.1945  0.1838
  877SOL    HW3 3582   2.651   1.151   1.625  0.4952  0.8039 -0.5624
  877SOL    MW4 3583   2.730   1.116   1.627  0.1490  0.0377 -0.1168
  878SOL     OW 3584   2.917   1.267   1.480  0.6875 -0.6513 -0.0858
  878SOL    HW2 3585   3.004   1.233   1.500  0.4226 -1.7558 -0.7768
  878SOL    HW3 3586   2.857   1.213   1.531  0.3437 -0.4466 -0.2659
  878SOL    MW4 3587   2.920   1.255   1.489  0.6073 -0.7701 -0.2006
  879SOL     OW 3588   2.958   1.527   1.590 -0.0017  0.1637  0.2861
  879SOL    HW2 3589   2.878   1.561   1.549  0.9588  0.6313 -1.2302
  879SOL    HW3 3590   2.960   1.434   1.565  0.5066  0.4141 -0.6106
  879SOL    MW4 3591   2.948   1.519   1.581  0.1922  0.2587 -0.0323
  880SOL     OW 3592   2.692   1.586   1.484 -0.0608  0.0039  0.7711
  880SOL    HW2 3593   2.699   1.668   1.532 -0.6690 -0.1722  1.1677
  880SOL    HW3 3594   2.698   1.611   1.392 -1.8770  0.6860  0.8170
  880SOL    MW4 3595   2.693   1.600   1.478 -0.3808  0.0707  0.8295
  881SOL     OW 3596   2.698   1.855   1.582 -0.0547  0.2177 -0.6809
  881SOL    HW2 3597   2.694   1.877   1.675  0.7898 -1.2611 -0.2952
  881SOL    HW3 3598   2.626   1.906   1.543  0.0064  1.3641  0.6520
  881SOL    MW4 3599   2.688   1.865   1.589  0.0646  0.1738 -0.4541
  882SOL     OW 3600   2.873   2.034   1.448  0.5369 -0.0713  0.0085
  882SOL    HW2 3601   2.865   2.115   1.498 -1.0739  0.0068 -0.3500
  882SOL    HW3 3602   2.822   1.970   1.497  1.8083 -0.8826  0.2968
  882SOL    MW4 3603   2.865   2.036   1.461  0.4921 -0.1678 -0.0008
  883SOL     OW 3604   2.885   2.281   1.572  0.3041 -0.2551  0.3759
  883SOL    HW2 3605   2.908   2.295   1.664 -0.5902  1.7498  0.3156
  883SOL    HW3 3606   2.802   2.327   1.560 -0.0936 -1.3236 -1.2013
  883SOL    MW4 3607   2.877   2.288   1.582  0.1335 -0.1314  0.1600
  884SOL     OW 3608   2.646   2.385   1.483 -0.1593  0.0681 -0.2532
  884SOL    HW2 3609   2.625   2.467   1.527 -0.4177 -0.5617  0.8032
  884SOL    HW3 3610   2.575   2.326   1.506  0.6170 -0.8047 -0.0706
  884SOL    MW4 3611   2.634   2.388   1.492 -0.0911 -0.1304 -0.0898
  885SOL     OW 3612   2.650   2.654   1.577  0.7276  0.0473 -0.3342
  885SOL    HW2 3613   2.718   2.681   1.516 -0.1435  0.1815 -1.2613
  885SOL    HW3 3614   2.574   2.708   1.554  0.4745  0.3076  1.0608
  885SOL    MW4 3615   2.649   2.665   1.566  0.5791  0.0992 -0.2724
  886SOL     OW 3616   2.838   2.811   1.454 -0.4542  0.2433  0.2262
  886SOL    HW2 3617   2.917   2.770   1.489 -1.0187  0.2325  1.5238
  886SOL    HW3 3618   2.840   2.900   1.490 -0.5933  0.5188 -0.4402
  886SOL    MW4 3619   2.849   2.817   1.463 -0.5472  0.2782  0.3093
  887SOL     OW 3620   2.878   3.035   1.594 -0.2546 -0.2024 -0.2881
  887SOL    HW2 3621   2.868   3.053   1.688 -0.3372  0.3792 -0.4080
  887SOL    HW3 3622   2.953   3.088   1.567 -0.3792 -0.1841 -0.6023
  887SOL    MW4 3623   2.887   3.044   1.603 -0.2820 -0.1233 -0.3455
  888SOL     OW 3624   2.683   3.204   1.488  0.4257  0.1198 -0.1781
  888SOL    HW2 3625   2.747   3.142   1.524  1.6591  0.7473 -1.2441
  888SOL    HW3 3626   2.691   3.193   1.393 -0.4326  0.8387 -0.3322
  888SOL    MW4 3627   2.693   3.194   1.480  0.4752  0.2973 -0.3390
  889SOL     OW 3628   2.684   3.463   1.581 -0.0796 -0.1604  0.4008
  889SOL    HW2 3629   2.687   3.477   1.676  1.4746  0.3163  0.2853
  889SOL    HW3 3630   2.693   3.368   1.571  0.6765 -0.1187  0.6855
  889SOL    MW4 3631   2.685   3.452   1.593  0.2253 -0.0920  0.4232
  890SOL     OW 3632   2.917   3.595   1.492 -0.9310  0.0086  0.1158
  890SOL    HW2 3633   2.842   3.537   1.507 -0.7713 -0.7946 -2.0036
  890SOL    HW3 3634   2.919   3.607   1.397  2.3228 -0.9238  0.0008
  890SOL    MW4 3635   2.907   3.589   1.481 -0.4807 -0.2205 -0.1791
  891SOL     OW 3636   2.895   3.841   1.616 -0.4227  0.3431 -0.2908
  891SOL    HW2 3637   2.843   3.905   1.568 -0.4528  0.1178 -0.5594
  891SOL    HW3 3638   2.884   3.759   1.568 -0.6174  0.0680  0.2211
  891SOL    MW4 3639   2.887   3.839   1.603 -0.4520  0.2770 -0.2587
  892SOL     OW 3640   2.731   4.020   1.496 -0.0146 -0.1288 -0.4885
  892SOL    HW2 3641   2.726   4.111   1.528 -0.5377 -0.1226 -0.5902
  892SOL    HW3 3642   2.711   4.026   1.403  1.5711 -0.1430 -0.8478
  892SOL    MW4 3643   2.728   4.033   1.488  0.1256 -0.1302 -0.5493
  893SOL     OW 3644   2.695   4.281   1.588  0.1027 -0.1170  0.7059
  893SOL    HW2 3645   2.771   4.338   1.579  1.0860 -1.7150 -1.5740
  893SOL    HW3 3646   2.620   4.334   1.560  1.0213  0.0518 -1.4958
  893SOL    MW4 3647   2.695   4.295   1.583  0.3536 -0.3057  0.1146
  894SOL     OW 3648   2.933   4.402   1.530  0.8694 -0.0073 -0.0839
  894SOL    HW2 3649   2.947   4.487   1.572 -0.5649  0.5150 -0.6032
  894SOL    HW3 3650   2.904   4.424   1.441  2.0052 -1.0683 -0.7210
  894SOL    MW4 3651   2.931   4.416   1.524  0.8299 -0.0792 -0.2365
  895SOL     OW 3652   3.370   4.660   1.651  0.0900  0.0608  0.7890
  895SOL    HW2 3653   3.457   4.690   1.625  0.6660 -0.9542  1.4826
  895SOL    HW3 3654   3.364   4.571   1.616 -0.2763 -0.2304  1.5772
  895SOL    MW4 3655   3.381   4.652   1.643  0.1180 -0.1111  0.9845
  896SOL     OW 3656   3.145   0.111   1.515  0.0531 -0.2540 -0.3328
  896SOL    HW2 3657   3.210   0.060   1.563 -1.2149 -1.3870  0.1971
  896SOL    HW3 3658   3.061   0.068   1.534 -0.8898  1.3226 -0.8136
  896SOL    MW4 3659   3.142   0.099   1.524 -0.2387 -0.1955 -0.3263
  897SOL     OW 3660   3.201   0.367   1.588 -0.2591  0.1039 -0.9401
  897SOL    HW2 3661   3.180   0.275   1.572  0.7742 -0.0022 -1.7395
  897SOL    HW3 3662   3.126   0.415   1.553 -2.5205 -0.5604  2.7392
  897SOL    MW4 3663   3.189   0.361   1.581 -0.4210  0.0023 -0.5602
  898SOL     OW 3664   3.433   0.494   1.501 -0.1932  0.3616 -0.1465
  898SOL    HW2 3665   3.350   0.448   1.516 -0.1597  0.4034  0.1547
  898SOL    HW3 3666   3.434   0.510   1.406 -0.9331  1.1322 -0.0301
  898SOL    MW4 3667   3.422   0.490   1.490 -0.2866  0.4688 -0.0916
  899SOL     OW 3668   3.332   0.739   1.609 -0.4154 -0.2557  0.0207
  899SOL    HW2 3669   3.352   0.742   1.702 -0.8864 -1.8607  0.2004
  899SOL    HW3 3670   3.349   0.648   1.584  0.2533  0.2846 -1.5925
  899SOL    MW4 3671   3.337   0.727   1.618 -0.3893 -0.3963 -0.1684
  900SOL     OW 3672   3.140   0.894   1.497  0.0607 -0.3350 -0.2486
  900SOL    HW2 3673   3.211   0.835   1.523 -0.9061 -1.2584  0.3382
  900SOL    HW3 3674   3.060   0.846   1.519 -0.7501  0.5590 -1.2066
  900SOL    MW4 3675   3.139   0.880   1.504 -0.1740 -0.3389 -0.2978
  901SOL     OW 3676   3.193   1.153   1.554  0.1575  0.0057  0.1732
  901SOL    HW2 3677   3.183   1.142   1.648  0.0807 -2.7606 -0.1003
  901SOL    HW3 3678   3.193   1.063   1.519  2.4511  0.8690 -2.2342
  901SOL    MW4 3679   3.192   1.140   1.562  0.4499 -0.2453 -0.1805
  902SOL     OW 3680   3.398   1.326   1.468  0.7937  0.6856 -0.1009
  902SOL    HW2 3681   3.472   1.272   1.493 -0.2598 -2.0360 -2.6069
  902SOL    HW3 3682   3.321   1.277   1.497 -0.1759  1.0475 -1.9794
  902SOL    MW4 3683   3.397   1.312   1.476  0.5269  0.3742 -0.6795
  903SOL     OW 3684   3.377   1.581   1.604  0.6741  0.0568  0.0903
  903SOL    HW2 3685   3.366   1.560   1.696  1.2730  1.6369  0.5218
  903SOL    HW3 3686   3.389   1.495   1.562 -1.7937 -0.8483  1.1359
  903SOL    MW4 3687   3.377   1.567   1.610  0.4275  0.1459  0.2850
  904SOL     OW 3688   3.144   1.677   1.470  0.0400  0.6121 -0.3035
  904SOL    HW2 3689   3.224   1.639   1.506 -0.2663  0.5702  0.3344
  904SOL    HW3 3690   3.073   1.627   1.510 -0.2904  0.1403 -1.4455
  904SOL    MW4 3691   3.145   1.666   1.480 -0.0436  0.5444 -0.3700
  905SOL     OW 3692   3.112   1.944   1.580 -0.0575  0.0187  0.4282
  905SOL    HW2 3693   3.117   1.850   1.562  1.7994 -0.1050  1.4598
  905SOL    HW3 3694   3.036   1.974   1.530 -0.6407 -2.0178  0.0437
  905SOL    MW4 3695   3.103   1.936   1.571  0.1104 -0.2664  0.5134
  906SOL     OW 3696   3.376   2.057   1.482  0.3689 -0.5999  0.2859
  906SOL    HW2 3697   3.295   2.021   1.517  0.0367  1.0645  1.2671
  906SOL    HW3 3698   3.363   2.058   1.387 -0.7082 -0.4201  0.4362
  906SOL    MW4 3699   3.364   2.052   1.474  0.1831 -0.3567  0.4352
  907SOL     OW 3700   3.365   2.325   1.543  0.3284 -0.5124  0.3575
  907SOL    HW2 3701   3.443   2.367   1.506 -0.2825  0.6485  0.3354
  907SOL    HW3 3702   3.375   2.232   1.523  0.5147 -0.0398 -1.8454
  907SOL    MW4 3703   3.377   2.319   1.535  0.2723 -0.2968  0.0640
  908SOL     OW 3704   3.122   2.416   1.431  0.1406 -0.3678 -0.0649
  908SOL    HW2 3705   3.200   2.391   1.480  0.3435  1.3070  0.4962
  908SOL    HW3 3706   3.050   2.371   1.475  0.4410  0.3690  1.1929
  908SOL    MW4 3707   3.122   2.407   1.443  0.2072 -0.0496  0.1750
  909SOL     OW 3708   3.080   2.698   1.536 -0.6453  0.2747 -0.3787
  909SOL    HW2 3709   3.150   2.759   1.512 -1.1822  0.5517 -1.2571
  909SOL    HW3 3710   3.119   2.612   1.524 -0.5057  0.4286 -1.0403
  909SOL    MW4 3711   3.095   2.695   1.531 -0.6976  0.3316 -0.5819
  910SOL     OW 3712   3.298   2.846   1.478  0.4557 -0.0060  0.0051
  910SOL    HW2 3713   3.314   2.928   1.523 -1.9693  0.9599 -0.8304
  910SOL    HW3 3714   3.330   2.861   1.389  2.8642 -1.0552  0.6355
  910SOL    MW4 3715   3.304   2.859   1.472  0.4535 -0.0167 -0.0218
  911SOL     OW 3716   3.339   3.101   1.604 -0.1787  0.2369  0.5485
  911SOL    HW2 3717   3.344   3.097   1.700 -0.5368 -0.2070  0.5507
  911SOL    HW3 3718   3.422   3.140   1.578  1.0352 -2.0692  0.8902
  911SOL    MW4 3719   3.350   3.106   1.613 -0.0656 -0.1259  0.5940
  912SOL     OW 3720   3.081   3.186   1.507 -0.1028  0.2939 -0.0007
  912SOL    HW2 3721   3.166   3.160   1.541  0.1158  1.7785  0.6115
  912SOL    HW3 3722   3.069   3.277   1.536 -1.3663  0.4997 -1.0709
  912SOL    MW4 3723   3.091   3.195   1.515 -0.2403  0.5167 -0.0610
  913SOL     OW 3724   3.134   3.439   1.608 -0.1944 -0.2236 -0.6462
  913SOL    HW2 3725   3.133   3.457   1.702  0.4694  0.5683 -0.7833
  913SOL    HW3 3726   3.067   3.496   1.571 -0.2296 -0.2944 -0.6916
  913SOL    MW4 3727   3.125   3.449   1.615 -0.1116 -0.1285 -0.6702
  914SOL     OW 3728   3.364   3.581   1.529 -0.0173 -0.0023  0.4878
  914SOL    HW2 3729   3.431   3.519   1.558  1.2858  1.1894  0.0636
  914SOL    HW3 3730   3.281   3.541   1.555  0.7531 -2.3056 -0.5141
  914SOL    MW4 3731   3.362   3.568   1.536  0.2563 -0.1488  0.2997
  915SOL     OW 3732   3.399   3.863   1.568  0.1758  0.9098  0.4377
  915SOL    HW2 3733   3.307   3.884   1.552 -0.0895  0.6167  1.5163
  915SOL    HW3 3734   3.404   3.768   1.558  0.6692  1.0919 -1.0730
  915SOL    MW4 3735   3.387   3.853   1.565  0.2060  0.8953  0.3808
  916SOL     OW 3736   3.128   3.962   1.500  0.4073  0.2261  0.1643
  916SOL    HW2 3737   3.125   4.049   1.540  1.5755  0.6776 -0.7194
  916SOL    HW3 3738   3.054   3.915   1.540 -0.9615  1.9895 -0.2172
  916SOL    MW4 3739   3.118   3.967   1.511  0.3808  0.5186 -0.0026
  917SOL     OW 3740   3.131   4.226   1.631  0.3934 -0.2295 -0.3599
  917SOL    HW2 3741   3.140   4.247   1.724  1.6673 -0.4435 -0.4366
  917SOL    HW3 3742   3.069   4.291   1.598 -0.3163 -0.3540  0.7049
  917SOL    MW4 3743   3.124   4.238   1.639  0.4675 -0.2742 -0.2296
  918SOL     OW 3744   3.358   4.393   1.521  0.1048 -0.3048  0.0152
  918SOL    HW2 3745   3.283   4.341   1.549 -0.9695  1.9921  1.5879
  918SOL    HW3 3746   3.340   4.415   1.430 -1.7176  1.1388  0.6909
  918SOL    MW4 3747   3.346   4.389   1.513 -0.2773  0.1888  0.3119
  919SOL     OW 3748   3.820   4.651   1.657 -0.0002 -0.0260  0.2642
  919SOL    HW2 3749   3.824   4.669   1.751  0.8405  0.5853  0.1103
  919SOL    HW3 3750   3.895   4.696   1.620 -0.2035 -0.4479 -0.6817
  919SOL    MW4 3751   3.830   4.660   1.664  0.0839 -0.0014  0.1192
  920SOL     OW 3752   3.599   0.110   1.550  0.0660 -0.0415 -0.0216
  920SOL    HW2 3753   3.677   0.077   1.594 -0.2643 -1.3449 -0.3935
  920SOL    HW3 3754   3.620   0.106   1.457 -0.9396 -1.7696 -0.2082
  920SOL    MW4 3755   3.612   0.105   1.544 -0.1101 -0.4415 -0.0951
  921SOL     OW 3756   3.636   0.364   1.642  0.0539  0.3501 -0.4244
  921SOL    HW2 3757   3.613   0.273   1.627 -2.6804  0.6321  1.7135
  921SOL    HW3 3758   3.559   0.413   1.613  0.9247  1.8777 -0.1942
  921SOL    MW4 3759   3.623   0.359   1.636 -0.1919  0.5888 -0.1118
  922SOL     OW 3760   3.839   0.535   1.562 -0.0270  0.2478  0.0742
  922SOL    HW2 3761   3.785   0.481   1.621 -3.6194  2.7977 -0.6995
  922SOL    HW3 3762   3.815   0.505   1.475 -0.1094  1.3626 -0.2827
  922SOL    MW4 3763   3.829   0.524   1.559 -0.5121  0.7313 -0.0749
  923SOL     OW 3764   3.826   0.796   1.650 -0.4721  0.2179  0.3698
  923SOL    HW2 3765   3.748   0.832   1.609  0.4666  1.5268 -0.3381
  923SOL    HW3 3766   3.844   0.715   1.603 -0.5522  0.6880 -0.4898
  923SOL    MW4 3767   3.818   0.790   1.639 -0.3588  0.4526  0.1631
  924SOL     OW 3768   3.605   0.912   1.525  0.2757  0.0066  0.5396
  924SOL    HW2 3769   3.517   0.876   1.538  1.0771 -2.0501  0.4968
  924SOL    HW3 3770   3.612   0.924   1.430 -0.1074  0.5939  0.5818
  924SOL    MW4 3771   3.594   0.909   1.514  0.3309 -0.1873  0.5395
  925SOL     OW 3772   3.611   1.184   1.600 -0.3179 -0.2286  0.1952
  925SOL    HW2 3773   3.684   1.241   1.576 -0.2377 -0.3497  0.1561
  925SOL    HW3 3774   3.640   1.096   1.576 -0.1126 -0.3885  1.0316
  925SOL    MW4 3775   3.624   1.180   1.594 -0.2804 -0.2656  0.3003
  926SOL     OW 3776   3.819   1.341   1.527  0.2236  0.0983  0.5022
  926SOL    HW2 3777   3.892   1.297   1.569  0.4923 -0.1259 -0.1832
  926SOL    HW3 3778   3.823   1.431   1.559  0.9415  0.1442  0.2860
  926SOL    MW4 3779   3.829   1.347   1.536  0.3538  0.0749  0.3831
  927SOL     OW 3780   3.832   1.598   1.602 -0.5827 -0.0039  0.1815
  927SOL    HW2 3781   3.828   1.617   1.696 -2.0783 -1.0844  0.3455
  927SOL    HW3 3782   3.753   1.638   1.566  0.5008  1.3132 -0.8060
  927SOL    MW4 3783   3.821   1.606   1.610 -0.6371  0.0273  0.0728
  928SOL     OW 3784   3.617   1.701   1.484 -0.0701  0.5519 -0.5788
  928SOL    HW2 3785   3.539   1.660   1.521  0.4732  0.7164  0.7779
  928SOL    HW3 3786   3.595   1.715   1.391 -0.1977 -2.9041 -1.1420
  928SOL    MW4 3787   3.604   1.698   1.476 -0.0155  0.1177 -0.4741
  929SOL     OW 3788   3.645   1.954   1.585 -0.0324  0.1624  0.1058
  929SOL    HW2 3789   3.630   1.861   1.566 -0.5155 -0.1184  1.7167
  929SOL    HW3 3790   3.563   1.997   1.560 -0.3782 -0.0880  0.7784
  929SOL    MW4 3791   3.632   1.947   1.579 -0.1419  0.0924  0.4072
  930SOL     OW 3792   3.893   2.055   1.499 -0.4589  0.1676 -0.2660
  930SOL    HW2 3793   3.881   2.142   1.536  1.6788 -0.3403  1.7298
  930SOL    HW3 3794   3.815   2.006   1.525 -0.1503  0.5582  1.4327
  930SOL    MW4 3795   3.881   2.060   1.507 -0.1364  0.1519  0.2214
  931SOL     OW 3796   3.805   2.324   1.561 -0.0516 -0.3449 -0.3634
  931SOL    HW2 3797   3.796   2.323   1.656  1.0926  1.1596 -0.2149
  931SOL    HW3 3798   3.883   2.378   1.545  0.5655 -1.7066 -2.0998
  931SOL    MW4 3799   3.814   2.331   1.571  0.1810 -0.3264 -0.5730
  932SOL     OW 3800   3.576   2.446   1.435 -0.2829  1.0475  0.4290
  932SOL    HW2 3801   3.579   2.538   1.462  1.3387  0.9666  0.6082
  932SOL    HW3 3802   3.643   2.403   1.488 -1.3376 -0.3386  0.6714
  932SOL    MW4 3803   3.585   2.453   1.445 -0.2079  0.8538  0.4846
  933SOL     OW 3804   3.566   2.718   1.523 -0.3200  0.2436 -0.3695
  933SOL    HW2 3805   3.560   2.706   1.617 -0.5642  0.9148 -0.2969
  933SOL    HW3 3806   3.479   2.749   1.497  0.7502  3.5275 -0.2925
  933SOL    MW4 3807   3.554   2.721   1.532 -0.2110  0.7656 -0.3499
  934SOL     OW 3808   3.806   2.876   1.496 -0.0631  0.4480  0.3324
  934SOL    HW2 3809   3.881   2.827   1.527  0.3320  0.0285 -1.2658
  934SOL    HW3 3810   3.732   2.816   1.506 -0.0742  0.5943  1.1829
  934SOL    MW4 3811   3.806   2.862   1.501 -0.0124  0.4120  0.2337
  935SOL     OW 3812   3.809   3.104   1.644  0.2658 -0.0185  0.0219
  935SOL    HW2 3813   3.876   3.155   1.599  1.8094 -0.6158  1.5786
  935SOL    HW3 3814   3.806   3.021   1.597  0.8187 -0.0868  0.1021
  935SOL    MW4 3815   3.817   3.099   1.632  0.5426 -0.1066  0.2379
  936SOL     OW 3816   3.595   3.234   1.545  0.3063 -0.0750  0.0141
  936SOL    HW2 3817   3.663   3.180   1.585 -0.1099  0.3897  1.4043
  936SOL    HW3 3818   3.619   3.241   1.453  1.5475 -0.8052  0.2817
  936SOL    MW4 3819   3.607   3.228   1.538  0.4151 -0.1099  0.2329
  937SOL     OW 3820   3.584   3.482   1.657  0.2372 -0.0314 -0.0419
  937SOL    HW2 3821   3.603   3.481   1.751 -1.0358 -0.0984  0.2181
  937SOL    HW3 3822   3.568   3.390   1.635 -3.0616  0.3542  0.4442
  937SOL    MW4 3823   3.584   3.469   1.666 -0.3660  0.0107  0.0566
  938SOL     OW 3824   3.810   3.596   1.555 -0.0324 -0.5489 -0.7079
  938SOL    HW2 3825   3.726   3.560   1.587  0.1390 -0.9606 -0.7130
  938SOL    HW3 3826   3.805   3.689   1.574 -0.8376 -0.4321 -1.4562
  938SOL    MW4 3827   3.798   3.603   1.562 -0.1163 -0.5882 -0.8073
  939SOL     OW 3828   3.832   3.883   1.612 -0.0546 -0.1204  0.1029
  939SOL    HW2 3829   3.906   3.943   1.607  1.5851 -2.2769 -3.1819
  939SOL    HW3 3830   3.761   3.929   1.567  0.1222  0.7749  0.7251
  939SOL    MW4 3831   3.832   3.897   1.606  0.1850 -0.2868 -0.2483
  940SOL     OW 3832   3.618   4.015   1.475  0.3063  0.0013 -0.1355
  940SOL    HW2 3833   3.621   4.092   1.531  0.3291  0.2481 -0.4750
  940SOL    HW3 3834   3.537   3.971   1.499  0.4571 -0.0435  0.2898
  940SOL    MW4 3835   3.608   4.019   1.485  0.3290  0.0281 -0.1241
  941SOL     OW 3836   3.577   4.256   1.628  0.0535  0.2640  0.0120
  941SOL    HW2 3837   3.558   4.244   1.721 -3.4474 -1.6868 -0.8853
  941SOL    HW3 3838   3.510   4.318   1.598 -0.3293 -0.9364 -1.6902
  941SOL    MW4 3839   3.565   4.263   1.636 -0.4587 -0.1521 -0.3309
  942SOL     OW 3840   3.785   4.402   1.514 -0.2024 -0.8144 -0.3652
  942SOL    HW2 3841   3.722   4.355   1.569 -0.8255 -0.7932 -1.0474
  942SOL    HW3 3842   3.786   4.491   1.550  0.8283 -1.2923  0.8020
  942SOL    MW4 3843   3.776   4.408   1.526 -0.1483 -0.8745 -0.3014
  943SOL     OW 3844   4.280   0.039   1.632  0.8982 -0.4883 -0.4497
  943SOL    HW2 3845   4.275   0.028   1.727 -1.4625 -2.1740 -0.7151
  943SOL    HW3 3846   4.291  -0.049   1.598 -1.2023 -0.2489 -1.8494
  943SOL    MW4 3847   4.281   0.026   1.640  0.3095 -0.6791 -0.6695
  944SOL     OW 3848   4.047   0.135   1.547  0.4528  0.7750  0.4980
  944SOL    HW2 3849   4.041   0.229   1.567  0.7785  0.8470  0.2588
  944SOL    HW3 3850   4.132   0.109   1.582 -0.2920  0.2298  1.9460
  944SOL    MW4 3851   4.057   0.144   1.554  0.3977  0.7126  0.6574
  945SOL     OW 3852   4.072   0.400   1.626  0.2817  0.1442 -0.3457
  945SOL    HW2 3853   4.068   0.401   1.722  0.9936 -0.0558 -0.3067
  945SOL    HW3 3854   3.995   0.449   1.598 -0.6522 -0.9186  0.3040
  945SOL    MW4 3855   4.061   0.407   1.635  0.2522 -0.0224 -0.2549
  946SOL     OW 3856   4.267   0.541   1.507 -0.2382 -0.3727 -0.1256
  946SOL    HW2 3857   4.191   0.491   1.537  0.3473 -0.0321  2.0365
  946SOL    HW3 3858   4.339   0.511   1.563  0.4579  1.7305  0.1508
  946SOL    MW4 3859   4.267   0.531   1.518 -0.0691 -0.0502  0.1961
  947SOL     OW 3860   4.265   0.788   1.632  0.2259 -0.0086 -0.0352
  947SOL    HW2 3861   4.243   0.700   1.600  1.8510 -1.1387  1.8184
  947SOL    HW3 3862   4.350   0.807   1.592  0.3812  0.2391  0.4047
  947SOL    MW4 3863   4.273   0.779   1.623  0.4611 -0.1251  0.2675
  948SOL     OW 3864   4.050   0.919   1.557 -0.1104  0.2576 -0.1711
  948SOL    HW2 3865   4.132   0.877   1.586 -0.8350 -0.0462  1.4903
  948SOL    HW3 3866   3.981   0.868   1.600 -1.1183  1.4619 -0.3476
  948SOL    MW4 3867   4.052   0.907   1.566 -0.3386  0.3764  0.0249
  949SOL     OW 3868   4.038   1.196   1.630  0.6402 -0.1514 -0.5322
  949SOL    HW2 3869   4.050   1.201   1.725 -0.5928 -1.0716 -0.3043
  949SOL    HW3 3870   4.029   1.103   1.613 -1.1097  0.1437 -1.2832
  949SOL    MW4 3871   4.038   1.185   1.641  0.2470 -0.2340 -0.6011
  950SOL     OW 3872   4.271   1.287   1.497 -0.1538 -0.2397 -0.3929
  950SOL    HW2 3873   4.197   1.268   1.555 -0.2498 -2.2041 -1.1116
  950SOL    HW3 3874   4.345   1.242   1.538  0.9597  2.7079  0.9700
  950SOL    MW4 3875   4.271   1.278   1.510 -0.0191 -0.1099 -0.3077
  951SOL     OW 3876   4.254   1.516   1.631  0.0398 -0.0721  0.2910
  951SOL    HW2 3877   4.273   1.436   1.583  1.8150  0.0431  0.7698
  951SOL    HW3 3878   4.327   1.575   1.610 -0.5511  0.9349  1.0032
  951SOL    MW4 3879   4.266   1.513   1.622  0.1960  0.0759  0.4482
  952SOL     OW 3880   4.087   1.658   1.475  0.3220 -0.3676 -0.1050
  952SOL    HW2 3881   4.139   1.607   1.537 -0.7013 -0.2460  0.8647
  952SOL    HW3 3882   3.996   1.644   1.502 -0.0702  0.5844 -0.8924
  952SOL    MW4 3883   4.082   1.650   1.487  0.1354 -0.2260 -0.0809
  953SOL     OW 3884   4.116   1.906   1.577 -0.8335  0.3489  0.2220
  953SOL    HW2 3885   4.119   1.821   1.533 -1.4264  0.3784  0.1251
  953SOL    HW3 3886   4.041   1.951   1.538 -1.2830  0.4241  1.1653
  953SOL    MW4 3887   4.107   1.901   1.566 -0.9718  0.3628  0.3338
  954SOL     OW 3888   4.319   2.094   1.498  0.0184 -0.3228  0.2432
  954SOL    HW2 3889   4.253   2.031   1.525  0.5817 -1.1289 -0.2338
  954SOL    HW3 3890   4.313   2.095   1.402 -0.1421  0.5227  0.2534
  954SOL    MW4 3891   4.310   2.086   1.489  0.0710 -0.3176  0.1816
  955SOL     OW 3892   4.251   2.355   1.588 -0.0201 -0.7237  0.2624
  955SOL    HW2 3893   4.266   2.365   1.682 -2.6360 -1.1197  0.7432
  955SOL    HW3 3894   4.278   2.266   1.568 -0.1669 -0.8854  0.7883
  955SOL    MW4 3895   4.257   2.345   1.598 -0.3848 -0.7970  0.3951
  956SOL     OW 3896   4.027   2.463   1.472  0.0623 -0.0159  0.5211
  956SOL    HW2 3897   4.024   2.551   1.512  1.7149  0.0348  0.5341
  956SOL    HW3 3898   4.105   2.423   1.508  0.4513 -0.7395 -1.0913
  956SOL    MW4 3899   4.037   2.470   1.482  0.3319 -0.1047  0.3101
  957SOL     OW 3900   4.016   2.721   1.583  0.0536  0.2942  0.1846
  957SOL    HW2 3901   4.024   2.686   1.672  0.3285  1.2975  0.5695
  957SOL    HW3 3902   4.104   2.752   1.562 -0.1570  0.6424 -0.1889
  957SOL    MW4 3903   4.029   2.720   1.592  0.0620  0.4728  0.1862
  958SOL     OW 3904   4.246   2.838   1.496  0.5212 -0.1168 -0.0191
  958SOL    HW2 3905   4.258   2.917   1.548  0.3926 -0.8109  1.0820
  958SOL    HW3 3906   4.281   2.860   1.410  1.2679  0.8539  0.5285
  958SOL    MW4 3907   4.252   2.851   1.492  0.6032 -0.0803  0.1985
  959SOL     OW 3908   4.281   3.108   1.625 -0.0045 -0.4075  0.1700
  959SOL    HW2 3909   4.272   3.104   1.720 -0.8180  0.0214  0.1123
  959SOL    HW3 3910   4.363   3.155   1.610  0.2046 -0.6146  0.6574
  959SOL    MW4 3911   4.290   3.114   1.636 -0.0844 -0.3784  0.2266
  960SOL     OW 3912   4.034   3.220   1.518 -0.1440  0.2431  0.3147
  960SOL    HW2 3913   4.045   3.307   1.556  1.0202  1.0719 -1.8166
  960SOL    HW3 3914   4.111   3.171   1.547 -0.1165  0.3411  0.4083
  960SOL    MW4 3915   4.046   3.225   1.527  0.0134  0.3653  0.0460
  961SOL     OW 3916   4.052   3.492   1.608 -0.3081  0.0003  0.4508
  961SOL    HW2 3917   4.058   3.464   1.699  0.9044 -0.6322  0.1794
  961SOL    HW3 3918   3.969   3.540   1.604 -0.6235 -0.4037  1.7619
  961SOL    MW4 3919   4.041   3.495   1.620 -0.1893 -0.1364  0.5879
  962SOL     OW 3920   4.255   3.640   1.504  0.1789  0.1712  0.0620
  962SOL    HW2 3921   4.249   3.717   1.560 -0.8938  0.0681  0.0941
  962SOL    HW3 3922   4.183   3.583   1.533  0.9819 -0.8614  0.0704
  962SOL    MW4 3923   4.245   3.643   1.515  0.1431  0.0212  0.0674
  963SOL     OW 3924   4.289   3.870   1.640 -0.2427  0.2046 -0.0731
  963SOL    HW2 3925   4.223   3.925   1.596 -0.4068  1.1956  1.3847
  963SOL    HW3 3926   4.372   3.912   1.619 -0.3282  0.7268  0.6220
  963SOL    MW4 3927   4.291   3.883   1.631 -0.2756  0.4041  0.2110
  964SOL     OW 3928   4.081   4.032   1.514  0.7377  0.1339  0.2123
  964SOL    HW2 3929   4.065   4.125   1.531  0.4065  0.0696  0.2409
  964SOL    HW3 3930   4.103   4.028   1.421 -1.2315 -0.0306 -0.2485
  964SOL    MW4 3931   4.082   4.044   1.504  0.4344  0.1044  0.1554
  965SOL     OW 3932   4.040   4.300   1.597 -0.1639 -0.1759 -0.2238
  965SOL    HW2 3933   4.028   4.283   1.691  3.0162  2.5101  0.7883
  965SOL    HW3 3934   3.954   4.333   1.568 -0.4929  1.5116  2.4074
  965SOL    MW4 3935   4.027   4.302   1.606  0.2127  0.4005  0.2568
  966SOL     OW 3936   4.261   4.434   1.523  0.4599 -0.0601  0.2829
  966SOL    HW2 3937   4.178   4.392   1.546 -0.0800  0.9953  0.2806
  966SOL    HW3 3938   4.268   4.422   1.428  0.9997 -1.3644  0.4724
  966SOL    MW4 3939   4.251   4.427   1.513  0.4597 -0.0930  0.3076
  967SOL     OW 3940   0.212   4.639   1.887 -0.6598  0.1750  0.5563
  967SOL    HW2 3941   0.288   4.689   1.916 -0.6953 -0.7130  2.2173
  967SOL    HW3 3942   0.207   4.655   1.793  1.7484  0.0327  0.3810
  967SOL    MW4 3943   0.221   4.647   1.878 -0.3467  0.0386  0.7522
  968SOL     OW 3944   0.035   0.133   2.029  0.2615 -0.4822 -0.0055
  968SOL    HW2 3945   0.041   0.214   1.979  0.5192 -0.4768  0.0303
  968SOL    HW3 3946   0.101   0.075   1.989 -0.1455 -0.7888 -0.2391
  968SOL    MW4 3947   0.045   0.136   2.017  0.2418 -0.5219 -0.0317
  969SOL     OW 3948   0.049   0.394   1.910  0.1075 -0.3617 -0.3805
  969SOL    HW2 3949  -0.024   0.426   1.963  1.0528 -0.4092  0.9777
  969SOL    HW3 3950   0.127   0.422   1.957  0.9676 -3.0915 -0.0569
  969SOL    MW4 3951   0.050   0.402   1.923  0.3457 -0.7281 -0.1587
  970SOL     OW 3952   0.268   0.525   2.030  0.2578 -0.3668  0.2490
  970SOL    HW2 3953   0.318   0.484   1.960  1.3713 -0.9726  1.3917
  970SOL    HW3 3954   0.259   0.617   2.003  0.0674 -0.7559 -1.0215
  970SOL    MW4 3955   0.273   0.532   2.018  0.3796 -0.4981  0.2322
  971SOL     OW 3956   0.216   0.784   1.912  0.1768  0.3675 -0.3195
  971SOL    HW2 3957   0.290   0.834   1.945  1.2754 -1.2264 -0.3144
  971SOL    HW3 3958   0.217   0.797   1.817 -0.0284  1.0020 -0.2340
  971SOL    MW4 3959   0.226   0.792   1.904  0.2947  0.2410 -0.3074
  972SOL     OW 3960   0.000   0.891   2.068 -0.2291 -0.0487  0.1317
  972SOL    HW2 3961  -0.078   0.862   2.022  0.8486  2.0110 -3.2276
  972SOL    HW3 3962   0.073   0.856   2.016  1.0510  0.2798  1.6719
  972SOL    MW4 3963  -0.001   0.883   2.055  0.0819  0.2664 -0.1085
  973SOL     OW 3964   4.471   1.129   1.906 -0.4683 -0.4463 -0.3255
  973SOL    HW2 3965   4.400   1.185   1.938 -0.1920  0.3908 -1.1380
  973SOL    HW3 3966   4.487   1.067   1.977 -0.2331  1.0419  0.9502
  973SOL    MW4 3967   4.464   1.129   1.920 -0.4005 -0.1396 -0.2644
  974SOL     OW 3968   0.192   1.280   1.955  0.0238  0.0271 -0.0144
  974SOL    HW2 3969   0.188   1.374   1.934 -0.3340  0.0877  0.3131
  974SOL    HW3 3970   0.106   1.247   1.931  0.5293 -0.4464 -1.1852
  974SOL    MW4 3971   0.180   1.288   1.949  0.0433 -0.0274 -0.1256
  975SOL     OW 3972   0.196   1.550   1.905 -0.0010  0.4143 -0.0471
  975SOL    HW2 3973   0.281   1.580   1.939 -0.0195  0.0788  0.2987
  975SOL    HW3 3974   0.131   1.597   1.957 -0.0306  1.5141 -1.0655
  975SOL    MW4 3975   0.199   1.560   1.916 -0.0073  0.5150 -0.1359
  976SOL     OW 3976   4.447   1.691   2.002 -0.1997 -0.5327  0.3511
  976SOL    HW2 3977   4.448   1.690   2.097 -0.3365 -2.7575  0.3606
  976SOL    HW3 3978   4.361   1.656   1.978  0.1760 -0.8346 -0.5936
  976SOL    MW4 3979   4.436   1.686   2.011 -0.1678 -0.8661  0.2277
  977SOL     OW 3980   4.474   1.938   1.869  0.4003  0.3180 -0.0383
  977SOL    HW2 3981   4.403   1.993   1.900 -0.9832 -0.8958 -0.9944
  977SOL    HW3 3982   4.475   1.863   1.928 -0.6300 -0.7776 -1.3599
  977SOL    MW4 3983   4.465   1.936   1.881  0.0820  0.0132 -0.3389
  978SOL     OW 3984   0.245   2.043   1.935  0.1359  0.1649  0.2601
  978SOL    HW2 3985   0.244   2.135   1.909 -0.3964  0.4349  1.2145
  978SOL    HW3 3986   0.162   2.008   1.903 -0.2609  0.3556  1.0538
  978SOL    MW4 3987   0.233   2.051   1.928  0.0133  0.2258  0.4908
  979SOL     OW 3988   0.244   2.322   1.872 -0.1807 -0.0777  0.2450
  979SOL    HW2 3989   0.319   2.372   1.905  0.4615  0.2470 -1.6619
  979SOL    HW3 3990   0.171   2.349   1.927  0.7195  0.9440  0.9556
  979SOL    MW4 3991   0.244   2.332   1.884  0.0228  0.0999  0.0873
  980SOL     OW 3992   0.013   2.443   1.978 -0.2023  0.4051  0.1179
  980SOL    HW2 3993   0.005   2.461   2.071  1.2141  0.5687  0.2181
  980SOL    HW3 3994   0.015   2.530   1.937  0.4873  0.3626  0.0564
  980SOL    MW4 3995   0.012   2.457   1.985  0.0755  0.4208  0.1229
  981SOL     OW 3996   4.487   2.691   1.874  0.3708 -0.1170  0.1780
  981SOL    HW2 3997   4.415   2.744   1.908  1.6618  2.3823 -0.8457
  981SOL    HW3 3998   4.485   2.704   1.779  3.1905  1.4347  0.2649
  981SOL    MW4 3999   4.477   2.700   1.866  0.9131  0.4175  0.0544
  982SOL     OW 4000   0.189   2.855   2.023  0.0121  0.1863  0.3375
  982SOL    HW2 4001   0.196   2.938   1.977  0.8895  0.4538  0.9398
  982SOL    HW3 4002   0.132   2.801   1.968  0.0720  0.9181 -0.4413
  982SOL    MW4 4003   0.183   2.859   2.010  0.1358  0.3181  0.3145
  983SOL     OW 4004   0.210   3.121   1.891  0.2598  0.3597 -0.0876
  983SOL    HW2 4005   0.297   3.146   1.924  0.7035  0.1237 -1.0582
  983SOL    HW3 4006   0.219   3.123   1.796 -0.5470 -0.5566 -0.1938
  983SOL    MW4 4007   0.223   3.124   1.883  0.2118  0.2074 -0.2297
  984SOL     OW 4008   4.479   3.266   1.986  0.0259 -0.0806  0.2619
  984SOL    HW2 4009   4.399   3.224   1.954  0.0837 -0.9973  1.2740
  984SOL    HW3 4010   4.549   3.221   1.939  0.0805 -1.0575  1.2522
  984SOL    MW4 4011   4.478   3.255   1.976  0.0405 -0.3304  0.5261
  985SOL     OW 4012   0.018   3.533   1.877  0.0915  0.1124  0.2129
  985SOL    HW2 4013   0.087   3.573   1.930  0.4755 -0.7630  0.3785
  985SOL    HW3 4014   0.016   3.442   1.904  0.8680 -0.5542 -1.8381
  985SOL    MW4 4015   0.027   3.526   1.887  0.2446 -0.0911 -0.0359
  986SOL     OW 4016   0.258   3.649   1.993  0.2048  0.1133  0.1747
  986SOL    HW2 4017   0.266   3.682   2.083  0.3441  1.1491 -0.2133
  986SOL    HW3 4018   0.330   3.586   1.984  0.3170  0.1613  0.7209
  986SOL    MW4 4019   0.268   3.645   2.004  0.2380  0.2565  0.1955
  987SOL     OW 4020   0.259   3.909   1.886  0.5188 -0.3397 -0.4079
  987SOL    HW2 4021   0.330   3.952   1.933  0.5660 -0.9593  0.0963
  987SOL    HW3 4022   0.260   3.819   1.919  0.2173 -0.6406 -1.2131
  987SOL    MW4 4023   0.269   3.903   1.896  0.4852 -0.4613 -0.4475
  988SOL     OW 4024   0.005   3.989   1.997 -0.4947  0.0506 -0.1459
  988SOL    HW2 4025  -0.014   4.076   1.963  0.1312  0.1939 -0.1390
  988SOL    HW3 4026   0.088   3.965   1.956 -0.3186 -0.2561  0.3795
  988SOL    MW4 4027   0.013   3.997   1.987 -0.3891  0.0296 -0.0757
  989SOL     OW 4028   4.432   4.238   1.920  0.3812  0.4230 -0.2436
  989SOL    HW2 4029   4.352   4.290   1.925 -0.0605 -0.1851 -0.9271
  989SOL    HW3 4030   4.501   4.296   1.953 -0.2807  1.0647  0.0136
  989SOL    MW4 4031   4.431   4.252   1.925  0.2356  0.4277 -0.2998
  990SOL     OW 4032   0.166   4.382   1.985 -0.2572 -0.5959 -0.4861
  990SOL    HW2 4033   0.212   4.377   2.068 -0.2715  0.3229 -0.4171
  990SOL    HW3 4034   0.184   4.470   1.953 -0.3809 -0.8902 -1.3800
  990SOL    MW4 4035   0.174   4.393   1.991 -0.2754 -0.5131 -0.5950
  991SOL     OW 4036   0.650   0.007   1.892 -0.0967  0.1444  0.3811
  991SOL    HW2 4037   0.659  -0.082   1.926  1.5054 -0.1035 -0.6670
  991SOL    HW3 4038   0.651  -0.003   1.796 -0.4033  1.2447  0.2496
  991SOL    MW4 4039   0.651  -0.006   1.884  0.0743  0.2569  0.2255
  992SOL     OW 4040   0.426   0.123   1.979 -0.1075  0.0342 -0.7967
  992SOL    HW2 4041   0.422   0.211   1.941 -1.2029  0.4014  0.1259
  992SOL    HW3 4042   0.501   0.082   1.937  1.2849  1.9028 -0.1816
  992SOL    MW4 4043   0.435   0.129   1.969 -0.0682  0.3292 -0.5939
  993SOL     OW 4044   0.431   0.389   1.861 -0.0156 -0.2333 -0.6249
  993SOL    HW2 4045   0.516   0.424   1.888  0.5648 -0.2948 -2.3251
  993SOL    HW3 4046   0.436   0.384   1.765 -1.7571 -0.6908 -0.7129
  993SOL    MW4 4047   0.442   0.393   1.852 -0.1688 -0.3017 -0.8609
  994SOL     OW 4048   0.650   0.511   1.955  0.1236  0.1382 -0.1098
  994SOL    HW2 4049   0.639   0.501   2.050  0.9448  1.3302  0.1177
  994SOL    HW3 4050   0.740   0.483   1.938  0.5312  1.4974 -0.2828
  994SOL    MW4 4051   0.661   0.506   1.966  0.2857  0.4748 -0.1026
  995SOL     OW 4052   0.680   0.769   1.885 -0.5998  0.4303 -0.0150
  995SOL    HW2 4053   0.755   0.818   1.918 -1.7765  1.0780  1.7905
  995SOL    HW3 4054   0.681   0.688   1.936 -1.1926  0.5141  0.1330
  995SOL    MW4 4055   0.690   0.765   1.896 -0.8333  0.5268  0.2427
  996SOL     OW 4056   0.452   0.896   1.973 -0.5261  0.0521 -0.0855
  996SOL    HW2 4057   0.473   0.985   1.944  1.0302  0.6391  2.6498
  996SOL    HW3 4058   0.525   0.842   1.941 -1.2413 -0.1825 -1.3522
  996SOL    MW4 4059   0.464   0.901   1.965 -0.4151  0.0985  0.1082
  997SOL     OW 4060   0.455   1.153   1.880  0.5993  0.6047 -0.0211
  997SOL    HW2 4061   0.375   1.198   1.907 -0.1935 -2.2658  2.7352
  997SOL    HW3 4062   0.459   1.165   1.785 -3.3459  0.4368 -0.2788
  997SOL    MW4 4063   0.445   1.161   1.871 -0.0258  0.2037  0.3085
  998SOL     OW 4064   0.669   1.321   1.999 -0.2563  0.3479 -0.1901
  998SOL    HW2 4065   0.656   1.321   2.094  0.1073  0.6209 -0.1422
  998SOL    HW3 4066   0.594   1.271   1.966  0.0147 -0.3929  0.2964
  998SOL    MW4 4067   0.657   1.314   2.007 -0.1726  0.2862 -0.1194
  999SOL     OW 4068   0.671   1.573   1.889  0.5597 -0.0221  0.5899
  999SOL    HW2 4069   0.671   1.484   1.925  0.0418  0.0999  0.9024
  999SOL    HW3 4070   0.669   1.560   1.794  0.5627 -0.3439  0.6307
  999SOL    MW4 4071   0.671   1.559   1.881  0.4917 -0.0484  0.6363
 1000SOL     OW 4072   0.428   1.681   1.982 -0.0838  0.0278  0.3989
 1000SOL    HW2 4073   0.443   1.702   2.074  0.5732 -0.0502  0.3153
 1000SOL    HW3 4074   0.501   1.624   1.958  0.3836  0.9688 -0.4648
 1000SOL    MW4 4075   0.440   1.677   1.991  0.0646  0.1416  0.2737
 1001SOL     OW 4076   0.468   1.919   1.864  0.2466  0.5554 -0.5828
 1001SOL    HW2 4077   0.459   1.828   1.892 -1.1566  0.0380 -2.6446
 1001SOL    HW3 4078   0.385   1.960   1.888 -0.5858  0.3484 -3.0000
 1001SOL    MW4 4079   0.456   1.912   1.871 -0.0483  0.4598 -1.1737
 1002SOL     OW 4080   0.673   2.065   1.983 -0.1967 -0.3563 -0.8910
 1002SOL    HW2 4081   0.668   2.071   2.078  0.6108 -1.2328 -0.7878
 1002SOL    HW3 4082   0.597   2.011   1.959 -0.3606 -0.1927 -0.7503
 1002SOL    MW4 4083   0.662   2.059   1.992 -0.1118 -0.4504 -0.8588
 1003SOL     OW 4084   0.675   2.326   1.889 -0.4424 -0.1309 -0.0410
 1003SOL    HW2 4085   0.677   2.232   1.905 -0.6265 -0.5030 -2.0440
 1003SOL    HW3 4086   0.673   2.334   1.794 -1.9567  1.8797  0.1195
 1003SOL    MW4 4087   0.675   2.315   1.879 -0.6664  0.0856 -0.2841
 1004SOL     OW 4088   0.442   2.464   1.997 -0.5321 -0.1305 -0.6738
 1004SOL    HW2 4089   0.452   2.489   2.089  0.0103  2.0903 -1.3006
 1004SOL    HW3 4090   0.519   2.411   1.978  0.0545  0.5356 -0.1915
 1004SOL    MW4 4091   0.454   2.460   2.006 -0.3831  0.2503 -0.6928
 1005SOL     OW 4092   0.422   2.742   1.904  0.7292  0.4288 -0.0944
 1005SOL    HW2 4093   0.432   2.651   1.934  0.3904 -0.1785 -1.7867
 1005SOL    HW3 4094   0.336   2.769   1.937  0.3799 -0.2069 -0.4881
 1005SOL    MW4 4095   0.412   2.733   1.913  0.6384  0.2649 -0.3694
 1006SOL     OW 4096   0.696   2.844   1.938 -0.0483  0.1742  0.1851
 1006SOL    HW2 4097   0.695   2.840   2.033  1.4538  0.0795  0.2088
 1006SOL    HW3 4098   0.612   2.806   1.911  0.4767 -1.9052  1.3904
 1006SOL    MW4 4099   0.685   2.838   1.947  0.2192 -0.1128  0.3474
 1007SOL     OW 4100   0.629   3.088   1.854  0.0438  0.2475 -0.3177
 1007SOL    HW2 4101   0.670   3.008   1.887 -0.0769  0.2852 -0.0759
 1007SOL    HW3 4102   0.645   3.086   1.760  0.1386 -0.0048 -0.2963
 1007SOL    MW4 4103   0.637   3.077   1.846  0.0404  0.2191 -0.2830
 1008SOL     OW 4104   0.439   3.217   2.013 -0.4464  0.1294  0.3091
 1008SOL    HW2 4105   0.443   3.309   1.985  0.6531 -0.4412 -1.4723
 1008SOL    HW3 4106   0.504   3.172   1.959 -1.2078 -1.7728  0.9218
 1008SOL    MW4 4107   0.448   3.223   2.003 -0.4018 -0.1969  0.1547
 1009SOL     OW 4108   0.468   3.468   1.918 -0.4597 -0.1679 -0.0093
 1009SOL    HW2 4109   0.529   3.534   1.950 -0.3767 -0.4427  0.4117
 1009SOL    HW3 4110   0.470   3.477   1.823 -0.2152  0.2246  0.0312
 1009SOL    MW4 4111   0.476   3.478   1.910 -0.4165 -0.1523  0.0516
 1010SOL     OW 4112   0.662   3.660   1.998 -0.1957 -0.1075  0.3777
 1010SOL    HW2 4113   0.739   3.613   1.965 -0.4234 -0.9627  1.0372
 1010SOL    HW3 4114   0.661   3.742   1.949  0.4412 -0.6162 -0.5053
 1010SOL    MW4 4115   0.672   3.665   1.988 -0.1417 -0.2875  0.3481
 1011SOL     OW 4116   0.663   3.919   1.866  0.0201  0.4225 -0.1874
 1011SOL    HW2 4117   0.753   3.948   1.881 -0.2025  1.2263 -0.3767
 1011SOL    HW3 4118   0.660   3.896   1.773  0.1241  0.0592 -0.1004
 1011SOL    MW4 4119   0.674   3.920   1.856  0.0044  0.4807 -0.2007
 1012SOL     OW 4120   0.454   4.037   2.024 -0.3663  0.4272  0.1248
 1012SOL    HW2 4121   0.438   4.127   1.996  1.0929  0.5287 -0.4673
 1012SOL    HW3 4122   0.520   4.005   1.963 -0.2754 -0.7791  0.8366
 1012SOL    MW4 4123   0.461   4.044   2.012 -0.1618  0.2813  0.1404
 1013SOL     OW 4124   0.415   4.292   1.902 -0.0455  0.6893  0.1231
 1013SOL    HW2 4125   0.327   4.320   1.926 -0.0342  0.1170  0.8378
 1013SOL    HW3 4126   0.418   4.302   1.807 -1.6122 -1.3539 -0.1584
 1013SOL    MW4 4127   0.404   4.297   1.893 -0.2507  0.3433  0.1801
 1014SOL     OW 4128   0.645   4.422   1.989 -0.0712  0.1225 -0.1427
 1014SOL    HW2 4129   0.706   4.364   1.944  0.2093 -0.1363  0.5589
 1014SOL    HW3 4130   0.559   4.390   1.965  0.0800 -1.3561  1.2039
 1014SOL    MW4 4131   0.642   4.410   1.980 -0.0142 -0.1063  0.1276
 1015SOL     OW 4132   1.100   0.016   1.882  0.2917  0.0322  0.2839
 1015SOL    HW2 4133   1.188   0.047   1.903  0.6649 -1.5701  1.1440
 1015SOL    HW3 4134   1.100  -0.077   1.907 -1.7377  0.0944  0.6212
 1015SOL    MW4 4135   1.112   0.008   1.888  0.0732 -0.1710  0.4418
 1016SOL     OW 4136   0.876   0.136   1.986 -0.2783 -0.1986 -0.1083
 1016SOL    HW2 4137   0.952   0.092   1.949 -0.0198 -0.4238  0.6928
 1016SOL    HW3 4138   0.801   0.086   1.953 -0.0367 -0.5750 -0.0844
 1016SOL    MW4 4139   0.876   0.124   1.977 -0.2123 -0.2780  0.0006
 1017SOL     OW 4140   0.901   0.414   1.927 -0.0319 -0.1737 -0.0320
 1017SOL    HW2 4141   0.992   0.440   1.941 -0.2749  0.8579 -0.3475
 1017SOL    HW3 4142   0.899   0.322   1.952  1.1544 -0.2722 -0.2425
 1017SOL    MW4 4143   0.913   0.405   1.932  0.0925 -0.0506 -0.1014
 1018SOL     OW 4144   1.154   0.541   1.999  0.1977  0.1518  0.2697
 1018SOL    HW2 4145   1.218   0.494   1.946  0.2970  0.8612 -0.2567
 1018SOL    HW3 4146   1.157   0.631   1.966 -1.4387  0.0828 -0.1216
 1018SOL    MW4 4147   1.163   0.547   1.987 -0.0051  0.2364  0.1487
 1019SOL     OW 4148   1.155   0.806   1.904 -0.5347  0.2442  0.1721
 1019SOL    HW2 4149   1.225   0.849   1.954 -0.3611  0.0588  0.0910
 1019SOL    HW3 4150   1.074   0.843   1.939 -0.3581  1.1542 -0.3990
 1019SOL    MW4 4151   1.154   0.816   1.915 -0.4885  0.3397  0.0861
 1020SOL     OW 4152   0.897   0.900   1.982  0.0874  0.2510  0.4892
 1020SOL    HW2 4153   0.900   0.884   2.076 -0.0577  1.3632  0.6901
 1020SOL    HW3 4154   0.897   0.995   1.973  0.5714  0.1582 -0.6547
 1020SOL    MW4 4155   0.897   0.910   1.993  0.1321  0.3855  0.3648
 1021SOL     OW 4156   0.892   1.165   1.924  0.1568  0.1821  0.0391
 1021SOL    HW2 4157   0.817   1.223   1.940 -0.8602 -0.9791 -0.3922
 1021SOL    HW3 4158   0.894   1.155   1.828  0.4350 -0.3319  0.0939
 1021SOL    MW4 4159   0.882   1.171   1.913  0.0594 -0.0389 -0.0106
 1022SOL     OW 4160   1.118   1.292   2.025 -0.0815  0.9729 -0.3839
 1022SOL    HW2 4161   1.102   1.366   1.968 -0.7747  2.0330  1.1587
 1022SOL    HW3 4162   1.050   1.229   2.003  0.8875  0.5025 -2.1385
 1022SOL    MW4 4163   1.107   1.293   2.015 -0.0451  1.0509 -0.4117
 1023SOL     OW 4164   1.112   1.529   1.890  0.3770 -0.3189  0.2449
 1023SOL    HW2 4165   1.034   1.568   1.929  1.1707  0.6935  0.8482
 1023SOL    HW3 4166   1.113   1.561   1.800  0.6038  0.4188  0.5121
 1023SOL    MW4 4167   1.102   1.538   1.884  0.5118 -0.0879  0.3598
 1024SOL     OW 4168   0.916   1.672   2.016  0.0976  0.6699 -0.5117
 1024SOL    HW2 4169   0.923   1.766   1.999 -0.3750  1.1189  1.6255
 1024SOL    HW3 4170   0.829   1.648   1.986  0.2322  0.8984 -1.0905
 1024SOL    MW4 4171   0.906   1.681   2.010  0.0530  0.7592 -0.3061
 1025SOL     OW 4172   0.915   1.957   1.919  0.0446  0.3874  0.1414
 1025SOL    HW2 4173   0.829   1.994   1.936 -0.5522 -0.8910 -0.0499
 1025SOL    HW3 4174   0.923   1.958   1.823  0.5381  1.1518  0.1857
 1025SOL    MW4 4175   0.905   1.962   1.908  0.0310  0.3196  0.1220
 1026SOL     OW 4176   1.134   2.113   2.002 -0.0052  0.5527 -0.6533
 1026SOL    HW2 4177   1.117   2.202   1.971 -1.4527  0.6477  0.3621
 1026SOL    HW3 4178   1.054   2.064   1.980 -0.9643  0.5506  2.5470
 1026SOL    MW4 4179   1.121   2.118   1.995 -0.3227  0.5646 -0.0972
 1027SOL     OW 4180   1.094   2.379   1.890 -0.5074 -0.0662  0.5491
 1027SOL    HW2 4181   1.181   2.405   1.920 -0.9113  1.4664  0.4131
 1027SOL    HW3 4182   1.103   2.367   1.796 -0.7507  1.4519  0.3169
 1027SOL    MW4 4183   1.107   2.381   1.881 -0.5928  0.3362  0.5006
 1028SOL     OW 4184   0.880   2.475   2.006 -0.5208  0.0927  0.4123
 1028SOL    HW2 4185   0.961   2.443   1.966 -0.8345 -0.1264 -0.0567
 1028SOL    HW3 4186   0.812   2.414   1.975 -0.7780 -0.0504  1.2405
 1028SOL    MW4 4187   0.882   2.463   1.997 -0.5960  0.0451  0.4598
 1029SOL     OW 4188   0.914   2.714   1.843  0.2453 -0.5787 -0.1898
 1029SOL    HW2 4189   0.920   2.629   1.887  0.0549 -1.0329 -1.0452
 1029SOL    HW3 4190   0.833   2.753   1.876  1.0737 -0.0856  1.3270
 1029SOL    MW4 4191   0.904   2.708   1.854  0.3294 -0.5734 -0.1025
 1030SOL     OW 4192   1.128   2.869   1.943 -0.3388  0.3497  0.5460
 1030SOL    HW2 4193   1.124   2.867   2.039  0.1327 -0.4239  0.5528
 1030SOL    HW3 4194   1.045   2.830   1.915  0.0313 -0.5312  0.6476
 1030SOL    MW4 4195   1.117   2.864   1.952 -0.2277  0.1316  0.5604
 1031SOL     OW 4196   1.115   3.157   1.892 -0.4249  0.0013  1.0793
 1031SOL    HW2 4197   1.032   3.184   1.932 -0.1924  0.2342  1.4058
 1031SOL    HW3 4198   1.127   3.067   1.920 -0.3198  0.1277  1.4442
 1031SOL    MW4 4199   1.106   3.149   1.901 -0.3804  0.0486  1.1705
 1032SOL     OW 4200   0.862   3.243   1.959  0.0183  0.0413 -0.1911
 1032SOL    HW2 4201   0.837   3.235   2.051 -1.7697  0.1368 -0.6523
 1032SOL    HW3 4202   0.790   3.202   1.911  1.4410 -0.9598 -1.5111
 1032SOL    MW4 4203   0.850   3.237   1.965 -0.0299 -0.0784 -0.4261
 1033SOL     OW 4204   0.873   3.523   1.896  0.2753 -0.1551  0.6382
 1033SOL    HW2 4205   0.876   3.429   1.915  0.5056  0.1548  2.2261
 1033SOL    HW3 4206   0.874   3.529   1.801  0.1643 -1.7690  0.5329
 1033SOL    MW4 4207   0.874   3.512   1.886  0.2910 -0.3273  0.8339
 1034SOL     OW 4208   1.123   3.624   1.963 -0.6617  0.0571 -0.0847
 1034SOL    HW2 4209   1.109   3.633   2.057 -1.4523  0.3620 -0.2241
 1034SOL    HW3 4210   1.046   3.577   1.932 -0.2939 -0.2416 -0.5487
 1034SOL    MW4 4211   1.111   3.619   1.971 -0.7175  0.0579 -0.1643
 1035SOL     OW 4212   1.135   3.884   1.872  0.2593  0.3779  0.2436
 1035SOL    HW2 4213   1.125   3.792   1.899 -1.0224  0.5555  0.4258
 1035SOL    HW3 4214   1.112   3.883   1.778  0.2809  0.5007  0.2375
 1035SOL    MW4 4215   1.130   3.871   1.863  0.0932  0.4177  0.2668
 1036SOL     OW 4216   0.903   4.013   1.956  0.6006 -0.2985 -0.1527
 1036SOL    HW2 4217   0.887   4.019   2.050  0.9053  0.3518 -0.1396
 1036SOL    HW3 4218   0.980   3.956   1.949  0.3162 -0.6975 -0.0313
 1036SOL    MW4 4219   0.911   4.006   1.968  0.6033 -0.2651 -0.1349
 1037SOL     OW 4220   0.858   4.282   1.856  0.3840 -0.1620 -0.3383
 1037SOL    HW2 4221   0.938   4.323   1.890  0.2019  0.6543 -0.8888
 1037SOL    HW3 4222   0.865   4.190   1.883 -0.3441  0.6942  3.0502
 1037SOL    MW4 4223   0.870   4.275   1.864  0.2640  0.0587  0.0364
 1038SOL     OW 4224   1.087   4.400   1.957  0.1412  0.0842  0.2346
 1038SOL    HW2 4225   1.104   4.398   2.052  0.0696 -0.9259  0.2299
 1038SOL    HW3 4226   1.171   4.375   1.918  0.1448  0.4133  0.0309
 1038SOL    MW4 4227   1.100   4.396   1.965  0.1321 -0.0057  0.2072
 1039SOL     OW 4228   1.588   0.009   1.843 -0.1748  0.2749 -0.0014
 1039SOL    HW2 4229   1.656   0.044   1.900 -0.3747 -0.1610  0.5036
 1039SOL    HW3 4230   1.572  -0.080   1.875 -1.9472  0.8347  0.7768
 1039SOL    MW4 4231   1.595   0.002   1.855 -0.4350  0.2913  0.1680
 1040SOL     OW 4232   1.353   0.127   1.934 -0.0989  0.0758 -0.2297
 1040SOL    HW2 4233   1.359   0.115   2.029 -0.2769  1.2123 -0.0754
 1040SOL    HW3 4234   1.437   0.095   1.900 -0.4404 -1.3099  0.2053
 1040SOL    MW4 4235   1.365   0.121   1.942 -0.1674  0.0429 -0.1519
 1041SOL     OW 4236   1.352   0.410   1.864 -0.0972 -0.7348 -0.0128
 1041SOL    HW2 4237   1.366   0.318   1.887 -0.5060 -1.0118 -0.8505
 1041SOL    HW3 4238   1.359   0.413   1.769  0.5118  0.2144  0.0561
 1041SOL    MW4 4239   1.355   0.399   1.855 -0.0707 -0.6461 -0.1141
 1042SOL     OW 4240   1.555   0.516   2.009 -0.1711 -0.1315 -0.3738
 1042SOL    HW2 4241   1.632   0.466   1.983  0.7046  0.2203  1.4317
 1042SOL    HW3 4242   1.483   0.477   1.960  1.2683  0.0403 -2.6894
 1042SOL    MW4 4243   1.556   0.505   1.999  0.1343 -0.0624 -0.4412
 1043SOL     OW 4244   1.562   0.785   1.895  0.0700 -0.0380  0.4118
 1043SOL    HW2 4245   1.636   0.828   1.939  0.1948 -0.2095  0.3705
 1043SOL    HW3 4246   1.558   0.698   1.934  0.3551 -0.2894 -0.1081
 1043SOL    MW4 4247   1.572   0.779   1.906  0.1241 -0.0938  0.3377
 1044SOL     OW 4248   1.362   0.924   2.029  0.1672 -0.7377  0.4821
 1044SOL    HW2 4249   1.382   0.916   2.122  0.7621 -0.3374  0.3918
 1044SOL    HW3 4250   1.443   0.898   1.985 -0.0088 -0.6049  0.0834
 1044SOL    MW4 4251   1.375   0.920   2.036  0.2227 -0.6674  0.4175
 1045SOL     OW 4252   1.348   1.187   1.908  0.4285 -0.5016 -0.3224
 1045SOL    HW2 4253   1.369   1.104   1.951 -0.5500  0.3349  1.7958
 1045SOL    HW3 4254   1.269   1.218   1.952  1.8217  2.4725  0.1973
 1045SOL    MW4 4255   1.341   1.180   1.919  0.4832  0.0013  0.0255
 1046SOL     OW 4256   1.557   1.344   2.011 -0.1597  0.4433 -0.0830
 1046SOL    HW2 4257   1.548   1.426   1.961 -0.7407  0.7429  0.4963
 1046SOL    HW3 4258   1.483   1.291   1.982 -0.8100  0.8289  0.8358
 1046SOL    MW4 4259   1.546   1.348   2.000 -0.3222  0.5336  0.1149
 1047SOL     OW 4260   1.522   1.581   1.859  0.4079 -0.3497 -0.3958
 1047SOL    HW2 4261   1.588   1.625   1.913  0.2206  0.7885 -1.0885
 1047SOL    HW3 4262   1.438   1.616   1.891  0.1943 -1.0714 -0.1655
 1047SOL    MW4 4263   1.520   1.592   1.871  0.3550 -0.2948 -0.4568
 1048SOL     OW 4264   1.307   1.694   1.995 -0.1305  0.2162  0.3725
 1048SOL    HW2 4265   1.313   1.682   2.090  0.1931 -0.8878  0.2162
 1048SOL    HW3 4266   1.226   1.651   1.971  0.0661  0.0234  0.0651
 1048SOL    MW4 4267   1.297   1.687   2.005 -0.0618  0.0451  0.3114
 1049SOL     OW 4268   1.330   1.958   1.881  0.3807  0.1886  0.1673
 1049SOL    HW2 4269   1.326   1.879   1.935 -2.3412 -0.7274 -1.3258
 1049SOL    HW3 4270   1.256   2.011   1.910  0.6972  1.0490 -0.5723
 1049SOL    MW4 4271   1.320   1.955   1.892  0.0634  0.1813 -0.1273
 1050SOL     OW 4272   1.562   2.066   1.970 -0.6907  0.4491 -0.2029
 1050SOL    HW2 4273   1.553   2.159   1.948 -2.4431  0.6745  1.2878
 1050SOL    HW3 4274   1.479   2.027   1.941  0.0976 -0.6954 -0.9591
 1050SOL    MW4 4275   1.550   2.074   1.963 -0.8178  0.3278 -0.1060
 1051SOL     OW 4276   1.558   2.319   1.876  0.1507 -0.1454  0.2738
 1051SOL    HW2 4277   1.639   2.367   1.894  0.7982 -0.3625 -1.9704
 1051SOL    HW3 4278   1.533   2.345   1.788 -0.8874 -1.9811 -0.0016
 1051SOL    MW4 4279   1.565   2.328   1.867  0.0992 -0.4163 -0.0585
 1052SOL     OW 4280   1.342   2.477   2.001  0.0190  0.4080  0.2842
 1052SOL    HW2 4281   1.352   2.553   1.944  1.3589 -0.6229 -0.8896
 1052SOL    HW3 4282   1.419   2.423   1.982 -0.8560 -1.1729  1.1906
 1052SOL    MW4 4283   1.354   2.480   1.991  0.0803  0.0637  0.2490
 1053SOL     OW 4284   1.340   2.707   1.858 -0.1436 -0.3914 -0.1971
 1053SOL    HW2 4285   1.270   2.763   1.892  0.6461  0.9011 -0.6496
 1053SOL    HW3 4286   1.333   2.715   1.763 -0.3221 -1.4503 -0.2764
 1053SOL    MW4 4287   1.330   2.715   1.850 -0.0629 -0.3607 -0.2673
 1054SOL     OW 4288   1.549   2.850   1.964  0.0762 -0.0696  0.4602
 1054SOL    HW2 4289   1.632   2.811   1.939  0.0181 -0.9596  1.5833
 1054SOL    HW3 4290   1.483   2.790   1.928 -0.0414 -0.3246  1.1007
 1054SOL    MW4 4291   1.551   2.837   1.956  0.0530 -0.2208  0.6928
 1055SOL     OW 4292   1.563   3.097   1.854 -0.2751 -0.2741  0.3273
 1055SOL    HW2 4293   1.559   3.004   1.874 -0.1119 -0.5889 -1.0996
 1055SOL    HW3 4294   1.556   3.102   1.759  0.0867  1.1477  0.3619
 1055SOL    MW4 4295   1.561   3.086   1.844 -0.2056 -0.1280  0.1436
 1056SOL     OW 4296   1.361   3.244   1.970  0.9377 -0.5727  0.4468
 1056SOL    HW2 4297   1.427   3.181   1.944  2.4466  0.8050  0.8477
 1056SOL    HW3 4298   1.278   3.204   1.945  1.9802 -1.8493 -1.0726
 1056SOL    MW4 4299   1.359   3.230   1.963  1.2743 -0.5593  0.2992
 1057SOL     OW 4300   1.370   3.498   1.845 -0.3960 -0.0213 -0.2832
 1057SOL    HW2 4301   1.373   3.406   1.871  0.0055 -0.3502 -1.4423
 1057SOL    HW3 4302   1.291   3.532   1.887 -1.3628 -1.2809 -1.0351
 1057SOL    MW4 4303   1.360   3.490   1.854 -0.4706 -0.2308 -0.5352
 1058SOL     OW 4304   1.586   3.640   1.922  0.2262  0.5342 -0.1287
 1058SOL    HW2 4305   1.574   3.638   2.017 -0.1288 -0.5458 -0.1841
 1058SOL    HW3 4306   1.511   3.590   1.887 -0.2857  1.8958 -1.0494
 1058SOL    MW4 4307   1.574   3.633   1.930  0.1117  0.5713 -0.2575
 1059SOL     OW 4308   1.552   3.890   1.849  0.3443  0.1047  0.2563
 1059SOL    HW2 4309   1.622   3.944   1.887  0.8328  0.3399 -0.9680
 1059SOL    HW3 4310   1.566   3.804   1.887  0.2601  0.5514  1.3358
 1059SOL    MW4 4311   1.563   3.886   1.859  0.3976  0.1948  0.2372
 1060SOL     OW 4312   1.344   4.045   1.942 -0.5654 -0.6784 -0.3671
 1060SOL    HW2 4313   1.409   3.988   1.902 -0.6763 -1.2351  0.2299
 1060SOL    HW3 4314   1.260   4.004   1.921 -0.6840 -0.3187 -0.5870
 1060SOL    MW4 4315   1.342   4.032   1.934 -0.5957 -0.7043 -0.3173
 1061SOL     OW 4316   1.337   4.328   1.863  0.0490 -0.1637 -0.1908
 1061SOL    HW2 4317   1.335   4.239   1.900 -1.1922  0.0561  0.2955
 1061SOL    HW3 4318   1.341   4.314   1.768  1.0713 -0.7353 -0.0732
 1061SOL    MW4 4319   1.337   4.314   1.855  0.0200 -0.2098 -0.1111
 1062SOL     OW 4320   1.578   4.422   1.942 -0.0090  0.1673  0.1013
 1062SOL    HW2 4321   1.583   4.410   2.037  0.1240  0.6787  0.1564
 1062SOL    HW3 4322   1.501   4.370   1.916  1.9714 -2.8412  0.0206
 1062SOL    MW4 4323   1.568   4.413   1.951  0.2699 -0.1621  0.0979
 1063SOL     OW 4324   2.013   0.028   1.861  0.2029  0.1915 -0.1911
 1063SOL    HW2 4325   2.090   0.059   1.908 -0.2942  1.3293 -0.1335
 1063SOL    HW3 4326   1.989  -0.053   1.906  0.7759  0.3477  0.4064
 1063SOL    MW4 4327   2.020   0.021   1.873  0.2127  0.3623 -0.1045
 1064SOL     OW 4328   1.778   0.111   2.000  0.1909  0.5223  0.0948
 1064SOL    HW2 4329   1.792   0.101   2.094  0.3488  0.7461  0.0955
 1064SOL    HW3 4330   1.866   0.102   1.962  0.3052  1.6465  0.0728
 1064SOL    MW4 4331   1.792   0.108   2.007  0.2269  0.7001  0.0918
 1065SOL     OW 4332   1.764   0.371   1.918  0.1171  0.0426 -0.1210
 1065SOL    HW2 4333   1.763   0.286   1.961  0.4621 -0.4715 -1.1157
 1065SOL    HW3 4334   1.794   0.353   1.829  0.2795  1.2123 -0.3179
 1065SOL    MW4 4335   1.768   0.358   1.912  0.1841  0.1291 -0.2782
 1066SOL     OW 4336   2.008   0.524   1.984 -0.1275  0.0971 -0.3343
 1066SOL    HW2 4337   2.000   0.607   1.936 -0.4936  1.3290  1.7805
 1066SOL    HW3 4338   1.934   0.472   1.955 -1.2948  1.4850  0.1049
 1066SOL    MW4 4339   1.997   0.528   1.974 -0.3297  0.4427  0.0026
 1067SOL     OW 4340   1.985   0.784   1.870 -0.4159  0.4135 -0.0531
 1067SOL    HW2 4341   2.061   0.832   1.903 -0.4581  1.1292 -0.9652
 1067SOL    HW3 4342   1.995   0.787   1.774 -2.6483  2.2676 -0.2635
 1067SOL    MW4 4343   1.996   0.790   1.861 -0.7160  0.7526 -0.2012
 1068SOL     OW 4344   1.781   0.905   2.001 -0.0496 -0.1708  0.1753
 1068SOL    HW2 4345   1.768   0.997   1.981  0.7692  0.0970  0.8353
 1068SOL    HW3 4346   1.868   0.885   1.966  0.1898 -0.4292  0.9069
 1068SOL    MW4 4347   1.791   0.914   1.994  0.0900 -0.1695  0.3589
 1069SOL     OW 4348   1.762   1.189   1.936 -0.0059  0.1429  0.5158
 1069SOL    HW2 4349   1.695   1.252   1.962  0.7151  0.3578  1.8909
 1069SOL    HW3 4350   1.769   1.198   1.841 -0.8102  1.2322  0.5632
 1069SOL    MW4 4351   1.754   1.198   1.927 -0.0169  0.3150  0.7033
 1070SOL     OW 4352   2.025   1.338   2.007  0.0172  0.3082  0.0643
 1070SOL    HW2 4353   2.090   1.287   1.959 -0.2560 -0.0634  0.0905
 1070SOL    HW3 4354   1.941   1.300   1.982 -0.2425  1.2718 -0.5396
 1070SOL    MW4 4355   2.022   1.326   1.998 -0.0534  0.3864 -0.0119
 1071SOL     OW 4356   1.985   1.590   1.865  0.5757  0.2232  0.2705
 1071SOL    HW2 4357   2.002   1.504   1.904  0.2746  0.1731  0.2873
 1071SOL    HW3 4358   1.984   1.573   1.771  0.9283  0.2815  0.2527
 1071SOL    MW4 4359   1.987   1.576   1.858  0.5826  0.2242  0.2704
 1072SOL     OW 4360   1.749   1.694   1.990 -0.4980  0.2495 -0.0167
 1072SOL    HW2 4361   1.760   1.786   1.967 -1.7412  0.1600 -1.0390
 1072SOL    HW3 4362   1.826   1.651   1.952 -0.3546  0.7370 -0.2901
 1072SOL    MW4 4363   1.761   1.700   1.982 -0.6434  0.3020 -0.1876
 1073SOL     OW 4364   1.803   1.946   1.890  0.4801  0.0089  0.4030
 1073SOL    HW2 4365   1.728   2.002   1.912  1.5026  1.9642 -0.9130
 1073SOL    HW3 4366   1.796   1.935   1.795  0.7353 -1.4842  0.5507
 1073SOL    MW4 4367   1.792   1.952   1.880  0.6486  0.0700  0.2489
 1074SOL     OW 4368   2.023   2.078   1.989 -0.3456 -0.6165  0.1259
 1074SOL    HW2 4369   2.096   2.027   1.954 -0.9385  0.5663 -2.9561
 1074SOL    HW3 4370   1.945   2.035   1.955 -0.9329  0.6318 -0.1593
 1074SOL    MW4 4371   2.023   2.066   1.980 -0.5016 -0.2959 -0.3183
 1075SOL     OW 4372   2.016   2.325   1.839  0.5610  0.1350  0.3021
 1075SOL    HW2 4373   2.089   2.374   1.878  0.3030  0.7678 -0.0124
 1075SOL    HW3 4374   2.004   2.250   1.898  1.0599  0.3602  0.6955
 1075SOL    MW4 4375   2.024   2.321   1.852  0.5929  0.2482  0.3124
 1076SOL     OW 4376   1.782   2.475   1.928  0.2567 -0.1105  0.1339
 1076SOL    HW2 4377   1.804   2.475   2.021  1.0127  0.5315 -0.0408
 1076SOL    HW3 4378   1.851   2.423   1.887 -0.1826 -0.5568 -0.0471
 1076SOL    MW4 4379   1.794   2.468   1.934  0.2986 -0.0844  0.0871
 1077SOL     OW 4380   1.777   2.740   1.852  0.0301  0.0409 -0.0917
 1077SOL    HW2 4381   1.783   2.647   1.871 -1.6311 -0.0697 -0.0200
 1077SOL    HW3 4382   1.773   2.745   1.756 -0.4768 -0.0172 -0.0778
 1077SOL    MW4 4383   1.777   2.729   1.842 -0.2561  0.0186 -0.0803
 1078SOL     OW 4384   2.018   2.847   1.951 -0.0812 -0.2585 -0.1354
 1078SOL    HW2 4385   2.017   2.860   2.046 -0.2417 -0.4983 -0.1061
 1078SOL    HW3 4386   1.934   2.805   1.931 -1.1614  2.0530 -0.6853
 1078SOL    MW4 4387   2.007   2.843   1.961 -0.2449  0.0148 -0.2042
 1079SOL     OW 4388   1.993   3.101   1.815  0.2286 -0.2657 -0.4182
 1079SOL    HW2 4389   1.925   3.143   1.868  1.8176 -0.0713  1.5393
 1079SOL    HW3 4390   2.003   3.014   1.854  0.2839 -0.7283 -1.4497
 1079SOL    MW4 4391   1.985   3.095   1.827  0.4456 -0.3011 -0.2960
 1080SOL     OW 4392   1.792   3.249   1.940 -0.4540  0.0561  0.4352
 1080SOL    HW2 4393   1.808   3.219   2.029 -1.3620  1.4861  1.0969
 1080SOL    HW3 4394   1.712   3.203   1.914 -1.5393  1.4593  1.2491
 1080SOL    MW4 4395   1.783   3.239   1.948 -0.7170  0.4296  0.6299
 1081SOL     OW 4396   1.816   3.508   1.842  0.4729 -0.3804 -0.3127
 1081SOL    HW2 4397   1.808   3.424   1.887 -0.8191 -0.6121 -0.9415
 1081SOL    HW3 4398   1.739   3.558   1.871  1.2183  0.5932  0.0470
 1081SOL    MW4 4399   1.805   3.504   1.852  0.4007 -0.2828 -0.3482
 1082SOL     OW 4400   2.023   3.613   1.968 -0.3186 -0.1388 -0.0741
 1082SOL    HW2 4401   2.022   3.706   1.946 -1.3804 -0.5669 -1.9855
 1082SOL    HW3 4402   1.946   3.577   1.923  0.3653 -2.0179  0.2094
 1082SOL    MW4 4403   2.013   3.621   1.959 -0.3684 -0.4430 -0.2888
 1083SOL     OW 4404   1.992   3.870   1.878 -0.2616 -0.2585 -0.4679
 1083SOL    HW2 4405   2.069   3.925   1.894 -0.1593 -0.4447 -0.3205
 1083SOL    HW3 4406   1.979   3.874   1.783 -1.4720  1.6552 -0.2415
 1083SOL    MW4 4407   2.001   3.878   1.868 -0.4079 -0.0305 -0.4185
 1084SOL     OW 4408   1.768   4.016   1.951 -0.3665  0.0200 -0.3993
 1084SOL    HW2 4409   1.778   4.108   1.924  1.7194  0.0023  0.2408
 1084SOL    HW3 4410   1.852   3.976   1.930 -1.0207 -1.5869 -0.0022
 1084SOL    MW4 4411   1.781   4.023   1.944 -0.1776 -0.1941 -0.2625
 1085SOL     OW 4412   1.810   4.272   1.903  0.0889  0.3013  0.4447
 1085SOL    HW2 4413   1.729   4.324   1.906 -1.6958 -2.3871  0.7033
 1085SOL    HW3 4414   1.833   4.269   1.811 -1.5885 -1.0867  0.0575
 1085SOL    MW4 4415   1.802   4.278   1.892 -0.3679 -0.2370  0.4277
 1086SOL     OW 4416   2.013   4.436   1.989 -0.5084  0.2925  0.1083
 1086SOL    HW2 4417   2.090   4.397   1.949 -0.2381  0.0578  0.8375
 1086SOL    HW3 4418   1.941   4.377   1.966 -0.9146  1.7503 -2.5490
 1086SOL    MW4 4419   2.013   4.423   1.981 -0.5262  0.4535 -0.1460
 1087SOL     OW 4420   2.485   0.056   1.872  0.0514 -0.2397 -0.0761
 1087SOL    HW2 4421   2.563   0.088   1.918 -0.0406 -0.9153  0.5490
 1087SOL    HW3 4422   2.482  -0.038   1.891 -1.4501 -0.0605  0.7263
 1087SOL    MW4 4423   2.495   0.048   1.881 -0.1588 -0.3052  0.1122
 1088SOL     OW 4424   2.248   0.134   1.983  0.0207  0.0686  0.4340
 1088SOL    HW2 4425   2.243   0.112   2.077  0.3818  0.1432  0.4689
 1088SOL    HW3 4426   2.332   0.097   1.955  0.0399  0.2974  0.2025
 1088SOL    MW4 4427   2.258   0.126   1.992  0.0706  0.1087  0.4082
 1089SOL     OW 4428   2.240   0.398   1.889 -0.1368  0.8040  0.7644
 1089SOL    HW2 4429   2.241   0.307   1.920  1.1592  0.8416  0.8847
 1089SOL    HW3 4430   2.155   0.432   1.916 -0.3533 -0.1717  1.3399
 1089SOL    MW4 4431   2.229   0.390   1.897  0.0057  0.6802  0.8563
 1090SOL     OW 4432   2.471   0.522   1.983  0.0158  0.1416 -0.2238
 1090SOL    HW2 4433   2.536   0.462   1.947 -0.3210  0.2668 -1.0435
 1090SOL    HW3 4434   2.387   0.480   1.966 -0.1735  0.4271 -0.0065
 1090SOL    MW4 4435   2.468   0.509   1.976 -0.0536  0.1958 -0.3033
 1091SOL     OW 4436   2.416   0.771   1.869 -0.4446  0.2111  0.4929
 1091SOL    HW2 4437   2.424   0.685   1.910 -0.3069 -1.0067 -1.9507
 1091SOL    HW3 4438   2.466   0.763   1.787 -0.8711  2.4447 -0.0209
 1091SOL    MW4 4439   2.424   0.759   1.863 -0.4826  0.3452  0.1028
 1092SOL     OW 4440   2.209   0.907   2.002 -0.0530 -0.4488  0.0437
 1092SOL    HW2 4441   2.231   0.876   2.090  0.3487  0.6696  0.3450
 1092SOL    HW3 4442   2.276   0.869   1.945 -0.4044 -1.2987  0.1903
 1092SOL    MW4 4443   2.220   0.898   2.006 -0.0465 -0.4134  0.1028
 1093SOL     OW 4444   2.217   1.166   1.890 -0.4692 -0.7132 -0.3596
 1093SOL    HW2 4445   2.303   1.207   1.884 -0.7899 -0.1012 -0.7586
 1093SOL    HW3 4446   2.236   1.076   1.916  0.2118 -0.1992  1.0255
 1093SOL    MW4 4447   2.231   1.160   1.893 -0.4215 -0.5646 -0.2295
 1094SOL     OW 4448   2.486   1.266   1.941 -0.2453  0.2398  0.0909
 1094SOL    HW2 4449   2.472   1.252   2.035  0.1389  0.8625  0.2449
 1094SOL    HW3 4450   2.474   1.360   1.928  1.3828  0.4330 -0.1729
 1094SOL    MW4 4451   2.483   1.276   1.952  0.0203  0.3475  0.0763
 1095SOL     OW 4452   2.472   1.535   1.878  0.4639 -0.1583  0.1499
 1095SOL    HW2 4453   2.392   1.583   1.901  1.9548  2.4351  0.1833
 1095SOL    HW3 4454   2.459   1.511   1.786 -0.3391  0.2913  0.1355
 1095SOL    MW4 4455   2.459   1.538   1.869  0.5548  0.2432  0.1525
 1096SOL     OW 4456   2.234   1.664   1.967 -0.3317  0.4998  0.4110
 1096SOL    HW2 4457   2.228   1.677   2.062  2.0723 -1.4325  0.8666
 1096SOL    HW3 4458   2.145   1.643   1.940 -1.0963  1.3415  2.1912
 1096SOL    MW4 4459   2.222   1.663   1.976 -0.1156  0.3560  0.7058
 1097SOL     OW 4460   2.230   1.940   1.893 -0.2483 -0.5404  0.4320
 1097SOL    HW2 4461   2.316   1.974   1.918 -0.5914 -0.3808  1.4032
 1097SOL    HW3 4462   2.232   1.848   1.922  0.1719 -0.9864 -0.9611
 1097SOL    MW4 4463   2.242   1.932   1.900 -0.2379 -0.5783  0.3762
 1098SOL     OW 4464   2.483   2.027   1.943  0.1452  0.1682 -0.8132
 1098SOL    HW2 4465   2.555   1.978   1.904 -0.2408 -0.7785 -0.3372
 1098SOL    HW3 4466   2.497   2.117   1.914  0.6150 -0.2956 -2.0481
 1098SOL    MW4 4467   2.494   2.033   1.934  0.1564 -0.0179 -0.9133
 1099SOL     OW 4468   2.468   2.291   1.837  0.2889  0.4145 -0.1562
 1099SOL    HW2 4469   2.531   2.352   1.877  0.2007  1.3587 -1.4332
 1099SOL    HW3 4470   2.383   2.322   1.867  0.3541 -0.2461  0.7398
 1099SOL    MW4 4471   2.465   2.303   1.846  0.2859  0.4518 -0.2064
 1100SOL     OW 4472   2.250   2.437   1.947 -0.4252  0.3182 -0.2594
 1100SOL    HW2 4473   2.257   2.423   2.041 -3.1675  0.2740 -0.0290
 1100SOL    HW3 4474   2.263   2.532   1.936  0.6705  0.2057  0.0798
 1100SOL    MW4 4475   2.252   2.448   1.958 -0.6425  0.2975 -0.1843
 1101SOL     OW 4476   2.236   2.710   1.868 -0.3668  0.2036  0.4220
 1101SOL    HW2 4477   2.159   2.761   1.895 -0.5087  0.5266 -0.5629
 1101SOL    HW3 4478   2.232   2.711   1.772  1.4038  1.0713  0.3347
 1101SOL    MW4 4479   2.225   2.717   1.859 -0.1516  0.3607  0.2806
 1102SOL     OW 4480   2.464   2.836   1.978  0.3765  0.1883  0.3717
 1102SOL    HW2 4481   2.465   2.923   1.940 -1.0908 -0.2229 -0.6771
 1102SOL    HW3 4482   2.380   2.799   1.950  0.9143 -1.4973  0.9203
 1102SOL    MW4 4483   2.453   2.842   1.969  0.2539 -0.0885  0.3058
 1103SOL     OW 4484   2.455   3.076   1.845  0.2869 -0.2392  0.0354
 1103SOL    HW2 4485   2.383   3.124   1.886 -0.9030 -2.6849  0.9116
 1103SOL    HW3 4486   2.435   3.078   1.752 -0.6980 -0.5061  0.2308
 1103SOL    MW4 4487   2.443   3.082   1.838  0.0002 -0.5972  0.1768
 1104SOL     OW 4488   2.238   3.207   1.936  0.2279  0.0084  0.4130
 1104SOL    HW2 4489   2.211   3.203   2.028 -0.2742  0.4355  0.2903
 1104SOL    HW3 4490   2.171   3.158   1.890  0.6325 -0.4422  0.3053
 1104SOL    MW4 4491   2.226   3.200   1.942  0.2148  0.0055  0.3827
 1105SOL     OW 4492   2.257   3.485   1.888 -0.5532 -0.3550 -0.4532
 1105SOL    HW2 4493   2.256   3.394   1.916  0.7657  0.0694  1.0140
 1105SOL    HW3 4494   2.170   3.518   1.912 -0.4796 -0.7977  0.4232
 1105SOL    MW4 4495   2.245   3.478   1.895 -0.3695 -0.3574 -0.1440
 1106SOL     OW 4496   2.466   3.658   1.963 -0.0115 -0.1651  0.2428
 1106SOL    HW2 4497   2.487   3.628   2.051 -0.8935  0.2537  0.6028
 1106SOL    HW3 4498   2.398   3.597   1.933 -0.4394  0.3095  0.2436
 1106SOL    MW4 4499   2.460   3.646   1.970 -0.1843 -0.0470  0.2904
 1107SOL     OW 4500   2.436   3.892   1.823  0.0644  0.0066  0.3783
 1107SOL    HW2 4501   2.354   3.921   1.863  0.5515 -0.2677  1.6155
 1107SOL    HW3 4502   2.451   3.804   1.859  0.3357 -0.4073 -0.7020
 1107SOL    MW4 4503   2.427   3.884   1.833  0.1645 -0.0844  0.3989
 1108SOL     OW 4504   2.206   4.022   1.947 -0.0488 -0.5529 -0.5310
 1108SOL    HW2 4505   2.224   4.014   2.040 -0.0114 -1.2341 -0.5923
 1108SOL    HW3 4506   2.212   4.116   1.929  0.3709 -0.4633  0.0632
 1108SOL    MW4 4507   2.209   4.033   1.957  0.0112 -0.6309 -0.4607
 1109SOL     OW 4508   2.224   4.300   1.896 -0.2587 -0.5554  0.2513
 1109SOL    HW2 4509   2.305   4.349   1.910 -0.4056 -0.0132 -0.7300
 1109SOL    HW3 4510   2.230   4.271   1.805 -0.1333 -2.4554  0.8328
 1109SOL    MW4 4511   2.236   4.303   1.886 -0.2613 -0.7348  0.1986
 1110SOL     OW 4512   2.464   4.438   1.955 -0.5499 -0.2127 -0.7453
 1110SOL    HW2 4513   2.472   4.425   2.050  0.1590  0.8689 -0.6568
 1110SOL    HW3 4514   2.536   4.386   1.918 -0.5833 -0.3148 -0.6665
 1110SOL    MW4 4515   2.475   4.429   1.963 -0.4606 -0.0834 -0.7232
 1111SOL     OW 4516   2.884   4.667   1.882  0.2209 -0.0512 -0.1178
 1111SOL    HW2 4517   2.963   4.713   1.909  0.5478  0.2500 -1.5448
 1111SOL    HW3 4518   2.892   4.580   1.921  1.1837  0.0329 -0.1191
 1111SOL    MW4 4519   2.896   4.661   1.891  0.3910 -0.0004 -0.3060
 1112SOL     OW 4520   2.710   0.144   2.033 -0.1440  0.1554 -0.0005
 1112SOL    HW2 4521   2.716   0.128   2.127  0.7555  2.2248  0.3076
 1112SOL    HW3 4522   2.779   0.090   1.995 -0.5260 -0.7079  0.5032
 1112SOL    MW4 4523   2.720   0.135   2.041 -0.0758  0.3145  0.1066
 1113SOL     OW 4524   2.714   0.386   1.886  0.3054  0.2946  0.1248
 1113SOL    HW2 4525   2.790   0.431   1.923  1.2918 -0.6411 -0.7003
 1113SOL    HW3 4526   2.708   0.305   1.936 -0.1242  0.3523  0.1650
 1113SOL    MW4 4527   2.723   0.381   1.897  0.3791  0.1788  0.0213
 1114SOL     OW 4528   2.952   0.523   1.974  0.4554  0.3510 -0.3966
 1114SOL    HW2 4529   3.039   0.509   1.937  0.0055  1.1356 -1.7984
 1114SOL    HW3 4530   2.918   0.599   1.927 -1.0314 -0.0119  0.0626
 1114SOL    MW4 4531   2.959   0.531   1.963  0.1998  0.4067 -0.5208
 1115SOL     OW 4532   2.910   0.755   1.833  0.3859 -0.0958 -0.1732
 1115SOL    HW2 4533   2.974   0.805   1.884  0.7393  2.0567 -2.6546
 1115SOL    HW3 4534   2.825   0.786   1.866  0.6110  1.0420 -0.6505
 1115SOL    MW4 4535   2.907   0.766   1.844  0.4623  0.3383 -0.5636
 1116SOL     OW 4536   2.698   0.861   1.982  0.9133  0.5598 -0.2328
 1116SOL    HW2 4537   2.699   0.954   1.959  0.7917  0.4085 -0.8891
 1116SOL    HW3 4538   2.609   0.832   1.959  1.3633 -0.0144 -1.2858
 1116SOL    MW4 4539   2.686   0.869   1.976  0.9565  0.4641 -0.4584
 1117SOL     OW 4540   2.744   1.139   1.935 -0.1726 -0.5520 -0.2466
 1117SOL    HW2 4541   2.657   1.172   1.957 -0.0109 -0.3744  0.1263
 1117SOL    HW3 4542   2.753   1.156   1.841  0.3877  1.5752  0.1569
 1117SOL    MW4 4543   2.734   1.146   1.926 -0.0777 -0.2478 -0.1441
 1118SOL     OW 4544   2.990   1.282   1.979 -0.0178  0.4055 -0.3497
 1118SOL    HW2 4545   2.981   1.368   1.937  0.5908  1.1874  1.0887
 1118SOL    HW3 4546   2.909   1.236   1.956 -1.3220  2.1364  0.6026
 1118SOL    MW4 4547   2.978   1.287   1.970 -0.1094  0.7371 -0.0343
 1119SOL     OW 4548   2.952   1.528   1.864  0.2133  0.5086  0.3118
 1119SOL    HW2 4549   3.016   1.593   1.894  0.8858  0.0029 -0.0293
 1119SOL    HW3 4550   2.959   1.530   1.768  0.7254 -0.5586  0.3207
 1119SOL    MW4 4551   2.962   1.537   1.855  0.3695  0.3010  0.2680
 1120SOL     OW 4552   2.711   1.669   1.950 -0.1444 -0.1409  0.0310
 1120SOL    HW2 4553   2.782   1.609   1.931  0.6490  1.1766 -1.2341
 1120SOL    HW3 4554   2.632   1.623   1.923  0.3027 -1.2039  0.5026
 1120SOL    MW4 4555   2.710   1.655   1.944  0.0193 -0.1073 -0.0738
 1121SOL     OW 4556   2.701   1.915   1.850 -0.3649  0.0744  0.4157
 1121SOL    HW2 4557   2.768   1.969   1.892  0.5356 -0.0464 -0.8384
 1121SOL    HW3 4558   2.702   1.833   1.900  1.9188 -0.7291 -0.8796
 1121SOL    MW4 4559   2.710   1.912   1.862  0.0553 -0.0474  0.0794
 1122SOL     OW 4560   2.887   2.099   1.964 -0.5866 -0.0569  0.2489
 1122SOL    HW2 4561   2.887   2.071   2.055 -0.5855 -0.7671  0.0309
 1122SOL    HW3 4562   2.963   2.055   1.926 -0.1396  0.8387  0.0882
 1122SOL    MW4 4563   2.897   2.090   1.971 -0.5276 -0.0327  0.1988
 1123SOL     OW 4564   2.899   2.353   1.842 -0.3637 -0.1891  0.3400
 1123SOL    HW2 4565   2.969   2.398   1.888  0.5362  0.2798 -1.4862
 1123SOL    HW3 4566   2.885   2.273   1.893  1.0972 -0.0201  1.0172
 1123SOL    MW4 4567   2.906   2.348   1.855 -0.0522 -0.1047  0.1884
 1124SOL     OW 4568   2.673   2.443   1.951 -0.1477 -0.2921 -0.1776
 1124SOL    HW2 4569   2.673   2.537   1.934 -1.5918 -0.0751  0.9768
 1124SOL    HW3 4570   2.750   2.411   1.904  0.1020  1.3871 -0.9629
 1124SOL    MW4 4571   2.683   2.451   1.943 -0.3054 -0.0420 -0.1289
 1125SOL     OW 4572   2.704   2.708   1.849  0.3988 -0.1141 -0.3170
 1125SOL    HW2 4573   2.633   2.769   1.871  0.3120  0.0762 -1.0798
 1125SOL    HW3 4574   2.690   2.689   1.756  1.3017 -0.1374 -0.4526
 1125SOL    MW4 4575   2.693   2.713   1.839  0.5066 -0.0918 -0.4356
 1126SOL     OW 4576   2.929   2.858   1.917 -0.2147  0.4152 -0.2610
 1126SOL    HW2 4577   2.919   2.949   1.890 -0.6212  1.1337  2.2279
 1126SOL    HW3 4578   2.848   2.815   1.889  0.1650  0.6913 -1.8252
 1126SOL    MW4 4579   2.917   2.864   1.910 -0.2182  0.5460 -0.1391
 1127SOL     OW 4580   2.889   3.147   1.858 -0.6763 -0.1124 -0.0981
 1127SOL    HW2 4581   2.958   3.185   1.912  0.1454 -2.4550  0.5571
 1127SOL    HW3 4582   2.808   3.164   1.906 -0.0041 -1.7458  1.6725
 1127SOL    MW4 4583   2.887   3.154   1.872 -0.4792 -0.6371  0.2220
 1128SOL     OW 4584   2.654   3.238   1.977 -0.2995  0.0283  0.2810
 1128SOL    HW2 4585   2.657   3.323   1.933  0.5525 -0.4417 -0.5836
 1128SOL    HW3 4586   2.585   3.189   1.932 -0.7116  0.2191  0.7029
 1128SOL    MW4 4587   2.646   3.243   1.966 -0.2415 -0.0088  0.2224
 1129SOL     OW 4588   2.680   3.493   1.881  0.0972  0.1451 -0.2082
 1129SOL    HW2 4589   2.754   3.535   1.925  0.7549  0.2206 -1.3625
 1129SOL    HW3 4590   2.604   3.543   1.911  0.7150  1.2551 -0.4317
 1129SOL    MW4 4591   2.680   3.505   1.891  0.2656  0.3014 -0.3899
 1130SOL     OW 4592   2.918   3.610   1.979 -0.0379 -0.0004  0.3410
 1130SOL    HW2 4593   2.927   3.602   2.074 -0.6004 -2.5398  0.2396
 1130SOL    HW3 4594   2.991   3.559   1.943 -0.3643  0.1588 -0.5708
 1130SOL    MW4 4595   2.928   3.602   1.987 -0.1550 -0.3142  0.2073
 1131SOL     OW 4596   2.892   3.863   1.890  0.3620  0.2464 -0.5333
 1131SOL    HW2 4597   2.894   3.774   1.925 -1.6985  0.1799 -0.5128
 1131SOL    HW3 4598   2.906   3.853   1.796  1.7310  0.0510 -0.3111
 1131SOL    MW4 4599   2.894   3.850   1.882  0.2708  0.2120 -0.5013
 1132SOL     OW 4600   2.659   3.994   1.954 -0.2877  0.2262 -1.0814
 1132SOL    HW2 4601   2.730   3.943   1.915 -1.1629 -0.0119 -2.4354
 1132SOL    HW3 4602   2.582   3.972   1.900 -1.7608 -0.8259  1.3758
 1132SOL    MW4 4603   2.658   3.984   1.942 -0.5975  0.0563 -0.9358
 1133SOL     OW 4604   2.683   4.268   1.867 -0.3443 -0.2295 -0.0914
 1133SOL    HW2 4605   2.679   4.178   1.900  0.6044 -0.2162  0.0598
 1133SOL    HW3 4606   2.677   4.258   1.772 -1.2822 -0.3778 -0.0269
 1133SOL    MW4 4607   2.681   4.255   1.858 -0.3431 -0.2470 -0.0629
 1134SOL     OW 4608   2.898   4.419   1.964 -0.1357 -0.0271 -0.0526
 1134SOL    HW2 4609   2.916   4.422   2.058  0.3644 -0.0493 -0.1464
 1134SOL    HW3 4610   2.815   4.372   1.957 -0.5795  0.6799  0.4314
 1134SOL    MW4 4611   2.890   4.413   1.976 -0.1283  0.0634 -0.0010
 1135SOL     OW 4612   3.355   4.662   1.937 -0.4640 -0.5480 -0.0263
 1135SOL    HW2 4613   3.340   4.573   1.969 -2.9993 -0.4709 -0.9047
 1135SOL    HW3 4614   3.385   4.651   1.847 -0.3504 -0.5432  0.0115
 1135SOL    MW4 4615   3.357   4.649   1.930 -0.7834 -0.5369 -0.1371
 1136SOL     OW 4616   3.108   0.138   1.961  0.0703  0.5321 -0.4710
 1136SOL    HW2 4617   3.104   0.149   2.056 -2.7111 -2.0531 -0.1967
 1136SOL    HW3 4618   3.192   0.096   1.945  1.7587  3.3671  0.4882
 1136SOL    MW4 4619   3.119   0.134   1.972 -0.0734  0.5651 -0.3082
 1137SOL     OW 4620   3.198   0.386   1.881 -0.1841 -0.4341  0.1052
 1137SOL    HW2 4621   3.174   0.296   1.902 -0.8173 -0.2867  0.0426
 1137SOL    HW3 4622   3.233   0.382   1.792 -0.8806 -0.5141 -0.1691
 1137SOL    MW4 4623   3.199   0.374   1.872 -0.3593 -0.4251  0.0607
 1138SOL     OW 4624   3.412   0.519   2.013  0.3475 -0.3501 -0.5391
 1138SOL    HW2 4625   3.483   0.466   1.978  0.0861  0.6645 -2.7528
 1138SOL    HW3 4626   3.332   0.473   1.988  0.1786 -0.2291 -0.2296
 1138SOL    MW4 4627   3.411   0.506   2.005  0.2906 -0.2003 -0.7904
 1139SOL     OW 4628   3.393   0.773   1.888 -0.2980 -0.5254  0.0698
 1139SOL    HW2 4629   3.306   0.811   1.892  0.0330  0.1269  1.4063
 1139SOL    HW3 4630   3.385   0.689   1.934 -0.0520 -0.0929  0.9252
 1139SOL    MW4 4631   3.381   0.767   1.895 -0.2217 -0.3823  0.3591
 1140SOL     OW 4632   3.128   0.892   1.935 -0.6839  0.0564  0.0823
 1140SOL    HW2 4633   3.138   0.893   2.030 -2.8866  0.5036  0.3434
 1140SOL    HW3 4634   3.142   0.983   1.909 -0.5617  0.0221  0.0266
 1140SOL    MW4 4635   3.131   0.904   1.944 -0.9584  0.1108  0.1094
 1141SOL     OW 4636   3.191   1.147   1.823 -0.0004 -0.1291 -0.0046
 1141SOL    HW2 4637   3.275   1.177   1.858  0.0451 -0.0475 -0.1854
 1141SOL    HW3 4638   3.126   1.192   1.878  0.0668  0.4696 -0.4065
 1141SOL    MW4 4639   3.193   1.157   1.835  0.0148 -0.0396 -0.0815
 1142SOL     OW 4640   3.416   1.271   1.962 -0.0834  0.3389  0.0388
 1142SOL    HW2 4641   3.396   1.285   2.054  1.1616 -0.4714  0.4474
 1142SOL    HW3 4642   3.406   1.357   1.922  0.4422  0.9270  1.1494
 1142SOL    MW4 4643   3.412   1.284   1.969  0.1502  0.3096  0.2393
 1143SOL     OW 4644   3.365   1.533   1.875 -0.2226 -0.0114 -0.3548
 1143SOL    HW2 4645   3.440   1.580   1.910  0.2195 -1.0166  0.0339
 1143SOL    HW3 4646   3.289   1.576   1.916  0.2084 -0.0998  0.5432
 1143SOL    MW4 4647   3.365   1.545   1.885 -0.1073 -0.1557 -0.1851
 1144SOL     OW 4648   3.145   1.708   1.965 -0.2508  0.4763 -0.1003
 1144SOL    HW2 4649   3.139   1.697   2.060  0.1575  0.0156 -0.1268
 1144SOL    HW3 4650   3.137   1.803   1.951  1.1786  0.6965  0.5041
 1144SOL    MW4 4651   3.143   1.719   1.976 -0.0083  0.4447 -0.0241
 1145SOL     OW 4652   3.122   1.966   1.870  0.1584 -0.1380  0.5233
 1145SOL    HW2 4653   3.203   2.007   1.898 -0.6866  1.8088  0.1754
 1145SOL    HW3 4654   3.123   1.971   1.775 -0.6258  0.4225  0.5389
 1145SOL    MW4 4655   3.133   1.972   1.861 -0.0565  0.1926  0.4796
 1146SOL     OW 4656   3.369   2.067   1.932 -0.2502  0.1602  0.2393
 1146SOL    HW2 4657   3.444   2.014   1.906 -0.5625  0.5162 -1.4220
 1146SOL    HW3 4658   3.385   2.153   1.892 -2.1050 -0.1083 -1.1194
 1146SOL    MW4 4659   3.381   2.072   1.924 -0.5357  0.1719 -0.1591
 1147SOL     OW 4660   3.352   2.343   1.824 -0.4288  0.1272 -0.0692
 1147SOL    HW2 4661   3.272   2.387   1.854 -0.1834  0.7102 -0.2712
 1147SOL    HW3 4662   3.358   2.365   1.731  0.5242  0.9406  0.1751
 1147SOL    MW4 4663   3.342   2.352   1.816 -0.2706  0.3116 -0.0637
 1148SOL     OW 4664   3.124   2.467   1.938  0.1201  0.0878 -0.1614
 1148SOL    HW2 4665   3.108   2.464   2.032  3.0515 -2.1778  0.3166
 1148SOL    HW3 4666   3.138   2.560   1.919 -0.1057  0.5184  1.6664
 1148SOL    MW4 4667   3.123   2.479   1.948  0.4771 -0.1547  0.1428
 1149SOL     OW 4668   3.147   2.723   1.819 -0.5141 -0.4640  0.2496
 1149SOL    HW2 4669   3.071   2.769   1.856 -0.5686  0.1775 -0.6465
 1149SOL    HW3 4670   3.131   2.722   1.725  0.9582  0.3674 -0.0307
 1149SOL    MW4 4671   3.135   2.729   1.812 -0.3271 -0.2699  0.0944
 1150SOL     OW 4672   3.367   2.836   1.957 -0.4893 -0.0147 -0.0300
 1150SOL    HW2 4673   3.365   2.820   2.052  1.5431  1.8466  0.3590
 1150SOL    HW3 4674   3.290   2.790   1.924 -0.9596 -1.1258  2.4521
 1150SOL    MW4 4675   3.357   2.828   1.965 -0.2830  0.0844  0.3488
 1151SOL     OW 4676   3.366   3.093   1.884 -0.0788 -0.0894  0.2569
 1151SOL    HW2 4677   3.452   3.130   1.907  0.3117 -0.3030 -0.8407
 1151SOL    HW3 4678   3.373   3.001   1.907 -0.9027  0.3917  2.5789
 1151SOL    MW4 4679   3.378   3.086   1.890 -0.1359 -0.0544  0.4183
 1152SOL     OW 4680   3.132   3.219   1.976 -0.3293  0.3043  0.1149
 1152SOL    HW2 4681   3.142   3.201   2.070 -0.5027 -1.4870 -0.1858
 1152SOL    HW3 4682   3.218   3.204   1.939 -0.2606  1.0167 -0.0267
 1152SOL    MW4 4683   3.144   3.215   1.983 -0.3431  0.1621  0.0565
 1153SOL     OW 4684   3.132   3.474   1.878  0.0824  0.0095 -0.1517
 1153SOL    HW2 4685   3.213   3.512   1.912  0.3016 -0.3119 -0.3078
 1153SOL    HW3 4686   3.128   3.386   1.917  0.0672 -0.1639 -0.5406
 1153SOL    MW4 4687   3.142   3.467   1.888  0.1092 -0.0558 -0.2236
 1154SOL     OW 4688   3.374   3.585   1.997 -0.2708  0.1539 -0.0399
 1154SOL    HW2 4689   3.381   3.607   2.090 -0.1007 -0.7974  0.1786
 1154SOL    HW3 4690   3.357   3.669   1.954  0.6769  0.7537  0.7266
 1154SOL    MW4 4691   3.373   3.599   2.004 -0.1233  0.1070  0.0901
 1155SOL     OW 4692   3.339   3.875   1.885  0.2690  0.2317 -0.6792
 1155SOL    HW2 4693   3.267   3.924   1.923  0.8471  1.3824 -1.0379
 1155SOL    HW3 4694   3.341   3.902   1.793  0.4339 -0.6586 -0.9460
 1155SOL    MW4 4695   3.330   3.885   1.878  0.3669  0.2661 -0.7616
 1156SOL     OW 4696   3.105   4.003   1.994 -0.5743 -0.0152  0.5118
 1156SOL    HW2 4697   3.102   4.003   2.090 -0.4785  0.4742  0.5137
 1156SOL    HW3 4698   3.031   3.947   1.968  0.1660 -1.2073  0.8919
 1156SOL    MW4 4699   3.095   3.995   2.003 -0.4640 -0.1082  0.5622
 1157SOL     OW 4700   3.137   4.266   1.907 -0.5509  0.2771  0.5322
 1157SOL    HW2 4701   3.126   4.180   1.947  1.1356 -0.5184 -0.6441
 1157SOL    HW3 4702   3.051   4.308   1.915 -1.7679 -2.0303 -0.0831
 1157SOL    MW4 4703   3.124   4.261   1.914 -0.4890 -0.1316  0.2960
 1158SOL     OW 4704   3.371   4.388   2.013 -0.5880  0.5429  0.2774
 1158SOL    HW2 4705   3.443   4.339   1.974 -0.0530  1.5847 -0.0703
 1158SOL    HW3 4706   3.292   4.343   1.982 -0.0912 -0.5824  0.6415
 1158SOL    MW4 4707   3.370   4.375   2.004 -0.4520  0.5326  0.2797
 1159SOL     OW 4708   3.804   0.026   1.918 -0.3287  0.0749 -0.2294
 1159SOL    HW2 4709   3.800  -0.066   1.945 -0.3032  0.3420  0.7131
 1159SOL    HW3 4710   3.726   0.065   1.958 -0.1362  0.5446 -0.3167
 1159SOL    MW4 4711   3.793   0.019   1.927 -0.2997  0.1722 -0.1167
 1160SOL     OW 4712   3.576   0.141   2.015 -0.2230 -0.0878 -0.4504
 1160SOL    HW2 4713   3.581   0.146   2.110 -0.5854 -0.0261 -0.4348
 1160SOL    HW3 4714   3.498   0.088   1.997  0.4889 -1.0724 -0.7015
 1160SOL    MW4 4715   3.566   0.135   2.025 -0.1769 -0.2095 -0.4814
 1161SOL     OW 4716   3.619   0.385   1.902  0.1272  0.2433 -0.1046
 1161SOL    HW2 4717   3.606   0.299   1.941 -0.7526  0.2245 -0.4326
 1161SOL    HW3 4718   3.639   0.366   1.810 -0.4532  0.4008 -0.2661
 1161SOL    MW4 4719   3.620   0.371   1.895 -0.0653  0.2616 -0.1692
 1162SOL     OW 4720   3.836   0.513   1.998  0.0761  0.3607 -0.1228
 1162SOL    HW2 4721   3.849   0.597   1.954  0.0069 -0.3441 -1.5195
 1162SOL    HW3 4722   3.758   0.476   1.957  0.1184 -0.4039  0.4629
 1162SOL    MW4 4723   3.827   0.519   1.987  0.0722  0.1668 -0.2300
 1163SOL     OW 4724   3.860   0.775   1.918  0.3029 -0.3429 -0.2197
 1163SOL    HW2 4725   3.784   0.819   1.956  0.1800 -1.4102  0.8096
 1163SOL    HW3 4726   3.842   0.771   1.824 -0.0020  1.1595 -0.2289
 1163SOL    MW4 4727   3.848   0.780   1.910  0.2463 -0.2854 -0.0854
 1164SOL     OW 4728   3.624   0.904   2.010 -0.2432  0.2338  0.1273
 1164SOL    HW2 4729   3.615   0.984   1.959 -0.8339  0.8281  1.1530
 1164SOL    HW3 4730   3.552   0.849   1.981 -0.2323  0.3386 -0.0954
 1164SOL    MW4 4731   3.613   0.907   2.000 -0.3195  0.3260  0.2334
 1165SOL     OW 4732   3.650   1.189   1.867 -0.0192  0.2757 -0.0144
 1165SOL    HW2 4733   3.572   1.227   1.908 -0.3795 -0.4190 -0.0460
 1165SOL    HW3 4734   3.628   1.186   1.774  0.6955  1.6047 -0.2421
 1165SOL    MW4 4735   3.637   1.194   1.860  0.0277  0.3594 -0.0486
 1166SOL     OW 4736   3.852   1.308   1.989  0.5786 -0.4446 -0.4127
 1166SOL    HW2 4737   3.830   1.303   2.082 -0.2414 -0.9442 -0.6279
 1166SOL    HW3 4738   3.781   1.261   1.945  0.0296  1.2966 -1.4358
 1166SOL    MW4 4739   3.840   1.301   1.996  0.3982 -0.2807 -0.5760
 1167SOL     OW 4740   3.830   1.567   1.881  0.0154 -0.0991 -0.0410
 1167SOL    HW2 4741   3.886   1.627   1.931  0.6839 -0.3287 -0.4974
 1167SOL    HW3 4742   3.841   1.483   1.924  0.8276 -0.3610 -0.7487
 1167SOL    MW4 4743   3.839   1.564   1.893  0.2105 -0.1639 -0.1945
 1168SOL     OW 4744   3.591   1.668   1.972 -0.7044  0.4526  0.3464
 1168SOL    HW2 4745   3.606   1.752   1.929 -0.6869  1.6964  2.6589
 1168SOL    HW3 4746   3.670   1.617   1.953 -0.4381  1.1861 -0.5627
 1168SOL    MW4 4747   3.604   1.672   1.964 -0.6669  0.7135  0.5316
 1169SOL     OW 4748   3.607   1.920   1.871  0.1256  0.2299  0.1732
 1169SOL    HW2 4749   3.678   1.960   1.920  0.1715 -0.6594  0.8379
 1169SOL    HW3 4750   3.635   1.926   1.780  0.0803  1.8056  0.2324
 1169SOL    MW4 4751   3.620   1.926   1.866  0.1261  0.3206  0.2687
 1170SOL     OW 4752   3.823   2.040   1.974  0.5031  0.3054  0.4255
 1170SOL    HW2 4753   3.908   2.023   1.933  1.1371 -0.2079  1.9215
 1170SOL    HW3 4754   3.806   2.132   1.957  1.1130  0.2909 -0.3155
 1170SOL    MW4 4755   3.832   2.050   1.966  0.6673  0.2358  0.5251
 1171SOL     OW 4756   3.779   2.320   1.857 -0.0223 -0.1032 -0.0956
 1171SOL    HW2 4757   3.855   2.367   1.890  0.6972 -0.5620 -1.0624
 1171SOL    HW3 4758   3.705   2.358   1.904  0.6004  1.5763 -0.4288
 1171SOL    MW4 4759   3.779   2.331   1.867  0.1547  0.0582 -0.2671
 1172SOL     OW 4760   3.565   2.436   1.972  0.3979  0.1387  0.2239
 1172SOL    HW2 4761   3.583   2.525   1.942  0.4900 -0.0245 -0.2086
 1172SOL    HW3 4762   3.479   2.414   1.935  0.0696  0.2945  0.8887
 1172SOL    MW4 4763   3.556   2.445   1.963  0.3667  0.1376  0.2545
 1173SOL     OW 4764   3.577   2.676   1.830  0.1709 -0.0944  0.4799
 1173SOL    HW2 4765   3.661   2.709   1.862 -0.3132  0.6406  0.9976
 1173SOL    HW3 4766   3.511   2.726   1.879 -0.5670 -0.2430 -0.3532
 1173SOL    MW4 4767   3.579   2.687   1.841  0.0098 -0.0174  0.4382
 1174SOL     OW 4768   3.780   2.796   1.998  0.9648  0.5771  0.3797
 1174SOL    HW2 4769   3.791   2.786   2.093  1.4029 -0.0522  0.2591
 1174SOL    HW3 4770   3.801   2.888   1.982 -0.6276  1.0839  1.1074
 1174SOL    MW4 4771   3.784   2.807   2.009  0.8125  0.5610  0.4599
 1175SOL     OW 4772   3.859   3.061   1.920 -0.1840 -0.5545  0.4328
 1175SOL    HW2 4773   3.774   3.095   1.948 -0.1162  0.3546 -0.4318
 1175SOL    HW3 4774   3.852   3.054   1.824  0.5631 -0.9034  0.3983
 1175SOL    MW4 4775   3.847   3.064   1.911 -0.0763 -0.4807  0.3141
 1176SOL     OW 4776   3.605   3.178   1.965  0.5522 -0.2056  0.5007
 1176SOL    HW2 4777   3.586   3.178   2.058  0.0062 -0.2582  0.3911
 1176SOL    HW3 4778   3.610   3.271   1.941 -1.5730 -0.1655  0.1328
 1176SOL    MW4 4779   3.603   3.190   1.974  0.1998 -0.2072  0.4377
 1177SOL     OW 4780   3.589   3.445   1.931 -0.1156  0.3117 -0.0504
 1177SOL    HW2 4781   3.650   3.517   1.946 -1.2277  1.2554  0.0329
 1177SOL    HW3 4782   3.505   3.479   1.961 -0.7230 -0.8969 -0.3595
 1177SOL    MW4 4783   3.586   3.459   1.937 -0.3421  0.2768 -0.0801
 1178SOL     OW 4784   3.811   3.601   1.950  0.1262  0.5140 -0.2057
 1178SOL    HW2 4785   3.892   3.558   1.924 -0.2544 -0.7871  0.6754
 1178SOL    HW3 4786   3.827   3.694   1.936  2.0864  0.3476  0.8068
 1178SOL    MW4 4787   3.824   3.607   1.945  0.3345  0.3202  0.0441
 1179SOL     OW 4788   3.843   3.869   1.902 -0.0308 -0.5241 -0.1813
 1179SOL    HW2 4789   3.751   3.876   1.929  0.0773 -0.5069  0.1842
 1179SOL    HW3 4790   3.839   3.858   1.807 -0.3711  0.4436 -0.2839
 1179SOL    MW4 4791   3.830   3.869   1.893 -0.0613 -0.3943 -0.1465
 1180SOL     OW 4792   3.579   3.971   1.949 -0.1643  0.3301  0.2704
 1180SOL    HW2 4793   3.563   3.997   2.040 -0.9299 -0.6999  0.4430
 1180SOL    HW3 4794   3.495   3.936   1.920  0.1140  0.5455 -0.8076
 1180SOL    MW4 4795   3.566   3.970   1.957 -0.2286  0.2224  0.1509
 1181SOL     OW 4796   3.571   4.229   1.899 -0.4692 -0.4612 -0.5543
 1181SOL    HW2 4797   3.653   4.266   1.930 -0.5818 -0.5540 -0.1370
 1181SOL    HW3 4798   3.579   4.135   1.916 -1.0851 -0.3418  0.4934
 1181SOL    MW4 4799   3.583   4.222   1.905 -0.5653 -0.4578 -0.3612
 1182SOL     OW 4800   3.787   4.414   1.980  0.2127 -0.0655 -0.0899
 1182SOL    HW2 4801   3.799   4.427   2.074 -0.8020  0.5108 -0.0422
 1182SOL    HW3 4802   3.860   4.357   1.955  2.0459  1.9003  0.5580
 1182SOL    MW4 4803   3.798   4.408   1.989  0.3211  0.2699  0.0017
 1183SOL     OW 4804   4.293   4.660   1.899 -0.4076  0.3975 -0.1962
 1183SOL    HW2 4805   4.219   4.716   1.923  0.9003  2.8117 -1.6028
 1183SOL    HW3 4806   4.366   4.695   1.950  0.7241  0.8613 -2.1016
 1183SOL    MW4 4807   4.293   4.672   1.909 -0.0854  0.7768 -0.6332
 1184SOL     OW 4808   4.057   0.131   1.999  0.3156  0.0876 -0.8486
 1184SOL    HW2 4809   4.063   0.139   2.095  0.4505 -0.6813 -0.7921
 1184SOL    HW3 4810   3.968   0.099   1.983 -0.0010  1.0524 -1.0357
 1184SOL    MW4 4811   4.046   0.128   2.010  0.2913  0.1135 -0.8657
 1185SOL     OW 4812   4.069   0.396   1.915  0.4653  0.2513  0.0708
 1185SOL    HW2 4813   4.061   0.304   1.938 -0.2319  0.2548 -0.1498
 1185SOL    HW3 4814   3.989   0.436   1.949 -0.3727  0.3382 -1.9380
 1185SOL    MW4 4815   4.057   0.389   1.922  0.2627  0.2632 -0.2234
 1186SOL     OW 4816   4.305   0.522   2.022 -0.1846 -0.7103 -0.1473
 1186SOL    HW2 4817   4.294   0.538   2.116 -0.9481  2.2922 -0.6997
 1186SOL    HW3 4818   4.231   0.467   1.998 -0.4131 -0.8464  0.8438
 1186SOL    MW4 4819   4.294   0.517   2.031 -0.3152 -0.3321 -0.0892
 1187SOL     OW 4820   4.294   0.780   1.928  0.1844  0.2252 -0.0162
 1187SOL    HW2 4821   4.291   0.687   1.949  0.5971  0.3883  0.7938
 1187SOL    HW3 4822   4.279   0.784   1.834 -0.4984 -0.6079  0.0526
 1187SOL    MW4 4823   4.292   0.768   1.918  0.1488  0.1368  0.0998
 1188SOL     OW 4824   4.079   0.917   2.021  0.2218  0.1983 -0.0419
 1188SOL    HW2 4825   4.163   0.880   1.995 -0.3960 -0.6057 -0.8931
 1188SOL    HW3 4826   4.014   0.868   1.971 -0.9032 -0.5212  2.0458
 1188SOL    MW4 4827   4.082   0.906   2.011 -0.0086 -0.0027  0.1214
 1189SOL     OW 4828   4.079   1.168   1.905 -0.1609 -0.0576  0.6367
 1189SOL    HW2 4829   4.071   1.082   1.947 -0.2487 -0.4303 -0.1338
 1189SOL    HW3 4830   4.006   1.219   1.941 -1.4683 -1.0309 -0.6210
 1189SOL    MW4 4831   4.068   1.163   1.916 -0.3452 -0.2352  0.3692
 1190SOL     OW 4832   4.297   1.298   2.006 -0.3055 -0.2175 -0.3398
 1190SOL    HW2 4833   4.291   1.294   2.102  0.1194  2.0466 -0.1947
 1190SOL    HW3 4834   4.222   1.248   1.976 -1.0101 -0.1294  1.2018
 1190SOL    MW4 4835   4.286   1.291   2.015 -0.3424  0.0929 -0.1171
 1191SOL     OW 4836   4.206   1.573   1.919 -0.1975 -0.3463  0.0486
 1191SOL    HW2 4837   4.224   1.480   1.936  0.6404 -0.3979 -1.0147
 1191SOL    HW3 4838   4.210   1.580   1.824  0.5509  0.9307  0.1696
 1191SOL    MW4 4839   4.209   1.561   1.909  0.0119 -0.1847 -0.0756
 1192SOL     OW 4840   3.997   1.734   1.998 -0.0643 -0.4333 -0.2846
 1192SOL    HW2 4841   4.011   1.729   2.092 -0.1856  0.1807 -0.2306
 1192SOL    HW3 4842   4.055   1.668   1.961 -1.1625 -1.7673  0.3234
 1192SOL    MW4 4843   4.006   1.725   2.005 -0.2255 -0.5283 -0.1972
 1193SOL     OW 4844   4.081   1.963   1.872  0.1193 -0.5913 -0.3104
 1193SOL    HW2 4845   4.071   1.877   1.913  2.0145 -0.3071  0.7740
 1193SOL    HW3 4846   4.101   1.944   1.780 -0.0595 -1.2753 -0.2116
 1193SOL    MW4 4847   4.082   1.949   1.865  0.3457 -0.6441 -0.1541
 1194SOL     OW 4848   4.285   2.113   1.978  0.1774 -0.1065  0.1486
 1194SOL    HW2 4849   4.298   2.096   2.071 -0.3606 -0.2626  0.1991
 1194SOL    HW3 4850   4.208   2.061   1.955  0.7060 -0.5966 -0.5367
 1194SOL    MW4 4851   4.277   2.104   1.987  0.1760 -0.1919  0.0648
 1195SOL     OW 4852   4.276   2.364   1.857  0.0963  0.3964 -0.5964
 1195SOL    HW2 4853   4.272   2.275   1.893  0.2629  0.6457  0.0523
 1195SOL    HW3 4854   4.357   2.400   1.892 -0.3426  1.0539 -0.2475
 1195SOL    MW4 4855   4.286   2.357   1.866  0.0606  0.5159 -0.4648
 1196SOL     OW 4856   4.031   2.400   1.977  0.0721  0.2380 -0.1910
 1196SOL    HW2 4857   4.038   2.392   2.072 -0.6536  1.4865 -0.0225
 1196SOL    HW3 4858   4.121   2.387   1.945  0.5191  0.9218  0.7534
 1196SOL    MW4 4859   4.044   2.398   1.985  0.0353  0.4930 -0.0442
 1197SOL     OW 4860   4.053   2.661   1.869  0.0198  0.0272 -0.3674
 1197SOL    HW2 4861   4.057   2.577   1.914  0.4527 -0.1057 -0.6579
 1197SOL    HW3 4862   3.967   2.696   1.893 -0.0847 -0.4083 -0.0917
 1197SOL    MW4 4863   4.042   2.654   1.878  0.0629 -0.0477 -0.3695
 1198SOL     OW 4864   4.272   2.815   1.993 -0.3356  0.3411  0.2497
 1198SOL    HW2 4865   4.263   2.815   2.088 -0.3841 -1.9503  0.2552
 1198SOL    HW3 4866   4.195   2.770   1.960 -1.1166  2.4926 -0.9992
 1198SOL    MW4 4867   4.261   2.809   2.001 -0.4449  0.3228  0.0854
 1199SOL     OW 4868   4.292   3.078   1.910  0.3516  0.0812  0.0365
 1199SOL    HW2 4869   4.214   3.124   1.939 -0.4263 -0.5588 -1.0286
 1199SOL    HW3 4870   4.285   2.991   1.950  0.0083 -0.3167 -0.8905
 1199SOL    MW4 4871   4.281   3.072   1.919  0.2041 -0.0558 -0.2263
 1200SOL     OW 4872   4.067   3.214   2.011  0.0591  0.5278  0.0321
 1200SOL    HW2 4873   4.065   3.225   2.106 -1.0699  0.2765  0.0489
 1200SOL    HW3 4874   3.984   3.171   1.990  0.3595  0.4567 -1.0518
 1200SOL    MW4 4875   4.056   3.210   2.021 -0.0501  0.4854 -0.1087
 1201SOL     OW 4876   4.063   3.470   1.889  0.3578 -0.4973 -0.1168
 1201SOL    HW2 4877   4.124   3.520   1.943 -0.7608  0.7452  0.0191
 1201SOL    HW3 4878   4.065   3.381   1.926 -1.4016  0.6236  2.8951
 1201SOL    MW4 4879   4.071   3.465   1.901 -0.0224 -0.1857  0.2985
 1202SOL     OW 4880   4.273   3.597   2.009 -0.6028  0.2064 -0.1005
 1202SOL    HW2 4881   4.267   3.690   1.988  0.8393  0.6042  1.1373
 1202SOL    HW3 4882   4.358   3.570   1.976 -1.1512 -0.7690 -0.7457
 1202SOL    MW4 4883   4.283   3.606   2.002 -0.4849  0.1302 -0.0224
 1203SOL     OW 4884   4.254   3.865   1.948 -0.4339 -0.1731 -0.2268
 1203SOL    HW2 4885   4.334   3.909   1.978 -0.7550  0.1948  0.0959
 1203SOL    HW3 4886   4.255   3.875   1.853  0.5906 -1.3406 -0.3604
 1203SOL    MW4 4887   4.265   3.872   1.940 -0.3414 -0.2785 -0.2019
 1204SOL     OW 4888   4.038   4.017   2.012 -0.1198 -0.1193 -0.2153
 1204SOL    HW2 4889   4.119   3.967   2.013  0.9438  1.5707  1.0522
 1204SOL    HW3 4890   3.973   3.957   1.975  1.8611 -1.2259 -2.0127
 1204SOL    MW4 4891   4.040   4.002   2.008  0.2818 -0.0424 -0.2851
 1205SOL     OW 4892   3.990   4.252   1.876  0.3912  0.0400  0.1082
 1205SOL    HW2 4893   4.059   4.311   1.905  0.7537  0.1529 -0.9737
 1205SOL    HW3 4894   3.997   4.176   1.934  0.9383  0.3600  0.4690
 1205SOL    MW4 4895   4.000   4.250   1.888  0.5112  0.0968  0.0131
 1206SOL     OW 4896   4.215   4.404   1.989  0.5131  0.4894 -0.4036
 1206SOL    HW2 4897   4.235   4.409   2.082 -2.5444  1.6090  0.2857
 1206SOL    HW3 4898   4.219   4.495   1.959 -0.6037  0.4052 -0.8473
 1206SOL    MW4 4899   4.218   4.417   1.997 -0.0372  0.6261 -0.3711
 1207SOL     OW 4900   0.207   4.656   2.381  0.1251  0.3764 -0.2463
 1207SOL    HW2 4901   0.225   4.659   2.475  0.5507  0.7664 -0.3357
 1207SOL    HW3 4902   0.279   4.706   2.341 -0.3772  0.7228 -0.7292
 1207SOL    MW4 4903   0.219   4.663   2.388  0.1150  0.4735 -0.3219
 1208SOL     OW 4904   4.454   0.132   2.298 -0.1000 -0.2631 -0.4445
 1208SOL    HW2 4905   4.525   0.082   2.338 -0.4999 -0.2080  0.3442
 1208SOL    HW3 4906   4.480   0.142   2.206  0.2914 -1.3460 -0.4557
 1208SOL    MW4 4907   4.467   0.127   2.291 -0.1016 -0.3987 -0.3421
 1209SOL     OW 4908   0.013   0.366   2.416 -0.2262 -0.1984  0.6827
 1209SOL    HW2 4909   0.098   0.392   2.380  0.3575 -1.5097  1.0943
 1209SOL    HW3 4910  -0.011   0.288   2.366 -1.7272  0.8055 -0.1927
 1209SOL    MW4 4911   0.021   0.359   2.405 -0.3472 -0.2389  0.6218
 1210SOL     OW 4912   0.239   0.461   2.299  0.0043 -0.3473 -0.3936
 1210SOL    HW2 4913   0.317   0.413   2.328 -0.5558 -1.3637 -0.5777
 1210SOL    HW3 4914   0.256   0.479   2.207  0.9116  1.1919  0.0473
 1210SOL    MW4 4915   0.252   0.457   2.291  0.0502 -0.2784 -0.3598
 1211SOL     OW 4916   0.285   0.734   2.351 -0.0901 -0.5461 -0.1787
 1211SOL    HW2 4917   0.262   0.736   2.444 -0.2430  1.8592 -0.2290
 1211SOL    HW3 4918   0.265   0.645   2.323 -0.3221 -1.2177  2.0154
 1211SOL    MW4 4919   0.279   0.723   2.359 -0.1409 -0.3174  0.1042
 1212SOL     OW 4920   0.026   0.841   2.325  0.0159  0.2427  0.0697
 1212SOL    HW2 4921   0.112   0.809   2.352  0.2011 -0.2141 -1.0513
 1212SOL    HW3 4922   0.031   0.847   2.230 -0.6309  1.8304  0.1141
 1212SOL    MW4 4923   0.038   0.838   2.316 -0.0450  0.3920 -0.0722
 1213SOL     OW 4924   4.488   1.109   2.382 -0.3639 -0.4516  0.2483
 1213SOL    HW2 4925   4.477   1.122   2.476 -0.6583 -0.2961  0.1941
 1213SOL    HW3 4926   4.512   1.017   2.373  1.8312  0.0480  0.6523
 1213SOL    MW4 4927   4.490   1.099   2.393 -0.1132 -0.3651  0.2942
 1214SOL     OW 4928   0.183   1.269   2.235  0.4415  0.0158  0.1585
 1214SOL    HW2 4929   0.105   1.221   2.265  0.3874  0.6942  1.1112
 1214SOL    HW3 4930   0.178   1.265   2.139 -0.3631 -0.5906  0.2187
 1214SOL    MW4 4931   0.172   1.262   2.226  0.3282  0.0253  0.2923
 1215SOL     OW 4932   0.215   1.530   2.353 -0.2380 -0.0548  0.0938
 1215SOL    HW2 4933   0.218   1.530   2.448 -1.0141 -0.1239  0.1178
 1215SOL    HW3 4934   0.213   1.438   2.329  0.2175 -0.0419  0.0005
 1215SOL    MW4 4935   0.215   1.518   2.362 -0.2803 -0.0621  0.0846
 1216SOL     OW 4936   4.478   1.664   2.259  0.5096 -0.0695 -0.1155
 1216SOL    HW2 4937   4.488   1.758   2.278 -0.3745 -0.4235  2.2368
 1216SOL    HW3 4938   4.557   1.624   2.295  0.4536 -0.3422 -0.2968
 1216SOL    MW4 4939   4.489   1.671   2.266  0.3858 -0.1522  0.1709
 1217SOL     OW 4940   4.491   1.941   2.355 -0.2635 -0.3113 -0.0465
 1217SOL    HW2 4941   4.412   1.982   2.320  0.0838  0.0941 -0.3501
 1217SOL    HW3 4942   4.563   1.992   2.318  0.1016  0.1579  1.2787
 1217SOL    MW4 4943   4.490   1.953   2.346 -0.1695 -0.1959  0.0882
 1218SOL     OW 4944   0.223   2.081   2.223  0.0092 -0.2693 -0.4170
 1218SOL    HW2 4945   0.290   2.030   2.269  1.3893  0.4619 -1.5610
 1218SOL    HW3 4946   0.244   2.069   2.130 -2.4525 -1.3458 -0.8735
 1218SOL    MW4 4947   0.234   2.073   2.217 -0.1335 -0.3150 -0.6280
 1219SOL     OW 4948   0.218   2.342   2.306 -0.0067  0.1217 -0.0185
 1219SOL    HW2 4949   0.218   2.336   2.401  1.2350 -0.2821 -0.0409
 1219SOL    HW3 4950   0.217   2.251   2.276  0.9311  0.2301 -0.3873
 1219SOL    MW4 4951   0.218   2.329   2.315  0.2808  0.0827 -0.0701
 1220SOL     OW 4952   4.476   2.483   2.259 -0.0320 -0.6735  0.2481
 1220SOL    HW2 4953   4.503   2.573   2.278 -0.1477 -0.6421  0.2602
 1220SOL    HW3 4954   4.550   2.429   2.287  0.1187 -0.5673  0.0603
 1220SOL    MW4 4955   4.489   2.488   2.265 -0.0267 -0.6554  0.2248
 1221SOL     OW 4956   4.485   2.742   2.384 -0.3436  0.7432  0.2899
 1221SOL    HW2 4957   4.481   2.729   2.479 -1.2028 -1.4682 -0.0079
 1221SOL    HW3 4958   4.568   2.786   2.369  1.5995 -2.2361  1.7410
 1221SOL    MW4 4959   4.495   2.746   2.395 -0.2007  0.0582  0.4420
 1222SOL     OW 4960   0.201   2.890   2.292  0.2221  0.3016  0.0823
 1222SOL    HW2 4961   0.286   2.848   2.308  1.0481  1.3368 -1.4315
 1222SOL    HW3 4962   0.188   2.881   2.198 -1.6132 -0.3188  0.3886
 1222SOL    MW4 4963   0.211   2.883   2.282  0.0890  0.3564 -0.0770
 1223SOL     OW 4964   0.183   3.151   2.385  0.0972 -0.0822  0.1167
 1223SOL    HW2 4965   0.109   3.194   2.340  0.3141  0.5379  0.3384
 1223SOL    HW3 4966   0.193   3.068   2.340  0.0901  0.3839 -0.7632
 1223SOL    MW4 4967   0.174   3.146   2.373  0.1249  0.0610  0.0300
 1224SOL     OW 4968   4.459   3.268   2.268  0.1779 -0.0871  0.1809
 1224SOL    HW2 4969   4.457   3.357   2.304  0.0226  0.0159 -0.0849
 1224SOL    HW3 4970   4.463   3.281   2.173 -1.6848 -0.3821  0.0548
 1224SOL    MW4 4971   4.459   3.282   2.260 -0.0877 -0.1125  0.1290
 1225SOL     OW 4972   0.001   3.531   2.382 -0.2365 -0.4460 -0.6378
 1225SOL    HW2 4973   0.012   3.520   2.476  1.1486  3.1638 -0.3005
 1225SOL    HW3 4974  -0.085   3.570   2.372  0.3051  0.7406 -0.7156
 1225SOL    MW4 4975  -0.009   3.535   2.393  0.0176  0.1867 -0.6037
 1226SOL     OW 4976   0.229   3.661   2.273  0.3256 -0.4982  0.0090
 1226SOL    HW2 4977   0.299   3.613   2.317  1.0330  1.6489  1.3478
 1226SOL    HW3 4978   0.149   3.619   2.303  0.9643 -1.9453 -0.2574
 1226SOL    MW4 4979   0.228   3.649   2.283  0.5032 -0.4058  0.1504
 1227SOL     OW 4980   0.197   3.897   2.416 -0.2129  0.1436  0.4116
 1227SOL    HW2 4981   0.129   3.926   2.356 -1.9840 -0.4469  2.1082
 1227SOL    HW3 4982   0.223   3.811   2.382  1.8627  1.6222 -1.9751
 1227SOL    MW4 4983   0.192   3.889   2.403 -0.1727  0.2606  0.3204
 1228SOL     OW 4984   0.000   4.015   2.272  0.2274 -0.2009 -0.2250
 1228SOL    HW2 4985   0.005   4.109   2.290  0.6413 -0.4193  0.8246
 1228SOL    HW3 4986   0.017   4.008   2.178 -0.6986  0.8434 -0.4845
 1228SOL    MW4 4987   0.003   4.027   2.262  0.1593 -0.0916 -0.1206
 1229SOL     OW 4988   0.025   4.310   2.316  0.1442 -0.1663  0.3735
 1229SOL    HW2 4989   0.024   4.291   2.410  1.2175  1.1660  0.6657
 1229SOL    HW3 4990   0.112   4.345   2.300 -0.5327  1.0276 -0.8238
 1229SOL    MW4 4991   0.036   4.312   2.327  0.1965  0.1664  0.2539
 1230SOL     OW 4992   0.279   4.387   2.242  0.0699 -0.2907 -0.0631
 1230SOL    HW2 4993   0.351   4.339   2.284  0.0375  0.4943  0.9270
 1230SOL    HW3 4994   0.279   4.472   2.286 -0.9474  0.0051 -0.6235
 1230SOL    MW4 4995   0.289   4.392   2.254 -0.0686 -0.1483 -0.0067
 1231SOL     OW 4996   0.712   4.639   2.351 -0.1071 -0.1066 -0.5985
 1231SOL    HW2 4997   0.704   4.642   2.446 -1.7050 -1.8069 -0.6525
 1231SOL    HW3 4998   0.779   4.704   2.331  0.0017  0.5294  1.6509
 1231SOL    MW4 4999   0.720   4.648   2.361 -0.3036 -0.2470 -0.3090
 1232SOL     OW 5000   0.465   0.078   2.259  0.3976 -0.1052  0.3379
 1232SOL    HW2 5001   0.538   0.017   2.273 -0.0022 -0.5357  0.5655
 1232SOL    HW3 5002   0.454   0.082   2.164 -0.2419 -1.1842  0.3647
 1232SOL    MW4 5003   0.473   0.071   2.249  0.2604 -0.3044  0.3715
 1233SOL     OW 5004   0.475   0.328   2.376  0.3263  0.4773 -0.6606
 1233SOL    HW2 5005   0.467   0.328   2.471 -0.1093  0.8154 -0.6936
 1233SOL    HW3 5006   0.474   0.236   2.352 -1.2898  0.4276 -0.4661
 1233SOL    MW4 5007   0.473   0.316   2.385  0.0556  0.5153 -0.6392
 1234SOL     OW 5008   0.645   0.487   2.235  0.4667 -0.3838  0.0907
 1234SOL    HW2 5009   0.658   0.573   2.275  2.8690 -0.5253 -0.3322
 1234SOL    HW3 5010   0.587   0.441   2.296 -1.7803  1.8660 -0.2152
 1234SOL    MW4 5011   0.639   0.492   2.248  0.4871 -0.1056 -0.0052
 1235SOL     OW 5012   0.667   0.749   2.369  0.2353 -0.0703  0.1056
 1235SOL    HW2 5013   0.676   0.761   2.464 -0.2113 -1.0179  0.2673
 1235SOL    HW3 5014   0.598   0.810   2.344 -0.2825 -0.4809  0.5297
 1235SOL    MW4 5015   0.659   0.759   2.379  0.1081 -0.2496  0.1829
 1236SOL     OW 5016   0.480   0.912   2.255 -0.6120 -0.1192 -0.3998
 1236SOL    HW2 5017   0.410   0.852   2.280  1.2011 -1.5746  1.3415
 1236SOL    HW3 5018   0.476   0.915   2.159 -2.1540 -1.2594 -0.3912
 1236SOL    MW4 5019   0.470   0.905   2.245 -0.5762 -0.4616 -0.1688
 1237SOL     OW 5020   0.395   1.152   2.392  0.4052  0.3647  0.1689
 1237SOL    HW2 5021   0.420   1.071   2.347  1.0325  0.1362  0.9208
 1237SOL    HW3 5022   0.322   1.187   2.340  0.1448 -0.6711 -0.1702
 1237SOL    MW4 5023   0.389   1.146   2.379  0.4537  0.1979  0.2234
 1238SOL     OW 5024   0.648   1.260   2.271 -0.0285  0.0496 -0.6390
 1238SOL    HW2 5025   0.644   1.353   2.296  1.0104  0.2170 -1.0819
 1238SOL    HW3 5026   0.578   1.219   2.322  1.2224  0.6172  1.6012
 1238SOL    MW4 5027   0.638   1.267   2.281  0.2736  0.1465 -0.4020
 1239SOL     OW 5028   0.637   1.523   2.351  0.1494 -0.1149  0.0006
 1239SOL    HW2 5029   0.637   1.526   2.446  0.7759 -0.5332  0.0244
 1239SOL    HW3 5030   0.712   1.576   2.325 -0.4850  0.6423 -0.2906
 1239SOL    MW4 5031   0.647   1.530   2.360  0.1483 -0.0702 -0.0350
 1240SOL     OW 5032   0.429   1.676   2.270  0.0929 -0.1081  0.2036
 1240SOL    HW2 5033   0.506   1.623   2.290 -0.5042 -0.4651  1.5726
 1240SOL    HW3 5034   0.355   1.623   2.300 -0.6385  0.6196 -0.3005
 1240SOL    MW4 5035   0.429   1.662   2.276 -0.0824 -0.0592  0.3176
 1241SOL     OW 5036   0.434   1.946   2.366  0.3968  0.4333  0.0141
 1241SOL    HW2 5037   0.516   1.989   2.344  0.4260 -0.0514 -0.8600
 1241SOL    HW3 5038   0.447   1.855   2.339 -0.3103  0.2840  0.1669
 1241SOL    MW4 5039   0.447   1.939   2.360  0.3074  0.3496 -0.0813
 1242SOL     OW 5040   0.669   2.065   2.269 -0.5788 -0.2311  0.1627
 1242SOL    HW2 5041   0.757   2.033   2.290 -0.6532 -0.4745  0.0953
 1242SOL    HW3 5042   0.668   2.154   2.304 -0.1072 -0.0263 -0.3262
 1242SOL    MW4 5043   0.681   2.073   2.276 -0.5264 -0.2363  0.0892
 1243SOL     OW 5044   0.690   2.332   2.351 -0.0055  0.0984 -0.2547
 1243SOL    HW2 5045   0.678   2.334   2.446  1.9287 -1.4080  0.0558
 1243SOL    HW3 5046   0.760   2.396   2.334 -0.6343  0.6654 -0.7168
 1243SOL    MW4 5047   0.698   2.341   2.361  0.1668 -0.0253 -0.2747
 1244SOL     OW 5048   0.456   2.508   2.288  0.0787  0.4739  0.1326
 1244SOL    HW2 5049   0.514   2.450   2.337 -0.0439  1.1184  1.0642
 1244SOL    HW3 5050   0.370   2.466   2.293  0.3109 -0.0886 -0.5876
 1244SOL    MW4 5051   0.453   2.495   2.295  0.0932  0.4849  0.1602
 1245SOL     OW 5052   0.438   2.766   2.344  0.1726 -0.5880 -0.1275
 1245SOL    HW2 5053   0.443   2.768   2.440 -0.7528  0.2259 -0.0899
 1245SOL    HW3 5054   0.439   2.673   2.321  1.0882 -0.7748  0.6270
 1245SOL    MW4 5055   0.439   2.754   2.354  0.1713 -0.5054 -0.0234
 1246SOL     OW 5056   0.676   2.859   2.226  0.1312  0.0008 -0.4368
 1246SOL    HW2 5057   0.733   2.832   2.298  0.5599  3.2656  0.5201
 1246SOL    HW3 5058   0.590   2.827   2.251  0.8226 -1.5798  0.0001
 1246SOL    MW4 5059   0.672   2.851   2.238  0.2789  0.2229 -0.2530
 1247SOL     OW 5060   0.645   3.098   2.356 -0.2511 -0.0589 -0.0893
 1247SOL    HW2 5061   0.561   3.136   2.330 -0.5819 -0.5790  0.2139
 1247SOL    HW3 5062   0.647   3.012   2.316 -0.3375 -0.4758  0.7810
 1247SOL    MW4 5063   0.634   3.092   2.347 -0.3062 -0.1826  0.0656
 1248SOL     OW 5064   0.410   3.242   2.287  0.6036 -0.1162  0.3243
 1248SOL    HW2 5065   0.321   3.221   2.315  0.6888 -0.5953  0.2381
 1248SOL    HW3 5066   0.407   3.238   2.192  0.6165  0.2904  0.3042
 1248SOL    MW4 5067   0.398   3.239   2.278  0.6165 -0.1259  0.3102
 1249SOL     OW 5068   0.426   3.490   2.383  0.5153  0.2072 -0.2086
 1249SOL    HW2 5069   0.510   3.526   2.353  0.8656  0.4795  1.0789
 1249SOL    HW3 5070   0.428   3.399   2.356  1.7697 -0.1022  0.9274
 1249SOL    MW4 5071   0.437   3.483   2.376  0.7271  0.2022  0.1113
 1250SOL     OW 5072   0.666   3.629   2.295  0.0837  0.0588 -0.4231
 1250SOL    HW2 5073   0.690   3.712   2.336  0.7729  0.1733 -1.0432
 1250SOL    HW3 5074   0.663   3.648   2.201  0.9616 -0.7890 -0.6311
 1250SOL    MW4 5075   0.668   3.642   2.288  0.2906 -0.0379 -0.5324
 1251SOL     OW 5076   0.699   3.881   2.406  0.6182 -0.3403 -0.2315
 1251SOL    HW2 5077   0.705   3.889   2.501  0.9513  2.0539 -0.4347
 1251SOL    HW3 5078   0.615   3.920   2.384  1.1614  0.3845 -1.0483
 1251SOL    MW4 5079   0.689   3.887   2.416  0.7339  0.0710 -0.3660
 1252SOL     OW 5080   0.466   3.995   2.308  0.8640 -0.1550  0.0992
 1252SOL    HW2 5081   0.376   3.964   2.316  0.9131 -0.1280  0.7716
 1252SOL    HW3 5082   0.477   4.011   2.214  0.3236 -0.6161 -0.0489
 1252SOL    MW4 5083   0.455   3.993   2.296  0.7992 -0.2122  0.1683
 1253SOL     OW 5084   0.477   4.263   2.374  0.5299 -0.7518  0.8533
 1253SOL    HW2 5085   0.554   4.305   2.336 -0.2694 -1.3100 -1.4764
 1253SOL    HW3 5086   0.484   4.171   2.348 -1.3971 -0.6249 -0.2220
 1253SOL    MW4 5087   0.488   4.256   2.366  0.1702 -0.8082  0.4041
 1254SOL     OW 5088   0.704   4.391   2.257 -0.5388  0.3066 -0.0072
 1254SOL    HW2 5089   0.711   4.479   2.293 -0.4795  0.2929  0.0151
 1254SOL    HW3 5090   0.675   4.404   2.167 -1.1235  0.3191  0.1856
 1254SOL    MW4 5091   0.701   4.404   2.250 -0.6081  0.3061  0.0212
 1255SOL     OW 5092   1.141   4.661   2.325  0.2218 -0.1863  0.2230
 1255SOL    HW2 5093   1.142   4.656   2.421 -0.3495  0.2679  0.2606
 1255SOL    HW3 5094   1.060   4.709   2.305  0.0474 -0.7754 -0.5113
 1255SOL    MW4 5095   1.130   4.667   2.335  0.1236 -0.2036  0.1309
 1256SOL     OW 5096   0.921   0.145   2.260  0.1685 -0.3531 -0.3942
 1256SOL    HW2 5097   0.900   0.227   2.303  0.3984 -0.8747  0.7321
 1256SOL    HW3 5098   0.900   0.160   2.168 -0.6885  0.6520 -0.0459
 1256SOL    MW4 5099   0.916   0.158   2.253  0.0857 -0.2894 -0.1998
 1257SOL     OW 5100   0.879   0.393   2.366  0.5550 -0.7424 -0.0767
 1257SOL    HW2 5101   0.958   0.433   2.330  1.4475 -1.3167  1.2015
 1257SOL    HW3 5102   0.808   0.425   2.310  1.7448 -0.6342 -1.5683
 1257SOL    MW4 5103   0.880   0.403   2.354  0.8297 -0.8039 -0.1049
 1258SOL     OW 5104   1.111   0.507   2.276  0.5440 -0.2319  0.2898
 1258SOL    HW2 5105   1.186   0.452   2.296 -0.3318 -1.5242  0.1530
 1258SOL    HW3 5106   1.121   0.530   2.183  0.3237 -1.1375  0.0374
 1258SOL    MW4 5107   1.122   0.503   2.266  0.3995 -0.5219  0.2384
 1259SOL     OW 5108   1.146   0.747   2.411 -0.4435 -0.3031  0.4221
 1259SOL    HW2 5109   1.077   0.790   2.361  0.3973  0.4261 -0.1404
 1259SOL    HW3 5110   1.151   0.659   2.375  0.5786  0.4082 -1.2469
 1259SOL    MW4 5111   1.138   0.741   2.400 -0.1976 -0.1131  0.1276
 1260SOL     OW 5112   0.901   0.856   2.260 -0.2372 -0.0072  0.2424
 1260SOL    HW2 5113   0.884   0.948   2.281 -1.9400  0.0939 -1.4280
 1260SOL    HW3 5114   0.819   0.812   2.282 -0.1885 -0.7491 -1.0416
 1260SOL    MW4 5115   0.888   0.863   2.266 -0.4555 -0.0917 -0.1471
 1261SOL     OW 5116   0.893   1.124   2.347  0.1870  0.3412 -0.0797
 1261SOL    HW2 5117   0.963   1.183   2.319 -0.2228  0.1998 -1.4493
 1261SOL    HW3 5118   0.813   1.164   2.313 -0.3277  0.1321  0.8666
 1261SOL    MW4 5119   0.891   1.137   2.339  0.0650  0.2950 -0.1357
 1262SOL     OW 5120   1.119   1.292   2.325 -0.0917 -0.4634  0.0732
 1262SOL    HW2 5121   1.198   1.248   2.356  0.1230 -0.6605 -0.7416
 1262SOL    HW3 5122   1.130   1.298   2.230  0.0989  1.7774  0.2133
 1262SOL    MW4 5123   1.130   1.287   2.317 -0.0383 -0.1937 -0.0160
 1263SOL     OW 5124   1.108   1.544   2.433  0.5289  0.1810 -0.3308
 1263SOL    HW2 5125   1.023   1.574   2.401 -0.1367 -0.1095  1.1203
 1263SOL    HW3 5126   1.114   1.454   2.402 -0.0540 -0.0581  0.2351
 1263SOL    MW4 5127   1.097   1.536   2.425  0.3641  0.1110 -0.0646
 1264SOL     OW 5128   0.888   1.648   2.287  0.2638  0.3720 -0.6356
 1264SOL    HW2 5129   0.890   1.735   2.327  1.1055  0.5745 -1.1124
 1264SOL    HW3 5130   0.916   1.662   2.197 -0.6832 -0.2319 -1.0373
 1264SOL    MW4 5131   0.892   1.661   2.280  0.2499  0.3190 -0.7515
 1265SOL     OW 5132   0.902   1.912   2.359  0.0768  0.0113 -0.2533
 1265SOL    HW2 5133   0.905   1.926   2.454 -0.7145  0.4362 -0.2911
 1265SOL    HW3 5134   0.970   1.970   2.324 -0.3888  0.6794 -0.0474
 1265SOL    MW4 5135   0.912   1.921   2.367 -0.0890  0.1554 -0.2310
 1266SOL     OW 5136   1.101   2.097   2.286  0.3367 -0.7297  0.3582
 1266SOL    HW2 5137   1.169   2.034   2.311  1.4146  0.4159  0.3494
 1266SOL    HW3 5138   1.117   2.114   2.194  0.2557 -0.1720  0.4497
 1266SOL    MW4 5139   1.112   2.091   2.277  0.4681 -0.5050  0.3691
 1267SOL     OW 5140   1.100   2.353   2.388 -0.5680 -0.1487  0.1055
 1267SOL    HW2 5141   1.184   2.387   2.356 -0.2717 -0.4104  0.5943
 1267SOL    HW3 5142   1.100   2.261   2.364  0.0172 -0.5414  1.5705
 1267SOL    MW4 5143   1.111   2.346   2.380 -0.4516 -0.2353  0.3633
 1268SOL     OW 5144   0.886   2.519   2.277  0.3143 -0.0411  0.2091
 1268SOL    HW2 5145   0.962   2.469   2.304  2.3492  2.0621 -1.3331
 1268SOL    HW3 5146   0.892   2.521   2.181  0.0741  2.6805  0.2003
 1268SOL    MW4 5147   0.897   2.513   2.268  0.5510  0.5956  0.0045
 1269SOL     OW 5148   0.877   2.784   2.395 -0.2998  0.2435  0.0464
 1269SOL    HW2 5149   0.882   2.768   2.489 -0.0952  0.9308  0.1589
 1269SOL    HW3 5150   0.881   2.697   2.355 -1.4022 -0.1235  0.7102
 1269SOL    MW4 5151   0.878   2.771   2.402 -0.4183  0.2854  0.1488
 1270SOL     OW 5152   1.091   2.859   2.234  0.4961  0.1990 -0.0371
 1270SOL    HW2 5153   1.170   2.832   2.281  0.4815 -0.4932 -0.4067
 1270SOL    HW3 5154   1.019   2.820   2.283  0.3916  0.6590  0.1806
 1270SOL    MW4 5155   1.092   2.850   2.247  0.4803  0.1681 -0.0575
 1271SOL     OW 5156   1.106   3.101   2.357  0.3609  0.1750 -0.0196
 1271SOL    HW2 5157   1.025   3.141   2.326 -0.0199  0.8633  1.7863
 1271SOL    HW3 5158   1.100   3.010   2.329 -1.4513  0.0046  0.8130
 1271SOL    MW4 5159   1.095   3.095   2.350  0.0715  0.2434  0.3285
 1272SOL     OW 5160   0.872   3.197   2.240 -0.0161 -0.5021  0.4576
 1272SOL    HW2 5161   0.857   3.290   2.251 -0.8580 -0.5012 -0.6398
 1272SOL    HW3 5162   0.800   3.155   2.287 -0.0835 -0.5835  0.2834
 1272SOL    MW4 5163   0.861   3.203   2.248 -0.1360 -0.5126  0.2902
 1273SOL     OW 5164   0.882   3.477   2.351  0.0086  0.0621  0.1686
 1273SOL    HW2 5165   0.887   3.473   2.447  0.9568 -0.3953  0.1153
 1273SOL    HW3 5166   0.811   3.538   2.333  0.4289  0.8875  1.1763
 1273SOL    MW4 5167   0.873   3.485   2.361  0.1892  0.1109  0.2944
 1274SOL     OW 5168   1.115   3.620   2.256 -0.2967 -0.0256 -0.2370
 1274SOL    HW2 5169   1.193   3.576   2.290 -0.4063 -1.6900 -2.0795
 1274SOL    HW3 5170   1.043   3.581   2.304 -0.1409  0.3779  0.3335
 1274SOL    MW4 5171   1.116   3.609   2.267 -0.2908 -0.1919 -0.4046
 1275SOL     OW 5172   1.116   3.904   2.322 -0.0808  0.0661  0.0430
 1275SOL    HW2 5173   1.196   3.946   2.291  0.6336 -0.5141  1.0770
 1275SOL    HW3 5174   1.122   3.814   2.290  0.2137 -0.2773  1.0325
 1275SOL    MW4 5175   1.127   3.898   2.314  0.0523 -0.0558  0.3104
 1276SOL     OW 5176   0.873   4.018   2.239 -0.3769  0.0347 -0.0392
 1276SOL    HW2 5177   0.960   3.989   2.266 -0.3208 -0.5294 -0.7966
 1276SOL    HW3 5178   0.813   3.962   2.289 -0.2656 -2.3881 -2.4617
 1276SOL    MW4 5179   0.877   4.006   2.249 -0.3548 -0.3600 -0.4590
 1277SOL     OW 5180   0.922   4.278   2.377 -0.1972  0.1255 -0.1407
 1277SOL    HW2 5181   0.919   4.189   2.344 -1.5821 -0.2689  1.0189
 1277SOL    HW3 5182   0.850   4.323   2.333 -2.2291 -0.4780  2.5103
 1277SOL    MW4 5183   0.912   4.272   2.367 -0.6481 -0.0062  0.3622
 1278SOL     OW 5184   1.133   4.407   2.233  0.0823 -0.0797  0.2497
 1278SOL    HW2 5185   1.066   4.362   2.285 -1.1366  1.8085  0.3544
 1278SOL    HW3 5186   1.132   4.497   2.266  1.3910  0.4217 -1.0345
 1278SOL    MW4 5187   1.124   4.413   2.244  0.0942  0.2360  0.0942
 1279SOL     OW 5188   1.553   4.658   2.368  0.0515 -0.1823 -0.1412
 1279SOL    HW2 5189   1.638   4.690   2.338  0.4906 -1.3048 -0.1270
 1279SOL    HW3 5190   1.490   4.698   2.308  0.6363  0.1853 -0.5195
 1279SOL    MW4 5191   1.556   4.668   2.356  0.1867 -0.2818 -0.1891
 1280SOL     OW 5192   1.370   0.103   2.204 -0.2651 -0.5734 -0.0214
 1280SOL    HW2 5193   1.363   0.192   2.238 -0.2927 -0.5377 -0.1183
 1280SOL    HW3 5194   1.287   0.062   2.228 -0.8928 -0.1008 -1.3073
 1280SOL    MW4 5195   1.358   0.110   2.212 -0.3517 -0.5063 -0.2038
 1281SOL     OW 5196   1.328   0.356   2.348  0.0879 -0.0024  0.1453
 1281SOL    HW2 5197   1.327   0.315   2.435 -1.9885  0.3220  0.2892
 1281SOL    HW3 5198   1.409   0.407   2.347 -0.2194  0.5718  2.1665
 1281SOL    MW4 5199   1.339   0.357   2.359 -0.2265  0.1161  0.4308
 1282SOL     OW 5200   1.584   0.512   2.287  0.4606 -0.2732 -0.0156
 1282SOL    HW2 5201   1.675   0.482   2.293  0.6233  0.2202  0.0189
 1282SOL    HW3 5202   1.566   0.513   2.193  0.7834  0.4818 -0.0748
 1282SOL    MW4 5203   1.594   0.508   2.275  0.5248 -0.1085 -0.0191
 1283SOL     OW 5204   1.603   0.731   2.453  0.0065 -0.7262 -0.4552
 1283SOL    HW2 5205   1.653   0.791   2.398 -0.5693  0.8070  0.6526
 1283SOL    HW3 5206   1.586   0.655   2.397 -0.2486  0.6303 -2.2771
 1283SOL    MW4 5207   1.607   0.729   2.438 -0.1031 -0.3449 -0.5493
 1284SOL     OW 5208   1.394   0.893   2.305  0.8553  0.2243  0.6003
 1284SOL    HW2 5209   1.473   0.852   2.340  1.1654  0.4586  0.1845
 1284SOL    HW3 5210   1.324   0.832   2.327  1.3047 -0.5239  0.0304
 1284SOL    MW4 5211   1.396   0.880   2.312  0.9555  0.1565  0.4702
 1285SOL     OW 5212   1.337   1.156   2.396 -0.3097 -0.0920  0.3430
 1285SOL    HW2 5213   1.354   1.172   2.489  1.2304  1.3044 -0.1610
 1285SOL    HW3 5214   1.341   1.061   2.387  1.2121 -0.1454  1.4005
 1285SOL    MW4 5215   1.339   1.146   2.407  0.0944  0.0854  0.4160
 1286SOL     OW 5216   1.574   1.290   2.300 -0.1625 -0.1776  0.0451
 1286SOL    HW2 5217   1.491   1.248   2.320  0.1352 -0.9477 -0.3120
 1286SOL    HW3 5218   1.578   1.292   2.204 -0.4000  1.1275  0.0445
 1286SOL    MW4 5219   1.564   1.285   2.290 -0.1544 -0.1068 -0.0024
 1287SOL     OW 5220   1.534   1.552   2.360  0.6318  0.3307  0.1761
 1287SOL    HW2 5221   1.615   1.602   2.351  0.5190  0.4672 -0.0725
 1287SOL    HW3 5222   1.560   1.461   2.342  0.9373  0.2270  1.1281
 1287SOL    MW4 5223   1.548   1.547   2.356  0.6573  0.3350  0.2687
 1288SOL     OW 5224   1.302   1.667   2.268  0.1614  0.4191 -0.1968
 1288SOL    HW2 5225   1.386   1.632   2.299 -0.4971 -1.2662 -0.2626
 1288SOL    HW3 5226   1.238   1.635   2.331 -0.5892  0.7157 -0.8073
 1288SOL    MW4 5227   1.305   1.658   2.280 -0.0246  0.2358 -0.2859
 1289SOL     OW 5228   1.313   1.920   2.368 -0.2008  0.0500 -0.2477
 1289SOL    HW2 5229   1.393   1.967   2.343 -0.2110  0.6631  0.8311
 1289SOL    HW3 5230   1.315   1.839   2.317  1.8783 -0.6381  0.8684
 1289SOL    MW4 5231   1.324   1.916   2.358  0.0721  0.0399  0.0420
 1290SOL     OW 5232   1.518   2.083   2.250 -0.4255  0.0212  0.2506
 1290SOL    HW2 5233   1.584   2.031   2.294 -1.3720 -0.5518  1.0076
 1290SOL    HW3 5234   1.530   2.064   2.157 -0.2681 -0.9617  0.4700
 1290SOL    MW4 5235   1.528   2.074   2.243 -0.5296 -0.1841  0.3796
 1291SOL     OW 5236   1.594   2.324   2.324 -0.2742 -0.1646 -0.3635
 1291SOL    HW2 5237   1.597   2.318   2.419 -1.4184 -0.0497 -0.3104
 1291SOL    HW3 5238   1.566   2.238   2.295  1.2086 -0.5503 -0.6705
 1291SOL    MW4 5239   1.591   2.312   2.333 -0.2295 -0.2003 -0.3972
 1292SOL     OW 5240   1.345   2.464   2.280 -0.1612 -0.2930  0.0990
 1292SOL    HW2 5241   1.421   2.414   2.311  0.2036 -0.4809 -1.0858
 1292SOL    HW3 5242   1.353   2.463   2.185 -2.1222 -1.0325 -0.0698
 1292SOL    MW4 5243   1.356   2.457   2.272 -0.3718 -0.4153 -0.0796
 1293SOL     OW 5244   1.324   2.732   2.347  0.0909 -0.1357  0.0679
 1293SOL    HW2 5245   1.388   2.786   2.300  0.4738  0.4871  1.2945
 1293SOL    HW3 5246   1.351   2.642   2.328  0.9363  0.1184  0.0271
 1293SOL    MW4 5247   1.336   2.727   2.338  0.2531 -0.0203  0.2244
 1294SOL     OW 5248   1.555   2.867   2.245 -0.0521 -0.1226  0.4415
 1294SOL    HW2 5249   1.575   2.946   2.296 -0.4706 -0.2185  0.7506
 1294SOL    HW3 5250   1.551   2.898   2.154  1.3269 -0.0612  0.3910
 1294SOL    MW4 5251   1.557   2.882   2.240  0.0746 -0.1271  0.4756
 1295SOL     OW 5252   1.596   3.141   2.332 -0.1637 -0.0855 -0.0903
 1295SOL    HW2 5253   1.605   3.139   2.427  0.6472 -0.4233 -0.1735
 1295SOL    HW3 5254   1.508   3.176   2.317 -0.1812  0.2497  0.7771
 1295SOL    MW4 5255   1.585   3.146   2.342 -0.0589 -0.0856  0.0134
 1296SOL     OW 5256   1.340   3.212   2.254 -0.6518  0.2018  0.1351
 1296SOL    HW2 5257   1.249   3.190   2.275 -0.4630 -2.6262 -1.8491
 1296SOL    HW3 5258   1.339   3.230   2.160  1.1082 -1.2666 -0.1785
 1296SOL    MW4 5259   1.328   3.212   2.244 -0.3947 -0.3648 -0.1678
 1297SOL     OW 5260   1.345   3.477   2.321 -0.0921 -0.0980 -0.0226
 1297SOL    HW2 5261   1.328   3.492   2.414 -0.5307  1.7320 -0.3671
 1297SOL    HW3 5262   1.327   3.385   2.307 -2.2849  0.1101  1.2359
 1297SOL    MW4 5263   1.341   3.467   2.332 -0.4392  0.1707  0.0978
 1298SOL     OW 5264   1.560   3.617   2.192  0.2962  0.3866 -0.8016
 1298SOL    HW2 5265   1.560   3.706   2.228  0.3855 -0.3738  1.1149
 1298SOL    HW3 5266   1.482   3.576   2.230  2.3567 -1.5679  1.3910
 1298SOL    MW4 5267   1.549   3.623   2.201  0.5797  0.0284 -0.2594
 1299SOL     OW 5268   1.560   3.860   2.335  0.0963  0.6644  0.1664
 1299SOL    HW2 5269   1.568   3.873   2.430  0.1485 -0.5682  0.3406
 1299SOL    HW3 5270   1.625   3.919   2.297  1.2245 -0.0289  0.9769
 1299SOL    MW4 5271   1.569   3.870   2.342  0.2520  0.4106  0.2964
 1300SOL     OW 5272   1.345   4.021   2.227 -0.3255  0.3693 -0.4905
 1300SOL    HW2 5273   1.419   3.970   2.261  0.7428  2.3527  0.2351
 1300SOL    HW3 5274   1.338   3.994   2.135  0.4135 -0.8408 -0.2087
 1300SOL    MW4 5275   1.354   4.011   2.219 -0.0871  0.4711 -0.3574
 1301SOL     OW 5276   1.368   4.283   2.310 -0.4514  0.1225 -0.2877
 1301SOL    HW2 5277   1.372   4.190   2.287 -0.8010  0.2868 -1.0008
 1301SOL    HW3 5278   1.281   4.312   2.282 -0.6085  0.5050  0.5553
 1301SOL    MW4 5279   1.357   4.275   2.303 -0.5183  0.1950 -0.2706
 1302SOL     OW 5280   1.593   4.419   2.222 -0.2841 -0.0607 -0.1299
 1302SOL    HW2 5281   1.518   4.364   2.245 -0.5797  0.2341 -0.3735
 1302SOL    HW3 5282   1.573   4.504   2.262  0.7417 -0.4655  1.2766
 1302SOL    MW4 5283   1.581   4.423   2.230 -0.1879 -0.0753  0.0238
 1303SOL     OW 5284   2.050   4.630   2.337 -0.1939 -0.1494  0.0430
 1303SOL    HW2 5285   2.132   4.672   2.310 -0.1004 -0.4362 -0.1253
 1303SOL    HW3 5286   2.055   4.541   2.300 -1.3253  0.3666 -1.4414
 1303SOL    MW4 5287   2.061   4.624   2.328 -0.3309 -0.1202 -0.1750
 1304SOL     OW 5288   1.793   0.081   2.278 -0.1944  0.2772 -0.4162
 1304SOL    HW2 5289   1.818   0.169   2.305 -0.3417  0.0598  0.4596
 1304SOL    HW3 5290   1.872   0.028   2.294 -0.4803  0.0272  0.1885
 1304SOL    MW4 5291   1.807   0.086   2.284 -0.2517  0.2155 -0.2208
 1305SOL     OW 5292   1.815   0.354   2.339 -0.0083  0.5131 -0.7515
 1305SOL    HW2 5293   1.799   0.363   2.433  0.4932  2.3338 -0.8239
 1305SOL    HW3 5294   1.890   0.410   2.321  0.2782 -0.2770 -2.1528
 1305SOL    MW4 5295   1.823   0.362   2.349  0.0957  0.6491 -0.9458
 1306SOL     OW 5296   2.024   0.514   2.261 -0.0196  0.3326 -0.4858
 1306SOL    HW2 5297   2.028   0.602   2.297  0.1834  0.6912 -1.3541
 1306SOL    HW3 5298   2.021   0.528   2.166 -0.5506 -0.5782 -0.6062
 1306SOL    MW4 5299   2.024   0.528   2.253 -0.0629  0.2598 -0.6163
 1307SOL     OW 5300   2.003   0.750   2.406  0.2472  0.1452 -0.0806
 1307SOL    HW2 5301   2.079   0.788   2.362 -1.2908 -0.9863 -3.9805
 1307SOL    HW3 5302   1.930   0.807   2.380 -0.7258 -0.5424  1.0882
 1307SOL    MW4 5303   2.003   0.763   2.397 -0.0842 -0.0949 -0.4408
 1308SOL     OW 5304   1.778   0.862   2.294  0.3323 -0.2664  0.3868
 1308SOL    HW2 5305   1.769   0.957   2.308  0.6651 -0.3065  0.9016
 1308SOL    HW3 5306   1.784   0.852   2.199 -2.3865 -0.0127  0.1634
 1308SOL    MW4 5307   1.778   0.874   2.283  0.0175 -0.2382  0.4253
 1309SOL     OW 5308   1.773   1.130   2.378 -0.1135 -0.2718  0.1433
 1309SOL    HW2 5309   1.855   1.170   2.349  0.5249 -1.6138  0.0625
 1309SOL    HW3 5310   1.705   1.188   2.344  0.7574  0.2136 -0.8086
 1309SOL    MW4 5311   1.775   1.143   2.369  0.0856 -0.3848  0.0072
 1310SOL     OW 5312   2.013   1.268   2.278  0.4235  0.3835  0.1688
 1310SOL    HW2 5313   2.024   1.347   2.331 -1.4405  1.7751 -1.4516
 1310SOL    HW3 5314   2.034   1.296   2.189  0.6067 -1.1789 -0.2817
 1310SOL    MW4 5315   2.017   1.282   2.274  0.2017  0.3611 -0.1047
 1311SOL     OW 5316   2.007   1.529   2.367  0.0943  0.0036 -0.0056
 1311SOL    HW2 5317   1.993   1.529   2.462 -1.4845 -1.3925 -0.1987
 1311SOL    HW3 5318   1.932   1.578   2.332  0.9428  0.9591 -0.5185
 1311SOL    MW4 5319   1.995   1.535   2.375 -0.0020 -0.0545 -0.0987
 1312SOL     OW 5320   1.792   1.659   2.276  0.3036 -0.2463  0.3620
 1312SOL    HW2 5321   1.799   1.753   2.292  3.7228 -0.4211  0.3084
 1312SOL    HW3 5322   1.796   1.651   2.181 -0.5949 -0.4290  0.3348
 1312SOL    MW4 5323   1.794   1.671   2.265  0.6362 -0.2935  0.3514
 1313SOL     OW 5324   1.725   1.934   2.367  0.3167 -0.3494 -0.4781
 1313SOL    HW2 5325   1.735   1.925   2.461 -1.7563  0.0089 -0.2006
 1313SOL    HW3 5326   1.812   1.959   2.336  0.9928 -0.3749  1.3462
 1313SOL    MW4 5327   1.738   1.936   2.375  0.1323 -0.3055 -0.2007
 1314SOL     OW 5328   1.963   2.037   2.280 -0.2220  0.4400  0.7249
 1314SOL    HW2 5329   2.053   2.017   2.304 -0.1722  1.1962  1.1756
 1314SOL    HW3 5330   1.963   2.042   2.184  0.5302  1.9553  0.8014
 1314SOL    MW4 5331   1.975   2.035   2.270 -0.1162  0.7401  0.7942
 1315SOL     OW 5332   2.004   2.326   2.361 -0.1161  0.3868 -0.2426
 1315SOL    HW2 5333   2.085   2.365   2.330  0.1049  0.0865 -0.0453
 1315SOL    HW3 5334   2.007   2.235   2.329 -0.4305  0.4105 -0.3413
 1315SOL    MW4 5335   2.015   2.319   2.353 -0.1287  0.3505 -0.2296
 1316SOL     OW 5336   1.808   2.469   2.226  0.3407 -0.2062 -0.3796
 1316SOL    HW2 5337   1.871   2.435   2.290  0.6740 -1.1385 -1.1833
 1316SOL    HW3 5338   1.727   2.421   2.244  0.4846 -0.5949 -0.7740
 1316SOL    MW4 5339   1.806   2.458   2.237  0.4036 -0.3805 -0.5379
 1317SOL     OW 5340   1.761   2.707   2.350  0.0714  0.4235 -0.1430
 1317SOL    HW2 5341   1.772   2.631   2.293  2.4560  0.7452 -0.1489
 1317SOL    HW3 5342   1.680   2.748   2.320  0.0476 -0.7438 -1.7426
 1317SOL    MW4 5343   1.752   2.702   2.339  0.3829  0.3121 -0.3550
 1318SOL     OW 5344   2.001   2.855   2.255  0.0994  0.4008  0.7355
 1318SOL    HW2 5345   2.077   2.801   2.278  0.0275 -1.0202 -2.0914
 1318SOL    HW3 5346   1.925   2.799   2.273 -0.1321  0.7243  0.7760
 1318SOL    MW4 5347   2.001   2.840   2.260  0.0594  0.2558  0.3681
 1319SOL     OW 5348   2.014   3.101   2.356 -0.1327 -0.5265  0.3139
 1319SOL    HW2 5349   2.092   3.134   2.312 -1.0096  0.1241 -0.7695
 1319SOL    HW3 5350   2.009   3.009   2.330 -0.6962 -0.1267 -1.0492
 1319SOL    MW4 5351   2.024   3.093   2.347 -0.3226 -0.3879 -0.0088
 1320SOL     OW 5352   1.827   3.242   2.221 -0.4968  0.4467  0.5143
 1320SOL    HW2 5353   1.897   3.188   2.259  0.3177  0.8203 -0.4144
 1320SOL    HW3 5354   1.748   3.214   2.266 -0.0731 -1.4686  0.1117
 1320SOL    MW4 5355   1.826   3.231   2.232 -0.3334  0.2437  0.3386
 1321SOL     OW 5356   1.794   3.489   2.323  0.6806  0.2660 -0.3538
 1321SOL    HW2 5357   1.804   3.403   2.282  0.1371  0.3060 -0.5731
 1321SOL    HW3 5358   1.712   3.523   2.288  0.5203  0.5591  0.2943
 1321SOL    MW4 5359   1.785   3.482   2.313  0.5878  0.3102 -0.2973
 1322SOL     OW 5360   2.033   3.616   2.247 -0.2495  0.1214 -0.3894
 1322SOL    HW2 5361   1.960   3.572   2.290  1.2098 -0.9452  1.0201
 1322SOL    HW3 5362   2.018   3.600   2.154 -1.2725 -0.9272 -0.0658
 1322SOL    MW4 5363   2.021   3.608   2.240 -0.1919 -0.1578 -0.1607
 1323SOL     OW 5364   2.005   3.895   2.300  0.3885  0.0376  0.1345
 1323SOL    HW2 5365   2.014   3.898   2.395 -0.9250  0.4383  0.2552
 1323SOL    HW3 5366   2.007   3.801   2.278  1.4516 -0.0200  0.4728
 1323SOL    MW4 5367   2.007   3.883   2.309  0.3557  0.0830  0.1950
 1324SOL     OW 5368   1.770   4.008   2.230 -0.5950  0.4510 -0.2800
 1324SOL    HW2 5369   1.850   3.960   2.255 -1.1441 -1.1659 -1.5123
 1324SOL    HW3 5370   1.769   4.002   2.134 -1.6250  1.4058 -0.3245
 1324SOL    MW4 5371   1.781   4.001   2.221 -0.8034  0.3633 -0.4485
 1325SOL     OW 5372   1.810   4.259   2.348  0.2277  0.4570 -0.2029
 1325SOL    HW2 5373   1.776   4.175   2.316  1.0350 -0.3874  1.1170
 1325SOL    HW3 5374   1.743   4.323   2.322 -0.9857 -0.7695 -0.1715
 1325SOL    MW4 5375   1.797   4.256   2.340  0.1742  0.1831 -0.0248
 1326SOL     OW 5376   2.033   4.363   2.245  0.2273  0.4333  0.7963
 1326SOL    HW2 5377   1.950   4.324   2.272  0.2910  0.3188  0.8234
 1326SOL    HW3 5378   2.020   4.385   2.153  0.0555  0.7058  0.8833
 1326SOL    MW4 5379   2.020   4.361   2.237  0.2134  0.4535  0.8116
 1327SOL     OW 5380   2.492   4.624   2.354 -0.1946 -0.3569 -0.0202
 1327SOL    HW2 5381   2.574   4.671   2.341  0.9336 -1.5557  2.3399
 1327SOL    HW3 5382   2.503   4.543   2.305 -1.3750  0.9239 -2.5024
 1327SOL    MW4 5383   2.504   4.620   2.346 -0.2017 -0.3462 -0.0360
 1328SOL     OW 5384   2.284   0.099   2.267 -0.1454  0.7055  0.1621
 1328SOL    HW2 5385   2.286   0.191   2.295  2.1688  0.4115  1.0375
 1328SOL    HW3 5386   2.370   0.065   2.291 -0.4886 -1.3302 -1.4335
 1328SOL    MW4 5387   2.295   0.107   2.274  0.1147  0.3981  0.0670
 1329SOL     OW 5388   2.257   0.374   2.332  0.2840 -0.1915 -0.2192
 1329SOL    HW2 5389   2.340   0.414   2.309  0.0154 -0.1883 -1.2102
 1329SOL    HW3 5390   2.191   0.436   2.300 -0.0923  0.1117  1.1252
 1329SOL    MW4 5391   2.259   0.388   2.325  0.1988 -0.1511 -0.1726
 1330SOL     OW 5392   2.480   0.510   2.263 -0.3429  0.5125  0.3765
 1330SOL    HW2 5393   2.561   0.465   2.285 -0.7220 -0.7194 -0.6109
 1330SOL    HW3 5394   2.483   0.520   2.168 -2.2426 -1.4308  0.0605
 1330SOL    MW4 5395   2.491   0.505   2.253 -0.6437  0.0936  0.2043
 1331SOL     OW 5396   2.467   0.765   2.374  0.3190 -0.0513  0.1999
 1331SOL    HW2 5397   2.549   0.799   2.337  1.0155 -0.5226  1.2893
 1331SOL    HW3 5398   2.471   0.671   2.357  0.6805 -0.2848  1.5106
 1331SOL    MW4 5399   2.478   0.757   2.367  0.4585 -0.1443  0.5164
 1332SOL     OW 5400   2.230   0.867   2.277  0.1400  0.3555  0.0989
 1332SOL    HW2 5401   2.234   0.962   2.285  0.5081  0.2499  1.3043
 1332SOL    HW3 5402   2.316   0.836   2.306 -0.0852 -0.3587  0.0306
 1332SOL    MW4 5403   2.242   0.875   2.282  0.1585  0.2474  0.2489
 1333SOL     OW 5404   2.243   1.121   2.342  0.1645 -0.0198  0.0847
 1333SOL    HW2 5405   2.317   1.171   2.306 -0.6327  0.7048 -0.5758
 1333SOL    HW3 5406   2.166   1.171   2.316 -0.5788 -0.9316  0.5204
 1333SOL    MW4 5407   2.243   1.134   2.334 -0.0384 -0.0445  0.0553
 1334SOL     OW 5408   2.473   1.244   2.225  0.6200  0.5832  0.2021
 1334SOL    HW2 5409   2.551   1.207   2.267  0.2829  0.9217  1.1437
 1334SOL    HW3 5410   2.470   1.335   2.255  1.2789  1.3158 -1.8743
 1334SOL    MW4 5411   2.483   1.251   2.234  0.6623  0.7246  0.0527
 1335SOL     OW 5412   2.430   1.513   2.290 -0.2209 -1.2570  0.0298
 1335SOL    HW2 5413   2.443   1.502   2.384 -1.3865 -0.2361  0.3161
 1335SOL    HW3 5414   2.500   1.574   2.264 -0.8292 -0.3239  0.5274
 1335SOL    MW4 5415   2.441   1.520   2.299 -0.4549 -0.9992  0.1333
 1336SOL     OW 5416   2.216   1.695   2.267  0.5021  0.2164 -0.2651
 1336SOL    HW2 5417   2.292   1.638   2.278  0.0924 -0.3650 -0.4743
 1336SOL    HW3 5418   2.143   1.646   2.304  0.2224  0.7780 -0.0590
 1336SOL    MW4 5419   2.217   1.681   2.273  0.4110  0.2139 -0.2656
 1337SOL     OW 5420   2.225   1.966   2.334  0.0947  0.6149  0.1400
 1337SOL    HW2 5421   2.303   1.997   2.289  1.1881  0.3039  1.7497
 1337SOL    HW3 5422   2.223   1.872   2.317 -0.2259  0.7140 -0.3537
 1337SOL    MW4 5423   2.235   1.958   2.326  0.1967  0.5870  0.2873
 1338SOL     OW 5424   2.461   2.068   2.235 -0.4592 -0.2482 -0.0500
 1338SOL    HW2 5425   2.536   2.025   2.276  0.1985 -0.1402 -1.1178
 1338SOL    HW3 5426   2.477   2.060   2.141 -0.3419  2.2696 -0.2891
 1338SOL    MW4 5427   2.473   2.062   2.228 -0.3572  0.0985 -0.2224
 1339SOL     OW 5428   2.457   2.322   2.365 -0.1622  0.7269  0.1890
 1339SOL    HW2 5429   2.536   2.369   2.338  0.8184  1.3714  3.8243
 1339SOL    HW3 5430   2.468   2.234   2.330  1.2281  1.3454 -0.9901
 1339SOL    MW4 5431   2.469   2.317   2.357  0.1507  0.8938  0.5133
 1340SOL     OW 5432   2.232   2.429   2.235  0.4706  0.8109  0.6243
 1340SOL    HW2 5433   2.235   2.520   2.265 -0.0932  1.0666 -0.0565
 1340SOL    HW3 5434   2.304   2.386   2.280  0.0325  1.3291  1.8309
 1340SOL    MW4 5435   2.242   2.435   2.245  0.3383  0.9129  0.6936
 1341SOL     OW 5436   2.235   2.710   2.322  0.0403 -0.1213  0.1346
 1341SOL    HW2 5437   2.232   2.708   2.418  0.2597  0.2641  0.1544
 1341SOL    HW3 5438   2.317   2.756   2.302 -0.6609  1.0093 -0.2230
 1341SOL    MW4 5439   2.246   2.716   2.332 -0.0234  0.0787  0.0901
 1342SOL     OW 5440   2.473   2.831   2.258 -0.1734  0.1183 -0.1102
 1342SOL    HW2 5441   2.547   2.780   2.291 -1.2469 -0.9535  0.6660
 1342SOL    HW3 5442   2.489   2.837   2.163  0.5108 -0.7548 -0.0539
 1342SOL    MW4 5443   2.485   2.825   2.250 -0.2248 -0.1380  0.0000
 1343SOL     OW 5444   2.448   3.089   2.359  0.0075  0.5373 -0.1048
 1343SOL    HW2 5445   2.527   3.131   2.325 -0.4106 -0.6391 -2.6540
 1343SOL    HW3 5446   2.465   2.995   2.349 -1.5654  0.2667 -0.3420
 1343SOL    MW4 5447   2.461   3.082   2.353 -0.2551  0.3464 -0.4725
 1344SOL     OW 5448   2.234   3.197   2.229  0.0994 -0.0300  1.0826
 1344SOL    HW2 5449   2.248   3.287   2.261 -0.3061  0.9833 -1.4640
 1344SOL    HW3 5450   2.312   3.150   2.257  1.6876  1.8508  0.0133
 1344SOL    MW4 5451   2.246   3.203   2.237  0.2556  0.3517  0.6056
 1345SOL     OW 5452   2.268   3.467   2.321  0.1007 -0.2869 -0.5355
 1345SOL    HW2 5453   2.275   3.486   2.415  1.6704 -0.9738 -0.4977
 1345SOL    HW3 5454   2.185   3.507   2.295  0.1575  0.8350  0.9140
 1345SOL    MW4 5455   2.258   3.475   2.330  0.3152 -0.2294 -0.3390
 1346SOL     OW 5456   2.508   3.611   2.235  0.0662 -0.3393 -0.2685
 1346SOL    HW2 5457   2.509   3.704   2.258  0.1868 -0.5165  0.4462
 1346SOL    HW3 5458   2.419   3.583   2.254  0.9170 -1.1579  2.7166
 1346SOL    MW4 5459   2.496   3.620   2.241  0.1941 -0.4706  0.2198
 1347SOL     OW 5460   2.475   3.867   2.354  0.2514 -0.7820 -0.0458
 1347SOL    HW2 5461   2.466   3.882   2.448 -1.9421  0.3154 -0.4044
 1347SOL    HW3 5462   2.400   3.911   2.315  1.4209 -0.7729 -2.3761
 1347SOL    MW4 5463   2.464   3.875   2.361  0.1161 -0.6361 -0.4008
 1348SOL     OW 5464   2.261   3.982   2.233 -0.1659 -0.0979  0.1584
 1348SOL    HW2 5465   2.268   4.074   2.261  1.7840 -0.4722  1.0007
 1348SOL    HW3 5466   2.170   3.958   2.250 -0.5099  1.4697  0.5933
 1348SOL    MW4 5467   2.250   3.991   2.239  0.0460  0.0596  0.3269
 1349SOL     OW 5468   2.282   4.257   2.317 -0.3992 -0.1499 -0.0676
 1349SOL    HW2 5469   2.286   4.260   2.412 -0.5767  0.7211 -0.0905
 1349SOL    HW3 5470   2.204   4.306   2.294 -0.2248 -0.1481 -0.6764
 1349SOL    MW4 5471   2.272   4.264   2.327 -0.3994 -0.0343 -0.1507
 1350SOL     OW 5472   2.524   4.379   2.206  0.4672  0.1293  0.2940
 1350SOL    HW2 5473   2.598   4.337   2.250 -0.0543  0.3969  1.4432
 1350SOL    HW3 5474   2.447   4.334   2.240  0.0236  0.7580  0.1314
 1350SOL    MW4 5475   2.523   4.367   2.216  0.3395  0.2475  0.4244
 1351SOL     OW 5476   2.980   4.650   2.388  0.0155 -0.0487  0.3342
 1351SOL    HW2 5477   3.045   4.700   2.338 -0.2735 -0.0209 -0.0090
 1351SOL    HW3 5478   2.978   4.565   2.345  0.6329 -0.4143  1.0237
 1351SOL    MW4 5479   2.988   4.646   2.376  0.0589 -0.0933  0.3800
 1352SOL     OW 5480   2.733   0.094   2.321 -0.0652  0.1424 -0.1662
 1352SOL    HW2 5481   2.731   0.179   2.364 -1.3671 -0.5178  1.1142
 1352SOL    HW3 5482   2.816   0.055   2.347 -0.1771  0.3710  0.5214
 1352SOL    MW4 5483   2.744   0.100   2.330 -0.2518  0.0854  0.0935
 1353SOL     OW 5484   2.686   0.376   2.384  0.0877 -0.2916  0.0450
 1353SOL    HW2 5485   2.704   0.394   2.476  1.1637 -2.1159  0.2199
 1353SOL    HW3 5486   2.769   0.394   2.339 -0.1170 -0.4703 -0.4118
 1353SOL    MW4 5487   2.700   0.381   2.390  0.2027 -0.5558  0.0076
 1354SOL     OW 5488   2.915   0.503   2.275 -0.3363 -0.2213  0.1060
 1354SOL    HW2 5489   2.921   0.589   2.317  0.2932  0.0021 -0.4402
 1354SOL    HW3 5490   2.910   0.522   2.182 -1.3778 -0.7376  0.0582
 1354SOL    MW4 5491   2.915   0.517   2.269 -0.3905 -0.2600  0.0277
 1355SOL     OW 5492   2.935   0.764   2.371 -0.1028  0.0221 -0.6424
 1355SOL    HW2 5493   2.944   0.775   2.465  0.0136 -0.1578 -0.6318
 1355SOL    HW3 5494   2.843   0.783   2.353 -0.0650  0.3144 -0.5294
 1355SOL    MW4 5495   2.924   0.768   2.381 -0.0825  0.0369 -0.6258
 1356SOL     OW 5496   2.697   0.863   2.262  0.0940  0.2829  0.2310
 1356SOL    HW2 5497   2.694   0.956   2.283 -0.1596  0.4375 -0.4662
 1356SOL    HW3 5498   2.710   0.860   2.167  0.5602 -0.3938  0.3154
 1356SOL    MW4 5499   2.698   0.875   2.252  0.1221  0.2140  0.1500
 1357SOL     OW 5500   2.708   1.122   2.334 -0.0886  0.0718 -0.0046
 1357SOL    HW2 5501   2.708   1.136   2.428  0.4040 -2.1949  0.3662
 1357SOL    HW3 5502   2.775   1.181   2.301 -1.0289  1.6840  0.9194
 1357SOL    MW4 5503   2.717   1.132   2.342 -0.1473 -0.0147  0.1664
 1358SOL     OW 5504   2.922   1.286   2.254  0.4732 -0.0713  0.0948
 1358SOL    HW2 5505   3.000   1.243   2.290  1.4038  1.6509  0.1707
 1358SOL    HW3 5506   2.949   1.314   2.166 -0.5261 -0.7455 -0.4286
 1358SOL    MW4 5507   2.936   1.284   2.247  0.4642  0.0670  0.0360
 1359SOL     OW 5508   2.865   1.532   2.346  0.0324 -0.1207 -0.1095
 1359SOL    HW2 5509   2.884   1.561   2.435  0.5106  2.3249 -0.9752
 1359SOL    HW3 5510   2.876   1.437   2.349 -1.3239 -0.2376  2.7619
 1359SOL    MW4 5511   2.869   1.523   2.358 -0.0832  0.1866  0.1552
 1360SOL     OW 5512   2.662   1.661   2.226 -0.5119  0.2785 -0.1541
 1360SOL    HW2 5513   2.725   1.599   2.263 -0.6837  1.5627  2.4102
 1360SOL    HW3 5514   2.685   1.667   2.133  1.5226 -1.1753  0.2338
 1360SOL    MW4 5515   2.673   1.654   2.218 -0.2661  0.2562  0.2358
 1361SOL     OW 5516   2.660   1.932   2.333 -0.1695 -0.2063  0.1238
 1361SOL    HW2 5517   2.669   1.935   2.428 -2.2368 -0.4551  0.3575
 1361SOL    HW3 5518   2.663   1.839   2.312 -1.1464 -0.2380  0.1113
 1361SOL    MW4 5519   2.662   1.920   2.343 -0.5713 -0.2433  0.1528
 1362SOL     OW 5520   2.884   2.058   2.241  0.8905 -0.0778 -0.1588
 1362SOL    HW2 5521   2.952   2.003   2.278  1.3940  0.1650 -0.7155
 1362SOL    HW3 5522   2.803   2.028   2.283  1.0896 -1.5403 -0.7854
 1362SOL    MW4 5523   2.882   2.047   2.251  0.9835 -0.2387 -0.3150
 1363SOL     OW 5524   2.882   2.295   2.362  0.3835 -0.2910  0.3595
 1363SOL    HW2 5525   2.884   2.284   2.457  2.0840 -1.1265  0.2530
 1363SOL    HW3 5526   2.882   2.205   2.327 -0.1442  0.0100 -0.4299
 1363SOL    MW4 5527   2.883   2.281   2.370  0.5381 -0.3614  0.2413
 1364SOL     OW 5528   2.672   2.448   2.242 -0.2211  0.1793  0.3928
 1364SOL    HW2 5529   2.743   2.395   2.278  0.1352  0.5367  0.2160
 1364SOL    HW3 5530   2.683   2.440   2.147 -1.4357 -1.1417  0.3500
 1364SOL    MW4 5531   2.683   2.440   2.234 -0.3345  0.0522  0.3636
 1365SOL     OW 5532   2.698   2.693   2.338  0.1564  0.1615 -0.0267
 1365SOL    HW2 5533   2.775   2.725   2.293 -0.8653  0.1035 -1.8611
 1365SOL    HW3 5534   2.692   2.600   2.312 -1.9168  0.7868 -1.9538
 1365SOL    MW4 5535   2.707   2.685   2.329 -0.2522  0.2365 -0.5229
 1366SOL     OW 5536   2.916   2.826   2.206 -0.1961 -0.8388 -0.0133
 1366SOL    HW2 5537   2.917   2.916   2.239  1.1598 -1.1303  0.8171
 1366SOL    HW3 5538   2.922   2.834   2.111 -1.1478 -0.0397 -0.0155
 1366SOL    MW4 5539   2.917   2.839   2.198 -0.1428 -0.7718  0.0961
 1367SOL     OW 5540   2.890   3.068   2.319 -0.6931 -0.3036 -0.5278
 1367SOL    HW2 5541   2.960   3.126   2.291 -1.1661  0.4070 -0.2405
 1367SOL    HW3 5542   2.811   3.104   2.279 -0.9352 -0.9453 -0.6296
 1367SOL    MW4 5543   2.889   3.080   2.310 -0.7875 -0.2944 -0.5033
 1368SOL     OW 5544   2.676   3.206   2.238  0.3566 -0.1787 -0.1340
 1368SOL    HW2 5545   2.691   3.293   2.273 -1.2722  0.7470 -1.6822
 1368SOL    HW3 5546   2.667   3.219   2.144  1.1177 -2.1616 -0.5080
 1368SOL    MW4 5547   2.677   3.219   2.230  0.2422 -0.3183 -0.3877
 1369SOL     OW 5548   2.707   3.456   2.355  0.1473  0.2919  0.5361
 1369SOL    HW2 5549   2.720   3.460   2.449 -0.4123  0.0707  0.6286
 1369SOL    HW3 5550   2.626   3.505   2.340 -1.2550 -1.9706  0.5012
 1369SOL    MW4 5551   2.698   3.463   2.365 -0.1116 -0.0358  0.5434
 1370SOL     OW 5552   2.914   3.617   2.281 -0.2111  0.4879 -0.0856
 1370SOL    HW2 5553   2.840   3.571   2.321  1.0643  0.3854  2.2506
 1370SOL    HW3 5554   2.901   3.709   2.305 -0.8420  0.8463 -1.7242
 1370SOL    MW4 5555   2.902   3.623   2.290 -0.1259  0.5217  0.0067
 1371SOL     OW 5556   2.931   3.872   2.348 -0.2278  0.4383 -0.0777
 1371SOL    HW2 5557   2.948   3.890   2.441 -0.5315  0.5116 -0.0343
 1371SOL    HW3 5558   2.844   3.909   2.333 -1.9987 -3.2379  0.6256
 1371SOL    MW4 5559   2.922   3.880   2.358 -0.5016 -0.0370  0.0207
 1372SOL     OW 5560   2.686   3.999   2.245 -0.2957 -0.0039 -0.1751
 1372SOL    HW2 5561   2.616   3.948   2.286 -0.1052 -0.7630 -0.7811
 1372SOL    HW3 5562   2.668   3.994   2.151 -1.3627  2.6681 -0.1412
 1372SOL    MW4 5563   2.674   3.992   2.238 -0.4113  0.2487 -0.2506
 1373SOL     OW 5564   2.742   4.275   2.344  0.0208 -0.7544  0.8976
 1373SOL    HW2 5565   2.725   4.264   2.437 -2.8796 -0.8323  0.3848
 1373SOL    HW3 5566   2.734   4.187   2.307  1.4644 -0.7757  0.5799
 1373SOL    MW4 5567   2.739   4.262   2.351 -0.1714 -0.7672  0.7880
 1374SOL     OW 5568   2.952   4.415   2.256 -0.3484  0.3985 -0.1116
 1374SOL    HW2 5569   3.032   4.374   2.289 -0.8021  0.7696  1.4838
 1374SOL    HW3 5570   2.881   4.372   2.304 -0.9155  2.1483  0.6589
 1374SOL    MW4 5571   2.953   4.404   2.267 -0.4830  0.6785  0.2005
 1375SOL     OW 5572   3.367   0.002   2.323 -0.1815  0.3629 -0.1208
 1375SOL    HW2 5573   3.358   0.003   2.418 -0.6770  1.5703 -0.1853
 1375SOL    HW3 5574   3.456   0.033   2.307  0.2811 -0.8581 -0.0185
 1375SOL    MW4 5575   3.378   0.006   2.333 -0.1857  0.3610 -0.1156
 1376SOL     OW 5576   3.166   0.170   2.246  0.3374 -0.4689  0.5258
 1376SOL    HW2 5577   3.181   0.245   2.304  1.3813  0.2221 -0.6227
 1376SOL    HW3 5578   3.235   0.108   2.268  0.4785 -0.3899  0.2937
 1376SOL    MW4 5579   3.177   0.172   2.257  0.4938 -0.3673  0.3438
 1377SOL     OW 5580   3.176   0.408   2.375 -0.5830 -0.6053 -0.4044
 1377SOL    HW2 5581   3.252   0.454   2.341  0.0925 -1.3240  0.1302
 1377SOL    HW3 5582   3.103   0.440   2.321 -0.1131  0.9828 -0.1338
 1377SOL    MW4 5583   3.176   0.419   2.363 -0.4318 -0.4906 -0.2980
 1378SOL     OW 5584   3.395   0.544   2.283  0.3517  0.2251 -0.1147
 1378SOL    HW2 5585   3.470   0.499   2.321 -0.7500 -1.0847  0.5461
 1378SOL    HW3 5586   3.406   0.533   2.188 -0.1548 -1.8937  0.0441
 1378SOL    MW4 5587   3.407   0.537   2.275  0.1397 -0.2273 -0.0064
 1379SOL     OW 5588   3.316   0.783   2.364  0.1156 -0.1269  0.2829
 1379SOL    HW2 5589   3.404   0.821   2.368  0.9645 -2.2811  2.8757
 1379SOL    HW3 5590   3.329   0.698   2.323 -1.1754  0.5860 -1.6609
 1379SOL    MW4 5591   3.329   0.777   2.359  0.0572 -0.3170  0.3686
 1380SOL     OW 5592   3.127   0.908   2.194 -0.2958  0.1061 -0.2898
 1380SOL    HW2 5593   3.204   0.887   2.247  0.9834  0.0389 -2.1480
 1380SOL    HW3 5594   3.055   0.863   2.238  0.8624 -0.5556  0.9671
 1380SOL    MW4 5595   3.128   0.900   2.207  0.0257  0.0098 -0.3691
 1381SOL     OW 5596   3.130   1.147   2.343  0.2796 -0.4963  0.3531
 1381SOL    HW2 5597   3.209   1.188   2.307  0.7775 -0.5485  1.3479
 1381SOL    HW3 5598   3.121   1.066   2.293  0.7278 -0.3823  0.0749
 1381SOL    MW4 5599   3.139   1.142   2.332  0.4044 -0.4880  0.4478
 1382SOL     OW 5600   3.336   1.295   2.236 -0.2254  0.1265 -0.3586
 1382SOL    HW2 5601   3.415   1.265   2.282 -0.2389 -0.7005 -0.8649
 1382SOL    HW3 5602   3.318   1.382   2.273  0.6317  0.1059  0.1169
 1382SOL    MW4 5603   3.344   1.303   2.247 -0.1140  0.0147 -0.3629
 1383SOL     OW 5604   3.324   1.541   2.332  0.2006  0.2429 -0.0291
 1383SOL    HW2 5605   3.338   1.565   2.423 -1.6537 -1.3158  0.6853
 1383SOL    HW3 5606   3.244   1.587   2.306  2.7554  3.7751 -2.0844
 1383SOL    MW4 5607   3.315   1.550   2.340  0.2933  0.5033 -0.2060
 1384SOL     OW 5608   3.102   1.659   2.236 -0.2674  0.3188  0.5281
 1384SOL    HW2 5609   3.081   1.744   2.276 -1.8479 -0.3903  1.2442
 1384SOL    HW3 5610   3.028   1.603   2.258  0.3722 -1.0255 -0.6506
 1384SOL    MW4 5611   3.090   1.663   2.244 -0.3920  0.0478  0.4671
 1385SOL     OW 5612   3.105   1.930   2.336 -0.1110 -0.0745  0.1061
 1385SOL    HW2 5613   3.123   1.917   2.429 -1.1592  1.1825  0.5079
 1385SOL    HW3 5614   3.187   1.964   2.300 -0.5182  2.1506  1.1689
 1385SOL    MW4 5615   3.118   1.933   2.344 -0.3028  0.3848  0.2992
 1386SOL     OW 5616   3.322   2.053   2.208 -0.6053  0.1509  0.0436
 1386SOL    HW2 5617   3.405   2.028   2.250 -0.8994  0.2219  0.6772
 1386SOL    HW3 5618   3.344   2.064   2.116 -0.1688 -1.1018 -0.0158
 1386SOL    MW4 5619   3.336   2.051   2.201 -0.5865 -0.0050  0.1194
 1387SOL     OW 5620   3.313   2.313   2.300 -0.7574  0.0676 -0.2477
 1387SOL    HW2 5621   3.237   2.351   2.256  0.0569  1.7306 -0.2747
 1387SOL    HW3 5622   3.314   2.222   2.271 -0.8436  0.8518 -2.9158
 1387SOL    MW4 5623   3.303   2.306   2.290 -0.6616  0.3903 -0.6034
 1388SOL     OW 5624   3.098   2.443   2.214  0.1942 -0.5969  0.0457
 1388SOL    HW2 5625   3.117   2.527   2.255  0.5059 -0.5108 -0.2772
 1388SOL    HW3 5626   3.038   2.400   2.276 -1.2214  0.4954 -0.5299
 1388SOL    MW4 5627   3.092   2.448   2.228  0.0489 -0.4413 -0.0727
 1389SOL     OW 5628   3.139   2.706   2.331  0.5331  0.1885 -0.1178
 1389SOL    HW2 5629   3.154   2.723   2.424 -0.6318  2.2825 -0.2946
 1389SOL    HW3 5630   3.056   2.748   2.311 -0.1423 -1.8218 -1.7010
 1389SOL    MW4 5631   3.130   2.714   2.340  0.2904  0.1993 -0.3498
 1390SOL     OW 5632   3.379   2.802   2.238 -0.3592 -0.1349  0.2262
 1390SOL    HW2 5633   3.451   2.760   2.285  0.2877  0.3107 -0.3474
 1390SOL    HW3 5634   3.301   2.757   2.268  0.1184 -0.3319  1.1989
 1390SOL    MW4 5635   3.379   2.791   2.248 -0.2105 -0.1020  0.2789
 1391SOL     OW 5636   3.341   3.051   2.346  0.2141  0.2602  0.1889
 1391SOL    HW2 5637   3.410   3.098   2.301 -0.2723  0.9841  0.1930
 1391SOL    HW3 5638   3.345   2.962   2.311  0.5773  0.5266 -0.4482
 1391SOL    MW4 5639   3.350   3.046   2.336  0.1976  0.3905  0.1056
 1392SOL     OW 5640   3.121   3.222   2.261 -0.0510 -0.3479 -0.1140
 1392SOL    HW2 5641   3.154   3.307   2.290  0.7984 -0.6314 -0.2306
 1392SOL    HW3 5642   3.190   3.160   2.285 -0.4988 -0.9553 -0.3726
 1392SOL    MW4 5643   3.135   3.225   2.268  0.0021 -0.4654 -0.1633
 1393SOL     OW 5644   3.140   3.478   2.354 -0.4685  0.0877 -0.4401
 1393SOL    HW2 5645   3.142   3.501   2.447 -2.8487 -1.4167  0.0185
 1393SOL    HW3 5646   3.059   3.518   2.322 -1.2180 -1.9561 -1.1455
 1393SOL    MW4 5647   3.130   3.486   2.362 -0.8814 -0.3805 -0.4725
 1394SOL     OW 5648   3.381   3.625   2.290 -0.6430  0.0119 -0.1553
 1394SOL    HW2 5649   3.440   3.566   2.336 -1.3889 -0.2207  0.5087
 1394SOL    HW3 5650   3.294   3.587   2.302 -1.0160  0.7413 -0.5103
 1394SOL    MW4 5651   3.377   3.612   2.298 -0.7908  0.0772 -0.1144
 1395SOL     OW 5652   3.375   3.900   2.363  0.0016 -0.1470 -0.4122
 1395SOL    HW2 5653   3.458   3.938   2.335  0.6499  1.0485  2.8218
 1395SOL    HW3 5654   3.377   3.810   2.331  2.8573 -0.3246  0.1429
 1395SOL    MW4 5655   3.386   3.893   2.355  0.4640 -0.0129  0.0880
 1396SOL     OW 5656   3.145   4.010   2.261  0.5782 -0.1657  0.0723
 1396SOL    HW2 5657   3.218   3.964   2.301  0.1674 -2.3806 -1.6588
 1396SOL    HW3 5658   3.067   3.970   2.298  0.1852  2.1174  1.8371
 1396SOL    MW4 5659   3.144   3.999   2.271  0.4718 -0.1569  0.0768
 1397SOL     OW 5660   3.161   4.288   2.367 -0.2372 -0.2785  0.0677
 1397SOL    HW2 5661   3.245   4.326   2.344  0.8854 -1.6111  1.8262
 1397SOL    HW3 5662   3.156   4.207   2.317 -0.6826  0.0064 -0.3595
 1397SOL    MW4 5663   3.171   4.283   2.358 -0.1478 -0.4168  0.2432
 1398SOL     OW 5664   3.395   4.385   2.294 -0.4613  0.2814 -0.3024
 1398SOL    HW2 5665   3.390   4.476   2.323 -1.5883 -0.3626  1.6057
 1398SOL    HW3 5666   3.389   4.390   2.199 -0.4023  2.2104 -0.2172
 1398SOL    MW4 5667   3.393   4.398   2.285 -0.6020  0.4501 -0.0393
 1399SOL     OW 5668   3.844   4.650   2.364  0.4324  0.1193 -0.1026
 1399SOL    HW2 5669   3.849   4.661   2.459  0.3188 -0.0039 -0.0820
 1399SOL    HW3 5670   3.894   4.723   2.329  0.4380  0.1905  0.0521
 1399SOL    MW4 5671   3.851   4.661   2.372  0.4182  0.1123 -0.0796
 1400SOL     OW 5672   3.610   0.135   2.295  0.3892 -0.0631 -0.1803
 1400SOL    HW2 5673   3.631   0.227   2.311 -1.5582  0.4392 -0.3703
 1400SOL    HW3 5674   3.690   0.088   2.316  1.1661  1.6040  0.6914
 1400SOL    MW4 5675   3.623   0.141   2.300  0.2348  0.2231 -0.0904
 1401SOL     OW 5676   3.622   0.413   2.370  0.0176  0.5994  0.5133
 1401SOL    HW2 5677   3.642   0.422   2.463  2.1118 -0.8696  0.2373
 1401SOL    HW3 5678   3.691   0.462   2.326 -1.8186  2.5571 -0.2491
 1401SOL    MW4 5679   3.634   0.421   2.377  0.0517  0.6638  0.3762
 1402SOL     OW 5680   3.852   0.537   2.281 -0.5767  0.0242 -0.0983
 1402SOL    HW2 5681   3.850   0.619   2.329  0.2802 -0.2656  0.4584
 1402SOL    HW3 5682   3.862   0.562   2.189  1.2796  0.5184  0.2226
 1402SOL    MW4 5683   3.853   0.551   2.275 -0.2189  0.0511  0.0176
 1403SOL     OW 5684   3.847   0.775   2.397  0.1808  0.2354 -0.3717
 1403SOL    HW2 5685   3.828   0.807   2.485 -0.0198 -0.8484 -0.0176
 1403SOL    HW3 5686   3.928   0.820   2.372  0.7451 -0.1442  0.7352
 1403SOL    MW4 5687   3.855   0.785   2.406  0.2289  0.0424 -0.1791
 1404SOL     OW 5688   3.580   0.919   2.287  0.3074  0.3001 -0.1920
 1404SOL    HW2 5689   3.653   0.871   2.327  0.7281  0.6948 -0.4795
 1404SOL    HW3 5690   3.593   0.907   2.193  0.9765  1.7948 -0.2971
 1404SOL    MW4 5691   3.592   0.911   2.280  0.4511  0.5494 -0.2439
 1405SOL     OW 5692   3.567   1.185   2.358 -0.0372 -0.0853  0.3169
 1405SOL    HW2 5693   3.560   1.186   2.453  0.5036  0.5253  0.3577
 1405SOL    HW3 5694   3.565   1.092   2.334  1.9328 -0.3555  1.1108
 1405SOL    MW4 5695   3.566   1.173   2.367  0.2942 -0.0404  0.4270
 1406SOL     OW 5696   3.802   1.304   2.275 -0.3045  0.1961  0.1416
 1406SOL    HW2 5697   3.815   1.395   2.300 -0.6686  0.6630 -1.3225
 1406SOL    HW3 5698   3.715   1.282   2.307 -0.2184  0.3686  0.4872
 1406SOL    MW4 5699   3.792   1.313   2.282 -0.3412  0.2805 -0.0060
 1407SOL     OW 5700   3.770   1.580   2.334 -0.1997 -0.1155 -0.0516
 1407SOL    HW2 5701   3.755   1.573   2.428  0.2026  0.3403  0.0479
 1407SOL    HW3 5702   3.689   1.618   2.300  0.1379  0.9390  0.2865
 1407SOL    MW4 5703   3.757   1.584   2.342 -0.1020  0.0839  0.0060
 1408SOL     OW 5704   3.540   1.681   2.228  0.5844 -0.3030 -0.3827
 1408SOL    HW2 5705   3.471   1.617   2.243 -0.2450  0.5670 -0.4803
 1408SOL    HW3 5706   3.556   1.679   2.134  2.2271 -2.0606 -0.1225
 1408SOL    MW4 5707   3.533   1.672   2.218  0.6919 -0.4201 -0.3610
 1409SOL     OW 5708   3.549   1.945   2.330 -0.4400  0.2225 -0.8108
 1409SOL    HW2 5709   3.638   1.976   2.316 -0.5174  0.4721 -0.7647
 1409SOL    HW3 5710   3.547   1.857   2.293  0.4795 -0.7237  1.3485
 1409SOL    MW4 5711   3.560   1.938   2.323 -0.3288  0.1305 -0.5198
 1410SOL     OW 5712   3.805   2.038   2.273  0.1232 -0.4501 -0.3463
 1410SOL    HW2 5713   3.893   2.004   2.290 -0.4328 -2.0883 -0.6471
 1410SOL    HW3 5714   3.798   2.038   2.177 -1.0868 -2.6784 -0.2735
 1410SOL    MW4 5715   3.816   2.034   2.262 -0.1099 -0.9601 -0.3760
 1411SOL     OW 5716   3.798   2.297   2.367 -0.1312  0.3888  0.2735
 1411SOL    HW2 5717   3.718   2.333   2.330  0.8201  2.5915  0.2881
 1411SOL    HW3 5718   3.797   2.205   2.341 -3.2626  0.0544  1.3290
 1411SOL    MW4 5719   3.787   2.290   2.359 -0.4189  0.6354  0.4146
 1412SOL     OW 5720   3.571   2.411   2.251 -0.3654 -0.2347  0.5803
 1412SOL    HW2 5721   3.482   2.379   2.264 -0.5088 -0.1182 -0.0814
 1412SOL    HW3 5722   3.577   2.427   2.156  0.3845 -0.3306  0.6073
 1412SOL    MW4 5723   3.560   2.409   2.240 -0.2851 -0.2317  0.4964
 1413SOL     OW 5724   3.590   2.649   2.362 -0.2069  0.3679  0.0150
 1413SOL    HW2 5725   3.581   2.558   2.335 -0.6318  0.6208 -0.6858
 1413SOL    HW3 5726   3.574   2.647   2.457 -0.5219 -0.2361 -0.0508
 1413SOL    MW4 5727   3.587   2.637   2.371 -0.3045  0.3216 -0.0861
 1414SOL     OW 5728   3.792   2.769   2.263  0.1753 -0.0136 -0.1109
 1414SOL    HW2 5729   3.780   2.860   2.289  0.7384  0.1038 -0.2533
 1414SOL    HW3 5730   3.719   2.722   2.304 -0.0553  0.4843  0.0454
 1414SOL    MW4 5731   3.781   2.775   2.272  0.2191  0.0675 -0.1092
 1415SOL     OW 5732   3.788   3.039   2.353 -0.4469  0.1373 -0.3037
 1415SOL    HW2 5733   3.776   3.051   2.448 -1.2669 -0.1701 -0.3637
 1415SOL    HW3 5734   3.869   3.086   2.333  0.3390 -0.7389  0.7458
 1415SOL    MW4 5735   3.797   3.047   2.363 -0.4516 -0.0188 -0.1733
 1416SOL     OW 5736   3.549   3.186   2.232  0.1262  0.1358 -0.3630
 1416SOL    HW2 5737   3.547   3.271   2.277 -1.2408 -0.4829  0.7729
 1416SOL    HW3 5738   3.626   3.142   2.266  2.5281  2.0098 -3.0664
 1416SOL    MW4 5739   3.559   3.192   2.242  0.2627  0.3016 -0.5698
 1417SOL     OW 5740   3.550   3.431   2.379  0.8701  0.4150 -0.0745
 1417SOL    HW2 5741   3.530   3.449   2.471  1.3653  1.8842 -0.2470
 1417SOL    HW3 5742   3.633   3.475   2.363  0.7751  0.1970 -1.2403
 1417SOL    MW4 5743   3.558   3.439   2.389  0.9229  0.5803 -0.2513
 1418SOL     OW 5744   3.786   3.553   2.279 -0.0461 -0.2410 -0.2790
 1418SOL    HW2 5745   3.794   3.636   2.325 -0.2147  0.0378 -0.7460
 1418SOL    HW3 5746   3.744   3.576   2.196  0.9347 -0.6132 -0.8958
 1418SOL    MW4 5747   3.782   3.567   2.274  0.0610 -0.2537 -0.4222
 1419SOL     OW 5748   3.796   3.816   2.349  0.2921  0.0866 -0.1387
 1419SOL    HW2 5749   3.788   3.835   2.443 -0.7235  2.2246 -0.6208
 1419SOL    HW3 5750   3.879   3.858   2.323  0.4785 -0.3405 -0.2339
 1419SOL    MW4 5751   3.806   3.824   2.358  0.1826  0.3121 -0.2146
 1420SOL     OW 5752   3.636   4.021   2.228  0.5746  0.4690 -0.3901
 1420SOL    HW2 5753   3.630   4.094   2.291 -1.3972  0.4364 -0.5159
 1420SOL    HW3 5754   3.700   3.962   2.267 -0.7233  0.3783  1.6939
 1420SOL    MW4 5755   3.644   4.023   2.242  0.1431  0.4530 -0.1318
 1421SOL     OW 5756   3.630   4.234   2.401  0.3059  0.0565 -0.1246
 1421SOL    HW2 5757   3.700   4.287   2.363  0.1805 -0.8267 -1.6135
 1421SOL    HW3 5758   3.550   4.284   2.385  0.6188  1.3705  2.1317
 1421SOL    MW4 5759   3.629   4.248   2.394  0.3309  0.1130 -0.0236
 1422SOL     OW 5760   3.829   4.388   2.266 -0.0024 -0.4463 -0.2872
 1422SOL    HW2 5761   3.908   4.338   2.288 -0.0605 -0.6163 -0.4685
 1422SOL    HW3 5762   3.838   4.469   2.316 -0.1078 -0.8126  0.3310
 1422SOL    MW4 5763   3.841   4.392   2.276 -0.0238 -0.5169 -0.2294
 1423SOL     OW 5764   4.233   4.651   2.369 -0.1345  0.4742  0.1678
 1423SOL    HW2 5765   4.240   4.640   2.463 -0.9855  0.0293  0.1832
 1423SOL    HW3 5766   4.308   4.706   2.345  0.9593 -0.6619  0.8894
 1423SOL    MW4 5767   4.244   4.657   2.378 -0.1025  0.2656  0.2651
 1424SOL     OW 5768   4.055   0.154   2.269 -0.6342 -0.0173 -0.5222
 1424SOL    HW2 5769   4.042   0.220   2.337  0.5430  0.8480 -1.1132
 1424SOL    HW3 5770   4.117   0.091   2.307 -0.9928 -0.2494 -0.3198
 1424SOL    MW4 5771   4.061   0.154   2.283 -0.5264  0.0662 -0.5734
 1425SOL     OW 5772   4.074   0.391   2.424 -0.3639 -0.1561 -0.1841
 1425SOL    HW2 5773   4.153   0.435   2.393 -0.4367 -0.1846 -0.4121
 1425SOL    HW3 5774   4.003   0.449   2.396 -0.5948 -1.3629 -2.1654
 1425SOL    MW4 5775   4.075   0.405   2.416 -0.4039 -0.3191 -0.4756
 1426SOL     OW 5776   4.305   0.517   2.302  0.6234  0.4784  0.4895
 1426SOL    HW2 5777   4.294   0.604   2.339  0.3042 -0.0352  1.6336
 1426SOL    HW3 5778   4.377   0.478   2.352  1.6953  0.5672 -0.9316
 1426SOL    MW4 5779   4.313   0.523   2.313  0.7224  0.4224  0.4528
 1427SOL     OW 5780   4.274   0.767   2.417 -0.0914 -0.0279 -0.5578
 1427SOL    HW2 5781   4.207   0.813   2.367 -0.3195 -0.3368 -0.5350
 1427SOL    HW3 5782   4.356   0.810   2.392 -0.4458  1.3034  0.5049
 1427SOL    MW4 5783   4.276   0.779   2.407 -0.1683  0.1069 -0.4144
 1428SOL     OW 5784   4.071   0.903   2.287 -0.3586 -0.1375 -0.2304
 1428SOL    HW2 5785   4.065   0.987   2.331  1.5260 -0.1086  0.0226
 1428SOL    HW3 5786   4.078   0.925   2.194 -0.6485 -0.0431 -0.2291
 1428SOL    MW4 5787   4.071   0.917   2.280 -0.1478 -0.1213 -0.1969
 1429SOL     OW 5788   4.033   1.165   2.384  0.0242  0.1005  0.0088
 1429SOL    HW2 5789   4.032   1.185   2.478  1.3215 -0.6048  0.1758
 1429SOL    HW3 5790   3.947   1.193   2.354 -0.0220  1.3237  1.2040
 1429SOL    MW4 5791   4.021   1.171   2.393  0.1888  0.1688  0.1886
 1430SOL     OW 5792   4.273   1.271   2.284 -0.0491 -0.1746 -0.5647
 1430SOL    HW2 5793   4.190   1.233   2.314 -0.2510 -0.4679 -1.4650
 1430SOL    HW3 5794   4.340   1.225   2.335 -0.4204 -0.1355 -0.0353
 1430SOL    MW4 5795   4.271   1.260   2.295 -0.1249 -0.2081 -0.6137
 1431SOL     OW 5796   4.243   1.543   2.360 -0.1712  0.4534  0.4782
 1431SOL    HW2 5797   4.262   1.458   2.321  0.6852  0.3299  1.1629
 1431SOL    HW3 5798   4.318   1.598   2.336 -0.6421  0.9727  0.1724
 1431SOL    MW4 5799   4.256   1.539   2.352 -0.1202  0.5058  0.5281
 1432SOL     OW 5800   4.029   1.696   2.274 -0.3397 -0.3329 -0.5933
 1432SOL    HW2 5801   4.082   1.638   2.329 -0.4048  0.6185  0.4881
 1432SOL    HW3 5802   3.939   1.665   2.287 -0.3649 -0.0469 -0.0912
 1432SOL    MW4 5803   4.024   1.684   2.283 -0.3519 -0.1696 -0.3843
 1433SOL     OW 5804   4.047   1.937   2.355 -0.6433  0.0251 -0.3813
 1433SOL    HW2 5805   4.045   1.920   2.450  1.0126 -0.1709 -0.3666
 1433SOL    HW3 5806   4.034   1.851   2.315  0.8043 -0.2227 -0.3246
 1433SOL    MW4 5807   4.045   1.924   2.363 -0.2337 -0.0335 -0.3717
 1434SOL     OW 5808   4.265   2.089   2.262 -0.0595 -0.1951 -0.1734
 1434SOL    HW2 5809   4.263   2.177   2.300  0.2444 -1.0536  1.9363
 1434SOL    HW3 5810   4.189   2.045   2.299  0.3746 -1.1357 -0.3789
 1434SOL    MW4 5811   4.255   2.094   2.272  0.0377 -0.4325  0.0777
 1435SOL     OW 5812   4.258   2.332   2.380 -0.3668 -0.0759  0.1641
 1435SOL    HW2 5813   4.181   2.369   2.336  0.5768  0.3024 -1.2226
 1435SOL    HW3 5814   4.332   2.383   2.346  0.4167  0.1348  2.1233
 1435SOL    MW4 5815   4.258   2.344   2.369 -0.1388  0.0019  0.2398
 1436SOL     OW 5816   4.031   2.430   2.253  0.1209 -0.1605 -0.5600
 1436SOL    HW2 5817   4.046   2.523   2.274  0.6637 -0.3581 -0.0775
 1436SOL    HW3 5818   3.946   2.411   2.294 -0.8450  0.5840 -2.1451
 1436SOL    MW4 5819   4.022   2.440   2.262  0.0648 -0.0885 -0.7055
 1437SOL     OW 5820   4.040   2.689   2.353  0.2851  0.0957  0.1895
 1437SOL    HW2 5821   4.045   2.714   2.445 -0.8971 -0.0199  0.2967
 1437SOL    HW3 5822   3.952   2.716   2.326  0.8676  0.7488 -1.0870
 1437SOL    MW4 5823   4.029   2.696   2.362  0.2060  0.1664  0.0355
 1438SOL     OW 5824   4.258   2.839   2.265  0.1306  0.3690 -0.1211
 1438SOL    HW2 5825   4.184   2.793   2.304 -1.0647  1.6118 -0.8499
 1438SOL    HW3 5826   4.334   2.812   2.316 -0.9726 -0.2223  1.2223
 1438SOL    MW4 5827   4.258   2.829   2.277 -0.1726  0.4549 -0.0401
 1439SOL     OW 5828   4.275   3.086   2.382  0.4263 -0.2503 -0.0806
 1439SOL    HW2 5829   4.274   3.011   2.322  0.8865  0.5688 -1.1226
 1439SOL    HW3 5830   4.341   3.145   2.345 -2.0928  2.0575 -0.9686
 1439SOL    MW4 5831   4.284   3.084   2.369  0.1545  0.1624 -0.3350
 1440SOL     OW 5832   4.021   3.181   2.307 -0.3265  0.0846  0.3724
 1440SOL    HW2 5833   4.017   3.272   2.338  1.6822  0.6221 -0.8127
 1440SOL    HW3 5834   4.102   3.147   2.344 -0.7341 -1.0222  0.2550
 1440SOL    MW4 5835   4.031   3.189   2.316 -0.1154  0.0093  0.2005
 1441SOL     OW 5836   4.018   3.437   2.416  0.2006 -0.1600 -0.7378
 1441SOL    HW2 5837   4.087   3.498   2.389 -0.0429  0.5345  0.1997
 1441SOL    HW3 5838   3.938   3.471   2.377 -0.2821  1.2631  1.4152
 1441SOL    MW4 5839   4.017   3.449   2.407  0.1049  0.1194 -0.3300
 1442SOL     OW 5840   4.227   3.601   2.298  0.5500  0.3711  0.0585
 1442SOL    HW2 5841   4.211   3.695   2.302 -0.5561  0.2675 -1.3836
 1442SOL    HW3 5842   4.239   3.582   2.204  0.6780 -0.9262  0.3225
 1442SOL    MW4 5843   4.226   3.611   2.286  0.4206  0.1862 -0.0970
 1443SOL     OW 5844   4.247   3.872   2.322  0.5185 -0.1909  0.0941
 1443SOL    HW2 5845   4.262   3.850   2.414  1.0699 -1.4161 -0.2826
 1443SOL    HW3 5846   4.323   3.925   2.297  1.9694 -2.4907 -0.5145
 1443SOL    MW4 5847   4.259   3.876   2.330  0.7830 -0.6561 -0.0360
 1444SOL     OW 5848   3.996   3.985   2.280  0.0033  0.3349  0.5203
 1444SOL    HW2 5849   4.081   3.944   2.299 -0.1909 -0.1821  0.2874
 1444SOL    HW3 5850   3.994   3.990   2.184 -0.4161 -0.0545  0.5087
 1444SOL    MW4 5851   4.007   3.980   2.270 -0.0777  0.2153  0.4883
 1445SOL     OW 5852   4.046   4.248   2.347  0.2890  0.0178 -0.2099
 1445SOL    HW2 5853   4.135   4.267   2.317 -0.8971  1.4929 -2.8687
 1445SOL    HW3 5854   4.033   4.155   2.327  1.2256 -0.2247  0.2681
 1445SOL    MW4 5855   4.056   4.238   2.340  0.2551  0.1807 -0.4973
 1446SOL     OW 5856   4.259   4.395   2.257 -0.8122  0.4447  0.0960
 1446SOL    HW2 5857   4.240   4.476   2.304 -0.7058  0.2450  0.4833
 1446SOL    HW3 5858   4.348   4.372   2.284 -0.7322  0.3591 -0.2429
 1446SOL    MW4 5859   4.268   4.403   2.267 -0.7877  0.4072  0.1023
 1447SOL     OW 5860   0.202   4.641   2.674 -0.1526  0.4336 -0.4067
 1447SOL    HW2 5861   0.204   4.553   2.712  0.2414  0.1872 -0.9931
 1447SOL    HW3 5862   0.124   4.682   2.712  0.3891  0.2886  0.8816
 1447SOL    MW4 5863   0.192   4.635   2.684 -0.0292  0.3819 -0.3140
 1448SOL     OW 5864   4.471   0.111   2.754  0.0619 -0.5452  0.2826
 1448SOL    HW2 5865   4.464   0.123   2.849  1.0108 -1.3459  0.4586
 1448SOL    HW3 5866   4.471   0.200   2.719 -0.5583 -0.2474  1.0126
 1448SOL    MW4 5867   4.470   0.124   2.762  0.1049 -0.6116  0.4020
 1449SOL     OW 5868   4.477   0.382   2.692 -0.2503  0.5616  0.3593
 1449SOL    HW2 5869   4.563   0.422   2.707  0.5048 -1.1404  0.7251
 1449SOL    HW3 5870   4.465   0.385   2.597 -0.0618  1.3609  0.3576
 1449SOL    MW4 5871   4.487   0.387   2.682 -0.1259  0.4425  0.4075
 1450SOL     OW 5872   0.226   0.507   2.714 -0.2074  0.3045 -0.3251
 1450SOL    HW2 5873   0.240   0.520   2.808 -2.1645  0.2572  0.0020
 1450SOL    HW3 5874   0.309   0.472   2.682  0.9732  1.6997  1.1105
 1450SOL    MW4 5875   0.239   0.504   2.722 -0.3099  0.4823 -0.0925
 1451SOL     OW 5876   0.222   0.776   2.618 -0.1513 -0.1543  0.1333
 1451SOL    HW2 5877   0.295   0.818   2.662  1.2231 -1.0949 -1.2218
 1451SOL    HW3 5878   0.220   0.687   2.653  0.5063 -0.6868 -1.1633
 1451SOL    MW4 5879   0.231   0.770   2.628  0.1168 -0.3487 -0.2170
 1452SOL     OW 5880   4.478   0.913   2.765 -0.0154  0.3609 -0.1873
 1452SOL    HW2 5881   4.400   0.882   2.720 -0.1935  0.2689  0.1801
 1452SOL    HW3 5882   4.550   0.867   2.723 -0.1776  0.2990 -0.3964
 1452SOL    MW4 5883   4.477   0.903   2.753 -0.0606  0.3406 -0.1662
 1453SOL     OW 5884   4.460   1.172   2.664  0.4646  0.4817  0.1123
 1453SOL    HW2 5885   4.532   1.216   2.709  0.5249 -0.6086  1.0757
 1453SOL    HW3 5886   4.457   1.085   2.702 -0.0371 -0.1730 -1.3844
 1453SOL    MW4 5887   4.469   1.167   2.675  0.4063  0.2515  0.0422
 1454SOL     OW 5888   0.204   1.287   2.773  0.1639 -0.1238  0.4451
 1454SOL    HW2 5889   0.272   1.235   2.730 -0.0801 -0.5179  0.5397
 1454SOL    HW3 5890   0.191   1.362   2.714  1.2255  0.3522  0.8082
 1454SOL    MW4 5891   0.211   1.290   2.760  0.2718 -0.1130  0.5057
 1455SOL     OW 5892   0.194   1.522   2.610  0.2338 -0.1087 -0.3781
 1455SOL    HW2 5893   0.270   1.550   2.661 -0.7106  0.0908  0.9361
 1455SOL    HW3 5894   0.123   1.581   2.637 -0.3440 -0.1572 -1.7436
 1455SOL    MW4 5895   0.194   1.534   2.620  0.0330 -0.0887 -0.3850
 1456SOL     OW 5896   4.473   1.648   2.725  0.0600 -0.2246  0.2753
 1456SOL    HW2 5897   4.480   1.667   2.819  0.3868 -0.6382  0.3381
 1456SOL    HW3 5898   4.481   1.733   2.682 -1.6547  0.1554  0.6938
 1456SOL    MW4 5899   4.475   1.661   2.732 -0.1230 -0.2290  0.3386
 1457SOL     OW 5900   4.468   1.917   2.630 -0.0110  0.3657  0.0774
 1457SOL    HW2 5901   4.544   1.962   2.667  1.1375 -0.9188 -0.7216
 1457SOL    HW3 5902   4.481   1.921   2.536 -1.0097  0.2295 -0.0731
 1457SOL    MW4 5903   4.480   1.924   2.623  0.0091  0.1783 -0.0479
 1458SOL     OW 5904   0.185   2.059   2.727 -0.0506  0.2836 -0.4959
 1458SOL    HW2 5905   0.255   2.010   2.684 -1.3473 -2.4217  0.3469
 1458SOL    HW3 5906   0.181   2.142   2.680  2.6409 -0.1428 -1.5769
 1458SOL    MW4 5907   0.194   2.063   2.716  0.1334 -0.1295 -0.5276
 1459SOL     OW 5908   0.208   2.326   2.590 -0.2509  0.2246 -0.0534
 1459SOL    HW2 5909   0.281   2.374   2.630  0.0024  1.7441 -2.2326
 1459SOL    HW3 5910   0.130   2.376   2.616 -0.1669  0.6938 -0.6840
 1459SOL    MW4 5911   0.207   2.339   2.599 -0.2064  0.4869 -0.4241
 1460SOL     OW 5912   4.483   2.439   2.736  0.1044  0.3652  0.1545
 1460SOL    HW2 5913   4.485   2.408   2.826  0.0594 -0.9461 -0.2772
 1460SOL    HW3 5914   4.399   2.409   2.701  0.0696  0.9594 -0.2887
 1460SOL    MW4 5915   4.472   2.431   2.743  0.0935  0.2706  0.0391
 1461SOL     OW 5916   0.003   2.712   2.665  0.4494 -0.8768  0.7032
 1461SOL    HW2 5917  -0.080   2.755   2.684  0.7403  0.3100 -0.6191
 1461SOL    HW3 5918  -0.011   2.621   2.690 -1.4241 -0.7886  0.0750
 1461SOL    MW4 5919  -0.009   2.705   2.671  0.2413 -0.7086  0.4458
 1462SOL     OW 5920   0.223   2.833   2.774 -0.4379  0.4894  0.3104
 1462SOL    HW2 5921   0.219   2.924   2.745 -1.6113 -0.1471 -1.5745
 1462SOL    HW3 5922   0.140   2.795   2.746 -0.1684 -1.0481  1.5238
 1462SOL    MW4 5923   0.211   2.840   2.767 -0.5572  0.2024  0.2220
 1463SOL     OW 5924   0.211   3.102   2.687  0.3180 -0.0406 -0.5976
 1463SOL    HW2 5925   0.286   3.159   2.705  0.3138 -0.4535  0.7554
 1463SOL    HW3 5926   0.191   3.118   2.595  0.2799  2.2279 -0.2484
 1463SOL    MW4 5927   0.218   3.112   2.677  0.3124  0.2043 -0.3729
 1464SOL     OW 5928   4.469   3.214   2.800  0.0266  0.3061  0.2310
 1464SOL    HW2 5929   4.405   3.174   2.741  0.4619  0.2731 -0.2184
 1464SOL    HW3 5930   4.551   3.168   2.781  0.0042 -0.2361  1.3935
 1464SOL    MW4 5931   4.472   3.202   2.790  0.0815  0.2303  0.3250
 1465SOL     OW 5932   4.487   3.450   2.658 -0.3767  0.1483  0.0837
 1465SOL    HW2 5933   4.561   3.489   2.705  0.3365 -0.0547 -0.8532
 1465SOL    HW3 5934   4.475   3.365   2.701 -0.5870  0.5123  0.7594
 1465SOL    MW4 5935   4.495   3.444   2.670 -0.3104  0.1695  0.0491
 1466SOL     OW 5936   0.188   3.596   2.786 -0.3778  0.2749  0.4226
 1466SOL    HW2 5937   0.203   3.578   2.878 -0.6830 -1.9867  0.0419
 1466SOL    HW3 5938   0.267   3.565   2.742 -0.7400  0.2358 -0.2075
 1466SOL    MW4 5939   0.201   3.590   2.792 -0.4659 -0.0286  0.2894
 1467SOL     OW 5940   0.163   3.870   2.689 -0.0526 -0.0214  0.0833
 1467SOL    HW2 5941   0.170   3.781   2.725 -1.6953 -0.4859 -0.6995
 1467SOL    HW3 5942   0.172   3.859   2.595 -0.4488  0.6085 -0.0366
 1467SOL    MW4 5943   0.165   3.857   2.682 -0.3216  0.0007 -0.0358
 1468SOL     OW 5944   4.444   4.021   2.760  0.2054 -0.1567 -0.1579
 1468SOL    HW2 5945   4.446   4.101   2.707 -1.1137 -0.5230 -0.7704
 1468SOL    HW3 5946   4.513   3.967   2.724  0.1249  0.1024 -0.7035
 1468SOL    MW4 5947   4.453   4.025   2.748  0.0210 -0.1707 -0.3104
 1469SOL     OW 5948   4.466   4.254   2.611 -0.3123 -0.0793  0.2945
 1469SOL    HW2 5949   4.388   4.296   2.648 -0.3288  0.1811 -0.0394
 1469SOL    HW3 5950   4.539   4.298   2.655 -0.3323  0.2229  0.0242
 1469SOL    MW4 5951   4.465   4.266   2.622 -0.3166 -0.0052  0.2146
 1470SOL     OW 5952   0.180   4.370   2.734  0.3568  0.9197  0.4699
 1470SOL    HW2 5953   0.168   4.361   2.828 -1.3399 -0.4985  0.1524
 1470SOL    HW3 5954   0.256   4.317   2.714  0.4052  0.8010  0.9619
 1470SOL    MW4 5955   0.188   4.362   2.744  0.1393  0.7172  0.4928
 1471SOL     OW 5956   0.686   4.641   2.636 -0.2198 -0.1644  0.3020
 1471SOL    HW2 5957   0.758   4.694   2.670  0.5744 -0.0361 -1.5047
 1471SOL    HW3 5958   0.608   4.677   2.678  0.7995 -0.6640  2.7285
 1471SOL    MW4 5959   0.685   4.653   2.646  0.0195 -0.2131  0.3839
 1472SOL     OW 5960   0.457   0.104   2.752  0.4532  0.0068  0.3002
 1472SOL    HW2 5961   0.444   0.088   2.845 -0.1269 -0.5349  0.1245
 1472SOL    HW3 5962   0.374   0.080   2.711  1.0920 -0.8461 -0.4970
 1472SOL    MW4 5963   0.445   0.099   2.759  0.4610 -0.1772  0.1719
 1473SOL     OW 5964   0.459   0.358   2.647  0.2818 -0.0527  0.4527
 1473SOL    HW2 5965   0.532   0.407   2.683 -0.6446  0.1395  2.1128
 1473SOL    HW3 5966   0.459   0.276   2.696 -1.4096  0.4918  1.4090
 1473SOL    MW4 5967   0.469   0.354   2.658 -0.0636  0.0445  0.7980
 1474SOL     OW 5968   0.667   0.499   2.758 -0.5251  0.3309  0.1849
 1474SOL    HW2 5969   0.668   0.492   2.854  1.6176 -1.1373  0.0813
 1474SOL    HW3 5970   0.746   0.454   2.730 -0.6319  1.5959 -2.2460
 1474SOL    MW4 5971   0.677   0.492   2.767 -0.2566  0.3041 -0.1495
 1475SOL     OW 5972   0.654   0.762   2.658 -0.1373 -0.2694 -0.2479
 1475SOL    HW2 5973   0.734   0.812   2.674 -0.4994 -0.3467  1.8818
 1475SOL    HW3 5974   0.665   0.681   2.707 -0.7507 -1.0721 -1.4131
 1475SOL    MW4 5975   0.666   0.758   2.666 -0.2661 -0.3855 -0.1209
 1476SOL     OW 5976   0.430   0.887   2.783 -0.0859  0.1612  0.2163
 1476SOL    HW2 5977   0.432   0.976   2.747  0.5078  0.3643  0.7489
 1476SOL    HW3 5978   0.507   0.844   2.747  0.9963  0.6361  1.9174
 1476SOL    MW4 5979   0.440   0.893   2.774  0.1352  0.2507  0.5107
 1477SOL     OW 5980   0.410   1.124   2.665 -0.4392 -0.4947  0.9028
 1477SOL    HW2 5981   0.487   1.178   2.682 -0.3150 -1.1572  2.5645
 1477SOL    HW3 5982   0.402   1.121   2.570  0.5843  0.9842  0.7687
 1477SOL    MW4 5983   0.419   1.130   2.655 -0.2878 -0.3871  1.1044
 1478SOL     OW 5984   0.662   1.246   2.718  0.2272 -0.1754 -0.3011
 1478SOL    HW2 5985   0.675   1.275   2.808  0.0388  0.5776 -0.5135
 1478SOL    HW3 5986   0.748   1.218   2.688  0.1802 -0.9880  0.3042
 1478SOL    MW4 5987   0.675   1.246   2.726  0.1962 -0.1832 -0.2489
 1479SOL     OW 5988   0.675   1.530   2.626  0.4659 -0.0166  0.0500
 1479SOL    HW2 5989   0.595   1.568   2.664 -0.3365  0.3257 -1.9431
 1479SOL    HW3 5990   0.662   1.435   2.634  0.6358  0.0545  1.2834
 1479SOL    MW4 5991   0.663   1.523   2.632  0.3825  0.0380 -0.0503
 1480SOL     OW 5992   0.421   1.629   2.725 -0.1361  0.2447 -0.0135
 1480SOL    HW2 5993   0.415   1.618   2.819  0.2884 -0.0212 -0.0131
 1480SOL    HW3 5994   0.426   1.724   2.712  1.9392  0.2206  0.3830
 1480SOL    MW4 5995   0.421   1.640   2.735  0.1937  0.2065  0.0389
 1481SOL     OW 5996   0.420   1.899   2.636  0.0458  0.5027  0.1269
 1481SOL    HW2 5997   0.504   1.939   2.660 -0.4568  1.5466  0.1699
 1481SOL    HW3 5998   0.419   1.901   2.541  0.2623  0.0778  0.1138
 1481SOL    MW4 5999   0.431   1.905   2.627  0.0081  0.5842  0.1307
 1482SOL     OW 6000   0.669   2.042   2.700 -0.0893 -0.3392  0.3493
 1482SOL    HW2 6001   0.658   2.056   2.794  0.2483  0.6604  0.2403
 1482SOL    HW3 6002   0.757   2.007   2.691  0.0166 -0.0713  0.3607
 1482SOL    MW4 6003   0.679   2.039   2.712 -0.0306 -0.1719  0.3364
 1483SOL     OW 6004   0.669   2.306   2.626 -0.3612 -0.3137 -0.4203
 1483SOL    HW2 6005   0.742   2.344   2.675 -1.2915 -0.0350  0.7910
 1483SOL    HW3 6006   0.671   2.213   2.649  0.5376 -0.5965 -1.6012
 1483SOL    MW4 6007   0.679   2.299   2.636 -0.3654 -0.3142 -0.4163
 1484SOL     OW 6008   0.432   2.433   2.686 -0.1556  0.8319  0.1827
 1484SOL    HW2 6009   0.449   2.526   2.672  1.0820  0.2660 -2.3624
 1484SOL    HW3 6010   0.517   2.391   2.672 -1.0386 -0.8448 -0.2347
 1484SOL    MW4 6011   0.446   2.439   2.683 -0.1089  0.5362 -0.2084
 1485SOL     OW 6012   0.448   2.721   2.636 -0.2662  0.0203 -0.0221
 1485SOL    HW2 6013   0.518   2.779   2.664 -0.2014 -0.2353  0.3502
 1485SOL    HW3 6014   0.370   2.755   2.679  0.0456 -1.0895  1.4455
 1485SOL    MW4 6015   0.447   2.733   2.645 -0.2165 -0.1597  0.2208
 1486SOL     OW 6016   0.664   2.851   2.748 -0.1305  0.2798 -0.5051
 1486SOL    HW2 6017   0.664   2.839   2.843  0.1095 -0.0792 -0.5486
 1486SOL    HW3 6018   0.665   2.946   2.735 -0.6807  0.3321 -0.1492
 1486SOL    MW4 6019   0.664   2.862   2.758 -0.1715  0.2394 -0.4637
 1487SOL     OW 6020   0.642   3.111   2.656  0.0571  0.0298  0.1288
 1487SOL    HW2 6021   0.721   3.161   2.678  0.6382 -1.3027  1.1018
 1487SOL    HW3 6022   0.648   3.098   2.562  1.8299 -1.4145  0.3976
 1487SOL    MW4 6023   0.653   3.116   2.647  0.3676 -0.3366  0.2930
 1488SOL     OW 6024   0.429   3.254   2.721 -0.2087 -0.1791 -0.1767
 1488SOL    HW2 6025   0.430   3.251   2.817  0.3501 -0.6161 -0.1965
 1488SOL    HW3 6026   0.500   3.196   2.694 -0.4661 -0.1812 -0.8612
 1488SOL    MW4 6027   0.438   3.246   2.730 -0.1689 -0.2370 -0.2697
 1489SOL     OW 6028   0.438   3.517   2.655 -0.1957 -0.3272  0.0286
 1489SOL    HW2 6029   0.439   3.425   2.682  0.9377 -0.3795 -0.1681
 1489SOL    HW3 6030   0.432   3.513   2.559 -1.5966 -0.1778  0.1101
 1489SOL    MW4 6031   0.438   3.504   2.646 -0.2310 -0.3145  0.0131
 1490SOL     OW 6032   0.689   3.619   2.755  0.2418  0.0450  0.1236
 1490SOL    HW2 6033   0.693   3.609   2.850 -0.1600  1.5085  0.2993
 1490SOL    HW3 6034   0.610   3.570   2.729  0.3789 -0.3959  0.5325
 1490SOL    MW4 6035   0.679   3.611   2.764  0.2068  0.1800  0.2005
 1491SOL     OW 6036   0.670   3.889   2.692  0.3647  0.1691  0.0232
 1491SOL    HW2 6037   0.588   3.927   2.723  0.5200 -0.1481  0.8438
 1491SOL    HW3 6038   0.666   3.797   2.720  0.7527  0.0167 -0.4184
 1491SOL    MW4 6039   0.658   3.882   2.700  0.4364  0.1073  0.0732
 1492SOL     OW 6040   0.432   3.998   2.761  0.4629  0.0812 -0.4428
 1492SOL    HW2 6041   0.429   4.091   2.737 -1.0577  0.1713  0.0593
 1492SOL    HW3 6042   0.359   3.959   2.714 -0.0985 -0.4955  0.8888
 1492SOL    MW4 6043   0.422   4.005   2.752  0.1882  0.0172 -0.2010
 1493SOL     OW 6044   0.440   4.266   2.655 -0.2808  0.3716 -0.1405
 1493SOL    HW2 6045   0.520   4.315   2.676 -0.2521  0.6204 -0.8140
 1493SOL    HW3 6046   0.444   4.255   2.560 -0.6998 -0.2280 -0.0848
 1493SOL    MW4 6047   0.451   4.271   2.645 -0.3323  0.3252 -0.2220
 1494SOL     OW 6048   0.665   4.408   2.756  0.0398  0.2946 -0.4960
 1494SOL    HW2 6049   0.741   4.353   2.734 -0.7560 -1.2567  0.5209
 1494SOL    HW3 6050   0.682   4.491   2.711  2.4511  0.0630 -0.1013
 1494SOL    MW4 6051   0.677   4.411   2.747  0.2529  0.0596 -0.3099
 1495SOL     OW 6052   1.118   4.616   2.596  0.0175  0.4902  0.4563
 1495SOL    HW2 6053   1.189   4.662   2.641  1.1231  0.2448 -0.9851
 1495SOL    HW3 6054   1.127   4.525   2.624  0.4204  0.4172  0.0884
 1495SOL    MW4 6055   1.129   4.610   2.606  0.2165  0.4482  0.2177
 1496SOL     OW 6056   0.910   0.103   2.721 -0.1671 -0.2875  0.0581
 1496SOL    HW2 6057   0.926   0.119   2.814 -0.6341 -0.9870  0.2591
 1496SOL    HW3 6058   0.968   0.031   2.698 -1.0502 -1.0429  0.1469
 1496SOL    MW4 6059   0.920   0.096   2.730 -0.3452 -0.4794  0.0961
 1497SOL     OW 6060   0.899   0.393   2.641  0.0210 -0.0493  0.0212
 1497SOL    HW2 6061   0.891   0.300   2.666 -1.0376  0.1340  0.3949
 1497SOL    HW3 6062   0.889   0.393   2.546  1.3131 -0.4548 -0.1222
 1497SOL    MW4 6063   0.897   0.380   2.632  0.0517 -0.0786  0.0515
 1498SOL     OW 6064   1.132   0.497   2.729  0.3006  0.4661 -0.4734
 1498SOL    HW2 6065   1.126   0.591   2.714 -0.3117  0.7706  1.5114
 1498SOL    HW3 6066   1.052   0.461   2.691 -1.0610  1.1668  1.6706
 1498SOL    MW4 6067   1.121   0.505   2.722  0.0402  0.5987  0.0713
 1499SOL     OW 6068   1.111   0.762   2.688 -0.4742 -0.2363  0.1460
 1499SOL    HW2 6069   1.194   0.788   2.728 -0.7656 -1.1763  1.3693
 1499SOL    HW3 6070   1.128   0.765   2.594  0.5471  0.8775  0.3551
 1499SOL    MW4 6071   1.124   0.766   2.681 -0.3780 -0.2134  0.3347
 1500SOL     OW 6072   0.871   0.884   2.735  0.1494  0.0894  0.1772
 1500SOL    HW2 6073   0.854   0.891   2.829  0.9888  0.4481  0.3014
 1500SOL    HW3 6074   0.955   0.839   2.728 -1.0127 -2.0483 -0.4567
 1500SOL    MW4 6075   0.880   0.879   2.746  0.1068 -0.1454  0.1099
 1501SOL     OW 6076   0.931   1.151   2.644 -0.1231 -0.1749  0.2374
 1501SOL    HW2 6077   0.923   1.060   2.671  0.2959 -0.1068  0.5845
 1501SOL    HW3 6078   0.935   1.147   2.548 -0.7676 -0.4690  0.2160
 1501SOL    MW4 6079   0.930   1.139   2.635 -0.1528 -0.2048  0.2804
 1502SOL     OW 6080   1.130   1.275   2.780  0.1900  0.6093 -0.2113
 1502SOL    HW2 6081   1.135   1.371   2.777  0.2890  0.5988 -0.4000
 1502SOL    HW3 6082   1.050   1.254   2.733 -0.0731  0.6231  0.2297
 1502SOL    MW4 6083   1.121   1.285   2.774  0.1683  0.6099 -0.1781
 1503SOL     OW 6084   1.128   1.555   2.728  0.1190  0.0599 -0.6762
 1503SOL    HW2 6085   1.059   1.619   2.749  0.1027  0.5009 -1.9980
 1503SOL    HW3 6086   1.126   1.550   2.632  0.6678 -1.3316 -0.6128
 1503SOL    MW4 6087   1.118   1.563   2.718  0.1893 -0.0656 -0.8426
 1504SOL     OW 6088   0.889   1.680   2.764  0.0849  0.3129 -0.1180
 1504SOL    HW2 6089   0.876   1.691   2.858  0.2753 -2.2963  0.2369
 1504SOL    HW3 6090   0.808   1.639   2.733  0.2572  0.6268 -0.9960
 1504SOL    MW4 6091   0.877   1.676   2.772  0.1327  0.0101 -0.1872
 1505SOL     OW 6092   0.927   1.937   2.642  0.0904 -0.2237 -0.2303
 1505SOL    HW2 6093   1.006   1.974   2.682 -0.2693 -0.0633  0.3445
 1505SOL    HW3 6094   0.916   1.852   2.685 -0.2310 -0.1041 -0.0715
 1505SOL    MW4 6095   0.936   1.931   2.653  0.0005 -0.1868 -0.1335
 1506SOL     OW 6096   1.123   2.061   2.772  0.3515  0.0230 -0.0870
 1506SOL    HW2 6097   1.208   2.029   2.741  0.8689  1.4656 -0.1938
 1506SOL    HW3 6098   1.109   2.142   2.725 -1.2387 -0.3418 -0.2725
 1506SOL    MW4 6099   1.133   2.067   2.762  0.2099  0.1650 -0.1256
 1507SOL     OW 6100   1.137   2.322   2.663  0.5786  0.2212  0.5002
 1507SOL    HW2 6101   1.218   2.366   2.688  0.6813  0.2141  0.1897
 1507SOL    HW3 6102   1.131   2.335   2.568 -0.9809  2.2034  0.8490
 1507SOL    MW4 6103   1.147   2.329   2.653  0.3864  0.4821  0.5052
 1508SOL     OW 6104   0.885   2.427   2.746  0.5201  0.0448 -0.1626
 1508SOL    HW2 6105   0.865   2.518   2.722 -0.3443 -0.1175 -0.0778
 1508SOL    HW3 6106   0.973   2.412   2.712  0.5028  0.7808 -0.5464
 1508SOL    MW4 6107   0.894   2.437   2.738  0.4038  0.1202 -0.2022
 1509SOL     OW 6108   0.864   2.699   2.660  0.1718 -0.1744  0.2400
 1509SOL    HW2 6109   0.937   2.753   2.690 -0.0716 -0.7174  1.8385
 1509SOL    HW3 6110   0.786   2.746   2.690 -0.0934 -0.4184 -0.0696
 1509SOL    MW4 6111   0.864   2.712   2.668  0.1047 -0.2782  0.4101
 1510SOL     OW 6112   1.083   2.832   2.740  0.0000  0.0000 -0.0080
 1510SOL    HW2 6113   1.106   2.825   2.832  0.0000  0.0000 -0.0080
 1510SOL    HW3 6114   1.159   2.795   2.694  0.0000  0.0000 -0.0085
 1510SOL    MW4 6115   1.096   2.826   2.746  0.0000  0.0000 -0.0081
 1511SOL     OW 6116   1.148   3.096   2.652  0.0000  0.0000  0.0624
 1511SOL    HW2 6117   1.122   3.007   2.674  0.0000  0.0000  0.0608
 1511SOL    HW3 6118   1.136   3.101   2.557  0.0000  0.0000  0.0625
 1511SOL    MW4 6119   1.143   3.085   2.642  0.0000  0.0000  0.0620
 1512SOL     OW 6120   0.919   3.208   2.734  0.0000  0.0000  0.0345
 1512SOL    HW2 6121   0.903   3.287   2.682  0.0000  0.0000  0.0171
 1512SOL    HW3 6122   1.006   3.179   2.707  0.0000  0.0000  0.0461
 1512SOL    MW4 6123   0.928   3.215   2.724  0.0000  0.0000  0.0336
 1513SOL     OW 6124   0.887   3.462   2.633  0.0000  0.0000 -0.2580
 1513SOL    HW2 6125   0.961   3.509   2.673  0.0000  0.0000 -0.2155
 1513SOL    HW3 6126   0.810   3.512   2.662  0.0000  0.0000 -0.2977
 1513SOL    MW4 6127   0.887   3.475   2.643  0.0000  0.0000 -0.2577
 1514SOL     OW 6128   1.102   3.599   2.721  0.0000  0.0000  0.4528
 1514SOL    HW2 6129   1.101   3.626   2.813  0.0000  0.0000  0.4547
 1514SOL    HW3 6130   1.100   3.681   2.672  0.0000  0.0000  0.4593
 1514SOL    MW4 6131   1.102   3.613   2.727  0.0000  0.0000  0.4539
 1515SOL     OW 6132   1.098   3.851   2.591  0.0000  0.0000  0.1368
 1515SOL    HW2 6133   1.178   3.889   2.629  0.0000  0.0000  0.1371
 1515SOL    HW3 6134   1.110   3.859   2.497  0.0000  0.0000  0.1367
 1515SOL    MW4 6135   1.110   3.857   2.584  0.0000  0.0000  0.1366
 1516SOL     OW 6136   0.893   4.008   2.749  0.0000  0.0000  0.2329
 1516SOL    HW2 6137   0.957   3.963   2.694  0.0000  0.0000  0.2505
 1516SOL    HW3 6138   0.809   3.969   2.724  0.0000  0.0000  0.2082
 1516SOL    MW4 6139   0.890   3.997   2.739  0.0000  0.0000  0.2320
 1517SOL     OW 6140   0.888   4.266   2.669  0.0000  0.0000 -0.6988
 1517SOL    HW2 6141   0.892   4.173   2.694  0.0000  0.0000 -0.7015
 1517SOL    HW3 6142   0.884   4.265   2.573  0.0000  0.0000 -0.6989
 1517SOL    MW4 6143   0.888   4.254   2.660  0.0000  0.0000 -0.6993
 1518SOL     OW 6144   1.144   4.351   2.720  0.0000  0.0000  0.0759
 1518SOL    HW2 6145   1.137   4.378   2.811  0.0000  0.0000  0.0759
 1518SOL    HW3 6146   1.055   4.327   2.695  0.0000  0.0000  0.0624
 1518SOL    MW4 6147   1.131   4.351   2.728  0.0000  0.0000  0.0739
 1519SOL     OW 6148   1.566   4.635   2.638  0.2840 -0.1050 -0.3340
 1519SOL    HW2 6149   1.559   4.542   2.660  1.8425 -0.3446 -0.7702
 1519SOL    HW3 6150   1.575   4.636   2.542  1.7834  0.3866 -0.2038
 1519SOL    MW4 6151   1.566   4.623   2.628  0.6874 -0.0720 -0.3743
 1520SOL     OW 6152   1.346   0.088   2.720 -0.2168  0.5714  0.1886
 1520SOL    HW2 6153   1.344   0.181   2.699 -0.3829  0.8820  1.5025
 1520SOL    HW3 6154   1.428   0.056   2.682  0.2609  1.4443  0.4693
 1520SOL    MW4 6155   1.357   0.096   2.712 -0.1756  0.7275  0.3994
 1521SOL     OW 6156   1.354   0.351   2.639 -0.0836  0.1252  0.0255
 1521SOL    HW2 6157   1.437   0.384   2.675 -0.3788  0.4686  0.3942
 1521SOL    HW3 6158   1.288   0.412   2.672 -0.3843  0.3257 -0.9315
 1521SOL    MW4 6159   1.356   0.363   2.648 -0.1621  0.1970 -0.0520
 1522SOL     OW 6160   1.581   0.467   2.777 -0.1160 -0.1043  0.0897
 1522SOL    HW2 6161   1.660   0.437   2.731  0.3152  0.2471  0.6005
 1522SOL    HW3 6162   1.577   0.561   2.758 -0.4197 -0.1239  0.0581
 1522SOL    MW4 6163   1.591   0.475   2.768 -0.0992 -0.0605  0.1528
 1523SOL     OW 6164   1.589   0.750   2.720 -0.1077  0.4635 -0.0289
 1523SOL    HW2 6165   1.512   0.801   2.745 -0.5930  0.0376 -0.6621
 1523SOL    HW3 6166   1.585   0.745   2.625  0.2050 -0.3413 -0.0020
 1523SOL    MW4 6167   1.579   0.756   2.711 -0.1305  0.3011 -0.1092
 1524SOL     OW 6168   1.346   0.904   2.754 -0.1619 -0.3241  0.7688
 1524SOL    HW2 6169   1.333   0.937   2.843  1.7960  1.5633  0.4009
 1524SOL    HW3 6170   1.339   0.981   2.698  2.0071 -0.9092 -0.3590
 1524SOL    MW4 6171   1.343   0.918   2.759  0.3828 -0.1522  0.5715
 1525SOL     OW 6172   1.351   1.176   2.662 -0.0131 -0.1646 -0.2694
 1525SOL    HW2 6173   1.430   1.217   2.696 -1.0049  1.0411  0.6522
 1525SOL    HW3 6174   1.281   1.207   2.720 -0.9424 -2.4504 -0.0913
 1525SOL    MW4 6175   1.352   1.185   2.675 -0.2667 -0.3072 -0.1242
 1526SOL     OW 6176   1.580   1.312   2.748  0.1479 -0.1193 -0.0355
 1526SOL    HW2 6177   1.590   1.311   2.843 -1.1326 -1.4742  0.0993
 1526SOL    HW3 6178   1.644   1.247   2.717  0.9530  0.7180 -0.1522
 1526SOL    MW4 6179   1.590   1.303   2.757  0.0852 -0.1875 -0.0331
 1527SOL     OW 6180   1.536   1.557   2.631 -0.1296 -0.0709  0.0421
 1527SOL    HW2 6181   1.560   1.474   2.672  0.4473  0.2736  0.4030
 1527SOL    HW3 6182   1.525   1.536   2.538  0.0327 -0.5469  0.1302
 1527SOL    MW4 6183   1.537   1.543   2.624 -0.0321 -0.0883  0.1016
 1528SOL     OW 6184   1.356   1.696   2.786 -0.3229 -0.1073  0.2572
 1528SOL    HW2 6185   1.423   1.663   2.726 -0.5690  0.3483 -0.2650
 1528SOL    HW3 6186   1.278   1.645   2.766 -0.2178 -0.4395  0.6723
 1528SOL    MW4 6187   1.355   1.685   2.776 -0.3415 -0.0910  0.2432
 1529SOL     OW 6188   1.350   1.955   2.651  0.3209  0.1247  0.1329
 1529SOL    HW2 6189   1.365   1.875   2.701  0.0751 -0.2658 -0.4131
 1529SOL    HW3 6190   1.332   1.925   2.562 -2.3867  0.6227  0.4571
 1529SOL    MW4 6191   1.349   1.940   2.646 -0.0687  0.1389  0.1035
 1530SOL     OW 6192   1.572   2.095   2.744  0.1417  0.0443  0.0961
 1530SOL    HW2 6193   1.647   2.043   2.716  0.3212  0.2272  0.2441
 1530SOL    HW3 6194   1.497   2.051   2.704  0.1559 -1.1076  1.3000
 1530SOL    MW4 6195   1.572   2.082   2.735  0.1673 -0.0834  0.2744
 1531SOL     OW 6196   1.605   2.340   2.613  0.1269 -0.1818  0.8772
 1531SOL    HW2 6197   1.685   2.381   2.647  0.9959 -0.3531 -0.8892
 1531SOL    HW3 6198   1.597   2.259   2.662  1.1164 -0.2134  1.0046
 1531SOL    MW4 6199   1.615   2.335   2.624  0.3722 -0.2086  0.6609
 1532SOL     OW 6200   1.380   2.454   2.720  0.4207  0.0401  0.1483
 1532SOL    HW2 6201   1.372   2.543   2.685  0.4552 -0.1109 -0.2441
 1532SOL    HW3 6202   1.464   2.423   2.686  0.0063 -0.4571 -0.4206
 1532SOL    MW4 6203   1.390   2.462   2.711  0.3706 -0.0458  0.0215
 1533SOL     OW 6204   1.306   2.734   2.627 -0.4540  0.1308 -0.1050
 1533SOL    HW2 6205   1.386   2.768   2.667  1.0272 -2.1766 -1.0307
 1533SOL    HW3 6206   1.316   2.752   2.534 -2.0301  1.7794  0.0145
 1533SOL    MW4 6207   1.318   2.741   2.620 -0.4665  0.0439 -0.2115
 1534SOL     OW 6208   1.548   2.868   2.718  0.0686 -0.0995  0.3287
 1534SOL    HW2 6209   1.559   2.852   2.811 -0.5653  0.2073  0.4640
 1534SOL    HW3 6210   1.611   2.811   2.675  0.6506  0.0687  0.9642
 1534SOL    MW4 6211   1.557   2.858   2.725  0.0618 -0.0367  0.4303
 1535SOL     OW 6212   1.592   3.114   2.613 -0.7399  0.5693 -0.3578
 1535SOL    HW2 6213   1.668   3.147   2.661 -1.0329  1.5320 -0.5577
 1535SOL    HW3 6214   1.573   3.029   2.655  0.1521  0.5370 -0.0072
 1535SOL    MW4 6215   1.600   3.107   2.625 -0.6609  0.6919 -0.3381
 1536SOL     OW 6216   1.374   3.234   2.728 -0.2881  0.0972  0.1981
 1536SOL    HW2 6217   1.443   3.183   2.686 -1.3373 -1.3592  0.2167
 1536SOL    HW3 6218   1.294   3.183   2.713 -1.0595  0.8022  1.8567
 1536SOL    MW4 6219   1.372   3.221   2.720 -0.5285 -0.0021  0.4191
 1537SOL     OW 6220   1.328   3.480   2.608  0.1018 -0.1897 -0.7969
 1537SOL    HW2 6221   1.348   3.394   2.644 -0.8955 -0.1130 -0.0611
 1537SOL    HW3 6222   1.245   3.505   2.647  0.8011  1.4867 -0.3270
 1537SOL    MW4 6223   1.320   3.472   2.618  0.0625  0.0417 -0.6380
 1538SOL     OW 6224   1.558   3.592   2.758  0.2959  0.4692  0.0116
 1538SOL    HW2 6225   1.637   3.556   2.717  0.2586 -0.2818  0.6005
 1538SOL    HW3 6226   1.486   3.562   2.703  0.3634  0.6237 -0.1626
 1538SOL    MW4 6227   1.559   3.583   2.745  0.2998  0.3903  0.0663
 1539SOL     OW 6228   1.571   3.864   2.635 -0.1846 -0.2864  0.1496
 1539SOL    HW2 6229   1.489   3.898   2.671  0.5122  0.4631  1.0486
 1539SOL    HW3 6230   1.574   3.773   2.662 -0.5226 -0.1987  0.4818
 1539SOL    MW4 6231   1.561   3.857   2.643 -0.1372 -0.1762  0.3121
 1540SOL     OW 6232   1.333   3.981   2.723  0.6005  0.1971 -0.2371
 1540SOL    HW2 6233   1.344   3.993   2.817  1.1968  1.0173 -0.4044
 1540SOL    HW3 6234   1.334   4.070   2.687 -1.1439 -0.0203 -0.8624
 1540SOL    MW4 6235   1.335   3.994   2.731  0.4491  0.2768 -0.3417
 1541SOL     OW 6236   1.340   4.231   2.585 -0.3042 -0.2172 -0.1257
 1541SOL    HW2 6237   1.283   4.293   2.633  1.2631  0.2762  1.1543
 1541SOL    HW3 6238   1.351   4.271   2.499  0.7813  1.3804  0.7258
 1541SOL    MW4 6239   1.334   4.245   2.580  0.0459  0.0591  0.1557
 1542SOL     OW 6240   1.580   4.369   2.690 -0.3289  0.1210 -0.1568
 1542SOL    HW2 6241   1.569   4.377   2.785 -1.7349 -0.2505 -0.2813
 1542SOL    HW3 6242   1.511   4.310   2.662 -0.9383  1.4893 -1.6389
 1542SOL    MW4 6243   1.570   4.363   2.699 -0.5950  0.2527 -0.3688
 1543SOL     OW 6244   2.034   0.004   2.611  0.0929 -0.4145 -0.3020
 1543SOL    HW2 6245   2.098   0.062   2.652 -1.3170  1.1397 -0.2435
 1543SOL    HW3 6246   2.052   0.011   2.517  0.8663 -1.0160 -0.1991
 1543SOL    MW4 6247   2.045   0.013   2.604  0.0088 -0.2888 -0.2809
 1544SOL     OW 6248   1.797   0.080   2.737 -0.4379  0.0887 -0.3107
 1544SOL    HW2 6249   1.868   0.052   2.679  0.0744  0.0147  0.3414
 1544SOL    HW3 6250   1.720   0.034   2.704 -0.2579  0.4511 -1.2518
 1544SOL    MW4 6251   1.796   0.070   2.725 -0.3465  0.1267 -0.3490
 1545SOL     OW 6252   1.800   0.364   2.645  0.3058  0.1045 -0.0267
 1545SOL    HW2 6253   1.876   0.405   2.688  0.1763 -0.8439  1.1301
 1545SOL    HW3 6254   1.803   0.273   2.674 -2.5182  0.5295  1.7840
 1545SOL    MW4 6255   1.811   0.357   2.654 -0.0838  0.0355  0.3650
 1546SOL     OW 6256   2.045   0.466   2.773  0.0227  0.1182  0.0711
 1546SOL    HW2 6257   2.130   0.446   2.735 -0.1879  0.2202 -0.4658
 1546SOL    HW3 6258   2.028   0.557   2.748  0.4463  0.6008  1.4889
 1546SOL    MW4 6259   2.054   0.476   2.765  0.0508  0.1953  0.1876
 1547SOL     OW 6260   1.989   0.709   2.681 -0.1516  0.4186 -0.0622
 1547SOL    HW2 6261   1.924   0.767   2.720 -0.0089  0.9880 -0.6589
 1547SOL    HW3 6262   1.985   0.728   2.587 -0.0337 -0.4667 -0.2513
 1547SOL    MW4 6263   1.980   0.719   2.674 -0.1173  0.3769 -0.1657
 1548SOL     OW 6264   1.809   0.882   2.806 -0.2120 -0.0755 -0.5003
 1548SOL    HW2 6265   1.800   0.965   2.759 -1.5515  0.0835  0.0407
 1548SOL    HW3 6266   1.728   0.835   2.788 -0.3172 -0.4235  0.8702
 1548SOL    MW4 6267   1.797   0.887   2.797 -0.4027 -0.1005 -0.2480
 1549SOL     OW 6268   1.775   1.137   2.675 -0.0214  0.2825  0.2399
 1549SOL    HW2 6269   1.839   1.202   2.704 -0.0266  0.4444 -0.1095
 1549SOL    HW3 6270   1.789   1.130   2.581  1.7906 -2.1731  0.6285
 1549SOL    MW4 6271   1.786   1.145   2.666  0.2170 -0.0201  0.2451
 1550SOL     OW 6272   1.996   1.293   2.729 -0.5077 -0.4760  0.7296
 1550SOL    HW2 6273   2.028   1.302   2.818  0.6605  0.6933  0.2024
 1550SOL    HW3 6274   2.060   1.236   2.686  1.3812  2.5000 -0.5400
 1550SOL    MW4 6275   2.009   1.287   2.735 -0.1044  0.0708  0.4926
 1551SOL     OW 6276   1.975   1.537   2.642  0.2245  0.1182 -0.8339
 1551SOL    HW2 6277   1.897   1.574   2.684  0.7144 -0.8091  0.9365
 1551SOL    HW3 6278   1.978   1.446   2.672  0.7838 -0.4614 -2.6220
 1551SOL    MW4 6279   1.965   1.530   2.652  0.3629 -0.0806 -0.8364
 1552SOL     OW 6280   1.770   1.680   2.771  0.1397 -0.3129  0.2501
 1552SOL    HW2 6281   1.770   1.658   2.864  0.0923 -2.6316 -0.2583
 1552SOL    HW3 6282   1.691   1.639   2.736  0.8082 -0.5505 -1.0369
 1552SOL    MW4 6283   1.760   1.672   2.779  0.2216 -0.6503  0.0134
 1553SOL     OW 6284   1.759   1.931   2.663 -0.3366  0.3268  0.0446
 1553SOL    HW2 6285   1.838   1.977   2.692 -0.5628  0.8441 -0.1531
 1553SOL    HW3 6286   1.759   1.849   2.713  0.5275  0.1518 -0.2363
 1553SOL    MW4 6287   1.769   1.926   2.673 -0.2525  0.3719 -0.0186
 1554SOL     OW 6288   2.012   2.060   2.752 -0.0878  0.5903  0.0157
 1554SOL    HW2 6289   2.039   2.071   2.843 -1.3784  0.0534  0.4631
 1554SOL    HW3 6290   2.003   2.150   2.720 -0.3531  0.7837  0.6256
 1554SOL    MW4 6291   2.015   2.074   2.760 -0.2930  0.5448  0.1550
 1555SOL     OW 6292   1.997   2.296   2.641  0.1616  0.1612 -0.0190
 1555SOL    HW2 6293   2.070   2.355   2.661 -0.1456  0.1891  1.0681
 1555SOL    HW3 6294   1.992   2.296   2.546  0.1610  1.9074 -0.0336
 1555SOL    MW4 6295   2.006   2.304   2.631  0.1209  0.3953  0.1223
 1556SOL     OW 6296   1.816   2.476   2.750  0.3704 -0.3173 -0.5132
 1556SOL    HW2 6297   1.816   2.471   2.846 -1.8397 -0.7988 -0.5112
 1556SOL    HW3 6298   1.875   2.405   2.723  1.0251 -0.1658  0.4877
 1556SOL    MW4 6299   1.824   2.466   2.759  0.1652 -0.3607 -0.3808
 1557SOL     OW 6300   1.762   2.711   2.625 -0.1501 -0.4094  0.8232
 1557SOL    HW2 6301   1.790   2.626   2.658 -0.9850 -1.1415 -0.3393
 1557SOL    HW3 6302   1.769   2.705   2.530 -3.1759 -0.2737  0.5417
 1557SOL    MW4 6303   1.766   2.699   2.617 -0.6597 -0.4880  0.6325
 1558SOL     OW 6304   1.996   2.852   2.696  0.2696  0.4187 -0.2885
 1558SOL    HW2 6305   2.073   2.806   2.665 -0.5142 -2.1464  1.4035
 1558SOL    HW3 6306   1.923   2.794   2.673 -1.1320  2.5079 -1.3105
 1558SOL    MW4 6307   1.996   2.838   2.688 -0.0187  0.3560 -0.2000
 1559SOL     OW 6308   2.000   3.127   2.639 -0.4744 -0.1952  0.6669
 1559SOL    HW2 6309   1.989   3.036   2.667 -1.9484 -0.1903  0.1741
 1559SOL    HW3 6310   2.002   3.122   2.543 -0.8046  0.3058  0.6322
 1559SOL    MW4 6311   1.999   3.114   2.630 -0.7123 -0.1287  0.5972
 1560SOL     OW 6312   1.789   3.233   2.756  0.0111  0.0666  0.0153
 1560SOL    HW2 6313   1.779   3.321   2.719 -0.8574  0.4908  1.2277
 1560SOL    HW3 6314   1.862   3.195   2.707 -0.5718  0.9122 -1.5554
 1560SOL    MW4 6315   1.797   3.240   2.744 -0.1804  0.2341 -0.0317
 1561SOL     OW 6316   1.795   3.500   2.628  0.0625 -0.2733 -0.4835
 1561SOL    HW2 6317   1.874   3.553   2.640 -1.3513  1.6154  0.6300
 1561SOL    HW3 6318   1.785   3.493   2.533  0.6714  0.8385 -0.6339
 1561SOL    MW4 6319   1.804   3.506   2.617 -0.0436  0.1225 -0.3564
 1562SOL     OW 6320   2.021   3.616   2.704 -0.2954 -0.0036 -0.2151
 1562SOL    HW2 6321   2.029   3.628   2.798  0.3831 -0.1402 -0.2486
 1562SOL    HW3 6322   2.104   3.576   2.678 -0.1646  0.7603 -0.9918
 1562SOL    MW4 6323   2.033   3.612   2.713 -0.1886  0.0792 -0.3219
 1563SOL     OW 6324   2.030   3.876   2.605  0.0400  0.7649 -0.0852
 1563SOL    HW2 6325   1.959   3.921   2.651 -0.2178  0.6512 -0.3747
 1563SOL    HW3 6326   2.025   3.786   2.636 -0.1469  0.6831 -0.3473
 1563SOL    MW4 6327   2.020   3.870   2.615 -0.0186  0.7391 -0.1581
 1564SOL     OW 6328   1.820   3.978   2.744  0.0555  0.3051 -0.4489
 1564SOL    HW2 6329   1.803   4.068   2.718 -1.3613  0.4930  1.0119
 1564SOL    HW3 6330   1.741   3.930   2.717  1.0565 -0.6286 -1.7751
 1564SOL    MW4 6331   1.807   3.983   2.737  0.0005  0.2069 -0.4313
 1565SOL     OW 6332   1.821   4.233   2.639 -0.1127 -0.5449 -0.0872
 1565SOL    HW2 6333   1.748   4.287   2.670 -0.2959  0.0013 -1.4697
 1565SOL    HW3 6334   1.815   4.235   2.544  1.2534 -1.1324 -0.2033
 1565SOL    MW4 6335   1.810   4.240   2.631  0.0433 -0.5503 -0.2849
 1566SOL     OW 6336   2.043   4.400   2.714  0.2055 -0.1352  0.3222
 1566SOL    HW2 6337   1.968   4.355   2.676 -0.7873  1.3121  0.5613
 1566SOL    HW3 6338   2.035   4.490   2.684  1.4550  0.1858  0.9354
 1566SOL    MW4 6339   2.032   4.406   2.705  0.2396  0.0982  0.4346
 1567SOL     OW 6340   2.456   0.010   2.635 -0.0362 -0.1579  0.0540
 1567SOL    HW2 6341   2.538   0.056   2.650  0.4823 -1.0022 -0.1261
 1567SOL    HW3 6342   2.460  -0.017   2.543 -0.1100 -0.9897  0.2903
 1567SOL    MW4 6343   2.467   0.013   2.625  0.0224 -0.3786  0.0610
 1568SOL     OW 6344   2.232   0.135   2.737 -0.3955  0.0480 -0.3477
 1568SOL    HW2 6345   2.220   0.134   2.832 -0.9109  1.0207 -0.3892
 1568SOL    HW3 6346   2.318   0.095   2.723  0.9526  2.4328  0.7623
 1568SOL    MW4 6347   2.242   0.130   2.748 -0.2856  0.4909 -0.2067
 1569SOL     OW 6348   2.272   0.399   2.611  0.4799  0.3443  0.1412
 1569SOL    HW2 6349   2.269   0.310   2.645 -0.4432  0.8012  1.2842
 1569SOL    HW3 6350   2.253   0.389   2.518 -0.7336 -0.5632  0.4625
 1569SOL    MW4 6351   2.269   0.386   2.603  0.1981  0.2849  0.3343
 1570SOL     OW 6352   2.479   0.528   2.756  0.0593  0.0396  0.4219
 1570SOL    HW2 6353   2.476   0.623   2.741 -1.3447  0.2864  2.0542
 1570SOL    HW3 6354   2.405   0.494   2.705  1.5156 -0.3978 -1.4483
 1570SOL    MW4 6355   2.469   0.536   2.747  0.0663  0.0145  0.3905
 1571SOL     OW 6356   2.465   0.786   2.663 -0.4140  0.9122  0.6196
 1571SOL    HW2 6357   2.375   0.800   2.691 -1.1665 -2.0176 -0.2076
 1571SOL    HW3 6358   2.460   0.780   2.567  0.2611 -1.7840  0.7289
 1571SOL    MW4 6359   2.453   0.787   2.654 -0.4244  0.1699  0.5248
 1572SOL     OW 6360   2.209   0.857   2.736  0.2487  0.3531  0.0372
 1572SOL    HW2 6361   2.201   0.894   2.824  0.4495 -0.4309  0.3800
 1572SOL    HW3 6362   2.126   0.812   2.721  0.6109 -0.3844  0.2237
 1572SOL    MW4 6363   2.197   0.856   2.746  0.3231  0.1523  0.1070
 1573SOL     OW 6364   2.207   1.128   2.624 -0.0181  0.4834 -0.2568
 1573SOL    HW2 6365   2.180   1.039   2.646 -0.4639  0.3356 -1.3850
 1573SOL    HW3 6366   2.229   1.125   2.531 -0.2749  1.6080 -0.3632
 1573SOL    MW4 6367   2.206   1.116   2.615 -0.1111  0.6125 -0.4196
 1574SOL     OW 6368   2.451   1.289   2.729  0.3132  0.5662  0.8497
 1574SOL    HW2 6369   2.520   1.243   2.681 -0.1638 -0.3029  1.0012
 1574SOL    HW3 6370   2.373   1.235   2.717  0.3567 -0.0718  3.2558
 1574SOL    MW4 6371   2.449   1.276   2.721  0.2561  0.3673  1.1871
 1575SOL     OW 6372   2.441   1.506   2.571 -0.0303  0.1385 -0.0931
 1575SOL    HW2 6373   2.383   1.564   2.620 -0.6279 -0.5352 -0.0017
 1575SOL    HW3 6374   2.460   1.434   2.631  0.8678  0.3318 -0.1385
 1575SOL    MW4 6375   2.436   1.504   2.585  0.0093  0.0752 -0.0873
 1576SOL     OW 6376   2.247   1.674   2.687  0.0348  0.1877 -0.1805
 1576SOL    HW2 6377   2.244   1.766   2.659 -0.6228  0.0006 -0.7314
 1576SOL    HW3 6378   2.155   1.646   2.687 -0.0170  0.2290  2.3453
 1576SOL    MW4 6379   2.234   1.683   2.684 -0.0587  0.1684  0.0799
 1577SOL     OW 6380   2.207   1.928   2.607 -0.0047 -0.3365  0.0209
 1577SOL    HW2 6381   2.139   1.983   2.646 -0.8921 -1.4376  0.0412
 1577SOL    HW3 6382   2.222   1.966   2.520 -0.4926  0.0377  0.0989
 1577SOL    MW4 6383   2.200   1.940   2.601 -0.1862 -0.4325  0.0339
 1578SOL     OW 6384   2.449   2.067   2.732  0.1177  0.2064  0.4245
 1578SOL    HW2 6385   2.450   2.162   2.730  0.1994  0.1754 -2.2600
 1578SOL    HW3 6386   2.362   2.043   2.701  0.5892 -0.6010 -0.3109
 1578SOL    MW4 6387   2.438   2.076   2.728  0.1905  0.0958 -0.0267
 1579SOL     OW 6388   2.461   2.331   2.651  0.3425  0.1268  0.6447
 1579SOL    HW2 6389   2.544   2.366   2.684  0.6490  1.5267 -1.5539
 1579SOL    HW3 6390   2.472   2.329   2.556 -2.1666  0.3679  0.3333
 1579SOL    MW4 6391   2.473   2.335   2.643  0.0522  0.3431  0.3138
 1580SOL     OW 6392   2.216   2.436   2.709 -0.1924 -0.0787 -0.2015
 1580SOL    HW2 6393   2.211   2.441   2.805  1.5996  0.5363 -0.1190
 1580SOL    HW3 6394   2.304   2.403   2.692  0.0180  1.2181 -1.6725
 1580SOL    MW4 6395   2.227   2.432   2.720  0.0715  0.1736 -0.3846
 1581SOL     OW 6396   2.233   2.713   2.606  0.0843 -0.0762 -0.0173
 1581SOL    HW2 6397   2.304   2.768   2.640 -0.4320  0.6889 -0.1568
 1581SOL    HW3 6398   2.240   2.631   2.656  0.4646  0.3552  0.6503
 1581SOL    MW4 6399   2.243   2.710   2.617  0.0665  0.0813  0.0527
 1582SOL     OW 6400   2.435   2.846   2.732  0.5376 -0.0662  0.5118
 1582SOL    HW2 6401   2.505   2.804   2.684  0.1540  0.2460 -0.3249
 1582SOL    HW3 6402   2.433   2.936   2.700 -0.7479 -0.2786 -0.0478
 1582SOL    MW4 6403   2.444   2.853   2.722  0.3173 -0.0529  0.3273
 1583SOL     OW 6404   2.472   3.113   2.637  0.0637 -0.1068 -0.1531
 1583SOL    HW2 6405   2.394   3.159   2.666  1.0531  1.7761 -0.4374
 1583SOL    HW3 6406   2.463   3.108   2.542  0.6388  0.7614 -0.2541
 1583SOL    MW4 6407   2.461   3.118   2.628  0.2701  0.2561 -0.2038
 1584SOL     OW 6408   2.247   3.254   2.739  0.0453  0.6022 -0.2125
 1584SOL    HW2 6409   2.243   3.264   2.834 -0.3068 -0.0074 -0.1628
 1584SOL    HW3 6410   2.165   3.211   2.715  1.2059 -1.5750 -0.4936
 1584SOL    MW4 6411   2.236   3.250   2.748  0.1521  0.2346 -0.2432
 1585SOL     OW 6412   2.282   3.517   2.603 -0.5318 -0.1442 -0.6055
 1585SOL    HW2 6413   2.349   3.569   2.648 -1.3733  1.4903 -1.1992
 1585SOL    HW3 6414   2.270   3.440   2.659  1.5641 -0.2799 -0.3037
 1585SOL    MW4 6415   2.289   3.514   2.617 -0.3664  0.0534 -0.6440
 1586SOL     OW 6416   2.490   3.622   2.735  0.2575  0.2933 -0.2741
 1586SOL    HW2 6417   2.476   3.628   2.829 -0.4641 -0.3604 -0.3330
 1586SOL    HW3 6418   2.510   3.712   2.708 -0.0418  0.5715  0.4212
 1586SOL    MW4 6419   2.491   3.635   2.744  0.1228  0.2439 -0.1903
 1587SOL     OW 6420   2.486   3.867   2.650 -0.0800  0.1565  0.2476
 1587SOL    HW2 6421   2.563   3.908   2.690 -0.7808 -0.2351  2.0705
 1587SOL    HW3 6422   2.412   3.920   2.682 -0.4735  1.5005 -2.7587
 1587SOL    MW4 6423   2.486   3.879   2.660 -0.2246  0.2820  0.0916
 1588SOL     OW 6424   2.254   4.015   2.701 -0.8807  0.4957  0.0939
 1588SOL    HW2 6425   2.252   3.987   2.793  0.5852  0.3762  0.0973
 1588SOL    HW3 6426   2.181   3.967   2.661 -0.1773 -1.1602  0.7299
 1588SOL    MW4 6427   2.244   4.005   2.708 -0.5946  0.2618  0.1781
 1589SOL     OW 6428   2.278   4.267   2.599  0.8067  0.6429  0.2039
 1589SOL    HW2 6429   2.281   4.180   2.639 -0.2183  0.4644 -0.0852
 1589SOL    HW3 6430   2.190   4.300   2.620  0.3726  0.6747 -1.6058
 1589SOL    MW4 6431   2.267   4.260   2.607  0.6142  0.6232 -0.0732
 1590SOL     OW 6432   2.481   4.399   2.733  0.1268  0.0564  0.0728
 1590SOL    HW2 6433   2.409   4.347   2.697  1.0636 -1.3558  0.2034
 1590SOL    HW3 6434   2.471   4.485   2.692 -0.9253 -0.4811 -0.8381
 1590SOL    MW4 6435   2.470   4.403   2.723  0.1113 -0.2012 -0.0300
 1591SOL     OW 6436   2.928   4.667   2.663  0.1009 -0.3774 -0.1189
 1591SOL    HW2 6437   3.004   4.714   2.698 -1.6159  1.2819  1.4640
 1591SOL    HW3 6438   2.950   4.651   2.571  2.3788 -0.0056  0.3237
 1591SOL    MW4 6439   2.941   4.671   2.655  0.1748 -0.1094  0.1483
 1592SOL     OW 6440   2.710   0.148   2.728 -0.0954 -0.7003  0.3124
 1592SOL    HW2 6441   2.695   0.142   2.822 -0.0298 -0.8179  0.3152
 1592SOL    HW3 6442   2.788   0.094   2.712 -0.9820 -1.9006 -0.0366
 1592SOL    MW4 6443   2.719   0.140   2.738 -0.2041 -0.8742  0.2666
 1593SOL     OW 6444   2.690   0.403   2.653  0.2754  0.4561 -0.3215
 1593SOL    HW2 6445   2.699   0.320   2.700 -0.2801 -0.4070 -1.6934
 1593SOL    HW3 6446   2.614   0.445   2.694  0.7702  0.4602  0.6105
 1593SOL    MW4 6447   2.681   0.398   2.665  0.2673  0.3428 -0.3796
 1594SOL     OW 6448   2.904   0.521   2.760  0.1349 -0.0006  0.4834
 1594SOL    HW2 6449   2.908   0.607   2.717  0.5905 -0.6120 -0.7100
 1594SOL    HW3 6450   2.823   0.482   2.727  1.3529 -1.1618 -1.1258
 1594SOL    MW4 6451   2.894   0.528   2.750  0.3560 -0.2344  0.1137
 1595SOL     OW 6452   2.928   0.785   2.651 -0.1347 -0.0847 -0.0445
 1595SOL    HW2 6453   3.001   0.836   2.685 -1.0517  1.1893  0.0240
 1595SOL    HW3 6454   2.850   0.832   2.679 -0.9658 -0.7558 -1.1868
 1595SOL    MW4 6455   2.927   0.798   2.659 -0.3653 -0.0052 -0.1862
 1596SOL     OW 6456   2.692   0.931   2.747  0.2858 -0.4395 -0.2996
 1596SOL    HW2 6457   2.706   0.927   2.841  1.4745 -0.8247 -0.4865
 1596SOL    HW3 6458   2.618   0.872   2.731  0.4526 -0.8225  0.3272
 1596SOL    MW4 6459   2.684   0.922   2.757  0.4647 -0.5409 -0.2415
 1597SOL     OW 6460   2.664   1.169   2.605  0.1366 -0.3994  0.5847
 1597SOL    HW2 6461   2.726   1.224   2.652 -0.3754  0.7660 -0.0814
 1597SOL    HW3 6462   2.671   1.084   2.648  1.4041  0.0017  1.2090
 1597SOL    MW4 6463   2.673   1.165   2.617  0.2365 -0.1926  0.5794
 1598SOL     OW 6464   2.902   1.301   2.695  0.3147  0.4947  0.1629
 1598SOL    HW2 6465   2.917   1.313   2.789  0.8952  0.9427  0.0121
 1598SOL    HW3 6466   2.979   1.253   2.665 -0.4628 -0.7789  0.1512
 1598SOL    MW4 6467   2.914   1.296   2.704  0.2887  0.3859  0.1414
 1599SOL     OW 6468   2.920   1.552   2.619 -0.4520  0.6822 -0.2121
 1599SOL    HW2 6469   2.835   1.587   2.648 -0.7159  0.8440 -1.1738
 1599SOL    HW3 6470   2.916   1.459   2.640 -0.6600  0.7912  0.2388
 1599SOL    MW4 6471   2.908   1.545   2.626 -0.5143  0.7180 -0.2792
 1600SOL     OW 6472   2.683   1.656   2.685  0.1092 -0.3870 -0.1683
 1600SOL    HW2 6473   2.700   1.655   2.779 -0.3971  0.8614 -0.0640
 1600SOL    HW3 6474   2.599   1.611   2.675 -0.4198  0.5214  0.1046
 1600SOL    MW4 6475   2.674   1.650   2.696 -0.0274 -0.1024 -0.1185
 1601SOL     OW 6476   2.652   1.922   2.607  0.3370  0.4338  0.1429
 1601SOL    HW2 6477   2.661   1.830   2.632  0.7617  0.1091 -1.1465
 1601SOL    HW3 6478   2.586   1.957   2.667  1.1971 -0.3440  1.5702
 1601SOL    MW4 6479   2.644   1.914   2.618  0.5064  0.2882  0.1612
 1602SOL     OW 6480   2.884   2.029   2.717 -0.3859 -0.2395  0.0259
 1602SOL    HW2 6481   2.891   2.121   2.694  1.3230 -0.2065  0.6275
 1602SOL    HW3 6482   2.800   2.001   2.680  0.4779  0.7911 -2.8217
 1602SOL    MW4 6483   2.874   2.037   2.709 -0.0465 -0.0992 -0.2704
 1603SOL     OW 6484   2.914   2.277   2.624 -0.2577  0.1875 -0.0873
 1603SOL    HW2 6485   2.995   2.326   2.641 -0.2869 -0.1325  1.0464
 1603SOL    HW3 6486   2.847   2.325   2.673 -0.3196 -0.8553  0.8664
 1603SOL    MW4 6487   2.916   2.290   2.633 -0.2697  0.0079  0.1881
 1604SOL     OW 6488   2.708   2.441   2.744  0.1736 -0.3594 -0.1341
 1604SOL    HW2 6489   2.716   2.450   2.839  0.8945 -0.4779 -0.1754
 1604SOL    HW3 6490   2.701   2.531   2.711  2.1091 -0.1682 -0.1296
 1604SOL    MW4 6491   2.708   2.454   2.752  0.5243 -0.3495 -0.1388
 1605SOL     OW 6492   2.660   2.719   2.620  0.1760 -0.3831 -0.3610
 1605SOL    HW2 6493   2.724   2.783   2.650  0.9559 -1.3376  0.0534
 1605SOL    HW3 6494   2.679   2.706   2.527 -0.0918  0.1066 -0.4837
 1605SOL    MW4 6495   2.671   2.726   2.611  0.2437 -0.4444 -0.3226
 1606SOL     OW 6496   2.903   2.834   2.700 -0.3149  0.0836  0.1349
 1606SOL    HW2 6497   2.924   2.841   2.793  2.5463 -0.1674 -0.4682
 1606SOL    HW3 6498   2.915   2.923   2.666 -1.1793  0.1362 -0.0413
 1606SOL    MW4 6499   2.907   2.847   2.708 -0.0515  0.0575  0.0319
 1607SOL     OW 6500   2.953   3.074   2.585 -0.1140 -0.6471 -0.2287
 1607SOL    HW2 6501   2.882   3.124   2.626 -0.6599 -0.2181 -1.6584
 1607SOL    HW3 6502   2.930   3.073   2.492  1.9445 -0.1785 -0.7690
 1607SOL    MW4 6503   2.941   3.081   2.578  0.0854 -0.5286 -0.4890
 1608SOL     OW 6504   2.733   3.209   2.700 -0.0793  0.5285 -0.5684
 1608SOL    HW2 6505   2.730   3.211   2.796 -0.8029  0.2745 -0.5867
 1608SOL    HW3 6506   2.645   3.182   2.673  0.1507  0.4953 -1.3025
 1608SOL    MW4 6507   2.721   3.206   2.709 -0.1447  0.4904 -0.6676
 1609SOL     OW 6508   2.719   3.476   2.633  0.0613  0.1155  0.3571
 1609SOL    HW2 6509   2.639   3.507   2.674 -0.4618 -0.1400 -0.4467
 1609SOL    HW3 6510   2.721   3.382   2.652 -0.5156 -0.1248 -0.7276
 1609SOL    MW4 6511   2.709   3.468   2.641 -0.0837  0.0503  0.1078
 1610SOL     OW 6512   2.927   3.649   2.732  0.4225 -0.4180  0.2495
 1610SOL    HW2 6513   2.933   3.650   2.827  0.1944 -1.8792  0.2893
 1610SOL    HW3 6514   2.854   3.590   2.713  0.1190  0.2889 -0.8138
 1610SOL    MW4 6515   2.919   3.641   2.742  0.3521 -0.5174  0.1142
 1611SOL     OW 6516   2.937   3.908   2.640 -0.5931 -0.0344 -0.3756
 1611SOL    HW2 6517   2.988   3.954   2.707  0.0199  0.2604 -1.0404
 1611SOL    HW3 6518   2.916   3.824   2.681  0.1465 -0.0325  0.0342
 1611SOL    MW4 6519   2.941   3.903   2.654 -0.4146  0.0048 -0.4094
 1612SOL     OW 6520   2.690   4.014   2.731 -0.0548 -0.1516 -0.1394
 1612SOL    HW2 6521   2.675   4.093   2.679  1.0789  0.0597 -0.1503
 1612SOL    HW3 6522   2.762   3.969   2.687  1.5061  0.4542  1.6975
 1612SOL    MW4 6523   2.697   4.019   2.718  0.3004 -0.0439  0.1016
 1613SOL     OW 6524   2.698   4.268   2.603  0.5585  0.0447  0.3920
 1613SOL    HW2 6525   2.771   4.298   2.658 -0.4176  0.3235  1.5413
 1613SOL    HW3 6526   2.624   4.324   2.628  0.2232  0.5024 -1.5629
 1613SOL    MW4 6527   2.698   4.279   2.614  0.3858  0.1421  0.2859
 1614SOL     OW 6528   2.885   4.404   2.738  0.0205 -0.2986  0.0576
 1614SOL    HW2 6529   2.915   4.403   2.829  0.1006  0.4499  0.0429
 1614SOL    HW3 6530   2.882   4.497   2.715 -1.0401 -0.4272 -0.3523
 1614SOL    MW4 6531   2.888   4.416   2.747 -0.1087 -0.2170  0.0014
 1615SOL     OW 6532   3.363   4.659   2.596 -0.1620 -0.8680 -1.0072
 1615SOL    HW2 6533   3.386   4.571   2.628 -0.1397 -0.0394  1.3333
 1615SOL    HW3 6534   3.281   4.679   2.640 -0.0040  0.4150 -1.2879
 1615SOL    MW4 6535   3.355   4.650   2.606 -0.1380 -0.5895 -0.7353
 1616SOL     OW 6536   3.155   0.121   2.755  0.1290 -0.2746 -0.3293
 1616SOL    HW2 6537   3.156   0.129   2.851  0.5078  0.8696 -0.4251
 1616SOL    HW3 6538   3.147   0.211   2.723 -0.7099 -0.7076 -1.3697
 1616SOL    MW4 6539   3.154   0.134   2.764  0.0682 -0.1808 -0.4790
 1617SOL     OW 6540   3.154   0.383   2.675 -0.2178 -0.1510  0.1226
 1617SOL    HW2 6541   3.067   0.416   2.699  0.5440  2.0488 -0.0568
 1617SOL    HW3 6542   3.156   0.387   2.580  0.1089 -0.1611  0.1290
 1617SOL    MW4 6543   3.143   0.388   2.666 -0.0741  0.1380  0.0997
 1618SOL     OW 6544   3.403   0.501   2.742 -0.6876  0.1062  0.0134
 1618SOL    HW2 6545   3.371   0.584   2.705  0.1968  0.9592  1.1463
 1618SOL    HW3 6546   3.326   0.443   2.740 -1.2951  0.9290 -0.8424
 1618SOL    MW4 6547   3.388   0.504   2.737 -0.6514  0.3273  0.0503
 1619SOL     OW 6548   3.336   0.755   2.652 -0.1781 -0.2924  0.1535
 1619SOL    HW2 6549   3.415   0.809   2.662 -0.6005  0.3632 -0.0530
 1619SOL    HW3 6550   3.313   0.762   2.559  1.0106 -2.5813 -0.3470
 1619SOL    MW4 6551   3.344   0.763   2.641 -0.0772 -0.5079  0.0601
 1620SOL     OW 6552   3.160   0.947   2.717  0.2059 -0.1336  0.2908
 1620SOL    HW2 6553   3.154   0.962   2.812  0.9505  0.2344  0.2852
 1620SOL    HW3 6554   3.225   0.877   2.708  0.1798 -0.1260  0.0461
 1620SOL    MW4 6555   3.168   0.940   2.729  0.3006 -0.0841  0.2582
 1621SOL     OW 6556   3.135   1.197   2.615  0.0090 -0.4132  0.3512
 1621SOL    HW2 6557   3.147   1.107   2.646 -0.5405 -0.5885  0.0523
 1621SOL    HW3 6558   3.124   1.188   2.520 -2.0026 -0.2135  0.5485
 1621SOL    MW4 6559   3.135   1.184   2.606 -0.3288 -0.4101  0.3376
 1622SOL     OW 6560   3.376   1.293   2.709  0.4879  0.0711 -0.2217
 1622SOL    HW2 6561   3.366   1.293   2.804  0.5469 -0.5576 -0.2110
 1622SOL    HW3 6562   3.289   1.274   2.675  0.6073 -0.4058 -0.2699
 1622SOL    MW4 6563   3.363   1.290   2.717  0.5112 -0.0749 -0.2265
 1623SOL     OW 6564   3.361   1.581   2.619  0.1267  0.5860 -0.0879
 1623SOL    HW2 6565   3.291   1.628   2.664  0.0447  1.2917 -0.9294
 1623SOL    HW3 6566   3.347   1.489   2.642  0.9701  1.0792  2.4911
 1623SOL    MW4 6567   3.350   1.575   2.628  0.2275  0.7441  0.1414
 1624SOL     OW 6568   3.131   1.670   2.734  0.2744 -0.5920  0.2081
 1624SOL    HW2 6569   3.115   1.755   2.692  1.2873 -1.1962 -1.4256
 1624SOL    HW3 6570   3.063   1.613   2.699  1.2208 -1.1407 -0.7432
 1624SOL    MW4 6571   3.119   1.674   2.724  0.5329 -0.7441 -0.1330
 1625SOL     OW 6572   3.107   1.899   2.607 -0.3530  0.2304 -0.1681
 1625SOL    HW2 6573   3.179   1.957   2.632  0.1988 -1.6102  2.7896
 1625SOL    HW3 6574   3.028   1.947   2.632 -0.0360  0.9563 -0.5442
 1625SOL    MW4 6575   3.106   1.913   2.614 -0.2382  0.0833  0.1724
 1626SOL     OW 6576   3.310   2.054   2.707 -0.5610  0.5427  0.4229
 1626SOL    HW2 6577   3.311   2.057   2.803  1.6818 -0.6065  0.4786
 1626SOL    HW3 6578   3.317   2.146   2.680  0.7345  0.7567  1.4076
 1626SOL    MW4 6579   3.311   2.067   2.716 -0.0939  0.4191  0.5603
 1627SOL     OW 6580   3.321   2.306   2.598  0.0006  0.3374 -0.3738
 1627SOL    HW2 6581   3.399   2.349   2.633 -0.1407 -0.0960  0.4973
 1627SOL    HW3 6582   3.317   2.333   2.507  0.0060  2.0399  0.1139
 1627SOL    MW4 6583   3.331   2.315   2.591 -0.0174  0.5050 -0.1945
 1628SOL     OW 6584   3.126   2.459   2.742  0.0623 -0.2818 -0.1482
 1628SOL    HW2 6585   3.124   2.547   2.704 -1.1827 -0.5536 -0.7593
 1628SOL    HW3 6586   3.186   2.410   2.687 -1.3475 -0.5359 -1.4824
 1628SOL    MW4 6587   3.134   2.464   2.730 -0.2880 -0.3512 -0.4051
 1629SOL     OW 6588   3.134   2.718   2.600  0.1303 -0.1570 -0.0483
 1629SOL    HW2 6589   3.208   2.751   2.649 -0.6799 -1.7906  2.3547
 1629SOL    HW3 6590   3.058   2.763   2.637 -0.3691 -0.5639 -0.5682
 1629SOL    MW4 6591   3.134   2.728   2.611 -0.0424 -0.4263  0.2003
 1630SOL     OW 6592   3.352   2.842   2.714  0.8251 -0.9492 -0.4289
 1630SOL    HW2 6593   3.352   2.850   2.809  0.7036 -1.9618 -0.3404
 1630SOL    HW3 6594   3.433   2.794   2.693  0.1699 -1.9584 -0.7140
 1630SOL    MW4 6595   3.363   2.837   2.724  0.7229 -1.2159 -0.4549
 1631SOL     OW 6596   3.371   3.095   2.610  0.6816 -0.3311 -0.0333
 1631SOL    HW2 6597   3.363   3.005   2.641  0.4064 -0.6579 -1.0708
 1631SOL    HW3 6598   3.361   3.090   2.515 -2.1008  1.1265  0.1276
 1631SOL    MW4 6599   3.369   3.082   2.602  0.2782 -0.1819 -0.1493
 1632SOL     OW 6600   3.153   3.243   2.690  0.1142 -0.2091 -0.2191
 1632SOL    HW2 6601   3.236   3.198   2.675  0.2311 -0.2371  0.4638
 1632SOL    HW3 6602   3.088   3.191   2.642  0.5002 -0.1575 -0.7960
 1632SOL    MW4 6603   3.155   3.230   2.682  0.1805 -0.2058 -0.2050
 1633SOL     OW 6604   3.164   3.524   2.631 -0.1876  0.2909  0.3028
 1633SOL    HW2 6605   3.149   3.438   2.669 -1.2845  0.1335 -0.4548
 1633SOL    HW3 6606   3.087   3.575   2.657 -1.0253  0.1386 -1.7874
 1633SOL    MW4 6607   3.152   3.519   2.640 -0.4427  0.2501 -0.0730
 1634SOL     OW 6608   3.371   3.657   2.764  0.2676 -0.3902  0.1744
 1634SOL    HW2 6609   3.376   3.624   2.854 -0.4611 -0.9980 -0.0101
 1634SOL    HW3 6610   3.307   3.601   2.721  1.6410 -0.9912 -1.1141
 1634SOL    MW4 6611   3.363   3.645   2.770  0.3529 -0.5496 -0.0200
 1635SOL     OW 6612   3.350   3.912   2.668  0.1919 -0.0209  0.3744
 1635SOL    HW2 6613   3.358   3.823   2.705  2.8566  0.0886  0.2105
 1635SOL    HW3 6614   3.346   3.898   2.574 -1.1602 -0.0530  0.4396
 1635SOL    MW4 6615   3.351   3.898   2.661  0.3650 -0.0110  0.3617
 1636SOL     OW 6616   3.113   4.027   2.803 -0.0168  0.5932 -0.0985
 1636SOL    HW2 6617   3.104   4.116   2.768 -0.9069  0.0200 -1.3727
 1636SOL    HW3 6618   3.183   3.988   2.751 -0.4962  0.1397 -0.4112
 1636SOL    MW4 6619   3.121   4.034   2.791 -0.1974  0.4578 -0.3078
 1637SOL     OW 6620   3.138   4.298   2.649 -0.4322 -0.3541  0.5559
 1637SOL    HW2 6621   3.055   4.344   2.661 -0.4016 -0.2548  0.3824
 1637SOL    HW3 6622   3.135   4.265   2.559 -0.3376 -0.4582  0.5903
 1637SOL    MW4 6623   3.127   4.300   2.639 -0.4156 -0.3543  0.5374
 1638SOL     OW 6624   3.375   4.416   2.739  0.0977  0.0492 -0.0542
 1638SOL    HW2 6625   3.388   4.407   2.834  1.2244 -2.0279 -0.3696
 1638SOL    HW3 6626   3.291   4.374   2.723  0.4150 -0.5798 -0.1033
 1638SOL    MW4 6627   3.366   4.409   2.750  0.2880 -0.3080 -0.1023
 1639SOL     OW 6628   3.823   4.658   2.670 -0.1557 -0.1250  0.2216
 1639SOL    HW2 6629   3.825   4.565   2.691  0.4948 -0.1323  0.1301
 1639SOL    HW3 6630   3.733   4.686   2.691 -0.0881 -0.5631  1.1142
 1639SOL    MW4 6631   3.811   4.650   2.676 -0.0610 -0.1836  0.3273
 1640SOL     OW 6632   3.585   0.121   2.721 -0.3861  0.0173 -0.6532
 1640SOL    HW2 6633   3.614   0.208   2.693 -1.3087  0.8577  0.9276
 1640SOL    HW3 6634   3.510   0.102   2.664  1.2847 -0.8333 -2.6535
 1640SOL    MW4 6635   3.579   0.130   2.710 -0.2873  0.0159 -0.7088
 1641SOL     OW 6636   3.638   0.391   2.652 -0.1964 -0.5410 -0.0748
 1641SOL    HW2 6637   3.702   0.439   2.704 -0.7437 -0.4981  0.5790
 1641SOL    HW3 6638   3.553   0.422   2.685 -0.5543 -0.4121 -1.0924
 1641SOL    MW4 6639   3.635   0.402   2.663 -0.3159 -0.5183 -0.1228
 1642SOL     OW 6640   3.831   0.531   2.773 -0.0703  0.1520 -0.4850
 1642SOL    HW2 6641   3.827   0.508   2.866 -0.9789 -0.3407 -0.6381
 1642SOL    HW3 6642   3.908   0.484   2.740  0.2830  0.3720  0.0307
 1642SOL    MW4 6643   3.841   0.522   2.781 -0.1435  0.1160 -0.4370
 1643SOL     OW 6644   3.785   0.794   2.657  0.0423 -0.1983  0.4586
 1643SOL    HW2 6645   3.711   0.850   2.681 -0.3476 -1.3671  2.0333
 1643SOL    HW3 6646   3.758   0.707   2.685  1.6200 -0.7927  0.1274
 1643SOL    MW4 6647   3.771   0.790   2.664  0.1991 -0.4310  0.6227
 1644SOL     OW 6648   3.555   0.903   2.741  0.2766  0.5069 -0.5690
 1644SOL    HW2 6649   3.570   0.887   2.834  0.6834  1.1148 -0.5310
 1644SOL    HW3 6650   3.562   0.998   2.731  1.2820  0.3476 -1.4102
 1644SOL    MW4 6651   3.558   0.914   2.752  0.4630  0.5661 -0.6752
 1645SOL     OW 6652   3.600   1.157   2.633 -0.1355 -0.0284 -0.0344
 1645SOL    HW2 6653   3.680   1.190   2.675  0.3692 -2.1265  0.7260
 1645SOL    HW3 6654   3.531   1.217   2.663  0.7366  0.3294  1.3201
 1645SOL    MW4 6655   3.602   1.169   2.643  0.0463 -0.2580  0.2444
 1646SOL     OW 6656   3.828   1.283   2.752  0.0040  0.5667  0.0798
 1646SOL    HW2 6657   3.915   1.250   2.730 -0.0295  0.1636  0.5462
 1646SOL    HW3 6658   3.825   1.370   2.713  0.6000  0.5622  0.0237
 1646SOL    MW4 6659   3.839   1.290   2.744  0.0782  0.5128  0.1338
 1647SOL     OW 6660   3.781   1.534   2.653 -0.1476 -0.1158 -0.0075
 1647SOL    HW2 6661   3.850   1.571   2.708 -0.9208  0.0528  0.8614
 1647SOL    HW3 6662   3.703   1.586   2.674 -1.2417 -2.1982  1.1695
 1647SOL    MW4 6663   3.779   1.546   2.663 -0.3941 -0.3682  0.2625
 1648SOL     OW 6664   3.562   1.703   2.759 -0.3934  0.1830  0.1360
 1648SOL    HW2 6665   3.563   1.785   2.710 -1.0385  0.4779  0.6035
 1648SOL    HW3 6666   3.491   1.652   2.718 -0.5197  0.1811  0.3535
 1648SOL    MW4 6667   3.553   1.707   2.747 -0.4954  0.2216  0.2265
 1649SOL     OW 6668   3.558   1.952   2.622  0.1257  0.1941  0.1826
 1649SOL    HW2 6669   3.469   1.969   2.653  0.2509 -0.0899  0.7041
 1649SOL    HW3 6670   3.550   1.946   2.526 -0.3495  0.5446  0.2004
 1649SOL    MW4 6671   3.545   1.953   2.613  0.0796  0.2028  0.2539
 1650SOL     OW 6672   3.783   2.066   2.726 -0.1123  0.1132 -0.4977
 1650SOL    HW2 6673   3.852   2.009   2.692  0.7135  0.7284  0.1108
 1650SOL    HW3 6674   3.702   2.023   2.701  0.4710 -2.2761  1.4795
 1650SOL    MW4 6675   3.782   2.053   2.718  0.0734 -0.1206 -0.1564
 1651SOL     OW 6676   3.814   2.320   2.634  0.0816 -0.0390  0.2323
 1651SOL    HW2 6677   3.810   2.228   2.659 -2.5741 -0.0882 -0.2317
 1651SOL    HW3 6678   3.820   2.318   2.538 -1.3511  0.2607  0.1261
 1651SOL    MW4 6679   3.814   2.307   2.625 -0.4580 -0.0060  0.1571
 1652SOL     OW 6680   3.565   2.392   2.727  0.2464 -0.0889  0.3315
 1652SOL    HW2 6681   3.562   2.395   2.822  1.1274 -1.5777  0.4181
 1652SOL    HW3 6682   3.652   2.357   2.706 -0.0716 -0.1389 -1.0033
 1652SOL    MW4 6683   3.576   2.388   2.736  0.3209 -0.2918  0.1667
 1653SOL     OW 6684   3.566   2.679   2.642  0.4752  0.3681  0.1401
 1653SOL    HW2 6685   3.555   2.592   2.681 -0.5264  0.5929  0.3610
 1653SOL    HW3 6686   3.646   2.713   2.683  0.9728 -0.5122 -0.0787
 1653SOL    MW4 6687   3.575   2.672   2.653  0.4086  0.2813  0.1402
 1654SOL     OW 6688   3.786   2.813   2.760 -0.3127 -0.3187 -0.5035
 1654SOL    HW2 6689   3.867   2.783   2.719  0.2829 -0.1671  0.5402
 1654SOL    HW3 6690   3.776   2.904   2.730 -0.2246 -0.4183 -0.8345
 1654SOL    MW4 6691   3.796   2.821   2.751 -0.2227 -0.3116 -0.4094
 1655SOL     OW 6692   3.791   3.083   2.640 -0.6871  0.0527  0.1529
 1655SOL    HW2 6693   3.722   3.135   2.681 -0.8164 -1.9398  2.5829
 1655SOL    HW3 6694   3.871   3.134   2.655 -1.1718  0.8134  0.1746
 1655SOL    MW4 6695   3.792   3.097   2.648 -0.7682 -0.1099  0.4764
 1656SOL     OW 6696   3.575   3.210   2.754 -0.0993  0.4577 -0.1156
 1656SOL    HW2 6697   3.562   3.300   2.722 -1.4786  0.9274  1.6636
 1656SOL    HW3 6698   3.509   3.158   2.708  0.2561  0.4663 -0.6444
 1656SOL    MW4 6699   3.565   3.215   2.744 -0.2344  0.5209  0.0494
 1657SOL     OW 6700   3.549   3.468   2.659  0.2457  0.2253  0.0340
 1657SOL    HW2 6701   3.637   3.504   2.673  0.0123  0.2127  1.6529
 1657SOL    HW3 6702   3.491   3.534   2.698 -0.2907 -1.0329  1.4063
 1657SOL    MW4 6703   3.553   3.482   2.666  0.1440  0.0577  0.4287
 1658SOL     OW 6704   3.783   3.613   2.744 -0.3743 -0.0305  0.6842
 1658SOL    HW2 6705   3.871   3.584   2.721 -0.8012 -0.1558 -0.8171
 1658SOL    HW3 6706   3.778   3.703   2.711 -0.8563 -0.0665  0.6534
 1658SOL    MW4 6707   3.794   3.621   2.737 -0.4942 -0.0520  0.4818
 1659SOL     OW 6708   3.796   3.850   2.615  0.2322  0.3902  0.3040
 1659SOL    HW2 6709   3.882   3.886   2.636  0.9753 -1.2610  0.1283
 1659SOL    HW3 6710   3.739   3.885   2.684  0.8351  2.2348 -0.0950
 1659SOL    MW4 6711   3.800   3.859   2.627  0.4098  0.4158  0.2282
 1660SOL     OW 6712   3.611   3.986   2.762  0.0594  0.2431 -0.5558
 1660SOL    HW2 6713   3.627   4.074   2.729  0.0054  0.3626 -0.2648
 1660SOL    HW3 6714   3.519   3.969   2.741  0.3114 -0.0929 -1.4176
 1660SOL    MW4 6715   3.601   3.995   2.755  0.0858  0.2146 -0.6309
 1661SOL     OW 6716   3.592   4.259   2.690  0.3254 -0.5339  0.2942
 1661SOL    HW2 6717   3.512   4.311   2.700  0.4717 -0.3687  0.5965
 1661SOL    HW3 6718   3.602   4.250   2.595 -0.4262 -1.1290  0.2609
 1661SOL    MW4 6719   3.583   4.264   2.679  0.2453 -0.5908  0.3297
 1662SOL     OW 6720   3.842   4.400   2.733  0.1807 -0.0238 -0.4639
 1662SOL    HW2 6721   3.910   4.344   2.695  1.1563  1.5528 -1.0840
 1662SOL    HW3 6722   3.760   4.363   2.700  0.8334 -0.7709 -1.2942
 1662SOL    MW4 6723   3.840   4.388   2.723  0.3955  0.0858 -0.6557
 1663SOL     OW 6724   4.240   4.658   2.658  0.1627 -0.0418 -0.1602
 1663SOL    HW2 6725   4.172   4.703   2.708 -0.2904 -0.3421 -0.5087
 1663SOL    HW3 6726   4.321   4.700   2.686 -0.1706  0.3731  0.1949
 1663SOL    MW4 6727   4.242   4.670   2.668  0.0591 -0.0272 -0.1595
 1664SOL     OW 6728   4.023   0.136   2.789 -0.4801 -0.1700  0.1253
 1664SOL    HW2 6729   4.015   0.139   2.884  0.3136 -0.7928  0.2179
 1664SOL    HW3 6730   3.942   0.095   2.759 -2.1636  2.8542  0.2934
 1664SOL    MW4 6731   4.011   0.131   2.798 -0.5975  0.1468  0.1597
 1665SOL     OW 6732   4.038   0.389   2.691  0.1980  0.3161  0.2648
 1665SOL    HW2 6733   4.024   0.300   2.724  0.1373  0.3123  0.2284
 1665SOL    HW3 6734   4.033   0.380   2.596  1.5491  0.1250  0.2035
 1665SOL    MW4 6735   4.036   0.376   2.683  0.3681  0.2904  0.2518
 1666SOL     OW 6736   4.262   0.537   2.772  0.0150  0.1191 -0.1871
 1666SOL    HW2 6737   4.182   0.494   2.741  0.3948 -1.1307  0.5065
 1666SOL    HW3 6738   4.332   0.475   2.751  0.6273  0.5910  0.4269
 1666SOL    MW4 6739   4.260   0.523   2.765  0.1454  0.0165 -0.0145
 1667SOL     OW 6740   4.247   0.793   2.693 -0.1120  0.0939 -0.1257
 1667SOL    HW2 6741   4.256   0.702   2.721 -0.2429 -0.1487 -0.8417
 1667SOL    HW3 6742   4.250   0.788   2.597  0.9973  0.9648 -0.1494
 1667SOL    MW4 6743   4.249   0.780   2.684  0.0167  0.1767 -0.2234
 1668SOL     OW 6744   4.014   0.925   2.766  0.7334 -0.2923  0.4945
 1668SOL    HW2 6745   4.081   0.867   2.732  0.7136  0.5198 -0.9855
 1668SOL    HW3 6746   3.931   0.887   2.736  0.6867  0.1480  0.0580
 1668SOL    MW4 6747   4.012   0.913   2.757  0.7243 -0.1271  0.2415
 1669SOL     OW 6748   4.088   1.187   2.656 -0.5534  0.0289  0.4811
 1669SOL    HW2 6749   4.155   1.231   2.708  0.9832 -1.4040 -0.2303
 1669SOL    HW3 6750   4.082   1.099   2.693 -0.6480 -0.4628 -0.6520
 1669SOL    MW4 6751   4.096   1.181   2.667 -0.3624 -0.2249  0.2379
 1670SOL     OW 6752   4.270   1.297   2.816 -0.5099 -0.1761 -0.0554
 1670SOL    HW2 6753   4.260   1.385   2.778 -1.4510 -0.6810 -1.0363
 1670SOL    HW3 6754   4.343   1.258   2.768  0.1423  0.1958  0.6307
 1670SOL    MW4 6755   4.278   1.303   2.804 -0.5474 -0.1935 -0.0947
 1671SOL     OW 6756   4.249   1.526   2.644 -0.2381 -0.6336  0.2443
 1671SOL    HW2 6757   4.335   1.565   2.662 -0.5253 -0.7100  1.7884
 1671SOL    HW3 6758   4.238   1.538   2.549  0.2581  1.8858  0.4528
 1671SOL    MW4 6759   4.259   1.533   2.634 -0.2108 -0.3114  0.4754
 1672SOL     OW 6760   4.006   1.638   2.758 -0.0236  0.0553 -0.1395
 1672SOL    HW2 6761   4.017   1.649   2.852 -0.4861  0.7407 -0.1628
 1672SOL    HW3 6762   4.085   1.590   2.730 -0.8198 -1.8731  0.8753
 1672SOL    MW4 6763   4.018   1.633   2.767 -0.1893 -0.1090 -0.0088
 1673SOL     OW 6764   3.990   1.903   2.655  0.2593 -0.3076  0.3502
 1673SOL    HW2 6765   4.057   1.956   2.698  1.0977 -1.0240 -0.0621
 1673SOL    HW3 6766   4.007   1.814   2.684 -0.4767 -0.5087  0.1798
 1673SOL    MW4 6767   4.001   1.898   2.664  0.2732 -0.4284  0.2732
 1674SOL     OW 6768   4.211   2.036   2.741  0.1482  0.0487 -0.1496
 1674SOL    HW2 6769   4.196   2.124   2.706 -0.7274 -0.8055 -1.9644
 1674SOL    HW3 6770   4.299   2.013   2.713  0.2505  0.2141  0.0380
 1674SOL    MW4 6771   4.220   2.045   2.733  0.0463 -0.0422 -0.3645
 1675SOL     OW 6772   4.233   2.298   2.648  0.0236  0.2410 -0.5066
 1675SOL    HW2 6773   4.156   2.351   2.672 -0.1269  0.1177 -0.7146
 1675SOL    HW3 6774   4.237   2.304   2.553 -0.2684 -0.5056 -0.5698
 1675SOL    MW4 6775   4.223   2.306   2.638 -0.0353  0.1261 -0.5424
 1676SOL     OW 6776   4.027   2.469   2.730  0.0934 -0.1598 -0.3572
 1676SOL    HW2 6777   4.032   2.460   2.826 -0.0917 -0.0572 -0.3391
 1676SOL    HW3 6778   3.950   2.418   2.705 -0.9935  1.3827 -0.2507
 1676SOL    MW4 6779   4.018   2.461   2.740 -0.0744  0.0575 -0.3407
 1677SOL     OW 6780   4.008   2.729   2.631  0.6177  0.2576 -0.0771
 1677SOL    HW2 6781   4.091   2.770   2.656  1.0040 -0.8608  0.5064
 1677SOL    HW3 6782   4.014   2.640   2.665 -1.2384  0.4666  0.8809
 1677SOL    MW4 6783   4.019   2.723   2.639  0.4234  0.1378  0.1264
 1678SOL     OW 6784   4.244   2.816   2.724  0.0328 -0.1874 -0.6095
 1678SOL    HW2 6785   4.258   2.815   2.819 -0.0958  1.0818 -0.5675
 1678SOL    HW3 6786   4.263   2.906   2.698 -1.3649 -0.1573 -1.5684
 1678SOL    MW4 6787   4.248   2.828   2.733 -0.1688 -0.0160 -0.7305
 1679SOL     OW 6788   4.269   3.090   2.667  0.2195  0.3175  0.0679
 1679SOL    HW2 6789   4.188   3.134   2.694 -0.2659 -0.0530 -0.7511
 1679SOL    HW3 6790   4.267   3.094   2.572  1.3119  0.5407  0.0545
 1679SOL    MW4 6791   4.258   3.096   2.658  0.2995  0.2983 -0.0417
 1680SOL     OW 6792   4.034   3.206   2.718  0.2711  0.3231 -0.7475
 1680SOL    HW2 6793   4.035   3.301   2.709  1.0605  0.4842  0.8715
 1680SOL    HW3 6794   4.029   3.191   2.812  0.9444 -1.2311 -0.9481
 1680SOL    MW4 6795   4.033   3.217   2.729  0.4640  0.1395 -0.5605
 1681SOL     OW 6796   4.040   3.484   2.684  0.3424  0.3997  0.4202
 1681SOL    HW2 6797   4.128   3.518   2.698 -0.3796  2.6785 -0.2403
 1681SOL    HW3 6798   4.034   3.472   2.590  0.5765 -1.6193  0.6458
 1681SOL    MW4 6799   4.051   3.487   2.674  0.2780  0.4339  0.3629
 1682SOL     OW 6800   4.286   3.607   2.739  0.3323  0.1309  0.4717
 1682SOL    HW2 6801   4.319   3.616   2.828  0.4310 -0.7894  0.5353
 1682SOL    HW3 6802   4.340   3.539   2.700  1.9097  2.2221 -1.0970
 1682SOL    MW4 6803   4.297   3.599   2.745  0.5536  0.2854  0.2732
 1683SOL     OW 6804   4.282   3.843   2.598  0.6794  0.0006 -0.5006
 1683SOL    HW2 6805   4.285   3.757   2.639 -0.1733  0.4200  0.4611
 1683SOL    HW3 6806   4.341   3.897   2.652 -1.1346  0.7819  0.7429
 1683SOL    MW4 6807   4.290   3.839   2.610  0.3276  0.1590 -0.2098
 1684SOL     OW 6808   4.049   3.953   2.699 -0.6250  0.1041 -0.2626
 1684SOL    HW2 6809   4.056   3.939   2.793  0.8008  0.3691 -0.3200
 1684SOL    HW3 6810   4.134   3.927   2.664 -1.1072  0.1015 -1.4677
 1684SOL    MW4 6811   4.061   3.948   2.706 -0.5007  0.1390 -0.4292
 1685SOL     OW 6812   4.050   4.245   2.626  0.0510 -0.3295  0.1960
 1685SOL    HW2 6813   4.043   4.151   2.636  0.1649 -0.3378  0.2067
 1685SOL    HW3 6814   4.046   4.260   2.532 -0.8152 -0.2726  0.2418
 1685SOL    MW4 6815   4.049   4.235   2.615 -0.0482 -0.3233  0.2036
 1686SOL     OW 6816   4.262   4.395   2.744  0.2963  0.7895 -0.2674
 1686SOL    HW2 6817   4.178   4.360   2.715 -1.1075  1.8617  2.3621
 1686SOL    HW3 6818   4.263   4.486   2.712  0.6595  0.6554 -0.6511
 1686SOL    MW4 6819   4.251   4.403   2.736  0.1583  0.9131  0.0291
 1687SOL     OW 6820   0.202   4.606   3.135 -0.2818 -0.5293  0.3704
 1687SOL    HW2 6821   0.199   4.643   3.223  1.1325 -1.5073  0.8578
 1687SOL    HW3 6822   0.133   4.652   3.087  1.8945  3.2895  0.7059
 1687SOL    MW4 6823   0.193   4.617   3.141  0.1919 -0.1540  0.4790
 1688SOL     OW 6824   0.005   0.118   3.026 -0.0942  0.1904 -0.2815
 1688SOL    HW2 6825  -0.081   0.097   3.064 -0.6577  0.1974 -1.5153
 1688SOL    HW3 6826   0.029   0.201   3.067 -0.5182  0.0275  0.3182
 1688SOL    MW4 6827  -0.003   0.126   3.037 -0.2246  0.1698 -0.3648
 1689SOL     OW 6828   0.044   0.357   3.135 -0.2821  0.0670  0.3888
 1689SOL    HW2 6829   0.041   0.358   3.231 -0.5798 -0.7282  0.3862
 1689SOL    HW3 6830  -0.042   0.389   3.108 -0.6025 -0.8158  0.3796
 1689SOL    MW4 6831   0.033   0.362   3.144 -0.3637 -0.1544  0.3874
 1690SOL     OW 6832   0.278   0.476   2.995  0.1171 -0.1103  0.3811
 1690SOL    HW2 6833   0.351   0.424   3.028  0.1919 -0.6668 -0.6379
 1690SOL    HW3 6834   0.200   0.434   3.030  0.1397 -1.3321 -0.9629
 1690SOL    MW4 6835   0.277   0.464   3.004  0.1299 -0.3450  0.0691
 1691SOL     OW 6836   0.202   0.715   3.105  0.3414  0.2119  0.3348
 1691SOL    HW2 6837   0.217   0.689   3.195 -1.2581 -1.0689  0.2694
 1691SOL    HW3 6838   0.215   0.635   3.054  0.3761  0.7159 -0.4693
 1691SOL    MW4 6839   0.206   0.701   3.110  0.1349  0.1094  0.2201
 1692SOL     OW 6840   4.466   0.852   3.058  0.5697  0.3785  0.2769
 1692SOL    HW2 6841   4.546   0.801   3.072  0.8585  0.2139 -1.8029
 1692SOL    HW3 6842   4.458   0.858   2.963 -2.5329 -0.5794  0.4290
 1692SOL    MW4 6843   4.475   0.847   3.047  0.1988  0.2304  0.0224
 1693SOL     OW 6844   0.042   1.114   3.168  0.2026  0.0414  0.1788
 1693SOL    HW2 6845  -0.039   1.155   3.137  0.1937 -0.4540 -0.4798
 1693SOL    HW3 6846   0.043   1.029   3.124  0.6811 -0.2770  0.8149
 1693SOL    MW4 6847   0.031   1.108   3.158  0.2646 -0.0658  0.1757
 1694SOL     OW 6848   0.210   1.292   3.062 -0.2374 -0.6283  0.1275
 1694SOL    HW2 6849   0.152   1.225   3.099 -1.7707  0.4367 -0.2853
 1694SOL    HW3 6850   0.209   1.274   2.968  1.8115 -1.9040  0.3244
 1694SOL    MW4 6851   0.202   1.281   3.055 -0.1694 -0.6560  0.0989
 1695SOL     OW 6852   0.173   1.553   3.165  0.0970  0.2093 -0.3453
 1695SOL    HW2 6853   0.115   1.601   3.106  1.8427 -0.0389 -2.3000
 1695SOL    HW3 6854   0.170   1.463   3.133 -1.1070 -0.5084  1.6862
 1695SOL    MW4 6855   0.165   1.548   3.153  0.1685  0.0818 -0.3352
 1696SOL     OW 6856   4.466   1.686   3.004  0.7750 -0.1453 -0.0484
 1696SOL    HW2 6857   4.391   1.645   3.048  1.0087  0.3091  0.7904
 1696SOL    HW3 6858   4.474   1.772   3.047  1.9916 -0.3340  0.0996
 1696SOL    MW4 6859   4.457   1.692   3.015  0.9665 -0.1103  0.0818
 1697SOL     OW 6860   4.485   1.935   3.142  0.2572 -0.0335 -0.0522
 1697SOL    HW2 6861   4.412   1.954   3.083 -0.0469  2.5364  1.0874
 1697SOL    HW3 6862   4.560   1.980   3.103  0.5137 -0.0251  0.4434
 1697SOL    MW4 6863   4.485   1.943   3.129  0.2513  0.3067  0.1633
 1698SOL     OW 6864   0.218   2.058   3.001  0.1690  0.3849 -0.2068
 1698SOL    HW2 6865   0.204   2.149   3.027 -1.1526 -0.0247  0.5680
 1698SOL    HW3 6866   0.208   2.060   2.905  0.6756  1.1417 -0.2503
 1698SOL    MW4 6867   0.215   2.070   2.991  0.0615  0.4306 -0.1101
 1699SOL     OW 6868   0.208   2.317   3.108  0.2573 -0.1612 -0.0275
 1699SOL    HW2 6869   0.227   2.325   3.202  0.4160 -0.8982  0.0076
 1699SOL    HW3 6870   0.277   2.366   3.065 -0.1973  0.7556  0.2644
 1699SOL    MW4 6871   0.219   2.324   3.115  0.2182 -0.1376  0.0157
 1700SOL     OW 6872   4.468   2.425   3.017 -0.1214  0.0791  0.4967
 1700SOL    HW2 6873   4.466   2.506   3.068  0.3439 -0.9227  2.1516
 1700SOL    HW3 6874   4.535   2.372   3.059 -1.1835 -1.6060  0.1216
 1700SOL    MW4 6875   4.476   2.429   3.029 -0.1998 -0.2751  0.6657
 1701SOL     OW 6876   0.011   2.707   3.107  0.1887 -0.5713 -0.1324
 1701SOL    HW2 6877   0.005   2.703   3.203  0.1018  1.8084  0.0056
 1701SOL    HW3 6878   0.101   2.734   3.089 -0.1979  0.4346 -0.6343
 1701SOL    MW4 6879   0.022   2.710   3.117  0.1259 -0.1245 -0.1802
 1702SOL     OW 6880   0.282   2.851   3.054  0.1256 -0.0658  0.0191
 1702SOL    HW2 6881   0.365   2.808   3.074  0.2282  0.4791  0.7796
 1702SOL    HW3 6882   0.270   2.838   2.959  0.6731 -0.8403  0.0537
 1702SOL    MW4 6883   0.291   2.844   3.044  0.2114 -0.0958  0.1240
 1703SOL     OW 6884   0.239   3.102   3.143 -0.0808  0.3783 -0.1097
 1703SOL    HW2 6885   0.151   3.128   3.115 -0.4487 -0.0787  0.6224
 1703SOL    HW3 6886   0.249   3.012   3.110  0.7657  1.0160 -1.6641
 1703SOL    MW4 6887   0.229   3.094   3.135 -0.0177  0.4022 -0.2182
 1704SOL     OW 6888   4.476   3.175   3.064  0.5175 -0.3004 -0.7167
 1704SOL    HW2 6889   4.400   3.126   3.096  0.0534  1.2696  0.6255
 1704SOL    HW3 6890   4.454   3.198   2.973 -0.4821 -0.1076 -0.4294
 1704SOL    MW4 6891   4.463   3.171   3.056  0.3247 -0.0677 -0.5016
 1705SOL     OW 6892   4.468   3.433   3.197  0.4784 -0.3147 -0.4751
 1705SOL    HW2 6893   4.392   3.462   3.147 -1.3262 -0.5520  2.0272
 1705SOL    HW3 6894   4.482   3.343   3.168 -0.5299 -0.4477 -0.5714
 1705SOL    MW4 6895   4.460   3.425   3.187  0.1073 -0.3638 -0.1576
 1706SOL     OW 6896   0.204   3.577   3.079  0.1749 -0.5313  0.6476
 1706SOL    HW2 6897   0.190   3.667   3.111 -0.1317 -0.9078  1.5999
 1706SOL    HW3 6898   0.139   3.525   3.127 -1.2445 -0.9082 -1.6185
 1706SOL    MW4 6899   0.193   3.582   3.090 -0.0528 -0.6304  0.4742
 1707SOL     OW 6900   0.182   3.858   3.139  0.1188 -0.0073  0.1397
 1707SOL    HW2 6901   0.189   3.869   3.234  0.0219  1.6428 -0.0284
 1707SOL    HW3 6902   0.260   3.902   3.104 -0.8362  1.1112 -0.6341
 1707SOL    MW4 6903   0.193   3.865   3.147 -0.0200  0.3579  0.0153
 1708SOL     OW 6904   4.468   4.028   3.039  0.2504 -0.0262 -0.2045
 1708SOL    HW2 6905   4.543   3.972   3.059 -0.0044 -0.0250  0.8042
 1708SOL    HW3 6906   4.464   4.030   2.944  0.8781 -0.9060 -0.2586
 1708SOL    MW4 6907   4.477   4.021   3.029  0.2995 -0.1421 -0.0787
 1709SOL     OW 6908   4.448   4.288   3.143 -0.4886  0.2427  0.0175
 1709SOL    HW2 6909   4.478   4.283   3.234  0.3822  0.0942 -0.2692
 1709SOL    HW3 6910   4.448   4.197   3.112 -1.2713  0.2381  0.0195
 1709SOL    MW4 6911   4.452   4.275   3.151 -0.4768  0.2222 -0.0200
 1710SOL     OW 6912   0.201   4.368   3.015 -0.0080  0.4787  0.2934
 1710SOL    HW2 6913   0.125   4.333   3.060  0.5917 -0.2284  0.7614
 1710SOL    HW3 6914   0.208   4.459   3.045 -1.7726  1.1468 -1.1926
 1710SOL    MW4 6915   0.192   4.375   3.025 -0.1617  0.4730  0.1593
 1711SOL     OW 6916   0.682   4.663   3.118  0.0995 -0.1233  0.0395
 1711SOL    HW2 6917   0.699   4.576   3.083  0.9940 -0.0346  0.2539
 1711SOL    HW3 6918   0.598   4.688   3.080  0.2927 -0.6882 -0.7612
 1711SOL    MW4 6919   0.673   4.655   3.109  0.2430 -0.1862 -0.0379
 1712SOL     OW 6920   0.443   0.058   3.023 -0.1882 -0.1161 -0.5320
 1712SOL    HW2 6921   0.437   0.147   3.057  2.5609 -0.7654  1.8462
 1712SOL    HW3 6922   0.363   0.014   3.054  0.5664  0.3130  2.1532
 1712SOL    MW4 6923   0.432   0.064   3.031  0.2741 -0.1451  0.1359
 1713SOL     OW 6924   0.474   0.325   3.103  0.3111 -0.0086 -0.2242
 1713SOL    HW2 6925   0.454   0.334   3.196  0.0549  0.5445 -0.3309
 1713SOL    HW3 6926   0.561   0.365   3.094  0.6610 -0.7366 -0.0904
 1713SOL    MW4 6927   0.483   0.332   3.114  0.3234 -0.0317 -0.2208
 1714SOL     OW 6928   0.684   0.508   3.044  0.2882 -0.1276 -0.2997
 1714SOL    HW2 6929   0.772   0.474   3.061  0.3043  0.2289  0.3431
 1714SOL    HW3 6930   0.689   0.600   3.068 -0.9794 -0.7018  2.3332
 1714SOL    MW4 6931   0.697   0.515   3.049  0.1231 -0.1563  0.1326
 1715SOL     OW 6932   0.633   0.776   3.115 -0.0062  0.7392 -0.1267
 1715SOL    HW2 6933   0.649   0.763   3.208 -1.0442 -1.4646 -0.2075
 1715SOL    HW3 6934   0.542   0.804   3.109  0.2876  1.6235 -0.4206
 1715SOL    MW4 6935   0.623   0.778   3.126 -0.1044  0.5651 -0.1762
 1716SOL     OW 6936   0.378   0.919   3.052 -0.1765 -0.0717  0.1582
 1716SOL    HW2 6937   0.318   0.847   3.072  0.6076 -0.5497  0.8359
 1716SOL    HW3 6938   0.395   0.912   2.959  1.4178 -1.9616  0.5690
 1716SOL    MW4 6939   0.372   0.909   3.043  0.1373 -0.3840  0.3021
 1717SOL     OW 6940   0.467   1.169   3.125  0.1631  0.3292  0.4350
 1717SOL    HW2 6941   0.420   1.086   3.117  0.2478  0.4766 -1.9339
 1717SOL    HW3 6942   0.399   1.235   3.111  0.7895  0.5660 -1.6591
 1717SOL    MW4 6943   0.452   1.167   3.122  0.2569  0.3798 -0.1540
 1718SOL     OW 6944   0.681   1.289   3.003  0.1168 -0.4356 -0.5201
 1718SOL    HW2 6945   0.754   1.251   3.053  0.1358  1.1138  0.6696
 1718SOL    HW3 6946   0.608   1.229   3.019  0.4385 -0.5897  0.4491
 1718SOL    MW4 6947   0.681   1.276   3.012  0.1617 -0.2514 -0.2353
 1719SOL     OW 6948   0.632   1.544   3.088 -0.6425 -0.1746 -0.1965
 1719SOL    HW2 6949   0.649   1.554   3.182  1.6043  0.7243 -0.6674
 1719SOL    HW3 6950   0.653   1.452   3.070  0.1257 -0.0363 -0.0403
 1719SOL    MW4 6951   0.637   1.533   3.098 -0.2447 -0.0377 -0.2379
 1720SOL     OW 6952   0.389   1.646   3.015  0.5701  0.3141 -0.1811
 1720SOL    HW2 6953   0.471   1.599   3.031 -1.0287 -2.3758  0.3979
 1720SOL    HW3 6954   0.328   1.611   3.079 -1.6403  0.7180 -1.9996
 1720SOL    MW4 6955   0.392   1.635   3.025  0.0676  0.0125 -0.3448
 1721SOL     OW 6956   0.422   1.909   3.091  0.0190 -0.0515 -0.5473
 1721SOL    HW2 6957   0.397   1.820   3.066  0.2597 -0.1470 -0.4426
 1721SOL    HW3 6958   0.349   1.964   3.060  0.5230 -0.1161 -1.8580
 1721SOL    MW4 6959   0.409   1.905   3.083  0.1173 -0.0726 -0.7067
 1722SOL     OW 6960   0.645   2.053   2.967 -0.1140  0.1825  0.0121
 1722SOL    HW2 6961   0.731   2.014   2.984  0.2534  0.3028 -1.4789
 1722SOL    HW3 6962   0.583   1.994   3.009  0.5122 -1.3883 -1.2022
 1722SOL    MW4 6963   0.648   2.040   2.975  0.0171 -0.0093 -0.3448
 1723SOL     OW 6964   0.626   2.298   3.085  0.2864  0.0007 -0.0480
 1723SOL    HW2 6965   0.665   2.294   3.172  1.5951  1.1638 -0.5647
 1723SOL    HW3 6966   0.626   2.208   3.054  1.3158 -0.1880  0.4980
 1723SOL    MW4 6967   0.631   2.286   3.092  0.5949  0.1292 -0.0443
 1724SOL     OW 6968   0.409   2.463   2.984 -0.1234  0.0948 -0.2102
 1724SOL    HW2 6969   0.483   2.408   3.012  0.1442 -0.3305 -1.7130
 1724SOL    HW3 6970   0.401   2.446   2.890 -0.6610  1.8934 -0.5033
 1724SOL    MW4 6971   0.418   2.454   2.975 -0.1591  0.2761 -0.4470
 1725SOL     OW 6972   0.502   2.683   3.145 -0.2535  0.0495 -0.0065
 1725SOL    HW2 6973   0.568   2.722   3.086 -1.2266  1.4160 -0.2157
 1725SOL    HW3 6974   0.459   2.616   3.092 -0.2164  0.3537 -0.4230
 1725SOL    MW4 6975   0.505   2.679   3.130 -0.3770  0.2701 -0.0892
 1726SOL     OW 6976   0.700   2.807   3.019  0.3917  0.4568  0.4262
 1726SOL    HW2 6977   0.785   2.774   3.049  1.6895  1.8933 -1.5460
 1726SOL    HW3 6978   0.685   2.885   3.072  1.4708  1.5607 -0.8659
 1726SOL    MW4 6979   0.709   2.813   3.030  0.7053  0.7920 -0.0045
 1727SOL     OW 6980   0.636   3.080   3.111 -0.2109  0.2410  0.0462
 1727SOL    HW2 6981   0.643   3.112   3.201 -0.4664  2.3844 -0.6640
 1727SOL    HW3 6982   0.568   3.134   3.072  0.6074  0.0126 -1.7206
 1727SOL    MW4 6983   0.628   3.091   3.118 -0.1367  0.4938 -0.2806
 1728SOL     OW 6984   0.440   3.227   2.999  0.2821  0.1967  0.1139
 1728SOL    HW2 6985   0.456   3.305   3.053 -1.8438  0.8740 -0.1860
 1728SOL    HW3 6986   0.378   3.175   3.050  1.3983 -1.1479  0.1402
 1728SOL    MW4 6987   0.434   3.230   3.013  0.1489  0.1085  0.0777
 1729SOL     OW 6988   0.450   3.452   3.132  0.0074  0.0746 -0.0916
 1729SOL    HW2 6989   0.460   3.462   3.227  1.1721  1.2124 -0.3173
 1729SOL    HW3 6990   0.371   3.501   3.110 -1.2173 -1.5874  0.5096
 1729SOL    MW4 6991   0.441   3.460   3.142 -0.0005  0.0055 -0.0422
 1730SOL     OW 6992   0.672   3.604   3.032 -0.2969 -0.3340 -0.0704
 1730SOL    HW2 6993   0.753   3.576   3.076 -0.6006 -2.5986 -0.9294
 1730SOL    HW3 6994   0.607   3.539   3.057 -1.3529  0.3121 -1.0761
 1730SOL    MW4 6995   0.674   3.592   3.041 -0.4763 -0.5476 -0.3164
 1731SOL     OW 6996   0.651   3.879   3.107  0.0183  0.3311  0.1664
 1731SOL    HW2 6997   0.630   3.882   3.200 -1.7240  0.2678 -0.2071
 1731SOL    HW3 6998   0.649   3.786   3.085 -0.1417  0.3892 -0.0618
 1731SOL    MW4 6999   0.648   3.867   3.116 -0.2328  0.3304  0.0868
 1732SOL     OW 7000   0.415   3.981   3.039  0.3402 -0.2339 -0.6681
 1732SOL    HW2 7001   0.494   3.942   3.077  0.2765 -1.5132 -1.8326
 1732SOL    HW3 7002   0.429   3.977   2.945  0.0651  2.0547 -0.8372
 1732SOL    MW4 7003   0.427   3.975   3.032  0.2955 -0.1006 -0.8438
 1733SOL     OW 7004   0.453   4.254   3.119 -0.3234 -0.3248 -0.0133
 1733SOL    HW2 7005   0.438   4.162   3.096  0.7144 -0.4031 -0.4242
 1733SOL    HW3 7006   0.371   4.298   3.097 -0.8652 -1.1626  0.2793
 1733SOL    MW4 7007   0.440   4.248   3.113 -0.2580 -0.4454 -0.0288
 1734SOL     OW 7008   0.672   4.403   3.030  0.2342 -0.6254  0.7081
 1734SOL    HW2 7009   0.598   4.350   3.056  0.6632 -1.5755  0.0181
 1734SOL    HW3 7010   0.664   4.411   2.935  2.4957 -3.0496  0.2585
 1734SOL    MW4 7011   0.661   4.397   3.021  0.5891 -1.0705  0.5577
 1735SOL     OW 7012   1.134   4.667   3.108  0.1915 -0.5612 -0.0410
 1735SOL    HW2 7013   1.220   4.687   3.070  0.7221 -0.3343  1.2726
 1735SOL    HW3 7014   1.073   4.721   3.058  1.0188  0.5619  0.1430
 1735SOL    MW4 7015   1.138   4.676   3.096  0.3706 -0.3834  0.1564
 1736SOL     OW 7016   0.907   0.130   3.004 -0.2339 -0.5677  0.2781
 1736SOL    HW2 7017   0.915   0.220   3.036 -1.4245  0.0828 -1.2064
 1736SOL    HW3 7018   0.834   0.093   3.055 -1.4520  0.1461 -0.9054
 1736SOL    MW4 7019   0.898   0.137   3.015 -0.5517 -0.3877 -0.0739
 1737SOL     OW 7020   0.944   0.386   3.080 -0.3417 -0.2355  0.1814
 1737SOL    HW2 7021   0.950   0.388   3.176 -1.3023 -0.6074  0.2556
 1737SOL    HW3 7022   1.018   0.439   3.050 -0.0490 -0.0991  1.1309
 1737SOL    MW4 7023   0.955   0.393   3.089 -0.4298 -0.2666  0.3164
 1738SOL     OW 7024   1.184   0.543   2.996 -0.3574 -0.1835 -0.1793
 1738SOL    HW2 7025   1.242   0.476   3.031  0.1180 -0.2465 -1.0614
 1738SOL    HW3 7026   1.163   0.513   2.908 -0.3559  0.6815 -0.4868
 1738SOL    MW4 7027   1.189   0.530   2.989 -0.2944 -0.0777 -0.3362
 1739SOL     OW 7028   1.076   0.780   3.099 -0.1303 -0.2170 -0.2718
 1739SOL    HW2 7029   1.073   0.764   3.193  0.9332 -0.3929 -0.2567
 1739SOL    HW3 7030   1.104   0.697   3.061  2.7128  0.7599 -0.4350
 1739SOL    MW4 7031   1.080   0.767   3.106  0.3849 -0.1113 -0.2916
 1740SOL     OW 7032   0.858   0.924   2.995  0.2835  0.1471  0.2878
 1740SOL    HW2 7033   0.931   0.872   3.029 -1.2147 -2.4287 -0.3052
 1740SOL    HW3 7034   0.779   0.882   3.030 -1.0065  1.7865 -0.5353
 1740SOL    MW4 7035   0.857   0.911   3.004 -0.0843  0.0236  0.1011
 1741SOL     OW 7036   0.887   1.158   3.139  0.1073 -0.0983 -0.1850
 1741SOL    HW2 7037   0.973   1.196   3.118 -0.5468  0.5685 -1.7783
 1741SOL    HW3 7038   0.890   1.071   3.100  0.2173 -0.2366  0.1333
 1741SOL    MW4 7039   0.899   1.152   3.131  0.0355 -0.0286 -0.3531
 1742SOL     OW 7040   1.133   1.273   3.067  0.0618  0.0129  0.5461
 1742SOL    HW2 7041   1.218   1.235   3.090  0.4006  1.1960  1.2859
 1742SOL    HW3 7042   1.124   1.256   2.973  0.8645 -0.5987  0.5708
 1742SOL    MW4 7043   1.143   1.266   3.058  0.2124  0.0882  0.6471
 1743SOL     OW 7044   1.125   1.561   3.116 -0.5038 -0.1212 -0.1696
 1743SOL    HW2 7045   1.212   1.597   3.099 -0.9611  0.7485 -0.7031
 1743SOL    HW3 7046   1.139   1.467   3.127  0.6541  0.1665  0.8536
 1743SOL    MW4 7047   1.138   1.553   3.115 -0.4113  0.0314 -0.1049
 1744SOL     OW 7048   0.894   1.696   3.041 -0.0906 -0.1268 -0.2307
 1744SOL    HW2 7049   0.967   1.644   3.076  0.2952  0.8571  0.4389
 1744SOL    HW3 7050   0.815   1.651   3.071  0.1943 -2.1825 -2.3771
 1744SOL    MW4 7051   0.893   1.683   3.049 -0.0021 -0.2681 -0.4253
 1745SOL     OW 7052   0.878   1.971   3.083  0.2091 -0.1533 -0.1323
 1745SOL    HW2 7053   0.880   1.984   3.178  0.1215 -1.4991  0.0527
 1745SOL    HW3 7054   0.890   1.877   3.071  2.2586  0.2587 -1.5349
 1745SOL    MW4 7055   0.880   1.961   3.094  0.4680 -0.2766 -0.2928
 1746SOL     OW 7056   1.132   2.064   3.044 -0.4405 -0.2081  0.1336
 1746SOL    HW2 7057   1.052   2.016   3.068 -0.7621 -0.7071 -1.8312
 1746SOL    HW3 7058   1.131   2.064   2.948  1.5647  0.3933  0.1081
 1746SOL    MW4 7059   1.121   2.058   3.034 -0.2184 -0.1948 -0.1287
 1747SOL     OW 7060   1.139   2.315   3.111 -0.2526  0.4071  0.2078
 1747SOL    HW2 7061   1.049   2.347   3.097 -0.2922 -0.0424 -0.5623
 1747SOL    HW3 7062   1.134   2.222   3.093  0.3811  0.3865  0.1519
 1747SOL    MW4 7063   1.126   2.307   3.107 -0.1744  0.3450  0.0989
 1748SOL     OW 7064   0.871   2.406   3.023  0.7175 -0.1270 -0.1059
 1748SOL    HW2 7065   0.795   2.358   3.054  0.3638  1.2335  1.1637
 1748SOL    HW3 7066   0.863   2.404   2.928 -0.0290 -1.3699 -0.0337
 1748SOL    MW4 7067   0.860   2.399   3.015  0.5723 -0.1116  0.0710
 1749SOL     OW 7068   0.927   2.676   3.108 -0.1189 -0.3093  0.3002
 1749SOL    HW2 7069   0.911   2.692   3.201 -2.0135  0.5395 -0.1492
 1749SOL    HW3 7070   0.933   2.581   3.100  0.1563 -0.3773  1.3006
 1749SOL    MW4 7071   0.926   2.666   3.119 -0.3325 -0.2060  0.3731
 1750SOL     OW 7072   1.129   2.831   3.002  0.5708 -0.3642  0.3984
 1750SOL    HW2 7073   1.105   2.919   3.030  0.6822  0.1778 -1.2000
 1750SOL    HW3 7074   1.060   2.775   3.038  0.3515  0.3967  1.1882
 1750SOL    MW4 7075   1.117   2.835   3.011  0.5565 -0.1924  0.2916
 1751SOL     OW 7076   1.123   3.078   3.110  0.3382  0.6705 -0.1538
 1751SOL    HW2 7077   1.201   3.120   3.074 -0.4365  1.0113 -1.5049
 1751SOL    HW3 7078   1.051   3.136   3.085 -0.5258 -0.4661 -0.3717
 1751SOL    MW4 7079   1.124   3.091   3.102  0.1222  0.5655 -0.3607
 1752SOL     OW 7080   0.882   3.217   3.020  0.0479 -0.0444 -0.1513
 1752SOL    HW2 7081   0.803   3.169   3.044 -1.0694  1.3374 -0.9978
 1752SOL    HW3 7082   0.884   3.213   2.924 -0.0715  1.5899 -0.2347
 1752SOL    MW4 7083   0.872   3.210   3.011 -0.1153  0.3531 -0.2739
 1753SOL     OW 7084   0.901   3.497   3.145  0.1553  0.1127  0.1412
 1753SOL    HW2 7085   0.963   3.553   3.099  0.9906  0.3642  1.5208
 1753SOL    HW3 7086   0.903   3.414   3.098 -0.4930  0.9936 -1.4430
 1753SOL    MW4 7087   0.910   3.493   3.133  0.1800  0.2620  0.1144
 1754SOL     OW 7088   1.116   3.611   3.014  0.3408  0.0087 -0.3312
 1754SOL    HW2 7089   1.178   3.556   3.063 -0.0340  1.0182  1.3129
 1754SOL    HW3 7090   1.144   3.701   3.034 -1.0407  0.4528 -0.3964
 1754SOL    MW4 7091   1.128   3.616   3.023  0.1091  0.2003 -0.1230
 1755SOL     OW 7092   1.140   3.870   3.103  0.1057  0.0736  0.1589
 1755SOL    HW2 7093   1.131   3.872   3.198  0.1465 -2.3920  0.2544
 1755SOL    HW3 7094   1.058   3.907   3.070  0.4385  1.7286  1.1347
 1755SOL    MW4 7095   1.128   3.875   3.111  0.1550 -0.0331  0.3004
 1756SOL     OW 7096   0.905   3.965   3.017  0.3630 -0.6086 -0.1560
 1756SOL    HW2 7097   0.816   3.940   3.041  1.0159 -1.9337  0.9826
 1756SOL    HW3 7098   0.902   3.976   2.922 -1.3012  0.6229  0.0160
 1756SOL    MW4 7099   0.893   3.963   3.008  0.2296 -0.6208  0.0169
 1757SOL     OW 7100   0.904   4.239   3.097 -0.3018 -0.4739  0.2737
 1757SOL    HW2 7101   0.904   4.147   3.069  0.8067 -0.4474  0.1923
 1757SOL    HW3 7102   0.823   4.275   3.061 -0.9187 -1.5097  0.6038
 1757SOL    MW4 7103   0.893   4.232   3.089 -0.2369 -0.6075  0.3066
 1758SOL     OW 7104   1.107   4.409   2.997 -0.0200  0.2158 -0.4751
 1758SOL    HW2 7105   1.027   4.369   3.028 -0.7248  1.6990 -0.3348
 1758SOL    HW3 7106   1.110   4.495   3.040  1.6072  0.2029 -0.5103
 1758SOL    MW4 7107   1.097   4.415   3.007  0.1018  0.4101 -0.4616
 1759SOL     OW 7108   1.616   4.630   3.100 -0.1712 -0.1957  0.0687
 1759SOL    HW2 7109   1.624   4.621   3.195 -0.8719  1.9706  0.3518
 1759SOL    HW3 7110   1.538   4.683   3.087  0.1159 -0.1696 -1.7208
 1759SOL    MW4 7111   1.607   4.636   3.110 -0.2258  0.0935 -0.1299
 1760SOL     OW 7112   1.391   0.086   3.000  0.1110  0.0041 -0.0838
 1760SOL    HW2 7113   1.374   0.174   3.034 -1.9179  0.1979 -1.5275
 1760SOL    HW3 7114   1.387   0.096   2.905  0.1722 -1.6015 -0.2632
 1760SOL    MW4 7115   1.388   0.099   2.992 -0.1488 -0.1822 -0.2980
 1761SOL     OW 7116   1.345   0.342   3.097  0.0833  0.0742  0.2305
 1761SOL    HW2 7117   1.330   0.338   3.191  0.5146  1.0716  0.3543
 1761SOL    HW3 7118   1.437   0.367   3.089  0.0218  0.0885 -0.4545
 1761SOL    MW4 7119   1.355   0.345   3.108  0.1321  0.2077  0.1564
 1762SOL     OW 7120   1.590   0.448   3.066 -0.2052  0.0438  0.0007
 1762SOL    HW2 7121   1.568   0.534   3.102  0.2093 -0.1707  0.7844
 1762SOL    HW3 7122   1.574   0.456   2.972  0.0141  1.0289  0.0433
 1762SOL    MW4 7123   1.585   0.460   3.058 -0.1217  0.1455  0.1097
 1763SOL     OW 7124   1.545   0.744   3.087 -0.1532 -0.2434  0.1735
 1763SOL    HW2 7125   1.547   0.771   3.179 -0.3174  0.9142 -0.1578
 1763SOL    HW3 7126   1.471   0.791   3.049  0.2052 -0.3374 -0.6641
 1763SOL    MW4 7127   1.535   0.754   3.094 -0.1277 -0.1031  0.0191
 1764SOL     OW 7128   1.313   0.907   3.024 -0.3273 -0.2485 -0.4584
 1764SOL    HW2 7129   1.321   0.988   3.073 -0.0737 -0.2681 -0.4674
 1764SOL    HW3 7130   1.229   0.870   3.051  0.1487 -0.6337  0.5163
 1764SOL    MW4 7131   1.303   0.913   3.034 -0.2310 -0.3020 -0.3309
 1765SOL     OW 7132   1.365   1.164   3.126 -0.0541  0.3226 -0.3963
 1765SOL    HW2 7133   1.378   1.169   3.221  1.5793 -0.1129 -0.5803
 1765SOL    HW3 7134   1.444   1.203   3.089  0.7366 -2.3188 -1.5984
 1765SOL    MW4 7135   1.377   1.170   3.134  0.2658 -0.0834 -0.5794
 1766SOL     OW 7136   1.580   1.286   3.030  0.5494  0.4070 -0.0632
 1766SOL    HW2 7137   1.662   1.238   3.043  0.5995  0.7806  1.1350
 1766SOL    HW3 7138   1.593   1.368   3.079 -0.3466  0.6941 -0.2942
 1766SOL    MW4 7139   1.593   1.291   3.038  0.4377  0.4942  0.0644
 1767SOL     OW 7140   1.602   1.557   3.125 -0.0068 -0.1176 -0.2572
 1767SOL    HW2 7141   1.672   1.619   3.105  0.3162 -0.0953  0.8995
 1767SOL    HW3 7142   1.522   1.601   3.096  0.0819  1.3804  1.6397
 1767SOL    MW4 7143   1.600   1.571   3.119  0.0478  0.0831  0.1457
 1768SOL     OW 7144   1.367   1.685   3.063 -0.8411 -0.3934 -0.0095
 1768SOL    HW2 7145   1.365   1.776   3.095  2.4112 -0.2563 -0.1013
 1768SOL    HW3 7146   1.370   1.693   2.968 -1.8894 -0.6672 -0.0804
 1768SOL    MW4 7147   1.367   1.698   3.055 -0.5502 -0.4116 -0.0310
 1769SOL     OW 7148   1.358   1.936   3.142  0.3615  0.1696  0.0816
 1769SOL    HW2 7149   1.346   1.923   3.236 -1.5677 -0.1804 -0.2071
 1769SOL    HW3 7150   1.276   1.974   3.112  0.5218 -0.8245 -1.6779
 1769SOL    MW4 7151   1.346   1.939   3.151  0.1280 -0.0076 -0.1886
 1770SOL     OW 7152   1.581   2.050   3.023 -0.1140 -0.4029 -0.2711
 1770SOL    HW2 7153   1.505   1.998   3.051 -1.1030  0.1382 -1.8914
 1770SOL    HW3 7154   1.577   2.049   2.927  0.8167  1.2558 -0.3468
 1770SOL    MW4 7155   1.570   2.043   3.014 -0.1216 -0.1128 -0.4947
 1771SOL     OW 7156   1.588   2.314   3.134  0.4967 -0.0778  0.3814
 1771SOL    HW2 7157   1.506   2.358   3.111 -0.1420 -0.4108  1.9481
 1771SOL    HW3 7158   1.578   2.225   3.102  0.8153  0.2542 -0.6568
 1771SOL    MW4 7159   1.576   2.308   3.127  0.4544 -0.0777  0.4511
 1772SOL     OW 7160   1.384   2.470   3.047  0.1328 -0.1547  0.2224
 1772SOL    HW2 7161   1.308   2.416   3.068  0.4080 -0.0805  1.4675
 1772SOL    HW3 7162   1.381   2.479   2.952 -1.0777 -0.6424  0.1974
 1772SOL    MW4 7163   1.374   2.464   3.037  0.0093 -0.2093  0.3834
 1773SOL     OW 7164   1.369   2.735   3.135  0.5444 -0.3227 -0.0859
 1773SOL    HW2 7165   1.377   2.643   3.109  0.6294 -0.2008 -0.5032
 1773SOL    HW3 7166   1.287   2.763   3.095  0.0071 -0.4928  0.8887
 1773SOL    MW4 7167   1.359   2.726   3.126  0.4847 -0.3290 -0.0122
 1774SOL     OW 7168   1.581   2.825   2.983  0.1963  0.3050 -0.1689
 1774SOL    HW2 7169   1.658   2.783   3.022  0.2119  0.9606  0.5187
 1774SOL    HW3 7170   1.508   2.799   3.039 -0.4791 -2.2136 -2.1528
 1774SOL    MW4 7171   1.582   2.816   2.996  0.1092  0.0594 -0.3400
 1775SOL     OW 7172   1.568   3.118   3.122 -0.7791 -0.3264 -0.2439
 1775SOL    HW2 7173   1.575   3.110   3.217  1.5717 -0.2326 -0.3781
 1775SOL    HW3 7174   1.574   3.028   3.090 -1.4661 -0.3484 -0.3222
 1775SOL    MW4 7175   1.570   3.105   3.130 -0.5596 -0.3169 -0.2720
 1776SOL     OW 7176   1.342   3.218   3.031 -0.0251  0.1135  0.0676
 1776SOL    HW2 7177   1.423   3.183   3.068 -0.1596 -1.6714 -1.2693
 1776SOL    HW3 7178   1.359   3.224   2.937 -0.8931  1.2657 -0.0228
 1776SOL    MW4 7179   1.355   3.214   3.024 -0.1574  0.0303 -0.1206
 1777SOL     OW 7180   1.296   3.464   3.145 -0.1327  0.1496  0.0360
 1777SOL    HW2 7181   1.314   3.463   3.239  0.8458  0.3883 -0.1458
 1777SOL    HW3 7182   1.291   3.371   3.121 -2.1209  0.0893  0.6428
 1777SOL    MW4 7183   1.298   3.451   3.154 -0.2660  0.1733  0.0920
 1778SOL     OW 7184   1.510   3.615   3.020 -0.4013  0.0981 -0.4814
 1778SOL    HW2 7185   1.444   3.551   3.048  0.9984 -0.9669  0.4231
 1778SOL    HW3 7186   1.520   3.599   2.926  0.1799 -1.2266 -0.1921
 1778SOL    MW4 7187   1.502   3.605   3.011 -0.1398 -0.2170 -0.3238
 1779SOL     OW 7188   1.546   3.881   3.121  0.3295  0.1219 -0.4065
 1779SOL    HW2 7189   1.627   3.912   3.080 -0.5591  0.7058 -1.7696
 1779SOL    HW3 7190   1.533   3.793   3.085  1.3989 -0.7852  1.3570
 1779SOL    MW4 7191   1.555   3.873   3.111  0.3533  0.0792 -0.3533
 1780SOL     OW 7192   1.349   4.027   2.998  0.2036  0.4921  0.2534
 1780SOL    HW2 7193   1.417   3.973   3.039 -0.1009  2.2719  3.1801
 1780SOL    HW3 7194   1.267   3.987   3.026 -0.0062  1.5400  1.1460
 1780SOL    MW4 7195   1.347   4.014   3.007  0.1357  0.8655  0.7575
 1781SOL     OW 7196   1.349   4.302   3.114 -0.4909  0.3661 -0.0095
 1781SOL    HW2 7197   1.343   4.208   3.096 -2.0777  0.2605  0.9658
 1781SOL    HW3 7198   1.275   4.340   3.067  1.2401  1.4007 -1.9680
 1781SOL    MW4 7199   1.338   4.294   3.106 -0.4718  0.4888 -0.1392
 1782SOL     OW 7200   1.547   4.409   2.959  0.0822  0.0855  0.6412
 1782SOL    HW2 7201   1.481   4.372   3.017  0.4762  0.2065  1.1726
 1782SOL    HW3 7202   1.573   4.491   3.002  1.3801 -0.5111  1.0099
 1782SOL    MW4 7203   1.542   4.415   2.972  0.3054  0.0224  0.7601
 1783SOL     OW 7204   2.061   4.611   3.122  0.1673  0.1542 -0.3037
 1783SOL    HW2 7205   2.060   4.609   3.217  0.2907  1.1035 -0.2802
 1783SOL    HW3 7206   1.980   4.655   3.097 -1.4028 -2.8072 -0.7388
 1783SOL    MW4 7207   2.050   4.616   3.131 -0.0238 -0.1111 -0.3581
 1784SOL     OW 7208   1.837   0.067   3.001 -0.6202 -0.0558 -0.5155
 1784SOL    HW2 7209   1.752   0.035   3.033 -0.7948  0.5483 -0.3810
 1784SOL    HW3 7210   1.830   0.062   2.906 -0.7430 -0.1610 -0.5025
 1784SOL    MW4 7211   1.825   0.062   2.993 -0.6595  0.0100 -0.4959
 1785SOL     OW 7212   1.838   0.305   3.144 -0.1671  0.0465  0.0803
 1785SOL    HW2 7213   1.837   0.229   3.086  0.9054  0.2514 -0.2340
 1785SOL    HW3 7214   1.758   0.353   3.122  0.0001 -0.1120 -0.9315
 1785SOL    MW4 7215   1.828   0.301   3.133 -0.0035  0.0526 -0.0949
 1786SOL     OW 7216   2.037   0.524   3.042 -0.1643  0.1429  0.0890
 1786SOL    HW2 7217   1.980   0.451   3.066  1.2213 -0.7358  0.7436
 1786SOL    HW3 7218   2.048   0.515   2.947 -0.4029 -0.1900  0.0915
 1786SOL    MW4 7219   2.031   0.513   3.033 -0.0131 -0.0170  0.1760
 1787SOL     OW 7220   2.039   0.800   3.141  0.0799  0.0487  0.3403
 1787SOL    HW2 7221   1.946   0.824   3.140  0.4149  1.3720 -0.5161
 1787SOL    HW3 7222   2.040   0.706   3.121 -1.0607  0.0634  0.2080
 1787SOL    MW4 7223   2.027   0.791   3.138 -0.0262  0.2252  0.2096
 1788SOL     OW 7224   1.789   0.899   3.083  0.3093 -0.5307  0.2267
 1788SOL    HW2 7225   1.720   0.833   3.080 -0.1321 -0.1063  0.9403
 1788SOL    HW3 7226   1.838   0.886   3.002 -0.9055 -0.5162 -0.5304
 1788SOL    MW4 7227   1.786   0.889   3.072  0.0908 -0.4728  0.2210
 1789SOL     OW 7228   1.808   1.172   3.129 -0.1479  0.1504 -0.0260
 1789SOL    HW2 7229   1.793   1.181   3.223 -0.7561  1.5674 -0.2492
 1789SOL    HW3 7230   1.808   1.077   3.114  1.7085 -0.1348  1.6637
 1789SOL    MW4 7231   1.806   1.160   3.139  0.0166  0.2996  0.1678
 1790SOL     OW 7232   2.047   1.291   2.996  0.1985  0.3250  0.1809
 1790SOL    HW2 7233   2.118   1.241   3.038 -0.1773  0.3078  0.7997
 1790SOL    HW3 7234   1.967   1.250   3.028 -0.1198  1.4984  0.9163
 1790SOL    MW4 7235   2.046   1.279   3.006  0.1068  0.4777  0.3593
 1791SOL     OW 7236   2.037   1.551   3.108 -0.1511 -0.2106  0.4700
 1791SOL    HW2 7237   2.038   1.544   3.203 -2.1491 -0.3139  0.5105
 1791SOL    HW3 7238   2.049   1.461   3.077 -0.0209 -0.2498  0.6331
 1791SOL    MW4 7239   2.039   1.538   3.116 -0.3974 -0.2295  0.4969
 1792SOL     OW 7240   1.813   1.704   3.051 -0.0970  0.2848 -0.0896
 1792SOL    HW2 7241   1.831   1.794   3.079 -0.0247  0.4435 -0.6535
 1792SOL    HW3 7242   1.890   1.655   3.078 -1.0034 -0.0191  2.0899
 1792SOL    MW4 7243   1.825   1.710   3.058 -0.2071  0.2655  0.1235
 1793SOL     OW 7244   1.819   1.962   3.134  0.2422 -0.2582 -0.0924
 1793SOL    HW2 7245   1.891   2.012   3.095 -0.3962  1.1584  0.5296
 1793SOL    HW3 7246   1.740   1.998   3.093 -0.2111 -0.8765  0.2373
 1793SOL    MW4 7247   1.818   1.973   3.123  0.0983 -0.1529  0.0331
 1794SOL     OW 7248   2.039   2.094   3.021  0.2014 -0.2175  0.0383
 1794SOL    HW2 7249   2.114   2.054   3.066  0.3865 -0.4359 -0.4600
 1794SOL    HW3 7250   2.028   2.179   3.064  0.2122 -0.5298  0.6704
 1794SOL    MW4 7251   2.047   2.100   3.033  0.2272 -0.2873  0.0563
 1795SOL     OW 7252   2.010   2.330   3.135  0.1787 -0.0943  0.1699
 1795SOL    HW2 7253   2.089   2.370   3.098 -0.2515  0.7366  0.1468
 1795SOL    HW3 7254   1.938   2.371   3.088 -0.2503 -1.7177 -0.6555
 1795SOL    MW4 7255   2.011   2.341   3.124  0.0651 -0.1988  0.0577
 1796SOL     OW 7256   1.786   2.455   3.015  0.1042 -0.0763  0.5186
 1796SOL    HW2 7257   1.791   2.544   3.051 -0.8257  0.3351 -0.3489
 1796SOL    HW3 7258   1.714   2.414   3.062 -0.6794  0.2453 -0.3880
 1796SOL    MW4 7259   1.777   2.461   3.026 -0.1218  0.0203  0.2847
 1797SOL     OW 7260   1.800   2.717   3.109  0.3514 -0.0841 -0.2972
 1797SOL    HW2 7261   1.812   2.722   3.204  0.4155  0.6326 -0.3340
 1797SOL    HW3 7262   1.875   2.764   3.073  0.8296 -1.1723 -0.7402
 1797SOL    MW4 7263   1.811   2.724   3.117  0.4230 -0.1330 -0.3605
 1798SOL     OW 7264   2.013   2.848   2.984  0.0417  0.2998  0.7480
 1798SOL    HW2 7265   2.023   2.938   3.015  0.8241  0.2095  0.7673
 1798SOL    HW3 7266   1.988   2.858   2.892 -0.8169  0.5468  1.0062
 1798SOL    MW4 7267   2.011   2.861   2.976  0.0315  0.3204  0.7849
 1799SOL     OW 7268   2.016   3.093   3.107 -0.3080 -0.0151 -0.1992
 1799SOL    HW2 7269   2.017   3.074   3.200  1.3774  1.2084  0.0450
 1799SOL    HW3 7270   1.949   3.161   3.097 -0.0833  0.2663  0.2043
 1799SOL    MW4 7271   2.007   3.100   3.118 -0.0560  0.1836 -0.1137
 1800SOL     OW 7272   1.820   3.258   3.027 -0.0509  0.6130  0.1218
 1800SOL    HW2 7273   1.744   3.210   3.060  0.3330  0.2059  0.4202
 1800SOL    HW3 7274   1.809   3.259   2.932 -1.1361  1.7345  0.2411
 1800SOL    MW4 7275   1.809   3.252   3.019 -0.1434  0.7071  0.1769
 1801SOL     OW 7276   1.777   3.537   3.106  0.4231 -0.6285 -0.1579
 1801SOL    HW2 7277   1.790   3.446   3.081  1.4151 -0.6363  0.3388
 1801SOL    HW3 7278   1.688   3.558   3.077  0.5189 -1.4727 -1.0869
 1801SOL    MW4 7279   1.767   3.528   3.099  0.5666 -0.7410 -0.2151
 1802SOL     OW 7280   2.026   3.645   2.989 -0.1890  0.2760  0.4639
 1802SOL    HW2 7281   2.030   3.718   3.050 -0.9122  2.1566 -1.6727
 1802SOL    HW3 7282   1.950   3.594   3.017  1.2910 -0.6042  2.9644
 1802SOL    MW4 7283   2.016   3.648   3.000 -0.0892  0.4079  0.5119
 1803SOL     OW 7284   2.026   3.877   3.124  0.4347  0.2835  0.2500
 1803SOL    HW2 7285   2.015   3.851   3.216  0.6190 -2.5451 -0.4852
 1803SOL    HW3 7286   1.937   3.901   3.096  0.2033  0.2189  0.9110
 1803SOL    MW4 7287   2.013   3.876   3.133  0.4287 -0.0985  0.2401
 1804SOL     OW 7288   1.773   3.974   3.014 -0.1284 -0.1091 -0.0196
 1804SOL    HW2 7289   1.766   4.064   3.045 -0.4991 -0.3101  0.4800
 1804SOL    HW3 7290   1.778   3.981   2.919  0.1240  0.4530  0.0354
 1804SOL    MW4 7291   1.773   3.986   3.006 -0.1440 -0.0613  0.0536
 1805SOL     OW 7292   1.777   4.252   3.105 -0.1625 -0.8059 -0.0122
 1805SOL    HW2 7293   1.847   4.296   3.056 -1.1353 -0.3721 -1.0497
 1805SOL    HW3 7294   1.700   4.306   3.088 -0.9212 -1.7495  0.4371
 1805SOL    MW4 7295   1.776   4.265   3.096 -0.3910 -0.8731 -0.0899
 1806SOL     OW 7296   2.030   4.335   2.977 -0.0453  0.1818  0.7950
 1806SOL    HW2 7297   2.039   4.421   3.018 -1.3852  1.2460 -1.0844
 1806SOL    HW3 7298   2.028   4.353   2.883  1.1513 -2.0502  0.3115
 1806SOL    MW4 7299   2.031   4.349   2.970 -0.0639  0.0277  0.4835
 1807SOL     OW 7300   2.464   0.003   3.100  0.0147  0.1755  0.1480
 1807SOL    HW2 7301   2.438  -0.087   3.080 -0.1721  0.5636 -1.3760
 1807SOL    HW3 7302   2.383   0.053   3.096  0.0933  0.3971  1.1493
 1807SOL    MW4 7303   2.450  -0.002   3.097  0.0005  0.2565  0.0792
 1808SOL     OW 7304   2.226   0.116   3.008  0.4910 -0.0595 -0.2074
 1808SOL    HW2 7305   2.247   0.199   3.051  0.4478 -0.3904  0.4626
 1808SOL    HW3 7306   2.158   0.077   3.064  0.9933 -0.8576 -0.1378
 1808SOL    MW4 7307   2.220   0.122   3.021  0.5515 -0.2085 -0.1097
 1809SOL     OW 7308   2.266   0.365   3.118 -0.1467  0.2859 -0.4164
 1809SOL    HW2 7309   2.262   0.352   3.213  2.0395  1.1861 -0.1628
 1809SOL    HW3 7310   2.190   0.419   3.098 -0.2075  0.7440  0.9571
 1809SOL    MW4 7311   2.255   0.370   3.128  0.1335  0.4651 -0.2015
 1810SOL     OW 7312   2.468   0.540   3.035 -0.5151 -0.1659 -0.7571
 1810SOL    HW2 7313   2.404   0.475   3.061 -0.5929  0.3431  0.3823
 1810SOL    HW3 7314   2.468   0.538   2.940 -2.9040  0.5008 -0.7900
 1810SOL    MW4 7315   2.460   0.531   3.026 -0.8407 -0.0107 -0.6108
 1811SOL     OW 7316   2.466   0.797   3.117 -0.0369 -0.2852  0.0067
 1811SOL    HW2 7317   2.548   0.838   3.091 -0.0443 -0.2797 -0.0082
 1811SOL    HW3 7318   2.480   0.703   3.104 -0.5374 -0.1783 -1.4222
 1811SOL    MW4 7319   2.478   0.790   3.112 -0.1037 -0.2704 -0.1838
 1812SOL     OW 7320   2.248   0.925   2.994  0.0873 -0.1192  0.4588
 1812SOL    HW2 7321   2.321   0.884   3.039 -0.7451 -2.0215  0.1054
 1812SOL    HW3 7322   2.170   0.884   3.031 -0.7472  0.7844 -0.2573
 1812SOL    MW4 7323   2.247   0.914   3.004 -0.1326 -0.2509  0.3173
 1813SOL     OW 7324   2.295   1.182   3.123  0.4478  0.1390 -0.1494
 1813SOL    HW2 7325   2.286   1.168   3.218 -0.3814  0.9554 -0.0936
 1813SOL    HW3 7326   2.316   1.096   3.088  0.8461 -0.1573  0.7922
 1813SOL    MW4 7327   2.296   1.169   3.131  0.3908  0.2077 -0.0179
 1814SOL     OW 7328   2.507   1.319   3.012  0.8252  0.5102  0.1912
 1814SOL    HW2 7329   2.435   1.285   3.066  1.3023 -0.9640 -0.0777
 1814SOL    HW3 7330   2.482   1.296   2.922  1.6625 -0.0925  0.1051
 1814SOL    MW4 7331   2.494   1.311   3.007  0.9987  0.2363  0.1445
 1815SOL     OW 7332   2.455   1.568   3.134  0.2240 -0.2282  0.4803
 1815SOL    HW2 7333   2.386   1.611   3.085  0.5498  0.5138  0.6741
 1815SOL    HW3 7334   2.466   1.483   3.091 -0.9391 -0.4298  0.5697
 1815SOL    MW4 7335   2.447   1.562   3.122  0.1132 -0.1569  0.5176
 1816SOL     OW 7336   2.248   1.676   2.967 -0.4862 -0.1971  0.8885
 1816SOL    HW2 7337   2.163   1.640   2.994 -0.2763 -1.7036 -0.3754
 1816SOL    HW3 7338   2.248   1.667   2.872  0.6402  0.8529  0.7799
 1816SOL    MW4 7339   2.237   1.670   2.958 -0.3097 -0.2574  0.7076
 1817SOL     OW 7340   2.240   1.928   3.110  0.1155 -0.3270 -0.4721
 1817SOL    HW2 7341   2.321   1.974   3.090  1.0986 -1.1085  1.6623
 1817SOL    HW3 7342   2.243   1.848   3.057 -0.6404  0.9994 -2.5974
 1817SOL    MW4 7343   2.251   1.923   3.100  0.1452 -0.2551 -0.4706
 1818SOL     OW 7344   2.479   2.081   3.021  0.1627 -0.2968  0.1109
 1818SOL    HW2 7345   2.557   2.033   3.051 -1.2100 -2.8253 -0.2371
 1818SOL    HW3 7346   2.476   2.065   2.927 -0.0745  0.8771 -0.0856
 1818SOL    MW4 7347   2.489   2.073   3.012 -0.0496 -0.4756  0.0393
 1819SOL     OW 7348   2.479   2.348   3.112 -0.1393 -0.3075 -0.0099
 1819SOL    HW2 7349   2.460   2.360   3.206  1.4082 -0.0367  0.2795
 1819SOL    HW3 7350   2.454   2.257   3.094 -0.7704 -0.2582  0.5794
 1819SOL    MW4 7351   2.473   2.338   3.122 -0.0184 -0.2656  0.1061
 1820SOL     OW 7352   2.233   2.425   3.004 -0.1320 -0.4051  0.0979
 1820SOL    HW2 7353   2.232   2.516   3.034  0.7728 -0.4936  0.4082
 1820SOL    HW3 7354   2.315   2.389   3.038  0.2548 -0.9040 -1.3298
 1820SOL    MW4 7355   2.243   2.432   3.013  0.0381 -0.4826 -0.0496
 1821SOL     OW 7356   2.220   2.680   3.113  0.1722  0.1523 -0.1683
 1821SOL    HW2 7357   2.291   2.722   3.064  0.4116  0.0735  0.1085
 1821SOL    HW3 7358   2.144   2.736   3.099  0.3752  0.4238 -0.1810
 1821SOL    MW4 7359   2.219   2.693   3.104  0.2303  0.1776 -0.1333
 1822SOL     OW 7360   2.430   2.845   3.008 -0.3300 -0.0807 -0.2970
 1822SOL    HW2 7361   2.421   2.938   3.026  0.4490  0.4816 -2.6862
 1822SOL    HW3 7362   2.429   2.838   2.913  0.2051 -2.4502 -0.1652
 1822SOL    MW4 7363   2.429   2.856   2.998 -0.1564 -0.3192 -0.5949
 1823SOL     OW 7364   2.467   3.109   3.091 -0.2734  0.3005 -0.1708
 1823SOL    HW2 7365   2.485   3.122   3.184  0.1620 -0.9397 -0.0763
 1823SOL    HW3 7366   2.390   3.164   3.074 -1.3778 -0.7472  1.3005
 1823SOL    MW4 7367   2.459   3.118   3.101 -0.3619 -0.0014  0.0358
 1824SOL     OW 7368   2.228   3.235   3.017 -0.3952  0.1584 -0.3318
 1824SOL    HW2 7369   2.229   3.312   3.075 -1.3884  0.4251 -0.6688
 1824SOL    HW3 7370   2.148   3.189   3.041 -0.8260  0.2869 -1.5316
 1824SOL    MW4 7371   2.218   3.239   3.028 -0.5829  0.2105 -0.5343
 1825SOL     OW 7372   2.242   3.492   3.141 -0.6199  0.4093 -0.1751
 1825SOL    HW2 7373   2.318   3.532   3.099  0.0677 -2.2340 -1.6297
 1825SOL    HW3 7374   2.166   3.527   3.094 -0.1159  1.0391 -0.5147
 1825SOL    MW4 7375   2.242   3.502   3.129 -0.4628  0.1440 -0.4117
 1826SOL     OW 7376   2.465   3.607   3.013  0.1283 -0.2968 -0.3830
 1826SOL    HW2 7377   2.547   3.560   3.029 -0.0921 -0.6503 -0.2882
 1826SOL    HW3 7378   2.482   3.695   3.045 -0.4443 -1.1049  2.2745
 1826SOL    MW4 7379   2.478   3.612   3.020  0.0236 -0.4501 -0.0198
 1827SOL     OW 7380   2.486   3.870   3.079 -0.2739  0.4567 -0.4562
 1827SOL    HW2 7381   2.485   3.860   3.175  2.2795 -0.6802 -0.5150
 1827SOL    HW3 7382   2.543   3.946   3.064  1.0369 -0.6450 -1.1426
 1827SOL    MW4 7383   2.494   3.879   3.090  0.2358  0.1612 -0.5546
 1828SOL     OW 7384   2.245   3.956   2.970 -0.2034 -0.6441 -0.2196
 1828SOL    HW2 7385   2.317   3.902   3.002 -0.2545 -1.6039 -1.6734
 1828SOL    HW3 7386   2.168   3.926   3.018 -0.0864 -1.3275 -0.4596
 1828SOL    MW4 7387   2.244   3.945   2.980 -0.1948 -0.8612 -0.4430
 1829SOL     OW 7388   2.272   4.207   3.056  0.1110  0.1005  0.2727
 1829SOL    HW2 7389   2.263   4.116   3.028 -0.2351  0.0009  0.7010
 1829SOL    HW3 7390   2.188   4.248   3.036  0.6049  0.5940 -0.8613
 1829SOL    MW4 7391   2.260   4.201   3.050  0.1304  0.1526  0.1798
 1830SOL     OW 7392   2.442   4.411   3.009 -0.0128 -0.0372  0.1268
 1830SOL    HW2 7393   2.372   4.348   3.029  0.1378 -0.0091  0.7432
 1830SOL    HW3 7394   2.439   4.420   2.914 -1.7863  1.0188  0.2467
 1830SOL    MW4 7395   2.432   4.404   2.999 -0.2267  0.1059  0.2239
 1831SOL     OW 7396   2.898   0.004   3.108  0.2242  0.3912 -0.5452
 1831SOL    HW2 7397   2.981   0.049   3.091  0.2815 -0.4304 -2.4614
 1831SOL    HW3 7398   2.910  -0.085   3.076 -0.5260 -0.5235  1.5677
 1831SOL    MW4 7399   2.910  -0.002   3.102  0.1328  0.1616 -0.5193
 1832SOL     OW 7400   2.688   0.143   3.005 -0.2401 -0.2311 -0.1211
 1832SOL    HW2 7401   2.757   0.087   3.041 -0.7708 -0.8785 -0.1126
 1832SOL    HW3 7402   2.607   0.093   3.016 -0.7797  0.7086  0.2724
 1832SOL    MW4 7403   2.686   0.129   3.011 -0.3812 -0.1925 -0.0682
 1833SOL     OW 7404   2.694   0.412   3.117 -0.1581  0.2342 -0.0791
 1833SOL    HW2 7405   2.683   0.321   3.087 -1.1886  0.0223  0.9326
 1833SOL    HW3 7406   2.620   0.459   3.078 -1.1417  0.0869  1.5872
 1833SOL    MW4 7407   2.683   0.406   3.108 -0.4237  0.1868  0.2742
 1834SOL     OW 7408   2.953   0.526   3.048 -0.0523  0.2375 -0.0847
 1834SOL    HW2 7409   2.867   0.497   3.079 -0.5939  1.6590 -0.2065
 1834SOL    HW3 7410   2.945   0.526   2.952  1.1388 -2.7239 -0.2137
 1834SOL    MW4 7411   2.940   0.522   3.039  0.0336  0.0343 -0.1175
 1835SOL     OW 7412   2.980   0.793   3.100 -0.2591  0.4733  0.5685
 1835SOL    HW2 7413   2.981   0.781   3.195  0.1681  0.1190  0.5225
 1835SOL    HW3 7414   2.970   0.704   3.066  0.5989  0.4919  0.2633
 1835SOL    MW4 7415   2.979   0.780   3.108 -0.0899  0.4290  0.5221
 1836SOL     OW 7416   2.714   0.901   3.027  0.0557 -0.0714  0.2615
 1836SOL    HW2 7417   2.711   0.992   3.058  0.9323  0.1260 -0.1928
 1836SOL    HW3 7418   2.796   0.867   3.063  0.5762 -0.1511 -0.9544
 1836SOL    MW4 7419   2.724   0.909   3.035  0.2398 -0.0559  0.0410
 1837SOL     OW 7420   2.722   1.166   3.092  0.3496 -0.1130 -0.3838
 1837SOL    HW2 7421   2.806   1.201   3.061  0.4268 -0.7734 -0.9229
 1837SOL    HW3 7422   2.658   1.233   3.068  0.5534 -0.1501 -1.0387
 1837SOL    MW4 7423   2.725   1.180   3.085  0.3867 -0.2049 -0.5417
 1838SOL     OW 7424   2.935   1.288   2.967  0.3932  0.2661  0.3076
 1838SOL    HW2 7425   3.020   1.258   3.001  0.0766 -0.2317  0.6635
 1838SOL    HW3 7426   2.920   1.371   3.012  0.8003  0.4693  0.0713
 1838SOL    MW4 7427   2.945   1.295   2.977  0.4051  0.2271  0.3235
 1839SOL     OW 7428   2.904   1.541   3.091  0.3301  0.1197  0.0997
 1839SOL    HW2 7429   2.917   1.535   3.185 -0.9977  1.5305  0.4026
 1839SOL    HW3 7430   2.970   1.603   3.061  1.7943 -1.5494 -0.1508
 1839SOL    MW4 7431   2.914   1.549   3.099  0.3481  0.0857  0.1066
 1840SOL     OW 7432   2.686   1.649   2.975 -0.2345  0.2342  0.2424
 1840SOL    HW2 7433   2.755   1.604   3.023  0.0132  0.8776  0.4885
 1840SOL    HW3 7434   2.606   1.632   3.026 -0.2423 -0.4037  0.0234
 1840SOL    MW4 7435   2.684   1.641   2.988 -0.2027  0.2350  0.2458
 1841SOL     OW 7436   2.689   1.909   3.119  0.5153  0.0365  0.3481
 1841SOL    HW2 7437   2.767   1.957   3.091  1.1217 -0.8378  0.5183
 1841SOL    HW3 7438   2.707   1.818   3.094 -0.9215 -0.0004 -0.6266
 1841SOL    MW4 7439   2.701   1.903   3.112  0.4060 -0.0836  0.2422
 1842SOL     OW 7440   2.900   2.049   3.003  0.3149  0.3872 -0.5202
 1842SOL    HW2 7441   2.894   2.142   3.025 -0.6120  0.4271 -0.9361
 1842SOL    HW3 7442   2.900   2.046   2.908  0.3806 -0.0387 -0.5090
 1842SOL    MW4 7443   2.899   2.061   2.994  0.2015  0.3362 -0.5739
 1843SOL     OW 7444   2.904   2.298   3.104  0.1673 -0.2442 -0.4841
 1843SOL    HW2 7445   2.983   2.350   3.089  0.2095 -0.2730 -0.3614
 1843SOL    HW3 7446   2.833   2.354   3.073  0.2536 -0.3074 -0.8026
 1843SOL    MW4 7447   2.905   2.312   3.098  0.1843 -0.2563 -0.5100
 1844SOL     OW 7448   2.702   2.470   3.013  0.3575 -0.1576  0.2741
 1844SOL    HW2 7449   2.684   2.559   3.043 -0.1481 -0.1254 -0.1223
 1844SOL    HW3 7450   2.630   2.418   3.047  0.5263 -0.3728  0.3034
 1844SOL    MW4 7451   2.690   2.475   3.021  0.3130 -0.1817  0.2255
 1845SOL     OW 7452   2.697   2.758   3.106  0.1975 -0.1069 -0.1749
 1845SOL    HW2 7453   2.683   2.769   3.200 -1.8060 -1.4370 -0.2764
 1845SOL    HW3 7454   2.617   2.792   3.066  0.3476 -1.0329 -1.2891
 1845SOL    MW4 7455   2.684   2.764   3.113 -0.0472 -0.4046 -0.3352
 1846SOL     OW 7456   2.929   2.856   2.982  0.2764 -0.2969 -0.3388
 1846SOL    HW2 7457   3.001   2.805   3.019 -0.5028  0.0058  1.7126
 1846SOL    HW3 7458   2.850   2.811   3.014 -0.4310  0.2004 -1.3718
 1846SOL    MW4 7459   2.928   2.843   2.991  0.0803 -0.1912 -0.2043
 1847SOL     OW 7460   2.931   3.106   3.099 -0.4697 -0.2313 -0.2792
 1847SOL    HW2 7461   2.851   3.149   3.070 -0.7395 -0.8184 -0.4203
 1847SOL    HW3 7462   2.924   3.017   3.065 -0.1729 -0.5437  0.4614
 1847SOL    MW4 7463   2.920   3.100   3.090 -0.4661 -0.3500 -0.2000
 1848SOL     OW 7464   2.711   3.207   2.975  0.2904 -0.3707  0.3159
 1848SOL    HW2 7465   2.695   3.298   3.000  2.0575 -0.5064  2.0238
 1848SOL    HW3 7466   2.630   3.161   2.999  0.4260  0.2515  1.9948
 1848SOL    MW4 7467   2.698   3.213   2.982  0.5414 -0.3066  0.7627
 1849SOL     OW 7468   2.687   3.466   3.065 -0.3644  0.0229 -0.1441
 1849SOL    HW2 7469   2.682   3.445   3.158  0.5734  0.2506 -0.0392
 1849SOL    HW3 7470   2.762   3.525   3.058 -1.0364  0.7991 -0.9029
 1849SOL    MW4 7471   2.696   3.471   3.076 -0.3293  0.1554 -0.2306
 1850SOL     OW 7472   2.904   3.645   3.013  0.0019 -0.6102 -0.2652
 1850SOL    HW2 7473   2.976   3.594   3.051  0.4004  1.2378  1.5181
 1850SOL    HW3 7474   2.904   3.727   3.061 -2.4371 -0.0171 -1.1951
 1850SOL    MW4 7475   2.913   3.649   3.024 -0.2673 -0.2882 -0.1528
 1851SOL     OW 7476   2.901   3.877   3.151  0.5479  0.1581  0.8756
 1851SOL    HW2 7477   2.904   3.881   3.246  1.0238 -0.0617  0.8723
 1851SOL    HW3 7478   2.827   3.931   3.127  0.0249 -0.3172  1.4096
 1851SOL    MW4 7479   2.892   3.885   3.160  0.5417  0.0665  0.9456
 1852SOL     OW 7480   2.712   4.038   3.013  0.1051  0.3925  0.2589
 1852SOL    HW2 7481   2.704   4.133   3.020 -0.8673  0.3016  0.4226
 1852SOL    HW3 7482   2.724   4.022   2.919 -1.6956  0.5376 -0.0049
 1852SOL    MW4 7483   2.713   4.048   3.002 -0.2606  0.3996  0.2458
 1853SOL     OW 7484   2.696   4.311   3.078  0.0182  0.0666 -0.3462
 1853SOL    HW2 7485   2.691   4.298   3.173 -1.4366  0.1194 -0.4044
 1853SOL    HW3 7486   2.611   4.347   3.055  0.3007 -0.1379 -1.7141
 1853SOL    MW4 7487   2.684   4.314   3.088 -0.1364  0.0463 -0.5345
 1854SOL     OW 7488   2.946   4.422   3.018 -0.2177 -0.3032 -0.1901
 1854SOL    HW2 7489   3.020   4.380   3.063 -0.2740  0.2006  0.3801
 1854SOL    HW3 7490   2.871   4.366   3.037 -0.0741 -0.5612 -0.3802
 1854SOL    MW4 7491   2.946   4.409   3.026 -0.2065 -0.2704 -0.1402
 1855SOL     OW 7492   3.360   4.665   3.118 -0.0560 -0.3284 -0.6415
 1855SOL    HW2 7493   3.441   4.704   3.083  0.2460 -0.0732  0.3323
 1855SOL    HW3 7494   3.357   4.578   3.080  1.7305 -1.0857  0.9061
 1855SOL    MW4 7495   3.371   4.659   3.108  0.2196 -0.3943 -0.3088
 1856SOL     OW 7496   3.142   0.128   3.026 -0.0351  0.0117  0.0153
 1856SOL    HW2 7497   3.147   0.212   3.072 -0.0722 -0.2175  0.4388
 1856SOL    HW3 7498   3.217   0.078   3.058  0.9520  0.5023 -1.4881
 1856SOL    MW4 7499   3.153   0.133   3.036  0.0901  0.0462 -0.1271
 1857SOL     OW 7500   3.156   0.347   3.173 -0.2384 -0.0277 -0.2480
 1857SOL    HW2 7501   3.235   0.382   3.132  0.2113 -0.5224  0.1950
 1857SOL    HW3 7502   3.088   0.411   3.153  1.0263  2.2551  2.4142
 1857SOL    MW4 7503   3.158   0.360   3.165 -0.0122  0.2082  0.1619
 1858SOL     OW 7504   3.373   0.473   3.035 -0.5577 -0.3002 -0.2244
 1858SOL    HW2 7505   3.456   0.452   3.078  0.4620  3.7342 -0.0123
 1858SOL    HW3 7506   3.394   0.482   2.943 -0.8124  0.2763 -0.2349
 1858SOL    MW4 7507   3.387   0.472   3.029 -0.4563  0.3082 -0.1979
 1859SOL     OW 7508   3.386   0.734   3.118 -0.0312 -0.8672  0.3780
 1859SOL    HW2 7509   3.405   0.738   3.212  2.0978 -1.3076 -0.0100
 1859SOL    HW3 7510   3.385   0.641   3.097  1.5223 -0.7275 -0.4059
 1859SOL    MW4 7511   3.389   0.722   3.128  0.4544 -0.9069  0.2234
 1860SOL     OW 7512   3.204   0.926   3.005 -0.1974 -0.4544 -0.1307
 1860SOL    HW2 7513   3.276   0.868   3.029 -0.4878 -0.1246  1.5985
 1860SOL    HW3 7514   3.126   0.884   3.041 -0.7371 -0.2124 -0.9779
 1860SOL    MW4 7515   3.203   0.913   3.013 -0.3071 -0.3789 -0.0143
 1861SOL     OW 7516   3.154   1.178   3.089  0.3480 -0.3928 -0.1434
 1861SOL    HW2 7517   3.226   1.229   3.051  1.2075 -0.1438  1.8019
 1861SOL    HW3 7518   3.172   1.088   3.063  1.0424 -0.2490 -0.1648
 1861SOL    MW4 7519   3.166   1.173   3.080  0.5534 -0.3409  0.1104
 1862SOL     OW 7520   3.367   1.343   2.990  0.1982 -0.3125 -0.4426
 1862SOL    HW2 7521   3.434   1.295   3.039  0.7753 -0.9501 -1.8251
 1862SOL    HW3 7522   3.381   1.435   3.015  1.0518 -0.5287 -0.0887
 1862SOL    MW4 7523   3.378   1.349   3.000  0.3867 -0.4251 -0.5784
 1863SOL     OW 7524   3.370   1.604   3.097  0.2433  0.3136 -0.4379
 1863SOL    HW2 7525   3.372   1.573   3.187 -2.8698  1.1540 -0.0167
 1863SOL    HW3 7526   3.458   1.637   3.081  1.2035 -1.0187  1.8481
 1863SOL    MW4 7527   3.382   1.604   3.107 -0.0408  0.2487 -0.0806
 1864SOL     OW 7528   3.110   1.690   3.013 -0.2614 -0.3996 -0.3083
 1864SOL    HW2 7529   3.201   1.668   3.036 -0.8140 -1.9505  0.4305
 1864SOL    HW3 7530   3.114   1.713   2.920  0.8675 -0.6109 -0.3209
 1864SOL    MW4 7531   3.123   1.690   3.003 -0.1853 -0.6322 -0.2127
 1865SOL     OW 7532   3.111   1.948   3.142  0.3253  0.6106 -0.3541
 1865SOL    HW2 7533   3.106   1.854   3.129 -0.6821  0.5786  0.2521
 1865SOL    HW3 7534   3.033   1.982   3.099 -0.6628  0.9296  1.6459
 1865SOL    MW4 7535   3.100   1.940   3.134  0.0622  0.6485 -0.0103
 1866SOL     OW 7536   3.345   2.029   2.997  0.1199 -0.2723  0.0997
 1866SOL    HW2 7537   3.420   1.993   3.045 -0.2196 -0.0618  0.7967
 1866SOL    HW3 7538   3.269   2.009   3.053 -0.1797  0.7135  0.0429
 1866SOL    MW4 7539   3.344   2.021   3.011  0.0355 -0.1144  0.1838
 1867SOL     OW 7540   3.345   2.302   3.081  0.5960  0.2448 -0.1567
 1867SOL    HW2 7541   3.364   2.302   3.175 -1.5144  0.3634  0.2839
 1867SOL    HW3 7542   3.345   2.210   3.056 -1.1229  0.0767  0.4425
 1867SOL    MW4 7543   3.348   2.290   3.090  0.0908  0.2382 -0.0196
 1868SOL     OW 7544   3.113   2.461   3.033 -0.4197  0.0878  0.0995
 1868SOL    HW2 7545   3.183   2.400   3.056 -1.9218 -1.6830  0.0409
 1868SOL    HW3 7546   3.119   2.468   2.937  0.9319  1.5093  0.2641
 1868SOL    MW4 7547   3.123   2.454   3.023 -0.4399  0.0417  0.1137
 1869SOL     OW 7548   3.134   2.725   3.091 -0.2149  0.4447 -0.0735
 1869SOL    HW2 7549   3.143   2.733   3.186 -0.8811  1.1757 -0.0578
 1869SOL    HW3 7550   3.115   2.632   3.076 -1.3507  0.5490  0.6322
 1869SOL    MW4 7551   3.132   2.714   3.102 -0.4525  0.5548  0.0217
 1870SOL     OW 7552   3.357   2.856   2.992 -0.4387 -0.5412  0.2705
 1870SOL    HW2 7553   3.365   2.940   3.038  0.6879 -0.7434  0.4585
 1870SOL    HW3 7554   3.293   2.807   3.043 -1.3889  0.3527 -0.0602
 1870SOL    MW4 7555   3.350   2.861   3.005 -0.4156 -0.4501  0.2518
 1871SOL     OW 7556   3.332   3.109   3.103 -0.4062  0.3418  0.6546
 1871SOL    HW2 7557   3.314   3.108   3.197 -1.3033 -0.1354  0.4847
 1871SOL    HW3 7558   3.262   3.163   3.066  0.9877  2.0264  0.4646
 1871SOL    MW4 7559   3.320   3.116   3.110 -0.3409  0.5012  0.6070
 1872SOL     OW 7560   3.136   3.255   2.978 -0.5344 -0.0798  0.1474
 1872SOL    HW2 7561   3.074   3.190   3.012  2.0357 -3.0583 -0.6249
 1872SOL    HW3 7562   3.125   3.250   2.883  1.6786 -1.4941 -0.0544
 1872SOL    MW4 7563   3.126   3.246   2.970  0.0966 -0.6592  0.0188
 1873SOL     OW 7564   3.127   3.516   3.131  0.3857  0.0047 -0.1280
 1873SOL    HW2 7565   3.204   3.561   3.095  0.5189 -0.1224  0.0010
 1873SOL    HW3 7566   3.140   3.424   3.107  0.6464 -0.1376  0.5494
 1873SOL    MW4 7567   3.139   3.510   3.123  0.4375 -0.0308 -0.0217
 1874SOL     OW 7568   3.363   3.618   3.028  0.0699 -0.0822  0.5679
 1874SOL    HW2 7569   3.435   3.567   3.064  0.5925  0.3043  0.0632
 1874SOL    HW3 7570   3.370   3.704   3.070  2.8782  1.5849 -3.1191
 1874SOL    MW4 7571   3.373   3.622   3.039  0.5093  0.1886  0.0150
 1875SOL     OW 7572   3.366   3.868   3.164  0.3948 -0.2608 -0.4487
 1875SOL    HW2 7573   3.385   3.876   3.257 -0.7053 -1.6604 -0.0673
 1875SOL    HW3 7574   3.278   3.905   3.154  0.3107 -0.5508 -0.8222
 1875SOL    MW4 7575   3.357   3.874   3.175  0.2384 -0.4840 -0.4480
 1876SOL     OW 7576   3.139   3.992   3.070  0.3477  0.2317 -0.1354
 1876SOL    HW2 7577   3.057   3.954   3.101  0.5055 -0.0919 -0.1092
 1876SOL    HW3 7578   3.130   3.996   2.975 -0.2237  1.4264 -0.0332
 1876SOL    MW4 7579   3.127   3.988   3.062  0.2930  0.3467 -0.1185
 1877SOL     OW 7580   3.151   4.258   3.150 -0.2372 -0.1898  0.2147
 1877SOL    HW2 7581   3.158   4.257   3.245  0.8188  0.5047  0.1486
 1877SOL    HW3 7582   3.152   4.166   3.125  0.5364 -0.3518  0.8124
 1877SOL    MW4 7583   3.152   4.246   3.159  0.0041 -0.1197  0.2847
 1878SOL     OW 7584   3.386   4.394   3.020 -0.0644  0.7549 -0.1920
 1878SOL    HW2 7585   3.467   4.351   3.047 -0.6266 -0.7793 -0.9034
 1878SOL    HW3 7586   3.319   4.360   3.080 -0.1681  2.1045  0.4702
 1878SOL    MW4 7587   3.388   4.384   3.031 -0.1523  0.7310 -0.1988
 1879SOL     OW 7588   3.801   4.624   3.122  0.1408 -0.0210  0.1592
 1879SOL    HW2 7589   3.806   4.543   3.072 -0.2505  0.7616 -1.1473
 1879SOL    HW3 7590   3.723   4.669   3.089 -2.3456 -1.2071  4.0601
 1879SOL    MW4 7591   3.791   4.619   3.111 -0.2389 -0.0744  0.5014
 1880SOL     OW 7592   3.583   0.114   3.003 -0.2041 -0.0619 -0.6173
 1880SOL    HW2 7593   3.589   0.206   3.025  2.2087 -0.2443 -0.3984
 1880SOL    HW3 7594   3.576   0.112   2.907 -1.0621  0.3721 -0.5624
 1880SOL    MW4 7595   3.583   0.126   2.993  0.0010 -0.0287 -0.5810
 1881SOL     OW 7596   3.604   0.361   3.145  0.8341  0.2010 -0.2016
 1881SOL    HW2 7597   3.597   0.359   3.240  0.8665 -1.9257 -0.2302
 1881SOL    HW3 7598   3.674   0.425   3.128 -0.6519  2.2168  1.0888
 1881SOL    MW4 7599   3.613   0.370   3.155  0.6425  0.1864 -0.0350
 1882SOL     OW 7600   3.822   0.505   3.050  0.3934  0.2370  0.4652
 1882SOL    HW2 7601   3.894   0.477   3.107  0.5703 -0.9078 -0.3190
 1882SOL    HW3 7602   3.807   0.597   3.074  1.5292  0.2250  1.2390
 1882SOL    MW4 7603   3.829   0.514   3.061  0.5665  0.0843  0.4637
 1883SOL     OW 7604   3.826   0.770   3.103 -0.2170  0.1666 -0.2831
 1883SOL    HW2 7605   3.834   0.778   3.198 -1.8079  2.0168 -0.2583
 1883SOL    HW3 7606   3.909   0.802   3.069  0.8105 -1.6080  0.5047
 1883SOL    MW4 7607   3.838   0.776   3.111 -0.2913  0.1765 -0.1760
 1884SOL     OW 7608   3.596   0.870   3.011  0.0579 -0.0504  0.0697
 1884SOL    HW2 7609   3.679   0.833   3.040  0.2465 -0.1307 -0.5690
 1884SOL    HW3 7610   3.529   0.824   3.062  0.4162  0.2031  0.7797
 1884SOL    MW4 7611   3.598   0.859   3.022  0.1299 -0.0276  0.0794
 1885SOL     OW 7612   3.565   1.131   3.099  0.6001  0.7836 -0.1848
 1885SOL    HW2 7613   3.644   1.180   3.076  0.8365  0.9486  0.9490
 1885SOL    HW3 7614   3.580   1.044   3.063  0.5641  1.2711 -1.4336
 1885SOL    MW4 7615   3.577   1.126   3.091  0.6263  0.8698 -0.2000
 1886SOL     OW 7616   3.796   1.270   3.033 -0.7804  0.0049 -0.1445
 1886SOL    HW2 7617   3.801   1.359   3.068 -1.4820  0.0164 -0.0737
 1886SOL    HW3 7618   3.805   1.280   2.939 -0.8159  0.1399 -0.1328
 1886SOL    MW4 7619   3.798   1.283   3.025 -0.8779  0.0242 -0.1335
 1887SOL     OW 7620   3.800   1.518   3.170 -0.5303 -0.5675 -0.4121
 1887SOL    HW2 7621   3.821   1.536   3.261 -0.5496 -1.0100 -0.3187
 1887SOL    HW3 7622   3.728   1.578   3.149  0.0958  0.1889 -0.4154
 1887SOL    MW4 7623   3.793   1.528   3.179 -0.4504 -0.5260 -0.4003
 1888SOL     OW 7624   3.611   1.692   3.033 -0.8252 -0.1477  0.3367
 1888SOL    HW2 7625   3.597   1.784   3.055 -2.8442 -0.1256 -0.9180
 1888SOL    HW3 7626   3.610   1.690   2.937 -0.3674 -1.4275  0.3497
 1888SOL    MW4 7627   3.609   1.704   3.023 -1.0309 -0.3136  0.1729
 1889SOL     OW 7628   3.588   1.948   3.117  0.1958  0.2318  0.5072
 1889SOL    HW2 7629   3.596   1.920   3.208 -0.6378  1.4036  0.9627
 1889SOL    HW3 7630   3.676   1.976   3.092  0.3723  0.1513  1.0481
 1889SOL    MW4 7631   3.600   1.948   3.125  0.1090  0.3757  0.6387
 1890SOL     OW 7632   3.822   2.041   3.016  0.5945 -0.6309 -0.1717
 1890SOL    HW2 7633   3.828   2.129   3.053 -1.0954 -0.3267 -0.6183
 1890SOL    HW3 7634   3.822   2.055   2.921 -0.1015 -1.0961 -0.2360
 1890SOL    MW4 7635   3.823   2.054   3.008  0.2797 -0.6521 -0.2391
 1891SOL     OW 7636   3.830   2.281   3.129 -0.5321  0.3452 -0.0175
 1891SOL    HW2 7637   3.821   2.271   3.224 -1.7927  0.1022 -0.1512
 1891SOL    HW3 7638   3.749   2.323   3.102 -1.1499 -1.6043 -1.2770
 1891SOL    MW4 7639   3.818   2.285   3.138 -0.7799  0.0558 -0.2012
 1892SOL     OW 7640   3.613   2.422   3.047 -0.4612 -0.0765  0.1325
 1892SOL    HW2 7641   3.609   2.514   3.072 -1.1689 -0.5839  1.9855
 1892SOL    HW3 7642   3.529   2.386   3.076 -0.0844 -1.3571 -0.3455
 1892SOL    MW4 7643   3.601   2.429   3.054 -0.5050 -0.3128  0.3135
 1893SOL     OW 7644   3.595   2.710   3.087 -0.0527  0.1965 -0.4041
 1893SOL    HW2 7645   3.681   2.749   3.069 -1.0783  1.7865 -1.9893
 1893SOL    HW3 7646   3.533   2.768   3.044 -2.0692 -0.0682  2.0321
 1893SOL    MW4 7647   3.599   2.723   3.079 -0.4542  0.3715 -0.2916
 1894SOL     OW 7648   3.835   2.819   3.028 -0.0533  0.0308  0.5306
 1894SOL    HW2 7649   3.838   2.913   3.042 -0.1612  0.0831  0.2208
 1894SOL    HW3 7650   3.815   2.810   2.934  0.4804 -0.2976  0.4481
 1894SOL    MW4 7651   3.833   2.830   3.017  0.0031 -0.0057  0.4785
 1895SOL     OW 7652   3.783   3.091   3.095 -0.2660 -0.3942  0.0692
 1895SOL    HW2 7653   3.770   3.081   3.189  0.0043 -0.3934  0.1082
 1895SOL    HW3 7654   3.708   3.143   3.065  0.1622  0.4422  0.4506
 1895SOL    MW4 7655   3.771   3.097   3.103 -0.1738 -0.2837  0.1245
 1896SOL     OW 7656   3.566   3.249   3.038 -0.4967 -0.0487  0.7433
 1896SOL    HW2 7657   3.483   3.203   3.053 -0.5740 -0.4990 -0.9573
 1896SOL    HW3 7658   3.574   3.253   2.943  0.7412  1.2608  0.8901
 1896SOL    MW4 7659   3.556   3.244   3.028 -0.3436  0.0646  0.5386
 1897SOL     OW 7660   3.586   3.505   3.136 -0.3657  0.0488 -0.0881
 1897SOL    HW2 7661   3.666   3.543   3.100  1.0313 -0.8722  1.9389
 1897SOL    HW3 7662   3.596   3.411   3.121 -0.2690 -0.2324  1.6989
 1897SOL    MW4 7663   3.598   3.498   3.129 -0.1688 -0.1099  0.4148
 1898SOL     OW 7664   3.827   3.597   3.042 -0.0641 -0.1631 -0.0469
 1898SOL    HW2 7665   3.836   3.688   3.069 -2.1712 -0.1179  0.5700
 1898SOL    HW3 7666   3.796   3.602   2.952  1.3208 -0.2960 -0.5446
 1898SOL    MW4 7667   3.824   3.610   3.034 -0.1595 -0.1745 -0.0310
 1899SOL     OW 7668   3.843   3.893   3.144  0.1943 -0.2238  0.1267
 1899SOL    HW2 7669   3.848   3.878   3.238 -0.4013  0.3752  0.2580
 1899SOL    HW3 7670   3.760   3.940   3.131  1.4530  1.9396 -0.3923
 1899SOL    MW4 7671   3.833   3.898   3.154  0.2816  0.1409  0.0756
 1900SOL     OW 7672   3.573   4.010   3.056 -0.1975  0.3658  0.0819
 1900SOL    HW2 7673   3.498   3.959   3.086  0.3139 -0.0696  0.6409
 1900SOL    HW3 7674   3.581   3.988   2.963 -0.1843 -0.3288  0.2413
 1900SOL    MW4 7675   3.564   4.000   3.047 -0.1283  0.2165  0.1767
 1901SOL     OW 7676   3.592   4.279   3.131 -0.5028 -0.1428 -0.1422
 1901SOL    HW2 7677   3.675   4.306   3.092  0.6907 -1.5938  1.3099
 1901SOL    HW3 7678   3.574   4.194   3.091 -1.1374  0.0412 -0.2428
 1901SOL    MW4 7679   3.601   4.271   3.121 -0.4289 -0.3099  0.0362
 1902SOL     OW 7680   3.836   4.368   3.006 -0.5520 -0.8186  0.6929
 1902SOL    HW2 7681   3.919   4.341   3.046  0.0312  1.1853  0.8985
 1902SOL    HW3 7682   3.853   4.366   2.912 -0.3183 -0.5975  0.7291
 1902SOL    MW4 7683   3.849   4.364   2.999 -0.4444 -0.5255  0.7248
 1903SOL     OW 7684   4.261   0.027   3.123  0.4277  0.2468 -0.3098
 1903SOL    HW2 7685   4.278   0.001   3.213  1.6287  1.1108 -0.2605
 1903SOL    HW3 7686   4.258  -0.055   3.074 -0.6025 -0.2445  0.5669
 1903SOL    MW4 7687   4.263   0.013   3.128  0.4501  0.2956 -0.1874
 1904SOL     OW 7688   4.018   0.138   3.060  0.3559  0.1622  0.1021
 1904SOL    HW2 7689   4.087   0.089   3.105  0.9362  0.1827 -0.7646
 1904SOL    HW3 7690   3.937   0.095   3.087  0.7652 -0.3939  0.4519
 1904SOL    MW4 7691   4.017   0.126   3.069  0.4864  0.0915  0.0336
 1905SOL     OW 7692   4.058   0.383   3.189  0.1252 -0.0595  0.0591
 1905SOL    HW2 7693   4.130   0.429   3.144  0.8932 -0.5176  0.8050
 1905SOL    HW3 7694   4.052   0.299   3.144  0.8965 -0.5197  0.7994
 1905SOL    MW4 7695   4.067   0.378   3.177  0.3285 -0.1806  0.2553
 1906SOL     OW 7696   4.268   0.494   3.060  0.1693 -0.4521  0.1207
 1906SOL    HW2 7697   4.253   0.578   3.102  0.3914 -0.4301  0.1569
 1906SOL    HW3 7698   4.276   0.513   2.967 -4.9177 -0.9951 -0.6165
 1906SOL    MW4 7699   4.267   0.507   3.053 -0.4721 -0.5208  0.0281
 1907SOL     OW 7700   4.253   0.742   3.181 -0.0035 -0.4514  0.1610
 1907SOL    HW2 7701   4.180   0.798   3.154  0.3945  0.5035  1.0106
 1907SOL    HW3 7702   4.331   0.785   3.147  0.3658 -0.0797  1.4291
 1907SOL    MW4 7703   4.253   0.755   3.173  0.0973 -0.2764  0.4406
 1908SOL     OW 7704   4.060   0.902   3.046 -0.3503 -0.2521 -0.3602
 1908SOL    HW2 7705   4.045   0.993   3.070  1.0660 -0.0407 -0.2454
 1908SOL    HW3 7706   4.060   0.902   2.950 -0.0788 -0.0879 -0.3597
 1908SOL    MW4 7707   4.058   0.914   3.036 -0.1273 -0.2026 -0.3452
 1909SOL     OW 7708   4.017   1.146   3.158 -0.3644  0.0259  0.2142
 1909SOL    HW2 7709   4.013   1.140   3.253 -1.4457  2.1934  0.3294
 1909SOL    HW3 7710   3.939   1.196   3.133  0.3716  0.2660 -1.7356
 1909SOL    MW4 7711   4.006   1.152   3.167 -0.4101  0.3436 -0.0277
 1910SOL     OW 7712   4.286   1.238   3.094  0.0931  0.0053 -0.2189
 1910SOL    HW2 7713   4.211   1.191   3.133 -0.3800  1.2408  0.3727
 1910SOL    HW3 7714   4.269   1.234   3.000  0.5528 -1.8293 -0.2564
 1910SOL    MW4 7715   4.274   1.231   3.086  0.0916 -0.0738 -0.1457
 1911SOL     OW 7716   4.278   1.505   3.156 -0.4900 -0.1880  0.0601
 1911SOL    HW2 7717   4.193   1.518   3.113 -0.6554 -0.3804  0.3332
 1911SOL    HW3 7718   4.300   1.414   3.139  0.1754  0.1427 -0.9405
 1911SOL    MW4 7719   4.270   1.495   3.148 -0.4234 -0.1698 -0.0358
 1912SOL     OW 7720   4.001   1.649   3.028  0.1248 -0.5099  0.4317
 1912SOL    HW2 7721   4.020   1.727   3.080  1.5600 -0.9775  0.6322
 1912SOL    HW3 7722   3.932   1.604   3.078 -0.9218  0.7608  0.1578
 1912SOL    MW4 7723   3.995   1.653   3.042  0.1762 -0.4041  0.4220
 1913SOL     OW 7724   4.038   1.893   3.152  0.5187 -0.1927 -0.3329
 1913SOL    HW2 7725   4.107   1.938   3.105  0.2362  1.9932  1.2624
 1913SOL    HW3 7726   3.957   1.934   3.123  0.2137  0.0198  0.7752
 1913SOL    MW4 7727   4.036   1.904   3.142  0.4411  0.1236  0.0236
 1914SOL     OW 7728   4.233   2.022   3.025  0.0708 -0.1973 -0.0120
 1914SOL    HW2 7729   4.227   2.113   3.057 -0.6472 -0.3879  0.4173
 1914SOL    HW3 7730   4.214   2.028   2.932  2.1682  0.3704 -0.4333
 1914SOL    MW4 7731   4.230   2.035   3.017  0.2532 -0.1473 -0.0107
 1915SOL     OW 7732   4.237   2.291   3.120 -0.5771  0.2141  0.0811
 1915SOL    HW2 7733   4.163   2.339   3.083 -0.7665  0.0589  0.2539
 1915SOL    HW3 7734   4.315   2.337   3.088 -0.7522  0.4701  0.0233
 1915SOL    MW4 7735   4.238   2.303   3.111 -0.6251  0.2275  0.0963
 1916SOL     OW 7736   4.032   2.439   3.008  0.0625  0.4612 -0.3353
 1916SOL    HW2 7737   4.026   2.520   3.060  1.6191  0.1959  0.2864
 1916SOL    HW3 7738   3.963   2.383   3.043  0.7160  0.5096  1.0606
 1916SOL    MW4 7739   4.022   2.442   3.020  0.3543  0.4325 -0.0691
 1917SOL     OW 7740   4.047   2.671   3.152  0.0275 -0.0961  0.4823
 1917SOL    HW2 7741   4.039   2.666   3.247 -1.0347 -0.1883  0.3895
 1917SOL    HW3 7742   3.977   2.729   3.124 -0.2462 -0.7982 -0.3307
 1917SOL    MW4 7743   4.037   2.678   3.161 -0.1488 -0.2007  0.3624
 1918SOL     OW 7744   4.248   2.816   3.022  0.3766  0.0870  0.5501
 1918SOL    HW2 7745   4.186   2.755   3.062 -0.0718  0.2737  0.1514
 1918SOL    HW3 7746   4.333   2.790   3.056  0.0404  0.0600  1.4027
 1918SOL    MW4 7747   4.251   2.805   3.032  0.2732  0.1080  0.6099
 1919SOL     OW 7748   4.220   3.065   3.123  0.0135 -0.0852  0.1030
 1919SOL    HW2 7749   4.150   3.108   3.074  0.6045 -0.7928 -1.3737
 1919SOL    HW3 7750   4.221   2.975   3.090  0.3798 -0.5892  1.4532
 1919SOL    MW4 7751   4.211   3.059   3.112  0.1402 -0.2449  0.0863
 1920SOL     OW 7752   4.002   3.203   2.979  0.4935 -0.0460  0.5816
 1920SOL    HW2 7753   4.003   3.287   3.025 -1.0034 -0.2407  1.0033
 1920SOL    HW3 7754   3.922   3.160   3.010  1.2447 -1.6219  0.3557
 1920SOL    MW4 7755   3.991   3.208   2.989  0.3953 -0.2797  0.6073
 1921SOL     OW 7756   4.048   3.440   3.121  0.1539  0.1200  0.0808
 1921SOL    HW2 7757   4.044   3.430   3.216  1.5638  1.0404  0.2352
 1921SOL    HW3 7758   3.975   3.499   3.100 -0.1827 -0.1155  0.5760
 1921SOL    MW4 7759   4.038   3.446   3.131  0.2961  0.2105  0.1667
 1922SOL     OW 7760   4.296   3.560   3.036 -0.1362 -0.5410  0.1373
 1922SOL    HW2 7761   4.312   3.647   3.074 -0.1629  0.3457 -1.7916
 1922SOL    HW3 7762   4.205   3.542   3.056 -0.7927  0.9108 -1.3469
 1922SOL    MW4 7763   4.286   3.569   3.043 -0.2265 -0.2322 -0.3128
 1923SOL     OW 7764   4.261   3.854   3.125  0.3698  0.7375 -0.3904
 1923SOL    HW2 7765   4.181   3.894   3.091 -0.0267  0.1124 -0.1912
 1923SOL    HW3 7766   4.328   3.921   3.110 -0.3901  1.7188  0.4881
 1923SOL    MW4 7767   4.259   3.869   3.118  0.2179  0.7849 -0.2482
 1924SOL     OW 7768   4.049   3.990   2.988 -0.6976  0.3805 -0.0024
 1924SOL    HW2 7769   4.081   4.073   3.024 -0.1603 -0.3846  1.3617
 1924SOL    HW3 7770   3.980   3.963   3.049  1.1215 -1.5946  1.2587
 1924SOL    MW4 7771   4.044   3.997   3.001 -0.3872  0.0188  0.3440
 1925SOL     OW 7772   4.078   4.234   3.090  0.2511  0.4005 -0.1762
 1925SOL    HW2 7773   4.059   4.241   3.183 -0.4503  0.6890 -0.3417
 1925SOL    HW3 7774   4.131   4.312   3.070  0.6335  0.1978  0.0308
 1925SOL    MW4 7775   4.083   4.245   3.100  0.2089  0.4115 -0.1707
 1926SOL     OW 7776   4.225   4.440   3.013  0.0026  0.3409 -0.0620
 1926SOL    HW2 7777   4.295   4.401   3.065  0.6417  1.3948 -0.1097
 1926SOL    HW3 7778   4.246   4.418   2.923 -1.8684 -2.6909  0.1913
 1926SOL    MW4 7779   4.237   4.432   3.008 -0.1602  0.0806 -0.0346
 1927SOL     OW 7780   0.227   4.657   3.408  0.0326 -0.1877 -0.1394
 1927SOL    HW2 7781   0.305   4.705   3.433  0.2639 -0.6848  0.1027
 1927SOL    HW3 7782   0.219   4.587   3.473 -0.8400  0.1025  0.0810
 1927SOL    MW4 7783   0.236   4.654   3.420 -0.0520 -0.2151 -0.0784
 1928SOL     OW 7784   4.484   0.084   3.516  0.5351  0.6160 -0.1656
 1928SOL    HW2 7785   4.501   0.177   3.497  1.0059  0.4537 -0.5535
 1928SOL    HW3 7786   4.561   0.039   3.481  0.8212  0.1833  0.9877
 1928SOL    MW4 7787   4.497   0.090   3.509  0.6356  0.5375 -0.0646
 1929SOL     OW 7788   0.030   0.339   3.407 -0.3082 -0.1415 -0.2957
 1929SOL    HW2 7789  -0.046   0.390   3.435  0.1309  1.0574 -1.2187
 1929SOL    HW3 7790   0.105   0.386   3.445  0.0978 -0.1063 -1.1242
 1929SOL    MW4 7791   0.030   0.352   3.415 -0.1967  0.0213 -0.5269
 1930SOL     OW 7792   0.246   0.481   3.507  0.2747  0.0355 -0.1943
 1930SOL    HW2 7793   0.325   0.459   3.456  0.1677  1.3605 -0.9620
 1930SOL    HW3 7794   0.214   0.562   3.467 -1.5759 -0.5745  0.0133
 1930SOL    MW4 7795   0.252   0.489   3.495  0.0164  0.1299 -0.2682
 1931SOL     OW 7796   0.181   0.726   3.410 -0.3468  0.2664  0.2974
 1931SOL    HW2 7797   0.258   0.767   3.447 -0.8451  0.1112  1.5450
 1931SOL    HW3 7798   0.107   0.778   3.443 -0.7067  1.2106 -1.9509
 1931SOL    MW4 7799   0.181   0.738   3.420 -0.4600  0.3704  0.1655
 1932SOL     OW 7800   4.486   0.910   3.518 -0.0557  0.3406 -0.0923
 1932SOL    HW2 7801   4.488   0.917   3.614  1.4401  2.2984 -0.2327
 1932SOL    HW3 7802   4.500   1.000   3.488 -0.6262 -0.2515 -2.1649
 1932SOL    MW4 7803   4.488   0.923   3.527  0.0664  0.5208 -0.3843
 1933SOL     OW 7804   0.051   1.157   3.440 -0.1837  0.5420 -0.0723
 1933SOL    HW2 7805   0.118   1.217   3.473 -0.2631  0.6264 -0.0633
 1933SOL    HW3 7806   0.068   1.150   3.346  0.2732  0.0103  0.0441
 1933SOL    MW4 7807   0.062   1.164   3.432 -0.1339  0.4829 -0.0558
 1934SOL     OW 7808   0.263   1.297   3.541 -0.5680  0.3887 -0.7912
 1934SOL    HW2 7809   0.335   1.246   3.504 -1.2403 -0.4556 -0.9406
 1934SOL    HW3 7810   0.279   1.386   3.511  0.5280  0.2415 -0.6611
 1934SOL    MW4 7811   0.275   1.302   3.533 -0.5121  0.2580 -0.7937
 1935SOL     OW 7812   0.230   1.557   3.445  0.3068  0.1817  0.5321
 1935SOL    HW2 7813   0.304   1.605   3.481  0.5081  0.1547  0.1573
 1935SOL    HW3 7814   0.229   1.581   3.352  1.2356 -1.5886  0.0549
 1935SOL    MW4 7815   0.240   1.567   3.437  0.4559 -0.0553  0.4199
 1936SOL     OW 7816   0.025   1.708   3.522  0.1855 -0.4642  0.0852
 1936SOL    HW2 7817  -0.046   1.647   3.502 -0.9204  0.7484  0.2590
 1936SOL    HW3 7818   0.103   1.667   3.484 -0.8293 -1.1719 -1.2814
 1936SOL    MW4 7819   0.026   1.695   3.515 -0.0944 -0.3976 -0.0722
 1937SOL     OW 7820   4.462   1.961   3.417 -0.4108  0.1033  0.3634
 1937SOL    HW2 7821   4.485   1.872   3.445 -0.2061  0.0360 -0.0191
 1937SOL    HW3 7822   4.455   1.955   3.322  0.2107  0.6414  0.2834
 1937SOL    MW4 7823   4.464   1.948   3.408 -0.3014  0.1655  0.3021
 1938SOL     OW 7824   0.208   2.055   3.490  0.4893  0.5418 -0.1694
 1938SOL    HW2 7825   0.200   2.067   3.585  0.7968  0.1767 -0.0954
 1938SOL    HW3 7826   0.120   2.029   3.462  0.4163  0.5738  0.0234
 1938SOL    MW4 7827   0.195   2.053   3.499  0.5203  0.4978 -0.1342
 1939SOL     OW 7828   0.243   2.322   3.397  0.2605 -0.1171 -0.5259
 1939SOL    HW2 7829   0.174   2.379   3.433  0.5180  0.4661 -0.9360
 1939SOL    HW3 7830   0.211   2.233   3.412 -0.1903  0.1370  0.0563
 1939SOL    MW4 7831   0.229   2.318   3.404  0.2350 -0.0064 -0.5033
 1940SOL     OW 7832   0.011   2.438   3.492 -0.2520  0.1412 -0.1596
 1940SOL    HW2 7833   0.002   2.461   3.584  0.9781 -0.8303  0.2167
 1940SOL    HW3 7834  -0.072   2.396   3.469 -0.2437 -0.3696  0.7415
 1940SOL    MW4 7835  -0.001   2.435   3.501 -0.0886 -0.0544  0.0088
 1941SOL     OW 7836   4.476   2.699   3.404 -0.2333  0.5832  0.5391
 1941SOL    HW2 7837   4.558   2.729   3.443 -0.5223 -0.6838  2.1905
 1941SOL    HW3 7838   4.465   2.610   3.437 -2.2537  0.7190  0.2950
 1941SOL    MW4 7839   4.485   2.691   3.413 -0.5379  0.4342  0.7248
 1942SOL     OW 7840   0.219   2.812   3.523  0.3587  0.1508 -0.1563
 1942SOL    HW2 7841   0.294   2.768   3.483  1.5131  2.1952 -0.2787
 1942SOL    HW3 7842   0.236   2.905   3.510 -1.8167  0.6569  0.5314
 1942SOL    MW4 7843   0.231   2.818   3.516  0.2240  0.4871 -0.0818
 1943SOL     OW 7844   0.238   3.082   3.421 -0.0409 -0.0611 -0.1049
 1943SOL    HW2 7845   0.161   3.131   3.450  2.3533  3.4248  0.6600
 1943SOL    HW3 7846   0.240   3.094   3.326  0.4884  1.2672  0.0723
 1943SOL    MW4 7847   0.228   3.090   3.412  0.3448  0.5741  0.0198
 1944SOL     OW 7848   0.014   3.216   3.504  0.5004  0.0896  0.1527
 1944SOL    HW2 7849  -0.072   3.192   3.471 -0.9314  0.7565  3.2232
 1944SOL    HW3 7850   0.019   3.311   3.494  0.4902  0.1664  0.8533
 1944SOL    MW4 7851   0.004   3.226   3.498  0.3101  0.1876  0.6502
 1945SOL     OW 7852   0.027   3.488   3.460  0.1190 -0.1871  0.3262
 1945SOL    HW2 7853  -0.057   3.528   3.482  0.4528  0.2969  0.7096
 1945SOL    HW3 7854   0.020   3.468   3.366 -0.7701 -0.9926  0.5494
 1945SOL    MW4 7855   0.015   3.490   3.450  0.0457 -0.2296  0.4063
 1946SOL     OW 7856   0.244   3.626   3.558 -0.2508 -0.6575 -0.0315
 1946SOL    HW2 7857   0.240   3.631   3.653 -1.1037  0.7678 -0.1239
 1946SOL    HW3 7858   0.165   3.578   3.533 -1.1193  0.7746 -0.1171
 1946SOL    MW4 7859   0.233   3.621   3.567 -0.4779 -0.2804 -0.0551
 1947SOL     OW 7860   0.219   3.872   3.415 -0.3313  0.0480  0.1563
 1947SOL    HW2 7861   0.150   3.918   3.463 -0.9597 -0.2173 -0.4775
 1947SOL    HW3 7862   0.226   3.787   3.457  0.3742  0.4773  0.9140
 1947SOL    MW4 7863   0.210   3.867   3.427 -0.3212  0.0696  0.1726
 1948SOL     OW 7864   4.487   3.997   3.531 -0.0220 -0.4224 -0.0713
 1948SOL    HW2 7865   4.490   4.017   3.625  1.6415  0.0902 -0.2095
 1948SOL    HW3 7866   4.497   4.082   3.488  0.2498 -0.7683 -0.7086
 1948SOL    MW4 7867   4.489   4.011   3.538  0.2333 -0.4001 -0.1738
 1949SOL     OW 7868   4.487   4.266   3.441 -0.3556 -0.4003 -0.1160
 1949SOL    HW2 7869   4.405   4.294   3.480 -0.6557 -3.4612  1.6426
 1949SOL    HW3 7870   4.554   4.318   3.485 -1.3456  2.2676 -1.7197
 1949SOL    MW4 7871   4.485   4.276   3.452 -0.5260 -0.4520 -0.0958
 1950SOL     OW 7872   0.228   4.412   3.548  0.1889 -0.1689  0.0609
 1950SOL    HW2 7873   0.230   4.374   3.636  0.6556 -0.4028 -0.0473
 1950SOL    HW3 7874   0.307   4.379   3.506  0.3194  0.4976 -0.2162
 1950SOL    MW4 7875   0.238   4.402   3.554  0.2677 -0.1125  0.0103
 1951SOL     OW 7876   0.651   4.631   3.408  0.1367  0.3708  0.4081
 1951SOL    HW2 7877   0.721   4.671   3.459  1.1332 -1.5491  0.5873
 1951SOL    HW3 7878   0.675   4.645   3.317  0.7884 -0.2992  0.4696
 1951SOL    MW4 7879   0.663   4.638   3.403  0.3541  0.0296  0.4399
 1952SOL     OW 7880   0.450   0.129   3.505 -0.3798 -0.2032  0.0978
 1952SOL    HW2 7881   0.441   0.090   3.592  1.1152  1.7637  1.1482
 1952SOL    HW3 7882   0.525   0.084   3.466  0.2734  0.4203  0.6413
 1952SOL    MW4 7883   0.459   0.118   3.511 -0.0964  0.1386  0.3083
 1953SOL     OW 7884   0.442   0.373   3.371 -0.2204 -0.0794 -0.0292
 1953SOL    HW2 7885   0.526   0.400   3.409 -0.1735  1.7206 -1.3452
 1953SOL    HW3 7886   0.425   0.288   3.410  0.5588  1.0221  2.8845
 1953SOL    MW4 7887   0.451   0.366   3.382 -0.1114  0.3034  0.1819
 1954SOL     OW 7888   0.692   0.480   3.448  0.0993 -0.3046  0.1864
 1954SOL    HW2 7889   0.678   0.456   3.540 -1.6749 -2.0728 -0.5056
 1954SOL    HW3 7890   0.763   0.424   3.419  0.2374 -0.1877  0.2947
 1954SOL    MW4 7891   0.699   0.470   3.457 -0.1166 -0.5225  0.1094
 1955SOL     OW 7892   0.663   0.767   3.395 -0.0060 -0.0542 -0.0593
 1955SOL    HW2 7893   0.585   0.808   3.432  0.4469  1.2098 -0.4996
 1955SOL    HW3 7894   0.653   0.674   3.416 -2.8891 -0.3143 -2.3568
 1955SOL    MW4 7895   0.651   0.760   3.403 -0.3266  0.0782 -0.4206
 1956SOL     OW 7896   0.411   0.876   3.486 -0.2255 -0.0671 -0.1007
 1956SOL    HW2 7897   0.409   0.875   3.581  0.0069  1.4022 -0.0812
 1956SOL    HW3 7898   0.422   0.968   3.462  0.8939 -0.5534 -1.5289
 1956SOL    MW4 7899   0.412   0.888   3.495 -0.0471  0.0625 -0.2866
 1957SOL     OW 7900   0.470   1.152   3.425  0.1394  0.0517 -0.0910
 1957SOL    HW2 7901   0.546   1.206   3.447  0.3981 -0.3816  0.1031
 1957SOL    HW3 7902   0.455   1.166   3.332 -0.0369  0.7547  0.0411
 1957SOL    MW4 7903   0.478   1.161   3.416  0.1503  0.0873 -0.0479
 1958SOL     OW 7904   0.670   1.303   3.473 -0.2439 -0.1211 -0.1874
 1958SOL    HW2 7905   0.754   1.258   3.462  0.3433  0.3872  2.0231
 1958SOL    HW3 7906   0.679   1.384   3.422  0.7744  0.1463  0.4201
 1958SOL    MW4 7907   0.682   1.308   3.465 -0.0320 -0.0188  0.1843
 1959SOL     OW 7908   0.695   1.545   3.351 -0.0915 -0.2969  0.1440
 1959SOL    HW2 7909   0.761   1.608   3.380 -0.9006  1.6946 -2.2039
 1959SOL    HW3 7910   0.615   1.574   3.395 -0.1662 -0.5335  0.1599
 1959SOL    MW4 7911   0.693   1.557   3.361 -0.2081 -0.0653 -0.1638
 1960SOL     OW 7912   0.475   1.673   3.486  0.1637  0.4395 -0.1941
 1960SOL    HW2 7913   0.471   1.672   3.581 -1.1717  0.7973 -0.2412
 1960SOL    HW3 7914   0.455   1.763   3.461  0.4977  0.3485 -0.8107
 1960SOL    MW4 7915   0.472   1.684   3.495  0.0316  0.4746 -0.2816
 1961SOL     OW 7916   0.424   1.930   3.391 -0.2215 -0.5690 -0.0767
 1961SOL    HW2 7917   0.358   1.991   3.424 -0.0623 -0.4475  0.0116
 1961SOL    HW3 7918   0.396   1.912   3.301  0.2475  0.3564 -0.4105
 1961SOL    MW4 7919   0.411   1.936   3.383 -0.1386 -0.4309 -0.1094
 1962SOL     OW 7920   0.652   2.052   3.486  0.0150  0.2135 -0.2098
 1962SOL    HW2 7921   0.659   2.058   3.582 -0.1835  0.3661 -0.2032
 1962SOL    HW3 7922   0.577   1.995   3.471 -1.0346  1.5614 -0.2660
 1962SOL    MW4 7923   0.643   2.046   3.497 -0.1497  0.4117 -0.2165
 1963SOL     OW 7924   0.709   2.286   3.342  0.1125  0.4682  0.0819
 1963SOL    HW2 7925   0.770   2.327   3.403 -0.3414  2.3717 -0.7150
 1963SOL    HW3 7926   0.683   2.205   3.385  2.2605  0.2137  0.9742
 1963SOL    MW4 7927   0.714   2.281   3.356  0.3361  0.6859  0.0942
 1964SOL     OW 7928   0.495   2.402   3.497 -0.1463 -0.1553 -0.3351
 1964SOL    HW2 7929   0.566   2.369   3.442  0.0143 -1.4094  0.5963
 1964SOL    HW3 7930   0.417   2.360   3.462 -0.2656  0.2725 -0.5871
 1964SOL    MW4 7931   0.494   2.392   3.485 -0.1408 -0.2642 -0.2453
 1965SOL     OW 7932   0.440   2.676   3.433  0.2814  0.0029  0.3562
 1965SOL    HW2 7933   0.468   2.586   3.451  0.5612  0.0720  0.2699
 1965SOL    HW3 7934   0.451   2.686   3.338 -1.4863 -0.4686  0.0772
 1965SOL    MW4 7935   0.445   2.665   3.423  0.0851 -0.0503  0.3083
 1966SOL     OW 7936   0.635   2.845   3.517  0.0808 -0.1836  0.6352
 1966SOL    HW2 7937   0.706   2.807   3.465 -0.0546  2.3465 -1.4773
 1966SOL    HW3 7938   0.562   2.784   3.508  1.1978 -1.5810  0.8523
 1966SOL    MW4 7939   0.635   2.832   3.509  0.2103 -0.0339  0.3850
 1967SOL     OW 7940   0.648   3.099   3.381  0.0648  0.1917 -0.2619
 1967SOL    HW2 7941   0.578   3.144   3.429  1.2360  0.9550  0.7745
 1967SOL    HW3 7942   0.637   3.006   3.404 -0.8884  0.2552 -0.4722
 1967SOL    MW4 7943   0.637   3.092   3.391  0.0936  0.3009 -0.1528
 1968SOL     OW 7944   0.455   3.238   3.517  0.0446 -0.4227  0.3169
 1968SOL    HW2 7945   0.444   3.256   3.610  0.0665  0.6819  0.1087
 1968SOL    HW3 7946   0.380   3.181   3.495 -0.3651 -0.0947  0.8443
 1968SOL    MW4 7947   0.443   3.233   3.526 -0.0065 -0.2337  0.3591
 1969SOL     OW 7948   0.459   3.494   3.404  0.5096 -0.0095 -0.0450
 1969SOL    HW2 7949   0.456   3.404   3.437  2.0213  0.4165  1.3039
 1969SOL    HW3 7950   0.396   3.541   3.458  1.0281  0.1129  0.4612
 1969SOL    MW4 7951   0.450   3.488   3.415  0.7775  0.0627  0.1998
 1970SOL     OW 7952   0.693   3.638   3.514  0.1764  0.0369  0.2970
 1970SOL    HW2 7953   0.772   3.593   3.486  0.0448 -0.6124  0.9589
 1970SOL    HW3 7954   0.621   3.581   3.488  0.0082 -0.1345  1.1076
 1970SOL    MW4 7955   0.694   3.625   3.507  0.1369 -0.0715  0.4911
 1971SOL     OW 7956   0.643   3.889   3.398  0.0384  0.3496 -0.4990
 1971SOL    HW2 7957   0.583   3.933   3.458  1.4085  0.2596  0.9980
 1971SOL    HW3 7958   0.661   3.805   3.440  2.4440  1.0295 -0.0559
 1971SOL    MW4 7959   0.638   3.884   3.411  0.5366  0.4272 -0.2429
 1972SOL     OW 7960   0.452   4.007   3.555 -0.4704  0.3437  0.0043
 1972SOL    HW2 7961   0.447   4.101   3.541  0.9845  0.5888  0.9639
 1972SOL    HW3 7962   0.380   3.971   3.504  0.5954  1.7457 -2.5661
 1972SOL    MW4 7963   0.442   4.014   3.547 -0.1378  0.5612 -0.2081
 1973SOL     OW 7964   0.437   4.251   3.408  0.0308 -0.0739 -0.0268
 1973SOL    HW2 7965   0.523   4.282   3.436  0.5552 -2.1243  0.7377
 1973SOL    HW3 7966   0.442   4.248   3.312  0.4924  0.6710 -0.0289
 1973SOL    MW4 7967   0.449   4.255   3.399  0.1610 -0.2460  0.0739
 1974SOL     OW 7968   0.669   4.352   3.500  0.2407 -0.3639  0.0656
 1974SOL    HW2 7969   0.751   4.328   3.455  0.2710  0.4025 -0.2967
 1974SOL    HW3 7970   0.666   4.447   3.495 -1.5695 -0.4800 -1.5108
 1974SOL    MW4 7971   0.680   4.361   3.493  0.0058 -0.2780 -0.1900
 1975SOL     OW 7972   1.146   4.647   3.383  0.2590  0.4224  0.3579
 1975SOL    HW2 7973   1.225   4.692   3.414  0.0117  1.5599 -0.5988
 1975SOL    HW3 7974   1.149   4.658   3.288 -1.7444  1.6673  0.4027
 1975SOL    MW4 7975   1.157   4.654   3.374 -0.0381  0.7372  0.2375
 1976SOL     OW 7976   0.900   0.076   3.472 -0.1833  0.1263  0.1213
 1976SOL    HW2 7977   0.903   0.081   3.568  1.5605  3.3386 -0.0291
 1976SOL    HW3 7978   0.983   0.034   3.449  0.1895  0.9118 -0.0090
 1976SOL    MW4 7979   0.912   0.071   3.482  0.0960  0.6537  0.0842
 1977SOL     OW 7980   0.922   0.356   3.375  0.3292 -0.0636  0.0114
 1977SOL    HW2 7981   0.989   0.405   3.422  0.4171 -0.1204 -0.0555
 1977SOL    HW3 7982   0.918   0.272   3.419  0.3131 -0.0659  0.0055
 1977SOL    MW4 7983   0.930   0.352   3.387  0.3387 -0.0713  0.0017
 1978SOL     OW 7984   1.121   0.509   3.511  0.4968  0.3653  0.3502
 1978SOL    HW2 7985   1.088   0.515   3.601 -0.6009 -0.9925  0.0509
 1978SOL    HW3 7986   1.099   0.593   3.472  0.0595  0.5847  1.0557
 1978SOL    MW4 7987   1.114   0.521   3.518  0.2942  0.2151  0.4039
 1979SOL     OW 7988   1.100   0.751   3.370 -0.2975 -0.1502  0.1245
 1979SOL    HW2 7989   1.185   0.788   3.395 -0.7995  1.4133 -0.4061
 1979SOL    HW3 7990   1.036   0.812   3.406 -1.1262 -0.1368 -1.3242
 1979SOL    MW4 7991   1.103   0.764   3.378 -0.4730  0.0579 -0.1366
 1980SOL     OW 7992   0.908   0.896   3.491 -0.1535 -0.0016 -0.7527
 1980SOL    HW2 7993   0.911   0.986   3.460  0.7143  0.5678  0.8803
 1980SOL    HW3 7994   0.829   0.859   3.452 -0.6341  1.5290 -1.2590
 1980SOL    MW4 7995   0.898   0.903   3.482 -0.1025  0.2755 -0.6039
 1981SOL     OW 7996   0.901   1.167   3.414  0.2402  0.2208 -0.3489
 1981SOL    HW2 7997   0.988   1.205   3.415  0.7988 -0.9720 -1.5285
 1981SOL    HW3 7998   0.877   1.165   3.321 -0.9346  0.3259 -0.0537
 1981SOL    MW4 7999   0.909   1.172   3.402  0.1589  0.0772 -0.4659
 1982SOL     OW 8000   1.156   1.290   3.479  0.0926 -0.0125  0.2997
 1982SOL    HW2 8001   1.143   1.289   3.574 -0.8798  0.7944  0.1784
 1982SOL    HW3 8002   1.136   1.380   3.453 -1.1981 -0.6320 -0.8764
 1982SOL    MW4 8003   1.152   1.302   3.488 -0.2060  0.0122  0.1287
 1983SOL     OW 8004   1.107   1.548   3.382  0.1538  0.2105 -0.0266
 1983SOL    HW2 8005   1.186   1.574   3.429  1.0336 -0.9763 -0.8360
 1983SOL    HW3 8006   1.124   1.572   3.291  0.8604 -2.8599 -0.7454
 1983SOL    MW4 8007   1.120   1.555   3.376  0.3632 -0.3513 -0.2284
 1984SOL     OW 8008   0.894   1.702   3.461  0.3385  0.8259  0.0968
 1984SOL    HW2 8009   0.897   1.793   3.431  0.9281  0.6180 -0.4686
 1984SOL    HW3 8010   0.979   1.666   3.438 -0.1143 -0.0506 -0.2271
 1984SOL    MW4 8011   0.905   1.710   3.454  0.3565  0.6829 -0.0203
 1985SOL     OW 8012   0.890   1.977   3.380 -0.0125  0.0849 -0.2898
 1985SOL    HW2 8013   0.955   2.028   3.428  1.4089 -1.5172 -0.4499
 1985SOL    HW3 8014   0.806   2.005   3.416  0.7615  2.0375  0.0720
 1985SOL    MW4 8015   0.887   1.987   3.391  0.2771  0.1311 -0.2632
 1986SOL     OW 8016   1.116   2.104   3.510  0.2071  0.5937  0.2724
 1986SOL    HW2 8017   1.182   2.045   3.475  0.9939  1.0941  0.8816
 1986SOL    HW3 8018   1.134   2.188   3.468 -1.0430  0.3618 -0.7541
 1986SOL    MW4 8019   1.127   2.108   3.500  0.1459  0.6292  0.2174
 1987SOL     OW 8020   1.108   2.341   3.387  0.4521  0.2604  0.0708
 1987SOL    HW2 8021   1.194   2.379   3.405 -0.0684  2.4546 -1.8064
 1987SOL    HW3 8022   1.114   2.309   3.297 -0.1613 -1.2402  0.5322
 1987SOL    MW4 8023   1.120   2.342   3.378  0.3026  0.3517 -0.1159
 1988SOL     OW 8024   0.880   2.444   3.502  0.0927 -0.4139 -0.1295
 1988SOL    HW2 8025   0.881   2.427   3.596 -0.3947 -0.9932 -0.2295
 1988SOL    HW3 8026   0.959   2.402   3.469  0.4120  0.0288  0.0561
 1988SOL    MW4 8027   0.891   2.436   3.510  0.0705 -0.4320 -0.1183
 1989SOL     OW 8028   0.863   2.689   3.390  0.3264 -0.0412  0.3658
 1989SOL    HW2 8029   0.938   2.740   3.422  0.4694 -0.4247  0.6458
 1989SOL    HW3 8030   0.881   2.600   3.420 -0.6474  0.0179  1.1421
 1989SOL    MW4 8031   0.876   2.684   3.399  0.2168 -0.0839  0.5050
 1990SOL     OW 8032   1.094   2.840   3.493 -0.5734  0.5612  0.1471
 1990SOL    HW2 8033   1.100   2.851   3.588 -0.0785 -1.7701  0.4183
 1990SOL    HW3 8034   1.170   2.786   3.471 -0.5364  1.3336 -1.6161
 1990SOL    MW4 8035   1.105   2.834   3.503 -0.5034  0.3555 -0.0496
 1991SOL     OW 8036   1.145   3.080   3.384 -0.0958  0.3231 -0.5145
 1991SOL    HW2 8037   1.124   2.991   3.414  1.4717  0.1056 -0.0270
 1991SOL    HW3 8038   1.149   3.073   3.289 -0.0197 -0.1242 -0.4805
 1991SOL    MW4 8039   1.143   3.067   3.376  0.1210  0.2356 -0.4458
 1992SOL     OW 8040   0.891   3.215   3.473  0.5315 -0.4470 -0.2440
 1992SOL    HW2 8041   0.954   3.150   3.445  1.1815  0.2047 -0.3065
 1992SOL    HW3 8042   0.806   3.176   3.454  0.9415 -0.5262 -1.9304
 1992SOL    MW4 8043   0.888   3.202   3.467  0.6714 -0.3715 -0.4749
 1993SOL     OW 8044   0.912   3.488   3.415  0.2574 -0.3285  0.1279
 1993SOL    HW2 8045   0.908   3.395   3.435  3.4904 -0.5719 -0.1225
 1993SOL    HW3 8046   0.908   3.491   3.319 -1.3640 -0.0773  0.1872
 1993SOL    MW4 8047   0.911   3.476   3.405  0.4701 -0.3276  0.1023
 1994SOL     OW 8048   1.150   3.619   3.494  0.2242  0.4906  0.6701
 1994SOL    HW2 8049   1.128   3.629   3.587 -0.8371  1.0460  0.3672
 1994SOL    HW3 8050   1.071   3.581   3.455  0.1979  1.4337 -0.2243
 1994SOL    MW4 8051   1.136   3.615   3.501  0.0807  0.6883  0.5124
 1995SOL     OW 8052   1.089   3.879   3.384 -0.4566 -0.2189 -0.3814
 1995SOL    HW2 8053   1.156   3.939   3.417 -1.9579  1.8455 -1.0304
 1995SOL    HW3 8054   1.112   3.795   3.423  0.4524  1.1868  2.2377
 1995SOL    MW4 8055   1.101   3.876   3.394 -0.5348  0.2389 -0.1216
 1996SOL     OW 8056   0.887   3.999   3.523  0.1060  0.2426 -0.4643
 1996SOL    HW2 8057   0.958   3.952   3.479 -0.5220 -0.9578 -0.2285
 1996SOL    HW3 8058   0.807   3.961   3.486 -0.4448 -1.4073  2.3127
 1996SOL    MW4 8059   0.886   3.988   3.512 -0.0495 -0.1335 -0.0670
 1997SOL     OW 8060   0.912   4.260   3.393 -0.2398 -0.0732 -0.0574
 1997SOL    HW2 8061   0.891   4.179   3.439 -1.6119  1.2691  1.7716
 1997SOL    HW3 8062   0.889   4.243   3.302  0.8313 -2.1842  0.0549
 1997SOL    MW4 8063   0.906   4.247   3.387 -0.2795 -0.1740  0.1986
 1998SOL     OW 8064   1.143   4.386   3.470  0.1167  0.0845 -0.3222
 1998SOL    HW2 8065   1.064   4.351   3.430 -0.8210 -0.2672  1.7442
 1998SOL    HW3 8066   1.156   4.471   3.428 -1.0739 -0.0736 -1.0352
 1998SOL    MW4 8067   1.134   4.393   3.459 -0.1640  0.0172 -0.1433
 1999SOL     OW 8068   1.565   4.629   3.363 -0.3712  0.1715  0.0081
 1999SOL    HW2 8069   1.550   4.547   3.410  1.0229  1.0625  2.0707
 1999SOL    HW3 8070   1.504   4.691   3.402  0.5039  0.8101  0.3795
 1999SOL    MW4 8071   1.555   4.626   3.374 -0.0716  0.3734  0.3297
 2000SOL     OW 8072   1.378   0.129   3.460 -0.4280  0.7470 -0.2938
 2000SOL    HW2 8073   1.366   0.132   3.555 -0.7907  0.1229 -0.3168
 2000SOL    HW3 8074   1.380   0.221   3.433 -1.2562  0.9160  0.2060
 2000SOL    MW4 8075   1.376   0.142   3.469 -0.5851  0.6870 -0.2308
 2001SOL     OW 8076   1.366   0.399   3.379 -0.5509  0.0224  0.2044
 2001SOL    HW2 8077   1.448   0.443   3.400 -1.2464  1.8895 -0.8283
 2001SOL    HW3 8078   1.301   0.441   3.436 -1.1368 -0.0024 -0.4346
 2001SOL    MW4 8079   1.368   0.410   3.389 -0.7199  0.2654 -0.0165
 2002SOL     OW 8080   1.614   0.520   3.453  0.1527  0.1352  0.0504
 2002SOL    HW2 8081   1.599   0.489   3.542 -0.8934 -0.7353 -0.4221
 2002SOL    HW3 8082   1.678   0.459   3.417 -1.0649 -0.8507 -0.5042
 2002SOL    MW4 8083   1.620   0.508   3.460 -0.1459 -0.1097 -0.0849
 2003SOL     OW 8084   1.551   0.784   3.357  0.5170 -0.0958  0.0361
 2003SOL    HW2 8085   1.469   0.824   3.387  1.0498  0.4892  0.7130
 2003SOL    HW3 8086   1.559   0.704   3.408  1.3232  0.8001  1.3368
 2003SOL    MW4 8087   1.541   0.779   3.368  0.6938  0.0995  0.2973
 2004SOL     OW 8088   1.317   0.893   3.460  0.3646 -0.3308 -0.1457
 2004SOL    HW2 8089   1.319   0.880   3.555 -0.1958  0.3234 -0.0431
 2004SOL    HW3 8090   1.355   0.979   3.447 -0.6394  0.0728 -0.4227
 2004SOL    MW4 8091   1.322   0.902   3.471  0.1582 -0.1912 -0.1683
 2005SOL     OW 8092   1.403   1.175   3.397 -0.4805  0.0491  0.1412
 2005SOL    HW2 8093   1.466   1.221   3.452 -0.8031 -0.7337  1.2054
 2005SOL    HW3 8094   1.318   1.204   3.430 -0.6808  0.7567 -0.9849
 2005SOL    MW4 8095   1.400   1.185   3.409 -0.5494  0.0391  0.1330
 2006SOL     OW 8096   1.582   1.301   3.559  0.1129  0.0117  0.1809
 2006SOL    HW2 8097   1.580   1.297   3.654 -0.5885  1.7785  0.2686
 2006SOL    HW3 8098   1.662   1.255   3.534  0.4825 -0.1538  1.6433
 2006SOL    MW4 8099   1.592   1.295   3.568  0.0691  0.2230  0.3855
 2007SOL     OW 8100   1.575   1.555   3.423 -0.5162  0.1590  0.1705
 2007SOL    HW2 8101   1.569   1.467   3.462 -0.3362  0.2500  0.4062
 2007SOL    HW3 8102   1.580   1.539   3.329  1.2054 -0.1613  0.2998
 2007SOL    MW4 8103   1.575   1.541   3.416 -0.2654  0.1287  0.2186
 2008SOL     OW 8104   1.329   1.663   3.510 -0.2494 -0.1745  0.1123
 2008SOL    HW2 8105   1.321   1.642   3.603  0.3985  0.3842  0.2895
 2008SOL    HW3 8106   1.416   1.631   3.485 -0.6076 -0.7615 -0.4205
 2008SOL    MW4 8107   1.339   1.656   3.519 -0.2112 -0.1781  0.0653
 2009SOL     OW 8108   1.312   1.933   3.418 -0.2443 -0.2319  0.5283
 2009SOL    HW2 8109   1.389   1.980   3.450 -1.0297  1.2248  0.3489
 2009SOL    HW3 8110   1.316   1.848   3.462  0.2870  0.6390  2.2393
 2009SOL    MW4 8111   1.323   1.928   3.428 -0.2780  0.0751  0.7303
 2010SOL     OW 8112   1.543   2.052   3.489 -0.0303  0.2399 -0.3835
 2010SOL    HW2 8113   1.629   2.015   3.466  0.7607  0.6016  1.7951
 2010SOL    HW3 8114   1.548   2.143   3.460  0.7994  0.5876  0.8030
 2010SOL    MW4 8115   1.555   2.059   3.482  0.1836  0.3335  0.0603
 2011SOL     OW 8116   1.585   2.309   3.401 -0.2015 -0.2565  0.1441
 2011SOL    HW2 8117   1.503   2.355   3.421  1.2603  2.2462  0.6150
 2011SOL    HW3 8118   1.594   2.317   3.306  0.3794  1.0770  0.2962
 2011SOL    MW4 8119   1.575   2.316   3.391  0.0682  0.2496  0.2263
 2012SOL     OW 8120   1.353   2.432   3.476  0.2228 -0.0115  0.3015
 2012SOL    HW2 8121   1.350   2.435   3.571  1.3381  1.0419  0.3134
 2012SOL    HW3 8122   1.330   2.521   3.448  0.3991 -0.1819 -0.4008
 2012SOL    MW4 8123   1.349   2.444   3.485  0.3933  0.1049  0.2108
 2013SOL     OW 8124   1.344   2.706   3.414 -0.1240 -0.1088 -0.2624
 2013SOL    HW2 8125   1.421   2.753   3.446  0.0780 -1.5716  1.5199
 2013SOL    HW3 8126   1.353   2.707   3.318  1.2561  1.1260 -0.1365
 2013SOL    MW4 8127   1.356   2.712   3.405  0.0848 -0.1388 -0.0107
 2014SOL     OW 8128   1.620   2.809   3.481 -0.3571 -0.3734 -0.7290
 2014SOL    HW2 8129   1.690   2.759   3.439 -2.1153 -0.4875 -3.6119
 2014SOL    HW3 8130   1.620   2.894   3.436 -0.4221  0.5726  1.0043
 2014SOL    MW4 8131   1.629   2.814   3.470 -0.5976 -0.2635 -0.8807
 2015SOL     OW 8132   1.598   3.078   3.390  0.4142  0.3253  0.2490
 2015SOL    HW2 8133   1.674   3.134   3.405  0.0716  0.6422  0.8173
 2015SOL    HW3 8134   1.526   3.122   3.436  0.0759 -0.4136  0.4342
 2015SOL    MW4 8135   1.598   3.091   3.398  0.3245  0.2697  0.3486
 2016SOL     OW 8136   1.363   3.222   3.482 -0.0615 -0.1265  0.2161
 2016SOL    HW2 8137   1.361   3.227   3.578  0.2722 -0.3010  0.2354
 2016SOL    HW3 8138   1.291   3.164   3.459 -0.1451 -0.0804  0.3597
 2016SOL    MW4 8139   1.354   3.215   3.492 -0.0285 -0.1433  0.2375
 2017SOL     OW 8140   1.379   3.480   3.405  0.2742 -0.1773 -0.1884
 2017SOL    HW2 8141   1.363   3.390   3.432 -0.8560 -0.5077 -1.8801
 2017SOL    HW3 8142   1.312   3.531   3.450  1.5384 -0.0214  1.5646
 2017SOL    MW4 8143   1.368   3.475   3.415  0.2918 -0.2003 -0.1802
 2018SOL     OW 8144   1.608   3.611   3.511 -0.4861 -0.3187  0.0626
 2018SOL    HW2 8145   1.603   3.590   3.605 -1.2372 -1.2708 -0.1828
 2018SOL    HW3 8146   1.545   3.552   3.470  0.5062 -0.5366 -1.1576
 2018SOL    MW4 8147   1.599   3.601   3.518 -0.4543 -0.4730 -0.1309
 2019SOL     OW 8148   1.528   3.854   3.387 -0.2241 -0.4790 -0.4232
 2019SOL    HW2 8149   1.549   3.762   3.404 -0.1773 -0.5141 -0.6682
 2019SOL    HW3 8150   1.537   3.863   3.292 -1.6514 -0.5958 -0.5893
 2019SOL    MW4 8151   1.532   3.843   3.376 -0.4063 -0.4992 -0.4773
 2020SOL     OW 8152   1.321   3.997   3.502 -0.2532  0.0860 -0.1241
 2020SOL    HW2 8153   1.340   4.090   3.488  1.7977 -0.0411  1.5690
 2020SOL    HW3 8154   1.382   3.951   3.444 -1.8376 -0.2264 -1.5851
 2020SOL    MW4 8155   1.331   4.003   3.492 -0.1916  0.0277 -0.0937
 2021SOL     OW 8156   1.359   4.249   3.393 -0.0145  0.3410 -0.3804
 2021SOL    HW2 8157   1.275   4.286   3.420 -0.1304 -0.5600  0.5526
 2021SOL    HW3 8158   1.365   4.267   3.300 -1.1694  0.5715 -0.4115
 2021SOL    MW4 8159   1.349   4.256   3.385 -0.1822  0.2527 -0.2615
 2022SOL     OW 8160   1.554   4.401   3.506  0.0941 -0.5810  0.2941
 2022SOL    HW2 8161   1.626   4.355   3.463  0.5096  0.0010  0.3654
 2022SOL    HW3 8162   1.475   4.353   3.479 -0.0289  1.6754 -3.7168
 2022SOL    MW4 8163   1.553   4.388   3.497  0.1327 -0.2069 -0.2255
 2023SOL     OW 8164   2.037   4.601   3.417 -0.4634 -0.4237 -0.2446
 2023SOL    HW2 8165   2.113   4.627   3.468 -0.7821 -0.4543  0.2491
 2023SOL    HW3 8166   1.966   4.658   3.448 -0.7396 -0.6729 -0.4113
 2023SOL    MW4 8167   2.038   4.612   3.428 -0.5417 -0.4606 -0.2015
 2024SOL     OW 8168   1.805   0.068   3.496  0.2640  0.1488  0.0543
 2024SOL    HW2 8169   1.792   0.065   3.591  2.4628 -2.6207  0.3269
 2024SOL    HW3 8170   1.734   0.015   3.461 -0.0695  0.5007  0.1852
 2024SOL    MW4 8171   1.794   0.061   3.504  0.5101 -0.1701  0.1078
 2025SOL     OW 8172   1.817   0.337   3.421 -0.0362 -0.3398 -0.2404
 2025SOL    HW2 8173   1.811   0.247   3.454  1.7308 -0.7597 -1.0137
 2025SOL    HW3 8174   1.824   0.327   3.326 -1.4737  0.6974 -0.4610
 2025SOL    MW4 8175   1.817   0.323   3.413  0.0073 -0.2583 -0.3717
 2026SOL     OW 8176   2.045   0.488   3.490  0.1087  0.0646  0.5386
 2026SOL    HW2 8177   2.029   0.580   3.470 -0.3144  0.4820  2.6971
 2026SOL    HW3 8178   1.963   0.443   3.471 -0.0064  0.3097  0.4681
 2026SOL    MW4 8179   2.032   0.494   3.485  0.0377  0.1520  0.8142
 2027SOL     OW 8180   1.987   0.742   3.426 -0.5614  0.0096  0.2589
 2027SOL    HW2 8181   2.064   0.784   3.466 -0.6224  0.5648 -0.1995
 2027SOL    HW3 8182   2.000   0.754   3.332  0.0596 -2.1332  0.0509
 2027SOL    MW4 8183   1.999   0.749   3.419 -0.4876 -0.1999  0.1712
 2028SOL     OW 8184   1.778   0.930   3.479 -0.1600  0.3842 -0.3150
 2028SOL    HW2 8185   1.849   0.868   3.464 -0.4295 -0.1416  0.5438
 2028SOL    HW3 8186   1.704   0.893   3.430 -0.8189 -0.9182  1.6260
 2028SOL    MW4 8187   1.777   0.917   3.470 -0.2825  0.1429  0.0544
 2029SOL     OW 8188   1.787   1.183   3.418 -0.1060 -0.1157 -0.3642
 2029SOL    HW2 8189   1.875   1.213   3.441 -0.0746 -0.5099  0.0455
 2029SOL    HW3 8190   1.788   1.089   3.436 -0.3579 -0.2780 -1.1560
 2029SOL    MW4 8191   1.799   1.175   3.423 -0.1351 -0.1892 -0.4146
 2030SOL     OW 8192   2.037   1.278   3.464  0.0707 -0.4606 -0.2847
 2030SOL    HW2 8193   2.046   1.286   3.559  1.1957 -0.0154 -0.4244
 2030SOL    HW3 8194   2.023   1.368   3.433  1.0916 -0.4335 -0.6789
 2030SOL    MW4 8195   2.036   1.291   3.472  0.3538 -0.3983 -0.3550
 2031SOL     OW 8196   2.035   1.522   3.396 -0.0422  0.1377  0.4019
 2031SOL    HW2 8197   2.108   1.561   3.445  0.6694 -0.1780 -0.3924
 2031SOL    HW3 8198   1.961   1.580   3.413  1.0439  1.9820 -0.9259
 2031SOL    MW4 8199   2.035   1.535   3.405  0.1948  0.3393  0.1218
 2032SOL     OW 8200   1.820   1.656   3.483  0.5573  0.2414  0.1670
 2032SOL    HW2 8201   1.802   1.740   3.440 -0.0496 -0.6436 -1.3251
 2032SOL    HW3 8202   1.744   1.602   3.464  1.4332 -1.0251  0.2042
 2032SOL    MW4 8203   1.808   1.660   3.475  0.5927 -0.0426 -0.0250
 2033SOL     OW 8204   1.774   1.944   3.407  0.2133 -0.2399 -0.1196
 2033SOL    HW2 8205   1.845   1.999   3.440 -0.1715  0.0764  0.2014
 2033SOL    HW3 8206   1.774   1.958   3.313 -0.5095  1.1020  0.0557
 2033SOL    MW4 8207   1.783   1.953   3.399  0.0672 -0.0211 -0.0541
 2034SOL     OW 8208   2.013   2.070   3.490 -0.2382 -0.2812  0.4199
 2034SOL    HW2 8209   2.091   2.025   3.456  0.6494 -0.0089  2.0295
 2034SOL    HW3 8210   2.017   2.157   3.451  0.5104 -0.1236  0.8428
 2034SOL    MW4 8211   2.024   2.075   3.481 -0.0222 -0.2244  0.6881
 2035SOL     OW 8212   2.011   2.324   3.421 -0.4837  0.1457 -0.0008
 2035SOL    HW2 8213   2.090   2.372   3.444  0.8976 -1.1432 -1.8865
 2035SOL    HW3 8214   2.008   2.327   3.325 -2.4807 -0.2047  0.0325
 2035SOL    MW4 8215   2.021   2.331   3.411 -0.5648 -0.0703 -0.2451
 2036SOL     OW 8216   1.785   2.480   3.501  0.0290 -0.1338  0.3941
 2036SOL    HW2 8217   1.863   2.425   3.490  0.5815  0.9633 -1.5205
 2036SOL    HW3 8218   1.713   2.427   3.467  0.6365  0.4572 -1.9141
 2036SOL    MW4 8219   1.786   2.466   3.495  0.1820  0.0889 -0.1633
 2037SOL     OW 8220   1.854   2.704   3.368 -0.0564 -0.1234  0.0653
 2037SOL    HW2 8221   1.933   2.742   3.406  0.0978 -0.8200  0.4568
 2037SOL    HW3 8222   1.845   2.619   3.411 -0.3034 -0.6005 -0.9010
 2037SOL    MW4 8223   1.863   2.698   3.379 -0.0687 -0.2785 -0.0105
 2038SOL     OW 8224   2.063   2.856   3.481  0.8165  0.1773  0.2694
 2038SOL    HW2 8225   2.028   2.875   3.568  0.2379 -1.4886  0.4069
 2038SOL    HW3 8226   2.061   2.941   3.436 -0.0824  0.8004  1.4435
 2038SOL    MW4 8227   2.058   2.870   3.487  0.6213  0.0398  0.4425
 2039SOL     OW 8228   2.028   3.108   3.374  0.0010 -0.1340  0.2956
 2039SOL    HW2 8229   2.105   3.153   3.409 -0.2358 -0.9935  1.9715
 2039SOL    HW3 8230   1.954   3.159   3.407 -0.1964 -0.3141  0.1274
 2039SOL    MW4 8231   2.028   3.121   3.383 -0.0563 -0.2713  0.4945
 2040SOL     OW 8232   1.812   3.245   3.480  0.1191  0.2875  0.1981
 2040SOL    HW2 8233   1.804   3.229   3.574 -0.5953  0.4415  0.1656
 2040SOL    HW3 8234   1.826   3.339   3.473  0.9257  0.1729  0.1890
 2040SOL    MW4 8235   1.813   3.255   3.491  0.1311  0.2928  0.1926
 2041SOL     OW 8236   1.848   3.530   3.391  0.3738 -0.1740 -0.5558
 2041SOL    HW2 8237   1.775   3.578   3.430  1.1562  0.3726  0.2484
 2041SOL    HW3 8238   1.834   3.537   3.296  0.8577  2.2374 -0.4751
 2041SOL    MW4 8239   1.836   3.537   3.383  0.5410  0.2165 -0.4392
 2042SOL     OW 8240   2.038   3.659   3.544 -0.2557  0.2706  0.0138
 2042SOL    HW2 8241   2.115   3.609   3.516  0.0562  1.7710 -1.9555
 2042SOL    HW3 8242   1.964   3.614   3.504 -0.1948  0.1383  0.0488
 2042SOL    MW4 8243   2.038   3.646   3.535 -0.2065  0.4508 -0.2415
 2043SOL     OW 8244   1.997   3.870   3.382 -0.0513 -0.2959  0.3926
 2043SOL    HW2 8245   1.917   3.913   3.410 -0.4827 -0.1430 -1.0656
 2043SOL    HW3 8246   2.008   3.797   3.443 -1.1292 -0.1401  0.7735
 2043SOL    MW4 8247   1.988   3.866   3.394 -0.2505 -0.2551  0.2503
 2044SOL     OW 8248   1.764   4.002   3.458  0.0744 -0.4362 -0.1770
 2044SOL    HW2 8249   1.782   3.969   3.546 -0.0791  0.1302  0.0702
 2044SOL    HW3 8250   1.679   3.965   3.435  0.0051 -0.3939  0.0095
 2044SOL    MW4 8251   1.756   3.993   3.467  0.0449 -0.3560 -0.1199
 2045SOL     OW 8252   1.774   4.253   3.388 -0.3198 -0.1451  0.3770
 2045SOL    HW2 8253   1.759   4.165   3.422  0.1052 -0.8744 -1.2901
 2045SOL    HW3 8254   1.753   4.247   3.295  0.2660  1.3835  0.1269
 2045SOL    MW4 8255   1.769   4.241   3.380 -0.1866 -0.0396  0.1240
 2046SOL     OW 8256   2.029   4.337   3.457 -0.1628 -0.1139 -0.7078
 2046SOL    HW2 8257   1.945   4.298   3.433  0.4427 -0.8801 -1.6356
 2046SOL    HW3 8258   2.020   4.429   3.435 -0.8596 -0.1365 -0.5263
 2046SOL    MW4 8259   2.017   4.344   3.451 -0.1750 -0.2174 -0.8063
 2047SOL     OW 8260   2.532   4.628   3.375  0.0316  0.0608  0.1498
 2047SOL    HW2 8261   2.512   4.539   3.403 -0.2321  0.0595 -0.0379
 2047SOL    HW3 8262   2.513   4.628   3.281  1.0986  0.0072 -0.0658
 2047SOL    MW4 8263   2.527   4.616   3.366  0.1378  0.0534  0.0968
 2048SOL     OW 8264   2.263   0.064   3.501 -0.0459 -0.2822 -0.1285
 2048SOL    HW2 8265   2.248   0.154   3.470  0.0123  0.7727  2.7612
 2048SOL    HW3 8266   2.355   0.047   3.477  0.1410  0.6658 -0.1325
 2048SOL    MW4 8267   2.273   0.074   3.493 -0.0134 -0.0179  0.2522
 2049SOL     OW 8268   2.251   0.319   3.390 -0.1215 -0.0411  0.7427
 2049SOL    HW2 8269   2.317   0.379   3.424  0.2978 -0.6454  0.9918
 2049SOL    HW3 8270   2.168   0.354   3.423  0.3582 -1.1472  3.1645
 2049SOL    MW4 8271   2.249   0.332   3.399 -0.0029 -0.2668  1.0953
 2050SOL     OW 8272   2.448   0.475   3.486 -0.0182  0.2898  0.0494
 2050SOL    HW2 8273   2.529   0.440   3.449  1.5626  0.3802  3.2710
 2050SOL    HW3 8274   2.449   0.568   3.462  0.4651  0.1457 -0.5071
 2050SOL    MW4 8275   2.459   0.482   3.478  0.2539  0.2827  0.4013
 2051SOL     OW 8276   2.465   0.753   3.401 -0.3068 -0.1245 -0.2600
 2051SOL    HW2 8277   2.545   0.798   3.428 -0.3420  0.2805 -0.8260
 2051SOL    HW3 8278   2.459   0.770   3.307 -0.9180 -0.3749 -0.2652
 2051SOL    MW4 8279   2.475   0.761   3.392 -0.3924 -0.1041 -0.3355
 2052SOL     OW 8280   2.232   0.915   3.498  0.1179 -0.0536 -0.6686
 2052SOL    HW2 8281   2.255   1.002   3.466 -2.0406  0.0732 -1.9611
 2052SOL    HW3 8282   2.307   0.861   3.474  1.0763  1.2486 -0.6939
 2052SOL    MW4 8283   2.245   0.919   3.490 -0.0405  0.1349 -0.8423
 2053SOL     OW 8284   2.295   1.164   3.405  0.0407  0.3358  0.1818
 2053SOL    HW2 8285   2.370   1.217   3.431 -0.7126  2.0277 -1.0195
 2053SOL    HW3 8286   2.218   1.219   3.422 -0.8426 -0.8084  0.0214
 2053SOL    MW4 8287   2.294   1.178   3.410 -0.1752  0.4078  0.0019
 2054SOL     OW 8288   2.531   1.284   3.475 -0.0541 -0.3277 -0.1769
 2054SOL    HW2 8289   2.530   1.289   3.571  0.8296 -1.1966 -0.1233
 2054SOL    HW3 8290   2.602   1.224   3.454 -1.9740 -2.3005 -1.2869
 2054SOL    MW4 8291   2.540   1.277   3.485 -0.1910 -0.7027 -0.3161
 2055SOL     OW 8292   2.509   1.555   3.410 -0.0459  0.2741  0.0369
 2055SOL    HW2 8293   2.521   1.462   3.430  0.4425  0.4163  0.4037
 2055SOL    HW3 8294   2.488   1.556   3.316 -1.2828 -0.2961  0.2940
 2055SOL    MW4 8295   2.508   1.543   3.400 -0.1450  0.2176  0.1190
 2056SOL     OW 8296   2.264   1.696   3.504 -0.4277  0.3018 -0.6832
 2056SOL    HW2 8297   2.256   1.682   3.599 -1.1426  0.0911 -0.7680
 2056SOL    HW3 8298   2.343   1.648   3.479  0.2164  1.0353 -0.0590
 2056SOL    MW4 8299   2.273   1.687   3.514 -0.4370  0.3707 -0.6123
 2057SOL     OW 8300   2.241   1.953   3.389 -0.0726  0.3853 -0.4518
 2057SOL    HW2 8301   2.237   1.865   3.426 -1.1147  0.7203  0.2362
 2057SOL    HW3 8302   2.211   1.942   3.298 -2.0142  0.3149  0.1676
 2057SOL    MW4 8303   2.236   1.940   3.382 -0.4659  0.4201 -0.2794
 2058SOL     OW 8304   2.465   2.058   3.496  0.5719  0.3577 -0.5014
 2058SOL    HW2 8305   2.474   2.028   3.586  1.0515  0.9716 -0.3446
 2058SOL    HW3 8306   2.380   2.024   3.468  0.3757  0.2555  0.2159
 2058SOL    MW4 8307   2.455   2.049   3.504  0.6099  0.4251 -0.3860
 2059SOL     OW 8308   2.436   2.333   3.371  0.0777 -0.2597 -0.1839
 2059SOL    HW2 8309   2.517   2.372   3.406 -0.0296 -0.3554  0.1730
 2059SOL    HW3 8310   2.433   2.246   3.410 -1.0487  0.3490  1.0990
 2059SOL    MW4 8311   2.446   2.327   3.381 -0.0854 -0.1922  0.0327
 2060SOL     OW 8312   2.241   2.486   3.489  0.2642  0.0076 -0.5432
 2060SOL    HW2 8313   2.276   2.569   3.456  0.6201  0.5185  1.0781
 2060SOL    HW3 8314   2.297   2.419   3.449 -0.0811  0.5227 -1.9360
 2060SOL    MW4 8315   2.253   2.488   3.479  0.2658  0.1428 -0.5133
 2061SOL     OW 8316   2.281   2.747   3.368  0.3135 -0.1219  0.0321
 2061SOL    HW2 8317   2.206   2.790   3.408 -0.8464 -0.0031 -2.1897
 2061SOL    HW3 8318   2.259   2.741   3.275  3.0249 -0.1426 -0.6601
 2061SOL    MW4 8319   2.268   2.752   3.361  0.5186 -0.1092 -0.3524
 2062SOL     OW 8320   2.485   2.887   3.486 -0.3362 -0.5428 -0.1756
 2062SOL    HW2 8321   2.488   2.878   3.581 -1.5726 -0.8083 -0.1633
 2062SOL    HW3 8322   2.401   2.849   3.460 -0.7794  1.0963 -1.2178
 2062SOL    MW4 8323   2.475   2.881   3.495 -0.5577 -0.3614 -0.3116
 2063SOL     OW 8324   2.507   3.127   3.374 -0.1634 -0.1033 -0.2651
 2063SOL    HW2 8325   2.590   3.163   3.405 -0.8630  1.2903  0.0011
 2063SOL    HW3 8326   2.515   3.033   3.390  1.4631 -0.0103 -0.4789
 2063SOL    MW4 8327   2.519   3.119   3.381 -0.0408  0.0927 -0.2582
 2064SOL     OW 8328   2.262   3.222   3.493  0.2483 -0.1924 -0.0666
 2064SOL    HW2 8329   2.268   3.209   3.588  0.7881 -0.1836 -0.0954
 2064SOL    HW3 8330   2.345   3.188   3.460 -0.2803 -0.9685 -0.6221
 2064SOL    MW4 8331   2.274   3.216   3.501  0.2499 -0.2937 -0.1438
 2065SOL     OW 8332   2.249   3.509   3.449 -0.2678  0.3160 -0.5693
 2065SOL    HW2 8333   2.247   3.419   3.483  0.1659  1.1942  1.8775
 2065SOL    HW3 8334   2.252   3.498   3.354  0.9403 -2.2832 -0.2877
 2065SOL    MW4 8335   2.249   3.496   3.441 -0.0510  0.0887 -0.2091
 2066SOL     OW 8336   2.504   3.611   3.497 -0.0532  0.3276 -0.3458
 2066SOL    HW2 8337   2.515   3.694   3.450  0.2641  0.4275 -0.1000
 2066SOL    HW3 8338   2.411   3.590   3.487 -0.5763  1.7341  1.2611
 2066SOL    MW4 8339   2.493   3.619   3.490 -0.0803  0.5264 -0.1013
 2067SOL     OW 8340   2.507   3.858   3.352  0.0342  0.4564 -0.1730
 2067SOL    HW2 8341   2.580   3.905   3.391  0.2477 -0.9467  1.1600
 2067SOL    HW3 8342   2.429   3.890   3.398  0.1598 -0.3496  0.6065
 2067SOL    MW4 8343   2.506   3.868   3.363  0.0789  0.1647  0.1056
 2068SOL     OW 8344   2.255   3.961   3.479 -0.8087 -0.3618 -0.5239
 2068SOL    HW2 8345   2.260   4.048   3.441 -1.9359  0.1630  0.4829
 2068SOL    HW3 8346   2.170   3.927   3.449 -0.1059 -1.3487 -1.4084
 2068SOL    MW4 8347   2.244   3.968   3.470 -0.8647 -0.4230 -0.5076
 2069SOL     OW 8348   2.257   4.218   3.360  0.3251  0.0047  0.0512
 2069SOL    HW2 8349   2.184   4.269   3.394  0.5556  0.0913  0.4169
 2069SOL    HW3 8350   2.257   4.234   3.265  0.9209  1.3424  0.2767
 2069SOL    MW4 8351   2.248   4.227   3.352  0.4342  0.1922  0.1292
 2070SOL     OW 8352   2.467   4.380   3.470 -0.4582 -0.1269 -0.1065
 2070SOL    HW2 8353   2.455   4.376   3.564 -0.7006 -0.5333 -0.1526
 2070SOL    HW3 8354   2.392   4.333   3.434 -1.0132  1.0891 -0.5426
 2070SOL    MW4 8355   2.456   4.373   3.477 -0.5634 -0.0200 -0.1700
 2071SOL     OW 8356   2.939   0.025   3.395  0.0770 -0.6664 -0.1317
 2071SOL    HW2 8357   2.855   0.049   3.434  1.3532  2.2154  0.9718
 2071SOL    HW3 8358   2.923   0.025   3.301 -1.0416  0.4848  0.0454
 2071SOL    MW4 8359   2.926   0.028   3.388  0.0978 -0.1343  0.0374
 2072SOL     OW 8360   2.710   0.124   3.517  0.2374 -0.0119 -0.1040
 2072SOL    HW2 8361   2.693   0.212   3.485  0.1590 -0.1110 -0.3335
 2072SOL    HW3 8362   2.639   0.071   3.481  1.0710 -0.4461 -1.1427
 2072SOL    MW4 8363   2.698   0.129   3.508  0.3371 -0.0823 -0.2713
 2073SOL     OW 8364   2.690   0.380   3.393  0.3027 -0.2607 -0.1604
 2073SOL    HW2 8365   2.769   0.420   3.428 -0.3926  1.4409 -0.4913
 2073SOL    HW3 8366   2.702   0.384   3.298 -0.7454  1.2180 -0.2487
 2073SOL    MW4 8367   2.702   0.386   3.385  0.0727  0.1588 -0.2158
 2074SOL     OW 8368   2.913   0.480   3.515 -0.2407  0.1938  0.0757
 2074SOL    HW2 8369   2.897   0.494   3.608 -0.2771  0.3682  0.0429
 2074SOL    HW3 8370   2.910   0.568   3.476  0.2460  0.1724 -0.0159
 2074SOL    MW4 8371   2.911   0.494   3.522 -0.1810  0.2140  0.0594
 2075SOL     OW 8372   2.919   0.734   3.381  0.4344  0.2785 -0.3304
 2075SOL    HW2 8373   2.992   0.777   3.427  0.3006 -1.1666  1.2864
 2075SOL    HW3 8374   2.841   0.781   3.411  0.4648  0.1587 -0.0627
 2075SOL    MW4 8375   2.919   0.746   3.391  0.4208  0.0721 -0.0820
 2076SOL     OW 8376   2.702   0.872   3.469 -0.1247 -0.3525  0.2850
 2076SOL    HW2 8377   2.718   0.896   3.560 -2.8659  0.2682  0.6400
 2076SOL    HW3 8378   2.681   0.955   3.426  0.3775 -0.7508 -0.7220
 2076SOL    MW4 8379   2.701   0.886   3.475 -0.4199 -0.3232  0.1988
 2077SOL     OW 8380   2.715   1.115   3.367  0.1063 -0.1727 -0.0524
 2077SOL    HW2 8381   2.792   1.160   3.401  0.9286 -0.7029 -1.1729
 2077SOL    HW3 8382   2.724   1.122   3.272 -0.5244 -1.4042 -0.2099
 2077SOL    MW4 8383   2.727   1.122   3.359  0.1316 -0.4052 -0.2210
 2078SOL     OW 8384   2.926   1.281   3.449  0.0373 -0.5404 -0.2990
 2078SOL    HW2 8385   2.938   1.286   3.544  1.9821  0.7600 -0.5692
 2078SOL    HW3 8386   2.998   1.227   3.418 -1.3362 -2.0417 -0.9223
 2078SOL    MW4 8387   2.937   1.275   3.457  0.1125 -0.5670 -0.4172
 2079SOL     OW 8388   2.922   1.539   3.375 -0.1522  0.1090 -0.4331
 2079SOL    HW2 8389   2.853   1.580   3.426  0.4946  0.8157 -0.1189
 2079SOL    HW3 8390   2.917   1.446   3.397  0.5682  0.5028  1.4536
 2079SOL    MW4 8391   2.912   1.532   3.385  0.0281  0.2542 -0.1428
 2080SOL     OW 8392   2.740   1.676   3.509  0.1465  0.0611  0.1853
 2080SOL    HW2 8393   2.722   1.765   3.478  0.5924 -0.3213 -1.2424
 2080SOL    HW3 8394   2.670   1.623   3.472  0.8811 -0.4653 -0.4728
 2080SOL    MW4 8395   2.728   1.681   3.500  0.3021 -0.0588 -0.0899
 2081SOL     OW 8396   2.684   1.915   3.393  0.0042 -0.2737  0.1966
 2081SOL    HW2 8397   2.609   1.966   3.423  0.3930  0.7342 -0.5328
 2081SOL    HW3 8398   2.676   1.915   3.298  0.8394 -0.3150  0.1245
 2081SOL    MW4 8399   2.673   1.922   3.384  0.1657 -0.1462  0.0906
 2082SOL     OW 8400   2.901   2.076   3.500 -0.0913 -0.2763 -0.1243
 2082SOL    HW2 8401   2.906   2.058   3.594 -0.5687 -0.8274 -0.2010
 2082SOL    HW3 8402   2.831   2.019   3.468  1.0033 -1.1353 -1.0630
 2082SOL    MW4 8403   2.893   2.066   3.508 -0.0100 -0.4623 -0.2584
 2083SOL     OW 8404   2.921   2.326   3.391 -0.5890  0.1418  0.0059
 2083SOL    HW2 8405   2.903   2.244   3.438 -0.0018  0.3835  0.6595
 2083SOL    HW3 8406   2.915   2.302   3.298  1.4539 -1.0831  0.1462
 2083SOL    MW4 8407   2.918   2.312   3.385 -0.2418  0.0119  0.1109
 2084SOL     OW 8408   2.680   2.453   3.468 -0.2787  0.2249 -0.1023
 2084SOL    HW2 8409   2.676   2.432   3.561  0.4398  0.3637 -0.0400
 2084SOL    HW3 8410   2.754   2.402   3.435 -0.5698  0.1248 -0.6112
 2084SOL    MW4 8411   2.689   2.443   3.476 -0.2222  0.2303 -0.1612
 2085SOL     OW 8412   2.692   2.752   3.378  0.0936 -0.3552  0.0783
 2085SOL    HW2 8413   2.694   2.658   3.398 -1.1782 -0.5744 -0.7608
 2085SOL    HW3 8414   2.616   2.785   3.425 -1.0254 -0.2614 -1.7842
 2085SOL    MW4 8415   2.683   2.744   3.387 -0.2220 -0.3719 -0.2785
 2086SOL     OW 8416   2.926   2.828   3.505  0.3008  0.4622  0.4574
 2086SOL    HW2 8417   2.918   2.812   3.599 -0.1177  1.9424  0.6719
 2086SOL    HW3 8418   2.850   2.785   3.467  1.0314 -1.0744  0.6632
 2086SOL    MW4 8419   2.915   2.820   3.513  0.3419  0.4547  0.5128
 2087SOL     OW 8420   2.949   3.085   3.390  0.2153  0.1507 -0.2243
 2087SOL    HW2 8421   2.957   2.993   3.416  0.2542 -0.0845 -1.0459
 2087SOL    HW3 8422   2.944   3.082   3.295 -0.2089  0.9748 -0.2294
 2087SOL    MW4 8423   2.950   3.072   3.381  0.1643  0.2284 -0.3333
 2088SOL     OW 8424   2.744   3.219   3.519  0.0344 -0.7113 -0.4138
 2088SOL    HW2 8425   2.736   3.189   3.609  0.1508  0.8127  0.1196
 2088SOL    HW3 8426   2.816   3.168   3.483  2.4882  1.2619  1.4944
 2088SOL    MW4 8427   2.752   3.209   3.526  0.3736 -0.2501 -0.0918
 2089SOL     OW 8428   2.702   3.464   3.352  0.3357  0.4761 -0.1011
 2089SOL    HW2 8429   2.725   3.395   3.415 -0.7040  0.5952  0.4300
 2089SOL    HW3 8430   2.636   3.516   3.398 -0.8255  0.2602 -1.4836
 2089SOL    MW4 8431   2.696   3.462   3.367  0.0451  0.4635 -0.2134
 2090SOL     OW 8432   2.886   3.601   3.511 -0.2382  0.1465 -0.3154
 2090SOL    HW2 8433   2.911   3.683   3.468  0.5413  0.5828  0.9285
 2090SOL    HW3 8434   2.816   3.566   3.457 -0.2751  1.4145 -1.1149
 2090SOL    MW4 8435   2.880   3.607   3.498 -0.1400  0.3715 -0.2568
 2091SOL     OW 8436   2.927   3.861   3.430 -0.1228  0.2465  0.0733
 2091SOL    HW2 8437   3.005   3.899   3.470 -0.3087 -0.4985  1.1667
 2091SOL    HW3 8438   2.857   3.924   3.449 -0.1298  0.0877  0.5756
 2091SOL    MW4 8439   2.928   3.874   3.438 -0.1483  0.1273  0.2840
 2092SOL     OW 8440   2.689   4.004   3.480  0.0783 -0.1644  0.1252
 2092SOL    HW2 8441   2.673   4.021   3.573  2.9340 -0.8803  0.7899
 2092SOL    HW3 8442   2.704   4.091   3.443  1.9287 -0.1027  0.9639
 2092SOL    MW4 8443   2.689   4.018   3.488  0.6995 -0.2503  0.3235
 2093SOL     OW 8444   2.715   4.274   3.372  0.0947 -0.1440 -0.2284
 2093SOL    HW2 8445   2.781   4.331   3.412  0.1985  0.1623 -0.8167
 2093SOL    HW3 8446   2.632   4.302   3.410  0.2228 -0.0215 -0.0402
 2093SOL    MW4 8447   2.713   4.285   3.382  0.1254 -0.0873 -0.2816
 2094SOL     OW 8448   2.917   4.416   3.479  0.2722 -0.3747  0.0058
 2094SOL    HW2 8449   2.909   4.409   3.574 -0.8789  0.2251 -0.0465
 2094SOL    HW3 8450   2.925   4.510   3.462 -1.4457 -0.3333 -0.6322
 2094SOL    MW4 8451   2.917   4.427   3.490 -0.1063 -0.2904 -0.0851
 2095SOL     OW 8452   3.387   4.621   3.392 -0.4984  0.3273 -0.0220
 2095SOL    HW2 8453   3.321   4.668   3.442 -1.1697  0.1294 -0.7078
 2095SOL    HW3 8454   3.371   4.647   3.301 -0.4642 -0.7037 -0.3291
 2095SOL    MW4 8455   3.376   4.630   3.386 -0.5827  0.1652 -0.1533
 2096SOL     OW 8456   3.174   0.096   3.533  0.2898 -0.1326 -0.6636
 2096SOL    HW2 8457   3.193   0.189   3.520  0.1011 -0.1914 -1.3497
 2096SOL    HW3 8458   3.087   0.084   3.495 -0.8521 -0.0102  1.8155
 2096SOL    MW4 8459   3.165   0.107   3.526  0.1142 -0.1242 -0.4270
 2097SOL     OW 8460   3.172   0.357   3.461 -0.3912 -0.3433  0.2377
 2097SOL    HW2 8461   3.085   0.392   3.483  0.0260  2.0492 -1.8168
 2097SOL    HW3 8462   3.170   0.343   3.367  1.3453 -0.6161  0.2223
 2097SOL    MW4 8463   3.160   0.359   3.452 -0.1070 -0.0636 -0.0358
 2098SOL     OW 8464   3.410   0.497   3.512  0.1609 -0.2328 -0.2064
 2098SOL    HW2 8465   3.410   0.505   3.607  1.2834 -0.5023 -0.1849
 2098SOL    HW3 8466   3.321   0.469   3.490  0.0351 -0.6177  0.7995
 2098SOL    MW4 8467   3.398   0.494   3.521  0.2925 -0.3191 -0.0708
 2099SOL     OW 8468   3.398   0.752   3.394 -0.3821  0.2542  0.5269
 2099SOL    HW2 8469   3.457   0.806   3.446 -0.0488 -0.1050  0.5242
 2099SOL    HW3 8470   3.407   0.664   3.432 -0.1423 -0.0066 -0.1298
 2099SOL    MW4 8471   3.407   0.747   3.406 -0.3064  0.1724  0.4401
 2100SOL     OW 8472   3.147   0.878   3.491  0.1763 -0.0853  0.2695
 2100SOL    HW2 8473   3.145   0.955   3.434 -0.5438  0.1888  0.6488
 2100SOL    HW3 8474   3.226   0.831   3.466  1.1450  1.2839  0.6931
 2100SOL    MW4 8475   3.157   0.882   3.480  0.2091  0.1315  0.3755
 2101SOL     OW 8476   3.141   1.145   3.349  0.0681 -0.1682 -0.2643
 2101SOL    HW2 8477   3.217   1.186   3.390  0.0401 -0.0643 -0.3195
 2101SOL    HW3 8478   3.157   1.150   3.255  0.4003 -0.9190 -0.2512
 2101SOL    MW4 8479   3.153   1.151   3.342  0.1080 -0.2536 -0.2701
 2102SOL     OW 8480   3.370   1.284   3.456 -0.7385  0.2783 -0.4221
 2102SOL    HW2 8481   3.449   1.235   3.434 -0.1965 -0.1281  2.2050
 2102SOL    HW3 8482   3.382   1.370   3.418  0.3478 -0.2294 -1.2338
 2102SOL    MW4 8483   3.382   1.289   3.448 -0.5236  0.1577 -0.1826
 2103SOL     OW 8484   3.401   1.532   3.371 -0.1839  0.0179 -0.3014
 2103SOL    HW2 8485   3.480   1.572   3.407  0.6627 -0.8715 -1.1630
 2103SOL    HW3 8486   3.331   1.593   3.394  0.6408  0.4664  1.0745
 2103SOL    MW4 8487   3.402   1.545   3.379  0.0367 -0.0402 -0.2337
 2104SOL     OW 8488   3.163   1.665   3.448  0.2060  0.2524  0.1560
 2104SOL    HW2 8489   3.135   1.756   3.440 -0.5864  0.1558  1.6812
 2104SOL    HW3 8490   3.086   1.614   3.425  0.5863 -0.0495 -0.4748
 2104SOL    MW4 8491   3.149   1.670   3.444  0.1519  0.1997  0.2739
 2105SOL     OW 8492   3.133   1.947   3.432  0.1097 -0.1535  0.1403
 2105SOL    HW2 8493   3.049   1.988   3.454  0.3292  0.0248  0.6543
 2105SOL    HW3 8494   3.141   1.958   3.337 -0.2235  0.2490  0.1588
 2105SOL    MW4 8495   3.123   1.954   3.423  0.0947 -0.0768  0.2105
 2106SOL     OW 8496   3.350   2.051   3.533  0.5597 -0.1009  0.0797
 2106SOL    HW2 8497   3.376   2.119   3.470  1.0471 -0.0235  0.3626
 2106SOL    HW3 8498   3.264   2.022   3.503  0.8065 -0.0957 -0.6582
 2106SOL    MW4 8499   3.342   2.056   3.520  0.6568 -0.0899  0.0198
 2107SOL     OW 8500   3.390   2.273   3.349  0.3903 -0.3138  0.1038
 2107SOL    HW2 8501   3.461   2.334   3.370  1.2224 -1.2637  0.0979
 2107SOL    HW3 8502   3.311   2.316   3.383  1.1683  0.0613  1.4841
 2107SOL    MW4 8503   3.389   2.287   3.357  0.6032 -0.3898  0.2851
 2108SOL     OW 8504   3.173   2.426   3.473  0.4841 -0.0802  0.2043
 2108SOL    HW2 8505   3.161   2.517   3.445  1.4248  0.3923  1.3089
 2108SOL    HW3 8506   3.094   2.382   3.444  1.2192  0.4722 -2.8540
 2108SOL    MW4 8507   3.161   2.432   3.465  0.7055  0.0548 -0.0536
 2109SOL     OW 8508   3.151   2.688   3.385  0.1513 -0.0360  0.2403
 2109SOL    HW2 8509   3.218   2.738   3.432 -0.5791 -0.0422  1.3053
 2109SOL    HW3 8510   3.068   2.728   3.413 -0.2461  0.8533 -2.0787
 2109SOL    MW4 8511   3.149   2.700   3.395  0.0026  0.0803  0.0749
 2110SOL     OW 8512   3.365   2.845   3.470  0.0290 -0.7601  0.3554
 2110SOL    HW2 8513   3.358   2.860   3.564 -1.7593  0.1407  0.0961
 2110SOL    HW3 8514   3.368   2.933   3.432  1.5294 -1.1096 -0.3950
 2110SOL    MW4 8515   3.364   2.859   3.478 -0.0088 -0.6876  0.2224
 2111SOL     OW 8516   3.329   3.118   3.380 -0.0926 -0.3934  0.0771
 2111SOL    HW2 8517   3.410   3.164   3.403 -0.2242 -0.1189 -0.0050
 2111SOL    HW3 8518   3.268   3.141   3.450  0.2650 -1.5846  0.7963
 2111SOL    MW4 8519   3.332   3.127   3.392 -0.0629 -0.5145  0.1612
 2112SOL     OW 8520   3.128   3.257   3.548  0.1847  0.1823 -0.4064
 2112SOL    HW2 8521   3.147   3.346   3.518  1.5800 -0.7109 -2.2701
 2112SOL    HW3 8522   3.070   3.221   3.481 -0.8056 -0.1422  0.6141
 2112SOL    MW4 8523   3.123   3.264   3.536  0.2382  0.0215 -0.5176
 2113SOL     OW 8524   3.136   3.508   3.417  0.0953 -0.1905 -0.1456
 2113SOL    HW2 8525   3.059   3.544   3.462 -0.3471 -1.3955  0.1042
 2113SOL    HW3 8526   3.126   3.534   3.326  0.7144  1.8132  0.3464
 2113SOL    MW4 8527   3.124   3.516   3.411  0.1187 -0.0851 -0.0477
 2114SOL     OW 8528   3.377   3.614   3.537  0.1501 -0.1276  0.1171
 2114SOL    HW2 8529   3.386   3.704   3.506  0.7303 -0.1598  0.1888
 2114SOL    HW3 8530   3.290   3.587   3.506  0.1363  0.3170 -0.2469
 2114SOL    MW4 8531   3.366   3.622   3.529  0.2246 -0.0734  0.0784
 2115SOL     OW 8532   3.386   3.872   3.464 -0.2749  0.0956  0.5749
 2115SOL    HW2 8533   3.462   3.918   3.501 -0.3709  0.2021  0.6388
 2115SOL    HW3 8534   3.311   3.923   3.493 -0.4157 -0.3965  1.0835
 2115SOL    MW4 8535   3.386   3.885   3.473 -0.3061  0.0446  0.6506
 2116SOL     OW 8536   3.148   4.006   3.518  0.1359 -0.1179  0.2074
 2116SOL    HW2 8537   3.129   4.004   3.612 -2.5481  1.6800 -0.2262
 2116SOL    HW3 8538   3.135   4.097   3.492  1.7491 -0.4077 -1.7485
 2116SOL    MW4 8539   3.144   4.017   3.527 -0.0055  0.0806 -0.1080
 2117SOL     OW 8540   3.145   4.264   3.423 -0.0523 -0.3066  0.3185
 2117SOL    HW2 8541   3.213   4.313   3.469 -0.2980  0.1898  0.1538
 2117SOL    HW3 8542   3.069   4.322   3.421 -0.3530 -0.6960  0.1362
 2117SOL    MW4 8543   3.144   4.278   3.428 -0.1247 -0.2923  0.2725
 2118SOL     OW 8544   3.347   4.409   3.539  0.0645 -0.1873  0.1449
 2118SOL    HW2 8545   3.357   4.443   3.627 -0.9423 -1.1756  0.6531
 2118SOL    HW3 8546   3.362   4.484   3.482  1.9202  0.1878  1.1055
 2118SOL    MW4 8547   3.350   4.423   3.543  0.1764 -0.2685  0.3388
 2119SOL     OW 8548   3.846   4.593   3.416  0.4088  0.2351 -0.2055
 2119SOL    HW2 8549   3.774   4.639   3.459 -0.3181 -1.0430 -0.0445
 2119SOL    HW3 8550   3.823   4.593   3.324  0.0721 -0.4198 -0.1188
 2119SOL    MW4 8551   3.834   4.599   3.410  0.2682 -0.0200 -0.1729
 2120SOL     OW 8552   3.630   0.070   3.525 -0.8010 -0.5761  0.0748
 2120SOL    HW2 8553   3.643   0.159   3.494 -0.1766 -1.5308 -2.4602
 2120SOL    HW3 8554   3.543   0.045   3.493 -1.3163 -0.6268  1.4578
 2120SOL    MW4 8555   3.620   0.079   3.517 -0.7865 -0.7088 -0.0770
 2121SOL     OW 8556   3.627   0.334   3.431 -0.1877  0.3534 -0.2885
 2121SOL    HW2 8557   3.702   0.393   3.439 -0.1888  0.5407 -1.6342
 2121SOL    HW3 8558   3.554   0.384   3.467  0.2101  0.3828  0.5041
 2121SOL    MW4 8559   3.627   0.349   3.437 -0.1354  0.3819 -0.3612
 2122SOL     OW 8560   3.847   0.501   3.497 -0.2750 -0.3208 -0.7523
 2122SOL    HW2 8561   3.839   0.527   3.589 -0.5979  0.9103 -1.1132
 2122SOL    HW3 8562   3.923   0.442   3.495 -0.8190 -1.0817  0.4440
 2122SOL    MW4 8563   3.856   0.497   3.509 -0.3896 -0.2588 -0.6421
 2123SOL     OW 8564   3.832   0.768   3.385 -0.6289  0.4861  1.0230
 2123SOL    HW2 8565   3.905   0.812   3.429  0.2597  0.0816 -0.0168
 2123SOL    HW3 8566   3.842   0.676   3.410 -0.5531  0.3709  0.5745
 2123SOL    MW4 8567   3.843   0.762   3.394 -0.5016  0.4175  0.8266
 2124SOL     OW 8568   3.605   0.904   3.488 -0.1345 -0.5809  0.7843
 2124SOL    HW2 8569   3.604   0.906   3.584  2.2880  0.6942  0.8119
 2124SOL    HW3 8570   3.679   0.848   3.466 -0.3604 -0.4371 -0.3563
 2124SOL    MW4 8571   3.615   0.897   3.498  0.1554 -0.3936  0.6378
 2125SOL     OW 8572   3.605   1.173   3.378  0.0955  0.2882  0.0500
 2125SOL    HW2 8573   3.598   1.085   3.415 -2.9384  1.1175  1.5981
 2125SOL    HW3 8574   3.595   1.160   3.284  0.3481 -1.0914  0.2008
 2125SOL    MW4 8575   3.603   1.159   3.371 -0.2713  0.2156  0.2742
 2126SOL     OW 8576   3.817   1.302   3.517 -0.4033  0.1630 -0.4747
 2126SOL    HW2 8577   3.797   1.295   3.610  0.1342  1.4778 -0.2533
 2126SOL    HW3 8578   3.750   1.249   3.474 -0.6531 -0.4501  0.6513
 2126SOL    MW4 8579   3.806   1.294   3.524 -0.3653  0.2555 -0.2966
 2127SOL     OW 8580   3.848   1.561   3.437 -0.3157 -0.2870  0.1715
 2127SOL    HW2 8581   3.931   1.590   3.475  0.1170 -1.0772 -0.1523
 2127SOL    HW3 8582   3.843   1.468   3.459 -0.9847 -0.3022 -0.0425
 2127SOL    MW4 8583   3.858   1.553   3.445 -0.3471 -0.3932  0.1006
 2128SOL     OW 8584   3.595   1.661   3.516  0.0108 -0.0270  0.2731
 2128SOL    HW2 8585   3.597   1.754   3.493 -0.2824 -0.6556 -2.5824
 2128SOL    HW3 8586   3.682   1.628   3.491 -0.0995 -0.6272  0.6703
 2128SOL    MW4 8587   3.607   1.669   3.510 -0.0424 -0.1892 -0.0515
 2129SOL     OW 8588   3.592   1.916   3.440 -0.2099  0.0109 -0.0282
 2129SOL    HW2 8589   3.663   1.969   3.476  0.5695 -0.3244 -1.0582
 2129SOL    HW3 8590   3.513   1.954   3.478  0.4234  1.1967  0.1395
 2129SOL    MW4 8591   3.591   1.928   3.449 -0.0236  0.1231 -0.1421
 2130SOL     OW 8592   3.801   2.071   3.563 -0.7969 -0.0057 -0.2503
 2130SOL    HW2 8593   3.816   2.052   3.656 -0.8524  1.1473 -0.0002
 2130SOL    HW3 8594   3.863   2.014   3.517 -0.5349 -0.3387  0.5013
 2130SOL    MW4 8595   3.811   2.061   3.569 -0.7696  0.1025 -0.1180
 2131SOL     OW 8596   3.818   2.300   3.403 -0.3383 -0.2486 -0.4034
 2131SOL    HW2 8597   3.882   2.357   3.445  0.5904 -0.5815 -1.3597
 2131SOL    HW3 8598   3.811   2.225   3.462 -1.5858  0.8422  0.8763
 2131SOL    MW4 8599   3.825   2.298   3.416 -0.3805 -0.1485 -0.3607
 2132SOL     OW 8600   3.581   2.443   3.437  0.0982  0.3043  0.4021
 2132SOL    HW2 8601   3.588   2.538   3.429 -0.8758  0.2276 -1.7783
 2132SOL    HW3 8602   3.667   2.410   3.411 -0.5565  0.4789 -2.1646
 2132SOL    MW4 8603   3.593   2.451   3.432 -0.1168  0.3171 -0.2239
 2133SOL     OW 8604   3.590   2.712   3.371  0.3191 -0.1711 -0.3366
 2133SOL    HW2 8605   3.501   2.735   3.395  0.4347  0.5364 -0.5729
 2133SOL    HW3 8606   3.588   2.700   3.276  0.7241  1.0291 -0.5069
 2133SOL    MW4 8607   3.578   2.713   3.362  0.3877  0.0806 -0.3903
 2134SOL     OW 8608   3.818   2.800   3.504 -0.0036 -0.2244  0.0340
 2134SOL    HW2 8609   3.741   2.775   3.452 -0.5141 -0.8086  1.0628
 2134SOL    HW3 8610   3.783   2.818   3.591  1.2061 -1.9175  0.8905
 2134SOL    MW4 8611   3.803   2.799   3.508  0.0885 -0.5248  0.2828
 2135SOL     OW 8612   3.819   3.051   3.370 -0.2456  0.1286  0.3624
 2135SOL    HW2 8613   3.899   3.099   3.392 -0.1172 -0.6350  1.5949
 2135SOL    HW3 8614   3.825   2.970   3.421 -1.9589  0.2155  0.7065
 2135SOL    MW4 8615   3.831   3.047   3.379 -0.4547  0.0393  0.5703
 2136SOL     OW 8616   3.587   3.225   3.452  0.2338  0.4208 -0.4964
 2136SOL    HW2 8617   3.607   3.317   3.434 -1.0332  0.8691  0.3451
 2136SOL    HW3 8618   3.659   3.177   3.411  0.0251  1.6935 -2.4212
 2136SOL    MW4 8619   3.599   3.231   3.444  0.0393  0.6478 -0.6392
 2137SOL     OW 8620   3.602   3.495   3.420  0.1180 -0.5764 -0.4214
 2137SOL    HW2 8621   3.524   3.545   3.444  0.5979 -0.4256  0.8801
 2137SOL    HW3 8622   3.604   3.496   3.324 -0.5546  0.8325 -0.4198
 2137SOL    MW4 8623   3.592   3.502   3.411  0.0925 -0.3707 -0.2496
 2138SOL     OW 8624   3.824   3.584   3.528  0.0685  0.7668  0.2480
 2138SOL    HW2 8625   3.807   3.573   3.621  0.7169 -0.9180  0.1717
 2138SOL    HW3 8626   3.740   3.567   3.486  0.3463 -0.9351  0.3559
 2138SOL    MW4 8627   3.811   3.581   3.535  0.1907  0.3202  0.2525
 2139SOL     OW 8628   3.838   3.855   3.412 -0.3304  0.0548 -0.0507
 2139SOL    HW2 8629   3.777   3.907   3.464 -1.8555 -2.0749  0.3547
 2139SOL    HW3 8630   3.837   3.768   3.453  2.0745 -0.3537 -0.7698
 2139SOL    MW4 8631   3.830   3.850   3.424 -0.2143 -0.2804 -0.0923
 2140SOL     OW 8632   3.635   4.010   3.520 -0.2078  0.0713  0.0015
 2140SOL    HW2 8633   3.622   4.009   3.615  0.7794  1.4449  0.1778
 2140SOL    HW3 8634   3.601   4.095   3.492  2.9332  1.3182 -0.3098
 2140SOL    MW4 8635   3.629   4.021   3.529  0.3366  0.4177 -0.0165
 2141SOL     OW 8636   3.575   4.266   3.433  0.1388 -0.6776  0.3098
 2141SOL    HW2 8637   3.500   4.315   3.467  1.3220  0.7888  0.8800
 2141SOL    HW3 8638   3.567   4.274   3.338 -0.4197 -0.5060  0.3682
 2141SOL    MW4 8639   3.564   4.274   3.425  0.2213 -0.4621  0.3929
 2142SOL     OW 8640   3.821   4.346   3.525 -0.1479 -0.3333 -0.0311
 2142SOL    HW2 8641   3.734   4.312   3.504  0.3693 -0.6740 -1.6605
 2142SOL    HW3 8642   3.827   4.429   3.478  0.3782 -0.2755  0.1318
 2142SOL    MW4 8643   3.810   4.353   3.516 -0.0098 -0.3710 -0.2246
 2143SOL     OW 8644   4.277   4.607   3.394 -0.5171 -0.0996  0.1474
 2143SOL    HW2 8645   4.273   4.519   3.431 -0.5949  0.4765  1.5557
 2143SOL    HW3 8646   4.346   4.651   3.443 -1.8495  1.2456  0.8655
 2143SOL    MW4 8647   4.285   4.601   3.405 -0.7033  0.1540  0.4282
 2144SOL     OW 8648   4.067   0.085   3.489  0.7249 -0.2639  0.0462
 2144SOL    HW2 8649   4.147   0.043   3.458  0.2058 -2.2017  1.2364
 2144SOL    HW3 8650   3.997   0.029   3.458 -0.0874  0.5714  0.3544
 2144SOL    MW4 8651   4.069   0.072   3.481  0.5498 -0.4094  0.2439
 2145SOL     OW 8652   4.089   0.358   3.480 -0.0343  0.3840 -0.2371
 2145SOL    HW2 8653   4.072   0.265   3.495  0.8459  0.3375  0.5034
 2145SOL    HW3 8654   4.072   0.370   3.386  1.0320 -0.7913 -0.6078
 2145SOL    MW4 8655   4.084   0.347   3.469  0.2227  0.2228 -0.1884
 2146SOL     OW 8656   4.326   0.515   3.529 -0.2969  0.0952 -0.0470
 2146SOL    HW2 8657   4.315   0.608   3.511 -0.4629 -0.1815 -1.4185
 2146SOL    HW3 8658   4.242   0.476   3.502 -0.6829 -0.2929  1.6535
 2146SOL    MW4 8659   4.313   0.522   3.523 -0.3695  0.0075 -0.0036
 2147SOL     OW 8660   4.268   0.772   3.458 -0.0509  0.0589 -0.0022
 2147SOL    HW2 8661   4.349   0.816   3.484 -0.7288  1.3682 -0.0820
 2147SOL    HW3 8662   4.276   0.762   3.363  1.2853 -2.4260  0.3213
 2147SOL    MW4 8663   4.280   0.776   3.448  0.0353 -0.0961  0.0300
 2148SOL     OW 8664   4.035   0.865   3.581  0.0860 -0.0668  0.0727
 2148SOL    HW2 8665   4.038   0.957   3.555 -0.2145  0.2215  1.0549
 2148SOL    HW3 8666   4.114   0.827   3.543 -0.4043  0.3155 -1.3789
 2148SOL    MW4 8667   4.045   0.872   3.572 -0.0186  0.0217  0.0105
 2149SOL     OW 8668   4.023   1.137   3.443 -0.1137 -0.3848 -0.0344
 2149SOL    HW2 8669   4.105   1.177   3.470  0.1700 -1.4893  0.7991
 2149SOL    HW3 8670   3.955   1.194   3.479  0.2755  1.3705 -2.0258
 2149SOL    MW4 8671   4.025   1.150   3.451 -0.0253 -0.2990 -0.1869
 2150SOL     OW 8672   4.292   1.261   3.498  0.3969  0.0602  0.0517
 2150SOL    HW2 8673   4.309   1.352   3.477 -0.0592 -0.1872 -1.4935
 2150SOL    HW3 8674   4.376   1.216   3.486  0.3513  0.0821 -0.3637
 2150SOL    MW4 8675   4.305   1.267   3.494  0.3304  0.0304 -0.2069
 2151SOL     OW 8676   4.306   1.531   3.454  0.1439  0.0239  0.0585
 2151SOL    HW2 8677   4.225   1.571   3.484 -0.6320 -1.5668  0.1159
 2151SOL    HW3 8678   4.298   1.527   3.359  0.6216  0.8407 -0.0208
 2151SOL    MW4 8679   4.294   1.536   3.445  0.1044 -0.0782  0.0556
 2152SOL     OW 8680   4.090   1.664   3.541  0.4135  0.6401 -0.0299
 2152SOL    HW2 8681   4.094   1.666   3.637  1.5269  0.1794 -0.0661
 2152SOL    HW3 8682   4.075   1.756   3.517  0.1120  0.7579  0.5839
 2152SOL    MW4 8683   4.088   1.677   3.551  0.5212  0.5950  0.0465
 2153SOL     OW 8684   4.000   1.927   3.435  0.3901 -0.1676 -0.0314
 2153SOL    HW2 8685   4.072   1.976   3.475  0.3523 -0.9420  1.0266
 2153SOL    HW3 8686   4.031   1.907   3.346  2.8138 -3.0606  1.3273
 2153SOL    MW4 8687   4.014   1.931   3.429  0.7057 -0.6514  0.2873
 2154SOL     OW 8688   4.224   2.051   3.546  0.3715 -0.5602  0.0891
 2154SOL    HW2 8689   4.239   2.135   3.504 -1.3766 -0.9461 -1.3925
 2154SOL    HW3 8690   4.301   1.999   3.524  1.0583  0.3643  0.2841
 2154SOL    MW4 8691   4.236   2.055   3.537  0.2313 -0.4890 -0.0808
 2155SOL     OW 8692   4.258   2.295   3.417 -0.1022 -0.5608 -0.2144
 2155SOL    HW2 8693   4.172   2.322   3.450  0.0085 -0.7994  0.2669
 2155SOL    HW3 8694   4.246   2.290   3.322 -0.1430  1.1334 -0.3160
 2155SOL    MW4 8695   4.245   2.298   3.409 -0.0930 -0.3686 -0.1645
 2156SOL     OW 8696   4.026   2.426   3.504  0.6338 -0.4597  0.0734
 2156SOL    HW2 8697   4.029   2.437   3.599 -1.8785  0.7610  0.0676
 2156SOL    HW3 8698   4.049   2.512   3.469  0.5567 -0.6279 -0.4000
 2156SOL    MW4 8699   4.029   2.439   3.512  0.2928 -0.3207  0.0100
 2157SOL     OW 8700   4.066   2.690   3.420 -0.2372  0.1795 -0.1155
 2157SOL    HW2 8701   4.140   2.748   3.438 -0.3107  0.4233 -0.5711
 2157SOL    HW3 8702   3.989   2.740   3.448 -0.2312 -0.0585  0.3243
 2157SOL    MW4 8703   4.065   2.704   3.426 -0.2456  0.1802 -0.1175
 2158SOL     OW 8704   4.262   2.861   3.517  0.1751 -0.1380 -0.0936
 2158SOL    HW2 8705   4.238   2.846   3.609 -0.0305 -0.1217 -0.1460
 2158SOL    HW3 8706   4.334   2.799   3.501  1.0978  0.7752  0.4634
 2158SOL    MW4 8707   4.268   2.851   3.527  0.2699 -0.0153 -0.0272
 2159SOL     OW 8708   4.269   3.100   3.382 -0.3597  0.0189  0.0617
 2159SOL    HW2 8709   4.267   3.014   3.424 -2.4641  0.7379  1.5748
 2159SOL    HW3 8710   4.241   3.084   3.292  1.2433 -1.1402 -0.2399
 2159SOL    MW4 8711   4.265   3.087   3.376 -0.4258 -0.0391  0.2213
 2160SOL     OW 8712   4.031   3.207   3.438  0.3670 -0.5379  0.0725
 2160SOL    HW2 8713   4.028   3.300   3.416  1.0671 -0.5058  0.0948
 2160SOL    HW3 8714   4.122   3.181   3.420  0.1325 -1.2548 -0.0975
 2160SOL    MW4 8715   4.043   3.216   3.433  0.4282 -0.6282  0.0532
 2161SOL     OW 8716   4.030   3.469   3.398 -0.2128 -0.2444  0.1970
 2161SOL    HW2 8717   4.106   3.499   3.446 -0.9783 -0.2001  1.4122
 2161SOL    HW3 8718   3.955   3.505   3.445 -1.0288 -1.2427 -0.2830
 2161SOL    MW4 8719   4.030   3.477   3.410 -0.4220 -0.3703  0.2940
 2162SOL     OW 8720   4.265   3.592   3.539 -0.2789  0.4171  0.0736
 2162SOL    HW2 8721   4.247   3.593   3.633 -2.5305  0.3557 -0.3400
 2162SOL    HW3 8722   4.267   3.684   3.514 -0.9757  0.3977 -0.0543
 2162SOL    MW4 8723   4.263   3.604   3.548 -0.6676  0.4063  0.0021
 2163SOL     OW 8724   4.259   3.839   3.426  0.4115 -0.3050 -0.3056
 2163SOL    HW2 8725   4.337   3.887   3.453 -1.3650  2.4840  0.0676
 2163SOL    HW3 8726   4.263   3.837   3.330  0.0467  1.4538 -0.3721
 2163SOL    MW4 8727   4.270   3.845   3.416  0.1292  0.2949 -0.2649
 2164SOL     OW 8728   4.058   3.978   3.554 -0.4705  0.4875  0.7054
 2164SOL    HW2 8729   4.139   3.946   3.514 -0.3419  1.0939  0.4852
 2164SOL    HW3 8730   3.988   3.943   3.499 -0.2650  2.0627 -0.5879
 2164SOL    MW4 8731   4.059   3.969   3.541 -0.4268  0.7753  0.5054
 2165SOL     OW 8732   4.023   4.224   3.386  0.0671 -0.2424 -0.1423
 2165SOL    HW2 8733   4.027   4.150   3.447  0.3844  0.3487  0.5632
 2165SOL    HW3 8734   3.945   4.273   3.412 -0.5731 -0.7387 -1.0965
 2165SOL    MW4 8735   4.013   4.221   3.397  0.0238 -0.2298 -0.1750
 2166SOL     OW 8736   4.232   4.354   3.525 -0.1401 -0.2922  0.0467
 2166SOL    HW2 8737   4.226   4.335   3.618  0.5501  0.4041  0.2353
 2166SOL    HW3 8738   4.156   4.310   3.486 -0.5217 -0.4354  0.9583
 2166SOL    MW4 8739   4.221   4.346   3.532 -0.0992 -0.2193  0.1922
 2167SOL     OW 8740   0.227   4.597   3.870  0.3839  0.0480 -0.2502
 2167SOL    HW2 8741   0.237   4.628   3.960  0.2934 -0.3239 -0.1137
 2167SOL    HW3 8742   0.139   4.626   3.844 -0.6971 -2.2264  0.7207
 2167SOL    MW4 8743   0.216   4.605   3.878  0.2293 -0.3009 -0.1044
 2168SOL     OW 8744   4.460   0.048   3.800  0.3667 -0.0364  0.5782
 2168SOL    HW2 8745   4.479   0.135   3.835  1.1710 -0.3709  0.9852
 2168SOL    HW3 8746   4.459   0.061   3.705  2.6967  0.0062  0.5272
 2168SOL    MW4 8747   4.463   0.062   3.792  0.7806 -0.0749  0.6251
 2169SOL     OW 8748   0.010   0.314   3.873  0.2763 -0.3468  0.3097
 2169SOL    HW2 8749  -0.072   0.360   3.851 -0.5900 -2.2260 -0.5084
 2169SOL    HW3 8750   0.079   0.373   3.844 -0.7593  1.6698  1.8100
 2169SOL    MW4 8751   0.008   0.328   3.866  0.0253 -0.3287  0.3996
 2170SOL     OW 8752   0.255   0.474   3.797  0.2178 -0.1046 -0.1883
 2170SOL    HW2 8753   0.231   0.561   3.827 -2.8738 -1.0736  0.2983
 2170SOL    HW3 8754   0.245   0.478   3.702  0.5890  0.2148 -0.2154
 2170SOL    MW4 8755   0.251   0.486   3.789 -0.1411 -0.1903 -0.1273
 2171SOL     OW 8756   0.180   0.746   3.879 -0.2681  0.2071  0.3828
 2171SOL    HW2 8757   0.192   0.759   3.973 -1.2574 -0.1362  0.5701
 2171SOL    HW3 8758   0.094   0.784   3.861 -0.1309  0.1697 -0.3578
 2171SOL    MW4 8759   0.170   0.753   3.889 -0.3805  0.1569  0.3097
 2172SOL     OW 8760   4.453   0.894   3.789 -0.5999 -0.3959 -0.1289
 2172SOL    HW2 8761   4.374   0.855   3.827  0.2773 -0.1271  2.0829
 2172SOL    HW3 8762   4.465   0.974   3.839  0.6115 -0.0138 -1.0273
 2172SOL    MW4 8763   4.444   0.899   3.801 -0.3238 -0.3100  0.0443
 2173SOL     OW 8764   0.002   1.139   3.917  0.0826 -0.2721 -0.2268
 2173SOL    HW2 8765  -0.077   1.171   3.874  0.3922  0.1002 -0.5314
 2173SOL    HW3 8766   0.074   1.173   3.862  0.3930 -2.5973 -1.3264
 2173SOL    MW4 8767   0.001   1.148   3.904  0.1645 -0.5299 -0.4120
 2174SOL     OW 8768   0.224   1.265   3.821  0.6763  0.1579  0.2199
 2174SOL    HW2 8769   0.213   1.348   3.867  0.1681  0.1897  0.0440
 2174SOL    HW3 8770   0.233   1.290   3.729 -0.8243 -0.0632  0.0058
 2174SOL    MW4 8771   0.224   1.280   3.815  0.4112  0.1329  0.1683
 2175SOL     OW 8772   0.245   1.541   3.898  0.5104 -0.0343 -0.2682
 2175SOL    HW2 8773   0.254   1.548   3.993 -0.0160 -0.7431 -0.1622
 2175SOL    HW3 8774   0.160   1.581   3.878 -0.0017 -1.1208 -0.2821
 2175SOL    MW4 8775   0.235   1.547   3.908  0.3734 -0.2710 -0.2561
 2176SOL     OW 8776   0.000   1.634   3.791  0.5616 -0.2999  0.6421
 2176SOL    HW2 8777   0.000   1.718   3.838  1.8808 -0.2545  0.5824
 2176SOL    HW3 8778   0.003   1.659   3.699  1.5077 -0.4103  0.6392
 2176SOL    MW4 8779   0.001   1.648   3.785  0.8605 -0.3084  0.6337
 2177SOL     OW 8780   4.490   1.901   3.878 -0.0159 -0.0343 -0.2857
 2177SOL    HW2 8781   4.493   1.926   3.971 -2.2934 -0.6123 -0.0434
 2177SOL    HW3 8782   4.407   1.935   3.846 -0.2187 -1.6814 -1.5775
 2177SOL    MW4 8783   4.480   1.909   3.886 -0.3433 -0.3279 -0.4244
 2178SOL     OW 8784   0.212   2.056   3.769  0.5337 -0.2856 -0.0457
 2178SOL    HW2 8785   0.170   2.142   3.775  0.6205 -0.1506 -1.2416
 2178SOL    HW3 8786   0.152   1.996   3.813  0.0456  0.2317 -0.0055
 2178SOL    MW4 8787   0.199   2.060   3.776  0.4808 -0.1993 -0.1981
 2179SOL     OW 8788   0.178   2.336   3.819 -0.4216  0.2981 -0.3689
 2179SOL    HW2 8789   0.210   2.332   3.909 -0.1926 -0.4390 -0.4828
 2179SOL    HW3 8790   0.106   2.400   3.822  1.4130  2.4185 -0.2272
 2179SOL    MW4 8791   0.172   2.344   3.832 -0.1493  0.4807 -0.3653
 2180SOL     OW 8792   4.441   2.479   3.766 -0.0221  0.0401  0.1998
 2180SOL    HW2 8793   4.382   2.412   3.800  0.7809 -0.1992  1.1622
 2180SOL    HW3 8794   4.436   2.550   3.830  0.6638  0.0480  0.2503
 2180SOL    MW4 8795   4.433   2.479   3.779  0.1745  0.0095  0.3333
 2181SOL     OW 8796   4.428   2.710   3.897  0.1704  0.1949  0.1373
 2181SOL    HW2 8797   4.434   2.714   3.993  0.8479  0.8094  0.0739
 2181SOL    HW3 8798   4.507   2.755   3.866  1.2417 -2.1559 -0.7066
 2181SOL    MW4 8799   4.439   2.716   3.906  0.4015 -0.0341  0.0174
 2182SOL     OW 8800   0.175   2.822   3.808  0.4108 -0.1858  0.5428
 2182SOL    HW2 8801   0.258   2.779   3.828  0.3962 -0.2388  0.4868
 2182SOL    HW3 8802   0.174   2.831   3.713 -0.2354 -1.3603  0.4230
 2182SOL    MW4 8803   0.186   2.818   3.798  0.3236 -0.3481  0.5195
 2183SOL     OW 8804   0.257   3.091   3.907  0.3516  0.7465 -0.1186
 2183SOL    HW2 8805   0.275   3.089   4.001 -1.0002  1.0278  0.1529
 2183SOL    HW3 8806   0.236   3.001   3.884  1.4078  0.5402 -0.3059
 2183SOL    MW4 8807   0.257   3.079   3.916  0.3126  0.7565 -0.1075
 2184SOL     OW 8808   0.027   3.198   3.780  0.0251  0.3480 -0.4136
 2184SOL    HW2 8809   0.112   3.175   3.817  0.0549  1.7500  0.4478
 2184SOL    HW3 8810   0.042   3.202   3.685  1.1460  1.4136 -0.2114
 2184SOL    MW4 8811   0.040   3.196   3.772  0.1769  0.6735 -0.2735
 2185SOL     OW 8812   4.486   3.455   3.895  0.0139  0.1168  0.3780
 2185SOL    HW2 8813   4.570   3.499   3.879  0.7486 -1.4134 -0.1139
 2185SOL    HW3 8814   4.495   3.371   3.849 -1.0485 -0.8699  1.9552
 2185SOL    MW4 8815   4.499   3.450   3.887 -0.0293 -0.2155  0.5214
 2186SOL     OW 8816   0.207   3.625   3.838 -0.3141  0.3580  0.0318
 2186SOL    HW2 8817   0.288   3.584   3.870 -0.9636 -0.9414  0.0369
 2186SOL    HW3 8818   0.205   3.711   3.881  0.1729 -0.3035  1.3994
 2186SOL    MW4 8819   0.217   3.631   3.848 -0.3355  0.0992  0.2129
 2187SOL     OW 8820   0.194   3.877   3.966  0.3803 -0.0609  0.2679
 2187SOL    HW2 8821   0.218   3.885   4.059  2.4139  0.2167 -0.2574
 2187SOL    HW3 8822   0.269   3.913   3.919 -2.0770  3.1595 -1.4388
 2187SOL    MW4 8823   0.207   3.883   3.972  0.3244  0.4008 -0.0267
 2188SOL     OW 8824   4.477   3.972   3.824  0.1126  0.1135  0.5508
 2188SOL    HW2 8825   4.404   3.915   3.849  0.3741 -0.3257  0.3412
 2188SOL    HW3 8826   4.551   3.939   3.875  0.5757 -0.5943 -0.5686
 2188SOL    MW4 8827   4.477   3.960   3.834  0.2079 -0.0379  0.3755
 2189SOL     OW 8828   4.457   4.230   3.918  0.2288  0.0953 -0.4348
 2189SOL    HW2 8829   4.537   4.268   3.882  1.0496  0.0632  1.3194
 2189SOL    HW3 8830   4.457   4.139   3.887 -0.0108  0.5632 -1.8352
 2189SOL    MW4 8831   4.467   4.223   3.909  0.3052  0.1531 -0.3881
 2190SOL     OW 8832   0.216   4.316   3.807  0.2437  0.2570  0.7492
 2190SOL    HW2 8833   0.292   4.266   3.836  0.7286  0.1292 -0.6548
 2190SOL    HW3 8834   0.239   4.407   3.824  0.9246  0.2525 -0.1006
 2190SOL    MW4 8835   0.229   4.321   3.813  0.3975  0.2398  0.4516
 2191SOL     OW 8836   0.697   4.613   3.838 -0.1874 -0.0524  0.3227
 2191SOL    HW2 8837   0.689   4.519   3.819  1.3290 -0.2553  0.5936
 2191SOL    HW3 8838   0.614   4.650   3.811 -0.9927 -1.5572  0.6669
 2191SOL    MW4 8839   0.685   4.605   3.832 -0.0935 -0.2775  0.4039
 2192SOL     OW 8840   0.458   0.060   3.769  0.4119 -0.0146  0.2439
 2192SOL    HW2 8841   0.444   0.152   3.795  0.3687  0.1823 -0.4643
 2192SOL    HW3 8842   0.389   0.012   3.815  1.8201 -0.0204  2.4632
 2192SOL    MW4 8843   0.447   0.066   3.779  0.5921  0.0106  0.4432
 2193SOL     OW 8844   0.478   0.335   3.846  0.1860 -0.0772 -0.2188
 2193SOL    HW2 8845   0.559   0.368   3.808  0.3507  0.3303  0.4813
 2193SOL    HW3 8846   0.410   0.392   3.810  0.4535  0.9640  0.8830
 2193SOL    MW4 8847   0.480   0.347   3.836  0.2430  0.1140  0.0188
 2194SOL     OW 8848   0.684   0.461   3.713  0.4221 -0.0517 -0.2279
 2194SOL    HW2 8849   0.743   0.405   3.764  2.3539  0.9532 -1.3177
 2194SOL    HW3 8850   0.678   0.542   3.763 -1.9785 -1.0031  1.0953
 2194SOL    MW4 8851   0.691   0.464   3.726  0.3602 -0.0447 -0.1972
 2195SOL     OW 8852   0.643   0.708   3.851 -0.2077 -0.4404 -0.4044
 2195SOL    HW2 8853   0.719   0.764   3.836 -0.2901 -0.1873  0.1205
 2195SOL    HW3 8854   0.570   0.756   3.812 -0.2025 -0.3877 -0.3503
 2195SOL    MW4 8855   0.643   0.722   3.844 -0.2179 -0.4001 -0.3278
 2196SOL     OW 8856   0.410   0.851   3.766  0.2115 -0.5209  0.2250
 2196SOL    HW2 8857   0.426   0.932   3.813  0.5800  0.1703 -1.0541
 2196SOL    HW3 8858   0.331   0.814   3.806 -0.3710  0.8286  0.3343
 2196SOL    MW4 8859   0.402   0.857   3.777  0.1833 -0.2517  0.0706
 2197SOL     OW 8860   0.447   1.119   3.860  0.1504 -0.1539  0.4062
 2197SOL    HW2 8861   0.516   1.173   3.821  0.0200 -0.8541 -0.8303
 2197SOL    HW3 8862   0.367   1.172   3.852  0.5739  0.7218  1.9839
 2197SOL    MW4 8863   0.445   1.133   3.854  0.1891 -0.1309  0.4513
 2198SOL     OW 8864   0.668   1.288   3.748  0.1817  0.1123 -0.2747
 2198SOL    HW2 8865   0.741   1.233   3.774  0.4870  1.0728  0.9531
 2198SOL    HW3 8866   0.674   1.293   3.653  1.3671 -0.2832 -0.2279
 2198SOL    MW4 8867   0.678   1.282   3.739  0.3784  0.1869 -0.1063
 2199SOL     OW 8868   0.677   1.544   3.884 -0.0646 -0.0685 -0.2767
 2199SOL    HW2 8869   0.744   1.595   3.839  0.2215 -0.4306 -0.2715
 2199SOL    HW3 8870   0.685   1.456   3.846 -0.2777 -0.2064 -0.0028
 2199SOL    MW4 8871   0.687   1.539   3.873 -0.0549 -0.1345 -0.2398
 2200SOL     OW 8872   0.469   1.667   3.769  0.0510 -0.2986 -0.3326
 2200SOL    HW2 8873   0.547   1.624   3.803  0.8994  1.5404  0.0942
 2200SOL    HW3 8874   0.398   1.638   3.827  0.8091 -0.2058  0.6467
 2200SOL    MW4 8875   0.470   1.658   3.781  0.2629 -0.0437 -0.1471
 2201SOL     OW 8876   0.481   1.950   3.855 -0.2986  0.1244  0.3920
 2201SOL    HW2 8877   0.470   1.858   3.836 -1.2728  0.4581 -0.6651
 2201SOL    HW3 8878   0.398   1.991   3.832  0.2672  1.3389  0.4172
 2201SOL    MW4 8879   0.469   1.944   3.849 -0.3525  0.3288  0.2558
 2202SOL     OW 8880   0.678   2.114   3.769 -0.1185  0.0317 -0.2547
 2202SOL    HW2 8881   0.644   2.201   3.788  1.2460  0.6321 -0.5256
 2202SOL    HW3 8882   0.610   2.054   3.802 -1.3143  1.1900 -0.5683
 2202SOL    MW4 8883   0.664   2.118   3.776 -0.0962  0.2642 -0.3319
 2203SOL     OW 8884   0.619   2.372   3.939  0.1651  0.0151 -0.1003
 2203SOL    HW2 8885   0.707   2.385   3.903 -0.0347  0.1996 -0.5157
 2203SOL    HW3 8886   0.561   2.423   3.882 -0.6704 -2.9546 -2.0273
 2203SOL    MW4 8887   0.623   2.380   3.927  0.0285 -0.3524 -0.4094
 2204SOL     OW 8888   0.450   2.466   3.757  0.5032 -0.2512 -0.5930
 2204SOL    HW2 8889   0.378   2.407   3.782 -0.6363  1.4553  0.2631
 2204SOL    HW3 8890   0.482   2.431   3.674 -0.1866 -2.0324 -0.1359
 2204SOL    MW4 8891   0.444   2.454   3.749  0.2619 -0.2611 -0.4196
 2205SOL     OW 8892   0.432   2.743   3.862  0.5258  0.4921  0.6622
 2205SOL    HW2 8893   0.512   2.792   3.844 -0.7664  1.9442 -1.5050
 2205SOL    HW3 8894   0.439   2.665   3.808  1.4386 -0.4703  2.1507
 2205SOL    MW4 8895   0.443   2.739   3.852  0.4757  0.5567  0.5729
 2206SOL     OW 8896   0.668   2.840   3.790  0.1493  0.0677 -0.0073
 2206SOL    HW2 8897   0.743   2.786   3.813  1.0788  0.5455 -1.8259
 2206SOL    HW3 8898   0.672   2.848   3.694 -0.6650  2.3071  0.1084
 2206SOL    MW4 8899   0.678   2.834   3.780  0.1645  0.4263 -0.2320
 2207SOL     OW 8900   0.689   3.125   3.873  0.2460 -0.5743  0.1871
 2207SOL    HW2 8901   0.695   3.121   3.968 -1.9180 -0.3090  0.3425
 2207SOL    HW3 8902   0.684   3.034   3.845  0.9786 -0.6562  0.2921
 2207SOL    MW4 8903   0.689   3.113   3.882  0.0572 -0.5503  0.2215
 2208SOL     OW 8904   0.455   3.265   3.789  0.8720  0.7740  0.5067
 2208SOL    HW2 8905   0.536   3.227   3.822  1.6502  2.4629  0.5920
 2208SOL    HW3 8906   0.386   3.208   3.823  1.9092  0.3171  1.8861
 2208SOL    MW4 8907   0.457   3.253   3.798  1.1115  0.9365  0.6998
 2209SOL     OW 8908   0.435   3.499   3.928  0.0175 -0.3243  0.1306
 2209SOL    HW2 8909   0.519   3.537   3.901  0.5822 -0.6428  1.3797
 2209SOL    HW3 8910   0.429   3.417   3.879  0.8039 -0.6626  0.5704
 2209SOL    MW4 8911   0.446   3.493   3.918  0.1958 -0.4110  0.3536
 2210SOL     OW 8912   0.670   3.589   3.802 -0.5332  0.0973 -0.6664
 2210SOL    HW2 8913   0.668   3.673   3.848 -1.5210  0.6042 -1.6062
 2210SOL    HW3 8914   0.700   3.610   3.714  0.5210 -0.7452 -0.5159
 2210SOL    MW4 8915   0.674   3.603   3.797 -0.5244  0.0532 -0.7706
 2211SOL     OW 8916   0.656   3.862   3.924  0.2713  0.2423  0.0838
 2211SOL    HW2 8917   0.669   3.882   4.017  1.4057  0.5753 -0.1273
 2211SOL    HW3 8918   0.722   3.916   3.879 -0.6336  0.4948 -0.9503
 2211SOL    MW4 8919   0.667   3.872   3.930  0.3016  0.3197 -0.0806
 2212SOL     OW 8920   0.409   3.947   3.840 -0.0260 -0.9015 -0.7840
 2212SOL    HW2 8921   0.494   3.909   3.860  0.9617  1.4983 -0.2356
 2212SOL    HW3 8922   0.400   3.939   3.745  1.5506  0.2720 -1.0500
 2212SOL    MW4 8923   0.419   3.941   3.830  0.3123 -0.4301 -0.7467
 2213SOL     OW 8924   0.448   4.234   3.912  0.2071 -0.2512 -0.6089
 2213SOL    HW2 8925   0.514   4.267   3.851  1.0558 -0.8993 -0.0429
 2213SOL    HW3 8926   0.454   4.139   3.905 -2.2338 -0.3432 -2.2450
 2213SOL    MW4 8927   0.457   4.226   3.903 -0.0030 -0.3490 -0.7501
 2214SOL     OW 8928   0.676   4.352   3.779 -0.1168 -0.1365 -0.2827
 2214SOL    HW2 8929   0.766   4.331   3.807 -0.1653  1.4546  1.1377
 2214SOL    HW3 8930   0.677   4.339   3.684  1.9521  1.0229 -0.4443
 2214SOL    MW4 8931   0.688   4.347   3.770  0.1497  0.2260 -0.1166
 2215SOL     OW 8932   1.148   4.657   3.876  0.0080 -0.2581  0.0649
 2215SOL    HW2 8933   1.207   4.715   3.829 -0.0076 -0.3600 -0.0781
 2215SOL    HW3 8934   1.153   4.573   3.830 -1.8339  0.3018 -1.2157
 2215SOL    MW4 8935   1.156   4.653   3.864 -0.2372 -0.1979 -0.1230
 2216SOL     OW 8936   0.923   0.082   3.764 -0.2029  0.1240  0.0021
 2216SOL    HW2 8937   0.994   0.041   3.814  0.2688 -0.8556 -1.4160
 2216SOL    HW3 8938   0.846   0.028   3.784 -0.3507  0.6411  0.8367
 2216SOL    MW4 8939   0.922   0.069   3.773 -0.1601  0.0630 -0.0746
 2217SOL     OW 8940   0.874   0.332   3.847  0.3585 -0.3028 -0.6534
 2217SOL    HW2 8941   0.875   0.321   3.942 -0.7490 -0.5370 -0.6547
 2217SOL    HW3 8942   0.898   0.246   3.812  0.2838 -0.3528 -0.5826
 2217SOL    MW4 8943   0.877   0.319   3.855  0.2026 -0.3403 -0.6444
 2218SOL     OW 8944   1.074   0.505   3.787 -0.4034  0.4480  0.3368
 2218SOL    HW2 8945   1.147   0.450   3.815  0.1996  0.5302 -1.0486
 2218SOL    HW3 8946   0.996   0.451   3.802  0.1623 -0.7163 -0.7738
 2218SOL    MW4 8947   1.073   0.491   3.792 -0.2493  0.3052  0.0076
 2219SOL     OW 8948   1.096   0.775   3.885 -0.6761 -0.1789  0.5431
 2219SOL    HW2 8949   1.101   0.772   3.981  2.9900 -0.0765  0.4239
 2219SOL    HW3 8950   1.091   0.683   3.858 -0.8636 -0.2434  0.7963
 2219SOL    MW4 8951   1.096   0.763   3.894 -0.2173 -0.1739  0.5608
 2220SOL     OW 8952   0.862   0.866   3.767  0.1342 -0.3055 -0.2917
 2220SOL    HW2 8953   0.947   0.830   3.793  0.3632 -0.8495 -1.7134
 2220SOL    HW3 8954   0.872   0.884   3.673 -1.6715 -1.4393 -0.7142
 2220SOL    MW4 8955   0.875   0.863   3.758 -0.0739 -0.5269 -0.5350
 2221SOL     OW 8956   0.896   1.136   3.830 -0.7318 -0.2839 -0.3286
 2221SOL    HW2 8957   0.877   1.152   3.922  0.9117 -0.4107  0.0343
 2221SOL    HW3 8958   0.898   1.041   3.822  1.1873 -0.2796 -0.0535
 2221SOL    MW4 8959   0.894   1.126   3.841 -0.2617 -0.3002 -0.2446
 2222SOL     OW 8960   1.141   1.264   3.755  0.0236  0.3826  0.5035
 2222SOL    HW2 8961   1.130   1.351   3.793  0.7470 -0.3043  2.3575
 2222SOL    HW3 8962   1.062   1.217   3.780  0.5815 -0.1258  1.3569
 2222SOL    MW4 8963   1.129   1.269   3.763  0.1928  0.2249  0.8607
 2223SOL     OW 8964   1.105   1.519   3.829  0.5169 -0.0835  0.3372
 2223SOL    HW2 8965   1.081   1.529   3.922  1.8440 -0.5262  0.7438
 2223SOL    HW3 8966   1.194   1.555   3.824  0.0797  0.8133 -0.9681
 2223SOL    MW4 8967   1.114   1.525   3.841  0.6343 -0.0236  0.2189
 2224SOL     OW 8968   0.860   1.713   3.727 -0.0988 -0.3794 -0.4002
 2224SOL    HW2 8969   0.943   1.668   3.741  0.3008 -0.1514 -1.9556
 2224SOL    HW3 8970   0.848   1.713   3.632 -1.1860  0.8241 -0.2798
 2224SOL    MW4 8971   0.869   1.707   3.717 -0.1895 -0.1905 -0.5894
 2225SOL     OW 8972   0.892   1.958   3.864 -0.4771  0.2070 -0.5684
 2225SOL    HW2 8973   0.872   1.875   3.820 -0.9487  0.0811 -0.1143
 2225SOL    HW3 8974   0.821   2.017   3.838 -0.5540  0.2433 -0.2782
 2225SOL    MW4 8975   0.880   1.955   3.855 -0.5495  0.1950 -0.4702
 2226SOL     OW 8976   1.135   2.028   3.780 -0.2044  0.2399 -0.1874
 2226SOL    HW2 8977   1.048   1.996   3.802 -0.1806 -0.1712 -0.6536
 2226SOL    HW3 8978   1.128   2.056   3.688  0.8451 -2.4828 -1.1656
 2226SOL    MW4 8979   1.123   2.027   3.771 -0.0629 -0.1736 -0.3781
 2227SOL     OW 8980   1.112   2.290   3.867 -0.4032 -0.2800 -0.2788
 2227SOL    HW2 8981   1.102   2.281   3.962  0.1524  0.1831 -0.1719
 2227SOL    HW3 8982   1.112   2.200   3.834 -0.4074 -0.4509  0.1818
 2227SOL    MW4 8983   1.111   2.277   3.876 -0.3304 -0.2415 -0.2038
 2228SOL     OW 8984   0.866   2.407   3.792 -0.1596 -0.1439  0.2897
 2228SOL    HW2 8985   0.876   2.497   3.822 -0.8959 -0.4501  1.4861
 2228SOL    HW3 8986   0.939   2.360   3.832 -1.0144 -0.5063  1.4579
 2228SOL    MW4 8987   0.877   2.413   3.801 -0.3695 -0.2322  0.6018
 2229SOL     OW 8988   0.882   2.678   3.880 -0.2070 -0.0112 -0.1857
 2229SOL    HW2 8989   0.900   2.679   3.974 -0.7684  0.8646 -0.0848
 2229SOL    HW3 8990   0.957   2.723   3.841 -0.0750 -0.1909 -0.1418
 2229SOL    MW4 8991   0.894   2.684   3.888 -0.2636  0.0808 -0.1664
 2230SOL     OW 8992   1.100   2.840   3.772 -0.2551 -0.5001 -0.1781
 2230SOL    HW2 8993   1.181   2.796   3.801 -0.1551 -0.0373  0.2524
 2230SOL    HW3 8994   1.109   2.929   3.805 -0.9053 -0.4247 -0.2154
 2230SOL    MW4 8995   1.112   2.846   3.780 -0.3278 -0.4292 -0.1264
 2231SOL     OW 8996   1.127   3.116   3.876 -0.1810  0.0662  0.5160
 2231SOL    HW2 8997   1.201   3.155   3.830  0.2512 -0.4053  0.8014
 2231SOL    HW3 8998   1.051   3.165   3.846  0.1079 -0.1706 -0.6272
 2231SOL    MW4 8999   1.127   3.127   3.866 -0.0859 -0.0272  0.4029
 2232SOL     OW 9000   0.912   3.230   3.749 -0.1562 -0.4230 -0.3260
 2232SOL    HW2 9001   0.831   3.189   3.781 -0.3310 -0.1731 -0.4538
 2232SOL    HW3 9002   0.914   3.209   3.656 -0.5451  0.3588 -0.5155
 2232SOL    MW4 9003   0.901   3.222   3.741 -0.2305 -0.2868 -0.3681
 2233SOL     OW 9004   0.908   3.469   3.906 -0.4240  0.0564  0.5876
 2233SOL    HW2 9005   0.899   3.388   3.856 -0.5309  0.1459  0.4606
 2233SOL    HW3 9006   0.827   3.517   3.888  0.2288  0.7978 -0.4337
 2233SOL    MW4 9007   0.896   3.465   3.897 -0.3520  0.1659  0.4358
 2234SOL     OW 9008   1.131   3.626   3.787  0.0496  0.2308  0.3185
 2234SOL    HW2 9009   1.124   3.712   3.829  2.3965 -0.0108  1.2903
 2234SOL    HW3 9010   1.058   3.575   3.823 -0.7098  1.4743  0.5472
 2234SOL    MW4 9011   1.120   3.630   3.797  0.2592  0.3631  0.4771
 2235SOL     OW 9012   1.126   3.872   3.883  0.1310 -0.2768  0.2213
 2235SOL    HW2 9013   1.131   3.873   3.979  1.4347 -2.5266  0.2271
 2235SOL    HW3 9014   1.211   3.905   3.855  0.4691 -1.4324 -0.1310
 2235SOL    MW4 9015   1.138   3.877   3.892  0.3476 -0.7262  0.1755
 2236SOL     OW 9016   0.858   3.998   3.801  0.2374 -0.5042  0.1205
 2236SOL    HW2 9017   0.945   3.964   3.822  0.1330 -1.1495 -0.4926
 2236SOL    HW3 9018   0.858   4.005   3.705 -0.8098 -1.6422  0.0340
 2236SOL    MW4 9019   0.870   3.995   3.791  0.0854 -0.7396  0.0286
 2237SOL     OW 9020   0.925   4.270   3.844  0.1341 -0.4552 -0.1525
 2237SOL    HW2 9021   0.929   4.281   3.939 -1.2111  0.0341 -0.1407
 2237SOL    HW3 9022   0.900   4.179   3.832  2.4988 -1.1606 -0.1006
 2237SOL    MW4 9023   0.923   4.259   3.855  0.2686 -0.4835 -0.1440
 2238SOL     OW 9024   1.136   4.433   3.741 -0.3574  0.2856  0.0704
 2238SOL    HW2 9025   1.061   4.380   3.768  0.7700 -0.4629  1.9028
 2238SOL    HW3 9026   1.141   4.421   3.646 -2.6248  0.4806 -0.0992
 2238SOL    MW4 9027   1.127   4.424   3.732 -0.5078  0.2127  0.2899
 2239SOL     OW 9028   1.519   4.656   3.902  0.3385  0.3235 -0.0200
 2239SOL    HW2 9029   1.521   4.647   3.997 -3.4359 -0.2888  0.0900
 2239SOL    HW3 9030   1.548   4.570   3.869  0.0066 -0.0306  0.6077
 2239SOL    MW4 9031   1.523   4.643   3.910 -0.2034  0.1965  0.0775
 2240SOL     OW 9032   1.345   0.135   3.732  0.3804 -0.0481 -0.1261
 2240SOL    HW2 9033   1.334   0.219   3.776  0.6210 -0.2365  0.2940
 2240SOL    HW3 9034   1.409   0.088   3.785  1.2644  0.0321 -1.1134
 2240SOL    MW4 9035   1.352   0.140   3.745  0.5288 -0.0623 -0.2007
 2241SOL     OW 9036   1.321   0.382   3.858 -0.2592 -0.2432  0.3957
 2241SOL    HW2 9037   1.350   0.362   3.947  1.2349 -1.4421 -0.3256
 2241SOL    HW3 9038   1.402   0.407   3.812 -0.9806  0.1548 -0.6664
 2241SOL    MW4 9039   1.336   0.383   3.864 -0.1574 -0.3489  0.1605
 2242SOL     OW 9040   1.547   0.477   3.732 -0.1907  0.3894 -0.0838
 2242SOL    HW2 9041   1.624   0.448   3.782  0.8458  2.3610 -0.4871
 2242SOL    HW3 9042   1.539   0.570   3.752 -3.1507 -0.0048  0.7962
 2242SOL    MW4 9043   1.556   0.486   3.741 -0.4445  0.5975 -0.0207
 2243SOL     OW 9044   1.572   0.739   3.809  0.0598 -0.3532  0.3883
 2243SOL    HW2 9045   1.646   0.797   3.792 -0.7516  1.6311  3.4429
 2243SOL    HW3 9046   1.495   0.788   3.779 -0.2626 -1.6431 -0.9987
 2243SOL    MW4 9047   1.572   0.753   3.803 -0.0898 -0.2616  0.6082
 2244SOL     OW 9048   1.335   0.866   3.749 -0.3621  0.0311 -0.4942
 2244SOL    HW2 9049   1.351   0.948   3.797  0.5487  0.0217 -0.7904
 2244SOL    HW3 9050   1.258   0.829   3.792  1.0317 -0.4823  1.6210
 2244SOL    MW4 9051   1.327   0.872   3.761 -0.0579 -0.0378 -0.2542
 2245SOL     OW 9052   1.356   1.121   3.869 -0.0465  0.2702  0.1131
 2245SOL    HW2 9053   1.434   1.174   3.854  0.5399  0.0179  2.0815
 2245SOL    HW3 9054   1.284   1.174   3.835  0.8516  0.9985 -0.6888
 2245SOL    MW4 9055   1.357   1.135   3.863  0.1494  0.3331  0.2670
 2246SOL     OW 9056   1.589   1.267   3.826  0.0388  0.4513 -0.2406
 2246SOL    HW2 9057   1.670   1.221   3.848  0.1680  1.1572  0.7931
 2246SOL    HW3 9058   1.602   1.355   3.860 -1.3610  0.4334  0.3696
 2246SOL    MW4 9059   1.601   1.272   3.833 -0.1289  0.5420 -0.0236
 2247SOL     OW 9060   1.596   1.536   3.871  0.1451  0.0902 -0.0538
 2247SOL    HW2 9061   1.588   1.523   3.966 -0.7855 -2.2302 -0.4034
 2247SOL    HW3 9062   1.682   1.576   3.859  1.2046 -1.6106  1.6105
 2247SOL    MW4 9063   1.606   1.540   3.882  0.1621 -0.4402  0.1197
 2248SOL     OW 9064   1.342   1.640   3.784  0.2873 -0.3231 -0.5197
 2248SOL    HW2 9065   1.335   1.727   3.822  0.4107 -1.2714  1.8406
 2248SOL    HW3 9066   1.430   1.610   3.809 -0.4340 -1.8119  0.3694
 2248SOL    MW4 9067   1.353   1.647   3.793  0.2084 -0.6444 -0.0911
 2249SOL     OW 9068   1.353   1.896   3.873 -0.1796  0.1065 -0.5710
 2249SOL    HW2 9069   1.354   1.900   3.969 -0.2763 -0.7408 -0.5332
 2249SOL    HW3 9070   1.271   1.938   3.848 -1.1807 -1.6271 -0.1903
 2249SOL    MW4 9071   1.343   1.902   3.882 -0.3245 -0.2339 -0.5159
 2250SOL     OW 9072   1.567   2.077   3.767 -0.2483  0.0370  0.1193
 2250SOL    HW2 9073   1.506   2.009   3.796 -2.3349  1.4979 -0.7015
 2250SOL    HW3 9074   1.568   2.069   3.671  0.9779 -0.0580  0.1310
 2250SOL    MW4 9075   1.559   2.067   3.758 -0.3618  0.2170  0.0124
 2251SOL     OW 9076   1.571   2.360   3.880 -0.6760 -0.1320 -0.0771
 2251SOL    HW2 9077   1.651   2.398   3.844 -1.7575  1.4832 -0.8195
 2251SOL    HW3 9078   1.575   2.268   3.853  0.6400  0.0533 -0.5913
 2251SOL    MW4 9079   1.582   2.353   3.872 -0.6450  0.1056 -0.2429
 2252SOL     OW 9080   1.332   2.436   3.751 -0.2472 -0.4375 -0.3144
 2252SOL    HW2 9081   1.412   2.409   3.796 -1.3675 -1.6877  0.9782
 2252SOL    HW3 9082   1.264   2.382   3.790 -1.5016 -0.4431 -2.4494
 2252SOL    MW4 9083   1.334   2.425   3.762 -0.5605 -0.6034 -0.4258
 2253SOL     OW 9084   1.360   2.720   3.826 -0.1622 -0.0469  0.2015
 2253SOL    HW2 9085   1.355   2.698   3.919 -0.0257 -0.4796  0.1072
 2253SOL    HW3 9086   1.337   2.639   3.781 -0.0530  0.1132 -0.1416
 2253SOL    MW4 9087   1.356   2.706   3.833 -0.1298 -0.0827  0.1440
 2254SOL     OW 9088   1.606   2.836   3.769 -0.0362 -0.4177 -0.1764
 2254SOL    HW2 9089   1.519   2.801   3.788  0.1597 -1.0181 -0.3781
 2254SOL    HW3 9090   1.615   2.827   3.674  1.0890 -2.3345  0.0833
 2254SOL    MW4 9091   1.596   2.830   3.759  0.1382 -0.7498 -0.1688
 2255SOL     OW 9092   1.566   3.106   3.845  0.5434  0.4260  0.3938
 2255SOL    HW2 9093   1.584   3.099   3.939  2.1370 -0.1254  0.0729
 2255SOL    HW3 9094   1.566   3.016   3.814  2.3365  0.7226 -0.5223
 2255SOL    MW4 9095   1.569   3.094   3.853  0.9903  0.3924  0.2306
 2256SOL     OW 9096   1.345   3.244   3.758  0.4850  0.6478  0.0027
 2256SOL    HW2 9097   1.338   3.328   3.804  1.8646  0.0278  1.3464
 2256SOL    HW3 9098   1.409   3.194   3.807 -1.5152 -1.8531  0.1958
 2256SOL    MW4 9099   1.352   3.249   3.770  0.4030  0.2360  0.2055
 2257SOL     OW 9100   1.350   3.468   3.916  0.2915 -0.2692  0.2687
 2257SOL    HW2 9101   1.431   3.506   3.882 -0.0719 -0.8198 -1.2875
 2257SOL    HW3 9102   1.281   3.525   3.882 -0.2247 -1.9794 -1.6847
 2257SOL    MW4 9103   1.352   3.481   3.907  0.1755 -0.5677 -0.1945
 2258SOL     OW 9104   1.579   3.580   3.805 -0.3098 -0.0778 -0.0372
 2258SOL    HW2 9105   1.668   3.558   3.832  0.2101 -0.9448 -2.3000
 2258SOL    HW3 9106   1.569   3.672   3.828  0.5487 -0.4355  1.8045
 2258SOL    MW4 9107   1.590   3.589   3.812 -0.1280 -0.2394 -0.0930
 2259SOL     OW 9108   1.579   3.842   3.862  0.2153 -0.6025 -0.3524
 2259SOL    HW2 9109   1.564   3.830   3.956 -1.2303 -2.4091 -0.7664
 2259SOL    HW3 9110   1.507   3.898   3.833  0.3105 -0.5521 -0.4898
 2259SOL    MW4 9111   1.567   3.848   3.870  0.0373 -0.8345 -0.4251
 2260SOL     OW 9112   1.355   3.984   3.780 -0.3889 -0.3005 -0.3983
 2260SOL    HW2 9113   1.337   4.077   3.796 -2.7759 -1.0401  1.4951
 2260SOL    HW3 9114   1.358   3.976   3.684  0.3214  1.8073 -0.5685
 2260SOL    MW4 9115   1.353   3.995   3.769 -0.6100 -0.1202 -0.1709
 2261SOL     OW 9116   1.328   4.264   3.836 -0.3396 -0.1702 -0.3029
 2261SOL    HW2 9117   1.412   4.311   3.834  0.2766 -1.2949 -1.0672
 2261SOL    HW3 9118   1.269   4.319   3.784  0.3134 -0.1160 -0.9936
 2261SOL    MW4 9119   1.331   4.278   3.829 -0.1721 -0.3114 -0.4952
 2262SOL     OW 9120   1.579   4.403   3.805  0.7042 -0.2747 -0.3910
 2262SOL    HW2 9121   1.650   4.348   3.837  0.0556 -1.2784 -0.6599
 2262SOL    HW3 9122   1.594   4.409   3.711  0.9364  0.2513 -0.3225
 2262SOL    MW4 9123   1.591   4.397   3.797  0.6493 -0.3376 -0.4175
 2263SOL     OW 9124   1.998   4.602   3.893 -0.3772 -0.4692  0.0780
 2263SOL    HW2 9125   2.056   4.658   3.842  0.5213 -0.7579  0.7636
 2263SOL    HW3 9126   2.002   4.517   3.849 -0.9647 -0.2629 -0.3808
 2263SOL    MW4 9127   2.006   4.598   3.880 -0.3362 -0.4807  0.1082
 2264SOL     OW 9128   1.790   0.093   3.787 -0.3406 -0.2040  0.0610
 2264SOL    HW2 9129   1.848   0.036   3.837  0.3077  0.9923  0.6991
 2264SOL    HW3 9130   1.702   0.075   3.820 -0.3104 -1.8077 -0.6964
 2264SOL    MW4 9131   1.786   0.083   3.798 -0.2512 -0.2577  0.0453
 2265SOL     OW 9132   1.747   0.352   3.869  0.5285 -0.5127 -0.1341
 2265SOL    HW2 9133   1.749   0.362   3.964  0.1043  0.5509 -0.2317
 2265SOL    HW3 9134   1.783   0.264   3.854 -0.4847 -1.1590  1.0700
 2265SOL    MW4 9135   1.752   0.341   3.880  0.3388 -0.4576  0.0119
 2266SOL     OW 9136   2.009   0.464   3.790 -0.2988 -0.7267 -0.2004
 2266SOL    HW2 9137   1.921   0.434   3.809 -0.8549  0.9077 -0.1616
 2266SOL    HW3 9138   2.013   0.470   3.695 -0.6517  0.3784 -0.1606
 2266SOL    MW4 9139   1.998   0.461   3.780 -0.4188 -0.3653 -0.1900
 2267SOL     OW 9140   2.004   0.729   3.851 -0.2491 -0.0948 -0.4809
 2267SOL    HW2 9141   2.013   0.732   3.947 -0.1678 -0.2160 -0.4843
 2267SOL    HW3 9142   2.010   0.636   3.830  0.0288 -0.0448 -0.6318
 2267SOL    MW4 9143   2.006   0.717   3.861 -0.2017 -0.1042 -0.5014
 2268SOL     OW 9144   1.789   0.894   3.768 -0.0081  0.2005 -0.2911
 2268SOL    HW2 9145   1.858   0.837   3.804  0.2756 -0.3861 -1.7270
 2268SOL    HW3 9146   1.807   0.896   3.674 -0.7241  1.7342 -0.3972
 2268SOL    MW4 9147   1.801   0.887   3.760 -0.0652  0.3254 -0.4945
 2269SOL     OW 9148   1.820   1.143   3.916 -0.3446  0.3144  0.2037
 2269SOL    HW2 9149   1.847   1.126   4.006 -0.4039  1.5007  0.4551
 2269SOL    HW3 9150   1.822   1.057   3.873  1.5440  0.0301  0.8197
 2269SOL    MW4 9151   1.824   1.129   3.922 -0.1034  0.4334  0.3181
 2270SOL     OW 9152   2.031   1.265   3.746  0.1432 -0.4326 -0.6164
 2270SOL    HW2 9153   2.103   1.225   3.795 -0.6491 -2.5054 -1.0686
 2270SOL    HW3 9154   1.952   1.223   3.781 -0.8998  2.0399  0.0860
 2270SOL    MW4 9155   2.030   1.254   3.757 -0.0987 -0.3798 -0.5829
 2271SOL     OW 9156   2.072   1.518   3.876 -0.2183 -0.2739  0.0451
 2271SOL    HW2 9157   1.998   1.568   3.843  0.2020  0.7389  0.6004
 2271SOL    HW3 9158   2.061   1.431   3.839 -1.0510  0.1861 -0.8151
 2271SOL    MW4 9159   2.061   1.513   3.867 -0.2730 -0.0798  0.0050
 2272SOL     OW 9160   1.849   1.652   3.754 -0.1711 -0.3881 -0.3068
 2272SOL    HW2 9161   1.840   1.745   3.775 -0.3009 -0.4409 -0.1326
 2272SOL    HW3 9162   1.846   1.649   3.658 -1.4425 -0.3484 -0.2764
 2272SOL    MW4 9163   1.848   1.664   3.744 -0.3561 -0.3899 -0.2799
 2273SOL     OW 9164   1.806   1.906   3.825 -0.3822 -0.4127  0.0569
 2273SOL    HW2 9165   1.811   1.912   3.920 -1.1200 -1.2901  0.1621
 2273SOL    HW3 9166   1.732   1.961   3.800 -0.5923 -0.6870  0.0612
 2273SOL    MW4 9167   1.797   1.914   3.834 -0.5074 -0.5647  0.0713
 2274SOL     OW 9168   2.044   2.071   3.783 -0.5585  0.2001 -0.2625
 2274SOL    HW2 9169   1.973   2.008   3.796  0.2806 -0.4597  1.2404
 2274SOL    HW3 9170   2.056   2.074   3.688 -0.7345 -1.7734 -0.3742
 2274SOL    MW4 9171   2.036   2.063   3.772 -0.4711 -0.1471 -0.0789
 2275SOL     OW 9172   2.033   2.337   3.889  0.5184 -0.2021  0.2509
 2275SOL    HW2 9173   1.948   2.379   3.900  1.2566  0.9634  1.6599
 2275SOL    HW3 9174   2.012   2.249   3.860 -1.2225 -0.3678  1.9124
 2275SOL    MW4 9175   2.019   2.331   3.887  0.3860 -0.0701  0.6564
 2276SOL     OW 9176   1.795   2.467   3.798 -0.4806  0.1115 -0.3837
 2276SOL    HW2 9177   1.818   2.555   3.827  0.5494 -0.5216  0.7392
 2276SOL    HW3 9178   1.772   2.478   3.706 -0.7286  1.6153 -0.1590
 2276SOL    MW4 9179   1.795   2.480   3.790 -0.3774  0.2263 -0.2060
 2277SOL     OW 9180   1.820   2.712   3.900  0.2761 -0.0280  0.1462
 2277SOL    HW2 9181   1.827   2.736   3.992  0.7571  0.2530  0.0381
 2277SOL    HW3 9182   1.743   2.758   3.869 -0.0688 -0.3752  0.4882
 2277SOL    MW4 9183   1.811   2.721   3.908  0.2940 -0.0370  0.1769
 2278SOL     OW 9184   2.024   2.860   3.746 -0.2145  0.2307 -0.2370
 2278SOL    HW2 9185   2.098   2.802   3.766 -0.1830  0.6278  0.8179
 2278SOL    HW3 9186   1.949   2.819   3.789 -0.2355  0.8473  0.3228
 2278SOL    MW4 9187   2.024   2.847   3.754 -0.2129  0.3645 -0.0241
 2279SOL     OW 9188   2.009   3.091   3.882 -0.2565  0.1969  0.2986
 2279SOL    HW2 9189   2.066   3.151   3.833 -2.2822 -0.4916 -3.0662
 2279SOL    HW3 9190   2.026   3.005   3.843 -1.5650 -0.4631  1.1448
 2279SOL    MW4 9191   2.019   3.088   3.870 -0.6964  0.0188 -0.0336
 2280SOL     OW 9192   1.796   3.215   3.748 -0.1578  0.0001 -0.3683
 2280SOL    HW2 9193   1.865   3.168   3.794  1.5051  1.8394 -0.9274
 2280SOL    HW3 9194   1.715   3.174   3.778  0.9744 -0.0010  2.8572
 2280SOL    MW4 9195   1.794   3.203   3.758  0.2111  0.2425 -0.0165
 2281SOL     OW 9196   1.815   3.444   3.912  0.1651  0.2656  0.0490
 2281SOL    HW2 9197   1.890   3.497   3.886  1.4104 -1.2267  0.5297
 2281SOL    HW3 9198   1.809   3.376   3.844 -0.8354  0.4489 -0.0551
 2281SOL    MW4 9199   1.824   3.442   3.900  0.1974  0.0925  0.0987
 2282SOL     OW 9200   2.023   3.619   3.810  0.0806 -0.0839 -0.2123
 2282SOL    HW2 9201   2.108   3.580   3.828 -0.6397 -1.1376  0.8877
 2282SOL    HW3 9202   2.024   3.634   3.715  1.0176 -1.2004 -0.3923
 2282SOL    MW4 9203   2.035   3.616   3.800  0.1092 -0.3703 -0.0911
 2283SOL     OW 9204   2.012   3.914   3.898 -0.3059  0.2095  0.3295
 2283SOL    HW2 9205   2.097   3.929   3.856 -0.7108  1.1120 -0.1867
 2283SOL    HW3 9206   2.001   3.819   3.896  0.9670  0.0314  0.9570
 2283SOL    MW4 9207   2.022   3.904   3.892 -0.1915  0.3054  0.3443
 2284SOL     OW 9208   1.804   3.980   3.738  0.4088  0.3472  0.3647
 2284SOL    HW2 9209   1.880   3.959   3.792 -0.2866  0.5142  1.4366
 2284SOL    HW3 9210   1.731   3.937   3.783 -0.2088  0.6550 -0.3402
 2284SOL    MW4 9211   1.804   3.972   3.751  0.2354  0.4103  0.4129
 2285SOL     OW 9212   1.798   4.235   3.868  0.1054  0.0919  0.2325
 2285SOL    HW2 9213   1.872   4.283   3.831 -0.2858  0.2271 -0.3853
 2285SOL    HW3 9214   1.805   4.148   3.830 -0.0069  0.0819  0.2349
 2285SOL    MW4 9215   1.809   4.230   3.858  0.0389  0.1082  0.1512
 2286SOL     OW 9216   2.018   4.369   3.759  0.5163  0.0380 -0.2390
 2286SOL    HW2 9217   2.096   4.324   3.793 -0.7856 -2.3291 -0.2793
 2286SOL    HW3 9218   2.024   4.357   3.664  0.9385  1.2975 -0.3821
 2286SOL    MW4 9219   2.029   4.361   3.751  0.4003 -0.1087 -0.2635
 2287SOL     OW 9220   2.485   4.654   3.859 -0.3688 -0.1904  0.4271
 2287SOL    HW2 9221   2.485   4.652   3.955  0.8995 -0.3215  0.4336
 2287SOL    HW3 9222   2.568   4.696   3.837 -1.2688  1.0566 -0.5958
 2287SOL    MW4 9223   2.496   4.659   3.869 -0.3202 -0.0434  0.2930
 2288SOL     OW 9224   2.220   0.078   3.773  0.1868 -0.4400 -0.2202
 2288SOL    HW2 9225   2.304   0.063   3.815  0.1438 -0.8869 -0.2932
 2288SOL    HW3 9226   2.239   0.072   3.679 -0.3374 -2.7882 -0.2043
 2288SOL    MW4 9227   2.234   0.075   3.766  0.1118 -0.8087 -0.2277
 2289SOL     OW 9228   2.250   0.344   3.853  0.0897 -0.2768  0.4779
 2289SOL    HW2 9229   2.228   0.254   3.828 -0.8458  0.3749 -1.1350
 2289SOL    HW3 9230   2.168   0.392   3.843 -0.0427  0.3026  3.6981
 2289SOL    MW4 9231   2.236   0.338   3.849 -0.0515 -0.1144  0.6900
 2290SOL     OW 9232   2.444   0.502   3.756 -0.0048 -0.0830 -0.3182
 2290SOL    HW2 9233   2.375   0.447   3.794  0.7102 -1.1263 -0.5266
 2290SOL    HW3 9234   2.443   0.482   3.663  0.3218  0.1940 -0.3823
 2290SOL    MW4 9235   2.435   0.492   3.749  0.1326 -0.1841 -0.3541
 2291SOL     OW 9236   2.471   0.745   3.892  0.0702 -0.0782  0.1581
 2291SOL    HW2 9237   2.393   0.799   3.880 -0.2752 -0.5005  0.4832
 2291SOL    HW3 9238   2.456   0.667   3.839 -0.3290 -0.7766  1.2801
 2291SOL    MW4 9239   2.459   0.742   3.884 -0.0281 -0.2261  0.3490
 2292SOL     OW 9240   2.251   0.902   3.780  0.1428 -0.1979  0.1313
 2292SOL    HW2 9241   2.176   0.852   3.811 -0.1456 -0.2540 -0.6622
 2292SOL    HW3 9242   2.235   0.916   3.687  0.4150  1.0230  0.2573
 2292SOL    MW4 9243   2.239   0.898   3.772  0.1409 -0.0442  0.0432
 2293SOL     OW 9244   2.250   1.173   3.880  0.3944 -0.6402  0.2093
 2293SOL    HW2 9245   2.241   1.162   3.975 -0.8164  0.2286  0.2118
 2293SOL    HW3 9246   2.263   1.084   3.847 -1.0168 -1.1705  1.0155
 2293SOL    MW4 9247   2.250   1.160   3.888  0.0484 -0.5956  0.3157
 2294SOL     OW 9248   2.490   1.298   3.774  0.5561 -0.0044 -0.0347
 2294SOL    HW2 9249   2.504   1.376   3.827  0.7959 -0.5109  0.6593
 2294SOL    HW3 9250   2.401   1.270   3.796  0.4156  0.1574 -0.3948
 2294SOL    MW4 9251   2.480   1.305   3.784  0.5691 -0.0498  0.0091
 2295SOL     OW 9252   2.501   1.547   3.904  0.1589 -0.7032  0.7586
 2295SOL    HW2 9253   2.581   1.587   3.870  0.8250 -1.7796  1.0173
 2295SOL    HW3 9254   2.430   1.590   3.856  0.8073  1.1919  1.4473
 2295SOL    MW4 9255   2.502   1.558   3.893  0.3321 -0.5952  0.8836
 2296SOL     OW 9256   2.290   1.655   3.773 -0.0107  0.3205  0.1117
 2296SOL    HW2 9257   2.277   1.746   3.801 -2.5785  0.0101  0.0848
 2296SOL    HW3 9258   2.219   1.607   3.815  0.6155 -1.4704 -0.8243
 2296SOL    MW4 9259   2.279   1.660   3.782 -0.2670  0.0433 -0.0153
 2297SOL     OW 9260   2.264   1.924   3.877 -0.3808  0.1731  0.1320
 2297SOL    HW2 9261   2.265   1.936   3.972  0.5749 -0.3194  0.1935
 2297SOL    HW3 9262   2.186   1.970   3.847  0.0730  1.5083  1.0002
 2297SOL    MW4 9263   2.254   1.931   3.885 -0.1945  0.2843  0.2546
 2298SOL     OW 9264   2.498   1.990   3.756 -0.2742  0.9113 -0.4381
 2298SOL    HW2 9265   2.492   2.084   3.775 -0.8294  0.5846  1.0973
 2298SOL    HW3 9266   2.435   1.950   3.816  0.3033 -0.4830 -0.7523
 2298SOL    MW4 9267   2.489   1.997   3.767 -0.2711  0.6841 -0.2773
 2299SOL     OW 9268   2.479   2.260   3.801  0.4440  0.5371 -0.3932
 2299SOL    HW2 9269   2.410   2.325   3.790 -0.0839 -0.0837 -0.8219
 2299SOL    HW3 9270   2.481   2.242   3.895  0.5765  1.1481 -0.2770
 2299SOL    MW4 9271   2.470   2.266   3.812  0.3920  0.5360 -0.4346
 2300SOL     OW 9272   2.259   2.430   3.764  0.1119 -0.2051 -0.3000
 2300SOL    HW2 9273   2.175   2.405   3.801  0.0204  0.2317 -0.2030
 2300SOL    HW3 9274   2.242   2.441   3.670 -0.3277  1.4853 -0.0363
 2300SOL    MW4 9275   2.246   2.428   3.756  0.0417  0.0756 -0.2527
 2301SOL     OW 9276   2.232   2.698   3.863 -0.0219 -0.0746 -0.4790
 2301SOL    HW2 9277   2.236   2.692   3.959 -0.0243  0.8050 -0.4203
 2301SOL    HW3 9278   2.248   2.608   3.833  0.3728 -0.2869  0.3376
 2301SOL    MW4 9279   2.235   2.685   3.872  0.0300  0.0134 -0.3636
 2302SOL     OW 9280   2.455   2.851   3.769 -0.0088 -0.3288  0.1602
 2302SOL    HW2 9281   2.372   2.811   3.795 -0.3084 -0.0892 -0.4209
 2302SOL    HW3 9282   2.522   2.789   3.798 -0.4541 -1.0993 -0.4347
 2302SOL    MW4 9283   2.453   2.837   3.776 -0.1070 -0.3989  0.0050
 2303SOL     OW 9284   2.473   3.108   3.887  0.3661  0.0223  0.3535
 2303SOL    HW2 9285   2.486   3.088   3.980  2.1236  0.4888  0.2129
 2303SOL    HW3 9286   2.459   3.023   3.846  2.1551 -0.4387  0.6521
 2303SOL    MW4 9287   2.473   3.094   3.894  0.8340  0.0231  0.3746
 2304SOL     OW 9288   2.230   3.209   3.764  0.4736 -0.0234  0.6242
 2304SOL    HW2 9289   2.246   3.301   3.786  0.8168 -0.4178  2.0455
 2304SOL    HW3 9290   2.292   3.160   3.818 -0.1635 -1.1359  0.3674
 2304SOL    MW4 9291   2.241   3.215   3.774  0.4349 -0.2222  0.7775
 2305SOL     OW 9292   2.244   3.472   3.828 -0.0666 -0.1721  0.0007
 2305SOL    HW2 9293   2.230   3.460   3.922 -0.6729 -1.1436 -0.2138
 2305SOL    HW3 9294   2.328   3.517   3.822 -0.2015  0.2226  1.0274
 2305SOL    MW4 9295   2.253   3.477   3.840 -0.1643 -0.2480  0.1078
 2306SOL     OW 9296   2.478   3.589   3.776  0.1670 -0.4607 -0.2496
 2306SOL    HW2 9297   2.545   3.533   3.816  1.4672  0.0820 -1.5877
 2306SOL    HW3 9298   2.507   3.599   3.685 -0.8034  1.2261 -0.3935
 2306SOL    MW4 9299   2.491   3.583   3.769  0.2103 -0.1667 -0.4454
 2307SOL     OW 9300   2.470   3.870   3.834  0.2330 -0.1049 -0.1522
 2307SOL    HW2 9301   2.544   3.927   3.815  0.4574 -0.0367  0.8821
 2307SOL    HW3 9302   2.501   3.782   3.813  0.6073 -0.0747  0.2736
 2307SOL    MW4 9303   2.484   3.866   3.829  0.3121 -0.0918  0.0405
 2308SOL     OW 9304   2.253   4.008   3.763 -0.1729  0.1259 -0.3789
 2308SOL    HW2 9305   2.330   3.963   3.796 -1.5700 -1.3711  0.9244
 2308SOL    HW3 9306   2.261   4.001   3.668  1.5579  0.4750 -0.2790
 2308SOL    MW4 9307   2.264   4.001   3.755 -0.1290 -0.0253 -0.1938
 2309SOL     OW 9308   2.259   4.278   3.846  0.4146 -0.0922  0.2834
 2309SOL    HW2 9309   2.269   4.271   3.941 -0.9184 -0.8420  0.3771
 2309SOL    HW3 9310   2.251   4.188   3.816  0.0770  0.1796 -0.4574
 2309SOL    MW4 9311   2.259   4.265   3.854  0.1943 -0.1554  0.1981
 2310SOL     OW 9312   2.491   4.389   3.750 -0.2549 -0.0756 -0.3831
 2310SOL    HW2 9313   2.416   4.346   3.789  0.6622 -1.2993  0.0464
 2310SOL    HW3 9314   2.489   4.478   3.786 -0.9517 -0.3834  0.3472
 2310SOL    MW4 9315   2.481   4.395   3.760 -0.2260 -0.2775 -0.2303
 2311SOL     OW 9316   2.925   4.627   3.898 -0.1760  0.0090  0.4655
 2311SOL    HW2 9317   2.910   4.636   3.992 -0.8858  2.0830  0.1808
 2311SOL    HW3 9318   3.006   4.675   3.882  0.1863 -0.7221  0.0747
 2311SOL    MW4 9319   2.934   4.635   3.908 -0.2220  0.1864  0.3767
 2312SOL     OW 9320   2.720   0.118   3.797 -0.0417  0.0094  0.6319
 2312SOL    HW2 9321   2.801   0.078   3.827  0.7324 -0.0904 -1.4681
 2312SOL    HW3 9322   2.727   0.117   3.701 -2.4000  0.2379  0.4168
 2312SOL    MW4 9323   2.732   0.112   3.788 -0.2506  0.0264  0.3264
 2313SOL     OW 9324   2.665   0.387   3.869  0.6346 -0.1378 -0.2320
 2313SOL    HW2 9325   2.672   0.298   3.834 -0.6785 -0.7462  1.0010
 2313SOL    HW3 9326   2.599   0.430   3.814  0.5913 -0.2273 -0.2499
 2313SOL    MW4 9327   2.657   0.381   3.857  0.4554 -0.2298 -0.0718
 2314SOL     OW 9328   2.907   0.533   3.797  0.3307  0.4888 -0.3050
 2314SOL    HW2 9329   2.989   0.492   3.825  0.2967  1.6875  1.6364
 2314SOL    HW3 9330   2.839   0.482   3.840 -0.0808 -1.4607 -3.1235
 2314SOL    MW4 9331   2.909   0.521   3.806  0.2718  0.3896 -0.4210
 2315SOL     OW 9332   2.900   0.770   3.913 -0.4782 -0.1137  0.1733
 2315SOL    HW2 9333   2.976   0.822   3.889 -0.1923  0.7092  2.6770
 2315SOL    HW3 9334   2.908   0.690   3.861  1.5377  0.3839 -0.3337
 2315SOL    MW4 9335   2.911   0.766   3.903 -0.1745  0.0606  0.4370
 2316SOL     OW 9336   2.699   0.897   3.774  0.4305  0.3009  0.0437
 2316SOL    HW2 9337   2.769   0.846   3.814 -0.4458 -0.4364  0.6623
 2316SOL    HW3 9338   2.620   0.869   3.821 -0.4808  0.0551 -1.6210
 2316SOL    MW4 9339   2.698   0.887   3.786  0.1948  0.1712 -0.0944
 2317SOL     OW 9340   2.708   1.146   3.911  0.0605  0.2159  0.1268
 2317SOL    HW2 9341   2.695   1.055   3.884 -0.7851  0.9748 -2.1129
 2317SOL    HW3 9342   2.648   1.196   3.856  0.6371  2.1548  1.2211
 2317SOL    MW4 9343   2.698   1.140   3.900  0.0250  0.5717 -0.0243
 2318SOL     OW 9344   2.910   1.265   3.733  0.0791  0.2318  0.1187
 2318SOL    HW2 9345   2.922   1.336   3.796 -2.0747  1.6775 -1.0318
 2318SOL    HW3 9346   2.853   1.203   3.778 -0.9906  0.9913 -0.1560
 2318SOL    MW4 9347   2.904   1.266   3.748 -0.3459  0.5230 -0.0694
 2319SOL     OW 9348   2.962   1.494   3.911  0.1381 -0.1309  0.1647
 2319SOL    HW2 9349   2.955   1.493   4.007 -0.2809  1.1391  0.1605
 2319SOL    HW3 9350   3.041   1.544   3.893 -0.0545  0.0592 -0.1573
 2319SOL    MW4 9351   2.971   1.500   3.922  0.0575  0.0619  0.1214
 2320SOL     OW 9352   2.738   1.660   3.812 -0.0833 -0.1567 -0.5299
 2320SOL    HW2 9353   2.813   1.611   3.848 -0.1990 -0.0482 -0.1315
 2320SOL    HW3 9354   2.755   1.665   3.718  0.4310 -0.0977 -0.4354
 2320SOL    MW4 9355   2.750   1.654   3.805 -0.0308 -0.1346 -0.4644
 2321SOL     OW 9356   2.732   1.915   3.896 -0.0839  0.7129  0.3368
 2321SOL    HW2 9357   2.735   1.826   3.862  1.2143  1.2507 -1.0011
 2321SOL    HW3 9358   2.659   1.956   3.850  2.4912  1.8393 -2.9058
 2321SOL    MW4 9359   2.723   1.909   3.885  0.4270  0.9325 -0.2675
 2322SOL     OW 9360   2.951   2.037   3.787 -0.4870  0.1915  0.0219
 2322SOL    HW2 9361   2.935   2.126   3.818  0.3903  0.9540 -1.6998
 2322SOL    HW3 9362   2.876   1.987   3.821 -0.7237  1.4610  1.4251
 2322SOL    MW4 9363   2.939   2.042   3.795 -0.4027  0.4597 -0.0200
 2323SOL     OW 9364   2.936   2.302   3.882  0.0674  0.1820  0.0869
 2323SOL    HW2 9365   2.965   2.287   3.972  0.2165 -0.7892 -0.1159
 2323SOL    HW3 9366   3.008   2.351   3.841  0.2812  0.0512  0.3105
 2323SOL    MW4 9367   2.949   2.307   3.888  0.1152  0.0367  0.0896
 2324SOL     OW 9368   2.707   2.393   3.736 -0.2115  0.2385  0.7610
 2324SOL    HW2 9369   2.782   2.372   3.791  0.0415  1.5672  0.9269
 2324SOL    HW3 9370   2.633   2.350   3.780  0.6628 -2.4750 -0.2797
 2324SOL    MW4 9371   2.707   2.384   3.749 -0.0627  0.0558  0.6456
 2325SOL     OW 9372   2.647   2.654   3.858  0.1682  0.3224 -0.1359
 2325SOL    HW2 9373   2.618   2.618   3.942  0.4364 -1.1555 -0.6743
 2325SOL    HW3 9374   2.667   2.578   3.804  2.2861  1.2866 -0.7473
 2325SOL    MW4 9375   2.646   2.639   3.862  0.4830  0.2544 -0.2878
 2326SOL     OW 9376   2.890   2.802   3.784  0.1248 -0.5047  0.0070
 2326SOL    HW2 9377   2.885   2.891   3.821 -0.8764  0.4427 -2.3493
 2326SOL    HW3 9378   2.810   2.759   3.814 -0.1005 -0.1389 -0.0682
 2326SOL    MW4 9379   2.879   2.808   3.793 -0.0370 -0.3312 -0.3138
 2327SOL     OW 9380   2.920   3.045   3.917  0.7052 -0.0733  0.6075
 2327SOL    HW2 9381   2.882   2.989   3.984  0.0774 -0.2990  0.0728
 2327SOL    HW3 9382   2.849   3.104   3.892  1.5653  1.4285  1.6538
 2327SOL    MW4 9383   2.906   3.045   3.922  0.7362  0.0949  0.6750
 2328SOL     OW 9384   2.715   3.175   3.809 -0.0178 -0.2378 -0.1474
 2328SOL    HW2 9385   2.715   3.268   3.829 -0.0118 -0.1173 -0.6986
 2328SOL    HW3 9386   2.625   3.147   3.823  0.1797 -0.3545  0.9414
 2328SOL    MW4 9387   2.703   3.184   3.813  0.0091 -0.2370 -0.0768
 2329SOL     OW 9388   2.678   3.464   3.909 -0.0760  0.2265 -0.6259
 2329SOL    HW2 9389   2.687   3.465   4.004 -0.2606 -0.4833 -0.5950
 2329SOL    HW3 9390   2.756   3.508   3.876  0.7697 -0.9357 -0.1989
 2329SOL    MW4 9391   2.689   3.470   3.917  0.0112 -0.0205 -0.5653
 2330SOL     OW 9392   2.880   3.633   3.790  0.3669 -0.2113  0.1019
 2330SOL    HW2 9393   2.959   3.589   3.820  0.4230 -0.5675 -0.5442
 2330SOL    HW3 9394   2.888   3.635   3.694 -0.1557  0.2167  0.0587
 2330SOL    MW4 9395   2.891   3.628   3.781  0.3052 -0.2019  0.0112
 2331SOL     OW 9396   2.884   3.897   3.878  0.1439 -0.2609  0.5404
 2331SOL    HW2 9397   2.870   3.899   3.972 -1.6373 -1.0502  0.3035
 2331SOL    HW3 9398   2.894   3.804   3.857  0.3121 -0.1056 -0.0786
 2331SOL    MW4 9399   2.883   3.885   3.887 -0.0689 -0.3445  0.4275
 2332SOL     OW 9400   2.683   4.039   3.763 -0.5615  0.4738 -0.0779
 2332SOL    HW2 9401   2.674   4.116   3.819 -1.7589  0.0572  0.3139
 2332SOL    HW3 9402   2.760   3.994   3.797 -0.2561  1.1353  0.1214
 2332SOL    MW4 9403   2.692   4.043   3.774 -0.6790  0.5064  0.0000
 2333SOL     OW 9404   2.698   4.273   3.913 -0.2372 -0.0476  0.3555
 2333SOL    HW2 9405   2.784   4.304   3.886 -0.3931  0.4925  0.4824
 2333SOL    HW3 9406   2.636   4.326   3.863 -0.5139  0.3662  1.1188
 2333SOL    MW4 9407   2.701   4.284   3.903 -0.2942  0.0777  0.4730
 2334SOL     OW 9408   2.941   4.383   3.773  0.0279 -0.2473  0.3026
 2334SOL    HW2 9409   3.012   4.337   3.816 -0.2212 -0.3389  0.6180
 2334SOL    HW3 9410   2.937   4.468   3.817 -1.2200 -0.9001  1.5238
 2334SOL    MW4 9411   2.950   4.388   3.784 -0.1695 -0.3457  0.5054
 2335SOL     OW 9412   3.358   0.009   3.923 -0.3757  0.1144  0.5662
 2335SOL    HW2 9413   3.369   0.009   4.018  0.3547 -0.5364  0.4797
 2335SOL    HW3 9414   3.430   0.062   3.890 -1.2622  1.2740  0.4382
 2335SOL    MW4 9415   3.369   0.016   3.931 -0.3963  0.1816  0.5381
 2336SOL     OW 9416   3.138   0.124   3.805  0.0766  0.3304 -0.4317
 2336SOL    HW2 9417   3.205   0.063   3.835  0.5939  0.8799 -0.4739
 2336SOL    HW3 9418   3.150   0.128   3.710  0.7015  1.2890 -0.3068
 2336SOL    MW4 9419   3.148   0.116   3.797  0.2272  0.5294 -0.4210
 2337SOL     OW 9420   3.138   0.418   3.870  0.0003 -0.6970  0.3342
 2337SOL    HW2 9421   3.144   0.407   3.965  1.7732  1.3308  0.4903
 2337SOL    HW3 9422   3.135   0.329   3.835 -0.7063 -1.4521  2.2839
 2337SOL    MW4 9423   3.138   0.405   3.878  0.1414 -0.5291  0.6123
 2338SOL     OW 9424   3.393   0.520   3.817  0.0943  0.0707  0.0718
 2338SOL    HW2 9425   3.457   0.468   3.866 -0.1570  0.6827  1.0742
 2338SOL    HW3 9426   3.310   0.474   3.831 -0.0069  0.3407  0.3799
 2338SOL    MW4 9427   3.390   0.507   3.825  0.0477  0.1871  0.2446
 2339SOL     OW 9428   3.376   0.785   3.911 -0.1509  0.1968 -0.1070
 2339SOL    HW2 9429   3.369   0.779   4.006  0.2991 -0.8737 -0.1291
 2339SOL    HW3 9430   3.400   0.696   3.883  1.9960  1.0243 -1.0169
 2339SOL    MW4 9431   3.378   0.772   3.920  0.1917  0.1647 -0.2301
 2340SOL     OW 9432   3.125   0.883   3.784  0.5523  0.1699  0.2020
 2340SOL    HW2 9433   3.203   0.846   3.825  0.8406  0.8375  0.2620
 2340SOL    HW3 9434   3.144   0.880   3.690 -0.5938 -2.4651  0.0043
 2340SOL    MW4 9435   3.138   0.878   3.777  0.4392 -0.0896  0.1836
 2341SOL     OW 9436   3.162   1.147   3.823  0.2712 -0.7928  0.3161
 2341SOL    HW2 9437   3.151   1.053   3.812 -0.1295 -0.7743  0.5609
 2341SOL    HW3 9438   3.084   1.185   3.783  0.8132 -0.5226 -0.5032
 2341SOL    MW4 9439   3.150   1.140   3.816  0.2897 -0.7546  0.2403
 2342SOL     OW 9440   3.387   1.271   3.739 -0.2978 -0.5031  0.1197
 2342SOL    HW2 9441   3.313   1.211   3.747  0.9945 -2.1821 -0.0626
 2342SOL    HW3 9442   3.393   1.289   3.645  0.9358 -2.2583 -0.1668
 2342SOL    MW4 9443   3.378   1.265   3.728  0.0353 -0.9562  0.0577
 2343SOL     OW 9444   3.352   1.520   3.868  0.0261  0.1078 -0.0039
 2343SOL    HW2 9445   3.287   1.567   3.817 -2.2184 -1.6452  1.1592
 2343SOL    HW3 9446   3.373   1.442   3.816  0.8165  0.3901 -0.1247
 2343SOL    MW4 9447   3.346   1.516   3.854 -0.1657 -0.0863  0.1333
 2344SOL     OW 9448   3.152   1.656   3.746  0.3414  0.2071 -0.0815
 2344SOL    HW2 9449   3.163   1.736   3.798 -0.2144  0.4599 -0.3569
 2344SOL    HW3 9450   3.165   1.684   3.655 -0.3933  0.0901 -0.2242
 2344SOL    MW4 9451   3.155   1.671   3.741  0.1709  0.2249 -0.1366
 2345SOL     OW 9452   3.187   1.889   3.882 -0.0149 -0.2290 -0.6617
 2345SOL    HW2 9453   3.206   1.894   3.975 -0.5185 -0.2756 -0.5539
 2345SOL    HW3 9454   3.107   1.941   3.871  0.2204  0.0446 -1.1165
 2345SOL    MW4 9455   3.179   1.897   3.893 -0.0503 -0.1990 -0.7076
 2346SOL     OW 9456   3.396   2.044   3.791  0.1621 -0.0621 -0.2513
 2346SOL    HW2 9457   3.315   2.001   3.818  1.2369 -0.5146  2.3696
 2346SOL    HW3 9458   3.397   2.035   3.695 -1.9950 -1.5606 -0.1723
 2346SOL    MW4 9459   3.385   2.037   3.782  0.0193 -0.3197  0.1047
 2347SOL     OW 9460   3.396   2.313   3.859 -0.4794 -0.1443  0.5802
 2347SOL    HW2 9461   3.311   2.345   3.827 -0.5601 -1.1791 -0.2539
 2347SOL    HW3 9462   3.393   2.219   3.844  1.2000 -0.0657 -0.3402
 2347SOL    MW4 9463   3.384   2.305   3.853 -0.2687 -0.2701  0.3488
 2348SOL     OW 9464   3.152   2.426   3.759  0.0904  0.1582 -0.1016
 2348SOL    HW2 9465   3.154   2.512   3.800 -0.9619 -0.0351  0.3657
 2348SOL    HW3 9466   3.160   2.444   3.665 -1.3195  0.8441 -0.1010
 2348SOL    MW4 9467   3.154   2.440   3.752 -0.2346  0.2232 -0.0398
 2349SOL     OW 9468   3.135   2.677   3.870  0.0104 -0.2438 -0.2373
 2349SOL    HW2 9469   3.154   2.689   3.963 -0.9584 -0.8266  0.0398
 2349SOL    HW3 9470   3.046   2.710   3.859  0.1466 -0.1102 -0.9730
 2349SOL    MW4 9471   3.126   2.683   3.881 -0.0997 -0.3028 -0.2975
 2350SOL     OW 9472   3.337   2.829   3.756  0.3541 -0.0311 -0.4348
 2350SOL    HW2 9473   3.326   2.901   3.818  0.2765 -0.0548 -0.4203
 2350SOL    HW3 9474   3.261   2.773   3.771 -0.4505  0.7153 -1.5430
 2350SOL    MW4 9475   3.325   2.831   3.766  0.2377  0.0641 -0.5789
 2351SOL     OW 9476   3.362   3.077   3.893 -0.1435  0.2762  0.1253
 2351SOL    HW2 9477   3.279   3.117   3.868 -0.3111  0.2424  0.6308
 2351SOL    HW3 9478   3.428   3.123   3.840 -0.3099  1.3371  0.8208
 2351SOL    MW4 9479   3.360   3.088   3.882 -0.1876  0.4117  0.2837
 2352SOL     OW 9480   3.138   3.226   3.824  0.1536  0.0187  0.0959
 2352SOL    HW2 9481   3.073   3.165   3.858  0.4080  0.1435  0.8194
 2352SOL    HW3 9482   3.135   3.215   3.729 -1.5786  0.6798  0.0514
 2352SOL    MW4 9483   3.129   3.217   3.816 -0.0412  0.1223  0.1857
 2353SOL     OW 9484   3.083   3.491   3.892  0.0850  0.7873 -0.2483
 2353SOL    HW2 9485   3.157   3.543   3.860  0.4547 -0.9658 -2.4226
 2353SOL    HW3 9486   3.104   3.401   3.865 -2.3384  0.1164 -0.0031
 2353SOL    MW4 9487   3.096   3.486   3.884 -0.1860  0.4675 -0.5026
 2354SOL     OW 9488   3.307   3.620   3.806  0.1481  0.2958  0.2984
 2354SOL    HW2 9489   3.325   3.707   3.842  0.0729  0.1293  0.7352
 2354SOL    HW3 9490   3.329   3.628   3.713  1.1028  0.5039  0.5377
 2354SOL    MW4 9491   3.312   3.633   3.798  0.2639  0.3014  0.3877
 2355SOL     OW 9492   3.352   3.882   3.888 -0.0120  0.0349  0.1627
 2355SOL    HW2 9493   3.429   3.927   3.855  0.1023  0.3452  0.8301
 2355SOL    HW3 9494   3.278   3.926   3.845  0.1656  0.0219 -0.1513
 2355SOL    MW4 9495   3.352   3.894   3.878  0.0267  0.0739  0.2091
 2356SOL     OW 9496   3.125   4.013   3.786 -0.0631 -0.3487  0.2301
 2356SOL    HW2 9497   3.131   4.107   3.806  1.2021 -0.3193 -0.2681
 2356SOL    HW3 9498   3.039   3.987   3.820  0.4733  0.5163  2.3311
 2356SOL    MW4 9499   3.114   4.022   3.793  0.1745 -0.2308  0.4416
 2357SOL     OW 9500   3.169   4.270   3.883 -0.4296  0.0600 -0.0133
 2357SOL    HW2 9501   3.177   4.288   3.977  0.3819  0.6336 -0.1940
 2357SOL    HW3 9502   3.237   4.323   3.842  0.0816 -1.1912 -0.8179
 2357SOL    MW4 9503   3.179   4.279   3.890 -0.2551 -0.0291 -0.1433
 2358SOL     OW 9504   3.381   4.435   3.804  0.1472 -0.2219 -0.1421
 2358SOL    HW2 9505   3.438   4.379   3.856  1.2623  0.3153 -0.7686
 2358SOL    HW3 9506   3.374   4.516   3.854  1.5939  0.4687 -1.0114
 2358SOL    MW4 9507   3.387   4.439   3.817  0.4849 -0.0596 -0.3397
 2359SOL     OW 9508   3.807   4.642   3.884  0.0314 -0.3174 -0.1711
 2359SOL    HW2 9509   3.886   4.682   3.848 -0.6940 -1.1953 -2.8442
 2359SOL    HW3 9510   3.793   4.565   3.830 -2.8153 -0.0092  0.0680
 2359SOL    MW4 9511   3.816   4.637   3.872 -0.4399 -0.3929 -0.4921
 2360SOL     OW 9512   3.577   0.122   3.800  0.0275  0.3364 -0.3077
 2360SOL    HW2 9513   3.656   0.080   3.833  0.3887  2.5165  1.7357
 2360SOL    HW3 9514   3.580   0.108   3.705  0.5829 -3.3569  0.2161
 2360SOL    MW4 9515   3.588   0.115   3.792  0.1483  0.1368  0.0310
 2361SOL     OW 9516   3.617   0.369   3.909  0.9025 -0.0166  0.1812
 2361SOL    HW2 9517   3.680   0.422   3.860  1.0335  0.3300  0.7206
 2361SOL    HW3 9518   3.613   0.286   3.861  0.9773  0.3400 -0.4534
 2361SOL    MW4 9519   3.625   0.365   3.896  0.9296  0.0762  0.1686
 2362SOL     OW 9520   3.813   0.527   3.771  0.0648 -0.0731 -0.1330
 2362SOL    HW2 9521   3.884   0.477   3.812 -0.5645 -1.0227 -0.2062
 2362SOL    HW3 9522   3.802   0.603   3.828  1.6379  0.4721 -0.5073
 2362SOL    MW4 9523   3.821   0.531   3.784  0.1893 -0.1265 -0.1919
 2363SOL     OW 9524   3.769   0.736   3.943 -0.0252  0.0468  0.2611
 2363SOL    HW2 9525   3.850   0.784   3.927 -0.0318  0.2806  0.8947
 2363SOL    HW3 9526   3.703   0.779   3.889 -0.3077  1.5578  1.7407
 2363SOL    MW4 9527   3.771   0.748   3.934 -0.0632  0.2770  0.5398
 2364SOL     OW 9528   3.605   0.886   3.761  0.7653  0.4219  0.0364
 2364SOL    HW2 9529   3.617   0.970   3.807  0.5153  0.8970 -0.7606
 2364SOL    HW3 9530   3.533   0.844   3.809 -0.2193  1.3875 -0.5588
 2364SOL    MW4 9531   3.597   0.891   3.774  0.6022  0.6120 -0.1471
 2365SOL     OW 9532   3.587   1.127   3.882 -0.2684 -0.2622 -0.6056
 2365SOL    HW2 9533   3.666   1.174   3.854 -0.3419  0.7282  0.8243
 2365SOL    HW3 9534   3.515   1.173   3.837 -0.3694  1.2167  1.0533
 2365SOL    MW4 9535   3.588   1.139   3.872 -0.2916  0.0637 -0.1979
 2366SOL     OW 9536   3.819   1.276   3.794  0.2316 -0.1810  0.1208
 2366SOL    HW2 9537   3.899   1.232   3.824  1.6008  0.7146 -2.1212
 2366SOL    HW3 9538   3.826   1.365   3.830  0.7940  0.2278 -0.9832
 2366SOL    MW4 9539   3.831   1.282   3.803  0.4864 -0.0088 -0.3207
 2367SOL     OW 9540   3.851   1.532   3.879  0.0431 -0.4445 -0.8174
 2367SOL    HW2 9541   3.848   1.536   3.974  0.1629  0.4769 -0.8476
 2367SOL    HW3 9542   3.765   1.562   3.850  0.1791 -0.2484 -1.0178
 2367SOL    MW4 9543   3.839   1.536   3.888  0.0768 -0.2971 -0.8481
 2368SOL     OW 9544   3.600   1.625   3.794  0.2447 -0.2965 -0.2928
 2368SOL    HW2 9545   3.514   1.594   3.823 -0.3108  0.3531 -1.2197
 2368SOL    HW3 9546   3.597   1.619   3.699  1.1410 -0.0147 -0.3463
 2368SOL    MW4 9547   3.588   1.620   3.786  0.2897 -0.1734 -0.4222
 2369SOL     OW 9548   3.614   1.894   3.854 -0.0299  0.4630  0.3030
 2369SOL    HW2 9549   3.595   1.803   3.832  0.0610  1.0946 -2.6940
 2369SOL    HW3 9550   3.530   1.939   3.846 -0.0635  0.6455  1.6948
 2369SOL    MW4 9551   3.600   1.888   3.850 -0.0226  0.5704  0.0913
 2370SOL     OW 9552   3.835   2.081   3.843  0.4703 -0.0419  0.2522
 2370SOL    HW2 9553   3.914   2.033   3.867  0.7711 -1.2782 -2.9921
 2370SOL    HW3 9554   3.764   2.016   3.846  0.2915  0.0909 -0.7991
 2370SOL    MW4 9555   3.836   2.066   3.847  0.4866 -0.1872 -0.3145
 2371SOL     OW 9556   3.798   2.351   3.882 -0.0840 -0.4766 -0.6103
 2371SOL    HW2 9557   3.729   2.386   3.827 -0.3471 -0.7864 -0.4772
 2371SOL    HW3 9558   3.814   2.263   3.848  1.2938  0.1403 -1.5995
 2371SOL    MW4 9559   3.791   2.344   3.870  0.0632 -0.4361 -0.7231
 2372SOL     OW 9560   3.584   2.445   3.721 -0.3314 -0.1689 -0.4072
 2372SOL    HW2 9561   3.533   2.370   3.752  1.9320 -1.5350  0.1015
 2372SOL    HW3 9562   3.582   2.438   3.626 -1.7743  0.2799 -0.4295
 2372SOL    MW4 9563   3.577   2.434   3.713 -0.2234 -0.2899 -0.3431
 2373SOL     OW 9564   3.540   2.684   3.867 -0.0740  0.2479  0.4472
 2373SOL    HW2 9565   3.538   2.596   3.830  0.5209  0.4565 -0.1040
 2373SOL    HW3 9566   3.479   2.735   3.814 -0.7354  0.0703  1.0332
 2373SOL    MW4 9567   3.532   2.679   3.855 -0.0827  0.2520  0.4518
 2374SOL     OW 9568   3.757   2.843   3.790  0.4552 -0.5236 -0.0343
 2374SOL    HW2 9569   3.840   2.797   3.801 -0.2497 -1.6718  0.5375
 2374SOL    HW3 9570   3.694   2.792   3.840 -0.7999 -0.2022 -1.2593
 2374SOL    MW4 9571   3.760   2.830   3.798  0.1965 -0.6325 -0.1202
 2375SOL     OW 9572   3.792   3.126   3.815  0.4840  0.5944 -0.3129
 2375SOL    HW2 9573   3.710   3.171   3.796  0.1262 -0.3871 -1.1419
 2375SOL    HW3 9574   3.769   3.033   3.818  1.4661  0.3482 -0.0276
 2375SOL    MW4 9575   3.778   3.120   3.813  0.5662  0.4320 -0.3846
 2376SOL     OW 9576   3.546   3.233   3.764 -0.4140  0.2324  0.6986
 2376SOL    HW2 9577   3.548   3.324   3.793  0.1114 -0.2748  2.3243
 2376SOL    HW3 9578   3.543   3.238   3.668  1.1927  1.9464  0.7128
 2376SOL    MW4 9579   3.546   3.246   3.755 -0.1326  0.3917  0.9151
 2377SOL     OW 9580   3.554   3.504   3.881  0.1825  0.0058  0.2655
 2377SOL    HW2 9581   3.577   3.527   3.971  0.0706 -0.8196  0.5155
 2377SOL    HW3 9582   3.470   3.547   3.866 -0.0661 -0.2971  0.7518
 2377SOL    MW4 9583   3.546   3.513   3.891  0.1347 -0.1428  0.3626
 2378SOL     OW 9584   3.807   3.600   3.811 -0.5302  0.1634  0.2164
 2378SOL    HW2 9585   3.805   3.691   3.843 -1.7223  0.4053 -0.5299
 2378SOL    HW3 9586   3.722   3.564   3.837 -0.0445 -0.7622  0.5501
 2378SOL    MW4 9587   3.796   3.607   3.819 -0.6235  0.0732  0.1619
 2379SOL     OW 9588   3.779   3.861   3.904 -0.0853  0.0648 -0.7761
 2379SOL    HW2 9589   3.767   3.848   3.998 -2.2932 -0.7482 -1.1481
 2379SOL    HW3 9590   3.866   3.899   3.896 -0.0844  0.6294  1.6411
 2379SOL    MW4 9591   3.789   3.864   3.915 -0.3767  0.0319 -0.5059
 2380SOL     OW 9592   3.581   4.009   3.795  0.2234  0.3521 -0.3320
 2380SOL    HW2 9593   3.574   4.086   3.852  0.8027  0.5972 -0.5854
 2380SOL    HW3 9594   3.644   3.953   3.840 -1.1654 -0.5627  0.5084
 2380SOL    MW4 9595   3.589   4.012   3.809  0.1166  0.2637 -0.2544
 2381SOL     OW 9596   3.544   4.254   3.921 -0.3158 -0.3355  0.4646
 2381SOL    HW2 9597   3.557   4.242   4.015 -0.7000 -1.0453  0.4315
 2381SOL    HW3 9598   3.615   4.312   3.894 -0.0473 -0.3437  1.1457
 2381SOL    MW4 9599   3.555   4.260   3.929 -0.3312 -0.4301  0.5503
 2382SOL     OW 9600   3.762   4.380   3.793 -0.3709  0.1850  0.4197
 2382SOL    HW2 9601   3.829   4.325   3.835 -0.5784  0.4493  1.0941
 2382SOL    HW3 9602   3.781   4.372   3.700  0.0137 -0.5097  0.5485
 2382SOL    MW4 9603   3.773   4.371   3.786 -0.3474  0.1283  0.5257
 2383SOL     OW 9604   4.233   4.624   3.882  0.3341  0.1584  0.2733
 2383SOL    HW2 9605   4.247   4.630   3.977  1.3159 -0.2833  0.1556
 2383SOL    HW3 9606   4.315   4.655   3.844 -0.4157  1.2969 -0.4465
 2383SOL    MW4 9607   4.246   4.629   3.890  0.3643  0.2503  0.1624
 2384SOL     OW 9608   4.033   0.095   3.776 -0.4207 -0.1652  0.3040
 2384SOL    HW2 9609   4.097   0.040   3.820 -0.5265 -0.5325  0.0022
 2384SOL    HW3 9610   4.038   0.069   3.684  0.6966  1.4743 -0.1247
 2384SOL    MW4 9611   4.042   0.084   3.770 -0.2871  0.0027  0.2079
 2385SOL     OW 9612   4.030   0.367   3.851 -0.9716 -0.3492 -0.9107
 2385SOL    HW2 9613   4.033   0.368   3.947  0.0198  0.0139 -0.9359
 2385SOL    HW3 9614   4.011   0.276   3.829 -1.9242 -0.2946 -0.3622
 2385SOL    MW4 9615   4.028   0.355   3.861 -0.9661 -0.2941 -0.8419
 2386SOL     OW 9616   4.271   0.494   3.804 -0.3271 -0.1608 -0.1080
 2386SOL    HW2 9617   4.192   0.440   3.804  0.0992 -0.8002 -0.4281
 2386SOL    HW3 9618   4.297   0.499   3.712  0.4694 -0.6705  0.0793
 2386SOL    MW4 9619   4.264   0.487   3.792 -0.1659 -0.3124 -0.1259
 2387SOL     OW 9620   4.244   0.757   3.917  0.3344  0.5212  0.0096
 2387SOL    HW2 9621   4.153   0.776   3.892 -0.4051 -0.4707  1.8583
 2387SOL    HW3 9622   4.257   0.666   3.888  1.1185  1.0105 -1.2329
 2387SOL    MW4 9623   4.234   0.747   3.910  0.3400  0.4549  0.0899
 2388SOL     OW 9624   3.993   0.863   3.851  0.6013 -0.4648 -0.0069
 2388SOL    HW2 9625   4.026   0.952   3.863 -3.0823  1.0052 -0.3975
 2388SOL    HW3 9626   4.006   0.846   3.758  2.3260 -0.8230  0.2680
 2388SOL    MW4 9627   3.999   0.873   3.840  0.3431 -0.3181 -0.0219
 2389SOL     OW 9628   4.042   1.149   3.909  0.5460 -0.1406 -0.1185
 2389SOL    HW2 9629   4.062   1.173   4.000  0.2461 -0.4506  0.0297
 2389SOL    HW3 9630   4.122   1.171   3.861  0.3345  0.9800  0.0454
 2389SOL    MW4 9631   4.055   1.155   3.915  0.4787 -0.0336 -0.0772
 2390SOL     OW 9632   4.260   1.241   3.769  0.2516 -0.2062  0.1047
 2390SOL    HW2 9633   4.271   1.330   3.801 -0.4542 -0.1509  0.2018
 2390SOL    HW3 9634   4.261   1.248   3.674  0.9301 -0.1921  0.1086
 2390SOL    MW4 9635   4.262   1.253   3.761  0.2484 -0.1969  0.1180
 2391SOL     OW 9636   4.307   1.479   3.900 -0.5156 -0.2065 -0.0158
 2391SOL    HW2 9637   4.231   1.537   3.899 -0.6757 -0.4022  0.5008
 2391SOL    HW3 9638   4.377   1.529   3.858 -0.7169  0.2644  0.2168
 2391SOL    MW4 9639   4.306   1.493   3.894 -0.5636 -0.1701  0.0830
 2392SOL     OW 9640   4.105   1.652   3.819 -0.7779  0.3132  0.5402
 2392SOL    HW2 9641   4.089   1.740   3.853 -1.3801 -0.4746  2.4113
 2392SOL    HW3 9642   4.025   1.604   3.841  0.1798 -1.1017  0.9572
 2392SOL    MW4 9643   4.092   1.657   3.827 -0.7305  0.0226  0.8421
 2393SOL     OW 9644   4.027   1.904   3.914  0.1161 -0.2271 -0.2552
 2393SOL    HW2 9645   4.049   1.903   4.007 -1.6652  3.4293  0.2896
 2393SOL    HW3 9646   4.089   1.966   3.876 -0.0262 -0.7159 -1.3049
 2393SOL    MW4 9647   4.038   1.912   3.921 -0.1378  0.1907 -0.3216
 2394SOL     OW 9648   4.225   2.042   3.820 -0.1233  0.1376  0.4755
 2394SOL    HW2 9649   4.223   2.134   3.846 -0.1530  0.1854  0.3023
 2394SOL    HW3 9650   4.237   2.044   3.725  0.2712 -0.0422  0.5207
 2394SOL    MW4 9651   4.227   2.054   3.811 -0.0753  0.1202  0.4585
 2395SOL     OW 9652   4.246   2.315   3.879 -0.3375 -0.3618  0.1602
 2395SOL    HW2 9653   4.250   2.306   3.974  0.0394 -1.8562  0.0223
 2395SOL    HW3 9654   4.165   2.362   3.863 -0.3160  0.0636  1.2258
 2395SOL    MW4 9655   4.236   2.320   3.890 -0.2851 -0.5028  0.2828
 2396SOL     OW 9656   4.027   2.466   3.782 -1.0126 -0.0956  0.1479
 2396SOL    HW2 9657   4.024   2.559   3.805  0.4654  0.3800 -1.5212
 2396SOL    HW3 9658   3.944   2.431   3.816 -0.6374  1.3544  2.6979
 2396SOL    MW4 9659   4.016   2.474   3.790 -0.7682  0.1583  0.2642
 2397SOL     OW 9660   4.003   2.732   3.884  0.3679 -0.1167 -0.0800
 2397SOL    HW2 9661   3.989   2.716   3.977  1.4740  1.3130  0.3588
 2397SOL    HW3 9662   4.079   2.791   3.881  1.9876 -2.2325 -2.0176
 2397SOL    MW4 9663   4.012   2.738   3.896  0.7277 -0.2069 -0.2780
 2398SOL     OW 9664   4.217   2.866   3.817  0.5973 -0.0594 -0.2071
 2398SOL    HW2 9665   4.246   2.953   3.844  0.0185 -0.1918  0.8547
 2398SOL    HW3 9666   4.272   2.806   3.867 -1.4464 -0.3105  1.7895
 2398SOL    MW4 9667   4.228   2.870   3.827  0.2513 -0.1101  0.1965
 2399SOL     OW 9668   4.246   3.133   3.864  0.3378  0.4292  0.3512
 2399SOL    HW2 9669   4.184   3.158   3.796 -0.5587 -1.0958  0.5636
 2399SOL    HW3 9670   4.331   3.132   3.821 -0.3010 -1.1796 -0.9359
 2399SOL    MW4 9671   4.249   3.136   3.850  0.1354  0.0155  0.2091
 2400SOL     OW 9672   4.024   3.237   3.715 -0.6842  0.4108 -0.0668
 2400SOL    HW2 9673   3.939   3.210   3.749 -0.4288 -0.9625 -0.4477
 2400SOL    HW3 9674   4.026   3.201   3.626  0.3977  0.1668  0.0419
 2400SOL    MW4 9675   4.013   3.229   3.707 -0.5078  0.1974 -0.1028
 2401SOL     OW 9676   4.033   3.459   3.884 -0.4027 -0.1281  0.1302
 2401SOL    HW2 9677   4.031   3.389   3.818  0.0212  1.4659 -1.6386
 2401SOL    HW3 9678   3.958   3.514   3.861  0.2604  0.9055  0.4620
 2401SOL    MW4 9679   4.023   3.457   3.872 -0.2594  0.2186 -0.0594
 2402SOL     OW 9680   4.252   3.591   3.809 -0.5427 -0.0906  0.0742
 2402SOL    HW2 9681   4.174   3.544   3.840 -0.1491 -0.1274  1.0285
 2402SOL    HW3 9682   4.325   3.547   3.852  0.0222 -0.1197 -0.8953
 2402SOL    MW4 9683   4.251   3.579   3.819 -0.4163 -0.0992  0.0725
 2403SOL     OW 9684   4.250   3.840   3.918  0.0536  0.0282 -0.4692
 2403SOL    HW2 9685   4.169   3.884   3.890 -1.5486 -1.4924  1.6606
 2403SOL    HW3 9686   4.252   3.758   3.869  0.1022 -0.1176 -0.2250
 2403SOL    MW4 9687   4.240   3.835   3.908 -0.1521 -0.1915 -0.1559
 2404SOL     OW 9688   4.018   3.970   3.837  0.1808  0.1456  0.4186
 2404SOL    HW2 9689   4.009   4.057   3.876  0.1425  0.5139 -0.3850
 2404SOL    HW3 9690   4.022   3.987   3.743 -1.4867 -0.8429  0.1346
 2404SOL    MW4 9691   4.017   3.984   3.830 -0.0443  0.0637  0.2751
 2405SOL     OW 9692   3.966   4.248   3.912 -0.0740  0.2885  0.2753
 2405SOL    HW2 9693   3.962   4.243   4.008  1.2538 -0.7412  0.2878
 2405SOL    HW3 9694   4.053   4.284   3.894 -0.4748  0.8652 -0.5350
 2405SOL    MW4 9695   3.977   4.252   3.923  0.0484  0.2289  0.1700
 2406SOL     OW 9696   4.225   4.340   3.823 -0.2544 -0.2014  0.0771
 2406SOL    HW2 9697   4.220   4.431   3.854 -0.4467  0.3903 -1.6372
 2406SOL    HW3 9698   4.299   4.303   3.871 -0.6841  0.6062  1.4029
 2406SOL    MW4 9699   4.234   4.347   3.833 -0.3366 -0.0167  0.0260
 2407SOL     OW 9700   0.262   0.020   4.140 -0.2974 -0.0895 -0.0739
 2407SOL    HW2 9701   0.345   0.047   4.179 -0.1435 -0.3834 -0.1961
 2407SOL    HW3 9702   0.240  -0.062   4.183 -0.2161 -0.3243 -0.4766
 2407SOL    MW4 9703   0.270   0.013   4.150 -0.2664 -0.1593 -0.1431
 2408SOL     OW 9704   4.488   0.086   4.265 -0.0389  0.4208 -0.2369
 2408SOL    HW2 9705   4.500   0.066   4.358  0.5751 -1.8724 -0.7845
 2408SOL    HW3 9706   4.577   0.091   4.230 -0.2199  2.8370 -0.4121
 2408SOL    MW4 9707   4.501   0.084   4.272  0.0182  0.4370 -0.3324
 2409SOL     OW 9708   0.007   0.361   4.192  0.3866 -0.1163 -0.5340
 2409SOL    HW2 9709  -0.018   0.283   4.242  0.6869 -0.9415 -1.6653
 2409SOL    HW3 9710   0.013   0.331   4.102  0.8256  1.1470 -0.9307
 2409SOL    MW4 9711   0.005   0.347   4.187  0.4849 -0.0585 -0.7358
 2410SOL     OW 9712   0.211   0.516   4.256  0.0750  0.2909 -0.1550
 2410SOL    HW2 9713   0.285   0.472   4.214  0.1829 -0.8041  1.1434
 2410SOL    HW3 9714   0.135   0.462   4.235 -0.5613  1.9560 -2.3278
 2410SOL    MW4 9715   0.211   0.503   4.248  0.0053  0.3662 -0.2699
 2411SOL     OW 9716   0.236   0.777   4.166 -0.3144 -0.3114  0.5651
 2411SOL    HW2 9717   0.175   0.831   4.216 -0.7530 -0.6433  0.3875
 2411SOL    HW3 9718   0.245   0.697   4.219 -1.8311 -1.2343 -0.5623
 2411SOL    MW4 9719   0.229   0.773   4.180 -0.5724 -0.4770  0.3929
 2412SOL     OW 9720   0.026   0.877   4.313 -0.3136  0.0480  0.4071
 2412SOL    HW2 9721  -0.054   0.827   4.294 -1.0310 -0.0396  3.4015
 2412SOL    HW3 9722   0.004   0.967   4.292 -0.9083 -0.1019  0.3863
 2412SOL    MW4 9723   0.012   0.882   4.307 -0.4867  0.0166  0.7997
 2413SOL     OW 9724   0.043   1.129   4.217 -0.0549 -0.1817 -0.2372
 2413SOL    HW2 9725   0.132   1.163   4.213  0.1470 -0.6645  0.1091
 2413SOL    HW3 9726   0.017   1.117   4.126  1.0817 -2.2543 -0.3007
 2413SOL    MW4 9727   0.051   1.132   4.205  0.1217 -0.5188 -0.1998
 2414SOL     OW 9728   0.304   1.265   4.252 -0.4781 -0.4864 -0.5006
 2414SOL    HW2 9729   0.327   1.278   4.344 -0.7411  0.8484 -0.6046
 2414SOL    HW3 9730   0.384   1.230   4.212 -0.1063 -0.3161  0.0843
 2414SOL    MW4 9731   0.318   1.262   4.259 -0.4637 -0.2878 -0.4368
 2415SOL     OW 9732   0.292   1.306   4.545 -0.1637 -0.1004  0.0424
 2415SOL    HW2 9733   0.368   1.344   4.589  0.2177 -0.6567 -0.1359
 2415SOL    HW3 9734   0.224   1.374   4.551  0.8251  1.0057 -1.1402
 2415SOL    MW4 9735   0.293   1.320   4.552  0.0171 -0.0279 -0.1369
 2416SOL     OW 9736   0.060   1.679   4.308 -0.0987  0.5013  0.0987
 2416SOL    HW2 9737  -0.003   1.621   4.266 -2.2701  1.5740  1.7864
 2416SOL    HW3 9738   0.029   1.687   4.399  0.3473  3.9466  0.0256
 2416SOL    MW4 9739   0.048   1.673   4.315 -0.3264  1.0973  0.3119
 2417SOL     OW 9740   0.248   2.069   4.232  0.7546 -0.5462  0.2483
 2417SOL    HW2 9741   0.268   2.081   4.325 -0.7901  0.6021  0.4608
 2417SOL    HW3 9742   0.329   2.035   4.194  1.7408 -0.0044  1.8167
 2417SOL    MW4 9743   0.261   2.066   4.240  0.6809 -0.3231  0.4835
 2418SOL     OW 9744   0.524   1.815   4.472 -0.4385  0.5108 -0.4952
 2418SOL    HW2 9745   0.616   1.792   4.486 -0.4233  0.3479 -0.8582
 2418SOL    HW3 9746   0.505   1.784   4.383 -0.9698  0.1541 -0.2570
 2418SOL    MW4 9747   0.533   1.808   4.462 -0.5066  0.4421 -0.5121
 2419SOL     OW 9748   0.212   2.313   4.112 -0.5055 -0.1657  0.1307
 2419SOL    HW2 9749   0.280   2.365   4.155 -0.3604 -0.3831  0.1638
 2419SOL    HW3 9750   0.215   2.228   4.156 -0.0965 -0.5155 -0.5691
 2419SOL    MW4 9751   0.221   2.308   4.124 -0.4324 -0.2406  0.0424
 2420SOL     OW 9752   0.003   2.454   4.226 -0.1039 -0.3642 -0.1181
 2420SOL    HW2 9753  -0.077   2.412   4.195 -0.4464  0.5752 -0.5170
 2420SOL    HW3 9754   0.073   2.400   4.191 -0.5231 -0.1048 -1.3929
 2420SOL    MW4 9755   0.002   2.441   4.217 -0.2044 -0.2062 -0.3390
 2421SOL     OW 9756   4.457   2.725   4.183  0.2616  0.5565  0.4215
 2421SOL    HW2 9757   4.541   2.765   4.205 -0.6922  1.2040  3.0320
 2421SOL    HW3 9758   4.464   2.635   4.214 -1.0264  1.4243  3.3715
 2421SOL    MW4 9759   4.469   2.718   4.190 -0.0339  0.7565  1.1554
 2422SOL     OW 9760   0.195   2.833   4.271 -0.3285 -0.1252  0.0712
 2422SOL    HW2 9761   0.277   2.808   4.227 -1.8912 -0.9261 -2.5164
 2422SOL    HW3 9762   0.181   2.924   4.245 -1.0602 -0.4831 -0.8266
 2422SOL    MW4 9763   0.204   2.842   4.261 -0.6312 -0.2782 -0.3881
 2423SOL     OW 9764   0.240   3.110   4.214 -0.8408 -0.1159 -0.5500
 2423SOL    HW2 9765   0.318   3.141   4.259  0.0544 -0.8372 -1.5698
 2423SOL    HW3 9766   0.168   3.156   4.256  0.3491  2.6275 -1.4177
 2423SOL    MW4 9767   0.241   3.120   4.226 -0.5657  0.1512 -0.7992
 2424SOL     OW 9768   0.013   3.231   4.328  0.1594 -0.2929  0.1683
 2424SOL    HW2 9769  -0.060   3.190   4.281 -0.0854  0.4114 -0.0654
 2424SOL    HW3 9770   0.033   3.310   4.279  1.2785 -0.6228  0.0633
 2424SOL    MW4 9771   0.006   3.236   4.316  0.2748 -0.2437  0.1240
 2425SOL     OW 9772   0.010   3.457   4.173 -0.0520 -0.2994 -0.1772
 2425SOL    HW2 9773  -0.066   3.499   4.213 -1.8091 -2.7585 -0.7510
 2425SOL    HW3 9774  -0.012   3.453   4.080  0.9763 -0.6682 -0.4098
 2425SOL    MW4 9775  -0.003   3.462   4.166 -0.1481 -0.6728 -0.2837
 2426SOL     OW 9776   0.220   3.626   4.282 -0.5257  0.2798  0.6624
 2426SOL    HW2 9777   0.303   3.587   4.253  0.0875  1.6201  0.5521
 2426SOL    HW3 9778   0.153   3.574   4.239  0.3117  0.1717 -0.5539
 2426SOL    MW4 9779   0.222   3.614   4.272 -0.3343  0.4425  0.4878
 2427SOL     OW 9780   0.234   3.904   4.251  0.4172 -0.2498 -0.3589
 2427SOL    HW2 9781   0.145   3.931   4.274  0.6659 -0.0702  0.4033
 2427SOL    HW3 9782   0.236   3.810   4.270  0.6989 -0.0533  0.6187
 2427SOL    MW4 9783   0.223   3.895   4.256  0.4872 -0.2003 -0.1297
 2428SOL     OW 9784   4.478   4.021   4.304 -0.3028  0.0382 -0.3241
 2428SOL    HW2 9785   4.452   4.037   4.395  0.9653 -0.8675  0.2047
 2428SOL    HW3 9786   4.403   3.978   4.265  0.1981 -2.2439  1.0993
 2428SOL    MW4 9787   4.465   4.018   4.311 -0.0696 -0.3819 -0.0663
 2429SOL     OW 9788   4.487   4.282   4.194  0.8644 -0.7250 -0.1166
 2429SOL    HW2 9789   4.494   4.197   4.239 -0.6090 -0.0199  1.5052
 2429SOL    HW3 9790   4.475   4.260   4.102 -2.2839 -2.3982  0.6119
 2429SOL    MW4 9791   4.486   4.268   4.188  0.2546 -0.8521  0.1936
 2430SOL     OW 9792   0.205   4.425   4.297  0.2531  0.3692  0.5967
 2430SOL    HW2 9793   0.202   4.405   4.390  2.8163 -0.0111  0.6173
 2430SOL    HW3 9794   0.137   4.369   4.259  0.6520 -1.0734  1.9597
 2430SOL    MW4 9795   0.195   4.415   4.304  0.6439  0.1292  0.7792
 2431SOL     OW 9796   0.724   4.646   4.097  0.0131  0.7147 -0.3655
 2431SOL    HW2 9797   0.649   4.698   4.124 -1.5012 -1.1378 -0.8488
 2431SOL    HW3 9798   0.712   4.635   4.002  1.0959  0.7065 -0.5096
 2431SOL    MW4 9799   0.712   4.651   4.088 -0.0438  0.4692 -0.4478
 2432SOL     OW 9800   0.517   0.110   4.205 -0.1276 -0.2775 -0.3432
 2432SOL    HW2 9801   0.516   0.115   4.301  1.0584  0.6553 -0.3695
 2432SOL    HW3 9802   0.483   0.195   4.177 -0.7234 -0.6485 -0.7558
 2432SOL    MW4 9803   0.512   0.122   4.214 -0.0498 -0.2034 -0.4015
 2433SOL     OW 9804   0.417   0.349   4.114 -0.1274 -0.0971  0.4167
 2433SOL    HW2 9805   0.505   0.377   4.140  0.1239 -0.2494 -0.2589
 2433SOL    HW3 9806   0.421   0.342   4.018  0.1180 -3.4789  0.6232
 2433SOL    MW4 9807   0.429   0.352   4.104 -0.0619 -0.5634  0.3552
 2434SOL     OW 9808   0.661   0.459   4.221 -0.0152  0.1086 -0.2162
 2434SOL    HW2 9809   0.740   0.423   4.182 -0.3417  0.7338 -1.4808
 2434SOL    HW3 9810   0.665   0.552   4.202 -0.5890  0.2929  0.5471
 2434SOL    MW4 9811   0.672   0.466   4.213 -0.1340  0.2154 -0.2823
 2435SOL     OW 9812   0.673   0.750   4.125  0.0088 -0.5896  0.4475
 2435SOL    HW2 9813   0.608   0.802   4.171 -1.0160 -2.1954  0.8265
 2435SOL    HW3 9814   0.643   0.748   4.034 -0.1594 -0.8525  0.5098
 2435SOL    MW4 9815   0.661   0.757   4.119 -0.1486 -0.8361  0.5054
 2436SOL     OW 9816   0.495   0.875   4.274  0.0090 -0.4570 -0.1507
 2436SOL    HW2 9817   0.481   0.963   4.239  0.8115  1.1831  3.4109
 2436SOL    HW3 9818   0.422   0.823   4.238 -0.6786  1.7237 -2.0089
 2436SOL    MW4 9819   0.483   0.880   4.265  0.0242  0.0471  0.0739
 2437SOL     OW 9820   0.507   1.138   4.131 -0.2710  0.4578  0.1943
 2437SOL    HW2 9821   0.600   1.159   4.129 -0.6431  2.0953 -0.6268
 2437SOL    HW3 9822   0.480   1.137   4.039 -0.7111 -1.7616  0.3059
 2437SOL    MW4 9823   0.516   1.140   4.118 -0.3782  0.3809  0.1011
 2438SOL     OW 9824   0.739   1.365   4.407  0.0104 -0.4661  0.0962
 2438SOL    HW2 9825   0.709   1.386   4.318  1.6619 -0.7495 -0.5557
 2438SOL    HW3 9826   0.834   1.356   4.398  0.4072  1.2521  2.2613
 2438SOL    MW4 9827   0.747   1.367   4.394  0.2807 -0.2768  0.2961
 2439SOL     OW 9828   0.684   1.515   4.152 -0.0594 -0.3259  0.1545
 2439SOL    HW2 9829   0.752   1.577   4.181  1.7293 -2.1172 -0.1158
 2439SOL    HW3 9830   0.687   1.520   4.057  0.2412 -0.9909  0.1298
 2439SOL    MW4 9831   0.694   1.524   4.144  0.2162 -0.6499  0.1154
 2440SOL     OW 9832   0.263   1.544   4.177  0.1998 -0.1806 -0.6448
 2440SOL    HW2 9833   0.282   1.455   4.208  1.5515  0.8029  1.4393
 2440SOL    HW3 9834   0.199   1.577   4.240 -0.4744  0.2365 -1.5562
 2440SOL    MW4 9835   0.257   1.536   4.190  0.2892  0.0042 -0.4902
 2441SOL     OW 9836   0.480   1.972   4.135  0.2170  0.0262  0.1107
 2441SOL    HW2 9837   0.490   1.879   4.152 -0.9975 -0.3010 -0.8670
 2441SOL    HW3 9838   0.492   1.980   4.040  0.5512  0.8938  0.2244
 2441SOL    MW4 9839   0.482   1.961   4.125  0.1009  0.0974 -0.0033
 2442SOL     OW 9840   0.705   2.093   4.285  0.3653  0.1639 -0.7100
 2442SOL    HW2 9841   0.712   2.095   4.380 -0.9587  1.9986 -0.6322
 2442SOL    HW3 9842   0.628   2.039   4.268  0.0442  0.6178 -0.7036
 2442SOL    MW4 9843   0.696   2.086   4.295  0.1482  0.4661 -0.6995
 2443SOL     OW 9844   0.632   2.353   4.210 -0.2275  0.0373  0.5504
 2443SOL    HW2 9845   0.661   2.267   4.241  3.7659  0.8386 -0.7271
 2443SOL    HW3 9846   0.621   2.342   4.115  1.2587  1.1377  0.2309
 2443SOL    MW4 9847   0.634   2.340   4.202  0.4956  0.2882  0.3400
 2444SOL     OW 9848   0.395   2.470   4.270  0.1596  0.2223 -0.3140
 2444SOL    HW2 9849   0.402   2.560   4.240 -0.1259  1.0367  1.9210
 2444SOL    HW3 9850   0.481   2.432   4.254  0.1397  0.7500 -1.6941
 2444SOL    MW4 9851   0.407   2.477   4.264  0.1194  0.3991 -0.2017
 2445SOL     OW 9852   0.410   2.730   4.135 -0.2670  0.1787 -0.2994
 2445SOL    HW2 9853   0.489   2.780   4.152 -0.0729 -0.7432  1.5600
 2445SOL    HW3 9854   0.408   2.721   4.039  1.5308  0.7266 -0.4076
 2445SOL    MW4 9855   0.420   2.736   4.124 -0.0042  0.1292 -0.0687
 2446SOL     OW 9856   0.659   2.863   4.233 -0.2524 -0.6873  0.1427
 2446SOL    HW2 9857   0.670   2.897   4.321  0.9793 -1.4383  0.2945
 2446SOL    HW3 9858   0.677   2.939   4.176  2.6145 -1.0480  0.4742
 2446SOL    MW4 9859   0.663   2.878   4.237  0.2883 -0.8337  0.2065
 2447SOL     OW 9860   0.721   3.141   4.150 -0.0971 -0.1674  0.0965
 2447SOL    HW2 9861   0.803   3.151   4.200 -0.0919  0.2767 -0.0026
 2447SOL    HW3 9862   0.656   3.191   4.199 -0.0727  0.3473 -0.3867
 2447SOL    MW4 9863   0.724   3.149   4.163 -0.0932 -0.0408  0.0196
 2448SOL     OW 9864   0.505   3.219   4.290  0.0815  0.0686 -0.6640
 2448SOL    HW2 9865   0.514   3.210   4.385 -2.6140 -0.1224 -0.3880
 2448SOL    HW3 9866   0.484   3.311   4.277 -1.3439 -0.2786 -0.8945
 2448SOL    MW4 9867   0.504   3.230   4.301 -0.4622 -0.0024 -0.6580
 2449SOL     OW 9868   0.464   3.494   4.199  0.6333 -0.2946  0.2607
 2449SOL    HW2 9869   0.545   3.542   4.215  1.2419 -1.0894 -0.3487
 2449SOL    HW3 9870   0.456   3.492   4.103 -1.1675  1.5039  0.3489
 2449SOL    MW4 9871   0.474   3.500   4.188  0.4760 -0.1624  0.1917
 2450SOL     OW 9872   0.708   3.638   4.254 -0.0270 -0.5175 -0.6257
 2450SOL    HW2 9873   0.722   3.668   4.344 -0.8189  0.7732 -0.9228
 2450SOL    HW3 9874   0.785   3.585   4.234  1.0029  0.6544  0.1966
 2450SOL    MW4 9875   0.720   3.635   4.263  0.0045 -0.1926 -0.5565
 2451SOL     OW 9876   0.678   3.897   4.185 -0.1270 -0.4260 -0.0948
 2451SOL    HW2 9877   0.612   3.945   4.236  1.2896  1.0126  0.4168
 2451SOL    HW3 9878   0.676   3.808   4.220 -1.2077 -0.1778  0.4842
 2451SOL    MW4 9879   0.669   3.892   4.196 -0.0827 -0.2034  0.0491
 2452SOL     OW 9880   0.484   4.023   4.326  0.5482 -0.5802  0.0142
 2452SOL    HW2 9881   0.481   4.108   4.280 -1.2747 -1.0105 -0.6943
 2452SOL    HW3 9882   0.410   3.974   4.290  1.8040 -2.6248  0.1501
 2452SOL    MW4 9883   0.474   4.028   4.315  0.4734 -0.9065 -0.0620
 2453SOL     OW 9884   0.427   4.263   4.186  0.3738 -0.0832  0.3099
 2453SOL    HW2 9885   0.351   4.313   4.215  0.2126  0.2868 -0.7344
 2453SOL    HW3 9886   0.412   4.248   4.092  0.1652 -2.4992  0.6798
 2453SOL    MW4 9887   0.415   4.267   4.177  0.3251 -0.3533  0.2213
 2454SOL     OW 9888   0.688   4.384   4.234  0.1095 -0.1629  0.2882
 2454SOL    HW2 9889   0.606   4.345   4.203 -0.2059  0.3956  0.4151
 2454SOL    HW3 9890   0.692   4.469   4.191 -1.5206  1.6733  3.5429
 2454SOL    MW4 9891   0.677   4.390   4.224 -0.1472  0.1531  0.7348
 2455SOL     OW 9892   1.143   4.612   4.143 -0.2501 -0.4826  0.1135
 2455SOL    HW2 9893   1.128   4.520   4.167 -0.3864 -0.5380 -0.1872
 2455SOL    HW3 9894   1.147   4.612   4.048 -0.5733 -0.1279  0.0983
 2455SOL    MW4 9895   1.141   4.600   4.134 -0.3108 -0.4430  0.0715
 2456SOL     OW 9896   0.937   0.096   4.236  0.0515 -0.3828 -0.1101
 2456SOL    HW2 9897   1.022   0.060   4.209  0.3026  0.7277 -0.8870
 2456SOL    HW3 9898   0.873   0.046   4.186  0.3276 -0.5214 -0.3311
 2456SOL    MW4 9899   0.940   0.085   4.226  0.1211 -0.2545 -0.2418
 2457SOL     OW 9900   0.904   0.337   4.106  0.2518  0.0266 -0.3970
 2457SOL    HW2 9901   0.982   0.386   4.134  0.5149 -0.1733 -0.7788
 2457SOL    HW3 9902   0.917   0.249   4.141  0.1051  0.0432 -0.3000
 2457SOL    MW4 9903   0.916   0.332   4.115  0.2671  0.0024 -0.4339
 2458SOL     OW 9904   1.139   0.456   4.208 -0.2060 -0.3534  0.3553
 2458SOL    HW2 9905   1.133   0.454   4.304 -1.2201  0.3675  0.3234
 2458SOL    HW3 9906   1.213   0.400   4.187  0.0465 -0.4907  1.5697
 2458SOL    MW4 9907   1.148   0.448   4.218 -0.3065 -0.2764  0.5112
 2459SOL     OW 9908   1.112   0.742   4.155 -0.1067 -0.0121 -0.0511
 2459SOL    HW2 9909   1.193   0.770   4.198 -0.5003 -1.1355  1.4557
 2459SOL    HW3 9910   1.102   0.650   4.180 -1.0297 -0.3220 -1.5059
 2459SOL    MW4 9911   1.121   0.734   4.164 -0.2804 -0.2012 -0.0443
 2460SOL     OW 9912   0.889   0.908   4.231  0.2016 -0.2223 -0.3610
 2460SOL    HW2 9913   0.964   0.853   4.210 -0.1264 -0.3725 -1.1572
 2460SOL    HW3 9914   0.813   0.852   4.214 -0.0851 -0.1306  0.6036
 2460SOL    MW4 9915   0.889   0.893   4.226  0.1205 -0.2300 -0.3386
 2461SOL     OW 9916   0.803   1.143   4.105 -0.7422 -0.4289  0.2097
 2461SOL    HW2 9917   0.835   1.056   4.130 -0.3379 -0.7647 -1.3748
 2461SOL    HW3 9918   0.881   1.199   4.109 -0.2797 -0.8624 -1.9132
 2461SOL    MW4 9919   0.817   1.139   4.109 -0.6279 -0.5304 -0.2789
 2462SOL     OW 9920   1.064   1.260   4.133  0.1996  0.3244  0.5313
 2462SOL    HW2 9921   1.072   1.259   4.228  0.4153 -1.8402  0.5320
 2462SOL    HW3 9922   1.141   1.211   4.103  0.5258  1.6235 -0.7950
 2462SOL    MW4 9923   1.075   1.253   4.141  0.2712  0.2102  0.3567
 2463SOL     OW 9924   1.078   1.551   4.113 -0.0788 -0.4676 -0.1613
 2463SOL    HW2 9925   1.010   1.591   4.167 -1.1138 -0.4852 -1.4245
 2463SOL    HW3 9926   1.064   1.457   4.123  0.4588 -0.4817  0.4507
 2463SOL    MW4 9927   1.067   1.544   4.121 -0.1442 -0.4717 -0.2470
 2464SOL     OW 9928   0.875   1.684   4.258  0.0819 -0.0343 -0.0422
 2464SOL    HW2 9929   0.846   1.685   4.349  0.0184 -0.0648 -0.0624
 2464SOL    HW3 9930   0.862   1.774   4.228 -0.7728 -0.2337 -0.2964
 2464SOL    MW4 9931   0.869   1.696   4.266 -0.0393 -0.0647 -0.0782
 2465SOL     OW 9932   0.888   1.944   4.150  0.5073 -0.5141  0.2670
 2465SOL    HW2 9933   0.830   2.004   4.197 -1.8943 -2.4215 -0.1311
 2465SOL    HW3 9934   0.882   1.972   4.058 -1.3286 -1.8443 -0.0563
 2465SOL    MW4 9935   0.879   1.956   4.144 -0.0518 -0.9414  0.1717
 2466SOL     OW 9936   1.133   2.012   4.264  0.0858 -0.0862 -0.6356
 2466SOL    HW2 9937   1.149   2.015   4.359 -0.1711  0.3886 -0.6039
 2466SOL    HW3 9938   1.054   1.958   4.255  0.8001 -1.1206 -0.6718
 2466SOL    MW4 9939   1.124   2.006   4.275  0.1462 -0.1602 -0.6361
 2467SOL     OW 9940   1.072   2.263   4.159 -0.2678 -0.3844 -0.1648
 2467SOL    HW2 9941   1.155   2.305   4.178 -0.1442 -1.2658  1.3043
 2467SOL    HW3 9942   1.079   2.176   4.199 -1.7558 -0.5855 -0.3066
 2467SOL    MW4 9943   1.084   2.257   4.167 -0.4479 -0.5271  0.0100
 2468SOL     OW 9944   0.900   2.439   4.288  0.4612  0.1513 -0.0212
 2468SOL    HW2 9945   0.953   2.375   4.240  0.6932 -1.0946  1.8615
 2468SOL    HW3 9946   0.810   2.413   4.270  0.5536 -0.6203  0.6139
 2468SOL    MW4 9947   0.895   2.427   4.279  0.5040 -0.1149  0.3114
 2469SOL     OW 9948   0.920   2.684   4.143 -0.5451 -0.7962 -0.5352
 2469SOL    HW2 9949   0.916   2.594   4.177  0.3561 -0.2001  1.1647
 2469SOL    HW3 9950   0.840   2.725   4.177 -0.6565 -0.7719 -0.8236
 2469SOL    MW4 9951   0.909   2.677   4.152 -0.4408 -0.7141 -0.3495
 2470SOL     OW 9952   1.152   2.828   4.216  0.0411  0.2434 -0.4150
 2470SOL    HW2 9953   1.173   2.793   4.303 -0.4590 -0.1043 -0.4354
 2470SOL    HW3 9954   1.061   2.801   4.200  0.4060 -0.4135 -1.4117
 2470SOL    MW4 9955   1.143   2.820   4.226  0.0231  0.1106 -0.5484
 2471SOL     OW 9956   1.211   3.093   4.144  0.1612  0.6175  0.3628
 2471SOL    HW2 9957   1.188   3.094   4.051  0.9395  0.2746  0.1553
 2471SOL    HW3 9958   1.190   3.005   4.174  0.7248  0.4580  0.2942
 2471SOL    MW4 9959   1.205   3.082   4.136  0.3383  0.5512  0.3266
 2472SOL     OW 9960   0.980   3.198   4.267  0.3424 -0.1938 -0.0108
 2472SOL    HW2 9961   0.982   3.166   4.357  1.3640 -0.8335 -0.2540
 2472SOL    HW3 9962   1.055   3.157   4.225 -0.3655 -0.2305 -1.2767
 2472SOL    MW4 9963   0.990   3.189   4.273  0.3839 -0.2828 -0.2108
 2473SOL     OW 9964   0.944   3.478   4.199 -0.2575  0.1620 -0.0673
 2473SOL    HW2 9965   0.961   3.388   4.225  0.9433  0.4630  0.2289
 2473SOL    HW3 9966   0.952   3.478   4.104 -0.4056 -0.0767 -0.0796
 2473SOL    MW4 9967   0.947   3.466   4.190 -0.1186  0.1702 -0.0300
 2474SOL     OW 9968   1.170   3.640   4.264 -0.1925 -0.8614  0.2074
 2474SOL    HW2 9969   1.155   3.720   4.214  0.4379  1.1497  3.0674
 2474SOL    HW3 9970   1.092   3.586   4.248 -0.6574  0.3423 -1.7131
 2474SOL    MW4 9971   1.158   3.643   4.256 -0.1706 -0.4373  0.3314
 2475SOL     OW 9972   1.109   3.901   4.163 -0.5029  0.2493 -0.0645
 2475SOL    HW2 9973   1.189   3.931   4.205  0.4472 -1.0979 -0.8697
 2475SOL    HW3 9974   1.039   3.924   4.225  0.5921  0.5873  1.0670
 2475SOL    MW4 9975   1.110   3.908   4.177 -0.2331  0.1159 -0.0215
 2476SOL     OW 9976   0.890   4.033   4.287  0.3681  0.0148 -0.6809
 2476SOL    HW2 9977   0.892   4.112   4.232 -1.4236  0.8551  0.4101
 2476SOL    HW3 9978   0.814   3.984   4.255 -0.4913  0.3527  0.8142
 2476SOL    MW4 9979   0.881   4.037   4.275  0.0183  0.1707 -0.3395
 2477SOL     OW 9980   0.889   4.243   4.109  0.0744 -0.5993  0.3650
 2477SOL    HW2 9981   0.964   4.292   4.143 -0.0492 -0.9547  1.1608
 2477SOL    HW3 9982   0.813   4.280   4.154 -0.1799 -0.5375 -0.1145
 2477SOL    MW4 9983   0.889   4.254   4.119  0.0246 -0.6380  0.4072
 2478SOL     OW 9984   1.112   4.362   4.233  0.1877  0.2242  0.0434
 2478SOL    HW2 9985   1.113   4.368   4.328  1.1491  2.0135 -0.0567
 2478SOL    HW3 9986   1.183   4.301   4.212  0.7976  0.7819  0.4356
 2478SOL    MW4 9987   1.122   4.355   4.243  0.3951  0.5341  0.0820
 2479SOL     OW 9988   1.560   4.616   4.175  0.1686 -0.4736 -0.5016
 2479SOL    HW2 9989   1.635   4.670   4.199 -0.2702  0.1140 -0.4476
 2479SOL    HW3 9990   1.487   4.652   4.225 -0.7876  0.8548 -2.7744
 2479SOL    MW4 9991   1.560   4.628   4.184 -0.0155 -0.2208 -0.7944
 2480SOL     OW 9992   1.347   0.068   4.286  0.2177 -0.2804  0.2348
 2480SOL    HW2 9993   1.350   0.052   4.380 -0.5891 -0.2634  0.2701
 2480SOL    HW3 9994   1.280   0.008   4.254  0.2298 -0.0285 -0.2721
 2480SOL    MW4 9995   1.339   0.058   4.294  0.1129 -0.2449  0.1731
 2481SOL     OW 9996   1.365   0.313   4.126  0.1491  0.1020  0.0619
 2481SOL    HW2 9997   1.417   0.358   4.192 -0.3284  0.2739  0.3245
 2481SOL    HW3 9998   1.355   0.224   4.160 -1.4280  0.6187  0.9942
 2481SOL    MW4 9999   1.370   0.307   4.139 -0.1221  0.1929  0.2198
 2482SOL     OW10000   1.550   0.471   4.271  0.1229 -0.0819  0.4979
 2482SOL    HW210001   1.595   0.467   4.355  2.5243 -1.1997 -0.7948
 2482SOL    HW310002   1.552   0.564   4.247 -0.0543  0.1533  1.3993
 2482SOL    MW410003   1.556   0.483   4.279  0.4164 -0.1983  0.4463
 2483SOL     OW10004   1.577   0.736   4.113  0.5124  0.0625 -0.3873
 2483SOL    HW210005   1.652   0.795   4.118  0.1500  0.6155 -1.3067
 2483SOL    HW310006   1.566   0.720   4.019 -0.8032  0.3535 -0.2813
 2483SOL    MW410007   1.586   0.742   4.101  0.2911  0.1738 -0.4945
 2484SOL     OW10008   1.358   0.852   4.251  0.1307  0.0006 -0.1766
 2484SOL    HW210009   1.347   0.942   4.221  0.5918  0.2910  0.5120
 2484SOL    HW310010   1.437   0.821   4.207  0.2906  0.1165  0.0334
 2484SOL    MW410011   1.367   0.859   4.241  0.2127  0.0542 -0.0577
 2485SOL     OW10012   1.329   1.103   4.146 -0.5505  0.2998  0.6724
 2485SOL    HW210013   1.407   1.150   4.174 -0.3718 -1.4549  3.2799
 2485SOL    HW310014   1.342   1.088   4.052  1.4510  1.4712  0.7447
 2485SOL    MW410015   1.341   1.107   4.137 -0.2627  0.2228  1.0257
 2486SOL     OW10016   1.537   1.250   4.260 -0.1248 -0.5108 -0.1596
 2486SOL    HW210017   1.585   1.198   4.326  1.9538  1.2075 -0.2680
 2486SOL    HW310018   1.464   1.288   4.308  0.6675 -0.2710  0.8646
 2486SOL    MW410019   1.534   1.248   4.275  0.2539 -0.2525 -0.0386
 2487SOL     OW10020   1.565   1.492   4.139  0.0025  0.4773  0.1496
 2487SOL    HW210021   1.490   1.542   4.173 -1.0785 -0.4959 -0.7361
 2487SOL    HW310022   1.558   1.407   4.182  0.5091  0.3419 -0.0400
 2487SOL    MW410023   1.554   1.487   4.149 -0.0733  0.3312  0.0076
 2488SOL     OW10024   1.340   1.640   4.235 -0.0168  0.7518  0.4287
 2488SOL    HW210025   1.343   1.733   4.215  1.0880  0.4103 -1.1642
 2488SOL    HW310026   1.263   1.607   4.189  0.2284  0.6887  0.0590
 2488SOL    MW410027   1.330   1.648   4.226  0.1613  0.6984  0.1698
 2489SOL     OW10028   1.385   1.913   4.146  0.0915  0.1895 -0.6457
 2489SOL    HW210029   1.456   1.973   4.166 -1.0108  1.0887  0.7160
 2489SOL    HW310030   1.306   1.957   4.178 -1.0603 -0.8564 -1.9474
 2489SOL    MW410031   1.384   1.926   4.153 -0.2059  0.1702 -0.6380
 2490SOL     OW10032   1.602   2.075   4.199 -0.1224  0.0474 -0.3370
 2490SOL    HW210033   1.623   2.046   4.288 -2.0506 -0.0535  0.0992
 2490SOL    HW310034   1.595   2.170   4.206  0.2883  0.0938 -0.5162
 2490SOL    MW410035   1.604   2.084   4.212 -0.3227  0.0401 -0.3023
 2491SOL     OW10036   1.577   2.346   4.162  0.1849  0.1153 -0.4165
 2491SOL    HW210037   1.659   2.390   4.183  0.7326 -0.5791 -1.0847
 2491SOL    HW310038   1.568   2.355   4.068 -0.3927 -0.0233 -0.3781
 2491SOL    MW410039   1.586   2.353   4.153  0.1808  0.0052 -0.4988
 2492SOL     OW10040   1.322   2.413   4.226 -0.3122 -0.7168  0.3293
 2492SOL    HW210041   1.322   2.503   4.193  1.4400 -1.0294 -0.5991
 2492SOL    HW310042   1.405   2.377   4.195 -1.3822 -2.9282 -0.0412
 2492SOL    MW410043   1.333   2.420   4.218 -0.2221 -1.0495  0.1578
 2493SOL     OW10044   1.334   2.675   4.108 -0.1884 -0.3626 -0.0792
 2493SOL    HW210045   1.404   2.730   4.144 -0.1062  0.2565 -1.1612
 2493SOL    HW310046   1.253   2.720   4.132 -0.2244 -1.0580  1.1374
 2493SOL    MW410047   1.333   2.688   4.115 -0.1823 -0.3726 -0.0615
 2494SOL     OW10048   1.532   2.863   4.212  0.2168  0.0206 -0.0820
 2494SOL    HW210049   1.574   2.858   4.298 -0.5163 -1.0840  0.2090
 2494SOL    HW310050   1.554   2.951   4.180  0.0122  0.6417  1.4682
 2494SOL    MW410051   1.541   2.874   4.219  0.0931 -0.0432  0.1612
 2495SOL     OW10052   1.614   3.111   4.134 -0.0559 -0.2310  0.5328
 2495SOL    HW210053   1.691   3.132   4.187  0.8200 -2.1412  0.0759
 2495SOL    HW310054   1.546   3.170   4.166  1.0453  0.1042  2.3347
 2495SOL    MW410055   1.615   3.122   4.145  0.2048 -0.4389  0.7105
 2496SOL     OW10056   1.399   3.217   4.299  0.2776  0.1197  0.4090
 2496SOL    HW210057   1.341   3.165   4.243 -1.5867  0.6205  1.7869
 2496SOL    HW310058   1.400   3.304   4.259 -1.8105  0.7360  1.6003
 2496SOL    MW410059   1.391   3.222   4.287 -0.2439  0.2673  0.7482
 2497SOL     OW10060   1.376   3.465   4.178 -0.4572  0.3707  0.2135
 2497SOL    HW210061   1.310   3.527   4.209  0.9908  2.7312 -1.3599
 2497SOL    HW310062   1.367   3.465   4.083  0.1477 -1.2086  0.1366
 2497SOL    MW410063   1.366   3.473   4.170 -0.1862  0.4737 -0.0038
 2498SOL     OW10064   1.609   3.590   4.274  0.3416 -0.2141  0.0607
 2498SOL    HW210065   1.581   3.597   4.365  0.2302 -0.7903  0.0702
 2498SOL    HW310066   1.538   3.544   4.230 -0.1046  1.0433 -0.5527
 2498SOL    MW410067   1.596   3.585   4.280  0.2681 -0.1242 -0.0191
 2499SOL     OW10068   1.557   3.809   4.129  0.0108  0.4270  0.2195
 2499SOL    HW210069   1.500   3.873   4.171 -0.6742  0.3130 -0.5218
 2499SOL    HW310070   1.567   3.739   4.194 -2.6483 -0.6910 -0.4889
 2499SOL    MW410071   1.550   3.808   4.143 -0.4303  0.2642  0.0281
 2500SOL     OW10072   1.397   3.982   4.253  0.3295 -0.1719 -0.2337
 2500SOL    HW210073   1.389   4.009   4.344  1.1529  0.6715 -0.4078
 2500SOL    HW310074   1.364   4.057   4.203 -0.6730 -0.8567 -0.6182
 2500SOL    MW410075   1.392   3.995   4.258  0.3059 -0.1509 -0.3076
 2501SOL     OW10076   1.328   4.228   4.135 -0.1460  0.5931 -0.6764
 2501SOL    HW210077   1.399   4.284   4.165  0.5755 -0.0493 -1.1409
 2501SOL    HW310078   1.308   4.261   4.047 -1.4111  1.6885  0.0160
 2501SOL    MW410079   1.335   4.240   4.127 -0.2178  0.6528 -0.6471
 2502SOL     OW10080   1.551   4.359   4.260 -0.2591  0.1852 -0.4698
 2502SOL    HW210081   1.549   4.441   4.210  0.5536 -0.1863 -1.1159
 2502SOL    HW310082   1.625   4.311   4.224  0.2122 -0.1722  0.9734
 2502SOL    MW410083   1.561   4.364   4.248 -0.0898  0.0892 -0.3643
 2503SOL     OW10084   2.048   4.654   4.166  0.2717 -0.3128 -0.0501
 2503SOL    HW210085   1.960   4.684   4.188  0.4645  1.8380 -1.9702
 2503SOL    HW310086   2.045   4.638   4.072  2.1209  0.5285 -0.2760
 2503SOL    MW410087   2.036   4.656   4.157  0.5414  0.0820 -0.3333
 2504SOL     OW10088   1.817   0.087   4.254  0.1992  0.3528 -0.3852
 2504SOL    HW210089   1.772   0.099   4.337  0.7054  2.2121 -0.3487
 2504SOL    HW310090   1.793   0.165   4.203  2.8084  1.0744 -0.5860
 2504SOL    MW410091   1.808   0.099   4.258  0.6104  0.6933 -0.4063
 2505SOL     OW10092   1.780   0.346   4.132  0.2431 -0.6020 -0.1231
 2505SOL    HW210093   1.866   0.364   4.171  0.7121 -1.6724 -0.6184
 2505SOL    HW310094   1.722   0.411   4.170  1.1292 -0.3217  0.7806
 2505SOL    MW410095   1.784   0.357   4.142  0.4219 -0.7062 -0.0691
 2506SOL     OW10096   1.996   0.448   4.262  0.4729  0.5055  0.3091
 2506SOL    HW210097   2.019   0.462   4.354  0.6017 -0.9998  0.5166
 2506SOL    HW310098   2.073   0.406   4.224  0.3807  1.0373 -0.4723
 2506SOL    MW410099   2.009   0.444   4.269  0.4778  0.3770  0.2332
 2507SOL     OW10100   2.013   0.714   4.130 -0.0726 -0.0811 -0.2061
 2507SOL    HW210101   2.077   0.768   4.176 -0.3318 -0.0315  0.0995
 2507SOL    HW310102   2.024   0.626   4.167  0.6998 -0.3525 -1.0633
 2507SOL    MW410103   2.023   0.710   4.141 -0.0050 -0.1104 -0.2785
 2508SOL     OW10104   1.803   0.874   4.199 -0.2892  0.3562  0.0015
 2508SOL    HW210105   1.845   0.960   4.191  0.4012  0.0077 -0.2311
 2508SOL    HW310106   1.868   0.813   4.163 -1.4394 -0.0814 -1.4086
 2508SOL    MW410107   1.817   0.877   4.193 -0.3499  0.2525 -0.2151
 2509SOL     OW10108   1.939   1.106   4.157 -0.4308 -0.4623 -0.2472
 2509SOL    HW210109   2.031   1.078   4.156  0.4776  2.4225 -1.1011
 2509SOL    HW310110   1.936   1.173   4.226 -1.3053  1.2586 -1.9151
 2509SOL    MW410111   1.951   1.111   4.166 -0.4263  0.1454 -0.5803
 2510SOL     OW10112   2.007   1.292   4.360  0.1611 -0.2090 -0.6623
 2510SOL    HW210113   2.025   1.367   4.303  0.9794 -1.0836 -1.5851
 2510SOL    HW310114   1.932   1.320   4.413  0.7264  1.4188 -0.6747
 2510SOL    MW410115   1.999   1.306   4.359  0.3438 -0.1094 -0.7863
 2511SOL     OW10116   2.046   1.516   4.158  0.5549 -0.0541 -0.1303
 2511SOL    HW210117   2.120   1.566   4.192 -0.1404  1.0168 -0.1613
 2511SOL    HW310118   2.058   1.518   4.063  0.3455  0.3547 -0.1505
 2511SOL    MW410119   2.058   1.523   4.150  0.4356  0.1411 -0.1373
 2512SOL     OW10120   1.784   1.659   4.169 -0.1025 -0.6853  0.3668
 2512SOL    HW210121   1.867   1.613   4.159 -0.2435 -0.8389 -0.1157
 2512SOL    HW310122   1.717   1.592   4.154 -0.3100 -0.3661 -0.1695
 2512SOL    MW410123   1.786   1.644   4.166 -0.1485 -0.6636  0.2327
 2513SOL     OW10124   1.804   1.930   4.099 -0.0581 -0.2572  0.0270
 2513SOL    HW210125   1.798   1.836   4.116 -0.7016 -0.4000 -0.9217
 2513SOL    HW310126   1.727   1.967   4.141  0.2560 -0.1305  0.5002
 2513SOL    MW410127   1.793   1.922   4.107 -0.1016 -0.2593 -0.0358
 2514SOL     OW10128   2.020   2.061   4.226 -0.3025 -0.3340 -0.3429
 2514SOL    HW210129   2.074   1.984   4.209  0.1890  0.2274 -1.3585
 2514SOL    HW310130   1.939   2.043   4.178 -0.5474 -0.6230  0.1719
 2514SOL    MW410131   2.016   2.049   4.218 -0.2697 -0.2978 -0.4086
 2515SOL     OW10132   2.183   2.263   4.116 -0.0214  0.1340 -0.0299
 2515SOL    HW210133   2.138   2.195   4.166  0.2251  0.8291  1.1636
 2515SOL    HW310134   2.119   2.293   4.052 -0.8236  0.2187  0.8061
 2515SOL    MW410135   2.169   2.258   4.114 -0.0949  0.2370  0.2384
 2516SOL     OW10136   1.782   2.510   4.243 -0.6237  0.4446  0.5391
 2516SOL    HW210137   1.869   2.513   4.282  0.0597 -0.5951 -0.8771
 2516SOL    HW310138   1.723   2.528   4.316  0.7989  1.8261  1.3725
 2516SOL    MW410139   1.785   2.513   4.258 -0.3458  0.4895  0.4625
 2517SOL     OW10140   1.784   2.767   4.161  0.1832  0.3908 -0.5129
 2517SOL    HW210141   1.779   2.672   4.172  0.4794  0.3574 -0.6382
 2517SOL    HW310142   1.694   2.798   4.168  0.2853  0.3039  1.3052
 2517SOL    MW410143   1.772   2.759   4.163  0.2358  0.3750 -0.2894
 2518SOL     OW10144   2.060   2.815   4.227  0.6335 -0.4074  0.0693
 2518SOL    HW210145   2.076   2.834   4.319  2.4380 -0.3542 -0.2385
 2518SOL    HW310146   1.971   2.781   4.225  0.7372 -0.8523  1.8978
 2518SOL    MW410147   2.051   2.813   4.239  0.8850 -0.4590  0.2699
 2519SOL     OW10148   2.083   3.078   4.151  0.2606  0.0842  0.3121
 2519SOL    HW210149   2.065   2.989   4.182 -0.4912  0.8442  2.1589
 2519SOL    HW310150   2.060   3.076   4.058 -0.9875 -1.3265  0.6204
 2519SOL    MW410151   2.077   3.066   4.143 -0.0033 -0.0014  0.5960
 2520SOL     OW10152   1.849   3.188   4.249 -0.3537 -0.1140  0.3752
 2520SOL    HW210153   1.832   3.275   4.213 -0.6984  0.1518  1.1708
 2520SOL    HW310154   1.922   3.154   4.196 -0.4337  0.5236 -0.1496
 2520SOL    MW410155   1.857   3.195   4.237 -0.4096  0.0052  0.4115
 2521SOL     OW10156   1.824   3.456   4.192 -0.2397  0.1080 -0.0225
 2521SOL    HW210157   1.745   3.505   4.217  1.3894  3.4277 -1.0855
 2521SOL    HW310158   1.825   3.460   4.096  0.8477 -0.5441 -0.0416
 2521SOL    MW410159   1.813   3.463   4.182  0.1187  0.4599 -0.1650
 2522SOL     OW10160   2.058   3.600   4.287  0.8239  0.1892  0.4815
 2522SOL    HW210161   2.045   3.690   4.254  2.2645  0.0138 -0.6327
 2522SOL    HW310162   1.970   3.562   4.286  0.6987  0.4253 -2.5946
 2522SOL    MW410163   2.045   3.607   4.282  0.9973  0.1972 -0.0720
 2523SOL     OW10164   2.014   3.866   4.184 -0.1323  0.2224  0.5391
 2523SOL    HW210165   1.926   3.898   4.201 -0.3467 -0.2877  0.3886
 2523SOL    HW310166   2.029   3.884   4.091 -0.3281 -0.3002  0.4071
 2523SOL    MW410167   2.005   3.873   4.174 -0.1862  0.0861  0.5016
 2524SOL     OW10168   1.766   3.963   4.257  0.3287 -0.5066  0.1928
 2524SOL    HW210169   1.766   4.057   4.237 -0.2662 -0.4372  0.5039
 2524SOL    HW310170   1.714   3.923   4.187 -0.4035 -0.4563  0.6975
 2524SOL    MW410171   1.759   3.970   4.245  0.1537 -0.4907  0.3009
 2525SOL     OW10172   1.770   4.214   4.148  0.2808  0.4289 -0.5090
 2525SOL    HW210173   1.846   4.259   4.185 -0.3027  0.3634  0.7902
 2525SOL    HW310174   1.782   4.220   4.053  1.5855  0.9629 -0.3150
 2525SOL    MW410175   1.782   4.221   4.140  0.3760  0.4911 -0.3119
 2526SOL     OW10176   1.969   4.386   4.223  0.9119  0.0444 -0.2543
 2526SOL    HW210177   1.966   4.382   4.319  2.7233 -0.0969 -0.1988
 2526SOL    HW310178   1.978   4.479   4.203 -1.4881  0.2829 -0.3720
 2526SOL    MW410179   1.969   4.397   4.233  0.8342  0.0567 -0.2623
 2527SOL     OW10180   2.485   4.614   4.131  0.1094 -0.2701  0.1809
 2527SOL    HW210181   2.554   4.659   4.180 -2.0843  2.2675  1.0726
 2527SOL    HW310182   2.472   4.532   4.178  1.1175  0.1422  1.2178
 2527SOL    MW410183   2.492   4.609   4.144 -0.0467  0.1192  0.4354
 2528SOL     OW10184   2.285   0.081   4.261 -0.5683 -0.1179 -0.1579
 2528SOL    HW210185   2.352   0.029   4.219 -0.1129 -0.2433  0.7029
 2528SOL    HW310186   2.202   0.041   4.234 -0.3122  0.2732 -1.5242
 2528SOL    MW410187   2.283   0.069   4.252 -0.4742 -0.0829 -0.2246
 2529SOL     OW10188   2.229   0.330   4.136 -0.5011  0.1771  0.2579
 2529SOL    HW210189   2.251   0.243   4.169  0.7610  0.6683  0.7818
 2529SOL    HW310190   2.245   0.325   4.042 -0.2444 -0.1180  0.3144
 2529SOL    MW410191   2.234   0.318   4.128 -0.3006  0.2030  0.3347
 2530SOL     OW10192   2.438   0.495   4.262  0.1810  0.3276  0.0571
 2530SOL    HW210193   2.429   0.472   4.355  0.4494 -1.1976 -0.2859
 2530SOL    HW310194   2.377   0.437   4.217 -0.4420  1.5329 -0.6702
 2530SOL    MW410195   2.429   0.484   4.268  0.1342  0.2854 -0.0839
 2531SOL     OW10196   2.474   0.752   4.181  0.1744  0.0311 -0.4798
 2531SOL    HW210197   2.465   0.666   4.223  1.4761  0.3254  0.4377
 2531SOL    HW310198   2.471   0.733   4.087 -0.2421 -0.9327 -0.2768
 2531SOL    MW410199   2.473   0.738   4.174  0.2911 -0.0573 -0.3319
 2532SOL     OW10200   2.224   0.834   4.260  0.4346 -0.2244  0.0259
 2532SOL    HW210201   2.215   0.809   4.352  0.9727  1.2614  0.4970
 2532SOL    HW310202   2.312   0.804   4.236 -0.1824 -1.7411 -0.3796
 2532SOL    MW410203   2.235   0.827   4.269  0.4237 -0.2284  0.0353
 2533SOL     OW10204   2.234   1.108   4.159 -0.0373 -0.2451 -0.0630
 2533SOL    HW210205   2.288   1.165   4.214 -1.8264  0.3765  1.0969
 2533SOL    HW310206   2.262   1.019   4.182  1.9016  0.0960 -0.9870
 2533SOL    MW410207   2.244   1.103   4.169 -0.0176 -0.1180 -0.0319
 2534SOL     OW10208   2.442   1.264   4.289  0.2459  0.5084  0.3566
 2534SOL    HW210209   2.459   1.297   4.377 -0.3104 -0.0746  0.6793
 2534SOL    HW310210   2.524   1.222   4.263  0.3354  0.4803  0.6822
 2534SOL    MW410211   2.455   1.263   4.297  0.1843  0.4277  0.4420
 2535SOL     OW10212   2.513   1.512   4.181 -0.3613  0.0116  0.0295
 2535SOL    HW210213   2.480   1.423   4.191 -1.2941  0.4335  0.7409
 2535SOL    HW310214   2.516   1.527   4.086 -0.6017 -0.6197 -0.0753
 2535SOL    MW410215   2.509   1.503   4.170 -0.5159 -0.0161  0.1092
 2536SOL     OW10216   2.284   1.631   4.260  0.2364 -0.1174  0.0332
 2536SOL    HW210217   2.291   1.651   4.353  1.5798  1.2411 -0.3619
 2536SOL    HW310218   2.372   1.605   4.233 -0.2064 -0.8100 -0.8016
 2536SOL    MW410219   2.296   1.630   4.268  0.3552 -0.0294 -0.1297
 2537SOL     OW10220   2.233   1.894   4.157 -0.0810 -0.1444  0.0159
 2537SOL    HW210221   2.247   1.803   4.183 -0.0550 -0.1776 -0.1137
 2537SOL    HW310222   2.278   1.945   4.225  0.7992 -0.2536 -0.4854
 2537SOL    MW410223   2.240   1.889   4.170  0.0389 -0.1632 -0.0672
 2538SOL     OW10224   2.278   1.777   4.503  0.0824 -0.8061 -0.5107
 2538SOL    HW210225   2.322   1.859   4.482  2.4596 -1.3746  1.9152
 2538SOL    HW310226   2.185   1.799   4.504  0.5070  1.2129 -2.5287
 2538SOL    MW410227   2.271   1.791   4.500  0.4520 -0.6148 -0.4563
 2539SOL     OW10228   2.465   2.254   4.074 -0.1937 -0.3840 -0.3670
 2539SOL    HW210229   2.510   2.204   4.141 -1.5603 -0.0510  0.8481
 2539SOL    HW310230   2.372   2.241   4.092 -0.6098 -0.8019 -2.6038
 2539SOL    MW410231   2.458   2.246   4.085 -0.4287 -0.3955 -0.5021
 2540SOL     OW10232   2.276   2.435   4.307 -0.6531  0.1669  0.3283
 2540SOL    HW210233   2.324   2.383   4.372  1.2576  1.1994 -0.2457
 2540SOL    HW310234   2.256   2.373   4.237  0.5825 -0.0613  0.1800
 2540SOL    MW410235   2.279   2.420   4.306 -0.2382  0.2730  0.2332
 2541SOL     OW10236   2.303   2.675   4.151  0.1332  0.3436 -0.2201
 2541SOL    HW210237   2.315   2.599   4.209 -0.7833 -0.4018 -0.9775
 2541SOL    HW310238   2.219   2.712   4.178 -0.5531 -0.3221 -1.3954
 2541SOL    MW410239   2.294   2.670   4.162 -0.0784  0.1571 -0.4745
 2542SOL     OW10240   2.555   2.787   4.174 -0.0055  0.0672  0.0444
 2542SOL    HW210241   2.462   2.767   4.169 -0.1360  0.7281 -0.1597
 2542SOL    HW310242   2.585   2.744   4.254 -0.0143 -2.0536 -1.0548
 2542SOL    MW410243   2.547   2.779   4.184 -0.0238 -0.1252 -0.1273
 2543SOL     OW10244   2.495   3.073   4.163 -0.0972 -0.5063  0.3111
 2543SOL    HW210245   2.421   3.125   4.194 -0.2716 -1.3297  1.2837
 2543SOL    HW310246   2.485   2.988   4.206  1.1710 -0.7694  0.1134
 2543SOL    MW410247   2.484   3.069   4.173  0.0470 -0.6497  0.4134
 2544SOL     OW10248   2.284   3.231   4.230 -0.1430 -0.3186 -0.1671
 2544SOL    HW210249   2.254   3.305   4.177 -0.0778 -0.4417 -0.3724
 2544SOL    HW310250   2.222   3.161   4.212  0.5954 -0.7505 -1.0189
 2544SOL    MW410251   2.272   3.232   4.221 -0.0372 -0.3917 -0.3066
 2545SOL     OW10252   2.224   3.469   4.098  0.0426 -0.1072  0.7528
 2545SOL    HW210253   2.305   3.519   4.111  0.1813 -0.2813  0.5599
 2545SOL    HW310254   2.162   3.507   4.161  0.0503  0.5207  0.3801
 2545SOL    MW410255   2.226   3.481   4.108  0.0618 -0.0472  0.6785
 2546SOL     OW10256   2.435   3.627   4.202 -0.0426  0.1253  0.2723
 2546SOL    HW210257   2.423   3.642   4.295 -0.5246  0.8692  0.0939
 2546SOL    HW310258   2.447   3.714   4.164 -0.5307 -0.1045 -0.4463
 2546SOL    MW410259   2.435   3.640   4.209 -0.1707  0.1931  0.1545
 2547SOL     OW10260   2.429   3.886   4.105 -0.0096 -0.1897 -1.1228
 2547SOL    HW210261   2.503   3.927   4.150 -0.7695  0.1481 -0.1619
 2547SOL    HW310262   2.459   3.877   4.014  1.7147 -1.3093 -0.4799
 2547SOL    MW410263   2.443   3.890   4.098  0.1178 -0.2928 -0.9112
 2548SOL     OW10264   2.223   3.998   4.259 -0.0513  0.0440 -0.2797
 2548SOL    HW210265   2.285   3.949   4.206  1.1797  0.0644  1.1412
 2548SOL    HW310266   2.143   3.945   4.258  0.7278 -1.1374 -0.1415
 2548SOL    MW410267   2.221   3.985   4.252  0.2136 -0.1090 -0.0744
 2549SOL     OW10268   2.226   4.252   4.145 -0.2218 -0.2019  0.3955
 2549SOL    HW210269   2.221   4.161   4.173 -0.8901 -0.1561  0.4360
 2549SOL    HW310270   2.138   4.286   4.158 -0.2641  0.1213 -0.7469
 2549SOL    MW410271   2.214   4.245   4.151 -0.3157 -0.1531  0.2508
 2550SOL     OW10272   2.412   4.393   4.303 -0.1558  0.1645  0.2599
 2550SOL    HW210273   2.493   4.344   4.287  0.7846  1.1937  1.7372
 2550SOL    HW310274   2.345   4.345   4.255  1.0370 -1.6717  0.3866
 2550SOL    MW410275   2.414   4.380   4.294  0.1256  0.0582  0.4716
 2551SOL     OW10276   2.909   4.663   4.166 -0.4470  0.2234  0.5111
 2551SOL    HW210277   2.986   4.711   4.197 -0.6995 -0.4104  2.1797
 2551SOL    HW310278   2.915   4.578   4.209 -1.2515 -0.4018 -0.5920
 2551SOL    MW410279   2.920   4.658   4.176 -0.5867  0.0577  0.5856
 2552SOL     OW10280   2.671   0.109   4.260 -0.2206 -0.3913  0.1823
 2552SOL    HW210281   2.673   0.198   4.222  1.9300  0.1707  1.4994
 2552SOL    HW310282   2.751   0.068   4.227 -0.2110 -1.1662  1.1645
 2552SOL    MW410283   2.682   0.116   4.250  0.0644 -0.4194  0.4859
 2553SOL     OW10284   2.658   0.373   4.140  0.2403 -0.8926 -0.1301
 2553SOL    HW210285   2.589   0.435   4.162  0.4712 -1.0085  0.9489
 2553SOL    HW310286   2.666   0.379   4.045 -0.9680 -0.5842 -0.2193
 2553SOL    MW410287   2.650   0.382   4.131  0.1111 -0.8672  0.0010
 2554SOL     OW10288   2.904   0.479   4.263  0.1688  0.5155 -0.1646
 2554SOL    HW210289   2.878   0.571   4.271  0.6275  0.6007  0.4226
 2554SOL    HW310290   2.831   0.437   4.216 -0.4091  1.0143  0.2773
 2554SOL    MW410291   2.891   0.486   4.258  0.1531  0.5926 -0.0291
 2555SOL     OW10292   2.894   0.774   4.195 -0.1060  0.0016 -0.0536
 2555SOL    HW210293   2.982   0.812   4.205 -0.1243 -0.3316  1.5356
 2555SOL    HW310294   2.888   0.751   4.103  0.9811  1.2564 -0.4553
 2555SOL    MW410295   2.905   0.776   4.184  0.0350  0.1232  0.1030
 2556SOL     OW10296   2.655   0.924   4.299  0.3533 -0.1161  0.1677
 2556SOL    HW210297   2.733   0.875   4.271  0.7230  2.0171 -2.7284
 2556SOL    HW310298   2.581   0.869   4.272  0.7991 -0.6035 -0.0678
 2556SOL    MW410299   2.656   0.910   4.292  0.4609  0.1011 -0.2456
 2557SOL     OW10300   2.676   1.165   4.184  0.7911  0.0541  0.1950
 2557SOL    HW210301   2.667   1.075   4.215 -0.3280  0.2066  0.3317
 2557SOL    HW310302   2.701   1.156   4.092  1.9566 -0.3848  0.5355
 2557SOL    MW410303   2.678   1.152   4.176  0.7970  0.0163  0.2575
 2558SOL     OW10304   2.907   1.243   4.318  0.1284  0.1264  0.4887
 2558SOL    HW210305   2.964   1.231   4.242 -0.1664  0.4176  0.2178
 2558SOL    HW310306   2.819   1.232   4.283  0.0977 -2.6962  1.3567
 2558SOL    MW410307   2.903   1.240   4.303  0.0854 -0.2075  0.5674
 2559SOL     OW10308   2.973   1.503   4.202  0.6524 -0.3374 -0.8958
 2559SOL    HW210309   3.027   1.572   4.241 -1.2378  0.3590  0.6118
 2559SOL    HW310310   2.970   1.434   4.268 -0.9945  0.0171 -0.5776
 2559SOL    MW410311   2.979   1.503   4.216  0.1855 -0.1987 -0.6552
 2560SOL     OW10312   2.742   1.657   4.262 -0.4635 -0.0621 -0.2465
 2560SOL    HW210313   2.808   1.589   4.247  0.2586  0.7978 -1.0602
 2560SOL    HW310314   2.660   1.616   4.238 -0.1921 -1.0474  0.4668
 2560SOL    MW410315   2.740   1.643   4.257 -0.3324 -0.0788 -0.2594
 2561SOL     OW10316   2.780   1.916   4.160 -0.2021  0.2265  0.2014
 2561SOL    HW210317   2.751   1.831   4.192 -1.6950  0.8000  0.4360
 2561SOL    HW310318   2.755   1.916   4.067 -0.1871  0.3963  0.1974
 2561SOL    MW410319   2.773   1.905   4.152 -0.3974  0.3246  0.2322
 2562SOL     OW10320   2.993   2.049   4.297 -0.0439  0.2196  0.1637
 2562SOL    HW210321   2.923   1.996   4.258 -0.4106  0.6035  0.2954
 2562SOL    HW310322   2.993   2.129   4.245  0.0574  0.3697  0.3978
 2562SOL    MW410323   2.984   2.052   4.285 -0.0792  0.2902  0.2112
 2563SOL     OW10324   3.021   2.272   4.146  0.3483 -0.2467  0.1853
 2563SOL    HW210325   3.083   2.322   4.199  1.0379 -1.0005  0.0925
 2563SOL    HW310326   2.935   2.304   4.174  0.7888  1.4375 -0.3068
 2563SOL    MW410327   3.018   2.283   4.157  0.4971 -0.1242  0.1087
 2564SOL     OW10328   2.574   2.511   4.083  0.7600 -0.4269 -0.6612
 2564SOL    HW210329   2.531   2.574   4.141  1.5243  0.2559 -0.8324
 2564SOL    HW310330   2.512   2.438   4.078 -0.0428  0.2095 -0.2958
 2564SOL    MW410331   2.560   2.510   4.090  0.7551 -0.2527 -0.6361
 2565SOL     OW10332   2.820   2.861   4.096 -0.2086 -0.1499  0.3056
 2565SOL    HW210333   2.843   2.769   4.085  0.5734 -0.0125  0.7468
 2565SOL    HW310334   2.726   2.861   4.115 -0.4918 -0.7461 -1.1212
 2565SOL    MW410335   2.810   2.849   4.097 -0.1428 -0.2100  0.1764
 2566SOL     OW10336   2.922   2.630   4.228  0.1676 -0.3665  0.0989
 2566SOL    HW210337   2.908   2.648   4.321  0.7926  0.5239  0.0196
 2566SOL    HW310338   2.871   2.551   4.212 -0.2925 -0.2863  1.1020
 2566SOL    MW410339   2.913   2.622   4.238  0.1895 -0.2384  0.2213
 2567SOL     OW10340   2.900   3.059   4.263 -0.3924 -0.2373  0.4970
 2567SOL    HW210341   2.921   3.023   4.349  0.9753 -1.1951 -0.2041
 2567SOL    HW310342   2.864   2.984   4.214 -1.3002  0.3306  0.2809
 2567SOL    MW410343   2.898   3.044   4.268 -0.3316 -0.2885  0.3757
 2568SOL     OW10344   2.700   3.242   4.292  0.5570  0.0653 -0.2083
 2568SOL    HW210345   2.772   3.191   4.255 -1.0311 -1.4533 -1.3359
 2568SOL    HW310346   2.621   3.197   4.261 -0.8723  1.0916  1.8214
 2568SOL    MW410347   2.699   3.229   4.283  0.1588  0.0005 -0.0892
 2569SOL     OW10348   2.688   3.496   4.175  0.2531  0.1674 -0.0023
 2569SOL    HW210349   2.694   3.417   4.229  0.2544 -0.2250 -0.5740
 2569SOL    HW310350   2.599   3.528   4.190  0.6878  0.8108  1.2703
 2569SOL    MW410351   2.677   3.489   4.184  0.3104  0.2005  0.0901
 2570SOL     OW10352   2.912   3.641   4.229  0.0502  0.0739 -0.5244
 2570SOL    HW210353   2.911   3.637   4.324  0.0480  1.2516 -0.4633
 2570SOL    HW310354   2.832   3.597   4.201 -0.2074  0.1991  0.0325
 2570SOL    MW410355   2.901   3.635   4.238  0.0160  0.2456 -0.4425
 2571SOL     OW10356   2.870   3.901   4.154  0.4309  0.3468  0.2901
 2571SOL    HW210357   2.941   3.954   4.190  1.4508  0.6806 -2.1483
 2571SOL    HW310358   2.894   3.811   4.177  0.6511  0.6209  1.1427
 2571SOL    MW410359   2.883   3.896   4.162  0.5944  0.4270  0.0811
 2572SOL     OW10360   2.617   4.011   4.269 -0.5257  0.2413  0.5993
 2572SOL    HW210361   2.618   4.107   4.262  0.8378  0.3413  2.0082
 2572SOL    HW310362   2.700   3.983   4.232 -0.5622 -0.3489  0.9598
 2572SOL    MW410363   2.628   4.020   4.263 -0.3507  0.1764  0.8326
 2573SOL     OW10364   2.642   4.300   4.186 -0.2287  0.4245 -0.3986
 2573SOL    HW210365   2.716   4.347   4.224  1.0589 -1.7745 -0.0831
 2573SOL    HW310366   2.663   4.293   4.093  1.1525 -2.2007  0.0547
 2573SOL    MW410367   2.655   4.305   4.179  0.1235 -0.2122 -0.2966
 2574SOL     OW10368   2.896   4.396   4.275 -0.2420  0.0095  0.0240
 2574SOL    HW210369   2.917   4.383   4.367 -1.6153 -1.4092  0.1619
 2574SOL    HW310370   2.965   4.348   4.228  0.0298  0.0968  0.3325
 2574SOL    MW410371   2.908   4.388   4.281 -0.3872 -0.1664  0.0830
 2575SOL     OW10372   3.377   0.022   4.192  0.1753  0.1593  0.3857
 2575SOL    HW210373   3.447   0.054   4.248  0.5288 -0.9769  0.6094
 2575SOL    HW310374   3.379  -0.073   4.203 -2.4713  0.2203  1.6554
 2575SOL    MW410375   3.387   0.014   4.201 -0.1276  0.0174  0.5832
 2576SOL     OW10376   3.124   0.146   4.246  0.3216 -0.1849 -0.0104
 2576SOL    HW210377   3.108   0.155   4.340 -0.2376 -0.6470 -0.0620
 2576SOL    HW310378   3.205   0.097   4.240  0.5848  0.2144  0.2336
 2576SOL    MW410379   3.132   0.141   4.258  0.2825 -0.1932  0.0157
 2577SOL     OW10380   3.136   0.401   4.146 -0.0432 -0.0601  0.4359
 2577SOL    HW210381   3.130   0.311   4.176  1.5224 -0.0405  0.7997
 2577SOL    HW310382   3.052   0.440   4.172 -0.6394 -1.3319  0.4689
 2577SOL    MW410383   3.124   0.394   4.153  0.0844 -0.2253  0.4883
 2578SOL     OW10384   3.346   0.524   4.311 -0.3505  0.0266 -0.3292
 2578SOL    HW210385   3.429   0.479   4.293  0.1300 -0.1789  2.1827
 2578SOL    HW310386   3.279   0.466   4.275  0.5381 -0.1053 -1.8361
 2578SOL    MW410387   3.348   0.511   4.304 -0.1698 -0.0179 -0.1969
 2579SOL     OW10388   3.382   0.768   4.187  0.2651 -0.1331 -0.3682
 2579SOL    HW210389   3.301   0.812   4.211  0.4826  0.3667 -0.5444
 2579SOL    HW310390   3.370   0.678   4.217 -0.5088 -0.1589 -0.7532
 2579SOL    MW410391   3.370   0.762   4.194  0.1917 -0.0705 -0.4420
 2580SOL     OW10392   3.142   0.878   4.221  0.2336 -0.3183  0.1605
 2580SOL    HW210393   3.154   0.916   4.308  2.4104 -1.6906  0.4992
 2580SOL    HW310394   3.139   0.954   4.163  2.2174  0.5101  1.0791
 2580SOL    MW410395   3.144   0.893   4.225  0.7823 -0.3901  0.3271
 2581SOL     OW10396   3.110   1.137   4.117 -0.2887 -0.0958  0.1953
 2581SOL    HW210397   3.197   1.159   4.150 -0.5148  1.7591 -0.3427
 2581SOL    HW310398   3.116   1.152   4.023 -0.9361 -0.8178  0.0389
 2581SOL    MW410399   3.122   1.142   4.109 -0.4036  0.0536  0.1035
 2582SOL     OW10400   3.359   1.227   4.212  0.0103 -0.1937  0.1041
 2582SOL    HW210401   3.364   1.233   4.307 -2.4479 -0.1182  0.2642
 2582SOL    HW310402   3.368   1.317   4.182 -1.2362  0.0571  0.4207
 2582SOL    MW410403   3.361   1.240   4.220 -0.4787 -0.1506  0.1669
 2583SOL     OW10404   3.369   1.500   4.142  0.3449  0.0600  0.6221
 2583SOL    HW210405   3.301   1.552   4.185  0.6024  2.3984 -1.6710
 2583SOL    HW310406   3.345   1.500   4.050  2.5253 -0.5806  0.0162
 2583SOL    MW410407   3.357   1.507   4.136  0.6664  0.2841  0.2389
 2584SOL     OW10408   3.192   1.668   4.275  0.3793 -0.1088 -0.0400
 2584SOL    HW210409   3.166   1.680   4.366  1.5017  0.2018  0.2442
 2584SOL    HW310410   3.224   1.753   4.247 -0.9693  0.0827 -1.0682
 2584SOL    MW410411   3.192   1.681   4.283  0.3495 -0.0427 -0.1383
 2585SOL     OW10412   3.229   1.950   4.178  0.1567  0.1285  0.0823
 2585SOL    HW210413   3.305   2.003   4.200 -0.4323  1.6225 -1.3778
 2585SOL    HW310414   3.158   1.987   4.230  0.0918 -0.2616  0.2712
 2585SOL    MW410415   3.229   1.962   4.188  0.0703  0.2741 -0.0858
 2586SOL     OW10416   3.469   2.078   4.260  0.3500 -0.1132 -0.1901
 2586SOL    HW210417   3.514   2.015   4.205 -0.4207 -1.3386  0.5510
 2586SOL    HW310418   3.483   2.163   4.217  0.4193 -0.9372 -1.8272
 2586SOL    MW410419   3.477   2.081   4.247  0.2573 -0.3836 -0.3080
 2587SOL     OW10420   3.448   2.326   4.130  0.4420  0.5575 -0.1532
 2587SOL    HW210421   3.503   2.403   4.145  3.1094 -1.3571  0.0250
 2587SOL    HW310422   3.429   2.329   4.036 -0.0731  1.7991 -0.0243
 2587SOL    MW410423   3.452   2.337   4.120  0.7260  0.4685 -0.1130
 2588SOL     OW10424   3.224   2.402   4.280  0.2271  0.0384  0.0359
 2588SOL    HW210425   3.222   2.489   4.240 -2.5717 -0.9239 -2.0661
 2588SOL    HW310426   3.301   2.360   4.241 -0.2073  0.4869 -1.3398
 2588SOL    MW410427   3.234   2.408   4.270 -0.1998 -0.0296 -0.4234
 2589SOL     OW10428   3.199   2.676   4.144 -0.4429 -0.1582 -0.6577
 2589SOL    HW210429   3.227   2.762   4.175  0.0333 -0.3877 -0.4419
 2589SOL    HW310430   3.111   2.665   4.180 -0.2726 -0.0131 -0.1852
 2589SOL    MW410431   3.191   2.686   4.153 -0.3576 -0.1690 -0.5665
 2590SOL     OW10432   3.341   2.857   4.294 -0.5091  0.2174 -0.2564
 2590SOL    HW210433   3.415   2.816   4.249 -0.4058 -0.1851  0.2806
 2590SOL    HW310434   3.347   2.950   4.271  0.0313  0.1469 -0.3927
 2590SOL    MW410435   3.351   2.864   4.285 -0.4239  0.1552 -0.2031
 2591SOL     OW10436   3.361   3.094   4.158 -0.3992  0.1380  0.5940
 2591SOL    HW210437   3.287   3.147   4.188 -0.9939 -0.8704  0.9253
 2591SOL    HW310438   3.345   3.082   4.064 -1.3796 -1.2077  0.9201
 2591SOL    MW410439   3.349   3.099   4.150 -0.6068 -0.1726  0.6804
 2592SOL     OW10440   3.138   3.219   4.269 -0.1988 -0.2657 -0.3187
 2592SOL    HW210441   3.115   3.302   4.228 -1.5427  0.1424  1.2207
 2592SOL    HW310442   3.068   3.159   4.242  0.2399 -0.6455 -0.6243
 2592SOL    MW410443   3.126   3.222   4.260 -0.3183 -0.2620 -0.1564
 2593SOL     OW10444   3.105   3.462   4.163  0.2533 -0.3087 -0.4329
 2593SOL    HW210445   3.037   3.519   4.198  0.6391  0.2967 -0.6411
 2593SOL    HW310446   3.107   3.482   4.069  1.5204  0.5580 -0.2409
 2593SOL    MW410447   3.096   3.472   4.155  0.4714 -0.1147 -0.4349
 2594SOL     OW10448   3.350   3.587   4.288  0.2779  0.6631  0.0759
 2594SOL    HW210449   3.376   3.548   4.371  0.0874  0.7215  0.1630
 2594SOL    HW310450   3.271   3.539   4.263 -0.2139  1.2935  0.4043
 2594SOL    MW410451   3.343   3.576   4.296  0.1879  0.7539  0.1307
 2595SOL     OW10452   3.318   3.854   4.176  0.0401  0.7212  0.0493
 2595SOL    HW210453   3.322   3.763   4.205  1.1305  1.4915  2.4337
 2595SOL    HW310454   3.316   3.849   4.081  3.0705 -1.7143  0.0460
 2595SOL    MW410455   3.318   3.841   4.168  0.5834  0.5014  0.3629
 2596SOL     OW10456   3.104   4.011   4.271  0.3917 -0.0515  0.2085
 2596SOL    HW210457   3.097   3.972   4.359 -2.7828  0.0763  0.0921
 2596SOL    HW310458   3.174   3.963   4.229  0.3291 -1.7948  2.0129
 2596SOL    MW410459   3.112   4.000   4.277 -0.0353 -0.2651  0.4311
 2597SOL     OW10460   3.104   4.268   4.159  0.0934  0.1786 -0.2481
 2597SOL    HW210461   3.181   4.315   4.191  0.7267  0.9506 -2.8375
 2597SOL    HW310462   3.106   4.185   4.208  0.4894  1.6439  2.3531
 2597SOL    MW410463   3.114   4.263   4.170  0.2291  0.4740 -0.2465
 2598SOL     OW10464   3.338   4.392   4.222  0.3832  0.0768 -0.1374
 2598SOL    HW210465   3.329   4.405   4.316  0.0202 -0.9500 -0.0228
 2598SOL    HW310466   3.415   4.337   4.212 -0.5565 -1.2373 -0.3146
 2598SOL    MW410467   3.347   4.386   4.233  0.2112 -0.2317 -0.1454
 2599SOL     OW10468   3.795   4.658   4.169  0.0183 -0.2680 -0.5567
 2599SOL    HW210469   3.861   4.727   4.172 -0.1494 -0.1425  0.3266
 2599SOL    HW310470   3.780   4.644   4.075  0.0394  0.9078 -0.7518
 2599SOL    MW410471   3.802   4.666   4.157 -0.0010 -0.0963 -0.4659
 2600SOL     OW10472   3.602   0.144   4.307 -0.0451  0.1157  0.0384
 2600SOL    HW210473   3.601   0.222   4.251  1.2996 -0.6193 -1.0302
 2600SOL    HW310474   3.674   0.091   4.273 -0.2944 -1.1266  1.4084
 2600SOL    MW410475   3.611   0.148   4.295  0.0994 -0.1451  0.0777
 2601SOL     OW10476   3.585   0.391   4.183  0.1184  0.1430  0.6947
 2601SOL    HW210477   3.662   0.422   4.232  1.5500 -2.2737  0.0920
 2601SOL    HW310478   3.607   0.407   4.091 -0.7713  0.8425  0.5982
 2601SOL    MW410479   3.598   0.397   4.177  0.1900 -0.0836  0.6022
 2602SOL     OW10480   3.795   0.500   4.340 -0.7632  0.3375 -0.1602
 2602SOL    HW210481   3.845   0.468   4.415 -0.7033  0.4779 -0.1403
 2602SOL    HW310482   3.814   0.594   4.337 -0.2637  0.2183 -0.7319
 2602SOL    MW410483   3.804   0.508   4.350 -0.6893  0.3403 -0.2327
 2603SOL     OW10484   3.877   0.767   4.197  0.1785  0.3778 -0.6052
 2603SOL    HW210485   3.800   0.818   4.220  0.7582  0.7553  0.5128
 2603SOL    HW310486   3.852   0.723   4.116 -1.7127 -0.5490  0.4240
 2603SOL    MW410487   3.863   0.768   4.190  0.0057  0.3053 -0.3214
 2604SOL     OW10488   3.604   0.860   4.276 -0.0057 -0.1171 -0.0022
 2604SOL    HW210489   3.610   0.944   4.232  0.2994  0.4198  1.0321
 2604SOL    HW310490   3.518   0.825   4.252  0.2493  0.0605 -1.1759
 2604SOL    MW410491   3.594   0.866   4.267  0.0679 -0.0229 -0.0205
 2605SOL     OW10492   3.607   1.117   4.157  0.3012 -0.2948 -0.6181
 2605SOL    HW210493   3.526   1.163   4.181 -0.2359 -1.5569  0.0524
 2605SOL    HW310494   3.602   1.109   4.062 -0.4500 -0.4944 -0.5724
 2605SOL    MW410495   3.595   1.122   4.147  0.1309 -0.4876 -0.5236
 2606SOL     OW10496   3.822   1.274   4.275  0.3527 -0.4973  0.1899
 2606SOL    HW210497   3.748   1.219   4.249  1.5863 -1.2796 -1.7872
 2606SOL    HW310498   3.817   1.350   4.217  0.6996 -0.2056  0.5375
 2606SOL    MW410499   3.812   1.277   4.264  0.5612 -0.5620 -0.0253
 2607SOL     OW10500   3.843   1.538   4.155 -0.2243  0.1398  0.2588
 2607SOL    HW210501   3.918   1.561   4.210  0.5294 -1.3726 -0.1089
 2607SOL    HW310502   3.767   1.574   4.201  0.7438  1.9271  0.5022
 2607SOL    MW410503   3.843   1.546   4.168  0.0029  0.1762  0.2422
 2608SOL     OW10504   3.579   1.667   4.219 -0.6765  0.1602 -0.2665
 2608SOL    HW210505   3.520   1.593   4.202 -0.6556 -0.0582  0.5591
 2608SOL    HW310506   3.579   1.675   4.315 -1.0392  1.5292 -0.3745
 2608SOL    MW410507   3.571   1.658   4.229 -0.7215  0.3121 -0.1717
 2609SOL     OW10508   3.634   1.925   4.122 -0.0482 -0.2710  0.3259
 2609SOL    HW210509   3.629   1.833   4.144 -0.1560  0.1352  2.0417
 2609SOL    HW310510   3.633   1.927   4.026  0.3960 -2.0537  0.2815
 2609SOL    MW410511   3.633   1.913   4.112 -0.0041 -0.4525  0.5469
 2610SOL     OW10512   3.786   1.986   4.530  0.0271 -0.4032 -0.0342
 2610SOL    HW210513   3.805   2.007   4.439  0.3310  1.9884  0.5623
 2610SOL    HW310514   3.690   1.992   4.536  0.0473 -0.0866 -0.0625
 2610SOL    MW410515   3.776   1.989   4.519  0.0699 -0.0459  0.0410
 2611SOL     OW10516   3.843   2.306   4.192 -0.0045  0.3126  0.1172
 2611SOL    HW210517   3.846   2.213   4.212  0.6168  0.2749 -0.1178
 2611SOL    HW310518   3.824   2.311   4.098  1.6623  0.3703 -0.2363
 2611SOL    MW410519   3.841   2.295   4.182  0.2973  0.3150  0.0396
 2612SOL     OW10520   3.641   2.493   4.268 -0.4828  0.1074 -0.0384
 2612SOL    HW210521   3.602   2.471   4.353 -1.9627 -0.2869 -0.8057
 2612SOL    HW310522   3.715   2.432   4.260 -0.8118 -0.3960  0.6178
 2612SOL    MW410523   3.646   2.482   4.279 -0.7215 -0.0110 -0.0529
 2613SOL     OW10524   3.552   2.728   4.138 -0.5870 -0.0664  0.4896
 2613SOL    HW210525   3.581   2.646   4.178 -0.1234 -0.8320 -1.3152
 2613SOL    HW310526   3.531   2.703   4.047  0.1629  1.9373 -0.2636
 2613SOL    MW410527   3.553   2.714   4.131 -0.4270  0.0968  0.1526
 2614SOL     OW10528   3.771   2.855   4.203 -0.0710  0.4774 -0.2336
 2614SOL    HW210529   3.758   2.892   4.290 -1.4357  1.7797 -0.9426
 2614SOL    HW310530   3.687   2.812   4.183  0.5805 -0.6772 -0.4973
 2614SOL    MW410531   3.758   2.854   4.212 -0.1650  0.4966 -0.3619
 2615SOL     OW10532   3.828   3.102   4.099 -0.4193 -0.3192 -0.2572
 2615SOL    HW210533   3.810   3.009   4.112  0.5141 -0.6253 -1.0988
 2615SOL    HW310534   3.815   3.116   4.005  0.7735  0.0960 -0.3649
 2615SOL    MW410535   3.824   3.092   4.088 -0.1388 -0.3047 -0.3829
 2616SOL     OW10536   3.614   3.238   4.210 -0.3776 -0.0470  0.4321
 2616SOL    HW210537   3.682   3.186   4.168 -0.8537 -0.3363  0.0141
 2616SOL    HW310538   3.532   3.191   4.191 -0.8237  0.9255 -0.0578
 2616SOL    MW410539   3.612   3.225   4.202 -0.4992  0.0432  0.3123
 2617SOL     OW10540   3.584   3.503   4.158 -0.1450 -0.1388 -0.4496
 2617SOL    HW210541   3.584   3.412   4.187 -0.6272  0.2508  0.7950
 2617SOL    HW310542   3.505   3.541   4.195  2.0498  1.8277  2.4155
 2617SOL    MW410543   3.574   3.496   4.166  0.0808  0.1721  0.0925
 2618SOL     OW10544   3.822   3.613   4.241 -0.6437 -0.4114  0.4143
 2618SOL    HW210545   3.889   3.548   4.221 -0.3039 -0.2622  1.0524
 2618SOL    HW310546   3.739   3.570   4.216 -0.2947 -0.4859 -0.6337
 2618SOL    MW410547   3.820   3.598   4.235 -0.5529 -0.4017  0.3595
 2619SOL     OW10548   3.752   3.869   4.170 -0.3687 -0.4169  0.0529
 2619SOL    HW210549   3.671   3.901   4.209 -1.1036 -0.3787 -1.4760
 2619SOL    HW310550   3.766   3.783   4.210 -2.4951 -1.5070 -1.4814
 2619SOL    MW410551   3.743   3.862   4.180 -0.7460 -0.5555 -0.3514
 2620SOL     OW10552   3.540   3.987   4.311  0.1835  0.1542  0.1012
 2620SOL    HW210553   3.523   3.979   4.405  0.2561  1.0315  0.1882
 2620SOL    HW310554   3.467   3.941   4.270 -0.4011  0.6579  0.5643
 2620SOL    MW410555   3.528   3.980   4.318  0.1161  0.3364  0.1736
 2621SOL     OW10556   3.559   4.233   4.193  0.5164 -0.2094 -0.2062
 2621SOL    HW210557   3.629   4.281   4.237  0.5554 -0.6644  0.2312
 2621SOL    HW310558   3.557   4.148   4.237 -1.4775  0.4127  0.9640
 2621SOL    MW410559   3.568   4.228   4.205  0.2587 -0.1874  0.0052
 2622SOL     OW10560   3.771   4.390   4.269  0.3022  0.6619 -0.1798
 2622SOL    HW210561   3.849   4.348   4.233  1.2495  1.3417  1.0509
 2622SOL    HW310562   3.777   4.481   4.238  0.6372  1.0145  0.8830
 2622SOL    MW410563   3.782   4.396   4.260  0.4716  0.7977  0.1230
 2623SOL     OW10564   4.243   4.645   4.163  0.2835  0.0195  0.3084
 2623SOL    HW210565   4.249   4.551   4.180 -0.9970  0.1413  1.4997
 2623SOL    HW310566   4.322   4.682   4.202  0.0890 -0.3877  1.0807
 2623SOL    MW410567   4.255   4.638   4.170  0.0892 -0.0181  0.5674
 2624SOL     OW10568   4.015   0.151   4.224  0.2571 -0.3510 -0.0954
 2624SOL    HW210569   4.035   0.234   4.181  0.7757  0.3331  1.4338
 2624SOL    HW310570   4.088   0.093   4.199 -0.2572 -0.4565 -1.4036
 2624SOL    MW410571   4.028   0.154   4.215  0.2570 -0.2747 -0.0663
 2625SOL     OW10572   4.015   0.408   4.134 -0.0442  0.6564  0.1159
 2625SOL    HW210573   4.094   0.447   4.170  0.5526 -0.2670 -0.1755
 2625SOL    HW310574   3.944   0.444   4.186  0.4575  2.4231 -0.3965
 2625SOL    MW410575   4.016   0.418   4.145  0.1006  0.7677  0.0100
 2626SOL     OW10576   4.260   0.471   4.235  0.0718  0.2626 -0.0176
 2626SOL    HW210577   4.262   0.566   4.233  1.2814  0.3124  2.0068
 2626SOL    HW310578   4.349   0.443   4.215 -0.7034 -0.5420 -2.5645
 2626SOL    MW410579   4.272   0.480   4.232  0.1292  0.1630 -0.0863
 2627SOL     OW10580   4.265   0.740   4.206 -0.1481  0.0362 -0.4403
 2627SOL    HW210581   4.200   0.795   4.249 -1.5891 -0.8018 -1.5176
 2627SOL    HW310582   4.278   0.780   4.121  0.3882 -0.0775 -0.4139
 2627SOL    MW410583   4.258   0.752   4.201 -0.2675 -0.0894 -0.5789
 2628SOL     OW10584   4.080   0.923   4.304 -0.5068  0.4081 -0.2861
 2628SOL    HW210585   4.072   1.010   4.265 -0.4655  0.1528 -0.8558
 2628SOL    HW310586   4.009   0.872   4.264  0.5729 -0.3201 -1.2837
 2628SOL    MW410587   4.069   0.928   4.294 -0.3591  0.2784 -0.4930
 2629SOL     OW10588   4.086   1.201   4.207  0.3405 -0.2389  0.2186
 2629SOL    HW210589   4.162   1.205   4.266 -1.0980  0.0838  2.0863
 2629SOL    HW310590   4.013   1.234   4.259 -1.2005 -1.0118 -1.3943
 2629SOL    MW410591   4.087   1.206   4.221 -0.0525 -0.2984  0.2522
 2630SOL     OW10592   4.330   1.280   4.322 -0.4861 -0.0541  0.4535
 2630SOL    HW210593   4.325   1.278   4.418  0.0051  0.0461  0.4829
 2630SOL    HW310594   4.406   1.226   4.301  0.0476  0.7908  0.1754
 2630SOL    MW410595   4.340   1.273   4.332 -0.3505  0.0706  0.4206
 2631SOL     OW10596   4.345   1.525   4.193  0.5156 -0.3168  0.1710
 2631SOL    HW210597   4.360   1.438   4.232 -0.4400 -0.8759 -0.6856
 2631SOL    HW310598   4.333   1.507   4.100  0.2887  0.7417  0.0003
 2631SOL    MW410599   4.345   1.511   4.186  0.3600 -0.2509  0.0358
 2632SOL     OW10600   4.095   1.620   4.279  0.1891  0.4703  0.1075
 2632SOL    HW210601   4.106   1.606   4.373  0.7849 -0.0484 -0.0340
 2632SOL    HW310602   4.179   1.593   4.241 -0.3520 -0.1531 -0.6550
 2632SOL    MW410603   4.108   1.615   4.286  0.1965  0.3196 -0.0114
 2633SOL     OW10604   4.062   1.879   4.186 -0.1007  0.1281  0.3626
 2633SOL    HW210605   4.078   1.791   4.219  1.0435 -0.0014 -0.4857
 2633SOL    HW310606   4.131   1.933   4.226  0.9722  0.0697 -1.3226
 2633SOL    MW410607   4.073   1.875   4.196  0.1912  0.1035  0.0286
 2634SOL     OW10608   0.020   1.942   4.163  0.3155  0.2135 -0.0209
 2634SOL    HW210609   0.106   1.982   4.174 -0.1260  0.4045  3.4144
 2634SOL    HW310610   0.024   1.861   4.214 -1.1722 -0.3187 -0.7145
 2634SOL    MW410611   0.032   1.937   4.172  0.0610  0.1684  0.3405
 2635SOL     OW10612   4.266   2.298   4.149 -0.6072  0.2926  0.3338
 2635SOL    HW210613   4.201   2.351   4.195  0.8174  1.7755  0.6887
 2635SOL    HW310614   4.279   2.221   4.204  0.1202  1.4234  1.7672
 2635SOL    MW410615   4.259   2.295   4.162 -0.3228  0.6373  0.5703
 2636SOL     OW10616   4.069   2.442   4.297 -0.7294  0.1533 -0.3976
 2636SOL    HW210617   4.050   2.460   4.389  0.1288  0.7661 -0.3314
 2636SOL    HW310618   3.991   2.398   4.264 -0.8239 -0.5752  0.7665
 2636SOL    MW410619   4.057   2.439   4.305 -0.6289  0.1380 -0.2351
 2637SOL     OW10620   4.012   2.696   4.170 -0.4614 -0.1523  0.0070
 2637SOL    HW210621   4.012   2.610   4.214 -0.5596 -1.8310 -3.1209
 2637SOL    HW310622   3.942   2.745   4.213  0.5593 -1.0728  2.8557
 2637SOL    MW410623   4.003   2.691   4.182 -0.3400 -0.4952 -0.0291
 2638SOL     OW10624   4.216   2.865   4.279  0.5426  0.2989  0.0911
 2638SOL    HW210625   4.154   2.813   4.228 -0.1459 -0.3732  1.6016
 2638SOL    HW310626   4.301   2.826   4.260  0.4798  0.9478 -1.6406
 2638SOL    MW410627   4.219   2.853   4.270  0.4435  0.2959  0.0625
 2639SOL     OW10628   4.294   3.095   4.139 -0.5195  0.2201  0.1522
 2639SOL    HW210629   4.274   3.005   4.164 -1.3457  0.0858 -0.9232
 2639SOL    HW310630   4.278   3.097   4.044 -0.2293  1.4202  0.1254
 2639SOL    MW410631   4.289   3.083   4.130 -0.5908  0.3605  0.0067
 2640SOL     OW10632   4.059   3.193   4.206  0.2749  0.1479 -0.5234
 2640SOL    HW210633   4.126   3.134   4.173 -0.7191 -1.5791  0.4588
 2640SOL    HW310634   3.976   3.153   4.179 -0.4736  0.0775  1.7592
 2640SOL    MW410635   4.057   3.180   4.198  0.0448 -0.0892 -0.0925
 2641SOL     OW10636   4.047   3.462   4.158 -0.0116 -0.2944 -0.4585
 2641SOL    HW210637   4.045   3.369   4.180  1.4615 -0.4302 -0.8757
 2641SOL    HW310638   4.050   3.464   4.063  1.6787  0.1448 -0.4045
 2641SOL    MW410639   4.047   3.450   4.149  0.4058 -0.2544 -0.5064
 2642SOL     OW10640   4.282   3.577   4.268 -0.4806  0.2098  0.3022
 2642SOL    HW210641   4.286   3.667   4.235 -0.3389  0.1486  0.1506
 2642SOL    HW310642   4.198   3.544   4.239 -0.1608  0.0028 -0.3937
 2642SOL    MW410643   4.272   3.585   4.260 -0.4196  0.1745  0.1903
 2643SOL     OW10644   4.237   3.819   4.182 -0.1964 -0.2754  0.2587
 2643SOL    HW210645   4.144   3.836   4.197 -1.1016 -3.2354 -1.5917
 2643SOL    HW310646   4.248   3.826   4.087  1.8994  1.8183  0.6022
 2643SOL    MW410647   4.227   3.822   4.172 -0.0401 -0.3896  0.0596
 2644SOL     OW10648   3.991   3.956   4.247 -0.2112 -0.2964  0.2690
 2644SOL    HW210649   4.021   3.956   4.338 -0.1419 -0.3801  0.2470
 2644SOL    HW310650   3.906   3.912   4.250 -0.6577  0.5795  0.4347
 2644SOL    MW410651   3.984   3.950   4.260 -0.2611 -0.1917  0.2875
 2645SOL     OW10652   3.966   4.222   4.186  0.0748  0.0248 -0.0042
 2645SOL    HW210653   4.058   4.233   4.209  0.0126  0.4083  0.0789
 2645SOL    HW310654   3.941   4.139   4.226  0.6771 -0.6413 -1.0003
 2645SOL    MW410655   3.975   4.213   4.195  0.1457 -0.0124 -0.1249
 2646SOL     OW10656   4.276   0.188   4.567 -1.0527 -0.0616  0.6778
 2646SOL    HW210657   4.255   0.280   4.551 -1.5690 -0.4023 -0.7081
 2646SOL    HW310658   4.190   0.144   4.568 -0.8651 -0.4242  2.0702
 2646SOL    MW410659   4.262   0.194   4.565 -1.0958 -0.1544  0.6781
 2647SOL     OW10660   0.266   0.216   4.616 -0.0194  0.2391  0.0848
 2647SOL    HW210661   0.228   0.302   4.600 -0.1987  0.4163  1.4126
 2647SOL    HW310662   0.194   0.155   4.599  0.4181  0.2582 -1.9580
 2647SOL    MW410663   0.252   0.219   4.612  0.0147  0.2650 -0.0095
 2648SOL     OW10664   4.203   4.434   4.503  0.2367 -0.0167 -0.1117
 2648SOL    HW210665   4.132   4.371   4.514  0.5636 -0.6175 -1.2992
 2648SOL    HW310666   4.160   4.518   4.494 -0.4388 -0.6176 -2.7272
 2648SOL    MW410667   4.188   4.437   4.504  0.1907 -0.1750 -0.6137
 2649SOL     OW10668   4.051   0.024   4.492  0.0375  0.4510  0.0291
 2649SOL    HW210669   4.017   0.057   4.409  0.2566  1.0546  0.1724
 2649SOL    HW310670   3.984   0.046   4.556  0.2056  0.6648  0.1331
 2649SOL    MW410671   4.038   0.031   4.489  0.0877  0.5589  0.0620
 2650SOL     OW10672   4.330   1.359   4.616  0.3854 -0.2656 -0.4733
 2650SOL    HW210673   4.422   1.380   4.632  0.6198 -0.9145 -0.9466
 2650SOL    HW310674   4.323   1.266   4.638 -0.5354  0.1646  1.1498
 2650SOL    MW410675   4.342   1.349   4.621  0.2947 -0.2944 -0.3214
 2651SOL     OW10676   0.527   0.154   4.494  0.2229 -0.8222 -0.2478
 2651SOL    HW210677   0.457   0.176   4.556 -0.3752 -0.9449 -0.8662
 2651SOL    HW310678   0.608   0.183   4.537 -0.2926  0.1546  0.0946
 2651SOL    MW410679   0.528   0.161   4.508  0.0760 -0.7095 -0.2842
 2652SOL     OW10680   0.711   0.014   4.760 -0.5807 -0.0592 -0.7080
 2652SOL    HW210681   0.633  -0.021   4.718  0.0367  0.4594 -2.3133
 2652SOL    HW310682   0.704   0.108   4.749  0.0129  0.0237 -0.4063
 2652SOL    MW410683   0.700   0.022   4.753 -0.4209  0.0201 -0.8798
 2653SOL     OW10684   4.490   0.892   4.591 -0.2452 -0.1630 -0.6485
 2653SOL    HW210685   4.460   0.803   4.612 -1.1475 -0.1162 -1.7232
 2653SOL    HW310686   4.502   0.892   4.496 -0.4479  0.9275 -0.6808
 2653SOL    MW410687   4.488   0.880   4.581 -0.3910 -0.0130 -0.7949
 2654SOL     OW10688   0.706   1.155   4.582  0.0555 -0.4381  0.1019
 2654SOL    HW210689   0.634   1.098   4.558 -0.7522  0.5021  0.2770
 2654SOL    HW310690   0.700   1.228   4.520  0.0930  0.2588  0.9141
 2654SOL    MW410691   0.696   1.157   4.571 -0.0461 -0.2220  0.2317
 2655SOL     OW10692   0.746   2.107   4.559 -0.3334  0.1676  0.2311
 2655SOL    HW210693   0.671   2.072   4.606 -0.5989  1.1691  0.5654
 2655SOL    HW310694   0.822   2.068   4.602 -0.6037  0.4275  0.9547
 2655SOL    MW410695   0.746   2.097   4.571 -0.4040  0.3343  0.3705
 2656SOL     OW10696   4.058   1.613   4.874 -0.0874 -0.1440  0.0215
 2656SOL    HW210697   4.146   1.617   4.835 -1.4198 -0.1411 -3.1091
 2656SOL    HW310698   4.029   1.704   4.878 -0.1111 -0.1770  0.7341
 2656SOL    MW410699   4.066   1.626   4.870 -0.2661 -0.1481 -0.2975
 2657SOL     OW10700   0.500   2.032   4.637 -0.6983 -0.1174 -0.5362
 2657SOL    HW210701   0.418   2.071   4.608 -0.6778 -0.6270 -1.2890
 2657SOL    HW310702   0.499   1.943   4.600 -0.1750 -0.3995  0.1107
 2657SOL    MW410703   0.489   2.025   4.628 -0.6265 -0.2220 -0.5498
 2658SOL     OW10704   0.490   1.713   4.223 -0.1916  0.0398  1.0426
 2658SOL    HW210705   0.542   1.641   4.189  0.2930  0.4923  0.8205
 2658SOL    HW310706   0.399   1.683   4.216  0.0609 -0.9255  1.8505
 2658SOL    MW410707   0.485   1.700   4.217 -0.0944 -0.0279  1.1196
 2659SOL     OW10708   0.267   2.167   4.490  0.1304 -0.2386 -0.1978
 2659SOL    HW210709   0.300   2.256   4.500 -0.1187 -0.0400 -1.1391
 2659SOL    HW310710   0.183   2.167   4.536  0.2587 -0.0609  0.0340
 2659SOL    MW410711   0.261   2.179   4.498  0.1144 -0.1888 -0.2918
 2660SOL     OW10712   0.036   2.207   4.631  0.0981  0.0483  0.1485
 2660SOL    HW210713   0.004   2.210   4.721 -3.2082  0.0838 -0.9675
 2660SOL    HW310714   0.030   2.297   4.600 -0.1482 -0.2056 -0.5600
 2660SOL    MW410715   0.031   2.219   4.639 -0.3707  0.0196 -0.0920
 2661SOL     OW10716   0.387   2.416   4.533  0.6538  0.5650  0.0302
 2661SOL    HW210717   0.377   2.461   4.449  0.9902 -0.0205 -0.3300
 2661SOL    HW310718   0.480   2.392   4.537  0.3503 -0.6953 -0.0992
 2661SOL    MW410719   0.398   2.418   4.523  0.6581  0.3216 -0.0343
 2662SOL     OW10720   0.498   2.917   4.518  0.0439  0.3899  0.0269
 2662SOL    HW210721   0.488   3.010   4.539  0.3953  0.1498  1.3041
 2662SOL    HW310722   0.413   2.878   4.540  0.5256  0.0762  1.3199
 2662SOL    MW410723   0.485   2.924   4.523  0.1538  0.3171  0.3662
 2663SOL     OW10724   4.256   2.577   4.595  0.3348 -0.4755 -0.6974
 2663SOL    HW210725   4.171   2.534   4.594  0.2330 -0.2794 -0.5140
 2663SOL    HW310726   4.236   2.670   4.582  0.5698 -0.5117 -1.3419
 2663SOL    MW410727   4.242   2.583   4.593  0.3524 -0.4544 -0.7582
 2664SOL     OW10728   4.230   3.342   4.587  0.2726  0.7989  0.2154
 2664SOL    HW210729   4.313   3.302   4.613  0.1005  0.4492  0.2310
 2664SOL    HW310730   4.180   3.270   4.547  0.4237  1.2740 -0.8288
 2664SOL    MW410731   4.234   3.327   4.585  0.2699  0.8154  0.0796
 2665SOL     OW10732   4.473   3.226   4.601  0.2190  0.4652 -0.0458
 2665SOL    HW210733   4.474   3.221   4.506  1.1944 -1.6155  0.0422
 2665SOL    HW310734   4.457   3.136   4.630  0.8515  0.9005  1.7403
 2665SOL    MW410735   4.471   3.213   4.592  0.4311  0.2482  0.2012
 2666SOL     OW10736   0.212   3.910   4.545  0.1449  0.2897 -0.0929
 2666SOL    HW210737   0.205   3.817   4.569 -1.1943  0.1834 -0.8039
 2666SOL    HW310738   0.225   3.909   4.450 -0.4680  0.8325 -0.1896
 2666SOL    MW410739   0.213   3.897   4.535 -0.1126  0.3474 -0.1993
 2667SOL     OW10740   0.027   0.063   4.547  0.2237  0.1531  0.1715
 2667SOL    HW210741  -0.048   0.119   4.562 -0.1487 -0.3374  0.1562
 2667SOL    HW310742   0.002  -0.022   4.584  0.6755 -0.0769 -0.0395
 2667SOL    MW410743   0.014   0.059   4.554  0.2341  0.0580  0.1416
 2668SOL     OW10744   3.944   0.467   4.591 -0.1875 -0.0402  0.7310
 2668SOL    HW210745   3.863   0.437   4.632 -0.2640 -0.4711  0.2691
 2668SOL    HW310746   3.934   0.562   4.584 -0.3126 -0.0025  1.4032
 2668SOL    MW410747   3.932   0.475   4.595 -0.2143 -0.0920  0.7582
 2669SOL     OW10748   4.232   3.811   4.666 -0.2756  0.4535  0.3959
 2669SOL    HW210749   4.194   3.784   4.749  0.7983 -0.0545  0.7345
 2669SOL    HW310750   4.271   3.731   4.630 -2.5085  0.2113 -1.5802
 2669SOL    MW410751   4.232   3.797   4.672 -0.4287  0.3545  0.1798
 2670SOL     OW10752   3.724   4.326   4.537 -0.0685 -0.0816  0.1155
 2670SOL    HW210753   3.757   4.409   4.572 -0.3432  0.0305  0.1115
 2670SOL    HW310754   3.737   4.333   4.442  0.0888 -0.1236  0.1334
 2670SOL    MW410755   3.730   4.338   4.529 -0.0839 -0.0725  0.1168
 2671SOL     OW10756   0.485   4.576   4.597  0.4896  0.0580  0.2020
 2671SOL    HW210757   0.499   4.656   4.546  1.5567 -0.3119 -0.0925
 2671SOL    HW310758   0.394   4.552   4.580  0.3129  0.9246 -0.1085
 2671SOL    MW410759   0.475   4.584   4.588  0.6071  0.1230  0.1221
 2672SOL     OW10760   3.966   1.865   4.814 -0.3733  0.0285  0.6856
 2672SOL    HW210761   3.896   1.918   4.853  0.2143  1.8481 -0.6445
 2672SOL    HW310762   3.924   1.822   4.739 -0.7645 -1.1469  1.5653
 2672SOL    MW410763   3.951   1.867   4.809 -0.3476  0.1135  0.6261
 2673SOL     OW10764   1.183   1.256   4.801 -0.2432  0.4650  0.0707
 2673SOL    HW210765   1.156   1.342   4.770 -0.6807  0.8640  1.5249
 2673SOL    HW310766   1.110   1.198   4.779 -0.4201  0.6833  0.0860
 2673SOL    MW410767   1.170   1.260   4.794 -0.3244  0.5466  0.2642
 2674SOL     OW10768   0.740   0.265   4.619  0.2781 -0.4252  0.2665
 2674SOL    HW210769   0.823   0.223   4.597  0.1671  0.0351 -1.0929
 2674SOL    HW310770   0.745   0.352   4.578  0.3466  0.7545  2.7126
 2674SOL    MW410771   0.751   0.271   4.610  0.2725 -0.2089  0.4101
 2675SOL     OW10772   1.384   1.131   4.613  0.0184  0.1093  0.3155
 2675SOL    HW210773   1.346   1.155   4.697  0.6938 -0.1466  0.6960
 2675SOL    HW310774   1.357   1.040   4.600 -0.5231  0.3100  0.0051
 2675SOL    MW410775   1.376   1.122   4.622  0.0360  0.1019  0.3247
 2676SOL     OW10776   1.296   0.855   4.521  0.1174  0.3314 -0.5499
 2676SOL    HW210777   1.322   0.854   4.429 -1.3233 -0.7190 -0.9628
 2676SOL    HW310778   1.204   0.880   4.520  0.1183  0.4153  0.6240
 2676SOL    MW410779   1.287   0.858   4.509 -0.0726  0.2039 -0.4497
 2677SOL     OW10780   2.212   1.239   4.559  0.0007 -0.0646 -0.1321
 2677SOL    HW210781   2.152   1.251   4.486  1.1808 -0.3987 -1.1774
 2677SOL    HW310782   2.276   1.310   4.550 -1.0518  1.1818  1.8237
 2677SOL    MW410783   2.213   1.250   4.548  0.0174  0.0558 -0.0119
 2678SOL     OW10784   0.776   1.729   4.513 -0.4319  0.0480  1.1742
 2678SOL    HW210785   0.785   1.648   4.563 -0.0626  0.9241  2.5516
 2678SOL    HW310786   0.842   1.787   4.551  2.1264 -0.3022 -2.4418
 2678SOL    MW410787   0.786   1.726   4.525 -0.0456  0.1172  0.8788
 2679SOL     OW10788   1.054   1.320   4.432  0.4716  0.6190  0.3457
 2679SOL    HW210789   1.150   1.318   4.426  0.4503  1.0418 -0.1387
 2679SOL    HW310790   1.033   1.246   4.489  1.0981  0.6366  0.6143
 2679SOL    MW410791   1.064   1.310   4.439  0.5516  0.6771  0.3171
 2680SOL     OW10792   0.946   1.920   4.669 -0.1782 -0.0414 -0.1201
 2680SOL    HW210793   1.041   1.921   4.660 -0.3355  0.7618 -1.9127
 2680SOL    HW310794   0.931   1.889   4.758  1.7464 -0.7423 -0.0038
 2680SOL    MW410795   0.956   1.916   4.680  0.0549 -0.0279 -0.3414
 2681SOL     OW10796   0.677   2.385   4.565 -0.2527 -0.6012 -0.0643
 2681SOL    HW210797   0.752   2.440   4.588 -1.1151  0.2342  0.7643
 2681SOL    HW310798   0.714   2.297   4.557  1.0319 -0.0187 -0.8335
 2681SOL    MW410799   0.692   2.381   4.567 -0.1970 -0.4144 -0.0567
 2682SOL     OW10800   0.801   1.484   4.647 -0.0906 -0.0644 -0.0531
 2682SOL    HW210801   0.891   1.460   4.670 -0.1249 -0.5644 -0.4343
 2682SOL    HW310802   0.786   1.443   4.561 -1.1343 -1.0951  0.6126
 2682SOL    MW410803   0.811   1.476   4.638 -0.2328 -0.2664 -0.0157
 2683SOL     OW10804   4.443   2.661   4.812  0.1113  0.4147 -0.0473
 2683SOL    HW210805   4.532   2.627   4.799 -0.3179 -0.4200 -0.8471
 2683SOL    HW310806   4.389   2.610   4.752 -0.9400  0.8043  0.5601
 2683SOL    MW410807   4.448   2.650   4.802 -0.0834  0.3562 -0.0720
 2684SOL     OW10808   1.183   2.728   4.465 -0.2505 -0.4778 -0.0370
 2684SOL    HW210809   1.209   2.803   4.517  0.3798 -1.0916  0.5509
 2684SOL    HW310810   1.239   2.657   4.496 -0.4727 -1.0626 -0.9416
 2684SOL    MW410811   1.194   2.728   4.476 -0.1967 -0.6361 -0.0796
 2685SOL     OW10812   0.198   2.595   4.641 -0.0398 -0.0558  0.2413
 2685SOL    HW210813   0.137   2.542   4.590 -0.6745 -0.2319  1.1829
 2685SOL    HW310814   0.280   2.544   4.640 -0.6445 -1.0563  1.1313
 2685SOL    MW410815   0.201   2.581   4.634 -0.2034 -0.2110  0.4830
 2686SOL     OW10816   1.685   2.880   4.455  0.1636  0.1780  0.2436
 2686SOL    HW210817   1.631   2.946   4.500  0.4927 -0.3563  1.4331
 2686SOL    HW310818   1.771   2.889   4.495  0.1538 -1.1333  0.5488
 2686SOL    MW410819   1.689   2.890   4.466  0.2055 -0.0658  0.4406
 2687SOL     OW10820   0.448   3.188   4.591 -0.0903 -0.4993 -0.2922
 2687SOL    HW210821   0.370   3.244   4.590  0.3885  0.1751 -1.1241
 2687SOL    HW310822   0.496   3.214   4.669  0.6770  1.0602 -1.2494
 2687SOL    MW410823   0.444   3.199   4.601  0.0741 -0.2046 -0.5283
 2688SOL     OW10824   1.326   4.489   4.657  0.2947 -0.2277 -0.6991
 2688SOL    HW210825   1.241   4.469   4.617  0.6091 -0.6259 -1.1626
 2688SOL    HW310826   1.388   4.434   4.611  0.4292 -1.9135  1.4321
 2688SOL    MW410827   1.323   4.479   4.646  0.3539 -0.5026 -0.4792
 2689SOL     OW10828   0.223   2.851   4.535  0.6109  0.1652 -0.0257
 2689SOL    HW210829   0.213   2.757   4.551 -1.4007  0.3931  0.2850
 2689SOL    HW310830   0.223   2.859   4.440 -0.6272 -0.0395 -0.0520
 2689SOL    MW410831   0.221   2.839   4.525  0.1822  0.1681  0.0119
 2690SOL     OW10832   4.330   3.592   4.534 -0.0377 -0.5280  0.1733
 2690SOL    HW210833   4.294   3.508   4.562  0.4568 -0.5717  0.6951
 2690SOL    HW310834   4.308   3.599   4.441  0.3488 -1.4617  0.0087
 2690SOL    MW410835   4.323   3.582   4.526  0.0787 -0.6568  0.2203
 2691SOL     OW10836   0.646   4.356   4.508  0.4144 -0.3352 -0.0754
 2691SOL    HW210837   0.577   4.416   4.537 -0.1781 -0.6121 -0.8937
 2691SOL    HW310838   0.649   4.366   4.413  0.9445 -0.9164 -0.1230
 2691SOL    MW410839   0.637   4.365   4.499  0.4061 -0.4478 -0.1898
 2692SOL     OW10840   4.455   4.463   4.621  0.0967  0.1306 -0.3441
 2692SOL    HW210841   4.460   4.400   4.693  2.2578  0.8755  0.2136
 2692SOL    HW310842   4.370   4.447   4.581 -0.2183 -1.8048  0.9991
 2692SOL    MW410843   4.444   4.452   4.626  0.3405 -0.0262 -0.0935
 2693SOL     OW10844   4.442   4.033   4.600  0.3180  0.5287 -0.0494
 2693SOL    HW210845   4.377   3.966   4.622 -0.8561  1.0780 -1.8235
 2693SOL    HW310846   4.523   3.983   4.588 -0.0130 -0.2906  0.9501
 2693SOL    MW410847   4.444   4.017   4.602  0.1197  0.4930 -0.1521
 2694SOL     OW10848   0.236   4.431   4.570  0.2142 -0.7026  0.0657
 2694SOL    HW210849   0.247   4.348   4.617 -0.6778 -0.7382  0.2083
 2694SOL    HW310850   0.146   4.457   4.588 -0.2336 -0.8656 -1.8470
 2694SOL    MW410851   0.226   4.423   4.578  0.0374 -0.7286 -0.1674
 2695SOL     OW10852   1.161   0.243   4.638 -0.3618  0.4770  0.4527
 2695SOL    HW210853   1.140   0.246   4.732 -0.0807  0.8385  0.5034
 2695SOL    HW310854   1.097   0.182   4.602 -1.0728  1.0384  0.7294
 2695SOL    MW410855   1.150   0.235   4.646 -0.4185  0.5988  0.4959
 2696SOL     OW10856   0.937   0.098   4.523 -0.1123 -0.2343  0.1945
 2696SOL    HW210857   0.946   0.098   4.427 -1.8479  1.1112  0.0173
 2696SOL    HW310858   0.921   0.006   4.545 -2.9066 -0.1174 -1.1600
 2696SOL    MW410859   0.936   0.086   4.513 -0.7100 -0.0413 -0.0076
 2697SOL     OW10860   0.646   0.509   4.509 -0.0750 -0.1787  0.1398
 2697SOL    HW210861   0.563   0.473   4.538  0.6033 -1.4253  0.5602
 2697SOL    HW310862   0.655   0.480   4.418  0.1938 -0.5636  0.2905
 2697SOL    MW410863   0.636   0.501   4.501  0.0499 -0.3940  0.2146
 2698SOL     OW10864   1.628   1.078   4.502  0.2281 -0.4373  0.2131
 2698SOL    HW210865   1.554   1.106   4.557 -0.5496  0.2339 -1.1263
 2698SOL    HW310866   1.692   1.148   4.510 -0.7462  0.6668 -1.3124
 2698SOL    MW410867   1.626   1.091   4.510 -0.0029 -0.2031 -0.1650
 2699SOL     OW10868   1.789   0.834   4.473 -0.8402  0.5080 -0.3674
 2699SOL    HW210869   1.721   0.896   4.497 -1.8337 -0.6115 -0.2677
 2699SOL    HW310870   1.799   0.846   4.378 -0.6416  1.1878 -0.2673
 2699SOL    MW410871   1.782   0.844   4.463 -0.9451  0.4499 -0.3405
 2700SOL     OW10872   0.500   0.956   4.529  0.3735 -0.4797  0.7796
 2700SOL    HW210873   0.473   0.925   4.443  0.9779  0.6514  0.1687
 2700SOL    HW310874   0.429   1.014   4.557 -0.4081 -1.8160  1.5950
 2700SOL    MW410875   0.487   0.960   4.521  0.3501 -0.5068  0.8068
 2701SOL     OW10876   0.552   1.382   4.722  0.2513 -0.6763  0.0351
 2701SOL    HW210877   0.638   1.421   4.709  0.2273 -0.6144  0.0617
 2701SOL    HW310878   0.570   1.289   4.733  0.2482 -0.7540 -0.6393
 2701SOL    MW410879   0.566   1.375   4.722  0.2478 -0.6784 -0.0501
 2702SOL     OW10880   1.006   0.868   4.503  0.0837  0.0337  0.0603
 2702SOL    HW210881   0.964   0.788   4.534 -0.1444 -0.4245 -1.3969
 2702SOL    HW310882   0.958   0.892   4.424  1.8802  0.0695 -1.0538
 2702SOL    MW410883   0.994   0.861   4.497  0.2906 -0.0220 -0.2789
 2703SOL     OW10884   2.296   0.820   4.708 -0.5365  0.3362 -0.4378
 2703SOL    HW210885   2.293   0.747   4.770 -0.3325  0.1820 -0.6149
 2703SOL    HW310886   2.237   0.795   4.638  0.4212 -0.1634 -1.0674
 2703SOL    MW410887   2.288   0.807   4.707 -0.3831  0.2500 -0.5441
 2704SOL     OW10888   0.980   1.127   4.615  0.8582 -0.2739  0.0378
 2704SOL    HW210889   0.997   1.036   4.590 -1.5631 -0.5133 -0.8793
 2704SOL    HW310890   0.885   1.133   4.618  0.9782  2.5274 -0.8963
 2704SOL    MW410891   0.970   1.116   4.612  0.5547  0.0641 -0.2065
 2705SOL     OW10892   1.487   2.325   4.660  0.2213  0.8481  0.0660
 2705SOL    HW210893   1.440   2.394   4.613 -0.2744  0.2108 -0.3775
 2705SOL    HW310894   1.559   2.371   4.703  0.5510  1.4929 -1.1251
 2705SOL    MW410895   1.490   2.341   4.659  0.1994  0.8490 -0.1502
 2706SOL     OW10896   1.903   2.908   4.648  0.1530 -0.2289 -0.1901
 2706SOL    HW210897   1.864   2.968   4.711 -0.1245 -0.6302  0.0230
 2706SOL    HW310898   1.908   2.824   4.694  2.9483  0.2053  0.4386
 2706SOL    MW410899   1.899   2.905   4.662  0.4852 -0.2246 -0.0792
 2707SOL     OW10900   1.912   3.253   4.503  0.0110  0.2377  0.3079
 2707SOL    HW210901   1.897   3.227   4.412  0.2634  1.1751 -0.0058
 2707SOL    HW310902   2.007   3.260   4.511  0.0033 -0.0902  0.7158
 2707SOL    MW410903   1.922   3.251   4.492  0.0435  0.3183  0.3209
 2708SOL     OW10904   1.492   3.047   4.552  0.5004  0.2744  0.0786
 2708SOL    HW210905   1.464   3.102   4.478 -1.3836  0.0159  0.5792
 2708SOL    HW310906   1.562   3.097   4.593  0.1110  1.4298 -0.6149
 2708SOL    MW410907   1.497   3.061   4.547  0.2005  0.3929  0.0534
 2709SOL     OW10908   0.789   2.861   4.503  0.2240  0.0432 -0.1735
 2709SOL    HW210909   0.697   2.851   4.529  0.9678 -0.8727  2.2096
 2709SOL    HW310910   0.822   2.771   4.499  1.4536  0.4542  0.6290
 2709SOL    MW410911   0.781   2.848   4.506  0.4843 -0.0231  0.2470
 2710SOL     OW10912   0.755   3.748   4.502 -0.5396  0.4820  0.1630
 2710SOL    HW210913   0.705   3.711   4.574 -1.2205  1.3609  0.1670
 2710SOL    HW310914   0.788   3.832   4.536  0.1356  0.3484 -0.1547
 2710SOL    MW410915   0.752   3.754   4.516 -0.5403  0.5805  0.1216
 2711SOL     OW10916   1.247   2.945   4.617  0.3203  0.1314  0.0947
 2711SOL    HW210917   1.245   2.928   4.711 -0.0747  0.2486  0.1051
 2711SOL    HW310918   1.331   2.990   4.603 -0.5841  2.0612  0.7091
 2711SOL    MW410919   1.258   2.948   4.628  0.1488  0.4015  0.1769
 2712SOL     OW10920   0.983   3.058   4.507  0.4270 -0.4306 -0.1305
 2712SOL    HW210921   1.069   3.024   4.527  1.3030  1.0973 -1.1638
 2712SOL    HW310922   0.923   2.986   4.527  2.1459 -2.3790 -1.6830
 2712SOL    MW410923   0.986   3.044   4.512  0.7694 -0.4864 -0.4716
 2713SOL     OW10924   1.564   3.637   4.549 -0.1734  0.0589 -0.6932
 2713SOL    HW210925   1.605   3.723   4.551 -0.5330  0.2174  0.0883
 2713SOL    HW310926   1.633   3.576   4.572 -0.9283  0.5554  3.2876
 2713SOL    MW410927   1.578   3.640   4.552 -0.3204  0.1454 -0.0648
 2714SOL     OW10928   0.109   3.619   4.543  0.6017  0.2691  0.2217
 2714SOL    HW210929   0.019   3.591   4.526  0.7727 -0.6694  0.7998
 2714SOL    HW310930   0.151   3.618   4.457  0.2893 -0.1287  0.0723
 2714SOL    MW410931   0.103   3.615   4.530  0.5830  0.0930  0.2780
 2715SOL     OW10932   0.575   4.102   4.598  0.4011 -0.2057  0.4612
 2715SOL    HW210933   0.602   4.191   4.575  0.8447 -0.1865  1.0592
 2715SOL    HW310934   0.538   4.067   4.517  0.8390  0.2936  0.0416
 2715SOL    MW410935   0.574   4.109   4.584  0.5175 -0.1369  0.4849
 2716SOL     OW10936   0.852   4.021   4.565  0.0380  0.0181  0.5983
 2716SOL    HW210937   0.764   4.059   4.569 -0.3411 -0.9123  1.2244
 2716SOL    HW310938   0.877   4.029   4.473 -0.5772  0.5781  0.4786
 2716SOL    MW410939   0.844   4.027   4.553 -0.0932 -0.0310  0.6657
 2717SOL     OW10940   0.876   4.508   4.613 -0.2541  0.6660  0.7241
 2717SOL    HW210941   0.808   4.477   4.554  0.1298  1.2276 -0.0213
 2717SOL    HW310942   0.830   4.539   4.691 -0.9071  1.7883 -0.1034
 2717SOL    MW410943   0.861   4.508   4.616 -0.2896  0.8883  0.5164
 2718SOL     OW10944   1.551   4.152   4.913 -0.2531  0.0328 -0.1406
 2718SOL    HW210945   1.537   4.098   4.991  1.2432 -0.8702 -0.4525
 2718SOL    HW310946   1.477   4.212   4.910 -0.5884 -0.2797  1.6832
 2718SOL    MW410947   1.540   4.152   4.923 -0.1000 -0.1278  0.0582
 2719SOL     OW10948   1.530   4.362   4.520 -0.4069 -0.7159 -0.7036
 2719SOL    HW210949   1.604   4.412   4.553 -1.4232  0.1515  0.3092
 2719SOL    HW310950   1.539   4.366   4.425  0.3793  0.0908 -0.5998
 2719SOL    MW410951   1.541   4.369   4.512 -0.4374 -0.4950 -0.5565
 2720SOL     OW10952   1.106   4.394   4.516  0.1346 -0.1812 -0.0907
 2720SOL    HW210953   1.115   4.305   4.551 -1.0070 -0.5380 -0.7036
 2720SOL    HW310954   1.028   4.429   4.559  0.7420  0.6336  0.3608
 2720SOL    MW410955   1.097   4.387   4.527  0.0641 -0.1211 -0.1116
 2721SOL     OW10956   1.140   0.479   4.485  0.3445 -0.3316 -0.2762
 2721SOL    HW210957   1.074   0.542   4.514  1.4573  0.4138  0.6822
 2721SOL    HW310958   1.134   0.406   4.547 -1.5463 -1.6083 -1.9024
 2721SOL    MW410959   1.131   0.477   4.497  0.2419 -0.4017 -0.3648
 2722SOL     OW10960   1.680   0.105   4.505 -0.1080  0.3156  0.5847
 2722SOL    HW210961   1.588   0.108   4.532 -0.1209 -0.5926  0.6897
 2722SOL    HW310962   1.713   0.023   4.544  0.7523  0.6594  0.5880
 2722SOL    MW410963   1.672   0.094   4.514  0.0037  0.2411  0.5989
 2723SOL     OW10964   1.376   0.609   4.596  0.1151  0.2863  0.2806
 2723SOL    HW210965   1.303   0.555   4.565 -0.0182  0.4472  0.3170
 2723SOL    HW310966   1.348   0.699   4.583  0.3817  0.3471  0.1264
 2723SOL    MW410967   1.363   0.613   4.591  0.1327  0.3155  0.2651
 2724SOL     OW10968   1.524   1.755   4.706 -0.3672 -0.3385  0.2559
 2724SOL    HW210969   1.492   1.845   4.695  1.6997  0.0070 -4.1167
 2724SOL    HW310970   1.619   1.764   4.715 -0.0847 -2.0981 -0.7906
 2724SOL    MW410971   1.532   1.768   4.706 -0.0571 -0.5251 -0.4592
 2725SOL     OW10972   0.914   0.622   4.578  0.3929 -0.5868 -0.1480
 2725SOL    HW210973   0.824   0.610   4.548 -0.4291  1.1297  1.5134
 2725SOL    HW310974   0.909   0.607   4.673  1.6727  0.4257  0.0809
 2725SOL    MW410975   0.901   0.618   4.587  0.4533 -0.2268  0.1020
 2726SOL     OW10976   2.053   0.474   4.528  0.1965 -0.1572  0.0642
 2726SOL    HW210977   2.121   0.418   4.567  0.4192  0.1250  0.0799
 2726SOL    HW310978   1.970   0.432   4.554  0.3215  0.4886  1.5490
 2726SOL    MW410979   2.051   0.461   4.537  0.2427 -0.0347  0.2623
 2727SOL     OW10980   1.347   1.336   4.438 -0.3293 -0.3503  0.1229
 2727SOL    HW210981   1.375   1.415   4.483 -0.9270 -0.6116  0.9641
 2727SOL    HW310982   1.358   1.266   4.503 -1.2917 -0.7130 -0.0963
 2727SOL    MW410983   1.352   1.337   4.453 -0.5350 -0.4326  0.2050
 2728SOL     OW10984   1.301   1.683   4.516  0.3880 -0.3255  0.2601
 2728SOL    HW210985   1.389   1.683   4.554  0.4608  2.5648  0.1264
 2728SOL    HW310986   1.315   1.664   4.423  1.0149  1.7330 -0.0716
 2728SOL    MW410987   1.315   1.680   4.509  0.4803  0.3275  0.1984
 2729SOL     OW10988   1.648   2.575   4.478  0.0114  0.1517 -0.2856
 2729SOL    HW210989   1.698   2.541   4.552 -0.7991  0.4027  0.3877
 2729SOL    HW310990   1.657   2.670   4.484 -1.3801  0.2570  0.4552
 2729SOL    MW410991   1.655   2.583   4.488 -0.2792  0.1986 -0.0987
 2730SOL     OW10992   2.012   2.492   4.403 -0.0136  0.4271  0.4626
 2730SOL    HW210993   2.028   2.549   4.477 -1.0559  0.2132  0.8556
 2730SOL    HW310994   2.099   2.467   4.372  0.4259  1.3373  0.9698
 2730SOL    MW410995   2.026   2.496   4.408 -0.0930  0.5190  0.5808
 2731SOL     OW10996   0.906   2.611   4.513 -0.0905  0.1153  0.4575
 2731SOL    HW210997   0.991   2.656   4.516  0.0264 -0.1429  0.9380
 2731SOL    HW310998   0.914   2.550   4.440  0.1368  0.0915  0.5034
 2731SOL    MW410999   0.918   2.609   4.504 -0.0451  0.0782  0.5269
 2732SOL     OW11000   1.312   4.016   4.518  0.0852 -0.5558  0.7145
 2732SOL    HW211001   1.315   3.921   4.524  0.5592 -0.5575  0.4452
 2732SOL    HW311002   1.391   4.045   4.563 -0.5856 -0.2451  1.7277
 2732SOL    MW411003   1.323   4.007   4.525  0.0594 -0.5155  0.8130
 2733SOL     OW11004   1.379   2.529   4.499  0.3298  0.2434  0.0477
 2733SOL    HW211005   1.352   2.485   4.419  0.6869  0.7966 -0.3785
 2733SOL    HW311006   1.474   2.541   4.490  0.6214 -0.9881  1.1896
 2733SOL    MW411007   1.388   2.525   4.488  0.4153  0.1543  0.1421
 2734SOL     OW11008   1.751   2.481   4.742  0.6719 -0.1047 -0.0324
 2734SOL    HW211009   1.815   2.410   4.742  0.8334  0.0097  1.7469
 2734SOL    HW311010   1.801   2.558   4.769  0.2601  0.4640 -0.8566
 2734SOL    MW411011   1.766   2.482   4.746  0.6388 -0.0148  0.0935
 2735SOL     OW11012   1.698   3.177   4.658 -0.6526  0.5943  0.1841
 2735SOL    HW211013   1.682   3.250   4.719  0.4873 -0.3449  1.6577
 2735SOL    HW311014   1.774   3.206   4.607 -0.3278  0.5504  0.6286
 2735SOL    MW411015   1.706   3.191   4.660 -0.4593  0.4642  0.4377
 2736SOL     OW11016   1.285   3.744   4.520  0.3337  0.0758  0.2645
 2736SOL    HW211017   1.355   3.682   4.542  0.5407  0.2151 -0.0023
 2736SOL    HW311018   1.252   3.716   4.435  0.0259 -0.0234  0.4170
 2736SOL    MW411019   1.290   3.732   4.512  0.3203  0.0811  0.2494
 2737SOL     OW11020   0.230   3.352   4.564 -0.1355  0.1204 -0.3829
 2737SOL    HW211021   0.209   3.445   4.560  0.9179  0.3142 -1.5046
 2737SOL    HW311022   0.146   3.310   4.586 -0.5492  1.3450  0.4662
 2737SOL    MW411023   0.216   3.359   4.566 -0.0511  0.3076 -0.4187
 2738SOL     OW11024   2.030   3.634   4.587 -0.1162  0.8671 -0.1212
 2738SOL    HW211025   2.041   3.624   4.492  0.4433  0.6979 -0.0400
 2738SOL    HW311026   2.105   3.588   4.624 -0.3034  0.9918  0.4029
 2738SOL    MW411027   2.042   3.627   4.579 -0.0670  0.8614 -0.0415
 2739SOL     OW11028   1.794   3.489   4.591 -0.0151 -0.8908  0.2758
 2739SOL    HW211029   1.809   3.402   4.553 -1.8265  0.0095 -2.6849
 2739SOL    HW311030   1.878   3.534   4.582  0.0092 -1.2184 -1.3068
 2739SOL    MW411031   1.807   3.483   4.584 -0.2509 -0.8152 -0.3238
 2740SOL     OW11032   2.407   3.681   4.473 -0.1165  0.2965  0.1945
 2740SOL    HW211033   2.358   3.763   4.471 -0.7364 -0.0751 -0.1197
 2740SOL    HW311034   2.355   3.624   4.529  0.6135  0.3052  0.8751
 2740SOL    MW411035   2.393   3.684   4.480 -0.1020  0.2489  0.2432
 2741SOL     OW11036   1.089   4.159   4.641 -0.0848  0.0657 -0.4221
 2741SOL    HW211037   1.005   4.116   4.622  0.5293 -1.4852  0.3247
 2741SOL    HW311038   1.155   4.098   4.607  0.7611  1.0353 -0.5257
 2741SOL    MW411039   1.087   4.145   4.634  0.1079 -0.0114 -0.3371
 2742SOL     OW11040   1.769   4.312   4.800  0.0513 -0.0431 -0.0649
 2742SOL    HW211041   1.857   4.274   4.793  0.7018  0.9677  2.2370
 2742SOL    HW311042   1.716   4.242   4.838  0.2872 -0.0204  0.3063
 2742SOL    MW411043   1.774   4.298   4.804  0.1682  0.0935  0.2880
 2743SOL     OW11044   2.259   0.313   4.659 -0.1353  0.0757 -0.1040
 2743SOL    HW211045   2.334   0.362   4.627  0.0542  0.2967  0.6780
 2743SOL    HW311046   2.273   0.305   4.753 -1.5483  0.9391  0.2058
 2743SOL    MW411047   2.271   0.318   4.667 -0.2968  0.2188  0.0401
 2744SOL     OW11048   1.393   0.078   4.567 -0.2905 -0.4638  0.0675
 2744SOL    HW211049   1.312   0.119   4.597 -0.0379 -0.1891  0.3823
 2744SOL    HW311050   1.390  -0.011   4.603  0.2240  0.0067  1.3262
 2744SOL    MW411051   1.382   0.072   4.576 -0.1892 -0.3655  0.2747
 2745SOL     OW11052   1.815   0.349   4.600  0.2119 -0.2938  0.3358
 2745SOL    HW211053   1.772   0.264   4.595  0.1637 -0.3250  1.1912
 2745SOL    HW311054   1.747   0.413   4.581  0.2422 -0.4449 -0.2801
 2745SOL    MW411055   1.801   0.346   4.597  0.2096 -0.3179  0.3676
 2746SOL     OW11056   2.347   0.071   4.537  0.0180  0.1573 -0.4379
 2746SOL    HW211057   2.324   0.089   4.446 -1.5075 -0.6526 -0.2257
 2746SOL    HW311058   2.301   0.139   4.587 -1.4420 -1.0624 -0.0689
 2746SOL    MW411059   2.338   0.083   4.531 -0.3760 -0.1105 -0.3610
 2747SOL     OW11060   2.110   0.734   4.510 -0.6961  0.1199 -0.0626
 2747SOL    HW211061   2.082   0.643   4.511 -1.7807  0.4494 -0.4071
 2747SOL    HW311062   2.032   0.784   4.532  0.2147  0.8950  1.5494
 2747SOL    MW411063   2.096   0.729   4.513 -0.7191  0.2655  0.1040
 2748SOL     OW11064   1.639   0.567   4.512 -0.3410 -0.3343 -0.3876
 2748SOL    HW211065   1.673   0.656   4.507 -0.9729  0.0928  2.2112
 2748SOL    HW311066   1.551   0.576   4.547 -0.5855 -1.9448 -0.5312
 2748SOL    MW411067   1.632   0.580   4.516 -0.4566 -0.4904 -0.0634
 2749SOL     OW11068   1.777   1.333   4.516  0.4264 -0.0994 -0.4593
 2749SOL    HW211069   1.834   1.380   4.577  1.2248  0.2983 -1.5142
 2749SOL    HW311070   1.692   1.377   4.524  0.1992 -0.7991  1.2261
 2749SOL    MW411071   1.773   1.345   4.525  0.5018 -0.1392 -0.3762
 2750SOL     OW11072   1.216   1.940   4.541  0.1543  0.5480 -0.0406
 2750SOL    HW211073   1.240   1.847   4.539 -0.6947  0.3211  0.0141
 2750SOL    HW311074   1.299   1.986   4.556  0.5885 -0.1947 -0.1292
 2750SOL    MW411075   1.230   1.934   4.543  0.0994  0.4201 -0.0448
 2751SOL     OW11076   1.559   1.542   4.531 -0.4763  0.2947 -0.4538
 2751SOL    HW211077   1.540   1.573   4.620 -0.9769 -0.0847 -0.4260
 2751SOL    HW311078   1.627   1.601   4.499  1.1845 -0.7950  0.9310
 2751SOL    MW411079   1.565   1.554   4.539 -0.3232  0.1009 -0.2670
 2752SOL     OW11080   1.485   2.045   4.635 -0.0462 -0.4703  0.3217
 2752SOL    HW211081   1.552   2.028   4.568 -0.9103  1.3437 -1.0301
 2752SOL    HW311082   1.480   2.141   4.640 -1.8106 -0.5976  1.1702
 2752SOL    MW411083   1.493   2.055   4.627 -0.3930 -0.2477  0.2556
 2753SOL     OW11084   1.746   1.721   4.431  0.2160 -0.4515  0.2750
 2753SOL    HW211085   1.833   1.753   4.451  0.1112  0.6507 -0.9554
 2753SOL    HW311086   1.744   1.715   4.336  0.0185 -3.5693  0.4304
 2753SOL    MW411087   1.757   1.725   4.421  0.1762 -0.7174  0.1330
 2754SOL     OW11088   1.969   2.065   4.519 -0.2585 -0.0403  0.8782
 2754SOL    HW211089   1.978   2.150   4.562  0.8301 -0.3986  1.3706
 2754SOL    HW311090   2.013   2.075   4.435 -0.7716  0.0942  0.6202
 2754SOL    MW411091   1.976   2.077   4.514 -0.1825 -0.0699  0.9089
 2755SOL     OW11092   1.689   1.999   4.441 -0.4459 -0.3953 -0.0321
 2755SOL    HW211093   1.707   1.906   4.431  0.0295 -0.3191  0.1251
 2755SOL    HW311094   1.773   2.038   4.463 -0.2142  0.4001 -2.2368
 2755SOL    MW411095   1.702   1.992   4.443 -0.3526 -0.2804 -0.3023
 2756SOL     OW11096   2.142   2.580   4.634  0.2232  0.4438 -0.4003
 2756SOL    HW211097   2.220   2.626   4.605 -0.0003  1.7578  0.9905
 2756SOL    HW311098   2.172   2.491   4.652  0.5340 -0.1786 -3.6799
 2756SOL    MW411099   2.156   2.574   4.633  0.2346  0.5348 -0.6495
 2757SOL     OW11100   2.216   2.376   4.964  0.6565  0.1192  0.2883
 2757SOL    HW211101   2.235   2.365   4.871  1.9782  0.0328  0.5646
 2757SOL    HW311102   2.301   2.365   5.007 -0.1920 -1.3151  1.6238
 2757SOL    MW411103   2.230   2.373   4.957  0.7191 -0.0811  0.5012
 2758SOL     OW11104   1.551   4.114   4.617  0.0460 -0.0261 -0.2997
 2758SOL    HW211105   1.559   4.203   4.581  0.3374  0.1334  0.1557
 2758SOL    HW311106   1.568   4.125   4.711 -1.0547 -0.3871 -0.0519
 2758SOL    MW411107   1.555   4.127   4.625 -0.0607 -0.0525 -0.2065
 2759SOL     OW11108   2.214   3.257   4.494 -0.2235 -0.3343 -0.1144
 2759SOL    HW211109   2.255   3.174   4.517 -2.3079 -1.5196 -0.5491
 2759SOL    HW311110   2.224   3.263   4.400  0.0554 -0.0267 -0.0641
 2759SOL    MW411111   2.221   3.247   4.485 -0.4618 -0.4499 -0.1650
 2760SOL     OW11112   2.271   3.481   4.640 -0.4515  0.1325  0.0260
 2760SOL    HW211113   2.262   3.402   4.586 -0.5332  1.2535 -1.6506
 2760SOL    HW311114   2.355   3.470   4.684 -0.0343 -0.4904 -0.9040
 2760SOL    MW411115   2.281   3.469   4.638 -0.4072  0.1981 -0.3181
 2761SOL     OW11116   2.668   3.737   4.622 -0.1250  0.1795 -0.0244
 2761SOL    HW211117   2.591   3.712   4.570 -0.2473  0.2546  0.1192
 2761SOL    HW311118   2.678   3.830   4.606  1.2535 -0.2465 -1.7715
 2761SOL    MW411119   2.659   3.746   4.613  0.0405  0.1333 -0.2365
 2762SOL     OW11120   1.975   3.899   4.607 -0.3828  0.2567  0.0970
 2762SOL    HW211121   2.002   3.807   4.606  0.8076  0.5972 -0.7848
 2762SOL    HW311122   1.880   3.896   4.597 -0.5085 -0.9204  1.4475
 2762SOL    MW411123   1.966   3.886   4.606 -0.2422  0.1464  0.1583
 2763SOL     OW11124   2.244   3.919   4.528 -0.2743 -0.2114 -0.1463
 2763SOL    HW211125   2.155   3.914   4.560 -0.2855  1.2606  0.0957
 2763SOL    HW311126   2.236   3.959   4.441 -0.0123 -1.7729 -0.9042
 2763SOL    MW411127   2.231   3.923   4.521 -0.2413 -0.2229 -0.2146
 2764SOL     OW11128   1.701   3.884   4.518 -0.0250 -0.2811 -0.0540
 2764SOL    HW211129   1.655   3.956   4.561  1.1266  0.6144 -0.2997
 2764SOL    HW311130   1.712   3.912   4.428 -0.0613 -1.0042 -0.2866
 2764SOL    MW411131   1.696   3.897   4.512  0.1222 -0.2582 -0.1173
 2765SOL     OW11132   2.029   4.212   4.695 -0.5615 -0.1133  0.1328
 2765SOL    HW211133   2.120   4.243   4.702 -0.2660 -0.5831 -1.4889
 2765SOL    HW311134   2.037   4.118   4.679 -1.2987  0.0514 -1.2733
 2765SOL    MW411135   2.042   4.204   4.694 -0.6196 -0.1531 -0.2666
 2766SOL     OW11136   1.753   4.521   4.623  0.1777  0.0537  0.2622
 2766SOL    HW211137   1.834   4.506   4.574  0.0291 -3.1579  0.8843
 2766SOL    HW311138   1.755   4.456   4.693 -2.4653  0.5933  0.8914
 2766SOL    MW411139   1.764   4.510   4.625 -0.1906 -0.2990  0.4272
 2767SOL     OW11140   1.999   4.411   4.500  0.2150 -0.0135  0.1627
 2767SOL    HW211141   1.993   4.342   4.567  1.0865 -1.7474 -1.4973
 2767SOL    HW311142   2.088   4.445   4.508  0.2384 -0.0504  0.0678
 2767SOL    MW411143   2.010   4.406   4.510  0.3331 -0.2470 -0.0687
 2768SOL     OW11144   2.271   4.468   4.538  0.0685 -0.2786 -0.5153
 2768SOL    HW211145   2.315   4.434   4.460 -1.0098 -0.4953 -1.0503
 2768SOL    HW311146   2.300   4.559   4.543  3.2143 -1.3176  1.1118
 2768SOL    MW411147   2.280   4.475   4.528  0.3414 -0.4444 -0.3710
 2769SOL     OW11148   1.101   1.482   4.655  0.1933  0.3844 -0.1642
 2769SOL    HW211149   1.149   1.562   4.631 -1.4531  1.1486 -1.0309
 2769SOL    HW311150   1.095   1.433   4.573  1.7498 -0.9515  0.5004
 2769SOL    MW411151   1.106   1.486   4.641  0.1814  0.3090 -0.1907
 2770SOL     OW11152   2.664   0.067   4.520 -0.4930  0.0041  0.4752
 2770SOL    HW211153   2.572   0.049   4.539 -1.1860  2.7161  0.0030
 2770SOL    HW311154   2.666   0.085   4.426  0.8185 -1.5900  0.1771
 2770SOL    MW411155   2.652   0.067   4.510 -0.4115  0.1516  0.3734
 2771SOL     OW11156   2.544   0.736   4.568 -0.1833 -0.0172  0.0188
 2771SOL    HW211157   2.467   0.776   4.609 -1.0809  0.5997 -2.2008
 2771SOL    HW311158   2.616   0.795   4.590 -0.5069 -0.0590  1.2550
 2771SOL    MW411159   2.543   0.749   4.576 -0.3440  0.0587 -0.1106
 2772SOL     OW11160   3.244   0.985   4.461 -0.1713 -0.0293  0.0031
 2772SOL    HW211161   3.310   1.053   4.477 -0.7375  0.0645  2.0585
 2772SOL    HW311162   3.266   0.915   4.522 -1.1162 -0.6034 -0.3076
 2772SOL    MW411163   3.255   0.985   4.471 -0.3705 -0.0926  0.2337
 2773SOL     OW11164   2.472   1.385   4.527  0.3848 -0.3808  0.3497
 2773SOL    HW211165   2.472   1.467   4.576 -0.0691  0.2914 -0.7694
 2773SOL    HW311166   2.519   1.324   4.584 -1.3595 -0.0049  2.2692
 2773SOL    MW411167   2.478   1.388   4.541  0.0947 -0.2426  0.4554
 2774SOL     OW11168   2.609   1.180   4.692 -0.0838  0.5437  0.2162
 2774SOL    HW211169   2.645   1.101   4.653  1.4726  0.2349  2.2112
 2774SOL    HW311170   2.528   1.151   4.734 -0.0403  0.2139  0.0759
 2774SOL    MW411171   2.603   1.166   4.692  0.1273  0.4594  0.4611
 2775SOL     OW11172   2.460   1.651   4.699 -0.0783  0.0519  0.2937
 2775SOL    HW211173   2.528   1.695   4.647  1.0995 -0.4781  1.3619
 2775SOL    HW311174   2.378   1.689   4.668  0.5044 -0.9973 -2.7008
 2775SOL    MW411175   2.458   1.662   4.688  0.1543 -0.1564  0.0391
 2776SOL     OW11176   2.018   1.790   4.522 -0.2950 -0.1300 -0.3489
 2776SOL    HW211177   2.007   1.885   4.530 -0.5974 -0.1807 -0.1534
 2776SOL    HW311178   1.992   1.756   4.608  0.1590 -0.3601 -0.2985
 2776SOL    MW411179   2.013   1.798   4.534 -0.2747 -0.1670 -0.3161
 2777SOL     OW11180   2.622   2.062   4.534 -0.1081  0.3498  0.2306
 2777SOL    HW211181   2.549   2.116   4.565 -0.4487  0.5333 -0.8382
 2777SOL    HW311182   2.688   2.069   4.602 -1.2992 -0.2581  1.4861
 2777SOL    MW411183   2.621   2.070   4.547 -0.3102  0.2937  0.2546
 2778SOL     OW11184   1.984   2.312   4.617 -0.2049  0.1796  0.3644
 2778SOL    HW211185   2.077   2.310   4.642 -0.1291 -1.0559  0.0034
 2778SOL    HW311186   1.983   2.357   4.532  0.3133 -1.6604 -0.6375
 2778SOL    MW411187   1.996   2.318   4.609 -0.1265 -0.2263  0.1850
 2779SOL     OW11188   2.776   2.400   4.214  0.0030  0.4865  0.0046
 2779SOL    HW211189   2.732   2.388   4.298  1.9614 -1.5218  0.7984
 2779SOL    HW311190   2.706   2.422   4.153 -1.6971  0.1376  1.7797
 2779SOL    MW411191   2.761   2.401   4.217  0.0372  0.1755  0.3433
 2780SOL     OW11192   2.619   2.359   4.452 -0.1111  0.4995 -0.1019
 2780SOL    HW211193   2.674   2.337   4.527  0.8872 -0.3865 -1.0746
 2780SOL    HW311194   2.531   2.330   4.477 -0.0263  1.3632  1.2208
 2780SOL    MW411195   2.614   2.352   4.465  0.0317  0.4969 -0.0558
 2781SOL     OW11196   2.129   2.890   4.495 -0.0428 -0.1413  0.4863
 2781SOL    HW211197   2.050   2.900   4.548  0.4947  0.8442  1.1237
 2781SOL    HW311198   2.189   2.957   4.529  0.6863 -0.1908 -0.6725
 2781SOL    MW411199   2.127   2.900   4.507  0.1240 -0.0174  0.4177
 2782SOL     OW11200   2.101   2.641   5.023  0.0887 -0.0781 -0.4949
 2782SOL    HW211201   2.142   2.560   4.993  0.1080 -0.7811  1.3827
 2782SOL    HW311202   2.158   2.672   5.093 -0.2304  1.2768 -0.8249
 2782SOL    MW411203   2.114   2.634   5.028  0.0494  0.0079 -0.2909
 2783SOL     OW11204   2.566   3.238   4.698  0.3028 -0.5769  0.0129
 2783SOL    HW211205   2.653   3.217   4.665  0.2072  0.9207 -1.2818
 2783SOL    HW311206   2.574   3.328   4.731 -0.7606 -0.3736 -0.2297
 2783SOL    MW411207   2.578   3.247   4.698  0.1497 -0.3529 -0.1898
 2784SOL     OW11208   1.311   4.267   4.811  0.1958  0.3213  0.5548
 2784SOL    HW211209   1.236   4.223   4.771 -0.5775  1.0828  1.1516
 2784SOL    HW311210   1.318   4.350   4.765  1.3573 -0.2189 -0.2432
 2784SOL    MW411211   1.302   4.272   4.800  0.2469  0.3505  0.5283
 2785SOL     OW11212   2.682   4.011   4.550 -0.4620 -0.0949 -0.0976
 2785SOL    HW211213   2.593   4.041   4.570 -1.0301  0.0935 -2.7040
 2785SOL    HW311214   2.685   4.008   4.455  2.0793 -0.9238 -0.0231
 2785SOL    MW411215   2.670   4.014   4.540 -0.2015 -0.1798 -0.4315
 2786SOL     OW11216   2.547   3.518   4.797 -0.1994 -0.0068  0.2205
 2786SOL    HW211217   2.501   3.525   4.881  0.7208  0.8086  0.6742
 2786SOL    HW311218   2.594   3.601   4.788 -0.3768 -0.0422 -1.1623
 2786SOL    MW411219   2.547   3.530   4.807 -0.1016  0.0961  0.0978
 2787SOL     OW11220   3.306   4.321   4.838 -0.8594 -0.1545 -0.2897
 2787SOL    HW211221   3.304   4.417   4.840  0.6844 -0.1291  0.3845
 2787SOL    HW311222   3.384   4.300   4.787 -0.7084 -1.0553  0.3142
 2787SOL    MW411223   3.316   4.331   4.831 -0.6359 -0.2704 -0.1211
 2788SOL     OW11224   3.069   3.890   4.522  0.0590  0.3377 -0.3133
 2788SOL    HW211225   3.020   3.807   4.522 -0.0788  0.4206 -0.6865
 2788SOL    HW311226   3.143   3.873   4.581 -0.2096  0.0911 -0.0415
 2788SOL    MW411227   3.072   3.877   4.530  0.0055  0.3161 -0.3271
 2789SOL     OW11228   2.424   4.119   4.572  0.3245  0.0470  0.5216
 2789SOL    HW211229   2.387   4.180   4.635  0.6667  0.2633  0.5128
 2789SOL    HW311230   2.361   4.048   4.568  0.5235 -0.1929  1.4516
 2789SOL    MW411231   2.411   4.118   4.580  0.3958  0.0439  0.6428
 2790SOL     OW11232   2.294   4.287   4.754 -0.2107 -0.0274  0.0494
 2790SOL    HW211233   2.310   4.361   4.696 -0.3313  2.0259  2.5447
 2790SOL    HW311234   2.367   4.287   4.815  0.3276 -2.6478 -0.4943
 2790SOL    MW411235   2.305   4.296   4.754 -0.1554 -0.1025  0.3066
 2791SOL     OW11236   2.948   0.420   4.521  0.3417  0.6887  0.5392
 2791SOL    HW211237   2.918   0.435   4.431 -1.6252  0.4330  1.1089
 2791SOL    HW311238   3.023   0.479   4.533 -0.3747  1.8865 -0.7679
 2791SOL    MW411239   2.954   0.430   4.511 -0.0119  0.8130  0.4420
 2792SOL     OW11240   2.915   4.598   4.605 -0.3123  0.3396 -0.0270
 2792SOL    HW211241   2.966   4.672   4.570 -1.0379  1.6997  1.6974
 2792SOL    HW311242   2.824   4.623   4.589 -0.5777  0.0168  0.9651
 2792SOL    MW411243   2.910   4.611   4.598 -0.4432  0.4759  0.3314
 2793SOL     OW11244   3.070   0.165   4.516 -0.6073 -0.1291  0.4553
 2793SOL    HW211245   3.024   0.248   4.526 -0.6308 -0.2564  1.4921
 2793SOL    HW311246   3.152   0.177   4.564 -0.4068 -0.5444  0.2159
 2793SOL    MW411247   3.075   0.177   4.524 -0.5841 -0.2007  0.5608
 2794SOL     OW11248   2.735   0.980   4.563  0.0413 -0.5689 -0.0344
 2794SOL    HW211249   2.830   0.987   4.554 -0.0658  0.1094 -0.6625
 2794SOL    HW311250   2.703   0.967   4.474 -0.5464  0.2862  0.0467
 2794SOL    MW411251   2.743   0.979   4.550 -0.0505 -0.3665 -0.1068
 2795SOL     OW11252   3.151   0.983   4.839  0.2491 -0.6771 -0.3091
 2795SOL    HW211253   3.099   1.062   4.825  1.2708  0.2482  0.9794
 2795SOL    HW311254   3.097   0.928   4.895  0.2404 -0.1420  0.2166
 2795SOL    MW411255   3.137   0.986   4.844  0.3827 -0.4844 -0.0701
 2796SOL     OW11256   2.337   1.094   4.775  0.0106 -0.0778  0.1643
 2796SOL    HW211257   2.298   1.143   4.703  0.2186 -0.0135  0.0942
 2796SOL    HW311258   2.332   1.002   4.748  0.2060 -0.0425  0.0134
 2796SOL    MW411259   2.331   1.088   4.762  0.0637 -0.0647  0.1349
 2797SOL     OW11260   2.994   1.085   4.542 -0.0075  0.4017  0.1850
 2797SOL    HW211261   3.078   1.063   4.502 -0.1612 -0.1444  0.1429
 2797SOL    HW311262   2.953   1.146   4.481  0.4445  0.8219  0.3059
 2797SOL    MW411263   3.000   1.090   4.529  0.0319  0.3850  0.1955
 2798SOL     OW11264   3.041   1.245   4.760 -0.1341 -0.5334  0.1630
 2798SOL    HW211265   2.962   1.292   4.786  0.0737 -0.8851  1.4288
 2798SOL    HW311266   3.011   1.187   4.689 -0.9578 -0.5080  0.4780
 2798SOL    MW411267   3.026   1.243   4.754 -0.2155 -0.5765  0.3724
 2799SOL     OW11268   2.855   1.618   4.630 -0.0533 -0.2351 -0.3372
 2799SOL    HW211269   2.783   1.664   4.586 -0.3481  0.8490  1.2549
 2799SOL    HW311270   2.818   1.532   4.651 -1.1935  0.6050  1.2163
 2799SOL    MW411271   2.841   1.613   4.627 -0.2425  0.0188  0.0777
 2800SOL     OW11272   2.646   1.761   4.513 -0.1538 -0.0871 -0.0293
 2800SOL    HW211273   2.639   1.735   4.421  0.6961 -0.4261 -0.0035
 2800SOL    HW311274   2.653   1.856   4.511 -3.8032  0.2280 -0.0936
 2800SOL    MW411275   2.646   1.770   4.501 -0.5233 -0.0902 -0.0343
 2801SOL     OW11276   3.070   2.010   4.577 -0.1465  0.1023  0.4279
 2801SOL    HW211277   2.992   1.984   4.626 -0.8383  2.4029  0.6128
 2801SOL    HW311278   3.036   2.042   4.494  0.5770  1.3537  0.6102
 2801SOL    MW411279   3.055   2.011   4.572 -0.1426  0.5710  0.4759
 2802SOL     OW11280   2.574   2.083   4.263  0.3366  0.4241  0.1739
 2802SOL    HW211281   2.606   2.094   4.353  1.5169 -0.8967 -0.0767
 2802SOL    HW311282   2.639   2.027   4.221  0.8830  2.6547 -2.1002
 2802SOL    MW411283   2.587   2.077   4.269  0.5643  0.5441 -0.1588
 2803SOL     OW11284   3.523   1.998   4.533 -0.1423 -0.1163  0.6447
 2803SOL    HW211285   3.518   2.030   4.443 -2.4534  0.4646  0.9367
 2803SOL    HW311286   3.454   2.046   4.579  0.0984 -1.4117  2.4034
 2803SOL    MW411287   3.513   2.008   4.527 -0.4156 -0.2105  0.9155
 2804SOL     OW11288   2.329   2.025   4.368 -0.1073 -0.1554 -0.0919
 2804SOL    HW211289   2.311   2.102   4.421 -0.5972 -1.1266  1.1881
 2804SOL    HW311290   2.418   2.038   4.337 -0.5877  1.4622 -0.8441
 2804SOL    MW411291   2.338   2.037   4.371 -0.2353 -0.0701 -0.0229
 2805SOL     OW11292   2.816   3.160   4.566  0.0695  0.2368 -0.3193
 2805SOL    HW211293   2.794   3.179   4.475  0.2981 -1.4278 -0.7371
 2805SOL    HW311294   2.889   3.099   4.561 -0.2679 -0.2925  0.9669
 2805SOL    MW411295   2.823   3.154   4.553  0.0553 -0.0527 -0.2050
 2806SOL     OW11296   2.384   3.044   4.566  0.0332 -0.2195 -0.6004
 2806SOL    HW211297   2.432   2.962   4.565  1.5206  0.6203 -0.3173
 2806SOL    HW311298   2.447   3.108   4.602 -1.2459  0.9260 -0.3588
 2806SOL    MW411299   2.399   3.042   4.571  0.0608  0.0427 -0.5312
 2807SOL     OW11300   2.996   2.950   4.487 -0.5071  0.0792 -0.3414
 2807SOL    HW211301   2.980   2.857   4.498 -0.8082  0.2590  0.8810
 2807SOL    HW311302   3.083   2.964   4.525 -1.1337  0.5565  0.9378
 2807SOL    MW411303   3.006   2.940   4.494 -0.6297  0.1659 -0.0119
 2808SOL     OW11304   1.930   2.677   4.801  0.1046 -0.1182  0.4404
 2808SOL    HW211305   1.969   2.699   4.885 -0.3287  0.3666  0.5125
 2808SOL    HW311306   1.998   2.629   4.755  0.6986  0.5128  0.6641
 2808SOL    MW411307   1.944   2.673   4.806  0.1258  0.0291  0.4792
 2809SOL     OW11308   2.909   3.668   4.509  0.4482 -0.3195 -0.2143
 2809SOL    HW211309   2.825   3.693   4.548  0.3452  1.3871 -1.4861
 2809SOL    HW311310   2.926   3.581   4.544 -1.3466 -0.2615  0.8829
 2809SOL    MW411311   2.900   3.660   4.519  0.1976 -0.0868 -0.2370
 2810SOL     OW11312   3.258   3.891   4.737  0.0555 -0.0082  0.0478
 2810SOL    HW211313   3.318   3.830   4.781  2.1655  2.2340  0.4323
 2810SOL    HW311314   3.226   3.947   4.807  1.6201  2.1046 -0.8572
 2810SOL    MW411315   3.262   3.891   4.752  0.5403  0.5662 -0.0205
 2811SOL     OW11316   4.033   3.955   4.521  0.0478 -0.2495  0.1117
 2811SOL    HW211317   4.115   3.920   4.555 -0.5963 -1.0155  0.8981
 2811SOL    HW311318   3.969   3.887   4.538 -1.4826  1.7651  2.7592
 2811SOL    MW411319   4.035   3.942   4.528 -0.2394 -0.0849  0.5646
 2812SOL     OW11320   2.972   3.404   4.585 -0.2220 -0.3792  0.3214
 2812SOL    HW211321   2.918   3.325   4.590 -1.0405  0.2527  1.7215
 2812SOL    HW311322   3.061   3.372   4.576 -0.6091 -1.4652  0.3200
 2812SOL    MW411323   2.976   3.389   4.584 -0.3810 -0.4392  0.5059
 2813SOL     OW11324   2.945   4.112   4.648 -0.7447  0.1357 -0.5836
 2813SOL    HW211325   2.853   4.093   4.629 -0.9047  0.0160  0.2858
 2813SOL    HW311326   2.990   4.029   4.634 -0.7352  0.2522 -1.2348
 2813SOL    MW411327   2.939   4.099   4.644 -0.7646  0.1349 -0.5550
 2814SOL     OW11328   3.016   4.349   4.529  0.2225  0.5304 -0.1173
 2814SOL    HW211329   2.986   4.271   4.575  0.8940  0.4491  0.1899
 2814SOL    HW311330   2.970   4.421   4.571  0.5806  0.4226  0.4596
 2814SOL    MW411331   3.006   4.348   4.540  0.3583  0.5059 -0.0010
 2815SOL     OW11332   3.180   0.601   4.541 -0.1927  0.4004 -0.0852
 2815SOL    HW211333   3.226   0.590   4.458 -0.4152 -0.2444 -0.1306
 2815SOL    HW311334   3.207   0.687   4.573  0.7687  0.1750 -0.2791
 2815SOL    MW411335   3.189   0.610   4.534 -0.0951  0.2856 -0.1163
 2816SOL     OW11336   2.468   0.463   4.543 -0.1954  0.1153 -0.5472
 2816SOL    HW211337   2.536   0.397   4.560 -1.1423 -0.4285  1.2741
 2816SOL    HW311338   2.511   0.546   4.563  0.0910 -0.1872  0.1269
 2816SOL    MW411339   2.483   0.465   4.548 -0.2828  0.0037 -0.2179
 2817SOL     OW11340   2.779   1.380   4.787  0.4794 -0.1111  0.4051
 2817SOL    HW211341   2.737   1.428   4.858  0.4292 -2.3696  1.9457
 2817SOL    HW311342   2.713   1.317   4.758  0.4302  0.9055 -1.8028
 2817SOL    MW411343   2.765   1.378   4.792  0.4661 -0.2748  0.3171
 2818SOL     OW11344   2.703   0.327   4.638 -0.1926  0.1867 -0.3578
 2818SOL    HW211345   2.723   0.237   4.612  0.8247  0.8513 -1.9732
 2818SOL    HW311346   2.787   0.372   4.635 -0.5343  0.9905  1.3739
 2818SOL    MW411347   2.716   0.321   4.634 -0.1037  0.3804 -0.3428
 2819SOL     OW11348   3.317   0.801   4.660  0.6458  0.1424  0.0284
 2819SOL    HW211349   3.302   0.848   4.742 -0.0415 -0.0217  0.0051
 2819SOL    HW311350   3.411   0.809   4.644  0.9585 -0.7201  1.3734
 2819SOL    MW411351   3.327   0.809   4.668  0.5963  0.0070  0.2027
 2820SOL     OW11352   3.415   1.151   4.853 -0.2475  0.2404 -0.1226
 2820SOL    HW211353   3.348   1.087   4.878 -0.1409  0.1085 -0.1804
 2820SOL    HW311354   3.371   1.236   4.864 -0.0526  0.2091  1.0030
 2820SOL    MW411355   3.400   1.154   4.858 -0.2077  0.2190  0.0186
 2821SOL     OW11356   2.619   1.525   4.939  0.4261  0.0147  0.1388
 2821SOL    HW211357   2.547   1.571   4.896  0.1960 -0.2086  0.2863
 2821SOL    HW311358   2.653   1.588   5.003 -1.3147 -0.7782  1.9167
 2821SOL    MW411359   2.614   1.539   4.942  0.1662 -0.1192  0.3924
 2822SOL     OW11360   4.019   0.986   4.559  0.0855  0.0624  0.1725
 2822SOL    HW211361   4.046   0.964   4.470  1.2318  0.4353  0.4191
 2822SOL    HW311362   3.966   1.065   4.549  1.5244  1.0108 -0.0165
 2822SOL    MW411363   4.016   0.994   4.546  0.4268  0.2367  0.1802
 2823SOL     OW11364   3.330   1.534   4.605  0.6312 -0.2553 -0.1630
 2823SOL    HW211365   3.253   1.588   4.587 -0.5927 -2.0460 -0.4179
 2823SOL    HW311366   3.317   1.502   4.694  0.3368 -1.7163 -0.7062
 2823SOL    MW411367   3.318   1.537   4.614  0.4308 -0.6844 -0.2680
 2824SOL     OW11368   3.120   1.703   4.537  0.7474  0.3397 -0.1939
 2824SOL    HW211369   3.115   1.798   4.522 -0.0092  0.1041 -1.4812
 2824SOL    HW311370   3.031   1.677   4.557  0.8374 -0.2094 -0.5037
 2824SOL    MW411371   3.108   1.712   4.538  0.6595  0.2362 -0.4048
 2825SOL     OW11372   3.314   2.154   4.630  0.0199  0.0294  0.1308
 2825SOL    HW211373   3.244   2.090   4.616 -0.0869  0.0126  0.7425
 2825SOL    HW311374   3.280   2.235   4.591  0.7198 -0.6164 -1.8694
 2825SOL    MW411375   3.300   2.156   4.623  0.0982 -0.0577 -0.0525
 2826SOL     OW11376   3.432   2.229   4.871 -0.0554  0.1378 -0.0890
 2826SOL    HW211377   3.379   2.209   4.794  0.5642  0.6520 -0.6553
 2826SOL    HW311378   3.370   2.265   4.935 -0.5645 -0.2652 -0.3559
 2826SOL    MW411379   3.417   2.231   4.869 -0.0408  0.1526 -0.1988
 2827SOL     OW11380   2.633   2.636   4.390 -0.4527  0.1861  0.2393
 2827SOL    HW211381   2.608   2.549   4.419 -0.5138  0.4919  1.1301
 2827SOL    HW311382   2.726   2.642   4.409 -0.6275  0.6222  0.9936
 2827SOL    MW411383   2.642   2.626   4.397 -0.4835  0.2844  0.4559
 2828SOL     OW11384   3.515   2.482   4.524 -0.2576  0.0465  0.2946
 2828SOL    HW211385   3.423   2.468   4.550 -0.4174 -0.9202 -0.7202
 2828SOL    HW311386   3.530   2.575   4.537 -1.7518  0.4319 -0.6521
 2828SOL    MW411387   3.504   2.492   4.529 -0.4756 -0.0303  0.0358
 2829SOL     OW11388   3.241   2.408   4.552  0.4041  0.3414 -0.5457
 2829SOL    HW211389   3.226   2.418   4.458  1.6475  0.6401 -0.7206
 2829SOL    HW311390   3.192   2.479   4.592 -0.7698 -0.2517 -0.9100
 2829SOL    MW411391   3.232   2.419   4.545  0.4137  0.3023 -0.6170
 2830SOL     OW11392   3.614   2.728   4.568 -0.2412 -0.1953 -0.5948
 2830SOL    HW211393   3.652   2.806   4.527  0.3594 -0.0151  0.2774
 2830SOL    HW311394   3.523   2.753   4.586  0.6990  1.4049  2.3484
 2830SOL    MW411395   3.607   2.742   4.565 -0.0379  0.0391 -0.0911
 2831SOL     OW11396   3.236   3.302   4.552 -0.6257 -0.2263  0.2097
 2831SOL    HW211397   3.252   3.222   4.601  0.4852 -0.0718  0.1102
 2831SOL    HW311398   3.213   3.273   4.464 -0.7608 -0.4474  0.3191
 2831SOL    MW411399   3.235   3.288   4.547 -0.4969 -0.2351  0.2112
 2832SOL     OW11400   3.337   2.785   4.574  0.2647 -0.2674 -0.4651
 2832SOL    HW211401   3.258   2.737   4.598 -0.2926  0.5692 -0.5853
 2832SOL    HW311402   3.327   2.803   4.481 -0.5428  1.8583 -0.0215
 2832SOL    MW411403   3.325   2.781   4.565  0.0849  0.1233 -0.4225
 2833SOL     OW11404   3.802   2.586   4.727 -0.0396 -0.3709 -0.1503
 2833SOL    HW211405   3.747   2.510   4.747 -0.5624 -0.0583 -0.3747
 2833SOL    HW311406   3.743   2.646   4.680  0.3226  0.2339  0.1568
 2833SOL    MW411407   3.787   2.584   4.724 -0.0613 -0.2499 -0.1397
 2834SOL     OW11408   3.625   3.213   4.478  0.1629 -0.0563  0.0400
 2834SOL    HW211409   3.708   3.250   4.509  0.2330 -0.3610  0.2210
 2834SOL    HW311410   3.629   3.220   4.383 -0.1002  0.9902  0.0953
 2834SOL    MW411411   3.636   3.219   4.469  0.1376  0.0415  0.0710
 2835SOL     OW11412   3.473   3.958   4.564  0.1345 -0.3575 -0.2060
 2835SOL    HW211413   3.534   3.885   4.577  0.6994  0.3178  0.9924
 2835SOL    HW311414   3.403   3.943   4.628 -0.0635 -0.1799 -0.3784
 2835SOL    MW411415   3.472   3.946   4.574  0.1829 -0.2451 -0.0710
 2836SOL     OW11416   3.248   4.579   4.725  0.0980 -0.3777  0.4496
 2836SOL    HW211417   3.266   4.530   4.644  2.0362  0.5111  0.3102
 2836SOL    HW311418   3.160   4.551   4.751 -0.6950 -0.4478 -2.1396
 2836SOL    MW411419   3.239   4.569   4.718  0.2491 -0.2699  0.0901
 2837SOL     OW11420   3.289   4.420   4.512 -0.0277 -0.4579 -0.0091
 2837SOL    HW211421   3.343   4.343   4.528 -0.3510 -0.5149  0.8103
 2837SOL    HW311422   3.199   4.387   4.511 -0.0817 -0.2825 -0.8736
 2837SOL    MW411423   3.284   4.406   4.514 -0.0775 -0.4425 -0.0153
 2838SOL     OW11424   3.473   4.243   4.608 -0.2454  0.3305 -0.0103
 2838SOL    HW211425   3.478   4.151   4.583 -0.3296  0.3432 -0.0776
 2838SOL    HW311426   3.562   4.275   4.598  0.0574 -0.0754  1.2894
 2838SOL    MW411427   3.485   4.235   4.604 -0.2165  0.2780  0.1521
 2839SOL     OW11428   3.148   4.096   4.909  0.1932 -0.1642  0.2259
 2839SOL    HW211429   3.207   4.171   4.914  0.7214 -0.5050 -0.7573
 2839SOL    HW311430   3.082   4.122   4.844 -0.0166 -0.2852  0.3884
 2839SOL    MW411431   3.147   4.110   4.901  0.2351 -0.2251  0.1173
 2840SOL     OW11432   3.414   0.439   4.611  0.0558  0.4162  0.6857
 2840SOL    HW211433   3.339   0.499   4.607 -0.5548 -0.3708  0.3103
 2840SOL    HW311434   3.377   0.355   4.635  0.9201  0.1802  1.2405
 2840SOL    MW411435   3.400   0.436   4.614  0.0892  0.2812  0.7095
 2841SOL     OW11436   3.252   1.408   4.847 -0.0206 -0.5630 -0.0360
 2841SOL    HW211437   3.213   1.438   4.929 -0.7981  0.4121 -0.7551
 2841SOL    HW311438   3.182   1.359   4.804  0.3297 -0.9151 -0.2158
 2841SOL    MW411439   3.238   1.405   4.852 -0.0772 -0.4809 -0.1540
 2842SOL     OW11440   3.393   1.244   4.493  0.0981 -0.0880 -0.3186
 2842SOL    HW211441   3.486   1.230   4.511  0.1331  0.5865  0.0464
 2842SOL    HW311442   3.373   1.328   4.534 -0.7847 -0.4443 -0.0111
 2842SOL    MW411443   3.402   1.253   4.501 -0.0138 -0.0460 -0.2298
 2843SOL     OW11444   3.873   1.204   4.537  0.2302  0.1291 -0.6561
 2843SOL    HW211445   3.908   1.278   4.587  1.8962 -0.3858 -1.0486
 2843SOL    HW311446   3.834   1.245   4.460 -0.5456  0.7459  0.0409
 2843SOL    MW411447   3.872   1.220   4.534  0.3476  0.1425 -0.6161
 2844SOL     OW11448   3.613   1.126   4.622  0.4736  0.3118 -0.0551
 2844SOL    HW211449   3.704   1.153   4.614  0.5757  0.1817  0.6405
 2844SOL    HW311450   3.590   1.145   4.713 -0.5643  1.4915 -0.5493
 2844SOL    MW411451   3.622   1.132   4.633  0.3500  0.4504 -0.0286
 2845SOL     OW11452   4.299   1.087   4.691 -0.0800 -0.1741  0.3347
 2845SOL    HW211453   4.366   1.020   4.683 -0.5295 -0.5702 -0.1514
 2845SOL    HW311454   4.221   1.047   4.653 -0.8885 -0.1390  1.9235
 2845SOL    MW411455   4.298   1.073   4.685 -0.2456 -0.2217  0.4802
 2846SOL     OW11456   4.422   0.630   4.586 -0.2839  0.3404 -0.1079
 2846SOL    HW211457   4.495   0.567   4.582 -1.0048 -0.4209 -1.3488
 2846SOL    HW311458   4.345   0.579   4.562 -1.1521  1.2816  0.6644
 2846SOL    MW411459   4.422   0.615   4.582 -0.4940  0.3641 -0.1693
 2847SOL     OW11460   3.554   1.702   4.518  0.1757  0.0643  0.1449
 2847SOL    HW211461   3.525   1.788   4.547 -0.2109 -0.0940  0.2354
 2847SOL    HW311462   3.486   1.642   4.550 -0.8495 -0.0037 -2.0007
 2847SOL    MW411463   3.541   1.705   4.526 -0.0107  0.0343 -0.1264
 2848SOL     OW11464   3.830   1.708   4.588  0.3381  0.5043 -0.1915
 2848SOL    HW211465   3.738   1.680   4.584  0.8320 -1.0857 -0.7623
 2848SOL    HW311466   3.831   1.791   4.541 -0.4707 -0.4098 -1.8779
 2848SOL    MW411467   3.818   1.715   4.582  0.2966  0.1740 -0.4892
 2849SOL     OW11468   4.154   1.559   4.542 -0.0173  0.0622 -0.6908
 2849SOL    HW211469   4.210   1.482   4.544 -0.1942 -0.0796 -0.9836
 2849SOL    HW311470   4.073   1.531   4.584  0.1842  0.3083 -0.1444
 2849SOL    MW411471   4.150   1.545   4.548 -0.0143  0.0759 -0.6576
 2850SOL     OW11472   4.122   2.073   4.691  0.2872 -0.1000  0.3048
 2850SOL    HW211473   4.051   2.136   4.683  0.0842 -0.3628  0.0187
 2850SOL    HW311474   4.087   2.004   4.748 -0.4020 -1.2148 -1.4128
 2850SOL    MW411475   4.108   2.072   4.698  0.1688 -0.2816  0.0405
 2851SOL     OW11476   0.391   1.618   4.617  0.3597  0.3424  0.0710
 2851SOL    HW211477   0.429   1.699   4.583 -0.3894 -0.2233 -2.1881
 2851SOL    HW311478   0.464   1.572   4.657  0.9583  1.7174  0.5938
 2851SOL    MW411479   0.405   1.623   4.618  0.3399  0.4492 -0.1578
 2852SOL     OW11480   3.894   2.225   4.660  0.6131  0.2353 -0.3500
 2852SOL    HW211481   3.812   2.266   4.689 -0.0391 -0.8293 -0.6401
 2852SOL    HW311482   3.865   2.148   4.611  1.8009 -1.1165  1.0077
 2852SOL    MW411483   3.879   2.220   4.658  0.6840 -0.0834 -0.2089
 2853SOL     OW11484   3.999   2.468   4.571 -0.2756 -0.1642 -0.8556
 2853SOL    HW211485   3.937   2.515   4.627  1.1242 -0.1324  0.6900
 2853SOL    HW311486   3.986   2.376   4.594  0.1507 -0.1697 -0.6452
 2853SOL    MW411487   3.989   2.462   4.582 -0.0346 -0.1609 -0.6237
 2854SOL     OW11488   3.736   2.953   4.460  0.0343  0.3500 -0.3136
 2854SOL    HW211489   3.799   2.945   4.532  1.4202 -1.2597 -1.6631
 2854SOL    HW311490   3.695   3.038   4.474  1.4622  0.7936  1.4233
 2854SOL    MW411491   3.739   2.963   4.472  0.4053  0.1960 -0.2627
 2855SOL     OW11492   3.941   2.864   4.661  0.7344 -0.0149 -0.0648
 2855SOL    HW211493   3.891   2.795   4.705 -1.5109  1.6638  0.0960
 2855SOL    HW311494   4.032   2.833   4.664 -0.2393 -3.0144 -0.1496
 2855SOL    MW411495   3.946   2.850   4.667  0.3095 -0.1893 -0.0553
 2856SOL     OW11496   3.455   3.481   4.512 -0.1154 -0.6183 -0.5122
 2856SOL    HW211497   3.383   3.438   4.559  1.0751 -0.3631  1.6007
 2856SOL    HW311498   3.518   3.411   4.497  0.1915 -0.3680 -0.3738
 2856SOL    MW411499   3.454   3.466   4.516  0.0823 -0.5517 -0.2160
 2857SOL     OW11500   3.883   3.285   4.598 -0.0160  0.1708  0.4198
 2857SOL    HW211501   3.899   3.255   4.688 -1.5357 -0.4422  0.5015
 2857SOL    HW311502   3.928   3.221   4.543  0.4035  0.2052  0.7174
 2857SOL    MW411503   3.891   3.273   4.603 -0.1612  0.0942  0.4702
 2858SOL     OW11504   3.608   3.724   4.608  0.0364 -0.1551 -0.0667
 2858SOL    HW211505   3.567   3.651   4.561 -0.9466  0.7228 -0.6024
 2858SOL    HW311506   3.695   3.732   4.569  0.2443 -1.2062  0.1747
 2858SOL    MW411507   3.614   3.715   4.596 -0.0658 -0.1779 -0.1059
 2859SOL     OW11508   3.859   3.737   4.492 -0.3181  0.1216  0.4953
 2859SOL    HW211509   3.838   3.703   4.405 -1.4870  2.1901 -0.0744
 2859SOL    HW311510   3.897   3.663   4.538 -1.0065 -1.4082 -1.3109
 2859SOL    MW411511   3.861   3.723   4.487 -0.5631  0.1926  0.1817
 2860SOL     OW11512   4.459   2.906   4.638  0.3136  0.6513 -0.0896
 2860SOL    HW211513   4.455   2.840   4.707 -1.5873  0.6262 -0.2092
 2860SOL    HW311514   4.548   2.899   4.603  0.0858 -1.9906 -0.2450
 2860SOL    MW411515   4.470   2.897   4.642  0.0329  0.2992 -0.1259
 2861SOL     OW11516   4.009   4.231   4.514 -0.1664 -0.2185 -0.3283
 2861SOL    HW211517   3.916   4.251   4.524 -0.3131 -0.2479 -1.4929
 2861SOL    HW311518   4.014   4.136   4.522 -0.4410 -0.3537 -1.6278
 2861SOL    MW411519   3.997   4.221   4.516 -0.2220 -0.2403 -0.6537
 2862SOL     OW11520   3.776   4.604   4.551 -0.2081 -0.4506  0.1090
 2862SOL    HW211521   3.750   4.593   4.460  1.4646  0.3784 -0.4832
 2862SOL    HW311522   3.730   4.683   4.580  1.4989  0.9216 -0.8820
 2862SOL    MW411523   3.766   4.613   4.543  0.2377 -0.1607 -0.0997
 2863SOL     OW11524   3.336   0.177   4.630 -0.4462 -0.3416  0.1085
 2863SOL    HW211525   3.312   0.091   4.664 -2.2014 -0.0047 -0.2387
 2863SOL    HW311526   3.432   0.174   4.623 -0.5138 -2.4386 -0.3434
 2863SOL    MW411527   3.346   0.165   4.634 -0.6869 -0.5739  0.0029
 2864SOL     OW11528   3.570   0.849   4.558 -0.6247 -0.2486 -0.3485
 2864SOL    HW211529   3.589   0.941   4.577 -0.2368 -0.3577 -0.2005
 2864SOL    HW311530   3.576   0.842   4.463  1.9708 -0.6772 -0.2064
 2864SOL    MW411531   3.574   0.860   4.548 -0.2313 -0.3195 -0.3099
 2865SOL     OW11532   3.833   0.743   4.541 -0.6441 -0.1672 -0.0010
 2865SOL    HW211533   3.879   0.826   4.554 -0.6990 -0.0471 -0.5889
 2865SOL    HW311534   3.741   0.764   4.555 -0.7433  0.0430 -0.9675
 2865SOL    MW411535   3.827   0.757   4.545 -0.6645 -0.1236 -0.2065
 2866SOL     OW11536   0.180   0.479   4.539 -0.4101  0.0749 -0.0880
 2866SOL    HW211537   0.225   0.561   4.558  1.0946 -0.6536 -0.3794
 2866SOL    HW311538   0.166   0.481   4.444  0.7120 -0.5050 -0.2858
 2866SOL    MW411539   0.184   0.490   4.529 -0.0636 -0.0977 -0.1521
 2867SOL     OW11540   0.286   0.733   4.586  0.2009  0.0483 -0.0690
 2867SOL    HW211541   0.363   0.790   4.589  1.6667 -1.9144  0.4180
 2867SOL    HW311542   0.212   0.793   4.597  1.7820  1.6889  2.1250
 2867SOL    MW411543   0.287   0.749   4.588  0.6029  0.0058  0.2847
 2868SOL     OW11544   4.202   0.446   4.509  0.1515  0.4578  0.4815
 2868SOL    HW211545   4.111   0.454   4.536 -0.0936 -0.6001 -0.0210
 2868SOL    HW311546   4.200   0.458   4.414  0.2483 -1.7139  0.1801
 2868SOL    MW411547   4.190   0.449   4.500  0.1316  0.0317  0.3753
 2869SOL     OW11548   3.940   1.456   4.667 -0.3182 -0.0867  0.1798
 2869SOL    HW211549   3.900   1.537   4.635 -2.0999 -0.6974  0.8205
 2869SOL    HW311550   3.981   1.482   4.750 -0.7400  0.1952  0.3023
 2869SOL    MW411551   3.940   1.470   4.674 -0.6089 -0.1299  0.2799
 2870SOL     OW11552   0.112   1.536   4.611 -0.0028  0.2913  0.0538
 2870SOL    HW211553   0.188   1.586   4.641 -0.6068  1.5511 -0.5281
 2870SOL    HW311554   0.040   1.598   4.610 -1.4821 -1.3215  2.3274
 2870SOL    MW411555   0.113   1.551   4.615 -0.2777  0.2447  0.2770
 2871SOL     OW11556   0.240   1.042   4.589  0.1685 -0.0851 -0.1913
 2871SOL    HW211557   0.238   1.136   4.570  1.5725 -0.2430 -1.2309
 2871SOL    HW311558   0.151   1.021   4.614 -0.5511  1.2021 -1.5869
 2871SOL    MW411559   0.228   1.052   4.590  0.2588  0.0639 -0.5126
 2872SOL     OW11560   4.390   1.711   4.545 -0.1772  0.0760 -0.0641
 2872SOL    HW211561   4.378   1.799   4.582 -1.1686  0.2900 -0.8561
 2872SOL    HW311562   4.303   1.671   4.550 -0.0443 -0.3507 -0.9857
 2872SOL    MW411563   4.377   1.717   4.550 -0.2904  0.0480 -0.2904
 2873SOL     OW11564   3.215   3.012   4.652 -0.1987 -0.0701 -0.2648
 2873SOL    HW211565   3.282   2.946   4.636 -0.2038 -0.3569  0.8628
 2873SOL    HW311566   3.153   2.970   4.712 -1.4308  0.1625 -1.3475
 2873SOL    MW411567   3.215   2.998   4.658 -0.3617 -0.0772 -0.2589
 2874SOL     OW11568   4.330   1.999   4.545  0.0997  0.2936 -0.0207
 2874SOL    HW211569   4.263   2.042   4.597 -0.7163  1.6288 -2.1150
 2874SOL    HW311570   4.407   2.056   4.554  0.9198 -1.0853  2.1439
 2874SOL    MW411571   4.332   2.012   4.553  0.1001  0.2878 -0.0114
 2875SOL     OW11572   4.261   2.054   4.277  0.0982 -0.3985  0.4680
 2875SOL    HW211573   4.336   2.009   4.237 -2.5833 -3.9519 -0.8163
 2875SOL    HW311574   4.278   2.049   4.371  2.6892  1.1366  0.1234
 2875SOL    MW411575   4.273   2.047   4.284  0.0863 -0.6649  0.2527
 2876SOL     OW11576   3.848   2.042   4.271 -0.2183  0.5095  0.4218
 2876SOL    HW211577   3.782   1.994   4.221  0.4038 -0.3534  0.4192
 2876SOL    HW311578   3.928   1.991   4.261  0.6948  2.0853 -0.3834
 2876SOL    MW411579   3.850   2.029   4.263 -0.0160  0.6037  0.3152
 2877SOL     OW11580   3.650   2.335   4.732  0.2091  0.4474  0.2381
 2877SOL    HW211581   3.600   2.362   4.655  0.9047  0.3206 -0.2587
 2877SOL    HW311582   3.587   2.288   4.786 -0.0636 -0.2745 -0.6881
 2877SOL    MW411583   3.635   2.332   4.729  0.2649  0.3355  0.0505
 2878SOL     OW11584   0.017   2.447   4.503  0.1868  0.0145 -0.5878
 2878SOL    HW211585   0.038   2.442   4.410  0.2471 -0.9990 -0.5222
 2878SOL    HW311586  -0.065   2.496   4.505  1.4673  2.2386 -0.9765
 2878SOL    MW411587   0.009   2.453   4.491  0.3638  0.1743 -0.6309
 2879SOL     OW11588   4.208   2.843   4.554  0.2338  0.6298 -0.3803
 2879SOL    HW211589   4.294   2.858   4.594 -0.0497 -0.9109  0.8630
 2879SOL    HW311590   4.226   2.836   4.460  1.6714 -1.0193 -0.0095
 2879SOL    MW411591   4.222   2.845   4.547  0.3858  0.2086 -0.1674
 2880SOL     OW11592   4.066   3.120   4.482  0.3191  0.4697  0.1269
 2880SOL    HW211593   4.064   3.139   4.388 -0.0463  1.0062  0.2464
 2880SOL    HW311594   4.116   3.039   4.488  1.1893  0.9578 -0.4438
 2880SOL    MW411595   4.072   3.112   4.470  0.3853  0.6051  0.0672
 2881SOL     OW11596   0.298   4.159   4.617  0.3542 -0.4769 -0.2848
 2881SOL    HW211597   0.270   4.069   4.603  1.6223 -1.0142  0.4965
 2881SOL    HW311598   0.392   4.152   4.634  0.6297  1.0884 -1.1189
 2881SOL    MW411599   0.307   4.146   4.618  0.5578 -0.3419 -0.2918
 2882SOL     OW11600   0.058   4.236   4.779  0.0223 -0.7091 -0.1299
 2882SOL    HW211601   0.148   4.220   4.750 -0.1523 -0.3283 -0.9067
 2882SOL    HW311602   0.008   4.163   4.742  0.1828 -1.5002  1.1965
 2882SOL    MW411603   0.063   4.224   4.770  0.0204 -0.7634 -0.0577
 2883SOL     OW11604   3.626   0.185   4.584  0.3824 -0.1043  0.0485
 2883SOL    HW211605   3.645   0.273   4.617 -0.0395 -0.0795  0.2163
 2883SOL    HW311606   3.609   0.198   4.490  0.9559 -0.0937 -0.0557
 2883SOL    MW411607   3.627   0.199   4.576  0.4025 -0.0997  0.0572
 2884SOL     OW11608   3.998   3.535   4.628  0.0154  0.3375 -0.0972
 2884SOL    HW211609   3.936   3.463   4.629  0.0301  0.2307 -2.3173
 2884SOL    HW311610   4.083   3.493   4.614  0.2759  0.6534  0.5118
 2884SOL    MW411611   4.001   3.520   4.626  0.0520  0.3650 -0.3099
 2885SOL     OW11612   3.663   0.424   4.714  0.3639 -0.5619 -0.1323
 2885SOL    HW211613   3.679   0.489   4.782  3.2412  1.7660 -2.8900
 2885SOL    HW311614   3.574   0.442   4.684  0.0845  0.1665  1.1255
 2885SOL    MW411615   3.653   0.435   4.719  0.7067 -0.1586 -0.3300
 2886SOL     OW11616   4.218   4.347   4.230 -0.3695  0.0757  0.0652
 2886SOL    HW211617   4.306   4.310   4.221 -0.3802  0.1592 -0.4356
 2886SOL    HW311618   4.217   4.386   4.317  0.1538  0.2339  0.0040
 2886SOL    MW411619   4.229   4.347   4.240 -0.3014  0.1073 -0.0091
 2887NA      NA11620   0.083   3.565   0.744 -0.1741  0.3713 -0.0679
 2888NA      NA11621   3.589   0.616   0.448 -0.0361 -0.1429  0.0178
 2889NA      NA11622   1.978   2.856   0.486 -0.6470  0.0445  0.2577
   4.49070   4.66690  10.00000
