Gromacs Runs On Most of All Computer Systems in water
11584
    1RU5    O5'    1   2.094   1.756   4.710  0.1975  0.2679 -0.1555
    1RU5    H5T    2   2.049   1.686   4.757  2.0064 -0.5132  0.4611
    1RU5    C5'    3   2.231   1.717   4.687  0.4470  0.2102  0.2667
    1RU5   H5'1    4   2.274   1.701   4.786  1.6659 -1.0442 -0.4387
    1RU5   H5'2    5   2.282   1.802   4.642  0.9277 -0.5258 -0.5895
    1RU5    C4'    6   2.243   1.596   4.597 -0.4627 -0.6490  0.5164
    1RU5    H4'    7   2.351   1.585   4.602 -0.4023 -0.0339  0.5937
    1RU5    O4'    8   2.173   1.484   4.654 -0.0283  0.5534  0.1701
    1RU5    C1'    9   2.137   1.385   4.551 -0.7921  0.0282 -0.1216
    1RU5    H1'   10   2.208   1.302   4.556 -0.7768  0.0033 -0.8098
    1RU5     N1   11   1.999   1.328   4.562 -0.2002 -0.2327  0.1013
    1RU5     C6   12   1.894   1.413   4.585 -0.3536 -0.2219 -0.3767
    1RU5     H6   13   1.906   1.520   4.579 -0.6945 -0.1646 -0.0139
    1RU5     C5   14   1.772   1.359   4.609 -0.0058 -0.3981  0.2855
    1RU5     H5   15   1.691   1.430   4.623 -0.0839 -0.3771 -0.2756
    1RU5     C4   16   1.752   1.218   4.609 -0.2303 -0.5111 -0.3984
    1RU5     O4   17   1.648   1.166   4.638  0.0100 -0.3042 -0.6459
    1RU5     N3   18   1.856   1.141   4.573 -0.0338 -0.3595  0.0553
    1RU5     H3   19   1.839   1.049   4.535 -0.2144  0.0634 -0.9115
    1RU5     C2   20   1.980   1.191   4.553  0.2938 -0.3345  0.3835
    1RU5     O2   21   2.070   1.112   4.515  0.7156  0.0801 -0.4935
    1RU5    C3'   22   2.177   1.606   4.457 -0.4506  0.2677 -0.0118
    1RU5    H3'   23   2.079   1.653   4.472  0.4565  1.5286  2.2284
    1RU5    C2'   24   2.163   1.459   4.419  0.4186  0.0769  0.9854
    1RU5   H2'1   25   2.085   1.445   4.344  1.1822  0.7067  0.0609
    1RU5    O2'   26   2.286   1.392   4.373  0.3675  0.5030 -0.5020
    1RU5   HO'2   27   2.323   1.449   4.305 -0.2798 -0.5747 -1.7915
    1RU5    O3'   28   2.253   1.680   4.368 -0.3643  0.4812  0.3218
    2RG3      P   29   2.208   1.735   4.222  0.1500 -0.1700  0.1241
    2RG3    O1P   30   2.278   1.861   4.197  0.4085  0.6382  0.1845
    2RG3    O2P   31   2.063   1.733   4.217  0.4890 -0.0322 -0.2763
    2RG3    O5'   32   2.253   1.626   4.128  0.0194  0.4433 -0.0473
    2RG3    C5'   33   2.390   1.603   4.094 -0.4246  1.0574  0.4639
    2RG3   H5'1   34   2.454   1.600   4.182 -2.7278 -1.6140  2.0939
    2RG3   H5'2   35   2.416   1.680   4.020  0.2258  0.2102 -0.2004
    2RG3    C4'   36   2.412   1.471   4.017 -1.1976  0.0536  0.7876
    2RG3    H4'   37   2.517   1.460   3.991 -1.0162  0.5391  1.2835
    2RG3    O4'   38   2.387   1.370   4.109  0.2801 -0.2937  0.0286
    2RG3    C1'   39   2.328   1.258   4.040 -0.6860  0.3130 -0.2306
    2RG3    H1'   40   2.396   1.175   4.058  1.1085  2.0126  1.0322
    2RG3     N9   41   2.187   1.231   4.088 -0.8348 -0.2192 -0.0976
    2RG3     C8   42   2.082   1.318   4.111 -0.0775  0.0150  0.3995
    2RG3     H8   43   2.103   1.423   4.104 -1.4663  0.4029  1.7523
    2RG3     N7   44   1.979   1.258   4.159 -0.6547  0.0499 -0.1622
    2RG3     C5   45   2.010   1.121   4.154 -0.2519 -0.0300  0.3011
    2RG3     C6   46   1.941   1.000   4.194  0.3133  0.9120 -0.0840
    2RG3     O6   47   1.831   0.985   4.242 -0.2252 -0.0912  0.0461
    2RG3     N1   48   2.010   0.883   4.183 -0.4741 -0.0175 -0.2954
    2RG3     H1   49   1.970   0.792   4.203 -0.2530 -0.5938 -2.2986
    2RG3     C2   50   2.132   0.883   4.126 -0.4585  0.3426 -0.7589
    2RG3     N2   51   2.187   0.767   4.106 -0.2413 -0.0322  0.3422
    2RG3    H21   52   2.137   0.680   4.119  0.6831 -0.7273 -0.6615
    2RG3    H22   53   2.278   0.764   4.063 -0.6971  1.4310 -0.7900
    2RG3     N3   54   2.205   0.988   4.098 -0.2419  0.1565  0.0056
    2RG3     C4   55   2.137   1.105   4.110  0.6386 -0.3459  0.2649
    2RG3    C3'   56   2.319   1.452   3.895  0.2516 -0.0113 -0.0577
    2RG3    H3'   57   2.223   1.490   3.928  0.7231  0.7734  0.4327
    2RG3    C2'   58   2.324   1.299   3.889  0.6575  0.0232 -0.9107
    2RG3   H2'1   59   2.232   1.264   3.843  0.9677 -1.1370 -0.6584
    2RG3    O2'   60   2.441   1.247   3.825 -0.3638 -0.0863  0.2435
    2RG3   HO'2   61   2.437   1.277   3.734  0.0612  0.3955  0.3865
    2RG3    O3'   62   2.355   1.510   3.773  0.3403 -0.3839  0.1366
    2RG3    H3T   63   2.290   1.574   3.745  1.1951  0.3120 -0.2663
    5SOL     OW   64   2.459   1.103   0.478 -0.4158 -0.6036 -0.5248
    5SOL    HW2   65   2.402   1.172   0.443  0.1653  1.0318  1.6797
    5SOL    HW3   66   2.548   1.132   0.457 -0.1720 -0.6348  0.4225
    5SOL    MW4   67   2.463   1.116   0.471 -0.3068 -0.3921 -0.1089
    6SOL     OW   68   3.653   2.577   0.419 -0.1615  0.6352 -0.2459
    6SOL    HW2   69   3.707   2.646   0.382 -1.8023  1.7074 -0.7137
    6SOL    HW3   70   3.695   2.554   0.502  0.4155  2.1613 -0.1121
    6SOL    MW4   71   3.666   2.583   0.425 -0.3021  0.9780 -0.2900
    7SOL     OW   72   0.721   1.658   0.853  0.0185  0.2191  0.0907
    7SOL    HW2   73   0.662   1.617   0.790  0.5444 -0.6120  0.1396
    7SOL    HW3   74   0.723   1.597   0.927  0.0475  0.7933  0.5688
    7SOL    MW4   75   0.713   1.644   0.855  0.0916  0.1853  0.1603
    8SOL     OW   76   4.246   1.339   1.198  0.0838  0.2700  0.3909
    8SOL    HW2   77   4.242   1.347   1.294  1.1052 -0.9628  0.5476
    8SOL    HW3   78   4.257   1.429   1.167  0.5194  0.5977  1.4738
    8SOL    MW4   79   4.247   1.352   1.207  0.2756  0.1504  0.5543
    9SOL     OW   80   1.414   0.631   0.750 -0.1556 -0.2675  0.7771
    9SOL    HW2   81   1.331   0.649   0.706  0.4030 -0.9071 -0.5746
    9SOL    HW3   82   1.398   0.551   0.801 -0.2425 -0.6812  0.1136
    9SOL    MW4   83   1.401   0.623   0.750 -0.0933 -0.4065  0.5112
   10SOL     OW   84   1.506   3.599   1.266  0.2140  0.5723 -0.0052
   10SOL    HW2   85   1.431   3.579   1.210  1.6168  0.7952 -2.0301
   10SOL    HW3   86   1.580   3.554   1.225  1.0172 -0.5171  2.5463
   10SOL    MW4   87   1.506   3.591   1.253  0.5051  0.4578  0.0643
   11SOL     OW   88   2.963   4.579   0.277  0.2385  0.5136 -0.7007
   11SOL    HW2   89   2.897   4.567   0.345  0.7504 -0.8573 -0.4258
   11SOL    HW3   90   2.977   4.674   0.273 -0.3247  0.6560  0.5853
   11SOL    MW4   91   2.956   4.590   0.285  0.2315  0.3514 -0.4948
   12SOL     OW   92   2.764   2.921   0.310 -0.3605 -0.3280 -0.1807
   12SOL    HW2   93   2.775   3.014   0.330  0.9979  0.0681 -2.5381
   12SOL    HW3   94   2.670   2.911   0.292 -0.4427  0.6807 -0.3413
   12SOL    MW4   95   2.753   2.932   0.310 -0.1919 -0.1426 -0.5129
   13SOL     OW   96   2.235   3.498   0.853 -0.3600  0.2116 -0.0738
   13SOL    HW2   97   2.318   3.534   0.822 -0.6434  0.4624 -0.5457
   13SOL    HW3   98   2.172   3.521   0.785 -0.7924 -0.0869  0.2233
   13SOL    MW4   99   2.238   3.505   0.840 -0.4544  0.2055 -0.0968
   14SOL     OW  100   0.894   3.476   1.067  0.8028 -0.1433  0.3052
   14SOL    HW2  101   0.897   3.477   0.971  0.8685  0.2286  0.3118
   14SOL    HW3  102   0.967   3.532   1.094  0.7585 -0.2125  0.5732
   14SOL    MW4  103   0.904   3.483   1.058  0.8056 -0.1032  0.3413
   15SOL     OW  104   2.181   0.415   0.817 -0.1806  0.3605  0.3035
   15SOL    HW2  105   2.203   0.502   0.785  2.4029 -0.5749 -0.5745
   15SOL    HW3  106   2.240   0.401   0.891  1.6661 -1.8298 -1.4919
   15SOL    MW4  107   2.192   0.425   0.823  0.4041 -0.0519 -0.0492
   16SOL     OW  108   1.290   1.929   0.849 -0.0115  0.2044 -0.3414
   16SOL    HW2  109   1.206   1.974   0.848 -0.0869  0.0888  0.7420
   16SOL    HW3  110   1.324   1.943   0.937  1.0496  0.1475 -0.7327
   16SOL    MW4  111   1.284   1.937   0.861  0.1187  0.1817 -0.2500
   17SOL     OW  112   3.359   1.706   1.190 -0.1868 -0.4970  0.4297
   17SOL    HW2  113   3.265   1.706   1.208  0.0008  1.0974  1.4733
   17SOL    HW3  114   3.389   1.621   1.221 -0.8123  0.0841  2.7214
   17SOL    MW4  115   3.350   1.695   1.196 -0.2446 -0.2098  0.8698
   18SOL     OW  116   0.380   2.274   0.827  0.0761  0.8442  0.0879
   18SOL    HW2  117   0.456   2.333   0.836 -0.0003  1.0105 -0.3453
   18SOL    HW3  118   0.318   2.305   0.893  0.7134  0.2014  0.9912
   18SOL    MW4  119   0.382   2.286   0.837  0.1501  0.7811  0.1498
   19SOL     OW  120   0.119   4.472   0.708  0.1870 -0.1733 -0.0980
   19SOL    HW2  121   0.079   4.395   0.750 -1.9578  0.5052 -0.7988
   19SOL    HW3  122   0.112   4.454   0.614  1.5255 -0.0158 -0.2289
   19SOL    MW4  123   0.113   4.459   0.701  0.0806 -0.0629 -0.2077
   20SOL     OW  124   0.974   3.092   0.413 -0.2271  0.0888 -0.2374
   20SOL    HW2  125   1.022   3.172   0.394  0.1038 -0.0097  0.1660
   20SOL    HW3  126   1.042   3.029   0.438 -0.1841 -1.1373 -3.2115
   20SOL    MW4  127   0.990   3.094   0.414 -0.1779 -0.0858 -0.5766
   21SOL     OW  128   2.434   3.095   1.090  0.5346  0.1960  0.3147
   21SOL    HW2  129   2.361   3.129   1.141  0.0776 -1.9348  1.1647
   21SOL    HW3  130   2.457   3.013   1.134  2.5094  0.1330 -0.7824
   21SOL    MW4  131   2.427   3.089   1.102  0.7346 -0.0932  0.2820
   22SOL     OW  132   4.217   0.501   0.687 -0.4484 -0.3314 -0.7309
   22SOL    HW2  133   4.164   0.438   0.736  0.3060  0.5090  1.2229
   22SOL    HW3  134   4.213   0.581   0.739  0.8044  0.4378 -1.7789
   22SOL    MW4  135   4.210   0.503   0.700 -0.1841 -0.1190 -0.6114
   23SOL     OW  136   0.637   4.038   0.554 -0.1568  0.7016  0.2951
   23SOL    HW2  137   0.675   4.105   0.611 -1.8805 -0.3305  2.7650
   23SOL    HW3  138   0.647   3.956   0.603 -1.2215 -0.3097 -1.1276
   23SOL    MW4  139   0.643   4.036   0.568 -0.5247  0.4315  0.4333
   24SOL     OW  140   2.228   3.221   1.207  0.5045 -0.2664 -0.2334
   24SOL    HW2  141   2.233   3.311   1.174  0.7538 -0.5448 -0.9655
   24SOL    HW3  142   2.248   3.229   1.300  1.7861  0.2869 -0.5406
   24SOL    MW4  143   2.232   3.234   1.215  0.7064 -0.2301 -0.3705
   25SOL     OW  144   4.025   4.021   1.209 -0.0260  0.3083 -0.0133
   25SOL    HW2  145   3.946   3.976   1.181  0.4067  1.0921 -2.6715
   25SOL    HW3  146   4.012   4.112   1.181  1.3427  0.6698  0.4552
   25SOL    MW4  147   4.013   4.027   1.201  0.2112  0.4597 -0.3022
   26SOL     OW  148   1.277   3.868   0.460  0.3085 -0.1799  0.1361
   26SOL    HW2  149   1.349   3.925   0.432  0.4543 -0.4933 -0.1391
   26SOL    HW3  150   1.198   3.916   0.437  0.4288 -0.4211 -0.8094
   26SOL    MW4  151   1.276   3.882   0.453  0.3436 -0.2527 -0.0249
   27SOL     OW  152   2.589   0.748   1.077 -0.5184  0.6514 -0.5118
   27SOL    HW2  153   2.644   0.781   1.149 -0.6240 -0.7939  0.2387
   27SOL    HW3  154   2.503   0.787   1.093 -0.3453  0.9417 -0.2843
   27SOL    MW4  155   2.585   0.758   1.089 -0.5095  0.4990 -0.3827
   28SOL     OW  156   0.035   2.736   1.141  0.0972  0.1536 -0.3379
   28SOL    HW2  157   0.060   2.753   1.050 -0.6440  1.4434 -0.3098
   28SOL    HW3  158   0.091   2.793   1.193  0.2183 -0.2657  0.0004
   28SOL    MW4  159   0.045   2.746   1.136  0.0154  0.2687 -0.2897
   29SOL     OW  160   1.474   4.193   0.783 -0.2315 -0.1855  0.0489
   29SOL    HW2  161   1.420   4.239   0.847  0.9188 -0.1813  1.0295
   29SOL    HW3  162   1.425   4.113   0.763 -1.0725  0.2999  0.1675
   29SOL    MW4  163   1.460   4.188   0.788 -0.1906 -0.1206  0.1939
   30SOL     OW  164   4.076   2.112   0.314  0.5065  0.2150  0.0949
   30SOL    HW2  165   4.109   2.194   0.349 -0.7385  0.9572 -0.4405
   30SOL    HW3  166   4.149   2.051   0.322  1.1392  1.1274  1.3314
   30SOL    MW4  167   4.090   2.115   0.319  0.4258  0.4332  0.1874
   31SOL     OW  168   0.223   3.878   1.165 -0.3236  0.0311 -0.1194
   31SOL    HW2  169   0.304   3.919   1.194 -0.1319 -0.3245 -0.1439
   31SOL    HW3  170   0.235   3.785   1.186  0.1443 -0.3818 -2.0373
   31SOL    MW4  171   0.235   3.871   1.171 -0.2366 -0.0701 -0.3757
   32SOL     OW  172   3.211   0.864   0.752  0.2177 -0.3785 -0.6286
   32SOL    HW2  173   3.137   0.845   0.809  1.2654 -2.2058  0.1778
   32SOL    HW3  174   3.234   0.954   0.771 -0.3420 -0.5295  0.8109
   32SOL    MW4  175   3.204   0.873   0.762  0.2823 -0.6396 -0.3323
   33SOL     OW  176   2.076   0.725   1.099  0.0193 -0.7707 -0.0883
   33SOL    HW2  177   2.164   0.763   1.107 -0.7302  1.1940 -0.8959
   33SOL    HW3  178   2.042   0.759   1.017 -1.7331 -1.0167  0.5047
   33SOL    MW4  179   2.083   0.735   1.089 -0.3109 -0.5440 -0.1166
   34SOL     OW  180   0.575   1.500   0.684 -0.6353 -0.0706 -0.2676
   34SOL    HW2  181   0.534   1.538   0.607 -0.4219 -0.0178 -0.3568
   34SOL    HW3  182   0.503   1.463   0.734 -0.6019 -1.6862 -1.3713
   34SOL    MW4  183   0.560   1.500   0.681 -0.6028 -0.2767 -0.4249
   35SOL     OW  184   3.613   2.279   0.808 -0.6559 -0.0011 -0.1028
   35SOL    HW2  185   3.518   2.279   0.802 -0.7077  2.5030 -0.0120
   35SOL    HW3  186   3.632   2.245   0.895 -1.3645 -2.1243 -0.7419
   35SOL    MW4  187   3.603   2.275   0.818 -0.7563  0.0491 -0.1752
   36SOL     OW  188   2.902   2.844   1.181  0.5360 -0.2671  0.2283
   36SOL    HW2  189   2.881   2.850   1.274 -0.0466  0.8363  0.0379
   36SOL    HW3  190   2.983   2.793   1.178 -0.0125 -1.2280  1.2559
   36SOL    MW4  191   2.910   2.838   1.193  0.3870 -0.2482  0.3388
   37SOL     OW  192   2.085   2.814   0.698 -0.1274 -0.4404  0.3729
   37SOL    HW2  193   2.144   2.798   0.624  0.3014 -1.5033  0.9126
   37SOL    HW3  194   1.997   2.809   0.661  0.1158  1.5498 -0.5180
   37SOL    MW4  195   2.081   2.811   0.684 -0.0386 -0.3176  0.3266
   38SOL     OW  196   3.122   3.478   0.112 -0.0229  0.3061  0.5909
   38SOL    HW2  197   3.093   3.387   0.111  0.6687  0.0936 -0.2926
   38SOL    HW3  198   3.208   3.476   0.153  0.8179  0.2986 -1.1133
   38SOL    MW4  199   3.130   3.466   0.117  0.1791  0.2770  0.2495
   39SOL     OW  200   2.635   0.481   0.769 -0.2897  0.2821  0.1358
   39SOL    HW2  201   2.660   0.487   0.861  0.2413 -0.2684  0.0291
   39SOL    HW3  202   2.716   0.493   0.720 -0.3450 -0.7550 -0.2238
   39SOL    MW4  203   2.649   0.483   0.774 -0.2272  0.0727  0.0743
   40SOL     OW  204   3.106   4.318   0.587 -0.3675 -0.1747 -0.4669
   40SOL    HW2  205   3.034   4.361   0.634 -0.1897  0.0404 -0.3920
   40SOL    HW3  206   3.073   4.308   0.498 -1.0999 -1.5015 -0.0620
   40SOL    MW4  207   3.092   4.322   0.581 -0.4408 -0.3214 -0.4037
   41SOL     OW  208   3.117   3.992   1.504 -0.4845  0.1325 -0.2615
   41SOL    HW2  209   3.106   4.081   1.535 -1.4890  0.1948 -0.7723
   41SOL    HW3  210   3.044   3.944   1.543 -0.3133 -0.3260 -0.5000
   41SOL    MW4  211   3.106   3.997   1.513 -0.5944  0.0801 -0.3603
   42SOL     OW  212   2.863   1.463   0.372 -0.2147  0.3216  0.3556
   42SOL    HW2  213   2.832   1.537   0.424  0.0287  0.0014  0.9603
   42SOL    HW3  214   2.958   1.466   0.381 -0.1407  0.5114 -0.4158
   42SOL    MW4  215   2.871   1.473   0.380 -0.1726  0.3045  0.3336
   43SOL     OW  216   3.045   2.269   0.478  0.1714 -0.2066  0.2185
   43SOL    HW2  217   3.019   2.222   0.558  0.1949 -0.8130 -0.1275
   43SOL    HW3  218   3.138   2.247   0.467 -0.1071 -1.0119 -0.5819
   43SOL    MW4  219   3.054   2.260   0.487  0.1380 -0.3929  0.0673
   44SOL     OW  220   1.073   0.792   0.424 -0.3561 -0.1634  0.3015
   44SOL    HW2  221   0.986   0.832   0.428 -0.5972 -0.6001 -0.4793
   44SOL    HW3  222   1.133   0.866   0.426 -0.7556  0.1496  0.6701
   44SOL    MW4  223   1.069   0.807   0.425 -0.4406 -0.1796  0.2471
   45SOL     OW  224   2.134   3.975   0.438  0.5386  0.0532  0.1347
   45SOL    HW2  225   2.182   4.002   0.517 -0.6858  0.7307  0.6468
   45SOL    HW3  226   2.104   4.057   0.399 -0.0007 -0.3662 -0.3228
   45SOL    MW4  227   2.137   3.989   0.443  0.3059  0.0873  0.1419
   46SOL     OW  228   2.677   1.369   0.666 -0.1914 -0.2227 -0.0879
   46SOL    HW2  229   2.644   1.454   0.636 -1.4864 -0.7179 -0.1262
   46SOL    HW3  230   2.693   1.320   0.586  0.5536 -0.0234 -0.0653
   46SOL    MW4  231   2.674   1.374   0.651 -0.2639 -0.2618 -0.0900
   47SOL     OW  232   3.344   2.595   0.672  0.0150  0.6985 -0.0118
   47SOL    HW2  233   3.370   2.586   0.581  1.4666  1.8789  0.2695
   47SOL    HW3  234   3.415   2.644   0.713 -0.6577  0.2527  1.7408
   47SOL    MW4  235   3.357   2.601   0.666  0.1178  0.7951  0.2565
   48SOL     OW  236   2.265   2.418   1.208 -0.1954  0.2084  0.2856
   48SOL    HW2  237   2.241   2.434   1.299 -0.4298 -0.1343  0.2882
   48SOL    HW3  238   2.205   2.349   1.180 -0.2255  0.4192 -0.1743
   48SOL    MW4  239   2.254   2.411   1.216 -0.2303  0.1912  0.2252
   49SOL     OW  240   3.871   1.305   0.958 -0.5067  0.4632  0.5823
   49SOL    HW2  241   3.912   1.382   0.919  0.9930 -1.3011 -1.4410
   49SOL    HW3  242   3.942   1.258   1.001 -0.7428 -1.4418 -0.9875
   49SOL    MW4  243   3.886   1.309   0.959 -0.3400 -0.0210  0.1082
   50SOL     OW  244   4.242   3.612   1.234 -0.1031 -0.8347  0.3791
   50SOL    HW2  245   4.324   3.583   1.195  0.6325  0.0130  1.2579
   50SOL    HW3  246   4.238   3.706   1.214 -0.3657 -0.6700  1.1946
   50SOL    MW4  247   4.252   3.621   1.226 -0.0405 -0.7012  0.6026
   51SOL     OW  248   0.312   3.370   0.494  0.4686  0.0023 -0.2248
   51SOL    HW2  249   0.332   3.464   0.489 -1.0759  0.2828 -1.2914
   51SOL    HW3  250   0.386   3.328   0.451  0.4747  0.8182 -1.0268
   51SOL    MW4  251   0.325   3.377   0.488  0.2656  0.1469 -0.4714
   52SOL     OW  252   3.787   3.815   0.368  0.2961 -0.2751 -0.2902
   52SOL    HW2  253   3.877   3.809   0.400 -0.3269  0.7361  1.7015
   52SOL    HW3  254   3.771   3.909   0.361 -0.6169 -0.4522 -0.6242
   52SOL    MW4  255   3.797   3.827   0.371  0.0937 -0.1650 -0.0715
   53SOL     OW  256   3.364   3.017   0.472 -0.1361  0.0278  1.0159
   53SOL    HW2  257   3.452   3.035   0.439  0.3174 -1.5146  1.3881
   53SOL    HW3  258   3.316   3.098   0.454  1.1090  0.5682 -0.0040
   53SOL    MW4  259   3.369   3.030   0.465  0.0880 -0.1044  0.9305
   54SOL     OW  260   4.217   4.210   0.522 -0.5344 -0.2303  0.2981
   54SOL    HW2  261   4.205   4.299   0.490  2.1414  0.7372  1.7983
   54SOL    HW3  262   4.208   4.217   0.617 -1.2986 -1.7720  0.3676
   54SOL    MW4  263   4.214   4.223   0.531 -0.2813 -0.3057  0.5051
   55SOL     OW  264   0.474   4.298   0.916  0.3889 -0.1264 -0.4987
   55SOL    HW2  265   0.448   4.390   0.917  1.5741  0.2170 -0.7528
   55SOL    HW3  266   0.472   4.272   1.008 -2.3023 -0.5523 -0.6172
   55SOL    MW4  267   0.470   4.307   0.928  0.1901 -0.1373 -0.5478
   56SOL     OW  268   4.289   1.918   0.371 -0.2511 -0.0002 -0.5130
   56SOL    HW2  269   4.299   1.838   0.321 -0.7288  0.0648 -0.7142
   56SOL    HW3  270   4.217   1.900   0.431 -0.4945  0.3469 -0.6984
   56SOL    MW4  271   4.281   1.905   0.373 -0.3462  0.0541 -0.5639
   57SOL     OW  272   3.688   3.348   0.395 -0.2802 -0.4311 -0.0191
   57SOL    HW2  273   3.680   3.422   0.335 -1.5819  0.3228  1.0533
   57SOL    HW3  274   3.779   3.351   0.424 -0.5132  1.2705  0.6398
   57SOL    MW4  275   3.699   3.358   0.391 -0.4828 -0.1070  0.2094
   58SOL     OW  276   1.503   3.808   0.861 -0.7035 -0.4941 -0.3658
   58SOL    HW2  277   1.572   3.809   0.795 -1.7709 -0.3637 -1.4739
   58SOL    HW3  278   1.428   3.851   0.820 -1.4296 -0.5365  0.8669
   58SOL    MW4  279   1.502   3.814   0.847 -0.9402 -0.4826 -0.3494
   59SOL     OW  280   4.470   1.957   0.585 -0.4480  0.3391 -0.2551
   59SOL    HW2  281   4.419   1.926   0.510 -0.1822  0.6078 -0.5480
   59SOL    HW3  282   4.542   2.007   0.546 -0.1364  0.2213  0.1675
   59SOL    MW4  283   4.472   1.959   0.570 -0.3719  0.3589 -0.2380
   60SOL     OW  284   3.414   1.670   0.156 -0.5732 -0.4651 -0.1026
   60SOL    HW2  285   3.341   1.657   0.095  0.1333 -1.1453 -0.8231
   60SOL    HW3  286   3.405   1.598   0.219 -1.7573  0.6883  1.0744
   60SOL    MW4  287   3.403   1.659   0.156 -0.6361 -0.4027 -0.0423
   61SOL     OW  288   2.846   2.446   0.798 -0.1970  0.0687  0.1218
   61SOL    HW2  289   2.878   2.359   0.773  1.4463  0.2490  1.4278
   61SOL    HW3  290   2.775   2.429   0.860 -0.4969 -0.3489 -0.3400
   61SOL    MW4  291   2.841   2.432   0.803 -0.0198  0.0374  0.2332
   62SOL     OW  292   0.862   0.142   1.242 -0.1469  0.4697  0.2903
   62SOL    HW2  293   0.792   0.083   1.215  1.5859 -1.1725 -0.8285
   62SOL    HW3  294   0.864   0.136   1.337 -0.8072 -0.3468  0.2562
   62SOL    MW4  295   0.853   0.134   1.251 -0.0054  0.1453  0.1383
   63SOL     OW  296   3.486   3.412   0.583  0.2069 -0.2551  0.0808
   63SOL    HW2  297   3.536   3.412   0.665  0.5645 -0.8165 -0.1365
   63SOL    HW3  298   3.547   3.379   0.517 -0.1498 -0.0211 -0.3712
   63SOL    MW4  299   3.501   3.408   0.585  0.2069 -0.2983 -0.0076
   64SOL     OW  300   2.482   4.433   0.741 -0.3847 -0.1541  0.0795
   64SOL    HW2  301   2.443   4.512   0.777 -1.7590  0.6801 -3.0442
   64SOL    HW3  302   2.431   4.362   0.779 -1.2774  0.6372  0.3913
   64SOL    MW4  303   2.470   4.434   0.751 -0.6838  0.0601 -0.2916
   65SOL     OW  304   0.337   2.730   0.822  0.1373  0.1290 -0.3153
   65SOL    HW2  305   0.396   2.764   0.755  0.3241 -1.1055 -0.8054
   65SOL    HW3  306   0.307   2.646   0.786  0.0250 -0.4168  1.0222
   65SOL    MW4  307   0.341   2.723   0.808  0.1472 -0.1061 -0.2035
   66SOL     OW  308   2.473   3.928   1.112  0.1802 -0.0781 -0.4854
   66SOL    HW2  309   2.398   3.983   1.132  0.6529  0.1919  0.6013
   66SOL    HW3  310   2.448   3.841   1.143  0.4907  0.1135  0.3283
   66SOL    MW4  311   2.460   3.924   1.118  0.2835 -0.0172 -0.2348
   67SOL     OW  312   2.087   1.526   1.187 -0.3423  0.0984  0.1787
   67SOL    HW2  313   2.087   1.535   1.091  0.8927  0.5424  0.2120
   67SOL    HW3  314   2.102   1.433   1.203  0.5238  0.1966 -0.0519
   67SOL    MW4  315   2.089   1.515   1.176 -0.0653  0.1699  0.1526
   68SOL     OW  316   1.116   1.095   0.784  0.1379  0.0531 -0.5717
   68SOL    HW2  317   1.201   1.108   0.825  0.5732 -0.4422 -1.2909
   68SOL    HW3  318   1.090   1.006   0.809 -0.6158  0.5513  0.4335
   68SOL    MW4  319   1.124   1.085   0.793  0.0958  0.0534 -0.5339
   69SOL     OW  320   3.989   4.322   1.150  1.0622 -0.4484  0.3102
   69SOL    HW2  321   4.007   4.331   1.057  3.0082 -0.4908  0.6666
   69SOL    HW3  322   4.069   4.352   1.193  0.4010 -0.9851  1.9541
   69SOL    MW4  323   4.002   4.327   1.144  1.2317 -0.5255  0.5742
   70SOL     OW  324   1.796   4.195   0.397 -0.0691 -0.7299  0.0948
   70SOL    HW2  325   1.771   4.137   0.324  0.0740  0.0834 -0.6085
   70SOL    HW3  326   1.890   4.209   0.385 -0.5969  1.8522 -1.3520
   70SOL    MW4  327   1.805   4.189   0.386 -0.1198 -0.2823 -0.1889
   71SOL     OW  328   1.548   0.046   1.128  0.0072 -0.0031 -0.2593
   71SOL    HW2  329   1.541  -0.041   1.166  0.4316 -0.0116 -0.1963
   71SOL    HW3  330   1.521   0.035   1.037  1.2761 -0.4467 -0.5825
   71SOL    MW4  331   1.543   0.033   1.121  0.2307 -0.0627 -0.2937
   72SOL     OW  332   3.446   0.921   1.120 -0.2382  0.3036 -0.0546
   72SOL    HW2  333   3.517   0.939   1.181  0.5310 -0.9316 -0.5598
   72SOL    HW3  334   3.487   0.870   1.049 -1.5734 -0.2548 -0.4494
   72SOL    MW4  335   3.461   0.917   1.118 -0.3128  0.0670 -0.1734
   73SOL     OW  336   1.809   1.123   1.144  0.3665 -0.2973  0.8471
   73SOL    HW2  337   1.803   1.031   1.168 -1.3831 -1.2240 -2.7071
   73SOL    HW3  338   1.741   1.166   1.195 -0.4712 -1.4445  0.7171
   73SOL    MW4  339   1.799   1.117   1.154  0.0252 -0.5710  0.3611
   74SOL     OW  340   4.227   3.079   1.102 -0.1996  0.0719  0.2572
   74SOL    HW2  341   4.152   3.118   1.147  0.0861  0.0418  0.7584
   74SOL    HW3  342   4.235   2.992   1.141  0.0533  0.0490  0.1542
   74SOL    MW4  343   4.218   3.072   1.113 -0.1287  0.0648  0.3097
   75SOL     OW  344   2.320   1.565   0.514  0.1693 -0.0748  0.1582
   75SOL    HW2  345   2.297   1.555   0.606 -1.4486 -1.0976 -0.3403
   75SOL    HW3  346   2.300   1.480   0.474  0.9649  0.3159 -1.1203
   75SOL    MW4  347   2.315   1.552   0.521  0.0608 -0.1582 -0.0762
   76SOL     OW  348   0.413   3.770   0.750  0.3473 -0.1592  0.1360
   76SOL    HW2  349   0.442   3.683   0.780  0.5653  0.2638  1.1959
   76SOL    HW3  350   0.342   3.793   0.810 -3.1842 -1.7358 -3.2070
   76SOL    MW4  351   0.408   3.761   0.762 -0.0899 -0.3114 -0.1652
   77SOL     OW  352   3.091   1.776   0.565  0.2412 -0.0610  0.1872
   77SOL    HW2  353   3.179   1.812   0.551 -0.5273  1.2769 -1.4352
   77SOL    HW3  354   3.086   1.703   0.503  0.1536 -0.0563  0.1897
   77SOL    MW4  355   3.102   1.771   0.555  0.1283  0.1162 -0.0265
   78SOL     OW  356   1.571   3.844   1.129  0.3555  0.1402  0.4021
   78SOL    HW2  357   1.544   3.825   1.039  1.0583  0.5707  0.0957
   78SOL    HW3  358   1.539   3.770   1.180 -1.8578  0.8853  0.1325
   78SOL    MW4  359   1.563   3.832   1.124  0.1562  0.2954  0.3262
   79SOL     OW  360   3.731   1.148   0.779 -0.0927  0.5476  0.1816
   79SOL    HW2  361   3.767   1.214   0.840 -0.8577  0.3363  0.8693
   79SOL    HW3  362   3.774   1.167   0.696  0.7034  1.0731  0.7003
   79SOL    MW4  363   3.742   1.159   0.776 -0.0889  0.5891  0.3408
   80SOL     OW  364   2.728   1.632   1.225  0.0742 -0.3927 -0.3645
   80SOL    HW2  365   2.810   1.585   1.209  1.5187  1.4961  1.2036
   80SOL    HW3  366   2.738   1.715   1.180 -1.0691 -0.2026 -0.2935
   80SOL    MW4  367   2.740   1.636   1.217  0.1140 -0.1184 -0.1483
   81SOL     OW  368   1.538   3.109   1.107 -0.3646 -0.0867  0.0386
   81SOL    HW2  369   1.560   3.095   1.015 -0.1411 -1.1716  0.2440
   81SOL    HW3  370   1.451   3.147   1.106 -0.2102  0.2475 -0.6371
   81SOL    MW4  371   1.530   3.112   1.095 -0.3147 -0.1857 -0.0234
   82SOL     OW  372   0.004   1.446   0.480  0.2686  0.2705  0.0935
   82SOL    HW2  373  -0.060   1.384   0.445  1.4523 -0.1838 -1.3335
   82SOL    HW3  374  -0.034   1.476   0.562 -1.8527  0.1279 -0.8000
   82SOL    MW4  375  -0.009   1.442   0.486  0.1450  0.1917 -0.2126
   83SOL     OW  376   1.774   4.323   1.076 -0.6849 -0.3980 -0.3313
   83SOL    HW2  377   1.767   4.237   1.117  0.9173 -0.1526  0.4830
   83SOL    HW3  378   1.727   4.381   1.136  1.9409  0.0182  1.4106
   83SOL    MW4  379   1.767   4.319   1.089 -0.1271 -0.3104  0.0060
   84SOL     OW  380   2.082   1.953   0.752  0.4534  0.4764  0.2930
   84SOL    HW2  381   2.111   2.034   0.794 -2.0296  1.6989 -0.2461
   84SOL    HW3  382   2.075   1.976   0.659 -2.7902  0.4688  0.4822
   84SOL    MW4  383   2.085   1.967   0.745 -0.3023  0.6365  0.2469
   85SOL     OW  384   4.075   1.793   1.051  0.1941  0.0410  0.2953
   85SOL    HW2  385   4.004   1.746   1.095 -0.6253 -0.0610 -1.1199
   85SOL    HW3  386   4.039   1.818   0.966  1.8750 -0.0853 -0.4758
   85SOL    MW4  387   4.061   1.790   1.046  0.3076  0.0108  0.0070
   86SOL     OW  388   3.490   0.632   0.521  0.0652  0.1620  0.3738
   86SOL    HW2  389   3.578   0.670   0.519 -0.1812  0.7274  0.3802
   86SOL    HW3  390   3.432   0.704   0.498 -0.2554 -0.6734 -1.5667
   86SOL    MW4  391   3.494   0.646   0.518 -0.0100  0.1264  0.1187
   87SOL     OW  392   0.233   4.396   1.265 -0.2536 -0.0709 -0.1924
   87SOL    HW2  393   0.247   4.421   1.357  0.0730 -2.2640  0.3785
   87SOL    HW3  394   0.233   4.479   1.218  0.4292  1.0350  1.6868
   87SOL    MW4  395   0.235   4.410   1.271 -0.1204 -0.2141  0.1309
   88SOL     OW  396   3.348   4.300   0.213 -0.6427 -0.1554 -0.2516
   88SOL    HW2  397   3.362   4.296   0.118  1.3723  0.0756  0.0221
   88SOL    HW3  398   3.330   4.392   0.230 -0.4188 -0.0953 -0.3338
   88SOL    MW4  399   3.347   4.311   0.203 -0.3474 -0.1173 -0.2263
   89SOL     OW  400   0.173   1.580   0.834 -0.4909  0.1032  0.1957
   89SOL    HW2  401   0.240   1.516   0.811 -0.8102 -0.2949  0.3611
   89SOL    HW3  402   0.183   1.650   0.769 -0.2534 -0.1927 -0.0896
   89SOL    MW4  403   0.183   1.581   0.823 -0.5017  0.0117  0.1799
   90SOL     OW  404   0.866   2.808   0.884  0.3051 -0.4215  0.3873
   90SOL    HW2  405   0.836   2.729   0.839  0.0723 -1.4789  2.3422
   90SOL    HW3  406   0.877   2.781   0.975  0.8874  1.6356  0.9557
   90SOL    MW4  407   0.864   2.794   0.890  0.3513 -0.2894  0.7202
   91SOL     OW  408   2.885   0.031   1.119  0.0097  0.3761 -0.0451
   91SOL    HW2  409   2.953   0.070   1.174  0.4764  1.5209 -1.4120
   91SOL    HW3  410   2.803   0.065   1.153  0.1863 -0.0949  0.8718
   91SOL    MW4  411   2.883   0.040   1.130  0.0947  0.4650 -0.1045
   92SOL     OW  412   0.562   2.313   0.509 -0.3792 -0.1548 -0.6520
   92SOL    HW2  413   0.531   2.225   0.490  0.2304 -1.1080  2.6124
   92SOL    HW3  414   0.656   2.303   0.524 -0.4755  0.8910  0.7216
   92SOL    MW4  415   0.571   2.300   0.508 -0.3116 -0.1423 -0.0401
   93SOL     OW  416   1.766   4.059   1.167  0.2654 -0.4005 -0.1619
   93SOL    HW2  417   1.706   3.992   1.134 -1.5222  0.8685  0.4360
   93SOL    HW3  418   1.777   4.038   1.260 -0.3270  0.1667  0.0342
   93SOL    MW4  419   1.760   4.047   1.175 -0.0486 -0.1583 -0.0572
   94SOL     OW  420   1.255   0.149   0.760  0.0590  0.4621 -0.0382
   94SOL    HW2  421   1.192   0.093   0.806 -0.6547  1.6117  0.4039
   94SOL    HW3  422   1.260   0.111   0.672 -1.9357  0.8573 -0.3599
   94SOL    MW4  423   1.247   0.136   0.754 -0.2984  0.6659 -0.0222
   95SOL     OW  424   2.051   1.974   1.192 -0.1712  0.1082  0.0851
   95SOL    HW2  425   2.056   1.974   1.288 -0.9753  0.5237  0.1334
   95SOL    HW3  426   2.141   1.962   1.163  0.0858  0.0348  0.8939
   95SOL    MW4  427   2.063   1.972   1.201 -0.2434  0.1534  0.1981
   96SOL     OW  428   1.853   0.695   0.741  0.2184  0.0313  0.4290
   96SOL    HW2  429   1.883   0.609   0.770 -1.3332 -0.4991  0.4783
   96SOL    HW3  430   1.838   0.685   0.647 -0.5241  0.0863  0.5406
   96SOL    MW4  431   1.855   0.683   0.732 -0.0842 -0.0314  0.4503
   97SOL     OW  432   2.320   0.284   0.500  0.0813  0.1221 -0.6166
   97SOL    HW2  433   2.354   0.367   0.466  0.9728 -0.1329 -0.3745
   97SOL    HW3  434   2.361   0.275   0.587 -1.2232  0.1805  0.0194
   97SOL    MW4  435   2.330   0.294   0.507  0.0267  0.0961 -0.5007
   98SOL     OW  436   2.503   0.378   1.238 -0.1617  0.1102  0.8906
   98SOL    HW2  437   2.422   0.373   1.188 -0.1327  0.4879  0.8037
   98SOL    HW3  438   2.568   0.412   1.176 -0.4271  1.8578  1.5328
   98SOL    MW4  439   2.501   0.382   1.223 -0.1931  0.3906  0.9639
   99SOL     OW  440   3.761   0.309   0.535  0.4140  0.1300  0.4072
   99SOL    HW2  441   3.667   0.291   0.539  0.6388 -2.0496 -2.4603
   99SOL    HW3  442   3.802   0.222   0.539  2.2127  0.9183 -0.6335
   99SOL    MW4  443   3.754   0.295   0.536  0.6812 -0.0536 -0.1084
  100SOL     OW  444   0.461   0.197   0.911 -0.1384 -0.6177 -0.3737
  100SOL    HW2  445   0.539   0.196   0.856  0.3246 -1.9456  0.2729
  100SOL    HW3  446   0.394   0.239   0.858  0.8973  0.1044 -1.1149
  100SOL    MW4  447   0.462   0.202   0.897  0.0593 -0.6977 -0.3862
  101SOL     OW  448   3.486   0.238   0.539 -0.2971  0.2944 -0.0985
  101SOL    HW2  449   3.492   0.288   0.458 -0.7825 -0.5084 -0.6388
  101SOL    HW3  450   3.453   0.152   0.512 -0.3668 -0.0134  0.9334
  101SOL    MW4  451   3.482   0.233   0.525 -0.3703  0.1478 -0.0337
  102SOL     OW  452   1.499   0.571   0.488  0.3317  0.0994  0.5718
  102SOL    HW2  453   1.460   0.587   0.574  1.4672 -0.2673  1.1673
  102SOL    HW3  454   1.534   0.483   0.493 -0.7737 -0.4459 -0.7412
  102SOL    MW4  455   1.498   0.562   0.500  0.3357 -0.0210  0.4771
  103SOL     OW  456   1.096   1.516   1.130 -0.4608  0.0115 -0.5171
  103SOL    HW2  457   1.100   1.442   1.190  1.7730  0.2605 -0.2898
  103SOL    HW3  458   1.072   1.477   1.046 -1.7663 -0.6026  0.1399
  103SOL    MW4  459   1.094   1.501   1.127 -0.3383 -0.0366 -0.4005
  104SOL     OW  460   0.222   0.506   1.141 -0.0295 -0.2261 -0.2391
  104SOL    HW2  461   0.219   0.602   1.132  0.4751 -0.1436  0.4339
  104SOL    HW3  462   0.135   0.477   1.116 -0.7266  0.5630  1.1930
  104SOL    MW4  463   0.210   0.515   1.137 -0.0549 -0.1110  0.0387
  105SOL     OW  464   3.949   0.106   0.477  0.2830  0.1869 -0.1974
  105SOL    HW2  465   3.986   0.164   0.410  0.4126 -0.4774 -0.7096
  105SOL    HW3  466   3.934   0.023   0.431  0.0061 -0.1541  0.5013
  105SOL    MW4  467   3.952   0.103   0.462  0.2635  0.0542 -0.1727
  106SOL     OW  468   0.744   3.082   0.857 -0.3397  0.0785 -0.1519
  106SOL    HW2  469   0.819   3.105   0.804 -0.5448  0.6476 -0.1917
  106SOL    HW3  470   0.753   2.987   0.871  0.4727  0.1724 -0.0088
  106SOL    MW4  471   0.755   3.072   0.852 -0.2595  0.1659 -0.1383
  107SOL     OW  472   3.370   4.029   0.476  0.4048  0.6981 -0.4778
  107SOL    HW2  473   3.425   4.106   0.461 -0.1164  1.1676 -0.0491
  107SOL    HW3  474   3.431   3.957   0.488  0.9719  1.4276  1.2065
  107SOL    MW4  475   3.385   4.030   0.476  0.4106  0.8554 -0.1990
  108SOL     OW  476   1.813   1.911   0.671  0.2466 -0.0328  0.0482
  108SOL    HW2  477   1.825   1.822   0.637 -1.4964 -0.7224  1.1390
  108SOL    HW3  478   1.892   1.927   0.723  1.2245 -0.3876 -1.3001
  108SOL    MW4  479   1.825   1.901   0.673  0.1458 -0.1706  0.0142
  109SOL     OW  480   2.725   4.275   1.077 -0.0170  0.0831  0.1316
  109SOL    HW2  481   2.719   4.243   0.987  0.7738 -0.4911  0.2785
  109SOL    HW3  482   2.744   4.198   1.130  0.7408  0.5993  0.6342
  109SOL    MW4  483   2.727   4.261   1.072  0.1872  0.0749  0.2172
  110SOL     OW  484   3.831   3.083   1.087 -0.4192  0.1239  0.0625
  110SOL    HW2  485   3.886   3.118   1.157 -1.8160 -0.3342  1.4271
  110SOL    HW3  486   3.812   2.993   1.113 -1.8871  0.3045 -0.2937
  110SOL    MW4  487   3.835   3.076   1.099 -0.7970  0.0873  0.1955
  111SOL     OW  488   1.572   2.610   0.852  0.5380  0.2448  0.0437
  111SOL    HW2  489   1.660   2.622   0.887  0.7787 -0.1363 -0.4269
  111SOL    HW3  490   1.555   2.690   0.802  0.2472  0.7313  0.8916
  111SOL    MW4  491   1.581   2.623   0.850  0.5316  0.2587  0.0935
  112SOL     OW  492   2.489   1.681   0.861  0.2929  0.4115 -0.3640
  112SOL    HW2  493   2.537   1.651   0.785  0.2807 -0.3709 -0.0702
  112SOL    HW3  494   2.399   1.694   0.830 -0.0814 -1.5001 -0.1066
  112SOL    MW4  495   2.483   1.679   0.847  0.2418  0.0559 -0.2913
  113SOL     OW  496   3.361   0.042   1.173  0.0959 -0.3573  0.4326
  113SOL    HW2  497   3.364   0.041   1.077  1.3942  0.3424  0.4541
  113SOL    HW3  498   3.369  -0.051   1.197  0.7504 -0.4557 -0.1213
  113SOL    MW4  499   3.362   0.029   1.163  0.3536 -0.2779  0.3623
  114SOL     OW  500   2.243   3.484   1.138  0.3948  0.0423 -0.5135
  114SOL    HW2  501   2.172   3.541   1.166  0.0906 -1.1734  1.2396
  114SOL    HW3  502   2.250   3.499   1.043 -1.5674  0.8539 -0.5389
  114SOL    MW4  503   2.235   3.493   1.129  0.0958 -0.0110 -0.2856
  115SOL     OW  504   2.882   3.876   1.120 -0.1703  0.4383 -0.3296
  115SOL    HW2  505   2.894   3.869   1.025 -0.0941  0.2204 -0.3037
  115SOL    HW3  506   2.880   3.785   1.151 -0.6918  0.4918 -0.1852
  115SOL    MW4  507   2.883   3.863   1.111 -0.2291  0.4165 -0.3073
  116SOL     OW  508   1.840   0.843   1.209  0.1009  0.0049 -0.1094
  116SOL    HW2  509   1.837   0.859   1.304 -1.3582 -0.3095 -0.0766
  116SOL    HW3  510   1.923   0.798   1.195  0.1533 -0.3071  1.0880
  116SOL    MW4  511   1.850   0.839   1.220 -0.0846 -0.0778  0.0528
  117SOL     OW  512   0.070   3.380   0.380 -0.3800 -0.0605 -0.2532
  117SOL    HW2  513   0.157   3.366   0.416 -1.1705 -0.4847  1.5255
  117SOL    HW3  514   0.083   3.380   0.285  1.6208  0.3955  0.0064
  117SOL    MW4  515   0.083   3.379   0.372 -0.2204 -0.0563  0.0158
  118SOL     OW  516   0.830   0.416   0.841  0.3382 -0.4462  0.5029
  118SOL    HW2  517   0.910   0.387   0.797  0.3780  0.6646 -0.1733
  118SOL    HW3  518   0.853   0.421   0.934  1.3889  0.9257  0.1878
  118SOL    MW4  519   0.843   0.413   0.848  0.4821 -0.1186  0.3721
  119SOL     OW  520   4.482   1.915   1.134  0.6960  0.0966 -0.1879
  119SOL    HW2  521   4.454   1.887   1.046 -0.3516  0.6934 -0.0568
  119SOL    HW3  522   4.402   1.951   1.174  0.8726 -1.3032  1.4638
  119SOL    MW4  523   4.468   1.916   1.127  0.5813 -0.0093  0.0473
  120SOL     OW  524   1.675   3.837   0.640 -0.2186 -0.6972  0.6684
  120SOL    HW2  525   1.727   3.915   0.657 -1.3557  0.3254 -0.4769
  120SOL    HW3  526   1.738   3.765   0.646  0.8523  0.2947  1.6654
  120SOL    MW4  527   1.691   3.837   0.643 -0.2271 -0.4313  0.6488
  121SOL     OW  528   0.466   4.262   1.182  0.0671 -0.2321 -0.1469
  121SOL    HW2  529   0.545   4.308   1.212  0.3297 -0.5216 -0.4050
  121SOL    HW3  530   0.394   4.318   1.211  0.4022  0.5629 -0.8343
  121SOL    MW4  531   0.467   4.276   1.190  0.1460 -0.1655 -0.2716
  122SOL     OW  532   2.473   2.840   0.709 -0.2254 -0.6613 -0.0149
  122SOL    HW2  533   2.472   2.781   0.784 -1.5132 -1.2193 -0.4466
  122SOL    HW3  534   2.471   2.928   0.746  1.0711 -0.8850  0.6223
  122SOL    MW4  535   2.473   2.844   0.724 -0.2239 -0.7646  0.0122
  123SOL     OW  536   0.275   1.326   0.516 -0.2204 -0.4000 -0.1189
  123SOL    HW2  537   0.202   1.338   0.455 -0.0464  0.8268 -0.0859
  123SOL    HW3  538   0.351   1.312   0.459 -0.3588 -1.0088 -0.1593
  123SOL    MW4  539   0.275   1.325   0.500 -0.2157 -0.3185 -0.1199
  124SOL     OW  540   2.654   3.552   0.393 -0.3369 -0.2848  0.5471
  124SOL    HW2  541   2.731   3.559   0.336 -2.1031  0.7261 -1.8242
  124SOL    HW3  542   2.650   3.459   0.415  1.5562 -0.3570  0.7345
  124SOL    MW4  543   2.664   3.541   0.388 -0.3204 -0.1609  0.2589
  125SOL     OW  544   1.843   1.464   0.870  0.1077  0.2026  0.1585
  125SOL    HW2  545   1.755   1.500   0.883 -0.0110 -0.4288  1.0773
  125SOL    HW3  546   1.832   1.369   0.879  0.9443  0.1474  0.6131
  125SOL    MW4  547   1.830   1.456   0.873  0.2025  0.1122  0.3397
  126SOL     OW  548   1.907   0.449   0.871  0.0382 -0.1088  0.3364
  126SOL    HW2  549   2.000   0.433   0.854  0.1942  2.2529 -1.3666
  126SOL    HW3  550   1.896   0.430   0.964  2.2813 -0.2472  0.6158
  126SOL    MW4  551   1.918   0.445   0.881  0.3548  0.1846  0.1486
  127SOL     OW  552   3.516   2.017   0.427 -0.5737 -0.1260 -0.1277
  127SOL    HW2  553   3.589   2.067   0.464 -0.1182 -1.7604  1.1956
  127SOL    HW3  554   3.552   1.976   0.349 -0.7054  0.8655 -0.7216
  127SOL    MW4  555   3.530   2.018   0.422 -0.5310 -0.2108 -0.0315
  128SOL     OW  556   0.667   4.365   0.241 -0.0801  0.0760  0.0235
  128SOL    HW2  557   0.728   4.416   0.294  1.6963 -0.2738 -1.6503
  128SOL    HW3  558   0.634   4.426   0.176 -0.0526 -0.2291 -0.2769
  128SOL    MW4  559   0.671   4.379   0.240  0.1579 -0.0110 -0.2370
  129SOL     OW  560   0.181   3.876   0.883  0.0818 -0.5737  0.6762
  129SOL    HW2  561   0.200   3.864   0.976  0.6372 -0.9062  0.5212
  129SOL    HW3  562   0.204   3.967   0.865  1.0601 -0.8275  0.6095
  129SOL    MW4  563   0.186   3.887   0.893  0.2842 -0.6509  0.6469
  130SOL     OW  564   1.583   1.601   0.909 -0.1984  0.0676  0.5068
  130SOL    HW2  565   1.507   1.559   0.868 -0.3558  0.2030  0.6575
  130SOL    HW3  566   1.578   1.692   0.881  0.7349 -0.2303 -0.6737
  130SOL    MW4  567   1.572   1.607   0.900 -0.0960  0.0463  0.3710
  131SOL     OW  568   2.281   2.763   0.511 -0.1968 -0.4099 -0.0523
  131SOL    HW2  569   2.348   2.768   0.579 -0.9273  0.0868  0.6395
  131SOL    HW3  570   2.284   2.672   0.481  1.1940 -0.2483 -0.4533
  131SOL    MW4  571   2.290   2.752   0.516 -0.1097 -0.3231 -0.0139
  132SOL     OW  572   2.976   0.765   1.156 -0.0761 -0.4093  0.4818
  132SOL    HW2  573   2.988   0.790   1.065 -0.9510 -0.9661  0.2093
  132SOL    HW3  574   3.062   0.778   1.196  0.1721  0.3474 -0.2939
  132SOL    MW4  575   2.989   0.770   1.149 -0.1590 -0.3830  0.3436
  133SOL     OW  576   3.388   0.010   0.896  0.3597 -0.1597  0.2309
  133SOL    HW2  577   3.315   0.050   0.847  1.0117  0.7056 -0.0423
  133SOL    HW3  578   3.365  -0.082   0.901 -1.7712  0.4259  1.9287
  133SOL    MW4  579   3.375   0.003   0.890  0.1645  0.0317  0.4188
  134SOL     OW  580   1.027   2.024   0.858  0.3553  0.3379 -0.1224
  134SOL    HW2  581   1.011   1.947   0.803 -0.1330 -0.6737  1.3833
  134SOL    HW3  582   0.994   1.998   0.944  1.4998  1.7331  0.7483
  134SOL    MW4  583   1.020   2.010   0.862  0.4420  0.3886  0.1912
  135SOL     OW  584   2.355   0.006   0.824 -0.3754  0.2107 -0.0262
  135SOL    HW2  585   2.392   0.084   0.782 -0.4117 -0.1359 -0.7097
  135SOL    HW3  586   2.262   0.027   0.835  0.0464  1.1655  1.8830
  135SOL    MW4  587   2.348   0.019   0.820 -0.3245  0.2909  0.1355
  136SOL     OW  588   4.342   1.638   0.310  0.1714 -0.8171  0.1650
  136SOL    HW2  589   4.385   1.579   0.372 -0.1849 -2.1448 -0.8366
  136SOL    HW3  590   4.405   1.648   0.239  0.1051 -0.2218  0.1859
  136SOL    MW4  591   4.356   1.632   0.309  0.1154 -0.9137  0.0356
  137SOL     OW  592   0.211   1.635   0.411  0.2754 -0.0527 -0.3596
  137SOL    HW2  593   0.138   1.578   0.435 -1.0367  1.7050 -0.0485
  137SOL    HW3  594   0.213   1.701   0.480  2.2186 -0.1072 -0.3388
  137SOL    MW4  595   0.201   1.636   0.424  0.3587  0.1720 -0.3158
  138SOL     OW  596   3.096   2.275   0.940  0.3854  0.2398  0.7041
  138SOL    HW2  597   3.169   2.291   0.880  0.2141 -0.6448  0.2487
  138SOL    HW3  598   3.111   2.186   0.972 -0.5344  0.0248  0.5421
  138SOL    MW4  599   3.108   2.265   0.936  0.2413  0.0947  0.6227
  139SOL     OW  600   1.641   4.044   0.206  0.1837 -0.1676 -0.7502
  139SOL    HW2  601   1.564   4.016   0.156  1.1194  0.9246 -2.9075
  139SOL    HW3  602   1.660   3.971   0.264 -2.6434 -0.3336  0.0418
  139SOL    MW4  603   1.634   4.031   0.207 -0.0660 -0.0458 -0.9304
  140SOL     OW  604   2.481   2.640   0.919  0.0134  0.3706 -0.7094
  140SOL    HW2  605   2.550   2.658   0.983 -1.5132  1.0035  0.7664
  140SOL    HW3  606   2.486   2.545   0.906  0.9319  0.3625 -0.3533
  140SOL    MW4  607   2.491   2.630   0.926 -0.0668  0.4530 -0.4677
  141SOL     OW  608   0.126   2.997   0.591 -0.2016  0.1252  0.7562
  141SOL    HW2  609   0.064   2.926   0.578 -0.4378  0.6733 -1.3940
  141SOL    HW3  610   0.076   3.076   0.572  0.9282  0.6192 -0.2440
  141SOL    MW4  611   0.111   2.998   0.587 -0.0837  0.2625  0.3405
  142SOL     OW  612   3.236   0.420   0.204 -0.0394 -0.3149  0.6352
  142SOL    HW2  613   3.327   0.402   0.229 -0.4898 -0.3005  2.3737
  142SOL    HW3  614   3.242   0.459   0.117  1.6610  0.1214  0.9358
  142SOL    MW4  615   3.249   0.423   0.196  0.1254 -0.2554  0.9042
  143SOL     OW  616   0.670   3.912   1.092  0.0012 -0.4192 -0.0727
  143SOL    HW2  617   0.682   3.819   1.114 -2.9508 -0.9568 -0.4505
  143SOL    HW3  618   0.596   3.939   1.146 -0.6252  1.0763 -1.6493
  143SOL    MW4  619   0.661   3.903   1.102 -0.4709 -0.2930 -0.3306
  144SOL     OW  620   2.225   1.321   0.420 -0.0324 -0.0290 -0.3688
  144SOL    HW2  621   2.156   1.254   0.427  1.7039 -1.9578 -1.1624
  144SOL    HW3  622   2.238   1.331   0.326  1.5135 -0.5062 -0.2265
  144SOL    MW4  623   2.217   1.313   0.408  0.4010 -0.3464 -0.4547
  145SOL     OW  624   0.938   2.404   1.228  0.0810 -0.2483 -0.3038
  145SOL    HW2  625   0.955   2.425   1.320  1.2031  0.1620 -0.5998
  145SOL    HW3  626   0.940   2.488   1.183 -0.4881 -0.4460 -0.7125
  145SOL    MW4  627   0.940   2.418   1.234  0.1540 -0.2203 -0.3968
  146SOL     OW  628   0.663   3.871   0.805  0.0370 -0.7585  0.2758
  146SOL    HW2  629   0.576   3.841   0.779 -0.3268  0.2028  0.3858
  146SOL    HW3  630   0.655   3.891   0.898  0.6251 -1.5729  0.5048
  146SOL    MW4  631   0.650   3.870   0.814  0.0666 -0.7391  0.3206
  147SOL     OW  632   2.011   3.735   0.425  0.3446  0.2445  0.3923
  147SOL    HW2  633   2.060   3.817   0.428  0.3118  0.3218 -0.8562
  147SOL    HW3  634   2.067   3.674   0.377 -0.5250  0.1641 -0.5445
  147SOL    MW4  635   2.025   3.738   0.419  0.2253  0.2439  0.1040
  148SOL     OW  636   3.896   2.920   0.425 -0.2611 -0.6364 -0.2824
  148SOL    HW2  637   3.966   2.976   0.390 -0.8193  0.2854  0.0888
  148SOL    HW3  638   3.942   2.844   0.462  0.6558  0.7308  1.4232
  148SOL    MW4  639   3.911   2.917   0.425 -0.2141 -0.3347 -0.0084
  149SOL     OW  640   3.761   3.613   1.215  0.0963  0.2682  0.0723
  149SOL    HW2  641   3.841   3.583   1.172  0.1851  0.2437  0.2562
  149SOL    HW3  642   3.783   3.616   1.308 -0.3529 -0.4683  0.2012
  149SOL    MW4  643   3.774   3.609   1.221  0.0489  0.1681  0.1136
  150SOL     OW  644   4.450   2.764   0.532  0.2959 -0.5083  0.0116
  150SOL    HW2  645   4.452   2.728   0.621  1.3684 -0.4283  0.0245
  150SOL    HW3  646   4.528   2.727   0.490  1.5314  1.9377  0.0779
  150SOL    MW4  647   4.460   2.754   0.538  0.6003 -0.1748  0.0221
  151SOL     OW  648   3.825   3.933   0.861 -0.1016  0.3013 -0.3692
  151SOL    HW2  649   3.894   3.893   0.808  0.5588 -0.0338  0.7461
  151SOL    HW3  650   3.808   4.017   0.817  0.9015  0.3234 -0.7352
  151SOL    MW4  651   3.832   3.939   0.848  0.1180  0.2599 -0.2703
  152SOL     OW  652   4.457   4.613   0.343  0.7845  0.2031 -0.5006
  152SOL    HW2  653   4.525   4.547   0.359 -1.1606 -1.4582  1.2125
  152SOL    HW3  654   4.450   4.617   0.248  1.7000 -1.2840 -0.6581
  152SOL    MW4  655   4.465   4.605   0.333  0.6490 -0.2117 -0.2954
  153SOL     OW  656   1.805   1.216   0.559 -0.1271 -0.1439 -0.4598
  153SOL    HW2  657   1.804   1.212   0.655  0.1450 -1.3334 -0.4916
  153SOL    HW3  658   1.893   1.187   0.535  0.4433  2.0077 -1.0161
  153SOL    MW4  659   1.816   1.212   0.568 -0.0159 -0.0169 -0.5374
  154SOL     OW  660   0.952   1.790   0.738  0.2989 -0.4278 -0.5922
  154SOL    HW2  661   0.893   1.725   0.776  2.3032 -2.4186 -0.7875
  154SOL    HW3  662   0.918   1.803   0.649  0.0598 -1.4487 -0.6611
  154SOL    MW4  663   0.939   1.783   0.731  0.5317 -0.8252 -0.6270
  155SOL     OW  664   1.131   2.802   0.805  0.5056 -0.2241 -0.0910
  155SOL    HW2  665   1.039   2.782   0.825  0.9744 -1.1749  1.1836
  155SOL    HW3  666   1.148   2.885   0.848  0.4315 -0.3936  0.2694
  155SOL    MW4  667   1.121   2.810   0.813  0.5578 -0.3719  0.1247
  156SOL     OW  668   1.303   3.511   1.100  0.0471  0.1929  0.5544
  156SOL    HW2  669   1.316   3.418   1.120  0.4612  0.0981 -0.1564
  156SOL    HW3  670   1.341   3.522   1.013 -0.4280  0.9311  0.4440
  156SOL    MW4  671   1.310   3.500   1.092  0.0390  0.2782  0.4462
  157SOL     OW  672   2.773   0.075   0.635  0.1635  0.1742  0.2807
  157SOL    HW2  673   2.781  -0.008   0.589  0.8684  0.4186 -0.0483
  157SOL    HW3  674   2.817   0.061   0.719  0.4952  0.2800  0.1281
  157SOL    MW4  675   2.780   0.062   0.640  0.3006  0.2204  0.2171
  158SOL     OW  676   1.070   4.624   0.868 -0.3157 -0.0051 -0.1401
  158SOL    HW2  677   1.071   4.540   0.822  0.9887 -1.3713  2.2403
  158SOL    HW3  678   0.979   4.651   0.867 -0.5869 -0.8984 -1.9033
  158SOL    MW4  679   1.058   4.616   0.862 -0.1794 -0.3033 -0.0587
  159SOL     OW  680   3.509   4.251   0.429  0.2590  0.1096 -0.3319
  159SOL    HW2  681   3.460   4.290   0.501  0.5510 -0.7170  0.3213
  159SOL    HW3  682   3.455   4.267   0.352 -0.2940  0.5640  0.1486
  159SOL    MW4  683   3.495   4.258   0.428  0.2248  0.0601 -0.1823
  160SOL     OW  684   4.313   2.414   0.982 -0.4005 -0.1662  0.0783
  160SOL    HW2  685   4.377   2.442   1.047 -1.0436  1.7366 -0.0918
  160SOL    HW3  686   4.353   2.337   0.941  2.0015  1.2996 -0.4128
  160SOL    MW4  687   4.326   2.407   0.985 -0.1678  0.2780 -0.0090
  161SOL     OW  688   1.267   2.163   0.563  0.1922 -0.3903  0.6013
  161SOL    HW2  689   1.295   2.243   0.519  1.4875 -0.5721  1.0639
  161SOL    HW3  690   1.259   2.189   0.655 -1.5698 -0.2455  0.4118
  161SOL    MW4  691   1.270   2.177   0.570  0.1307 -0.3953  0.6374
  162SOL     OW  692   2.683   4.272   0.794  0.4002 -0.2736  0.2418
  162SOL    HW2  693   2.605   4.323   0.772 -0.0948 -0.7143  0.9552
  162SOL    HW3  694   2.686   4.203   0.726  0.5235  0.1180 -0.1513
  162SOL    MW4  695   2.673   4.269   0.782  0.3514 -0.2799  0.2840
  163SOL     OW  696   0.993   1.350   0.289  0.0784 -0.3281 -0.4026
  163SOL    HW2  697   1.041   1.367   0.208 -1.1652 -0.1020 -1.1094
  163SOL    HW3  698   0.971   1.437   0.322  0.0728 -0.4295 -0.1426
  163SOL    MW4  699   0.997   1.364   0.282 -0.0865 -0.3116 -0.4615
  164SOL     OW  700   0.645   1.285   1.255  0.3821 -0.2576 -0.2943
  164SOL    HW2  701   0.579   1.232   1.209 -0.1334  0.7285 -0.7034
  164SOL    HW3  702   0.658   1.361   1.199 -0.1786  0.9166  1.1488
  164SOL    MW4  703   0.638   1.288   1.241  0.2401  0.0274 -0.1577
  165SOL     OW  704   0.269   4.144   0.834 -0.2736 -0.0703 -0.1230
  165SOL    HW2  705   0.283   4.147   0.739  0.4452  0.1367 -0.0115
  165SOL    HW3  706   0.341   4.196   0.871 -0.9999  0.5218  0.4916
  165SOL    MW4  707   0.280   4.152   0.826 -0.2746  0.0348 -0.0272
  166SOL     OW  708   1.562   2.816   0.643 -0.1667 -0.2723  0.4976
  166SOL    HW2  709   1.506   2.853   0.574 -1.7050 -2.1259  0.7160
  166SOL    HW3  710   1.646   2.800   0.600 -0.4650  0.5495 -0.4008
  166SOL    MW4  711   1.566   2.819   0.628 -0.4091 -0.4084  0.4079
  167SOL     OW  712   3.640   3.067   0.454 -0.1852 -0.7205 -0.3126
  167SOL    HW2  713   3.665   3.158   0.436 -0.4493 -0.6951 -0.5526
  167SOL    HW3  714   3.723   3.019   0.453 -0.0972 -0.5630 -0.6783
  167SOL    MW4  715   3.655   3.073   0.451 -0.2084 -0.6967 -0.3925
  168SOL     OW  716   1.437   1.956   0.610  0.5134 -0.5039  0.2350
  168SOL    HW2  717   1.430   1.934   0.703  1.6006 -2.6177 -0.1405
  168SOL    HW3  718   1.381   2.032   0.599 -1.8436 -1.8981  2.0772
  168SOL    MW4  719   1.429   1.963   0.621  0.3461 -0.9667  0.4285
  169SOL     OW  720   3.170   0.086   0.729 -0.3426  0.5375  0.5818
  169SOL    HW2  721   3.182   0.181   0.733  1.5987  0.3715 -0.5917
  169SOL    HW3  722   3.076   0.073   0.733 -0.6934  2.5955 -0.6117
  169SOL    MW4  723   3.159   0.097   0.730 -0.1326  0.7871  0.2695
  170SOL     OW  724   1.708   0.070   0.473 -0.2545  0.2621 -0.1736
  170SOL    HW2  725   1.798   0.078   0.503 -0.1215 -0.0973 -0.4732
  170SOL    HW3  726   1.699  -0.022   0.450 -0.2949  0.5698 -1.4255
  170SOL    MW4  727   1.719   0.059   0.474 -0.2421  0.2553 -0.3783
  171SOL     OW  728   4.192   2.867   0.468  0.4570  0.1192  0.4182
  171SOL    HW2  729   4.286   2.849   0.463  0.3207 -0.1592 -1.5781
  171SOL    HW3  730   4.187   2.961   0.486  1.1330  0.4880 -1.2115
  171SOL    MW4  731   4.204   2.877   0.470  0.5279  0.1311 -0.0602
  172SOL     OW  732   1.062   0.839   0.848  0.4008  0.0293 -0.7668
  172SOL    HW2  733   0.967   0.834   0.840  0.2606  2.0648 -0.6982
  172SOL    HW3  734   1.081   0.795   0.931 -0.7170  1.6021  0.3527
  172SOL    MW4  735   1.052   0.832   0.858  0.2348  0.5054 -0.6101
  173SOL     OW  736   2.449   0.435   1.505  0.3362  0.0496  0.2088
  173SOL    HW2  737   2.362   0.404   1.530  0.5439  0.5254  1.5395
  173SOL    HW3  738   2.459   0.406   1.414 -0.0730 -2.4827  0.9326
  173SOL    MW4  739   2.439   0.427   1.496  0.3097 -0.2218  0.4798
  174SOL     OW  740   4.095   0.932   1.235 -0.3572  0.0419  0.0828
  174SOL    HW2  741   4.159   0.876   1.191  0.7240  0.7571  0.7166
  174SOL    HW3  742   4.095   0.901   1.326 -0.3330  0.5376  0.2547
  174SOL    MW4  743   4.104   0.921   1.242 -0.2112  0.2017  0.1891
  175SOL     OW  744   2.451   2.874   1.239 -0.5176 -0.0617 -0.3657
  175SOL    HW2  745   2.453   2.855   1.333 -0.0836  0.6197 -0.2363
  175SOL    HW3  746   2.508   2.807   1.201 -1.1108 -0.6650 -0.2056
  175SOL    MW4  747   2.459   2.862   1.247 -0.5388 -0.0515 -0.3276
  176SOL     OW  748   2.116   1.549   0.916 -0.0473  0.1380 -0.1647
  176SOL    HW2  749   2.165   1.476   0.877  0.4695  0.3088  0.1543
  176SOL    HW3  750   2.024   1.527   0.901 -0.0478 -2.1908  2.7370
  176SOL    MW4  751   2.111   1.536   0.909  0.0210 -0.1467  0.2602
  177SOL     OW  752   1.335   1.208   0.934 -0.4282 -0.0587  0.3194
  177SOL    HW2  753   1.344   1.302   0.918 -1.8512  0.2821  1.4655
  177SOL    HW3  754   1.360   1.197   1.026  0.3932 -0.9101  0.0063
  177SOL    MW4  755   1.340   1.219   0.944 -0.5076 -0.1261  0.4293
  178SOL     OW  756   0.247   2.463   0.679 -0.1927 -0.5025 -0.2059
  178SOL    HW2  757   0.316   2.486   0.617 -0.1084 -2.0037 -0.6900
  178SOL    HW3  758   0.283   2.389   0.729 -0.8846 -0.3515  0.5207
  178SOL    MW4  759   0.261   2.456   0.677 -0.2728 -0.6804 -0.1739
  179SOL     OW  760   3.125   3.994   1.221 -0.2523 -0.0165 -0.1011
  179SOL    HW2  761   3.048   3.943   1.194 -1.2582  0.9738  0.8309
  179SOL    HW3  762   3.123   3.992   1.317  0.9005  0.0189 -0.0673
  179SOL    MW4  763   3.114   3.987   1.230 -0.2329  0.1187  0.0262
  180SOL     OW  764   3.760   4.417   0.417 -0.3790 -0.1462  0.0019
  180SOL    HW2  765   3.770   4.406   0.511  0.1519 -1.0039 -0.1498
  180SOL    HW3  766   3.667   4.399   0.400 -0.0740 -1.9593  0.1118
  180SOL    MW4  767   3.749   4.413   0.427 -0.2687 -0.4983 -0.0036
  181SOL     OW  768   1.156   2.270   1.115 -0.0421 -0.1837  0.6731
  181SOL    HW2  769   1.068   2.303   1.134  0.3626  0.3949  1.5749
  181SOL    HW3  770   1.160   2.268   1.020 -1.1506 -0.5337  0.6210
  181SOL    MW4  771   1.145   2.274   1.105 -0.1348 -0.1533  0.7852
  182SOL     OW  772   1.569   4.438   1.232 -0.4512  0.4592 -0.1637
  182SOL    HW2  773   1.505   4.372   1.206  0.0094  0.3649 -1.0755
  182SOL    HW3  774   1.569   4.435   1.328  0.7994 -2.1020 -0.1854
  182SOL    MW4  775   1.561   4.429   1.241 -0.2254  0.1087 -0.2868
  183SOL     OW  776   0.849   2.272   0.550 -0.0356  0.3128  0.0395
  183SOL    HW2  777   0.912   2.343   0.562 -0.1650  0.5052 -0.4024
  183SOL    HW3  778   0.850   2.225   0.633 -0.4189  1.2009  0.5529
  183SOL    MW4  779   0.858   2.275   0.562 -0.1033  0.4554  0.0490
  184SOL     OW  780   1.566   2.854   1.220  0.3031 -0.4731 -0.2206
  184SOL    HW2  781   1.510   2.788   1.180 -0.7041  0.2828 -0.0796
  184SOL    HW3  782   1.541   2.936   1.178  0.5903  0.0307  0.5709
  184SOL    MW4  783   1.556   2.856   1.209  0.2081 -0.3068 -0.0976
  185SOL     OW  784   3.747   4.414   1.232  0.0046  0.1239 -0.3917
  185SOL    HW2  785   3.831   4.379   1.203  0.0188  0.5116 -0.8257
  185SOL    HW3  786   3.753   4.508   1.215 -0.1838  0.2849  0.3934
  185SOL    MW4  787   3.759   4.422   1.226 -0.0181  0.1965 -0.3455
  186SOL     OW  788   3.713   4.641   0.857 -0.5851 -0.4931  0.7632
  186SOL    HW2  789   3.618   4.647   0.850 -0.3475  3.1321 -0.5076
  186SOL    HW3  790   3.731   4.649   0.951 -1.5229 -1.1421  0.9992
  186SOL    MW4  791   3.703   4.643   0.868 -0.6776 -0.1001  0.6266
  187SOL     OW  792   0.339   1.351   0.777  0.1141  0.4183 -0.2017
  187SOL    HW2  793   0.356   1.267   0.821 -0.1888  0.7416  0.5303
  187SOL    HW3  794   0.332   1.328   0.685  1.4959 -0.1654 -0.1843
  187SOL    MW4  795   0.340   1.337   0.771  0.2565  0.3840 -0.1028
  188SOL     OW  796   0.667   3.086   1.123 -0.2254 -0.0702  0.0771
  188SOL    HW2  797   0.746   3.131   1.154 -1.3204  1.6570  0.3769
  188SOL    HW3  798   0.676   3.085   1.028  0.7425 -0.9792  0.1644
  188SOL    MW4  799   0.679   3.092   1.115 -0.2421  0.0377  0.1283
  189SOL     OW  800   3.857   0.819   1.093  0.2148  0.1944 -0.0868
  189SOL    HW2  801   3.838   0.735   1.134 -1.2500  0.4178 -0.2630
  189SOL    HW3  802   3.940   0.847   1.132 -0.2835 -0.4040  1.4367
  189SOL    MW4  803   3.865   0.812   1.103 -0.0439  0.1449  0.0910
  190SOL     OW  804   2.023   0.627   0.452  0.2298 -0.0847 -0.2067
  190SOL    HW2  805   2.036   0.532   0.450  0.9210 -0.0253  1.0648
  190SOL    HW3  806   1.929   0.638   0.434 -0.0827 -1.0789  0.7433
  190SOL    MW4  807   2.012   0.616   0.449  0.2794 -0.2081  0.0864
  191SOL     OW  808   3.123   0.618   0.363 -0.0684  0.0743  0.1833
  191SOL    HW2  809   3.106   0.578   0.448  1.5436  0.9259  0.9318
  191SOL    HW3  810   3.157   0.547   0.309 -0.5209 -0.3343  0.4323
  191SOL    MW4  811   3.125   0.604   0.367  0.0844  0.1327  0.3149
  192SOL     OW  812   1.402   2.671   1.072  0.2241  0.1573 -0.0610
  192SOL    HW2  813   1.377   2.590   1.116 -0.0557 -0.2476 -0.9513
  192SOL    HW3  814   1.438   2.642   0.988 -0.3111  0.9809 -0.5753
  192SOL    MW4  815   1.404   2.656   1.067  0.1166  0.2124 -0.2465
  193SOL     OW  816   2.914   3.586   0.275 -0.1652 -0.0709  0.2769
  193SOL    HW2  817   2.972   3.544   0.212  0.1499  0.2265  0.3650
  193SOL    HW3  818   2.957   3.573   0.359 -0.3314 -0.0295  0.3680
  193SOL    MW4  819   2.927   3.579   0.278 -0.1454 -0.0265  0.3005
  194SOL     OW  820   3.724   2.191   1.047  0.2013 -0.6290 -0.6582
  194SOL    HW2  821   3.685   2.255   1.106  0.2933  0.2936 -1.5878
  194SOL    HW3  822   3.725   2.109   1.097  0.1924  0.1188  0.5686
  194SOL    MW4  823   3.719   2.188   1.061  0.2122 -0.4084 -0.6189
  195SOL     OW  824   2.664   2.720   1.121 -0.1940  1.0494  0.2317
  195SOL    HW2  825   2.690   2.630   1.137  0.4689  0.8921 -1.5566
  195SOL    HW3  826   2.745   2.770   1.123 -0.6074  1.6728  1.6102
  195SOL    MW4  827   2.678   2.715   1.123 -0.1612  1.1110  0.1777
  196SOL     OW  828   3.200   0.347   0.798 -0.2184 -0.2228  0.0167
  196SOL    HW2  829   3.276   0.402   0.779 -0.1436 -0.2602  0.1996
  196SOL    HW3  830   3.188   0.356   0.893 -0.4389 -0.2211 -0.0108
  196SOL    MW4  831   3.208   0.356   0.808 -0.2377 -0.2275  0.0371
  197SOL     OW  832   0.787   2.144   0.784  0.1738 -0.0129 -0.2068
  197SOL    HW2  833   0.873   2.104   0.793  0.3750  0.0427 -1.7145
  197SOL    HW3  834   0.726   2.071   0.786  0.3454 -0.1545 -0.1861
  197SOL    MW4  835   0.790   2.129   0.785  0.2230 -0.0241 -0.4030
  198SOL     OW  836   1.562   1.103   0.797  0.3333  0.0652  0.1201
  198SOL    HW2  837   1.494   1.144   0.851  0.3983  1.2296 -0.6627
  198SOL    HW3  838   1.562   1.012   0.825  0.0715  0.5502  1.7817
  198SOL    MW4  839   1.553   1.096   0.808  0.3072  0.2828  0.2360
  199SOL     OW  840   1.209   1.688   0.788 -0.5071  0.3131 -0.3313
  199SOL    HW2  841   1.118   1.712   0.769 -0.2575  2.3286  0.8332
  199SOL    HW3  842   1.248   1.768   0.822  2.2313 -0.0322 -2.5289
  199SOL    MW4  843   1.202   1.702   0.790 -0.1128  0.5335 -0.4676
  200SOL     OW  844   2.933   2.194   0.722 -0.0109  0.7491 -0.2150
  200SOL    HW2  845   2.861   2.135   0.744  0.6471  0.3781  0.9673
  200SOL    HW3  846   2.979   2.209   0.805  1.0681  1.2556 -0.8857
  200SOL    MW4  847   2.930   2.188   0.736  0.2182  0.7670 -0.1475
  201SOL     OW  848   4.485   0.119   1.031  0.2195  0.4081 -0.6570
  201SOL    HW2  849   4.497   0.109   0.937  0.3065  1.7013 -0.7935
  201SOL    HW3  850   4.474   0.213   1.044 -0.6395  0.1551  0.5249
  201SOL    MW4  851   4.485   0.130   1.020  0.1178  0.5454 -0.5190
  202SOL     OW  852   0.712   3.648   1.194 -0.0433  0.0488  0.1016
  202SOL    HW2  853   0.733   3.643   1.287  1.4006  1.3831 -0.1183
  202SOL    HW3  854   0.768   3.582   1.153 -0.2452 -0.1334  0.1216
  202SOL    MW4  855   0.722   3.639   1.201  0.1206  0.2010  0.0752
  203SOL     OW  856   2.944   3.630   0.768 -0.2780  0.2619  0.1189
  203SOL    HW2  857   3.028   3.616   0.811  0.0692 -0.4144 -0.7651
  203SOL    HW3  858   2.881   3.585   0.824 -0.1368  1.1931  1.0549
  203SOL    MW4  859   2.947   3.622   0.781 -0.2134  0.2954  0.1258
  204SOL     OW  860   3.080   0.470   0.581 -0.0036 -0.0566 -0.2564
  204SOL    HW2  861   3.129   0.434   0.655  1.6874  1.7626 -0.4357
  204SOL    HW3  862   3.016   0.403   0.559  1.8093 -2.1125  0.6048
  204SOL    MW4  863   3.078   0.457   0.588  0.4590 -0.0879 -0.1664
  205SOL     OW  864   0.408   4.572   0.967  0.4156  0.0534 -0.0934
  205SOL    HW2  865   0.386   4.641   0.905 -1.0776  2.0240  2.5076
  205SOL    HW3  866   0.486   4.605   1.012  1.2025 -1.1419 -0.5411
  205SOL    MW4  867   0.415   4.586   0.965  0.3224  0.1559  0.1907
  206SOL     OW  868   1.690   0.315   0.768 -0.4304  0.0042  0.0732
  206SOL    HW2  869   1.708   0.221   0.767 -0.4066  0.0105 -0.3899
  206SOL    HW3  870   1.770   0.355   0.801  0.3065  0.0063 -1.6271
  206SOL    MW4  871   1.703   0.308   0.772 -0.3301  0.0053 -0.2123
  207SOL     OW  872   3.136   2.715   1.091  0.0036 -0.4469 -0.5058
  207SOL    HW2  873   3.122   2.621   1.104 -0.7034 -0.3637 -0.6484
  207SOL    HW3  874   3.106   2.731   1.001 -0.5136  0.0421 -0.2436
  207SOL    MW4  875   3.130   2.705   1.081 -0.1581 -0.3715 -0.4900
  208SOL     OW  876   0.466   0.368   1.130 -0.4086 -0.3761 -0.3709
  208SOL    HW2  877   0.457   0.322   1.046  0.3179  0.9177 -1.1827
  208SOL    HW3  878   0.393   0.431   1.130  0.1046  0.2248 -0.4369
  208SOL    MW4  879   0.455   0.370   1.119 -0.2450 -0.1261 -0.4866
  209SOL     OW  880   0.191   1.800   0.649  0.3216 -0.2791 -1.0249
  209SOL    HW2  881   0.254   1.851   0.699 -0.9520 -1.1812  1.5438
  209SOL    HW3  882   0.126   1.863   0.618  0.1683  0.0239 -0.0723
  209SOL    MW4  883   0.191   1.815   0.651  0.1333 -0.3580 -0.5603
  210SOL     OW  884   3.535   3.463   1.110 -0.9774  0.3157 -0.0658
  210SOL    HW2  885   3.457   3.502   1.150 -0.8258  0.3586  0.1926
  210SOL    HW3  886   3.605   3.524   1.133 -0.8039  0.0802  0.0214
  210SOL    MW4  887   3.534   3.476   1.119 -0.9346  0.2902 -0.0201
  211SOL     OW  888   3.552   0.777   0.907 -0.3083  0.2256 -0.0328
  211SOL    HW2  889   3.581   0.692   0.940  0.4296 -0.0488 -1.3430
  211SOL    HW3  890   3.631   0.816   0.869 -0.9342  0.8981 -0.6751
  211SOL    MW4  891   3.566   0.771   0.906 -0.2935  0.2782 -0.2905
  212SOL     OW  892   3.425   1.045   0.456  0.6941  0.1744 -0.1468
  212SOL    HW2  893   3.455   1.050   0.547 -0.2539 -0.8940  0.2354
  212SOL    HW3  894   3.382   0.960   0.450  0.8521  0.1895 -1.6356
  212SOL    MW4  895   3.423   1.034   0.468  0.5896  0.0354 -0.2928
  213SOL     OW  896   2.925   0.008   0.842  0.5038 -0.0521 -0.5014
  213SOL    HW2  897   2.929  -0.087   0.829 -1.0006 -0.0492 -1.0004
  213SOL    HW3  898   2.896   0.020   0.932  1.0237 -0.0579 -0.3301
  213SOL    MW4  899   2.922  -0.003   0.852  0.3738 -0.0525 -0.5445
  214SOL     OW  900   4.424   3.198   0.568 -0.2717 -0.0593 -0.0612
  214SOL    HW2  901   4.448   3.279   0.523  0.0951  0.2289  0.6597
  214SOL    HW3  902   4.427   3.220   0.661  1.4784 -1.3473  0.2100
  214SOL    MW4  903   4.427   3.212   0.574  0.0076 -0.1915  0.0697
  215SOL     OW  904   4.125   1.847   0.583 -0.0642 -0.4905  0.7243
  215SOL    HW2  905   4.165   1.905   0.648 -0.4333  3.0050 -2.0584
  215SOL    HW3  906   4.036   1.881   0.572 -0.0550 -1.1029 -1.5160
  215SOL    MW4  907   4.118   1.859   0.590 -0.1116 -0.1101  0.0616
  216SOL     OW  908   2.268   4.293   1.092  0.1283 -0.0734 -0.2825
  216SOL    HW2  909   2.338   4.333   1.144 -1.1804  0.5323  1.0550
  216SOL    HW3  910   2.188   4.334   1.125 -0.9272 -1.3203 -1.2648
  216SOL    MW4  911   2.267   4.304   1.103 -0.1836 -0.1578 -0.2358
  217SOL     OW  912   0.641   0.206   0.505 -0.0441  0.1689 -0.1358
  217SOL    HW2  913   0.577   0.137   0.492 -0.0591 -0.1432  1.4511
  217SOL    HW3  914   0.652   0.211   0.600  1.7287  0.7159 -0.3466
  217SOL    MW4  915   0.634   0.198   0.516  0.1878  0.1999  0.0458
  218SOL     OW  916   1.596   2.276   1.157 -0.0579 -0.2839  0.0791
  218SOL    HW2  917   1.518   2.331   1.169  0.6392  1.2025 -1.9181
  218SOL    HW3  918   1.587   2.240   1.069  2.3640  1.3583 -0.9005
  218SOL    MW4  919   1.584   2.278   1.147  0.3537  0.1287 -0.3135
  219SOL     OW  920   1.035   2.016   0.459  0.0756  0.0609 -0.1784
  219SOL    HW2  921   0.963   2.076   0.443 -0.5109 -0.6558 -0.2855
  219SOL    HW3  922   1.106   2.071   0.491 -0.8607  0.6320  0.9630
  219SOL    MW4  923   1.035   2.031   0.461 -0.1253  0.0417 -0.0419
  220SOL     OW  924   3.506   1.411   0.956  0.4635  0.4971  0.1319
  220SOL    HW2  925   3.508   1.409   1.052 -1.0219 -0.2845  0.1613
  220SOL    HW3  926   3.446   1.482   0.934 -2.8370 -2.2430 -0.1254
  220SOL    MW4  927   3.498   1.420   0.966 -0.1681  0.0325  0.1018
  221SOL     OW  928   2.295   1.902   1.090  0.0967 -0.2774  0.5312
  221SOL    HW2  929   2.296   1.824   1.146  1.7474 -1.8173 -1.5837
  221SOL    HW3  930   2.367   1.955   1.122 -1.7771  1.0204  2.7666
  221SOL    MW4  931   2.304   1.899   1.102  0.0670 -0.3095  0.5471
  222SOL     OW  932   0.937   3.516   0.806  0.4236  0.1036  0.0627
  222SOL    HW2  933   0.925   3.611   0.798  0.6050  0.1163 -0.0821
  222SOL    HW3  934   0.869   3.479   0.750 -1.0739  0.0912  1.8728
  222SOL    MW4  935   0.927   3.524   0.797  0.2500  0.1035  0.2823
  223SOL     OW  936   2.433   3.670   1.217  0.3778  0.6077 -0.1722
  223SOL    HW2  937   2.424   3.657   1.311  2.1380  0.1143 -0.0485
  223SOL    HW3  938   2.374   3.607   1.177 -1.1901  1.5686  0.6114
  223SOL    MW4  939   2.424   3.660   1.224  0.4032  0.6695 -0.0526
  224SOL     OW  940   0.289   0.334   0.318  0.0265  0.4871  0.3581
  224SOL    HW2  941   0.380   0.363   0.320  0.8489 -1.8987 -1.0670
  224SOL    HW3  942   0.263   0.342   0.226 -1.4377  1.7383  0.8398
  224SOL    MW4  943   0.297   0.339   0.306 -0.0582  0.3374  0.2337
  225SOL     OW  944   2.224   3.269   0.705  0.2299 -0.2130  0.4917
  225SOL    HW2  945   2.171   3.205   0.751 -0.8075 -0.4666 -1.0206
  225SOL    HW3  946   2.223   3.346   0.762 -0.8673 -0.5790  0.9814
  225SOL    MW4  947   2.217   3.271   0.719 -0.0517 -0.2949  0.3568
  226SOL     OW  948   2.812   1.735   0.855 -0.3339 -0.1720 -0.4074
  226SOL    HW2  949   2.900   1.771   0.860 -0.7312  0.8173 -0.4489
  226SOL    HW3  950   2.824   1.640   0.861  0.7429 -0.0484 -0.6246
  226SOL    MW4  951   2.825   1.727   0.856 -0.2444 -0.0252 -0.4416
  227SOL     OW  952   0.264   0.753   0.556  0.2559  0.3509  0.2173
  227SOL    HW2  953   0.301   0.808   0.487  0.2982  0.7794  0.5780
  227SOL    HW3  954   0.330   0.687   0.573  0.7602  0.9786  0.7024
  227SOL    MW4  955   0.277   0.752   0.549  0.3280  0.4903  0.3288
  228SOL     OW  956   2.753   4.101   0.203 -0.0508 -0.1567 -0.2386
  228SOL    HW2  957   2.802   4.174   0.165 -0.5907 -0.3453 -1.3024
  228SOL    HW3  958   2.818   4.030   0.208 -0.1099 -0.3073 -1.3535
  228SOL    MW4  959   2.768   4.101   0.198 -0.1302 -0.2017 -0.5261
  229SOL     OW  960   3.488   1.464   1.230 -0.2956  0.0058 -0.0043
  229SOL    HW2  961   3.584   1.465   1.233 -0.2832  0.2518 -0.4260
  229SOL    HW3  962   3.462   1.414   1.307  0.1877 -0.4911 -0.1653
  229SOL    MW4  963   3.497   1.458   1.240 -0.2301 -0.0273 -0.0812
  230SOL     OW  964   2.806   1.724   0.465  0.6402  0.5535 -0.4078
  230SOL    HW2  965   2.753   1.803   0.452 -0.5031  0.1064  1.3907
  230SOL    HW3  966   2.890   1.756   0.496  0.4347  1.1046 -0.4176
  230SOL    MW4  967   2.810   1.739   0.467  0.4621  0.5671 -0.1718
  231SOL     OW  968   0.499   1.287   0.373  0.0259  0.0774 -0.0319
  231SOL    HW2  969   0.515   1.377   0.345  2.4775  0.0343  1.1502
  231SOL    HW3  970   0.586   1.246   0.373 -1.2437 -2.7932 -2.2216
  231SOL    MW4  971   0.513   1.293   0.369  0.1819 -0.3070 -0.1649
  232SOL     OW  972   1.600   2.025   1.246 -0.2379 -0.4713 -0.0456
  232SOL    HW2  973   1.515   1.987   1.224 -1.0323 -0.0768  2.1710
  232SOL    HW3  974   1.590   2.118   1.230 -0.7089 -0.2299  1.5391
  232SOL    MW4  975   1.587   2.032   1.241 -0.4050 -0.3874  0.4560
  233SOL     OW  976   4.490   0.438   0.405  0.3030 -0.0547 -0.1799
  233SOL    HW2  977   4.458   0.352   0.433  1.3807 -0.6543 -0.7153
  233SOL    HW3  978   4.585   0.425   0.395  0.1812  0.6237 -2.3546
  233SOL    MW4  979   4.499   0.425   0.407  0.4291 -0.0444 -0.5375
  234SOL     OW  980   2.560   2.512   0.343  0.1515  0.3977 -0.4307
  234SOL    HW2  981   2.606   2.429   0.326  0.4570  0.8067 -1.6519
  234SOL    HW3  982   2.595   2.543   0.426 -0.6399 -1.1624  0.5236
  234SOL    MW4  983   2.570   2.505   0.352  0.0875  0.2460 -0.4659
  235SOL     OW  984   2.699   0.465   0.462  0.3943  0.3423  0.5247
  235SOL    HW2  985   2.608   0.485   0.482 -0.3924 -1.2460 -1.3331
  235SOL    HW3  986   2.737   0.550   0.439 -0.8326  0.8988  0.4812
  235SOL    MW4  987   2.692   0.479   0.462  0.1287  0.2062  0.2738
  236SOL     OW  988   0.801   0.913   0.445 -0.3118  0.5253 -0.1525
  236SOL    HW2  989   0.784   0.818   0.447  0.0086  0.4621 -0.3423
  236SOL    HW3  990   0.755   0.947   0.522  0.2985  0.0845  0.4109
  236SOL    MW4  991   0.793   0.905   0.456 -0.1889  0.4588 -0.1032
  237SOL     OW  992   1.345   3.983   1.233 -0.2834 -0.1306 -0.3104
  237SOL    HW2  993   1.415   3.933   1.192  0.4394 -0.1960  0.9734
  237SOL    HW3  994   1.266   3.959   1.185  0.3508 -1.1556 -0.8360
  237SOL    MW4  995   1.344   3.974   1.221 -0.1044 -0.2744 -0.2104
  238SOL     OW  996   2.725   1.878   1.081  0.2952 -0.3166 -0.1558
  238SOL    HW2  997   2.814   1.909   1.098  1.1024 -1.7224 -1.6354
  238SOL    HW3  998   2.734   1.825   1.002 -1.7869 -0.8676 -0.0321
  238SOL    MW4  999   2.738   1.875   1.073  0.1273 -0.5748 -0.3346
  239SOL     OW 1000   0.269   2.918   1.195  0.5107 -0.7613 -0.7222
  239SOL    HW2 1001   0.322   2.842   1.168  1.0198 -0.7983  0.3380
  239SOL    HW3 1002   0.265   2.910   1.290  0.7469  0.6680 -0.5879
  239SOL    MW4 1003   0.276   2.907   1.204  0.6090 -0.5777 -0.5646
  240SOL     OW 1004   4.148   2.772   0.843  0.1379 -0.0505 -0.2800
  240SOL    HW2 1005   4.095   2.746   0.768 -0.1551 -0.1354 -0.0432
  240SOL    HW3 1006   4.157   2.867   0.835 -0.2642 -0.0044 -0.1792
  240SOL    MW4 1007   4.142   2.781   0.832  0.0458 -0.0558 -0.2354
  241SOL     OW 1008   1.766   3.481   1.135  0.2852  0.3281  0.0309
  241SOL    HW2 1009   1.729   3.468   1.047 -2.6286 -2.1273  1.5185
  241SOL    HW3 1010   1.778   3.393   1.169 -0.1573  1.2501  2.6860
  241SOL    MW4 1011   1.763   3.468   1.128 -0.1577  0.1256  0.5774
  242SOL     OW 1012   1.857   2.375   1.119 -0.2195 -0.0289 -0.1485
  242SOL    HW2 1013   1.775   2.326   1.126  0.2217 -0.5444  1.5366
  242SOL    HW3 1014   1.836   2.448   1.061 -2.3354  0.7913  1.6026
  242SOL    MW4 1015   1.844   2.378   1.112 -0.4405  0.0114  0.3048
  243SOL     OW 1016   3.528   4.277   1.141 -0.1547  0.2695  0.4176
  243SOL    HW2 1017   3.612   4.312   1.171 -0.4891 -0.1113  1.8401
  243SOL    HW3 1018   3.517   4.197   1.192 -0.1884 -1.0425 -1.5801
  243SOL    MW4 1019   3.538   4.271   1.151 -0.2031  0.0467  0.3418
  244SOL     OW 1020   1.126   2.019   1.246  0.0139  0.1635  0.1353
  244SOL    HW2 1021   1.120   2.109   1.214 -0.7354 -0.5798 -1.8801
  244SOL    HW3 1022   1.139   2.029   1.341 -0.3099  2.3783 -0.0068
  244SOL    MW4 1023   1.127   2.033   1.255 -0.1277  0.3576 -0.1491
  245SOL     OW 1024   2.922   1.478   1.144 -0.1578  0.3344  0.3842
  245SOL    HW2 1025   2.916   1.474   1.048 -1.3568 -1.3659  0.5112
  245SOL    HW3 1026   2.931   1.386   1.171  1.4444  0.8975  1.8406
  245SOL    MW4 1027   2.922   1.465   1.135 -0.1044  0.1844  0.5931
  246SOL     OW 1028   2.543   0.236   0.691 -0.1810  0.3783  0.3808
  246SOL    HW2 1029   2.623   0.191   0.663  0.0649  0.4326  0.9836
  246SOL    HW3 1030   2.574   0.312   0.740 -0.5925 -0.5312  2.0973
  246SOL    MW4 1031   2.558   0.240   0.694 -0.2027  0.2654  0.6868
  247SOL     OW 1032   4.162   1.027   0.808  0.2470 -0.2049 -0.6148
  247SOL    HW2 1033   4.166   0.932   0.818 -1.6286 -0.3448 -0.9645
  247SOL    HW3 1034   4.122   1.058   0.890  0.4467  0.2338 -0.6838
  247SOL    MW4 1035   4.157   1.019   0.820  0.0262 -0.1655 -0.6701
  248SOL     OW 1036   0.203   1.530   1.113 -0.0481  0.2464 -0.3497
  248SOL    HW2 1037   0.116   1.551   1.148  0.6432  1.9049  0.4050
  248SOL    HW3 1038   0.191   1.531   1.018 -0.9644 -0.0424 -0.2486
  248SOL    MW4 1039   0.190   1.533   1.105 -0.0778  0.4272 -0.2369
  249SOL     OW 1040   2.677   1.068   0.883 -0.1225  0.0023 -0.6114
  249SOL    HW2 1041   2.603   1.115   0.844  0.3846  0.1287 -1.4258
  249SOL    HW3 1042   2.656   0.976   0.871  0.3916  0.0417 -1.8776
  249SOL    MW4 1043   2.664   1.062   0.876  0.0124  0.0242 -0.8859
  250SOL     OW 1044   4.074   1.558   0.386 -0.1234 -0.0959 -0.6126
  250SOL    HW2 1045   4.108   1.564   0.475  0.8974 -2.1786 -0.8315
  250SOL    HW3 1046   4.137   1.606   0.332 -0.5965  0.9277 -0.2668
  250SOL    MW4 1047   4.087   1.565   0.390 -0.0510 -0.2357 -0.5959
  251SOL     OW 1048   2.477   1.198   0.761  0.3237  0.5847 -0.1915
  251SOL    HW2 1049   2.539   1.259   0.720  0.4863 -0.1543 -1.0709
  251SOL    HW3 1050   2.436   1.152   0.687 -0.4534  0.2657  0.4253
  251SOL    MW4 1051   2.480   1.200   0.746  0.2425  0.4452 -0.2262
  252SOL     OW 1052   4.055   3.813   0.454 -0.2727 -0.0070 -0.3474
  252SOL    HW2 1053   4.130   3.870   0.435 -0.3838 -0.0271 -0.8689
  252SOL    HW3 1054   4.051   3.809   0.549  0.5824 -0.2616 -0.3253
  252SOL    MW4 1055   4.064   3.820   0.464 -0.1740 -0.0432 -0.4133
  253SOL     OW 1056   0.448   0.972   0.440  0.1478  0.1446  0.0904
  253SOL    HW2 1057   0.508   1.004   0.508  0.2300  0.8508 -0.3129
  253SOL    HW3 1058   0.448   1.041   0.374 -2.7827  1.1504  1.0773
  253SOL    MW4 1059   0.456   0.985   0.440 -0.2280  0.3706  0.1674
  254SOL     OW 1060   1.099   4.386   0.746  0.3067  0.2454  0.0585
  254SOL    HW2 1061   1.178   4.387   0.800  0.6738  0.3897 -0.4790
  254SOL    HW3 1062   1.131   4.376   0.657 -0.2250  1.3836 -0.2669
  254SOL    MW4 1063   1.114   4.385   0.741  0.2850  0.4148 -0.0553
  255SOL     OW 1064   3.347   4.436   1.271 -0.0360  0.3200 -0.3114
  255SOL    HW2 1065   3.411   4.377   1.233  0.0006  0.6815 -0.8109
  255SOL    HW3 1066   3.263   4.397   1.252  0.0386 -0.2866  0.5623
  255SOL    MW4 1067   3.345   4.423   1.264 -0.0212  0.2880 -0.2619
  256SOL     OW 1068   3.661   2.412   1.182 -0.3231  0.0820 -0.0043
  256SOL    HW2 1069   3.753   2.432   1.196 -0.5890  0.6048  1.0265
  256SOL    HW3 1070   3.622   2.417   1.269 -0.7866 -2.9588  0.0037
  256SOL    MW4 1071   3.668   2.415   1.195 -0.4196 -0.2503  0.1327
  257SOL     OW 1072   3.680   0.988   0.325 -0.2353  0.5319 -0.5120
  257SOL    HW2 1073   3.601   0.995   0.379  1.2098  1.2702  1.5819
  257SOL    HW3 1074   3.650   1.007   0.236 -1.7674  4.7774  0.7720
  257SOL    MW4 1075   3.666   0.991   0.320 -0.2468  1.1894 -0.0663
  258SOL     OW 1076   2.062   0.350   0.546 -0.2917 -0.2914 -0.2669
  258SOL    HW2 1077   2.146   0.323   0.508 -0.5003  0.3558 -1.2087
  258SOL    HW3 1078   2.084   0.381   0.634  0.5976  0.8483 -0.8803
  258SOL    MW4 1079   2.076   0.350   0.552 -0.2017 -0.0556 -0.4721
  259SOL     OW 1080   4.243   0.543   1.197 -0.1971  0.2146  0.7968
  259SOL    HW2 1081   4.264   0.528   1.289 -0.2438  1.4253  1.0159
  259SOL    HW3 1082   4.173   0.480   1.178  0.8099 -1.0327  1.1761
  259SOL    MW4 1083   4.236   0.533   1.207 -0.0710  0.2097  0.8757
  260SOL     OW 1084   1.205   1.310   0.467 -0.1964 -0.1086  0.4588
  260SOL    HW2 1085   1.214   1.219   0.496  0.0907 -0.7562 -1.6024
  260SOL    HW3 1086   1.131   1.309   0.406 -0.6022  1.1741  0.9030
  260SOL    MW4 1087   1.196   1.298   0.463 -0.2121 -0.0249  0.2455
  261SOL     OW 1088   0.621   1.913   0.872  0.3214 -0.0423 -0.2409
  261SOL    HW2 1089   0.678   1.837   0.868  0.9540  0.4379 -0.4353
  261SOL    HW3 1090   0.570   1.901   0.952  0.7353 -0.4479 -0.0407
  261SOL    MW4 1091   0.622   1.902   0.882  0.4595 -0.0324 -0.2401
  262SOL     OW 1092   2.892   2.803   0.530  0.4069 -0.5050 -0.2240
  262SOL    HW2 1093   2.841   2.811   0.610  0.0239 -2.9632 -0.1773
  262SOL    HW3 1094   2.846   2.857   0.466  0.4301  1.0519  1.0479
  262SOL    MW4 1095   2.879   2.811   0.532  0.3595 -0.6237 -0.0500
  263SOL     OW 1096   4.232   0.554   0.404 -0.1669  0.5920  0.3350
  263SOL    HW2 1097   4.311   0.520   0.362 -0.9559  0.9412 -1.5217
  263SOL    HW3 1098   4.240   0.529   0.496  1.4646 -0.5391 -0.0970
  263SOL    MW4 1099   4.243   0.546   0.410 -0.0553  0.4888  0.0330
  264SOL     OW 1100   4.103   2.269   1.101  0.3610  0.1661 -0.3418
  264SOL    HW2 1101   4.039   2.324   1.146 -1.0093  0.8533 -2.9777
  264SOL    HW3 1102   4.172   2.329   1.074 -0.0854  0.2562 -1.3376
  264SOL    MW4 1103   4.103   2.284   1.103  0.1206  0.2687 -0.8209
  265SOL     OW 1104   3.808   0.571   1.279 -0.1025  0.0614  0.1424
  265SOL    HW2 1105   3.872   0.508   1.247 -0.8071 -0.9115  0.6323
  265SOL    HW3 1106   3.723   0.536   1.251 -0.5347  0.5411  0.8349
  265SOL    MW4 1107   3.805   0.558   1.271 -0.2525 -0.0036  0.2985
  266SOL     OW 1108   3.355   3.862   1.140  0.5163  0.2054  0.0834
  266SOL    HW2 1109   3.426   3.919   1.170 -0.1979  0.5827  1.0992
  266SOL    HW3 1110   3.277   3.898   1.182 -0.2573 -0.2984 -0.8980
  266SOL    MW4 1111   3.354   3.875   1.149  0.3200  0.1886  0.0881
  267SOL     OW 1112   4.023   2.411   0.676  0.8273  0.0010 -0.0844
  267SOL    HW2 1113   3.998   2.337   0.732  0.1324 -0.6409 -1.2197
  267SOL    HW3 1114   4.080   2.372   0.610  1.1109  0.6268 -0.2091
  267SOL    MW4 1115   4.027   2.396   0.674  0.7734 -0.0010 -0.2506
  268SOL     OW 1116   2.701   3.993   0.717 -0.6858 -0.0147 -0.2242
  268SOL    HW2 1117   2.769   3.989   0.784  0.4377  2.1798 -1.1869
  268SOL    HW3 1118   2.737   3.944   0.643  1.1338  3.4782 -1.7692
  268SOL    MW4 1119   2.714   3.986   0.716 -0.2975  0.7358 -0.5550
  269SOL     OW 1120   3.127   0.363   1.076 -0.3453  0.0983 -0.6389
  269SOL    HW2 1121   3.136   0.286   1.132 -1.5230  0.7786  0.5199
  269SOL    HW3 1122   3.039   0.397   1.096 -0.5909  0.6360 -2.5483
  269SOL    MW4 1123   3.116   0.358   1.086 -0.5331  0.2590 -0.7378
  270SOL     OW 1124   0.374   2.004   0.767 -0.0500 -0.5277  0.1205
  270SOL    HW2 1125   0.450   1.959   0.805  0.6068 -1.0501 -1.7807
  270SOL    HW3 1126   0.371   2.088   0.814  2.5754  0.1238 -0.7596
  270SOL    MW4 1127   0.384   2.009   0.778  0.3830 -0.5107 -0.2465
  271SOL     OW 1128   0.026   3.462   0.866  0.3672  0.2891 -0.2206
  271SOL    HW2 1129  -0.028   3.386   0.843  0.4843 -0.9671  3.3172
  271SOL    HW3 1130   0.115   3.436   0.843  0.1034  0.4436 -1.4851
  271SOL    MW4 1131   0.030   3.449   0.860  0.3478  0.1435  0.0793
  272SOL     OW 1132   2.394   3.656   0.491 -0.5001 -0.0829  0.4808
  272SOL    HW2 1133   2.474   3.614   0.459  0.3610  1.5322  0.4405
  272SOL    HW3 1134   2.410   3.750   0.477 -2.4199  0.2485  0.4449
  272SOL    MW4 1135   2.407   3.663   0.485 -0.6394  0.1740  0.4708
  273SOL     OW 1136   3.144   2.010   1.023 -0.0685  0.3610 -0.0809
  273SOL    HW2 1137   3.118   1.953   0.951 -2.8951  1.0609  0.3213
  273SOL    HW3 1138   3.089   1.983   1.097  1.9020  0.4753  1.4689
  273SOL    MW4 1139   3.133   1.999   1.023 -0.1812  0.4687  0.1767
  274SOL     OW 1140   2.327   0.844   1.153  0.3896  0.2071 -0.1404
  274SOL    HW2 1141   2.295   0.930   1.126  0.5161  0.0772 -0.7164
  274SOL    HW3 1142   2.326   0.846   1.249 -1.5544  0.1242 -0.1555
  274SOL    MW4 1143   2.323   0.856   1.162  0.1497  0.1789 -0.2183
  275SOL     OW 1144   0.749   1.290   0.660 -0.0041 -0.2063  0.5148
  275SOL    HW2 1145   0.687   1.362   0.668 -0.7772 -1.0672  2.5523
  275SOL    HW3 1146   0.734   1.255   0.572 -2.0021 -0.0205  0.7625
  275SOL    MW4 1147   0.739   1.295   0.649 -0.3697 -0.2955  0.8163
  276SOL     OW 1148   0.419   2.482   1.236 -0.1672  0.2003 -0.7360
  276SOL    HW2 1149   0.512   2.476   1.213 -0.1993 -2.5925 -0.2825
  276SOL    HW3 1150   0.418   2.495   1.330 -0.2251  0.3987 -0.7647
  276SOL    MW4 1151   0.431   2.483   1.245 -0.1791 -0.1421 -0.6800
  277SOL     OW 1152   1.953   2.185   0.340 -0.4642  0.0548  0.0340
  277SOL    HW2 1153   2.024   2.126   0.366 -0.1195  0.9929  1.2409
  277SOL    HW3 1154   1.874   2.146   0.377 -0.2502  0.2882  0.7443
  277SOL    MW4 1155   1.952   2.172   0.348 -0.3905  0.2091  0.2870
  278SOL     OW 1156   3.088   1.799   0.850  0.4920  0.3991 -0.3787
  278SOL    HW2 1157   3.161   1.738   0.865 -1.2055 -1.5217  0.2570
  278SOL    HW3 1158   3.085   1.809   0.754  0.9351 -0.3519 -0.4803
  278SOL    MW4 1159   3.098   1.792   0.839  0.3266  0.0466 -0.3082
  279SOL     OW 1160   2.684   3.259   0.747  0.2286  0.5187 -0.1663
  279SOL    HW2 1161   2.596   3.228   0.767  0.3296  0.1127 -0.3497
  279SOL    HW3 1162   2.695   3.337   0.801  0.1037  0.0396  0.5442
  279SOL    MW4 1163   2.674   3.265   0.756  0.2253  0.4022 -0.0967
  280SOL     OW 1164   3.251   1.117   1.131 -0.1676 -0.4238 -0.3803
  280SOL    HW2 1165   3.276   1.173   1.058  0.4355 -0.4779 -0.2196
  280SOL    HW3 1166   3.322   1.052   1.137 -0.9336 -1.3106 -0.6760
  280SOL    MW4 1167   3.264   1.116   1.122 -0.1893 -0.5480 -0.3980
  281SOL     OW 1168   0.338   4.660   0.694  0.5052 -0.1441 -0.1408
  281SOL    HW2 1169   0.271   4.591   0.700  0.9028 -0.4816  0.4645
  281SOL    HW3 1170   0.296   4.729   0.643  0.0815 -0.8138 -0.7116
  281SOL    MW4 1171   0.323   4.660   0.688  0.5017 -0.2770 -0.1363
  282SOL     OW 1172   2.650   3.241   1.214  0.0739  0.2364  0.1404
  282SOL    HW2 1173   2.726   3.198   1.173 -0.6318 -1.4295  0.5439
  282SOL    HW3 1174   2.575   3.203   1.169 -0.5049  2.5734 -0.8941
  282SOL    MW4 1175   2.650   3.230   1.203 -0.0956  0.3252  0.0572
  283SOL     OW 1176   2.605   1.625   0.613 -0.5640  0.0990 -0.2499
  283SOL    HW2 1177   2.529   1.621   0.555 -1.0074 -1.5990  0.4291
  283SOL    HW3 1178   2.676   1.656   0.556 -1.1682 -0.7933 -1.5206
  283SOL    MW4 1179   2.604   1.629   0.598 -0.7021 -0.2427 -0.3279
  284SOL     OW 1180   3.381   0.555   0.761  0.1266  0.2959 -0.1649
  284SOL    HW2 1181   3.345   0.635   0.798 -0.9849  0.3966 -1.4276
  284SOL    HW3 1182   3.412   0.580   0.674  3.3120  0.2160  0.8823
  284SOL    MW4 1183   3.381   0.569   0.754  0.4003  0.2986 -0.1933
  285SOL     OW 1184   2.895   3.647   1.252  0.6237  0.1887  0.0182
  285SOL    HW2 1185   2.813   3.606   1.223  1.0280 -0.6932  0.1378
  285SOL    HW3 1186   2.964   3.596   1.211  1.1071  2.2075 -1.8080
  285SOL    MW4 1187   2.893   3.635   1.243  0.7408  0.3386 -0.2068
  286SOL     OW 1188   0.461   2.055   0.489 -0.3016 -0.5432  0.4589
  286SOL    HW2 1189   0.507   1.978   0.457 -2.7868 -1.4285 -1.1336
  286SOL    HW3 1190   0.458   2.044   0.584  0.2656 -1.8567  0.3331
  286SOL    MW4 1191   0.467   2.044   0.497 -0.5547 -0.8335  0.2322
  287SOL     OW 1192   0.297   3.097   0.837  0.4993  0.0937  0.1035
  287SOL    HW2 1193   0.228   3.033   0.824 -0.4694  1.5137 -1.9987
  287SOL    HW3 1194   0.292   3.119   0.930 -0.6485 -1.1632  0.3607
  287SOL    MW4 1195   0.288   3.091   0.847  0.2200  0.1152 -0.1400
  288SOL     OW 1196   1.465   3.502   0.558  0.2625 -0.0305 -0.6089
  288SOL    HW2 1197   1.536   3.523   0.497  1.2785 -0.3990  0.4303
  288SOL    HW3 1198   1.504   3.514   0.645 -1.3795  1.1717 -0.0275
  288SOL    MW4 1199   1.480   3.506   0.562  0.1800  0.0794 -0.3951
  289SOL     OW 1200   1.071   0.391   0.682 -0.2811  0.0193 -0.4775
  289SOL    HW2 1201   1.091   0.485   0.678 -1.1465  0.2589  0.7002
  289SOL    HW3 1202   1.149   0.349   0.646  1.0739  1.1062  1.0995
  289SOL    MW4 1203   1.084   0.398   0.677 -0.2164  0.1943 -0.1140
  290SOL     OW 1204   4.170   1.574   0.642 -0.0496  0.2492 -0.5554
  290SOL    HW2 1205   4.247   1.561   0.698 -0.4254 -0.4619 -0.2083
  290SOL    HW3 1206   4.166   1.669   0.630 -0.2256  0.4620  0.9976
  290SOL    MW4 1207   4.180   1.585   0.648 -0.1225  0.1836 -0.3048
  291SOL     OW 1208   3.249   2.768   0.427 -0.0457  0.1176  0.1926
  291SOL    HW2 1209   3.298   2.849   0.434  0.2911 -0.0878  0.2147
  291SOL    HW3 1210   3.180   2.787   0.362  1.3421 -0.2278 -1.4139
  291SOL    MW4 1211   3.246   2.781   0.419  0.1817  0.0448 -0.0165
  292SOL     OW 1212   3.548   3.823   0.528  0.0390 -0.1668  0.8488
  292SOL    HW2 1213   3.631   3.817   0.481 -0.2860  0.5827  0.1683
  292SOL    HW3 1214   3.568   3.793   0.617  1.0298  0.0100  0.6858
  292SOL    MW4 1215   3.561   3.818   0.534  0.1271 -0.0443  0.7374
  293SOL     OW 1216   1.124   3.088   0.845  0.0288 -0.6679 -0.4272
  293SOL    HW2 1217   1.059   3.117   0.780 -0.0527 -1.7665 -0.8368
  293SOL    HW3 1218   1.208   3.111   0.807 -0.0736  0.2314 -0.1513
  293SOL    MW4 1219   1.126   3.095   0.832  0.0046 -0.6945 -0.4449
  294SOL     OW 1220   1.474   4.072   0.421 -0.6114  0.1148 -0.2211
  294SOL    HW2 1221   1.542   4.077   0.354 -0.1322  0.0610  0.2564
  294SOL    HW3 1222   1.468   4.162   0.455  1.1267 -0.4032  1.5946
  294SOL    MW4 1223   1.482   4.085   0.417 -0.3189  0.0391  0.0814
  295SOL     OW 1224   0.805   4.645   0.900 -0.6627 -0.3946  0.2537
  295SOL    HW2 1225   0.772   4.588   0.830 -1.2058  1.1375 -0.7930
  295SOL    HW3 1226   0.744   4.632   0.972 -1.5698 -0.1564 -0.4535
  295SOL    MW4 1227   0.792   4.636   0.900 -0.8541 -0.1612  0.0223
  296SOL     OW 1228   0.924   3.796   0.757  0.2785 -0.0956 -0.0697
  296SOL    HW2 1229   0.832   3.811   0.777 -0.0072 -1.6059 -0.1674
  296SOL    HW3 1230   0.932   3.814   0.663  0.1859  0.4582  0.0259
  296SOL    MW4 1231   0.913   3.800   0.747  0.2286 -0.2220 -0.0700
  297SOL     OW 1232   3.419   2.052   1.019 -0.0354 -0.4873  0.7431
  297SOL    HW2 1233   3.331   2.014   1.021 -0.9073  1.1665 -2.7372
  297SOL    HW3 1234   3.406   2.144   1.041  0.8598 -0.2861  0.4454
  297SOL    MW4 1235   3.406   2.059   1.022 -0.0324 -0.2425  0.2447
  298SOL     OW 1236   1.849   0.368   1.128 -0.1172  0.3967  0.4108
  298SOL    HW2 1237   1.836   0.278   1.157  1.0149  0.6489  1.8096
  298SOL    HW3 1238   1.767   0.412   1.149  0.3769  0.3711  2.5921
  298SOL    MW4 1239   1.837   0.362   1.135  0.0973  0.4266  0.8831
  299SOL     OW 1240   0.867   4.516   0.362  0.5526 -0.6988  0.7791
  299SOL    HW2 1241   0.863   4.602   0.402 -1.1300 -0.1739 -0.4445
  299SOL    HW3 1242   0.958   4.489   0.371  1.3452  1.6811  0.2285
  299SOL    MW4 1243   0.878   4.523   0.368  0.4352 -0.3157  0.5450
  300SOL     OW 1244   0.969   0.456   0.418 -0.0079 -0.1618  0.6334
  300SOL    HW2 1245   0.992   0.405   0.495  1.8722  0.3110  0.4167
  300SOL    HW3 1246   1.035   0.432   0.353 -0.7259  0.5080 -0.3644
  300SOL    MW4 1247   0.981   0.446   0.420  0.1454 -0.0111  0.4732
  301SOL     OW 1248   2.240   1.724   0.759 -0.2587  0.1264  0.1382
  301SOL    HW2 1249   2.204   1.812   0.750  0.6850  0.5095  0.0754
  301SOL    HW3 1250   2.184   1.682   0.825 -2.1018  0.0155 -1.4585
  301SOL    MW4 1251   2.228   1.730   0.766 -0.3774  0.1624 -0.0808
  302SOL     OW 1252   3.832   4.411   0.731 -0.2673  0.4857  0.7949
  302SOL    HW2 1253   3.917   4.400   0.774 -0.7353 -0.4459  1.5250
  302SOL    HW3 1254   3.799   4.494   0.764  1.0230  1.5993 -0.6732
  302SOL    MW4 1255   3.839   4.420   0.741 -0.1588  0.5102  0.6976
  303SOL     OW 1256   1.609   0.504   1.184  0.5782  0.3284  0.4259
  303SOL    HW2 1257   1.595   0.594   1.154 -0.8711  0.3973  1.2741
  303SOL    HW3 1258   1.522   0.464   1.183  0.9687 -0.5784  1.6225
  303SOL    MW4 1259   1.596   0.511   1.180  0.4385  0.2179  0.6957
  304SOL     OW 1260   2.219   2.642   1.048  0.3434  0.0243  0.1894
  304SOL    HW2 1261   2.306   2.645   1.007 -0.0191 -0.8386 -0.6748
  304SOL    HW3 1262   2.218   2.559   1.096  0.0050  0.0247  0.1873
  304SOL    MW4 1263   2.230   2.631   1.049  0.2506 -0.0896  0.0751
  305SOL     OW 1264   3.595   2.655   1.071 -0.6362  0.0036 -0.2916
  305SOL    HW2 1265   3.617   2.572   1.113  0.7803  0.2274 -0.5854
  305SOL    HW3 1266   3.585   2.633   0.979 -0.6275  0.0953 -0.3140
  305SOL    MW4 1267   3.596   2.641   1.065 -0.4482  0.0453 -0.3333
  306SOL     OW 1268   3.008   2.683   0.830 -0.1374 -0.5234  0.4102
  306SOL    HW2 1269   2.972   2.595   0.832  1.1341 -1.0607 -0.1279
  306SOL    HW3 1270   2.933   2.740   0.812 -0.5796 -1.6954 -1.4923
  306SOL    MW4 1271   2.993   2.679   0.828 -0.0279 -0.7486  0.0882
  307SOL     OW 1272   0.263   0.910   0.783 -0.6646  0.2488  0.1473
  307SOL    HW2 1273   0.250   0.840   0.719 -2.5462  1.3399 -0.7225
  307SOL    HW3 1274   0.251   0.868   0.868  0.6166 -0.9591 -0.2535
  307SOL    MW4 1275   0.260   0.895   0.786 -0.7438  0.2334 -0.0204
  308SOL     OW 1276   1.873   1.597   0.593 -0.3132 -0.1875 -0.0907
  308SOL    HW2 1277   1.797   1.563   0.546 -0.1070 -0.9971  0.1508
  308SOL    HW3 1278   1.872   1.551   0.677  0.8206 -0.7082 -0.3459
  308SOL    MW4 1279   1.863   1.586   0.598 -0.1364 -0.3631 -0.0925
  309SOL     OW 1280   0.434   4.345   0.400  0.1998  0.0516 -0.1615
  309SOL    HW2 1281   0.493   4.306   0.335  1.5610  0.1435  0.9961
  309SOL    HW3 1282   0.404   4.270   0.453 -0.9044 -0.0236 -0.8706
  309SOL    MW4 1283   0.438   4.330   0.399  0.2337  0.0539 -0.1023
  310SOL     OW 1284   2.007   3.061   1.115 -0.0396  0.3797 -0.1476
  310SOL    HW2 1285   2.060   3.133   1.150 -0.1381 -0.3247  1.4741
  310SOL    HW3 1286   2.051   2.982   1.147 -0.7249 -0.2565 -0.7750
  310SOL    MW4 1287   2.020   3.060   1.124 -0.1428  0.2027 -0.0165
  311SOL     OW 1288   2.912   4.443   1.214 -0.3438  0.0189  0.4206
  311SOL    HW2 1289   2.859   4.381   1.163 -0.8446 -0.8123  1.9143
  311SOL    HW3 1290   2.894   4.528   1.174  0.9254 -0.8754 -2.1203
  311SOL    MW4 1291   2.902   4.446   1.202 -0.2425 -0.2089  0.2824
  312SOL     OW 1292   2.419   4.625   1.104 -0.0432 -0.4961 -0.0440
  312SOL    HW2 1293   2.395   4.655   1.016 -0.3755  0.0078  0.2198
  312SOL    HW3 1294   2.498   4.676   1.125 -1.1187  0.8625  0.7679
  312SOL    MW4 1295   2.426   4.636   1.095 -0.2289 -0.2508  0.0978
  313SOL     OW 1296   3.114   3.967   0.377  0.4171 -0.1071  0.3939
  313SOL    HW2 1297   3.207   3.958   0.398  0.2748  2.3184  2.2444
  313SOL    HW3 1298   3.108   4.049   0.328 -0.5576 -1.0570 -1.1213
  313SOL    MW4 1299   3.125   3.977   0.373  0.2697  0.0875  0.4382
  314SOL     OW 1300   0.700   0.795   1.128  0.0719  0.1768 -0.0027
  314SOL    HW2 1301   0.611   0.815   1.155  0.2323  0.4857  0.2867
  314SOL    HW3 1302   0.706   0.699   1.136 -0.3116  0.1299 -0.2663
  314SOL    MW4 1303   0.689   0.785   1.133  0.0424  0.2114  0.0007
  315SOL     OW 1304   0.922   3.816   0.482  0.8864 -0.3381  0.3541
  315SOL    HW2 1305   0.950   3.903   0.451 -0.5196  0.1785  0.4777
  315SOL    HW3 1306   0.951   3.756   0.414  2.3675  0.1640  0.5316
  315SOL    MW4 1307   0.930   3.820   0.469  0.8963 -0.2036  0.3938
  316SOL     OW 1308   3.203   2.919   0.701 -0.4244  0.3496 -0.7823
  316SOL    HW2 1309   3.252   2.953   0.626 -0.6640 -0.2208 -1.2062
  316SOL    HW3 1310   3.251   2.950   0.777 -0.2773  1.0983 -1.1656
  316SOL    MW4 1311   3.215   2.928   0.701 -0.4363  0.3734 -0.8888
  317SOL     OW 1312   2.998   0.181   0.248  0.1469  0.0205 -0.2211
  317SOL    HW2 1313   2.953   0.206   0.329 -0.7525  0.3251 -0.8109
  317SOL    HW3 1314   3.063   0.250   0.236 -0.5571  0.6576 -0.4209
  317SOL    MW4 1315   3.001   0.194   0.257 -0.0648  0.1447 -0.3253
  318SOL     OW 1316   1.685   2.107   0.495 -0.7685 -0.1095  0.0710
  318SOL    HW2 1317   1.593   2.080   0.501 -0.7991 -0.1546 -0.5792
  318SOL    HW3 1318   1.734   2.033   0.532 -1.0417  0.3078  1.3095
  318SOL    MW4 1319   1.679   2.093   0.501 -0.8086 -0.0603  0.1486
  319SOL     OW 1320   1.127   2.628   0.405 -0.3469  0.9755  1.1721
  319SOL    HW2 1321   1.112   2.717   0.437  0.1473  0.9465  1.4862
  319SOL    HW3 1322   1.098   2.631   0.314  0.3142  1.6554  0.9693
  319SOL    MW4 1323   1.121   2.640   0.397 -0.1944  1.0614  1.1868
  320SOL     OW 1324   4.071   1.154   1.073 -0.1913  0.2729  0.6016
  320SOL    HW2 1325   4.138   1.206   1.117  0.2541 -1.6275  2.2500
  320SOL    HW3 1326   4.068   1.072   1.123 -1.6268 -0.8548 -1.2817
  320SOL    MW4 1327   4.079   1.150   1.086 -0.3214 -0.1266  0.5707
  321SOL     OW 1328   0.431   0.114   1.269 -0.1272 -0.2552  0.0406
  321SOL    HW2 1329   0.426   0.201   1.231 -0.7646  0.5687  1.9478
  321SOL    HW3 1330   0.344   0.077   1.254 -0.3387  0.0221  0.5671
  321SOL    MW4 1331   0.419   0.120   1.262 -0.2392 -0.1099  0.3618
  322SOL     OW 1332   4.009   4.505   0.337 -0.0882 -0.5252 -0.4792
  322SOL    HW2 1333   3.990   4.513   0.243 -1.8423 -0.4656 -0.1435
  322SOL    HW3 1334   3.931   4.463   0.373 -0.2108  1.1097  1.2426
  322SOL    MW4 1335   3.996   4.501   0.329 -0.3357 -0.3018 -0.2077
  323SOL     OW 1336   3.539   4.106   0.916 -0.3797  0.4827 -0.8354
  323SOL    HW2 1337   3.562   4.162   0.991  1.9260 -3.2871  1.4463
  323SOL    HW3 1338   3.610   4.120   0.853  0.4320 -0.1368 -0.0797
  323SOL    MW4 1339   3.552   4.115   0.918  0.0315 -0.0968 -0.4346
  324SOL     OW 1340   4.420   2.197   0.858  0.2813  0.3360  0.1180
  324SOL    HW2 1341   4.496   2.167   0.908 -0.6473 -5.0581 -1.3768
  324SOL    HW3 1342   4.457   2.232   0.777  1.3065  0.6555  0.7126
  324SOL    MW4 1343   4.435   2.198   0.854  0.2947 -0.3333 -0.0008
  325SOL     OW 1344   3.988   0.116   0.750 -0.4577  0.0622  0.5661
  325SOL    HW2 1345   3.984   0.115   0.654  1.0145  0.7772  0.4852
  325SOL    HW3 1346   3.906   0.075   0.778 -0.1679 -1.6619 -1.0230
  325SOL    MW4 1347   3.977   0.110   0.741 -0.2253 -0.0709  0.3458
  326SOL     OW 1348   0.439   2.546   0.471 -0.0174 -0.3234 -0.1060
  326SOL    HW2 1349   0.508   2.612   0.470 -1.0593  0.8092  0.6801
  326SOL    HW3 1350   0.485   2.462   0.474  1.3217  0.3696 -0.9880
  326SOL    MW4 1351   0.454   2.544   0.471  0.0218 -0.0825 -0.1186
  327SOL     OW 1352   0.150   4.419   0.417  0.0766  0.4488  0.4141
  327SOL    HW2 1353   0.241   4.394   0.399 -0.0706  0.4682 -0.3689
  327SOL    HW3 1354   0.111   4.340   0.455 -0.9801 -1.3472 -4.0696
  327SOL    MW4 1355   0.157   4.405   0.419 -0.0823  0.2141 -0.2808
  328SOL     OW 1356   3.398   2.505   0.406 -0.4851  0.3532  0.1986
  328SOL    HW2 1357   3.343   2.582   0.389 -0.9558  0.3220  1.5765
  328SOL    HW3 1358   3.487   2.539   0.407 -0.7357  0.9762  1.3978
  328SOL    MW4 1359   3.402   2.520   0.404 -0.5801  0.4313  0.5386
  329SOL     OW 1360   1.360   3.193   0.706  0.4393  0.2578 -0.1195
  329SOL    HW2 1361   1.407   3.209   0.624 -1.1636  0.5820 -0.9916
  329SOL    HW3 1362   1.300   3.268   0.714  0.5458  0.1922  1.3149
  329SOL    MW4 1363   1.358   3.205   0.696  0.2420  0.2918 -0.0453
  330SOL     OW 1364   3.024   3.524   0.530  0.1003 -0.6690  0.5441
  330SOL    HW2 1365   3.113   3.558   0.522 -0.5790  0.7909 -1.1096
  330SOL    HW3 1366   2.985   3.575   0.601  0.4137 -0.9369  0.9095
  330SOL    MW4 1367   3.031   3.535   0.538  0.0517 -0.5114  0.3741
  331SOL     OW 1368   2.243   0.077   1.262  0.7797  0.2969 -0.0026
  331SOL    HW2 1369   2.160   0.042   1.229  0.5390  0.1129  0.7884
  331SOL    HW3 1370   2.309   0.030   1.212  0.4765 -1.8965  1.5930
  331SOL    MW4 1371   2.240   0.066   1.251  0.7079 -0.0168  0.3122
  332SOL     OW 1372   1.085   1.269   1.258 -0.0597  0.5733 -0.0142
  332SOL    HW2 1373   1.003   1.247   1.214  0.6001 -0.7640 -0.6078
  332SOL    HW3 1374   1.060   1.281   1.350 -1.0608  1.0843 -0.3392
  332SOL    MW4 1375   1.071   1.268   1.265 -0.1048  0.4644 -0.1353
  333SOL     OW 1376   0.755   0.618   0.455  0.0494 -0.3167  0.2203
  333SOL    HW2 1377   0.833   0.563   0.448  0.4919  0.1130  1.6556
  333SOL    HW3 1378   0.689   0.571   0.404  0.9517 -1.1860 -0.1867
  333SOL    MW4 1379   0.757   0.604   0.447  0.2269 -0.3747  0.3560
  334SOL     OW 1380   3.045   2.459   1.143  0.1544  0.1222 -0.0454
  334SOL    HW2 1381   3.094   2.431   1.221  0.3341  0.4227 -0.0518
  334SOL    HW3 1382   3.060   2.389   1.079 -2.2995 -1.5494  1.1403
  334SOL    MW4 1383   3.053   2.446   1.145 -0.1457 -0.0587  0.1101
  335SOL     OW 1384   2.907   0.511   1.190 -0.7475 -0.4467  0.2875
  335SOL    HW2 1385   2.947   0.497   1.276 -2.8203 -0.5175  1.2639
  335SOL    HW3 1386   2.943   0.595   1.162  1.8774 -1.5705  0.0661
  335SOL    MW4 1387   2.917   0.520   1.198 -0.6745 -0.6043  0.3870
  336SOL     OW 1388   2.311   3.238   0.450 -0.1766 -0.3524 -0.1091
  336SOL    HW2 1389   2.297   3.258   0.542  1.2918 -0.9636  0.2642
  336SOL    HW3 1390   2.237   3.184   0.425 -0.4036 -0.4695  0.8135
  336SOL    MW4 1391   2.300   3.233   0.459 -0.0131 -0.4482  0.0619
  337SOL     OW 1392   0.473   3.541   1.117 -0.0986  0.2326 -0.0576
  337SOL    HW2 1393   0.545   3.592   1.156  0.2969 -0.7596  0.5065
  337SOL    HW3 1394   0.398   3.558   1.174 -0.5815  2.0128 -1.1644
  337SOL    MW4 1395   0.473   3.550   1.130 -0.1101  0.3364 -0.1291
  338SOL     OW 1396   0.738   2.613   0.710  0.3818  0.4467  0.1674
  338SOL    HW2 1397   0.820   2.584   0.670  0.3751 -0.0464  0.4985
  338SOL    HW3 1398   0.709   2.537   0.762  0.3222  1.0356  0.9964
  338SOL    MW4 1399   0.745   2.599   0.712  0.3731  0.4592  0.3204
  339SOL     OW 1400   1.210   4.416   0.501  0.2306  0.3451 -0.3299
  339SOL    HW2 1401   1.296   4.375   0.514  0.0503  0.0968  0.0881
  339SOL    HW3 1402   1.230   4.506   0.476  0.6214  0.2002 -0.5536
  339SOL    MW4 1403   1.224   4.422   0.499  0.2584  0.2933 -0.3043
  340SOL     OW 1404   3.491   1.006   0.732 -0.0561 -0.2865  0.1665
  340SOL    HW2 1405   3.575   1.047   0.753  0.6088 -0.6024 -1.8004
  340SOL    HW3 1406   3.494   0.922   0.777  0.7221 -0.3309  0.0441
  340SOL    MW4 1407   3.502   1.000   0.741  0.1342 -0.3341 -0.1092
  341SOL     OW 1408   1.811   3.574   0.656 -0.1877  0.0997  0.1514
  341SOL    HW2 1409   1.906   3.575   0.665 -0.1756 -0.3505  0.0787
  341SOL    HW3 1410   1.796   3.555   0.563 -0.3393  1.1951 -0.0566
  341SOL    MW4 1411   1.821   3.572   0.645 -0.2061  0.1845  0.1144
  342SOL     OW 1412   1.615   1.865   0.855 -0.4788 -0.3653  0.1310
  342SOL    HW2 1413   1.670   1.893   0.782 -1.9972  1.8070 -0.2323
  342SOL    HW3 1414   1.673   1.870   0.932  0.6412 -0.9990 -0.6615
  342SOL    MW4 1415   1.630   1.869   0.856 -0.5313 -0.1622 -0.0215
  343SOL     OW 1416   1.597   1.272   1.280 -0.4006 -0.5523 -0.5471
  343SOL    HW2 1417   1.595   1.357   1.234  1.5146 -0.6149 -0.8064
  343SOL    HW3 1418   1.510   1.236   1.266 -1.5763  1.7923  0.3709
  343SOL    MW4 1419   1.585   1.279   1.272 -0.3029 -0.2513 -0.4601
  344SOL     OW 1420   1.151   2.779   1.139 -0.3195 -0.1090 -0.2624
  344SOL    HW2 1421   1.234   2.737   1.117 -0.6112 -1.7872  1.6508
  344SOL    HW3 1422   1.154   2.789   1.234 -2.1832  0.0513 -0.2011
  344SOL    MW4 1423   1.162   2.775   1.149 -0.6039 -0.3095 -0.0019
  345SOL     OW 1424   0.550   3.101   0.672  0.1181  0.0252  0.0235
  345SOL    HW2 1425   0.612   3.088   0.744 -0.2684 -2.0609  0.0077
  345SOL    HW3 1426   0.465   3.074   0.708 -0.1634 -0.5674 -1.0549
  345SOL    MW4 1427   0.547   3.096   0.686  0.0299 -0.3281 -0.1209
  346SOL     OW 1428   2.415   0.530   0.478 -0.0361  0.4695 -0.2441
  346SOL    HW2 1429   2.363   0.547   0.557  0.3832  0.4948  0.0318
  346SOL    HW3 1430   2.405   0.609   0.426  1.4474  1.3730  0.7811
  346SOL    MW4 1431   2.407   0.543   0.482  0.2146  0.5921 -0.0724
  347SOL     OW 1432   1.358   1.168   1.217  0.1308  0.3845 -0.2101
  347SOL    HW2 1433   1.360   1.072   1.217 -1.4647  0.3286 -1.3679
  347SOL    HW3 1434   1.271   1.190   1.250  0.7839  1.4654  0.8467
  347SOL    MW4 1435   1.347   1.158   1.221  0.0066  0.5196 -0.2234
  348SOL     OW 1436   4.466   3.230   1.205  0.1051  0.1300  0.7697
  348SOL    HW2 1437   4.406   3.159   1.181  0.0498 -0.3146  2.1659
  348SOL    HW3 1438   4.550   3.202   1.169 -0.2026  0.0315  0.1097
  348SOL    MW4 1439   4.469   3.217   1.197  0.0572  0.0582  0.8668
  349SOL     OW 1440   2.906   0.281   0.499  0.2486  0.2756  0.1180
  349SOL    HW2 1441   2.839   0.338   0.461  0.3481  1.3262  1.4621
  349SOL    HW3 1442   2.857   0.219   0.553  0.1860 -0.5304 -0.8569
  349SOL    MW4 1443   2.890   0.280   0.501  0.2532  0.3079  0.1667
  350SOL     OW 1444   4.440   1.188   1.081 -0.3305  0.5917 -0.5232
  350SOL    HW2 1445   4.409   1.190   0.990 -1.0093 -2.0687 -0.3933
  350SOL    HW3 1446   4.375   1.239   1.129 -1.4584 -0.2316 -1.1409
  350SOL    MW4 1447   4.427   1.195   1.075 -0.5693  0.1321 -0.5876
  351SOL     OW 1448   4.408   2.685   0.816  0.0154 -0.5806 -0.5892
  351SOL    HW2 1449   4.324   2.727   0.836  1.0244  0.6724  1.0836
  351SOL    HW3 1450   4.394   2.593   0.840 -0.9260 -0.4210 -0.4793
  351SOL    MW4 1451   4.395   2.678   0.822  0.0243 -0.3939 -0.3540
  352SOL     OW 1452   2.079   3.649   0.678 -0.7716 -0.6336 -0.5812
  352SOL    HW2 1453   2.085   3.681   0.588  0.0785  0.4301 -0.1596
  352SOL    HW3 1454   2.049   3.724   0.729  1.2096 -0.4926  0.4201
  352SOL    MW4 1455   2.076   3.663   0.673 -0.3984 -0.4745 -0.3935
  353SOL     OW 1456   3.098   3.141   0.194 -0.0671 -0.0931  0.3550
  353SOL    HW2 1457   3.148   3.171   0.270  1.3122 -2.1539  0.2707
  353SOL    HW3 1458   3.008   3.138   0.225  0.3599 -0.0132  1.6333
  353SOL    MW4 1459   3.093   3.145   0.208  0.1709 -0.3545  0.5125
  354SOL     OW 1460   2.068   0.833   0.829  0.0009 -0.4943  0.0346
  354SOL    HW2 1461   1.991   0.793   0.788 -0.1614  0.1187 -0.2682
  354SOL    HW3 1462   2.142   0.802   0.776 -0.0007 -1.3640  0.5384
  354SOL    MW4 1463   2.067   0.824   0.817 -0.0207 -0.5282  0.0611
  355SOL     OW 1464   1.998   4.657   1.143 -0.2085  0.1398  0.2296
  355SOL    HW2 1465   2.018   4.564   1.149 -0.0055  0.1649 -0.0721
  355SOL    HW3 1466   2.018   4.681   1.053 -2.2353  0.0218 -0.2890
  355SOL    MW4 1467   2.003   4.648   1.132 -0.4489  0.1278  0.1214
  356SOL     OW 1468   2.248   4.273   0.803 -0.4316  0.6170  0.3191
  356SOL    HW2 1469   2.242   4.272   0.899 -2.0441 -0.7397  0.2227
  356SOL    HW3 1470   2.270   4.183   0.780  0.9085  1.1492 -0.5464
  356SOL    MW4 1471   2.250   4.261   0.813 -0.4675  0.5083  0.1922
  357SOL     OW 1472   0.484   1.605   0.411 -0.0041 -0.2008 -0.0683
  357SOL    HW2 1473   0.499   1.684   0.360  0.3179 -1.3476 -1.7978
  357SOL    HW3 1474   0.389   1.593   0.408  0.0137 -0.2730 -0.4445
  357SOL    MW4 1475   0.473   1.614   0.404  0.0407 -0.3616 -0.3461
  358SOL     OW 1476   3.828   1.835   0.572 -0.5214  0.0403 -0.3982
  358SOL    HW2 1477   3.803   1.907   0.514 -2.5153 -0.3985 -0.1105
  358SOL    HW3 1478   3.825   1.757   0.516 -2.5238 -0.3937  0.2787
  358SOL    MW4 1479   3.825   1.834   0.557 -1.0486 -0.0747 -0.2709
  359SOL     OW 1480   0.257   2.058   1.217 -0.0422 -0.1267  0.5495
  359SOL    HW2 1481   0.166   2.035   1.202 -0.2484  0.4948  0.8317
  359SOL    HW3 1482   0.274   2.132   1.157  0.6788 -1.1446 -0.5246
  359SOL    MW4 1483   0.247   2.065   1.207  0.0257 -0.1788  0.4451
  360SOL     OW 1484   2.201   3.488   0.371  0.1113 -0.5654 -0.6107
  360SOL    HW2 1485   2.269   3.547   0.404 -1.3634  0.9623 -0.2547
  360SOL    HW3 1486   2.231   3.401   0.396  1.0643  0.2369  1.1300
  360SOL    MW4 1487   2.214   3.484   0.379  0.0427 -0.2580 -0.3341
  361SOL     OW 1488   3.686   1.497   0.737 -0.0629  0.0709 -0.1035
  361SOL    HW2 1489   3.647   1.427   0.790  0.1819 -0.0663 -0.1054
  361SOL    HW3 1490   3.779   1.496   0.759 -0.0690  0.4371 -0.0597
  361SOL    MW4 1491   3.693   1.488   0.747 -0.0312  0.1011 -0.0979
  362SOL     OW 1492   3.974   2.197   0.872  0.7085  0.1664 -0.3137
  362SOL    HW2 1493   4.018   2.232   0.950  0.0790 -1.2181  0.6928
  362SOL    HW3 1494   3.884   2.181   0.901  0.4781 -0.4113 -1.3214
  362SOL    MW4 1495   3.968   2.200   0.886  0.5949 -0.0925 -0.3139
  363SOL     OW 1496   0.699   0.196   0.771 -0.0553  0.1522 -0.2922
  363SOL    HW2 1497   0.720   0.120   0.825 -1.3338 -0.7463 -1.0377
  363SOL    HW3 1498   0.756   0.265   0.805  1.8584 -1.3895 -0.2533
  363SOL    MW4 1499   0.709   0.195   0.783  0.0286 -0.1697 -0.3854
  364SOL     OW 1500   0.001   4.269   0.863  0.8287  0.4898  0.3912
  364SOL    HW2 1501   0.074   4.207   0.859  0.4456  0.0756 -0.3787
  364SOL    HW3 1502  -0.007   4.292   0.956  1.7240  0.2846  0.5180
  364SOL    MW4 1503   0.009   4.264   0.875  0.8965  0.4086  0.3064
  365SOL     OW 1504   2.713   3.969   1.501  0.0471  0.4941  0.3420
  365SOL    HW2 1505   2.700   3.992   1.409  0.0653 -1.1114 -0.0750
  365SOL    HW3 1506   2.729   4.053   1.544  2.9550  1.0167 -1.5835
  365SOL    MW4 1507   2.714   3.983   1.494  0.4332  0.3514  0.0329
  366SOL     OW 1508   3.995   2.701   0.586 -0.4978  0.1873 -0.1705
  366SOL    HW2 1509   4.025   2.615   0.615 -0.6363 -0.4891 -1.9225
  366SOL    HW3 1510   4.074   2.745   0.554 -0.7485 -0.1532 -1.3028
  366SOL    MW4 1511   4.009   2.695   0.586 -0.5488  0.0532 -0.5510
  367SOL     OW 1512   0.036   3.921   0.528 -0.4565  0.2200 -0.6126
  367SOL    HW2 1513   0.100   3.927   0.457 -1.0316  0.6853 -1.0940
  367SOL    HW3 1514   0.005   3.831   0.526  0.7146 -0.2192  0.0957
  367SOL    MW4 1515   0.041   3.910   0.519 -0.3779  0.2236 -0.5826
  368SOL     OW 1516   2.914   3.876   1.930 -0.3831 -0.2456 -0.4420
  368SOL    HW2 1517   2.917   3.791   1.975  1.9776  0.2701  0.4694
  368SOL    HW3 1518   2.904   3.854   1.838 -0.3027 -1.5115 -0.1636
  368SOL    MW4 1519   2.913   3.862   1.924 -0.0610 -0.3445 -0.2850
  369SOL     OW 1520   4.027   3.214   1.247 -0.3075 -0.5126 -0.5266
  369SOL    HW2 1521   4.028   3.304   1.215  0.3957 -0.7958 -1.3168
  369SOL    HW3 1522   4.055   3.220   1.339 -0.7763  0.1286 -0.4305
  369SOL    MW4 1523   4.031   3.226   1.255 -0.2766 -0.4654 -0.6181
  370SOL     OW 1524   2.071   4.249   0.364  0.0439 -0.0354 -0.1737
  370SOL    HW2 1525   2.145   4.230   0.306 -0.8297  1.7496 -1.9465
  370SOL    HW3 1526   2.104   4.313   0.425  0.2543  0.0068 -0.3328
  370SOL    MW4 1527   2.085   4.255   0.364 -0.0436  0.2060 -0.4286
  371SOL     OW 1528   2.865   3.177   0.375 -0.8990 -0.4374  0.0315
  371SOL    HW2 1529   2.900   3.155   0.461 -1.4884 -0.6556  0.2242
  371SOL    HW3 1530   2.780   3.217   0.394 -1.1824 -0.8018 -0.4592
  371SOL    MW4 1531   2.858   3.179   0.389 -1.0140 -0.5145 -0.0078
  372SOL     OW 1532   2.071   1.104   0.777 -0.5773  0.6309 -0.2490
  372SOL    HW2 1533   2.064   1.012   0.799 -0.0395  0.7456  0.4098
  372SOL    HW3 1534   1.991   1.144   0.811  0.3646  0.8530  1.7284
  372SOL    MW4 1535   2.060   1.097   0.784 -0.3822  0.6752  0.0988
  373SOL     OW 1536   3.313   3.611   1.240 -0.7012  0.4390  0.0721
  373SOL    HW2 1537   3.329   3.699   1.206 -0.3194 -0.0220 -0.9669
  373SOL    HW3 1538   3.334   3.617   1.334  0.5001  1.1505 -0.2257
  373SOL    MW4 1539   3.318   3.623   1.248 -0.4923  0.4721 -0.1043
  374SOL     OW 1540   4.162   3.555   0.442 -0.1617  0.1095  0.2503
  374SOL    HW2 1541   4.105   3.480   0.459 -0.5131  0.4447  0.5647
  374SOL    HW3 1542   4.103   3.631   0.443  0.4089  0.5556  1.4551
  374SOL    MW4 1543   4.147   3.555   0.444 -0.1330  0.2124  0.4508
  375SOL     OW 1544   2.064   3.084   0.825 -0.1502 -0.5407  0.6138
  375SOL    HW2 1545   2.055   3.077   0.920 -1.3518 -1.3700  0.4498
  375SOL    HW3 1546   2.072   2.993   0.795 -0.5138 -0.3300 -0.1352
  375SOL    MW4 1547   2.064   3.071   0.834 -0.3567 -0.6223  0.4933
  376SOL     OW 1548   4.153   3.130   0.551  0.1144  0.3186 -0.7211
  376SOL    HW2 1549   4.124   3.089   0.633 -0.0378 -0.5406 -1.2034
  376SOL    HW3 1550   4.246   3.148   0.565  0.7310 -2.2249 -1.3131
  376SOL    MW4 1551   4.161   3.127   0.564  0.1755 -0.1299 -0.8628
  377SOL     OW 1552   2.715   2.004   0.758  0.2180  0.0783 -0.3354
  377SOL    HW2 1553   2.631   2.012   0.803  0.6408  1.4372  0.2484
  377SOL    HW3 1554   2.737   1.911   0.764 -0.5313 -0.0379  0.8096
  377SOL    MW4 1555   2.707   1.993   0.765  0.1750  0.2421 -0.1073
  378SOL     OW 1556   3.352   1.201   0.857  0.8997 -0.7056 -0.1290
  378SOL    HW2 1557   3.408   1.130   0.826  1.5592 -0.7886  1.2244
  378SOL    HW3 1558   3.412   1.273   0.876  0.5952 -0.8425  1.4691
  378SOL    MW4 1559   3.368   1.201   0.856  0.9468 -0.7347  0.2604
  379SOL     OW 1560   2.326   1.656   1.252  0.4093 -0.1119 -0.1140
  379SOL    HW2 1561   2.383   1.611   1.190  0.3344  1.1886 -1.1523
  379SOL    HW3 1562   2.240   1.617   1.238  0.4174  0.0896 -0.7628
  379SOL    MW4 1563   2.322   1.645   1.242  0.4008  0.0862 -0.3365
  380SOL     OW 1564   3.037   3.262   0.635 -0.1289 -0.0613  0.3512
  380SOL    HW2 1565   3.117   3.262   0.687 -0.9661  0.1409  1.6709
  380SOL    HW3 1566   3.014   3.355   0.626 -1.0547 -0.1929  1.3056
  380SOL    MW4 1567   3.044   3.274   0.640 -0.3612 -0.0520  0.6512
  381SOL     OW 1568   4.098   1.115   0.497 -0.0717 -0.0025 -0.0546
  381SOL    HW2 1569   4.120   1.030   0.460 -0.6375  0.2680 -1.0542
  381SOL    HW3 1570   4.102   1.103   0.592  2.7966 -0.3706 -0.1544
  381SOL    MW4 1571   4.102   1.102   0.505  0.2322 -0.0154 -0.1997
  382SOL     OW 1572   1.868   1.338   0.249 -0.3124  0.4643  0.1017
  382SOL    HW2 1573   1.801   1.382   0.300  0.3465  1.8973 -0.2467
  382SOL    HW3 1574   1.949   1.384   0.272  0.0826  0.7055 -1.7499
  382SOL    MW4 1575   1.870   1.350   0.259 -0.1733  0.6852 -0.1886
  383SOL     OW 1576   4.261   3.970   0.369 -0.0424  0.2454  0.2657
  383SOL    HW2 1577   4.349   3.952   0.402 -0.0975  0.5935  0.6032
  383SOL    HW3 1578   4.232   4.047   0.418  0.7173  2.1268 -2.1734
  383SOL    MW4 1579   4.269   3.978   0.380  0.0510  0.5398 -0.0115
  384SOL     OW 1580   1.780   1.883   1.100 -0.8459  0.1381 -0.4853
  384SOL    HW2 1581   1.863   1.931   1.109 -0.2502 -1.0309  0.4172
  384SOL    HW3 1582   1.722   1.924   1.163 -0.3625 -0.2661  0.2276
  384SOL    MW4 1583   1.783   1.895   1.109 -0.7036 -0.0695 -0.2720
  385SOL     OW 1584   3.597   2.954   0.718  0.4433  0.1503 -0.2616
  385SOL    HW2 1585   3.596   3.003   0.636 -0.8772 -1.4922 -1.2598
  385SOL    HW3 1586   3.535   3.000   0.774  1.9727  1.7788  0.1664
  385SOL    MW4 1587   3.589   2.967   0.715  0.4706  0.1483 -0.3368
  386SOL     OW 1588   0.539   4.590   0.484 -0.1970 -0.4111 -0.1232
  386SOL    HW2 1589   0.516   4.505   0.447  1.1242 -0.4364 -0.9258
  386SOL    HW3 1590   0.483   4.599   0.561  0.0268 -2.2469  0.2701
  386SOL    MW4 1591   0.528   4.580   0.489  0.0069 -0.6566 -0.1772
  387SOL     OW 1592   2.715   2.274   0.411 -0.1216  0.7341 -0.5466
  387SOL    HW2 1593   2.742   2.347   0.468 -0.1848 -0.1968  0.7022
  387SOL    HW3 1594   2.797   2.236   0.380 -0.0260 -0.0762  0.6491
  387SOL    MW4 1595   2.729   2.279   0.415 -0.1175  0.5045 -0.2241
  388SOL     OW 1596   2.016   2.454   0.413 -0.9324  0.0352 -0.2289
  388SOL    HW2 1597   2.111   2.459   0.408 -0.6439 -2.2657  1.6639
  388SOL    HW3 1598   1.995   2.367   0.379 -2.2900  0.2646 -0.0126
  388SOL    MW4 1599   2.026   2.443   0.408 -1.0734 -0.2382  0.0494
  389SOL     OW 1600   1.164   0.675   0.662  0.3824  0.4521  0.2266
  389SOL    HW2 1601   1.116   0.702   0.584 -1.6267 -0.3489  1.1518
  389SOL    HW3 1602   1.142   0.741   0.728  0.6849  0.1780  0.6038
  389SOL    MW4 1603   1.155   0.687   0.661  0.1572  0.3102  0.3985
  390SOL     OW 1604   1.560   3.050   0.836  0.0789 -0.0220 -0.2543
  390SOL    HW2 1605   1.490   3.100   0.796 -0.6500 -0.8473 -0.0316
  390SOL    HW3 1606   1.570   2.973   0.779  0.1591 -0.3720  0.2308
  390SOL    MW4 1607   1.552   3.046   0.823 -0.0067 -0.1771 -0.1609
  391SOL     OW 1608   0.427   0.534   0.625  0.1334 -0.4915 -0.2870
  391SOL    HW2 1609   0.513   0.555   0.663 -0.4516  1.5798 -0.0324
  391SOL    HW3 1610   0.385   0.477   0.689  0.4496  0.3072  0.6419
  391SOL    MW4 1611   0.433   0.530   0.639  0.0980 -0.1128 -0.1309
  392SOL     OW 1612   1.291   2.544   0.757 -0.0182 -0.4021  0.0191
  392SOL    HW2 1613   1.255   2.632   0.747  1.1205  0.1545  0.6282
  392SOL    HW3 1614   1.327   2.522   0.671  0.6794  0.1874  0.1571
  392SOL    MW4 1615   1.291   2.553   0.745  0.2241 -0.2508  0.1177
  393SOL     OW 1616   1.023   1.465   0.637 -0.3059 -0.1933  0.4077
  393SOL    HW2 1617   1.091   1.404   0.609 -1.2736 -1.1000 -0.0124
  393SOL    HW3 1618   0.985   1.426   0.715 -0.2621  0.3740  0.7171
  393SOL    MW4 1619   1.027   1.452   0.643 -0.4278 -0.2382  0.3930
  394SOL     OW 1620   1.832   2.591   0.948  0.2828  0.1535 -0.3076
  394SOL    HW2 1621   1.913   2.569   0.903  0.4206 -1.3167  0.6209
  394SOL    HW3 1622   1.845   2.681   0.979  1.8583 -0.3524  0.5256
  394SOL    MW4 1623   1.844   2.600   0.946  0.5089 -0.1073 -0.0752
  395SOL     OW 1624   2.094   2.576   0.817 -0.5926  0.4042  0.0033
  395SOL    HW2 1625   2.110   2.662   0.779  2.7805 -0.2705 -0.3072
  395SOL    HW3 1626   2.147   2.575   0.897 -1.7918 -0.8473  0.8106
  395SOL    MW4 1627   2.104   2.587   0.823 -0.3059  0.1497  0.0688
  396SOL     OW 1628   0.931   3.194   0.668  0.9466  0.2364 -0.6599
  396SOL    HW2 1629   0.865   3.263   0.661 -1.2304 -1.6115  0.9742
  396SOL    HW3 1630   0.933   3.153   0.582 -1.2469 -0.7201 -0.2859
  396SOL    MW4 1631   0.923   3.197   0.656  0.3699 -0.1338 -0.3950
  397SOL     OW 1632   0.229   3.189   1.096 -0.0906  0.7430 -0.1200
  397SOL    HW2 1633   0.301   3.239   1.134 -1.0386  1.5234  0.6695
  397SOL    HW3 1634   0.241   3.099   1.127 -0.1474  1.1245  1.0036
  397SOL    MW4 1635   0.240   3.184   1.105 -0.2232  0.8965  0.1323
  398SOL     OW 1636   0.673   2.831   1.229 -0.2559 -0.0180  0.0150
  398SOL    HW2 1637   0.595   2.810   1.178 -1.1649  1.2619  0.8537
  398SOL    HW3 1638   0.691   2.923   1.208  0.6598 -0.1283  0.3061
  398SOL    MW4 1639   0.665   2.840   1.219 -0.2550  0.1364  0.1639
  399SOL     OW 1640   0.275   3.911   0.368 -0.2277  0.3987  0.2060
  399SOL    HW2 1641   0.320   3.917   0.284 -0.0688  1.2185  0.3505
  399SOL    HW3 1642   0.301   3.825   0.402  1.1797  0.8285  0.2540
  399SOL    MW4 1643   0.284   3.900   0.362 -0.0210  0.5636  0.2314
  400SOL     OW 1644   2.472   3.902   0.828 -0.0084 -0.1453 -0.5165
  400SOL    HW2 1645   2.554   3.947   0.807  0.5325 -1.1285 -0.5718
  400SOL    HW3 1646   2.460   3.917   0.921  0.2279  0.0326 -0.5136
  400SOL    MW4 1647   2.481   3.910   0.837  0.0944 -0.2515 -0.5234
  401SOL     OW 1648   4.003   3.467   1.123 -0.0887 -0.3001  0.0427
  401SOL    HW2 1649   4.063   3.536   1.151 -0.5420 -0.9010  2.5665
  401SOL    HW3 1650   4.053   3.415   1.060  0.9026  1.1499 -0.3751
  401SOL    MW4 1651   4.017   3.469   1.118 -0.0176 -0.1879  0.3207
  402SOL     OW 1652   3.106   3.247   1.231  0.0275  0.0276  0.4056
  402SOL    HW2 1653   3.188   3.205   1.204 -0.8120 -1.1660 -0.3307
  402SOL    HW3 1654   3.038   3.198   1.186 -0.9506  2.7617 -1.2139
  402SOL    MW4 1655   3.108   3.235   1.222 -0.2124  0.2306  0.0948
  403SOL     OW 1656   2.903   3.099   0.855  0.1946  0.5373 -0.0781
  403SOL    HW2 1657   2.826   3.153   0.837 -0.4373 -0.1832  0.4279
  403SOL    HW3 1658   2.966   3.124   0.787 -1.1196 -0.1153 -1.5852
  403SOL    MW4 1659   2.901   3.109   0.844 -0.0622  0.3560 -0.2102
  404SOL     OW 1660   1.585   1.548   1.181 -0.0009 -0.3369 -0.0336
  404SOL    HW2 1661   1.662   1.594   1.217  0.2456  0.0251 -0.9926
  404SOL    HW3 1662   1.590   1.565   1.087 -0.7885 -1.0363 -0.2014
  404SOL    MW4 1663   1.596   1.557   1.173 -0.0721 -0.3814 -0.1823
  405SOL     OW 1664   0.803   4.097   0.316 -0.1130  0.0738  0.0029
  405SOL    HW2 1665   0.737   4.073   0.381  1.2399 -0.0798  1.3454
  405SOL    HW3 1666   0.781   4.186   0.291 -1.6326 -0.4529 -0.5843
  405SOL    MW4 1667   0.792   4.105   0.321 -0.1350 -0.0167  0.1026
  406SOL     OW 1668   3.751   2.488   0.661  0.0478 -0.2338  0.1402
  406SOL    HW2 1669   3.714   2.416   0.712  0.8077  0.1145  1.1884
  406SOL    HW3 1670   3.846   2.478   0.671  0.1361  2.0373  1.8756
  406SOL    MW4 1671   3.759   2.477   0.669  0.1595  0.1121  0.5075
  407SOL     OW 1672   4.378   3.220   0.845 -0.2024 -0.0614 -0.5560
  407SOL    HW2 1673   4.404   3.185   0.931 -0.7332 -0.2675 -0.4802
  407SOL    HW3 1674   4.291   3.257   0.859 -0.6026 -0.7515 -1.1818
  407SOL    MW4 1675   4.370   3.220   0.858 -0.3252 -0.1795 -0.6286
  408SOL     OW 1676   1.405   0.364   0.857  0.1157  0.0551 -0.1749
  408SOL    HW2 1677   1.355   0.292   0.817 -0.4955  1.1892 -1.4936
  408SOL    HW3 1678   1.496   0.345   0.834 -0.1694  0.3729 -1.6445
  408SOL    MW4 1679   1.410   0.352   0.849 -0.0025  0.2467 -0.5428
  409SOL     OW 1680   0.183   2.126   0.499  0.2458  0.0005  0.0599
  409SOL    HW2 1681   0.171   2.179   0.420  1.3513 -0.1323 -0.2037
  409SOL    HW3 1682   0.277   2.117   0.508  0.1358  0.2006  1.5289
  409SOL    MW4 1683   0.193   2.132   0.489  0.3771  0.0093  0.2190
  410SOL     OW 1684   3.247   4.540   0.288  0.3496 -0.0345 -0.0533
  410SOL    HW2 1685   3.271   4.562   0.378  0.4621  0.2459 -0.1547
  410SOL    HW3 1686   3.152   4.551   0.286  0.1441 -1.4939  0.4485
  410SOL    MW4 1687   3.237   4.544   0.300  0.3374 -0.1898 -0.0005
  411SOL     OW 1688   3.557   4.030   1.223 -0.2626 -0.0205  0.6499
  411SOL    HW2 1689   3.560   4.010   1.317  0.8549  0.9886  0.8387
  411SOL    HW3 1690   3.639   3.994   1.188 -0.0114  0.8760  0.3184
  411SOL    MW4 1691   3.568   4.022   1.231 -0.0820  0.2308  0.6311
  412SOL     OW 1692   2.545   2.370   0.857 -0.1175  0.4374 -0.6329
  412SOL    HW2 1693   2.491   2.345   0.783 -0.0082 -1.0045 -0.2476
  412SOL    HW3 1694   2.508   2.322   0.931  1.6751 -0.5806 -0.3722
  412SOL    MW4 1695   2.533   2.361   0.857  0.1333  0.1130 -0.5476
  413SOL     OW 1696   0.361   3.648   0.501  0.1059 -0.0560 -0.2285
  413SOL    HW2 1697   0.450   3.659   0.466 -0.1517  0.8930 -0.6140
  413SOL    HW3 1698   0.367   3.684   0.590  0.0788  0.1476 -0.3071
  413SOL    MW4 1699   0.374   3.654   0.508  0.0683  0.0963 -0.2897
  414SOL     OW 1700   2.111   1.989   0.482  0.4003 -0.2674 -0.1531
  414SOL    HW2 1701   2.199   1.984   0.517  1.0440  0.6443 -1.5888
  414SOL    HW3 1702   2.082   1.898   0.475  1.2238 -0.5686  0.3210
  414SOL    MW4 1703   2.119   1.976   0.485  0.5937 -0.1869 -0.2799
  415SOL     OW 1704   2.977   1.209   1.220 -0.1169 -0.2575  0.3488
  415SOL    HW2 1705   2.974   1.212   1.315  0.9271  0.0115  0.3827
  415SOL    HW3 1706   3.065   1.177   1.200  0.2759  1.3080 -0.5363
  415SOL    MW4 1707   2.988   1.205   1.230  0.0727 -0.0154  0.2364
  416SOL     OW 1708   2.243   4.007   0.685  0.2706  0.6775  0.0280
  416SOL    HW2 1709   2.162   3.971   0.721  0.3401  0.4142 -0.0756
  416SOL    HW3 1710   2.313   3.958   0.728  0.3375 -0.0011 -0.8472
  416SOL    MW4 1711   2.241   3.996   0.695  0.2885  0.5534 -0.1011
  417SOL     OW 1712   2.535   2.050   1.181 -0.0214  0.3015 -0.1029
  417SOL    HW2 1713   2.606   1.992   1.152 -0.0788 -0.1611  0.6554
  417SOL    HW3 1714   2.557   2.135   1.145  0.1567 -0.1596 -1.0914
  417SOL    MW4 1715   2.547   2.053   1.173 -0.0055  0.1798 -0.1334
  418SOL     OW 1716   4.210   3.559   0.715  0.0366  0.1126 -0.1956
  418SOL    HW2 1717   4.276   3.628   0.728 -0.9081  1.2012 -1.0528
  418SOL    HW3 1718   4.190   3.562   0.621 -2.2626  0.7779  0.2885
  418SOL    MW4 1719   4.216   3.569   0.704 -0.3910  0.3443 -0.2448
  419SOL     OW 1720   2.172   2.994   0.389 -0.5414 -0.3878 -0.3094
  419SOL    HW2 1721   2.215   2.923   0.437  1.6664 -0.1909 -1.8763
  419SOL    HW3 1722   2.190   2.975   0.297  0.0508  2.1344 -0.7750
  419SOL    MW4 1723   2.180   2.982   0.383 -0.1719 -0.0291 -0.5776
  420SOL     OW 1724   0.672   4.418   1.264 -0.3263  0.3432 -0.0971
  420SOL    HW2 1725   0.747   4.375   1.223 -1.8431 -2.4928  0.0325
  420SOL    HW3 1726   0.692   4.419   1.357 -0.5477 -0.6250 -0.0379
  420SOL    MW4 1727   0.684   4.413   1.271 -0.5556 -0.1593 -0.0720
  421SOL     OW 1728   4.034   0.350   0.871  0.4978  0.0418  0.1905
  421SOL    HW2 1729   3.964   0.399   0.827  1.1717 -0.7679 -1.8437
  421SOL    HW3 1730   4.024   0.260   0.837  1.7934 -0.3269  0.7788
  421SOL    MW4 1731   4.023   0.344   0.861  0.7572 -0.1137 -0.0002
  422SOL     OW 1732   0.703   1.537   1.103 -0.4790 -0.2915 -0.0158
  422SOL    HW2 1733   0.627   1.584   1.137 -1.1084 -0.5091 -1.0770
  422SOL    HW3 1734   0.778   1.590   1.129 -1.0621  0.3790  0.3143
  422SOL    MW4 1735   0.703   1.550   1.111 -0.6390 -0.2316 -0.1124
  423SOL     OW 1736   0.455   1.107   0.856  0.3621  0.2237 -0.2016
  423SOL    HW2 1737   0.511   1.100   0.778  0.2253  0.0481 -0.2811
  423SOL    HW3 1738   0.383   1.047   0.840  1.1340 -0.9701  0.7456
  423SOL    MW4 1739   0.453   1.098   0.844  0.4459  0.0430 -0.0871
  424SOL     OW 1740   2.077   0.487   1.249 -0.2686 -0.3799 -0.4765
  424SOL    HW2 1741   2.006   0.428   1.223  0.7590 -0.7368 -2.5543
  424SOL    HW3 1742   2.065   0.564   1.193 -0.8191  0.8600  1.2999
  424SOL    MW4 1743   2.066   0.490   1.239 -0.2058 -0.2634 -0.5163
  425SOL     OW 1744   4.427   0.917   0.629 -0.1589  0.3857 -0.3488
  425SOL    HW2 1745   4.463   0.829   0.627 -0.5914  0.1993 -0.0634
  425SOL    HW3 1746   4.503   0.975   0.633  0.0865 -0.0189  0.7904
  425SOL    MW4 1747   4.442   0.913   0.629 -0.1836  0.3077 -0.1609
  426SOL     OW 1748   4.064   2.690   1.112  0.1487  0.0774  0.5634
  426SOL    HW2 1749   3.974   2.720   1.130 -0.2844 -0.8364 -0.0662
  426SOL    HW3 1750   4.074   2.700   1.018  0.7275  0.2218  0.6417
  426SOL    MW4 1751   4.053   2.695   1.102  0.1678 -0.0238  0.4905
  427SOL     OW 1752   3.901   1.837   0.837 -0.4338  0.4259 -0.5149
  427SOL    HW2 1753   3.872   1.847   0.746  0.8282 -2.0087 -1.2256
  427SOL    HW3 1754   3.827   1.870   0.889 -0.6395  3.1420 -2.3858
  427SOL    MW4 1755   3.887   1.843   0.832 -0.2944  0.4631 -0.8556
  428SOL     OW 1756   2.447   3.648   1.523 -0.1339  0.1136 -0.5055
  428SOL    HW2 1757   2.522   3.594   1.548 -1.0794 -0.8080  0.4008
  428SOL    HW3 1758   2.460   3.731   1.569 -1.0171 -0.9804  1.8044
  428SOL    MW4 1759   2.459   3.652   1.532 -0.3753 -0.1526 -0.0811
  429SOL     OW 1760   1.708   2.268   0.722  0.2900  0.1690 -0.4591
  429SOL    HW2 1761   1.704   2.222   0.638  0.6373  0.7017 -0.7636
  429SOL    HW3 1762   1.788   2.320   0.718  0.2224  0.3256  0.1370
  429SOL    MW4 1763   1.718   2.269   0.710  0.3270  0.2601 -0.4206
  430SOL     OW 1764   1.725   0.993   0.406 -0.5561 -0.2292 -0.5556
  430SOL    HW2 1765   1.733   1.068   0.465 -1.3687  0.1346 -0.9034
  430SOL    HW3 1766   1.767   1.023   0.325  1.0137 -0.9069 -0.0071
  430SOL    MW4 1767   1.732   1.007   0.403 -0.4563 -0.2707 -0.5292
  431SOL     OW 1768   3.627   0.519   0.893  0.2622 -0.2247 -0.3147
  431SOL    HW2 1769   3.715   0.505   0.858  0.4869 -0.4262  0.3304
  431SOL    HW3 1770   3.570   0.515   0.816  1.0479  2.1967 -1.0763
  431SOL    MW4 1771   3.631   0.517   0.878  0.3955  0.0682 -0.3301
  432SOL     OW 1772   1.434   1.472   0.544  0.1221 -0.3911 -0.3214
  432SOL    HW2 1773   1.364   1.412   0.516 -1.2757  0.2991  1.5623
  432SOL    HW3 1774   1.399   1.559   0.525 -0.1438  0.0159  1.9169
  432SOL    MW4 1775   1.420   1.475   0.538 -0.0974 -0.2464  0.2224
  433SOL     OW 1776   3.016   4.050   0.622 -0.0521 -0.4658 -0.1707
  433SOL    HW2 1777   3.055   4.002   0.548 -0.0537  0.1351 -0.5624
  433SOL    HW3 1778   3.062   4.134   0.623  0.1740 -0.5979  0.7201
  433SOL    MW4 1779   3.028   4.055   0.612 -0.0224 -0.4044 -0.1048
  434SOL     OW 1780   4.169   0.833   0.450 -0.1899 -0.2327 -0.0059
  434SOL    HW2 1781   4.186   0.743   0.423  0.3972 -0.4941  1.2158
  434SOL    HW3 1782   4.245   0.857   0.503 -1.0835  0.4368  0.9944
  434SOL    MW4 1783   4.181   0.825   0.454 -0.2303 -0.1788  0.2873
  435SOL     OW 1784   0.269   3.365   0.778 -0.2931 -0.2792  0.0681
  435SOL    HW2 1785   0.257   3.359   0.683  2.0538 -1.8347 -0.1582
  435SOL    HW3 1786   0.275   3.274   0.807  0.8023  0.2321  1.4700
  435SOL    MW4 1787   0.268   3.352   0.769  0.1611 -0.4170  0.2232
  436SOL     OW 1788   4.049   3.797   0.737  0.0920 -0.8820 -0.1097
  436SOL    HW2 1789   4.104   3.855   0.790  0.3450 -0.0492 -1.2570
  436SOL    HW3 1790   4.091   3.711   0.743 -0.1551 -0.9024  1.4158
  436SOL    MW4 1791   4.062   3.793   0.745  0.0930 -0.7751 -0.0598
  437SOL     OW 1792   0.207   0.769   1.044 -0.0236 -0.4031  0.2671
  437SOL    HW2 1793   0.285   0.795   1.094  0.1319 -0.4665  0.0573
  437SOL    HW3 1794   0.134   0.812   1.089 -0.2005 -2.6558  2.2137
  437SOL    MW4 1795   0.208   0.778   1.057 -0.0264 -0.7086  0.4963
  438SOL     OW 1796   2.120   1.513   0.203 -0.0509 -0.1755 -0.0562
  438SOL    HW2 1797   2.126   1.560   0.119  2.2129  0.8516  0.6158
  438SOL    HW3 1798   2.129   1.582   0.269 -0.1805 -1.1628  1.0009
  438SOL    MW4 1799   2.122   1.529   0.201  0.2308 -0.1702  0.1719
  439SOL     OW 1800   2.225   0.659   0.666 -0.1277  0.1985 -0.0716
  439SOL    HW2 1801   2.160   0.666   0.596  2.0183 -1.8316 -2.3598
  439SOL    HW3 1802   2.285   0.732   0.650  0.4541 -0.3616 -0.4972
  439SOL    MW4 1803   2.225   0.670   0.655  0.2325 -0.1432 -0.4297
  440SOL     OW 1804   2.015   3.910   0.794 -0.6004  0.0648  0.1287
  440SOL    HW2 1805   1.940   3.959   0.759 -1.0740 -0.8102 -0.0938
  440SOL    HW3 1806   2.011   3.924   0.888 -1.0033  0.0856  0.1118
  440SOL    MW4 1807   2.005   3.918   0.801 -0.7162 -0.0479  0.0970
  441SOL     OW 1808   0.906   0.386   1.120 -0.1309 -0.2821  0.5526
  441SOL    HW2 1809   0.920   0.305   1.169  0.0518 -0.9415 -0.5925
  441SOL    HW3 1810   0.981   0.441   1.142  0.2028 -0.7670  0.6205
  441SOL    MW4 1811   0.917   0.383   1.130 -0.0628 -0.4331  0.4103
  442SOL     OW 1812   4.281   1.567   1.036 -0.2725  0.5586  0.2963
  442SOL    HW2 1813   4.309   1.561   0.945 -0.3808  1.1233  0.2265
  442SOL    HW3 1814   4.205   1.625   1.035 -0.7625 -0.0675  0.6388
  442SOL    MW4 1815   4.275   1.574   1.024 -0.3510  0.5505  0.3324
  443SOL     OW 1816   0.254   0.342   0.780  0.0408  0.4298 -0.5200
  443SOL    HW2 1817   0.245   0.295   0.697  0.7594 -0.2284 -0.2231
  443SOL    HW3 1818   0.164   0.356   0.809 -0.2117  0.5049 -1.3180
  443SOL    MW4 1819   0.241   0.338   0.773  0.1023  0.3529 -0.5861
  444SOL     OW 1820   2.481   3.619   0.771 -0.1320  0.0696  0.4746
  444SOL    HW2 1821   2.452   3.624   0.679 -0.5140 -1.7817  0.4909
  444SOL    HW3 1822   2.469   3.708   0.804 -1.4052  0.4152 -0.8570
  444SOL    MW4 1823   2.476   3.632   0.763 -0.3502 -0.1290  0.3011
  445SOL     OW 1824   0.199   4.647   1.144 -0.0425 -0.5278 -0.3573
  445SOL    HW2 1825   0.123   4.684   1.100 -0.8686 -0.8597  0.7628
  445SOL    HW3 1826   0.260   4.625   1.073 -0.3170  1.2054 -1.1563
  445SOL    MW4 1827   0.197   4.649   1.129 -0.1877 -0.3429 -0.3150
  446SOL     OW 1828   2.080   0.076   0.872 -0.1090  0.3158  0.1341
  446SOL    HW2 1829   2.027   0.009   0.829  1.7489 -0.9914 -0.1770
  446SOL    HW3 1830   2.070   0.153   0.816 -0.3849 -0.3881 -0.8126
  446SOL    MW4 1831   2.072   0.077   0.859  0.0997  0.0504 -0.0319
  447SOL     OW 1832   3.590   2.677   0.797  0.1178 -0.4391  0.3966
  447SOL    HW2 1833   3.662   2.628   0.759 -0.5605 -1.6313  0.6169
  447SOL    HW3 1834   3.597   2.764   0.758 -0.2240 -1.4655 -2.0744
  447SOL    MW4 1835   3.600   2.682   0.787 -0.0172 -0.7319  0.0997
  448SOL     OW 1836   0.765   1.195   0.378 -0.3312  0.4056  0.3620
  448SOL    HW2 1837   0.799   1.107   0.390 -0.7686  0.3584  1.3009
  448SOL    HW3 1838   0.842   1.248   0.357 -0.0951 -0.2286 -0.4045
  448SOL    MW4 1839   0.780   1.191   0.377 -0.3577  0.3158  0.3847
  449SOL     OW 1840   4.465   0.401   1.082  0.2561  0.1361 -0.8738
  449SOL    HW2 1841   4.454   0.422   0.990  0.6372 -1.2787 -1.2535
  449SOL    HW3 1842   4.397   0.451   1.126 -0.2213  0.4661 -1.9699
  449SOL    MW4 1843   4.455   0.410   1.076  0.2432 -0.0070 -1.0685
  450SOL     OW 1844   4.272   2.817   1.223 -0.1499 -0.4808  0.0818
  450SOL    HW2 1845   4.204   2.760   1.189  0.4523 -0.4224 -1.2220
  450SOL    HW3 1846   4.353   2.786   1.183  0.5230 -0.2193  1.2120
  450SOL    MW4 1847   4.274   2.806   1.214  0.0181 -0.4387  0.0589
  451SOL     OW 1848   2.803   4.202   0.484  0.2206 -0.3702  0.1705
  451SOL    HW2 1849   2.860   4.137   0.524  0.2941 -0.1030  0.5004
  451SOL    HW3 1850   2.783   4.166   0.397  0.3212 -0.7942  0.3223
  451SOL    MW4 1851   2.808   4.189   0.478  0.2437 -0.3910  0.2341
  452SOL     OW 1852   4.426   0.181   0.484  0.1947  0.1492 -0.0977
  452SOL    HW2 1853   4.440   0.106   0.427 -3.0398 -0.4562 -0.2358
  452SOL    HW3 1854   4.404   0.143   0.569  0.2082  0.9598  0.2731
  452SOL    MW4 1855   4.425   0.166   0.488 -0.2303  0.1763 -0.0670
  453SOL     OW 1856   3.232   0.772   1.274 -0.2277 -0.5264 -0.0449
  453SOL    HW2 1857   3.226   0.827   1.352 -0.3342 -1.4420  0.6101
  453SOL    HW3 1858   3.291   0.819   1.216  0.7920 -0.3897  1.0808
  453SOL    MW4 1859   3.239   0.785   1.277 -0.1075 -0.6291  0.1900
  454SOL     OW 1860   3.786   3.902   1.139  0.0880 -0.3618 -0.3224
  454SOL    HW2 1861   3.757   3.812   1.150  1.1127 -0.8994 -1.8201
  454SOL    HW3 1862   3.800   3.912   1.044  2.5126  0.5462  0.0741
  454SOL    MW4 1863   3.784   3.892   1.128  0.5431 -0.3128 -0.4678
  455SOL     OW 1864   0.614   1.863   0.360 -0.0540 -0.0684 -0.1234
  455SOL    HW2 1865   0.653   1.882   0.274 -0.2521  0.1081 -0.1758
  455SOL    HW3 1866   0.687   1.832   0.413 -0.1754 -1.3898 -0.7260
  455SOL    MW4 1867   0.628   1.861   0.355 -0.0962 -0.2196 -0.2098
  456SOL     OW 1868   3.979   3.350   0.509  0.0668  0.4217 -0.4449
  456SOL    HW2 1869   3.953   3.379   0.596  0.9716  0.7835 -0.2938
  456SOL    HW3 1870   4.034   3.273   0.525  0.3546  0.5777 -0.6964
  456SOL    MW4 1871   3.983   3.343   0.523  0.2239  0.4902 -0.4582
  457SOL     OW 1872   0.686   0.625   0.729 -0.0608  0.4995  0.4303
  457SOL    HW2 1873   0.722   0.624   0.641 -1.8027 -0.7590 -0.2970
  457SOL    HW3 1874   0.739   0.561   0.777  0.0484  0.2176 -0.0623
  457SOL    MW4 1875   0.698   0.617   0.724 -0.2763  0.2963  0.2693
  458SOL     OW 1876   2.767   2.461   1.192 -0.4907 -0.0769  0.4342
  458SOL    HW2 1877   2.774   2.473   1.286 -1.3446 -1.0659  0.6355
  458SOL    HW3 1878   2.858   2.459   1.161 -0.2159  0.5007  1.1898
  458SOL    MW4 1879   2.780   2.462   1.200 -0.5672 -0.1309  0.5605
  459SOL     OW 1880   2.891   3.115   1.130 -0.2572  0.1156  0.1370
  459SOL    HW2 1881   2.919   3.118   1.039 -3.3939  0.8744 -0.8735
  459SOL    HW3 1882   2.886   3.022   1.151 -1.6848 -0.1206 -1.1969
  459SOL    MW4 1883   2.894   3.103   1.121 -0.8595  0.1843 -0.1724
  460SOL     OW 1884   0.748   3.389   0.623 -0.1258 -0.0496 -0.6067
  460SOL    HW2 1885   0.747   3.391   0.528 -1.6544  4.1857 -0.6235
  460SOL    HW3 1886   0.658   3.371   0.649 -0.0772  0.5798  0.0294
  460SOL    MW4 1887   0.736   3.387   0.614 -0.3211  0.5922 -0.5250
  461SOL     OW 1888   1.858   2.988   0.373 -0.3873 -0.3200  0.3297
  461SOL    HW2 1889   1.830   3.073   0.406 -1.0374  0.4564 -2.1536
  461SOL    HW3 1890   1.953   2.995   0.366 -0.3075 -0.2622  1.3157
  461SOL    MW4 1891   1.866   3.000   0.377 -0.4624 -0.2100  0.1322
  462SOL     OW 1892   1.452   4.641   0.890 -0.3552  0.9142  0.1281
  462SOL    HW2 1893   1.394   4.695   0.837  1.0133  1.3472 -0.9467
  462SOL    HW3 1894   1.534   4.640   0.842  0.4924  0.2062  1.5759
  462SOL    MW4 1895   1.455   4.648   0.877 -0.0628  0.8783  0.1773
  463SOL     OW 1896   0.935   1.328   0.892 -0.4131  0.1892  0.1547
  463SOL    HW2 1897   1.012   1.276   0.867 -1.1331 -0.9772  0.3197
  463SOL    HW3 1898   0.866   1.298   0.834 -0.9875  0.5358  0.6542
  463SOL    MW4 1899   0.936   1.317   0.881 -0.5839  0.0811  0.2424
  464SOL     OW 1900   2.511   4.390   1.222 -0.5711 -0.2708 -0.2438
  464SOL    HW2 1901   2.496   4.470   1.171 -0.2753  0.1839  0.3571
  464SOL    HW3 1902   2.569   4.337   1.168 -0.2749  0.1992 -0.3927
  464SOL    MW4 1903   2.517   4.394   1.208 -0.4928 -0.1488 -0.1842
  465SOL     OW 1904   3.394   1.579   0.434 -0.1295  0.1907 -0.0457
  465SOL    HW2 1905   3.375   1.669   0.459 -0.1384  0.2205 -0.1621
  465SOL    HW3 1906   3.483   1.564   0.464 -0.1012  0.2622 -0.0943
  465SOL    MW4 1907   3.403   1.589   0.441 -0.1271  0.2041 -0.0675
  466SOL     OW 1908   3.331   3.795   0.878 -0.3385  0.0097 -0.2287
  466SOL    HW2 1909   3.329   3.875   0.826 -2.4945  0.4352  0.4437
  466SOL    HW3 1910   3.354   3.825   0.966  1.6580 -0.4888 -0.5746
  466SOL    MW4 1911   3.334   3.810   0.883 -0.3595  0.0000 -0.1857
  467SOL     OW 1912   2.248   1.295   0.861 -0.1975 -0.0522 -0.2279
  467SOL    HW2 1913   2.190   1.238   0.810 -1.3663 -0.8251  1.8970
  467SOL    HW3 1914   2.335   1.277   0.828 -0.7547 -1.7906 -0.7691
  467SOL    MW4 1915   2.252   1.285   0.850 -0.4253 -0.3835 -0.0190
  468SOL     OW 1916   3.998   0.397   1.143  0.0637  0.2639  0.6756
  468SOL    HW2 1917   4.010   0.312   1.185 -0.9766  0.2465  0.9614
  468SOL    HW3 1918   3.998   0.378   1.050  0.2382  0.0068  0.7283
  468SOL    MW4 1919   4.000   0.383   1.137 -0.0505  0.2277  0.7203
  469SOL     OW 1920   2.607   0.784   0.814 -0.3384 -0.1487 -0.1340
  469SOL    HW2 1921   2.610   0.773   0.909 -0.1150  1.7446  0.0856
  469SOL    HW3 1922   2.607   0.694   0.780  1.9760 -0.8381  1.5658
  469SOL    MW4 1923   2.607   0.770   0.822 -0.0033  0.0101  0.1191
  470SOL     OW 1924   0.013   2.469   1.175  0.3559  0.6234  0.0510
  470SOL    HW2 1925   0.004   2.446   1.268  2.4604 -1.4289 -0.1870
  470SOL    HW3 1926   0.023   2.564   1.174  2.8566  0.4611  2.2136
  470SOL    MW4 1927   0.013   2.478   1.187  0.9634  0.3312  0.3048
  471SOL     OW 1928   2.629   0.127   1.226  0.7268  0.1440 -0.8031
  471SOL    HW2 1929   2.658   0.104   1.314 -0.7536 -0.2341 -0.4068
  471SOL    HW3 1930   2.583   0.211   1.237  0.3330 -0.0200 -1.1686
  471SOL    MW4 1931   2.627   0.135   1.239  0.4795  0.0725 -0.7991
  472SOL     OW 1932   3.517   1.728   0.755  0.0416  0.0943  0.3407
  472SOL    HW2 1933   3.557   1.641   0.760 -1.0160 -0.4367 -0.1000
  472SOL    HW3 1934   3.581   1.787   0.795  0.9319 -0.8332  0.3044
  472SOL    MW4 1935   3.531   1.724   0.761  0.0196 -0.0983  0.2777
  473SOL     OW 1936   1.511   3.224   0.462 -0.0590 -0.3038 -0.2774
  473SOL    HW2 1937   1.606   3.220   0.474 -0.4386 -1.6094  2.7833
  473SOL    HW3 1938   1.490   3.317   0.467  0.9618 -0.0692 -0.2415
  473SOL    MW4 1939   1.521   3.235   0.464  0.0255 -0.4449  0.1312
  474SOL     OW 1940   0.450   1.633   1.188  0.4851 -0.0486 -0.4838
  474SOL    HW2 1941   0.363   1.601   1.163  0.2023  1.4658 -1.5695
  474SOL    HW3 1942   0.452   1.626   1.283 -0.3404 -1.3115 -0.5469
  474SOL    MW4 1943   0.438   1.628   1.197  0.3389 -0.0154 -0.6353
  475SOL     OW 1944   3.785   0.491   0.320 -0.3369 -0.1853  0.1436
  475SOL    HW2 1945   3.774   0.448   0.405  2.2716  1.9504  1.6273
  475SOL    HW3 1946   3.790   0.585   0.340  0.0547  0.3936 -2.4145
  475SOL    MW4 1947   3.784   0.498   0.334  0.0591  0.1729  0.0018
  476SOL     OW 1948   0.910   3.551   0.347  0.2492 -0.2939 -0.0998
  476SOL    HW2 1949   0.853   3.478   0.321 -0.5160  0.5881 -0.9634
  476SOL    HW3 1950   0.969   3.514   0.412 -1.4560 -1.1948  0.9676
  476SOL    MW4 1951   0.910   3.537   0.352 -0.0767 -0.2964 -0.0729
  477SOL     OW 1952   3.948   1.540   0.794  0.2929  0.2097 -0.5571
  477SOL    HW2 1953   3.943   1.632   0.821 -0.2090 -0.2485  0.9676
  477SOL    HW3 1954   4.011   1.539   0.722  2.8206  1.2687  1.5796
  477SOL    MW4 1955   3.956   1.552   0.788  0.5603  0.2890 -0.0741
  478SOL     OW 1956   2.094   2.222   1.089  0.7238  0.1533  0.0606
  478SOL    HW2 1957   2.069   2.139   1.129  1.1855 -0.5774 -1.1410
  478SOL    HW3 1958   2.017   2.277   1.098 -0.5447 -1.3053 -1.5195
  478SOL    MW4 1959   2.081   2.218   1.096  0.6173 -0.1357 -0.3064
  479SOL     OW 1960   1.433   3.535   0.839  0.0770 -0.0637 -0.3365
  479SOL    HW2 1961   1.450   3.629   0.830 -1.0296  0.2129  0.3529
  479SOL    HW3 1962   1.517   3.499   0.866  0.4938  0.7439 -0.5178
  479SOL    MW4 1963   1.446   3.543   0.841 -0.0141  0.0792 -0.2695
  480SOL     OW 1964   2.070   1.232   1.216 -0.3831 -0.0328 -0.2512
  480SOL    HW2 1965   1.990   1.182   1.205  0.4478 -1.1725 -1.2468
  480SOL    HW3 1966   2.137   1.182   1.169  0.9663  0.7603  0.7604
  480SOL    MW4 1967   2.068   1.219   1.208 -0.0954 -0.0784 -0.2490
  481SOL     OW 1968   2.381   4.470   0.472 -0.0610 -0.4387  0.4298
  481SOL    HW2 1969   2.409   4.453   0.562  1.8201 -0.8056 -0.1990
  481SOL    HW3 1970   2.399   4.388   0.425  1.0754  0.4624 -0.7561
  481SOL    MW4 1971   2.387   4.457   0.478  0.3371 -0.3681  0.1904
  482SOL     OW 1972   2.296   2.490   0.447  0.1584 -0.1848 -0.3006
  482SOL    HW2 1973   2.314   2.428   0.518 -0.4308 -0.5987 -0.5064
  482SOL    HW3 1974   2.378   2.494   0.397  1.4685  2.1538  1.9337
  482SOL    MW4 1975   2.309   2.482   0.450  0.2537  0.0691 -0.0329
  483SOL     OW 1976   3.090   1.695   1.230 -0.4642 -0.2744 -0.3543
  483SOL    HW2 1977   3.040   1.617   1.203  1.1764 -1.6603  0.5191
  483SOL    HW3 1978   3.109   1.680   1.323  0.9666  0.5537 -0.5039
  483SOL    MW4 1979   3.086   1.683   1.239 -0.0589 -0.3481 -0.2588
  484SOL     OW 1980   3.353   4.646   0.535  0.3286  0.5318  0.0447
  484SOL    HW2 1981   3.281   4.685   0.584 -0.5944 -0.4507 -0.5131
  484SOL    HW3 1982   3.366   4.560   0.574 -0.0203 -0.0213 -1.0189
  484SOL    MW4 1983   3.345   4.640   0.546  0.1607  0.3290 -0.1692
  485SOL     OW 1984   0.119   1.128   0.702  0.3705 -0.1996 -0.3929
  485SOL    HW2 1985   0.173   1.057   0.737 -0.9119 -0.2347  1.5628
  485SOL    HW3 1986   0.180   1.180   0.649  2.5613  0.2245  2.4063
  485SOL    MW4 1987   0.134   1.126   0.699  0.4904 -0.1483  0.2345
  486SOL     OW 1988   4.482   3.509   1.140 -0.3015  0.3071  0.4701
  486SOL    HW2 1989   4.463   3.418   1.164 -1.2854  0.2006 -0.6716
  486SOL    HW3 1990   4.503   3.505   1.047 -0.4626  1.2775  0.3922
  486SOL    MW4 1991   4.483   3.496   1.131 -0.4530  0.4210  0.3092
  487SOL     OW 1992   1.779   3.188   0.793  0.4629 -0.2882 -0.5278
  487SOL    HW2 1993   1.710   3.123   0.809  0.8853 -0.7782 -0.6771
  487SOL    HW3 1994   1.860   3.138   0.799  0.7857  0.2005 -0.7946
  487SOL    MW4 1995   1.780   3.172   0.796  0.5612 -0.2882 -0.5827
  488SOL     OW 1996   0.426   0.860   1.210  0.1558  0.0919 -0.3166
  488SOL    HW2 1997   0.433   0.859   1.306 -0.9355  0.2521 -0.2357
  488SOL    HW3 1998   0.432   0.953   1.187 -0.6499  0.1435 -0.3243
  488SOL    MW4 1999   0.428   0.872   1.220 -0.0945  0.1199 -0.3068
  489SOL     OW 2000   3.393   4.404   0.928  0.3950 -0.2799 -0.6603
  489SOL    HW2 2001   3.450   4.347   0.980  1.8137  0.4652 -1.3706
  489SOL    HW3 2002   3.305   4.366   0.938  0.5235  0.1844  2.6909
  489SOL    MW4 2003   3.389   4.391   0.936  0.5991 -0.1197 -0.3119
  490SOL     OW 2004   3.151   4.257   0.920  0.7930 -0.1245 -0.0795
  490SOL    HW2 2005   3.177   4.175   0.876 -0.1823 -1.4693  1.7820
  490SOL    HW3 2006   3.160   4.238   1.013  0.8742  2.0231  0.3751
  490SOL    MW4 2007   3.156   4.243   0.927  0.6750 -0.0191  0.2261
  491SOL     OW 2008   1.066   4.060   0.439 -0.1069 -0.0353  0.2273
  491SOL    HW2 2009   1.119   4.113   0.498 -1.9904  2.5467 -0.3257
  491SOL    HW3 2010   0.996   4.118   0.411 -0.5810 -1.9276 -2.7297
  491SOL    MW4 2011   1.064   4.074   0.443 -0.4181  0.0563 -0.2358
  492SOL     OW 2012   3.620   0.194   1.225  0.4737  0.8173 -0.2273
  492SOL    HW2 2013   3.533   0.156   1.215  0.7732  0.4012 -1.2776
  492SOL    HW3 2014   3.610   0.286   1.199  0.4552  0.6434 -0.8386
  492SOL    MW4 2015   3.607   0.201   1.220  0.5107  0.7394 -0.4466
  493SOL     OW 2016   1.095   3.986   0.851 -0.1359 -0.5038  0.4925
  493SOL    HW2 2017   1.042   4.064   0.865  1.2289  0.6430 -0.5393
  493SOL    HW3 2018   1.034   3.920   0.818 -1.2298  0.2307  1.0529
  493SOL    MW4 2019   1.080   3.987   0.849 -0.1001 -0.2556  0.4302
  494SOL     OW 2020   1.793   0.108   1.231 -0.4092 -0.2687 -0.3133
  494SOL    HW2 2021   1.714   0.081   1.184 -1.3688  0.9271  0.5720
  494SOL    HW3 2022   1.863   0.056   1.192 -1.8343 -2.3074 -0.2609
  494SOL    MW4 2023   1.791   0.097   1.220 -0.7238 -0.3799 -0.1897
  495SOL     OW 2024   1.096   4.645   1.143  0.6262  0.2212  0.2686
  495SOL    HW2 2025   1.016   4.680   1.181  0.1957 -2.5702  2.0443
  495SOL    HW3 2026   1.076   4.634   1.050 -0.2715  1.6124  0.2820
  495SOL    MW4 2027   1.083   4.648   1.135  0.4508  0.0367  0.5046
  496SOL     OW 2028   3.381   2.821   1.146 -0.1264  0.3625  0.0571
  496SOL    HW2 2029   3.299   2.778   1.123 -0.6725 -0.1524  2.7920
  496SOL    HW3 2030   3.448   2.772   1.098 -1.1178 -1.1829  0.2128
  496SOL    MW4 2031   3.379   2.809   1.137 -0.3290  0.0906  0.4386
  497SOL     OW 2032   0.892   2.683   1.136 -0.0616 -0.0641 -0.1561
  497SOL    HW2 2033   0.981   2.715   1.149 -0.0485  0.0477 -0.5046
  497SOL    HW3 2034   0.838   2.739   1.191 -0.1513  1.2016 -1.4748
  497SOL    MW4 2035   0.897   2.695   1.145 -0.0718  0.1175 -0.3760
  498SOL     OW 2036   1.839   2.792   0.577  0.1321  0.0489 -0.3870
  498SOL    HW2 2037   1.846   2.856   0.506  0.4863 -1.3506 -1.6262
  498SOL    HW3 2038   1.824   2.709   0.533 -0.9586 -0.6417  1.2479
  498SOL    MW4 2039   1.838   2.790   0.562  0.0349 -0.2270 -0.3348
  499SOL     OW 2040   3.042   2.840   0.251  0.1125  0.2578  0.8991
  499SOL    HW2 2041   3.084   2.923   0.229 -0.0124  0.3924  1.1566
  499SOL    HW3 2042   2.960   2.866   0.294 -0.1928 -0.0028  0.4726
  499SOL    MW4 2043   3.037   2.854   0.254  0.0558  0.2410  0.8768
  500SOL     OW 2044   4.115   3.053   0.823  0.2310 -0.2990 -0.6611
  500SOL    HW2 2045   4.021   3.049   0.844  0.3342  1.6229  0.2763
  500SOL    HW3 2046   4.157   3.067   0.908  1.4791 -2.2876 -0.9296
  500SOL    MW4 2047   4.108   3.054   0.837  0.4096 -0.3080 -0.5729
  501SOL     OW 2048   3.667   1.902   0.934  0.4669 -0.0414  0.0314
  501SOL    HW2 2049   3.676   1.873   1.025  2.3338 -0.3352 -0.2217
  501SOL    HW3 2050   3.600   1.971   0.937 -0.3675 -0.8887  1.4251
  501SOL    MW4 2051   3.659   1.907   0.946  0.6030 -0.1919  0.1819
  502SOL     OW 2052   3.301   3.601   0.491 -0.1909  0.3196  0.1735
  502SOL    HW2 2053   3.350   3.683   0.499  0.4823 -0.0355 -0.2466
  502SOL    HW3 2054   3.357   3.536   0.534 -0.8052  0.1143  0.6606
  502SOL    MW4 2055   3.315   3.603   0.497 -0.1831  0.2458  0.1823
  503SOL     OW 2056   3.947   2.460   1.236  0.0187 -0.0801  0.2698
  503SOL    HW2 2057   3.961   2.441   1.329  1.2586 -0.5054  0.0011
  503SOL    HW3 2058   4.006   2.532   1.217  0.5462 -0.7002 -0.4478
  503SOL    MW4 2059   3.956   2.467   1.246  0.2518 -0.2182  0.1397
  504SOL     OW 2060   3.873   1.692   1.220  0.4105 -0.1736 -0.1288
  504SOL    HW2 2061   3.919   1.659   1.297  2.8615  0.0535 -1.4558
  504SOL    HW3 2062   3.818   1.763   1.253  2.2325  0.6206  1.2778
  504SOL    MW4 2063   3.872   1.697   1.234  0.9742 -0.0389 -0.1181
  505SOL     OW 2064   3.840   0.479   0.730  0.4087 -0.4248 -0.3548
  505SOL    HW2 2065   3.797   0.422   0.667 -0.6840  1.4491 -1.3199
  505SOL    HW3 2066   3.862   0.558   0.681 -1.6590  1.6287  1.8682
  505SOL    MW4 2067   3.837   0.482   0.715 -0.0083  0.0933 -0.1888
  506SOL     OW 2068   0.928   4.210   0.895 -0.0498 -0.0462 -0.0686
  506SOL    HW2 2069   0.986   4.275   0.855  0.4368 -0.9173 -0.8191
  506SOL    HW3 2070   0.909   4.244   0.982  1.9970  0.0277  0.3891
  506SOL    MW4 2071   0.933   4.223   0.901  0.2844 -0.1512 -0.1072
  507SOL     OW 2072   3.157   1.465   0.451 -0.2164 -0.0422 -0.5621
  507SOL    HW2 2073   3.240   1.505   0.429 -0.0089  0.4665  1.0694
  507SOL    HW3 2074   3.167   1.373   0.428  1.2597 -0.2389  0.8039
  507SOL    MW4 2075   3.169   1.458   0.445  0.0057 -0.0011 -0.1666
  508SOL     OW 2076   1.335   2.439   0.509  0.1409 -0.1042 -0.0063
  508SOL    HW2 2077   1.428   2.462   0.510  0.1494 -0.1230  1.3225
  508SOL    HW3 2078   1.296   2.498   0.445  1.0000  0.1754 -0.2886
  508SOL    MW4 2079   1.342   2.449   0.501  0.2555 -0.0699  0.1318
  509SOL     OW 2080   3.325   2.246   0.495  0.7403  0.0998 -0.1462
  509SOL    HW2 2081   3.383   2.180   0.459  2.1242  1.6389 -0.7998
  509SOL    HW3 2082   3.354   2.328   0.456 -1.9755  0.9042 -0.6226
  509SOL    MW4 2083   3.336   2.248   0.485  0.5646  0.4091 -0.2953
  510SOL     OW 2084   2.357   2.300   0.669  0.0954 -0.3698  0.1967
  510SOL    HW2 2085   2.377   2.218   0.624 -1.8128 -0.4614 -0.5365
  510SOL    HW3 2086   2.283   2.278   0.725 -0.3582  0.8260  0.0650
  510SOL    MW4 2087   2.350   2.286   0.670 -0.2162 -0.2244  0.0826
  511SOL     OW 2088   1.130   0.526   1.185 -0.2102  0.2213 -0.5143
  511SOL    HW2 2089   1.130   0.504   1.278  0.2908  1.5414 -0.1857
  511SOL    HW3 2090   1.202   0.475   1.149 -0.0005  0.1819 -0.0509
  511SOL    MW4 2091   1.140   0.516   1.193 -0.1166  0.3903 -0.4098
  512SOL     OW 2092   1.302   3.248   1.155 -0.1631  0.2560  0.0856
  512SOL    HW2 2093   1.324   3.248   1.249  1.1958  0.6789 -0.2155
  512SOL    HW3 2094   1.221   3.198   1.149 -0.1450  0.0411  1.4676
  512SOL    MW4 2095   1.294   3.241   1.167  0.0187  0.2832  0.2283
  513SOL     OW 2096   1.753   3.844   0.373 -0.8150  0.0416  0.2061
  513SOL    HW2 2097   1.843   3.815   0.391 -1.1130 -0.6878  0.5235
  513SOL    HW3 2098   1.712   3.850   0.459 -0.9662  0.7219  0.0858
  513SOL    MW4 2099   1.760   3.841   0.387 -0.8743  0.0353  0.2321
  514SOL     OW 2100   4.394   1.507   0.785  0.1606  0.5172  0.1424
  514SOL    HW2 2101   4.483   1.522   0.816  0.0196 -0.0207  0.8138
  514SOL    HW3 2102   4.379   1.413   0.800 -0.5667  0.6383  0.1690
  514SOL    MW4 2103   4.404   1.496   0.791  0.0458  0.4622  0.2345
  515SOL     OW 2104   2.876   4.349   0.130 -0.1412  0.3884  0.0604
  515SOL    HW2 2105   2.845   4.377   0.044  2.5171 -0.1175 -1.1220
  515SOL    HW3 2106   2.888   4.430   0.179 -1.0596  0.7183 -0.2525
  515SOL    MW4 2107   2.874   4.363   0.125  0.0885  0.3653 -0.1369
  516SOL     OW 2108   0.110   2.851   0.905 -0.1177  0.3834 -0.3584
  516SOL    HW2 2109   0.047   2.791   0.865 -0.8845  1.4464 -0.7573
  516SOL    HW3 2110   0.196   2.816   0.879 -0.5299 -1.1084  0.2554
  516SOL    MW4 2111   0.113   2.838   0.896 -0.2732  0.3266 -0.3301
  517SOL     OW 2112   0.546   0.433   0.391 -0.2716  0.0562 -0.0398
  517SOL    HW2 2113   0.501   0.463   0.470 -2.4779 -2.0549 -0.4596
  517SOL    HW3 2114   0.599   0.359   0.419 -1.8538 -1.3586 -0.6783
  517SOL    MW4 2115   0.547   0.427   0.405 -0.7714 -0.4090 -0.1794
  518SOL     OW 2116   4.229   2.264   0.508 -0.2843 -0.1172  0.4114
  518SOL    HW2 2117   4.321   2.285   0.527 -0.0541  1.5159 -2.2545
  518SOL    HW3 2118   4.211   2.186   0.561  2.0480  0.6535  2.4540
  518SOL    MW4 2119   4.239   2.256   0.518  0.0534  0.2000  0.3291
  519SOL     OW 2120   0.854   1.170   1.112 -0.7598 -0.1061  0.2536
  519SOL    HW2 2121   0.780   1.216   1.152 -1.3322 -0.4925 -0.3477
  519SOL    HW3 2122   0.867   1.215   1.028 -0.8931 -0.5996 -0.0361
  519SOL    MW4 2123   0.846   1.182   1.106 -0.8529 -0.2222  0.1361
  520SOL     OW 2124   3.236   3.242   0.422  0.1501 -0.5919  0.3916
  520SOL    HW2 2125   3.259   3.320   0.371  0.5010 -1.0078 -0.0887
  520SOL    HW3 2126   3.156   3.267   0.468 -2.1268 -1.3374 -2.9821
  520SOL    MW4 2127   3.228   3.255   0.421 -0.1040 -0.7451 -0.1168
  521SOL     OW 2128   2.523   2.318   1.130  0.0536 -0.5103 -0.2441
  521SOL    HW2 2129   2.588   2.370   1.177  0.3718 -0.1512 -1.0712
  521SOL    HW3 2130   2.439   2.359   1.151  0.1182 -0.8304  0.6351
  521SOL    MW4 2131   2.520   2.330   1.139  0.1042 -0.5050 -0.2372
  522SOL     OW 2132   0.231   1.254   1.195  0.4875  0.1137  0.0891
  522SOL    HW2 2133   0.152   1.219   1.154 -0.7101  1.8891  0.8095
  522SOL    HW3 2134   0.238   1.344   1.161  3.0476 -0.4982 -1.1381
  522SOL    MW4 2135   0.222   1.262   1.185  0.6673  0.2673  0.0223
  523SOL     OW 2136   1.268   0.310   0.501 -0.2962  0.0031  0.1586
  523SOL    HW2 2137   1.363   0.316   0.498 -0.2253  0.0895  1.8039
  523SOL    HW3 2138   1.237   0.381   0.445  0.6093  0.0312 -0.3076
  523SOL    MW4 2139   1.277   0.320   0.493 -0.1674  0.0182  0.3142
  524SOL     OW 2140   2.656   2.002   0.484 -0.4239  0.5053 -0.2374
  524SOL    HW2 2141   2.675   2.092   0.458 -0.3129  1.0161  1.5010
  524SOL    HW3 2142   2.671   2.001   0.579  1.0321 -1.7160 -0.4410
  524SOL    MW4 2143   2.660   2.014   0.493 -0.2170  0.2794 -0.0349
  525SOL     OW 2144   0.232   3.589   1.224 -0.2496  0.3545  0.1088
  525SOL    HW2 2145   0.222   3.599   1.318 -0.6684 -0.8695  0.2003
  525SOL    HW3 2146   0.143   3.569   1.192  0.0276 -0.0219 -0.4398
  525SOL    MW4 2147   0.219   3.588   1.232 -0.2683  0.1431  0.0484
  526SOL     OW 2148   0.362   4.123   0.561  0.1739 -0.2368  0.0037
  526SOL    HW2 2149   0.325   4.047   0.516  0.9532  0.5490 -2.0501
  526SOL    HW3 2150   0.454   4.100   0.574 -0.0394 -0.4384  1.1736
  526SOL    MW4 2151   0.370   4.110   0.557  0.2486 -0.1593 -0.1130
  527SOL     OW 2152   2.445   3.123   0.806 -0.0699 -0.3596 -0.8189
  527SOL    HW2 2153   2.381   3.190   0.781 -0.1948 -0.3684 -0.5246
  527SOL    HW3 2154   2.445   3.124   0.901  0.3207 -0.4098 -0.8189
  527SOL    MW4 2155   2.436   3.132   0.815 -0.0348 -0.3672 -0.7801
  528SOL     OW 2156   1.077   3.652   1.181 -0.4270  0.3779  0.3458
  528SOL    HW2 2157   1.150   3.616   1.132 -0.3222  0.9881  0.0538
  528SOL    HW3 2158   1.081   3.747   1.166 -1.3767  0.4011  0.1847
  528SOL    MW4 2159   1.087   3.660   1.173 -0.5385  0.4613  0.2860
  529SOL     OW 2160   3.354   1.833   0.558  0.0810  0.2033 -0.2574
  529SOL    HW2 2161   3.402   1.893   0.501  0.8332  0.1274  0.2966
  529SOL    HW3 2162   3.418   1.805   0.624  0.2776 -2.7138 -1.6078
  529SOL    MW4 2163   3.369   1.837   0.559  0.2060 -0.1916 -0.3625
  530SOL     OW 2164   0.452   3.995   1.257  0.0150 -0.4996  0.6398
  530SOL    HW2 2165   0.440   4.088   1.240  2.1619 -0.3209 -0.0909
  530SOL    HW3 2166   0.448   3.986   1.352  0.3332  0.4362  0.7427
  530SOL    MW4 2167   0.450   4.006   1.267  0.3402 -0.3524  0.5568
  531SOL     OW 2168   0.653   4.657   1.139 -0.1245 -0.2167 -0.2213
  531SOL    HW2 2169   0.665   4.571   1.179 -0.2530  0.9634  2.5046
  531SOL    HW3 2170   0.574   4.692   1.181 -0.1791  1.1480 -1.4217
  531SOL    MW4 2171   0.644   4.650   1.150 -0.1487  0.1191 -0.0199
  532SOL     OW 2172   1.744   4.295   0.810 -0.4336  0.4008  0.1337
  532SOL    HW2 2173   1.760   4.302   0.904  1.0025 -1.8421  0.0999
  532SOL    HW3 2174   1.651   4.275   0.802 -0.4718  0.2039  1.0845
  532SOL    MW4 2175   1.734   4.293   0.821 -0.2493  0.0792  0.2546
  533SOL     OW 2176   0.678   2.090   1.216  0.0453 -0.7135  0.2823
  533SOL    HW2 2177   0.617   2.024   1.183  1.6343 -1.8624 -0.3787
  533SOL    HW3 2178   0.674   2.080   1.311 -1.5215 -0.1012  0.3090
  533SOL    MW4 2179   0.669   2.080   1.224  0.0482 -0.7844  0.1987
  534SOL     OW 2180   1.229   0.556   0.343  0.1042  0.3346 -0.5578
  534SOL    HW2 2181   1.311   0.583   0.385 -1.2920  0.8239  1.9728
  534SOL    HW3 2182   1.167   0.625   0.365 -1.3701 -0.7593 -1.1870
  534SOL    MW4 2183   1.231   0.568   0.352 -0.2745  0.2548 -0.3069
  535SOL     OW 2184   3.118   1.306   0.736 -0.0197 -0.2339  0.0781
  535SOL    HW2 2185   3.154   1.365   0.670 -0.4289  0.4262  0.4458
  535SOL    HW3 2186   3.194   1.278   0.788  0.0491  0.7096  0.4917
  535SOL    MW4 2187   3.133   1.310   0.735 -0.0646 -0.0223  0.1813
  536SOL     OW 2188   1.134   0.801   1.115 -0.5727  0.1901 -0.0231
  536SOL    HW2 2189   1.145   0.709   1.140  0.0216  0.0774 -0.6778
  536SOL    HW3 2190   1.062   0.832   1.169  0.2134 -0.2500  1.2977
  536SOL    MW4 2191   1.126   0.793   1.125 -0.3905  0.1172  0.0647
  537SOL     OW 2192   3.800   0.007   1.112  0.0690  0.3169 -0.3572
  537SOL    HW2 2193   3.885   0.042   1.141 -0.6917  2.0853 -0.2306
  537SOL    HW3 2194   3.735   0.066   1.148 -1.2301 -0.8228 -0.7616
  537SOL    MW4 2195   3.803   0.019   1.121 -0.2027  0.3998 -0.3937
  538SOL     OW 2196   2.252   0.345   1.113  0.0741 -0.2550  0.1421
  538SOL    HW2 2197   2.196   0.411   1.155 -2.7588 -0.8600 -2.4799
  538SOL    HW3 2198   2.231   0.263   1.158  0.3690 -0.1431  0.4898
  538SOL    MW4 2199   2.242   0.343   1.125 -0.2606 -0.3201 -0.1581
  539SOL     OW 2200   1.333   3.965   0.724  0.7652 -0.4933  0.0549
  539SOL    HW2 2201   1.246   3.977   0.762  0.5886  0.9649 -0.7751
  539SOL    HW3 2202   1.316   3.916   0.643  0.4067  2.0409 -1.4345
  539SOL    MW4 2203   1.319   3.960   0.718  0.6945  0.0334 -0.2511
  540SOL     OW 2204   2.118   0.855   0.335  0.3471 -0.4403 -0.1307
  540SOL    HW2 2205   2.083   0.775   0.374 -0.0816  0.1784  0.7642
  540SOL    HW3 2206   2.051   0.882   0.271  0.8961 -1.2673 -1.0752
  540SOL    MW4 2207   2.104   0.848   0.331  0.3629 -0.4678 -0.1373
  541SOL     OW 2208   1.776   2.872   1.026  0.1096  0.5527  0.6708
  541SOL    HW2 2209   1.836   2.935   1.066 -1.0587  1.1430  1.5341
  541SOL    HW3 2210   1.718   2.845   1.097  0.8477 -1.8318  0.3977
  541SOL    MW4 2211   1.776   2.877   1.040  0.0529  0.3159  0.7488
  542SOL     OW 2212   4.444   1.675   1.522  0.2010 -0.0526  0.3048
  542SOL    HW2 2213   4.467   1.768   1.532 -1.5856  0.4219  0.1425
  542SOL    HW3 2214   4.447   1.660   1.427  2.5164 -0.7228  0.4442
  542SOL    MW4 2215   4.448   1.685   1.511  0.2708 -0.0786  0.3018
  543SOL     OW 2216   0.661   1.024   0.670 -0.0062  0.5297 -0.0701
  543SOL    HW2 2217   0.705   1.109   0.670  2.1451 -0.5562  0.2082
  543SOL    HW3 2218   0.705   0.974   0.738 -0.5986 -1.1515 -0.9002
  543SOL    MW4 2219   0.672   1.029   0.679  0.1995  0.1645 -0.1429
  544SOL     OW 2220   1.321   1.662   1.226 -0.2775 -0.2864 -0.0843
  544SOL    HW2 2221   1.256   1.624   1.167 -0.8944 -0.3178  0.6157
  544SOL    HW3 2222   1.404   1.623   1.198 -0.4447  0.3266 -1.4578
  544SOL    MW4 2223   1.324   1.652   1.215 -0.3809 -0.2096 -0.1731
  545SOL     OW 2224   3.868   3.347   0.766 -0.6438  0.5169 -0.2364
  545SOL    HW2 2225   3.785   3.390   0.788 -0.9993  0.4227 -1.3362
  545SOL    HW3 2226   3.847   3.253   0.768 -0.5614  0.4928 -0.4865
  545SOL    MW4 2227   3.854   3.340   0.769 -0.6800  0.5014 -0.4144
  546SOL     OW 2228   0.913   1.948   1.097 -0.4535 -0.0858  0.1247
  546SOL    HW2 2229   0.847   2.012   1.126 -0.9116 -0.2971 -0.4556
  546SOL    HW3 2230   0.988   1.965   1.154 -1.7872 -1.3537  2.3154
  546SOL    MW4 2231   0.914   1.959   1.109 -0.6899 -0.2810  0.3371
  547SOL     OW 2232   2.954   1.065   0.762 -0.2414  0.0113 -0.1690
  547SOL    HW2 2233   2.871   1.090   0.800 -0.6615  0.5397 -1.3907
  547SOL    HW3 2234   3.003   1.147   0.755  0.4414 -0.3172  0.6760
  547SOL    MW4 2235   2.950   1.079   0.766 -0.2069  0.0376 -0.2187
  548SOL     OW 2236   4.365   1.240   0.791  0.1680  0.2809 -0.6779
  548SOL    HW2 2237   4.452   1.208   0.768 -0.2708 -0.9494 -0.6606
  548SOL    HW3 2238   4.308   1.163   0.781 -0.8039  0.9229 -0.0834
  548SOL    MW4 2239   4.369   1.225   0.786 -0.0181  0.2035 -0.5971
  549SOL     OW 2240   1.185   3.424   0.711  0.0057 -0.2945 -0.2171
  549SOL    HW2 2241   1.100   3.449   0.747  0.1200  0.5400 -0.5154
  549SOL    HW3 2242   1.245   3.492   0.741  0.6009 -0.9598  0.1104
  549SOL    MW4 2243   1.181   3.437   0.719  0.0993 -0.2723 -0.2132
  550SOL     OW 2244   2.517   4.157   0.514 -0.3262  0.1631  0.3223
  550SOL    HW2 2245   2.612   4.157   0.529 -0.1949 -3.2035 -0.1447
  550SOL    HW3 2246   2.492   4.065   0.522 -3.3838  0.8674 -0.7429
  550SOL    MW4 2247   2.526   4.145   0.517 -0.7124 -0.1884  0.1202
  551SOL     OW 2248   3.585   0.472   1.171 -0.0570  0.1287 -0.3106
  551SOL    HW2 2249   3.491   0.473   1.184 -0.1740 -0.8517 -0.9937
  551SOL    HW3 2250   3.597   0.473   1.076  0.6108 -0.0278 -0.2329
  551SOL    MW4 2251   3.574   0.472   1.161  0.0155 -0.0213 -0.3905
  552SOL     OW 2252   1.365   1.929   1.129 -0.2300  0.5571  0.5081
  552SOL    HW2 2253   1.293   1.980   1.167 -0.7213  0.4062 -0.2127
  552SOL    HW3 2254   1.347   1.839   1.157 -0.7526  0.4005 -0.3076
  552SOL    MW4 2255   1.353   1.924   1.138 -0.3638  0.5165  0.3053
  553SOL     OW 2256   1.102   3.917   1.112 -0.2928  0.2539  0.3095
  553SOL    HW2 2257   1.095   3.946   1.021  0.5295 -0.9530 -0.1516
  553SOL    HW3 2258   1.017   3.940   1.151 -1.1309 -0.3763 -1.0986
  553SOL    MW4 2259   1.089   3.924   1.106 -0.2949  0.0114  0.0631
  554SOL     OW 2260   3.592   3.751   0.789 -0.5544 -0.0036  0.0089
  554SOL    HW2 2261   3.633   3.838   0.796  1.7914 -1.0594 -0.2334
  554SOL    HW3 2262   3.504   3.764   0.826 -0.5184  2.6291 -0.6718
  554SOL    MW4 2263   3.586   3.764   0.795 -0.2401  0.2046 -0.1128
  555SOL     OW 2264   2.722   1.197   0.465  0.2246 -0.0732 -0.1590
  555SOL    HW2 2265   2.799   1.144   0.480  0.1122 -0.7071 -1.7095
  555SOL    HW3 2266   2.752   1.267   0.406  0.0208  0.6792  0.6274
  555SOL    MW4 2267   2.736   1.200   0.459  0.1829 -0.0576 -0.2598
  556SOL     OW 2268   2.068   1.107   0.505 -1.0052  0.9171 -0.7486
  556SOL    HW2 2269   2.072   1.014   0.481  0.5083  1.1792 -1.5907
  556SOL    HW3 2270   2.090   1.109   0.598  0.5511  0.5583 -1.0957
  556SOL    MW4 2271   2.071   1.095   0.514 -0.6003  0.9043 -0.9056
  557SOL     OW 2272   3.744   0.731   0.453 -0.6795  0.0473 -0.1221
  557SOL    HW2 2273   3.728   0.814   0.409 -0.7856  0.5117  0.7911
  557SOL    HW3 2274   3.810   0.751   0.519 -1.4716 -0.3600  0.8069
  557SOL    MW4 2275   3.751   0.744   0.456 -0.7982  0.0548  0.1210
  558SOL     OW 2276   2.083   1.702   0.437 -0.0074 -0.0774  0.6938
  558SOL    HW2 2277   2.155   1.659   0.482 -0.4987  1.1854  2.7360
  558SOL    HW3 2278   2.004   1.665   0.476 -0.4667 -0.2733 -0.3908
  558SOL    MW4 2279   2.082   1.692   0.448 -0.1328  0.0633  0.8201
  559SOL     OW 2280   2.389   0.777   0.322  0.1301  0.2950  0.8595
  559SOL    HW2 2281   2.299   0.803   0.307  0.2642  0.4789  0.3927
  559SOL    HW3 2282   2.434   0.858   0.344  0.4063  0.3580  0.0583
  559SOL    MW4 2283   2.383   0.791   0.323  0.1841  0.3276  0.6922
  560SOL     OW 2284   1.789   2.612   0.377  0.4778  0.1177  0.5665
  560SOL    HW2 2285   1.727   2.554   0.422  1.2083  0.0522  1.4808
  560SOL    HW3 2286   1.865   2.557   0.359  1.1008  0.7491  1.2754
  560SOL    MW4 2287   1.791   2.597   0.381  0.6562  0.1922  0.7806
  561SOL     OW 2288   3.073   4.241   0.289  0.1971 -0.1943  0.5835
  561SOL    HW2 2289   3.019   4.294   0.231  0.9254  0.2967  0.3507
  561SOL    HW3 2290   3.162   4.277   0.279  0.3387 -0.1590  1.9315
  561SOL    MW4 2291   3.078   4.252   0.280  0.3121 -0.1249  0.7306
  562SOL     OW 2292   2.666   0.491   1.039  0.1204 -0.2666  0.5953
  562SOL    HW2 2293   2.752   0.491   1.082  0.4045 -2.9541  0.1051
  562SOL    HW3 2294   2.627   0.575   1.064  2.4664  0.5491  1.6691
  562SOL    MW4 2295   2.672   0.502   1.048  0.4675 -0.5136  0.6723
  563SOL     OW 2296   1.682   3.450   0.855  0.0692 -0.3658  0.2193
  563SOL    HW2 2297   1.706   3.358   0.843 -0.2668 -0.2861 -1.1388
  563SOL    HW3 2298   1.732   3.496   0.787  0.0260  0.4256  0.7190
  563SOL    MW4 2299   1.692   3.444   0.845  0.0191 -0.2508  0.1061
  564SOL     OW 2300   1.858   1.083   0.180  0.4149 -0.3757 -0.4499
  564SOL    HW2 2301   1.863   1.175   0.205 -1.0003 -0.3046 -0.3944
  564SOL    HW3 2302   1.826   1.084   0.090 -1.6597 -0.8627  0.2506
  564SOL    MW4 2303   1.855   1.095   0.172 -0.0455 -0.4306 -0.3501
  565SOL     OW 2304   0.008   0.652   0.609 -0.1601 -0.6804 -0.4191
  565SOL    HW2 2305   0.091   0.681   0.571  0.1492 -1.3289 -0.2514
  565SOL    HW3 2306  -0.015   0.574   0.559 -1.4705  0.3983 -1.5043
  565SOL    MW4 2307   0.016   0.646   0.598 -0.2922 -0.6236 -0.5401
  566SOL     OW 2308   2.859   0.709   0.445  0.1580  0.0881 -0.1672
  566SOL    HW2 2309   2.845   0.795   0.405  0.9511  0.1249 -0.3652
  566SOL    HW3 2310   2.945   0.681   0.413 -0.3794 -1.0698 -0.6069
  566SOL    MW4 2311   2.869   0.717   0.436  0.1915 -0.0599 -0.2513
  567SOL     OW 2312   4.209   4.599   0.760 -0.0970 -0.2636  0.4582
  567SOL    HW2 2313   4.209   4.559   0.673 -1.0794 -1.2062  0.8739
  567SOL    HW3 2314   4.139   4.663   0.758 -1.1823 -1.4147  1.0432
  567SOL    MW4 2315   4.200   4.602   0.748 -0.3700 -0.5398  0.5902
  568SOL     OW 2316   1.948   3.388   0.328 -0.2714  0.0021 -0.0603
  568SOL    HW2 2317   2.031   3.435   0.332 -1.0029  1.3071  0.2253
  568SOL    HW3 2318   1.955   3.333   0.250  1.2170 -0.6059  0.4963
  568SOL    MW4 2319   1.960   3.387   0.318 -0.1715  0.0939  0.0508
  569SOL     OW 2320   4.040   0.345   0.350 -0.0129 -0.1088 -0.2224
  569SOL    HW2 2321   3.954   0.381   0.327  0.3991  0.4693 -0.8855
  569SOL    HW3 2322   4.097   0.422   0.355 -0.0121 -0.2296  2.4917
  569SOL    MW4 2323   4.036   0.360   0.347  0.0415 -0.0485  0.0482
  570SOL     OW 2324   1.698   1.446   0.446 -0.1808  0.1771  0.1374
  570SOL    HW2 2325   1.728   1.361   0.479 -0.0435  0.2392  0.1709
  570SOL    HW3 2326   1.606   1.451   0.473 -0.0322  0.2870  0.6325
  570SOL    MW4 2327   1.690   1.435   0.454 -0.1431  0.1998  0.2072
  571SOL     OW 2328   2.488   3.898   0.423  0.0585 -0.2010 -0.9877
  571SOL    HW2 2329   2.581   3.876   0.416 -0.4105 -2.3195 -0.7275
  571SOL    HW3 2330   2.467   3.938   0.338  1.1835  0.2384 -1.0720
  571SOL    MW4 2331   2.498   3.901   0.411  0.1452 -0.4227 -0.9645
  572SOL     OW 2332   3.318   4.061   0.757  0.1593 -0.8468 -0.1180
  572SOL    HW2 2333   3.342   4.057   0.665  1.0363  0.1006  0.0657
  572SOL    HW3 2334   3.401   4.072   0.804 -0.5409  2.1485  0.5373
  572SOL    MW4 2335   3.332   4.062   0.751  0.1829 -0.3266 -0.0073
  573SOL     OW 2336   1.177   0.059   0.506 -0.0810 -1.0355 -0.3406
  573SOL    HW2 2337   1.205   0.150   0.494  0.4930 -0.9359  1.5959
  573SOL    HW3 2338   1.083   0.065   0.523 -0.5254 -1.0288 -2.6042
  573SOL    MW4 2339   1.169   0.072   0.507 -0.0640 -1.0215 -0.3837
  574SOL     OW 2340   3.326   2.306   0.767  0.2771  0.0309 -0.1550
  574SOL    HW2 2341   3.316   2.256   0.686 -0.5546 -1.2164  0.6959
  574SOL    HW3 2342   3.322   2.397   0.740  0.7170 -0.3667 -1.6039
  574SOL    MW4 2343   3.324   2.311   0.753  0.2255 -0.1860 -0.2339
  575SOL     OW 2344   2.512   3.998   0.158 -0.4171  0.5834 -0.1693
  575SOL    HW2 2345   2.527   3.964   0.070  0.7125 -0.4922  0.4145
  575SOL    HW3 2346   2.596   4.037   0.183 -0.5518  0.3755  0.6424
  575SOL    MW4 2347   2.525   3.999   0.150 -0.2859  0.4139  0.0148
  576SOL     OW 2348   0.678   0.529   1.207  0.2532  1.0703 -0.0744
  576SOL    HW2 2349   0.751   0.478   1.174 -0.2650 -0.3192  0.8886
  576SOL    HW3 2350   0.600   0.481   1.179 -0.2207  0.7340  1.7799
  576SOL    MW4 2351   0.677   0.516   1.199  0.1223  0.8426  0.2974
  577SOL     OW 2352   4.184   2.065   0.761  0.2020 -0.1503  0.1016
  577SOL    HW2 2353   4.254   2.125   0.788 -0.7722  0.7575  0.6554
  577SOL    HW3 2354   4.103   2.111   0.785 -0.5862 -1.0759 -0.7734
  577SOL    MW4 2355   4.182   2.079   0.768 -0.0305 -0.1531  0.0592
  578SOL     OW 2356   1.179   1.043   0.515  0.4627  0.0872  0.0255
  578SOL    HW2 2357   1.157   1.050   0.608  1.0610  1.3482  0.0826
  578SOL    HW3 2358   1.268   1.008   0.514  0.9839  1.3904 -0.0269
  578SOL    MW4 2359   1.188   1.039   0.528  0.6104  0.4255  0.0261
  579SOL     OW 2360   1.364   0.387   1.162  0.2032 -0.2190 -0.0948
  579SOL    HW2 2361   1.369   0.370   1.068  0.8656 -0.1651 -0.0739
  579SOL    HW3 2362   1.351   0.301   1.202  2.1705 -0.5553 -0.0841
  579SOL    MW4 2363   1.363   0.374   1.155  0.5503 -0.2563 -0.0906
  580SOL     OW 2364   2.496   1.233   1.157 -0.5394 -0.0870 -0.1699
  580SOL    HW2 2365   2.514   1.320   1.121 -2.1969  0.5686  0.5531
  580SOL    HW3 2366   2.578   1.185   1.144  0.3927  1.5667 -0.5850
  580SOL    MW4 2367   2.509   1.238   1.150 -0.6351  0.2177 -0.1292
  581SOL     OW 2368   1.047   1.611   0.411  0.3439 -0.7060 -0.4071
  581SOL    HW2 2369   1.131   1.648   0.436 -0.0427 -0.1940  0.1536
  581SOL    HW3 2370   1.032   1.540   0.475 -0.4510  0.3335  0.5889
  581SOL    MW4 2371   1.056   1.606   0.423  0.1880 -0.5013 -0.2017
  582SOL     OW 2372   3.817   1.177   0.494  0.0238  0.5368  0.1094
  582SOL    HW2 2373   3.786   1.114   0.429  0.2197  0.7394 -0.1816
  582SOL    HW3 2374   3.911   1.161   0.499  0.0434  0.6751  0.1785
  582SOL    MW4 2375   3.825   1.166   0.486  0.0522  0.5817  0.0802
  583SOL     OW 2376   1.988   0.535   1.515  0.4799 -0.0088  0.2382
  583SOL    HW2 2377   2.055   0.481   1.556  0.0596 -1.8752 -1.4676
  583SOL    HW3 2378   2.019   0.547   1.425 -1.3891 -0.7803 -0.5325
  583SOL    MW4 2379   2.001   0.530   1.508  0.1781 -0.3569 -0.0886
  584SOL     OW 2380   3.620   1.847   0.216 -0.6873 -0.3176  0.6123
  584SOL    HW2 2381   3.554   1.783   0.187 -1.0107 -0.2289  1.1385
  584SOL    HW3 2382   3.677   1.798   0.275 -0.7796 -0.1853  0.8118
  584SOL    MW4 2383   3.619   1.832   0.220 -0.7422 -0.2884  0.7080
  585SOL     OW 2384   0.211   0.184   0.537 -0.3044 -0.3963 -0.5561
  585SOL    HW2 2385   0.116   0.185   0.540 -0.2567  0.8309  0.6544
  585SOL    HW3 2386   0.232   0.221   0.451 -0.9196 -1.5457 -1.2176
  585SOL    MW4 2387   0.202   0.189   0.526 -0.3793 -0.3860 -0.4836
  586SOL     OW 2388   1.915   4.513   0.788  0.4844 -0.1692  0.5033
  586SOL    HW2 2389   1.965   4.471   0.718 -0.2751  0.8613 -0.6776
  586SOL    HW3 2390   1.851   4.448   0.814  1.5717 -1.0088  1.0947
  586SOL    MW4 2391   1.913   4.499   0.782  0.5277 -0.1445  0.4256
  587SOL     OW 2392   1.592   0.773   1.120 -0.2154 -0.2771 -0.5986
  587SOL    HW2 2393   1.607   0.799   1.030 -0.5977  0.9546 -0.3158
  587SOL    HW3 2394   1.672   0.798   1.166 -0.7878  0.9076 -0.2248
  587SOL    MW4 2395   1.604   0.780   1.115 -0.3414  0.0418 -0.5120
  588SOL     OW 2396   4.474   0.448   0.807  0.0821 -0.5940 -0.5535
  588SOL    HW2 2397   4.507   0.526   0.762  0.4503 -0.4056  0.0291
  588SOL    HW3 2398   4.385   0.436   0.774  0.9278 -1.4704 -2.6267
  588SOL    MW4 2399   4.467   0.457   0.797  0.2418 -0.6848 -0.7502
  589SOL     OW 2400   0.481   3.532   0.843 -0.5003  0.5064  0.4902
  589SOL    HW2 2401   0.478   3.526   0.938 -0.0135 -0.6197  0.4441
  589SOL    HW3 2402   0.411   3.473   0.813 -0.2521  0.3806  0.1459
  589SOL    MW4 2403   0.471   3.523   0.851 -0.4033  0.3412  0.4387
  590SOL     OW 2404   1.821   1.655   1.264 -0.2660  0.1557 -0.0678
  590SOL    HW2 2405   1.880   1.594   1.219  0.4464  0.3483  0.6088
  590SOL    HW3 2406   1.829   1.737   1.214 -1.4223 -0.3681 -1.1364
  590SOL    MW4 2407   1.830   1.658   1.251 -0.3245  0.1121 -0.1194
  591SOL     OW 2408   2.692   4.042   1.230  0.0611 -0.0524  0.5415
  591SOL    HW2 2409   2.611   4.002   1.200 -0.4314  0.6574  0.9087
  591SOL    HW3 2410   2.761   3.987   1.194 -0.5627 -0.2127 -0.4265
  591SOL    MW4 2411   2.691   4.030   1.222 -0.0861  0.0200  0.4624
  592SOL     OW 2412   2.441   1.935   0.859  0.0925  0.5228  0.3230
  592SOL    HW2 2413   2.482   1.849   0.848  0.6317  0.6084  1.6032
  592SOL    HW3 2414   2.388   1.927   0.938 -0.8858  0.9846 -0.2790
  592SOL    MW4 2415   2.440   1.923   0.868  0.0346  0.5950  0.4124
  593SOL     OW 2416   0.461   1.123   1.126 -0.2906 -0.2745 -0.2295
  593SOL    HW2 2417   0.465   1.124   1.031 -2.2666  0.0392 -0.3299
  593SOL    HW3 2418   0.380   1.169   1.148  0.2261 -0.1837  1.6083
  593SOL    MW4 2419   0.451   1.129   1.117 -0.4831 -0.2211 -0.0001
  594SOL     OW 2420   2.225   4.037   1.206  0.1856 -0.2422  0.0582
  594SOL    HW2 2421   2.236   4.118   1.156  2.6449 -0.5166  0.0935
  594SOL    HW3 2422   2.149   3.994   1.165  1.0592  0.3795 -2.3385
  594SOL    MW4 2423   2.216   4.042   1.194  0.6254 -0.1960 -0.2534
  595SOL     OW 2424   2.624   3.279   0.478 -0.2895  0.1837 -0.0364
  595SOL    HW2 2425   2.652   3.276   0.569  1.0561 -2.1532 -0.4647
  595SOL    HW3 2426   2.531   3.256   0.480 -0.9016  2.6398  0.9359
  595SOL    MW4 2427   2.615   3.275   0.490 -0.1929  0.1991  0.0354
  596SOL     OW 2428   3.492   0.433   0.334 -0.0463  0.0036  0.1373
  596SOL    HW2 2429   3.576   0.442   0.290  0.3438 -0.3380  0.8162
  596SOL    HW3 2430   3.498   0.489   0.411 -0.8074  0.7653 -0.3402
  596SOL    MW4 2431   3.504   0.442   0.338 -0.0951  0.0590  0.1639
  597SOL     OW 2432   4.444   3.667   0.465  0.1963 -0.0088  0.7412
  597SOL    HW2 2433   4.362   3.625   0.440  0.4387  0.4070 -0.8727
  597SOL    HW3 2434   4.512   3.607   0.434  0.5627  1.7942 -2.2200
  597SOL    MW4 2435   4.442   3.654   0.457  0.2766  0.2840  0.1376
  598SOL     OW 2436   3.802   0.882   0.805 -0.3377 -0.1236  0.4254
  598SOL    HW2 2437   3.831   0.868   0.894 -0.6712 -0.9491  0.4143
  598SOL    HW3 2438   3.809   0.976   0.791 -0.3946  0.0191  1.3580
  598SOL    MW4 2439   3.806   0.892   0.815 -0.3891 -0.2137  0.5470
  599SOL     OW 2440   3.331   3.091   1.190  0.3321  0.3834  0.2699
  599SOL    HW2 2441   3.419   3.130   1.190  0.2517  0.5962 -0.8706
  599SOL    HW3 2442   3.347   2.997   1.187  0.5294  0.4021  0.8262
  599SOL    MW4 2443   3.345   3.084   1.189  0.3476  0.4139  0.1929
  600SOL     OW 2444   4.027   0.142   1.217 -0.0879  0.1752  0.1547
  600SOL    HW2 2445   4.002   0.126   1.308 -1.2811 -0.4093 -0.2606
  600SOL    HW3 2446   4.116   0.108   1.209  0.1094  0.4484  1.1555
  600SOL    MW4 2447   4.035   0.136   1.228 -0.2193  0.1341  0.2317
  601SOL     OW 2448   3.278   0.824   0.481  0.4688 -0.3110 -0.0588
  601SOL    HW2 2449   3.242   0.846   0.567  0.9951  2.1350 -0.4111
  601SOL    HW3 2450   3.209   0.773   0.438  0.1193 -1.3625  1.7148
  601SOL    MW4 2451   3.264   0.821   0.486  0.4923 -0.1271  0.1287
  602SOL     OW 2452   2.102   4.414   0.598  0.0586  0.3185 -0.1667
  602SOL    HW2 2453   2.163   4.365   0.653  1.5826  1.0298 -1.2028
  602SOL    HW3 2454   2.147   4.497   0.580 -0.2106 -0.0614 -2.8370
  602SOL    MW4 2455   2.116   4.419   0.603  0.2244  0.3624 -0.6557
  603SOL     OW 2456   0.740   4.503   0.673  0.1817 -0.5570 -0.0143
  603SOL    HW2 2457   0.681   4.516   0.599 -0.5151 -0.4522  0.5549
  603SOL    HW3 2458   0.743   4.409   0.686 -0.2874 -0.5268  0.3028
  603SOL    MW4 2459   0.733   4.493   0.665  0.0279 -0.5393  0.1026
  604SOL     OW 2460   1.773   3.237   0.500  0.5160  0.1955 -0.4977
  604SOL    HW2 2461   1.828   3.307   0.464  1.4117 -0.5199 -0.5331
  604SOL    HW3 2462   1.801   3.230   0.592  0.0358  0.2675 -0.3478
  604SOL    MW4 2463   1.784   3.246   0.508  0.5709  0.1106 -0.4826
  605SOL     OW 2464   2.360   0.893   0.647 -0.2643 -0.0170  0.9040
  605SOL    HW2 2465   2.448   0.873   0.680  0.3957  0.3962 -0.5919
  605SOL    HW3 2466   2.374   0.959   0.580 -1.5619 -1.1695 -0.5206
  605SOL    MW4 2467   2.373   0.899   0.643 -0.3486 -0.1146  0.5187
  606SOL     OW 2468   3.807   2.041   0.368 -0.3849 -0.3423  0.1332
  606SOL    HW2 2469   3.889   2.086   0.350 -0.5726 -0.0111  0.0939
  606SOL    HW3 2470   3.782   2.001   0.285 -0.6038  0.1168 -0.0211
  606SOL    MW4 2471   3.814   2.041   0.355 -0.4382 -0.2379  0.1076
  607SOL     OW 2472   3.357   3.058   0.891 -0.4225  0.5037  0.0346
  607SOL    HW2 2473   3.357   3.074   0.985  0.6862  0.8071 -0.0127
  607SOL    HW3 2474   3.345   3.145   0.852 -0.6329  0.4092 -0.1154
  607SOL    MW4 2475   3.355   3.072   0.898 -0.3040  0.5314  0.0085
  608SOL     OW 2476   1.614   2.491   0.580  0.0381 -0.2603 -0.0537
  608SOL    HW2 2477   1.589   2.556   0.646 -2.0173 -0.5967 -0.4689
  608SOL    HW3 2478   1.642   2.415   0.631  0.5333  0.2328  0.4251
  608SOL    MW4 2479   1.614   2.490   0.595 -0.1678 -0.2394 -0.0454
  609SOL     OW 2480   1.993   3.919   1.079 -0.1845  0.2927  0.1089
  609SOL    HW2 2481   1.915   3.965   1.111  0.4056  0.8073  0.8308
  609SOL    HW3 2482   1.980   3.828   1.105 -1.0010  0.1807 -0.6481
  609SOL    MW4 2483   1.981   3.913   1.087 -0.2143  0.3457  0.1043
  610SOL     OW 2484   3.773   1.410   1.208  0.8125 -0.3572 -0.6417
  610SOL    HW2 2485   3.795   1.385   1.118  1.8111 -0.5059 -0.3603
  610SOL    HW3 2486   3.820   1.492   1.222  0.6682 -0.3414 -0.2437
  610SOL    MW4 2487   3.782   1.417   1.198  0.9248 -0.3746 -0.5519
  611SOL     OW 2488   1.263   3.580   0.406 -0.1907 -0.2216  0.3558
  611SOL    HW2 2489   1.337   3.545   0.456  0.1026 -0.5144 -0.2792
  611SOL    HW3 2490   1.262   3.674   0.427  0.0734 -0.3001  0.7258
  611SOL    MW4 2491   1.273   3.588   0.415 -0.1173 -0.2706  0.3208
  612SOL     OW 2492   1.359   2.425   1.195 -0.2972 -0.0982 -0.4651
  612SOL    HW2 2493   1.353   2.429   1.290  0.0247  1.1658 -0.4876
  612SOL    HW3 2494   1.283   2.373   1.169 -1.1417  0.6642  0.4108
  612SOL    MW4 2495   1.348   2.419   1.204 -0.3661  0.1690 -0.3526
  613SOL     OW 2496   2.722   2.569   0.547  0.1242 -0.5291  0.0363
  613SOL    HW2 2497   2.753   2.530   0.628  1.3178 -1.5333 -0.9011
  613SOL    HW3 2498   2.793   2.625   0.518  0.4200 -1.5664 -1.2591
  613SOL    MW4 2499   2.735   2.572   0.554  0.3204 -0.7985 -0.2583
  614SOL     OW 2500   0.738   3.327   0.340 -0.1686 -0.3132 -0.1294
  614SOL    HW2 2501   0.801   3.260   0.316 -0.4363 -1.7578  3.0818
  614SOL    HW3 2502   0.654   3.281   0.341 -0.6498  0.5584  0.0228
  614SOL    MW4 2503   0.735   3.312   0.337 -0.2674 -0.3889  0.3144
  615SOL     OW 2504   3.090   3.497   1.125  0.4474  0.6530 -0.3659
  615SOL    HW2 2505   3.167   3.526   1.174  1.0492 -0.7888 -0.4342
  615SOL    HW3 2506   3.076   3.407   1.153 -1.4503  1.0115 -0.0822
  615SOL    MW4 2507   3.098   3.489   1.135  0.2766  0.5100 -0.3375
  616SOL     OW 2508   0.026   4.267   1.133  0.0682 -0.0471 -0.1927
  616SOL    HW2 2509   0.102   4.304   1.178 -0.4822 -0.6319  1.2524
  616SOL    HW3 2510   0.007   4.186   1.180 -1.0458 -0.2493 -0.9567
  616SOL    MW4 2511   0.033   4.262   1.145 -0.1514 -0.1507 -0.1029
  617SOL     OW 2512   3.291   3.304   0.755  0.6150 -0.2167 -0.2239
  617SOL    HW2 2513   3.266   3.390   0.790  0.4308 -0.2292 -0.3264
  617SOL    HW3 2514   3.353   3.324   0.685  1.1284 -0.1963  0.2235
  617SOL    MW4 2515   3.296   3.318   0.751  0.6585 -0.2158 -0.1783
  618SOL     OW 2516   2.516   1.515   1.086 -0.3068  0.2424 -0.4200
  618SOL    HW2 2517   2.587   1.523   1.150 -1.0982 -0.8157  0.6020
  618SOL    HW3 2518   2.530   1.588   1.026  1.2521  0.4416  0.1641
  618SOL    MW4 2519   2.528   1.526   1.087 -0.2058  0.1290 -0.2083
  619SOL     OW 2520   2.883   0.631   0.712 -0.0476  0.6438  0.0019
  619SOL    HW2 2521   2.855   0.670   0.629  2.2115  0.8695 -0.6743
  619SOL    HW3 2522   2.950   0.567   0.688  1.3256  1.4037  1.7185
  619SOL    MW4 2523   2.888   0.628   0.698  0.4315  0.7738  0.1392
  620SOL     OW 2524   3.175   1.184   0.367 -0.1657 -0.0740 -0.2586
  620SOL    HW2 2525   3.256   1.138   0.387 -0.9771 -0.5220  2.1392
  620SOL    HW3 2526   3.167   1.178   0.272  0.8967 -2.9216 -0.2061
  620SOL    MW4 2527   3.184   1.177   0.357 -0.1323 -0.5089  0.0647
  621SOL     OW 2528   2.952   1.046   0.462 -0.3128  0.0542 -0.2178
  621SOL    HW2 2529   3.022   1.102   0.430 -0.0339  0.5485  1.2387
  621SOL    HW3 2530   2.978   1.023   0.551  0.0585 -3.1872 -1.0940
  621SOL    MW4 2531   2.965   1.050   0.470 -0.2270 -0.3083 -0.1412
  622SOL     OW 2532   0.233   2.323   1.086 -0.0755 -0.1314 -0.0576
  622SOL    HW2 2533   0.149   2.361   1.111  0.0983  0.6144 -0.5973
  622SOL    HW3 2534   0.297   2.366   1.143  0.2024  0.8864 -1.1237
  622SOL    MW4 2535   0.231   2.333   1.097 -0.0159  0.1011 -0.2697
  623SOL     OW 2536   0.889   0.060   0.541 -0.2682 -0.0911  0.1199
  623SOL    HW2 2537   0.809   0.112   0.532 -1.0487 -1.3154 -0.1740
  623SOL    HW3 2538   0.866  -0.008   0.604  0.7868 -0.0008  0.6065
  623SOL    MW4 2539   0.875   0.058   0.548 -0.2319 -0.2407  0.1453
  624SOL     OW 2540   3.827   3.068   0.800  0.4549 -0.5317 -0.1607
  624SOL    HW2 2541   3.744   3.027   0.774  0.8524 -0.7749 -1.0568
  624SOL    HW3 2542   3.820   3.078   0.895 -0.4824 -0.8194 -0.1955
  624SOL    MW4 2543   3.815   3.064   0.810  0.3836 -0.6015 -0.2835
  625SOL     OW 2544   4.227   0.758   0.798 -0.3236  0.3106  0.1548
  625SOL    HW2 2545   4.301   0.791   0.746 -0.4466  1.3246  0.6146
  625SOL    HW3 2546   4.260   0.755   0.888 -0.6428  0.1643  0.2682
  625SOL    MW4 2547   4.241   0.762   0.803 -0.3819  0.4252  0.2305
  626SOL     OW 2548   0.470   3.252   1.203 -0.2022 -0.5490  0.1934
  626SOL    HW2 2549   0.501   3.341   1.182 -0.4426 -0.8319 -1.4423
  626SOL    HW3 2550   0.523   3.195   1.148  0.5328 -1.5015  1.8706
  626SOL    MW4 2551   0.481   3.256   1.193 -0.1369 -0.7122  0.1991
  627SOL     OW 2552   4.261   1.307   0.388 -0.1481  0.2538  0.0838
  627SOL    HW2 2553   4.212   1.244   0.441 -1.0777  0.5499 -0.3953
  627SOL    HW3 2554   4.198   1.378   0.372  0.5037  0.7304 -0.3903
  627SOL    MW4 2555   4.246   1.308   0.393 -0.1845  0.3557 -0.0420
  628SOL     OW 2556   4.389   1.867   0.855  0.1369  0.1964 -0.0558
  628SOL    HW2 2557   4.444   1.899   0.783  1.5643  0.0279  0.9307
  628SOL    HW3 2558   4.314   1.926   0.857  0.6195  0.8530 -0.9866
  628SOL    MW4 2559   4.387   1.879   0.846  0.3891  0.2608 -0.0485
  629SOL     OW 2560   1.543   0.300   0.519 -0.4901 -0.1704 -0.1083
  629SOL    HW2 2561   1.591   0.235   0.468 -0.0499  0.9500 -1.1717
  629SOL    HW3 2562   1.589   0.304   0.603  0.8105  0.3037 -0.8232
  629SOL    MW4 2563   1.555   0.292   0.523 -0.2604  0.0400 -0.3429
  630SOL     OW 2564   4.259   3.876   1.151 -0.1649 -0.0729  0.4993
  630SOL    HW2 2565   4.183   3.932   1.163 -0.4874 -0.6829  1.2814
  630SOL    HW3 2566   4.332   3.927   1.186 -0.2843  0.3008  0.2128
  630SOL    MW4 2567   4.259   3.890   1.157 -0.2232 -0.1042  0.5647
  631SOL     OW 2568   2.763   3.830   0.499  0.1805 -0.6563 -0.2845
  631SOL    HW2 2569   2.733   3.740   0.491 -1.6173 -0.0336 -0.7698
  631SOL    HW3 2570   2.808   3.848   0.417 -0.8598 -0.6148 -0.8546
  631SOL    MW4 2571   2.765   3.821   0.487 -0.1938 -0.5689 -0.4237
  632SOL     OW 2572   2.730   1.112   1.148 -0.1027 -0.4819 -0.3283
  632SOL    HW2 2573   2.814   1.155   1.163 -0.5949  0.4139 -0.0820
  632SOL    HW3 2574   2.732   1.086   1.056  0.1615  0.1569 -0.5024
  632SOL    MW4 2575   2.741   1.114   1.138 -0.1328 -0.2794 -0.3188
  633SOL     OW 2576   0.783   0.848   0.849  0.7084 -0.2369  0.0566
  633SOL    HW2 2577   0.746   0.772   0.804  0.3433  0.5269 -0.9592
  633SOL    HW3 2578   0.754   0.839   0.939 -0.7649 -0.4236 -0.4151
  633SOL    MW4 2579   0.774   0.837   0.855  0.4659 -0.1608 -0.1397
  634SOL     OW 2580   4.488   4.023   1.245  0.0095 -0.2979  0.7088
  634SOL    HW2 2581   4.560   3.967   1.216  0.5730  0.3369  0.8683
  634SOL    HW3 2582   4.485   4.011   1.340  0.3254  0.1617  0.7804
  634SOL    MW4 2583   4.497   4.014   1.254  0.1255 -0.1531  0.7393
  635SOL     OW 2584   2.745   0.862   1.271 -0.0638  0.2447 -0.3914
  635SOL    HW2 2585   2.745   0.955   1.249  1.0674  0.9062  2.2298
  635SOL    HW3 2586   2.827   0.828   1.234  0.8215  0.8866  0.9661
  635SOL    MW4 2587   2.756   0.870   1.263  0.2024  0.4167  0.1336
  636SOL     OW 2588   3.197   3.540   0.873 -0.1841 -0.6272 -0.5952
  636SOL    HW2 2589   3.164   3.530   0.962  0.7438 -0.4686 -0.2208
  636SOL    HW3 2590   3.265   3.607   0.881 -0.1994 -0.5108 -1.4481
  636SOL    MW4 2591   3.202   3.547   0.886 -0.0639 -0.5910 -0.6583
  637SOL     OW 2592   2.906   1.260   1.496 -0.0502 -0.1566  0.1798
  637SOL    HW2 2593   2.840   1.221   1.553 -0.6786 -0.7088 -0.8984
  637SOL    HW3 2594   2.989   1.225   1.527 -0.3418 -0.0468  1.0784
  637SOL    MW4 2595   2.908   1.250   1.507 -0.1717 -0.2152  0.1563
  638SOL     OW 2596   1.591   0.828   0.832  0.0856  0.0354  0.7564
  638SOL    HW2 2597   1.517   0.771   0.809 -0.2287  0.5399  0.5105
  638SOL    HW3 2598   1.666   0.789   0.788 -0.3719  0.5649 -0.5072
  638SOL    MW4 2599   1.591   0.815   0.823 -0.0162  0.1718  0.5572
  639SOL     OW 2600   1.824   4.070   0.664 -0.1695 -0.2772 -0.2314
  639SOL    HW2 2601   1.783   4.140   0.714  0.7153 -0.4215  0.7004
  639SOL    HW3 2602   1.827   4.103   0.574 -2.0773 -0.1547 -0.2854
  639SOL    MW4 2603   1.819   4.083   0.659 -0.3045 -0.2804 -0.1156
  640SOL     OW 2604   0.654   3.665   0.406 -0.6916 -0.2695 -0.3513
  640SOL    HW2 2605   0.740   3.648   0.443 -0.7849  0.4451  0.2204
  640SOL    HW3 2606   0.669   3.735   0.342 -1.0777  0.9448  0.8562
  640SOL    MW4 2607   0.667   3.672   0.402 -0.7548 -0.0148 -0.1166
  641SOL     OW 2608   2.027   4.380   1.180  0.1447  0.4577 -0.2394
  641SOL    HW2 2609   1.999   4.383   1.271  0.9248 -1.4574  0.0875
  641SOL    HW3 2610   1.948   4.352   1.132  0.1512 -0.0785  0.0574
  641SOL    MW4 2611   2.013   4.376   1.186  0.2484  0.1335 -0.1571
  642SOL     OW 2612   0.659   2.368   1.173  0.0064 -0.0113  0.1547
  642SOL    HW2 2613   0.637   2.276   1.189 -1.8056  0.6085  1.3971
  642SOL    HW3 2614   0.746   2.378   1.211  1.1912 -1.7529 -2.0034
  642SOL    MW4 2615   0.667   2.357   1.180 -0.0764 -0.1593  0.0339
  643SOL     OW 2616   1.778   3.214   1.205 -0.1695  0.0183 -0.3840
  643SOL    HW2 2617   1.847   3.151   1.180 -1.5863 -1.6718 -0.1144
  643SOL    HW3 2618   1.697   3.173   1.176 -1.3734  0.4855  2.2745
  643SOL    MW4 2619   1.777   3.200   1.198 -0.5153 -0.1431  0.0023
  644SOL     OW 2620   0.881   3.240   1.200  0.1859  0.3064 -0.2827
  644SOL    HW2 2621   0.900   3.325   1.161  0.4320  0.3413 -0.0837
  644SOL    HW3 2622   0.957   3.186   1.180 -0.1330  0.0225 -0.7271
  644SOL    MW4 2623   0.893   3.244   1.192  0.1763  0.2735 -0.3152
  645SOL     OW 2624   3.649   1.442   0.480 -0.1946  1.0482  0.6528
  645SOL    HW2 2625   3.687   1.358   0.454 -0.1511  1.1413  0.4057
  645SOL    HW3 2626   3.670   1.451   0.573  0.1744  0.9848  0.5766
  645SOL    MW4 2627   3.657   1.432   0.489 -0.1404  1.0521  0.6101
  646SOL     OW 2628   1.381   4.252   1.152  0.1831 -0.2742  0.0708
  646SOL    HW2 2629   1.374   4.157   1.159 -2.5138 -0.1068  0.0677
  646SOL    HW3 2630   1.314   4.286   1.211  0.2036  1.6142 -0.9544
  646SOL    MW4 2631   1.371   4.244   1.161 -0.1699 -0.0033 -0.0650
  647SOL     OW 2632   3.610   3.462   0.830  0.0120 -0.2027 -0.1341
  647SOL    HW2 2633   3.573   3.447   0.917 -1.5875 -0.6203 -0.8653
  647SOL    HW3 2634   3.596   3.555   0.814 -0.4320 -0.2945 -0.2789
  647SOL    MW4 2635   3.603   3.472   0.839 -0.2575 -0.2701 -0.2497
  648SOL     OW 2636   0.321   2.915   0.382 -0.1449 -0.2475  0.0753
  648SOL    HW2 2637   0.397   2.889   0.435  0.4770 -0.7286 -1.0272
  648SOL    HW3 2638   0.259   2.951   0.445  0.4079 -1.2012  1.1879
  648SOL    MW4 2639   0.323   2.916   0.398  0.0101 -0.4368  0.0767
  649SOL     OW 2640   1.117   2.896   0.557 -0.1882  0.1417  0.6153
  649SOL    HW2 2641   1.210   2.909   0.539 -0.7545  1.6510 -1.4635
  649SOL    HW3 2642   1.114   2.856   0.644  2.4625 -1.4477  0.0302
  649SOL    MW4 2643   1.129   2.892   0.566  0.0868  0.1311  0.2639
  650SOL     OW 2644   2.889   3.862   0.253 -0.1952  0.4318  0.3411
  650SOL    HW2 2645   2.907   3.769   0.240 -1.0286  0.0467  1.7913
  650SOL    HW3 2646   2.972   3.898   0.283  0.2400  0.2450 -0.6202
  650SOL    MW4 2647   2.902   3.854   0.255 -0.2475  0.3564  0.4057
  651SOL     OW 2648   1.704   3.539   0.409  0.0073 -0.0831 -0.5595
  651SOL    HW2 2649   1.708   3.633   0.389 -0.6697  0.1760  0.4519
  651SOL    HW3 2650   1.784   3.503   0.370  1.7306  1.4019  1.3939
  651SOL    MW4 2651   1.715   3.547   0.401  0.1453  0.1471 -0.1684
  652SOL     OW 2652   3.141   4.282   1.192 -0.0225 -0.1120 -0.8244
  652SOL    HW2 2653   3.059   4.331   1.192  0.1141  0.1750 -2.5265
  652SOL    HW3 2654   3.116   4.193   1.215 -0.6546  0.2009 -0.2793
  652SOL    MW4 2655   3.127   4.277   1.195 -0.0880 -0.0334 -0.9770
  653SOL     OW 2656   0.016   2.302   0.633  0.1901  0.5924 -0.1384
  653SOL    HW2 2657   0.085   2.368   0.634  0.5086  0.2563  2.0170
  653SOL    HW3 2658   0.060   2.222   0.604  0.2788  0.8365 -0.6696
  653SOL    MW4 2659   0.031   2.300   0.629  0.2438  0.5801  0.0758
  654SOL     OW 2660   3.324   1.649   0.917  0.5551 -0.0635 -0.3151
  654SOL    HW2 2661   3.341   1.682   1.005  0.2857  1.0789 -0.6842
  654SOL    HW3 2662   3.386   1.697   0.862 -1.4192  1.5392 -1.1834
  654SOL    MW4 2663   3.335   1.660   0.922  0.2592  0.2987 -0.4783
  655SOL     OW 2664   4.467   0.053   0.754  0.3086 -0.0607  0.1989
  655SOL    HW2 2665   4.524  -0.024   0.754  1.5314  0.8178  0.1461
  655SOL    HW3 2666   4.379   0.018   0.763  0.5714 -1.6939 -2.6850
  655SOL    MW4 2667   4.463   0.038   0.755  0.5050 -0.1603 -0.1886
  656SOL     OW 2668   1.385   2.943   0.458 -0.1653  0.0823  0.5484
  656SOL    HW2 2669   1.441   2.907   0.389  2.0386 -0.2833  2.4535
  656SOL    HW3 2670   1.395   3.038   0.450  0.8138  0.0183  0.9129
  656SOL    MW4 2671   1.394   2.951   0.448  0.2548  0.0257  0.8478
  657SOL     OW 2672   2.208   0.007   0.498 -0.4105  0.2429 -0.3013
  657SOL    HW2 2673   2.281  -0.040   0.458  0.3281  1.4465 -0.4054
  657SOL    HW3 2674   2.234   0.099   0.494 -1.0398  0.5157  1.5325
  657SOL    MW4 2675   2.221   0.013   0.492 -0.3960  0.4377 -0.0731
  658SOL     OW 2676   4.280   4.371   1.220 -0.0255 -0.2031 -0.8827
  658SOL    HW2 2677   4.295   4.373   1.314 -2.2428 -0.9821 -0.4807
  658SOL    HW3 2678   4.365   4.346   1.182  0.7997 -0.1686  0.9121
  658SOL    MW4 2679   4.293   4.368   1.227 -0.2093 -0.3009 -0.5928
  659SOL     OW 2680   2.177   2.865   1.215  0.3258 -0.4177 -0.3977
  659SOL    HW2 2681   2.166   2.779   1.175  0.0746 -0.6395  0.1435
  659SOL    HW3 2682   2.271   2.882   1.211  0.2592 -0.2601 -1.4379
  659SOL    MW4 2683   2.188   2.856   1.209  0.2842 -0.4263 -0.4635
  660SOL     OW 2684   1.115   3.066   1.117  0.0548  0.0906  0.1695
  660SOL    HW2 2685   1.126   2.971   1.121 -0.1264  0.1329  1.9693
  660SOL    HW3 2686   1.105   3.085   1.023 -0.0320 -1.6637 -0.1930
  660SOL    MW4 2687   1.115   3.056   1.105  0.0194 -0.1354  0.3592
  661SOL     OW 2688   3.679   3.585   0.236 -0.4028 -0.0820 -0.5655
  661SOL    HW2 2689   3.748   3.577   0.170 -0.7932  0.7149 -1.0784
  661SOL    HW3 2690   3.701   3.665   0.284 -0.2947 -0.4909  0.0670
  661SOL    MW4 2691   3.691   3.595   0.234 -0.4401 -0.0308 -0.5497
  662SOL     OW 2692   1.139   4.376   1.226  0.6147 -0.1987 -0.3570
  662SOL    HW2 2693   1.132   4.365   1.321 -0.7088  0.4908 -0.3599
  662SOL    HW3 2694   1.135   4.471   1.213 -1.5827 -0.3751 -1.2530
  662SOL    MW4 2695   1.137   4.387   1.237  0.1502 -0.1311 -0.4756
  663SOL     OW 2696   2.945   1.959   1.227  0.5740  0.5921 -0.1720
  663SOL    HW2 2697   2.924   2.003   1.309 -0.6654 -0.5338  0.1283
  663SOL    HW3 2698   2.989   1.878   1.253  0.5183  0.4105 -0.6294
  663SOL    MW4 2699   2.948   1.954   1.241  0.4032  0.4195 -0.1926
  664SOL     OW 2700   4.242   4.173   0.800  0.2677 -0.0620 -0.0249
  664SOL    HW2 2701   4.243   4.082   0.830  0.1390  0.1156  0.5067
  664SOL    HW3 2702   4.334   4.197   0.793  0.3072 -0.3141 -0.4150
  664SOL    MW4 2703   4.254   4.164   0.803  0.2561 -0.0715 -0.0062
  665SOL     OW 2704   0.891   1.683   1.225 -0.4213 -0.1174 -0.6034
  665SOL    HW2 2705   0.967   1.630   1.201 -0.7883 -1.0358  0.2057
  665SOL    HW3 2706   0.913   1.771   1.197  1.4055 -0.1668  0.6113
  665SOL    MW4 2707   0.904   1.687   1.218 -0.2288 -0.2452 -0.3364
  666SOL     OW 2708   3.584   3.195   1.176  0.1219 -0.2320  0.4573
  666SOL    HW2 2709   3.667   3.169   1.135  0.5875  1.3412  0.3760
  666SOL    HW3 2710   3.575   3.288   1.155 -0.8794 -0.0096  1.8194
  666SOL    MW4 2711   3.594   3.204   1.168  0.0510  0.0048  0.6263
  667SOL     OW 2712   0.880   4.279   1.151  0.9666 -0.2362 -0.4778
  667SOL    HW2 2713   0.959   4.315   1.194 -0.6670  1.0892  1.5556
  667SOL    HW3 2714   0.881   4.186   1.173  1.1409  0.0819  0.9270
  667SOL    MW4 2715   0.891   4.272   1.160  0.7740 -0.0191 -0.0241
  668SOL     OW 2716   1.694   0.024   0.747 -0.1741  0.3671 -0.1157
  668SOL    HW2 2717   1.678   0.022   0.652 -0.4754  0.9884 -0.0818
  668SOL    HW3 2718   1.775  -0.026   0.758 -0.9492 -0.9817 -0.5288
  668SOL    MW4 2719   1.703   0.017   0.736 -0.3160  0.2711 -0.1657
  669SOL     OW 2720   0.164   2.643   0.390  0.0400  0.3569 -0.7805
  669SOL    HW2 2721   0.232   2.578   0.406 -0.8447 -0.3270  0.2732
  669SOL    HW3 2722   0.212   2.723   0.368  1.2217  0.2345  1.2215
  669SOL    MW4 2723   0.179   2.645   0.389  0.0792  0.2503 -0.3774
  670SOL     OW 2724   4.441   3.732   0.793  0.2234  0.3456  0.1062
  670SOL    HW2 2725   4.460   3.640   0.810  0.1421 -0.4168 -3.4446
  670SOL    HW3 2726   4.526   3.776   0.799  0.1793  0.1872  2.3527
  670SOL    MW4 2727   4.455   3.726   0.796  0.2065  0.2241 -0.0659
  671SOL     OW 2728   1.144   0.480   1.492  0.4237  0.2295 -0.6478
  671SOL    HW2 2729   1.130   0.556   1.548  0.7321 -0.6869  0.6945
  671SOL    HW3 2730   1.068   0.423   1.510  0.4974 -0.0451 -1.1954
  671SOL    MW4 2731   1.132   0.482   1.502  0.4742  0.0724 -0.5430
  672SOL     OW 2732   2.366   2.039   0.588  0.0230  0.1603  0.1004
  672SOL    HW2 2733   2.448   2.025   0.540 -1.1267 -0.9325 -1.5769
  672SOL    HW3 2734   2.380   1.995   0.672  0.4781 -1.7007 -0.9199
  672SOL    MW4 2735   2.379   2.032   0.593 -0.0689 -0.2294 -0.2555
  673SOL     OW 2736   3.965   0.750   0.617 -0.1686  0.1114  0.0403
  673SOL    HW2 2737   3.932   0.821   0.672  0.4561 -0.7428  1.5526
  673SOL    HW3 2738   4.024   0.793   0.555 -1.4671  1.1885 -0.4648
  673SOL    MW4 2739   3.969   0.765   0.616 -0.2573  0.1408  0.1732
  674SOL     OW 2740   2.789   2.834   0.789 -0.1256  0.2574 -0.0658
  674SOL    HW2 2741   2.694   2.835   0.786 -0.2139 -1.1222  1.5354
  674SOL    HW3 2742   2.812   2.922   0.819 -0.9033  0.5089 -0.1972
  674SOL    MW4 2743   2.780   2.846   0.793 -0.2398  0.1085  0.1280
  675SOL     OW 2744   2.720   0.364   1.568  0.0284 -0.1315 -0.1981
  675SOL    HW2 2745   2.627   0.385   1.572  0.2132  0.6021  0.3468
  675SOL    HW3 2746   2.749   0.365   1.659  0.8804  1.0689 -0.4668
  675SOL    MW4 2747   2.711   0.367   1.580  0.1652  0.1236 -0.1615
  676SOL     OW 2748   1.708   4.448   0.525 -0.3231 -0.0776  0.4532
  676SOL    HW2 2749   1.744   4.377   0.473  0.3749  1.3869 -1.0991
  676SOL    HW3 2750   1.755   4.443   0.609  2.1640  0.5803 -0.8297
  676SOL    MW4 2751   1.719   4.438   0.529  0.0972  0.2022  0.0791
  677SOL     OW 2752   3.700   1.943   1.225 -0.3812  0.2952 -0.5514
  677SOL    HW2 2753   3.606   1.951   1.241 -0.3386 -0.3248  0.0393
  677SOL    HW3 2754   3.741   1.969   1.307 -0.1396 -2.2775  0.2064
  677SOL    MW4 2755   3.693   1.947   1.237 -0.3436 -0.1262 -0.3734
  678SOL     OW 2756   0.017   0.913   1.191  0.1498 -0.0188  0.4592
  678SOL    HW2 2757  -0.019   1.001   1.184  0.2332 -0.0364 -0.2197
  678SOL    HW3 2758   0.003   0.889   1.283  1.4722  1.2739  1.0325
  678SOL    MW4 2759   0.011   0.922   1.202  0.3353  0.1493  0.4452
  679SOL     OW 2760   3.429   1.956   1.269 -0.4476  0.4736 -0.2015
  679SOL    HW2 2761   3.418   2.006   1.189  3.0065 -1.3264 -1.9326
  679SOL    HW3 2762   3.415   1.865   1.243  0.0169 -0.0748  1.3648
  679SOL    MW4 2763   3.426   1.950   1.255  0.0694  0.1637 -0.2232
  680SOL     OW 2764   2.360   4.223   0.291  0.0901 -0.2834 -0.2977
  680SOL    HW2 2765   2.408   4.195   0.213  0.2049  1.0859 -0.7336
  680SOL    HW3 2766   2.412   4.189   0.365  0.6789 -0.4765 -0.7968
  680SOL    MW4 2767   2.373   4.215   0.291  0.1829 -0.1283 -0.4210
  681SOL     OW 2768   4.143   3.358   0.895 -1.1449 -0.3223  0.4083
  681SOL    HW2 2769   4.151   3.445   0.855  0.4734 -0.2632  0.7836
  681SOL    HW3 2770   4.054   3.331   0.877 -1.6056  1.3351  0.0867
  681SOL    MW4 2771   4.133   3.366   0.887 -0.9928 -0.0961  0.4154
  682SOL     OW 2772   1.753   0.702   0.474 -0.0699  0.0231  0.3062
  682SOL    HW2 2773   1.748   0.796   0.460  2.1225  0.2991  1.1491
  682SOL    HW3 2774   1.665   0.669   0.452 -1.3753  2.4604  1.6996
  682SOL    MW4 2775   1.741   0.710   0.469  0.0471  0.3811  0.6013
  683SOL     OW 2776   4.272   0.782   1.071 -0.0594 -0.3353 -0.2327
  683SOL    HW2 2777   4.360   0.815   1.087 -0.2060 -0.6028  1.1541
  683SOL    HW3 2778   4.270   0.697   1.115 -0.1759 -1.5491 -2.4781
  683SOL    MW4 2779   4.283   0.775   1.079 -0.0939 -0.5307 -0.3459
  684SOL     OW 2780   1.530   2.157   0.914 -0.1048 -0.2699 -0.0204
  684SOL    HW2 2781   1.598   2.187   0.854 -0.2250  0.2963  0.1246
  684SOL    HW3 2782   1.536   2.061   0.911  1.5968 -0.2153  1.0070
  684SOL    MW4 2783   1.540   2.148   0.906  0.1040 -0.1879  0.1343
  685SOL     OW 2784   2.142   2.218   0.820 -0.4892  0.3789  0.1615
  685SOL    HW2 2785   2.060   2.252   0.786 -0.1392  1.2680  0.1936
  685SOL    HW3 2786   2.132   2.222   0.915 -0.3291  0.6845  0.1658
  685SOL    MW4 2787   2.130   2.223   0.828 -0.4218  0.5364  0.1663
  686SOL     OW 2788   2.261   1.098   1.084 -0.0021  0.2137  0.1881
  686SOL    HW2 2789   2.236   1.117   0.994  0.6330 -0.1401 -0.0664
  686SOL    HW3 2790   2.341   1.150   1.098 -1.4916  2.2716  1.3752
  686SOL    MW4 2791   2.268   1.108   1.074 -0.1149  0.4385  0.3111
  687SOL     OW 2792   1.109   3.366   0.448  0.4793 -0.0703 -0.2899
  687SOL    HW2 2793   1.126   3.383   0.541  1.7375 -1.6428 -0.2207
  687SOL    HW3 2794   1.162   3.431   0.402  1.5906 -0.7289  0.0537
  687SOL    MW4 2795   1.118   3.377   0.454  0.7920 -0.3645 -0.2354
  688SOL     OW 2796   3.801   1.647   0.365  0.2176  0.0907 -0.7276
  688SOL    HW2 2797   3.885   1.602   0.365 -0.6556 -1.6145 -0.6803
  688SOL    HW3 2798   3.739   1.582   0.399 -1.0983  1.3446 -0.6522
  688SOL    MW4 2799   3.804   1.632   0.369 -0.0715  0.0311 -0.7115
  689SOL     OW 2800   3.373   3.495   0.259 -0.0928  0.3245  0.1826
  689SOL    HW2 2801   3.353   3.555   0.331  0.5073  1.8780 -0.9242
  689SOL    HW3 2802   3.450   3.532   0.217 -0.3041 -0.6888 -1.1499
  689SOL    MW4 2803   3.380   3.507   0.263 -0.0415  0.3960 -0.1393
  690SOL     OW 2804   1.465   4.331   0.534  0.0928 -0.5005  0.3959
  690SOL    HW2 2805   1.546   4.380   0.522  0.0110 -0.0894  1.4025
  690SOL    HW3 2806   1.475   4.290   0.620 -1.0342  0.1165  0.8367
  690SOL    MW4 2807   1.477   4.332   0.544 -0.0666 -0.3653  0.5869
  691SOL     OW 2808   3.824   2.807   1.158 -0.3480 -0.2031 -0.0073
  691SOL    HW2 2809   3.742   2.765   1.131 -1.2736  0.3859  1.7862
  691SOL    HW3 2810   3.818   2.811   1.254  1.4280  0.5766  0.0888
  691SOL    MW4 2811   3.812   2.802   1.167 -0.2358 -0.0226  0.2420
  692SOL     OW 2812   1.956   0.099   0.591  0.3225  0.0257 -0.2984
  692SOL    HW2 2813   2.028   0.055   0.545  0.1240 -0.5403 -0.0642
  692SOL    HW3 2814   1.970   0.192   0.573  1.8908  0.0300  0.8399
  692SOL    MW4 2815   1.968   0.105   0.583  0.5033 -0.0484 -0.1173
  693SOL     OW 2816   1.273   1.742   0.512  0.3137  0.5336 -0.3352
  693SOL    HW2 2817   1.234   1.750   0.599  0.1486 -1.1589 -0.2472
  693SOL    HW3 2818   1.343   1.808   0.512 -0.1380  1.0334  0.8202
  693SOL    MW4 2819   1.277   1.752   0.524  0.2323  0.3762 -0.1711
  694SOL     OW 2820   4.057   4.379   0.865  0.1319  0.0957  0.1894
  694SOL    HW2 2821   4.110   4.300   0.856  0.8262  0.3722  1.7531
  694SOL    HW3 2822   4.119   4.450   0.848  0.0575  0.3901  1.1512
  694SOL    MW4 2823   4.072   4.378   0.861  0.2136  0.1717  0.5226
  695SOL     OW 2824   3.388   4.386   0.624 -0.6715  0.0861 -0.0807
  695SOL    HW2 2825   3.295   4.369   0.607 -0.5876 -0.1579 -0.3121
  695SOL    HW3 2826   3.398   4.377   0.718 -0.4371 -2.1766 -0.2838
  695SOL    MW4 2827   3.377   4.382   0.634 -0.6294 -0.2446 -0.1380
  696SOL     OW 2828   2.925   3.895   0.838  0.1800  0.2437 -0.4090
  696SOL    HW2 2829   2.936   3.806   0.804 -0.2450  0.3756 -0.9063
  696SOL    HW3 2830   2.965   3.951   0.771  0.2332  0.4400 -0.2128
  696SOL    MW4 2831   2.932   3.891   0.825  0.1309  0.2871 -0.4487
  697SOL     OW 2832   1.619   2.845   0.294  0.1105 -0.6724  0.4741
  697SOL    HW2 2833   1.665   2.761   0.287  1.0825 -0.2754  1.8387
  697SOL    HW3 2834   1.689   2.910   0.306 -0.6332  0.3309 -0.4876
  697SOL    MW4 2835   1.634   2.843   0.294  0.1407 -0.4878  0.5273
  698SOL     OW 2836   3.746   4.098   0.456 -0.3458  0.2581  0.7252
  698SOL    HW2 2837   3.674   4.160   0.443  0.2229  0.8698  0.4365
  698SOL    HW3 2838   3.824   4.153   0.456  0.1630 -0.4660  0.4665
  698SOL    MW4 2839   3.747   4.114   0.454 -0.2036  0.2437  0.6530
  699SOL     OW 2840   0.433   2.725   1.101  0.1941  0.4015  0.6135
  699SOL    HW2 2841   0.423   2.643   1.150  0.6064  0.0779  0.1584
  699SOL    HW3 2842   0.408   2.702   1.011 -1.9172  1.3318  0.9558
  699SOL    MW4 2843   0.428   2.711   1.095 -0.0300  0.4814  0.5987
  700SOL     OW 2844   2.485   2.798   0.298 -0.3948  0.5615 -0.2775
  700SOL    HW2 2845   2.420   2.781   0.366 -0.6347  0.5097 -0.5176
  700SOL    HW3 2846   2.517   2.711   0.273  2.2558  0.7688  2.2428
  700SOL    MW4 2847   2.480   2.784   0.303 -0.0768  0.5820  0.0233
  701SOL     OW 2848   3.812   4.354   1.502 -0.0372 -0.5040  0.1575
  701SOL    HW2 2849   3.740   4.302   1.539  0.6917 -1.8007 -0.2106
  701SOL    HW3 2850   3.778   4.382   1.417 -0.6609  0.1255  0.6095
  701SOL    MW4 2851   3.798   4.351   1.495 -0.0231 -0.5918  0.1684
  702SOL     OW 2852   0.476   1.930   1.112  0.3174  0.1537 -0.1310
  702SOL    HW2 2853   0.399   1.977   1.145 -0.5100 -0.4744 -1.1479
  702SOL    HW3 2854   0.474   1.846   1.157 -0.3727 -0.4013 -1.2042
  702SOL    MW4 2855   0.466   1.925   1.122  0.1172 -0.0025 -0.4069
  703SOL     OW 2856   2.876   1.463   0.850  0.6765 -0.5183  0.0828
  703SOL    HW2 2857   2.947   1.451   0.788 -0.5133  0.7131 -1.5385
  703SOL    HW3 2858   2.803   1.413   0.813 -0.3202  0.9631 -0.0061
  703SOL    MW4 2859   2.876   1.455   0.837  0.3879 -0.1602 -0.1428
  704SOL     OW 2860   0.643   2.381   0.878  0.0166  0.0293 -0.3644
  704SOL    HW2 2861   0.647   2.378   0.974 -0.4914  1.7674 -0.2654
  704SOL    HW3 2862   0.685   2.301   0.850  0.3536 -0.4098  1.3237
  704SOL    MW4 2863   0.649   2.370   0.887 -0.0060  0.2005 -0.1286
  705SOL     OW 2864   2.980   0.824   0.898 -0.1701  0.0859  0.3064
  705SOL    HW2 2865   2.947   0.909   0.868  0.2735  0.2837  0.3626
  705SOL    HW3 2866   2.940   0.761   0.839  0.5813  0.4600 -0.6260
  705SOL    MW4 2867   2.970   0.827   0.886 -0.0124  0.1613  0.1908
  706SOL     OW 2868   0.875   4.010   1.235  0.1238  0.0544 -0.1143
  706SOL    HW2 2869   0.800   3.964   1.198 -0.3010  0.3445  0.3700
  706SOL    HW3 2870   0.857   4.011   1.330  1.1139 -0.5514  0.0821
  706SOL    MW4 2871   0.862   4.004   1.243  0.1984  0.0129 -0.0244
  707SOL     OW 2872   1.281   2.261   0.840  0.2244 -0.0468 -0.1358
  707SOL    HW2 2873   1.361   2.214   0.860 -0.0693 -0.7690 -0.6631
  707SOL    HW3 2874   1.308   2.352   0.832  0.5971  0.0880  2.1608
  707SOL    MW4 2875   1.295   2.267   0.842  0.2348 -0.1242  0.0976
  708SOL     OW 2876   4.257   3.919   0.883  0.1410  0.2502  0.3203
  708SOL    HW2 2877   4.321   3.864   0.837  0.6434  0.2368  1.0235
  708SOL    HW3 2878   4.276   3.904   0.976 -0.2189  1.0308  0.5207
  708SOL    MW4 2879   4.268   3.910   0.889  0.1597  0.3514  0.4396
  709SOL     OW 2880   1.365   1.461   0.809 -0.0163 -0.0543  0.5539
  709SOL    HW2 2881   1.298   1.528   0.799  0.2997  0.3450  1.1050
  709SOL    HW3 2882   1.395   1.443   0.720  0.7776  1.4210  0.5232
  709SOL    MW4 2883   1.360   1.467   0.796  0.1302  0.1930  0.6226
  710SOL     OW 2884   2.705   4.493   0.486 -0.2559 -0.1041 -0.7648
  710SOL    HW2 2885   2.723   4.401   0.503 -0.5092  0.0274  0.2219
  710SOL    HW3 2886   2.610   4.497   0.471 -0.4440  0.1813  0.4545
  710SOL    MW4 2887   2.695   4.482   0.486 -0.3140 -0.0491 -0.4738
  711SOL     OW 2888   0.713   4.225   0.732  0.2225 -0.4602  0.3027
  711SOL    HW2 2889   0.643   4.241   0.795  1.3256  3.0660  0.7347
  711SOL    HW3 2890   0.790   4.208   0.787  0.4196 -1.0250 -0.1432
  711SOL    MW4 2891   0.714   4.225   0.748  0.3940 -0.0691  0.3008
  712SOL     OW 2892   1.327   4.389   0.911 -0.2514  0.4284 -0.4347
  712SOL    HW2 2893   1.331   4.351   0.999 -1.6841  1.4489  0.0890
  712SOL    HW3 2894   1.369   4.474   0.919  1.0973 -0.1526 -1.1348
  712SOL    MW4 2895   1.333   4.395   0.923 -0.2624  0.4864 -0.4581
  713SOL     OW 2896   3.735   4.153   0.722 -0.8439  0.4848 -0.3954
  713SOL    HW2 2897   3.777   4.239   0.720 -1.7284  0.9309 -0.1538
  713SOL    HW3 2898   3.748   4.117   0.634  0.9370  0.1652 -0.0255
  713SOL    MW4 2899   3.742   4.159   0.710 -0.7257  0.5007 -0.3147
  714SOL     OW 2900   1.956   2.398   0.671  0.2762 -0.5385  0.0369
  714SOL    HW2 2901   1.966   2.416   0.578 -0.7762 -0.5246 -0.0837
  714SOL    HW3 2902   2.021   2.454   0.714  0.1488  0.1229 -0.6322
  714SOL    MW4 2903   1.966   2.408   0.664  0.1204 -0.4492 -0.0674
  715SOL     OW 2904   2.926   4.405   0.776 -0.2949  0.3272 -0.9469
  715SOL    HW2 2905   2.841   4.362   0.776  0.4376 -1.1614 -1.1544
  715SOL    HW3 2906   2.969   4.372   0.855 -0.0500  1.3615 -0.6406
  715SOL    MW4 2907   2.921   4.395   0.787 -0.1659  0.2670 -0.9339
  716SOL     OW 2908   4.239   4.496   0.496 -0.4247 -0.2611  0.0284
  716SOL    HW2 2909   4.159   4.517   0.447 -0.0917  0.3871 -0.2455
  716SOL    HW3 2910   4.310   4.525   0.440 -0.0133 -0.2884  0.5293
  716SOL    MW4 2911   4.238   4.503   0.482 -0.3266 -0.1788  0.0583
  717SOL     OW 2912   0.526   2.828   0.618 -0.4654 -0.4357  0.2112
  717SOL    HW2 2913   0.595   2.765   0.640  0.1803  0.0373 -0.4437
  717SOL    HW3 2914   0.562   2.913   0.645 -1.8746 -0.4724  2.3657
  717SOL    MW4 2915   0.540   2.831   0.625 -0.5661 -0.3781  0.4090
  718SOL     OW 2916   1.020   2.489   0.628 -0.2859 -0.4797 -0.2581
  718SOL    HW2 2917   1.061   2.529   0.552 -0.0715 -1.1035 -0.4781
  718SOL    HW3 2918   1.089   2.489   0.695 -0.4533  0.0081 -0.0886
  718SOL    MW4 2919   1.035   2.494   0.627 -0.2797 -0.4976 -0.2648
  719SOL     OW 2920   2.721   3.513   0.868 -0.6223  0.0724  0.0659
  719SOL    HW2 2921   2.694   3.520   0.959 -0.7088  0.8577 -0.0200
  719SOL    HW3 2922   2.655   3.561   0.819  0.2177  0.9008 -0.2722
  719SOL    MW4 2923   2.709   3.520   0.873 -0.5229  0.2851  0.0100
  720SOL     OW 2924   3.681   0.950   1.267  0.0775 -0.0146 -0.0293
  720SOL    HW2 2925   3.741   0.903   1.210 -0.7959  1.1478 -1.9649
  720SOL    HW3 2926   3.728   1.030   1.291  0.2194 -0.2314  0.4233
  720SOL    MW4 2927   3.695   0.955   1.263 -0.0191  0.1101 -0.2251
  721SOL     OW 2928   3.101   0.142   1.253 -0.6074 -0.6977 -0.1265
  721SOL    HW2 2929   3.098   0.142   1.349  1.4428  2.0930 -0.0105
  721SOL    HW3 2930   3.182   0.096   1.232  0.1765  0.7988 -0.4287
  721SOL    MW4 2931   3.111   0.136   1.263 -0.2334 -0.1321 -0.1510
  722SOL     OW 2932   4.223   2.030   1.184  0.3583 -0.4428  0.0180
  722SOL    HW2 2933   4.180   1.957   1.139 -1.1964 -0.1850  1.0593
  722SOL    HW3 2934   4.179   2.108   1.150  1.4266 -0.0283 -0.4478
  722SOL    MW4 2935   4.211   2.031   1.173  0.2937 -0.3543  0.0939
  723SOL     OW 2936   1.815   1.185   0.862  0.0016 -0.2711 -0.2962
  723SOL    HW2 2937   1.828   1.171   0.956 -1.9837  1.3270  0.2791
  723SOL    HW3 2938   1.723   1.163   0.847 -0.0687  0.8075 -1.5898
  723SOL    MW4 2939   1.804   1.181   0.872 -0.2695  0.0821 -0.3909
  724SOL     OW 2940   4.298   4.658   1.180 -0.2747  0.1503 -0.7197
  724SOL    HW2 2941   4.353   4.685   1.107  0.7269  2.0455  0.6941
  724SOL    HW3 2942   4.314   4.564   1.189  1.4109  0.3549 -1.4154
  724SOL    MW4 2943   4.307   4.649   1.172  0.0801  0.4272 -0.6250
  725SOL     OW 2944   0.177   0.039   1.621 -0.1019  0.7348  0.0246
  725SOL    HW2 2945   0.259   0.087   1.609  0.3047 -0.3347 -1.5607
  725SOL    HW3 2946   0.113   0.086   1.567  0.0535  0.1313 -0.6966
  725SOL    MW4 2947   0.179   0.052   1.612 -0.0277  0.5140 -0.2798
  726SOL     OW 2948   4.450   0.114   1.427  0.4424 -0.2910  0.5276
  726SOL    HW2 2949   4.375   0.078   1.474  0.8440 -0.6846  0.8816
  726SOL    HW3 2950   4.428   0.103   1.334 -0.1462  0.0454  0.6297
  726SOL    MW4 2951   4.437   0.108   1.421  0.4182 -0.2986  0.5877
  727SOL     OW 2952   0.028   0.356   1.557  0.0555 -0.1142 -0.1050
  727SOL    HW2 2953   0.037   0.350   1.652 -1.2319 -0.0021  0.0264
  727SOL    HW3 2954  -0.002   0.269   1.530  1.4466 -0.4770 -0.5427
  727SOL    MW4 2955   0.025   0.344   1.566  0.0691 -0.1473 -0.1454
  728SOL     OW 2956   0.228   0.496   1.415  0.3196 -0.5447  0.5381
  728SOL    HW2 2957   0.164   0.433   1.450 -1.3270  1.7574  1.7605
  728SOL    HW3 2958   0.215   0.493   1.320 -1.4180 -0.3379  0.7467
  728SOL    MW4 2959   0.218   0.487   1.407 -0.1269 -0.2137  0.7268
  729SOL     OW 2960   0.215   0.727   1.573 -0.3275 -0.1248  0.2813
  729SOL    HW2 2961   0.298   0.763   1.544 -1.0402  1.6111  0.3014
  729SOL    HW3 2962   0.215   0.636   1.543  1.1170  0.1693 -0.6297
  729SOL    MW4 2963   0.226   0.720   1.565 -0.2310  0.1431  0.1638
  730SOL     OW 2964   4.477   0.852   1.464  0.1708  0.1558 -0.2006
  730SOL    HW2 2965   4.485   0.940   1.502  1.3499  0.7875 -1.8441
  730SOL    HW3 2966   4.557   0.806   1.491  0.6479  0.3570 -1.2508
  730SOL    MW4 2967   4.488   0.858   1.473  0.3893  0.2657 -0.5560
  731SOL     OW 2968   4.486   1.130   1.540 -0.0997 -0.4930 -0.4766
  731SOL    HW2 2969   4.480   1.140   1.635 -1.1866  0.2624 -0.6098
  731SOL    HW3 2970   4.558   1.187   1.514  0.6291 -1.2007 -0.0442
  731SOL    MW4 2971   4.495   1.139   1.549 -0.1473 -0.4866 -0.4370
  732SOL     OW 2972   0.233   1.260   1.489  0.2284 -0.1265 -0.5242
  732SOL    HW2 2973   0.228   1.351   1.518  3.8561  0.6905 -2.1891
  732SOL    HW3 2974   0.237   1.265   1.393 -0.9590 -2.1405 -0.7108
  732SOL    MW4 2975   0.233   1.272   1.480  0.5504 -0.2846 -0.7684
  733SOL     OW 2976   0.180   1.533   1.559 -0.2912 -0.1362  0.5342
  733SOL    HW2 2977   0.212   1.531   1.649  0.0014 -0.8341  0.4174
  733SOL    HW3 2978   0.104   1.590   1.562  0.6845  1.1782  0.9197
  733SOL    MW4 2979   0.174   1.540   1.571 -0.1239 -0.0550  0.5696
  734SOL     OW 2980   0.003   1.939   1.573  0.1645  0.2706  0.1903
  734SOL    HW2 2981  -0.003   1.923   1.667 -0.6619 -1.4916 -0.1436
  734SOL    HW3 2982  -0.078   1.986   1.552 -0.5128 -0.9549  0.0486
  734SOL    MW4 2983  -0.008   1.943   1.583 -0.0338 -0.1236  0.1277
  735SOL     OW 2984   4.489   1.903   1.851  0.0139 -0.0296  0.1143
  735SOL    HW2 2985   4.490   1.811   1.878 -0.6090 -0.5804 -1.6787
  735SOL    HW3 2986   4.405   1.936   1.881  0.6937  0.2963  1.7591
  735SOL    MW4 2987   4.478   1.895   1.859  0.0215 -0.0594  0.0948
  736SOL     OW 2988   0.262   2.039   1.479 -0.3119 -0.6292  0.6410
  736SOL    HW2 2989   0.176   2.001   1.494 -0.2851 -0.6913  0.6351
  736SOL    HW3 2990   0.268   2.048   1.384 -0.7130  0.2971  0.6944
  736SOL    MW4 2991   0.251   2.035   1.468 -0.3613 -0.5150  0.6472
  737SOL     OW 2992   0.204   2.306   1.579 -0.0879  0.5713 -0.0749
  737SOL    HW2 2993   0.203   2.296   1.674  0.3372  0.1875 -0.1135
  737SOL    HW3 2994   0.233   2.222   1.545 -0.5616  0.5982 -0.5642
  737SOL    MW4 2995   0.208   2.294   1.587 -0.0943  0.5245 -0.1444
  738SOL     OW 2996   4.465   2.442   1.450  0.3862  0.0655  0.5736
  738SOL    HW2 2997   4.390   2.406   1.498 -0.4461 -2.3186 -2.3335
  738SOL    HW3 2998   4.541   2.402   1.491 -0.2241 -0.9900  0.6937
  738SOL    MW4 2999   4.465   2.432   1.461  0.1955 -0.3884  0.2059
  739SOL     OW 3000   4.488   2.687   1.570  0.8167 -0.5809  0.1469
  739SOL    HW2 3001   4.406   2.732   1.551  0.4624 -1.0952  0.4583
  739SOL    HW3 3002   4.490   2.613   1.510  0.4275 -1.3203  1.0346
  739SOL    MW4 3003   4.478   2.683   1.559  0.7186 -0.7463  0.3051
  740SOL     OW 3004   0.233   2.826   1.500  0.2669 -0.1599 -0.0872
  740SOL    HW2 3005   0.306   2.786   1.547  0.5356  0.7645  0.2938
  740SOL    HW3 3006   0.155   2.786   1.538  0.5190 -0.0626  0.5294
  740SOL    MW4 3007   0.232   2.815   1.511  0.3356 -0.0253  0.0446
  741SOL     OW 3008   0.290   3.086   1.557 -0.5879 -0.3736 -0.3761
  741SOL    HW2 3009   0.201   3.121   1.547 -1.1080 -1.4110  0.6438
  741SOL    HW3 3010   0.281   2.992   1.543  0.4955 -0.3833 -1.0977
  741SOL    MW4 3011   0.277   3.078   1.554 -0.5136 -0.5116 -0.3366
  742SOL     OW 3012   0.023   3.179   1.485  0.0829  0.2898 -0.0292
  742SOL    HW2 3013   0.031   3.272   1.506  0.5412  0.0872  0.6905
  742SOL    HW3 3014   0.025   3.176   1.389 -1.4652  1.1618 -0.1046
  742SOL    MW4 3015   0.024   3.191   1.475 -0.0609  0.3779  0.0558
  743SOL     OW 3016   0.048   3.451   1.549  0.2653 -0.0923  0.2593
  743SOL    HW2 3017   0.063   3.452   1.643  0.9250  0.6570  0.1556
  743SOL    HW3 3018  -0.030   3.505   1.536  0.1519 -0.2266  0.3783
  743SOL    MW4 3019   0.040   3.458   1.559  0.3371 -0.0110  0.2614
  744SOL     OW 3020   0.258   3.647   1.491 -0.2405  0.0528 -0.5900
  744SOL    HW2 3021   0.251   3.728   1.541  0.4873 -0.2526  0.0177
  744SOL    HW3 3022   0.175   3.601   1.507 -0.1385  0.1045  0.0626
  744SOL    MW4 3023   0.246   3.651   1.499 -0.1310  0.0191 -0.4237
  745SOL     OW 3024   0.206   3.881   1.636  0.0426  0.3432 -0.4560
  745SOL    HW2 3025   0.209   3.870   1.731 -0.8488 -1.5161 -0.6208
  745SOL    HW3 3026   0.288   3.926   1.614  0.3644  0.5690  1.1561
  745SOL    MW4 3027   0.217   3.886   1.645 -0.0326  0.1276 -0.2650
  746SOL     OW 3028   0.011   4.034   1.530  0.5358 -0.0773  0.0956
  746SOL    HW2 3029   0.018   4.126   1.552 -1.1366  0.0279  0.2971
  746SOL    HW3 3030   0.078   3.991   1.582  0.5804  0.8923  0.8401
  746SOL    MW4 3031   0.021   4.040   1.539  0.3209  0.0648  0.2204
  747SOL     OW 3032   0.021   4.298   1.628  0.1399  0.4065  0.3278
  747SOL    HW2 3033   0.017   4.277   1.722  0.7215  0.9777  0.4794
  747SOL    HW3 3034  -0.069   4.324   1.606 -0.3495 -1.1588  0.3832
  747SOL    MW4 3035   0.008   4.298   1.638  0.1520  0.2751  0.3550
  748SOL     OW 3036   0.254   4.427   1.563 -0.2039  0.0192 -0.0795
  748SOL    HW2 3037   0.177   4.380   1.595 -0.1642  0.2046  0.2899
  748SOL    HW3 3038   0.233   4.519   1.576 -0.0596  0.0844 -0.3029
  748SOL    MW4 3039   0.241   4.433   1.569 -0.1796  0.0525 -0.0603
  749SOL     OW 3040   0.668   0.007   1.656  0.0597  0.2803  0.3452
  749SOL    HW2 3041   0.741   0.039   1.603 -1.1815 -0.4384 -1.8726
  749SOL    HW3 3042   0.592   0.054   1.622 -0.6970  0.1207  1.8023
  749SOL    MW4 3043   0.668   0.018   1.644 -0.2039  0.1644  0.2450
  750SOL     OW 3044   0.445   0.131   1.547  0.0681 -0.3541 -0.3909
  750SOL    HW2 3045   0.465   0.223   1.565  0.1985 -0.4955  0.1995
  750SOL    HW3 3046   0.423   0.129   1.454 -0.6683  0.3932 -0.2396
  750SOL    MW4 3047   0.445   0.143   1.537 -0.0118 -0.2742 -0.2929
  751SOL     OW 3048   0.450   0.416   1.571  0.1716  0.1169 -0.0350
  751SOL    HW2 3049   0.542   0.439   1.554 -0.2963  2.1503  0.0834
  751SOL    HW3 3050   0.401   0.459   1.501 -0.6708 -1.4293 -0.4283
  751SOL    MW4 3051   0.456   0.425   1.559 -0.0013  0.1812 -0.0713
  752SOL     OW 3052   0.704   0.498   1.482  0.3767 -0.5715 -0.4531
  752SOL    HW2 3053   0.703   0.589   1.514 -1.1906 -0.2985 -1.2298
  752SOL    HW3 3054   0.699   0.506   1.387  0.4611 -1.4764 -0.5371
  752SOL    MW4 3055   0.703   0.511   1.474  0.1811 -0.6549 -0.5667
  753SOL     OW 3056   0.649   0.758   1.581 -0.1466 -0.0518 -0.2616
  753SOL    HW2 3057   0.649   0.744   1.676 -0.6756  0.9906 -0.1011
  753SOL    HW3 3058   0.727   0.811   1.564  1.1625 -2.0691 -0.7073
  753SOL    MW4 3059   0.659   0.763   1.592 -0.0436 -0.1804 -0.2993
  754SOL     OW 3060   0.418   0.862   1.470  0.2938 -0.0105  0.2458
  754SOL    HW2 3061   0.420   0.947   1.514  1.2390  0.6162 -0.9613
  754SOL    HW3 3062   0.503   0.823   1.490 -0.2812 -0.8321  1.0976
  754SOL    MW4 3063   0.430   0.868   1.478  0.3427 -0.0362  0.1990
  755SOL     OW 3064   0.437   1.107   1.565  0.5624 -0.3753 -0.4623
  755SOL    HW2 3065   0.517   1.159   1.562  0.6532 -0.5178 -0.4854
  755SOL    HW3 3066   0.367   1.171   1.550  0.4443  0.2780  2.6342
  755SOL    MW4 3067   0.438   1.122   1.563  0.5587 -0.3079 -0.0570
  756SOL     OW 3068   0.662   1.249   1.525  0.6159  0.0043  0.4668
  756SOL    HW2 3069   0.676   1.336   1.561  1.6178 -0.0857  0.3284
  756SOL    HW3 3070   0.642   1.263   1.433 -0.6666  0.1644  0.7659
  756SOL    MW4 3071   0.661   1.262   1.518  0.5788  0.0135  0.4879
  757SOL     OW 3072   0.662   1.511   1.596  0.2332 -0.6972 -0.3601
  757SOL    HW2 3073   0.728   1.563   1.551  0.2369 -0.6118 -0.2560
  757SOL    HW3 3074   0.580   1.531   1.551  0.2378 -0.6151 -0.3325
  757SOL    MW4 3075   0.660   1.521   1.584  0.2342 -0.6751 -0.3426
  758SOL     OW 3076   0.440   1.608   1.453 -0.0857  0.4105 -0.1637
  758SOL    HW2 3077   0.472   1.690   1.491 -0.1319 -0.5412  1.9997
  758SOL    HW3 3078   0.350   1.599   1.487  0.1996 -0.9275  0.2778
  758SOL    MW4 3079   0.432   1.617   1.462 -0.0542  0.1084  0.1799
  759SOL     OW 3080   0.477   1.892   1.540 -0.4305 -0.0708 -0.2138
  759SOL    HW2 3081   0.473   1.888   1.635 -0.1486 -1.0765 -0.2402
  759SOL    HW3 3082   0.400   1.943   1.515 -0.0975  0.8297  0.5848
  759SOL    MW4 3083   0.466   1.898   1.549 -0.3494 -0.0848 -0.1119
  760SOL     OW 3084   0.705   2.074   1.492  0.0245  0.1804 -0.3137
  760SOL    HW2 3085   0.783   2.029   1.524 -0.6776 -0.8265 -0.0167
  760SOL    HW3 3086   0.632   2.017   1.516 -0.8425  1.3149 -0.2346
  760SOL    MW4 3087   0.706   2.061   1.499 -0.1826  0.1972 -0.2640
  761SOL     OW 3088   0.704   2.352   1.589  0.1999  0.1453  0.7513
  761SOL    HW2 3089   0.617   2.379   1.560  0.5169  0.3055 -0.0547
  761SOL    HW3 3090   0.718   2.267   1.548  0.7259  0.4570  0.2818
  761SOL    MW4 3091   0.695   2.345   1.580  0.3111  0.2074  0.5829
  762SOL     OW 3092   0.441   2.464   1.507 -0.5032  0.3163 -0.0325
  762SOL    HW2 3093   0.426   2.550   1.545 -1.3453  0.3972 -0.5197
  762SOL    HW3 3094   0.362   2.414   1.529 -0.2152 -0.1905 -0.1327
  762SOL    MW4 3095   0.429   2.468   1.515 -0.5763  0.2601 -0.1101
  763SOL     OW 3096   0.449   2.720   1.607 -0.0595 -0.3349 -0.3353
  763SOL    HW2 3097   0.468   2.701   1.699 -1.3032  0.2423  0.0456
  763SOL    HW3 3098   0.534   2.744   1.570  0.3903 -0.2149  0.7433
  763SOL    MW4 3099   0.463   2.721   1.614 -0.1643 -0.2432 -0.1429
  764SOL     OW 3100   0.691   2.795   1.509 -0.3674 -0.1478 -0.1009
  764SOL    HW2 3101   0.702   2.884   1.542  0.4151 -1.1695  2.4783
  764SOL    HW3 3102   0.678   2.806   1.415 -1.6617  2.7820  0.3608
  764SOL    MW4 3103   0.690   2.808   1.501 -0.4349  0.1040  0.3003
  765SOL     OW 3104   0.725   3.079   1.593 -0.0681  0.2225  0.2214
  765SOL    HW2 3105   0.802   3.134   1.577  0.7053 -1.4823 -2.4060
  765SOL    HW3 3106   0.651   3.132   1.565  0.4011  0.9735  0.3884
  765SOL    MW4 3107   0.725   3.093   1.587  0.0959  0.0968 -0.1031
  766SOL     OW 3108   0.519   3.220   1.476 -0.2291 -0.4872 -0.1740
  766SOL    HW2 3109   0.438   3.176   1.502 -0.5445 -0.4995 -1.1486
  766SOL    HW3 3110   0.514   3.224   1.380  0.0880  1.1173 -0.1254
  766SOL    MW4 3111   0.508   3.215   1.466 -0.2288 -0.2773 -0.2961
  767SOL     OW 3112   0.479   3.482   1.606 -0.1860  0.3807  0.8031
  767SOL    HW2 3113   0.474   3.401   1.555  2.2890  0.7202 -0.0553
  767SOL    HW3 3114   0.407   3.536   1.574 -0.1723 -0.4006 -0.5758
  767SOL    MW4 3115   0.469   3.478   1.595  0.1424  0.3226  0.5080
  768SOL     OW 3116   0.713   3.615   1.473  0.0990  0.4210 -0.5302
  768SOL    HW2 3117   0.791   3.581   1.518  0.1918 -0.9193 -1.6834
  768SOL    HW3 3118   0.640   3.567   1.512  0.0324  0.3234 -0.7776
  768SOL    MW4 3119   0.714   3.604   1.484  0.1025  0.2313 -0.7149
  769SOL     OW 3120   0.662   3.867   1.622  0.1578  0.1906  0.1191
  769SOL    HW2 3121   0.733   3.924   1.591 -2.2819  3.5701  0.4358
  769SOL    HW3 3122   0.667   3.790   1.566  1.3902  2.2633 -2.7619
  769SOL    MW4 3123   0.672   3.865   1.611 -0.0015  0.9103 -0.2193
  770SOL     OW 3124   0.428   4.012   1.532 -0.0323 -0.3582 -0.1728
  770SOL    HW2 3125   0.508   3.966   1.558  0.0703  0.3270  0.7692
  770SOL    HW3 3126   0.443   4.103   1.559 -0.9261 -0.1273 -0.4385
  770SOL    MW4 3127   0.441   4.018   1.539 -0.1367 -0.2375 -0.0836
  771SOL     OW 3128   0.481   4.278   1.623 -0.6609  0.1501 -0.2368
  771SOL    HW2 3129   0.457   4.256   1.713  1.6524 -0.5040  0.2430
  771SOL    HW3 3130   0.414   4.341   1.595 -0.4428  1.6696  2.5347
  771SOL    MW4 3131   0.469   4.284   1.631 -0.3269  0.2646  0.1923
  772SOL     OW 3132   0.701   4.431   1.538  0.6040  0.0886  0.6183
  772SOL    HW2 3133   0.665   4.511   1.576 -0.5368  0.8293 -1.9448
  772SOL    HW3 3134   0.629   4.368   1.543  0.5669  0.0840  0.0165
  772SOL    MW4 3135   0.687   4.433   1.544  0.4486  0.1860  0.2006
  773SOL     OW 3136   1.077   4.630   1.625 -0.3659  0.3274  0.3423
  773SOL    HW2 3137   1.095   4.612   1.717 -0.7955  0.0724  0.3757
  773SOL    HW3 3138   1.138   4.700   1.603  1.7633 -1.5719  0.0314
  773SOL    MW4 3139   1.088   4.637   1.634 -0.1417  0.0434  0.3057
  774SOL     OW 3140   0.871   0.104   1.503  0.0270 -0.4267  0.1486
  774SOL    HW2 3141   0.894   0.196   1.519 -0.3199  0.0167 -1.8138
  774SOL    HW3 3142   0.942   0.055   1.544 -0.2607  0.6726  2.0225
  774SOL    MW4 3143   0.884   0.110   1.510 -0.0567 -0.2231  0.1370
  775SOL     OW 3144   0.910   0.357   1.583  0.1583  0.3763  0.1111
  775SOL    HW2 3145   0.902   0.355   1.678  0.7684 -2.8078  0.1521
  775SOL    HW3 3146   0.836   0.410   1.554 -0.6638  0.4838  2.3086
  775SOL    MW4 3147   0.899   0.364   1.591  0.1304 -0.0296  0.4066
  776SOL     OW 3148   1.124   0.731   1.605 -0.0763 -0.7768 -0.1455
  776SOL    HW2 3149   1.192   0.794   1.583 -2.1009  1.2358 -0.9048
  776SOL    HW3 3150   1.105   0.747   1.697 -1.6057  0.8034 -0.7015
  776SOL    MW4 3151   1.130   0.741   1.614 -0.5451 -0.3027 -0.3191
  777SOL     OW 3152   0.893   0.875   1.522  0.1290 -0.4601 -0.2088
  777SOL    HW2 3153   0.959   0.806   1.529 -0.6873 -1.2634 -0.4514
  777SOL    HW3 3154   0.900   0.906   1.431 -0.1670 -0.8831 -0.3757
  777SOL    MW4 3155   0.903   0.870   1.511 -0.0178 -0.6219 -0.2629
  778SOL     OW 3156   0.905   0.918   1.243  0.4222 -0.5922  0.0188
  778SOL    HW2 3157   0.846   0.863   1.192  0.8949 -1.4195  0.3581
  778SOL    HW3 3158   0.889   1.007   1.211 -0.7901 -0.8493 -0.0873
  778SOL    MW4 3159   0.895   0.922   1.232  0.3246 -0.7353  0.0496
  779SOL     OW 3160   0.883   1.131   1.624 -0.1899  0.2064  0.0709
  779SOL    HW2 3161   0.881   1.036   1.614 -0.7839 -0.0311  2.3181
  779SOL    HW3 3162   0.811   1.162   1.569  0.0220 -0.6140 -0.6903
  779SOL    MW4 3163   0.873   1.123   1.615 -0.2403  0.0668  0.2670
  780SOL     OW 3164   1.093   1.288   1.537  0.4821  0.0290  0.3904
  780SOL    HW2 3165   1.180   1.249   1.551  0.3772 -0.2868  0.1788
  780SOL    HW3 3166   1.032   1.222   1.570  0.2440 -0.5818 -1.2181
  780SOL    MW4 3167   1.097   1.274   1.543  0.4369 -0.0931  0.1502
  781SOL     OW 3168   1.112   1.575   1.618  0.6776  0.2883  0.0034
  781SOL    HW2 3169   1.193   1.619   1.592  1.8099 -0.7444  1.6986
  781SOL    HW3 3170   1.116   1.491   1.571 -0.0415  0.7549 -0.9061
  781SOL    MW4 3171   1.124   1.569   1.608  0.7322  0.2135  0.1070
  782SOL     OW 3172   0.876   1.676   1.521 -0.8901  0.0156 -0.3559
  782SOL    HW2 3173   0.960   1.637   1.547 -0.2450  1.8519  0.4655
  782SOL    HW3 3174   0.884   1.686   1.426 -0.5083 -0.5628 -0.3927
  782SOL    MW4 3175   0.888   1.672   1.512 -0.7547  0.1816 -0.2524
  783SOL     OW 3176   0.920   1.927   1.616  0.2614  0.0460 -0.4025
  783SOL    HW2 3177   1.009   1.946   1.587 -0.0960 -0.9310 -2.2330
  783SOL    HW3 3178   0.905   1.837   1.587 -0.8297 -0.2712  1.1288
  783SOL    MW4 3179   0.930   1.917   1.608  0.0702 -0.1248 -0.4420
  784SOL     OW 3180   1.178   2.015   1.499 -0.1222 -0.1338 -0.4605
  784SOL    HW2 3181   1.262   1.984   1.532 -0.5111  0.0253  0.7137
  784SOL    HW3 3182   1.169   2.103   1.536 -1.3670 -0.6333  0.4537
  784SOL    MW4 3183   1.188   2.023   1.509 -0.3378 -0.1786 -0.1850
  785SOL     OW 3184   1.144   2.286   1.579  0.1422 -0.5413 -0.4747
  785SOL    HW2 3185   1.223   2.314   1.533  0.6879 -0.6041  0.4262
  785SOL    HW3 3186   1.082   2.357   1.566  0.5626 -0.2049 -0.6370
  785SOL    MW4 3187   1.146   2.299   1.571  0.2697 -0.5050 -0.3773
  786SOL     OW 3188   0.935   2.470   1.505 -0.0407  0.4007 -0.0619
  786SOL    HW2 3189   0.931   2.558   1.542 -1.1884  0.0231  0.7632
  786SOL    HW3 3190   0.854   2.428   1.534 -0.2507 -0.4241 -1.7231
  786SOL    MW4 3191   0.923   2.476   1.514 -0.2198  0.2422 -0.1723
  787SOL     OW 3192   0.942   2.724   1.585  0.0175 -0.2522 -0.0886
  787SOL    HW2 3193   0.937   2.718   1.681 -1.7682 -0.7584 -0.1884
  787SOL    HW3 3194   0.854   2.751   1.558  0.3728 -0.5554 -1.6131
  787SOL    MW4 3195   0.930   2.727   1.594 -0.1713 -0.3588 -0.3029
  788SOL     OW 3196   1.142   2.832   1.424 -0.0713  0.1682  0.3592
  788SOL    HW2 3197   1.155   2.919   1.463  0.8396  0.0544  0.3324
  788SOL    HW3 3198   1.073   2.792   1.477  1.3432 -0.0874  2.0550
  788SOL    MW4 3199   1.135   2.838   1.436  0.2356  0.1194  0.5794
  789SOL     OW 3200   1.147   3.083   1.547  0.6147 -0.0166  0.4104
  789SOL    HW2 3201   1.156   3.078   1.642  0.7822  0.1162  0.4008
  789SOL    HW3 3202   1.213   3.147   1.519 -1.2784  2.0530  0.4853
  789SOL    MW4 3203   1.157   3.091   1.556  0.3871  0.2739  0.4189
  790SOL     OW 3204   0.925   3.234   1.484  0.0648  0.1613 -0.0035
  790SOL    HW2 3205   1.000   3.178   1.506 -0.6588 -0.4774  0.8616
  790SOL    HW3 3206   0.918   3.229   1.389  1.7351  1.0237 -0.1972
  790SOL    MW4 3207   0.934   3.226   1.474  0.1897  0.1907  0.0849
  791SOL     OW 3208   0.931   3.478   1.605  0.4674  0.7538  0.1726
  791SOL    HW2 3209   1.000   3.530   1.564  1.1638 -0.6366 -0.4479
  791SOL    HW3 3210   0.937   3.393   1.563 -1.3799  0.4860  0.4074
  791SOL    MW4 3211   0.941   3.474   1.594  0.3155  0.5350  0.1217
  792SOL     OW 3212   1.118   3.637   1.467 -0.4775 -0.5324  0.0933
  792SOL    HW2 3213   1.201   3.600   1.498 -0.0845 -1.2838 -1.7700
  792SOL    HW3 3214   1.117   3.617   1.374 -1.2490  2.3550 -0.5529
  792SOL    MW4 3215   1.129   3.629   1.459 -0.5274 -0.2506 -0.2377
  793SOL     OW 3216   1.096   3.882   1.569  0.1027 -0.0878 -0.3918
  793SOL    HW2 3217   1.173   3.929   1.536 -0.5523  0.0062 -1.8260
  793SOL    HW3 3218   1.101   3.796   1.528 -0.0455 -0.4242  0.2850
  793SOL    MW4 3219   1.107   3.877   1.559 -0.0032 -0.1197 -0.4917
  794SOL     OW 3220   0.870   4.018   1.516 -0.6855  0.1056 -0.0849
  794SOL    HW2 3221   0.889   4.100   1.560 -0.2757  0.2716 -0.5587
  794SOL    HW3 3222   0.949   3.966   1.527 -0.1915  0.5249 -1.4531
  794SOL    MW4 3223   0.883   4.022   1.523 -0.5662  0.1826 -0.3281
  795SOL     OW 3224   0.918   4.271   1.631  0.7163 -0.0502 -0.2682
  795SOL    HW2 3225   0.849   4.326   1.595  0.2872 -0.9324 -0.8255
  795SOL    HW3 3226   0.922   4.293   1.724 -0.0411  0.2952 -0.3223
  795SOL    MW4 3227   0.910   4.281   1.638  0.5597 -0.1211 -0.3488
  796SOL     OW 3228   1.137   4.363   1.496  0.0121  0.3560  0.1017
  796SOL    HW2 3229   1.069   4.315   1.543 -0.9586 -0.2431 -1.8616
  796SOL    HW3 3230   1.133   4.452   1.531 -1.0982  0.0651  0.7173
  796SOL    MW4 3231   1.127   4.368   1.507 -0.2624  0.2389 -0.0762
  797SOL     OW 3232   1.498   0.008   1.606  0.0719 -0.5966 -0.1561
  797SOL    HW2 3233   1.538   0.013   1.692 -0.7204 -4.8599  0.5922
  797SOL    HW3 3234   1.412   0.049   1.617 -0.8386 -2.8722  1.6926
  797SOL    MW4 3235   1.492   0.014   1.618 -0.1527 -1.4593  0.1866
  798SOL     OW 3236   1.256   0.166   1.524  0.3201  0.0377 -0.0093
  798SOL    HW2 3237   1.297   0.249   1.547  0.8458 -0.0559 -0.5850
  798SOL    HW3 3238   1.262   0.162   1.428  0.5138 -0.7680  0.0296
  798SOL    MW4 3239   1.263   0.176   1.514  0.4151 -0.0810 -0.0801
  799SOL     OW 3240   1.383   0.400   1.607  0.1212  0.3407 -0.3163
  799SOL    HW2 3241   1.451   0.440   1.552 -0.1512 -0.4017 -1.2046
  799SOL    HW3 3242   1.301   0.440   1.577 -0.1770 -1.0351 -1.3651
  799SOL    MW4 3243   1.381   0.411   1.596  0.0459  0.0612 -0.5720
  800SOL     OW 3244   1.592   0.524   1.461  0.7244  0.1724  0.0480
  800SOL    HW2 3245   1.669   0.491   1.506  0.0333 -2.3864 -0.5769
  800SOL    HW3 3246   1.615   0.523   1.368  0.0821 -0.2150 -0.1086
  800SOL    MW4 3247   1.605   0.520   1.455  0.5486 -0.2163 -0.0553
  801SOL     OW 3248   1.592   0.772   1.587  0.0649  0.1420 -0.1920
  801SOL    HW2 3249   1.582   0.750   1.680 -0.2602  1.4141  0.0849
  801SOL    HW3 3250   1.584   0.688   1.541 -0.7115 -0.3633  0.8580
  801SOL    MW4 3251   1.590   0.758   1.593 -0.0805  0.2431 -0.0170
  802SOL     OW 3252   1.369   0.912   1.516  0.5133  0.2675 -0.2128
  802SOL    HW2 3253   1.386   0.929   1.424 -0.7677  2.0691 -0.1564
  802SOL    HW3 3254   1.445   0.864   1.547 -0.2445 -2.8047 -2.8462
  802SOL    MW4 3255   1.381   0.908   1.508  0.2443  0.0999 -0.5528
  803SOL     OW 3256   1.346   1.186   1.607 -0.5398 -0.0443  0.2130
  803SOL    HW2 3257   1.369   1.208   1.697  0.0146  0.1928  0.0166
  803SOL    HW3 3258   1.376   1.095   1.596 -3.0514 -1.0187  1.0997
  803SOL    MW4 3259   1.353   1.177   1.617 -0.7981 -0.1417  0.3041
  804SOL     OW 3260   1.596   1.260   1.549  0.2541  0.5627 -0.0528
  804SOL    HW2 3261   1.505   1.240   1.570  0.2389  1.5692  0.9061
  804SOL    HW3 3262   1.600   1.261   1.454 -0.9681  1.5209 -0.0963
  804SOL    MW4 3263   1.585   1.257   1.540  0.0907  0.8219  0.0681
  805SOL     OW 3264   1.593   1.540   1.587 -0.1857  0.4708  0.0062
  805SOL    HW2 3265   1.604   1.551   1.681  0.6053  2.2344 -0.2741
  805SOL    HW3 3266   1.587   1.445   1.574  0.4612  0.1847  1.7344
  805SOL    MW4 3267   1.594   1.529   1.597  0.0041  0.6659  0.1971
  806SOL     OW 3268   1.409   1.917   1.594 -0.0153  0.1631  0.1158
  806SOL    HW2 3269   1.395   1.826   1.566  1.0031  0.3744 -1.1293
  806SOL    HW3 3270   1.380   1.919   1.685 -2.2546 -0.8453 -0.5583
  806SOL    MW4 3271   1.403   1.905   1.602 -0.1763  0.0579 -0.1373
  807SOL     OW 3272   1.357   1.656   1.499  0.5578  0.1619 -0.0342
  807SOL    HW2 3273   1.443   1.616   1.511  0.7450  0.0453 -1.5770
  807SOL    HW3 3274   1.345   1.657   1.404 -1.4945 -0.5703  0.1972
  807SOL    MW4 3275   1.367   1.651   1.488  0.3117  0.0501 -0.2071
  808SOL     OW 3276   1.643   2.042   1.514  0.2679 -0.1116  0.1475
  808SOL    HW2 3277   1.563   2.001   1.548 -1.5461  2.1810 -1.1680
  808SOL    HW3 3278   1.635   2.035   1.419  0.6156  1.8924 -0.0589
  808SOL    MW4 3279   1.631   2.036   1.506  0.0745  0.4556 -0.0533
  809SOL     OW 3280   1.612   2.348   1.552  0.1132  0.2043 -0.3000
  809SOL    HW2 3281   1.668   2.394   1.489 -0.7282 -0.1488 -1.3309
  809SOL    HW3 3282   1.641   2.256   1.547  1.2309  0.4530  1.1449
  809SOL    MW4 3283   1.623   2.342   1.543  0.1496  0.1905 -0.2453
  810SOL     OW 3284   1.366   2.437   1.468  0.1938  0.1126  0.0461
  810SOL    HW2 3285   1.348   2.524   1.506 -0.3168  0.4417 -0.9312
  810SOL    HW3 3286   1.444   2.407   1.514 -0.5920  0.3644  1.5905
  810SOL    MW4 3287   1.373   2.445   1.479  0.0228  0.1891  0.1210
  811SOL     OW 3288   1.352   2.695   1.562  0.1424  0.0991  0.0547
  811SOL    HW2 3289   1.430   2.748   1.544  0.9296 -0.3792  1.9564
  811SOL    HW3 3290   1.279   2.750   1.535  1.0012  1.7198  0.9492
  811SOL    MW4 3291   1.353   2.709   1.556  0.3597  0.2499  0.4237
  812SOL     OW 3292   1.576   2.847   1.499  0.3360  0.7471 -0.0936
  812SOL    HW2 3293   1.653   2.794   1.519 -1.2515 -1.1312  1.2018
  812SOL    HW3 3294   1.579   2.859   1.404  2.7735  1.6089  0.0617
  812SOL    MW4 3295   1.586   2.842   1.489  0.4481  0.6127  0.0976
  813SOL     OW 3296   1.529   3.103   1.597  0.2968 -0.1745  0.2867
  813SOL    HW2 3297   1.602   3.153   1.559 -1.0984  0.8328 -1.1217
  813SOL    HW3 3298   1.546   3.012   1.572  1.0606  0.0520 -0.0336
  813SOL    MW4 3299   1.541   3.098   1.589  0.2135 -0.0119  0.0585
  814SOL     OW 3300   1.343   3.252   1.447 -0.4352 -0.0988 -0.1852
  814SOL    HW2 3301   1.345   3.335   1.495  2.0360  0.6425 -1.4869
  814SOL    HW3 3302   1.406   3.196   1.492 -0.5368 -0.5382 -0.5835
  814SOL    MW4 3303   1.351   3.256   1.459 -0.1225 -0.0587 -0.4094
  815SOL     OW 3304   1.334   3.501   1.608 -0.2165  0.0037  0.1451
  815SOL    HW2 3305   1.308   3.510   1.700 -1.6260 -0.3813 -0.1994
  815SOL    HW3 3306   1.412   3.554   1.600  0.0491 -0.1369  1.6295
  815SOL    MW4 3307   1.341   3.509   1.619 -0.3674 -0.0656  0.2955
  816SOL     OW 3308   1.558   3.659   1.552  0.1555  0.2284  0.2846
  816SOL    HW2 3309   1.592   3.748   1.560  2.3675 -0.4050 -1.5991
  816SOL    HW3 3310   1.540   3.648   1.459 -2.0268 -0.6403  0.7706
  816SOL    MW4 3311   1.560   3.669   1.541  0.1595  0.0303  0.1001
  817SOL     OW 3312   1.598   3.935   1.600 -0.1742 -0.2529 -0.0370
  817SOL    HW2 3313   1.599   3.923   1.695  0.4563  3.0565  0.4286
  817SOL    HW3 3314   1.507   3.955   1.579 -0.2672 -0.7497 -0.1294
  817SOL    MW4 3315   1.586   3.936   1.610 -0.1032  0.1180  0.0123
  818SOL     OW 3316   1.335   4.000   1.502  0.1017 -0.0289 -0.1055
  818SOL    HW2 3317   1.338   4.091   1.531  1.6271 -0.2583  0.5107
  818SOL    HW3 3318   1.335   4.004   1.407  0.6308  0.6056 -0.0770
  818SOL    MW4 3319   1.335   4.012   1.493  0.3726  0.0248 -0.0205
  819SOL     OW 3320   1.357   4.251   1.620  0.0125 -0.4819  0.2127
  819SOL    HW2 3321   1.275   4.284   1.584  0.5775  1.2731  0.4802
  819SOL    HW3 3322   1.424   4.307   1.581  0.9026 -0.6172  1.5233
  819SOL    MW4 3323   1.355   4.263   1.610  0.2044 -0.2685  0.4208
  820SOL     OW 3324   1.530   4.424   1.507  0.0212  0.3278  0.2935
  820SOL    HW2 3325   1.613   4.393   1.543  0.8179  1.4896 -0.4771
  820SOL    HW3 3326   1.512   4.505   1.555 -1.2064 -0.4591  1.1757
  820SOL    MW4 3327   1.539   4.431   1.518 -0.0358  0.3772  0.3082
  821SOL     OW 3328   1.975   0.014   1.607  0.1233 -0.5079  0.4766
  821SOL    HW2 3329   1.980   0.024   1.702  0.3585 -0.5824  0.4729
  821SOL    HW3 3330   1.889   0.047   1.584 -0.6446 -2.1157  0.9218
  821SOL    MW4 3331   1.964   0.019   1.617  0.0529 -0.7299  0.5349
  822SOL     OW 3332   1.316   0.126   1.254  0.0773  0.0882 -0.1266
  822SOL    HW2 3333   1.399   0.100   1.213 -0.4203 -1.3939 -0.2172
  822SOL    HW3 3334   1.249   0.079   1.205 -0.6769 -0.2259  1.1735
  822SOL    MW4 3335   1.318   0.116   1.242 -0.0880 -0.1488  0.0330
  823SOL     OW 3336   1.737   0.132   1.523  0.1205 -0.3978 -0.3301
  823SOL    HW2 3337   1.746   0.127   1.428  0.1949 -1.4153 -0.2735
  823SOL    HW3 3338   1.656   0.083   1.542  0.5056 -0.8422  0.1927
  823SOL    MW4 3339   1.727   0.125   1.513  0.1812 -0.5907 -0.2537
  824SOL     OW 3340   1.779   0.392   1.618  0.2700  0.0688 -0.0216
  824SOL    HW2 3341   1.780   0.300   1.592  0.9226 -0.7865  2.8539
  824SOL    HW3 3342   1.848   0.433   1.565  0.0750 -1.1141 -1.2060
  824SOL    MW4 3343   1.789   0.385   1.607  0.3303 -0.2001  0.2016
  825SOL     OW 3344   2.035   0.795   1.591  0.0889  0.1313 -0.2372
  825SOL    HW2 3345   1.967   0.848   1.549  2.7183  1.5270 -2.8754
  825SOL    HW3 3346   2.005   0.705   1.580 -1.1277  0.6983 -1.7620
  825SOL    MW4 3347   2.022   0.790   1.584  0.2751  0.3902 -0.7864
  826SOL     OW 3348   1.803   0.892   1.487  0.6808  0.0028  0.5699
  826SOL    HW2 3349   1.807   0.976   1.533 -0.4774  0.6691 -0.5464
  826SOL    HW3 3350   1.733   0.844   1.531 -0.7575  0.8277 -0.7872
  826SOL    MW4 3351   1.795   0.897   1.499  0.3382  0.1996  0.2437
  827SOL     OW 3352   1.841   1.119   1.638 -0.0927 -0.2563  0.4024
  827SOL    HW2 3353   1.915   1.176   1.612 -0.1750  0.2316  1.2388
  827SOL    HW3 3354   1.763   1.169   1.613 -0.1592 -0.2976  0.5317
  827SOL    MW4 3355   1.841   1.133   1.631 -0.1122 -0.1974  0.5299
  828SOL     OW 3356   2.051   1.240   1.508 -0.1281  0.6217  0.0240
  828SOL    HW2 3357   2.074   1.323   1.549 -1.1639  0.6118  0.6598
  828SOL    HW3 3358   2.033   1.261   1.417 -1.1297  1.2448  0.3499
  828SOL    MW4 3359   2.051   1.254   1.502 -0.3970  0.7026  0.1507
  829SOL     OW 3360   2.058   1.494   1.592 -0.2352 -0.3102  0.7498
  829SOL    HW2 3361   2.131   1.543   1.552 -0.6740  0.5221  0.9563
  829SOL    HW3 3362   1.980   1.544   1.569 -0.8481 -1.7400 -0.2899
  829SOL    MW4 3363   2.058   1.507   1.584 -0.3738 -0.3889  0.6398
  830SOL     OW 3364   1.839   1.649   1.546 -0.3363 -0.2290  0.7086
  830SOL    HW2 3365   1.755   1.611   1.572 -0.8385  0.9879  0.9022
  830SOL    HW3 3366   1.833   1.660   1.452 -1.2344  1.8375  0.9929
  830SOL    MW4 3367   1.827   1.645   1.537 -0.5212  0.2042  0.7716
  831SOL     OW 3368   1.872   1.905   1.616  0.1547 -0.2713  0.3330
  831SOL    HW2 3369   1.859   1.814   1.588  0.2338  0.0753 -0.8664
  831SOL    HW3 3370   1.794   1.950   1.586 -0.6706 -0.2693  2.4375
  831SOL    MW4 3371   1.860   1.899   1.608  0.0561 -0.2253  0.4524
  832SOL     OW 3372   2.076   2.026   1.476  0.1374 -0.4851  0.8888
  832SOL    HW2 3373   2.155   1.982   1.507 -0.6901 -3.5922 -1.1747
  832SOL    HW3 3374   2.005   1.985   1.525 -0.4124  0.9459  1.3324
  832SOL    MW4 3375   2.077   2.015   1.487 -0.0446 -0.7060  0.6751
  833SOL     OW 3376   1.998   2.282   1.563 -0.5661 -0.2135  0.5372
  833SOL    HW2 3377   1.997   2.283   1.658  0.5744 -0.5228  0.5642
  833SOL    HW3 3378   2.030   2.195   1.540 -2.4705 -0.7549 -0.1612
  833SOL    MW4 3379   2.002   2.271   1.572 -0.6669 -0.3259  0.4487
  834SOL     OW 3380   1.826   2.440   1.392 -0.4631  0.0324 -0.0828
  834SOL    HW2 3381   1.886   2.381   1.437 -1.3323 -0.1662  0.8223
  834SOL    HW3 3382   1.836   2.419   1.299  0.2746 -0.5489  0.1298
  834SOL    MW4 3383   1.835   2.430   1.385 -0.4804 -0.0706  0.0647
  835SOL     OW 3384   1.807   2.698   1.544  0.1585 -0.8623 -0.4733
  835SOL    HW2 3385   1.873   2.764   1.522  0.1953 -0.9748 -0.7055
  835SOL    HW3 3386   1.827   2.624   1.487  0.3508 -1.2197  0.0589
  835SOL    MW4 3387   1.818   2.697   1.533  0.1887 -0.9243 -0.4337
  836SOL     OW 3388   2.047   2.870   1.472 -0.0065  0.2431 -0.4546
  836SOL    HW2 3389   2.048   2.964   1.492 -1.6365  0.4466 -1.2699
  836SOL    HW3 3390   2.093   2.862   1.388  1.8410  0.0625  0.5505
  836SOL    MW4 3391   2.053   2.881   1.464  0.0224  0.2460 -0.4296
  837SOL     OW 3392   1.988   3.142   1.564  0.3364 -0.3009  0.4664
  837SOL    HW2 3393   1.978   3.144   1.659  1.6676  0.3975  0.6080
  837SOL    HW3 3394   1.899   3.150   1.529 -0.2754 -1.6792  1.6501
  837SOL    MW4 3395   1.975   3.143   1.572  0.4314 -0.3903  0.6413
  838SOL     OW 3396   1.733   3.242   1.472  0.2962  0.4332 -0.4531
  838SOL    HW2 3397   1.754   3.330   1.503  0.6883  0.4999 -0.8943
  838SOL    HW3 3398   1.747   3.247   1.377  0.2918 -0.0941 -0.4815
  838SOL    MW4 3399   1.738   3.254   1.463  0.3474  0.3724 -0.5151
  839SOL     OW 3400   1.768   3.492   1.591 -0.0595  0.3426  0.2854
  839SOL    HW2 3401   1.783   3.478   1.685 -0.9888  0.3750  0.4395
  839SOL    HW3 3402   1.692   3.550   1.587 -0.3112 -0.0427 -0.4992
  839SOL    MW4 3403   1.760   3.498   1.603 -0.2153  0.2961  0.2023
  840SOL     OW 3404   1.999   3.645   1.204  0.2775  0.3115  0.1983
  840SOL    HW2 3405   2.000   3.636   1.300  2.4045 -0.1683  0.1635
  840SOL    HW3 3406   1.925   3.591   1.176 -0.1110  0.1146  1.5581
  840SOL    MW4 3407   1.989   3.637   1.213  0.5069  0.2220  0.3731
  841SOL     OW 3408   2.016   3.898   1.592 -0.0737 -0.1972  0.6334
  841SOL    HW2 3409   2.102   3.929   1.562 -0.6178 -0.1525 -0.9111
  841SOL    HW3 3410   2.012   3.807   1.561 -1.2231  0.2874 -0.6325
  841SOL    MW4 3411   2.027   3.890   1.584 -0.2971 -0.1273  0.2627
  842SOL     OW 3412   1.808   4.052   1.466  0.0335 -0.3813 -0.0632
  842SOL    HW2 3413   1.882   4.007   1.507  1.9924  2.9491  0.2823
  842SOL    HW3 3414   1.731   4.020   1.513  1.5739 -1.5792  1.7113
  842SOL    MW4 3415   1.807   4.042   1.477  0.4951 -0.0997  0.2165
  843SOL     OW 3416   1.765   4.318   1.555  0.1159  0.0318  0.9380
  843SOL    HW2 3417   1.843   4.372   1.537 -1.1135  1.0692 -1.5113
  843SOL    HW3 3418   1.791   4.230   1.528  0.1548  0.5437 -0.7384
  843SOL    MW4 3419   1.779   4.313   1.549 -0.0412  0.2365  0.3937
  844SOL     OW 3420   2.025   4.436   1.480  0.1024  0.5259 -0.2990
  844SOL    HW2 3421   2.101   4.387   1.511  0.0074  0.2409 -0.5116
  844SOL    HW3 3422   2.019   4.512   1.538 -0.9499 -0.7609  1.3126
  844SOL    MW4 3423   2.034   4.440   1.492 -0.0491  0.3185 -0.1143
  845SOL     OW 3424   2.478   0.003   1.609 -0.1418 -0.0108 -0.2632
  845SOL    HW2 3425   2.484   0.005   1.704  1.2943  0.0212 -0.3423
  845SOL    HW3 3426   2.394   0.044   1.589 -0.2504  0.3840  0.9723
  845SOL    MW4 3427   2.468   0.009   1.619  0.0334  0.0448 -0.1106
  846SOL     OW 3428   2.225   0.122   1.538  0.3932  0.0238  0.4863
  846SOL    HW2 3429   2.144   0.075   1.557 -0.7478  1.5563 -0.4612
  846SOL    HW3 3430   2.232   0.120   1.443  0.4806  1.4634  0.4465
  846SOL    MW4 3431   2.215   0.116   1.528  0.2544  0.4160  0.3561
  847SOL     OW 3432   2.186   0.377   1.629  0.2006  0.2316 -0.0444
  847SOL    HW2 3433   2.215   0.393   1.719 -0.3001  1.6287 -0.1258
  847SOL    HW3 3434   2.201   0.283   1.616  1.5624  0.2840  1.0248
  847SOL    MW4 3435   2.192   0.367   1.639  0.3142  0.4229  0.0859
  848SOL     OW 3436   4.476   1.663   1.233  0.7971 -0.0065 -0.0261
  848SOL    HW2 3437   4.423   1.634   1.159 -0.4953  1.5461  0.2601
  848SOL    HW3 3438   4.490   1.756   1.218  2.7180 -0.2035  0.3751
  848SOL    MW4 3439   4.471   1.671   1.222  0.8802  0.1725  0.0646
  849SOL     OW 3440   2.449   0.722   1.587  0.2056  0.2852 -0.1867
  849SOL    HW2 3441   2.388   0.776   1.537  0.2465  0.1021 -0.4330
  849SOL    HW3 3442   2.458   0.641   1.536 -2.2892 -1.2597  1.7283
  849SOL    MW4 3443   2.442   0.719   1.574 -0.1183  0.0572  0.0334
  850SOL     OW 3444   2.266   0.875   1.447 -0.2385  0.3393  0.5672
  850SOL    HW2 3445   2.190   0.849   1.499  0.5036  0.0353  1.5152
  850SOL    HW3 3446   2.292   0.959   1.484 -0.9711  1.1243 -0.6913
  850SOL    MW4 3447   2.260   0.882   1.459 -0.2372  0.4027  0.5263
  851SOL     OW 3448   2.282   1.103   1.598  0.2604  0.0160 -0.4543
  851SOL    HW2 3449   2.285   1.116   1.693 -0.0417  0.0666 -0.4506
  851SOL    HW3 3450   2.207   1.156   1.569 -1.2573 -2.0427 -0.3865
  851SOL    MW4 3451   2.272   1.112   1.607  0.0203 -0.2491 -0.4448
  852SOL     OW 3452   2.505   1.238   1.474 -0.0788  0.2853  0.1048
  852SOL    HW2 3453   2.431   1.183   1.502 -0.7470  0.9839 -0.2899
  852SOL    HW3 3454   2.505   1.231   1.379 -0.0191  0.7860  0.0683
  852SOL    MW4 3455   2.495   1.230   1.465 -0.1588  0.4436  0.0478
  853SOL     OW 3456   2.469   1.471   1.619 -0.1226 -0.1508  0.5171
  853SOL    HW2 3457   2.550   1.515   1.596  0.0722 -0.0255  1.4109
  853SOL    HW3 3458   2.457   1.406   1.550  0.9251 -0.4121  0.5686
  853SOL    MW4 3459   2.478   1.468   1.607  0.0412 -0.1688  0.6419
  854SOL     OW 3460   2.291   1.650   1.525 -0.0758 -0.6383 -0.2411
  854SOL    HW2 3461   2.369   1.609   1.562 -0.4483 -0.5061  0.7017
  854SOL    HW3 3462   2.314   1.669   1.434  1.1082 -0.2818  0.1329
  854SOL    MW4 3463   2.304   1.647   1.518  0.0312 -0.5736 -0.0674
  855SOL     OW 3464   2.312   1.926   1.598  0.2265 -0.2892  0.3451
  855SOL    HW2 3465   2.321   1.926   1.693 -0.2335  0.6040  0.3953
  855SOL    HW3 3466   2.295   1.834   1.576  0.3116 -0.4964  1.1236
  855SOL    MW4 3467   2.311   1.914   1.608  0.1771 -0.1987  0.4544
  856SOL     OW 3468   2.496   2.089   1.470 -0.2886  0.5945  0.4375
  856SOL    HW2 3469   2.425   2.026   1.487  2.2705 -2.4346  0.3934
  856SOL    HW3 3470   2.507   2.087   1.375  0.9147 -0.1617  0.5912
  856SOL    MW4 3471   2.488   2.080   1.459  0.2079  0.0951  0.4519
  857SOL     OW 3472   2.467   2.344   1.585  0.2013  0.2069  0.2006
  857SOL    HW2 3473   2.479   2.329   1.679  1.9284  1.0029  0.1184
  857SOL    HW3 3474   2.490   2.260   1.544  1.9341  0.5979  0.3239
  857SOL    MW4 3475   2.472   2.331   1.592  0.6578  0.3633  0.2060
  858SOL     OW 3476   2.231   2.432   1.480  0.2096  0.2003  0.0928
  858SOL    HW2 3477   2.302   2.388   1.527  1.1866  0.0384 -1.4975
  858SOL    HW3 3478   2.152   2.383   1.503  0.5499  0.5986  2.1479
  858SOL    MW4 3479   2.230   2.420   1.489  0.3834  0.2315  0.1540
  859SOL     OW 3480   2.240   2.683   1.621 -0.0151 -0.1399  0.5974
  859SOL    HW2 3481   2.239   2.607   1.562 -0.4914  1.3774 -1.4090
  859SOL    HW3 3482   2.181   2.746   1.580  1.1400  1.7137  1.6912
  859SOL    MW4 3483   2.232   2.681   1.608  0.0744  0.3047  0.4770
  860SOL     OW 3484   2.468   2.801   1.516 -0.6647  0.4079  0.0189
  860SOL    HW2 3485   2.384   2.777   1.555 -0.9702 -1.6113 -1.8288
  860SOL    HW3 3486   2.475   2.895   1.532 -3.1395  0.5592  0.4596
  860SOL    MW4 3487   2.458   2.810   1.524 -1.0316  0.1612 -0.1668
  861SOL     OW 3488   2.468   3.077   1.582 -0.1316  0.4205  0.0280
  861SOL    HW2 3489   2.548   3.128   1.569 -0.6163  0.9805 -0.7358
  861SOL    HW3 3490   2.397   3.134   1.554 -0.7108 -0.5285 -0.4622
  861SOL    MW4 3491   2.469   3.091   1.577 -0.2718  0.3693 -0.1373
  862SOL     OW 3492   2.243   3.209   1.485 -0.0750 -0.4015  0.3115
  862SOL    HW2 3493   2.238   3.301   1.508 -1.1689 -0.3517 -0.1348
  862SOL    HW3 3494   2.156   3.174   1.506 -0.2941 -0.8966 -1.3868
  862SOL    MW4 3495   2.231   3.216   1.491 -0.2482 -0.4604  0.0286
  863SOL     OW 3496   2.002   3.626   1.506  0.5447 -0.1420  0.0765
  863SOL    HW2 3497   1.925   3.590   1.550 -0.0315 -1.7042 -2.0898
  863SOL    HW3 3498   2.071   3.562   1.523  0.7844  0.1723  0.2656
  863SOL    MW4 3499   2.001   3.612   1.514  0.5004 -0.3066 -0.1842
  864SOL     OW 3500   2.238   3.484   1.564  0.0099 -0.7564 -0.0088
  864SOL    HW2 3501   2.249   3.470   1.658 -2.1772  1.0996  0.5602
  864SOL    HW3 3502   2.312   3.541   1.540  0.5059 -1.1358  0.5836
  864SOL    MW4 3503   2.250   3.490   1.574 -0.2129 -0.5615  0.1444
  865SOL     OW 3504   2.256   4.041   1.490  0.2279  0.1258 -0.4247
  865SOL    HW2 3505   2.346   4.014   1.509  0.4279 -0.0225 -1.5716
  865SOL    HW3 3506   2.243   4.019   1.398 -0.5061  1.4852 -0.6567
  865SOL    MW4 3507   2.266   4.035   1.481  0.1574  0.2861 -0.6065
  866SOL     OW 3508   2.674   3.511   1.146  0.5329 -0.0028  0.0575
  866SOL    HW2 3509   2.655   3.424   1.180 -0.0202  0.0036 -0.2270
  866SOL    HW3 3510   2.605   3.567   1.184  0.2038  0.0932 -0.6697
  866SOL    MW4 3511   2.662   3.507   1.155  0.4168  0.0105 -0.0759
  867SOL     OW 3512   2.239   4.298   1.589 -0.2568 -0.3679  0.0670
  867SOL    HW2 3513   2.330   4.321   1.569  0.2224 -2.4019 -0.1756
  867SOL    HW3 3514   2.229   4.209   1.557 -2.4603 -0.0414 -0.2155
  867SOL    MW4 3515   2.250   4.290   1.583 -0.4842 -0.5932 -0.0023
  868SOL     OW 3516   2.502   4.411   1.532 -0.1887  0.4096  0.2738
  868SOL    HW2 3517   2.506   4.503   1.556 -1.1909  0.9253 -1.4479
  868SOL    HW3 3518   2.495   4.411   1.437 -2.3406 -1.3633  0.3908
  868SOL    MW4 3519   2.502   4.423   1.523 -0.6046  0.2432  0.0621
  869SOL     OW 3520   2.917   4.631   1.599  0.0491  0.2140  0.0990
  869SOL    HW2 3521   2.890   4.637   1.691  0.5461  0.3096  0.2361
  869SOL    HW3 3522   2.849   4.681   1.552 -0.4990 -0.2855  0.3529
  869SOL    MW4 3523   2.904   4.639   1.605  0.0422  0.1607  0.1507
  870SOL     OW 3524   2.696   0.103   1.478  0.3770 -0.2138 -0.4762
  870SOL    HW2 3525   2.708   0.195   1.502  0.9835 -0.6743  1.0684
  870SOL    HW3 3526   2.619   0.075   1.527  0.7897 -0.7902 -0.1426
  870SOL    MW4 3527   2.688   0.111   1.487  0.5116 -0.3506 -0.2285
  871SOL     OW 3528   2.962   0.496   1.468 -0.3677  0.0793  0.1279
  871SOL    HW2 3529   2.880   0.453   1.493 -1.0971  0.5587 -1.4007
  871SOL    HW3 3530   2.947   0.589   1.488 -0.2072  0.1747 -0.2026
  871SOL    MW4 3531   2.950   0.502   1.474 -0.4427  0.1552 -0.1174
  872SOL     OW 3532   0.002   4.222   0.550 -0.2313 -0.2927 -0.1272
  872SOL    HW2 3533   0.017   4.128   0.539 -1.8012 -0.3732 -1.8524
  872SOL    HW3 3534  -0.093   4.231   0.551 -0.1306  1.4644 -2.2186
  872SOL    MW4 3535  -0.008   4.210   0.548 -0.4252 -0.0720 -0.6307
  873SOL     OW 3536   2.928   0.748   1.579  0.1630 -0.0347 -0.4011
  873SOL    HW2 3537   2.858   0.810   1.562  0.5265  0.2711 -0.7966
  873SOL    HW3 3538   2.913   0.719   1.669 -0.1379  0.4573 -0.2901
  873SOL    MW4 3539   2.917   0.752   1.589  0.1712  0.0705 -0.4386
  874SOL     OW 3540   2.703   0.877   1.534  0.0954 -0.1594  0.4720
  874SOL    HW2 3541   2.630   0.818   1.553  0.4060 -0.2314  1.4541
  874SOL    HW3 3542   2.718   0.867   1.440 -1.0914 -0.2234  0.2751
  874SOL    MW4 3543   2.695   0.868   1.524 -0.0203 -0.1774  0.5757
  875SOL     OW 3544   2.703   1.122   1.639 -0.6546 -0.1853 -0.5203
  875SOL    HW2 3545   2.692   1.030   1.613  0.1128 -0.2541 -0.6158
  875SOL    HW3 3546   2.634   1.168   1.592 -0.6270 -0.6238 -0.9991
  875SOL    MW4 3547   2.693   1.116   1.629 -0.5498 -0.2521 -0.5960
  876SOL     OW 3548   2.928   1.523   1.611 -0.2650 -0.3035 -0.1568
  876SOL    HW2 3549   2.908   1.438   1.572 -2.1627  0.5576 -1.1103
  876SOL    HW3 3550   2.853   1.578   1.589  1.1329  1.7470  0.1020
  876SOL    MW4 3551   2.915   1.519   1.603 -0.3309  0.0807 -0.2483
  877SOL     OW 3552   0.853   1.812   0.482  0.2843  0.3912  0.3922
  877SOL    HW2 3553   0.910   1.888   0.470 -0.1294  0.7089  0.4163
  877SOL    HW3 3554   0.901   1.739   0.444  0.6375  0.6873  0.2706
  877SOL    MW4 3555   0.867   1.813   0.475  0.2764  0.4723  0.3793
  878SOL     OW 3556   2.690   1.633   1.520 -0.5556 -0.3860  0.1399
  878SOL    HW2 3557   2.692   1.726   1.542  0.2504 -0.1352 -0.8977
  878SOL    HW3 3558   2.684   1.631   1.424  1.3347 -1.3826  0.0164
  878SOL    MW4 3559   2.690   1.645   1.510 -0.2000 -0.4845 -0.0132
  879SOL     OW 3560   2.707   1.926   1.580 -0.0733  0.1520  0.6032
  879SOL    HW2 3561   2.706   1.938   1.675  0.8147  2.1437  0.3862
  879SOL    HW3 3562   2.630   1.973   1.549  1.0305  1.6582  0.1184
  879SOL    MW4 3563   2.696   1.934   1.588  0.1891  0.6136  0.5106
  880SOL     OW 3564   2.938   2.048   1.502  0.4311 -0.5164  0.2627
  880SOL    HW2 3565   2.932   2.140   1.526 -0.9287  0.2333 -2.7639
  880SOL    HW3 3566   2.857   2.009   1.536  1.2859 -0.7829  2.0841
  880SOL    MW4 3567   2.927   2.055   1.510  0.3645 -0.4528  0.1037
  881SOL     OW 3568   2.898   2.307   1.593  0.0060 -0.3841 -0.0711
  881SOL    HW2 3569   2.828   2.365   1.564 -0.8058 -0.8595  0.8726
  881SOL    HW3 3570   2.888   2.304   1.689  1.1446 -0.6715  0.0440
  881SOL    MW4 3571   2.887   2.314   1.602  0.0494 -0.4849  0.0685
  882SOL     OW 3572   2.708   2.492   1.480  0.2727  0.1274 -0.1584
  882SOL    HW2 3573   2.709   2.566   1.541  0.6605 -1.1601  1.4641
  882SOL    HW3 3574   2.624   2.449   1.497  0.1318  0.0904 -0.9534
  882SOL    MW4 3575   2.697   2.496   1.491  0.3054 -0.0474 -0.0494
  883SOL     OW 3576   2.699   2.730   1.618 -0.1606 -0.3924  0.3488
  883SOL    HW2 3577   2.770   2.746   1.556 -0.3162  0.5438  0.4097
  883SOL    HW3 3578   2.620   2.760   1.574 -0.3252 -0.0745  0.8552
  883SOL    MW4 3579   2.698   2.736   1.604 -0.2029 -0.2270  0.4236
  884SOL     OW 3580   2.927   2.825   1.456 -0.1629  0.3954  0.5751
  884SOL    HW2 3581   3.015   2.792   1.476  0.7911  1.5300 -1.5922
  884SOL    HW3 3582   2.914   2.897   1.518 -0.1481 -0.6444  1.8202
  884SOL    MW4 3583   2.937   2.830   1.467 -0.0350  0.4079  0.4536
  885SOL     OW 3584   2.891   3.056   1.605 -0.0877  0.1909  0.2737
  885SOL    HW2 3585   2.907   3.054   1.699 -0.2385 -2.1746  0.2557
  885SOL    HW3 3586   2.967   3.103   1.569  2.0048 -2.3853  1.1717
  885SOL    MW4 3587   2.903   3.062   1.612  0.1686 -0.4611  0.3897
  886SOL     OW 3588   2.697   3.230   1.505  0.5747 -0.0988 -0.6247
  886SOL    HW2 3589   2.687   3.224   1.410  0.7864 -0.5840 -0.6199
  886SOL    HW3 3590   2.767   3.167   1.526 -0.4008 -0.9880  0.0133
  886SOL    MW4 3591   2.705   3.220   1.495  0.4737 -0.2801 -0.5399
  887SOL     OW 3592   2.644   3.486   1.587 -0.4526 -0.3182 -0.1235
  887SOL    HW2 3593   2.671   3.496   1.678 -0.3948  1.1868 -0.2973
  887SOL    HW3 3594   2.651   3.392   1.570  0.2342 -0.5157  1.2033
  887SOL    MW4 3595   2.648   3.475   1.596 -0.3543 -0.1459  0.0286
  888SOL     OW 3596   0.487   3.177   0.376  0.0766 -0.4985  0.5599
  888SOL    HW2 3597   0.512   3.161   0.467 -1.3927 -1.3168  0.8262
  888SOL    HW3 3598   0.428   3.105   0.353 -0.0535  0.0300 -0.8521
  888SOL    MW4 3599   0.482   3.165   0.385 -0.1345 -0.5364  0.4087
  889SOL     OW 3600   3.036   2.538   0.500 -0.1123 -0.2872 -0.0829
  889SOL    HW2 3601   3.011   2.572   0.414  2.0003 -0.2940 -0.7405
  889SOL    HW3 3602   3.046   2.444   0.486 -1.7827 -0.5854  0.6868
  889SOL    MW4 3603   3.034   2.530   0.486 -0.0539 -0.3276 -0.0681
  890SOL     OW 3604   2.922   3.832   1.644  0.2149 -0.2454  0.5109
  890SOL    HW2 3605   2.851   3.885   1.608  0.0127 -0.6098  0.3668
  890SOL    HW3 3606   2.915   3.748   1.597 -0.7407 -1.1309  2.1862
  890SOL    MW4 3607   2.912   3.828   1.633  0.0622 -0.4101  0.7130
  891SOL     OW 3608   2.715   4.226   1.612  0.1659 -0.0116 -0.2160
  891SOL    HW2 3609   2.789   4.270   1.571  0.7849  1.2183  2.1203
  891SOL    HW3 3610   2.639   4.281   1.592  0.1027 -0.5194 -1.4174
  891SOL    MW4 3611   2.715   4.239   1.604  0.2394  0.0839 -0.0664
  892SOL     OW 3612   2.893   4.382   1.486 -0.0568 -0.1729 -0.2454
  892SOL    HW2 3613   2.882   4.466   1.531  0.9169 -0.4437  0.5345
  892SOL    HW3 3614   2.894   4.404   1.393  0.6193  0.7446 -0.0300
  892SOL    MW4 3615   2.892   4.396   1.480  0.1607 -0.0873 -0.1141
  893SOL     OW 3616   3.370   0.032   1.625  0.2095  0.5781 -0.1735
  893SOL    HW2 3617   3.436   0.082   1.577  2.2105 -1.6589  0.1627
  893SOL    HW3 3618   3.367  -0.053   1.580 -0.9095 -0.0769  1.1083
  893SOL    MW4 3619   3.378   0.027   1.612  0.3259  0.1965  0.0399
  894SOL     OW 3620   3.125   0.133   1.528 -0.0139 -0.0141 -0.6168
  894SOL    HW2 3621   3.210   0.106   1.562 -0.0975 -0.6961 -0.9421
  894SOL    HW3 3622   3.063   0.071   1.567 -0.8160  2.4486  2.2788
  894SOL    MW4 3623   3.128   0.121   1.538 -0.1309  0.2209 -0.2776
  895SOL     OW 3624   3.164   0.390   1.605 -0.2224 -0.4796  0.4207
  895SOL    HW2 3625   3.153   0.303   1.566 -2.2280 -0.3389  0.6268
  895SOL    HW3 3626   3.099   0.444   1.561  0.7260  0.8225  0.6042
  895SOL    MW4 3627   3.154   0.385   1.594 -0.3617 -0.2893  0.4721
  896SOL     OW 3628   3.390   0.499   1.490  0.9664  0.7059  0.1931
  896SOL    HW2 3629   3.326   0.442   1.532  2.4340 -0.7092  0.5559
  896SOL    HW3 3630   3.364   0.499   1.397 -0.4993  1.4490  0.5872
  896SOL    MW4 3631   3.378   0.491   1.483  0.9668  0.6172  0.2929
  897SOL     OW 3632   3.392   0.767   1.619 -0.0950 -0.0140  0.0155
  897SOL    HW2 3633   3.384   0.751   1.713  0.3648 -1.4576 -0.1819
  897SOL    HW3 3634   3.386   0.681   1.579  2.1088  0.3066 -1.1061
  897SOL    MW4 3635   3.390   0.754   1.626  0.2565 -0.1623 -0.1584
  898SOL     OW 3636   3.186   0.908   1.518  0.1998  0.0464  0.3143
  898SOL    HW2 3637   3.253   0.853   1.559  0.2754  0.0019  0.1297
  898SOL    HW3 3638   3.104   0.864   1.537  0.3753 -0.9299 -1.1085
  898SOL    MW4 3639   3.184   0.895   1.526  0.2332 -0.0883  0.1022
  899SOL     OW 3640   3.170   1.188   1.570  0.3600 -0.0751  0.2664
  899SOL    HW2 3641   3.147   1.198   1.662 -0.0764  0.5243  0.0920
  899SOL    HW3 3642   3.199   1.097   1.563  1.7082  0.2612  1.2822
  899SOL    MW4 3643   3.171   1.177   1.581  0.4804  0.0484  0.3773
  900SOL     OW 3644   3.394   1.319   1.478  0.4919  0.1214  0.0887
  900SOL    HW2 3645   3.462   1.260   1.510  1.6562 -0.2339 -2.8581
  900SOL    HW3 3646   3.312   1.279   1.506  1.2762 -2.8715 -1.7098
  900SOL    MW4 3647   3.392   1.306   1.486  0.7489 -0.3204 -0.5374
  901SOL     OW 3648   3.349   1.565   1.604  0.2744  0.0720  0.1041
  901SOL    HW2 3649   3.352   1.569   1.700  2.4859  0.1089  0.0473
  901SOL    HW3 3650   3.377   1.476   1.583  1.1496  0.4910 -0.5456
  901SOL    MW4 3651   3.353   1.554   1.614  0.6814  0.1322  0.0108
  902SOL     OW 3652   3.136   1.667   1.491  0.2443  0.6852  0.1033
  902SOL    HW2 3653   3.221   1.636   1.520  0.2649 -0.1084 -0.7896
  902SOL    HW3 3654   3.073   1.610   1.534  0.0984  1.8699  1.5229
  902SOL    MW4 3655   3.139   1.656   1.501  0.2279  0.7370  0.1727
  903SOL     OW 3656   3.162   1.917   1.594 -0.3217  0.2506  0.0281
  903SOL    HW2 3657   3.157   1.829   1.556  1.0478 -0.0335  0.4733
  903SOL    HW3 3658   3.101   1.969   1.542 -0.6802 -0.8263 -0.6420
  903SOL    MW4 3659   3.153   1.912   1.582 -0.1884  0.0709 -0.0017
  904SOL     OW 3660   3.429   1.978   1.546  0.2900  0.2069 -0.3180
  904SOL    HW2 3661   3.342   1.950   1.573 -0.1946  0.1787 -1.8597
  904SOL    HW3 3662   3.430   1.966   1.451  1.7394  0.8471 -0.4026
  904SOL    MW4 3663   3.418   1.973   1.537  0.4172  0.2875 -0.5327
  905SOL     OW 3664   3.352   2.278   1.557  0.1820 -0.2089 -0.0186
  905SOL    HW2 3665   3.429   2.331   1.536 -0.1865  0.2122 -0.3295
  905SOL    HW3 3666   3.382   2.187   1.552  0.3826 -0.0742 -1.2565
  905SOL    MW4 3667   3.366   2.273   1.554  0.1597 -0.1359 -0.2230
  906SOL     OW 3668   3.111   2.423   1.449  0.2439 -0.9846  0.4622
  906SOL    HW2 3669   3.176   2.353   1.456 -0.4467 -1.4654  2.1749
  906SOL    HW3 3670   3.031   2.385   1.486 -0.6833  0.0407 -0.4437
  906SOL    MW4 3671   3.109   2.408   1.455  0.0305 -0.9127  0.5686
  907SOL     OW 3672   3.178   2.658   1.574 -0.1139 -0.6166  0.3239
  907SOL    HW2 3673   3.262   2.690   1.540 -0.5064  0.8143  0.6712
  907SOL    HW3 3674   3.158   2.581   1.520 -0.1238  0.9004 -1.9126
  907SOL    MW4 3675   3.186   2.652   1.562 -0.1671 -0.2279  0.0746
  908SOL     OW 3676   3.399   2.801   1.441  0.3780  0.1353 -0.3671
  908SOL    HW2 3677   3.381   2.887   1.480 -0.9586 -0.0885 -0.4531
  908SOL    HW3 3678   3.397   2.818   1.346 -0.0518 -0.0122 -0.3867
  908SOL    MW4 3679   3.396   2.815   1.433  0.1447  0.0865 -0.3811
  909SOL     OW 3680   3.383   3.088   1.575  0.2381  0.2350  0.4937
  909SOL    HW2 3681   3.393   3.104   1.669 -0.2460 -0.4960  0.6717
  909SOL    HW3 3682   3.446   3.147   1.534  1.5149 -0.5202  1.3425
  909SOL    MW4 3683   3.392   3.098   1.582  0.3426  0.0389  0.6293
  910SOL     OW 3684   3.112   3.179   1.504 -0.3720  0.3109 -0.2675
  910SOL    HW2 3685   3.205   3.158   1.518 -0.3457  0.6401  0.0467
  910SOL    HW3 3686   3.106   3.197   1.410 -0.2903 -0.5809 -0.4498
  910SOL    MW4 3687   3.124   3.179   1.494 -0.3576  0.2365 -0.2502
  911SOL     OW 3688   3.129   3.435   1.607 -0.1875  0.0290 -0.8985
  911SOL    HW2 3689   3.117   3.343   1.581 -0.2045 -0.1123 -0.3902
  911SOL    HW3 3690   3.049   3.478   1.576 -0.6466 -0.3278 -0.2260
  911SOL    MW4 3691   3.117   3.428   1.599 -0.2503 -0.0365 -0.7427
  912SOL     OW 3692   3.348   3.607   1.529 -0.0998  0.0782  0.4712
  912SOL    HW2 3693   3.421   3.547   1.541 -0.3541 -0.1124  1.0982
  912SOL    HW3 3694   3.271   3.558   1.558 -0.3946  0.4957  0.4116
  912SOL    MW4 3695   3.347   3.593   1.534 -0.1721  0.1082  0.5461
  913SOL     OW 3696   3.360   3.883   1.618  0.8249  0.4025 -0.3176
  913SOL    HW2 3697   3.279   3.911   1.573 -0.4456  0.4495  1.9298
  913SOL    HW3 3698   3.357   3.788   1.614  1.4952  0.4234 -1.6398
  913SOL    MW4 3699   3.349   3.874   1.611  0.7458  0.4115 -0.1955
  914SOL     OW 3700   2.904   3.578   1.518  0.2862 -0.1039  0.1099
  914SOL    HW2 3701   2.825   3.528   1.536  1.1348 -1.5203 -0.0545
  914SOL    HW3 3702   2.896   3.603   1.426  0.6784 -1.4294 -0.2901
  914SOL    MW4 3703   2.892   3.575   1.508  0.4499 -0.4656  0.0353
  915SOL     OW 3704   3.156   4.269   1.566  0.4710  0.2995  0.0582
  915SOL    HW2 3705   3.155   4.261   1.662 -3.2699 -2.1934 -0.0539
  915SOL    HW3 3706   3.071   4.308   1.545  0.3033 -1.2728 -2.3321
  915SOL    MW4 3707   3.144   4.273   1.576 -0.0446 -0.2365 -0.2720
  916SOL     OW 3708   3.390   4.446   1.532  0.2487 -0.3755  0.3284
  916SOL    HW2 3709   3.372   4.434   1.439  0.7395 -1.2613  0.3390
  916SOL    HW3 3710   3.327   4.390   1.576 -0.5702  0.7248  0.5670
  916SOL    MW4 3711   3.380   4.437   1.526  0.2053 -0.3476  0.3613
  917SOL     OW 3712   3.594   0.153   1.511 -0.4461  0.3001 -0.4791
  917SOL    HW2 3713   3.606   0.179   1.420  0.0878  0.0351 -0.4885
  917SOL    HW3 3714   3.663   0.089   1.527 -0.7027  0.1465  0.0351
  917SOL    MW4 3715   3.605   0.148   1.501 -0.4096  0.2449 -0.4125
  918SOL     OW 3716   3.316   0.515   1.235  0.6553 -0.0166  0.3694
  918SOL    HW2 3717   3.300   0.609   1.230 -0.7357 -0.3053 -0.9208
  918SOL    HW3 3718   3.245   0.475   1.184  0.5452 -1.8309  1.8654
  918SOL    MW4 3719   3.305   0.522   1.228  0.4573 -0.2940  0.3967
  919SOL     OW 3720   3.604   0.406   1.637  0.0973 -0.5717  0.4353
  919SOL    HW2 3721   3.594   0.317   1.604 -1.1951  0.2007 -1.3775
  919SOL    HW3 3722   3.541   0.457   1.586  0.6265  1.3285  1.6358
  919SOL    MW4 3723   3.594   0.401   1.626 -0.0033 -0.2191  0.3546
  920SOL     OW 3724   3.826   0.554   1.544  0.2998  0.0151  0.2146
  920SOL    HW2 3725   3.745   0.510   1.568  0.4895  0.4648  1.7527
  920SOL    HW3 3726   3.817   0.573   1.451 -1.4290  0.1995  0.4063
  920SOL    MW4 3727   3.814   0.551   1.535  0.0970  0.0987  0.4427
  921SOL     OW 3728   3.867   0.794   1.686 -0.1152  0.2833 -0.3452
  921SOL    HW2 3729   3.796   0.836   1.638 -2.6245  0.4743  3.3408
  921SOL    HW3 3730   3.869   0.704   1.653 -1.9770  0.3272 -0.6173
  921SOL    MW4 3731   3.858   0.787   1.676 -0.6919  0.3143  0.1053
  922SOL     OW 3732   3.646   0.900   1.546  0.3281  0.1561  0.2837
  922SOL    HW2 3733   3.559   0.866   1.568  0.2095  0.1858 -0.1308
  922SOL    HW3 3734   3.651   0.893   1.451  0.4743  0.9102  0.2368
  922SOL    MW4 3735   3.635   0.894   1.537  0.3316  0.2596  0.2229
  923SOL     OW 3736   3.590   1.157   1.566 -0.4313 -0.0642 -0.3082
  923SOL    HW2 3737   3.657   1.183   1.502 -0.7810  0.9129 -0.2865
  923SOL    HW3 3738   3.592   1.061   1.566  0.7239 -0.0446 -0.5691
  923SOL    MW4 3739   3.599   1.148   1.558 -0.3247  0.0674 -0.3399
  924SOL     OW 3740   3.788   1.188   1.384 -0.3897  0.5550  0.7599
  924SOL    HW2 3741   3.872   1.180   1.429 -0.5568 -1.1757  0.8270
  924SOL    HW3 3742   3.796   1.266   1.329  0.9414  0.8887  1.4243
  924SOL    MW4 3743   3.800   1.197   1.383 -0.2360  0.3706  0.8564
  925SOL     OW 3744   4.000   1.614   1.463 -0.4101  0.0763  0.4214
  925SOL    HW2 3745   4.083   1.600   1.509 -0.5779 -0.9595  0.4299
  925SOL    HW3 3746   3.935   1.569   1.517 -0.3027 -2.9652 -1.8307
  925SOL    MW4 3747   4.002   1.606   1.476 -0.4177 -0.4616  0.1254
  926SOL     OW 3748   3.592   1.676   1.495 -0.3790 -0.2138 -0.6996
  926SOL    HW2 3749   3.507   1.638   1.519 -0.4869  1.4170  1.7280
  926SOL    HW3 3750   3.605   1.746   1.559  3.3867 -1.2633 -0.2329
  926SOL    MW4 3751   3.582   1.680   1.507  0.1035 -0.1371 -0.3177
  927SOL     OW 3752   3.650   1.873   1.688  0.0480  0.3487 -0.6233
  927SOL    HW2 3753   3.680   1.936   1.752 -1.5510 -0.9272  1.4450
  927SOL    HW3 3754   3.566   1.908   1.656  0.7192  0.8607 -1.8777
  927SOL    MW4 3755   3.643   1.886   1.692 -0.0741  0.2478 -0.5159
  928SOL     OW 3756   3.845   2.000   1.494  0.1324  0.2323 -0.3696
  928SOL    HW2 3757   3.789   1.947   1.550 -0.0814  1.1771  0.3075
  928SOL    HW3 3758   3.826   2.090   1.518  2.0433  0.5601 -0.0386
  928SOL    MW4 3759   3.835   2.005   1.504  0.3562  0.4001 -0.2365
  929SOL     OW 3760   3.783   2.264   1.579  0.4987  0.3279 -0.1271
  929SOL    HW2 3761   3.773   2.283   1.672  3.0266 -2.1669  0.7541
  929SOL    HW3 3762   3.864   2.308   1.554  2.0559 -2.3911 -0.0578
  929SOL    MW4 3763   3.792   2.272   1.588  1.0374 -0.3603 -0.0017
  930SOL     OW 3764   3.566   2.416   1.448  0.0081 -0.0237 -0.1949
  930SOL    HW2 3765   3.587   2.509   1.456 -1.2046  0.0510  2.3835
  930SOL    HW3 3766   3.648   2.372   1.472  0.8111  0.3395 -2.1390
  930SOL    MW4 3767   3.580   2.422   1.452 -0.0460  0.0339 -0.1112
  931SOL     OW 3768   3.606   2.669   1.560 -0.1829  0.1854 -0.0359
  931SOL    HW2 3769   3.591   2.673   1.654  1.3700 -1.0223  0.2884
  931SOL    HW3 3770   3.530   2.713   1.521 -0.4915  1.2951  1.7888
  931SOL    MW4 3771   3.594   2.675   1.567 -0.0188  0.1724  0.2476
  932SOL     OW 3772   3.827   2.798   1.461  0.2110 -0.1828 -0.1989
  932SOL    HW2 3773   3.896   2.753   1.511 -0.3174 -1.4221 -0.5675
  932SOL    HW3 3774   3.746   2.759   1.492 -0.2586  0.5886 -0.4682
  932SOL    MW4 3775   3.826   2.787   1.472  0.0794 -0.2446 -0.2830
  933SOL     OW 3776   3.804   3.063   1.578  0.0649 -0.1329 -0.3441
  933SOL    HW2 3777   3.833   2.979   1.542 -0.4474 -0.1459 -0.7319
  933SOL    HW3 3778   3.873   3.125   1.556  0.5058 -0.4802  0.0552
  933SOL    MW4 3779   3.817   3.060   1.570  0.0556 -0.1805 -0.3426
  934SOL     OW 3780   3.607   3.215   1.447  0.2512  0.0336 -0.2971
  934SOL    HW2 3781   3.666   3.150   1.487 -1.4784 -1.2904  0.1476
  934SOL    HW3 3782   3.611   3.196   1.353 -0.4534 -0.9131 -0.1446
  934SOL    MW4 3783   3.616   3.204   1.440 -0.0701 -0.2661 -0.2183
  935SOL     OW 3784   3.605   3.479   1.560 -0.4514 -0.0355 -0.3672
  935SOL    HW2 3785   3.677   3.539   1.540 -2.1009  1.4941 -1.9124
  935SOL    HW3 3786   3.632   3.395   1.524  0.9503  0.2996 -0.1147
  935SOL    MW4 3787   3.618   3.476   1.553 -0.4842  0.2103 -0.5378
  936SOL     OW 3788   3.825   3.622   1.502 -0.1505  0.0255  0.6462
  936SOL    HW2 3789   3.897   3.574   1.543  1.0052  0.0173 -1.3500
  936SOL    HW3 3790   3.838   3.713   1.531  1.2057  0.1840 -0.4165
  936SOL    MW4 3791   3.836   3.628   1.512  0.1812  0.0455  0.2425
  937SOL     OW 3792   3.799   3.887   1.571 -0.3734  0.6229 -0.8164
  937SOL    HW2 3793   3.880   3.927   1.539 -0.5911 -0.7832 -3.2383
  937SOL    HW3 3794   3.729   3.939   1.531 -0.6813  0.9854  0.1747
  937SOL    MW4 3795   3.801   3.899   1.561 -0.4425  0.4852 -1.0052
  938SOL     OW 3796   3.575   4.003   1.497 -0.3386 -0.2966  0.3384
  938SOL    HW2 3797   3.564   4.089   1.538 -0.9577  0.6050 -1.6711
  938SOL    HW3 3798   3.503   3.950   1.532 -0.7740  0.4205  0.5383
  938SOL    MW4 3799   3.564   4.008   1.507 -0.4776 -0.0834  0.0997
  939SOL     OW 3800   3.576   4.253   1.595  0.4437  0.2728 -0.2244
  939SOL    HW2 3801   3.588   4.255   1.690 -2.0464 -0.7679  0.1294
  939SOL    HW3 3802   3.521   4.328   1.577 -2.0847 -1.5713 -0.3712
  939SOL    MW4 3803   3.571   4.263   1.606 -0.2186 -0.1082 -0.1971
  940SOL     OW 3804   3.790   4.638   1.583  0.1301 -0.0348 -0.1875
  940SOL    HW2 3805   3.796   4.618   1.676  0.9103 -0.6954 -0.3794
  940SOL    HW3 3806   3.783   4.553   1.540  0.7439  0.2144 -0.7998
  940SOL    MW4 3807   3.790   4.624   1.590  0.3138 -0.0892 -0.2935
  941SOL     OW 3808   4.232   4.648   1.608 -0.0565 -0.5383 -0.0077
  941SOL    HW2 3809   4.196   4.659   1.696 -0.0003 -1.5631  0.1492
  941SOL    HW3 3810   4.159   4.670   1.550  0.4945  2.1360  0.2498
  941SOL    MW4 3811   4.217   4.653   1.612  0.0234 -0.3206  0.0470
  942SOL     OW 3812   4.012   0.097   1.496 -0.1437 -0.5451 -0.0146
  942SOL    HW2 3813   4.007   0.188   1.526 -2.4073 -0.4417 -0.6076
  942SOL    HW3 3814   3.946   0.051   1.549  0.1910 -1.6071 -0.5144
  942SOL    MW4 3815   4.003   0.103   1.507 -0.3977 -0.6716 -0.1587
  943SOL     OW 3816   4.045   0.369   1.551  0.5081  0.3290  0.4002
  943SOL    HW2 3817   4.049   0.368   1.647  0.5704  0.4581  0.3980
  943SOL    HW3 3818   3.978   0.434   1.530  0.5502  0.3572  0.3540
  943SOL    MW4 3819   4.036   0.377   1.561  0.5221  0.3498  0.3940
  944SOL     OW 3820   4.290   0.469   1.452 -0.1222 -0.6356 -0.3441
  944SOL    HW2 3821   4.207   0.427   1.473 -0.2824 -0.1326  0.0217
  944SOL    HW3 3822   4.356   0.412   1.493 -0.3067 -0.8072 -0.2818
  944SOL    MW4 3823   4.288   0.456   1.460 -0.1678 -0.5919 -0.2877
  945SOL     OW 3824   4.281   0.695   1.598 -0.2409  0.1865 -0.0360
  945SOL    HW2 3825   4.275   0.608   1.559 -0.8185 -0.5459  1.6581
  945SOL    HW3 3826   4.348   0.740   1.546  0.6748 -1.5450 -0.3618
  945SOL    MW4 3827   4.289   0.690   1.586 -0.1965 -0.1386  0.1444
  946SOL     OW 3828   4.078   0.837   1.504  0.1407  0.4604 -0.3391
  946SOL    HW2 3829   4.153   0.788   1.539  0.1040  1.0413  0.5800
  946SOL    HW3 3830   4.012   0.832   1.573 -1.1481 -1.1054 -1.6502
  946SOL    MW4 3831   4.080   0.830   1.518 -0.0343  0.3304 -0.3909
  947SOL     OW 3832   4.018   1.103   1.518 -0.1387  0.0352 -0.2186
  947SOL    HW2 3833   4.016   1.112   1.613  2.1532  0.6785 -0.2069
  947SOL    HW3 3834   4.048   1.014   1.503  0.0638  0.1262 -0.3482
  947SOL    MW4 3835   4.022   1.092   1.529  0.1903  0.1321 -0.2342
  948SOL     OW 3836   4.240   1.276   1.471  0.0088 -0.3323 -0.1318
  948SOL    HW2 3837   4.163   1.221   1.484 -0.2512  0.6297  2.7600
  948SOL    HW3 3838   4.314   1.218   1.484 -0.2202 -0.7950 -0.8385
  948SOL    MW4 3839   4.240   1.261   1.474 -0.0558 -0.2666  0.1564
  949SOL     OW 3840   4.258   1.499   1.616 -0.0806 -0.3310 -0.2938
  949SOL    HW2 3841   4.256   1.410   1.581  1.0237 -0.4670 -0.0466
  949SOL    HW3 3842   4.340   1.536   1.583  0.0752  0.1691  0.6247
  949SOL    MW4 3843   4.269   1.492   1.607  0.0854 -0.2830 -0.1402
  950SOL     OW 3844   4.072   1.869   1.559 -0.7142  0.1781  0.5634
  950SOL    HW2 3845   4.066   1.776   1.537  1.4834 -0.1864  1.3520
  950SOL    HW3 3846   3.992   1.908   1.524 -0.8054 -1.6933 -1.3842
  950SOL    MW4 3847   4.061   1.862   1.551 -0.4363 -0.1169  0.4104
  951SOL     OW 3848   1.458   0.978   0.533 -0.2398 -0.4190 -0.6406
  951SOL    HW2 3849   1.492   1.040   0.597  0.5485 -1.3936 -0.1025
  951SOL    HW3 3850   1.534   0.951   0.482 -0.5855 -0.9027 -0.9042
  951SOL    MW4 3851   1.472   0.983   0.535 -0.1813 -0.6114 -0.6044
  952SOL     OW 3852   1.373   0.892   1.212 -0.1376  0.1574  0.1879
  952SOL    HW2 3853   1.296   0.864   1.163  0.6080 -2.0297  0.2167
  952SOL    HW3 3854   1.444   0.837   1.179  1.2427  1.4983  0.8159
  952SOL    MW4 3855   1.372   0.881   1.201  0.1428  0.0458  0.2747
  953SOL     OW 3856   4.262   2.032   1.446 -0.0358  0.4204  0.0910
  953SOL    HW2 3857   4.197   1.972   1.481 -0.1535  0.6084  0.1973
  953SOL    HW3 3858   4.244   2.035   1.352 -0.8296  1.2392  0.2558
  953SOL    MW4 3859   4.251   2.025   1.438 -0.1559  0.5531  0.1267
  954SOL     OW 3860   4.015   2.404   1.499  0.0698  0.1449 -0.4257
  954SOL    HW2 3861   4.104   2.370   1.508  0.2724  0.6960 -0.3076
  954SOL    HW3 3862   4.018   2.490   1.541 -0.4858  0.2209 -0.5379
  954SOL    MW4 3863   4.027   2.411   1.506  0.0229  0.2279 -0.4251
  955SOL     OW 3864   4.020   2.685   1.612 -0.4130 -1.0488  0.1537
  955SOL    HW2 3865   4.024   2.679   1.708 -0.4774  2.5085  0.4387
  955SOL    HW3 3866   4.104   2.721   1.586 -1.2627  0.2034 -0.9073
  955SOL    MW4 3867   4.031   2.689   1.622 -0.5336 -0.4144  0.0514
  956SOL     OW 3868   4.249   2.796   1.505  0.6046 -0.0064 -0.0249
  956SOL    HW2 3869   4.263   2.883   1.543  1.9696  0.4295 -1.4584
  956SOL    HW3 3870   4.262   2.808   1.411  2.2440 -2.0262 -0.1108
  956SOL    MW4 3871   4.253   2.809   1.498  1.0014 -0.2155 -0.2252
  957SOL     OW 3872   4.265   3.074   1.568  0.1675 -0.0286  0.2009
  957SOL    HW2 3873   4.276   3.080   1.663 -0.4661  1.1328  0.2153
  957SOL    HW3 3874   4.345   3.111   1.532  0.3727 -0.3923  0.2819
  957SOL    MW4 3875   4.277   3.080   1.576  0.1111  0.0768  0.2135
  958SOL     OW 3876   4.026   3.224   1.522  0.5020 -0.0769 -0.1249
  958SOL    HW2 3877   4.117   3.197   1.534  0.3453 -1.3095 -1.6116
  958SOL    HW3 3878   4.025   3.317   1.548  1.9768 -0.2869  0.7462
  958SOL    MW4 3879   4.038   3.233   1.527  0.6757 -0.2673 -0.2061
  959SOL     OW 3880   4.041   3.485   1.615 -0.3222 -0.5230 -0.0130
  959SOL    HW2 3881   4.069   3.475   1.706  0.2136 -2.0801 -0.3339
  959SOL    HW3 3882   4.118   3.522   1.571  0.1063 -1.6084 -0.2074
  959SOL    MW4 3883   4.055   3.488   1.621 -0.1950 -0.8719 -0.0811
  960SOL     OW 3884   4.281   3.608   1.512  0.4767 -0.0616  0.1043
  960SOL    HW2 3885   4.255   3.610   1.420  2.2376  0.1869 -0.4206
  960SOL    HW3 3886   4.287   3.701   1.537  0.6590 -0.1178  0.2713
  960SOL    MW4 3887   4.278   3.621   1.503  0.7329 -0.0362  0.0571
  961SOL     OW 3888   4.291   3.889   1.580  0.3127  0.2513  0.1481
  961SOL    HW2 3889   4.209   3.932   1.554  0.9214  0.9498 -0.5931
  961SOL    HW3 3890   4.360   3.951   1.558  1.1969 -1.0723 -0.8883
  961SOL    MW4 3891   4.289   3.903   1.574  0.5093  0.1688 -0.0863
  962SOL     OW 3892   4.026   3.994   1.499  0.0241  0.0110 -0.2032
  962SOL    HW2 3893   4.036   4.079   1.541  0.2175 -0.6187  1.0201
  962SOL    HW3 3894   4.022   4.015   1.405 -1.3394  1.4870  0.1600
  962SOL    MW4 3895   4.027   4.008   1.492 -0.1297  0.1225  0.0062
  963SOL     OW 3896   4.044   4.260   1.611  0.8742  0.1042  0.2231
  963SOL    HW2 3897   4.024   4.255   1.704  0.1801 -1.0619  0.0222
  963SOL    HW3 3898   3.968   4.305   1.573  0.0983 -1.4188 -0.0796
  963SOL    MW4 3899   4.031   4.265   1.618  0.6804 -0.2503  0.1566
  964SOL     OW 3900   4.267   4.372   1.503 -0.3430 -0.1663 -0.3724
  964SOL    HW2 3901   4.191   4.336   1.550  0.7901 -1.3559  0.5919
  964SOL    HW3 3902   4.275   4.461   1.536 -1.2020 -0.0914 -0.3399
  964SOL    MW4 3903   4.258   4.379   1.514 -0.3066 -0.3133 -0.2408
  965SOL     OW 3904   0.192   4.624   1.879 -0.1875  0.6800 -0.3395
  965SOL    HW2 3905   0.266   4.680   1.905  0.1067  0.2762 -0.3030
  965SOL    HW3 3906   0.178   4.644   1.786 -0.5183  1.3055 -0.1568
  965SOL    MW4 3907   0.200   4.634   1.870 -0.1924  0.7091 -0.3107
  966SOL     OW 3908   4.453   0.092   1.970 -0.0420 -0.6368 -0.2766
  966SOL    HW2 3909   4.466   0.181   1.938  1.1085 -0.4917  0.5595
  966SOL    HW3 3910   4.524   0.042   1.929 -0.1892 -0.9947 -0.0912
  966SOL    MW4 3911   4.464   0.097   1.960  0.0906 -0.6649 -0.1417
  967SOL     OW 3912   0.006   0.339   1.833  0.1055 -0.0461 -0.2646
  967SOL    HW2 3913  -0.077   0.380   1.855 -0.0464 -0.6003  0.1939
  967SOL    HW3 3914   0.071   0.388   1.883 -0.2619 -1.4574  1.6685
  967SOL    MW4 3915   0.004   0.351   1.842  0.0367 -0.3054  0.0509
  968SOL     OW 3916   0.198   0.511   1.966 -0.1500  0.3712  0.5134
  968SOL    HW2 3917   0.283   0.475   1.941 -1.0539 -0.2258 -1.7791
  968SOL    HW3 3918   0.199   0.601   1.932 -0.1896  0.5874  1.0724
  968SOL    MW4 3919   0.209   0.518   1.959 -0.2745  0.3210  0.2848
  969SOL     OW 3920   0.186   0.765   1.856 -0.4803 -0.2455 -0.2915
  969SOL    HW2 3921   0.276   0.792   1.875 -1.1645  1.4273  0.6641
  969SOL    HW3 3922   0.182   0.763   1.761  0.5750 -0.3385 -0.3439
  969SOL    MW4 3923   0.198   0.768   1.846 -0.4313 -0.0371 -0.1724
  970SOL     OW 3924   4.454   0.880   1.958 -0.1799 -0.2603  0.1129
  970SOL    HW2 3925   4.374   0.834   1.934  0.3778 -0.7632 -0.8301
  970SOL    HW3 3926   4.523   0.832   1.912  0.3909  1.6720 -1.0672
  970SOL    MW4 3927   4.453   0.867   1.949 -0.0310 -0.0718 -0.1671
  971SOL     OW 3928   4.467   1.119   1.818 -0.0038  0.1545 -0.1798
  971SOL    HW2 3929   4.460   1.034   1.862  0.2181 -0.0008 -0.4517
  971SOL    HW3 3930   4.397   1.172   1.859 -0.1418 -0.1541 -0.0124
  971SOL    MW4 3931   4.457   1.115   1.829  0.0072  0.0933 -0.1936
  972SOL     OW 3932   0.218   1.226   1.905  0.3252  0.4861  0.6490
  972SOL    HW2 3933   0.202   1.318   1.884  1.2525  0.6788  0.8045
  972SOL    HW3 3934   0.140   1.181   1.873  0.9746  0.9926 -1.7346
  972SOL    MW4 3935   0.205   1.232   1.898  0.5332  0.5783  0.3550
  973SOL     OW 3936   0.211   1.504   1.830 -0.3407 -0.0256 -0.0149
  973SOL    HW2 3937   0.286   1.533   1.882 -0.3032  0.1141 -0.1483
  973SOL    HW3 3938   0.135   1.545   1.872 -0.4384 -0.8673  0.6524
  973SOL    MW4 3939   0.211   1.513   1.842 -0.3486 -0.1183  0.0556
  974SOL     OW 3940   4.252   1.513   1.901 -0.1386 -0.3363  0.0310
  974SOL    HW2 3941   4.267   1.424   1.932  1.0178 -0.2727 -0.3128
  974SOL    HW3 3942   4.231   1.503   1.809 -2.1999 -0.4126  0.4808
  974SOL    MW4 3943   4.252   1.500   1.893 -0.2580 -0.3378  0.0449
  975SOL     OW 3944   0.003   1.639   1.930 -0.8174 -0.3358  0.3330
  975SOL    HW2 3945   0.018   1.639   2.025 -1.0138  0.9639  0.3776
  975SOL    HW3 3946  -0.086   1.605   1.920 -1.1017  0.2962  0.6747
  975SOL    MW4 3947  -0.007   1.634   1.942 -0.8809 -0.0809  0.3841
  976SOL     OW 3948   0.236   2.014   1.949  0.1647  0.0606 -0.3447
  976SOL    HW2 3949   0.243   2.107   1.928 -1.3841  0.5577  1.1969
  976SOL    HW3 3950   0.148   1.989   1.919 -0.7401 -0.0530  2.2305
  976SOL    MW4 3951   0.225   2.023   1.942 -0.1590  0.1109  0.1985
  977SOL     OW 3952   0.236   2.276   1.866  0.2461  0.5090 -0.0390
  977SOL    HW2 3953   0.303   2.316   1.922  0.4249 -0.4894  0.4682
  977SOL    HW3 3954   0.153   2.304   1.904  0.3686 -0.0430  0.6452
  977SOL    MW4 3955   0.234   2.285   1.878  0.2859  0.3045  0.1183
  978SOL     OW 3956   4.487   2.403   1.949  0.0182  1.0763  0.4678
  978SOL    HW2 3957   4.495   2.392   2.044 -1.3808  0.7348  0.5622
  978SOL    HW3 3958   4.483   2.498   1.936  0.5758  1.1340  0.7184
  978SOL    MW4 3959   4.487   2.414   1.960 -0.0928  1.0388  0.5132
  979SOL     OW 3960   0.023   2.684   1.861 -0.2519  0.3127  0.1644
  979SOL    HW2 3961  -0.052   2.732   1.895 -0.6603 -0.4884  0.3975
  979SOL    HW3 3962   0.012   2.686   1.766  0.5207  1.9541  0.0968
  979SOL    MW4 3963   0.012   2.690   1.853 -0.2036  0.4237  0.1863
  980SOL     OW 3964   0.244   2.798   1.964  0.5078  0.1925 -0.1212
  980SOL    HW2 3965   0.255   2.877   1.911  2.0484 -0.2328 -0.4789
  980SOL    HW3 3966   0.160   2.761   1.937 -0.3643  1.8544  0.2606
  980SOL    MW4 3967   0.235   2.803   1.953  0.5960  0.3557 -0.1180
  981SOL     OW 3968   0.284   3.034   1.835  0.1505 -0.0804  0.3357
  981SOL    HW2 3969   0.346   3.084   1.889 -0.9523  0.7988  0.8024
  981SOL    HW3 3970   0.300   3.065   1.746  0.1491  0.3881  0.4968
  981SOL    MW4 3971   0.294   3.044   1.830  0.0048  0.0975  0.4185
  982SOL     OW 3972   0.063   3.183   1.925 -0.1016  0.2372 -0.0228
  982SOL    HW2 3973  -0.011   3.129   1.897  0.7901 -0.8847 -0.2684
  982SOL    HW3 3974   0.140   3.131   1.902  0.7233  0.5224  1.9810
  982SOL    MW4 3975   0.063   3.169   1.919  0.1249  0.1268  0.2091
  983SOL     OW 3976   0.051   3.456   1.822 -0.5119  0.6132  0.2577
  983SOL    HW2 3977   0.128   3.490   1.867 -0.5537  1.5161 -0.3254
  983SOL    HW3 3978   0.046   3.364   1.848  0.8185  0.5194  0.2209
  983SOL    MW4 3979   0.060   3.449   1.831 -0.3419  0.7198  0.1758
  984SOL     OW 3980   0.247   3.597   1.945 -0.0448  0.4016  0.4900
  984SOL    HW2 3981   0.251   3.597   2.041 -0.2093  0.7895  0.4965
  984SOL    HW3 3982   0.323   3.544   1.919 -0.5314 -0.4847  0.8519
  984SOL    MW4 3983   0.258   3.590   1.954 -0.1307  0.3359  0.5386
  985SOL     OW 3984   0.221   3.875   1.922  0.3731 -0.0325  0.3152
  985SOL    HW2 3985   0.310   3.900   1.943  1.1833 -1.4647 -1.3219
  985SOL    HW3 3986   0.221   3.779   1.926 -1.3124 -0.0334  1.1313
  985SOL    MW4 3987   0.232   3.866   1.926  0.2576 -0.2215  0.2069
  986SOL     OW 3988   4.461   3.996   2.011  0.1581 -0.0273 -0.0452
  986SOL    HW2 3989   4.480   4.078   1.966  1.8117  0.0370  0.7294
  986SOL    HW3 3990   4.533   3.938   1.986  0.0842 -0.5928  1.0250
  986SOL    MW4 3991   4.473   3.999   2.002  0.3657 -0.0932  0.1984
  987SOL     OW 3992   0.013   4.259   1.895  0.4129 -0.0283  0.2714
  987SOL    HW2 3993  -0.059   4.316   1.921  0.6681 -0.3557  1.7842
  987SOL    HW3 3994   0.089   4.295   1.941  0.6131 -1.4491  1.1052
  987SOL    MW4 3995   0.014   4.271   1.905  0.4735 -0.2594  0.5810
  988SOL     OW 3996   0.246   4.377   2.005 -0.0330  0.1413  0.1531
  988SOL    HW2 3997   0.262   4.389   2.098  1.1269  0.4940 -0.0813
  988SOL    HW3 3998   0.226   4.465   1.973  1.6752  0.3802 -0.3092
  988SOL    MW4 3999   0.245   4.390   2.013  0.3455  0.2198  0.0610
  989SOL     OW 4000   0.637   0.017   1.927 -0.1546  0.0582 -0.0188
  989SOL    HW2 4001   0.630  -0.073   1.959 -0.0724 -0.4251 -1.3088
  989SOL    HW3 4002   0.639   0.008   1.831  1.1849  1.3351 -0.1344
  989SOL    MW4 4003   0.636   0.004   1.918  0.0330  0.1629 -0.2043
  990SOL     OW 4004   0.397   0.128   1.968  0.5098  0.0335 -0.3997
  990SOL    HW2 4005   0.381   0.212   1.925  0.3246  0.5114  0.6009
  990SOL    HW3 4006   0.491   0.113   1.955  0.8271  1.0773  0.6259
  990SOL    MW4 4007   0.408   0.137   1.960  0.5272  0.2342 -0.1323
  991SOL     OW 4008   0.417   0.381   1.869  0.3992  0.5435  0.1797
  991SOL    HW2 4009   0.500   0.409   1.908  0.1940  0.4135  0.7150
  991SOL    HW3 4010   0.428   0.398   1.775  0.8344  1.0130  0.3102
  991SOL    MW4 4011   0.429   0.387   1.862  0.4295  0.5883  0.2675
  992SOL     OW 4012   0.662   0.467   1.983 -0.0524 -0.0903 -0.3686
  992SOL    HW2 4013   0.671   0.446   2.076 -0.0337  0.8281 -0.1579
  992SOL    HW3 4014   0.743   0.435   1.943 -0.8398 -2.1166 -0.3817
  992SOL    MW4 4015   0.674   0.460   1.990 -0.1538 -0.2365 -0.3426
  993SOL     OW 4016   0.678   0.712   1.863  0.0485  0.8295 -0.0899
  993SOL    HW2 4017   0.749   0.766   1.900  1.5123 -0.7293 -0.5512
  993SOL    HW3 4018   0.682   0.630   1.912 -1.1997  0.5944 -0.3760
  993SOL    MW4 4019   0.688   0.708   1.874  0.0769  0.5928 -0.1885
  994SOL     OW 4020   0.440   0.836   1.933  0.0380  0.0178  0.3174
  994SOL    HW2 4021   0.455   0.927   1.908 -1.2591 -0.0072 -0.5968
  994SOL    HW3 4022   0.518   0.789   1.902 -0.4237  0.4006 -1.4405
  994SOL    MW4 4023   0.453   0.842   1.926 -0.1940  0.0650 -0.0350
  995SOL     OW 4024   0.456   1.109   1.843 -0.3286  0.1075  0.2082
  995SOL    HW2 4025   0.378   1.156   1.873  0.1112  1.9452 -1.4259
  995SOL    HW3 4026   0.441   1.097   1.749  0.7724 -0.6885  0.1369
  995SOL    MW4 4027   0.443   1.114   1.835 -0.1253  0.2450 -0.0169
  996SOL     OW 4028   0.682   1.256   1.959  0.3477 -0.1547 -0.5919
  996SOL    HW2 4029   0.671   1.259   2.054  0.4946  1.4504 -0.6120
  996SOL    HW3 4030   0.606   1.206   1.927  0.1808 -0.5031  0.3467
  996SOL    MW4 4031   0.670   1.250   1.967  0.3451  0.0112 -0.4706
  997SOL     OW 4032   0.727   1.513   1.887 -0.5395 -0.2230 -0.4664
  997SOL    HW2 4033   0.712   1.421   1.905  0.5235 -0.3735 -0.3296
  997SOL    HW3 4034   0.712   1.522   1.793 -1.3254 -0.3951 -0.3567
  997SOL    MW4 4035   0.723   1.502   1.877 -0.5029 -0.2656 -0.4338
  998SOL     OW 4036   0.460   1.582   1.956  0.6883  0.1390  0.0833
  998SOL    HW2 4037   0.438   1.597   2.047 -0.0446  0.6691 -0.1831
  998SOL    HW3 4038   0.546   1.539   1.959  0.9483  0.7122  0.9891
  998SOL    MW4 4039   0.468   1.578   1.968  0.6259  0.2847  0.1676
  999SOL     OW 4040   0.453   1.869   1.856  0.2610 -0.0024  0.1612
  999SOL    HW2 4041   0.431   1.780   1.882  0.1643  0.1092  0.4630
  999SOL    HW3 4042   0.382   1.923   1.891  0.6885  0.2825  0.5979
  999SOL    MW4 4043   0.441   1.865   1.864  0.3046  0.0498  0.2588
 1000SOL     OW 4044   0.663   2.020   1.945 -0.2678 -0.0683  0.3459
 1000SOL    HW2 4045   0.664   2.015   2.040 -0.6763 -0.0124  0.3522
 1000SOL    HW3 4046   0.584   1.972   1.919  0.6444 -1.4070 -0.0436
 1000SOL    MW4 4047   0.653   2.013   1.954 -0.2013 -0.2375  0.2954
 1001SOL     OW 4048   0.710   2.294   1.851 -0.4437  0.2702  0.2906
 1001SOL    HW2 4049   0.703   2.200   1.870  1.9105 -0.0200 -0.1058
 1001SOL    HW3 4050   0.701   2.300   1.756 -1.6992  0.5827  0.4208
 1001SOL    MW4 4051   0.708   2.282   1.841 -0.2987  0.2730  0.2556
 1002SOL     OW 4052   0.454   2.408   1.962 -0.2933  0.7838  0.2920
 1002SOL    HW2 4053   0.461   2.389   2.055 -1.5008  0.3322  0.2978
 1002SOL    HW3 4054   0.538   2.381   1.925 -0.4518 -0.6643  0.9766
 1002SOL    MW4 4055   0.466   2.402   1.969 -0.4736  0.5333  0.3831
 1003SOL     OW 4056   0.485   2.679   1.879  0.2571 -0.1518 -0.2075
 1003SOL    HW2 4057   0.479   2.587   1.903  2.0260 -0.5544 -1.2259
 1003SOL    HW3 4058   0.396   2.713   1.892  0.0368 -1.4843  2.1256
 1003SOL    MW4 4059   0.472   2.672   1.884  0.4614 -0.3808 -0.0339
 1004SOL     OW 4060   0.696   2.839   1.975 -0.1181  0.0291 -0.2399
 1004SOL    HW2 4061   0.701   2.848   2.070  0.5279  2.8318 -0.4927
 1004SOL    HW3 4062   0.616   2.789   1.959 -0.7391  0.3622  1.7271
 1004SOL    MW4 4063   0.686   2.833   1.985 -0.1147  0.4427 -0.0137
 1005SOL     OW 4064   0.696   3.104   1.875 -0.2537 -0.2776  0.0859
 1005SOL    HW2 4065   0.690   3.016   1.911 -1.3582  0.2003  1.1045
 1005SOL    HW3 4066   0.703   3.091   1.781 -2.7408 -1.4029  0.0202
 1005SOL    MW4 4067   0.696   3.091   1.867 -0.7276 -0.3631  0.2116
 1006SOL     OW 4068   0.442   3.192   1.967  0.1957 -0.4255  0.0674
 1006SOL    HW2 4069   0.440   3.285   1.944 -0.4983 -0.1723  1.1233
 1006SOL    HW3 4070   0.531   3.164   1.944  1.5048  1.2973  2.7234
 1006SOL    MW4 4071   0.453   3.201   1.961  0.2768 -0.1650  0.5571
 1007SOL     OW 4072   0.490   3.451   1.870 -0.2144 -0.6422 -0.2562
 1007SOL    HW2 4073   0.558   3.507   1.907 -1.5693  0.9553 -0.1588
 1007SOL    HW3 4074   0.487   3.474   1.777 -0.4688 -0.8782 -0.3075
 1007SOL    MW4 4075   0.499   3.461   1.863 -0.4267 -0.4625 -0.2502
 1008SOL     OW 4076   0.671   3.610   1.989 -0.1783 -0.1994  0.3923
 1008SOL    HW2 4077   0.742   3.558   1.953 -1.0491  0.5067 -2.4342
 1008SOL    HW3 4078   0.692   3.700   1.966 -1.3305  0.1497  0.6497
 1008SOL    MW4 4079   0.683   3.615   1.981 -0.4451 -0.0603  0.0534
 1009SOL     OW 4080   0.706   3.861   1.895  0.3705  0.2821  0.2713
 1009SOL    HW2 4081   0.789   3.904   1.916 -0.3111  2.5018 -1.3564
 1009SOL    HW3 4082   0.704   3.857   1.800 -0.8037 -0.9374  0.3297
 1009SOL    MW4 4083   0.716   3.866   1.885  0.1257  0.4139  0.0641
 1010SOL     OW 4084   0.482   3.967   2.030 -0.0939 -0.2070  0.8101
 1010SOL    HW2 4085   0.464   4.049   1.985 -2.2406 -1.2020 -0.2547
 1010SOL    HW3 4086   0.546   3.922   1.975 -0.0197  0.1101  0.6399
 1010SOL    MW4 4087   0.488   3.972   2.017 -0.3673 -0.2964  0.6471
 1011SOL     OW 4088   0.453   4.231   1.922 -0.0135 -0.3459  0.2540
 1011SOL    HW2 4089   0.376   4.269   1.966  0.2285 -0.3264  0.6616
 1011SOL    HW3 4090   0.526   4.284   1.952  0.2054 -0.5780  0.1301
 1011SOL    MW4 4091   0.452   4.243   1.932  0.0474 -0.3738  0.2915
 1012SOL     OW 4092   0.650   4.415   2.021  0.2425  0.0285  0.0212
 1012SOL    HW2 4093   0.660   4.410   2.116 -0.6484  0.1229  0.1192
 1012SOL    HW3 4094   0.734   4.384   1.987 -0.0317 -1.6714  0.8166
 1012SOL    MW4 4095   0.663   4.410   2.029  0.0888 -0.1831  0.1390
 1013SOL     OW 4096   1.113   4.656   1.903 -0.3489 -0.6234  0.3959
 1013SOL    HW2 4097   1.185   4.713   1.931 -0.2861  0.0454 -1.0475
 1013SOL    HW3 4098   1.119   4.579   1.960  1.2644 -0.3977  0.5594
 1013SOL    MW4 4099   1.124   4.653   1.914 -0.1278 -0.5054  0.2270
 1014SOL     OW 4100   0.886   0.128   1.995 -0.0368 -0.3697 -0.7409
 1014SOL    HW2 4101   0.960   0.080   1.957 -0.9124 -1.2954 -1.3016
 1014SOL    HW3 4102   0.809   0.078   1.969 -0.8396  0.3613  0.1840
 1014SOL    MW4 4103   0.885   0.115   1.987 -0.2583 -0.3954 -0.6930
 1015SOL     OW 4104   0.901   0.370   1.876 -0.0106 -0.0953  0.0110
 1015SOL    HW2 4105   0.983   0.406   1.910 -0.9180  0.8973  1.1670
 1015SOL    HW3 4106   0.894   0.284   1.918  1.5074 -1.1183 -1.7587
 1015SOL    MW4 4107   0.911   0.363   1.886  0.0699 -0.0993 -0.0700
 1016SOL     OW 4108   1.146   0.478   1.983  0.1315  0.2296  0.3523
 1016SOL    HW2 4109   1.224   0.438   1.943  1.0814  1.7346  0.6525
 1016SOL    HW3 4110   1.140   0.564   1.942 -1.2931  0.1945  0.4731
 1016SOL    MW4 4111   1.156   0.484   1.972  0.0688  0.4236  0.4077
 1017SOL     OW 4112   1.117   0.747   1.880 -0.0341  0.1354 -0.1617
 1017SOL    HW2 4113   1.195   0.796   1.907  0.4285  0.1366 -1.4889
 1017SOL    HW3 4114   1.047   0.785   1.932  0.4590  1.6826 -0.5941
 1017SOL    MW4 4115   1.118   0.758   1.891  0.0919  0.3397 -0.3937
 1018SOL     OW 4116   0.913   0.856   2.267 -0.1695 -0.0335  0.3175
 1018SOL    HW2 4117   0.844   0.809   2.313 -0.6205  0.9203  0.6435
 1018SOL    HW3 4118   0.904   0.947   2.297  2.3895 -0.2088  1.7853
 1018SOL    MW4 4119   0.903   0.862   2.277  0.1088  0.0692  0.5541
 1019SOL     OW 4120   0.914   1.121   1.892  0.9120 -0.0733 -0.3768
 1019SOL    HW2 4121   0.845   1.176   1.930  0.3885 -1.4829  0.7644
 1019SOL    HW3 4122   0.896   1.122   1.798  0.1263  0.6516 -0.2230
 1019SOL    MW4 4123   0.902   1.129   1.885  0.7393 -0.1636 -0.2061
 1020SOL     OW 4124   1.158   1.226   1.988  0.1586  0.3961 -0.1886
 1020SOL    HW2 4125   1.142   1.317   1.965 -0.9943  0.0912 -0.6644
 1020SOL    HW3 4126   1.084   1.178   1.950  1.9215 -1.0435 -1.9094
 1020SOL    MW4 4127   1.146   1.232   1.980  0.2391  0.1659 -0.4785
 1021SOL     OW 4128   1.135   1.485   1.902 -0.5175  0.0766 -0.0465
 1021SOL    HW2 4129   1.068   1.549   1.923  0.1586  0.4789  0.8757
 1021SOL    HW3 4130   1.150   1.497   1.808 -2.9098 -1.1486 -0.6328
 1021SOL    MW4 4131   1.128   1.495   1.892 -0.7440 -0.0319 -0.0023
 1022SOL     OW 4132   0.932   1.665   1.985 -0.2317 -0.2512 -0.1799
 1022SOL    HW2 4133   0.936   1.745   1.931  0.5172  0.0227  0.2743
 1022SOL    HW3 4134   0.855   1.618   1.952 -0.6425  0.6239 -0.5024
 1022SOL    MW4 4135   0.922   1.670   1.973 -0.1872 -0.0997 -0.1626
 1023SOL     OW 4136   0.909   1.936   1.885 -0.0212 -0.5312  0.3452
 1023SOL    HW2 4137   0.821   1.950   1.918 -0.0435  0.0131  0.0570
 1023SOL    HW3 4138   0.901   1.944   1.790  0.6477  1.2653  0.4200
 1023SOL    MW4 4139   0.897   1.939   1.877  0.0642 -0.2223  0.3171
 1024SOL     OW 4140   1.135   2.048   1.981 -0.2018 -0.0834  0.1049
 1024SOL    HW2 4141   1.117   2.134   1.943  0.0731 -0.3846 -0.7317
 1024SOL    HW3 4142   1.060   1.995   1.954 -0.4171 -0.0860  0.6998
 1024SOL    MW4 4143   1.123   2.052   1.972 -0.1938 -0.1237  0.0731
 1025SOL     OW 4144   1.135   2.299   1.840 -0.1171 -0.0489 -0.3518
 1025SOL    HW2 4145   1.209   2.354   1.865 -1.5313  1.7133  0.0918
 1025SOL    HW3 4146   1.140   2.295   1.744  1.0746 -0.7041 -0.2654
 1025SOL    MW4 4147   1.146   2.306   1.830 -0.1465  0.0973 -0.2818
 1026SOL     OW 4148   0.920   2.429   1.978 -0.1517 -0.3262  0.2434
 1026SOL    HW2 4149   0.993   2.400   1.924 -0.3430 -0.5498  0.1020
 1026SOL    HW3 4150   0.845   2.379   1.945 -0.8063  1.4459 -1.0535
 1026SOL    MW4 4151   0.920   2.419   1.967 -0.2633 -0.1221  0.0539
 1027SOL     OW 4152   0.935   2.706   1.894  0.1012 -0.6847  0.2669
 1027SOL    HW2 4153   0.919   2.615   1.918  1.2599 -0.4521  2.0265
 1027SOL    HW3 4154   0.855   2.752   1.920 -0.2912 -1.1257 -0.1638
 1027SOL    MW4 4155   0.922   2.700   1.901  0.2023 -0.7122  0.4423
 1028SOL     OW 4156   1.149   2.863   1.951  0.2192 -0.0098 -0.7894
 1028SOL    HW2 4157   1.155   2.860   2.046 -1.4260  1.0461 -0.6229
 1028SOL    HW3 4158   1.081   2.799   1.930  0.7281 -0.3939 -1.2723
 1028SOL    MW4 4159   1.141   2.854   1.961  0.0691  0.0787 -0.8312
 1029SOL     OW 4160   1.147   3.096   1.828  0.4816  0.0202 -0.1714
 1029SOL    HW2 4161   1.066   3.138   1.856  1.0248  0.0539  1.3975
 1029SOL    HW3 4162   1.151   3.015   1.879  1.0879 -0.3312 -0.7578
 1029SOL    MW4 4163   1.137   3.091   1.838  0.6334 -0.0217 -0.0418
 1030SOL     OW 4164   0.933   3.227   1.963 -0.0697 -0.1091  0.0466
 1030SOL    HW2 4165   0.926   3.222   2.058  0.1645  0.3873  0.0901
 1030SOL    HW3 4166   0.854   3.183   1.931 -0.1231 -0.3231  0.4674
 1030SOL    MW4 4167   0.922   3.220   1.971 -0.0458 -0.0718  0.1079
 1031SOL     OW 4168   0.883   3.490   1.891 -0.2091 -0.4980 -0.2848
 1031SOL    HW2 4169   0.903   3.400   1.916 -0.1909 -0.3938  0.0797
 1031SOL    HW3 4170   0.906   3.495   1.798  1.0674 -0.4919  0.0204
 1031SOL    MW4 4171   0.889   3.479   1.882 -0.0383 -0.4838 -0.1963
 1032SOL     OW 4172   1.089   3.661   1.989  0.1691  0.1242  0.2674
 1032SOL    HW2 4173   1.118   3.622   2.072 -1.4683  0.4617  1.0246
 1032SOL    HW3 4174   1.007   3.614   1.969  0.8176 -0.3067 -1.4217
 1032SOL    MW4 4175   1.082   3.649   1.997  0.0386  0.1118  0.1445
 1033SOL     OW 4176   1.134   3.903   1.851  0.0805  0.2858  0.5248
 1033SOL    HW2 4177   1.136   3.812   1.878  1.6683  0.4491  1.0301
 1033SOL    HW3 4178   1.119   3.900   1.756 -1.3857 -0.4299  0.7726
 1033SOL    MW4 4179   1.133   3.891   1.842  0.0966  0.2131  0.6241
 1034SOL     OW 4180   0.929   4.031   1.963 -0.0653  0.5317  0.2615
 1034SOL    HW2 4181   0.928   4.026   2.059 -0.7195  0.6277  0.2575
 1034SOL    HW3 4182   1.017   4.002   1.939  0.1370  0.6168  0.8990
 1034SOL    MW4 4183   0.941   4.026   1.972 -0.1249  0.5555  0.3451
 1035SOL     OW 4184   0.904   4.304   1.907 -0.7556  0.4788  0.2805
 1035SOL    HW2 4185   0.990   4.331   1.941 -0.6024  1.7897 -1.1207
 1035SOL    HW3 4186   0.898   4.211   1.930  1.6214  0.0230 -0.7799
 1035SOL    MW4 4187   0.915   4.295   1.915 -0.4217  0.5913 -0.0443
 1036SOL     OW 4188   1.156   4.402   1.991 -0.1201  0.0381 -0.3458
 1036SOL    HW2 4189   1.154   4.386   2.086 -1.6359 -1.9557 -0.6867
 1036SOL    HW3 4190   1.235   4.356   1.961 -1.2281 -1.7996 -0.4618
 1036SOL    MW4 4191   1.166   4.394   2.000 -0.4663 -0.4673 -0.4061
 1037SOL     OW 4192   1.537   4.657   1.879 -0.0645  0.2502  0.7190
 1037SOL    HW2 4193   1.615   4.697   1.918 -0.4498  1.1308  0.6087
 1037SOL    HW3 4194   1.544   4.564   1.901  1.1992  0.2566  0.4032
 1037SOL    MW4 4195   1.549   4.650   1.887  0.0515  0.3667  0.6628
 1038SOL     OW 4196   1.322   0.141   1.972  0.2417 -0.4039  0.3231
 1038SOL    HW2 4197   1.325   0.138   2.067  0.0867 -1.0188  0.3111
 1038SOL    HW3 4198   1.399   0.091   1.944 -0.2625 -1.0707  0.1206
 1038SOL    MW4 4199   1.333   0.134   1.981  0.1546 -0.5730  0.2948
 1039SOL     OW 4200   1.383   0.388   1.880  0.0516 -0.3453  0.0493
 1039SOL    HW2 4201   1.361   0.297   1.898  1.4211 -0.6455  0.2040
 1039SOL    HW3 4202   1.394   0.393   1.785 -1.0284 -0.1022 -0.0780
 1039SOL    MW4 4203   1.381   0.377   1.870  0.0899 -0.3528  0.0530
 1040SOL     OW 4204   1.599   0.505   2.023  0.0742 -0.0643 -0.0872
 1040SOL    HW2 4205   1.659   0.441   1.985 -0.2617 -0.1075 -0.5537
 1040SOL    HW3 4206   1.512   0.469   2.006 -0.0732 -0.2064  0.9532
 1040SOL    MW4 4207   1.595   0.492   2.016  0.0104 -0.0887 -0.0114
 1041SOL     OW 4208   1.616   0.737   1.872 -0.3601 -0.0039  0.1819
 1041SOL    HW2 4209   1.700   0.765   1.910 -1.0412  1.1986  0.8147
 1041SOL    HW3 4210   1.603   0.649   1.906  1.6406 -1.0062 -1.5425
 1041SOL    MW4 4211   1.626   0.729   1.882 -0.1862  0.0225  0.0379
 1042SOL     OW 4212   0.885   0.854   1.987 -0.0712 -0.4317 -0.4067
 1042SOL    HW2 4213   0.896   0.948   1.970 -0.6871 -0.0369  1.2163
 1042SOL    HW3 4214   0.895   0.846   2.082 -0.9449 -1.8741 -0.4148
 1042SOL    MW4 4215   0.888   0.866   1.997 -0.2677 -0.5699 -0.1936
 1043SOL     OW 4216   1.408   1.165   1.903 -0.2292  0.3676  0.1186
 1043SOL    HW2 4217   1.416   1.070   1.908 -0.6964  0.3500  0.5462
 1043SOL    HW3 4218   1.320   1.184   1.934  0.1270  0.9993  0.7921
 1043SOL    MW4 4219   1.398   1.155   1.908 -0.2439  0.4486  0.2639
 1044SOL     OW 4220   1.616   1.290   2.004 -0.0114  0.1680  0.3128
 1044SOL    HW2 4221   1.615   1.372   1.954  1.2377 -0.8633 -1.4489
 1044SOL    HW3 4222   1.538   1.243   1.976 -0.6816  0.6916  1.2601
 1044SOL    MW4 4223   1.606   1.295   1.994  0.0650  0.1011  0.2054
 1045SOL     OW 4224   1.595   1.529   1.869 -0.0898 -0.5041 -0.1896
 1045SOL    HW2 4225   1.657   1.591   1.908  0.3178 -0.1217 -1.4307
 1045SOL    HW3 4226   1.509   1.566   1.889  0.1453  0.3461 -0.7159
 1045SOL    MW4 4227   1.592   1.542   1.877 -0.0051 -0.3415 -0.4228
 1046SOL     OW 4228   1.350   1.655   1.972 -0.3121  0.0300  0.2162
 1046SOL    HW2 4229   1.350   1.663   2.067  0.4437  0.3346  0.1973
 1046SOL    HW3 4230   1.280   1.592   1.953  0.5715 -1.2488  1.0846
 1046SOL    MW4 4231   1.341   1.648   1.982 -0.0957 -0.0986  0.3282
 1047SOL     OW 4232   1.357   1.910   1.872  0.1145 -0.0262  0.2051
 1047SOL    HW2 4233   1.358   1.830   1.924 -0.1457  1.5932  2.7990
 1047SOL    HW3 4234   1.291   1.965   1.914  1.5684  2.2584 -0.4207
 1047SOL    MW4 4235   1.348   1.907   1.884  0.2719  0.4889  0.4647
 1048SOL     OW 4236   1.605   2.065   1.948 -0.2290  0.0282  0.6033
 1048SOL    HW2 4237   1.610   2.142   1.891  1.9852 -0.4344  0.1201
 1048SOL    HW3 4238   1.528   2.018   1.918 -1.2367  1.7333  0.4818
 1048SOL    MW4 4239   1.596   2.069   1.936 -0.0696  0.1922  0.5236
 1049SOL     OW 4240   1.593   2.305   1.831 -0.4041  0.0680  0.1744
 1049SOL    HW2 4241   1.674   2.335   1.872  0.5891 -0.6729 -1.1979
 1049SOL    HW3 4242   1.603   2.328   1.739 -2.4866  1.4734  0.2555
 1049SOL    MW4 4243   1.605   2.312   1.824 -0.5480  0.1557  0.0039
 1050SOL     OW 4244   1.358   2.446   1.952  0.3941  0.0098  0.3167
 1050SOL    HW2 4245   1.356   2.531   1.908 -0.7224 -0.9211 -1.5023
 1050SOL    HW3 4246   1.440   2.406   1.924  0.5131  0.1391  0.4815
 1050SOL    MW4 4247   1.368   2.452   1.942  0.2625 -0.0961  0.0985
 1051SOL     OW 4248   1.378   2.698   1.861  0.7621 -0.1327 -0.8294
 1051SOL    HW2 4249   1.307   2.761   1.875  1.9381  1.4662 -1.8857
 1051SOL    HW3 4250   1.381   2.686   1.766  0.8776 -1.4186 -0.6722
 1051SOL    MW4 4251   1.369   2.705   1.850  0.9326 -0.0911 -0.9480
 1052SOL     OW 4252   1.620   2.823   1.940 -0.1947  0.2460 -0.2333
 1052SOL    HW2 4253   1.692   2.768   1.908 -0.8197 -1.5702  1.4106
 1052SOL    HW3 4254   1.541   2.772   1.923 -1.0526  1.8715 -1.2626
 1052SOL    MW4 4255   1.619   2.809   1.933 -0.3904  0.2208 -0.1523
 1053SOL     OW 4256   1.565   3.101   1.887  0.0143  0.4864  0.1004
 1053SOL    HW2 4257   1.593   3.012   1.908 -0.1002  0.5702  0.6104
 1053SOL    HW3 4258   1.540   3.097   1.794 -0.3236 -0.0988  0.2144
 1053SOL    MW4 4259   1.565   3.089   1.877 -0.0454  0.4203  0.1826
 1054SOL     OW 4260   1.348   3.241   2.001  0.3957 -0.2407 -0.2175
 1054SOL    HW2 4261   1.427   3.197   1.970  1.2306  1.0776  0.0165
 1054SOL    HW3 4262   1.278   3.208   1.944  1.3552 -0.3754 -1.3220
 1054SOL    MW4 4263   1.349   3.231   1.989  0.6325 -0.0844 -0.3322
 1055SOL     OW 4264   1.294   3.516   1.890 -0.5444 -0.8684 -0.1168
 1055SOL    HW2 4265   1.297   3.434   1.938  0.4884 -0.5234  0.4328
 1055SOL    HW3 4266   1.218   3.562   1.926  0.5088 -0.3978  1.5679
 1055SOL    MW4 4267   1.284   3.511   1.901 -0.2692 -0.7608  0.1777
 1056SOL     OW 4268   1.536   3.632   1.953 -0.3897  0.1455  0.2223
 1056SOL    HW2 4269   1.518   3.646   2.046 -0.1282  1.4433  0.1015
 1056SOL    HW3 4270   1.456   3.595   1.917 -1.2706  1.6620  0.5547
 1056SOL    MW4 4271   1.523   3.629   1.960 -0.4715  0.5169  0.2502
 1057SOL     OW 4272   1.569   3.890   1.861  0.0802 -0.1677 -0.1249
 1057SOL    HW2 4273   1.645   3.935   1.897  1.2355 -1.5004 -0.8393
 1057SOL    HW3 4274   1.568   3.804   1.904  0.5512 -1.1732 -2.0444
 1057SOL    MW4 4275   1.579   3.884   1.871  0.2948 -0.4759 -0.4723
 1058SOL     OW 4276   1.364   3.991   2.008  0.7640  0.6103 -0.0707
 1058SOL    HW2 4277   1.443   3.957   1.967  0.5425  1.2812 -1.0694
 1058SOL    HW3 4278   1.292   3.959   1.955  0.5082  1.9335 -0.5529
 1058SOL    MW4 4279   1.365   3.982   1.996  0.7011  0.8733 -0.2661
 1059SOL     OW 4280   1.373   4.252   1.908 -0.2866  0.3983  0.0675
 1059SOL    HW2 4281   1.367   4.162   1.939 -0.8458 -0.1882 -1.7036
 1059SOL    HW3 4282   1.368   4.245   1.813  1.5097  2.1589 -0.1827
 1059SOL    MW4 4283   1.371   4.239   1.900 -0.1234  0.5531 -0.1993
 1060SOL     OW 4284   1.598   4.377   1.983  0.2197 -0.4086 -0.2441
 1060SOL    HW2 4285   1.617   4.379   2.077  0.2040 -0.9315 -0.2303
 1060SOL    HW3 4286   1.513   4.334   1.977  0.6830 -1.2938 -0.5697
 1060SOL    MW4 4287   1.589   4.372   1.995  0.2788 -0.5946 -0.2853
 1061SOL     OW 4288   1.999   4.666   1.903 -0.4718  0.1199  0.2257
 1061SOL    HW2 4289   2.085   4.686   1.939 -0.2629  0.6574 -0.5713
 1061SOL    HW3 4290   1.985   4.574   1.925 -0.3623  0.4458  1.7107
 1061SOL    MW4 4291   2.008   4.656   1.911 -0.4296  0.2337  0.3166
 1062SOL     OW 4292   1.758   0.098   1.986 -0.2410  0.1722  0.1709
 1062SOL    HW2 4293   1.778   0.107   2.080  0.2921  0.3505  0.0414
 1062SOL    HW3 4294   1.836   0.058   1.948  0.2011  1.6241 -0.4736
 1062SOL    MW4 4295   1.771   0.094   1.994 -0.1124  0.3873  0.0687
 1063SOL     OW 4296   1.809   0.372   1.901  0.6695  0.0905  0.2543
 1063SOL    HW2 4297   1.787   0.282   1.924 -2.3196  0.9454  1.0171
 1063SOL    HW3 4298   1.803   0.374   1.805  0.1424 -0.3831  0.2739
 1063SOL    MW4 4299   1.805   0.361   1.891  0.2056  0.1408  0.3575
 1064SOL     OW 4300   2.046   0.498   1.972 -0.7034 -0.0503  0.2239
 1064SOL    HW2 4301   2.048   0.590   1.947  0.6525 -0.2627 -0.5182
 1064SOL    HW3 4302   1.961   0.466   1.941 -0.3021  0.4428 -1.3928
 1064SOL    MW4 4303   2.035   0.506   1.965 -0.4718 -0.0132 -0.0874
 1065SOL     OW 4304   2.036   0.756   1.866 -0.9525 -0.4939 -0.5947
 1065SOL    HW2 4305   2.114   0.798   1.901 -1.8161  0.2010  0.5113
 1065SOL    HW3 4306   2.037   0.777   1.772 -0.7272  0.9543 -0.2723
 1065SOL    MW4 4307   2.047   0.764   1.858 -1.0366 -0.2112 -0.4060
 1066SOL     OW 4308   1.834   0.869   2.015 -0.0191 -0.6247  0.3497
 1066SOL    HW2 4309   1.845   0.963   2.003  0.7393 -0.6752  0.6519
 1066SOL    HW3 4310   1.894   0.829   1.952 -0.5264 -0.9118  0.0400
 1066SOL    MW4 4311   1.843   0.876   2.005  0.0139 -0.6692  0.3488
 1067SOL     OW 4312   1.829   1.143   1.928  0.0482  0.2824  0.3545
 1067SOL    HW2 4313   1.755   1.197   1.956 -1.7037 -1.5292 -0.6561
 1067SOL    HW3 4314   1.818   1.136   1.833  1.7960  0.3530  0.1271
 1067SOL    MW4 4315   1.818   1.149   1.919  0.0477  0.0526  0.1913
 1068SOL     OW 4316   2.066   1.292   1.980  0.2587 -0.4405 -0.0909
 1068SOL    HW2 4317   2.142   1.242   1.948  0.1897 -1.4858  1.3452
 1068SOL    HW3 4318   1.990   1.240   1.953  0.1602 -0.7587  0.7895
 1068SOL    MW4 4319   2.066   1.278   1.972  0.2370 -0.6204  0.2147
 1069SOL     OW 4320   2.024   1.551   1.875  0.3143 -0.0484 -0.1411
 1069SOL    HW2 4321   2.033   1.466   1.919 -2.7713 -0.3163  0.0652
 1069SOL    HW3 4322   2.040   1.531   1.782  0.7267 -0.6392  0.0513
 1069SOL    MW4 4323   2.027   1.537   1.868 -0.0381 -0.1616 -0.0886
 1070SOL     OW 4324   1.808   1.679   1.994 -0.1057 -0.1914  0.5236
 1070SOL    HW2 4325   1.834   1.765   1.962 -0.2883 -0.6387 -0.8461
 1070SOL    HW3 4326   1.880   1.622   1.969 -1.0531 -0.8791 -0.6564
 1070SOL    MW4 4327   1.821   1.683   1.987 -0.2548 -0.3412  0.1872
 1071SOL     OW 4328   1.857   1.934   1.898  0.5724  0.4103 -0.5503
 1071SOL    HW2 4329   1.772   1.974   1.918  1.4457  2.0996 -0.1242
 1071SOL    HW3 4330   1.855   1.921   1.803 -0.1969  0.3425 -0.5284
 1071SOL    MW4 4331   1.845   1.937   1.888  0.5863  0.6242 -0.4911
 1072SOL     OW 4332   2.073   2.094   1.984  0.0150 -0.2100 -0.0253
 1072SOL    HW2 4333   2.159   2.053   1.971  0.6124  0.7053  1.0139
 1072SOL    HW3 4334   2.011   2.027   1.955  1.0195 -1.3977  0.5019
 1072SOL    MW4 4335   2.076   2.080   1.978  0.2263 -0.2458  0.1814
 1073SOL     OW 4336   2.048   2.310   1.828  0.9449  0.3841 -0.4086
 1073SOL    HW2 4337   2.102   2.375   1.874  1.6610 -0.2693 -0.3049
 1073SOL    HW3 4338   2.056   2.231   1.881 -0.9255  0.5420  0.1461
 1073SOL    MW4 4339   2.056   2.308   1.841  0.7925  0.3188 -0.3217
 1074SOL     OW 4340   1.825   2.421   1.930  0.1413 -0.3956 -0.3702
 1074SOL    HW2 4341   1.835   2.442   2.023 -1.0023  2.0874 -0.7696
 1074SOL    HW3 4342   1.908   2.380   1.906  0.2863 -1.5297  1.8340
 1074SOL    MW4 4343   1.837   2.418   1.939  0.0094 -0.2177 -0.1320
 1075SOL     OW 4344   1.833   2.673   1.824  0.4904  0.1480  0.1676
 1075SOL    HW2 4345   1.833   2.585   1.861 -1.4359  0.5723  1.2567
 1075SOL    HW3 4346   1.812   2.662   1.732 -0.4368 -0.4802  0.4545
 1075SOL    MW4 4347   1.830   2.660   1.817  0.1140  0.1211  0.3492
 1076SOL     OW 4348   1.987   2.845   1.959  0.1319 -0.5384 -0.4894
 1076SOL    HW2 4349   1.978   2.842   2.054 -0.1090  1.5923 -0.4096
 1076SOL    HW3 4350   1.927   2.778   1.927 -1.3887  0.1882  0.7888
 1076SOL    MW4 4351   1.978   2.836   1.967 -0.1004 -0.1614 -0.3102
 1077SOL     OW 4352   1.988   3.100   1.838  0.2975  0.1194 -0.0904
 1077SOL    HW2 4353   1.917   3.140   1.888  0.2707 -0.1061  0.0518
 1077SOL    HW3 4354   1.994   3.010   1.872  0.5725  0.1029 -0.1820
 1077SOL    MW4 4355   1.979   3.093   1.849  0.3302  0.0875 -0.0838
 1078SOL     OW 4356   1.780   3.251   1.963 -0.2088  0.2189  0.1609
 1078SOL    HW2 4357   1.797   3.241   2.057  0.6571 -0.4351 -0.0639
 1078SOL    HW3 4358   1.705   3.194   1.946  0.3694 -0.5611  0.2313
 1078SOL    MW4 4359   1.772   3.242   1.973 -0.0181  0.0298  0.1405
 1079SOL     OW 4360   1.778   3.513   1.869 -0.2192  0.0799 -0.2333
 1079SOL    HW2 4361   1.774   3.419   1.889 -1.1776 -0.1272 -1.3590
 1079SOL    HW3 4362   1.695   3.548   1.901 -0.1551  0.4266 -0.4453
 1079SOL    MW4 4363   1.767   3.505   1.876 -0.3371  0.0985 -0.4097
 1080SOL     OW 4364   2.029   3.589   1.971  0.2818 -0.6410  0.3094
 1080SOL    HW2 4365   2.038   3.674   1.929 -0.9573 -1.0524 -0.8232
 1080SOL    HW3 4366   1.937   3.567   1.961  0.4433 -1.7882  1.2493
 1080SOL    MW4 4367   2.018   3.597   1.964  0.1402 -0.8469  0.2840
 1081SOL     OW 4368   2.018   3.842   1.852 -0.0984  0.2743 -0.3704
 1081SOL    HW2 4369   2.083   3.901   1.890 -0.9408  0.5430  0.6613
 1081SOL    HW3 4370   2.034   3.846   1.758  0.3263  1.5704 -0.2481
 1081SOL    MW4 4371   2.029   3.850   1.845 -0.1535  0.4809 -0.2182
 1082SOL     OW 4372   1.816   3.982   1.976 -0.0494 -0.0461 -0.0533
 1082SOL    HW2 4373   1.818   4.068   1.934  1.3379 -0.9204 -1.8667
 1082SOL    HW3 4374   1.887   3.933   1.933 -0.0489 -1.7041  1.7823
 1082SOL    MW4 4375   1.826   3.987   1.964  0.1339 -0.3803 -0.0503
 1083SOL     OW 4376   1.777   4.225   1.846  0.0328  0.3688  0.5325
 1083SOL    HW2 4377   1.701   4.262   1.890  0.1681  1.5502 -0.2025
 1083SOL    HW3 4378   1.769   4.254   1.755  1.5779  0.8955  0.5413
 1083SOL    MW4 4379   1.766   4.234   1.840  0.2545  0.5946  0.4368
 1084SOL     OW 4380   1.958   4.388   1.964  0.0246  0.1508  0.1417
 1084SOL    HW2 4381   2.038   4.356   1.922 -0.2757 -1.0457  0.4765
 1084SOL    HW3 4382   1.889   4.332   1.930 -0.9515  2.1990 -1.3977
 1084SOL    MW4 4383   1.959   4.376   1.954 -0.1438  0.2637 -0.0174
 1085SOL     OW 4384   2.480   4.658   1.879 -0.7522 -0.2055 -0.0029
 1085SOL    HW2 4385   2.540   4.722   1.918  1.4031 -0.5320 -2.6756
 1085SOL    HW3 4386   2.495   4.578   1.930 -0.2178  0.2045  0.4996
 1085SOL    MW4 4387   2.490   4.656   1.891 -0.3970 -0.1945 -0.2892
 1086SOL     OW 4388   2.285   0.403   1.904  0.6592  0.0850 -0.0102
 1086SOL    HW2 4389   2.195   0.428   1.926  0.2929 -1.1528 -0.0598
 1086SOL    HW3 4390   2.289   0.309   1.921  1.9428  0.1238 -0.0316
 1086SOL    MW4 4391   2.274   0.393   1.909  0.7801 -0.0732 -0.0197
 1087SOL     OW 4392   2.246   0.128   1.960  0.3900  0.3551 -0.1199
 1087SOL    HW2 4393   2.313   0.067   1.929  0.8526  0.8691 -0.1525
 1087SOL    HW3 4394   2.249   0.121   2.055  0.9269  0.8197 -0.0932
 1087SOL    MW4 4395   2.256   0.119   1.968  0.5219  0.4842 -0.1205
 1088SOL     OW 4396   2.523   0.516   1.976 -0.5637 -0.0089  0.1652
 1088SOL    HW2 4397   2.588   0.464   1.928 -0.0670  1.0176 -0.3039
 1088SOL    HW3 4398   2.440   0.473   1.957 -0.3099  0.0683 -1.2048
 1088SOL    MW4 4399   2.521   0.503   1.967 -0.4644  0.1367 -0.0774
 1089SOL     OW 4400   2.491   0.764   1.861 -0.0955 -0.0501 -0.0355
 1089SOL    HW2 4401   2.505   0.677   1.899  0.9566 -0.1494 -0.6359
 1089SOL    HW3 4402   2.474   0.747   1.769  0.5701  0.4126 -0.2451
 1089SOL    MW4 4403   2.491   0.750   1.854  0.1309 -0.0021 -0.1425
 1090SOL     OW 4404   2.258   0.862   1.959 -0.0158  0.3826 -0.2440
 1090SOL    HW2 4405   2.261   0.858   2.055  0.8305 -0.3332 -0.2949
 1090SOL    HW3 4406   2.339   0.821   1.931 -0.6238 -0.1268 -1.2936
 1090SOL    MW4 4407   2.269   0.856   1.968  0.0160  0.2210 -0.3891
 1091SOL     OW 4408   2.273   1.122   1.884 -0.3902 -0.6267 -0.5741
 1091SOL    HW2 4409   2.346   1.154   1.936 -0.9339  0.2610 -0.3453
 1091SOL    HW3 4410   2.266   1.029   1.906 -1.1087 -0.0919  1.5375
 1091SOL    MW4 4411   2.282   1.114   1.894 -0.5569 -0.4390 -0.2654
 1092SOL     OW 4412   2.464   1.253   2.020 -0.2767  0.1955  0.0532
 1092SOL    HW2 4413   2.440   1.257   2.112  0.2041 -0.8685  0.2297
 1092SOL    HW3 4414   2.451   1.343   1.988 -1.9064  0.2309  0.7714
 1092SOL    MW4 4415   2.459   1.266   2.028 -0.4282  0.0597  0.1714
 1093SOL     OW 4416   2.452   1.489   1.898 -0.3905  0.3168  0.2737
 1093SOL    HW2 4417   2.388   1.559   1.911 -0.4272 -0.0279  2.0811
 1093SOL    HW3 4418   2.468   1.489   1.804 -1.0044  2.2111  0.1380
 1093SOL    MW4 4419   2.446   1.498   1.887 -0.4764  0.5213  0.4942
 1094SOL     OW 4420   2.253   1.706   1.996 -0.0599  0.0230  0.1084
 1094SOL    HW2 4421   2.254   1.699   2.092  0.3258 -0.0964  0.0969
 1094SOL    HW3 4422   2.189   1.641   1.969  0.3537 -0.4553  0.2501
 1094SOL    MW4 4423   2.245   1.696   2.005  0.0455 -0.0559  0.1254
 1095SOL     OW 4424   2.292   1.969   1.881  0.2287  0.4744 -0.2868
 1095SOL    HW2 4425   2.381   1.984   1.914 -0.5781  1.0841  1.6778
 1095SOL    HW3 4426   2.271   1.880   1.908 -0.0565  0.6151 -0.0427
 1095SOL    MW4 4427   2.301   1.959   1.889  0.0846  0.5734  0.0046
 1096SOL     OW 4428   2.542   2.040   2.013 -0.4365 -0.1325 -0.0232
 1096SOL    HW2 4429   2.617   2.004   1.966  0.0658 -2.1431  2.1881
 1096SOL    HW3 4430   2.537   2.131   1.984  2.4233 -0.1387 -0.7441
 1096SOL    MW4 4431   2.551   2.047   2.003  0.0072 -0.3986  0.1736
 1097SOL     OW 4432   2.488   2.291   1.876  0.0226  0.4554 -0.1260
 1097SOL    HW2 4433   2.559   2.337   1.920  0.1117  0.9151 -0.7457
 1097SOL    HW3 4434   2.408   2.326   1.915  0.1400 -0.4384  0.9436
 1097SOL    MW4 4435   2.487   2.301   1.887  0.0498  0.3982 -0.0666
 1098SOL     OW 4436   2.261   2.438   1.965  0.7984  0.1610 -0.0619
 1098SOL    HW2 4437   2.271   2.447   2.060  0.1251  0.3491 -0.0043
 1098SOL    HW3 4438   2.279   2.525   1.930 -0.4134  0.4656  0.0302
 1098SOL    MW4 4439   2.265   2.451   1.973  0.5496  0.2265 -0.0423
 1099SOL     OW 4440   2.237   2.710   1.909 -0.0029 -0.3002  0.2524
 1099SOL    HW2 4441   2.158   2.757   1.937  0.6098  1.2413 -0.5479
 1099SOL    HW3 4442   2.224   2.697   1.814  0.7491  0.0252  0.1065
 1099SOL    MW4 4443   2.225   2.714   1.900  0.1771 -0.0539  0.1274
 1100SOL     OW 4444   2.483   2.806   1.977 -0.3279  0.2148  0.3029
 1100SOL    HW2 4445   2.483   2.891   1.933  0.2536  0.0724  0.0328
 1100SOL    HW3 4446   2.395   2.771   1.960  0.0178 -0.0240 -1.1139
 1100SOL    MW4 4447   2.471   2.812   1.969 -0.2058  0.1645  0.0802
 1101SOL     OW 4448   2.476   3.044   1.850 -0.5641 -0.2310  0.0933
 1101SOL    HW2 4449   2.404   3.101   1.878 -1.7773 -0.9948 -1.4266
 1101SOL    HW3 4450   2.467   3.039   1.755  1.9263  0.2108 -0.2084
 1101SOL    MW4 4451   2.465   3.051   1.841 -0.3958 -0.2732 -0.1471
 1102SOL     OW 4452   2.247   3.172   1.919 -0.3761  0.0838 -0.3600
 1102SOL    HW2 4453   2.247   3.165   2.014 -0.5238  2.7510 -0.1300
 1102SOL    HW3 4454   2.157   3.156   1.893 -0.2031 -1.3355 -0.1361
 1102SOL    MW4 4455   2.235   3.169   1.928 -0.3726  0.2484 -0.3000
 1103SOL     OW 4456   2.251   3.441   1.841  0.0713 -0.0188 -0.2313
 1103SOL    HW2 4457   2.253   3.350   1.870  0.0953  0.5071  1.4142
 1103SOL    HW3 4458   2.172   3.478   1.880  0.6840  0.9975  0.0778
 1103SOL    MW4 4459   2.241   3.434   1.850  0.1552  0.1848  0.0266
 1104SOL     OW 4460   2.469   3.593   1.955 -0.2756  0.3654  0.2413
 1104SOL    HW2 4461   2.469   3.596   2.051  0.5133 -1.3468  0.3124
 1104SOL    HW3 4462   2.394   3.538   1.933 -0.2938  0.5337 -0.1142
 1104SOL    MW4 4463   2.459   3.586   1.965 -0.1740  0.1619  0.2038
 1105SOL     OW 4464   2.460   3.903   1.609 -0.3946 -0.3403  0.1464
 1105SOL    HW2 4465   2.474   3.907   1.703 -0.6838  1.2012  0.1304
 1105SOL    HW3 4466   2.547   3.913   1.570 -0.5594  1.3400  0.2048
 1105SOL    MW4 4467   2.473   3.905   1.616 -0.4547  0.0846  0.1520
 1106SOL     OW 4468   2.210   4.000   1.970 -0.2183  0.2989  0.2867
 1106SOL    HW2 4469   2.223   4.017   2.063  0.7196  1.0113  0.0355
 1106SOL    HW3 4470   2.201   4.087   1.931  2.3701  0.1754 -0.6983
 1106SOL    MW4 4471   2.211   4.014   1.977  0.2468  0.3767  0.1236
 1107SOL     OW 4472   2.188   4.270   1.876  0.1883 -0.3277  0.3879
 1107SOL    HW2 4473   2.265   4.305   1.920 -0.5931  1.2334  0.5207
 1107SOL    HW3 4474   2.205   4.283   1.783 -0.6531  1.6126  0.4835
 1107SOL    MW4 4475   2.200   4.276   1.870 -0.0257  0.1345  0.4181
 1108SOL     OW 4476   2.442   4.393   1.980 -0.2754  0.0264 -0.2541
 1108SOL    HW2 4477   2.468   4.414   2.070 -1.2838 -1.9154  0.5238
 1108SOL    HW3 4478   2.518   4.345   1.945 -0.2222  0.0253 -0.1394
 1108SOL    MW4 4479   2.456   4.389   1.988 -0.4015 -0.2298 -0.1364
 1109SOL     OW 4480   2.903   4.662   1.902 -0.5088 -0.1256  0.6420
 1109SOL    HW2 4481   2.982   4.710   1.926 -0.1043 -0.7822  0.6394
 1109SOL    HW3 4482   2.923   4.571   1.924 -0.7748 -0.4863 -0.5968
 1109SOL    MW4 4483   2.916   4.656   1.908 -0.4904 -0.2599  0.4783
 1110SOL     OW 4484   2.685   0.146   1.998  0.6588  0.2925 -0.1050
 1110SOL    HW2 4485   2.688   0.162   2.092  1.9026 -0.4602 -0.0100
 1110SOL    HW3 4486   2.745   0.072   1.984  0.4403  0.3623 -1.4739
 1110SOL    MW4 4487   2.693   0.138   2.009  0.7942  0.2024 -0.2730
 1111SOL     OW 4488   2.752   0.377   1.833  0.5727 -0.6083 -0.0647
 1111SOL    HW2 4489   2.724   0.299   1.881  1.0633 -1.8522 -1.7369
 1111SOL    HW3 4490   2.826   0.411   1.884 -0.9375 -0.0299  1.7900
 1111SOL    MW4 4491   2.758   0.371   1.846  0.4382 -0.6961 -0.0405
 1112SOL     OW 4492   2.950   0.499   2.003 -0.5954  0.1481  0.1531
 1112SOL    HW2 4493   3.034   0.468   1.968 -2.3618 -1.9207 -2.3792
 1112SOL    HW3 4494   2.933   0.580   1.954 -1.5699 -1.1047 -1.6175
 1112SOL    MW4 4495   2.959   0.506   1.992 -0.9568 -0.2902 -0.4145
 1113SOL     OW 4496   2.920   0.732   1.844 -0.3142 -0.3883 -0.0021
 1113SOL    HW2 4497   2.993   0.795   1.842 -0.4430 -0.2802 -1.4656
 1113SOL    HW3 4498   2.846   0.783   1.876  0.1272 -0.3730  1.0163
 1113SOL    MW4 4499   2.920   0.747   1.848 -0.2732 -0.3720 -0.0608
 1114SOL     OW 4500   2.727   0.882   1.952  0.7773 -0.0144 -0.3423
 1114SOL    HW2 4501   2.734   0.977   1.937  1.8337 -0.1928 -1.0274
 1114SOL    HW3 4502   2.636   0.861   1.933  0.4256  0.9388  0.2410
 1114SOL    MW4 4503   2.716   0.892   1.947  0.8702  0.0877 -0.3558
 1115SOL     OW 4504   2.704   1.154   1.917  0.6709 -0.5134 -0.4117
 1115SOL    HW2 4505   2.620   1.197   1.937  1.1147  0.3758 -0.4542
 1115SOL    HW3 4506   2.703   1.142   1.823  0.3243 -1.0584 -0.3394
 1115SOL    MW4 4507   2.692   1.158   1.907  0.6840 -0.4680 -0.4078
 1116SOL     OW 4508   2.944   1.277   1.991  0.0364  0.5018  0.2115
 1116SOL    HW2 4509   2.941   1.369   1.968  1.0062  0.5340  0.2085
 1116SOL    HW3 4510   2.857   1.244   1.969 -0.6797  1.6554  1.2633
 1116SOL    MW4 4511   2.932   1.285   1.985  0.0701  0.6584  0.3499
 1117SOL     OW 4512   2.900   1.532   1.895  0.6913 -0.1774 -0.0602
 1117SOL    HW2 4513   2.967   1.583   1.941  1.2105 -1.0783  0.2094
 1117SOL    HW3 4514   2.937   1.518   1.807  0.5876 -0.1524 -0.1079
 1117SOL    MW4 4515   2.914   1.537   1.889  0.7460 -0.2930 -0.0310
 1118SOL     OW 4516   2.664   1.625   2.016  0.1205  0.0107 -0.0674
 1118SOL    HW2 4517   2.732   1.584   1.964 -0.0040 -0.8152  0.4108
 1118SOL    HW3 4518   2.582   1.587   1.983  0.0176 -0.2695  0.5029
 1118SOL    MW4 4519   2.662   1.614   2.005  0.0904 -0.1353  0.0710
 1119SOL     OW 4520   2.728   1.907   1.865 -0.1755  0.5633  0.1519
 1119SOL    HW2 4521   2.806   1.937   1.912 -1.3333 -0.2199  2.6423
 1119SOL    HW3 4522   2.710   1.820   1.900 -0.6405 -0.3941 -2.3310
 1119SOL    MW4 4523   2.736   1.899   1.876 -0.3896  0.3338  0.1531
 1120SOL     OW 4524   2.938   2.025   1.985 -0.4912 -0.2164  0.0654
 1120SOL    HW2 4525   2.925   2.059   2.074 -0.3409 -0.2822  0.1127
 1120SOL    HW3 4526   3.022   1.979   1.989 -1.3021 -1.7279  0.3440
 1120SOL    MW4 4527   2.947   2.023   1.997 -0.5786 -0.4244  0.1084
 1121SOL     OW 4528   2.913   2.274   1.882 -0.6249  0.2187  0.6167
 1121SOL    HW2 4529   2.995   2.317   1.903 -0.8871  1.0693 -0.0766
 1121SOL    HW3 4530   2.915   2.192   1.931  0.6031  0.2696  0.6573
 1121SOL    MW4 4531   2.924   2.269   1.891 -0.4976  0.3378  0.5306
 1122SOL     OW 4532   2.698   2.418   2.000 -0.3374  0.2553 -0.1164
 1122SOL    HW2 4533   2.717   2.506   1.969  1.2837  0.2469  0.7585
 1122SOL    HW3 4534   2.774   2.366   1.973 -1.8076 -1.1502 -1.6503
 1122SOL    MW4 4535   2.711   2.422   1.993 -0.3178  0.0687 -0.2034
 1123SOL     OW 4536   2.715   2.672   1.898 -0.2861 -0.5852  0.2833
 1123SOL    HW2 4537   2.636   2.717   1.926 -0.4124 -0.4039 -0.3672
 1123SOL    HW3 4538   2.722   2.690   1.805  0.5094 -0.6165  0.3286
 1123SOL    MW4 4539   2.706   2.680   1.890 -0.1976 -0.5655  0.2034
 1124SOL     OW 4540   3.144   2.679   1.868  0.0765 -0.0126 -0.3582
 1124SOL    HW2 4541   3.142   2.679   1.772 -0.7591 -0.4135 -0.3437
 1124SOL    HW3 4542   3.076   2.740   1.894  0.0848 -0.1481 -0.0133
 1124SOL    MW4 4543   3.135   2.687   1.859 -0.0329 -0.0834 -0.3108
 1125SOL     OW 4544   2.911   3.069   1.868  0.0939  0.4586 -0.1786
 1125SOL    HW2 4545   2.990   3.107   1.904 -0.7306  0.7038  1.4192
 1125SOL    HW3 4546   2.841   3.128   1.896 -0.7204 -0.0614 -1.0839
 1125SOL    MW4 4547   2.912   3.082   1.877 -0.1221  0.4222 -0.0871
 1126SOL     OW 4548   2.708   3.218   1.960 -0.4352  0.2009 -0.1950
 1126SOL    HW2 4549   2.695   3.298   1.909  0.0561 -0.6084 -1.6019
 1126SOL    HW3 4550   2.637   3.160   1.933 -1.7654  0.7250  2.0268
 1126SOL    MW4 4551   2.697   3.221   1.950 -0.5457  0.1633 -0.0874
 1127SOL     OW 4552   2.699   3.478   1.835  0.5250  0.1082  0.2675
 1127SOL    HW2 4553   2.771   3.509   1.890  0.0349  0.4792  0.7058
 1127SOL    HW3 4554   2.624   3.531   1.862 -0.3057 -1.3736  0.9441
 1127SOL    MW4 4555   2.699   3.489   1.846  0.3505 -0.0384  0.4146
 1128SOL     OW 4556   3.125   3.470   1.886 -0.0437  0.0604 -0.0115
 1128SOL    HW2 4557   3.204   3.519   1.909  0.6668 -1.5120  1.0193
 1128SOL    HW3 4558   3.128   3.462   1.791  0.2593  1.2943 -0.1087
 1128SOL    MW4 4559   3.136   3.475   1.877  0.0899  0.0160  0.1117
 1129SOL     OW 4560   2.672   4.009   2.001 -0.1536 -0.1648  0.1622
 1129SOL    HW2 4561   2.604   3.948   1.974  0.6415 -1.4078  0.8739
 1129SOL    HW3 4562   2.754   3.963   1.983  0.4291 -0.4191  3.1188
 1129SOL    MW4 4563   2.674   3.995   1.995  0.0281 -0.3624  0.6461
 1130SOL     OW 4564   2.473   3.862   1.913  0.4120 -0.1837  0.2841
 1130SOL    HW2 4565   2.461   3.773   1.944  0.2161  0.4218  2.0464
 1130SOL    HW3 4566   2.392   3.907   1.937  0.9827  0.7472  0.5219
 1130SOL    MW4 4567   2.461   3.856   1.920  0.4613  0.0191  0.5480
 1131SOL     OW 4568   2.661   4.267   1.876 -0.0399  0.1701  0.3704
 1131SOL    HW2 4569   2.650   4.181   1.916  0.2980 -0.5621 -1.0787
 1131SOL    HW3 4570   2.683   4.248   1.784 -0.3041  1.7959 -0.0405
 1131SOL    MW4 4571   2.662   4.253   1.869 -0.0303  0.2880  0.1251
 1132SOL     OW 4572   2.928   4.373   1.950  0.0694  0.6829 -0.2022
 1132SOL    HW2 4573   2.929   4.396   2.043 -1.8385 -0.0663  0.0238
 1132SOL    HW3 4574   2.843   4.332   1.936  1.1913 -1.2405 -1.7931
 1132SOL    MW4 4575   2.917   4.370   1.961 -0.0343  0.3304 -0.3823
 1133SOL     OW 4576   3.360   0.019   1.922 -0.0883  0.0076  0.3856
 1133SOL    HW2 4577   3.390  -0.072   1.932  2.1420  0.6293 -0.2352
 1133SOL    HW3 4578   3.350   0.031   1.828  0.3266  0.6070  0.4136
 1133SOL    MW4 4579   3.363   0.008   1.911  0.2608  0.1687  0.3073
 1134SOL     OW 4580   3.122   0.146   1.994  0.2594 -0.4839  0.6097
 1134SOL    HW2 4581   3.118   0.146   2.090 -1.2313 -0.0398  0.5642
 1134SOL    HW3 4582   3.205   0.103   1.973  1.0734  0.3298  2.1107
 1134SOL    MW4 4583   3.132   0.140   2.004  0.1702 -0.3179  0.8018
 1135SOL     OW 4584   3.164   0.381   1.875 -0.0989 -0.2507  0.1187
 1135SOL    HW2 4585   3.154   0.289   1.902  1.6665 -0.6123 -0.3674
 1135SOL    HW3 4586   3.142   0.381   1.782 -0.1567 -0.1650  0.1327
 1135SOL    MW4 4587   3.160   0.369   1.866  0.1264 -0.2870  0.0564
 1136SOL     OW 4588   3.387   0.506   1.969 -0.3744  0.8449 -0.0687
 1136SOL    HW2 4589   3.475   0.485   1.937 -0.1697  0.7300  0.5477
 1136SOL    HW3 4590   3.329   0.446   1.923  0.0229  0.0319  0.4737
 1136SOL    MW4 4591   3.391   0.495   1.959 -0.2949  0.7225  0.0840
 1137SOL     OW 4592   3.383   0.778   1.898 -0.3114  0.4436  0.1385
 1137SOL    HW2 4593   3.290   0.800   1.903 -0.9844 -1.3403 -3.0133
 1137SOL    HW3 4594   3.388   0.689   1.933  0.6714  1.4502  2.6840
 1137SOL    MW4 4595   3.371   0.769   1.903 -0.2704  0.3411  0.0584
 1138SOL     OW 4596   3.136   0.891   1.889 -0.0391  0.0643  0.3350
 1138SOL    HW2 4597   3.113   0.886   1.982 -1.2333 -0.5361  0.0225
 1138SOL    HW3 4598   3.133   0.984   1.868  0.5164  0.2269  0.9644
 1138SOL    MW4 4599   3.132   0.903   1.899 -0.1233  0.0066  0.3768
 1139SOL     OW 4600   3.122   1.158   1.841 -0.2594 -0.1759 -0.3819
 1139SOL    HW2 4601   3.207   1.187   1.875 -0.3112  0.3692 -0.7033
 1139SOL    HW3 4602   3.058   1.204   1.895 -0.3506 -0.5364 -0.1833
 1139SOL    MW4 4603   3.125   1.168   1.853 -0.2782 -0.1515 -0.3980
 1140SOL     OW 4604   3.348   1.295   1.961 -0.9390 -0.0610 -0.3839
 1140SOL    HW2 4605   3.333   1.295   2.056  1.3605  0.2607  0.0216
 1140SOL    HW3 4606   3.360   1.387   1.939 -0.5976 -0.2050 -0.8140
 1140SOL    MW4 4607   3.348   1.307   1.971 -0.5906 -0.0376 -0.3872
 1141SOL     OW 4608   3.382   1.555   1.875  0.0889  0.1044 -0.3177
 1141SOL    HW2 4609   3.307   1.611   1.895 -0.5501 -0.1510 -1.8886
 1141SOL    HW3 4610   3.459   1.609   1.893 -0.4787  0.5639  0.7454
 1141SOL    MW4 4611   3.382   1.569   1.880 -0.0706  0.1314 -0.3846
 1142SOL     OW 4612   3.123   1.664   1.967  0.1771 -0.2082  0.3720
 1142SOL    HW2 4613   3.136   1.754   1.938  0.7282 -0.1123  0.9222
 1142SOL    HW3 4614   3.144   1.665   2.060 -0.4489 -0.7709  0.5235
 1142SOL    MW4 4615   3.127   1.676   1.975  0.1674 -0.2697  0.4646
 1143SOL     OW 4616   3.196   1.920   1.882  0.5874  0.5205 -0.1516
 1143SOL    HW2 4617   3.284   1.951   1.905 -0.0062  2.1597 -0.0288
 1143SOL    HW3 4618   3.193   1.926   1.787 -0.1890  2.7389 -0.0116
 1143SOL    MW4 4619   3.208   1.924   1.873  0.4065  1.0295 -0.1169
 1144SOL     OW 4620   3.421   2.072   1.951  0.3151 -0.1706 -0.6922
 1144SOL    HW2 4621   3.516   2.066   1.957  0.1833 -0.7617  1.0097
 1144SOL    HW3 4622   3.404   2.159   1.915  1.5002 -0.0682 -0.9917
 1144SOL    MW4 4623   3.431   2.083   1.947  0.4542 -0.2351 -0.5071
 1145SOL     OW 4624   3.378   2.306   1.822 -0.3133 -0.1136  0.5104
 1145SOL    HW2 4625   3.287   2.320   1.847 -0.0923 -0.4410  1.5471
 1145SOL    HW3 4626   3.379   2.314   1.727 -1.2380  0.9522  0.5779
 1145SOL    MW4 4627   3.366   2.309   1.813 -0.4060 -0.0160  0.6561
 1146SOL     OW 4628   3.155   2.408   1.976  0.4240 -0.4436  0.1708
 1146SOL    HW2 4629   3.138   2.437   2.066 -1.6947 -0.4495 -0.1888
 1146SOL    HW3 4630   3.164   2.489   1.926  0.5770 -0.4378  0.2067
 1146SOL    MW4 4631   3.154   2.423   1.981  0.1645 -0.4435  0.1281
 1147SOL     OW 4632   2.930   2.823   1.987  0.7399  0.0876  0.5120
 1147SOL    HW2 4633   2.924   2.913   1.956 -1.3627  0.6093  2.3090
 1147SOL    HW3 4634   2.855   2.779   1.950  0.3682 -0.2690  1.6578
 1147SOL    MW4 4635   2.920   2.829   1.978  0.4134  0.1097  0.9003
 1148SOL     OW 4636   3.362   2.836   1.938 -0.0025 -0.3574  0.6859
 1148SOL    HW2 4637   3.376   2.825   2.032  0.5111  0.2817  0.6943
 1148SOL    HW3 4638   3.296   2.771   1.915  0.1322 -0.7591  1.4209
 1148SOL    MW4 4639   3.355   2.826   1.947  0.0832 -0.3262  0.7839
 1149SOL     OW 4640   3.376   3.108   1.852  0.3086  0.2588 -0.3833
 1149SOL    HW2 4641   3.455   3.156   1.876  0.6587 -0.5034  0.0045
 1149SOL    HW3 4642   3.383   3.025   1.899 -0.5032  0.0037 -0.7018
 1149SOL    MW4 4643   3.387   3.104   1.861  0.2475  0.1247 -0.3743
 1150SOL     OW 4644   3.141   3.206   1.965 -0.4959 -0.0529 -0.2676
 1150SOL    HW2 4645   3.147   3.299   1.947 -0.3158 -0.2558 -1.2778
 1150SOL    HW3 4646   3.216   3.167   1.921 -0.9116 -0.7512 -0.3825
 1150SOL    MW4 4647   3.151   3.213   1.957 -0.5269 -0.1717 -0.4162
 1151SOL     OW 4648   2.899   3.589   1.994 -0.1222  0.2084  0.1184
 1151SOL    HW2 4649   2.894   3.567   2.087 -2.0419 -1.2136 -0.2975
 1151SOL    HW3 4650   2.979   3.546   1.964  0.2481  0.2683  0.9998
 1151SOL    MW4 4651   2.909   3.581   2.002 -0.3266  0.0284  0.1795
 1152SOL     OW 4652   3.356   3.591   1.953  0.4028 -0.1631 -0.3026
 1152SOL    HW2 4653   3.441   3.566   1.916  1.0128  0.6137  0.5642
 1152SOL    HW3 4654   3.351   3.686   1.939 -1.4546 -0.5622 -2.6495
 1152SOL    MW4 4655   3.367   3.600   1.946  0.2382 -0.1132 -0.4979
 1153SOL     OW 4656   3.367   3.869   1.901 -0.0198  0.4737 -0.7126
 1153SOL    HW2 4657   3.295   3.920   1.938  0.3516  0.1320  0.5177
 1153SOL    HW3 4658   3.375   3.900   1.811 -1.3159  0.9334 -0.6853
 1153SOL    MW4 4659   3.359   3.880   1.894 -0.1416  0.4895 -0.5466
 1154SOL     OW 4660   3.150   3.997   2.007 -0.0589 -0.0072  0.1885
 1154SOL    HW2 4661   3.134   4.019   2.099 -2.7157  0.7499 -0.3991
 1154SOL    HW3 4662   3.074   3.944   1.982  1.2824 -1.3071 -1.2383
 1154SOL    MW4 4663   3.137   3.993   2.016 -0.2327 -0.0792 -0.0775
 1155SOL     OW 4664   3.183   4.255   1.843  0.1462  0.3315  0.0680
 1155SOL    HW2 4665   3.185   4.166   1.879  1.6618  0.4017  0.1634
 1155SOL    HW3 4666   3.105   4.294   1.882 -2.3820 -1.9775 -2.4300
 1155SOL    MW4 4667   3.173   4.248   1.853  0.0124  0.0362 -0.2490
 1156SOL     OW 4668   3.403   4.401   1.964  0.2248 -0.7226 -0.3122
 1156SOL    HW2 4669   3.476   4.349   1.930  0.9530 -1.4312  2.2225
 1156SOL    HW3 4670   3.326   4.366   1.919  1.2519 -0.9299 -1.9545
 1156SOL    MW4 4671   3.402   4.389   1.954  0.4563 -0.8435 -0.1944
 1157SOL     OW 4672   3.825   4.650   1.860 -0.3813  0.1713 -0.2734
 1157SOL    HW2 4673   3.816   4.567   1.906 -0.0466 -0.7224 -1.8110
 1157SOL    HW3 4674   3.753   4.704   1.894 -0.6364 -0.7512  0.6726
 1157SOL    MW4 4675   3.814   4.646   1.871 -0.3705 -0.0682 -0.3515
 1158SOL     OW 4676   3.611   0.139   1.967  0.3982  0.0492 -0.0751
 1158SOL    HW2 4677   3.630   0.128   2.060 -0.4611  0.1236  0.1108
 1158SOL    HW3 4678   3.528   0.093   1.954  0.7684 -0.3774 -0.9020
 1158SOL    MW4 4679   3.602   0.132   1.978  0.3338  0.0027 -0.1596
 1159SOL     OW 4680   3.646   0.416   1.907 -0.1017 -0.4106  0.4055
 1159SOL    HW2 4681   3.642   0.322   1.923  0.2825 -0.5448 -0.2976
 1159SOL    HW3 4682   3.628   0.426   1.814 -0.5134  0.2402  0.5489
 1159SOL    MW4 4683   3.643   0.405   1.897 -0.1056 -0.3424  0.3316
 1160SOL     OW 4684   3.866   0.543   1.969  0.1264  0.2211  0.9412
 1160SOL    HW2 4685   3.832   0.630   1.986 -0.1147  0.0255  1.4885
 1160SOL    HW3 4686   3.788   0.491   1.947  0.1318 -0.0944  1.6393
 1160SOL    MW4 4687   3.851   0.547   1.969  0.0951  0.1537  1.1057
 1161SOL     OW 4688   3.801   0.814   1.964 -0.7153 -0.0446 -0.3328
 1161SOL    HW2 4689   3.718   0.850   1.995 -0.5796 -0.1254  0.1356
 1161SOL    HW3 4690   3.794   0.815   1.869 -0.9306  0.6962 -0.3084
 1161SOL    MW4 4691   3.789   0.819   1.956 -0.7257  0.0425 -0.2679
 1162SOL     OW 4692   3.578   0.927   2.018  0.3965  0.0791 -0.0854
 1162SOL    HW2 4693   3.581   1.020   1.995 -1.4696  0.5624  1.4559
 1162SOL    HW3 4694   3.508   0.891   1.963  1.7263 -0.6164 -1.3322
 1162SOL    MW4 4695   3.569   0.934   2.008  0.3257  0.0511 -0.0465
 1163SOL     OW 4696   3.594   1.180   1.862 -0.2415  0.3090 -0.3499
 1163SOL    HW2 4697   3.505   1.205   1.889 -0.1102 -0.8050  1.1647
 1163SOL    HW3 4698   3.589   1.173   1.767 -1.8751 -0.1140 -0.2481
 1163SOL    MW4 4699   3.582   1.183   1.853 -0.4396  0.1061 -0.1365
 1164SOL     OW 4700   3.830   1.281   1.934 -0.0225  0.3017 -0.0437
 1164SOL    HW2 4701   3.822   1.262   2.028 -0.7355  1.1573  0.0825
 1164SOL    HW3 4702   3.748   1.248   1.896  0.8736 -1.3319 -0.5999
 1164SOL    MW4 4703   3.818   1.274   1.942  0.0017  0.1991 -0.1003
 1165SOL     OW 4704   3.790   1.501   1.595  0.5856  0.1416  0.2628
 1165SOL    HW2 4705   3.704   1.532   1.565 -1.4756 -4.0820  1.5199
 1165SOL    HW3 4706   3.784   1.502   1.690  1.6174 -1.0735  0.3427
 1165SOL    MW4 4707   3.778   1.505   1.603  0.4497 -0.5760  0.4393
 1166SOL     OW 4708   3.592   1.716   1.963 -0.4779  0.3308 -0.3872
 1166SOL    HW2 4709   3.578   1.769   1.885  0.6222  1.2450  0.0170
 1166SOL    HW3 4710   3.674   1.670   1.947 -0.9786 -0.5831 -0.3627
 1166SOL    MW4 4711   3.601   1.717   1.951 -0.3991  0.3308 -0.3307
 1167SOL     OW 4712   3.736   2.029   1.928 -0.0612  0.0210 -0.5134
 1167SOL    HW2 4713   3.752   2.046   2.021 -0.7496 -2.9307  0.1869
 1167SOL    HW3 4714   3.822   2.004   1.893  0.1682  0.9876 -0.6640
 1167SOL    MW4 4715   3.749   2.028   1.935 -0.1216 -0.2408 -0.4410
 1168SOL     OW 4716   3.983   1.916   1.818  0.1447 -0.2663  0.3119
 1168SOL    HW2 4717   4.035   1.914   1.738 -0.7300 -2.0366 -0.2377
 1168SOL    HW3 4718   3.994   1.829   1.856  0.6382  0.5907  2.1952
 1168SOL    MW4 4719   3.991   1.904   1.812  0.0944 -0.3868  0.4878
 1169SOL     OW 4720   3.768   2.299   1.857  0.4389  0.0646 -0.0691
 1169SOL    HW2 4721   3.856   2.332   1.879 -0.2066  0.7375  1.5362
 1169SOL    HW3 4722   3.768   2.208   1.885  0.6279  0.0526 -0.1068
 1169SOL    MW4 4723   3.780   2.292   1.863  0.3786  0.1519  0.1377
 1170SOL     OW 4724   3.576   2.461   1.986  0.0702  0.3333 -0.4819
 1170SOL    HW2 4725   3.650   2.411   1.951  0.5347  1.1991 -0.7478
 1170SOL    HW3 4726   3.500   2.426   1.941  0.3497 -0.3976 -0.3889
 1170SOL    MW4 4727   3.576   2.450   1.975  0.1681  0.3510 -0.5046
 1171SOL     OW 4728   3.590   2.697   1.854  0.0579 -0.5486  0.0894
 1171SOL    HW2 4729   3.593   2.613   1.901 -0.4658  0.4535  1.9563
 1171SOL    HW3 4730   3.510   2.740   1.886 -0.3168  0.1733 -1.7352
 1171SOL    MW4 4731   3.580   2.691   1.864 -0.0608 -0.3211  0.0950
 1172SOL     OW 4732   3.797   2.823   1.975 -0.1278 -0.0761 -0.1306
 1172SOL    HW2 4733   3.804   2.911   1.937 -0.2971 -0.3166 -0.7112
 1172SOL    HW3 4734   3.718   2.786   1.936  0.2928 -0.7283 -0.3563
 1172SOL    MW4 4735   3.787   2.830   1.965 -0.0944 -0.1938 -0.2371
 1173SOL     OW 4736   3.840   3.073   1.877 -0.5904  0.0859 -0.1293
 1173SOL    HW2 4737   3.765   3.121   1.913 -0.2513  0.3369  0.2354
 1173SOL    HW3 4738   3.814   3.053   1.787 -0.4144  1.6063 -0.5209
 1173SOL    MW4 4739   3.826   3.077   1.870 -0.5221  0.3192 -0.1328
 1174SOL     OW 4740   3.611   3.205   1.978 -0.0234  0.1996 -0.1424
 1174SOL    HW2 4741   3.601   3.216   2.073 -0.0039 -0.1146 -0.1053
 1174SOL    HW3 4742   3.603   3.294   1.943 -0.6423  0.2372  0.0938
 1174SOL    MW4 4743   3.609   3.218   1.986 -0.1023  0.1631 -0.1063
 1175SOL     OW 4744   3.586   3.464   1.849 -0.0075  0.2452 -0.8374
 1175SOL    HW2 4745   3.662   3.490   1.901 -0.5938  0.8366 -0.2624
 1175SOL    HW3 4746   3.613   3.475   1.758  0.7477  0.0084 -0.6448
 1175SOL    MW4 4747   3.599   3.469   1.844  0.0148  0.2921 -0.7361
 1176SOL     OW 4748   3.813   3.575   1.964 -0.4611 -0.3021 -0.1615
 1176SOL    HW2 4749   3.896   3.541   1.932 -0.9282 -0.6062 -1.0566
 1176SOL    HW3 4750   3.801   3.657   1.917 -0.0005  0.4525  0.9948
 1176SOL    MW4 4751   3.823   3.582   1.954 -0.4621 -0.2429 -0.1271
 1177SOL     OW 4752   3.807   3.828   1.861  0.1178 -0.0235 -0.2822
 1177SOL    HW2 4753   3.729   3.874   1.892 -0.7275 -0.2779 -1.9194
 1177SOL    HW3 4754   3.815   3.854   1.769  1.7771 -0.2712 -0.2252
 1177SOL    MW4 4755   3.798   3.837   1.853  0.2255 -0.0896 -0.4905
 1178SOL     OW 4756   3.597   3.980   1.982 -0.3156 -0.0246 -0.2988
 1178SOL    HW2 4757   3.606   3.989   2.077 -1.3736  0.2840 -0.2211
 1178SOL    HW3 4758   3.509   3.946   1.969 -0.3774  0.4508 -1.2025
 1178SOL    MW4 4759   3.587   3.977   1.993 -0.4635  0.0787 -0.4079
 1179SOL     OW 4760   3.609   4.268   1.864 -0.6966  0.2729 -0.3374
 1179SOL    HW2 4761   3.676   4.320   1.908 -1.5783  1.0885  0.0370
 1179SOL    HW3 4762   3.614   4.182   1.907  1.2832 -0.2336 -1.4750
 1179SOL    MW4 4763   3.619   4.263   1.875 -0.5515  0.3142 -0.4381
 1180SOL     OW 4764   3.814   4.399   1.990  0.3797 -0.1070 -0.2729
 1180SOL    HW2 4765   3.817   4.396   2.086 -0.4545 -1.5227 -0.2764
 1180SOL    HW3 4766   3.894   4.353   1.963 -0.6071 -1.9035 -0.2402
 1180SOL    MW4 4767   3.825   4.392   1.999  0.1395 -0.5302 -0.2689
 1181SOL     OW 4768   4.201   4.612   1.888 -0.5434 -0.0154 -0.1314
 1181SOL    HW2 4769   4.136   4.669   1.931 -1.5014 -0.7533 -0.5817
 1181SOL    HW3 4770   4.282   4.663   1.891 -1.3135  1.2626 -0.2638
 1181SOL    MW4 4771   4.203   4.627   1.894 -0.7720  0.0558 -0.2083
 1182SOL     OW 4772   4.029   0.138   1.986  0.2731  0.3817  0.5070
 1182SOL    HW2 4773   4.030   0.124   2.081  0.0701 -0.7372  0.3549
 1182SOL    HW3 4774   3.967   0.073   1.953  1.4275 -0.2251 -0.5257
 1182SOL    MW4 4775   4.021   0.127   1.994  0.3982  0.1540  0.3507
 1183SOL     OW 4776   4.046   0.359   1.821  1.1646 -0.3009  0.0083
 1183SOL    HW2 4777   4.022   0.279   1.868  0.5554  0.4525  0.9975
 1183SOL    HW3 4778   3.987   0.426   1.855  1.5654  0.5421 -0.9218
 1183SOL    MW4 4779   4.035   0.357   1.832  1.1368 -0.0903  0.0161
 1184SOL     OW 4780   4.265   0.462   1.930  0.0023 -0.2900  0.0922
 1184SOL    HW2 4781   4.252   0.452   2.024  2.0493 -2.4327  0.2024
 1184SOL    HW3 4782   4.187   0.421   1.891 -0.6463  0.2212  0.8271
 1184SOL    MW4 4783   4.253   0.455   1.937  0.1864 -0.5052  0.2036
 1185SOL     OW 4784   4.257   0.717   1.868 -0.2522 -0.2092  0.1942
 1185SOL    HW2 4785   4.275   0.629   1.902  0.0567 -0.0262  0.5063
 1185SOL    HW3 4786   4.258   0.706   1.773  0.8408 -0.3414  0.2098
 1185SOL    MW4 4787   4.259   0.704   1.860 -0.0668 -0.2025  0.2373
 1186SOL     OW 4788   4.056   0.904   1.969  0.1937  0.1708 -0.1647
 1186SOL    HW2 4789   4.122   0.842   1.938 -0.9328 -0.5522 -1.1471
 1186SOL    HW3 4790   3.973   0.859   1.958 -0.6519  1.8327 -0.8436
 1186SOL    MW4 4791   4.054   0.890   1.964 -0.0668  0.2947 -0.3837
 1187SOL     OW 4792   4.053   1.157   1.813  0.3620 -0.2195  0.0578
 1187SOL    HW2 4793   4.037   1.075   1.861 -0.0419  0.4035  1.0089
 1187SOL    HW3 4794   3.986   1.217   1.846  1.0295  0.6747 -0.1963
 1187SOL    MW4 4795   4.042   1.154   1.824  0.3963 -0.0193  0.1497
 1188SOL     OW 4796   4.270   1.252   1.978  0.1371 -0.2963  0.6977
 1188SOL    HW2 4797   4.241   1.257   2.069 -1.6081 -1.1081  0.2040
 1188SOL    HW3 4798   4.196   1.212   1.931  2.0864 -2.4726 -0.6125
 1188SOL    MW4 4799   4.256   1.248   1.984  0.1640 -0.6906  0.4598
 1189SOL     OW 4800   4.050   1.677   1.939 -0.2687  0.4185 -0.3133
 1189SOL    HW2 4801   4.027   1.663   2.031  1.7150  0.4243  0.2112
 1189SOL    HW3 4802   4.121   1.614   1.923 -0.3692  0.6659 -1.7400
 1189SOL    MW4 4803   4.056   1.667   1.949 -0.0200  0.4518 -0.4324
 1190SOL     OW 4804   3.804   1.552   1.866  0.2597 -0.1899 -0.3653
 1190SOL    HW2 4805   3.891   1.591   1.880 -0.1350  0.3934  0.4360
 1190SOL    HW3 4806   3.815   1.461   1.893  0.0138  0.4456  1.9967
 1190SOL    MW4 4807   3.817   1.545   1.871  0.1750 -0.0290  0.0520
 1191SOL     OW 4808   4.249   2.018   1.920 -0.1322 -0.0140  0.6993
 1191SOL    HW2 4809   4.253   2.024   2.015 -0.1831 -0.8013  0.7547
 1191SOL    HW3 4810   4.157   1.997   1.901 -0.5401  1.9200  0.3639
 1191SOL    MW4 4811   4.237   2.016   1.930 -0.1931  0.1373  0.6623
 1192SOL     OW 4812   4.266   2.277   1.825 -0.2123  0.3356 -0.3180
 1192SOL    HW2 4813   4.351   2.312   1.853  0.5176  0.2617 -2.3933
 1192SOL    HW3 4814   4.265   2.187   1.859  0.8082  0.1255 -0.8384
 1192SOL    MW4 4815   4.277   2.269   1.833  0.0191  0.2983 -0.6607
 1193SOL     OW 4816   4.251   2.307   1.560  0.0163  0.2971  0.5006
 1193SOL    HW2 4817   4.263   2.294   1.654 -0.5001  1.2562  0.7035
 1193SOL    HW3 4818   4.276   2.223   1.521 -1.5473 -0.6997  1.6199
 1193SOL    MW4 4819   4.256   2.294   1.567 -0.2580  0.2921  0.6751
 1194SOL     OW 4820   4.017   2.381   1.924 -0.5123  0.0788 -0.4691
 1194SOL    HW2 4821   4.102   2.350   1.893 -0.3498  0.5171 -0.4673
 1194SOL    HW3 4822   4.026   2.383   2.019 -1.4245 -2.4533 -0.3027
 1194SOL    MW4 4823   4.029   2.377   1.932 -0.6108 -0.1972 -0.4470
 1195SOL     OW 4824   4.041   2.676   1.882  0.4593  0.1337  0.0765
 1195SOL    HW2 4825   4.026   2.585   1.905 -0.2367 -0.0533 -1.0547
 1195SOL    HW3 4826   3.960   2.721   1.906  0.1815  0.1487 -0.8342
 1195SOL    MW4 4827   4.028   2.670   1.888  0.3304  0.1109 -0.1930
 1196SOL     OW 4828   4.293   2.804   1.972  0.0531  0.2130  0.2843
 1196SOL    HW2 4829   4.292   2.842   2.059  0.2568 -0.4538  0.5818
 1196SOL    HW3 4830   4.210   2.756   1.966  1.5511 -2.5781  1.3907
 1196SOL    MW4 4831   4.282   2.803   1.982  0.2775 -0.2434  0.4694
 1197SOL     OW 4832   4.326   3.042   1.852 -0.1529 -0.1174  0.2698
 1197SOL    HW2 4833   4.259   3.089   1.902 -0.1581  0.4952 -0.3132
 1197SOL    HW3 4834   4.320   2.952   1.885 -0.4285  0.1881  1.0927
 1197SOL    MW4 4835   4.316   3.036   1.863 -0.1903  0.0038  0.3014
 1198SOL     OW 4836   4.094   3.196   1.935  0.1739 -0.0356 -0.1656
 1198SOL    HW2 4837   4.080   3.221   2.026  1.0723 -0.3348  0.0605
 1198SOL    HW3 4838   4.012   3.154   1.909  0.7252 -2.1013  1.2520
 1198SOL    MW4 4839   4.081   3.193   1.944  0.3662 -0.3479  0.0515
 1199SOL     OW 4840   4.062   3.463   1.896 -0.0552 -0.4440 -0.5997
 1199SOL    HW2 4841   4.143   3.511   1.912 -0.1125  0.2489 -2.3145
 1199SOL    HW3 4842   4.083   3.372   1.918  0.9995 -0.1659 -0.4455
 1199SOL    MW4 4843   4.075   3.458   1.901  0.0768 -0.3159 -0.8056
 1200SOL     OW 4844   4.318   3.591   1.947 -0.3064  0.2359  0.6488
 1200SOL    HW2 4845   4.321   3.679   1.912  1.9569  0.2918  0.9237
 1200SOL    HW3 4846   4.389   3.544   1.903  0.0668 -0.7606  2.2326
 1200SOL    MW4 4847   4.328   3.596   1.937  0.0415  0.1118  0.8941
 1201SOL     OW 4848   4.254   3.863   1.867 -0.0393 -0.2644 -0.0879
 1201SOL    HW2 4849   4.310   3.915   1.924 -0.2386  0.6359 -0.6959
 1201SOL    HW3 4850   4.280   3.889   1.778 -1.3238  0.0784 -0.3776
 1201SOL    MW4 4851   4.265   3.873   1.862 -0.2351 -0.1004 -0.2065
 1202SOL     OW 4852   4.020   3.992   1.964 -0.0536 -0.1272  0.3179
 1202SOL    HW2 4853   4.092   3.945   1.922 -0.1590 -0.9721  1.0680
 1202SOL    HW3 4854   3.941   3.946   1.935 -0.4143  1.5403 -1.4905
 1202SOL    MW4 4855   4.019   3.980   1.955 -0.1159 -0.0188  0.1781
 1203SOL     OW 4856   4.042   4.261   1.883  0.4862 -0.3688 -0.1263
 1203SOL    HW2 4857   4.128   4.294   1.908 -0.3083  1.3230  0.4028
 1203SOL    HW3 4858   4.045   4.168   1.905  2.6305 -0.6165 -1.3287
 1203SOL    MW4 4859   4.053   4.253   1.889  0.6642 -0.1783 -0.2152
 1204SOL     OW 4860   4.268   4.379   2.000 -0.5951 -0.4540  0.4739
 1204SOL    HW2 4861   4.262   4.385   2.095  1.2797  0.4579  0.5570
 1204SOL    HW3 4862   4.257   4.469   1.969  0.1118 -0.5608 -0.0876
 1204SOL    MW4 4863   4.266   4.392   2.008 -0.2551 -0.3481  0.4108
 1205SOL     OW 4864   0.185   4.624   2.334 -0.0904  0.1808  0.1686
 1205SOL    HW2 4865   0.211   4.623   2.426 -0.5363  0.8371  0.3023
 1205SOL    HW3 4866   0.261   4.659   2.288  0.3151 -0.5995  0.2218
 1205SOL    MW4 4867   0.198   4.628   2.340 -0.0957  0.1645  0.1931
 1206SOL     OW 4868   4.444   0.088   2.248  0.2052  0.0219  0.0980
 1206SOL    HW2 4869   4.524   0.049   2.284 -0.5955 -0.6989  1.1259
 1206SOL    HW3 4870   4.460   0.092   2.153  1.5332  0.0766  0.3100
 1206SOL    MW4 4871   4.457   0.083   2.240  0.2747 -0.0659  0.2615
 1207SOL     OW 4872   4.429   0.359   2.355  0.0856  0.5762 -0.2258
 1207SOL    HW2 4873   4.494   0.411   2.308  0.7814 -0.1721 -0.1080
 1207SOL    HW3 4874   4.442   0.269   2.323  1.3693 -0.1626  2.2275
 1207SOL    MW4 4875   4.439   0.354   2.344  0.3467  0.3800  0.1137
 1208SOL     OW 4876   0.153   0.473   2.243 -0.1971  0.0384  0.1338
 1208SOL    HW2 4877   0.228   0.439   2.292 -0.6409 -0.5437  0.4048
 1208SOL    HW3 4878   0.184   0.474   2.152 -0.4380 -1.8489  0.0073
 1208SOL    MW4 4879   0.167   0.469   2.237 -0.2874 -0.2874  0.1528
 1209SOL     OW 4880   0.219   0.745   2.295  0.0980 -0.4287  0.1165
 1209SOL    HW2 4881   0.214   0.738   2.390  0.6000 -1.9439  0.0466
 1209SOL    HW3 4882   0.187   0.661   2.263  1.2478 -0.4476 -1.0082
 1209SOL    MW4 4883   0.214   0.733   2.303  0.3159 -0.6312 -0.0410
 1210SOL     OW 4884   4.481   0.879   2.228 -0.3704  0.5319 -0.3010
 1210SOL    HW2 4885   4.566   0.840   2.250 -0.5874  0.6820  0.8053
 1210SOL    HW3 4886   4.479   0.879   2.132  0.0355 -1.3073 -0.3284
 1210SOL    MW4 4887   4.492   0.874   2.218 -0.3452  0.3091 -0.1588
 1211SOL     OW 4888   4.446   1.129   2.297  0.3135 -0.2030 -0.6045
 1211SOL    HW2 4889   4.433   1.133   2.392  0.5595  0.3615 -0.5928
 1211SOL    HW3 4890   4.463   1.036   2.280 -1.2493 -0.5531 -0.3077
 1211SOL    MW4 4891   4.447   1.117   2.308  0.1397 -0.1746 -0.5639
 1212SOL     OW 4892   0.197   1.203   2.187  0.0580  0.0595 -0.5522
 1212SOL    HW2 4893   0.111   1.172   2.215 -0.1043  0.5952 -0.4429
 1212SOL    HW3 4894   0.190   1.212   2.092  0.1686 -0.4208 -0.6086
 1212SOL    MW4 4895   0.185   1.200   2.178  0.0512  0.0668 -0.5455
 1213SOL     OW 4896   0.201   1.472   2.315  0.1261 -0.3602 -0.4095
 1213SOL    HW2 4897   0.213   1.451   2.407 -0.1791 -0.4663 -0.3922
 1213SOL    HW3 4898   0.186   1.388   2.273  0.4963 -0.3343 -0.5928
 1213SOL    MW4 4899   0.201   1.458   2.322  0.1347 -0.3707 -0.4311
 1214SOL     OW 4900   0.002   1.629   2.201  0.0760 -0.0465  0.2332
 1214SOL    HW2 4901   0.014   1.717   2.236  1.1015 -0.0686 -0.0474
 1214SOL    HW3 4902   0.072   1.578   2.242 -1.5080 -1.1062  1.6740
 1214SOL    MW4 4903   0.013   1.634   2.211  0.0029 -0.1893  0.3862
 1215SOL     OW 4904   0.002   1.889   2.329  0.2049  0.1219  0.0337
 1215SOL    HW2 4905  -0.073   1.922   2.280 -0.8963 -0.9298  0.9920
 1215SOL    HW3 4906   0.073   1.951   2.309 -1.3914  2.2000  0.5839
 1215SOL    MW4 4907   0.002   1.902   2.320 -0.1512  0.2573  0.2327
 1216SOL     OW 4908   0.204   2.039   2.229  0.1505  0.5679  0.4264
 1216SOL    HW2 4909   0.277   2.000   2.278 -0.3631 -1.0050 -0.0333
 1216SOL    HW3 4910   0.228   2.029   2.137  0.4882  2.3064  0.3053
 1216SOL    MW4 4911   0.216   2.033   2.224  0.1273  0.5896  0.3498
 1217SOL     OW 4912   0.256   2.287   2.297  0.0587  0.2347 -0.5293
 1217SOL    HW2 4913   0.253   2.305   2.391  0.0972 -0.4158 -0.4026
 1217SOL    HW3 4914   0.227   2.196   2.289  0.0751  0.2818 -1.1456
 1217SOL    MW4 4915   0.252   2.278   2.308  0.0660  0.1550 -0.5941
 1218SOL     OW 4916   0.016   2.381   2.228  0.0705 -0.4326  0.6359
 1218SOL    HW2 4917   0.018   2.475   2.249  0.8977 -0.2452 -0.2429
 1218SOL    HW3 4918   0.108   2.355   2.230  0.0622 -0.6869 -1.4976
 1218SOL    MW4 4919   0.028   2.390   2.231  0.1786 -0.4413  0.2382
 1219SOL     OW 4920   0.019   2.659   2.304  0.2351 -0.0738 -0.1305
 1219SOL    HW2 4921   0.024   2.656   2.400 -0.8596  0.1768 -0.0563
 1219SOL    HW3 4922   0.103   2.696   2.277  0.2938  0.4709  0.7677
 1219SOL    MW4 4923   0.031   2.663   2.313  0.0978  0.0310 -0.0021
 1220SOL     OW 4924   0.259   2.777   2.231 -0.1671  0.5982 -0.7493
 1220SOL    HW2 4925   0.346   2.739   2.242  0.8310  2.5325 -1.6634
 1220SOL    HW3 4926   0.256   2.803   2.139 -1.9647 -0.0187 -0.8899
 1220SOL    MW4 4927   0.270   2.775   2.220 -0.2726  0.7720 -0.8883
 1221SOL     OW 4928   0.240   3.064   2.313 -0.1575 -0.0899 -0.4536
 1221SOL    HW2 4929   0.160   3.092   2.267  0.2674  0.5528 -0.8168
 1221SOL    HW3 4930   0.246   2.970   2.296 -1.1678 -0.2505  0.0855
 1221SOL    MW4 4931   0.230   3.055   2.304 -0.2347 -0.0262 -0.4306
 1222SOL     OW 4932   0.025   3.178   2.193 -0.8870 -0.1516  0.3553
 1222SOL    HW2 4933   0.039   3.267   2.225 -0.2859 -0.5131  1.1018
 1222SOL    HW3 4934   0.044   3.183   2.099 -1.9174  0.7430  0.1874
 1222SOL    MW4 4935   0.029   3.191   2.185 -0.9437 -0.0813  0.4318
 1223SOL     OW 4936   0.032   3.453   2.318 -0.2630 -0.6645 -0.0023
 1223SOL    HW2 4937   0.043   3.468   2.412 -0.2680 -0.3770 -0.0460
 1223SOL    HW3 4938  -0.058   3.482   2.300 -0.6036 -1.6514  0.0884
 1223SOL    MW4 4939   0.021   3.459   2.328 -0.3086 -0.7567  0.0041
 1224SOL     OW 4940   0.243   3.619   2.228  0.0865 -0.2152  0.0213
 1224SOL    HW2 4941   0.320   3.597   2.280 -0.0631  2.2721  1.3853
 1224SOL    HW3 4942   0.178   3.553   2.253  0.4541  0.1523  2.0217
 1224SOL    MW4 4943   0.244   3.607   2.239  0.1153  0.1616  0.4652
 1225SOL     OW 4944   0.201   3.881   2.359 -0.1003  0.6692 -0.1175
 1225SOL    HW2 4945   0.124   3.930   2.328  0.2900  0.7673 -0.9507
 1225SOL    HW3 4946   0.202   3.802   2.305  1.0583  1.2301 -0.9380
 1225SOL    MW4 4947   0.191   3.877   2.348  0.1040  0.7563 -0.3357
 1226SOL     OW 4948   4.484   4.037   2.283 -0.8714 -0.5280 -0.0008
 1226SOL    HW2 4949   4.430   3.960   2.301  0.4596 -1.7039 -0.9040
 1226SOL    HW3 4950   4.488   4.042   2.188 -0.2735  0.1596  0.0572
 1226SOL    MW4 4951   4.477   4.027   2.273 -0.6169 -0.5922 -0.1123
 1227SOL     OW 4952   0.018   4.272   2.416  0.0244 -0.5000  0.0468
 1227SOL    HW2 4953   0.006   4.272   2.510 -1.1325 -1.3134 -0.0974
 1227SOL    HW3 4954   0.003   4.181   2.389  1.2531 -0.4673 -0.8051
 1227SOL    MW4 4955   0.015   4.260   2.425  0.0339 -0.6027 -0.0846
 1228SOL     OW 4956   0.261   4.354   2.270 -0.2386 -0.0002  0.2162
 1228SOL    HW2 4957   0.188   4.301   2.303 -0.3681 -0.1421 -0.2898
 1228SOL    HW3 4958   0.233   4.444   2.285 -0.1287 -0.0701  0.8459
 1228SOL    MW4 4959   0.248   4.359   2.276 -0.2411 -0.0291  0.2325
 1229SOL     OW 4960   0.675   4.638   2.327 -0.0845 -0.1425  0.2608
 1229SOL    HW2 4961   0.653   4.631   2.420  0.6923  0.2586  0.4822
 1229SOL    HW3 4962   0.768   4.662   2.326  0.2020 -1.2665 -0.6383
 1229SOL    MW4 4963   0.684   4.640   2.339  0.0558 -0.2384  0.1712
 1230SOL     OW 4964   0.412   0.072   2.248  0.3372  0.1562  0.1087
 1230SOL    HW2 4965   0.499   0.032   2.259  1.3037  2.2702  0.4380
 1230SOL    HW3 4966   0.408   0.095   2.156  0.4650  0.8152  0.2678
 1230SOL    MW4 4967   0.423   0.069   2.237  0.4815  0.5221  0.1731
 1231SOL     OW 4968   0.380   0.339   2.346  0.2342 -0.1895 -0.2879
 1231SOL    HW2 4969   0.422   0.341   2.432  1.2547 -0.3155 -0.7686
 1231SOL    HW3 4970   0.376   0.246   2.323  0.3043 -0.1315 -0.5370
 1231SOL    MW4 4971   0.385   0.327   2.354  0.3781 -0.1985 -0.3839
 1232SOL     OW 4972   0.638   0.454   2.270  0.1020  0.0305  0.8440
 1232SOL    HW2 4973   0.648   0.540   2.311 -1.4382  0.4356  0.4068
 1232SOL    HW3 4974   0.548   0.428   2.291  0.1880 -0.9709  0.0148
 1232SOL    MW4 4975   0.627   0.462   2.278 -0.0898 -0.0482  0.6769
 1233SOL     OW 4976   0.678   0.730   2.366  0.2049  0.2287  0.0792
 1233SOL    HW2 4977   0.657   0.738   2.459  0.0190  1.6053 -0.0687
 1233SOL    HW3 4978   0.601   0.766   2.321 -0.0030 -1.0852 -0.6283
 1233SOL    MW4 4979   0.665   0.736   2.372  0.1529  0.2370 -0.0336
 1234SOL     OW 4980   0.478   0.851   2.226  0.5006 -0.2633 -0.1621
 1234SOL    HW2 4981   0.393   0.814   2.250 -0.1176  0.3684 -1.3189
 1234SOL    HW3 4982   0.481   0.844   2.131  1.5400  0.1722 -0.1668
 1234SOL    MW4 4983   0.467   0.845   2.217  0.5562 -0.1225 -0.3152
 1235SOL     OW 4984   0.421   1.094   2.309  0.2652 -0.2465  0.2348
 1235SOL    HW2 4985   0.442   1.003   2.287 -0.2969 -0.3747  0.2130
 1235SOL    HW3 4986   0.334   1.108   2.269  0.9031  0.6916 -0.8503
 1235SOL    MW4 4987   0.412   1.084   2.301  0.2752 -0.1396  0.0885
 1236SOL     OW 4988   0.658   1.233   2.239  0.2274 -0.1642  0.1238
 1236SOL    HW2 4989   0.645   1.327   2.249  0.7739 -0.0295 -0.3897
 1236SOL    HW3 4990   0.576   1.194   2.268 -0.4026  0.5260 -0.7113
 1236SOL    MW4 4991   0.646   1.240   2.244  0.2164 -0.0552 -0.0541
 1237SOL     OW 4992   0.649   1.514   2.298 -0.0340 -0.1354 -0.2848
 1237SOL    HW2 4993   0.678   1.522   2.389 -1.0033  1.1771 -0.0682
 1237SOL    HW3 4994   0.706   1.572   2.249  1.1089 -1.5668 -0.6781
 1237SOL    MW4 4995   0.660   1.523   2.304 -0.0111 -0.1512 -0.3080
 1238SOL     OW 4996   0.402   1.616   2.215  0.0060  0.6072  0.0943
 1238SOL    HW2 4997   0.481   1.571   2.244  1.0426  2.0559 -0.3943
 1238SOL    HW3 4998   0.330   1.561   2.245  1.2151 -1.0831 -0.0449
 1238SOL    MW4 4999   0.403   1.603   2.223  0.3023  0.5753  0.0114
 1239SOL     OW 5000   0.416   1.882   2.337  0.1034 -0.1659  0.4093
 1239SOL    HW2 5001   0.502   1.910   2.306 -0.1836 -0.2166 -0.4477
 1239SOL    HW3 5002   0.406   1.793   2.302 -0.3805 -0.0861  0.3444
 1239SOL    MW4 5003   0.426   1.874   2.328  0.0017 -0.1620  0.2875
 1240SOL     OW 5004   0.647   2.015   2.233 -0.9352 -0.0355 -0.0179
 1240SOL    HW2 5005   0.732   1.976   2.253 -1.0918 -0.4721 -0.2092
 1240SOL    HW3 5006   0.656   2.107   2.259 -0.2436  0.0332 -0.4922
 1240SOL    MW4 5007   0.659   2.022   2.239 -0.8645 -0.0842 -0.1059
 1241SOL     OW 5008   0.718   2.271   2.317  0.1842  0.2817 -0.0338
 1241SOL    HW2 5009   0.711   2.300   2.408  1.0716 -0.1074  0.1672
 1241SOL    HW3 5010   0.788   2.326   2.280 -0.7254  0.9958 -0.7098
 1241SOL    MW4 5011   0.727   2.282   2.324  0.1813  0.3245 -0.0966
 1242SOL     OW 5012   0.500   2.416   2.227  0.0755 -0.7133 -0.2477
 1242SOL    HW2 5013   0.578   2.373   2.263  0.8029 -0.7764 -1.8560
 1242SOL    HW3 5014   0.427   2.364   2.261  0.7389 -0.9148  0.9174
 1242SOL    MW4 5015   0.501   2.403   2.236  0.2590 -0.7482 -0.3061
 1243SOL     OW 5016   0.497   2.680   2.310 -0.1454 -0.4164 -0.4750
 1243SOL    HW2 5017   0.475   2.683   2.403 -0.0115  1.0569 -0.4805
 1243SOL    HW3 5018   0.511   2.587   2.292 -0.0819 -0.7081  0.9927
 1243SOL    MW4 5019   0.496   2.668   2.320 -0.1193 -0.2604 -0.2823
 1244SOL     OW 5020   0.726   2.838   2.244  0.3328 -0.3023  0.2678
 1244SOL    HW2 5021   0.805   2.796   2.275  0.3499  0.1364  0.8347
 1244SOL    HW3 5022   0.654   2.786   2.280  0.3581 -0.1345  0.5626
 1244SOL    MW4 5023   0.727   2.826   2.253  0.3383 -0.2222  0.3815
 1245SOL     OW 5024   0.701   3.099   2.333  0.0439 -0.0973 -1.0107
 1245SOL    HW2 5025   0.616   3.136   2.308  0.8367  1.5156 -1.3749
 1245SOL    HW3 5026   0.701   3.012   2.294 -1.6828 -0.3363 -0.5275
 1245SOL    MW4 5027   0.690   3.092   2.324 -0.0793  0.0842 -0.9952
 1246SOL     OW 5028   0.455   3.231   2.249 -0.0652  0.0302  0.0473
 1246SOL    HW2 5029   0.380   3.181   2.282 -1.3661  1.8421 -0.1041
 1246SOL    HW3 5030   0.445   3.229   2.154  0.8194 -0.8329 -0.0325
 1246SOL    MW4 5031   0.444   3.224   2.241 -0.1201  0.1554  0.0167
 1247SOL     OW 5032   0.430   3.495   2.374 -0.3547  0.0584 -0.0460
 1247SOL    HW2 5033   0.504   3.543   2.339  1.1114 -1.1145  1.3269
 1247SOL    HW3 5034   0.436   3.408   2.335 -0.6508 -0.2263  0.5198
 1247SOL    MW4 5035   0.440   3.490   2.364 -0.2004 -0.1340  0.2098
 1248SOL     OW 5036   0.641   3.635   2.258  0.8803  0.3518 -0.1116
 1248SOL    HW2 5037   0.664   3.724   2.285  0.6625  0.2924  0.2921
 1248SOL    HW3 5038   0.667   3.630   2.166  1.0991  0.7597 -0.0762
 1248SOL    MW4 5039   0.647   3.646   2.250  0.8804  0.3979 -0.0536
 1249SOL     OW 5040   0.720   3.877   2.378  0.3248  0.4297  0.0500
 1249SOL    HW2 5041   0.718   3.867   2.473  1.5534 -0.1135  0.0383
 1249SOL    HW3 5042   0.630   3.898   2.354 -0.4121 -1.3601  1.1354
 1249SOL    MW4 5043   0.708   3.878   2.387  0.3897  0.1221  0.1919
 1250SOL     OW 5044   0.469   3.943   2.300 -0.5290 -0.4451  0.0963
 1250SOL    HW2 5045   0.385   3.914   2.336 -0.3630 -1.1849 -0.1183
 1250SOL    HW3 5046   0.453   3.956   2.207 -0.5834  0.0975  0.1764
 1250SOL    MW4 5047   0.456   3.941   2.293 -0.5143 -0.4714  0.0787
 1251SOL     OW 5048   0.497   4.235   2.381 -0.1633  0.2416  0.0251
 1251SOL    HW2 5049   0.412   4.264   2.348 -0.5394  0.2373  0.9687
 1251SOL    HW3 5050   0.506   4.145   2.351 -0.3660  0.3358 -0.3134
 1251SOL    MW4 5051   0.487   4.227   2.373 -0.2397  0.2532  0.1049
 1252SOL     OW 5052   0.715   4.374   2.290 -0.0637 -0.1829  0.6919
 1252SOL    HW2 5053   0.643   4.333   2.337  0.2605  0.1861  1.5106
 1252SOL    HW3 5054   0.706   4.467   2.308  0.1978 -0.0597  0.2109
 1252SOL    MW4 5055   0.704   4.381   2.298  0.0136 -0.1178  0.7365
 1253SOL     OW 5056   1.163   4.650   2.390  0.7411  0.2637 -0.2613
 1253SOL    HW2 5057   1.168   4.644   2.486 -0.9709 -2.9990 -0.3213
 1253SOL    HW3 5058   1.075   4.684   2.374  0.0218 -1.7620 -0.7144
 1253SOL    MW4 5059   1.152   4.654   2.401  0.4205 -0.4344 -0.3290
 1254SOL     OW 5060   0.935   0.097   2.282 -0.0787 -0.0566 -0.1226
 1254SOL    HW2 5061   0.917   0.183   2.320  0.7925  0.2668 -0.4461
 1254SOL    HW3 5062   0.916   0.106   2.189 -0.5473 -0.3797 -0.0634
 1254SOL    MW4 5063   0.930   0.109   2.275 -0.0256 -0.0566 -0.1576
 1255SOL     OW 5064   0.875   0.349   2.375 -0.0064 -0.0642  0.0736
 1255SOL    HW2 5065   0.943   0.400   2.331 -1.7777  1.8837 -0.4576
 1255SOL    HW3 5066   0.793   0.385   2.343 -1.3154 -1.0952  2.1504
 1255SOL    MW4 5067   0.873   0.361   2.365 -0.4128  0.0568  0.2778
 1256SOL     OW 5068   1.105   0.493   2.274 -0.0451 -0.5118 -0.4560
 1256SOL    HW2 5069   1.182   0.447   2.307 -1.5411 -2.5369  0.2807
 1256SOL    HW3 5070   1.116   0.494   2.179  0.3471 -1.7541 -0.4261
 1256SOL    MW4 5071   1.116   0.487   2.266 -0.1906 -0.9429 -0.3550
 1257SOL     OW 5072   1.361   0.878   2.245  0.0817  0.0375  0.3751
 1257SOL    HW2 5073   1.287   0.838   2.290  1.2999 -1.4793  1.0886
 1257SOL    HW3 5074   1.438   0.837   2.284  1.3595  2.4140  0.4605
 1257SOL    MW4 5075   1.362   0.868   2.256  0.4109  0.1509  0.4804
 1258SOL     OW 5076   1.133   0.754   2.370 -0.1361  0.0744 -0.3089
 1258SOL    HW2 5077   1.055   0.798   2.335 -0.2469 -0.1596 -0.3540
 1258SOL    HW3 5078   1.118   0.661   2.352  1.3189  0.2544 -2.6280
 1258SOL    MW4 5079   1.120   0.748   2.363  0.0412  0.0674 -0.6208
 1259SOL     OW 5080   0.901   1.126   2.357 -0.7288 -0.6337  0.0120
 1259SOL    HW2 5081   0.983   1.163   2.325 -0.2453 -1.6566  0.0250
 1259SOL    HW3 5082   0.833   1.169   2.306 -0.0955 -0.7348 -0.9177
 1259SOL    MW4 5083   0.903   1.136   2.346 -0.5814 -0.7820 -0.1092
 1260SOL     OW 5084   1.121   1.269   2.259  0.2682  0.1664 -0.1207
 1260SOL    HW2 5085   1.206   1.240   2.292 -0.1595 -1.4068 -0.3682
 1260SOL    HW3 5086   1.123   1.247   2.166 -0.1242  0.8272 -0.2873
 1260SOL    MW4 5087   1.133   1.263   2.251  0.1600  0.0460 -0.1752
 1261SOL     OW 5088   1.103   1.553   2.345  0.4225 -0.0685 -0.3226
 1261SOL    HW2 5089   1.023   1.589   2.306 -0.7692 -1.5518  0.6939
 1261SOL    HW3 5090   1.107   1.463   2.313  2.2490  0.2995 -1.1727
 1261SOL    MW4 5091   1.093   1.546   2.336  0.5062 -0.2159 -0.3006
 1262SOL     OW 5092   0.875   1.690   2.252  0.4091 -0.2951  0.0875
 1262SOL    HW2 5093   0.894   1.777   2.288 -1.7719 -0.2731  1.2083
 1262SOL    HW3 5094   0.901   1.697   2.160  1.5075  1.1154  0.4838
 1262SOL    MW4 5095   0.881   1.703   2.244  0.2661 -0.1062  0.2880
 1263SOL     OW 5096   0.907   1.952   2.333 -0.0669 -0.0348  0.0669
 1263SOL    HW2 5097   0.896   1.951   2.428 -3.4351  0.0609 -0.2601
 1263SOL    HW3 5098   0.986   2.005   2.318 -1.1782  2.4883  2.6834
 1263SOL    MW4 5099   0.916   1.959   2.344 -0.6579  0.3107  0.3691
 1264SOL     OW 5100   1.140   2.079   2.250  0.0681  0.0977  0.2892
 1264SOL    HW2 5101   1.212   2.021   2.274  0.3554 -0.5780 -2.0642
 1264SOL    HW3 5102   1.134   2.072   2.155 -2.6040  0.7311  0.3603
 1264SOL    MW4 5103   1.149   2.070   2.241 -0.2466  0.0923 -0.0119
 1265SOL     OW 5104   1.132   2.340   2.342  0.1660 -0.6643 -0.0126
 1265SOL    HW2 5105   1.213   2.387   2.320  0.5925 -1.7797 -0.8605
 1265SOL    HW3 5106   1.144   2.253   2.305 -0.6441 -1.4381  1.5209
 1265SOL    MW4 5107   1.144   2.335   2.334  0.1153 -0.9134  0.0777
 1266SOL     OW 5108   0.896   2.460   2.243  0.2628 -0.3142 -0.2002
 1266SOL    HW2 5109   0.968   2.410   2.283 -1.2353 -2.8384 -0.6163
 1266SOL    HW3 5110   0.905   2.444   2.149  0.6856  1.5005 -0.4986
 1266SOL    MW4 5111   0.907   2.451   2.236  0.1209 -0.4077 -0.2944
 1267SOL     OW 5112   0.939   2.705   2.346 -0.3424  0.6726 -0.1348
 1267SOL    HW2 5113   0.912   2.705   2.438 -1.7523 -0.6411 -0.5215
 1267SOL    HW3 5114   0.917   2.617   2.315  0.5978  0.9384 -1.5993
 1267SOL    MW4 5115   0.933   2.694   2.354 -0.4044  0.5345 -0.3793
 1268SOL     OW 5116   1.149   2.839   2.222  0.5136  0.5406 -0.0809
 1268SOL    HW2 5117   1.234   2.812   2.257  0.7292  1.2844 -0.0188
 1268SOL    HW3 5118   1.087   2.777   2.259  0.6667  1.5787  2.0104
 1268SOL    MW4 5119   1.152   2.828   2.232  0.5623  0.7758  0.2034
 1269SOL     OW 5120   1.131   3.099   2.378 -0.3633 -0.3974 -0.0233
 1269SOL    HW2 5121   1.070   3.136   2.314  0.8579  0.6547 -0.5966
 1269SOL    HW3 5122   1.137   3.006   2.355  0.0012 -0.0411 -1.3791
 1269SOL    MW4 5123   1.124   3.091   2.367 -0.1540 -0.2112 -0.2778
 1270SOL     OW 5124   0.912   3.248   2.243 -0.4850 -0.1419 -0.4427
 1270SOL    HW2 5125   0.889   3.338   2.263  0.2144 -0.3953  1.6294
 1270SOL    HW3 5126   0.837   3.196   2.271 -0.2892 -0.3444 -0.2930
 1270SOL    MW4 5127   0.899   3.253   2.249 -0.3668 -0.2022 -0.1495
 1271SOL     OW 5128   0.882   3.502   2.348  0.1570  0.4624  0.1707
 1271SOL    HW2 5129   0.894   3.472   2.439  0.3608  1.6119  0.5278
 1271SOL    HW3 5130   0.804   3.557   2.352 -0.6340 -0.5845 -0.6243
 1271SOL    MW4 5131   0.873   3.505   2.361  0.0796  0.4759  0.1130
 1272SOL     OW 5132   1.152   3.591   2.252 -0.4301  0.2979  0.1072
 1272SOL    HW2 5133   1.225   3.547   2.296  1.2385  2.0472 -0.7798
 1272SOL    HW3 5134   1.074   3.562   2.299  1.2002  1.5319  3.8250
 1272SOL    MW4 5135   1.152   3.582   2.264  0.0050  0.6917  0.4804
 1273SOL     OW 5136   1.143   3.853   2.342 -0.0829  0.2052  0.0207
 1273SOL    HW2 5137   1.227   3.888   2.313 -0.6751  0.1698 -1.8434
 1273SOL    HW3 5138   1.147   3.759   2.321 -0.2656  0.0356  0.7149
 1273SOL    MW4 5139   1.155   3.845   2.335 -0.1850  0.1781 -0.1340
 1274SOL     OW 5140   0.936   4.005   2.253 -0.4004 -0.1270  0.0735
 1274SOL    HW2 5141   1.018   3.970   2.289 -1.6095 -0.8693  2.1631
 1274SOL    HW3 5142   0.868   3.951   2.292 -1.8362 -0.2372 -2.5415
 1274SOL    MW4 5143   0.938   3.994   2.263 -0.7494 -0.2391  0.0041
 1275SOL     OW 5144   0.930   4.248   2.365  0.7183 -0.2039  0.2134
 1275SOL    HW2 5145   0.918   4.157   2.340  0.2511 -0.1405  0.1998
 1275SOL    HW3 5146   0.852   4.293   2.333  0.4462  0.0065  1.1582
 1275SOL    MW4 5147   0.918   4.242   2.358  0.6207 -0.1674  0.3364
 1276SOL     OW 5148   1.160   4.415   2.256 -0.0002  0.7532 -0.3567
 1276SOL    HW2 5149   1.079   4.373   2.283  0.2183 -0.2866 -1.2796
 1276SOL    HW3 5150   1.160   4.499   2.301 -1.2658  0.4784  0.1661
 1276SOL    MW4 5151   1.149   4.420   2.265 -0.1384  0.5794 -0.4094
 1277SOL     OW 5152   1.579   4.637   2.317  0.3784  0.1845  0.1249
 1277SOL    HW2 5153   1.659   4.688   2.303 -0.8787  1.9232 -0.8225
 1277SOL    HW3 5154   1.508   4.693   2.286 -1.1889 -1.5200  0.5183
 1277SOL    MW4 5155   1.580   4.651   2.311  0.0056  0.1891  0.0515
 1278SOL     OW 5156   1.366   0.132   2.265  0.1020 -0.1111 -0.2086
 1278SOL    HW2 5157   1.374   0.221   2.301 -0.6621 -0.3289  0.5213
 1278SOL    HW3 5158   1.290   0.095   2.310 -0.2951 -0.7278 -1.3673
 1278SOL    MW4 5159   1.357   0.139   2.276 -0.0513 -0.2212 -0.2654
 1279SOL     OW 5160   1.340   0.411   2.371  0.3915 -0.1509  0.4271
 1279SOL    HW2 5161   1.346   0.384   2.463 -0.6407 -0.7851  0.3147
 1279SOL    HW3 5162   1.425   0.451   2.352  0.7989 -0.4924  1.5023
 1279SOL    MW4 5163   1.352   0.413   2.381  0.3092 -0.2796  0.5543
 1280SOL     OW 5164   1.580   0.521   2.301  0.4380 -0.4057 -0.3095
 1280SOL    HW2 5165   1.657   0.477   2.338  1.1586 -1.3213 -2.7907
 1280SOL    HW3 5166   1.603   0.537   2.210 -0.9320  2.6352 -0.1703
 1280SOL    MW4 5167   1.593   0.517   2.294  0.3524 -0.1253 -0.6185
 1281SOL     OW 5168   1.578   0.778   2.405 -0.2113 -0.5279  0.0229
 1281SOL    HW2 5169   1.653   0.822   2.363  0.9806  0.8887  3.4900
 1281SOL    HW3 5170   1.586   0.687   2.377  1.9394 -0.0929 -0.9169
 1281SOL    MW4 5171   1.589   0.772   2.396  0.2296 -0.2836  0.3564
 1282SOL     OW 5172   1.376   0.845   1.959 -0.1730 -0.2878 -0.3746
 1282SOL    HW2 5173   1.461   0.808   1.937 -0.5752 -2.0408  0.9452
 1282SOL    HW3 5174   1.379   0.857   2.054 -0.9008  0.9563 -0.4926
 1282SOL    MW4 5175   1.387   0.842   1.968 -0.3221 -0.3549 -0.2161
 1283SOL     OW 5176   1.360   1.125   2.342 -0.2826 -0.0490 -0.0816
 1283SOL    HW2 5177   1.358   1.094   2.433 -1.5458 -1.9033 -0.6909
 1283SOL    HW3 5178   1.370   1.045   2.290 -1.2048  0.8226 -1.6394
 1283SOL    MW4 5179   1.361   1.110   2.347 -0.5710 -0.1787 -0.3676
 1284SOL     OW 5180   1.548   1.308   2.275  0.2735  0.6372  0.0365
 1284SOL    HW2 5181   1.486   1.240   2.303  0.4072  0.3674 -0.3291
 1284SOL    HW3 5182   1.550   1.302   2.180 -0.3213  1.6904 -0.0539
 1284SOL    MW4 5183   1.540   1.298   2.266  0.2126  0.7405 -0.0236
 1285SOL     OW 5184   1.603   1.576   2.356 -0.3671 -0.2329  0.3600
 1285SOL    HW2 5185   1.693   1.603   2.339 -0.5930  1.0883  1.2637
 1285SOL    HW3 5186   1.597   1.488   2.318  0.7022  0.4854 -1.5255
 1285SOL    MW4 5187   1.614   1.568   2.348 -0.2558  0.0361  0.2303
 1286SOL     OW 5188   1.346   1.664   2.243  0.2050 -0.7689 -0.2905
 1286SOL    HW2 5189   1.417   1.616   2.287  0.2217 -0.9720 -0.5375
 1286SOL    HW3 5190   1.266   1.632   2.285  0.3318  0.3275  0.8062
 1286SOL    MW4 5191   1.345   1.653   2.254  0.2238 -0.6511 -0.1781
 1287SOL     OW 5192   1.366   1.944   2.301  0.1203  0.3839 -0.0827
 1287SOL    HW2 5193   1.431   2.007   2.271 -0.3864  0.4289 -1.0904
 1287SOL    HW3 5194   1.386   1.864   2.251 -0.4222  0.3124 -0.1820
 1287SOL    MW4 5195   1.377   1.942   2.291 -0.0181  0.3804 -0.2289
 1288SOL     OW 5196   1.588   2.147   2.223 -0.4271  0.1483  0.6700
 1288SOL    HW2 5197   1.660   2.100   2.265  1.8178  3.0996  0.2771
 1288SOL    HW3 5198   1.590   2.116   2.132 -0.3762 -0.5922  0.9195
 1288SOL    MW4 5199   1.598   2.136   2.216 -0.1242  0.4399  0.6511
 1289SOL     OW 5200   1.595   2.408   2.319  0.2759 -0.2692  0.3847
 1289SOL    HW2 5201   1.579   2.381   2.410 -0.4755  1.1220  0.6791
 1289SOL    HW3 5202   1.591   2.326   2.269  0.6201 -1.0424  1.5925
 1289SOL    MW4 5203   1.592   2.393   2.324  0.2221 -0.1879  0.5829
 1290SOL     OW 5204   1.349   2.470   2.236  0.3625 -0.2839  0.1532
 1290SOL    HW2 5205   1.433   2.437   2.270 -0.4991 -1.6098  1.0404
 1290SOL    HW3 5206   1.354   2.457   2.142  0.9792 -0.8108  0.2543
 1290SOL    MW4 5207   1.361   2.464   2.228  0.3302 -0.5286  0.2837
 1291SOL     OW 5208   1.382   2.733   2.309 -0.2423 -0.4154  0.3344
 1291SOL    HW2 5209   1.465   2.767   2.277 -0.2287 -0.3947  0.3914
 1291SOL    HW3 5210   1.385   2.640   2.290 -1.1206 -0.0627 -1.7005
 1291SOL    MW4 5211   1.393   2.725   2.302 -0.3563 -0.3657  0.0732
 1292SOL     OW 5212   1.636   2.817   2.225  0.2296 -0.0706  0.4361
 1292SOL    HW2 5213   1.630   2.911   2.241  0.5627 -0.1820  1.2245
 1292SOL    HW3 5214   1.635   2.809   2.130 -1.8390  0.6052  0.3684
 1292SOL    MW4 5215   1.635   2.828   2.215  0.0005  0.0036  0.5310
 1293SOL     OW 5216   1.585   3.081   2.307 -0.2608  0.1610  0.4409
 1293SOL    HW2 5217   1.591   3.072   2.402 -4.3048  0.3992  0.8381
 1293SOL    HW3 5218   1.503   3.128   2.293  0.4424  0.4621 -3.1739
 1293SOL    MW4 5219   1.575   3.086   2.318 -0.7017  0.2317  0.0165
 1294SOL     OW 5220   1.359   3.228   2.293  0.0612  0.2436 -0.0049
 1294SOL    HW2 5221   1.283   3.186   2.334 -0.2537  0.4956 -0.3260
 1294SOL    HW3 5222   1.337   3.231   2.200  0.9772 -0.7572 -0.2623
 1294SOL    MW4 5223   1.346   3.223   2.287  0.1404  0.1450 -0.0813
 1295SOL     OW 5224   1.370   3.493   2.382  0.3761 -0.3591 -0.3484
 1295SOL    HW2 5225   1.356   3.499   2.477 -0.1438  1.6783 -0.5210
 1295SOL    HW3 5226   1.363   3.400   2.362 -3.0395 -0.4695  1.0885
 1295SOL    MW4 5227   1.367   3.482   2.392 -0.1432 -0.1051 -0.1817
 1296SOL     OW 5228   1.556   3.622   2.238 -0.3147 -0.0736  0.7144
 1296SOL    HW2 5229   1.577   3.697   2.295 -0.4590 -0.5956  1.4656
 1296SOL    HW3 5230   1.491   3.572   2.288  0.5184 -1.2355  0.6533
 1296SOL    MW4 5231   1.550   3.626   2.252 -0.2238 -0.2956  0.8054
 1297SOL     OW 5232   1.628   3.864   2.368  0.1390 -0.0695 -0.4083
 1297SOL    HW2 5233   1.627   3.859   2.464 -0.0958  0.9268 -0.3491
 1297SOL    HW3 5234   1.698   3.926   2.349 -1.5537  1.7772 -0.7648
 1297SOL    MW4 5235   1.637   3.872   2.378 -0.1154  0.3054 -0.4475
 1298SOL     OW 5236   1.394   3.988   2.290 -0.1327  0.1972  0.5772
 1298SOL    HW2 5237   1.471   3.942   2.324 -1.3923 -0.9209  1.9642
 1298SOL    HW3 5238   1.401   3.979   2.195  2.0114  1.0390  0.6223
 1298SOL    MW4 5239   1.405   3.981   2.282 -0.0160  0.1609  0.7663
 1299SOL     OW 5240   1.380   4.286   2.380 -0.2402 -0.3399 -0.3437
 1299SOL    HW2 5241   1.371   4.201   2.339 -1.4309 -0.1124 -0.5644
 1299SOL    HW3 5242   1.309   4.339   2.344  0.8156  0.9236 -0.6345
 1299SOL    MW4 5243   1.370   4.282   2.370 -0.2580 -0.1431 -0.4110
 1300SOL     OW 5244   1.620   4.364   2.274  0.4507 -0.9841  0.3214
 1300SOL    HW2 5245   1.546   4.322   2.317 -0.2109 -0.9109 -0.7209
 1300SOL    HW3 5246   1.610   4.457   2.294 -0.5293 -0.7982 -0.9451
 1300SOL    MW4 5247   1.609   4.371   2.282  0.2340 -0.9494  0.0169
 1301SOL     OW 5248   2.023   4.658   2.366 -0.0184  0.2351  0.2506
 1301SOL    HW2 5249   2.092   4.705   2.320  0.4214 -1.2085 -0.5740
 1301SOL    HW3 5250   2.028   4.568   2.333 -1.4150 -0.1970  1.1661
 1301SOL    MW4 5251   2.033   4.652   2.356 -0.1445 -0.0129  0.2627
 1302SOL     OW 5252   1.793   0.123   2.268  0.2639  0.1175  0.5089
 1302SOL    HW2 5253   1.772   0.203   2.316 -0.3660  0.1889  0.1212
 1302SOL    HW3 5254   1.864   0.083   2.318  0.7532  1.0447  0.5627
 1302SOL    MW4 5255   1.799   0.128   2.281  0.2455  0.2493  0.4649
 1303SOL     OW 5256   1.766   0.346   2.416 -0.2860  0.1019 -0.0241
 1303SOL    HW2 5257   1.849   0.387   2.392  0.4443 -1.3541 -0.0719
 1303SOL    HW3 5258   1.763   0.352   2.511 -0.4084  0.6723 -0.0613
 1303SOL    MW4 5259   1.776   0.352   2.425 -0.2058 -0.0149 -0.0355
 1304SOL     OW 5260   1.942   0.469   2.227  0.0945  0.5849 -0.3160
 1304SOL    HW2 5261   1.983   0.548   2.263 -0.2169  0.2573  0.7804
 1304SOL    HW3 5262   1.972   0.466   2.136  2.3573  0.4754  0.3893
 1304SOL    MW4 5263   1.951   0.479   2.220  0.3519  0.5272 -0.0782
 1305SOL     OW 5264   2.021   0.717   2.368  0.2745 -0.0566  0.4861
 1305SOL    HW2 5265   2.092   0.765   2.324 -1.6523  0.5025 -2.1693
 1305SOL    HW3 5266   1.941   0.756   2.333 -1.3426 -2.5227  1.3147
 1305SOL    MW4 5267   2.020   0.728   2.357 -0.1931 -0.3082  0.2451
 1306SOL     OW 5268   1.810   0.894   2.303  0.4251 -0.3208 -0.5620
 1306SOL    HW2 5269   1.809   0.987   2.325  3.4011 -0.4085  0.2189
 1306SOL    HW3 5270   1.808   0.892   2.208 -1.8684  0.4279 -0.5676
 1306SOL    MW4 5271   1.810   0.906   2.294  0.5151 -0.2337 -0.4597
 1307SOL     OW 5272   1.770   1.159   2.358  0.0848 -0.2593 -0.2804
 1307SOL    HW2 5273   1.845   1.204   2.320  0.3471 -1.0830 -0.7424
 1307SOL    HW3 5274   1.696   1.218   2.342  0.6004  0.5029  0.0774
 1307SOL    MW4 5275   1.770   1.173   2.351  0.1874 -0.2673 -0.2942
 1308SOL     OW 5276   2.011   1.269   2.265 -0.0919  0.0623  0.2059
 1308SOL    HW2 5277   2.038   1.358   2.288 -1.7113  0.2567  1.4151
 1308SOL    HW3 5278   2.013   1.267   2.170 -2.5320  2.1837  0.0645
 1308SOL    MW4 5279   2.015   1.280   2.256 -0.6275  0.3678  0.3464
 1309SOL     OW 5280   2.065   1.542   2.360  0.0732  0.0703 -0.5101
 1309SOL    HW2 5281   2.043   1.536   2.453  0.8460 -0.3346 -0.3515
 1309SOL    HW3 5282   1.995   1.596   2.323 -0.9000 -0.7609  0.0769
 1309SOL    MW4 5283   2.053   1.548   2.367  0.0470 -0.0927 -0.4115
 1310SOL     OW 5284   1.839   1.712   2.279  0.3462 -0.1292 -0.1966
 1310SOL    HW2 5285   1.822   1.802   2.304  0.1945  0.0298 -0.8526
 1310SOL    HW3 5286   1.802   1.704   2.191 -1.1491 -1.3146  0.5226
 1310SOL    MW4 5287   1.832   1.723   2.270  0.1290 -0.2646 -0.1881
 1311SOL     OW 5288   1.789   1.981   2.351 -0.4229  0.0241  0.0274
 1311SOL    HW2 5289   1.794   1.987   2.447 -2.0383  1.3555  0.0524
 1311SOL    HW3 5290   1.872   2.017   2.320 -1.0607  2.2954  0.8581
 1311SOL    MW4 5291   1.801   1.986   2.360 -0.7201  0.4996  0.1402
 1312SOL     OW 5292   2.034   2.075   2.254 -0.5425  0.2754 -0.0082
 1312SOL    HW2 5293   2.112   2.038   2.296 -0.4679  0.8412  0.3522
 1312SOL    HW3 5294   2.060   2.084   2.162 -0.4609 -0.2919 -0.0435
 1312SOL    MW4 5295   2.048   2.071   2.247 -0.5219  0.2754  0.0346
 1313SOL     OW 5296   2.032   2.350   2.313 -0.1528 -0.2549  0.1388
 1313SOL    HW2 5297   2.121   2.378   2.289 -1.0082  1.1387 -1.4906
 1313SOL    HW3 5298   2.030   2.257   2.290  1.1222 -0.4809  0.8909
 1313SOL    MW4 5299   2.044   2.341   2.306 -0.0973 -0.1009  0.0231
 1314SOL     OW 5300   1.829   2.505   2.198  0.0749 -0.7065  0.3775
 1314SOL    HW2 5301   1.881   2.438   2.243 -0.9301 -1.3863  0.5585
 1314SOL    HW3 5302   1.740   2.490   2.229 -0.4608 -0.4751 -1.0147
 1314SOL    MW4 5303   1.824   2.494   2.208 -0.1283 -0.7658  0.2177
 1315SOL     OW 5304   1.805   2.703   2.386 -0.1610 -0.3454  0.1843
 1315SOL    HW2 5305   1.816   2.615   2.350  0.2474  0.3461 -1.4286
 1315SOL    HW3 5306   1.736   2.742   2.332  1.2991  1.1180 -0.6883
 1315SOL    MW4 5307   1.797   2.697   2.374  0.0856 -0.0610 -0.1438
 1316SOL     OW 5308   1.995   2.842   2.238 -0.0986  0.1086 -0.1490
 1316SOL    HW2 5309   2.080   2.807   2.265  0.4679  0.9133 -0.8749
 1316SOL    HW3 5310   1.933   2.808   2.303  1.0986  1.3504  1.6800
 1316SOL    MW4 5311   1.998   2.833   2.250  0.1341  0.3786 -0.0036
 1317SOL     OW 5312   2.019   3.098   2.373 -0.5625 -0.3116 -0.5380
 1317SOL    HW2 5313   2.087   3.154   2.334 -0.9506  0.2338 -0.4362
 1317SOL    HW3 5314   2.027   3.015   2.325 -0.3564  0.0134 -1.0778
 1317SOL    MW4 5315   2.029   3.094   2.362 -0.5865 -0.1967 -0.5958
 1318SOL     OW 5316   1.813   3.246   2.240 -0.1077  0.4244  0.7812
 1318SOL    HW2 5317   1.889   3.205   2.282 -0.0758 -0.4742 -0.1356
 1318SOL    HW3 5318   1.738   3.196   2.270 -0.2489  0.7426  0.9647
 1318SOL    MW4 5319   1.813   3.234   2.250 -0.1221  0.3479  0.6845
 1319SOL     OW 5320   1.801   3.507   2.340 -0.2575  0.4838  0.1973
 1319SOL    HW2 5321   1.804   3.420   2.301  0.4136  0.0969  1.0934
 1319SOL    HW3 5322   1.723   3.547   2.303 -0.3310 -0.3424 -0.5540
 1319SOL    MW4 5323   1.791   3.501   2.330 -0.1787  0.3235  0.2165
 1320SOL     OW 5324   2.035   3.620   2.241  0.1874 -0.0125 -0.0242
 1320SOL    HW2 5325   1.949   3.595   2.276 -0.4612  1.9112 -0.1904
 1320SOL    HW3 5326   2.020   3.627   2.146  0.5192  0.3875 -0.0464
 1320SOL    MW4 5327   2.021   3.618   2.233  0.1457  0.2944 -0.0489
 1321SOL     OW 5328   2.077   3.866   2.367 -0.6145  0.0271  0.0675
 1321SOL    HW2 5329   2.062   3.845   2.459  1.5270 -0.5811  0.3049
 1321SOL    HW3 5330   2.074   3.782   2.322 -2.2503  0.3858 -0.5305
 1321SOL    MW4 5331   2.075   3.852   2.373 -0.5476 -0.0057  0.0198
 1322SOL     OW 5332   1.847   4.015   2.258  0.5020 -0.3048  0.0448
 1322SOL    HW2 5333   1.929   3.968   2.275  1.3356  0.7507 -0.9373
 1322SOL    HW3 5334   1.827   3.996   2.166  0.8171  1.1747 -0.3430
 1322SOL    MW4 5335   1.855   4.006   2.248  0.6534  0.0291 -0.1359
 1323SOL     OW 5336   1.849   4.270   2.395  0.0293  0.1373  0.4866
 1323SOL    HW2 5337   1.847   4.180   2.364  0.0232  0.3783 -0.2242
 1323SOL    HW3 5338   1.764   4.306   2.371  0.7312  0.8955 -0.9920
 1323SOL    MW4 5339   1.838   4.263   2.387  0.1211  0.2694  0.1981
 1324SOL     OW 5340   2.036   4.395   2.256 -0.2840  0.2831  0.0689
 1324SOL    HW2 5341   1.965   4.351   2.303 -0.3319 -0.9231 -1.0808
 1324SOL    HW3 5342   2.009   4.393   2.164  0.3759  1.4952 -0.1618
 1324SOL    MW4 5343   2.023   4.389   2.250 -0.2034  0.2837 -0.1135
 1325SOL     OW 5344   2.476   0.025   2.363 -0.5764  0.4539 -0.0794
 1325SOL    HW2 5345   2.563   0.063   2.346 -1.3261  1.2587 -2.3864
 1325SOL    HW3 5346   2.480  -0.062   2.324 -0.5875  0.2165  0.4454
 1325SOL    MW4 5347   2.488   0.019   2.355 -0.6764  0.5287 -0.3147
 1326SOL     OW 5348   2.255   0.103   2.229 -0.1543 -0.2182  0.0304
 1326SOL    HW2 5349   2.234   0.195   2.245 -0.3305 -0.0588 -1.0921
 1326SOL    HW3 5350   2.335   0.088   2.280 -0.3590  0.4366  0.5573
 1326SOL    MW4 5351   2.263   0.113   2.238 -0.2043 -0.1108 -0.0479
 1327SOL     OW 5352   2.181   0.346   2.319 -0.1698 -0.2994 -0.4872
 1327SOL    HW2 5353   2.251   0.412   2.318 -0.4720  0.0730  1.7021
 1327SOL    HW3 5354   2.104   0.394   2.291  0.0202 -0.2133 -0.8724
 1327SOL    MW4 5355   2.180   0.361   2.315 -0.1845 -0.2389 -0.2491
 1328SOL     OW 5356   2.458   0.468   2.250  0.1738 -0.5770  0.0609
 1328SOL    HW2 5357   2.530   0.464   2.313 -0.1896  2.9212  0.7833
 1328SOL    HW3 5358   2.502   0.475   2.165  0.7056  0.3063  0.3983
 1328SOL    MW4 5359   2.474   0.468   2.247  0.1960  0.0011  0.2007
 1329SOL     OW 5360   2.434   0.747   2.356  0.1387 -0.7758 -0.5043
 1329SOL    HW2 5361   2.507   0.784   2.305 -0.9080 -0.7758 -2.0562
 1329SOL    HW3 5362   2.422   0.660   2.319 -1.6771 -0.1816 -1.3727
 1329SOL    MW4 5363   2.442   0.741   2.344 -0.2391 -0.6974 -0.8237
 1330SOL     OW 5364   2.223   0.882   2.244 -1.3231 -0.3902  0.1341
 1330SOL    HW2 5365   2.228   0.968   2.286 -0.3260 -0.2435 -0.2612
 1330SOL    HW3 5366   2.308   0.842   2.261 -1.4658 -0.9468 -0.4407
 1330SOL    MW4 5367   2.235   0.888   2.252 -1.2105 -0.4442  0.0060
 1331SOL     OW 5368   2.244   1.144   2.377 -0.3187 -0.2492  0.1175
 1331SOL    HW2 5369   2.316   1.204   2.358  0.2801 -1.2107 -0.7168
 1331SOL    HW3 5370   2.165   1.193   2.352 -0.0033  1.0153  1.5860
 1331SOL    MW4 5371   2.243   1.158   2.371 -0.1981 -0.2092  0.2010
 1332SOL     OW 5372   2.448   1.288   2.294 -0.0479 -0.2984  0.1216
 1332SOL    HW2 5373   2.529   1.239   2.310 -0.0143 -0.5388 -0.7534
 1332SOL    HW3 5374   2.468   1.378   2.319  0.5737 -0.3050 -0.3486
 1332SOL    MW4 5375   2.461   1.293   2.299  0.0386 -0.3309 -0.0558
 1333SOL     OW 5376   2.520   1.553   2.377 -0.5074  0.0652  0.0106
 1333SOL    HW2 5377   2.585   1.622   2.361 -1.4257  0.9862  0.1622
 1333SOL    HW3 5378   2.539   1.523   2.466  1.0382 -1.1498 -0.7125
 1333SOL    MW4 5379   2.531   1.558   2.387 -0.4249  0.0263 -0.0651
 1334SOL     OW 5380   2.288   1.693   2.285 -0.0825  0.3008 -0.3456
 1334SOL    HW2 5381   2.366   1.643   2.308 -0.1851 -0.2841 -1.2408
 1334SOL    HW3 5382   2.216   1.645   2.324 -0.3460 -1.1886 -2.5868
 1334SOL    MW4 5383   2.289   1.680   2.293 -0.1311  0.0271 -0.7594
 1335SOL     OW 5384   2.262   1.971   2.373 -0.0448  0.1459 -0.4088
 1335SOL    HW2 5385   2.348   2.006   2.348  0.4323 -0.2531  0.6574
 1335SOL    HW3 5386   2.268   1.877   2.356 -0.3883  0.1652 -0.6497
 1335SOL    MW4 5387   2.274   1.963   2.367 -0.0272  0.0958 -0.2997
 1336SOL     OW 5388   2.498   2.074   2.286  0.3030 -0.2156  0.2133
 1336SOL    HW2 5389   2.571   2.036   2.336 -2.1280 -2.1444  2.4791
 1336SOL    HW3 5390   2.520   2.058   2.195  2.0918 -1.9673  0.9152
 1336SOL    MW4 5391   2.511   2.067   2.281  0.2184 -0.7014  0.6046
 1337SOL     OW 5392   2.464   2.348   2.372  0.0283  0.0742 -0.7268
 1337SOL    HW2 5393   2.545   2.386   2.339  0.5863 -0.3627  0.1030
 1337SOL    HW3 5394   2.458   2.263   2.327  0.8099 -0.5398  0.2974
 1337SOL    MW4 5395   2.474   2.342   2.362  0.2048 -0.0646 -0.4821
 1338SOL     OW 5396   2.259   2.475   2.237 -0.0498 -0.5914  0.8812
 1338SOL    HW2 5397   2.231   2.564   2.261 -0.4764 -0.9189  1.6090
 1338SOL    HW3 5398   2.336   2.459   2.291 -0.0652 -0.7180  0.8652
 1338SOL    MW4 5399   2.265   2.485   2.247 -0.1080 -0.6516  0.9749
 1339SOL     OW 5400   2.227   2.727   2.352 -0.3519 -0.3625 -0.1366
 1339SOL    HW2 5401   2.238   2.706   2.444 -0.2729 -2.0161 -0.5134
 1339SOL    HW3 5402   2.314   2.754   2.323 -0.2743 -0.3158  0.1381
 1339SOL    MW4 5403   2.240   2.728   2.360 -0.3314 -0.5751 -0.1502
 1340SOL     OW 5404   2.471   2.833   2.254  0.2725  0.1686  0.0880
 1340SOL    HW2 5405   2.545   2.789   2.295  1.1769  1.0857 -0.5581
 1340SOL    HW3 5406   2.491   2.833   2.160  0.7439  2.7511  0.1465
 1340SOL    MW4 5407   2.483   2.827   2.247  0.4539  0.6301  0.0105
 1341SOL     OW 5408   2.477   3.087   2.352  0.0788 -0.0944 -0.5510
 1341SOL    HW2 5409   2.555   3.130   2.318  0.3340 -0.4335 -0.4046
 1341SOL    HW3 5410   2.486   2.996   2.323  0.3181 -0.3944  0.4417
 1341SOL    MW4 5411   2.489   3.081   2.344  0.1438 -0.1786 -0.4005
 1342SOL     OW 5412   2.247   3.211   2.209  0.1530  0.1743  0.0795
 1342SOL    HW2 5413   2.253   3.300   2.244  0.5827  0.1120  0.1692
 1342SOL    HW3 5414   2.318   3.164   2.252  1.3102  0.3388 -1.5787
 1342SOL    MW4 5415   2.257   3.217   2.219  0.3624  0.1876 -0.1273
 1343SOL     OW 5416   2.252   3.473   2.321  0.2541 -0.1849 -0.5464
 1343SOL    HW2 5417   2.245   3.467   2.417 -1.5516  1.3348 -0.5715
 1343SOL    HW3 5418   2.169   3.510   2.293  0.7192 -0.7572 -2.7422
 1343SOL    MW4 5419   2.240   3.477   2.330  0.0772 -0.0601 -0.8392
 1344SOL     OW 5420   2.463   3.609   2.224 -0.3196 -0.0550  0.1303
 1344SOL    HW2 5421   2.457   3.694   2.268 -0.2055 -0.2779  0.5898
 1344SOL    HW3 5422   2.387   3.560   2.256 -0.8165  0.1471 -0.7421
 1344SOL    MW4 5423   2.453   3.613   2.234 -0.3700 -0.0579  0.0758
 1345SOL     OW 5424   2.459   3.879   2.351 -0.0657 -0.2043 -0.1411
 1345SOL    HW2 5425   2.472   3.906   2.442 -0.2318 -0.5638 -0.0115
 1345SOL    HW3 5426   2.386   3.934   2.320  0.2840  0.2321 -0.1930
 1345SOL    MW4 5427   2.451   3.890   2.359 -0.0417 -0.1941 -0.1311
 1346SOL     OW 5428   2.267   4.048   2.257  0.3031  1.0254 -0.1322
 1346SOL    HW2 5429   2.269   4.137   2.294 -0.8079  1.8960 -2.0709
 1346SOL    HW3 5430   2.203   4.001   2.310  0.7919  1.4193  0.8165
 1346SOL    MW4 5431   2.259   4.054   2.269  0.2210  1.1926 -0.2625
 1347SOL     OW 5432   2.280   4.301   2.358  0.1360  0.2089  0.1340
 1347SOL    HW2 5433   2.269   4.300   2.453 -0.4569 -0.4109  0.0561
 1347SOL    HW3 5434   2.197   4.334   2.324  0.5965  1.1047 -0.1334
 1347SOL    MW4 5435   2.268   4.305   2.366  0.1185  0.2451  0.0885
 1348SOL     OW 5436   2.499   4.444   2.244  0.0583 -0.5471  0.2413
 1348SOL    HW2 5437   2.570   4.390   2.277  0.3660 -0.1630  0.2075
 1348SOL    HW3 5438   2.421   4.411   2.288  0.0340 -1.8858 -0.7593
 1348SOL    MW4 5439   2.498   4.433   2.254  0.0956 -0.6733  0.1044
 1349SOL     OW 5440   2.916   4.650   2.376  0.1873 -0.2904 -0.4169
 1349SOL    HW2 5441   2.979   4.716   2.345  0.6482 -1.1048 -1.2420
 1349SOL    HW3 5442   2.918   4.582   2.309 -1.5508 -0.3470 -0.4262
 1349SOL    MW4 5443   2.924   4.650   2.363  0.0188 -0.4054 -0.5269
 1350SOL     OW 5444   2.723   0.155   2.280 -0.3617 -0.5339 -0.0901
 1350SOL    HW2 5445   2.697   0.226   2.339 -0.5473 -0.5311 -0.1732
 1350SOL    HW3 5446   2.791   0.108   2.326 -0.0839 -0.1650 -0.1248
 1350SOL    MW4 5447   2.728   0.158   2.294 -0.3495 -0.4849 -0.1059
 1351SOL     OW 5448   2.682   0.396   2.419  0.0042  0.0777  0.4618
 1351SOL    HW2 5449   2.748   0.456   2.385  0.4417 -0.3308  0.5802
 1351SOL    HW3 5450   2.696   0.397   2.514  1.5106 -1.9346  0.2823
 1351SOL    MW4 5451   2.693   0.404   2.427  0.2606 -0.2417  0.4537
 1352SOL     OW 5452   2.906   0.535   2.280  0.0364 -0.1825 -0.0515
 1352SOL    HW2 5453   2.908   0.630   2.286 -2.4345 -0.0633 -0.4110
 1352SOL    HW3 5454   2.909   0.517   2.186  1.0199 -0.4990  0.0318
 1352SOL    MW4 5455   2.906   0.545   2.268 -0.1597 -0.2085 -0.0880
 1353SOL     OW 5456   2.902   0.819   2.307  0.1305  0.0558  0.1497
 1353SOL    HW2 5457   2.882   0.799   2.399 -0.4704 -0.9777 -0.1942
 1353SOL    HW3 5458   2.819   0.848   2.271  0.1220 -0.5207 -0.3139
 1353SOL    MW4 5459   2.888   0.820   2.315  0.0501 -0.1566  0.0432
 1354SOL     OW 5460   2.643   0.891   2.217  0.0301  0.1595  0.0535
 1354SOL    HW2 5461   2.634   0.980   2.250  1.2449  0.2065  0.2782
 1354SOL    HW3 5462   2.685   0.901   2.131  2.1811 -0.3141  1.0151
 1354SOL    MW4 5463   2.647   0.904   2.210  0.4740  0.1031  0.2098
 1355SOL     OW 5464   2.669   1.140   2.352 -0.0870  0.2488  0.5915
 1355SOL    HW2 5465   2.680   1.117   2.444  1.6948  0.7222  0.5159
 1355SOL    HW3 5466   2.757   1.167   2.323 -0.9883  1.7803 -0.7860
 1355SOL    MW4 5467   2.682   1.140   2.360  0.0293  0.5133  0.3998
 1356SOL     OW 5468   2.918   1.281   2.273 -0.5459  0.5966  0.3272
 1356SOL    HW2 5469   3.001   1.240   2.298 -1.0047  0.1506  1.1217
 1356SOL    HW3 5470   2.917   1.274   2.177 -0.5852 -1.2098  0.4412
 1356SOL    MW4 5471   2.929   1.274   2.263 -0.6115  0.2995  0.4468
 1357SOL     OW 5472   2.957   1.553   2.323  0.2404 -0.1653 -0.0834
 1357SOL    HW2 5473   2.958   1.542   2.418  1.0915 -0.0909 -0.0777
 1357SOL    HW3 5474   2.937   1.466   2.288  1.0880 -0.4496  0.1323
 1357SOL    MW4 5475   2.955   1.540   2.331  0.4644 -0.1929 -0.0544
 1358SOL     OW 5476   2.727   1.710   2.276 -0.0458  0.1680  0.2417
 1358SOL    HW2 5477   2.806   1.657   2.285 -0.6969 -0.9749 -0.6638
 1358SOL    HW3 5478   2.695   1.691   2.188 -0.4598  1.8402  0.0165
 1358SOL    MW4 5479   2.733   1.700   2.266 -0.1862  0.2377  0.0925
 1359SOL     OW 5480   2.725   1.968   2.406  0.0966  0.5389 -0.1215
 1359SOL    HW2 5481   2.720   1.959   2.501  0.2037  0.9542 -0.0740
 1359SOL    HW3 5482   2.724   1.878   2.373 -0.5413  0.4075  0.2388
 1359SOL    MW4 5483   2.724   1.955   2.414  0.0265  0.5764 -0.0675
 1360SOL     OW 5484   2.920   2.086   2.252 -0.0745  0.4330  0.2017
 1360SOL    HW2 5485   2.998   2.039   2.283 -0.1376  0.6850  0.7428
 1360SOL    HW3 5486   2.850   2.056   2.308 -0.5249 -0.3325 -0.7471
 1360SOL    MW4 5487   2.921   2.076   2.263 -0.1421  0.3653  0.1478
 1361SOL     OW 5488   2.960   2.320   2.376  0.3549 -0.0152 -0.7078
 1361SOL    HW2 5489   2.960   2.302   2.470 -0.2734  0.4811 -0.6129
 1361SOL    HW3 5490   2.950   2.234   2.335 -0.5632 -0.1053 -0.2938
 1361SOL    MW4 5491   2.959   2.306   2.383  0.1509  0.0384 -0.6409
 1362SOL     OW 5492   2.714   2.438   2.271 -0.0248  0.3826  0.4544
 1362SOL    HW2 5493   2.800   2.405   2.295 -0.3768 -1.3071 -0.5290
 1362SOL    HW3 5494   2.715   2.440   2.175 -1.5660 -1.0628  0.3822
 1362SOL    MW4 5495   2.725   2.434   2.261 -0.2749 -0.0312  0.3154
 1363SOL     OW 5496   2.682   2.700   2.361 -0.5240 -0.2431  0.5030
 1363SOL    HW2 5497   2.744   2.756   2.314 -2.4511  0.9328 -0.7210
 1363SOL    HW3 5498   2.705   2.611   2.335  0.7874  0.1461  0.2812
 1363SOL    MW4 5499   2.693   2.696   2.352 -0.6051 -0.0365  0.3123
 1364SOL     OW 5500   2.908   2.840   2.285  0.2617 -0.2570  0.5441
 1364SOL    HW2 5501   2.940   2.925   2.314  0.6806 -0.0072 -0.6037
 1364SOL    HW3 5502   2.926   2.838   2.191  0.1253 -1.5558  0.5260
 1364SOL    MW4 5503   2.915   2.851   2.276  0.2992 -0.3953  0.3901
 1365SOL     OW 5504   2.936   3.102   2.382 -0.2578  0.6534 -0.0627
 1365SOL    HW2 5505   3.004   3.145   2.331  0.2015  2.0203  1.6429
 1365SOL    HW3 5506   2.854   3.140   2.349 -0.1611 -0.4133 -1.5693
 1365SOL    MW4 5507   2.934   3.113   2.371 -0.1845  0.6931 -0.0365
 1366SOL     OW 5508   2.709   3.215   2.256  0.1740 -0.0300 -0.0568
 1366SOL    HW2 5509   2.678   3.304   2.276  2.2355  1.0299 -1.3613
 1366SOL    HW3 5510   2.705   3.210   2.160  0.4488 -1.1968 -0.0060
 1366SOL    MW4 5511   2.705   3.226   2.246  0.4826 -0.0439 -0.2222
 1367SOL     OW 5512   2.659   3.486   2.360 -0.1172  0.1835 -0.1576
 1367SOL    HW2 5513   2.745   3.516   2.331 -0.1525  0.1878 -0.2564
 1367SOL    HW3 5514   2.597   3.539   2.309 -0.1731  1.3950  1.1417
 1367SOL    MW4 5515   2.662   3.497   2.349 -0.1290  0.3443  0.0007
 1368SOL     OW 5516   2.917   3.575   2.264 -0.7829 -0.1274  0.0900
 1368SOL    HW2 5517   2.994   3.529   2.298 -0.7943 -0.3128 -0.1326
 1368SOL    HW3 5518   2.932   3.667   2.287  0.8086  0.2608 -2.3134
 1368SOL    MW4 5519   2.929   3.581   2.272 -0.5744 -0.1004 -0.2565
 1369SOL     OW 5520   2.921   3.834   2.327  0.2354  0.0378 -0.1594
 1369SOL    HW2 5521   2.927   3.847   2.422 -0.5299 -0.1796 -0.0766
 1369SOL    HW3 5522   2.840   3.879   2.302 -0.3920 -1.2297 -0.4547
 1369SOL    MW4 5523   2.911   3.841   2.337  0.0517 -0.1583 -0.1876
 1370SOL     OW 5524   2.715   4.017   2.286 -0.3283  0.0009 -0.2657
 1370SOL    HW2 5525   2.635   3.974   2.314 -0.0108 -1.2583 -1.2838
 1370SOL    HW3 5526   2.704   4.031   2.192  0.3996  0.3460 -0.3041
 1370SOL    MW4 5527   2.703   4.013   2.278 -0.1905 -0.1202 -0.4048
 1371SOL     OW 5528   2.699   4.288   2.345 -0.2272  0.2381 -0.2370
 1371SOL    HW2 5529   2.712   4.301   2.439 -1.1974  0.5219 -0.1384
 1371SOL    HW3 5530   2.719   4.195   2.330 -0.9040 -0.0058  0.3896
 1371SOL    MW4 5531   2.703   4.277   2.355 -0.4444  0.2437 -0.1414
 1372SOL     OW 5532   2.920   4.407   2.227  0.2209 -0.2527 -0.4108
 1372SOL    HW2 5533   2.988   4.381   2.289  0.2052 -0.9934 -0.6924
 1372SOL    HW3 5534   2.840   4.366   2.261  0.2166 -0.6755 -0.9236
 1372SOL    MW4 5535   2.918   4.398   2.240  0.2179 -0.4063 -0.5157
 1373SOL     OW 5536   3.318   4.666   2.360 -0.0875  0.2342  0.5945
 1373SOL    HW2 5537   3.311   4.649   2.455 -0.6217 -0.4740  0.4372
 1373SOL    HW3 5538   3.408   4.693   2.347  0.3823 -1.0356  1.1042
 1373SOL    MW4 5539   3.329   4.667   2.371 -0.0958 -0.0267  0.6409
 1374SOL     OW 5540   3.109   0.145   2.266 -0.1316  0.4426 -0.1222
 1374SOL    HW2 5541   3.094   0.226   2.314  0.7370  1.2949 -1.2745
 1374SOL    HW3 5542   3.185   0.105   2.310 -0.3499  0.4245  0.2345
 1374SOL    MW4 5543   3.117   0.150   2.278 -0.0455  0.5526 -0.2272
 1375SOL     OW 5544   3.105   0.383   2.423  0.2977  0.5271 -0.1301
 1375SOL    HW2 5545   3.177   0.421   2.374 -0.1303  0.8380 -0.5282
 1375SOL    HW3 5546   3.029   0.436   2.399  0.0287  0.5165  0.6607
 1375SOL    MW4 5547   3.104   0.395   2.413  0.2058  0.5667 -0.0784
 1376SOL     OW 5548   3.323   0.458   2.245  0.5010  0.2414  0.2208
 1376SOL    HW2 5549   3.406   0.423   2.280  0.8660 -0.7260 -1.5503
 1376SOL    HW3 5550   3.336   0.459   2.151 -0.8293  1.9185  0.0399
 1376SOL    MW4 5551   3.336   0.453   2.237  0.3738  0.3350 -0.0370
 1377SOL     OW 5552   3.344   0.720   2.360 -0.0213  0.5233 -0.4239
 1377SOL    HW2 5553   3.434   0.746   2.341  0.6638 -0.1390  1.7751
 1377SOL    HW3 5554   3.330   0.641   2.308  0.8248  0.3620 -0.4115
 1377SOL    MW4 5555   3.354   0.713   2.350  0.1805  0.4146 -0.1321
 1378SOL     OW 5556   3.161   0.917   2.222 -0.3161  0.1228 -0.0463
 1378SOL    HW2 5557   3.224   0.862   2.268 -0.9892 -0.0549  0.6658
 1378SOL    HW3 5558   3.075   0.888   2.253 -0.7673  0.2151 -1.1743
 1378SOL    MW4 5559   3.158   0.906   2.232 -0.4644  0.1115 -0.1011
 1379SOL     OW 5560   3.154   1.159   2.355 -0.5375  0.4327 -0.1272
 1379SOL    HW2 5561   3.240   1.194   2.332 -1.3706  2.3763 -0.3654
 1379SOL    HW3 5562   3.150   1.074   2.310  1.3037  0.2352  0.0382
 1379SOL    MW4 5563   3.165   1.152   2.346 -0.4044  0.6633 -0.1366
 1380SOL     OW 5564   3.376   1.255   2.228  0.3709  0.0457  0.2492
 1380SOL    HW2 5565   3.462   1.221   2.255 -0.2671 -0.4465  1.6901
 1380SOL    HW3 5566   3.382   1.349   2.247  1.4104  0.4234 -1.8403
 1380SOL    MW4 5567   3.388   1.263   2.234  0.4239  0.0306  0.1633
 1381SOL     OW 5568   3.372   1.530   2.297  0.5012  0.5342  0.1154
 1381SOL    HW2 5569   3.384   1.534   2.391  1.3726  0.3029  0.0178
 1381SOL    HW3 5570   3.292   1.581   2.280  0.7234  1.1428  0.8993
 1381SOL    MW4 5571   3.363   1.537   2.307  0.6456  0.5840  0.2060
 1382SOL     OW 5572   3.166   1.703   2.246  0.1804 -0.0343  0.2235
 1382SOL    HW2 5573   3.159   1.792   2.280 -0.9943  0.0822 -0.3156
 1382SOL    HW3 5574   3.087   1.659   2.277  0.4906 -0.7418  0.0273
 1382SOL    MW4 5575   3.155   1.709   2.255  0.0665 -0.1123  0.1264
 1383SOL     OW 5576   3.143   1.953   2.355 -0.5389 -0.0406 -0.1812
 1383SOL    HW2 5577   3.146   1.926   2.446 -0.5003  0.7755  0.0644
 1383SOL    HW3 5578   3.232   1.984   2.336 -0.4072 -0.7004 -0.6470
 1383SOL    MW4 5579   3.155   1.954   2.364 -0.5164 -0.0199 -0.2103
 1384SOL     OW 5580   3.408   2.044   2.252  0.7586  0.0378  0.1747
 1384SOL    HW2 5581   3.389   2.137   2.265 -1.7907 -0.2410 -1.1189
 1384SOL    HW3 5582   3.402   2.031   2.157  1.1737 -1.4351  0.3303
 1384SOL    MW4 5583   3.405   2.055   2.241  0.4771 -0.1931  0.0248
 1385SOL     OW 5584   3.345   2.307   2.326 -0.0403  0.9615  0.2250
 1385SOL    HW2 5585   3.273   2.366   2.304  0.0474  1.4788  1.2886
 1385SOL    HW3 5586   3.363   2.325   2.418 -0.2122 -0.9280  0.6548
 1385SOL    MW4 5587   3.338   2.317   2.336 -0.0517  0.7806  0.4220
 1386SOL     OW 5588   3.149   2.483   2.236  0.0224 -0.2560 -0.2553
 1386SOL    HW2 5589   3.084   2.423   2.273 -1.5809  0.5064 -1.7224
 1386SOL    HW3 5590   3.140   2.563   2.287 -1.1251  0.2781 -1.2462
 1386SOL    MW4 5591   3.139   2.486   2.247 -0.3405 -0.0849 -0.5798
 1387SOL     OW 5592   3.157   2.744   2.348  0.0223 -0.2463  0.4585
 1387SOL    HW2 5593   3.139   2.731   2.441 -1.8107 -1.4449 -0.0490
 1387SOL    HW3 5594   3.077   2.784   2.314  0.8257  0.5256 -0.5506
 1387SOL    MW4 5595   3.144   2.748   2.356 -0.1137 -0.3026  0.2584
 1388SOL     OW 5596   3.425   2.827   2.229  0.3157 -0.0623 -0.3595
 1388SOL    HW2 5597   3.420   2.921   2.245  0.8788  0.4074 -2.8487
 1388SOL    HW3 5598   3.348   2.791   2.274 -0.1717  1.6292  0.1907
 1388SOL    MW4 5599   3.414   2.835   2.237  0.3259  0.2232 -0.6156
 1389SOL     OW 5600   3.378   3.082   2.312 -0.1599  0.1666  0.1665
 1389SOL    HW2 5601   3.444   3.141   2.276  0.5567 -1.7361 -1.7459
 1389SOL    HW3 5602   3.294   3.120   2.284  0.3085  0.0784 -1.3744
 1389SOL    MW4 5603   3.375   3.095   2.304 -0.0038 -0.0961 -0.2890
 1390SOL     OW 5604   3.133   3.201   2.231  0.0845  0.2858  0.1935
 1390SOL    HW2 5605   3.150   3.289   2.262  1.1045 -0.2192  1.1109
 1390SOL    HW3 5606   3.139   3.207   2.136  1.6590  0.9001  0.3244
 1390SOL    MW4 5607   3.136   3.213   2.223  0.4265  0.3002  0.3321
 1391SOL     OW 5608   3.156   3.464   2.359  0.7520 -0.3502 -0.4448
 1391SOL    HW2 5609   3.169   3.461   2.454  3.1766 -0.4655 -0.7678
 1391SOL    HW3 5610   3.222   3.525   2.327  0.8256 -1.3336 -2.2163
 1391SOL    MW4 5611   3.166   3.471   2.368  1.0817 -0.4952 -0.7212
 1392SOL     OW 5612   3.360   3.629   2.229  0.2459 -0.0455 -0.1535
 1392SOL    HW2 5613   3.432   3.581   2.270 -0.9390 -0.8367  1.0516
 1392SOL    HW3 5614   3.366   3.606   2.136  1.2860 -0.4463  0.0066
 1392SOL    MW4 5615   3.370   3.620   2.222  0.2270 -0.2029  0.0265
 1393SOL     OW 5616   3.362   3.879   2.341 -0.4582  0.2559 -0.3828
 1393SOL    HW2 5617   3.444   3.909   2.302 -0.1552  0.3371  0.2978
 1393SOL    HW3 5618   3.360   3.785   2.325 -0.3032  0.2786 -0.5313
 1393SOL    MW4 5619   3.372   3.871   2.334 -0.3979  0.2697 -0.3128
 1394SOL     OW 5620   3.120   4.009   2.286  0.1875 -0.1609 -0.2643
 1394SOL    HW2 5621   3.200   3.961   2.303  0.4003  0.2360 -0.1366
 1394SOL    HW3 5622   3.049   3.947   2.306  0.4246  0.1545  1.6678
 1394SOL    MW4 5623   3.121   3.995   2.291  0.2468 -0.0668  0.0076
 1395SOL     OW 5624   3.120   4.292   2.389  0.1343 -0.3262 -0.2722
 1395SOL    HW2 5625   3.193   4.324   2.336  1.5986 -0.2095  1.7638
 1395SOL    HW3 5626   3.118   4.198   2.372  0.9608 -0.3783 -0.1193
 1395SOL    MW4 5627   3.129   4.284   2.380  0.4363 -0.3181  0.0165
 1396SOL     OW 5628   3.347   4.381   2.263  0.1247 -0.0892  0.4657
 1396SOL    HW2 5629   3.338   4.470   2.297 -0.8464 -0.7991  2.1421
 1396SOL    HW3 5630   3.368   4.393   2.170  3.5309  1.9033  1.4139
 1396SOL    MW4 5631   3.349   4.395   2.255  0.4458  0.0801  0.8121
 1397SOL     OW 5632   3.826   4.646   2.354 -0.0101 -0.2785  0.3484
 1397SOL    HW2 5633   3.830   4.648   2.450  1.1101 -0.8303  0.3206
 1397SOL    HW3 5634   3.907   4.688   2.326 -1.5434  2.3202 -0.3984
 1397SOL    MW4 5635   3.837   4.652   2.363 -0.0646 -0.0081  0.2463
 1398SOL     OW 5636   3.572   0.073   2.269 -0.4497 -0.0510 -0.2313
 1398SOL    HW2 5637   3.575   0.168   2.275 -1.1818  0.0056 -0.7703
 1398SOL    HW3 5638   3.652   0.044   2.314 -1.4307  0.7037  2.0920
 1398SOL    MW4 5639   3.583   0.081   2.276 -0.6757  0.0561  0.0043
 1399SOL     OW 5640   3.596   0.346   2.317  0.1858 -0.0614  0.1907
 1399SOL    HW2 5641   3.604   0.346   2.412  1.3925  0.2725  0.1029
 1399SOL    HW3 5642   3.676   0.390   2.286 -0.7915  0.9688 -0.9288
 1399SOL    MW4 5643   3.608   0.351   2.325  0.2162  0.1186  0.0315
 1400SOL     OW 5644   3.825   0.482   2.239  0.4163  0.4259  0.1714
 1400SOL    HW2 5645   3.817   0.568   2.281 -2.4008  0.3824 -0.1770
 1400SOL    HW3 5646   3.846   0.502   2.148 -0.6180  0.7781  0.0036
 1400SOL    MW4 5647   3.827   0.496   2.233 -0.0920  0.4667  0.1035
 1401SOL     OW 5648   3.843   0.736   2.343  0.1747  0.2936  0.2220
 1401SOL    HW2 5649   3.843   0.733   2.439  2.1923 -3.0718  0.2073
 1401SOL    HW3 5650   3.921   0.787   2.321 -1.2370  2.5451  0.3466
 1401SOL    MW4 5651   3.853   0.742   2.353  0.2546  0.1467  0.2367
 1402SOL     OW 5652   3.590   0.829   2.279  0.5889  0.3358  0.1731
 1402SOL    HW2 5653   3.681   0.806   2.295  1.0031  1.6918 -0.2363
 1402SOL    HW3 5654   3.584   0.844   2.185  0.1726  1.2486  0.3380
 1402SOL    MW4 5655   3.601   0.828   2.269  0.5889  0.6351  0.1409
 1403SOL     OW 5656   3.592   1.095   2.337  0.0089  0.1624 -0.7435
 1403SOL    HW2 5657   3.599   1.111   2.431 -1.6224  1.2660 -0.8063
 1403SOL    HW3 5658   3.573   1.001   2.330 -0.5328  0.2087  0.0497
 1403SOL    MW4 5659   3.591   1.084   2.348 -0.2778  0.3141 -0.6471
 1404SOL     OW 5660   3.786   1.236   2.194 -0.0584  0.2279 -0.4338
 1404SOL    HW2 5661   3.775   1.321   2.236  0.7866  0.2980 -0.3307
 1404SOL    HW3 5662   3.725   1.178   2.240  0.0895  0.5484  0.1805
 1404SOL    MW4 5663   3.777   1.239   2.206  0.0727  0.2795 -0.3390
 1405SOL     OW 5664   3.782   1.485   2.322 -0.1351 -0.1403 -0.0743
 1405SOL    HW2 5665   3.773   1.473   2.417  0.3652  0.6340  0.0748
 1405SOL    HW3 5666   3.714   1.548   2.299  0.3967  0.4429 -0.0624
 1405SOL    MW4 5667   3.772   1.492   2.332  0.0010  0.0389 -0.0532
 1406SOL     OW 5668   3.595   1.663   2.239  0.2870  0.1931  0.2487
 1406SOL    HW2 5669   3.515   1.618   2.268 -0.7908  1.7040 -0.3464
 1406SOL    HW3 5670   3.586   1.668   2.144  1.4175 -0.2186  0.1149
 1406SOL    MW4 5671   3.583   1.658   2.231  0.2937  0.3382  0.1526
 1407SOL     OW 5672   3.617   1.913   2.357  0.3274  0.0626 -0.2416
 1407SOL    HW2 5673   3.618   1.832   2.305 -1.0384 -0.0689 -0.0675
 1407SOL    HW3 5674   3.541   1.962   2.325  0.5018  0.7772  0.4198
 1407SOL    MW4 5675   3.607   1.909   2.346  0.1700  0.1395 -0.1316
 1408SOL     OW 5676   3.798   2.062   2.201  0.2236 -0.2711  0.2885
 1408SOL    HW2 5677   3.747   2.017   2.269  0.4534  0.4880  0.9700
 1408SOL    HW3 5678   3.888   2.037   2.220  0.5435  1.8807  1.7668
 1408SOL    MW4 5679   3.803   2.053   2.213  0.2964  0.1130  0.5732
 1409SOL     OW 5680   3.820   2.324   2.323  0.0680 -0.5812  0.3617
 1409SOL    HW2 5681   3.733   2.361   2.310 -0.8435 -2.4579  0.9513
 1409SOL    HW3 5682   3.814   2.235   2.289  1.9716 -0.5122 -0.2395
 1409SOL    MW4 5683   3.808   2.317   2.317  0.1991 -0.8199  0.3603
 1410SOL     OW 5684   3.581   2.437   2.253  0.1109  0.2390 -0.2030
 1410SOL    HW2 5685   3.502   2.386   2.273 -0.0035  1.1621  1.8466
 1410SOL    HW3 5686   3.585   2.439   2.158 -1.8344 -0.6037 -0.3256
 1410SOL    MW4 5687   3.571   2.430   2.243 -0.1607  0.2499  0.0513
 1411SOL     OW 5688   3.624   2.685   2.379  0.0994  0.1731  0.6125
 1411SOL    HW2 5689   3.609   2.592   2.362  0.4586  0.2229  0.0168
 1411SOL    HW3 5690   3.544   2.728   2.348  1.0356  0.3402 -1.6705
 1411SOL    MW4 5691   3.611   2.678   2.373  0.2704  0.2015  0.2327
 1412SOL     OW 5692   3.819   2.851   2.260  0.1033  0.0880 -0.4136
 1412SOL    HW2 5693   3.791   2.845   2.168  0.1242 -1.4957 -0.3379
 1412SOL    HW3 5694   3.768   2.783   2.305 -1.0133  1.8485  1.0551
 1412SOL    MW4 5695   3.809   2.841   2.254 -0.0415  0.1111 -0.2098
 1413SOL     OW 5696   3.846   3.118   2.353 -0.5748 -0.0158  0.1788
 1413SOL    HW2 5697   3.854   3.118   2.448  1.1072  1.2111  0.0629
 1413SOL    HW3 5698   3.844   3.025   2.329  0.6772 -0.3464  1.2869
 1413SOL    MW4 5699   3.846   3.106   2.362 -0.1876  0.1023  0.3097
 1414SOL     OW 5700   3.582   3.243   2.261 -0.2348 -0.0778 -0.2740
 1414SOL    HW2 5701   3.575   3.330   2.299 -1.0774 -0.0744 -0.4240
 1414SOL    HW3 5702   3.663   3.207   2.297 -0.3689  0.4078  0.5209
 1414SOL    MW4 5703   3.591   3.250   2.271 -0.3638 -0.0131 -0.1891
 1415SOL     OW 5704   3.550   3.491   2.372 -0.5235 -0.2653 -0.3259
 1415SOL    HW2 5705   3.556   3.493   2.467  0.1499  2.0048 -0.4004
 1415SOL    HW3 5706   3.634   3.527   2.342 -0.6305 -1.1874 -1.7949
 1415SOL    MW4 5707   3.562   3.496   2.381 -0.4485 -0.0875 -0.5298
 1416SOL     OW 5708   3.813   3.602   2.251  0.3717 -0.1351 -0.1949
 1416SOL    HW2 5709   3.885   3.555   2.293  0.2367 -1.6375 -1.6120
 1416SOL    HW3 5710   3.834   3.600   2.157  0.1587  2.2857 -0.3191
 1416SOL    MW4 5711   3.825   3.596   2.244  0.3254 -0.0141 -0.3984
 1417SOL     OW 5712   3.839   3.873   2.342  0.4922  0.4211 -0.0634
 1417SOL    HW2 5713   3.844   3.859   2.436  1.6087  1.2299  0.0059
 1417SOL    HW3 5714   3.838   3.784   2.305  1.6471  0.1039  0.6404
 1417SOL    MW4 5715   3.840   3.859   2.349  0.7920  0.4861  0.0381
 1418SOL     OW 5716   3.597   3.990   2.259  0.1317  0.0684  0.5402
 1418SOL    HW2 5717   3.610   4.075   2.301  0.4525  0.2924 -0.0115
 1418SOL    HW3 5718   3.673   3.939   2.285  0.2247  0.1376  0.4038
 1418SOL    MW4 5719   3.609   3.995   2.268  0.1864  0.1073  0.4497
 1419SOL     OW 5720   3.583   4.262   2.367  0.4043 -0.2158 -0.3172
 1419SOL    HW2 5721   3.659   4.308   2.331  1.2790 -0.3833  1.2662
 1419SOL    HW3 5722   3.508   4.310   2.333  1.2626  1.1133 -0.3701
 1419SOL    MW4 5723   3.583   4.274   2.358  0.6330 -0.0625 -0.1154
 1420SOL     OW 5724   3.817   4.369   2.268 -0.7946  0.1789  0.6958
 1420SOL    HW2 5725   3.897   4.321   2.291 -0.6014 -0.2951 -0.9183
 1420SOL    HW3 5726   3.832   4.458   2.299  0.0240 -0.0938  1.0993
 1420SOL    MW4 5727   3.829   4.374   2.275 -0.6611  0.0806  0.5362
 1421SOL     OW 5728   4.254   4.624   2.422  0.2248  0.7023 -0.0683
 1421SOL    HW2 5729   4.261   4.622   2.517 -2.7492  0.9896  0.2001
 1421SOL    HW3 5730   4.327   4.679   2.393 -0.4525  2.9175  2.2520
 1421SOL    MW4 5731   4.264   4.631   2.431 -0.2570  1.0324  0.2735
 1422SOL     OW 5732   4.068   0.092   2.265 -0.4175  0.3893 -0.0012
 1422SOL    HW2 5733   4.066   0.177   2.308 -0.9190 -0.0948  0.9331
 1422SOL    HW3 5734   4.120   0.037   2.323 -1.8519 -0.5102  0.4594
 1422SOL    MW4 5735   4.074   0.096   2.278 -0.6733  0.2067  0.1829
 1423SOL     OW 5736   4.020   0.357   2.360 -0.5062 -0.0776 -0.0670
 1423SOL    HW2 5737   4.093   0.407   2.325 -0.2226  0.1522  0.8279
 1423SOL    HW3 5738   3.941   0.401   2.327 -0.2464 -0.2126 -0.8751
 1423SOL    MW4 5739   4.019   0.369   2.351 -0.4339 -0.0651 -0.0556
 1424SOL     OW 5740   4.229   0.463   2.212  0.2687 -0.0175 -0.2880
 1424SOL    HW2 5741   4.250   0.554   2.233 -0.1945 -0.1140  0.6424
 1424SOL    HW3 5742   4.296   0.412   2.257 -1.6300 -0.3076  2.4187
 1424SOL    MW4 5743   4.240   0.469   2.221 -0.0424 -0.0685  0.1919
 1425SOL     OW 5744   4.288   0.712   2.332  0.1296  0.4442 -0.3275
 1425SOL    HW2 5745   4.214   0.768   2.310 -0.1300  0.1354 -0.2525
 1425SOL    HW3 5746   4.364   0.759   2.301  0.0810  1.6812  1.3445
 1425SOL    MW4 5747   4.288   0.725   2.325  0.0882  0.5667 -0.0970
 1426SOL     OW 5748   4.074   0.899   2.257 -0.2044 -0.0425  0.4855
 1426SOL    HW2 5749   4.070   0.986   2.298  1.1825  0.6087 -0.7147
 1426SOL    HW3 5750   4.078   0.917   2.163 -0.6400 -1.4392  0.1942
 1426SOL    MW4 5751   4.074   0.913   2.250 -0.0787 -0.1409  0.2882
 1427SOL     OW 5752   4.022   1.141   2.352  0.4042  0.0897  0.2868
 1427SOL    HW2 5753   4.011   1.127   2.446 -0.2445  0.8749  0.3306
 1427SOL    HW3 5754   3.935   1.166   2.320  0.2309 -1.8670 -0.8312
 1427SOL    MW4 5755   4.009   1.143   2.360  0.2956 -0.0648  0.1450
 1428SOL     OW 5756   4.224   1.274   2.242  0.3639  0.1475  0.0422
 1428SOL    HW2 5757   4.148   1.237   2.288  0.0107  1.1867  0.3010
 1428SOL    HW3 5758   4.295   1.213   2.261 -0.5773 -1.2717 -0.8468
 1428SOL    MW4 5759   4.223   1.261   2.250  0.1926  0.0974 -0.0410
 1429SOL     OW 5760   4.242   1.544   2.322 -0.0342  0.1731 -0.1570
 1429SOL    HW2 5761   4.234   1.450   2.303  1.3530 -0.0628  0.3195
 1429SOL    HW3 5762   4.325   1.569   2.280  0.6806  0.6989  1.5387
 1429SOL    MW4 5763   4.252   1.535   2.314  0.2422  0.2114  0.1299
 1430SOL     OW 5764   3.994   1.660   2.213  0.3688  0.0078  0.1617
 1430SOL    HW2 5765   4.078   1.630   2.248  1.4792 -0.8427 -3.0418
 1430SOL    HW3 5766   3.929   1.613   2.264  1.8712 -0.1270  1.9988
 1430SOL    MW4 5767   3.997   1.649   2.224  0.7138 -0.1222 -0.0184
 1431SOL     OW 5768   4.020   1.924   2.317 -0.5212  0.1140  0.3147
 1431SOL    HW2 5769   4.029   1.913   2.412  0.3241 -0.1984  0.1981
 1431SOL    HW3 5770   3.998   1.837   2.284 -1.6741  0.3957  0.3192
 1431SOL    MW4 5771   4.019   1.911   2.325 -0.5617  0.1099  0.2999
 1432SOL     OW 5772   4.273   2.004   2.207  0.0752 -0.0091  0.0723
 1432SOL    HW2 5773   4.286   2.093   2.239  1.7208 -0.2952  0.2382
 1432SOL    HW3 5774   4.206   1.968   2.264  0.8664  0.4602  1.3294
 1432SOL    MW4 5775   4.266   2.011   2.219  0.3967  0.0153  0.2599
 1433SOL     OW 5776   4.255   2.259   2.315 -0.3244 -0.4041  0.2037
 1433SOL    HW2 5777   4.192   2.318   2.274 -1.7603 -2.1098 -0.1228
 1433SOL    HW3 5778   4.341   2.291   2.287 -1.1570  0.5614 -1.2627
 1433SOL    MW4 5779   4.258   2.271   2.306 -0.6237 -0.5016 -0.0329
 1434SOL     OW 5780   4.050   2.441   2.190 -0.2346 -0.5995  0.1894
 1434SOL    HW2 5781   4.074   2.524   2.231  0.8466 -2.0979  2.7111
 1434SOL    HW3 5782   3.976   2.409   2.242 -0.1165 -1.5996 -0.2461
 1434SOL    MW4 5783   4.043   2.447   2.202 -0.0758 -0.9289  0.4647
 1435SOL     OW 5784   4.048   2.697   2.306  0.1852 -0.4775 -0.0340
 1435SOL    HW2 5785   4.053   2.697   2.402 -1.6828 -1.0166  0.0903
 1435SOL    HW3 5786   3.972   2.752   2.286  0.2464 -0.7923 -1.1688
 1435SOL    MW4 5787   4.039   2.704   2.316 -0.0534 -0.5901 -0.1674
 1436SOL     OW 5788   4.274   2.834   2.249 -0.1990  0.2615  0.2035
 1436SOL    HW2 5789   4.206   2.768   2.262  0.7489 -0.6835  0.4752
 1436SOL    HW3 5790   4.356   2.785   2.258  0.5125  1.3223 -0.4229
 1436SOL    MW4 5791   4.276   2.818   2.252  0.0200  0.2768  0.1566
 1437SOL     OW 5792   4.262   3.098   2.318  0.2785  0.0604 -0.2034
 1437SOL    HW2 5793   4.261   3.008   2.288 -1.7180  1.0018 -3.2495
 1437SOL    HW3 5794   4.352   3.127   2.307  0.7652 -1.3217  0.0882
 1437SOL    MW4 5795   4.274   3.090   2.313  0.0792  0.0021 -0.5670
 1438SOL     OW 5796   4.051   3.236   2.211 -0.2220 -0.4818 -0.5264
 1438SOL    HW2 5797   3.981   3.193   2.260 -0.7819 -0.2134 -1.0717
 1438SOL    HW3 5798   4.132   3.194   2.241 -0.7471 -1.9047 -1.0282
 1438SOL    MW4 5799   4.053   3.225   2.221 -0.3653 -0.6344 -0.6645
 1439SOL     OW 5800   4.053   3.480   2.346 -0.3901  0.0833 -0.5844
 1439SOL    HW2 5801   4.130   3.525   2.313  0.2487 -0.5046  0.0545
 1439SOL    HW3 5802   4.053   3.396   2.300  0.0314 -0.3958  0.2692
 1439SOL    MW4 5803   4.063   3.475   2.336 -0.2503 -0.0575 -0.3874
 1440SOL     OW 5804   4.294   3.585   2.220 -0.1159 -0.0736  0.4858
 1440SOL    HW2 5805   4.297   3.678   2.240 -0.0807  0.4134 -1.6484
 1440SOL    HW3 5806   4.322   3.579   2.129  2.3786 -2.4463  1.3435
 1440SOL    MW4 5807   4.298   3.596   2.211  0.2179 -0.3221  0.3173
 1441SOL     OW 5808   4.292   3.844   2.306 -0.0758 -0.0724 -0.0254
 1441SOL    HW2 5809   4.214   3.895   2.283  0.7101  1.8396  1.4480
 1441SOL    HW3 5810   4.285   3.833   2.401  1.1112 -0.5007  0.0117
 1441SOL    MW4 5811   4.281   3.849   2.315  0.1845  0.1230  0.1738
 1442SOL     OW 5812   4.073   3.988   2.241 -0.2271  0.3868  0.0287
 1442SOL    HW2 5813   3.990   3.953   2.275 -0.0700  0.1914  0.2162
 1442SOL    HW3 5814   4.061   3.990   2.146 -1.1880  2.2806  0.1704
 1442SOL    MW4 5815   4.061   3.983   2.233 -0.3328  0.6108  0.0722
 1443SOL     OW 5816   4.042   4.231   2.371 -0.2884 -0.1326  0.4794
 1443SOL    HW2 5817   4.119   4.283   2.344  0.3158 -0.9485  0.6221
 1443SOL    HW3 5818   4.043   4.156   2.312 -2.4775  1.1289 -1.2452
 1443SOL    MW4 5819   4.052   4.228   2.359 -0.4978 -0.0739  0.2706
 1444SOL     OW 5820   4.260   4.379   2.278  0.1713 -0.2260 -0.0027
 1444SOL    HW2 5821   4.258   4.465   2.320  0.4121  0.4100 -1.2874
 1444SOL    HW3 5822   4.345   4.342   2.303  0.1953  0.0277  0.2986
 1444SOL    MW4 5823   4.271   4.385   2.287  0.2060 -0.1087 -0.1326
 1445SOL     OW 5824   0.230   4.658   2.595 -0.0617  0.5498  0.1077
 1445SOL    HW2 5825   0.206   4.571   2.628 -0.2946  0.8576  0.7483
 1445SOL    HW3 5826   0.171   4.718   2.640 -0.1718  1.0078 -0.6302
 1445SOL    MW4 5827   0.219   4.654   2.605 -0.1070  0.6509  0.0947
 1446SOL     OW 5828   0.035   0.121   2.758 -0.2159 -0.5628 -0.1115
 1446SOL    HW2 5829   0.041   0.124   2.854 -0.7003 -0.9344 -0.0703
 1446SOL    HW3 5830   0.026   0.213   2.732 -0.3161 -0.4801  0.2144
 1446SOL    MW4 5831   0.034   0.134   2.767 -0.2930 -0.6009 -0.0629
 1447SOL     OW 5832   4.486   0.385   2.662 -0.0832 -0.2815  0.3399
 1447SOL    HW2 5833   4.572   0.426   2.671 -0.3944  0.2187  1.0625
 1447SOL    HW3 5834   4.472   0.379   2.568  1.5047 -1.9533  0.1884
 1447SOL    MW4 5835   4.495   0.390   2.651  0.0849 -0.4361  0.4156
 1448SOL     OW 5836   0.251   0.484   2.700  0.1258 -0.5392 -0.3233
 1448SOL    HW2 5837   0.237   0.481   2.795 -0.6325  1.7226 -0.3130
 1448SOL    HW3 5838   0.328   0.430   2.685  2.2702  1.6951  2.0192
 1448SOL    MW4 5839   0.259   0.477   2.710  0.3087  0.0540 -0.0126
 1449SOL     OW 5840   0.206   0.728   2.582  0.1909 -0.1961  0.1108
 1449SOL    HW2 5841   0.281   0.773   2.621  0.2424 -0.6203  0.5050
 1449SOL    HW3 5842   0.209   0.640   2.618 -0.2600 -0.3393 -0.1917
 1449SOL    MW4 5843   0.216   0.723   2.592  0.1382 -0.2710  0.1230
 1450SOL     OW 5844   4.460   0.861   2.713  0.2891 -0.6322  0.4072
 1450SOL    HW2 5845   4.389   0.825   2.660  0.5364 -0.3242 -0.1333
 1450SOL    HW3 5846   4.539   0.822   2.676  0.6225  1.0573 -0.6631
 1450SOL    MW4 5847   4.461   0.851   2.701  0.3657 -0.3687  0.1945
 1451SOL     OW 5848   4.460   1.148   2.594 -0.0839 -0.0930 -0.0106
 1451SOL    HW2 5849   4.552   1.173   2.591 -0.1169  0.0149 -0.0930
 1451SOL    HW3 5850   4.460   1.062   2.637 -0.0759  0.5368  1.2933
 1451SOL    MW4 5851   4.472   1.140   2.600 -0.0873  0.0044  0.1507
 1452SOL     OW 5852   0.234   1.234   2.634 -0.2096  0.8244  0.1017
 1452SOL    HW2 5853   0.320   1.197   2.613 -1.0954 -0.8933 -0.6153
 1452SOL    HW3 5854   0.241   1.326   2.609  1.5497  0.8022  0.4290
 1452SOL    MW4 5855   0.246   1.241   2.628 -0.0944  0.5947  0.0501
 1453SOL     OW 5856   0.227   1.498   2.586 -0.1287 -0.4670 -0.1811
 1453SOL    HW2 5857   0.306   1.536   2.624 -0.0740 -1.3481  0.6073
 1453SOL    HW3 5858   0.156   1.527   2.644 -0.4708  0.7508 -1.1777
 1453SOL    MW4 5859   0.228   1.507   2.599 -0.1666 -0.4226 -0.2084
 1454SOL     OW 5860   0.026   1.623   2.694 -0.3055  0.2408  0.1135
 1454SOL    HW2 5861   0.022   1.713   2.662  0.0503  0.2625  0.1179
 1454SOL    HW3 5862   0.001   1.628   2.786  0.6931  0.4878  0.3816
 1454SOL    MW4 5863   0.022   1.635   2.702 -0.1264  0.2764  0.1495
 1455SOL     OW 5864   0.003   1.901   2.611 -0.2044  0.2037  0.1327
 1455SOL    HW2 5865   0.076   1.962   2.620 -0.6169  0.8131 -0.5560
 1455SOL    HW3 5866  -0.008   1.891   2.517 -0.5018 -0.5059  0.2402
 1455SOL    MW4 5867   0.011   1.907   2.600 -0.2985  0.1903  0.0560
 1456SOL     OW 5868   0.227   2.058   2.691  0.6589 -0.1002 -0.2618
 1456SOL    HW2 5869   0.287   1.992   2.656  0.9905 -0.0111  0.1295
 1456SOL    HW3 5870   0.252   2.139   2.646  1.4287  0.1219  0.5515
 1456SOL    MW4 5871   0.238   2.060   2.681  0.8043 -0.0594 -0.1028
 1457SOL     OW 5872   0.261   2.301   2.574  0.0603  0.0994 -0.6411
 1457SOL    HW2 5873   0.329   2.358   2.608 -1.4535  0.1984  2.4075
 1457SOL    HW3 5874   0.179   2.345   2.597 -1.0981 -2.5183  0.4036
 1457SOL    MW4 5875   0.259   2.314   2.581 -0.2922 -0.2327 -0.1011
 1458SOL     OW 5876   0.017   2.428   2.693 -0.1548 -0.0865 -0.3283
 1458SOL    HW2 5877   0.010   2.424   2.789  1.7455 -2.2387 -0.2519
 1458SOL    HW3 5878  -0.071   2.405   2.663 -0.8865  1.0153  0.9035
 1458SOL    MW4 5879   0.004   2.424   2.702 -0.0010 -0.2251 -0.1554
 1459SOL     OW 5880   4.483   2.689   2.617  0.3020  0.1363 -0.1957
 1459SOL    HW2 5881   4.416   2.740   2.661 -1.2217 -2.1830  0.2179
 1459SOL    HW3 5882   4.488   2.607   2.666  2.2803 -0.3777 -1.1944
 1459SOL    MW4 5883   4.475   2.685   2.629  0.3624 -0.2375 -0.2730
 1460SOL     OW 5884   0.228   2.809   2.700  0.2569 -0.1318 -0.1308
 1460SOL    HW2 5885   0.220   2.895   2.659 -0.1354 -0.6227 -1.0906
 1460SOL    HW3 5886   0.158   2.757   2.662  0.6336 -0.9513  0.2714
 1460SOL    MW4 5887   0.218   2.814   2.690  0.2548 -0.3045 -0.2041
 1461SOL     OW 5888   0.219   3.074   2.589 -0.3584 -0.0490 -0.2082
 1461SOL    HW2 5889   0.284   3.138   2.619  0.9657 -0.6655 -1.6616
 1461SOL    HW3 5890   0.220   3.082   2.494 -0.7487 -1.6746 -0.3672
 1461SOL    MW4 5891   0.228   3.084   2.580 -0.2352 -0.3450 -0.4210
 1462SOL     OW 5892   0.015   3.219   2.689  0.2315  0.0778 -0.2073
 1462SOL    HW2 5893  -0.065   3.172   2.666  0.4694 -0.6173  0.3860
 1462SOL    HW3 5894   0.085   3.167   2.648  0.2972  1.2716 -1.6383
 1462SOL    MW4 5895   0.014   3.206   2.680  0.2716  0.1435 -0.3181
 1463SOL     OW 5896   0.021   3.490   2.624  0.4000  0.0730  0.3937
 1463SOL    HW2 5897   0.086   3.544   2.667  0.5644  0.7686 -0.7102
 1463SOL    HW3 5898   0.041   3.401   2.652  1.5285  0.3408  0.4357
 1463SOL    MW4 5899   0.032   3.485   2.633  0.5706  0.2000  0.2537
 1464SOL     OW 5900   0.213   3.643   2.736 -0.1184  0.1715 -0.4780
 1464SOL    HW2 5901   0.211   3.634   2.831 -0.6937 -2.2510 -0.6670
 1464SOL    HW3 5902   0.287   3.588   2.709  0.1780  1.0235 -1.4204
 1464SOL    MW4 5903   0.223   3.634   2.745 -0.1552 -0.0353 -0.6273
 1465SOL     OW 5904   0.233   3.898   2.638  0.3713 -0.0284  0.4086
 1465SOL    HW2 5905   0.212   3.820   2.690  1.3321 -0.1560  0.6198
 1465SOL    HW3 5906   0.206   3.875   2.549  0.6303 -0.6010  0.4714
 1465SOL    MW4 5907   0.226   3.884   2.634  0.5322 -0.1209  0.4447
 1466SOL     OW 5908   0.012   4.002   2.771  0.1434 -0.2009 -0.9083
 1466SOL    HW2 5909  -0.013   4.085   2.731  2.2510  0.8695 -0.0804
 1466SOL    HW3 5910   0.095   3.979   2.730  1.3218 -0.1172  1.3304
 1466SOL    MW4 5911   0.020   4.010   2.761  0.5770 -0.0486 -0.5035
 1467SOL     OW 5912   4.447   4.241   2.679  0.1467  0.1624 -0.1358
 1467SOL    HW2 5913   4.364   4.282   2.703  0.2469  0.2638  0.0371
 1467SOL    HW3 5914   4.514   4.303   2.709  0.3904 -1.2485  2.3926
 1467SOL    MW4 5915   4.445   4.255   2.686  0.1926 -0.0105  0.2205
 1468SOL     OW 5916   0.188   4.397   2.718  1.0066 -0.2251 -0.0042
 1468SOL    HW2 5917   0.210   4.391   2.811  1.0571  0.2128  0.0162
 1468SOL    HW3 5918   0.263   4.358   2.673  1.2006  0.0012  0.1217
 1468SOL    MW4 5919   0.201   4.391   2.724  1.0389 -0.1373  0.0148
 1469SOL     OW 5920   0.682   4.616   2.611 -0.1125  0.5212  0.3359
 1469SOL    HW2 5921   0.766   4.651   2.639 -0.7654  0.3847  2.5735
 1469SOL    HW3 5922   0.617   4.674   2.650 -1.0820  0.5263 -1.2198
 1469SOL    MW4 5923   0.684   4.628   2.620 -0.3265  0.5040  0.4258
 1470SOL     OW 5924   0.471   0.104   2.694 -0.4932 -0.1580  0.3662
 1470SOL    HW2 5925   0.451   0.092   2.787  0.7189  0.4197  0.7068
 1470SOL    HW3 5926   0.393   0.072   2.649 -0.9460 -0.7876  1.5683
 1470SOL    MW4 5927   0.458   0.098   2.700 -0.3930 -0.1649  0.5696
 1471SOL     OW 5928   0.479   0.359   2.598 -0.0528  0.0149 -0.2322
 1471SOL    HW2 5929   0.544   0.417   2.639  1.0141 -1.0765 -0.3461
 1471SOL    HW3 5930   0.499   0.272   2.634 -2.3603 -0.1111  0.8223
 1471SOL    MW4 5931   0.491   0.355   2.609 -0.2165 -0.1457 -0.1082
 1472SOL     OW 5932   0.672   0.503   2.734 -0.3943 -0.4824 -0.2182
 1472SOL    HW2 5933   0.650   0.496   2.827 -1.5004 -0.6215 -0.4783
 1472SOL    HW3 5934   0.743   0.440   2.722 -1.2253 -1.5264  0.2399
 1472SOL    MW4 5935   0.678   0.494   2.745 -0.6499 -0.6385 -0.1917
 1473SOL     OW 5936   0.665   0.759   2.636  0.1347  0.0674 -0.1695
 1473SOL    HW2 5937   0.728   0.800   2.695 -1.1564  0.2710  1.0937
 1473SOL    HW3 5938   0.665   0.667   2.661 -0.8023  0.2492  0.5161
 1473SOL    MW4 5939   0.673   0.752   2.647 -0.1593  0.1181  0.0877
 1474SOL     OW 5940   0.410   0.845   2.696 -0.2814 -0.0789 -0.0420
 1474SOL    HW2 5941   0.414   0.934   2.660  1.8005  0.1519  0.6727
 1474SOL    HW3 5942   0.493   0.805   2.670 -0.5776 -1.3146  0.8778
 1474SOL    MW4 5943   0.421   0.851   2.688 -0.0458 -0.2116  0.1733
 1475SOL     OW 5944   0.459   1.091   2.585  0.1333 -0.3148  0.3459
 1475SOL    HW2 5945   0.536   1.138   2.617  0.6772 -0.9678  0.0196
 1475SOL    HW3 5946   0.461   1.103   2.490 -1.6892  1.9454  0.5594
 1475SOL    MW4 5947   0.469   1.099   2.576 -0.0354 -0.1026  0.3309
 1476SOL     OW 5948   0.647   1.274   2.688  0.4656 -0.1374 -0.1989
 1476SOL    HW2 5949   0.638   1.280   2.783 -0.9255 -0.3643 -0.3153
 1476SOL    HW3 5950   0.719   1.212   2.675  0.1606 -0.6869  0.6993
 1476SOL    MW4 5951   0.656   1.266   2.699  0.2418 -0.2398 -0.0958
 1477SOL     OW 5952   0.681   1.530   2.582  0.3347  0.0035 -0.0988
 1477SOL    HW2 5953   0.599   1.565   2.617  0.0031 -0.6008 -0.2712
 1477SOL    HW3 5954   0.686   1.441   2.616  1.1840  0.2189  0.3464
 1477SOL    MW4 5955   0.671   1.523   2.591  0.4030 -0.0478 -0.0629
 1478SOL     OW 5956   0.443   1.627   2.686 -0.2846 -0.1019  0.0064
 1478SOL    HW2 5957   0.444   1.633   2.781  1.3195 -0.3810  0.0215
 1478SOL    HW3 5958   0.430   1.717   2.656  2.3408  0.4685  0.4737
 1478SOL    MW4 5959   0.442   1.640   2.694  0.2735 -0.0635  0.0701
 1479SOL     OW 5960   0.406   1.884   2.593  0.1099 -0.1988 -0.4848
 1479SOL    HW2 5961   0.486   1.928   2.620  0.7691 -1.3790 -0.4642
 1479SOL    HW3 5962   0.399   1.901   2.499 -1.0860  2.1782 -0.0043
 1479SOL    MW4 5963   0.416   1.892   2.584  0.0391 -0.0409 -0.4184
 1480SOL     OW 5964   0.644   2.025   2.665 -0.0811 -0.0469 -0.1607
 1480SOL    HW2 5965   0.660   2.041   2.758 -0.6968  0.2345 -0.1033
 1480SOL    HW3 5966   0.721   1.976   2.636  0.4115  0.4237  0.3437
 1480SOL    MW4 5967   0.656   2.020   2.674 -0.0972  0.0525 -0.0865
 1481SOL     OW 5968   0.683   2.310   2.579 -0.2823 -0.5425  0.3333
 1481SOL    HW2 5969   0.764   2.355   2.602 -0.1907 -1.4096  1.7839
 1481SOL    HW3 5970   0.690   2.225   2.623 -2.1851 -0.4360  0.8766
 1481SOL    MW4 5971   0.694   2.304   2.588 -0.5213 -0.6428  0.5965
 1482SOL     OW 5972   0.449   2.428   2.701 -0.5360  0.2597  0.2959
 1482SOL    HW2 5973   0.465   2.518   2.674 -0.6772  0.3503  0.5126
 1482SOL    HW3 5974   0.520   2.378   2.661 -2.4952 -0.1211 -2.9474
 1482SOL    MW4 5975   0.460   2.433   2.692 -0.8131  0.2215 -0.1035
 1483SOL     OW 5976   0.462   2.683   2.594  0.4595  0.0006 -0.1351
 1483SOL    HW2 5977   0.533   2.736   2.630 -1.6495  1.8987  1.3359
 1483SOL    HW3 5978   0.382   2.730   2.618 -1.3491 -2.4722 -1.1171
 1483SOL    MW4 5979   0.461   2.696   2.602 -0.0574 -0.0753 -0.0706
 1484SOL     OW 5980   0.644   2.838   2.718 -0.0368  0.3808 -0.4126
 1484SOL    HW2 5981   0.667   2.858   2.809 -1.7897  0.3273  0.0559
 1484SOL    HW3 5982   0.630   2.924   2.678  2.5162  0.5022 -1.1483
 1484SOL    MW4 5983   0.645   2.852   2.725  0.0687  0.3901 -0.4478
 1485SOL     OW 5984   0.676   3.102   2.627  0.3916 -0.1941 -0.0614
 1485SOL    HW2 5985   0.766   3.122   2.654  0.1120  0.7532  0.1893
 1485SOL    HW3 5986   0.681   3.094   2.532  0.5222  1.0305 -0.1624
 1485SOL    MW4 5987   0.689   3.104   2.618  0.3719  0.0923 -0.0415
 1486SOL     OW 5988   0.439   3.212   2.718  0.7051 -0.3889 -0.4288
 1486SOL    HW2 5989   0.439   3.204   2.814  0.1820 -0.3653 -0.4296
 1486SOL    HW3 5990   0.532   3.204   2.694  0.8116 -0.6348  0.0582
 1486SOL    MW4 5991   0.451   3.210   2.728  0.6502 -0.4182 -0.3645
 1487SOL     OW 5992   0.428   3.488   2.643  0.5567 -0.4871 -0.1074
 1487SOL    HW2 5993   0.406   3.400   2.671 -0.5737 -0.6665 -1.5266
 1487SOL    HW3 5994   0.444   3.481   2.549  0.7510  0.7616 -0.1839
 1487SOL    MW4 5995   0.427   3.476   2.634  0.4332 -0.3459 -0.3045
 1488SOL     OW 5996   0.665   3.601   2.727 -0.0970 -0.1765  0.2122
 1488SOL    HW2 5997   0.679   3.584   2.821 -0.9020 -1.7105  0.0598
 1488SOL    HW3 5998   0.595   3.541   2.702  2.0484 -1.8188 -2.0407
 1488SOL    MW4 5999   0.658   3.591   2.736  0.0798 -0.5956 -0.1051
 1489SOL     OW 6000   0.687   3.867   2.637  0.3846  0.0026  0.4908
 1489SOL    HW2 6001   0.608   3.915   2.661  0.6279  0.4371  0.4303
 1489SOL    HW3 6002   0.680   3.783   2.683 -1.6849 -1.2810 -2.0251
 1489SOL    MW4 6003   0.676   3.862   2.646  0.1436 -0.1097  0.1509
 1490SOL     OW 6004   0.480   4.017   2.725  0.1322  0.0533 -0.9137
 1490SOL    HW2 6005   0.456   4.109   2.715  0.6976  0.1118 -1.7354
 1490SOL    HW3 6006   0.402   3.968   2.700  0.6398  0.2557 -2.9139
 1490SOL    MW4 6007   0.467   4.023   2.721  0.2737  0.0877 -1.2858
 1491SOL     OW 6008   0.425   4.278   2.652 -0.0038 -0.5012  0.0024
 1491SOL    HW2 6009   0.498   4.329   2.686  1.6013 -3.1975  0.7270
 1491SOL    HW3 6010   0.451   4.255   2.563 -1.0674  0.5885 -0.5989
 1491SOL    MW4 6011   0.438   4.282   2.645  0.0676 -0.7133  0.0188
 1492SOL     OW 6012   0.658   4.394   2.753  0.0920  0.4437 -0.4749
 1492SOL    HW2 6013   0.730   4.341   2.719  0.1184 -0.4325  0.9172
 1492SOL    HW3 6014   0.665   4.477   2.706  1.6896  0.1853 -0.7267
 1492SOL    MW4 6015   0.668   4.398   2.742  0.3062  0.2937 -0.3242
 1493SOL     OW 6016   1.164   4.638   2.666 -0.0426 -0.0850 -0.5339
 1493SOL    HW2 6017   1.242   4.678   2.704  0.1694 -1.3471  0.3856
 1493SOL    HW3 6018   1.170   4.545   2.689 -2.1966 -0.0827  0.1958
 1493SOL    MW4 6019   1.175   4.631   2.674 -0.2989 -0.2513 -0.3164
 1494SOL     OW 6020   0.915   0.061   2.742  0.0229 -0.1752  0.5426
 1494SOL    HW2 6021   0.927   0.090   2.832  0.0554 -0.9538  0.7920
 1494SOL    HW3 6022   0.997   0.018   2.719  0.6533  1.5054 -0.4384
 1494SOL    MW4 6023   0.927   0.059   2.750  0.1103 -0.0562  0.4461
 1495SOL     OW 6024   0.886   0.311   2.663  0.1441  0.7769  0.6793
 1495SOL    HW2 6025   0.891   0.218   2.687  0.1641  0.9222  1.2641
 1495SOL    HW3 6026   0.882   0.312   2.568 -0.1640  0.1583  0.6869
 1495SOL    MW4 6027   0.886   0.299   2.654  0.1061  0.7145  0.7577
 1496SOL     OW 6028   1.109   0.437   2.739  0.0728 -0.1012 -0.5761
 1496SOL    HW2 6029   1.106   0.522   2.695 -0.2336  0.1133 -0.1485
 1496SOL    HW3 6030   1.026   0.395   2.716 -0.1333  0.0533 -0.1291
 1496SOL    MW4 6031   1.097   0.443   2.730  0.0051 -0.0525 -0.4606
 1497SOL     OW 6032   1.121   0.690   2.640  0.4769 -0.2975 -0.3106
 1497SOL    HW2 6033   1.188   0.742   2.685  0.8813 -0.2873 -0.9273
 1497SOL    HW3 6034   1.127   0.715   2.548 -0.4272 -0.2448 -0.3646
 1497SOL    MW4 6035   1.131   0.700   2.634  0.4110 -0.2891 -0.3994
 1498SOL     OW 6036   0.894   0.861   2.728 -0.5633 -0.0275  0.0261
 1498SOL    HW2 6037   0.911   0.876   2.821 -0.0351  0.7566 -0.1972
 1498SOL    HW3 6038   0.972   0.815   2.697 -0.7535 -0.3166 -0.0299
 1498SOL    MW4 6039   0.907   0.857   2.736 -0.5187  0.0378 -0.0107
 1499SOL     OW 6040   0.892   1.130   2.634 -0.3315 -0.4087 -0.0903
 1499SOL    HW2 6041   0.888   1.037   2.653 -2.8137 -0.2969  0.1444
 1499SOL    HW3 6042   0.883   1.136   2.539  1.8943 -0.4769 -0.3329
 1499SOL    MW4 6043   0.890   1.119   2.624 -0.3653 -0.4028 -0.0916
 1500SOL     OW 6044   1.138   1.236   2.711  0.1991 -0.2325  0.0615
 1500SOL    HW2 6045   1.143   1.326   2.677 -0.5779  0.1421  0.9062
 1500SOL    HW3 6046   1.054   1.203   2.678  0.0165 -0.2930  0.5721
 1500SOL    MW4 6047   1.127   1.244   2.702  0.0725 -0.1911  0.2406
 1501SOL     OW 6048   1.147   1.501   2.627 -0.5249 -0.2657  0.4621
 1501SOL    HW2 6049   1.076   1.549   2.671 -0.8337 -0.6760  0.4139
 1501SOL    HW3 6050   1.138   1.524   2.535 -1.0218 -0.8548  0.3611
 1501SOL    MW4 6051   1.136   1.510   2.621 -0.6312 -0.3976  0.4427
 1502SOL     OW 6052   0.910   1.665   2.689 -0.2662  0.0078  0.1394
 1502SOL    HW2 6053   0.894   1.671   2.784  1.1563 -0.1371  0.3934
 1502SOL    HW3 6054   0.826   1.636   2.653 -0.7710 -0.1015  1.3713
 1502SOL    MW4 6055   0.897   1.662   2.697 -0.1451 -0.0259  0.3355
 1503SOL     OW 6056   0.904   1.915   2.594 -0.0086  0.0671  0.3643
 1503SOL    HW2 6057   0.959   1.975   2.645 -0.8737  0.3729  0.9517
 1503SOL    HW3 6058   0.922   1.829   2.632  1.3915 -0.0902 -0.6145
 1503SOL    MW4 6059   0.914   1.912   2.606  0.0620  0.0867  0.3126
 1504SOL     OW 6060   1.094   2.058   2.726  0.7097  0.2004  0.2661
 1504SOL    HW2 6061   1.163   2.008   2.681  0.6926  0.0529  0.4004
 1504SOL    HW3 6062   1.097   2.145   2.687  0.8570  0.1430  0.1499
 1504SOL    MW4 6063   1.103   2.063   2.715  0.7268  0.1736  0.2689
 1505SOL     OW 6064   1.133   2.314   2.628 -0.0680 -0.3669 -0.0696
 1505SOL    HW2 6065   1.213   2.357   2.658 -1.0403  2.1532 -0.9596
 1505SOL    HW3 6066   1.136   2.322   2.532 -1.2829 -0.4127 -0.1234
 1505SOL    MW4 6067   1.144   2.320   2.619 -0.3566 -0.0401 -0.1941
 1506SOL     OW 6068   0.895   2.446   2.665  0.1644 -0.5577 -0.6693
 1506SOL    HW2 6069   0.889   2.540   2.652  0.9700 -0.6359 -1.5972
 1506SOL    HW3 6070   0.985   2.423   2.642  0.3261 -1.3701  0.7255
 1506SOL    MW4 6071   0.906   2.455   2.660  0.2920 -0.6750 -0.6077
 1507SOL     OW 6072   0.863   2.718   2.617  0.3548  0.0379  0.6982
 1507SOL    HW2 6073   0.933   2.774   2.652 -0.6118  0.2348  2.3377
 1507SOL    HW3 6074   0.782   2.762   2.641 -0.3739 -0.6557 -0.4230
 1507SOL    MW4 6075   0.862   2.731   2.625  0.1311 -0.0277  0.7665
 1508SOL     OW 6076   1.097   2.848   2.718 -0.1042 -0.0204 -0.0564
 1508SOL    HW2 6077   1.103   2.855   2.814 -2.5475  1.5294  0.0048
 1508SOL    HW3 6078   1.168   2.788   2.695  0.0588 -1.0211  2.8013
 1508SOL    MW4 6079   1.107   2.841   2.728 -0.4052  0.0520  0.3288
 1509SOL     OW 6080   1.148   3.096   2.651  0.0000  0.0000  0.4391
 1509SOL    HW2 6081   1.122   3.007   2.674  0.0000  0.0000  0.4206
 1509SOL    HW3 6082   1.136   3.101   2.556  0.0000  0.0000  0.4393
 1509SOL    MW4 6083   1.143   3.085   2.642  0.0000  0.0000  0.4365
 1510SOL     OW 6084   0.919   3.208   2.735  0.0000  0.0000 -0.3686
 1510SOL    HW2 6085   0.903   3.287   2.683  0.0000  0.0000 -0.3536
 1510SOL    HW3 6086   1.006   3.179   2.708  0.0000  0.0000 -0.3844
 1510SOL    MW4 6087   0.928   3.215   2.724  0.0000  0.0000 -0.3686
 1511SOL     OW 6088   0.887   3.462   2.627  0.0000  0.0000  0.0845
 1511SOL    HW2 6089   0.961   3.509   2.668  0.0000  0.0000  0.1014
 1511SOL    HW3 6090   0.810   3.512   2.655  0.0000  0.0000  0.1133
 1511SOL    MW4 6091   0.887   3.475   2.636  0.0000  0.0000  0.0906
 1512SOL     OW 6092   1.102   3.599   2.754  0.0000  0.0000 -0.1196
 1512SOL    HW2 6093   1.101   3.626   2.846  0.0000  0.0000 -0.1184
 1512SOL    HW3 6094   1.100   3.681   2.705  0.0000  0.0000 -0.1165
 1512SOL    MW4 6095   1.102   3.613   2.760  0.0000  0.0000 -0.1190
 1513SOL     OW 6096   1.098   3.851   2.627  0.0000  0.0000 -0.2868
 1513SOL    HW2 6097   1.178   3.889   2.665  0.0000  0.0000 -0.2904
 1513SOL    HW3 6098   1.110   3.859   2.532  0.0000  0.0000 -0.2872
 1513SOL    MW4 6099   1.110   3.857   2.620  0.0000  0.0000 -0.2873
 1514SOL     OW 6100   0.893   4.008   2.752  0.0000  0.0000 -0.3949
 1514SOL    HW2 6101   0.957   3.963   2.697  0.0000  0.0000 -0.4183
 1514SOL    HW3 6102   0.809   3.969   2.726  0.0000  0.0000 -0.3578
 1514SOL    MW4 6103   0.890   3.997   2.741  0.0000  0.0000 -0.3929
 1515SOL     OW 6104   0.888   4.266   2.670  0.0000  0.0000  0.2697
 1515SOL    HW2 6105   0.892   4.173   2.694  0.0000  0.0000  0.2700
 1515SOL    HW3 6106   0.884   4.265   2.574  0.0000  0.0000  0.2699
 1515SOL    MW4 6107   0.888   4.254   2.660  0.0000  0.0000  0.2699
 1516SOL     OW 6108   1.144   4.351   2.733  0.0000  0.0000 -0.0767
 1516SOL    HW2 6109   1.137   4.378   2.825  0.0000  0.0000 -0.0756
 1516SOL    HW3 6110   1.055   4.327   2.708  0.0000  0.0000 -0.0715
 1516SOL    MW4 6111   1.131   4.351   2.742  0.0000  0.0000 -0.0756
 1517SOL     OW 6112   1.593   4.643   2.611  0.0000  0.0000  0.3068
 1517SOL    HW2 6113   1.588   4.549   2.628  0.0000  0.0000  0.3068
 1517SOL    HW3 6114   1.581   4.652   2.517  0.0000  0.0000  0.3070
 1517SOL    MW4 6115   1.591   4.632   2.601  0.0000  0.0000  0.3068
 1518SOL     OW 6116   1.398   0.088   2.770  0.3803  0.0259  0.2248
 1518SOL    HW2 6117   1.372   0.174   2.735  1.3587  0.2089 -0.0723
 1518SOL    HW3 6118   1.458   0.053   2.704  0.1293 -0.8032  0.4389
 1518SOL    MW4 6119   1.403   0.095   2.756  0.4764 -0.0594  0.2136
 1519SOL     OW 6120   1.343   0.332   2.641  0.0816  0.4488 -0.0084
 1519SOL    HW2 6121   1.396   0.391   2.695 -0.0298  0.1175  0.4649
 1519SOL    HW3 6122   1.253   0.356   2.660  0.0271 -0.0649  0.4099
 1519SOL    MW4 6123   1.338   0.343   2.651  0.0597  0.3374  0.1094
 1520SOL     OW 6124   1.549   0.487   2.780  0.1150  0.6125  0.0963
 1520SOL    HW2 6125   1.633   0.449   2.752 -0.4106 -0.8688  0.4772
 1520SOL    HW3 6126   1.548   0.574   2.740  0.8693 -0.1714 -1.7213
 1520SOL    MW4 6127   1.560   0.493   2.771  0.1451  0.3136 -0.0932
 1521SOL     OW 6128   1.575   0.734   2.675  0.3498  0.1078  0.1716
 1521SOL    HW2 6129   1.495   0.772   2.709  1.7448  2.8293  0.5339
 1521SOL    HW3 6130   1.568   0.745   2.580  0.9106  1.6530  0.2991
 1521SOL    MW4 6131   1.564   0.740   2.667  0.6078  0.6708  0.2363
 1522SOL     OW 6132   1.324   0.849   2.743  0.1672  0.1785 -0.3332
 1522SOL    HW2 6133   1.311   0.866   2.836 -1.8664 -1.0126 -0.3579
 1522SOL    HW3 6134   1.344   0.934   2.706 -0.8126  0.9794  0.9274
 1522SOL    MW4 6135   1.325   0.862   2.750 -0.2304  0.1270 -0.1700
 1523SOL     OW 6136   1.374   1.099   2.616 -0.2120  0.1136  0.4973
 1523SOL    HW2 6137   1.439   1.154   2.661 -0.7696  0.4627  0.8767
 1523SOL    HW3 6138   1.290   1.139   2.637 -0.5892 -0.6221  0.4025
 1523SOL    MW4 6139   1.372   1.112   2.625 -0.3353  0.0626  0.5348
 1524SOL     OW 6140   1.542   1.282   2.714  0.0809  0.2088  0.3667
 1524SOL    HW2 6141   1.566   1.288   2.806  0.6436 -0.8721  0.3101
 1524SOL    HW3 6142   1.611   1.228   2.675 -1.6910 -1.8221 -0.0793
 1524SOL    MW4 6143   1.555   1.275   2.721 -0.0787 -0.2017  0.3002
 1525SOL     OW 6144   1.577   1.545   2.623  0.0778  0.4212  0.0644
 1525SOL    HW2 6145   1.559   1.456   2.652  0.8232  0.3900  0.4575
 1525SOL    HW3 6146   1.588   1.538   2.528 -1.1163  0.3095 -0.0707
 1525SOL    MW4 6147   1.576   1.533   2.615  0.0186  0.4023  0.0985
 1526SOL     OW 6148   1.357   1.680   2.709 -0.2382  0.1829 -0.0560
 1526SOL    HW2 6149   1.440   1.639   2.683 -0.7381  0.0278 -1.4598
 1526SOL    HW3 6150   1.290   1.620   2.678 -0.9549  1.5874 -1.3050
 1526SOL    MW4 6151   1.359   1.667   2.702 -0.3988  0.3477 -0.4060
 1527SOL     OW 6152   1.307   1.925   2.588  0.3751 -0.0157  0.0328
 1527SOL    HW2 6153   1.319   1.838   2.626 -1.3537 -0.3422 -0.1390
 1527SOL    HW3 6154   1.320   1.912   2.494  2.6531  0.4169  0.2522
 1527SOL    MW4 6155   1.310   1.911   2.580  0.4475 -0.0018  0.0389
 1528SOL     OW 6156   1.542   2.074   2.684 -0.0499 -0.2813  0.0140
 1528SOL    HW2 6157   1.626   2.037   2.658 -0.3136 -0.3790 -0.7058
 1528SOL    HW3 6158   1.477   2.019   2.641 -0.4750 -0.1303  0.4692
 1528SOL    MW4 6159   1.545   2.062   2.675 -0.1409 -0.2744 -0.0212
 1529SOL     OW 6160   1.580   2.332   2.582 -0.3336  0.1008  0.3410
 1529SOL    HW2 6161   1.654   2.362   2.635  0.3167  0.8984 -0.9869
 1529SOL    HW3 6162   1.564   2.242   2.612  0.4271  0.3091  1.4256
 1529SOL    MW4 6163   1.587   2.324   2.593 -0.1475  0.2337  0.3088
 1530SOL     OW 6164   1.358   2.463   2.685 -0.1153 -0.2497  0.2385
 1530SOL    HW2 6165   1.343   2.554   2.660 -0.5031 -1.1017 -2.7609
 1530SOL    HW3 6166   1.449   2.446   2.660  0.1017 -0.5716  1.2191
 1530SOL    MW4 6167   1.368   2.473   2.679 -0.1379 -0.4048 -0.0281
 1531SOL     OW 6168   1.321   2.742   2.584  0.0793  0.0693 -0.3339
 1531SOL    HW2 6169   1.404   2.781   2.609 -0.5618  1.7733 -0.7794
 1531SOL    HW3 6170   1.325   2.734   2.489  1.1065 -3.1170 -0.0793
 1531SOL    MW4 6171   1.332   2.746   2.575  0.1304 -0.1264 -0.3591
 1532SOL     OW 6172   1.577   2.785   2.678 -0.2408 -0.0254  0.0171
 1532SOL    HW2 6173   1.578   2.820   2.767 -0.6315 -0.3026  0.1320
 1532SOL    HW3 6174   1.666   2.754   2.662 -0.4563 -0.9887  0.7054
 1532SOL    MW4 6175   1.589   2.786   2.687 -0.3207 -0.1888  0.1230
 1533SOL     OW 6176   1.585   3.050   2.573  0.5777 -0.1532  0.0504
 1533SOL    HW2 6177   1.653   3.090   2.626  0.9004  0.0641 -0.5292
 1533SOL    HW3 6178   1.585   2.958   2.600  0.5391  0.0119  0.6296
 1533SOL    MW4 6179   1.594   3.043   2.583  0.6151 -0.1025  0.0505
 1534SOL     OW 6180   1.388   3.237   2.709 -0.5193  0.3628 -0.5415
 1534SOL    HW2 6181   1.460   3.198   2.659  0.7363  0.1712  1.3429
 1534SOL    HW3 6182   1.313   3.181   2.690  0.2469 -0.4576 -1.2167
 1534SOL    MW4 6183   1.388   3.224   2.700 -0.2526  0.2291 -0.3822
 1535SOL     OW 6184   1.332   3.506   2.666  0.3954 -0.3060  0.2530
 1535SOL    HW2 6185   1.335   3.411   2.678  0.3508 -0.2574  0.6370
 1535SOL    HW3 6186   1.249   3.532   2.705  0.3828 -0.1153  0.0975
 1535SOL    MW4 6187   1.321   3.497   2.672  0.3879 -0.2747  0.2835
 1536SOL     OW 6188   1.572   3.604   2.776 -0.1399 -0.1342  0.3752
 1536SOL    HW2 6189   1.642   3.569   2.722  0.2184  1.4556 -0.2031
 1536SOL    HW3 6190   1.492   3.581   2.729  0.0322 -1.0801  0.5323
 1536SOL    MW4 6191   1.571   3.596   2.763 -0.0700 -0.0491  0.3197
 1537SOL     OW 6192   1.596   3.840   2.661 -0.1116 -0.9139  0.0943
 1537SOL    HW2 6193   1.512   3.878   2.688 -0.3430 -1.3276 -0.0430
 1537SOL    HW3 6194   1.599   3.756   2.706  0.1245 -1.0053 -0.0944
 1537SOL    MW4 6195   1.586   3.834   2.671 -0.1110 -0.9806  0.0513
 1538SOL     OW 6196   1.353   3.938   2.749 -0.1266  0.2962  0.6705
 1538SOL    HW2 6197   1.355   3.955   2.843 -1.9939 -0.7014  0.9158
 1538SOL    HW3 6198   1.352   4.025   2.709 -0.9193  0.7410  1.6352
 1538SOL    MW4 6199   1.353   3.951   2.756 -0.4774  0.2234  0.8302
 1539SOL     OW 6200   1.388   4.210   2.636  0.3544 -0.9065  0.0808
 1539SOL    HW2 6201   1.319   4.270   2.665  0.4711 -1.0414  0.6393
 1539SOL    HW3 6202   1.386   4.216   2.540 -0.8733 -1.4101  0.0707
 1539SOL    MW4 6203   1.379   4.219   2.627  0.2078 -0.9909  0.1531
 1540SOL     OW 6204   1.605   4.373   2.705 -0.0783 -0.3074 -0.0201
 1540SOL    HW2 6205   1.596   4.369   2.800 -1.8617 -0.7278 -0.1890
 1540SOL    HW3 6206   1.523   4.336   2.672 -0.0212  1.0545 -1.7255
 1540SOL    MW4 6207   1.593   4.367   2.713 -0.3060 -0.1826 -0.2673
 1541SOL     OW 6208   2.036   4.610   2.641  0.2633  0.2089 -0.6462
 1541SOL    HW2 6209   2.116   4.662   2.650 -1.1521  2.2771  0.4572
 1541SOL    HW3 6210   2.013   4.618   2.549 -0.0617  1.7888 -0.4488
 1541SOL    MW4 6211   2.044   4.618   2.630  0.0336  0.6905 -0.4747
 1542SOL     OW 6212   1.824   0.094   2.750  0.1723  0.3212 -0.5388
 1542SOL    HW2 6213   1.896   0.040   2.718  1.1233  1.0869  0.2662
 1542SOL    HW3 6214   1.746   0.060   2.706  0.5688 -2.4613  0.8097
 1542SOL    MW4 6215   1.823   0.083   2.740  0.3501  0.0551 -0.2546
 1543SOL     OW 6216   1.794   0.364   2.702  0.4883  0.2362 -0.2066
 1543SOL    HW2 6217   1.875   0.406   2.732 -0.1430  0.3023  1.4117
 1543SOL    HW3 6218   1.804   0.272   2.727 -0.5402  0.5184  1.2401
 1543SOL    MW4 6219   1.806   0.357   2.709  0.2692  0.2822  0.1979
 1544SOL     OW 6220   2.042   0.523   2.737  0.2764 -0.2310  0.2740
 1544SOL    HW2 6221   2.103   0.462   2.697 -0.2832  0.3302 -1.4825
 1544SOL    HW3 6222   2.057   0.606   2.692 -0.7777  0.2718  0.8229
 1544SOL    MW4 6223   2.052   0.526   2.726  0.0637 -0.0906  0.1144
 1545SOL     OW 6224   2.054   0.787   2.635 -0.9535  0.0822  0.0344
 1545SOL    HW2 6225   1.972   0.809   2.679 -0.3939 -0.0955  1.1968
 1545SOL    HW3 6226   2.031   0.778   2.543 -2.6021 -1.7639  0.6021
 1545SOL    MW4 6227   2.040   0.788   2.629 -1.0972 -0.1848  0.2627
 1546SOL     OW 6228   1.797   0.873   2.745 -0.2659 -0.1042  0.6784
 1546SOL    HW2 6229   1.775   0.962   2.718  0.8034 -0.3674 -1.1115
 1546SOL    HW3 6230   1.719   0.822   2.725 -0.3370  0.1528  0.2986
 1546SOL    MW4 6231   1.784   0.878   2.739 -0.1343 -0.1050  0.3922
 1547SOL     OW 6232   1.767   1.142   2.635 -0.5564 -0.3364  0.5914
 1547SOL    HW2 6233   1.842   1.194   2.664 -0.3652  0.3170 -1.0041
 1547SOL    HW3 6234   1.773   1.143   2.539 -1.6603 -1.6786  0.4910
 1547SOL    MW4 6235   1.778   1.149   2.626 -0.6769 -0.4274  0.3676
 1548SOL     OW 6236   1.979   1.276   2.741  0.3020 -0.1011  0.1516
 1548SOL    HW2 6237   2.001   1.262   2.833  1.0001 -0.8109 -0.1161
 1548SOL    HW3 6238   2.059   1.254   2.694 -0.7207 -1.9073 -0.7926
 1548SOL    MW4 6239   1.993   1.272   2.747  0.2592 -0.4331 -0.0086
 1549SOL     OW 6240   1.998   1.537   2.640  0.0620 -0.2416  0.5226
 1549SOL    HW2 6241   1.924   1.594   2.659  0.3925 -0.1932  1.7117
 1549SOL    HW3 6242   1.980   1.457   2.690  0.1285 -0.7588 -0.2809
 1549SOL    MW4 6243   1.986   1.534   2.649  0.1142 -0.3035  0.5734
 1550SOL     OW 6244   1.782   1.703   2.683  0.1263 -0.5061 -0.0946
 1550SOL    HW2 6245   1.791   1.692   2.777  1.0644 -0.7394 -0.2058
 1550SOL    HW3 6246   1.709   1.646   2.659 -1.6903  1.3601  0.8266
 1550SOL    MW4 6247   1.774   1.694   2.692  0.0103 -0.2906  0.0124
 1551SOL     OW 6248   1.787   1.963   2.633  0.4051  0.3128 -0.4156
 1551SOL    HW2 6249   1.872   1.988   2.670  0.7607 -0.2984 -0.8031
 1551SOL    HW3 6250   1.781   1.869   2.647 -0.8426  0.5759  0.8614
 1551SOL    MW4 6251   1.798   1.954   2.640  0.2874  0.2668 -0.2980
 1552SOL     OW 6252   2.018   2.081   2.724  0.1793  0.4990  0.3003
 1552SOL    HW2 6253   2.007   2.107   2.816 -0.4736  0.6113  0.1869
 1552SOL    HW3 6254   2.043   2.161   2.679  2.1016  0.1448  0.6508
 1552SOL    MW4 6255   2.020   2.095   2.730  0.3469  0.4671  0.3314
 1553SOL     OW 6256   2.042   2.323   2.596  0.0657  0.1588 -0.3725
 1553SOL    HW2 6257   2.115   2.364   2.642 -1.5395  3.0338 -0.2593
 1553SOL    HW3 6258   2.055   2.349   2.504  0.1589 -0.8189 -0.6375
 1553SOL    MW4 6259   2.053   2.332   2.590 -0.1338  0.4089 -0.3927
 1554SOL     OW 6260   1.801   2.406   2.722 -0.0453  0.1278  0.0651
 1554SOL    HW2 6261   1.813   2.432   2.813  1.1610  1.2123 -0.3817
 1554SOL    HW3 6262   1.885   2.367   2.697 -0.3989 -0.2526 -0.5535
 1554SOL    MW4 6263   1.814   2.405   2.731  0.0672  0.2208 -0.0756
 1555SOL     OW 6264   1.829   2.686   2.652  0.7441 -0.3173  0.2774
 1555SOL    HW2 6265   1.821   2.593   2.671  1.6276 -0.5520 -0.4890
 1555SOL    HW3 6266   1.820   2.693   2.557  0.4869  0.4013  0.3467
 1555SOL    MW4 6267   1.827   2.675   2.642  0.8266 -0.2532  0.1855
 1556SOL     OW 6268   2.046   2.839   2.750  0.5943  0.3064  0.0234
 1556SOL    HW2 6269   2.126   2.790   2.729  0.9337  0.3906  1.0793
 1556SOL    HW3 6270   1.975   2.785   2.714  1.0692 -0.2045 -0.1631
 1556SOL    MW4 6271   2.048   2.825   2.742  0.7017  0.2499  0.1380
 1557SOL     OW 6272   2.014   3.106   2.652  0.3703  0.2080  0.2133
 1557SOL    HW2 6273   2.021   3.022   2.696  1.1177  1.0621  1.7876
 1557SOL    HW3 6274   2.030   3.087   2.560  0.2435 -1.3974  0.5141
 1557SOL    MW4 6275   2.017   3.093   2.646  0.4523  0.1087  0.4606
 1558SOL     OW 6276   1.759   3.208   2.707 -0.6329  0.0558 -0.2433
 1558SOL    HW2 6277   1.742   3.300   2.687  0.0362  0.3595  0.5770
 1558SOL    HW3 6278   1.843   3.189   2.664 -0.1747  0.1631  0.6026
 1558SOL    MW4 6279   1.768   3.218   2.699 -0.4841  0.1101 -0.0236
 1559SOL     OW 6280   1.760   3.469   2.613 -0.1919  0.8950 -0.2415
 1559SOL    HW2 6281   1.839   3.510   2.647  0.4479  0.2348 -0.9389
 1559SOL    HW3 6282   1.767   3.476   2.518 -0.2598 -0.4678 -0.3593
 1559SOL    MW4 6283   1.771   3.475   2.605 -0.1163  0.6285 -0.3488
 1560SOL     OW 6284   1.987   3.578   2.718  0.2479 -0.1454 -0.3845
 1560SOL    HW2 6285   2.004   3.555   2.810 -0.4639 -2.0783 -0.7158
 1560SOL    HW3 6286   2.059   3.537   2.670  0.0712  0.0291 -0.7946
 1560SOL    MW4 6287   1.999   3.569   2.724  0.1307 -0.3774 -0.4823
 1561SOL     OW 6288   2.039   3.863   2.640  0.0262 -0.4237 -0.4911
 1561SOL    HW2 6289   1.969   3.915   2.681  0.4445  0.5889 -1.0558
 1561SOL    HW3 6290   2.019   3.773   2.665 -1.5060 -0.1473 -0.6789
 1561SOL    MW4 6291   2.027   3.858   2.649 -0.1206 -0.2537 -0.5903
 1562SOL     OW 6292   1.816   3.970   2.765  0.3272 -0.1589  0.6624
 1562SOL    HW2 6293   1.810   4.057   2.727  1.6476 -0.5415 -0.4610
 1562SOL    HW3 6294   1.741   3.923   2.729  0.7975 -0.1081 -0.3987
 1562SOL    MW4 6295   1.805   3.975   2.755  0.5635 -0.2027  0.3741
 1563SOL     OW 6296   1.819   4.232   2.669 -0.5065  1.0183  0.3124
 1563SOL    HW2 6297   1.741   4.283   2.686 -0.1773  1.9153 -0.8123
 1563SOL    HW3 6298   1.828   4.232   2.573 -0.7193 -1.4746  0.2559
 1563SOL    MW4 6299   1.810   4.239   2.658 -0.4913  0.8078  0.1566
 1564SOL     OW 6300   2.035   4.380   2.775 -0.0375 -0.0598 -0.5465
 1564SOL    HW2 6301   1.966   4.328   2.734 -0.1696 -0.2119 -0.1270
 1564SOL    HW3 6302   2.026   4.467   2.734  0.0714 -0.3151 -1.1143
 1564SOL    MW4 6303   2.024   4.385   2.764 -0.0405 -0.1135 -0.5660
 1565SOL     OW 6304   2.472   4.640   2.667  0.0807 -0.8037 -0.0947
 1565SOL    HW2 6305   2.545   4.693   2.698 -0.0091 -1.1075  0.6493
 1565SOL    HW3 6306   2.466   4.659   2.573  1.6196 -1.3939 -0.3289
 1565SOL    MW4 6307   2.481   4.650   2.659  0.2718 -0.9217 -0.0277
 1566SOL     OW 6308   2.240   0.108   2.733 -0.9551 -0.7592  0.0835
 1566SOL    HW2 6309   2.213   0.112   2.825 -0.7932 -0.5761  0.1236
 1566SOL    HW3 6310   2.313   0.046   2.731 -0.4515 -0.1755  0.2046
 1566SOL    MW4 6311   2.246   0.101   2.745 -0.8676 -0.6580  0.1047
 1567SOL     OW 6312   2.201   0.352   2.601 -0.2783 -0.0142  0.3591
 1567SOL    HW2 6313   2.225   0.269   2.642  0.1475 -0.3837 -0.6190
 1567SOL    HW3 6314   2.182   0.329   2.510 -0.2326  0.9414  0.1015
 1567SOL    MW4 6315   2.202   0.338   2.594 -0.2158  0.0631  0.1962
 1568SOL     OW 6316   2.436   0.470   2.720  0.0621 -0.3744  0.1536
 1568SOL    HW2 6317   2.418   0.560   2.695 -0.4195 -0.8679 -1.3668
 1568SOL    HW3 6318   2.366   0.419   2.678  0.8355 -1.5388  0.2437
 1568SOL    MW4 6319   2.425   0.475   2.711  0.1006 -0.5932 -0.0353
 1569SOL     OW 6320   2.441   0.740   2.632  0.0329 -0.0570  0.0061
 1569SOL    HW2 6321   2.377   0.805   2.660  1.8946  0.9959  1.9627
 1569SOL    HW3 6322   2.443   0.748   2.536 -0.6286  1.9346  0.1270
 1569SOL    MW4 6323   2.433   0.750   2.623  0.1910  0.3446  0.2799
 1570SOL     OW 6324   2.269   0.938   2.715 -0.4075  0.2242  0.6195
 1570SOL    HW2 6325   2.266   0.924   2.810 -1.2154  2.7525  1.0226
 1570SOL    HW3 6326   2.188   0.898   2.682  0.1411 -1.1396  0.9137
 1570SOL    MW4 6327   2.258   0.931   2.723 -0.4418  0.3779  0.7114
 1571SOL     OW 6328   2.245   1.197   2.647 -0.5756  0.2932 -0.7246
 1571SOL    HW2 6329   2.241   1.108   2.682 -0.8847  0.2607 -0.8447
 1571SOL    HW3 6330   2.249   1.186   2.552  0.2091  0.3842 -0.7056
 1571SOL    MW4 6331   2.245   1.184   2.639 -0.5131  0.3009 -0.7377
 1572SOL     OW 6332   2.386   1.418   2.794  0.1712  0.1788 -0.2187
 1572SOL    HW2 6333   2.344   1.342   2.754 -0.3241  0.5616 -0.4368
 1572SOL    HW3 6334   2.335   1.493   2.762 -0.9890  0.4034  2.0645
 1572SOL    MW4 6335   2.374   1.418   2.784 -0.0474  0.2589  0.0539
 1573SOL     OW 6336   2.582   1.430   2.614 -0.3610  0.6493 -0.3692
 1573SOL    HW2 6337   2.503   1.421   2.668  1.3960  1.2632  2.4072
 1573SOL    HW3 6338   2.623   1.344   2.616  0.0848  0.8634 -0.0783
 1573SOL    MW4 6339   2.577   1.418   2.622 -0.0703  0.7585  0.0355
 1574SOL     OW 6340   2.254   1.645   2.734  0.5625  0.1654 -0.0294
 1574SOL    HW2 6341   2.272   1.720   2.678 -0.9821 -0.3078 -1.1929
 1574SOL    HW3 6342   2.183   1.598   2.690  0.9746 -1.5585  1.0715
 1574SOL    MW4 6343   2.247   1.648   2.721  0.4129 -0.1246 -0.0379
 1575SOL     OW 6344   2.230   1.921   2.654 -0.7868  0.2458 -0.3594
 1575SOL    HW2 6345   2.161   1.974   2.694 -0.8529  0.6932 -1.0514
 1575SOL    HW3 6346   2.237   1.955   2.565 -2.0276 -2.0793 -1.3801
 1575SOL    MW4 6347   2.222   1.933   2.647 -0.9594 -0.0019 -0.5851
 1576SOL     OW 6348   2.471   2.034   2.739  0.9383  0.3286  0.2793
 1576SOL    HW2 6349   2.466   2.126   2.713  1.4220  0.5823  1.0584
 1576SOL    HW3 6350   2.380   2.005   2.743  0.6057  1.5126  2.5731
 1576SOL    MW4 6351   2.458   2.042   2.736  0.9582  0.5183  0.6847
 1577SOL     OW 6352   2.442   2.300   2.649 -0.0170  0.1745 -0.1563
 1577SOL    HW2 6353   2.517   2.350   2.682  0.6372  0.1330 -1.5192
 1577SOL    HW3 6354   2.459   2.292   2.555 -1.8463  0.3462 -0.5212
 1577SOL    MW4 6355   2.454   2.306   2.641 -0.1719  0.1919 -0.3843
 1578SOL     OW 6356   2.235   2.447   2.751  0.1483  0.0010  0.2794
 1578SOL    HW2 6357   2.258   2.436   2.843 -1.1795 -1.0652  0.5047
 1578SOL    HW3 6358   2.306   2.405   2.704  0.0432 -0.8733  0.8801
 1578SOL    MW4 6359   2.247   2.440   2.757 -0.0405 -0.2549  0.3881
 1579SOL     OW 6360   2.249   2.696   2.634  0.2199 -0.0795  0.4058
 1579SOL    HW2 6361   2.335   2.731   2.655  0.0439  0.5751  0.0577
 1579SOL    HW3 6362   2.249   2.608   2.671  1.4032 -0.4670 -0.4934
 1579SOL    MW4 6363   2.260   2.689   2.642  0.3529 -0.0441  0.2410
 1580SOL     OW 6364   2.493   2.800   2.724  0.2259 -0.3693  0.1087
 1580SOL    HW2 6365   2.582   2.785   2.693  0.6087 -0.9569  1.4665
 1580SOL    HW3 6366   2.477   2.892   2.705  1.1753 -0.2246 -0.0333
 1580SOL    MW4 6367   2.503   2.810   2.718  0.4017 -0.4277  0.2689
 1581SOL     OW 6368   2.494   3.080   2.624 -0.0064 -0.0661  0.1988
 1581SOL    HW2 6369   2.409   3.115   2.650  0.5764  0.8908  0.8092
 1581SOL    HW3 6370   2.495   3.088   2.528 -0.8344 -0.6173  0.1405
 1581SOL    MW4 6371   2.483   3.086   2.614 -0.0386 -0.0126  0.2718
 1582SOL     OW 6372   2.252   3.217   2.733  0.2816 -0.1347  0.1842
 1582SOL    HW2 6373   2.253   3.218   2.829  0.0831  0.7998  0.1815
 1582SOL    HW3 6374   2.165   3.185   2.710  0.2906 -0.2544  0.3152
 1582SOL    MW4 6375   2.241   3.213   2.742  0.2565 -0.0272  0.2012
 1583SOL     OW 6376   2.237   3.478   2.615 -0.0320 -0.0034  0.1497
 1583SOL    HW2 6377   2.290   3.544   2.658 -0.4197 -0.0296  0.6801
 1583SOL    HW3 6378   2.245   3.401   2.671 -2.4560  0.6661  1.5002
 1583SOL    MW4 6379   2.245   3.476   2.628 -0.4032  0.0813  0.3979
 1584SOL     OW 6380   2.447   3.652   2.718 -0.3035  0.0557  0.3325
 1584SOL    HW2 6381   2.457   3.654   2.813 -0.8596 -0.8852  0.4166
 1584SOL    HW3 6382   2.468   3.741   2.690 -1.0344  0.5794  1.4205
 1584SOL    MW4 6383   2.451   3.664   2.727 -0.4735  0.0005  0.4869
 1585SOL     OW 6384   2.248   4.009   2.723 -0.1793  0.1352 -0.0822
 1585SOL    HW2 6385   2.243   4.009   2.819 -1.4856 -0.2620 -0.1408
 1585SOL    HW3 6386   2.187   3.940   2.696  0.8454 -0.3554 -1.1730
 1585SOL    MW4 6387   2.239   4.000   2.732 -0.2165  0.0176 -0.2339
 1586SOL     OW 6388   2.495   3.926   2.621 -0.2872  0.1306  0.1865
 1586SOL    HW2 6389   2.573   3.961   2.664 -0.2237  0.8965 -0.5516
 1586SOL    HW3 6390   2.422   3.964   2.671 -0.2164  1.2242 -0.5310
 1586SOL    MW4 6391   2.495   3.936   2.633 -0.2694  0.3760 -0.0055
 1587SOL     OW 6392   2.258   4.271   2.632  0.0526  0.1561  0.1990
 1587SOL    HW2 6393   2.263   4.182   2.665 -0.1633  0.5350  1.2731
 1587SOL    HW3 6394   2.181   4.309   2.676 -1.3771  0.0920 -2.1661
 1587SOL    MW4 6395   2.248   4.264   2.642 -0.1643  0.1979  0.0286
 1588SOL     OW 6396   2.482   4.379   2.749 -0.3179  0.3706  0.3399
 1588SOL    HW2 6397   2.402   4.350   2.705  0.6510 -0.5840 -0.8146
 1588SOL    HW3 6398   2.499   4.466   2.713 -1.1053  0.8043  0.9768
 1588SOL    MW4 6399   2.473   4.386   2.738 -0.2942  0.3018  0.2716
 1589SOL     OW 6400   2.912   4.654   2.661  0.3761  0.5436  0.1353
 1589SOL    HW2 6401   2.989   4.699   2.694  1.4654 -1.6243  0.6571
 1589SOL    HW3 6402   2.923   4.652   2.566  1.6667 -0.9335  0.2955
 1589SOL    MW4 6403   2.923   4.659   2.653  0.6902  0.0625  0.2255
 1590SOL     OW 6404   2.683   0.148   2.737 -0.5559  0.3170 -0.1905
 1590SOL    HW2 6405   2.672   0.119   2.828 -1.1452 -1.1765 -0.7297
 1590SOL    HW3 6406   2.754   0.094   2.702  2.2595  3.4433  0.4452
 1590SOL    MW4 6407   2.691   0.137   2.744 -0.2620  0.5324 -0.1779
 1591SOL     OW 6408   2.700   0.422   2.717 -0.5520  0.1461  0.0904
 1591SOL    HW2 6409   2.706   0.330   2.742  1.2706 -0.0936 -1.0773
 1591SOL    HW3 6410   2.607   0.438   2.706 -0.8116 -2.0495 -1.3710
 1591SOL    MW4 6411   2.689   0.412   2.719 -0.3462 -0.1752 -0.2565
 1592SOL     OW 6412   2.921   0.578   2.781 -0.0881 -0.5073 -0.4412
 1592SOL    HW2 6413   2.918   0.654   2.722 -0.1178 -1.2633 -1.4340
 1592SOL    HW3 6414   2.832   0.543   2.778 -0.1321 -0.4429  0.1963
 1592SOL    MW4 6415   2.909   0.583   2.773 -0.0978 -0.5986 -0.4883
 1593SOL     OW 6416   2.877   0.779   2.579 -0.1270 -0.2079 -0.0448
 1593SOL    HW2 6417   2.809   0.829   2.624 -0.9943 -1.6294  0.2530
 1593SOL    HW3 6418   2.959   0.821   2.604 -0.7271 -0.0059  1.6110
 1593SOL    MW4 6419   2.879   0.791   2.588 -0.3207 -0.3688  0.2127
 1594SOL     OW 6420   2.676   0.884   2.732 -0.0968  0.2787 -0.5750
 1594SOL    HW2 6421   2.669   0.873   2.826 -0.0526  1.8043 -0.3813
 1594SOL    HW3 6422   2.598   0.841   2.697 -0.2753 -0.0084  0.1748
 1594SOL    MW4 6423   2.665   0.877   2.739 -0.1144  0.4421 -0.4506
 1595SOL     OW 6424   2.682   1.135   2.622  0.0678 -0.6375 -0.1153
 1595SOL    HW2 6425   2.764   1.170   2.658 -0.5743  0.0674  0.6671
 1595SOL    HW3 6426   2.669   1.052   2.668  0.8509 -1.2498 -0.9602
 1595SOL    MW4 6427   2.691   1.128   2.633  0.0863 -0.6254 -0.1237
 1596SOL     OW 6428   2.906   1.285   2.726  0.1467  0.1407  0.7792
 1596SOL    HW2 6429   2.918   1.284   2.821  1.0363 -1.5693  0.6660
 1596SOL    HW3 6430   2.982   1.237   2.692 -1.4456 -1.4416 -0.6464
 1596SOL    MW4 6431   2.918   1.278   2.734  0.0539 -0.2936  0.5760
 1597SOL     OW 6432   2.933   1.529   2.603  0.1732  0.0544  0.3425
 1597SOL    HW2 6433   2.862   1.587   2.631 -0.5320  0.9219 -2.9992
 1597SOL    HW3 6434   2.913   1.445   2.645 -1.5011  0.9214  1.3529
 1597SOL    MW4 6435   2.921   1.525   2.613 -0.1409  0.2832  0.0348
 1598SOL     OW 6436   2.714   1.663   2.729  0.4056 -0.1827  0.1478
 1598SOL    HW2 6437   2.712   1.648   2.824 -0.6893  2.5697  0.6036
 1598SOL    HW3 6438   2.652   1.598   2.694 -0.9921  0.3234  1.5889
 1598SOL    MW4 6439   2.705   1.652   2.737  0.0770  0.2472  0.3982
 1599SOL     OW 6440   2.715   1.932   2.668 -0.2491 -0.5632 -0.4205
 1599SOL    HW2 6441   2.701   1.839   2.684 -0.3827 -0.6133 -0.8169
 1599SOL    HW3 6442   2.633   1.974   2.696  0.5597 -0.3301  1.6858
 1599SOL    MW4 6443   2.702   1.926   2.674 -0.1602 -0.5389 -0.1948
 1600SOL     OW 6444   2.941   2.042   2.750  0.1018  0.2469  0.2114
 1600SOL    HW2 6445   2.934   2.137   2.744  2.0863  0.3337 -1.3495
 1600SOL    HW3 6446   2.854   2.010   2.726 -0.2032  1.6446 -0.6314
 1600SOL    MW4 6447   2.929   2.050   2.746  0.3233  0.4427 -0.1056
 1601SOL     OW 6448   2.916   2.316   2.651  0.2261  0.1452  0.2648
 1601SOL    HW2 6449   2.988   2.368   2.686  1.1025 -0.4035 -0.6902
 1601SOL    HW3 6450   2.837   2.356   2.689  0.9841  1.1057  0.8702
 1601SOL    MW4 6451   2.915   2.328   2.661  0.4416  0.1996  0.2186
 1602SOL     OW 6452   2.678   2.449   2.738 -0.0904  0.3357  0.2523
 1602SOL    HW2 6453   2.710   2.446   2.828  0.9805  0.3546 -0.1209
 1602SOL    HW3 6454   2.683   2.541   2.714 -1.1903  0.4539  0.4572
 1602SOL    MW4 6455   2.683   2.461   2.747 -0.0944  0.3536  0.2306
 1603SOL     OW 6456   2.734   2.719   2.641 -0.0539 -0.0097 -0.0960
 1603SOL    HW2 6457   2.803   2.780   2.664 -0.5617  0.5928 -0.1549
 1603SOL    HW3 6458   2.734   2.716   2.546 -0.7113  0.6921 -0.1215
 1603SOL    MW4 6459   2.743   2.726   2.632 -0.2079  0.1624 -0.1070
 1604SOL     OW 6460   2.946   2.872   2.751 -0.1666  0.3627 -0.7373
 1604SOL    HW2 6461   2.943   2.964   2.728 -1.1591  0.2616 -1.0120
 1604SOL    HW3 6462   2.961   2.872   2.846  1.1547  0.7899 -0.9453
 1604SOL    MW4 6463   2.947   2.884   2.761 -0.1235  0.4058 -0.8011
 1605SOL     OW 6464   2.930   3.121   2.666  0.3522 -0.6433  0.4348
 1605SOL    HW2 6465   2.859   3.179   2.694  0.8498 -0.1910  0.7898
 1605SOL    HW3 6466   2.922   3.116   2.571  0.2021 -0.1251  0.4204
 1605SOL    MW4 6467   2.920   3.128   2.658  0.3979 -0.5152  0.4799
 1606SOL     OW 6468   2.693   3.241   2.745  0.0924 -0.1536  0.1601
 1606SOL    HW2 6469   2.705   3.334   2.728  0.7837 -0.1801  0.5143
 1606SOL    HW3 6470   2.615   3.218   2.695 -0.0906  0.6180  0.0872
 1606SOL    MW4 6471   2.684   3.250   2.736  0.1593 -0.0551  0.1972
 1607SOL     OW 6472   2.676   3.501   2.646  0.3797 -0.0397 -0.1305
 1607SOL    HW2 6473   2.593   3.530   2.683  1.0863  1.1704  0.5411
 1607SOL    HW3 6474   2.660   3.496   2.552 -0.9846 -1.6570  0.1649
 1607SOL    MW4 6475   2.663   3.504   2.639  0.2930 -0.0932 -0.0029
 1608SOL     OW 6476   2.911   3.604   2.740 -0.3741  0.1589  0.2668
 1608SOL    HW2 6477   2.918   3.589   2.835 -0.3772 -1.0502  0.0887
 1608SOL    HW3 6478   2.821   3.579   2.718 -0.1442 -0.2799 -0.1782
 1608SOL    MW4 6479   2.900   3.599   2.750 -0.3438 -0.0584  0.1845
 1609SOL     OW 6480   2.935   3.865   2.621  0.1067  0.1739 -0.0390
 1609SOL    HW2 6481   3.012   3.907   2.658 -1.4827  2.3912  0.8509
 1609SOL    HW3 6482   2.923   3.786   2.673 -0.2493  1.6407  2.1620
 1609SOL    MW4 6483   2.943   3.860   2.632 -0.1497  0.6599  0.3688
 1610SOL     OW 6484   2.740   4.011   2.704 -0.6822  0.0153  0.6798
 1610SOL    HW2 6485   2.762   4.091   2.657 -1.3975 -0.6909 -0.8938
 1610SOL    HW3 6486   2.800   3.945   2.669  0.3640 -0.0060  2.4454
 1610SOL    MW4 6487   2.751   4.013   2.693 -0.6385 -0.0806  0.7052
 1611SOL     OW 6488   2.718   4.268   2.625  0.1958 -0.0664  0.2870
 1611SOL    HW2 6489   2.774   4.320   2.683  0.0611 -0.6836  0.9818
 1611SOL    HW3 6490   2.629   4.293   2.650  0.1421 -0.0410  0.0688
 1611SOL    MW4 6491   2.714   4.278   2.636  0.1712 -0.1445  0.3500
 1612SOL     OW 6492   2.898   4.409   2.769 -0.2838  0.3003  0.3265
 1612SOL    HW2 6493   2.915   4.416   2.863  0.1143 -2.1183  0.4692
 1612SOL    HW3 6494   2.904   4.499   2.737  2.5635  0.8318  2.1076
 1612SOL    MW4 6495   2.901   4.422   2.777  0.1442  0.0510  0.5803
 1613SOL     OW 6496   3.351   4.646   2.646 -0.0669  0.2863  0.1610
 1613SOL    HW2 6497   3.350   4.562   2.692 -0.1218 -0.1838 -0.6886
 1613SOL    HW3 6498   3.272   4.691   2.676 -1.0534 -0.7670 -0.8526
 1613SOL    MW4 6499   3.340   4.641   2.656 -0.2043  0.0854 -0.0849
 1614SOL     OW 6500   3.127   0.117   2.749  0.6212  0.1753  0.3413
 1614SOL    HW2 6501   3.139   0.101   2.843  0.6780 -0.4509  0.2271
 1614SOL    HW3 6502   3.112   0.212   2.743  0.8098  0.2477  0.9612
 1614SOL    MW4 6503   3.126   0.127   2.761  0.6535  0.1023  0.4079
 1615SOL     OW 6504   3.117   0.386   2.698  0.0874  0.7632 -0.3074
 1615SOL    HW2 6505   3.054   0.456   2.714 -1.1783 -0.4345  0.0425
 1615SOL    HW3 6506   3.119   0.376   2.603 -2.2638 -0.9684 -0.2210
 1615SOL    MW4 6507   3.109   0.394   2.688 -0.3896  0.3767 -0.2501
 1616SOL     OW 6508   3.372   0.483   2.696 -0.1942  0.0796 -0.1800
 1616SOL    HW2 6509   3.358   0.576   2.676  0.7950  0.6458  1.6182
 1616SOL    HW3 6510   3.284   0.446   2.701 -0.5985  0.9320 -0.8260
 1616SOL    MW4 6511   3.358   0.491   2.694 -0.1171  0.2667 -0.0279
 1617SOL     OW 6512   3.341   0.763   2.632  0.3784  0.4451 -0.2073
 1617SOL    HW2 6513   3.424   0.806   2.650  1.4809 -1.5887 -0.2909
 1617SOL    HW3 6514   3.342   0.746   2.538  0.2650 -0.3868 -0.0605
 1617SOL    MW4 6515   3.352   0.766   2.622  0.5090  0.0670 -0.1991
 1618SOL     OW 6516   3.113   0.856   2.701 -0.0764 -0.0844 -0.2713
 1618SOL    HW2 6517   3.095   0.843   2.794 -0.1386 -0.1899 -0.2982
 1618SOL    HW3 6518   3.189   0.800   2.684  0.2482  0.3241 -0.1691
 1618SOL    MW4 6519   3.121   0.847   2.711 -0.0415 -0.0443 -0.2615
 1619SOL     OW 6520   3.114   1.128   2.644  0.3481  0.0325  0.0599
 1619SOL    HW2 6521   3.126   1.038   2.673  1.6542  0.7826  1.8904
 1619SOL    HW3 6522   3.130   1.125   2.549 -0.7639 -1.8439 -0.0967
 1619SOL    MW4 6523   3.118   1.116   2.635  0.3738 -0.1161  0.2806
 1620SOL     OW 6524   3.367   1.270   2.711 -0.0338  0.3919 -0.3363
 1620SOL    HW2 6525   3.362   1.274   2.806  0.6357 -0.7022 -0.2499
 1620SOL    HW3 6526   3.298   1.209   2.686 -0.7004  1.2466 -0.6129
 1620SOL    MW4 6527   3.357   1.263   2.720 -0.0334  0.3603 -0.3614
 1621SOL     OW 6528   3.347   1.538   2.576  0.5437  0.5256  0.2687
 1621SOL    HW2 6529   3.266   1.574   2.612 -0.0571  0.3864 -0.9188
 1621SOL    HW3 6530   3.354   1.451   2.615  0.0747  0.5068  0.3178
 1621SOL    MW4 6531   3.337   1.531   2.586  0.4027  0.5047  0.1185
 1622SOL     OW 6532   3.130   1.646   2.728  0.1659  0.4357 -0.8131
 1622SOL    HW2 6533   3.130   1.736   2.695 -1.7946  1.2951  1.4402
 1622SOL    HW3 6534   3.062   1.602   2.678  0.2263  0.5340 -0.9848
 1622SOL    MW4 6535   3.121   1.652   2.717 -0.0846  0.5621 -0.5383
 1623SOL     OW 6536   3.152   1.920   2.627 -0.3969 -0.5888 -0.3108
 1623SOL    HW2 6537   3.220   1.976   2.665 -0.6088 -1.0305  0.7598
 1623SOL    HW3 6538   3.070   1.966   2.644 -0.4217 -0.3436 -1.0723
 1623SOL    MW4 6539   3.150   1.933   2.634 -0.4280 -0.6148 -0.2701
 1624SOL     OW 6540   3.355   2.076   2.721 -0.1191 -0.6048 -0.0057
 1624SOL    HW2 6541   3.369   2.068   2.816  1.2431 -0.1684 -0.1653
 1624SOL    HW3 6542   3.358   2.170   2.704  1.5043 -0.7813 -0.7552
 1624SOL    MW4 6543   3.357   2.088   2.731  0.2749 -0.5705 -0.1256
 1625SOL     OW 6544   3.368   2.341   2.623  0.1110 -0.0436  0.8035
 1625SOL    HW2 6545   3.290   2.377   2.665  0.4854  0.1866  1.3119
 1625SOL    HW3 6546   3.440   2.395   2.656  0.6021 -0.8846  1.1120
 1625SOL    MW4 6547   3.367   2.353   2.633  0.2253 -0.1240  0.9110
 1626SOL     OW 6548   3.150   2.454   2.745  0.5818  0.3813 -0.0652
 1626SOL    HW2 6549   3.144   2.441   2.839  1.2104  0.4740 -0.0099
 1626SOL    HW3 6550   3.153   2.549   2.734 -0.1485  0.3920 -0.2242
 1626SOL    MW4 6551   3.150   2.464   2.756  0.5682  0.3948 -0.0787
 1627SOL     OW 6552   3.129   2.715   2.635  0.0081  0.4182 -0.1440
 1627SOL    HW2 6553   3.058   2.773   2.661 -0.2795 -0.7702  1.8125
 1627SOL    HW3 6554   3.209   2.759   2.664 -0.1367  0.3789  0.3171
 1627SOL    MW4 6555   3.130   2.728   2.642 -0.0486  0.2565  0.1750
 1628SOL     OW 6556   3.358   2.857   2.709  0.0077  0.2680 -0.1417
 1628SOL    HW2 6557   3.371   2.863   2.804 -0.1928 -0.3232 -0.0766
 1628SOL    HW3 6558   3.441   2.823   2.675 -0.1976 -0.2782 -0.0933
 1628SOL    MW4 6559   3.371   2.854   2.717 -0.0458  0.1180 -0.1264
 1629SOL     OW 6560   3.362   3.112   2.600  0.1563 -0.2286 -0.0250
 1629SOL    HW2 6561   3.354   3.023   2.634 -1.6362 -0.4997 -1.1587
 1629SOL    HW3 6562   3.361   3.103   2.505  0.1028  0.9955 -0.1553
 1629SOL    MW4 6563   3.361   3.099   2.592 -0.0873 -0.1025 -0.1915
 1630SOL     OW 6564   3.168   3.239   2.771  0.5562  0.1955  0.0930
 1630SOL    HW2 6565   3.231   3.198   2.711 -0.4518 -0.7126 -0.3656
 1630SOL    HW3 6566   3.082   3.219   2.733 -0.1529 -1.2014  2.3399
 1630SOL    MW4 6567   3.165   3.231   2.758  0.3295 -0.1087  0.3290
 1631SOL     OW 6568   3.160   3.495   2.662  0.4226  0.1570 -0.0059
 1631SOL    HW2 6569   3.160   3.412   2.710 -0.4917  0.4067  0.4505
 1631SOL    HW3 6570   3.079   3.538   2.690  0.0425  0.4583 -1.5131
 1631SOL    MW4 6571   3.149   3.490   2.672  0.2520  0.2296 -0.1442
 1632SOL     OW 6572   3.369   3.648   2.723 -0.2716  0.5574  0.2505
 1632SOL    HW2 6573   3.360   3.628   2.816 -0.4443  1.2055  0.3826
 1632SOL    HW3 6574   3.300   3.597   2.681  0.8885 -1.0574  0.2701
 1632SOL    MW4 6575   3.359   3.639   2.730 -0.1416  0.4299  0.2706
 1633SOL     OW 6576   3.383   3.894   2.628 -0.0208 -0.0590  0.4661
 1633SOL    HW2 6577   3.369   3.805   2.659 -0.6293 -0.0807  0.1450
 1633SOL    HW3 6578   3.388   3.885   2.532 -0.6505  0.3181  0.3941
 1633SOL    MW4 6579   3.382   3.881   2.619 -0.1843 -0.0122  0.4141
 1634SOL     OW 6580   3.141   4.005   2.720  0.0530 -0.6508 -0.3148
 1634SOL    HW2 6581   3.143   4.101   2.721  0.7014 -0.6678  0.5448
 1634SOL    HW3 6582   3.226   3.980   2.683 -0.5078 -0.8817 -1.4527
 1634SOL    MW4 6583   3.153   4.015   2.715  0.0648 -0.6838 -0.3514
 1635SOL     OW 6584   3.122   4.279   2.665 -0.2149  0.4557 -0.5824
 1635SOL    HW2 6585   3.046   4.330   2.692 -0.5679 -0.4385  0.1656
 1635SOL    HW3 6586   3.118   4.278   2.570 -0.9150  0.7656 -0.5594
 1635SOL    MW4 6587   3.111   4.285   2.656 -0.3541  0.3781 -0.4809
 1636SOL     OW 6588   3.360   4.395   2.748 -0.4490  0.2832 -0.1072
 1636SOL    HW2 6589   3.368   4.380   2.843  1.7649 -0.0227 -0.3271
 1636SOL    HW3 6590   3.281   4.347   2.724  0.5069 -1.9809  1.1185
 1636SOL    MW4 6591   3.351   4.387   2.758 -0.0310 -0.0553  0.0255
 1637SOL     OW 6592   3.833   4.661   2.626 -0.2741 -0.6253 -0.1076
 1637SOL    HW2 6593   3.830   4.575   2.667  0.2824  0.3533  2.0747
 1637SOL    HW3 6594   3.756   4.706   2.660  0.3108  0.2774  0.0327
 1637SOL    MW4 6595   3.822   4.656   2.636 -0.1233 -0.3772  0.1986
 1638SOL     OW 6596   3.576   0.110   2.744 -0.1858  0.0066  0.1186
 1638SOL    HW2 6597   3.582   0.193   2.697 -0.9529  0.4254  0.7513
 1638SOL    HW3 6598   3.497   0.068   2.710  2.5265 -2.4856 -3.3894
 1638SOL    MW4 6599   3.566   0.115   2.734  0.0708 -0.2669 -0.2608
 1639SOL     OW 6600   3.596   0.352   2.622  0.0532 -0.3344 -0.1294
 1639SOL    HW2 6601   3.667   0.392   2.673 -0.4486  1.1568 -0.5805
 1639SOL    HW3 6602   3.516   0.386   2.661 -0.3876 -0.7139 -0.6883
 1639SOL    MW4 6603   3.595   0.361   2.634 -0.0713 -0.1877 -0.2627
 1640SOL     OW 6604   3.789   0.485   2.756 -0.1183 -0.2202 -0.2464
 1640SOL    HW2 6605   3.798   0.487   2.851  0.8999 -1.7577 -0.2972
 1640SOL    HW3 6606   3.870   0.444   2.725  0.3500  1.7961 -1.8889
 1640SOL    MW4 6607   3.801   0.480   2.764  0.0780 -0.1570 -0.4699
 1641SOL     OW 6608   3.814   0.718   2.616  0.1899 -0.3510  0.0229
 1641SOL    HW2 6609   3.739   0.771   2.645  0.5638  0.0694  0.2126
 1641SOL    HW3 6610   3.798   0.632   2.653  0.1626 -0.0738  0.6501
 1641SOL    MW4 6611   3.802   0.714   2.624  0.2356 -0.2590  0.1307
 1642SOL     OW 6612   3.592   0.844   2.706 -0.3555 -0.5745  0.1208
 1642SOL    HW2 6613   3.604   0.851   2.801 -0.6831 -0.8433  0.1834
 1642SOL    HW3 6614   3.591   0.935   2.676 -1.6615 -0.4281  0.5587
 1642SOL    MW4 6615   3.593   0.857   2.715 -0.5710 -0.5906  0.1869
 1643SOL     OW 6616   3.591   1.126   2.619 -0.6560 -0.0645  0.7249
 1643SOL    HW2 6617   3.665   1.164   2.666  0.2324 -1.9229  0.9077
 1643SOL    HW3 6618   3.514   1.170   2.654  0.3672  1.9264  0.5170
 1643SOL    MW4 6619   3.591   1.137   2.630 -0.4039 -0.0470  0.7215
 1644SOL     OW 6620   3.779   1.273   2.735  0.4946  0.6506  0.6303
 1644SOL    HW2 6621   3.858   1.230   2.702 -1.5260 -2.2197 -0.7017
 1644SOL    HW3 6622   3.781   1.360   2.697  2.5477  0.2862 -0.1571
 1644SOL    MW4 6623   3.790   1.279   2.726  0.4990  0.2238  0.3507
 1645SOL     OW 6624   3.785   1.523   2.604 -0.2876 -0.2820 -0.1600
 1645SOL    HW2 6625   3.871   1.559   2.624 -0.2435  0.4703 -1.6202
 1645SOL    HW3 6626   3.723   1.583   2.647 -0.1524  0.5603 -1.1158
 1645SOL    MW4 6627   3.788   1.536   2.612 -0.2639 -0.0718 -0.4787
 1646SOL     OW 6628   3.578   1.669   2.700 -0.2765  0.2229  0.5139
 1646SOL    HW2 6629   3.575   1.761   2.674  0.6042 -0.0546 -0.6290
 1646SOL    HW3 6630   3.510   1.628   2.647  1.5756 -0.3583 -1.5341
 1646SOL    MW4 6631   3.569   1.676   2.689  0.0842  0.1097  0.0925
 1647SOL     OW 6632   3.581   1.938   2.619 -0.0071  0.1502 -0.1784
 1647SOL    HW2 6633   3.500   1.988   2.628 -0.7101 -1.0646  0.3571
 1647SOL    HW3 6634   3.597   1.934   2.525 -0.0053  1.2708 -0.2353
 1647SOL    MW4 6635   3.572   1.944   2.608 -0.0994  0.1377 -0.1147
 1648SOL     OW 6636   3.810   2.075   2.683 -0.3364 -0.3265  0.4183
 1648SOL    HW2 6637   3.875   2.017   2.644  0.0843  0.4143  0.0190
 1648SOL    HW3 6638   3.727   2.027   2.674  0.0009 -0.8423  0.0495
 1648SOL    MW4 6639   3.807   2.061   2.677 -0.2365 -0.2971  0.3171
 1649SOL     OW 6640   3.825   2.342   2.609 -0.0361 -0.0983  0.5823
 1649SOL    HW2 6641   3.834   2.248   2.625 -2.4410 -0.3957  0.4418
 1649SOL    HW3 6642   3.803   2.348   2.516 -1.6578  0.4303  0.9751
 1649SOL    MW4 6643   3.823   2.330   2.599 -0.5674 -0.0679  0.6154
 1650SOL     OW 6644   3.602   2.463   2.727  0.0099 -0.2947  0.2796
 1650SOL    HW2 6645   3.596   2.443   2.820  1.6373 -0.0842  0.4312
 1650SOL    HW3 6646   3.685   2.426   2.699 -0.7052 -0.8184 -1.2195
 1650SOL    MW4 6647   3.612   2.455   2.736  0.1302 -0.3362  0.1018
 1651SOL     OW 6648   3.612   2.742   2.650  0.3248  0.0789  0.0411
 1651SOL    HW2 6649   3.596   2.653   2.681 -0.2824 -0.0463 -0.6153
 1651SOL    HW3 6650   3.630   2.731   2.556  0.0054  0.6736 -0.0887
 1651SOL    MW4 6651   3.612   2.729   2.642  0.2027  0.1409 -0.0627
 1652SOL     OW 6652   3.842   2.869   2.724  0.2622 -0.1516  0.4066
 1652SOL    HW2 6653   3.755   2.832   2.713 -0.2273  0.3226  2.4854
 1652SOL    HW3 6654   3.900   2.809   2.677 -0.9181 -1.7637  0.9685
 1652SOL    MW4 6655   3.838   2.856   2.717  0.0420 -0.3018  0.7548
 1653SOL     OW 6656   3.816   3.111   2.633 -0.0541  0.0228  1.0311
 1653SOL    HW2 6657   3.740   3.155   2.673 -2.1944 -0.2406 -2.5926
 1653SOL    HW3 6658   3.804   3.019   2.655 -1.7643 -0.2593 -0.9344
 1653SOL    MW4 6659   3.804   3.105   2.642 -0.5622 -0.0491  0.2935
 1654SOL     OW 6660   3.585   3.206   2.749 -0.1559 -0.2991 -0.2146
 1654SOL    HW2 6661   3.603   3.299   2.736  0.2956 -0.2993  0.4002
 1654SOL    HW3 6662   3.509   3.188   2.693 -0.4712  0.5194 -0.0486
 1654SOL    MW4 6663   3.577   3.216   2.740 -0.1378 -0.1910 -0.1118
 1655SOL     OW 6664   3.608   3.479   2.652 -0.1369 -0.0596 -0.5645
 1655SOL    HW2 6665   3.669   3.552   2.659  0.5065 -0.6625  0.1907
 1655SOL    HW3 6666   3.532   3.506   2.704 -0.1308  0.3040 -0.7461
 1655SOL    MW4 6667   3.606   3.492   2.660 -0.0513 -0.0913 -0.4890
 1656SOL     OW 6668   3.822   3.641   2.684 -0.3594  0.0100  0.3569
 1656SOL    HW2 6669   3.909   3.607   2.663 -0.9874 -1.1439 -0.4451
 1656SOL    HW3 6670   3.824   3.732   2.654  0.6729  0.0847  0.6488
 1656SOL    MW4 6671   3.833   3.649   2.677 -0.3061 -0.1323  0.2894
 1657SOL     OW 6672   3.828   3.900   2.622 -0.2745 -0.1641  0.3300
 1657SOL    HW2 6673   3.912   3.937   2.650 -0.7982  1.5860 -0.2950
 1657SOL    HW3 6674   3.762   3.953   2.668 -1.0555  0.2220 -1.1931
 1657SOL    MW4 6675   3.830   3.912   2.631 -0.4468  0.1178  0.0465
 1658SOL     OW 6676   3.611   4.024   2.751 -0.5048  0.2058 -0.3828
 1658SOL    HW2 6677   3.534   3.975   2.720 -0.1096 -1.2727  0.9124
 1658SOL    HW3 6678   3.602   4.110   2.710 -1.3532 -0.8520 -2.4948
 1658SOL    MW4 6679   3.599   4.029   2.741 -0.5646 -0.1292 -0.4902
 1659SOL     OW 6680   3.592   4.283   2.641  0.0497  0.1106  0.2722
 1659SOL    HW2 6681   3.509   4.309   2.682 -0.4059 -1.4911  0.4155
 1659SOL    HW3 6682   3.573   4.282   2.547 -0.0999 -0.2795  0.3066
 1659SOL    MW4 6683   3.579   4.286   2.634 -0.0303 -0.1516  0.2956
 1660SOL     OW 6684   3.813   4.407   2.750  0.5058  0.1927 -0.3123
 1660SOL    HW2 6685   3.877   4.341   2.722  1.1468  0.5455  0.3028
 1660SOL    HW3 6686   3.729   4.374   2.718  1.0291 -0.1484 -1.3508
 1660SOL    MW4 6687   3.811   4.394   2.742  0.6592  0.1945 -0.3681
 1661SOL     OW 6688   4.285   4.639   2.701  0.4288  0.1579  0.0049
 1661SOL    HW2 6689   4.217   4.702   2.722  1.3227  0.7623  1.1869
 1661SOL    HW3 6690   4.367   4.683   2.724  1.0217 -1.6652  1.5331
 1661SOL    MW4 6691   4.287   4.653   2.707  0.6251 -0.0029  0.3626
 1662SOL     OW 6692   4.064   0.118   2.745  0.3156 -0.2225 -0.0437
 1662SOL    HW2 6693   4.055   0.100   2.838 -0.5982 -0.0316 -0.0898
 1662SOL    HW3 6694   3.988   0.075   2.704  0.1798  0.5093 -0.5771
 1662SOL    MW4 6695   4.052   0.110   2.752  0.1779 -0.1008 -0.1199
 1663SOL     OW 6696   4.026   0.363   2.651 -0.1326 -0.2089 -0.5271
 1663SOL    HW2 6697   4.044   0.272   2.676  0.5303 -0.3286 -1.4282
 1663SOL    HW3 6698   4.011   0.359   2.556  0.2800  0.6759 -0.6284
 1663SOL    MW4 6699   4.027   0.350   2.642  0.0091 -0.1079 -0.6595
 1664SOL     OW 6700   4.216   0.519   2.756  0.7629  0.1743 -0.0807
 1664SOL    HW2 6701   4.147   0.463   2.721 -0.5957  0.5104  1.9312
 1664SOL    HW3 6702   4.298   0.476   2.733 -0.1420 -0.4748 -2.1158
 1664SOL    MW4 6703   4.217   0.506   2.749  0.4644  0.1330 -0.0839
 1665SOL     OW 6704   4.225   0.742   2.596  0.0306  0.0162 -0.3366
 1665SOL    HW2 6705   4.222   0.662   2.649  0.6731  0.1382 -0.1204
 1665SOL    HW3 6706   4.243   0.711   2.507 -2.3829 -0.3117 -0.7659
 1665SOL    MW4 6707   4.227   0.727   2.591 -0.2027 -0.0109 -0.3648
 1666SOL     OW 6708   4.016   0.869   2.723  0.0342 -0.4132 -0.4600
 1666SOL    HW2 6709   4.097   0.830   2.690  0.4590  2.0394 -2.4138
 1666SOL    HW3 6710   3.946   0.820   2.680  0.5293 -0.5130 -1.1556
 1666SOL    MW4 6711   4.018   0.858   2.713  0.1559 -0.1028 -0.8097
 1667SOL     OW 6712   4.011   1.128   2.634  0.2457 -0.6994 -0.7983
 1667SOL    HW2 6713   4.089   1.176   2.663 -0.2964  0.4827 -1.2467
 1667SOL    HW3 6714   4.011   1.048   2.685 -0.7164  1.3568  2.5555
 1667SOL    MW4 6715   4.021   1.124   2.644  0.0472 -0.2723 -0.4151
 1668SOL     OW 6716   4.232   1.280   2.719 -0.0324 -0.3013  0.1096
 1668SOL    HW2 6717   4.232   1.367   2.680  0.8125 -0.4764 -0.2964
 1668SOL    HW3 6718   4.298   1.231   2.669 -0.8967 -1.3391 -0.0436
 1668SOL    MW4 6719   4.240   1.285   2.707 -0.0348 -0.4613  0.0358
 1669SOL     OW 6720   4.268   1.534   2.603  0.0874  0.3069  0.5480
 1669SOL    HW2 6721   4.354   1.571   2.623  0.0304  0.0815  1.2297
 1669SOL    HW3 6722   4.264   1.533   2.508  1.4716 -1.1231  0.4848
 1669SOL    MW4 6723   4.279   1.539   2.593  0.2627  0.0885  0.6294
 1670SOL     OW 6724   4.027   1.658   2.677  0.1867  0.0226  0.6302
 1670SOL    HW2 6725   4.035   1.657   2.772 -0.5540  0.5391  0.7007
 1670SOL    HW3 6726   4.104   1.611   2.646  0.7426  0.3784  1.4650
 1670SOL    MW4 6727   4.038   1.651   2.685  0.1621  0.1378  0.7498
 1671SOL     OW 6728   4.016   1.917   2.596  0.1480  0.3415  0.4224
 1671SOL    HW2 6729   4.097   1.965   2.614 -0.1633  0.7874  0.6590
 1671SOL    HW3 6730   4.032   1.828   2.629  0.5636  0.4130  0.4077
 1671SOL    MW4 6731   4.028   1.912   2.603  0.1616  0.4096  0.4516
 1672SOL     OW 6732   4.250   2.048   2.667 -0.0225  0.0556 -0.0087
 1672SOL    HW2 6733   4.332   2.013   2.632  0.1392 -0.3796  0.8132
 1672SOL    HW3 6734   4.250   2.140   2.638 -0.1532 -0.4440 -1.6173
 1672SOL    MW4 6735   4.261   2.056   2.658 -0.0186 -0.0672 -0.1128
 1673SOL     OW 6736   4.246   2.321   2.608  0.2229  0.1330  0.1174
 1673SOL    HW2 6737   4.171   2.374   2.637 -0.2316 -0.6167  0.3388
 1673SOL    HW3 6738   4.233   2.312   2.514  0.1995  0.2612  0.1076
 1673SOL    MW4 6739   4.234   2.327   2.600  0.1602  0.0510  0.1452
 1674SOL     OW 6740   4.040   2.465   2.714  0.3266 -0.2253  0.2422
 1674SOL    HW2 6741   4.029   2.461   2.809  1.8568  0.1163  0.4429
 1674SOL    HW3 6742   3.965   2.417   2.680 -0.1330 -0.5263  1.6324
 1674SOL    MW4 6743   4.029   2.458   2.722  0.4673 -0.2198  0.4518
 1675SOL     OW 6744   4.050   2.741   2.600 -0.1971  0.1742 -0.3449
 1675SOL    HW2 6745   4.133   2.765   2.640  0.4675 -0.4257 -1.3633
 1675SOL    HW3 6746   4.028   2.656   2.639  0.8341 -0.7783 -1.8129
 1675SOL    MW4 6747   4.058   2.733   2.610  0.0272 -0.0308 -0.6731
 1676SOL     OW 6748   4.281   2.830   2.732  0.2694 -0.2814 -0.0129
 1676SOL    HW2 6749   4.250   2.837   2.822 -2.0060  0.6375 -0.8266
 1676SOL    HW3 6750   4.298   2.920   2.706  0.1823 -0.4732 -0.7366
 1676SOL    MW4 6751   4.279   2.843   2.740 -0.0420 -0.1853 -0.2158
 1677SOL     OW 6752   4.264   3.098   2.603 -0.2236 -0.1969  0.4322
 1677SOL    HW2 6753   4.186   3.137   2.643  0.5592  0.3334  1.4589
 1677SOL    HW3 6754   4.248   3.104   2.509 -1.1568  0.4486  0.6206
 1677SOL    MW4 6755   4.251   3.104   2.596 -0.2437 -0.0420  0.5927
 1678SOL     OW 6756   4.058   3.243   2.720 -0.2920  0.2639  0.0249
 1678SOL    HW2 6757   4.055   3.336   2.698 -2.3057  0.6046  1.6556
 1678SOL    HW3 6758   3.969   3.212   2.708  0.3627 -1.4848 -0.4938
 1678SOL    MW4 6759   4.046   3.251   2.715 -0.4716  0.0780  0.1717
 1679SOL     OW 6760   4.066   3.507   2.626  0.1341 -0.2801  0.3692
 1679SOL    HW2 6761   4.144   3.558   2.645 -0.8267  1.7337 -0.9007
 1679SOL    HW3 6762   4.072   3.487   2.533 -1.5111  1.0675 -0.0487
 1679SOL    MW4 6763   4.077   3.511   2.616 -0.2103  0.1633  0.1466
 1680SOL     OW 6764   4.292   3.629   2.705  0.0909 -0.1801 -0.5440
 1680SOL    HW2 6765   4.296   3.613   2.799 -0.4674  0.7652 -0.3538
 1680SOL    HW3 6766   4.366   3.581   2.669  0.7049  0.0081  0.4602
 1680SOL    MW4 6767   4.302   3.621   2.712  0.0987 -0.0305 -0.3862
 1681SOL     OW 6768   4.326   3.866   2.591  0.7183 -0.5869  0.2607
 1681SOL    HW2 6769   4.309   3.787   2.643  1.2039 -0.5243  0.5218
 1681SOL    HW3 6770   4.394   3.912   2.640  0.5311 -0.0725  0.0352
 1681SOL    MW4 6771   4.333   3.862   2.604  0.7577 -0.5107  0.2654
 1682SOL     OW 6772   4.085   3.990   2.706 -0.1416  0.3548  0.1169
 1682SOL    HW2 6773   4.072   3.983   2.801  1.0019 -0.3794  0.2225
 1682SOL    HW3 6774   4.171   3.952   2.690  0.2103  1.6162 -1.0662
 1682SOL    MW4 6775   4.095   3.984   2.716  0.0558  0.4244 -0.0250
 1683SOL     OW 6776   4.032   4.251   2.652 -0.3211 -0.1151  0.0093
 1683SOL    HW2 6777   4.051   4.161   2.677 -0.8970 -0.3090 -0.2414
 1683SOL    HW3 6778   4.035   4.250   2.556  0.1358  0.2379  0.0157
 1683SOL    MW4 6779   4.035   4.239   2.642 -0.3366 -0.0949 -0.0229
 1684SOL     OW 6780   4.228   4.378   2.794 -0.1135 -0.1601 -0.1942
 1684SOL    HW2 6781   4.160   4.338   2.740 -1.5935 -0.5615  1.9440
 1684SOL    HW3 6782   4.240   4.465   2.755 -0.1245 -0.9388 -2.0287
 1684SOL    MW4 6783   4.221   4.384   2.781 -0.3104 -0.3157 -0.1540
 1685SOL     OW 6784   0.209   4.644   3.103  0.0261  0.0764 -0.1877
 1685SOL    HW2 6785   0.213   4.665   3.196 -2.1830 -2.0860  0.4088
 1685SOL    HW3 6786   0.131   4.690   3.071  0.9568  1.0839 -1.0869
 1685SOL    MW4 6787   0.200   4.653   3.111 -0.1426 -0.0763 -0.2277
 1686SOL     OW 6788   4.452   0.114   3.030 -0.2440  0.2633 -0.5720
 1686SOL    HW2 6789   4.394   0.058   3.082  0.2771  0.2356 -0.0095
 1686SOL    HW3 6790   4.454   0.197   3.078  0.9480 -0.0568 -0.0694
 1686SOL    MW4 6791   4.445   0.118   3.043 -0.0176  0.2174 -0.4315
 1687SOL     OW 6792   4.459   0.359   3.144  0.0903 -0.5709 -0.1338
 1687SOL    HW2 6793   4.452   0.371   3.238  1.2150  0.7848 -0.2008
 1687SOL    HW3 6794   4.392   0.416   3.107 -1.2631 -2.1311 -0.1176
 1687SOL    MW4 6795   4.449   0.368   3.151  0.0601 -0.5979 -0.1404
 1688SOL     OW 6796   0.174   0.470   2.976  0.1356 -0.2942 -0.3882
 1688SOL    HW2 6797   0.250   0.424   3.011 -0.3374 -0.9555 -0.2329
 1688SOL    HW3 6798   0.098   0.427   3.016 -0.3034  0.6708 -0.1780
 1688SOL    MW4 6799   0.174   0.458   2.986  0.0153 -0.2542 -0.3397
 1689SOL     OW 6800   0.192   0.760   3.060  0.3554 -0.2204  0.0244
 1689SOL    HW2 6801   0.185   0.776   3.154  1.1813  1.0871 -0.1249
 1689SOL    HW3 6802   0.177   0.666   3.050 -0.7986 -0.1952  1.3502
 1689SOL    MW4 6803   0.189   0.750   3.071  0.3121 -0.0446  0.1798
 1690SOL     OW 6804   4.461   0.894   2.981 -0.6290 -0.3012  0.0059
 1690SOL    HW2 6805   4.543   0.849   3.001 -0.3682 -0.1713 -0.7832
 1690SOL    HW3 6806   4.447   0.879   2.888 -0.0186  2.0829 -0.5118
 1690SOL    MW4 6807   4.470   0.886   2.971 -0.5140  0.0305 -0.1667
 1691SOL     OW 6808   0.025   1.154   3.056  0.0001 -0.4576  0.2062
 1691SOL    HW2 6809  -0.062   1.193   3.049 -0.4251 -1.3176  0.4913
 1691SOL    HW3 6810   0.012   1.062   3.031  0.6564 -0.7902  1.0339
 1691SOL    MW4 6811   0.011   1.147   3.052  0.0300 -0.6149  0.3531
 1692SOL     OW 6812   0.253   1.258   2.940  0.8756  0.3851 -0.0955
 1692SOL    HW2 6813   0.165   1.233   2.967  0.4998  1.0813 -0.6319
 1692SOL    HW3 6814   0.246   1.271   2.845  1.4830  0.7367 -0.0954
 1692SOL    MW4 6815   0.241   1.257   2.931  0.9062  0.5232 -0.1662
 1693SOL     OW 6816   0.285   1.531   3.063 -0.1654 -0.2896 -0.1160
 1693SOL    HW2 6817   0.191   1.549   3.052 -0.3997 -0.6845  1.0754
 1693SOL    HW3 6818   0.292   1.436   3.050  0.2363 -0.0991 -1.2593
 1693SOL    MW4 6819   0.273   1.521   3.060 -0.1433 -0.3165 -0.1099
 1694SOL     OW 6820   4.481   1.613   2.984 -0.2077  0.4319  0.1267
 1694SOL    HW2 6821   4.391   1.587   3.004 -0.0456 -0.6524 -0.5006
 1694SOL    HW3 6822   4.485   1.705   3.009 -1.2973  0.3153  0.8002
 1694SOL    MW4 6823   4.469   1.622   2.990 -0.3301  0.2736  0.1330
 1695SOL     OW 6824   0.014   1.879   3.041  0.0950 -0.8169 -0.0098
 1695SOL    HW2 6825  -0.062   1.914   2.993  1.0737 -1.0277 -1.7345
 1695SOL    HW3 6826   0.087   1.934   3.014  0.8369 -1.5196  0.5376
 1695SOL    MW4 6827   0.013   1.891   3.031  0.3219 -0.9373 -0.1652
 1696SOL     OW 6828   0.205   2.066   2.979 -0.3287  0.2361 -0.1261
 1696SOL    HW2 6829   0.218   2.157   3.008 -1.0085 -0.1042  1.3129
 1696SOL    HW3 6830   0.207   2.071   2.884 -0.0180  1.7160 -0.0622
 1696SOL    MW4 6831   0.207   2.079   2.970 -0.3774  0.3865  0.0722
 1697SOL     OW 6832   0.240   2.313   3.077  0.2908 -0.4144  0.2270
 1697SOL    HW2 6833   0.247   2.308   3.172  1.6599 -1.6660  0.0852
 1697SOL    HW3 6834   0.314   2.368   3.050  0.4924 -0.8751 -0.1787
 1697SOL    MW4 6835   0.251   2.319   3.086  0.4980 -0.6402  0.1547
 1698SOL     OW 6836   4.474   2.438   2.976  0.1674 -0.3710  0.1788
 1698SOL    HW2 6837   4.485   2.525   3.015 -1.5093 -0.1827  0.2613
 1698SOL    HW3 6838   4.538   2.383   3.022 -0.5508  0.2420  1.9571
 1698SOL    MW4 6839   4.484   2.442   2.987 -0.1488 -0.2654  0.4244
 1699SOL     OW 6840   4.484   2.686   3.089 -0.0248  0.1930 -0.2021
 1699SOL    HW2 6841   4.488   2.693   3.185  0.0793 -1.9645 -0.0370
 1699SOL    HW3 6842   4.562   2.731   3.058  1.3130 -1.3639  0.8537
 1699SOL    MW4 6843   4.495   2.693   3.098  0.1654 -0.2971 -0.0410
 1700SOL     OW 6844   0.206   2.838   2.980 -0.3629 -0.2839  0.5214
 1700SOL    HW2 6845   0.291   2.801   3.002 -0.0882 -0.7971 -1.3176
 1700SOL    HW3 6846   0.198   2.826   2.886 -1.9882  0.7838  0.4948
 1700SOL    MW4 6847   0.216   2.832   2.971 -0.5411 -0.2108  0.2751
 1701SOL     OW 6848   0.204   3.096   3.064 -0.1227  0.1240  0.4245
 1701SOL    HW2 6849   0.125   3.138   3.031  0.0590 -0.0541 -0.2608
 1701SOL    HW3 6850   0.190   3.002   3.047 -0.1447  0.0045  1.1109
 1701SOL    MW4 6851   0.192   3.089   3.057 -0.1016  0.0846  0.4246
 1702SOL     OW 6852   4.480   3.271   2.975  0.7264 -0.3960 -0.0567
 1702SOL    HW2 6853   4.417   3.208   3.009  0.1648 -0.7092 -1.6158
 1702SOL    HW3 6854   4.478   3.257   2.880  0.2727  2.2473 -0.4685
 1702SOL    MW4 6855   4.471   3.261   2.967  0.5922 -0.0885 -0.3169
 1703SOL     OW 6856   4.481   3.515   3.111  0.7986  0.4880  0.0746
 1703SOL    HW2 6857   4.407   3.556   3.066  1.5566  1.7019 -0.0690
 1703SOL    HW3 6858   4.490   3.429   3.069 -1.0322 -0.0070  0.6331
 1703SOL    MW4 6859   4.472   3.509   3.099  0.6576  0.5829  0.1295
 1704SOL     OW 6860   0.228   3.628   3.024  0.0705  0.1168 -0.0703
 1704SOL    HW2 6861   0.261   3.693   3.087 -0.7167  1.8308 -1.3579
 1704SOL    HW3 6862   0.141   3.606   3.057 -0.1193  0.5962 -0.2355
 1704SOL    MW4 6863   0.221   3.634   3.036 -0.0584  0.4060 -0.2618
 1705SOL     OW 6864   0.274   3.884   3.137  0.2047  0.3519 -0.0992
 1705SOL    HW2 6865   0.262   3.906   3.229 -0.4151  2.0153 -0.5612
 1705SOL    HW3 6866   0.332   3.952   3.103 -1.9881  1.5314 -1.6254
 1705SOL    MW4 6867   0.280   3.896   3.144 -0.1664  0.7269 -0.3614
 1706SOL     OW 6868   4.486   3.921   3.041  0.4292  0.0926  0.5852
 1706SOL    HW2 6869   4.572   3.901   3.077  0.7342  0.7024  0.2152
 1706SOL    HW3 6870   4.504   3.966   2.958 -0.2409  0.4289  0.6128
 1706SOL    MW4 6871   4.499   3.925   3.035  0.3815  0.2174  0.5403
 1707SOL     OW 6872   4.470   4.230   3.104  0.0518 -0.0390 -0.2912
 1707SOL    HW2 6873   4.448   4.240   3.196 -0.6267  0.1942 -0.4795
 1707SOL    HW3 6874   4.461   4.136   3.088 -1.4333  0.1387 -0.5251
 1707SOL    MW4 6875   4.466   4.219   3.114 -0.2337  0.0148 -0.3469
 1708SOL     OW 6876   0.240   4.391   3.000 -0.1329 -0.1988  0.2382
 1708SOL    HW2 6877   0.177   4.335   3.046  1.0668 -1.9989 -0.2358
 1708SOL    HW3 6878   0.229   4.477   3.040 -2.6091 -0.5645  0.4196
 1708SOL    MW4 6879   0.230   4.395   3.011 -0.3014 -0.4845  0.1996
 1709SOL     OW 6880   0.691   0.030   3.092  0.5784  0.2083 -0.1979
 1709SOL    HW2 6881   0.692  -0.060   3.058  2.4931  0.1073  0.0663
 1709SOL    HW3 6882   0.608   0.066   3.061  0.9787 -0.7879 -2.5854
 1709SOL    MW4 6883   0.680   0.023   3.083  0.8839  0.0635 -0.4783
 1710SOL     OW 6884   0.435   0.120   2.968  0.5398 -0.3816 -0.0823
 1710SOL    HW2 6885   0.440   0.207   3.006  1.1536 -0.7553  0.7135
 1710SOL    HW3 6886   0.359   0.080   3.011  0.5036 -0.3824 -0.1469
 1710SOL    MW4 6887   0.426   0.126   2.979  0.6160 -0.4310  0.0141
 1711SOL     OW 6888   0.412   0.368   3.081 -0.5737 -0.1867  0.2811
 1711SOL    HW2 6889   0.404   0.368   3.176 -0.9131  0.4318  0.2509
 1711SOL    HW3 6890   0.478   0.434   3.062 -0.7249 -0.0943  0.0705
 1711SOL    MW4 6891   0.419   0.376   3.091 -0.6384 -0.0929  0.2494
 1712SOL     OW 6892   0.672   0.785   3.065 -0.5172  0.1295 -0.3049
 1712SOL    HW2 6893   0.656   0.766   3.158 -2.6000 -3.2906 -1.2723
 1712SOL    HW3 6894   0.587   0.815   3.032 -0.5617 -1.4558 -1.7061
 1712SOL    MW4 6895   0.659   0.787   3.073 -0.7978 -0.5309 -0.6173
 1713SOL     OW 6896   0.664   0.501   3.020  0.1415  0.2959  0.0136
 1713SOL    HW2 6897   0.748   0.460   3.040  0.2874  1.3607  1.6664
 1713SOL    HW3 6898   0.677   0.594   3.038 -2.1147  0.1466  2.8774
 1713SOL    MW4 6899   0.676   0.508   3.025 -0.1370  0.4166  0.6094
 1714SOL     OW 6900   0.434   0.873   2.970  0.0169  0.4382 -0.1871
 1714SOL    HW2 6901   0.356   0.828   3.001 -0.7713  1.4871 -0.6289
 1714SOL    HW3 6902   0.422   0.880   2.875  0.5754  0.7542 -0.2390
 1714SOL    MW4 6903   0.422   0.868   2.961 -0.0133  0.6183 -0.2520
 1715SOL     OW 6904   0.454   1.148   3.080  0.1329 -0.5003  0.4583
 1715SOL    HW2 6905   0.458   1.056   3.053  1.6209 -0.3247  0.0276
 1715SOL    HW3 6906   0.380   1.184   3.031  0.5359 -1.0860 -0.5936
 1715SOL    MW4 6907   0.445   1.140   3.070  0.3824 -0.5546  0.2627
 1716SOL     OW 6908   0.662   1.309   2.958  0.5452 -0.1192 -0.0383
 1716SOL    HW2 6909   0.599   1.254   3.005 -0.1652  3.0348  2.8960
 1716SOL    HW3 6910   0.747   1.269   2.977 -0.1258 -1.4744  0.1873
 1716SOL    MW4 6911   0.665   1.297   2.967  0.3629  0.1181  0.3786
 1717SOL     OW 6912   0.674   1.557   3.071 -0.3810  0.1134 -0.0995
 1717SOL    HW2 6913   0.675   1.471   3.029 -2.7229  0.6427 -1.3394
 1717SOL    HW3 6914   0.707   1.541   3.159 -0.4650 -1.9939 -0.4262
 1717SOL    MW4 6915   0.678   1.544   3.077 -0.7011 -0.0950 -0.3064
 1718SOL     OW 6916   0.469   1.713   2.962 -0.1607 -0.2749 -0.2078
 1718SOL    HW2 6917   0.551   1.675   2.993 -0.2339  0.2370  0.6246
 1718SOL    HW3 6918   0.402   1.674   3.019 -0.3033  0.6240  0.2398
 1718SOL    MW4 6919   0.471   1.703   2.974 -0.1892 -0.0887 -0.0386
 1719SOL     OW 6920   0.452   1.975   3.067  0.4678  0.4240 -0.3718
 1719SOL    HW2 6921   0.452   1.886   3.031  0.9023  0.6932 -1.0374
 1719SOL    HW3 6922   0.372   2.015   3.032  0.8955  0.6890 -1.0468
 1719SOL    MW4 6923   0.441   1.968   3.058  0.5815  0.4944 -0.5488
 1720SOL     OW 6924   0.685   2.084   2.945 -0.0386  0.2929  0.8289
 1720SOL    HW2 6925   0.764   2.034   2.965  1.0152  1.7997  0.5867
 1720SOL    HW3 6926   0.617   2.046   3.000  1.1888 -0.1230  2.0831
 1720SOL    MW4 6927   0.687   2.073   2.955  0.2623  0.4365  0.9625
 1721SOL     OW 6928   0.696   2.294   3.347  0.5126 -0.1558 -0.0220
 1721SOL    HW2 6929   0.754   2.359   3.388 -0.3246  0.1173  0.7779
 1721SOL    HW3 6930   0.706   2.216   3.401 -0.4654  0.1495  0.6173
 1721SOL    MW4 6931   0.705   2.292   3.360  0.2731 -0.0794  0.1678
 1722SOL     OW 6932   0.641   2.328   3.053  0.2347 -0.1004 -0.1230
 1722SOL    HW2 6933   0.658   2.311   3.145  0.4525  1.4115  0.1351
 1722SOL    HW3 6934   0.665   2.247   3.008  1.7361 -0.2648  0.9605
 1722SOL    MW4 6935   0.646   2.315   3.059  0.4615  0.0775  0.0541
 1723SOL     OW 6936   0.429   2.479   2.970  0.1751  0.1411  0.0553
 1723SOL    HW2 6937   0.505   2.424   2.993 -0.2753 -0.4675  0.1000
 1723SOL    HW3 6938   0.418   2.466   2.876  1.1122  1.4840 -0.2425
 1723SOL    MW4 6939   0.438   2.470   2.960  0.2393  0.2379  0.0219
 1724SOL     OW 6940   0.706   2.866   2.982  0.5116 -0.3948 -0.1694
 1724SOL    HW2 6941   0.790   2.835   3.016  1.4859  0.0509 -2.1725
 1724SOL    HW3 6942   0.693   2.951   3.024  0.6542 -0.8217  0.7619
 1724SOL    MW4 6943   0.715   2.873   2.992  0.6590 -0.3927 -0.3109
 1725SOL     OW 6944   0.706   3.110   3.097 -0.3106 -0.1446 -0.5964
 1725SOL    HW2 6945   0.693   3.119   3.192 -1.3731 -0.3826 -0.7098
 1725SOL    HW3 6946   0.622   3.137   3.059  0.3538  0.6595 -1.5095
 1725SOL    MW4 6947   0.693   3.114   3.105 -0.3631 -0.0699 -0.7317
 1726SOL     OW 6948   0.464   3.202   3.021  0.1273  0.4340  0.3046
 1726SOL    HW2 6949   0.462   3.292   3.052 -1.1110  0.7796 -0.7078
 1726SOL    HW3 6950   0.385   3.162   3.058 -0.0413  0.1508 -0.3478
 1726SOL    MW4 6951   0.453   3.208   3.030 -0.0584  0.4425  0.0849
 1727SOL     OW 6952   0.456   3.471   3.104  0.0179 -0.0366  0.0947
 1727SOL    HW2 6953   0.465   3.495   3.196  2.0766  0.1878 -0.1373
 1727SOL    HW3 6954   0.384   3.525   3.072  0.6329  1.4060  1.0797
 1727SOL    MW4 6955   0.448   3.481   3.112  0.3706  0.1831  0.1941
 1728SOL     OW 6956   0.694   3.576   2.997  0.0938  0.1056  0.2032
 1728SOL    HW2 6957   0.765   3.547   3.054 -0.7012  0.2310  1.2649
 1728SOL    HW3 6958   0.615   3.542   3.038 -0.4815  0.0890 -0.8934
 1728SOL    MW4 6959   0.693   3.567   3.010 -0.0870  0.1197  0.1984
 1729SOL     OW 6960   0.668   3.867   3.100  0.1068  0.5140  0.1735
 1729SOL    HW2 6961   0.676   3.856   3.195 -0.6360  0.3710  0.2236
 1729SOL    HW3 6962   0.690   3.781   3.064 -2.1191 -0.1560  0.3633
 1729SOL    MW4 6963   0.672   3.854   3.108 -0.2848  0.4067  0.2050
 1730SOL     OW 6964   0.467   4.011   3.000  0.0418  0.0464 -0.1843
 1730SOL    HW2 6965   0.537   3.962   3.043 -0.1330  0.2166  0.2938
 1730SOL    HW3 6966   0.478   3.992   2.906 -0.0568 -0.9450  0.0021
 1730SOL    MW4 6967   0.478   4.002   2.993  0.0057 -0.0625 -0.0966
 1731SOL     OW 6968   0.480   4.288   3.087  0.3781  0.3868  0.1013
 1731SOL    HW2 6969   0.474   4.205   3.040  0.9679 -0.0317  0.7517
 1731SOL    HW3 6970   0.405   4.339   3.055  0.8989  0.2131 -1.4632
 1731SOL    MW4 6971   0.469   4.284   3.076  0.5246  0.3085 -0.0191
 1732SOL     OW 6972   0.711   4.425   3.027 -0.1007  0.1268  0.0832
 1732SOL    HW2 6973   0.632   4.385   3.063  1.4768 -1.3139  2.1196
 1732SOL    HW3 6974   0.710   4.402   2.934 -0.7853 -2.1387  0.6129
 1732SOL    MW4 6975   0.701   4.417   3.019  0.0170 -0.3624  0.4215
 1733SOL     OW 6976   1.133   4.641   3.137 -0.2526 -0.0416  0.1287
 1733SOL    HW2 6977   1.214   4.692   3.127 -0.3085  0.1800  0.7770
 1733SOL    HW3 6978   1.064   4.700   3.104 -0.2415  0.0749  0.3090
 1733SOL    MW4 6979   1.134   4.656   3.132 -0.2586  0.0030  0.2379
 1734SOL     OW 6980   0.942   0.128   3.017 -0.1714 -0.0193  0.0784
 1734SOL    HW2 6981   0.949   0.221   3.039  0.9376  0.1438 -0.8806
 1734SOL    HW3 6982   0.856   0.102   3.050 -0.7078  1.4679 -0.0932
 1734SOL    MW4 6983   0.932   0.137   3.024 -0.0960  0.1984 -0.0708
 1735SOL     OW 6984   0.901   0.379   3.122  0.1685 -0.1919 -0.0299
 1735SOL    HW2 6985   0.912   0.381   3.217  0.6849  0.0310 -0.0944
 1735SOL    HW3 6986   0.977   0.426   3.088 -0.2335  0.0968 -0.5354
 1735SOL    MW4 6987   0.912   0.386   3.130  0.1835 -0.1244 -0.1051
 1736SOL     OW 6988   1.127   0.526   3.056  0.0802 -0.4820  0.6374
 1736SOL    HW2 6989   1.203   0.480   3.092  0.9130 -0.7737 -1.3943
 1736SOL    HW3 6990   1.139   0.521   2.961 -1.0687  1.8389  0.3253
 1736SOL    MW4 6991   1.139   0.519   3.048  0.0385 -0.2143  0.3281
 1737SOL     OW 6992   1.142   0.789   3.122  0.4022  0.5811 -0.2646
 1737SOL    HW2 6993   1.157   0.801   3.215  0.9998  1.8273 -0.5145
 1737SOL    HW3 6994   1.143   0.695   3.109  2.1978  0.4689  0.6713
 1737SOL    MW4 6995   1.144   0.779   3.132  0.7180  0.7308 -0.1743
 1738SOL     OW 6996   0.922   0.906   3.000  0.0417  0.5681  0.0281
 1738SOL    HW2 6997   0.986   0.870   3.061  0.0468  2.1815  0.9811
 1738SOL    HW3 6998   0.842   0.855   3.016  0.9831 -1.3139 -1.0291
 1738SOL    MW4 6999   0.920   0.894   3.010  0.1666  0.5327  0.0141
 1739SOL     OW 7000   0.888   1.181   3.057 -0.0333 -0.2142 -0.1333
 1739SOL    HW2 7001   0.980   1.204   3.045  0.0019 -0.1396  0.2498
 1739SOL    HW3 7002   0.883   1.089   3.031 -0.0330  0.0283 -0.9930
 1739SOL    MW4 7003   0.899   1.172   3.052 -0.0286 -0.1723 -0.1962
 1740SOL     OW 7004   1.151   1.278   3.001  0.1377  0.1891 -0.6354
 1740SOL    HW2 7005   1.227   1.224   3.023 -0.3993  0.2461  1.5017
 1740SOL    HW3 7006   1.146   1.276   2.906  1.5888 -1.5055 -0.6880
 1740SOL    MW4 7007   1.161   1.271   2.991  0.2584 -0.0269 -0.3605
 1741SOL     OW 7008   1.127   1.552   3.075  0.5501 -0.3411 -0.1602
 1741SOL    HW2 7009   1.203   1.596   3.038  0.0989 -0.1308 -0.8528
 1741SOL    HW3 7010   1.143   1.459   3.060  0.2140 -0.2347 -1.1847
 1741SOL    MW4 7011   1.139   1.545   3.068  0.4462 -0.2992 -0.3870
 1742SOL     OW 7012   0.899   1.692   2.957 -0.0094  0.0519  0.3991
 1742SOL    HW2 7013   0.978   1.656   2.997 -0.8578  0.2123  2.2918
 1742SOL    HW3 7014   0.828   1.636   2.990 -1.0301  1.8033  1.2612
 1742SOL    MW4 7015   0.900   1.680   2.967 -0.2560  0.3042  0.7625
 1743SOL     OW 7016   0.917   1.955   3.031  0.3235 -0.1659 -0.0539
 1743SOL    HW2 7017   0.911   1.948   3.126  1.4341 -1.0337 -0.0328
 1743SOL    HW3 7018   0.903   1.866   2.999  0.8312 -0.0428 -0.6388
 1743SOL    MW4 7019   0.914   1.942   3.039  0.5370 -0.2640 -0.1283
 1744SOL     OW 7020   1.161   2.081   2.990 -0.2651 -0.0447 -0.2121
 1744SOL    HW2 7021   1.087   2.026   3.017  0.1779 -0.3021  0.5024
 1744SOL    HW3 7022   1.166   2.070   2.895 -2.4238  1.6104 -0.5476
 1744SOL    MW4 7023   1.152   2.072   2.981 -0.4915  0.1400 -0.1619
 1745SOL     OW 7024   1.137   2.356   3.060 -0.1800 -0.3074  0.6474
 1745SOL    HW2 7025   1.058   2.391   3.018 -0.6170  0.4231  2.0360
 1745SOL    HW3 7026   1.132   2.261   3.044 -0.7261 -0.1333 -0.2761
 1745SOL    MW4 7027   1.126   2.348   3.052 -0.3097 -0.1881  0.7088
 1746SOL     OW 7028   0.894   2.459   2.942 -0.2164 -0.3319 -0.1952
 1746SOL    HW2 7029   0.821   2.429   2.995 -1.4477  2.5503 -0.1450
 1746SOL    HW3 7030   0.860   2.462   2.852 -0.1937  1.0575 -0.1651
 1746SOL    MW4 7031   0.880   2.456   2.937 -0.3758  0.2317 -0.1845
 1747SOL     OW 7032   0.930   2.702   3.067 -0.0135 -0.1134  0.0559
 1747SOL    HW2 7033   0.898   2.686   3.156 -0.0414 -0.4116 -0.0089
 1747SOL    HW3 7034   0.907   2.623   3.018  1.0433 -0.4314  0.0698
 1747SOL    MW4 7035   0.923   2.690   3.072  0.1222 -0.1948  0.0491
 1748SOL     OW 7036   1.156   2.830   3.014 -0.4325 -0.1470  0.1732
 1748SOL    HW2 7037   1.139   2.919   3.045  0.0566 -0.9177  2.7929
 1748SOL    HW3 7038   1.082   2.779   3.046  0.2743 -1.0541  0.3914
 1748SOL    MW4 7039   1.144   2.835   3.022 -0.2747 -0.3684  0.5476
 1749SOL     OW 7040   1.115   3.092   3.083 -0.3827  0.2917  0.2468
 1749SOL    HW2 7041   1.191   3.150   3.082  0.1874 -0.4549  0.3143
 1749SOL    HW3 7042   1.041   3.151   3.068  0.2950  0.8770 -0.9019
 1749SOL    MW4 7043   1.115   3.108   3.081 -0.2182  0.2704  0.1040
 1750SOL     OW 7044   0.912   3.269   3.002 -0.2599 -0.5624  0.3406
 1750SOL    HW2 7045   0.841   3.216   3.037 -1.5726 -0.0067 -1.3836
 1750SOL    HW3 7046   0.918   3.243   2.910  1.2151  0.0043  0.2633
 1750SOL    MW4 7047   0.904   3.259   2.994 -0.2385 -0.4144  0.1032
 1751SOL     OW 7048   0.916   3.513   3.145  0.0848 -0.4922 -0.3380
 1751SOL    HW2 7049   0.967   3.584   3.106 -1.3221  1.0993  0.6608
 1751SOL    HW3 7050   0.941   3.436   3.095  0.9186  0.8801 -2.1066
 1751SOL    MW4 7051   0.926   3.512   3.133  0.0092 -0.1013 -0.4394
 1752SOL     OW 7052   1.136   3.663   3.035 -0.3168  0.1082  0.6071
 1752SOL    HW2 7053   1.203   3.601   3.063 -0.6439 -0.3326  0.4257
 1752SOL    HW3 7054   1.164   3.747   3.070  0.2559 -0.1014  0.6532
 1752SOL    MW4 7055   1.148   3.666   3.043 -0.2844  0.0226  0.5891
 1753SOL     OW 7056   1.167   3.920   3.141 -0.6205  0.0962 -0.0503
 1753SOL    HW2 7057   1.175   3.921   3.237  0.1756  1.5750 -0.1259
 1753SOL    HW3 7058   1.073   3.932   3.125 -0.4614  2.1677  0.5110
 1753SOL    MW4 7059   1.155   3.922   3.152 -0.4945  0.5646  0.0138
 1754SOL     OW 7060   0.918   4.004   3.033 -0.2231 -0.2821 -0.3472
 1754SOL    HW2 7061   0.849   3.940   3.049  0.5740 -1.3780 -1.2239
 1754SOL    HW3 7062   0.920   4.014   2.937  2.1959 -1.8269 -0.5170
 1754SOL    MW4 7063   0.909   3.997   3.022  0.2013 -0.6304 -0.4852
 1755SOL     OW 7064   0.913   4.279   3.142  0.2932  0.1711  0.0590
 1755SOL    HW2 7065   0.903   4.190   3.108 -0.0419 -0.0278  0.6666
 1755SOL    HW3 7066   0.832   4.323   3.117 -0.7210 -0.4783  2.0946
 1755SOL    MW4 7067   0.901   4.273   3.135  0.1152  0.0596  0.4079
 1756SOL     OW 7068   1.143   4.399   3.003  0.1493 -0.5259 -0.0725
 1756SOL    HW2 7069   1.074   4.350   3.048  0.1345 -0.5255 -0.0955
 1756SOL    HW3 7070   1.136   4.487   3.038  0.7935 -0.7679  0.6714
 1756SOL    MW4 7071   1.133   4.404   3.013  0.2323 -0.5574  0.0226
 1757SOL     OW 7072   1.594   0.000   3.131 -0.4113  0.0098  0.0162
 1757SOL    HW2 7073   1.606   0.005   3.226 -1.4299 -0.8155  0.2062
 1757SOL    HW3 7074   1.511   0.045   3.116  0.2078  0.9595 -0.6059
 1757SOL    MW4 7075   1.584   0.007   3.142 -0.4638  0.0257 -0.0408
 1758SOL     OW 7076   1.347   0.141   3.084  0.2139  0.5385 -0.3043
 1758SOL    HW2 7077   1.322   0.224   3.125 -0.1153 -0.1950  1.0032
 1758SOL    HW3 7078   1.370   0.165   2.994 -2.9163  1.5713 -0.8686
 1758SOL    MW4 7079   1.347   0.155   3.078 -0.2424  0.5779 -0.2062
 1759SOL     OW 7080   1.344   0.418   3.192  0.1176 -0.2460 -0.4577
 1759SOL    HW2 7081   1.358   0.408   3.286 -0.2213 -1.0247 -0.4905
 1759SOL    HW3 7082   1.418   0.470   3.162 -0.0308  0.4332  0.3253
 1759SOL    MW4 7083   1.356   0.424   3.201  0.0534 -0.2591 -0.3586
 1760SOL     OW 7084   1.563   0.515   3.048 -0.2752  0.0233 -0.6217
 1760SOL    HW2 7085   1.558   0.607   3.074  0.1552 -0.3601  0.8717
 1760SOL    HW3 7086   1.551   0.516   2.953 -0.2036  1.6222 -0.6262
 1760SOL    MW4 7087   1.561   0.528   3.039 -0.2090  0.1837 -0.4251
 1761SOL     OW 7088   1.588   0.772   3.124 -0.3811 -0.3408  0.2945
 1761SOL    HW2 7089   1.585   0.784   3.219  0.5579  0.6147  0.2136
 1761SOL    HW3 7090   1.507   0.813   3.092 -0.4233 -0.1605  0.6296
 1761SOL    MW4 7091   1.577   0.779   3.132 -0.2627 -0.1910  0.3281
 1762SOL     OW 7092   1.380   0.884   3.003 -0.0108  0.2560  0.2270
 1762SOL    HW2 7093   1.354   0.974   3.024 -1.3116  0.1214 -0.7365
 1762SOL    HW3 7094   1.312   0.829   3.041 -0.6111 -0.1703 -1.4113
 1762SOL    MW4 7095   1.368   0.889   3.010 -0.2618  0.1820 -0.1161
 1763SOL     OW 7096   1.393   1.174   3.065  0.0134  0.2665 -0.3684
 1763SOL    HW2 7097   1.403   1.158   3.159 -0.0881  1.2170 -0.1888
 1763SOL    HW3 7098   1.479   1.205   3.037 -0.4066  1.5508 -0.2577
 1763SOL    MW4 7099   1.405   1.176   3.074 -0.0554  0.5614 -0.3302
 1764SOL     OW 7100   1.630   1.269   2.973  0.5668 -0.1602 -0.1108
 1764SOL    HW2 7101   1.688   1.210   3.021 -0.2531 -0.3588  0.6481
 1764SOL    HW3 7102   1.638   1.353   3.018 -1.5202 -0.7813  1.4729
 1764SOL    MW4 7103   1.639   1.272   2.985  0.1833 -0.2683  0.1981
 1765SOL     OW 7104   1.595   1.537   3.050 -0.3961  0.2716  0.0718
 1765SOL    HW2 7105   1.668   1.589   3.017 -0.0523 -0.1464  0.1752
 1765SOL    HW3 7106   1.517   1.585   3.021 -0.0928  0.3008 -0.7081
 1765SOL    MW4 7107   1.595   1.551   3.042 -0.3108  0.2203 -0.0176
 1766SOL     OW 7108   1.363   1.676   2.981  0.3073  0.0998 -0.3408
 1766SOL    HW2 7109   1.365   1.769   3.003  0.8651  0.2459 -0.9814
 1766SOL    HW3 7110   1.364   1.675   2.885  0.1483 -0.5658 -0.3364
 1766SOL    MW4 7111   1.363   1.688   2.971  0.3598  0.0314 -0.4249
 1767SOL     OW 7112   1.376   1.934   3.055 -0.1374 -0.4180  0.3308
 1767SOL    HW2 7113   1.393   1.943   3.149 -1.0513 -0.1053  0.4714
 1767SOL    HW3 7114   1.292   1.978   3.042  1.0082  1.4025 -1.0101
 1767SOL    MW4 7115   1.367   1.941   3.066 -0.1067 -0.1366  0.1724
 1768SOL     OW 7116   1.587   2.084   2.958 -0.4882  0.2239 -0.3598
 1768SOL    HW2 7117   1.522   2.030   3.002  1.0327 -0.7838  0.7214
 1768SOL    HW3 7118   1.575   2.066   2.865 -0.4065 -1.5221 -0.0402
 1768SOL    MW4 7119   1.577   2.075   2.952 -0.2767 -0.1395 -0.1750
 1769SOL     OW 7120   1.567   2.312   3.115  0.1810 -0.0616 -0.5313
 1769SOL    HW2 7121   1.499   2.369   3.078 -0.4843  0.2661  1.1497
 1769SOL    HW3 7122   1.569   2.236   3.057 -2.3891 -0.5794  0.0068
 1769SOL    MW4 7123   1.558   2.310   3.103 -0.2458 -0.0868 -0.2389
 1770SOL     OW 7124   1.380   2.457   2.987 -0.1451  0.0542  0.4145
 1770SOL    HW2 7125   1.304   2.405   3.015  0.3489 -0.0729  1.5358
 1770SOL    HW3 7126   1.372   2.461   2.891 -1.3292 -0.3209  0.4870
 1770SOL    MW4 7127   1.369   2.450   2.978 -0.2363 -0.0119  0.5717
 1771SOL     OW 7128   1.387   2.719   3.088  0.2114 -0.5303  0.2720
 1771SOL    HW2 7129   1.389   2.630   3.053 -0.1045 -0.6083  0.4564
 1771SOL    HW3 7130   1.307   2.758   3.052  1.1063  0.1702 -1.0239
 1771SOL    MW4 7131   1.377   2.713   3.078  0.2880 -0.4480  0.1254
 1772SOL     OW 7132   1.610   2.832   2.951  0.7047 -0.4687  0.0499
 1772SOL    HW2 7133   1.686   2.782   2.980  0.6254  0.4238  1.8588
 1772SOL    HW3 7134   1.535   2.784   2.986  0.6010  0.5595  1.2468
 1772SOL    MW4 7135   1.610   2.819   2.959  0.6807 -0.2153  0.4466
 1773SOL     OW 7136   1.583   3.061   3.102 -0.2539  0.9160  0.1222
 1773SOL    HW2 7137   1.590   3.037   3.195  1.0168  1.4964  0.1923
 1773SOL    HW3 7138   1.617   2.984   3.055 -0.2901  0.8767  0.1603
 1773SOL    MW4 7139   1.589   3.048   3.108 -0.0911  0.9873  0.1366
 1774SOL     OW 7140   1.363   3.221   3.020 -0.1451 -0.0203 -0.1277
 1774SOL    HW2 7141   1.428   3.153   3.038 -0.3759 -0.1625  0.1713
 1774SOL    HW3 7142   1.354   3.222   2.925  0.8676  0.5363 -0.2217
 1774SOL    MW4 7143   1.370   3.212   3.010 -0.0418  0.0346 -0.1006
 1775SOL     OW 7144   1.304   3.483   3.123  0.6038  0.2515  0.1068
 1775SOL    HW2 7145   1.314   3.475   3.218  1.0196  0.1629  0.0562
 1775SOL    HW3 7146   1.327   3.396   3.089  0.1279  0.1853 -0.0491
 1775SOL    MW4 7147   1.308   3.470   3.131  0.5959  0.2313  0.0796
 1776SOL     OW 7148   1.560   3.605   3.053 -0.0609  0.2814 -0.1724
 1776SOL    HW2 7149   1.485   3.555   3.084  1.7186 -1.5595  1.2571
 1776SOL    HW3 7150   1.563   3.588   2.959 -1.3045  0.2134 -0.2033
 1776SOL    MW4 7151   1.551   3.596   3.044  0.0099  0.0296  0.0122
 1777SOL     OW 7152   1.563   3.863   3.155 -0.0954 -0.2152 -0.3857
 1777SOL    HW2 7153   1.652   3.889   3.130 -0.3607  0.8273 -0.2702
 1777SOL    HW3 7154   1.556   3.772   3.127  0.1180  0.4634 -2.8280
 1777SOL    MW4 7155   1.574   3.855   3.148 -0.1023  0.0119 -0.6928
 1778SOL     OW 7156   1.376   4.027   3.014 -0.5266 -0.1157  0.1127
 1778SOL    HW2 7157   1.455   3.988   3.053 -1.1181 -1.5094 -0.0713
 1778SOL    HW3 7158   1.304   3.989   3.064 -1.1462  0.3337 -0.4377
 1778SOL    MW4 7159   1.377   4.017   3.026 -0.6865 -0.2398  0.0157
 1779SOL     OW 7160   1.383   4.283   3.130  0.2298  0.0339 -0.5566
 1779SOL    HW2 7161   1.302   4.323   3.097 -1.0684 -0.4591  1.8307
 1779SOL    HW3 7162   1.383   4.195   3.093 -0.7837 -0.2401  0.0468
 1779SOL    MW4 7163   1.372   4.277   3.121 -0.0752 -0.0672 -0.1619
 1780SOL     OW 7164   1.581   4.402   2.973  0.4782  0.2738 -0.1049
 1780SOL    HW2 7165   1.500   4.372   3.015 -0.1691 -0.9626 -2.1542
 1780SOL    HW3 7166   1.601   4.485   3.017 -0.6200 -0.5417  2.0146
 1780SOL    MW4 7167   1.573   4.409   2.984  0.2477  0.0038 -0.0956
 1781SOL     OW 7168   1.999   4.647   3.462  0.6653 -0.4286  0.2401
 1781SOL    HW2 7169   1.927   4.708   3.479  1.8287  0.8618  0.6176
 1781SOL    HW3 7170   2.027   4.668   3.373  0.5917 -0.9086  0.1051
 1781SOL    MW4 7171   1.993   4.658   3.453  0.8091 -0.3214  0.2720
 1782SOL     OW 7172   2.011   0.004   3.169  0.1771  0.3545  0.0947
 1782SOL    HW2 7173   1.943   0.064   3.137  0.9212  1.0070 -0.2955
 1782SOL    HW3 7174   2.093   0.040   3.133  1.0876  1.2255  2.8850
 1782SOL    MW4 7175   2.013   0.017   3.160  0.3953  0.5550  0.4113
 1783SOL     OW 7176   1.806   0.147   3.049  0.0546  0.0938 -0.2653
 1783SOL    HW2 7177   1.814   0.116   2.959 -0.5867 -0.2414 -0.2124
 1783SOL    HW3 7178   1.723   0.110   3.079 -0.9470  2.2131 -0.3281
 1783SOL    MW4 7179   1.796   0.138   3.041 -0.1622  0.3292 -0.2668
 1784SOL     OW 7180   2.026   0.536   3.016 -0.0519  0.0154  0.4631
 1784SOL    HW2 7181   1.943   0.499   3.045 -0.3296  0.6332  0.4635
 1784SOL    HW3 7182   2.024   0.527   2.921 -0.8463  1.5151  0.3194
 1784SOL    MW4 7183   2.015   0.530   3.007 -0.1934  0.2949  0.4442
 1785SOL     OW 7184   2.054   0.787   3.138 -0.3293 -0.1328  0.1952
 1785SOL    HW2 7185   1.972   0.821   3.102  0.9726  0.3154 -2.4886
 1785SOL    HW3 7186   2.057   0.696   3.108  0.5816  0.1160 -0.4709
 1785SOL    MW4 7187   2.043   0.779   3.129 -0.0370 -0.0409 -0.2465
 1786SOL     OW 7188   1.811   0.874   3.030 -0.0424 -0.4400 -0.4007
 1786SOL    HW2 7189   1.727   0.836   3.056 -0.5728  0.4844 -0.7677
 1786SOL    HW3 7190   1.813   0.863   2.935 -0.6350  1.3452 -0.6231
 1786SOL    MW4 7191   1.800   0.867   3.021 -0.1906 -0.0826 -0.4783
 1787SOL     OW 7192   1.563   0.591   3.541 -0.0495 -0.4269  0.0228
 1787SOL    HW2 7193   1.643   0.541   3.524  0.3714 -0.1756  1.1799
 1787SOL    HW3 7194   1.552   0.586   3.636 -1.0773  0.0471 -0.0657
 1787SOL    MW4 7195   1.572   0.584   3.551 -0.1296 -0.3311  0.1638
 1788SOL     OW 7196   2.019   1.244   3.016 -0.2045  0.4592 -0.3603
 1788SOL    HW2 7197   2.088   1.192   3.057 -0.5424 -0.3540 -0.8100
 1788SOL    HW3 7198   1.939   1.215   3.059 -0.3300  1.0307 -0.2047
 1788SOL    MW4 7199   2.018   1.233   3.027 -0.2656  0.4274 -0.3991
 1789SOL     OW 7200   2.057   1.527   3.082  0.3534 -0.5311  0.6146
 1789SOL    HW2 7201   2.041   1.527   3.176  1.5801 -1.8623  0.8336
 1789SOL    HW3 7202   2.051   1.435   3.056 -0.3182 -0.1411 -0.6701
 1789SOL    MW4 7203   2.054   1.515   3.091  0.4268 -0.6553  0.4740
 1790SOL     OW 7204   1.818   1.667   2.959 -0.4152 -0.5343 -0.0270
 1790SOL    HW2 7205   1.815   1.752   3.004  0.6940  0.0182 -0.9467
 1790SOL    HW3 7206   1.896   1.624   2.995 -1.1061 -1.2633  0.6014
 1790SOL    MW4 7207   1.828   1.673   2.969 -0.3601 -0.5575 -0.0656
 1791SOL     OW 7208   1.814   1.922   3.060  0.0007 -0.1049 -0.3142
 1791SOL    HW2 7209   1.890   1.978   3.050 -0.5881  1.4941  3.3002
 1791SOL    HW3 7210   1.742   1.971   3.019 -0.0259  0.6197  0.6022
 1791SOL    MW4 7211   1.814   1.936   3.053 -0.0806  0.2016  0.2837
 1792SOL     OW 7212   2.020   2.092   3.003  0.2134 -0.2852 -0.9295
 1792SOL    HW2 7213   2.104   2.051   3.024  0.6798  0.4196 -1.3806
 1792SOL    HW3 7214   2.017   2.171   3.057 -0.2564 -0.4259 -0.7502
 1792SOL    MW4 7215   2.031   2.097   3.013  0.2131 -0.2108 -0.9651
 1793SOL     OW 7216   2.040   2.327   3.134  0.6897  0.1541 -0.1611
 1793SOL    HW2 7217   2.120   2.352   3.089  1.1964  0.0004  0.6406
 1793SOL    HW3 7218   1.971   2.380   3.093  1.2100  0.3318 -0.8053
 1793SOL    MW4 7219   2.041   2.337   3.123  0.8252  0.1571 -0.1402
 1794SOL     OW 7220   1.821   2.445   3.005 -0.5239 -0.2378 -0.2087
 1794SOL    HW2 7221   1.808   2.538   3.021  1.0728 -0.1540  0.7452
 1794SOL    HW3 7222   1.744   2.403   3.044  0.5417  0.4169  2.7724
 1794SOL    MW4 7223   1.809   2.452   3.013 -0.1727 -0.1404  0.3104
 1795SOL     OW 7224   1.810   2.711   3.079  0.0427  0.0613 -0.0894
 1795SOL    HW2 7225   1.810   2.705   3.174 -0.8966 -0.1801 -0.0960
 1795SOL    HW3 7226   1.901   2.730   3.055  0.3028 -0.0216  0.8417
 1795SOL    MW4 7227   1.822   2.713   3.088 -0.0468  0.0181  0.0327
 1796SOL     OW 7228   2.070   2.823   3.023  0.0646 -0.5729 -0.3128
 1796SOL    HW2 7229   2.060   2.911   3.059 -0.3497 -1.2675  1.3090
 1796SOL    HW3 7230   2.049   2.832   2.930 -1.2444  0.7959  0.1060
 1796SOL    MW4 7231   2.066   2.835   3.016 -0.1626 -0.4842 -0.0434
 1797SOL     OW 7232   2.040   3.094   3.121  0.0195  0.0058  0.2665
 1797SOL    HW2 7233   2.023   3.095   3.216 -1.0155  3.3415  0.1301
 1797SOL    HW3 7234   1.954   3.104   3.081  0.4799 -1.1286 -1.0325
 1797SOL    MW4 7235   2.026   3.096   3.129 -0.0560  0.2961  0.0768
 1798SOL     OW 7236   1.804   3.187   2.982 -0.6983 -0.0941  0.0377
 1798SOL    HW2 7237   1.720   3.151   3.012 -0.1487 -1.4172  0.0119
 1798SOL    HW3 7238   1.793   3.199   2.888 -1.2868  0.9380  0.2265
 1798SOL    MW4 7239   1.791   3.184   2.974 -0.7035 -0.1328  0.0594
 1799SOL     OW 7240   1.785   3.458   3.129 -0.4141 -0.0660 -0.4234
 1799SOL    HW2 7241   1.783   3.371   3.091 -0.2382 -0.0711 -0.4212
 1799SOL    HW3 7242   1.703   3.499   3.100 -0.5461 -0.2667 -0.3370
 1799SOL    MW4 7243   1.774   3.452   3.121 -0.4082 -0.0930 -0.4117
 1800SOL     OW 7244   2.035   3.586   2.995  0.2248 -0.1696  0.1839
 1800SOL    HW2 7245   2.021   3.674   3.031  0.3198 -0.1548  0.1863
 1800SOL    HW3 7246   1.969   3.532   3.038  0.1247 -0.0861  0.1343
 1800SOL    MW4 7247   2.024   3.590   3.006  0.2239 -0.1564  0.1776
 1801SOL     OW 7248   2.021   3.845   3.130 -0.0543 -0.0990 -0.0236
 1801SOL    HW2 7249   2.013   3.841   3.225  0.0555  4.6938  0.2758
 1801SOL    HW3 7250   1.939   3.884   3.101 -0.4075 -2.2136 -2.0490
 1801SOL    MW4 7251   2.009   3.850   3.139 -0.0865  0.2544 -0.2515
 1802SOL     OW 7252   1.793   3.975   3.050  0.5382 -0.1250  0.5776
 1802SOL    HW2 7253   1.790   4.070   3.063 -1.4576 -0.0379 -0.3819
 1802SOL    HW3 7254   1.806   3.963   2.956 -1.0087 -0.7875  0.4307
 1802SOL    MW4 7255   1.795   3.986   3.040  0.0709 -0.2010  0.4318
 1803SOL     OW 7256   1.799   4.254   3.130  0.0773  0.2820 -0.1929
 1803SOL    HW2 7257   1.749   4.319   3.082  1.6494  1.4272 -0.3468
 1803SOL    HW3 7258   1.890   4.285   3.124  0.7224 -1.3844  0.5999
 1803SOL    MW4 7259   1.805   4.267   3.123  0.3698  0.2131 -0.1087
 1804SOL     OW 7260   2.024   4.409   3.085 -0.0471  0.2786  0.0122
 1804SOL    HW2 7261   2.031   4.503   3.103 -1.8413  0.2667  0.8253
 1804SOL    HW3 7262   2.033   4.403   2.990  0.9946  1.1791  0.0449
 1804SOL    MW4 7263   2.026   4.421   3.075 -0.1466  0.3958  0.1237
 1805SOL     OW 7264   2.437   4.642   3.136  0.7261 -0.0291 -0.1854
 1805SOL    HW2 7265   2.450   4.552   3.106 -0.4829  0.0979 -1.1426
 1805SOL    HW3 7266   2.449   4.638   3.231  1.1942 -1.0996 -0.2842
 1805SOL    MW4 7267   2.440   4.629   3.145  0.6285 -0.1535 -0.3247
 1806SOL     OW 7268   2.214   0.088   3.012 -0.1076 -0.0701  0.6829
 1806SOL    HW2 7269   2.217   0.182   3.028 -0.9253  0.0228  0.3136
 1806SOL    HW3 7270   2.294   0.054   3.052  1.2510  1.0549 -1.0120
 1806SOL    MW4 7271   2.225   0.096   3.019 -0.0362  0.0906  0.4106
 1807SOL     OW 7272   2.205   0.335   3.093 -0.1824 -0.1298  0.1863
 1807SOL    HW2 7273   2.217   0.339   3.188  0.5845  1.7022  0.0340
 1807SOL    HW3 7274   2.134   0.397   3.075 -1.0508 -1.2505 -0.3445
 1807SOL    MW4 7275   2.197   0.343   3.103 -0.1957 -0.0359  0.0963
 1808SOL     OW 7276   2.443   0.450   3.018  0.2094 -0.0305  0.2506
 1808SOL    HW2 7277   2.355   0.415   3.030 -0.0480  0.4912 -0.0642
 1808SOL    HW3 7278   2.452   0.460   2.923  1.1387 -1.4095  0.1784
 1808SOL    MW4 7279   2.433   0.447   3.007  0.2980 -0.1436  0.1993
 1809SOL     OW 7280   2.447   0.723   3.067 -0.2864  0.3070  0.1247
 1809SOL    HW2 7281   2.456   0.630   3.046 -0.9802  0.1719  0.4466
 1809SOL    HW3 7282   2.537   0.756   3.065 -0.1219 -0.1799 -0.8802
 1809SOL    MW4 7283   2.460   0.715   3.064 -0.3562  0.2249  0.0346
 1810SOL     OW 7284   2.248   0.882   2.977  0.3899  0.2104 -0.4979
 1810SOL    HW2 7285   2.317   0.825   3.010  0.1563  0.9791  1.4050
 1810SOL    HW3 7286   2.169   0.854   3.025 -0.4418 -0.0952 -2.0190
 1810SOL    MW4 7287   2.246   0.871   2.988  0.2494  0.2716 -0.4475
 1811SOL     OW 7288   2.255   1.124   3.121 -0.3171  0.2490  0.4411
 1811SOL    HW2 7289   2.261   1.138   3.215 -0.5528  0.8696  0.3649
 1811SOL    HW3 7290   2.251   1.029   3.111  0.3102  0.1581  1.0182
 1811SOL    MW4 7291   2.255   1.113   3.132 -0.2654  0.3189  0.5069
 1812SOL     OW 7292   2.458   1.282   3.031 -0.2325  0.1433 -0.2102
 1812SOL    HW2 7293   2.382   1.232   3.060  0.7801 -1.6184 -0.4953
 1812SOL    HW3 7294   2.429   1.328   2.953 -1.3151  0.3652  0.3173
 1812SOL    MW4 7295   2.444   1.281   3.025 -0.2418 -0.0598 -0.1781
 1813SOL     OW 7296   2.456   1.536   3.152 -0.0106 -0.3682  0.0537
 1813SOL    HW2 7297   2.395   1.594   3.106  1.5489 -0.8239 -2.6553
 1813SOL    HW3 7298   2.443   1.450   3.113  0.2635 -1.1247  1.5673
 1813SOL    MW4 7299   2.446   1.533   3.141  0.2313 -0.5281 -0.1037
 1814SOL     OW 7300   2.270   1.689   3.014 -0.1193 -0.1038  0.0900
 1814SOL    HW2 7301   2.186   1.650   3.038  0.2287 -0.6549  0.4228
 1814SOL    HW3 7302   2.271   1.688   2.918 -0.3419 -0.4199  0.0909
 1814SOL    MW4 7303   2.259   1.684   3.004 -0.1030 -0.2183  0.1338
 1815SOL     OW 7304   2.265   1.943   3.122  0.2042 -0.3236  0.6500
 1815SOL    HW2 7305   2.339   1.984   3.077 -1.2504  0.2422 -1.3134
 1815SOL    HW3 7306   2.271   1.850   3.096 -0.3160 -0.1007 -0.2888
 1815SOL    MW4 7307   2.276   1.936   3.112 -0.0565 -0.2195  0.2673
 1816SOL     OW 7308   2.499   2.031   3.017 -0.0838  0.3153  0.2860
 1816SOL    HW2 7309   2.579   1.992   3.051  0.9076  1.3987 -0.7545
 1816SOL    HW3 7310   2.501   2.011   2.923 -1.0523  0.3123  0.2589
 1816SOL    MW4 7311   2.510   2.023   3.009 -0.0808  0.4578  0.1450
 1817SOL     OW 7312   2.508   2.298   3.107  0.6144  0.3211  0.1899
 1817SOL    HW2 7313   2.496   2.309   3.202 -2.9349  1.3655 -0.2823
 1817SOL    HW3 7314   2.519   2.204   3.095  1.2662  0.1961  1.6688
 1817SOL    MW4 7315   2.508   2.287   3.118  0.2320  0.4427  0.3226
 1818SOL     OW 7316   2.280   2.407   3.019  0.0119 -0.2047  0.0683
 1818SOL    HW2 7317   2.281   2.495   3.056 -0.3591 -0.7673  1.4290
 1818SOL    HW3 7318   2.358   2.365   3.055 -0.8747 -1.0694  1.0069
 1818SOL    MW4 7319   2.290   2.413   3.028 -0.1543 -0.3929  0.3719
 1819SOL     OW 7320   2.278   2.662   3.134  0.4091  0.2440 -0.5188
 1819SOL    HW2 7321   2.355   2.696   3.088  0.6332  0.5181  0.0525
 1819SOL    HW3 7322   2.205   2.715   3.101  0.5119  0.1898 -0.8342
 1819SOL    MW4 7323   2.278   2.674   3.123  0.4523  0.2732 -0.4852
 1820SOL     OW 7324   2.493   2.763   3.003  0.3973  0.1577  0.0668
 1820SOL    HW2 7325   2.487   2.847   3.049  0.1827 -0.4857  1.2279
 1820SOL    HW3 7326   2.495   2.787   2.911 -0.4640  1.4045  0.3557
 1820SOL    MW4 7327   2.492   2.778   2.997  0.2553  0.2372  0.2580
 1821SOL     OW 7328   2.446   3.036   3.130 -0.1348  0.1954 -0.3718
 1821SOL    HW2 7329   2.531   3.077   3.113  0.5256 -0.5994  0.9585
 1821SOL    HW3 7330   2.384   3.088   3.079  1.0820  1.0867 -0.9690
 1821SOL    MW4 7331   2.449   3.049   3.121  0.1130  0.2081 -0.2749
 1822SOL     OW 7332   2.269   3.220   3.013  0.1961 -0.4140 -0.2399
 1822SOL    HW2 7333   2.259   3.312   3.041 -1.1716 -0.3355 -0.9305
 1822SOL    HW3 7334   2.188   3.178   3.043  0.7706 -1.3743 -0.0278
 1822SOL    MW4 7335   2.257   3.227   3.021  0.0913 -0.5302 -0.3033
 1823SOL     OW 7336   2.260   3.480   3.103 -0.2384  0.0077  0.8089
 1823SOL    HW2 7337   2.336   3.530   3.073  0.3370 -2.0011 -1.2463
 1823SOL    HW3 7338   2.189   3.506   3.045 -0.5583  0.2360  1.3005
 1823SOL    MW4 7339   2.261   3.490   3.091 -0.2046 -0.2272  0.6025
 1824SOL     OW 7340   2.486   3.628   3.004  0.3944  0.1488  0.1039
 1824SOL    HW2 7341   2.557   3.578   3.044  0.6776  0.3419 -0.1545
 1824SOL    HW3 7342   2.479   3.706   3.058  1.2117  0.7202 -0.5914
 1824SOL    MW4 7343   2.495   3.632   3.017  0.5393  0.2496 -0.0219
 1825SOL     OW 7344   2.464   3.873   3.119  0.1546 -0.2901 -0.0382
 1825SOL    HW2 7345   2.478   3.883   3.213 -0.4482  3.0999 -0.2407
 1825SOL    HW3 7346   2.545   3.903   3.079 -0.6161  0.9752 -0.6664
 1825SOL    MW4 7347   2.476   3.878   3.126 -0.0265  0.3240 -0.1478
 1826SOL     OW 7348   2.232   3.976   2.996  0.0968 -0.1178  0.4181
 1826SOL    HW2 7349   2.303   3.937   3.046  0.4652 -0.0152 -0.0244
 1826SOL    HW3 7350   2.154   3.930   3.026  0.1159  0.8936  2.1093
 1826SOL    MW4 7351   2.231   3.965   3.007  0.1481  0.0291  0.5829
 1827SOL     OW 7352   2.266   4.219   3.152 -0.6339 -0.3262  0.2621
 1827SOL    HW2 7353   2.244   4.138   3.105 -1.7160 -0.0274  0.2470
 1827SOL    HW3 7354   2.189   4.275   3.141  0.4774  1.0888 -0.5433
 1827SOL    MW4 7355   2.253   4.216   3.144 -0.6299 -0.1006  0.1535
 1828SOL     OW 7356   2.474   4.387   3.024 -0.1364 -0.2197  0.4039
 1828SOL    HW2 7357   2.409   4.326   3.059  0.0743 -0.8172 -0.2248
 1828SOL    HW3 7358   2.459   4.386   2.929  1.3677 -1.0470  0.1566
 1828SOL    MW4 7359   2.464   4.379   3.016  0.0901 -0.4077  0.2882
 1829SOL     OW 7360   2.885   4.642   3.166 -0.0908 -0.2461 -0.5325
 1829SOL    HW2 7361   2.966   4.683   3.137 -0.5181  0.8318 -0.2102
 1829SOL    HW3 7362   2.890   4.552   3.133  0.6214  0.2004 -1.6464
 1829SOL    MW4 7363   2.896   4.635   3.158 -0.0534 -0.0453 -0.6373
 1830SOL     OW 7364   2.659   0.090   3.018  0.5799 -0.2542 -0.1557
 1830SOL    HW2 7365   2.721   0.027   3.056  0.0817  0.4087  1.7489
 1830SOL    HW3 7366   2.573   0.057   3.043  0.2956  0.8824  0.3656
 1830SOL    MW4 7367   2.656   0.077   3.026  0.4768 -0.0168  0.1643
 1831SOL     OW 7368   2.675   0.339   3.127 -0.3502  0.1385 -0.4048
 1831SOL    HW2 7369   2.690   0.251   3.094  0.6189  0.4383 -0.7786
 1831SOL    HW3 7370   2.588   0.363   3.095 -1.0032 -1.0218  0.4562
 1831SOL    MW4 7371   2.666   0.330   3.119 -0.3083  0.0250 -0.3405
 1832SOL     OW 7372   2.906   0.492   3.055 -0.3641  0.2334  0.0143
 1832SOL    HW2 7373   2.819   0.455   3.067 -0.5446  0.6820  0.0771
 1832SOL    HW3 7374   2.906   0.528   2.967 -0.1622  0.0248 -0.0746
 1832SOL    MW4 7375   2.895   0.492   3.045 -0.3617  0.2651  0.0107
 1833SOL     OW 7376   3.793   0.855   4.168 -0.4180 -0.3099  0.1323
 1833SOL    HW2 7377   3.850   0.931   4.154 -2.2600  1.1065  0.0092
 1833SOL    HW3 7378   3.851   0.787   4.200  1.5191  0.7465 -1.0074
 1833SOL    MW4 7379   3.808   0.856   4.170 -0.4053  0.0163 -0.0348
 1834SOL     OW 7380   2.694   0.840   3.017 -0.3756  0.2440  0.0644
 1834SOL    HW2 7381   2.671   0.926   3.052  1.8859  1.6249 -1.6471
 1834SOL    HW3 7382   2.778   0.819   3.060 -0.7205 -0.9403  0.1763
 1834SOL    MW4 7383   2.702   0.849   3.028 -0.1225  0.2700 -0.1466
 1835SOL     OW 7384   2.675   1.121   3.095  0.2872 -0.5017  0.4341
 1835SOL    HW2 7385   2.598   1.161   3.055 -0.2553 -0.9011  1.0563
 1835SOL    HW3 7386   2.748   1.176   3.067 -0.0956 -0.6718 -0.9524
 1835SOL    MW4 7387   2.674   1.133   3.086  0.1652 -0.5767  0.3331
 1836SOL     OW 7388   2.892   1.264   3.009 -0.3483 -0.4983  0.8283
 1836SOL    HW2 7389   2.960   1.217   3.056  0.4957  0.1445  0.2715
 1836SOL    HW3 7390   2.879   1.345   3.058  0.1390 -0.0784  0.2661
 1836SOL    MW4 7391   2.899   1.268   3.022 -0.1726 -0.3582  0.6807
 1837SOL     OW 7392   2.901   1.508   3.135  0.1520 -0.3911  0.5461
 1837SOL    HW2 7393   2.914   1.520   3.229  0.8606 -1.0987  0.5429
 1837SOL    HW3 7394   2.971   1.558   3.094  1.3833 -2.1604  0.4619
 1837SOL    MW4 7395   2.912   1.516   3.142  0.4077 -0.7178  0.5345
 1838SOL     OW 7396   2.685   1.637   3.018 -0.0187 -0.0112 -0.3694
 1838SOL    HW2 7397   2.762   1.586   3.043  1.4885  1.7499 -1.2172
 1838SOL    HW3 7398   2.616   1.610   3.079  0.7711 -2.8540 -0.6760
 1838SOL    MW4 7399   2.686   1.627   3.029  0.2844 -0.1539 -0.5217
 1839SOL     OW 7400   2.708   1.886   3.127 -0.1262 -0.1116 -0.0210
 1839SOL    HW2 7401   2.794   1.921   3.105 -1.1326  2.0863 -0.5776
 1839SOL    HW3 7402   2.710   1.796   3.094  1.6046  0.2268 -0.9105
 1839SOL    MW4 7403   2.720   1.879   3.120 -0.0305  0.2232 -0.2117
 1840SOL     OW 7404   2.928   2.011   3.028 -0.1553  0.3383  0.2773
 1840SOL    HW2 7405   2.928   2.099   3.065 -0.2947  1.0256 -1.3443
 1840SOL    HW3 7406   2.923   2.024   2.934  0.2243 -1.4038  0.0000
 1840SOL    MW4 7407   2.927   2.024   3.021 -0.1235  0.1991  0.0269
 1841SOL     OW 7408   2.929   2.269   3.099 -0.0992  0.2849  0.2380
 1841SOL    HW2 7409   3.016   2.309   3.099  0.1854 -0.3233  1.1734
 1841SOL    HW3 7410   2.871   2.339   3.069  0.7223  0.6565 -0.5223
 1841SOL    MW4 7411   2.933   2.283   3.095  0.0467  0.2537  0.2611
 1842SOL     OW 7412   2.713   2.451   3.005  0.3277  0.7386 -0.5481
 1842SOL    HW2 7413   2.727   2.532   3.054  0.9568 -0.4215  1.1933
 1842SOL    HW3 7414   2.630   2.417   3.039 -0.3222  1.0227 -1.8163
 1842SOL    MW4 7415   2.704   2.457   3.016  0.3247  0.6230 -0.4857
 1843SOL     OW 7416   2.753   2.721   3.103  0.3822 -0.3432  0.4090
 1843SOL    HW2 7417   2.734   2.733   3.196  0.4919 -0.1045  0.4011
 1843SOL    HW3 7418   2.670   2.738   3.059  0.7065  1.1254  0.3403
 1843SOL    MW4 7419   2.740   2.725   3.110  0.4394 -0.1180  0.3989
 1844SOL     OW 7420   2.976   2.869   3.045 -0.4345  0.0812  0.2878
 1844SOL    HW2 7421   3.055   2.816   3.056 -0.7337 -0.6937 -1.1923
 1844SOL    HW3 7422   2.904   2.808   3.056 -0.7910  0.3799 -0.3307
 1844SOL    MW4 7423   2.977   2.854   3.048 -0.5212  0.0184  0.0110
 1845SOL     OW 7424   2.925   3.121   3.135 -0.2220 -0.6559  0.4278
 1845SOL    HW2 7425   2.835   3.146   3.114  0.2130  0.9372  0.3411
 1845SOL    HW3 7426   2.935   3.032   3.100 -1.1783 -0.1218 -1.2868
 1845SOL    MW4 7427   2.915   3.113   3.127 -0.2906 -0.3750  0.1898
 1846SOL     OW 7428   2.677   3.185   3.031 -0.6355  0.3182  0.0521
 1846SOL    HW2 7429   2.678   3.276   3.058  0.2550  0.0287  1.0485
 1846SOL    HW3 7430   2.672   3.188   2.935  0.0836  1.4151  0.0409
 1846SOL    MW4 7431   2.676   3.197   3.021 -0.4234  0.4249  0.1822
 1847SOL     OW 7432   2.676   3.449   3.115  0.3689  0.1929  0.3511
 1847SOL    HW2 7433   2.680   3.441   3.210  0.6156 -1.8766  0.1897
 1847SOL    HW3 7434   2.763   3.482   3.090 -0.0177  1.6858  0.8905
 1847SOL    MW4 7435   2.688   3.453   3.124  0.3502  0.1168  0.4010
 1848SOL     OW 7436   2.913   3.575   3.016  0.0593 -0.2721  0.3947
 1848SOL    HW2 7437   2.986   3.536   3.065 -0.9762 -1.9705  0.6187
 1848SOL    HW3 7438   2.913   3.666   3.043  0.5492 -0.8118  2.3314
 1848SOL    MW4 7439   2.923   3.582   3.026 -0.0129 -0.5672  0.6797
 1849SOL     OW 7440   2.919   3.839   3.098 -0.7051  0.1002 -0.0357
 1849SOL    HW2 7441   2.919   3.852   3.193 -0.4996 -1.5150  0.1943
 1849SOL    HW3 7442   2.843   3.888   3.068 -0.5914  0.8906  0.9280
 1849SOL    MW4 7443   2.909   3.847   3.107 -0.6630 -0.0088  0.1221
 1850SOL     OW 7444   2.707   3.973   2.990  0.3915  0.2651 -0.1552
 1850SOL    HW2 7445   2.701   4.061   3.027  1.9028  0.0493  0.6179
 1850SOL    HW3 7446   2.725   3.987   2.897 -1.3148  0.7789 -0.4238
 1850SOL    MW4 7447   2.709   3.986   2.983  0.3657  0.3045 -0.0889
 1851SOL     OW 7448   2.689   4.224   3.108  0.6403  0.2548 -0.0379
 1851SOL    HW2 7449   2.695   4.244   3.201 -0.4890 -1.2975  0.3737
 1851SOL    HW3 7450   2.624   4.286   3.075  0.3134  0.1471  0.3964
 1851SOL    MW4 7451   2.681   4.235   3.116  0.4480  0.0362  0.0739
 1852SOL     OW 7452   2.901   4.382   3.046  0.1694 -0.0733 -0.5219
 1852SOL    HW2 7453   2.979   4.330   3.065 -0.4982 -0.5933  0.8839
 1852SOL    HW3 7454   2.828   4.321   3.060 -0.5686  0.9266  0.0168
 1852SOL    MW4 7455   2.902   4.367   3.050 -0.0162 -0.0100 -0.2651
 1853SOL     OW 7456   3.339   4.614   3.120  0.0179  0.4126  0.5507
 1853SOL    HW2 7457   3.420   4.662   3.103 -0.7644  1.3175 -0.7463
 1853SOL    HW3 7458   3.350   4.530   3.075  0.3049  0.4614  0.5324
 1853SOL    MW4 7459   3.351   4.609   3.112 -0.0477  0.5388  0.3774
 1854SOL     OW 7460   3.110   0.087   3.021 -0.1656 -0.1979  0.2869
 1854SOL    HW2 7461   3.120   0.180   3.043  0.7995  0.2163 -1.7087
 1854SOL    HW3 7462   3.194   0.048   3.045  0.2563 -0.0869 -0.9784
 1854SOL    MW4 7463   3.122   0.094   3.027  0.0174 -0.1286 -0.1435
 1855SOL     OW 7464   3.151   0.375   3.085  0.0863 -0.0754  0.3136
 1855SOL    HW2 7465   3.212   0.422   3.030  2.0292 -0.7269  1.8424
 1855SOL    HW3 7466   3.065   0.409   3.061  0.9307  0.0059 -2.7087
 1855SOL    MW4 7467   3.147   0.385   3.075  0.4539 -0.1507  0.1163
 1856SOL     OW 7468   3.371   0.541   2.971 -0.4176  0.0970 -0.1003
 1856SOL    HW2 7469   3.417   0.472   3.019  1.1513  0.7605 -0.6296
 1856SOL    HW3 7470   3.385   0.519   2.879 -0.4019  0.8010 -0.2680
 1856SOL    MW4 7471   3.379   0.529   2.965 -0.2086  0.2773 -0.1919
 1857SOL     OW 7472   3.342   0.779   3.096  0.5765  0.4167 -0.7008
 1857SOL    HW2 7473   3.367   0.692   3.065  1.4004  0.5846 -0.4945
 1857SOL    HW3 7474   3.341   0.772   3.191  0.6909  0.6468 -0.6819
 1857SOL    MW4 7475   3.345   0.767   3.104  0.7005  0.4692 -0.6709
 1858SOL     OW 7476   2.913   0.755   3.166  0.1594  0.0582 -0.0081
 1858SOL    HW2 7477   2.897   0.766   3.260  0.7573  0.6062  0.0356
 1858SOL    HW3 7478   2.908   0.661   3.151  0.1174 -0.0359  0.5891
 1858SOL    MW4 7479   2.910   0.744   3.176  0.2329  0.1181  0.0765
 1859SOL     OW 7480   3.103   0.861   2.996  0.7022 -0.0820  0.1573
 1859SOL    HW2 7481   3.187   0.833   3.032  1.0097  2.1121  1.2219
 1859SOL    HW3 7482   3.038   0.826   3.057  0.7352 -2.4097 -1.0593
 1859SOL    MW4 7483   3.106   0.852   3.009  0.7472 -0.0997  0.1371
 1860SOL     OW 7484   3.339   1.223   2.997  0.0300  0.5425  0.1676
 1860SOL    HW2 7485   3.408   1.170   3.037  0.5387  0.6371 -0.5880
 1860SOL    HW3 7486   3.346   1.309   3.039 -0.7289  0.0584  1.3216
 1860SOL    MW4 7487   3.349   1.227   3.008 -0.0029  0.4911  0.2203
 1861SOL     OW 7488   3.358   1.510   3.090 -0.1808  0.1439  0.3049
 1861SOL    HW2 7489   3.378   1.505   3.184  0.8933  0.0303  0.0727
 1861SOL    HW3 7490   3.436   1.549   3.051 -0.2389 -0.6966 -0.6654
 1861SOL    MW4 7491   3.371   1.514   3.097 -0.0467  0.0181  0.1464
 1862SOL     OW 7492   3.127   1.629   3.010  0.3542  0.1898 -0.2259
 1862SOL    HW2 7493   3.150   1.649   2.919 -0.3535 -0.2393 -0.5033
 1862SOL    HW3 7494   3.200   1.576   3.042 -0.0899 -0.9344 -1.0222
 1862SOL    MW4 7495   3.140   1.625   3.002  0.2027 -0.0151 -0.3676
 1863SOL     OW 7496   3.167   1.907   3.089 -0.0080 -0.6134  0.4381
 1863SOL    HW2 7497   3.159   1.814   3.069 -0.7604 -0.3587 -0.4916
 1863SOL    HW3 7498   3.079   1.942   3.073  0.3743  0.3267  0.3930
 1863SOL    MW4 7499   3.154   1.899   3.084 -0.0570 -0.4559  0.3095
 1864SOL     OW 7500   3.398   2.039   2.989  0.4107  0.0376  0.5233
 1864SOL    HW2 7501   3.333   1.978   3.023  1.1521 -0.9469  0.2163
 1864SOL    HW3 7502   3.481   1.990   2.994  0.6984  0.2856 -1.6057
 1864SOL    MW4 7503   3.401   2.024   2.994  0.5467 -0.0594  0.2022
 1865SOL     OW 7504   3.343   2.296   3.136 -0.5440 -0.2533 -0.5161
 1865SOL    HW2 7505   3.362   2.296   3.230  0.2985  0.1741 -0.6803
 1865SOL    HW3 7506   3.364   2.208   3.107  0.2913 -0.0640 -0.5104
 1865SOL    MW4 7507   3.348   2.285   3.145 -0.3226 -0.1721 -0.5369
 1866SOL     OW 7508   3.140   2.430   3.015 -0.1877 -0.0807  0.1731
 1866SOL    HW2 7509   3.212   2.385   3.059  1.2853 -0.3143 -2.4156
 1866SOL    HW3 7510   3.153   2.523   3.037 -0.3417 -0.3371  1.4129
 1866SOL    MW4 7511   3.151   2.437   3.024 -0.0138 -0.1454 -0.0045
 1867SOL     OW 7512   3.196   2.687   3.099 -0.3689  0.3923 -0.1577
 1867SOL    HW2 7513   3.224   2.700   3.190  2.2221  0.2065 -0.9053
 1867SOL    HW3 7514   3.263   2.732   3.047 -0.6346 -1.3977 -2.0761
 1867SOL    MW4 7515   3.208   2.695   3.105 -0.0625  0.1316 -0.5095
 1868SOL     OW 7516   3.400   2.821   2.986 -0.6963 -0.5018 -0.2678
 1868SOL    HW2 7517   3.398   2.902   3.037 -1.5195 -0.1611 -0.8316
 1868SOL    HW3 7518   3.477   2.774   3.017 -0.0590  0.6326 -0.1397
 1868SOL    MW4 7519   3.410   2.825   2.997 -0.7207 -0.3071 -0.3252
 1869SOL     OW 7520   3.388   3.049   3.155  0.2375 -0.5072  0.1665
 1869SOL    HW2 7521   3.401   3.067   3.248 -0.4964 -0.6097  0.2942
 1869SOL    HW3 7522   3.315   3.106   3.130  0.5495 -0.3428 -0.3956
 1869SOL    MW4 7523   3.380   3.059   3.164  0.1817 -0.4992  0.1092
 1870SOL     OW 7524   3.176   3.199   3.052  0.1931 -0.2143 -0.4713
 1870SOL    HW2 7525   3.095   3.160   3.084  0.2284  0.2565  0.2036
 1870SOL    HW3 7526   3.169   3.194   2.957  0.3997 -2.2442 -0.3976
 1870SOL    MW4 7527   3.164   3.193   3.044  0.2251 -0.4201 -0.3726
 1871SOL     OW 7528   3.158   3.467   3.105  0.0848 -0.2170 -0.0722
 1871SOL    HW2 7529   3.235   3.508   3.064 -1.2235  1.3626 -1.0228
 1871SOL    HW3 7530   3.166   3.374   3.083  1.5701 -0.0199 -0.4146
 1871SOL    MW4 7531   3.169   3.460   3.096  0.1082  0.0174 -0.2427
 1872SOL     OW 7532   3.362   3.602   2.986  0.2336 -0.0381 -0.1990
 1872SOL    HW2 7533   3.431   3.560   3.038  0.4457  0.0246 -0.4268
 1872SOL    HW3 7534   3.349   3.687   3.029 -0.1331 -0.2987  0.2068
 1872SOL    MW4 7535   3.370   3.608   2.999  0.2134 -0.0644 -0.1755
 1873SOL     OW 7536   3.369   3.873   3.074 -0.4758  0.1232 -0.6471
 1873SOL    HW2 7537   3.363   3.867   3.169  0.9728  1.2639 -0.4781
 1873SOL    HW3 7538   3.288   3.918   3.047  0.3426  2.1955  0.2901
 1873SOL    MW4 7539   3.357   3.878   3.083 -0.1767  0.5472 -0.5009
 1874SOL     OW 7540   3.132   4.000   2.991 -0.2302  0.2316 -0.2246
 1874SOL    HW2 7541   3.059   3.946   3.023 -0.3674 -0.1459 -1.1474
 1874SOL    HW3 7542   3.130   3.987   2.896  0.3906  1.0483 -0.3459
 1874SOL    MW4 7543   3.122   3.991   2.982 -0.1667  0.2894 -0.3622
 1875SOL     OW 7544   3.138   4.251   3.113  0.3216 -0.1475 -0.4638
 1875SOL    HW2 7545   3.116   4.224   3.202  0.2270 -0.4680 -0.5829
 1875SOL    HW3 7546   3.131   4.170   3.061 -2.3264  0.5362 -1.2525
 1875SOL    MW4 7547   3.134   4.236   3.118 -0.0403 -0.0997 -0.5836
 1876SOL     OW 7548   3.396   4.343   3.028 -0.6084 -0.0695  0.2001
 1876SOL    HW2 7549   3.469   4.286   3.051 -0.4438 -0.1842 -0.6192
 1876SOL    HW3 7550   3.321   4.306   3.075 -0.6615 -1.4178 -0.9316
 1876SOL    MW4 7551   3.396   4.331   3.037 -0.5939 -0.2623 -0.0572
 1877SOL     OW 7552   3.791   4.635   3.143  0.2789  0.2777  0.1493
 1877SOL    HW2 7553   3.798   4.552   3.095 -0.1945  0.5711 -0.4280
 1877SOL    HW3 7554   3.708   4.672   3.114  0.3355  0.8005  0.6587
 1877SOL    MW4 7555   3.781   4.629   3.133  0.2241  0.3853  0.1404
 1878SOL     OW 7556   3.554   0.106   3.013 -0.4154 -0.2447 -0.5874
 1878SOL    HW2 7557   3.555   0.196   3.046  0.4694 -0.4084 -0.1489
 1878SOL    HW3 7558   3.545   0.114   2.919  1.7922  0.3728 -0.7693
 1878SOL    MW4 7559   3.553   0.119   3.005 -0.0079 -0.1849 -0.5538
 1879SOL     OW 7560   3.543   0.368   3.099  0.1130 -0.0220  0.3886
 1879SOL    HW2 7561   3.543   0.371   3.194 -0.3301 -0.5902  0.4075
 1879SOL    HW3 7562   3.631   0.394   3.074  0.7795 -1.6329  1.0049
 1879SOL    MW4 7563   3.554   0.372   3.108  0.1423 -0.3094  0.4725
 1880SOL     OW 7564   3.783   0.468   3.040 -0.3560  0.0371  0.0569
 1880SOL    HW2 7565   3.865   0.436   3.078  0.9626  0.8918 -1.9792
 1880SOL    HW3 7566   3.778   0.560   3.065  0.3948  0.5396 -1.5583
 1880SOL    MW4 7567   3.793   0.476   3.048 -0.0832  0.2162 -0.4249
 1881SOL     OW 7568   3.779   0.722   3.134 -0.4608 -0.4338  0.5062
 1881SOL    HW2 7569   3.784   0.717   3.229  1.4868 -0.3439  0.4254
 1881SOL    HW3 7570   3.855   0.775   3.108 -0.3338 -1.3813 -1.1605
 1881SOL    MW4 7571   3.790   0.728   3.143 -0.1872 -0.5470  0.2756
 1882SOL     OW 7572   3.593   0.851   2.983 -0.2698 -0.1557 -0.5906
 1882SOL    HW2 7573   3.661   0.802   3.029 -0.4396  0.6332  0.5099
 1882SOL    HW3 7574   3.512   0.829   3.028 -0.4703  0.4509 -0.6446
 1882SOL    MW4 7575   3.592   0.842   2.995 -0.3188  0.0284 -0.4528
 1883SOL     OW 7576   3.554   1.096   3.111 -0.4314  0.0012 -0.3360
 1883SOL    HW2 7577   3.622   1.151   3.071 -0.2694  0.4333  0.5059
 1883SOL    HW3 7578   3.561   1.012   3.067 -0.0037  0.3569 -0.9412
 1883SOL    MW4 7579   3.564   1.092   3.100 -0.3533  0.1051 -0.3045
 1884SOL     OW 7580   3.767   1.265   3.023  0.3579  0.2692  0.0633
 1884SOL    HW2 7581   3.777   1.355   3.054  1.0571  0.3098 -0.2833
 1884SOL    HW3 7582   3.788   1.270   2.930 -0.3285 -0.1193 -0.1117
 1884SOL    MW4 7583   3.771   1.278   3.015  0.3598  0.2233 -0.0055
 1885SOL     OW 7584   3.801   1.526   3.069 -0.1960  0.2505  0.3230
 1885SOL    HW2 7585   3.796   1.528   3.165  0.1395 -0.7995  0.3723
 1885SOL    HW3 7586   3.716   1.559   3.040 -0.4096  0.2989  0.9931
 1885SOL    MW4 7587   3.789   1.530   3.078 -0.1800  0.1184  0.4179
 1886SOL     OW 7588   3.557   1.639   2.971 -0.3922 -0.0315  0.0024
 1886SOL    HW2 7589   3.584   1.726   2.999  0.0919 -0.2094  0.1003
 1886SOL    HW3 7590   3.570   1.639   2.876  0.5686 -0.3208  0.1227
 1886SOL    MW4 7591   3.563   1.650   2.962 -0.2015 -0.0930  0.0312
 1887SOL     OW 7592   3.645   1.897   3.063  0.1614 -0.3208  0.6464
 1887SOL    HW2 7593   3.662   1.900   3.157  1.8234 -0.6616  0.3771
 1887SOL    HW3 7594   3.723   1.937   3.024 -0.8100  0.4059 -0.5491
 1887SOL    MW4 7595   3.658   1.903   3.070  0.2525 -0.2700  0.4530
 1888SOL     OW 7596   3.851   2.054   2.950 -0.2106 -0.6840 -0.2028
 1888SOL    HW2 7597   3.829   2.136   2.994  0.9837 -0.4887  0.0418
 1888SOL    HW3 7598   3.824   2.068   2.859  0.6291  0.2348 -0.3083
 1888SOL    MW4 7599   3.844   2.067   2.943  0.0579 -0.5369 -0.1843
 1889SOL     OW 7600   3.779   2.272   3.113  0.0401  0.3304  0.2412
 1889SOL    HW2 7601   3.768   2.311   3.200 -0.9384  0.3286  0.1225
 1889SOL    HW3 7602   3.705   2.305   3.062 -1.3271 -2.3659  0.3898
 1889SOL    MW4 7603   3.768   2.282   3.118 -0.2694 -0.0255  0.2451
 1890SOL     OW 7604   3.569   2.420   3.002 -0.1035  0.1261 -0.0005
 1890SOL    HW2 7605   3.609   2.493   3.050  1.3776 -2.0562  2.1668
 1890SOL    HW3 7606   3.498   2.390   3.059 -1.8262  0.9320 -1.6734
 1890SOL    MW4 7607   3.564   2.426   3.016 -0.1352 -0.0556  0.0646
 1891SOL     OW 7608   3.625   2.677   3.102 -0.1649 -0.3779  0.0837
 1891SOL    HW2 7609   3.698   2.730   3.070  0.8877 -0.9440  1.4848
 1891SOL    HW3 7610   3.625   2.692   3.197 -2.8254  0.7882 -0.0664
 1891SOL    MW4 7611   3.635   2.686   3.111 -0.3769 -0.2985  0.2487
 1892SOL     OW 7612   3.848   2.842   3.004 -0.6266  0.1679 -0.0909
 1892SOL    HW2 7613   3.812   2.921   3.044  2.2948  0.9057  1.1881
 1892SOL    HW3 7614   3.847   2.861   2.910 -0.7018  1.3922  0.1441
 1892SOL    MW4 7615   3.843   2.855   2.997 -0.2513  0.4268  0.1092
 1893SOL     OW 7616   3.784   3.075   3.137 -0.4509 -0.2282 -0.0604
 1893SOL    HW2 7617   3.860   3.105   3.087  1.1036  0.9165  2.8688
 1893SOL    HW3 7618   3.711   3.126   3.102  0.6398  0.7213 -1.0033
 1893SOL    MW4 7619   3.784   3.085   3.126 -0.1020  0.0482  0.2017
 1894SOL     OW 7620   3.588   3.216   3.034 -0.0195 -0.5526  0.5278
 1894SOL    HW2 7621   3.518   3.156   3.060 -2.6780  1.6827 -1.1926
 1894SOL    HW3 7622   3.592   3.207   2.939  0.3079  1.1721  0.3694
 1894SOL    MW4 7623   3.579   3.207   3.025 -0.3271 -0.0303  0.2799
 1895SOL     OW 7624   3.584   3.480   3.086  0.3786 -0.3295  0.0179
 1895SOL    HW2 7625   3.666   3.513   3.050  0.1768  1.2930  0.9913
 1895SOL    HW3 7626   3.588   3.385   3.073  1.7142 -0.0951 -1.3321
 1895SOL    MW4 7627   3.595   3.472   3.080  0.5286 -0.0844 -0.0317
 1896SOL     OW 7628   3.850   3.529   2.974  0.4125 -0.6950 -0.6326
 1896SOL    HW2 7629   3.854   3.613   3.020 -0.9857 -0.6109 -0.6502
 1896SOL    HW3 7630   3.846   3.553   2.881  1.5909 -0.8235 -0.7184
 1896SOL    MW4 7631   3.850   3.543   2.968  0.3834 -0.7010 -0.6466
 1897SOL     OW 7632   3.853   3.768   3.087  0.4667  0.0149 -0.1018
 1897SOL    HW2 7633   3.832   3.783   3.180 -1.3289 -1.4867 -0.2277
 1897SOL    HW3 7634   3.793   3.825   3.040 -0.8172 -1.5162 -0.3821
 1897SOL    MW4 7635   3.842   3.777   3.093  0.0603 -0.3850 -0.1554
 1898SOL     OW 7636   3.648   3.952   3.023  0.1604  0.4966  0.1234
 1898SOL    HW2 7637   3.566   3.911   3.050  0.6087 -0.0401  0.6870
 1898SOL    HW3 7638   3.638   3.967   2.929  0.0699 -1.0793 -0.1215
 1898SOL    MW4 7639   3.635   3.949   3.014  0.2074  0.2179  0.1655
 1899SOL     OW 7640   3.606   4.208   3.149  0.6936  0.6977 -0.0370
 1899SOL    HW2 7641   3.659   4.268   3.097  1.2444  0.1322 -0.1272
 1899SOL    HW3 7642   3.623   4.121   3.112 -1.1524  0.6422 -0.7973
 1899SOL    MW4 7643   3.615   4.204   3.137  0.5226  0.6161 -0.1495
 1900SOL     OW 7644   3.797   4.384   3.021 -0.3976  0.3541 -0.5377
 1900SOL    HW2 7645   3.867   4.323   3.045 -0.8840 -0.5838 -1.4720
 1900SOL    HW3 7646   3.805   4.392   2.926 -0.9226  1.0393 -0.5247
 1900SOL    MW4 7647   3.807   4.377   3.012 -0.5310  0.3209 -0.6590
 1901SOL     OW 7648   4.237   4.639   3.144  0.5006  0.2060  0.3015
 1901SOL    HW2 7649   4.230   4.644   3.240  1.7559 -0.7364  0.4527
 1901SOL    HW3 7650   4.245   4.545   3.126  1.7689  0.4851 -0.6135
 1901SOL    MW4 7651   4.237   4.627   3.154  0.8330  0.1183  0.2007
 1902SOL     OW 7652   4.015   0.092   3.037  0.1772  0.1058  0.0861
 1902SOL    HW2 7653   4.086   0.030   3.053 -1.2637 -1.9233 -1.1921
 1902SOL    HW3 7654   3.941   0.057   3.085 -1.0705 -0.0281 -1.8750
 1902SOL    MW4 7655   4.015   0.079   3.045 -0.1783 -0.1796 -0.3417
 1903SOL     OW 7656   4.039   0.363   3.160  1.0215  0.1901  0.1312
 1903SOL    HW2 7657   4.106   0.415   3.116 -0.3600  1.5971 -0.3603
 1903SOL    HW3 7658   4.048   0.276   3.122  1.1823  0.8903 -1.4818
 1903SOL    MW4 7659   4.049   0.359   3.149  0.8612  0.4681 -0.1464
 1904SOL     OW 7660   4.248   0.506   3.054 -0.4259 -0.2541 -0.2546
 1904SOL    HW2 7661   4.230   0.513   2.960  0.6075 -0.4882 -0.4717
 1904SOL    HW3 7662   4.260   0.597   3.082  0.0505 -0.2366 -0.5077
 1904SOL    MW4 7663   4.247   0.519   3.045 -0.2265 -0.2827 -0.3166
 1905SOL     OW 7664   4.232   0.797   3.132  0.3471  0.6157 -0.0540
 1905SOL    HW2 7665   4.167   0.865   3.121 -0.6089 -0.3469 -0.4235
 1905SOL    HW3 7666   4.310   0.830   3.086 -0.5126  0.9026 -1.3264
 1905SOL    MW4 7667   4.234   0.810   3.124  0.1078  0.5265 -0.2708
 1906SOL     OW 7668   3.970   0.902   3.020  0.0517  0.5046 -0.2404
 1906SOL    HW2 7669   3.980   0.997   3.034 -1.4042  0.6227  0.0747
 1906SOL    HW3 7670   3.984   0.890   2.926  0.6358  0.9712 -0.2212
 1906SOL    MW4 7671   3.973   0.913   3.010 -0.0634  0.5818 -0.1967
 1907SOL     OW 7672   4.024   1.170   3.090 -0.2922  0.3958 -0.0712
 1907SOL    HW2 7673   4.046   1.163   3.183  1.5656  2.3950 -0.3069
 1907SOL    HW3 7674   3.939   1.215   3.089 -1.0328 -0.9505  0.6715
 1907SOL    MW4 7675   4.015   1.175   3.102 -0.1445  0.4818 -0.0043
 1908SOL     OW 7676   4.269   1.239   2.987  0.0310  0.4181 -0.1223
 1908SOL    HW2 7677   4.181   1.217   3.014 -0.2843 -0.0805 -1.5325
 1908SOL    HW3 7678   4.260   1.271   2.897  1.5124 -1.4011 -0.9515
 1908SOL    MW4 7679   4.256   1.241   2.979  0.1850  0.1122 -0.4179
 1909SOL     OW 7680   4.231   1.523   3.090 -0.1863 -0.6390  0.0740
 1909SOL    HW2 7681   4.168   1.554   3.025  0.3632 -2.0926 -1.1651
 1909SOL    HW3 7682   4.232   1.428   3.080  1.1953 -0.7390  1.0243
 1909SOL    MW4 7683   4.223   1.515   3.080  0.0687 -0.8440  0.0360
 1910SOL     OW 7684   4.040   1.667   2.945  0.5360 -0.5604 -0.2263
 1910SOL    HW2 7685   4.065   1.739   3.003  0.0840 -0.1587 -0.5143
 1910SOL    HW3 7686   3.960   1.632   2.983 -0.4637  0.5238 -1.2747
 1910SOL    MW4 7687   4.033   1.672   2.957  0.3443 -0.3644 -0.4027
 1911SOL     OW 7688   4.076   1.918   3.083  0.1785 -0.3944  0.0776
 1911SOL    HW2 7689   4.147   1.955   3.031  0.8647 -1.6440  0.1092
 1911SOL    HW3 7690   3.997   1.938   3.033  0.5593  0.8482 -0.0395
 1911SOL    MW4 7691   4.075   1.925   3.070  0.3195 -0.3953  0.0663
 1912SOL     OW 7692   4.301   2.030   2.931 -0.0030  0.0545  0.1629
 1912SOL    HW2 7693   4.281   2.119   2.959  2.2761  1.1128 -1.4284
 1912SOL    HW3 7694   4.288   2.030   2.837  1.4849 -0.8431 -0.0676
 1912SOL    MW4 7695   4.297   2.042   2.923  0.4945  0.0758 -0.0772
 1913SOL     OW 7696   4.242   2.275   3.051  0.3724  0.0612  0.2391
 1913SOL    HW2 7697   4.165   2.326   3.026  0.7813  0.0543 -1.1255
 1913SOL    HW3 7698   4.316   2.333   3.031  0.7682 -0.4057  0.3396
 1913SOL    MW4 7699   4.242   2.289   3.045  0.4787 -0.0017  0.0722
 1914SOL     OW 7700   3.990   2.408   2.985  0.1476  0.9317 -0.2182
 1914SOL    HW2 7701   4.017   2.478   3.045  0.9936 -0.5545  1.1847
 1914SOL    HW3 7702   3.930   2.354   3.038 -0.3711  0.5093 -1.2346
 1914SOL    MW4 7703   3.986   2.410   3.000  0.1910  0.6800 -0.1669
 1915SOL     OW 7704   4.059   2.665   3.097 -0.1811 -0.3715  0.2778
 1915SOL    HW2 7705   4.071   2.687   3.189  0.6719 -0.7537  0.2562
 1915SOL    HW3 7706   3.977   2.709   3.073 -0.5687 -0.5197  1.2912
 1915SOL    MW4 7707   4.050   2.674   3.106 -0.1192 -0.4416  0.4084
 1916SOL     OW 7708   4.250   2.833   3.015 -0.1441 -0.3619 -0.0157
 1916SOL    HW2 7709   4.181   2.770   3.033  0.3049 -0.6973  0.5555
 1916SOL    HW3 7710   4.329   2.793   3.051 -0.0259  0.9848  1.2844
 1916SOL    MW4 7711   4.252   2.819   3.022 -0.0696 -0.2282  0.2313
 1917SOL     OW 7712   4.261   3.099   3.072 -0.5497 -0.2282  0.0142
 1917SOL    HW2 7713   4.181   3.134   3.032  0.4008  1.0555 -0.8186
 1917SOL    HW3 7714   4.262   3.007   3.048 -0.4348  0.3430 -2.2326
 1917SOL    MW4 7715   4.250   3.092   3.064 -0.4086  0.0165 -0.3920
 1918SOL     OW 7716   4.015   3.195   2.999  0.8064  0.0595  0.3214
 1918SOL    HW2 7717   4.039   3.283   3.027  0.2647  0.1277  0.5792
 1918SOL    HW3 7718   4.020   3.198   2.903  2.5108 -0.1337  0.3948
 1918SOL    MW4 7719   4.019   3.207   2.990  0.9603  0.0432  0.3650
 1919SOL     OW 7720   4.092   3.429   3.103  0.0341 -0.3144  0.4286
 1919SOL    HW2 7721   4.104   3.438   3.198 -1.6329 -0.6737  0.7002
 1919SOL    HW3 7722   4.007   3.469   3.086 -0.6091 -2.0367 -0.5990
 1919SOL    MW4 7723   4.082   3.435   3.113 -0.2704 -0.5889  0.3288
 1920SOL     OW 7724   4.253   3.606   2.972 -0.2369  0.0076  0.0755
 1920SOL    HW2 7725   4.241   3.680   3.032  1.9802 -0.5508  1.2672
 1920SOL    HW3 7726   4.197   3.537   3.008  2.0029 -0.7266  2.2701
 1920SOL    MW4 7727   4.244   3.607   2.985  0.3514 -0.1633  0.5224
 1921SOL     OW 7728   4.239   3.833   3.108 -0.3563  0.0025 -0.1554
 1921SOL    HW2 7729   4.175   3.873   3.049 -0.6342  1.1652  0.9060
 1921SOL    HW3 7730   4.323   3.868   3.080 -0.3444 -0.3980 -0.6290
 1921SOL    MW4 7731   4.242   3.843   3.097 -0.3915  0.1030 -0.0777
 1922SOL     OW 7732   4.040   3.940   2.964  0.2668  0.1200 -0.1900
 1922SOL    HW2 7733   4.005   4.022   2.999  0.9727  0.1195  0.5317
 1922SOL    HW3 7734   3.976   3.874   2.989  0.0020  0.3548 -0.2380
 1922SOL    MW4 7735   4.027   3.942   2.972  0.3247  0.1512 -0.1011
 1923SOL     OW 7736   3.995   4.196   3.081 -0.0103 -0.6773 -0.2949
 1923SOL    HW2 7737   3.991   4.149   3.165 -1.8988  0.2531  0.1608
 1923SOL    HW3 7738   4.081   4.238   3.081  0.4280 -1.5322  0.6989
 1923SOL    MW4 7739   4.006   4.195   3.092 -0.2017 -0.6676 -0.1037
 1924SOL     OW 7740   4.235   4.345   3.077 -0.3193  0.2012  0.3779
 1924SOL    HW2 7741   4.322   4.308   3.093 -0.5279  0.0240  1.1103
 1924SOL    HW3 7742   4.224   4.339   2.982  0.2339 -0.3138  0.3403
 1924SOL    MW4 7743   4.245   4.339   3.067 -0.2742  0.1101  0.4694
 1925SOL     OW 7744   0.226   4.656   3.379 -0.1869  0.4830 -0.3759
 1925SOL    HW2 7745   0.309   4.697   3.402 -0.4673  1.2977 -0.7671
 1925SOL    HW3 7746   0.238   4.564   3.399  1.1720  0.4210 -1.4549
 1925SOL    MW4 7747   0.238   4.650   3.385 -0.0446  0.5822 -0.5701
 1926SOL     OW 7748   4.482   0.116   3.511  0.3831  0.4429 -0.7501
 1926SOL    HW2 7749   4.487   0.194   3.456 -1.1536  1.0391 -0.0916
 1926SOL    HW3 7750   4.554   0.061   3.481  1.5823  2.1606 -1.1420
 1926SOL    MW4 7751   4.492   0.119   3.500  0.3386  0.7482 -0.7148
 1927SOL     OW 7752   4.477   0.384   3.416 -0.0367  0.5593 -0.0629
 1927SOL    HW2 7753   4.409   0.431   3.464 -0.8867 -1.4706  0.8114
 1927SOL    HW3 7754   4.558   0.429   3.439 -0.6319  0.6115  2.0327
 1927SOL    MW4 7755   4.479   0.396   3.425 -0.2275  0.2984  0.3290
 1928SOL     OW 7756   0.218   0.517   3.485 -0.3191 -0.2769 -0.1726
 1928SOL    HW2 7757   0.297   0.472   3.454 -0.0588  0.6445 -0.8772
 1928SOL    HW3 7758   0.212   0.595   3.429  0.4269  1.7118  2.4146
 1928SOL    MW4 7759   0.228   0.521   3.473 -0.1864  0.1070  0.0753
 1929SOL     OW 7760   0.173   0.751   3.340  0.1144  0.1545  0.1691
 1929SOL    HW2 7761   0.250   0.798   3.371  0.1248  0.3435 -0.1366
 1929SOL    HW3 7762   0.099   0.800   3.376  0.1252  0.4003 -0.1390
 1929SOL    MW4 7763   0.174   0.764   3.349  0.1172  0.2118  0.0880
 1930SOL     OW 7764   0.233   0.824   3.834 -0.4405  0.1287 -0.2037
 1930SOL    HW2 7765   0.268   0.811   3.923 -0.9122 -0.1703 -0.0636
 1930SOL    HW3 7766   0.309   0.854   3.784  0.1106 -0.8728  0.0158
 1930SOL    MW4 7767   0.248   0.827   3.839 -0.4300 -0.0429 -0.1564
 1931SOL     OW 7768   0.021   1.150   3.355  0.4575 -0.1430  0.0615
 1931SOL    HW2 7769   0.095   1.179   3.408  1.1285 -1.2522 -0.2459
 1931SOL    HW3 7770   0.049   1.163   3.265  0.1931 -0.3498 -0.0524
 1931SOL    MW4 7771   0.034   1.156   3.350  0.5112 -0.3166  0.0060
 1932SOL     OW 7772   0.224   1.287   3.484  0.2388 -0.0077  0.2589
 1932SOL    HW2 7773   0.241   1.374   3.447  0.4150  0.3290  1.1301
 1932SOL    HW3 7774   0.299   1.234   3.455  1.3274  0.7342  1.6584
 1932SOL    MW4 7775   0.236   1.292   3.475  0.4056  0.1346  0.5584
 1933SOL     OW 7776   0.256   1.533   3.351 -0.3460 -0.0942  0.1086
 1933SOL    HW2 7777   0.339   1.573   3.380 -0.2327  0.9390 -1.5798
 1933SOL    HW3 7778   0.267   1.521   3.257 -1.8299 -0.6762  0.0029
 1933SOL    MW4 7779   0.269   1.537   3.342 -0.5268 -0.0346 -0.1280
 1934SOL     OW 7780   0.010   1.651   3.403 -0.2623 -0.4634 -0.0688
 1934SOL    HW2 7781  -0.061   1.587   3.395 -1.0866  0.2838  1.0641
 1934SOL    HW3 7782   0.088   1.603   3.376 -0.9267 -1.8397  0.3820
 1934SOL    MW4 7783   0.011   1.636   3.399 -0.4587 -0.5463  0.1402
 1935SOL     OW 7784   4.484   1.915   3.327 -0.0422 -0.0107 -0.3401
 1935SOL    HW2 7785   4.502   1.829   3.364  1.0969  0.7410  0.9247
 1935SOL    HW3 7786   4.499   1.905   3.233  2.9883 -0.5046  0.1398
 1935SOL    MW4 7787   4.489   1.902   3.320  0.5083  0.0232 -0.1099
 1936SOL     OW 7788   0.213   2.051   3.424 -0.3678 -0.4773  0.4841
 1936SOL    HW2 7789   0.136   2.004   3.392 -0.3371 -1.3635  1.6897
 1936SOL    HW3 7790   0.204   2.050   3.519  0.2882  0.8682  0.5758
 1936SOL    MW4 7791   0.202   2.045   3.432 -0.2772 -0.4168  0.6554
 1937SOL     OW 7792   0.232   2.327   3.360  0.3107  0.7075  0.2148
 1937SOL    HW2 7793   0.144   2.363   3.362  0.1837  0.4449 -0.5653
 1937SOL    HW3 7794   0.223   2.239   3.396 -0.0153  0.1263 -1.2511
 1937SOL    MW4 7795   0.219   2.320   3.365  0.2509  0.5965 -0.0815
 1938SOL     OW 7796   4.470   2.408   3.417 -0.1405  0.1175  0.1789
 1938SOL    HW2 7797   4.473   2.399   3.512 -0.7991  0.7026  0.2560
 1938SOL    HW3 7798   4.389   2.364   3.391 -0.1338  0.2527 -0.0763
 1938SOL    MW4 7799   4.460   2.401   3.426 -0.2265  0.2124  0.1554
 1939SOL     OW 7800   4.477   2.682   3.361 -0.0998 -0.5156 -0.6113
 1939SOL    HW2 7801   4.555   2.720   3.400 -0.6665 -0.1556  0.1937
 1939SOL    HW3 7802   4.475   2.592   3.395 -0.6674 -0.1597  0.3133
 1939SOL    MW4 7803   4.487   2.675   3.371 -0.2499 -0.4208 -0.3831
 1940SOL     OW 7804   0.215   2.818   3.466  0.1473 -0.1930  0.7416
 1940SOL    HW2 7805   0.290   2.784   3.417  0.4539  0.2460  0.9048
 1940SOL    HW3 7806   0.214   2.912   3.446 -0.1358 -0.1334  1.0361
 1940SOL    MW4 7807   0.225   2.826   3.457  0.1504 -0.1273  0.8018
 1941SOL     OW 7808   0.219   3.080   3.350  0.1239 -0.3043 -0.6280
 1941SOL    HW2 7809   0.154   3.133   3.397  1.4801  0.4489  0.4463
 1941SOL    HW3 7810   0.195   3.087   3.258 -3.1282 -2.5033 -0.0165
 1941SOL    MW4 7811   0.207   3.088   3.344 -0.1263 -0.4950 -0.4055
 1942SOL     OW 7812   0.026   3.219   3.491 -0.1252  0.0276 -0.3203
 1942SOL    HW2 7813  -0.050   3.177   3.451 -0.4471  1.4163 -1.2148
 1942SOL    HW3 7814   0.026   3.308   3.454 -0.4576  1.3647  2.7695
 1942SOL    MW4 7815   0.016   3.225   3.481 -0.2114  0.3874 -0.0305
 1943SOL     OW 7816   0.007   3.498   3.393 -0.3583 -0.1090  0.0001
 1943SOL    HW2 7817  -0.079   3.526   3.426  0.4480  1.3400  0.9570
 1943SOL    HW3 7818  -0.001   3.501   3.298 -0.9924  1.2586  0.0895
 1943SOL    MW4 7819  -0.005   3.502   3.385 -0.3355  0.2627  0.1383
 1944SOL     OW 7820   0.254   3.605   3.473 -0.0383  0.1632  0.2123
 1944SOL    HW2 7821   0.246   3.614   3.568 -0.7113 -1.3585  0.3218
 1944SOL    HW3 7822   0.176   3.557   3.447  0.2392  0.4007 -1.0846
 1944SOL    MW4 7823   0.243   3.600   3.482 -0.0905 -0.0064  0.0558
 1945SOL     OW 7824   0.219   3.905   3.412 -0.2619 -0.3553  0.1851
 1945SOL    HW2 7825   0.146   3.947   3.458 -1.0375  0.4316 -1.7018
 1945SOL    HW3 7826   0.197   3.812   3.412 -1.6544 -0.0577 -0.9677
 1945SOL    MW4 7827   0.206   3.898   3.418 -0.5479 -0.2122 -0.2162
 1946SOL     OW 7828   4.466   4.021   3.490 -0.1745 -0.0146 -0.3053
 1946SOL    HW2 7829   4.496   4.045   3.578 -0.8950  1.4139 -0.4304
 1946SOL    HW3 7830   4.450   4.105   3.447 -0.5085 -0.7184 -1.5685
 1946SOL    MW4 7831   4.468   4.035   3.496 -0.3142  0.0806 -0.4885
 1947SOL     OW 7832   4.449   4.266   3.392  0.1419 -0.1542 -0.4671
 1947SOL    HW2 7833   4.387   4.303   3.455 -0.3147 -0.9143 -0.4594
 1947SOL    HW3 7834   4.534   4.300   3.419 -0.3789  1.6050 -1.0065
 1947SOL    MW4 7835   4.452   4.275   3.404  0.0129 -0.0224 -0.5374
 1948SOL     OW 7836   0.220   4.358   3.452  0.4794 -0.4203 -0.0104
 1948SOL    HW2 7837   0.227   4.354   3.548  1.2386  0.4823 -0.0169
 1948SOL    HW3 7838   0.288   4.299   3.421  1.4140  0.6194  0.0072
 1948SOL    MW4 7839   0.230   4.350   3.461  0.7029 -0.1640 -0.0091
 1949SOL     OW 7840   0.689   4.653   3.367  0.1431  0.0003  0.4449
 1949SOL    HW2 7841   0.776   4.680   3.398  0.6269 -0.5378 -0.4299
 1949SOL    HW3 7842   0.685   4.685   3.277 -1.1372  1.2898  0.9330
 1949SOL    MW4 7843   0.700   4.661   3.359  0.0380  0.0987  0.3939
 1950SOL     OW 7844   0.457   0.127   3.430  0.1472  0.0645 -0.0280
 1950SOL    HW2 7845   0.440   0.133   3.524 -2.0352 -0.9921 -0.3142
 1950SOL    HW3 7846   0.537   0.076   3.423  1.1948  1.4907  1.2960
 1950SOL    MW4 7847   0.465   0.121   3.441 -0.0025  0.1133  0.1090
 1951SOL     OW 7848   0.447   0.408   3.359  0.1274 -0.3659  0.0110
 1951SOL    HW2 7849   0.536   0.440   3.375 -0.3408  0.6217  0.7660
 1951SOL    HW3 7850   0.449   0.317   3.387  0.8648 -0.2972  0.1987
 1951SOL    MW4 7851   0.459   0.400   3.365  0.1630 -0.2265  0.1357
 1952SOL     OW 7852   0.695   0.499   3.422  0.4481  0.1043 -0.4734
 1952SOL    HW2 7853   0.678   0.518   3.515  1.5576  0.4955 -0.3443
 1952SOL    HW3 7854   0.783   0.462   3.421  0.3427 -0.1260 -1.3488
 1952SOL    MW4 7855   0.704   0.497   3.434  0.5806  0.1255 -0.5720
 1953SOL     OW 7856   0.672   0.773   3.343 -0.1275 -0.6667 -0.4285
 1953SOL    HW2 7857   0.586   0.785   3.384  0.5335 -0.6718  0.9944
 1953SOL    HW3 7858   0.691   0.680   3.355  0.6871 -0.3905  0.5225
 1953SOL    MW4 7859   0.663   0.762   3.350  0.0672 -0.6309 -0.1152
 1954SOL     OW 7860   0.417   0.865   3.421  0.1500  0.2030 -0.0772
 1954SOL    HW2 7861   0.426   0.865   3.516  1.4365 -0.5419 -0.1787
 1954SOL    HW3 7862   0.415   0.957   3.396  1.1258  0.3992  0.5668
 1954SOL    MW4 7863   0.418   0.877   3.430  0.4485  0.1305 -0.0060
 1955SOL     OW 7864   0.433   1.145   3.364  0.6648  0.6442  0.0577
 1955SOL    HW2 7865   0.516   1.186   3.385  1.0114 -0.0501  0.0464
 1955SOL    HW3 7866   0.434   1.135   3.269  0.5198  0.7308  0.0454
 1955SOL    MW4 7867   0.444   1.149   3.354  0.6914  0.5642  0.0544
 1956SOL     OW 7868   0.663   1.269   3.472  0.2642  0.5359  0.2527
 1956SOL    HW2 7869   0.662   1.347   3.417 -1.4287  0.1887 -0.2416
 1956SOL    HW3 7870   0.736   1.217   3.439 -0.3390  0.6297 -1.2560
 1956SOL    MW4 7871   0.672   1.273   3.461 -0.0387  0.5025 -0.0117
 1957SOL     OW 7872   0.728   1.536   3.364 -0.3132 -0.2661 -0.3070
 1957SOL    HW2 7873   0.791   1.604   3.386 -0.2781 -0.4250  0.0883
 1957SOL    HW3 7874   0.645   1.567   3.399 -0.4562 -0.0655 -0.8118
 1957SOL    MW4 7875   0.726   1.549   3.371 -0.3274 -0.2606 -0.3216
 1958SOL     OW 7876   0.490   1.665   3.474 -0.0913  0.2558 -0.4928
 1958SOL    HW2 7877   0.456   1.650   3.562  1.1582  0.1022 -0.0313
 1958SOL    HW3 7878   0.476   1.759   3.459 -0.0150  0.3476 -0.0019
 1958SOL    MW4 7879   0.484   1.675   3.483  0.0837  0.2477 -0.3672
 1959SOL     OW 7880   0.453   1.935   3.371 -0.2125 -0.1674 -0.0589
 1959SOL    HW2 7881   0.455   1.953   3.277  1.2088  0.1939  0.0273
 1959SOL    HW3 7882   0.375   1.981   3.402  1.3159  2.8419 -0.4685
 1959SOL    MW4 7883   0.443   1.944   3.362  0.1767  0.2774 -0.1013
 1960SOL     OW 7884   0.318   2.137   4.190  0.1815 -0.7500  0.4623
 1960SOL    HW2 7885   0.261   2.140   4.267 -1.0251  0.2158 -0.4469
 1960SOL    HW3 7886   0.267   2.090   4.124 -0.2217  1.4668 -0.8614
 1960SOL    MW4 7887   0.304   2.131   4.191 -0.0309 -0.3300  0.1669
 1961SOL     OW 7888   0.671   2.048   3.490 -0.3992  0.2839  0.0626
 1961SOL    HW2 7889   0.662   2.054   3.585  0.2648 -0.6213  0.1954
 1961SOL    HW3 7890   0.592   2.002   3.462  0.9544 -2.5279  0.5858
 1961SOL    MW4 7891   0.659   2.043   3.499 -0.1330 -0.2065  0.1495
 1962SOL     OW 7892   0.497   2.472   3.423  0.3062  0.3665 -0.2838
 1962SOL    HW2 7893   0.422   2.414   3.419  0.0213  0.6897  0.3966
 1962SOL    HW3 7894   0.570   2.420   3.388 -0.1589 -0.0482 -0.6412
 1962SOL    MW4 7895   0.497   2.458   3.418  0.2072  0.3543 -0.2413
 1963SOL     OW 7896   0.459   2.727   3.064  0.0006  0.0802  0.4435
 1963SOL    HW2 7897   0.455   2.639   3.025 -0.6335 -0.3367  1.4454
 1963SOL    HW3 7898   0.545   2.760   3.038  0.0460 -0.6361 -0.3596
 1963SOL    MW4 7899   0.470   2.720   3.055 -0.0771 -0.0691  0.4697
 1964SOL     OW 7900   0.472   2.735   3.352  0.0065  0.6868 -0.2435
 1964SOL    HW2 7901   0.482   2.642   3.371 -1.2457  0.5967  0.0089
 1964SOL    HW3 7902   0.481   2.740   3.257  1.3433  0.4839 -0.1352
 1964SOL    MW4 7903   0.475   2.723   3.342  0.0176  0.6480 -0.1962
 1965SOL     OW 7904   0.699   3.142   3.386  0.2441  0.6868  0.0864
 1965SOL    HW2 7905   0.615   3.178   3.415 -0.2369  0.6482 -1.2370
 1965SOL    HW3 7906   0.700   3.053   3.420 -1.1888 -0.0238 -1.6998
 1965SOL    MW4 7907   0.688   3.135   3.395 -0.0083  0.5879 -0.3238
 1966SOL     OW 7908   0.446   3.233   3.463 -0.2441 -0.6794  0.4036
 1966SOL    HW2 7909   0.409   3.239   3.551 -0.0442 -1.2308  0.5271
 1966SOL    HW3 7910   0.388   3.172   3.417  0.2827 -1.2424  0.4803
 1966SOL    MW4 7911   0.433   3.226   3.469 -0.1481 -0.8266  0.4299
 1967SOL     OW 7912   0.499   3.516   3.384 -1.0046 -0.1743 -0.0211
 1967SOL    HW2 7913   0.496   3.421   3.397 -0.2274  0.0256  1.7584
 1967SOL    HW3 7914   0.411   3.546   3.406 -1.7775 -0.6441 -2.2690
 1967SOL    MW4 7915   0.487   3.507   3.389 -1.0040 -0.2098 -0.0827
 1968SOL     OW 7916   0.701   3.664   3.517 -0.0202  0.4176 -0.0579
 1968SOL    HW2 7917   0.770   3.599   3.508  1.0740  1.5849 -0.2561
 1968SOL    HW3 7918   0.624   3.623   3.476  0.5896 -0.8108  0.0008
 1968SOL    MW4 7919   0.700   3.650   3.510  0.2046  0.4094 -0.0763
 1969SOL     OW 7920   0.716   3.894   3.376 -0.4203  0.3855 -0.1250
 1969SOL    HW2 7921   0.645   3.948   3.411  0.2623  0.6556  0.8639
 1969SOL    HW3 7922   0.714   3.814   3.429 -0.4106  0.1076 -0.5379
 1969SOL    MW4 7923   0.706   3.890   3.388 -0.3290  0.3843 -0.0491
 1970SOL     OW 7924   0.480   4.010   3.503  0.2953 -0.0118  0.2146
 1970SOL    HW2 7925   0.470   4.091   3.453 -2.2861  0.3621  1.2404
 1970SOL    HW3 7926   0.399   3.961   3.486  1.4060 -1.9608  0.3630
 1970SOL    MW4 7927   0.468   4.014   3.494  0.1013 -0.2193  0.3693
 1971SOL     OW 7928   0.438   4.237   3.366 -0.4340 -0.3618 -0.1225
 1971SOL    HW2 7929   0.501   4.292   3.411 -0.8661 -0.4351  0.5815
 1971SOL    HW3 7930   0.460   4.246   3.273  0.6311 -0.4264  0.1168
 1971SOL    MW4 7931   0.449   4.245   3.359 -0.3505 -0.3800  0.0019
 1972SOL     OW 7932   0.648   4.377   3.474 -0.2421  0.3250 -0.2164
 1972SOL    HW2 7933   0.722   4.322   3.449 -2.1259 -1.4758 -1.9215
 1972SOL    HW3 7934   0.661   4.459   3.425  0.3997 -0.1426 -0.8244
 1972SOL    MW4 7935   0.659   4.381   3.465 -0.4060  0.0253 -0.5219
 1973SOL     OW 7936   1.149   4.440   3.777 -0.0761  0.1440 -0.5231
 1973SOL    HW2 7937   1.149   4.406   3.687 -1.4262  1.0455 -0.8799
 1973SOL    HW3 7938   1.226   4.401   3.817 -0.5362 -1.8490 -1.4915
 1973SOL    MW4 7939   1.159   4.430   3.770 -0.3150  0.0000 -0.6979
 1974SOL     OW 7940   1.129   4.637   3.403  0.0327  0.4081  0.1435
 1974SOL    HW2 7941   1.208   4.683   3.431  0.2679 -0.5902  1.1352
 1974SOL    HW3 7942   1.135   4.633   3.308  0.7515  1.0920  0.1583
 1974SOL    MW4 7943   1.140   4.643   3.394  0.1584  0.3667  0.2763
 1975SOL     OW 7944   0.912   0.108   3.477  0.3459  0.0381 -0.0069
 1975SOL    HW2 7945   0.916   0.123   3.572  1.0801  1.5034 -0.2494
 1975SOL    HW3 7946   0.996   0.068   3.456  0.4172  0.2438 -0.1182
 1975SOL    MW4 7947   0.924   0.105   3.487  0.4521  0.2586 -0.0536
 1976SOL     OW 7948   1.141   0.520   3.496  0.3483 -0.0967  0.3595
 1976SOL    HW2 7949   1.152   0.529   3.591  0.8802  2.0675  0.1008
 1976SOL    HW3 7950   1.133   0.609   3.463 -4.7792 -0.9369 -1.1020
 1976SOL    MW4 7951   1.142   0.533   3.504 -0.2580  0.0780  0.1323
 1977SOL     OW 7952   0.939   0.372   3.395 -0.1723  0.1119 -0.0263
 1977SOL    HW2 7953   1.024   0.404   3.424  0.3409 -1.0513 -0.2336
 1977SOL    HW3 7954   0.938   0.279   3.419 -1.2548  0.0431 -0.3010
 1977SOL    MW4 7955   0.950   0.364   3.402 -0.2474 -0.0507 -0.0896
 1978SOL     OW 7956   1.150   0.774   3.404 -0.5213  0.5238  0.4016
 1978SOL    HW2 7957   1.229   0.814   3.440  0.0703 -0.1295 -0.1428
 1978SOL    HW3 7958   1.078   0.827   3.437  0.3471  3.1617 -1.8086
 1978SOL    MW4 7959   1.151   0.786   3.413 -0.3288  0.7856  0.0384
 1979SOL     OW 7960   0.873   1.139   3.355 -0.0513  0.0167 -0.0723
 1979SOL    HW2 7961   0.951   1.171   3.401  0.8001 -2.0965  0.0302
 1979SOL    HW3 7962   0.891   1.158   3.263  0.2638  0.2193  0.0284
 1979SOL    MW4 7963   0.886   1.146   3.349  0.1026 -0.2353 -0.0455
 1980SOL     OW 7964   1.090   1.289   3.451  0.3730  0.0653  0.5407
 1980SOL    HW2 7965   1.105   1.292   3.546  1.7680 -1.0804  0.3668
 1980SOL    HW3 7966   1.090   1.381   3.425  0.3556  0.3793  1.5927
 1980SOL    MW4 7967   1.092   1.302   3.460  0.5548 -0.0443  0.6566
 1981SOL     OW 7968   1.119   1.568   3.370 -0.3615  0.1037  0.1095
 1981SOL    HW2 7969   1.191   1.619   3.407 -2.6869  3.0341  0.7783
 1981SOL    HW3 7970   1.147   1.550   3.280  1.0396  1.5776  0.2185
 1981SOL    MW4 7971   1.133   1.573   3.363 -0.4834  0.6849  0.2122
 1982SOL     OW 7972   0.915   1.725   3.446 -0.2462 -0.0141  0.0676
 1982SOL    HW2 7973   0.989   1.667   3.429 -1.6461 -1.4920 -1.2145
 1982SOL    HW3 7974   0.910   1.781   3.368  0.4427  1.1423  0.8309
 1982SOL    MW4 7975   0.924   1.725   3.433 -0.3400 -0.0564 -0.0005
 1983SOL     OW 7976   0.896   1.958   3.305 -0.0377 -0.1757 -0.2286
 1983SOL    HW2 7977   0.979   1.979   3.349 -0.1342 -0.7448  0.2319
 1983SOL    HW3 7978   0.829   1.984   3.368 -0.1714 -1.2679  0.0978
 1983SOL    MW4 7979   0.898   1.964   3.319 -0.0681 -0.3949 -0.1247
 1984SOL     OW 7980   1.136   2.044   3.407  0.1025 -0.0566 -0.2844
 1984SOL    HW2 7981   1.222   2.012   3.378 -0.3374  0.3096 -2.0438
 1984SOL    HW3 7982   1.134   2.135   3.379 -0.0914  0.5060  1.5205
 1984SOL    MW4 7983   1.147   2.052   3.399  0.0190  0.0658 -0.2782
 1985SOL     OW 7984   1.118   2.336   3.348 -0.3367  0.4820 -0.3502
 1985SOL    HW2 7985   1.199   2.381   3.371  0.6397 -1.4849  0.1774
 1985SOL    HW3 7986   1.113   2.342   3.253  0.8265 -0.0248 -0.4520
 1985SOL    MW4 7987   1.128   2.343   3.339 -0.0544  0.1554 -0.2940
 1986SOL     OW 7988   0.900   2.450   3.464 -0.2405 -0.5987 -0.1664
 1986SOL    HW2 7989   0.899   2.452   3.560 -0.9070 -1.2242 -0.1505
 1986SOL    HW3 7990   0.986   2.417   3.441  0.1030  0.0321  0.2055
 1986SOL    MW4 7991   0.911   2.446   3.474 -0.2831 -0.5977 -0.1149
 1987SOL     OW 7992   0.870   2.691   3.334  0.3763  0.2606 -0.7641
 1987SOL    HW2 7993   0.953   2.730   3.363 -0.5901  2.4210 -0.8057
 1987SOL    HW3 7994   0.872   2.602   3.369  2.0980  0.7468  0.4500
 1987SOL    MW4 7995   0.881   2.685   3.342  0.4759  0.6099 -0.6094
 1988SOL     OW 7996   2.082   1.016   3.773 -0.2339  0.0947  0.4539
 1988SOL    HW2 7997   2.043   1.103   3.779 -0.3340  0.1917 -1.3534
 1988SOL    HW3 7998   2.008   0.956   3.766 -0.1262 -0.0005  0.1192
 1988SOL    MW4 7999   2.067   1.019   3.773 -0.2329  0.0948  0.1712
 1989SOL     OW 8000   1.076   2.828   3.447  0.2098 -0.2433 -0.3072
 1989SOL    HW2 8001   1.059   2.800   3.537  1.2333 -1.3125 -0.4437
 1989SOL    HW3 8002   1.165   2.798   3.428  0.2665  0.5894 -1.4450
 1989SOL    MW4 8003   1.085   2.821   3.456  0.3524 -0.2747 -0.4756
 1990SOL     OW 8004   1.134   3.094   3.364 -0.1511 -0.0882 -0.0062
 1990SOL    HW2 8005   1.104   3.005   3.383 -0.0982 -0.0135  0.4309
 1990SOL    HW3 8006   1.131   3.100   3.268  1.0929 -0.9973 -0.1270
 1990SOL    MW4 8007   1.130   3.083   3.353  0.0199 -0.1981  0.0355
 1991SOL     OW 8008   0.950   3.523   3.443  0.3696  0.5416 -0.1008
 1991SOL    HW2 8009   0.944   3.523   3.348 -1.2337 -0.3492 -0.0124
 1991SOL    HW3 8010   0.973   3.432   3.465  1.2558  0.8602  0.3469
 1991SOL    MW4 8011   0.953   3.511   3.434  0.2751  0.4663 -0.0300
 1992SOL     OW 8012   1.163   3.649   3.534 -0.4170 -0.3443  0.0086
 1992SOL    HW2 8013   1.137   3.668   3.624 -1.0260 -1.2822  0.0397
 1992SOL    HW3 8014   1.084   3.614   3.493 -0.1618  0.1418 -0.9077
 1992SOL    MW4 8015   1.149   3.647   3.540 -0.4636 -0.4039 -0.1082
 1993SOL     OW 8016   1.172   3.916   3.435  0.3460  0.6492 -0.7542
 1993SOL    HW2 8017   1.242   3.957   3.486 -0.8966  0.7092  0.9221
 1993SOL    HW3 8018   1.177   3.823   3.457 -0.3297  0.7048 -0.3483
 1993SOL    MW4 8019   1.182   3.909   3.445  0.0930  0.6645 -0.4795
 1994SOL     OW 8020   0.932   3.998   3.520  0.1733  0.1391  0.0221
 1994SOL    HW2 8021   1.012   3.957   3.487 -0.9442 -1.6680 -0.4746
 1994SOL    HW3 8022   0.863   3.965   3.463 -1.1993  0.2278  1.6039
 1994SOL    MW4 8023   0.934   3.988   3.508 -0.1553 -0.0875  0.1655
 1995SOL     OW 8024   0.893   4.267   3.411  0.6783  0.0315  0.0774
 1995SOL    HW2 8025   0.908   4.174   3.424  1.2916  0.0143 -0.7157
 1995SOL    HW3 8026   0.907   4.281   3.317 -1.1911  0.5961 -0.1417
 1995SOL    MW4 8027   0.897   4.257   3.400  0.5127  0.1035 -0.0560
 1996SOL     OW 8028   0.282   1.173   4.534 -0.1451 -0.0540 -0.2940
 1996SOL    HW2 8029   0.280   1.078   4.524 -0.9104 -0.0270 -0.4470
 1996SOL    HW3 8030   0.353   1.190   4.596 -2.3312 -0.9891  2.5891
 1996SOL    MW4 8031   0.291   1.163   4.541 -0.5345 -0.1737  0.0658
 1997SOL     OW 8032   1.621   4.416   3.533  0.1139  0.4784  0.0719
 1997SOL    HW2 8033   1.705   4.377   3.509  0.2040  0.6485  0.1167
 1997SOL    HW3 8034   1.556   4.350   3.506  0.2957  0.0793  0.6051
 1997SOL    MW4 8035   1.623   4.402   3.526  0.1498  0.4482  0.1481
 1998SOL     OW 8036   1.145   4.394   3.496  0.1078  0.6474  0.0501
 1998SOL    HW2 8037   1.128   4.483   3.465  0.4231  0.8388  0.4245
 1998SOL    HW3 8038   1.062   4.349   3.484 -0.1685  1.1029  0.2236
 1998SOL    MW4 8039   1.132   4.400   3.490  0.1130  0.7329  0.1223
 1999SOL     OW 8040   1.381   0.387   3.472  0.1808 -0.0113  0.6666
 1999SOL    HW2 8041   1.295   0.423   3.493 -0.1652 -1.2433  1.4174
 1999SOL    HW3 8042   1.443   0.456   3.498 -0.6348  1.5899 -1.4797
 1999SOL    MW4 8043   1.378   0.401   3.478  0.0275  0.0374  0.4826
 2000SOL     OW 8044   1.601   0.815   3.389  0.2645  0.0183  0.4307
 2000SOL    HW2 8045   1.681   0.853   3.424  1.3849 -0.7183 -1.2094
 2000SOL    HW3 8046   1.594   0.730   3.433  0.6378 -0.0966  0.2774
 2000SOL    MW4 8047   1.611   0.809   3.399  0.4616 -0.0940  0.1943
 2001SOL     OW 8048   1.701   1.183   3.870  0.0267  0.1834  0.3032
 2001SOL    HW2 8049   1.669   1.098   3.902 -0.4934  0.3632  0.2608
 2001SOL    HW3 8050   1.671   1.246   3.936  0.2525  0.3567  0.2373
 2001SOL    MW4 8051   1.693   1.180   3.883 -0.0123  0.2301  0.2887
 2002SOL     OW 8052   1.330   1.165   3.346 -0.2648  0.2899 -0.1345
 2002SOL    HW2 8053   1.248   1.213   3.361 -0.6966 -0.0542 -1.3087
 2002SOL    HW3 8054   1.399   1.231   3.357 -0.5803  0.1674  2.7175
 2002SOL    MW4 8055   1.328   1.180   3.349 -0.3633  0.2284  0.0868
 2003SOL     OW 8056   1.572   1.295   3.404 -0.1432  0.4197  0.1812
 2003SOL    HW2 8057   1.657   1.254   3.388 -0.7078 -0.2964 -1.1189
 2003SOL    HW3 8058   1.561   1.293   3.499  1.3054  0.5550  0.3543
 2003SOL    MW4 8059   1.582   1.289   3.414 -0.0267  0.3430  0.0327
 2004SOL     OW 8060   0.280   2.390   4.056 -0.5547  0.2903  0.2294
 2004SOL    HW2 8061   0.297   2.307   4.101 -0.4588  0.1162 -0.1205
 2004SOL    HW3 8062   0.198   2.422   4.093  0.3142  0.9168  1.6218
 2004SOL    MW4 8063   0.272   2.383   4.067 -0.4274  0.3498  0.3667
 2005SOL     OW 8064   1.587   1.545   3.328 -0.0415  0.2094  0.0327
 2005SOL    HW2 8065   1.585   1.452   3.349 -3.6393  0.6015  1.7261
 2005SOL    HW3 8066   1.578   1.549   3.233  0.4650 -1.1673 -0.0767
 2005SOL    MW4 8067   1.586   1.533   3.318 -0.4494  0.0796  0.2415
 2006SOL     OW 8068   1.357   1.700   3.412 -0.3191 -0.8292 -0.0717
 2006SOL    HW2 8069   1.359   1.704   3.508  2.8734  1.0313 -0.1585
 2006SOL    HW3 8070   1.429   1.641   3.389 -0.8952 -1.0476 -1.3346
 2006SOL    MW4 8071   1.367   1.692   3.422  0.0260 -0.6124 -0.2496
 2007SOL     OW 8072   1.393   1.967   3.335 -0.2155  0.0232 -0.4671
 2007SOL    HW2 8073   1.466   2.004   3.385 -2.3799  1.7076  1.5473
 2007SOL    HW3 8074   1.385   1.878   3.367 -0.4926  0.5590  0.9988
 2007SOL    MW4 8075   1.402   1.960   3.346 -0.5376  0.3161 -0.0081
 2008SOL     OW 8076   1.608   2.088   3.454  0.1270 -0.3415  0.1854
 2008SOL    HW2 8077   1.588   2.087   3.548 -0.8698  0.4416 -0.0189
 2008SOL    HW3 8078   1.591   2.178   3.427  0.7592 -0.4824 -0.6789
 2008SOL    MW4 8079   1.604   2.100   3.463  0.0788 -0.2570  0.0443
 2009SOL     OW 8080   1.578   2.348   3.396  0.2716  0.3066  0.1498
 2009SOL    HW2 8081   1.501   2.401   3.416 -0.4569 -0.5898 -0.2512
 2009SOL    HW3 8082   1.574   2.335   3.301  0.9070  0.2411  0.1330
 2009SOL    MW4 8083   1.567   2.354   3.386  0.2593  0.1798  0.0949
 2010SOL     OW 8084   1.339   2.461   3.445  0.4734  0.1005 -0.2163
 2010SOL    HW2 8085   1.344   2.466   3.541  0.7088 -0.4292 -0.2025
 2010SOL    HW3 8086   1.341   2.553   3.417 -1.6671  0.3625  0.3819
 2010SOL    MW4 8087   1.340   2.474   3.454  0.2221  0.0651 -0.1354
 2011SOL     OW 8088   1.334   2.738   3.372 -0.0248  0.3311 -0.2663
 2011SOL    HW2 8089   1.417   2.756   3.417  0.6071 -0.2402 -1.2029
 2011SOL    HW3 8090   1.355   2.742   3.279 -0.5290 -2.1341 -0.5282
 2011SOL    MW4 8091   1.347   2.741   3.366 -0.0079 -0.0696 -0.4244
 2012SOL     OW 8092   1.570   2.804   3.483  0.1736  0.5170 -0.3153
 2012SOL    HW2 8093   1.568   2.781   3.576  0.7166  0.0531 -0.4130
 2012SOL    HW3 8094   1.656   2.775   3.453  0.1364  0.9843 -0.8847
 2012SOL    MW4 8095   1.581   2.797   3.491  0.2403  0.5174 -0.4032
 2013SOL     OW 8096   1.600   3.071   3.404 -0.2933 -0.3264 -0.0484
 2013SOL    HW2 8097   1.596   2.988   3.450 -0.2284  0.0206  0.5967
 2013SOL    HW3 8098   1.513   3.110   3.416 -0.1277 -0.0224  0.1898
 2013SOL    MW4 8099   1.588   3.065   3.412 -0.2629 -0.2403  0.0679
 2014SOL     OW 8100   1.375   3.206   3.505  0.2015  0.3436 -0.3808
 2014SOL    HW2 8101   1.362   3.215   3.599 -0.2130  0.6925 -0.4700
 2014SOL    HW3 8102   1.302   3.152   3.475  0.8203 -0.5001 -0.3677
 2014SOL    MW4 8103   1.364   3.200   3.513  0.2284  0.2782 -0.3910
 2015SOL     OW 8104   1.350   3.469   3.388  0.5807  0.1462  0.5881
 2015SOL    HW2 8105   1.354   3.377   3.416 -0.7215 -0.1809 -0.2776
 2015SOL    HW3 8106   1.276   3.505   3.437 -0.5601  0.0420 -1.0168
 2015SOL    MW4 8107   1.341   3.462   3.399  0.2584  0.0892  0.2623
 2016SOL     OW 8108   1.599   3.590   3.497 -0.0943  0.0136  0.2022
 2016SOL    HW2 8109   1.601   3.582   3.592 -1.0009 -2.2964  0.0711
 2016SOL    HW3 8110   1.521   3.541   3.471  0.4406  0.1584 -1.7575
 2016SOL    MW4 8111   1.589   3.582   3.506 -0.1433 -0.2718 -0.0737
 2017SOL     OW 8112   1.535   3.856   3.426 -0.0872 -0.7786 -0.2999
 2017SOL    HW2 8113   1.545   3.764   3.451  0.9007 -0.7748 -0.6657
 2017SOL    HW3 8114   1.534   3.855   3.331  0.1994 -0.3726 -0.3039
 2017SOL    MW4 8115   1.536   3.844   3.417  0.0811 -0.7246 -0.3488
 2018SOL     OW 8116   3.047   2.833   4.639 -0.0505  0.3663  0.3462
 2018SOL    HW2 8117   3.041   2.767   4.570 -0.1460 -1.3403  1.9139
 2018SOL    HW3 8118   2.997   2.907   4.607 -0.9395 -0.7911 -0.9789
 2018SOL    MW4 8119   3.040   2.834   4.626 -0.1802 -0.0117  0.3786
 2019SOL     OW 8120   1.384   4.018   3.571 -0.5372 -0.1963 -0.6773
 2019SOL    HW2 8121   1.444   3.968   3.516  1.2815  2.3514 -1.0998
 2019SOL    HW3 8122   1.382   4.105   3.532 -0.5677  1.1733  2.2565
 2019SOL    MW4 8123   1.391   4.023   3.559 -0.3014  0.3204 -0.3462
 2020SOL     OW 8124   1.387   4.267   3.449 -0.0450 -0.8933  0.3535
 2020SOL    HW2 8125   1.389   4.254   3.354 -1.5881 -3.7920  0.6639
 2020SOL    HW3 8126   1.309   4.320   3.464 -0.5677 -1.5831  0.1025
 2020SOL    MW4 8127   1.377   4.272   3.438 -0.3175 -1.3666  0.3614
 2021SOL     OW 8128   2.470   0.003   3.405 -0.1810  0.5861 -0.0761
 2021SOL    HW2 8129   2.392   0.017   3.458 -1.0708  1.0738 -1.4636
 2021SOL    HW3 8130   2.505  -0.081   3.433  0.3517  1.6142  2.4593
 2021SOL    MW4 8131   2.465  -0.006   3.415 -0.2284  0.7863  0.0753
 2022SOL     OW 8132   1.804   0.169   3.514  0.0395  0.0423 -0.1259
 2022SOL    HW2 8133   1.802   0.184   3.608 -0.1642  0.7264 -0.2436
 2022SOL    HW3 8134   1.728   0.114   3.497 -0.7101  1.0709 -0.0993
 2022SOL    MW4 8135   1.794   0.163   3.524 -0.0863  0.2683 -0.1378
 2023SOL     OW 8136   1.805   0.413   3.133  0.1538 -0.1101  0.0405
 2023SOL    HW2 8137   1.793   0.320   3.116 -0.8275  0.0291 -0.0171
 2023SOL    HW3 8138   1.724   0.454   3.103  0.2974  0.6777  0.7151
 2023SOL    MW4 8139   1.793   0.406   3.127  0.0433  0.0122  0.1216
 2024SOL     OW 8140   1.973   0.520   3.534  0.1162  0.5402  0.1650
 2024SOL    HW2 8141   1.888   0.508   3.493  0.2685  0.1013 -0.0161
 2024SOL    HW3 8142   2.007   0.601   3.495  0.0044  0.4448 -0.1284
 2024SOL    MW4 8143   1.966   0.529   3.524  0.1214  0.4697  0.1020
 2025SOL     OW 8144   2.264   1.163   3.399 -0.2732 -0.3165 -0.2113
 2025SOL    HW2 8145   2.351   1.202   3.416 -0.4936 -0.1464  0.5741
 2025SOL    HW3 8146   2.266   1.080   3.446 -0.2182 -0.7183 -0.9321
 2025SOL    MW4 8147   2.276   1.157   3.408 -0.2952 -0.3473 -0.2029
 2026SOL     OW 8148   3.526   0.865   3.528 -0.1663 -0.2416 -0.1378
 2026SOL    HW2 8149   3.590   0.797   3.510 -0.9739 -1.6004  1.8656
 2026SOL    HW3 8150   3.454   0.847   3.468  0.4554  0.0480 -0.9737
 2026SOL    MW4 8151   3.525   0.853   3.518 -0.1907 -0.3827  0.0167
 2027SOL     OW 8152   1.815   1.131   3.138  0.6332 -0.3189 -0.0743
 2027SOL    HW2 8153   1.826   1.120   3.232  0.3041 -1.7652 -0.1923
 2027SOL    HW3 8154   1.807   1.042   3.104  2.3958  0.1019 -1.6888
 2027SOL    MW4 8155   1.815   1.118   3.146  0.8223 -0.4541 -0.3030
 2028SOL     OW 8156   2.052   3.266   4.648 -0.5135 -0.4400  0.0504
 2028SOL    HW2 8157   1.962   3.291   4.628 -0.8002 -0.0945  1.7587
 2028SOL    HW3 8158   2.050   3.170   4.653 -0.6834 -0.4597 -0.3890
 2028SOL    MW4 8159   2.040   3.257   4.646 -0.5739 -0.3970  0.2174
 2029SOL     OW 8160   2.036   1.522   3.364  0.1857  0.3932  0.1406
 2029SOL    HW2 8161   2.104   1.588   3.377 -0.2927  1.0531 -0.7004
 2029SOL    HW3 8162   1.954   1.566   3.384 -0.1744  0.1827 -0.8313
 2029SOL    MW4 8163   2.034   1.536   3.369  0.0751  0.4525 -0.0987
 2030SOL     OW 8164   1.810   1.652   3.439 -0.2520 -0.1971 -0.2558
 2030SOL    HW2 8165   1.812   1.743   3.410 -0.4854 -0.1432 -0.1097
 2030SOL    HW3 8166   1.739   1.612   3.388 -1.2056  0.1006  0.8166
 2030SOL    MW4 8167   1.801   1.659   3.428 -0.4086 -0.1507 -0.0949
 2031SOL     OW 8168   1.807   1.927   3.348  0.0422 -0.0879 -0.2130
 2031SOL    HW2 8169   1.729   1.977   3.373 -0.9146 -1.8495  0.3856
 2031SOL    HW3 8170   1.806   1.927   3.252  0.0116  0.9555 -0.2202
 2031SOL    MW4 8171   1.797   1.934   3.338 -0.0882 -0.1825 -0.1347
 2032SOL     OW 8172   2.015   2.036   3.501 -0.4527  0.0811  0.1013
 2032SOL    HW2 8173   1.954   1.986   3.446  1.8166 -1.7969 -0.8386
 2032SOL    HW3 8174   2.006   2.126   3.471 -2.8478 -0.1508  0.0766
 2032SOL    MW4 8175   2.006   2.041   3.490 -0.4692 -0.1974 -0.0260
 2033SOL     OW 8176   2.026   2.301   3.412 -0.3354  0.4244 -0.7159
 2033SOL    HW2 8177   2.094   2.362   3.439  0.1368 -0.2716 -0.3226
 2033SOL    HW3 8178   2.025   2.306   3.316  0.1113  0.5996 -0.7085
 2033SOL    MW4 8179   2.035   2.310   3.403 -0.2143  0.3557 -0.6633
 2034SOL     OW 8180   1.807   2.472   3.462 -0.0360 -0.8487  0.6090
 2034SOL    HW2 8181   1.867   2.398   3.462  0.8182 -0.1839 -0.9178
 2034SOL    HW3 8182   1.720   2.433   3.452  0.3287 -1.7035  0.7495
 2034SOL    MW4 8183   1.804   2.457   3.460  0.1248 -0.8740  0.4261
 2035SOL     OW 8184   1.806   2.722   3.351  0.4630 -0.5851 -0.0680
 2035SOL    HW2 8185   1.883   2.767   3.387  0.1717 -0.9556  1.0439
 2035SOL    HW3 8186   1.805   2.637   3.396 -2.5029  0.7085  2.5170
 2035SOL    MW4 8187   1.816   2.717   3.362  0.0334 -0.4635  0.4196
 2036SOL     OW 8188   2.041   2.852   3.436  0.1925  0.4147  0.4169
 2036SOL    HW2 8189   2.030   2.830   3.528  1.0734 -0.6881  0.2733
 2036SOL    HW3 8190   2.034   2.947   3.433 -1.8424  0.3121  1.3317
 2036SOL    MW4 8191   2.039   2.861   3.448  0.0405  0.2556  0.5188
 2037SOL     OW 8192   2.021   3.121   3.393  0.0739 -0.2342 -0.5042
 2037SOL    HW2 8193   2.085   3.185   3.422 -0.2763  0.2601 -0.8186
 2037SOL    HW3 8194   1.940   3.145   3.439  0.1285 -0.9009 -0.0480
 2037SOL    MW4 8195   2.019   3.132   3.403  0.0348 -0.2570 -0.4857
 2038SOL     OW 8196   1.686   2.368   4.515 -0.1748 -0.2986  0.3025
 2038SOL    HW2 8197   1.704   2.274   4.514  0.4864 -0.1876  1.1366
 2038SOL    HW3 8198   1.706   2.395   4.605  0.3027  0.7653 -0.1147
 2038SOL    MW4 8199   1.691   2.359   4.527 -0.0246 -0.1438  0.3567
 2039SOL     OW 8200   1.832   3.468   3.396  0.1595 -0.2786  0.1989
 2039SOL    HW2 8201   1.752   3.509   3.430  0.3910 -1.0348  1.7279
 2039SOL    HW3 8202   1.817   3.458   3.302 -0.9036  1.0173  0.2252
 2039SOL    MW4 8203   1.820   3.472   3.388  0.0499 -0.2074  0.4039
 2040SOL     OW 8204   2.017   3.637   3.494 -0.2456 -0.2382  0.1279
 2040SOL    HW2 8205   2.091   3.611   3.441  0.5493  1.5865  0.3090
 2040SOL    HW3 8206   1.953   3.567   3.482  0.7444 -0.8806 -1.5330
 2040SOL    MW4 8207   2.018   3.624   3.486 -0.0103 -0.0820 -0.0672
 2041SOL     OW 8208   2.026   3.892   3.395  0.3123 -0.2966  0.5288
 2041SOL    HW2 8209   1.939   3.928   3.412  0.3570  0.1298 -0.1334
 2041SOL    HW3 8210   2.022   3.802   3.428 -0.9423 -0.8607 -1.1385
 2041SOL    MW4 8211   2.014   3.884   3.402  0.1528 -0.3147  0.2220
 2042SOL     OW 8212   1.774   4.020   3.485  0.1625 -0.0738 -0.3396
 2042SOL    HW2 8213   1.779   4.016   3.581  0.4405  0.8596 -0.3118
 2042SOL    HW3 8214   1.708   3.955   3.462 -0.9644  0.7202  0.5933
 2042SOL    MW4 8215   1.766   4.011   3.495  0.0505  0.1545 -0.2127
 2043SOL     OW 8216   1.841   4.289   3.418 -0.4966 -0.2125  0.0210
 2043SOL    HW2 8217   1.810   4.199   3.428 -1.9302  0.3169  0.5255
 2043SOL    HW3 8218   1.822   4.311   3.327 -0.3284 -0.3517 -0.0488
 2043SOL    MW4 8219   1.835   4.280   3.407 -0.6636 -0.1607  0.0782
 2044SOL     OW 8220   2.067   4.384   3.550  0.2688  0.5432 -0.1836
 2044SOL    HW2 8221   2.052   4.478   3.537 -0.9482  0.5390  1.0422
 2044SOL    HW3 8222   1.987   4.342   3.519  0.0842  0.0604  0.8994
 2044SOL    MW4 8223   2.054   4.391   3.544  0.0839  0.4792  0.1209
 2045SOL     OW 8224   2.609   1.665   3.770  0.3302 -0.2292  0.3682
 2045SOL    HW2 8225   2.524   1.622   3.762  0.7075 -1.0697  0.9067
 2045SOL    HW3 8226   2.640   1.673   3.680 -1.2886  2.0519 -0.0347
 2045SOL    MW4 8227   2.602   1.661   3.757  0.1667 -0.0391  0.3860
 2046SOL     OW 8228   2.950   1.012   4.729 -0.3436  0.2736 -0.2293
 2046SOL    HW2 8229   3.017   1.079   4.721 -0.5082  0.2789 -1.5678
 2046SOL    HW3 8230   2.869   1.056   4.705 -1.0319  0.5662  2.4502
 2046SOL    MW4 8231   2.948   1.026   4.725 -0.4561  0.3128 -0.0525
 2047SOL     OW 8232   2.171   0.379   3.381  0.1501 -0.1220 -0.2468
 2047SOL    HW2 8233   2.097   0.425   3.421  0.4516 -0.4022  0.6316
 2047SOL    HW3 8234   2.182   0.300   3.434 -0.1382 -1.0511 -1.5320
 2047SOL    MW4 8235   2.163   0.375   3.393  0.1519 -0.2816 -0.3006
 2048SOL     OW 8236   3.154   3.534   4.597  0.0995  0.1504 -0.1894
 2048SOL    HW2 8237   3.116   3.446   4.599  1.4168 -0.4398 -0.8050
 2048SOL    HW3 8238   3.201   3.542   4.680 -0.2968  0.4035  0.0119
 2048SOL    MW4 8239   3.155   3.523   4.608  0.2208  0.1059 -0.2441
 2049SOL     OW 8240   2.276   0.904   3.518 -0.5915 -0.1759 -0.5045
 2049SOL    HW2 8241   2.290   0.924   3.610 -1.6717  1.4511 -0.6775
 2049SOL    HW3 8242   2.359   0.864   3.489  0.1310  0.2873  0.8938
 2049SOL    MW4 8243   2.289   0.901   3.526 -0.6385  0.1000 -0.3428
 2050SOL     OW 8244   0.675   4.356   4.182  0.7896 -0.2461  0.2246
 2050SOL    HW2 8245   0.682   4.451   4.170  1.9459 -0.7420 -3.5467
 2050SOL    HW3 8246   0.757   4.321   4.146  1.0770 -2.6299  2.9700
 2050SOL    MW4 8247   0.687   4.364   4.176  0.9801 -0.6261  0.0896
 2051SOL     OW 8248   2.035   1.297   3.521  0.2743 -0.6966 -0.4932
 2051SOL    HW2 8249   2.030   1.379   3.472  0.8098  0.5491  1.4485
 2051SOL    HW3 8250   2.119   1.258   3.495 -0.4058 -1.1073 -2.1187
 2051SOL    MW4 8251   2.046   1.303   3.511  0.2553 -0.5864 -0.4518
 2052SOL     OW 8252   2.458   1.280   3.547 -0.3133  0.5450 -0.4326
 2052SOL    HW2 8253   2.464   1.365   3.503 -1.8706  0.4858 -0.8095
 2052SOL    HW3 8254   2.527   1.228   3.507 -0.3097  1.1739 -1.2661
 2052SOL    MW4 8255   2.468   1.285   3.536 -0.5181  0.6201 -0.5927
 2053SOL     OW 8256   2.483   1.532   3.428  0.2705  0.5596  0.5794
 2053SOL    HW2 8257   2.400   1.571   3.455  0.0992  0.6886 -0.1212
 2053SOL    HW3 8258   2.476   1.524   3.333  1.1035  0.6742  0.5024
 2053SOL    MW4 8259   2.471   1.536   3.419  0.3579  0.5916  0.4771
 2054SOL     OW 8260   2.249   1.689   3.455 -0.1560 -0.4833  0.3009
 2054SOL    HW2 8261   2.281   1.770   3.417 -0.2384 -1.1851 -1.3289
 2054SOL    HW3 8262   2.230   1.710   3.546  0.7136  1.0704  0.1299
 2054SOL    MW4 8263   2.251   1.702   3.462 -0.0522 -0.3709  0.0632
 2055SOL     OW 8264   2.298   1.945   3.406  0.1264  0.0498 -0.1487
 2055SOL    HW2 8265   2.205   1.952   3.429 -0.4383 -2.0807 -1.6702
 2055SOL    HW3 8266   2.299   1.944   3.311  1.6026 -1.3627 -0.1306
 2055SOL    MW4 8267   2.286   1.946   3.397  0.2468 -0.4177 -0.3471
 2056SOL     OW 8268   2.499   2.100   3.536  0.4286  0.0341 -0.3829
 2056SOL    HW2 8269   2.578   2.057   3.504 -0.3224 -0.4498 -1.6016
 2056SOL    HW3 8270   2.426   2.050   3.498 -0.4642  1.1766 -0.2275
 2056SOL    MW4 8271   2.499   2.088   3.527  0.2120  0.1211 -0.5231
 2057SOL     OW 8272   1.767   4.216   4.199  0.1504 -0.1236  0.0310
 2057SOL    HW2 8273   1.862   4.209   4.199  0.2352  0.8486  0.6155
 2057SOL    HW3 8274   1.737   4.136   4.241  0.6663 -0.8483 -0.9667
 2057SOL    MW4 8275   1.775   4.205   4.205  0.2297 -0.0911 -0.0234
 2058SOL     OW 8276   0.318   1.307   4.293 -0.3368 -0.4519  0.1251
 2058SOL    HW2 8277   0.317   1.247   4.367  0.3877 -1.1690 -0.4340
 2058SOL    HW3 8278   0.373   1.264   4.227 -0.8116  0.2544 -0.7591
 2058SOL    MW4 8279   0.325   1.294   4.294 -0.3039 -0.4534 -0.0653
 2059SOL     OW 8280   2.218   2.485   3.515 -0.4766 -0.1015 -0.3382
 2059SOL    HW2 8281   2.244   2.561   3.463  2.6651 -0.7382  0.2111
 2059SOL    HW3 8282   2.205   2.519   3.604 -1.6087  0.2266 -0.6241
 2059SOL    MW4 8283   2.219   2.500   3.520 -0.2115 -0.1421 -0.3033
 2060SOL     OW 8284   2.289   2.737   3.391 -0.2118 -0.1475 -0.1564
 2060SOL    HW2 8285   2.308   2.707   3.302 -0.9260 -0.4977 -0.1939
 2060SOL    HW3 8286   2.199   2.770   3.387 -0.0100  0.4667  0.2773
 2060SOL    MW4 8287   2.280   2.737   3.379 -0.2792 -0.1128 -0.1042
 2061SOL     OW 8288   2.441   3.101   3.405 -0.5827 -0.0888 -0.0445
 2061SOL    HW2 8289   2.516   3.160   3.418 -1.0011  0.4096  0.1304
 2061SOL    HW3 8290   2.440   3.083   3.311 -0.6223  0.4082 -0.1398
 2061SOL    MW4 8291   2.451   3.107   3.395 -0.6428  0.0424 -0.0339
 2062SOL     OW 8292   2.237   3.273   3.481 -0.6672  0.1992  0.1735
 2062SOL    HW2 8293   2.243   3.262   3.575 -0.0152  0.5715  0.1792
 2062SOL    HW3 8294   2.299   3.209   3.445  1.5651  2.2971  0.1305
 2062SOL    MW4 8295   2.246   3.263   3.488 -0.2868  0.5250  0.1686
 2063SOL     OW 8296   2.228   3.525   3.369 -0.1261 -0.6166 -0.5907
 2063SOL    HW2 8297   2.225   3.438   3.408  0.4510 -0.6985 -0.7273
 2063SOL    HW3 8298   2.240   3.509   3.275 -0.6769 -0.4023 -0.7021
 2063SOL    MW4 8299   2.229   3.512   3.362 -0.1225 -0.5991 -0.6235
 2064SOL     OW 8300   2.480   3.634   3.474  0.3654  0.1471 -0.5156
 2064SOL    HW2 8301   2.476   3.725   3.446  0.4568 -0.4896 -2.6629
 2064SOL    HW3 8302   2.406   3.592   3.431 -0.4158 -0.5414  1.4554
 2064SOL    MW4 8303   2.470   3.640   3.465  0.2744 -0.0279 -0.5388
 2065SOL     OW 8304   2.478   3.895   3.393 -0.4704  0.0205 -0.5154
 2065SOL    HW2 8305   2.546   3.944   3.440 -0.2310  0.0074 -0.8504
 2065SOL    HW3 8306   2.396   3.927   3.430 -0.2745 -0.2421  0.1673
 2065SOL    MW4 8307   2.476   3.906   3.404 -0.4129 -0.0160 -0.4694
 2066SOL     OW 8308   2.250   3.968   3.545  0.0454  0.2705 -0.2358
 2066SOL    HW2 8309   2.170   3.954   3.495 -0.5397  1.0038  0.4866
 2066SOL    HW3 8310   2.267   4.062   3.537  1.0447  0.0614 -0.6932
 2066SOL    MW4 8311   2.242   3.978   3.537  0.0999  0.3397 -0.2007
 2067SOL     OW 8312   2.317   4.220   3.432 -0.0662  0.6441  0.4286
 2067SOL    HW2 8313   2.247   4.282   3.454 -1.9203 -0.7960 -1.1633
 2067SOL    HW3 8314   2.306   4.204   3.338  1.1744 -1.0983  0.5534
 2067SOL    MW4 8315   2.306   4.226   3.422 -0.1471  0.2246  0.2348
 2068SOL     OW 8316   2.287   0.586   3.766  0.2661  0.3582 -0.6004
 2068SOL    HW2 8317   2.282   0.500   3.808  0.1313  0.3740 -0.5839
 2068SOL    HW3 8318   2.321   0.567   3.679  0.4633  0.3155 -0.5151
 2068SOL    MW4 8319   2.290   0.572   3.760  0.2744  0.3546 -0.5870
 2069SOL     OW 8320   2.916   0.002   3.433 -0.0347 -0.5379  0.2225
 2069SOL    HW2 8321   2.894  -0.010   3.341  0.1167 -1.3427  0.2841
 2069SOL    HW3 8322   2.841   0.048   3.470 -0.6823 -1.3956 -0.0145
 2069SOL    MW4 8323   2.903   0.007   3.426 -0.1004 -0.7573  0.1991
 2070SOL     OW 8324   2.400   0.486   3.533  0.0329  0.2008  0.0744
 2070SOL    HW2 8325   2.329   0.448   3.482 -0.0810 -0.8590  1.0036
 2070SOL    HW3 8326   2.474   0.427   3.520 -0.0055 -0.0850  1.1587
 2070SOL    MW4 8327   2.400   0.474   3.525  0.0129  0.0232  0.3400
 2071SOL     OW 8328   2.891   0.457   3.521 -0.6682 -0.2982 -0.1578
 2071SOL    HW2 8329   2.971   0.449   3.470  0.7050  1.2026  1.6961
 2071SOL    HW3 8330   2.861   0.547   3.507 -0.5594 -0.0274  1.2104
 2071SOL    MW4 8331   2.897   0.468   3.513 -0.4728 -0.0645  0.2673
 2072SOL     OW 8332   2.879   0.729   3.478  0.5576  0.1346  0.2016
 2072SOL    HW2 8333   2.802   0.784   3.467 -0.1547 -0.4277  2.0454
 2072SOL    HW3 8334   2.945   0.788   3.515  0.5388  0.2798  0.0055
 2072SOL    MW4 8335   2.878   0.744   3.482  0.4611  0.0796  0.4187
 2073SOL     OW 8336   2.471   0.646   4.339  0.4341  0.3855  0.0074
 2073SOL    HW2 8337   2.520   0.631   4.420 -1.2825  2.3931  1.5040
 2073SOL    HW3 8338   2.481   0.740   4.322 -0.8883  0.3658 -0.9537
 2073SOL    MW4 8339   2.479   0.656   4.348  0.0334  0.6478  0.0777
 2074SOL     OW 8340   2.470   0.737   3.392  0.5884  0.8284 -0.0352
 2074SOL    HW2 8341   2.450   0.721   3.300  1.5315 -0.2378 -0.0727
 2074SOL    HW3 8342   2.463   0.651   3.434 -2.8985  1.7709  1.5280
 2074SOL    MW4 8343   2.467   0.723   3.386  0.2530  0.8121  0.1659
 2075SOL     OW 8344   4.429   0.447   4.140  0.4048  0.2234  0.3915
 2075SOL    HW2 8345   4.445   0.432   4.047  0.5666 -1.5005  0.6737
 2075SOL    HW3 8346   4.515   0.439   4.181  0.2853  0.6643  0.7350
 2075SOL    MW4 8347   4.443   0.444   4.133  0.4106  0.0542  0.4745
 2076SOL     OW 8348   0.514   0.075   4.349  0.6033 -0.5136 -0.0381
 2076SOL    HW2 8349   0.533   0.166   4.372 -0.8350  0.2585 -1.7656
 2076SOL    HW3 8350   0.571   0.057   4.275  1.3827 -1.2600  0.7315
 2076SOL    MW4 8351   0.524   0.084   4.342  0.5164 -0.5102 -0.1645
 2077SOL     OW 8352   3.214   1.654   3.478 -0.6545  0.2718 -0.1925
 2077SOL    HW2 8353   3.197   1.655   3.573 -2.1066 -2.2243 -0.3943
 2077SOL    HW3 8354   3.152   1.719   3.443 -0.6010  0.6998  0.4888
 2077SOL    MW4 8355   3.204   1.663   3.486 -0.8395 -0.0011 -0.1290
 2078SOL     OW 8356   2.440   3.862   4.648 -0.0280  0.5658  0.4758
 2078SOL    HW2 8357   2.513   3.923   4.654 -0.0204  0.5078  0.9908
 2078SOL    HW3 8358   2.362   3.915   4.666 -0.1553  0.7205 -0.5206
 2078SOL    MW4 8359   2.439   3.877   4.651 -0.0439  0.5789  0.4120
 2079SOL     OW 8360   2.963   1.554   3.405 -0.2051 -0.0964  0.2849
 2079SOL    HW2 8361   2.958   1.458   3.404  0.6918 -0.1363 -0.7030
 2079SOL    HW3 8362   3.047   1.573   3.446 -0.2785  0.2672  0.2645
 2079SOL    MW4 8363   2.973   1.544   3.410 -0.0961 -0.0539  0.1519
 2080SOL     OW 8364   2.716   1.913   3.413 -0.2658  0.8822  0.2226
 2080SOL    HW2 8365   2.705   1.824   3.446  3.1506  0.9860  1.8388
 2080SOL    HW3 8366   2.712   1.904   3.318  0.2066 -1.0277  0.3620
 2080SOL    MW4 8367   2.714   1.900   3.405  0.2472  0.6437  0.4542
 2081SOL     OW 8368   2.931   2.060   3.487  0.3615  0.6971 -0.0579
 2081SOL    HW2 8369   2.938   2.074   3.581  0.7098  2.1155 -0.2797
 2081SOL    HW3 8370   2.844   2.020   3.475  0.1135  0.9700  0.8089
 2081SOL    MW4 8371   2.920   2.056   3.498  0.3750  0.9203  0.0272
 2082SOL     OW 8372   2.666   2.456   3.466 -0.4533  0.0830 -0.6458
 2082SOL    HW2 8373   2.584   2.427   3.425  0.2414  1.4608 -3.1502
 2082SOL    HW3 8374   2.730   2.390   3.440 -0.0747  0.8004 -1.5749
 2082SOL    MW4 8375   2.664   2.443   3.457 -0.3119  0.3593 -1.0989
 2083SOL     OW 8376   2.709   2.731   3.397  0.0399  0.2277 -0.3310
 2083SOL    HW2 8377   2.701   2.636   3.408 -0.4356  0.2665 -0.3044
 2083SOL    HW3 8378   2.631   2.766   3.441  1.0431  0.7270  1.0534
 2083SOL    MW4 8379   2.697   2.723   3.404  0.1094  0.2987 -0.1450
 2084SOL     OW 8380   2.924   2.870   3.513 -0.2213  0.7253 -0.2786
 2084SOL    HW2 8381   3.003   2.834   3.473 -0.3666  0.9250 -0.7388
 2084SOL    HW3 8382   2.852   2.818   3.477 -0.2063 -0.1948  0.9860
 2084SOL    MW4 8383   2.925   2.859   3.503 -0.2389  0.6306 -0.1724
 2085SOL     OW 8384   2.906   3.120   3.404 -0.1526  0.3953 -0.1968
 2085SOL    HW2 8385   2.892   3.030   3.433  0.3346 -0.1407 -1.5563
 2085SOL    HW3 8386   2.920   3.112   3.309  0.4844  1.8423 -0.2320
 2085SOL    MW4 8387   2.906   3.107   3.395 -0.0045  0.5155 -0.3805
 2086SOL     OW 8388   2.678   3.233   3.478  0.3756  0.1412 -0.0372
 2086SOL    HW2 8389   2.690   3.218   3.572 -1.4770 -0.9318  0.0675
 2086SOL    HW3 8390   2.759   3.202   3.438  0.4773 -1.0741  1.0660
 2086SOL    MW4 8391   2.690   3.227   3.485  0.1445 -0.1609  0.1221
 2087SOL     OW 8392   2.699   3.481   3.393  0.4775  0.5908  0.1668
 2087SOL    HW2 8393   2.694   3.392   3.426 -0.4577  0.0666 -1.3446
 2087SOL    HW3 8394   2.625   3.526   3.435  1.0464  0.6995  1.0538
 2087SOL    MW4 8395   2.688   3.476   3.403  0.4292  0.5360  0.0844
 2088SOL     OW 8396   2.946   3.589   3.479  0.5990 -0.1050  0.0117
 2088SOL    HW2 8397   2.917   3.678   3.460  1.8206  0.1397 -0.7243
 2088SOL    HW3 8398   2.872   3.534   3.453 -1.0624  0.8270  2.6117
 2088SOL    MW4 8399   2.932   3.593   3.473  0.5410  0.0505  0.2575
 2089SOL     OW 8400   2.920   3.852   3.393 -0.1663  0.0469  0.5833
 2089SOL    HW2 8401   2.998   3.902   3.418 -0.4862  0.1078  1.4738
 2089SOL    HW3 8402   2.846   3.907   3.421 -0.5208 -0.8173  1.3589
 2089SOL    MW4 8403   2.920   3.866   3.400 -0.2551 -0.0591  0.8032
 2090SOL     OW 8404   2.707   4.028   3.500  0.3372 -0.2077  0.0206
 2090SOL    HW2 8405   2.690   4.046   3.592 -0.0351 -1.0806  0.1256
 2090SOL    HW3 8406   2.720   4.114   3.461  0.8242  0.1432  0.9524
 2090SOL    MW4 8407   2.706   4.042   3.507  0.3524 -0.2766  0.1574
 2091SOL     OW 8408   2.707   4.288   3.380 -0.3063 -0.1549  0.0684
 2091SOL    HW2 8409   2.791   4.325   3.407 -0.7276 -0.8867  2.5164
 2091SOL    HW3 8410   2.643   4.330   3.438 -1.4285 -0.8554 -0.6442
 2091SOL    MW4 8411   2.710   4.298   3.391 -0.5100 -0.3433  0.2978
 2092SOL     OW 8412   2.934   4.398   3.517 -0.5506 -0.2092 -0.1949
 2092SOL    HW2 8413   2.906   4.401   3.608  1.9675 -1.1532  0.6440
 2092SOL    HW3 8414   2.941   4.490   3.491 -1.8475  0.0629  0.3404
 2092SOL    MW4 8415   2.931   4.410   3.525 -0.3893 -0.2975 -0.0136
 2093SOL     OW 8416   3.379   4.623   3.399  0.2189 -0.0961 -0.1873
 2093SOL    HW2 8417   3.305   4.675   3.430 -0.0506 -0.9439  0.6094
 2093SOL    HW3 8418   3.361   4.610   3.306  0.2683  1.1894 -0.3939
 2093SOL    MW4 8419   3.367   4.628   3.391  0.1900 -0.0381 -0.1094
 2094SOL     OW 8420   0.248   0.463   4.505 -0.2394 -0.0569 -0.0279
 2094SOL    HW2 8421   0.246   0.448   4.410  0.8420  0.5239 -0.1520
 2094SOL    HW3 8422   0.159   0.490   4.527 -0.2565  0.7571 -1.0472
 2094SOL    MW4 8423   0.236   0.465   4.495 -0.0990  0.1271 -0.1788
 2095SOL     OW 8424   3.350   3.185   4.552 -0.2044 -0.1613 -0.3383
 2095SOL    HW2 8425   3.256   3.197   4.558 -0.2286 -0.5266  0.0582
 2095SOL    HW3 8426   3.375   3.227   4.469 -0.5046  1.2050  0.2527
 2095SOL    MW4 8427   3.341   3.192   4.542 -0.2470 -0.0293 -0.2079
 2096SOL     OW 8428   3.132   0.401   3.376 -0.1669 -0.1109 -0.0704
 2096SOL    HW2 8429   3.206   0.450   3.411  0.9750 -1.5152 -0.5159
 2096SOL    HW3 8430   3.138   0.412   3.281 -0.3390 -0.5276 -0.1286
 2096SOL    MW4 8431   3.142   0.409   3.368 -0.0389 -0.3512 -0.1371
 2097SOL     OW 8432   3.113   0.883   3.534  0.0511 -0.1758  0.5108
 2097SOL    HW2 8433   3.151   0.890   3.622  0.6721 -0.1398  0.2421
 2097SOL    HW3 8434   3.096   0.973   3.508  0.4924 -0.1469  0.3229
 2097SOL    MW4 8435   3.116   0.896   3.542  0.1912 -0.1673  0.4506
 2098SOL     OW 8436   3.833   1.243   4.258  0.5313  0.4856  0.2560
 2098SOL    HW2 8437   3.740   1.250   4.233  0.3379 -0.0013  0.8242
 2098SOL    HW3 8438   3.864   1.167   4.209  0.2871 -0.1513  1.0797
 2098SOL    MW4 8439   3.825   1.234   4.248  0.4735  0.3374  0.4401
 2099SOL     OW 8440   3.101   1.119   3.105  0.4395  0.0466  0.5955
 2099SOL    HW2 8441   3.094   1.034   3.062 -0.2976  0.4603 -0.1301
 2099SOL    HW3 8442   3.180   1.158   3.069 -0.2055  0.4129 -0.4471
 2099SOL    MW4 8443   3.110   1.113   3.095  0.2573  0.1497  0.3622
 2100SOL     OW 8444   3.108   1.127   3.392 -0.0445  0.2267  0.3663
 2100SOL    HW2 8445   3.103   1.131   3.296  1.4090  0.8968  0.2975
 2100SOL    HW3 8446   3.201   1.137   3.411 -0.0330 -2.3596  1.7710
 2100SOL    MW4 8447   3.120   1.129   3.382  0.1490 -0.0261  0.5424
 2101SOL     OW 8448   3.433   1.511   3.357 -0.2164 -0.0416 -0.0790
 2101SOL    HW2 8449   3.518   1.547   3.384  0.6665 -1.6115 -0.7000
 2101SOL    HW3 8450   3.369   1.567   3.400  1.1271  1.5556 -0.0873
 2101SOL    MW4 8451   3.436   1.523   3.366  0.0772 -0.0380 -0.1621
 2102SOL     OW 8452   0.023   1.224   4.663  0.1257  0.8133 -0.0189
 2102SOL    HW2 8453   0.101   1.195   4.616 -0.2206  0.2709 -0.2567
 2102SOL    HW3 8454   0.001   1.309   4.624  1.0491  1.3461  0.5790
 2102SOL    MW4 8455   0.031   1.232   4.652  0.2018  0.8119  0.0281
 2103SOL     OW 8456   3.155   1.924   3.369 -0.3025 -0.0549  0.1841
 2103SOL    HW2 8457   3.089   1.987   3.399  0.4730  0.7327  0.2372
 2103SOL    HW3 8458   3.163   1.942   3.275 -1.9329 -1.7907 -0.3303
 2103SOL    MW4 8459   3.147   1.935   3.360 -0.4156 -0.1801  0.1230
 2104SOL     OW 8460   3.370   2.041   3.485 -0.5224 -1.0197  0.2912
 2104SOL    HW2 8461   3.371   2.129   3.448  0.4577 -0.7874  0.8473
 2104SOL    HW3 8462   3.303   1.994   3.435 -1.1802  0.0934  0.1257
 2104SOL    MW4 8463   3.362   2.046   3.473 -0.4799 -0.8419  0.3428
 2105SOL     OW 8464   3.379   2.306   3.415  0.0872  0.3508  0.1153
 2105SOL    HW2 8465   3.439   2.374   3.444 -0.3299  1.1186 -0.8024
 2105SOL    HW3 8466   3.293   2.334   3.446  0.0713 -0.3106  0.6839
 2105SOL    MW4 8467   3.375   2.319   3.423  0.0300  0.3648  0.0691
 2106SOL     OW 8468   2.917   2.301   3.393  0.3018  0.5995  0.4251
 2106SOL    HW2 8469   2.909   2.287   3.299  1.7834  1.5622  0.1358
 2106SOL    HW3 8470   2.941   2.216   3.428 -0.7492  0.1229  0.0066
 2106SOL    MW4 8471   2.919   2.288   3.385  0.3586  0.6635  0.3316
 2107SOL     OW 8472   3.144   2.454   3.456  0.4520  0.1266  0.2193
 2107SOL    HW2 8473   3.162   2.458   3.550 -0.3827  1.4726  0.3386
 2107SOL    HW3 8474   3.057   2.416   3.449  2.1725 -3.9874 -0.2422
 2107SOL    MW4 8475   3.135   2.450   3.467  0.5689 -0.2384  0.1743
 2108SOL     OW 8476   3.398   2.834   3.513  0.2547  0.0338  0.3600
 2108SOL    HW2 8477   3.479   2.804   3.472  0.3674  1.1971 -0.3194
 2108SOL    HW3 8478   3.388   2.924   3.481 -1.2813 -0.0927  0.4659
 2108SOL    MW4 8479   3.407   2.842   3.503  0.0670  0.1705  0.2847
 2109SOL     OW 8480   3.375   3.097   3.429  0.0213  0.3833  0.1566
 2109SOL    HW2 8481   3.444   3.152   3.468  0.2862 -0.2654  0.6007
 2109SOL    HW3 8482   3.296   3.123   3.476  0.3262 -0.3521  1.0988
 2109SOL    MW4 8483   3.374   3.108   3.441  0.0966  0.2005  0.3393
 2110SOL     OW 8484   3.136   3.200   3.532 -0.0994 -0.0672  0.3574
 2110SOL    HW2 8485   3.138   3.281   3.481 -0.4330 -0.9171 -1.0306
 2110SOL    HW3 8486   3.063   3.150   3.495 -0.9126 -0.3239  2.2782
 2110SOL    MW4 8487   3.127   3.204   3.520 -0.2508 -0.2134  0.4277
 2111SOL     OW 8488   3.171   3.441   3.400 -0.3310 -0.6324  0.5394
 2111SOL    HW2 8489   3.092   3.489   3.428 -0.4729 -2.1318  2.9190
 2111SOL    HW3 8490   3.163   3.435   3.305 -1.7722  1.5020  0.4819
 2111SOL    MW4 8491   3.159   3.447   3.391 -0.5398 -0.5484  0.8457
 2112SOL     OW 8492   3.399   3.583   3.481  0.3384  0.9261 -0.2610
 2112SOL    HW2 8493   3.392   3.669   3.439 -1.4992  0.8293 -0.1999
 2112SOL    HW3 8494   3.319   3.537   3.454  0.2700  0.0191  1.4282
 2112SOL    MW4 8495   3.387   3.589   3.472  0.0868  0.7937 -0.0303
 2113SOL     OW 8496   3.343   3.815   3.364  0.2239 -0.6419 -0.2396
 2113SOL    HW2 8497   3.417   3.865   3.397  0.0141 -0.9585  0.7383
 2113SOL    HW3 8498   3.271   3.837   3.423 -0.7711  0.5604 -1.8765
 2113SOL    MW4 8499   3.343   3.824   3.376  0.0651 -0.5252 -0.3264
 2114SOL     OW 8500   3.156   3.958   3.512  0.3525  0.3119 -0.3451
 2114SOL    HW2 8501   3.148   3.975   3.606 -0.9939 -0.1140 -0.3833
 2114SOL    HW3 8502   3.143   4.044   3.472  0.2656  0.3757 -0.1821
 2114SOL    MW4 8503   3.153   3.972   3.519  0.1636  0.2644 -0.3285
 2115SOL     OW 8504   3.136   4.220   3.433  0.2788  0.3077 -0.0871
 2115SOL    HW2 8505   3.220   4.260   3.455  0.8384 -0.3129 -1.0657
 2115SOL    HW3 8506   3.071   4.283   3.463  1.0924  0.7432  0.7769
 2115SOL    MW4 8507   3.138   4.234   3.440  0.4599  0.2832 -0.1018
 2116SOL     OW 8508   3.367   4.370   3.494 -0.1941 -0.4739  0.0812
 2116SOL    HW2 8509   3.356   4.382   3.589 -0.8207 -0.2920 -0.0159
 2116SOL    HW3 8510   3.365   4.459   3.459 -0.1709 -0.5573 -0.1287
 2116SOL    MW4 8511   3.365   4.383   3.502 -0.2735 -0.4606  0.0405
 2117SOL     OW 8512   3.801   4.589   3.423 -0.0969  0.0682  0.0387
 2117SOL    HW2 8513   3.884   4.636   3.435  1.2417 -2.0170 -0.8825
 2117SOL    HW3 8514   3.788   4.586   3.328 -0.4916 -0.8675  0.1175
 2117SOL    MW4 8515   3.810   4.595   3.412  0.0274 -0.3304 -0.0725
 2118SOL     OW 8516   3.597   0.114   3.478  0.0390 -0.2531  0.2833
 2118SOL    HW2 8517   3.671   0.061   3.446 -0.5097 -1.0218  0.2633
 2118SOL    HW3 8518   3.519   0.064   3.452 -0.4795  0.3719  0.6229
 2118SOL    MW4 8519   3.596   0.100   3.470 -0.1018 -0.2721  0.3257
 2119SOL     OW 8520   3.585   0.378   3.384 -0.2353  0.1264  0.0945
 2119SOL    HW2 8521   3.661   0.420   3.424 -1.5244  2.0218  0.6323
 2119SOL    HW3 8522   3.589   0.287   3.415  0.2152  0.9268  2.5236
 2119SOL    MW4 8523   3.596   0.371   3.394 -0.3459  0.4821  0.4861
 2120SOL     OW 8524   3.998   1.850   4.102 -0.2258 -0.5309 -0.2730
 2120SOL    HW2 8525   4.034   1.887   4.022  0.1283  0.2062  0.2142
 2120SOL    HW3 8526   4.075   1.818   4.150 -0.2327  0.8262  0.6627
 2120SOL    MW4 8527   4.013   1.850   4.098 -0.1798 -0.2546 -0.0854
 2121SOL     OW 8528   3.756   0.720   3.425 -0.0642 -0.5918  0.0853
 2121SOL    HW2 8529   3.790   0.635   3.455 -1.0348 -0.5902  1.2472
 2121SOL    HW3 8530   3.830   0.780   3.434 -0.0854 -0.7802  1.6973
 2121SOL    MW4 8531   3.770   0.716   3.430 -0.1950 -0.6164  0.4513
 2122SOL     OW 8532   3.804   0.472   3.534 -0.4594 -0.2375 -0.1980
 2122SOL    HW2 8533   3.832   0.488   3.624  0.1836 -1.0303 -0.2531
 2122SOL    HW3 8534   3.877   0.424   3.495 -0.0028  1.5578 -1.6345
 2122SOL    MW4 8535   3.818   0.468   3.541 -0.3145 -0.1052 -0.3951
 2123SOL     OW 8536   3.362   1.283   3.754  0.0846  0.2172 -0.2058
 2123SOL    HW2 8537   3.393   1.302   3.665 -0.6501 -0.5298 -0.6205
 2123SOL    HW3 8538   3.438   1.243   3.797  0.3910  0.4285 -0.5486
 2123SOL    MW4 8539   3.376   1.280   3.747  0.0279  0.1464 -0.3059
 2124SOL     OW 8540   3.817   1.226   3.491 -0.2520  0.3056  0.0149
 2124SOL    HW2 8541   3.743   1.170   3.466  0.6333 -1.3266  1.0257
 2124SOL    HW3 8542   3.816   1.226   3.586 -0.5873  2.5057  0.0389
 2124SOL    MW4 8543   3.807   1.219   3.500 -0.1793  0.3805  0.1516
 2125SOL     OW 8544   3.819   1.505   3.361 -0.2892  0.2621 -0.3656
 2125SOL    HW2 8545   3.909   1.537   3.373 -0.1334  0.3585 -1.7303
 2125SOL    HW3 8546   3.821   1.416   3.394  0.2798  0.3029 -0.2746
 2125SOL    MW4 8547   3.831   1.498   3.367 -0.1938  0.2803 -0.5338
 2126SOL     OW 8548   3.640   1.666   3.482  0.2289 -0.5751 -0.0580
 2126SOL    HW2 8549   3.639   1.749   3.434 -0.2609 -1.2542 -1.2638
 2126SOL    HW3 8550   3.700   1.610   3.432  0.2338 -1.0743  0.5015
 2126SOL    MW4 8551   3.648   1.669   3.469  0.1650 -0.7305 -0.1433
 2127SOL     OW 8552   3.623   1.895   3.348 -0.3120 -0.0701 -0.2109
 2127SOL    HW2 8553   3.688   1.952   3.390 -0.5159 -0.1822  0.2549
 2127SOL    HW3 8554   3.540   1.919   3.389 -0.1408 -1.9344  1.2572
 2127SOL    MW4 8555   3.621   1.906   3.359 -0.3161 -0.3309  0.0441
 2128SOL     OW 8556   3.799   2.044   3.488 -0.1046 -0.1231 -0.0278
 2128SOL    HW2 8557   3.805   2.057   3.583  0.3910 -1.0975  0.0813
 2128SOL    HW3 8558   3.871   1.984   3.468 -0.3389 -0.0884 -0.9895
 2128SOL    MW4 8559   3.810   2.038   3.498 -0.0699 -0.2470 -0.1402
 2129SOL     OW 8560   3.782   2.311   3.386  0.0926 -0.1787  0.3056
 2129SOL    HW2 8561   3.866   2.350   3.414 -1.3398  1.8759  1.9155
 2129SOL    HW3 8562   3.782   2.224   3.426  1.1799  0.0574  0.8663
 2129SOL    MW4 8563   3.793   2.305   3.395  0.0472  0.1235  0.5920
 2130SOL     OW 8564   3.589   2.475   3.499 -0.2307 -0.1842  0.0548
 2130SOL    HW2 8565   3.587   2.448   3.591 -1.0252  1.0811  0.4125
 2130SOL    HW3 8566   3.659   2.422   3.461 -1.1169 -2.0644  0.9514
 2130SOL    MW4 8567   3.598   2.464   3.506 -0.4523 -0.2651  0.2201
 2131SOL     OW 8568   3.615   2.711   3.378  0.7682  0.2044 -0.0144
 2131SOL    HW2 8569   3.624   2.621   3.410 -0.0997 -0.4979 -1.7234
 2131SOL    HW3 8570   3.691   2.757   3.415  0.9666 -1.1036  1.2375
 2131SOL    MW4 8571   3.627   2.706   3.387  0.6800 -0.0608 -0.0749
 2132SOL     OW 8572   3.840   2.833   3.512 -0.1781  0.3310 -0.2386
 2132SOL    HW2 8573   3.808   2.849   3.601  3.1842  0.2709  1.0591
 2132SOL    HW3 8574   3.857   2.920   3.476 -0.2757  0.3010 -0.3607
 2132SOL    MW4 8575   3.838   2.846   3.519  0.2527  0.3192 -0.0834
 2133SOL     OW 8576   3.829   3.101   3.419 -0.1662  0.3403  0.2044
 2133SOL    HW2 8577   3.917   3.131   3.439  0.6268 -1.9809  0.3418
 2133SOL    HW3 8578   3.825   3.101   3.324 -0.2034  0.9220  0.2020
 2133SOL    MW4 8579   3.840   3.105   3.409 -0.0665  0.1106  0.2222
 2134SOL     OW 8580   3.603   3.217   3.548 -0.4336  0.7708 -0.1636
 2134SOL    HW2 8581   3.597   3.304   3.510  0.9245  1.7340  1.7254
 2134SOL    HW3 8582   3.678   3.177   3.504  0.3763  1.4347  0.5751
 2134SOL    MW4 8583   3.612   3.223   3.537 -0.1476  0.9854  0.1831
 2135SOL     OW 8584   3.614   3.429   3.390 -0.2123  0.1158 -0.2998
 2135SOL    HW2 8585   3.602   3.433   3.295 -1.0467  0.1909 -0.1942
 2135SOL    HW3 8586   3.557   3.497   3.425 -0.8198 -0.6953  0.3239
 2135SOL    MW4 8587   3.605   3.438   3.382 -0.4027  0.0188 -0.2034
 2136SOL     OW 8588   3.836   3.562   3.480  0.0293 -0.0629  0.0296
 2136SOL    HW2 8589   3.762   3.518   3.438 -0.9844  0.9490  0.7314
 2136SOL    HW3 8590   3.828   3.541   3.573  0.1381  0.7484  0.2260
 2136SOL    MW4 8591   3.825   3.554   3.487 -0.0901  0.1776  0.1483
 2137SOL     OW 8592   3.807   3.837   3.359 -0.0394 -0.1434  0.1927
 2137SOL    HW2 8593   3.744   3.887   3.411  0.8232  0.9745  0.1720
 2137SOL    HW3 8594   3.820   3.756   3.410 -0.0284  0.4610  1.1623
 2137SOL    MW4 8595   3.800   3.833   3.373  0.0761  0.0839  0.3181
 2138SOL     OW 8596   3.571   3.946   3.459  0.2816 -0.0678  0.1483
 2138SOL    HW2 8597   3.586   3.944   3.553 -1.0482  1.6293  0.4029
 2138SOL    HW3 8598   3.578   4.038   3.435 -0.4817 -0.3580 -1.2327
 2138SOL    MW4 8599   3.574   3.958   3.468  0.0057  0.1178 -0.0005
 2139SOL     OW 8600   3.594   4.201   3.428  0.0070 -0.5872  0.2298
 2139SOL    HW2 8601   3.518   4.253   3.454 -0.1313 -0.5419 -0.2598
 2139SOL    HW3 8602   3.609   4.225   3.337  1.8399  0.9086  0.9017
 2139SOL    MW4 8603   3.586   4.211   3.419  0.2306 -0.3843  0.2539
 2140SOL     OW 8604   3.809   4.358   3.571  0.1122  0.2497  0.0163
 2140SOL    HW2 8605   3.726   4.311   3.560 -0.3217  1.5184 -2.2436
 2140SOL    HW3 8606   3.799   4.438   3.520  0.6790  3.1196  4.1666
 2140SOL    MW4 8607   3.797   4.362   3.563  0.1299  0.7958  0.2658
 2141SOL     OW 8608   4.250   4.636   3.428 -0.1997  0.5412 -0.3644
 2141SOL    HW2 8609   4.258   4.548   3.464 -0.8185 -0.0823 -1.7081
 2141SOL    HW3 8610   4.325   4.684   3.463  0.0919 -0.4994  0.4385
 2141SOL    MW4 8611   4.261   4.631   3.437 -0.2427  0.3219 -0.4358
 2142SOL     OW 8612   4.005   0.066   3.518 -0.2663  0.3126 -0.7258
 2142SOL    HW2 8613   4.080   0.012   3.494 -0.3191  0.1501 -0.5202
 2142SOL    HW3 8614   4.030   0.155   3.491  0.3010  0.3791  0.0185
 2142SOL    MW4 8615   4.018   0.071   3.511 -0.1988  0.2999 -0.6006
 2143SOL     OW 8616   4.043   0.340   3.427  0.7366  0.4917  0.2406
 2143SOL    HW2 8617   4.124   0.380   3.458  1.1071  0.3990 -0.6173
 2143SOL    HW3 8618   4.040   0.359   3.333  0.0111  0.0728  0.1711
 2143SOL    MW4 8619   4.053   0.348   3.419  0.6900  0.4242  0.1183
 2144SOL     OW 8620   4.232   0.725   3.402  0.2600  0.1685 -0.3161
 2144SOL    HW2 8621   4.238   0.735   3.307 -2.0448  2.5423 -0.2575
 2144SOL    HW3 8622   4.310   0.771   3.435  1.4162 -1.2138 -1.0361
 2144SOL    MW4 8623   4.243   0.732   3.393  0.1078  0.2993 -0.4032
 2145SOL     OW 8624   4.488   0.944   3.749 -0.2075  0.0482 -0.1559
 2145SOL    HW2 8625   4.565   0.898   3.784  0.2293  0.8210 -0.0704
 2145SOL    HW3 8626   4.481   1.023   3.804 -0.7439  0.2489 -0.5091
 2145SOL    MW4 8627   4.497   0.948   3.761 -0.2206  0.1765 -0.1912
 2146SOL     OW 8628   3.999   0.868   3.437 -0.2984 -0.1419 -0.1544
 2146SOL    HW2 8629   4.028   0.958   3.422 -0.8466 -0.0286 -0.5755
 2146SOL    HW3 8630   4.075   0.814   3.418  0.1681  0.2594  0.5520
 2146SOL    MW4 8631   4.013   0.873   3.433 -0.3090 -0.0741 -0.1168
 2147SOL     OW 8632   4.062   1.126   3.361  0.1418  0.5207 -0.0668
 2147SOL    HW2 8633   4.139   1.146   3.415  0.4379  1.4835 -0.8180
 2147SOL    HW3 8634   3.989   1.163   3.410  0.2469  0.2618  0.2895
 2147SOL    MW4 8635   4.062   1.134   3.375  0.1950  0.6135 -0.1187
 2148SOL     OW 8636   4.285   1.229   3.506 -0.0869 -0.1562  0.1175
 2148SOL    HW2 8637   4.286   1.318   3.471  1.2528 -0.3640 -0.3912
 2148SOL    HW3 8638   4.368   1.191   3.479 -1.4443 -2.2305 -1.3488
 2148SOL    MW4 8639   4.296   1.236   3.498 -0.0896 -0.4574 -0.1433
 2149SOL     OW 8640   4.285   1.478   3.375  0.4765  0.0155  0.2045
 2149SOL    HW2 8641   4.222   1.541   3.410  1.8410  1.7978 -0.4798
 2149SOL    HW3 8642   4.284   1.493   3.281  0.3957 -1.4112 -0.0357
 2149SOL    MW4 8643   4.276   1.488   3.368  0.6456  0.0625  0.0825
 2150SOL     OW 8644   4.100   1.647   3.473 -0.1809 -0.3543 -0.5547
 2150SOL    HW2 8645   4.052   1.646   3.556  0.2218 -1.2981 -0.3263
 2150SOL    HW3 8646   4.069   1.726   3.429 -0.0902  0.3708  0.6661
 2150SOL    MW4 8647   4.089   1.657   3.478 -0.1163 -0.3831 -0.3636
 2151SOL     OW 8648   4.009   1.905   3.358  0.1791  0.3043 -0.7207
 2151SOL    HW2 8649   4.091   1.949   3.383 -0.2971  1.6054 -1.4171
 2151SOL    HW3 8650   4.007   1.911   3.263  1.2134 -3.2464 -1.0397
 2151SOL    MW4 8651   4.020   1.912   3.349  0.2522  0.0075 -0.8547
 2152SOL     OW 8652   4.251   2.025   3.429 -0.2652  0.4925 -0.9097
 2152SOL    HW2 8653   4.256   2.114   3.395  2.3238  0.4120 -0.8536
 2152SOL    HW3 8654   4.333   1.984   3.402 -1.7080 -2.1121 -1.5124
 2152SOL    MW4 8655   4.263   2.031   3.421 -0.1135  0.1383 -0.9820
 2153SOL     OW 8656   4.256   2.281   3.334 -0.4656  0.0521 -0.2681
 2153SOL    HW2 8657   4.180   2.323   3.373  0.4249  2.1645 -0.7254
 2153SOL    HW3 8658   4.241   2.289   3.240  0.4776  0.7887 -0.3579
 2153SOL    MW4 8659   4.244   2.288   3.327 -0.2241  0.4277 -0.3402
 2154SOL     OW 8660   4.030   2.420   3.438  0.4222 -0.2545 -0.2649
 2154SOL    HW2 8661   4.036   2.415   3.534  1.4088  0.2459 -0.2908
 2154SOL    HW3 8662   4.042   2.513   3.418  1.8011 -0.5748 -0.9622
 2154SOL    MW4 8663   4.032   2.432   3.448  0.7343 -0.2306 -0.3605
 2155SOL     OW 8664   4.050   2.700   3.391  0.2762 -0.0159 -1.0151
 2155SOL    HW2 8665   4.122   2.760   3.411  0.8027 -0.8892 -0.2472
 2155SOL    HW3 8666   3.976   2.732   3.443  0.1981  0.7034 -1.5710
 2155SOL    MW4 8667   4.050   2.712   3.400  0.3357 -0.0362 -0.9871
 2156SOL     OW 8668   4.280   2.862   3.430 -0.2916 -0.1570 -0.2907
 2156SOL    HW2 8669   4.289   2.862   3.525 -0.4475 -1.4336 -0.2637
 2156SOL    HW3 8670   4.346   2.799   3.399  0.3047  0.8319 -1.0941
 2156SOL    MW4 8671   4.290   2.854   3.438 -0.2337 -0.1948 -0.3932
 2157SOL     OW 8672   4.314   3.115   3.344  0.4166  0.1922  0.4077
 2157SOL    HW2 8673   4.287   3.028   3.372 -1.3644  0.7409  0.4690
 2157SOL    HW3 8674   4.281   3.123   3.255  2.0663  0.1816 -0.2247
 2157SOL    MW4 8675   4.306   3.105   3.336  0.3991  0.2630  0.3324
 2158SOL     OW 8676   4.100   3.206   3.499 -0.0789 -0.0848 -0.1489
 2158SOL    HW2 8677   4.172   3.161   3.455  2.3208  0.5263  2.9913
 2158SOL    HW3 8678   4.099   3.294   3.461  0.2307 -0.3834 -0.8502
 2158SOL    MW4 8679   4.109   3.212   3.489  0.2780 -0.0434  0.1726
 2159SOL     OW 8680   4.071   3.457   3.366 -0.0184  0.1077 -0.4299
 2159SOL    HW2 8681   3.984   3.481   3.399 -0.1340  0.5750 -1.0563
 2159SOL    HW3 8682   4.132   3.514   3.413 -0.2313  1.1723 -1.4217
 2159SOL    MW4 8683   4.067   3.467   3.376 -0.0620  0.3097 -0.6435
 2160SOL     OW 8684   4.272   3.636   3.486  0.1534  0.6936  0.0378
 2160SOL    HW2 8685   4.254   3.718   3.440 -1.3518 -0.1818 -0.9819
 2160SOL    HW3 8686   4.273   3.660   3.579  2.5603  2.3653 -0.3686
 2160SOL    MW4 8687   4.270   3.650   3.492  0.2718  0.7987 -0.1502
 2161SOL     OW 8688   4.244   3.889   3.375  0.3541  0.3670  0.1637
 2161SOL    HW2 8689   4.318   3.934   3.415  0.7608 -0.1797  0.0240
 2161SOL    HW3 8690   4.271   3.874   3.284 -0.4967  1.4585 -0.2801
 2161SOL    MW4 8691   4.257   3.893   3.368  0.2952  0.4387  0.0868
 2162SOL     OW 8692   3.998   4.024   3.324 -0.0504 -0.0684 -0.0312
 2162SOL    HW2 8693   4.084   3.982   3.331 -0.6685 -1.1973  0.9240
 2162SOL    HW3 8694   3.936   3.952   3.321 -1.0203  0.7545 -0.1002
 2162SOL    MW4 8695   4.001   4.009   3.325 -0.2599 -0.1092  0.0856
 2163SOL     OW 8696   4.041   4.190   3.543 -0.4770  0.3142 -0.1985
 2163SOL    HW2 8697   4.033   4.118   3.480 -0.7314  0.0592  0.1230
 2163SOL    HW3 8698   3.957   4.235   3.539 -0.4373  0.3925 -0.1583
 2163SOL    MW4 8699   4.029   4.186   3.534 -0.5054  0.2918 -0.1509
 2164SOL     OW 8700   4.254   4.360   3.548 -0.4725  0.4641 -0.2980
 2164SOL    HW2 8701   4.263   4.361   3.643 -0.5479  0.2359 -0.2875
 2164SOL    HW3 8702   4.177   4.305   3.531 -0.3780  0.3896 -0.4957
 2164SOL    MW4 8703   4.245   4.353   3.558 -0.4702  0.4244 -0.3228
 2165SOL     OW 8704   3.271   1.724   4.601  0.0100  0.3738 -0.3444
 2165SOL    HW2 8705   3.357   1.739   4.562 -0.7116 -1.1059 -2.6282
 2165SOL    HW3 8706   3.260   1.629   4.601 -1.5249  0.5312  0.1048
 2165SOL    MW4 8707   3.281   1.714   4.596 -0.2875  0.1993 -0.5865
 2166SOL     OW 8708   2.713   0.112   3.812  0.1742 -0.2426  0.2853
 2166SOL    HW2 8709   2.637   0.060   3.841 -1.3312  1.2485 -0.9039
 2166SOL    HW3 8710   2.698   0.127   3.719  0.4381  2.5140  0.6464
 2166SOL    MW4 8711   2.701   0.107   3.804  0.0105  0.3179  0.1757
 2167SOL     OW 8712   1.780   0.197   3.794  0.0949  0.3503  0.2821
 2167SOL    HW2 8713   1.723   0.137   3.843 -1.6626  1.6438 -0.1378
 2167SOL    HW3 8714   1.869   0.163   3.809 -0.8323 -2.2287  0.2194
 2167SOL    MW4 8715   1.785   0.185   3.803 -0.2593  0.1807  0.2186
 2168SOL     OW 8716   3.650   0.779   4.597 -0.0605  0.5367 -0.0402
 2168SOL    HW2 8717   3.575   0.724   4.619  1.1288 -0.8435  0.7205
 2168SOL    HW3 8718   3.636   0.860   4.646 -0.5546 -0.0997  0.8844
 2168SOL    MW4 8719   3.638   0.782   4.606  0.0315  0.2706  0.1817
 2169SOL     OW 8720   4.255   1.553   3.803 -0.0987 -0.4273  0.1766
 2169SOL    HW2 8721   4.255   1.566   3.898  0.5777 -0.5576  0.1954
 2169SOL    HW3 8722   4.336   1.593   3.773  0.0899 -1.1165 -0.2432
 2169SOL    MW4 8723   4.266   1.560   3.811  0.0153 -0.5355  0.1240
 2170SOL     OW 8724   3.373   4.359   4.269 -0.3381 -0.1830 -0.3442
 2170SOL    HW2 8725   3.446   4.299   4.279 -0.2795 -0.1408 -0.5089
 2170SOL    HW3 8726   3.310   4.312   4.215 -0.4422 -0.2269 -0.1850
 2170SOL    MW4 8727   3.374   4.345   4.263 -0.3438 -0.1831 -0.3448
 2171SOL     OW 8728   0.725   1.827   4.409 -0.0256  0.1492 -0.2590
 2171SOL    HW2 8729   0.662   1.873   4.464  0.0749 -0.5543  0.4454
 2171SOL    HW3 8730   0.703   1.735   4.418  1.2089 -0.1250  0.1485
 2171SOL    MW4 8731   0.714   1.821   4.418  0.1506  0.0201 -0.1125
 2172SOL     OW 8732   0.452   0.366   4.674  0.5601  0.0809 -0.0676
 2172SOL    HW2 8733   0.425   0.279   4.704 -0.1856  0.1626 -0.4745
 2172SOL    HW3 8734   0.377   0.398   4.624  1.7610 -0.0360 -1.9659
 2172SOL    MW4 8735   0.438   0.359   4.672  0.6202  0.0762 -0.3715
 2173SOL     OW 8736   2.790   4.646   4.762  0.4277 -0.1155 -0.3759
 2173SOL    HW2 8737   2.803   4.716   4.699  1.3188 -1.1146 -1.3048
 2173SOL    HW3 8738   2.716   4.676   4.816 -1.2529  0.1608 -2.7356
 2173SOL    MW4 8739   2.782   4.659   4.761  0.3235 -0.2108 -0.8097
 2174SOL     OW 8740   4.273   1.283   3.795 -0.5078 -0.2455 -0.4296
 2174SOL    HW2 8741   4.265   1.379   3.795 -1.8345 -0.3443 -0.1755
 2174SOL    HW3 8742   4.296   1.261   3.705 -0.2234  0.3158 -0.4999
 2174SOL    MW4 8743   4.275   1.293   3.783 -0.6452 -0.1844 -0.4053
 2175SOL     OW 8744   0.275   2.826   4.277  0.3583  0.3245 -0.2202
 2175SOL    HW2 8745   0.268   2.919   4.258 -0.9989 -0.0554 -1.7092
 2175SOL    HW3 8746   0.201   2.786   4.231  0.0267 -1.3014  1.6329
 2175SOL    MW4 8747   0.264   2.833   4.269  0.1355  0.0601 -0.1726
 2176SOL     OW 8748   0.010   1.646   3.691 -0.2791  0.2472 -0.0434
 2176SOL    HW2 8749   0.002   1.644   3.595  0.6789  0.5669 -0.1296
 2176SOL    HW3 8750  -0.005   1.737   3.714  1.4083  0.5349 -0.0582
 2176SOL    MW4 8751   0.007   1.657   3.681  0.0700  0.3272 -0.0570
 2177SOL     OW 8752   1.393   0.874   3.763 -0.1769 -0.8489  0.0160
 2177SOL    HW2 8753   1.452   0.802   3.785 -0.5228 -1.3295 -0.6198
 2177SOL    HW3 8754   1.392   0.876   3.668 -0.8922 -0.6057  0.0235
 2177SOL    MW4 8755   1.400   0.865   3.753 -0.3170 -0.8802 -0.0668
 2178SOL     OW 8756   0.277   0.775   4.114  0.5564 -0.0368  0.4598
 2178SOL    HW2 8757   0.209   0.732   4.165  0.9620  0.0915  1.1146
 2178SOL    HW3 8758   0.359   0.749   4.156  1.0193 -1.3489 -1.1720
 2178SOL    MW4 8759   0.279   0.766   4.126  0.6710 -0.1930  0.3314
 2179SOL     OW 8760   1.481   2.283   4.045 -0.3019 -0.3745 -0.4326
 2179SOL    HW2 8761   1.538   2.224   4.095 -0.4370 -0.1047  0.0436
 2179SOL    HW3 8762   1.510   2.371   4.070 -2.3845 -0.2091  1.5242
 2179SOL    MW4 8763   1.493   2.287   4.055 -0.5945 -0.3166 -0.1111
 2180SOL     OW 8764   0.631   2.338   3.854 -0.5707 -0.3800  0.6742
 2180SOL    HW2 8765   0.585   2.383   3.783 -0.1247 -1.5081 -0.3642
 2180SOL    HW3 8766   0.603   2.382   3.933 -1.3181  0.7178 -0.1890
 2180SOL    MW4 8767   0.621   2.350   3.855 -0.6105 -0.3841  0.4232
 2181SOL     OW 8768   1.562   3.886   3.887 -0.4821  0.3035  0.1947
 2181SOL    HW2 8769   1.554   3.851   3.976  0.6104 -0.7270 -0.1009
 2181SOL    HW3 8770   1.542   3.812   3.830 -0.9713  0.9022 -0.4301
 2181SOL    MW4 8771   1.558   3.872   3.891 -0.4025  0.2465  0.0732
 2182SOL     OW 8772   4.473   3.223   3.770  0.5147  0.3266  0.2386
 2182SOL    HW2 8773   4.551   3.177   3.803  0.2527 -0.8949 -0.8287
 2182SOL    HW3 8774   4.492   3.239   3.678 -0.5538 -0.0895 -0.0556
 2182SOL    MW4 8775   4.486   3.219   3.762  0.3390  0.1106  0.0589
 2183SOL     OW 8776   0.008   3.480   3.873  0.3224 -0.3883 -0.3343
 2183SOL    HW2 8777  -0.055   3.536   3.828 -1.0695 -0.8284  1.0357
 2183SOL    HW3 8778  -0.016   3.391   3.849  1.3041 -0.5052 -0.9278
 2183SOL    MW4 8779  -0.003   3.476   3.864  0.2682 -0.4618 -0.2317
 2184SOL     OW 8780   2.516   3.021   4.567  0.7677  0.0384  0.1764
 2184SOL    HW2 8781   2.578   3.041   4.497 -0.6303  0.1745 -1.0535
 2184SOL    HW3 8782   2.452   3.092   4.564 -0.0183 -0.6252  0.7485
 2184SOL    MW4 8783   2.516   3.033   4.557  0.4797 -0.0310  0.0901
 2185SOL     OW 8784   4.427   0.845   4.585 -0.0565 -0.2309 -0.4891
 2185SOL    HW2 8785   4.369   0.909   4.627  0.4086  0.1181 -0.3778
 2185SOL    HW3 8786   4.386   0.827   4.501 -1.2684 -1.3085  0.3033
 2185SOL    MW4 8787   4.414   0.851   4.580 -0.1545 -0.3271 -0.3695
 2186SOL     OW 8788   0.028   4.019   3.752 -0.2333  0.2206  0.3744
 2186SOL    HW2 8789  -0.059   3.982   3.766 -0.7037  1.1168 -0.1264
 2186SOL    HW3 8790   0.032   4.095   3.811  0.3027  0.0252  0.5902
 2186SOL    MW4 8791   0.017   4.024   3.762 -0.2246  0.3128  0.3366
 2187SOL     OW 8792   3.807   1.266   3.776  0.2222  0.1889 -0.0289
 2187SOL    HW2 8793   3.818   1.359   3.797 -0.3024  0.4654 -0.9484
 2187SOL    HW3 8794   3.884   1.224   3.814  0.4472  0.9913  0.4291
 2187SOL    MW4 8795   3.819   1.273   3.784  0.1826  0.3313 -0.0899
 2188SOL     OW 8796   2.520   2.474   4.132  0.1246  0.0526  0.3275
 2188SOL    HW2 8797   2.600   2.485   4.184  1.2698  0.3787 -1.4694
 2188SOL    HW3 8798   2.504   2.379   4.133  0.9238 -0.0886  0.1182
 2188SOL    MW4 8799   2.528   2.463   4.139  0.3810  0.0770  0.0629
 2189SOL     OW 8800   1.303   0.435   4.228  0.3263 -0.6312 -0.1828
 2189SOL    HW2 8801   1.354   0.502   4.273  0.1389 -0.7446  0.2035
 2189SOL    HW3 8802   1.309   0.358   4.285 -1.1199 -0.3437  0.3879
 2189SOL    MW4 8803   1.311   0.433   4.242  0.1109 -0.6083 -0.0563
 2190SOL     OW 8804   0.671   3.644   3.793  0.1266 -0.1744 -0.0784
 2190SOL    HW2 8805   0.672   3.731   3.834  1.6269 -0.6672  0.9634
 2190SOL    HW3 8806   0.673   3.662   3.699  0.2043  0.9157  0.1208
 2190SOL    MW4 8807   0.671   3.658   3.786  0.3349 -0.0956  0.0854
 2191SOL     OW 8808   0.683   0.520   3.720  0.1343  0.0121  0.5447
 2191SOL    HW2 8809   0.672   0.603   3.767  0.3476  0.2711  0.1406
 2191SOL    HW3 8810   0.618   0.462   3.759 -0.3001  0.4902  0.5475
 2191SOL    MW4 8811   0.673   0.524   3.731  0.1051  0.1093  0.4914
 2192SOL     OW 8812   1.469   0.855   4.155  0.5566  0.0627  0.3806
 2192SOL    HW2 8813   1.375   0.862   4.145  0.2658 -0.0736  2.7653
 2192SOL    HW3 8814   1.493   0.924   4.217  1.8093 -0.8216  0.9106
 2192SOL    MW4 8815   1.460   0.865   4.162  0.6835 -0.0719  0.7648
 2193SOL     OW 8816   0.834   2.375   4.643 -0.0358  0.3823  0.3269
 2193SOL    HW2 8817   0.745   2.398   4.672 -0.4314 -0.4433 -0.2046
 2193SOL    HW3 8818   0.829   2.379   4.548  0.4616  0.1727  0.2970
 2193SOL    MW4 8819   0.821   2.379   4.635 -0.0224  0.2458  0.2527
 2194SOL     OW 8820   0.495   0.874   3.693  0.0845 -0.3523 -0.4446
 2194SOL    HW2 8821   0.495   0.966   3.719  0.0908 -0.0483 -1.4729
 2194SOL    HW3 8822   0.561   0.833   3.748  1.3683  0.6385 -1.2130
 2194SOL    MW4 8823   0.504   0.880   3.704  0.2547 -0.1814 -0.6819
 2195SOL     OW 8824   2.011   3.882   3.928  0.1835  0.3313  0.5076
 2195SOL    HW2 8825   2.017   3.795   3.888 -0.4395  0.7729 -0.5564
 2195SOL    HW3 8826   2.099   3.920   3.915 -0.1905  0.7161 -1.0328
 2195SOL    MW4 8827   2.024   3.875   3.921  0.0517  0.4401  0.1640
 2196SOL     OW 8828   4.280   0.536   3.801 -0.2263 -0.0817 -0.5495
 2196SOL    HW2 8829   4.275   0.629   3.822 -1.9583  0.0417 -1.4087
 2196SOL    HW3 8830   4.371   0.513   3.816 -0.1067  1.3922  1.1646
 2196SOL    MW4 8831   4.291   0.545   3.806 -0.4392  0.1290 -0.4370
 2197SOL     OW 8832   0.183   1.536   3.882  0.3569 -0.0313  0.0697
 2197SOL    HW2 8833   0.122   1.566   3.814  2.4392 -0.2285 -1.9592
 2197SOL    HW3 8834   0.131   1.532   3.962 -2.2754 -0.1910 -1.6084
 2197SOL    MW4 8835   0.168   1.539   3.883  0.2843 -0.0783 -0.4196
 2198SOL     OW 8836   4.276   2.054   3.701  0.1836  0.0948  0.1278
 2198SOL    HW2 8837   4.257   2.035   3.609  1.6165  0.5822 -0.2787
 2198SOL    HW3 8838   4.201   2.019   3.748 -1.0011  0.6263 -1.3050
 2198SOL    MW4 8839   4.264   2.047   3.695  0.2170  0.2294 -0.1149
 2199SOL     OW 8840   0.675   2.080   3.768 -0.1042  0.1964 -0.1106
 2199SOL    HW2 8841   0.674   2.169   3.803 -0.1447  0.4021 -0.6305
 2199SOL    HW3 8842   0.588   2.045   3.788 -0.1809  0.3674 -0.1421
 2199SOL    MW4 8843   0.663   2.087   3.775 -0.1197  0.2460 -0.1833
 2200SOL     OW 8844   1.943   3.093   4.124 -0.7276 -0.3689  0.2128
 2200SOL    HW2 8845   2.004   3.068   4.193 -0.7022 -0.0974  0.2878
 2200SOL    HW3 8846   1.989   3.070   4.043 -0.5105 -0.1324  0.2674
 2200SOL    MW4 8847   1.957   3.086   4.122 -0.6957 -0.3018  0.2303
 2201SOL     OW 8848   3.135   3.458   3.864  0.5276  0.0673  0.0190
 2201SOL    HW2 8849   3.126   3.367   3.840  2.2542  0.2879 -1.5707
 2201SOL    HW3 8850   3.061   3.502   3.823  1.1643 -0.2160 -1.4611
 2201SOL    MW4 8851   3.124   3.452   3.856  0.8395  0.0589 -0.3860
 2202SOL     OW 8852   0.470   2.504   3.691  0.0443  0.2381 -0.5456
 2202SOL    HW2 8853   0.382   2.468   3.704  0.8322 -1.8615 -0.9200
 2202SOL    HW3 8854   0.480   2.507   3.596  0.3972  0.4332 -0.5022
 2202SOL    MW4 8855   0.459   2.500   3.680  0.1948 -0.0134 -0.5891
 2203SOL     OW 8856   2.210   0.166   3.536  0.7634  0.1401 -0.1429
 2203SOL    HW2 8857   2.137   0.103   3.536 -0.6187  1.7047 -0.1933
 2203SOL    HW3 8858   2.239   0.168   3.627 -1.4142  1.9167  0.5499
 2203SOL    MW4 8859   2.204   0.158   3.548  0.2937  0.5810 -0.0582
 2204SOL     OW 8860   0.693   2.869   3.445 -0.4250  0.3064  0.5230
 2204SOL    HW2 8861   0.606   2.833   3.432 -0.1022  0.0125 -0.8967
 2204SOL    HW3 8862   0.750   2.817   3.387  0.6037  0.8112  1.0663
 2204SOL    MW4 8863   0.689   2.857   3.435 -0.2466  0.3343  0.4077
 2205SOL     OW 8864   3.764   3.321   4.523  0.4040 -0.0018 -0.4377
 2205SOL    HW2 8865   3.746   3.270   4.602  0.6951  0.4104 -0.1009
 2205SOL    HW3 8866   3.701   3.393   4.527  0.0666 -0.2733 -0.8546
 2205SOL    MW4 8867   3.753   3.324   4.534  0.3982  0.0169 -0.4482
 2206SOL     OW 8868   3.730   2.137   4.567 -0.0901  0.3476  0.8533
 2206SOL    HW2 8869   3.748   2.043   4.557  0.3564  0.5006  0.1403
 2206SOL    HW3 8870   3.668   2.157   4.497  0.1613  0.6724  0.7227
 2206SOL    MW4 8871   3.724   2.127   4.556  0.0021  0.4108  0.7424
 2207SOL     OW 8872   2.750   0.483   4.756  0.4848 -0.0324 -0.1613
 2207SOL    HW2 8873   2.682   0.466   4.821  0.7245  1.2626  0.4387
 2207SOL    HW3 8874   2.709   0.543   4.694  0.6663 -0.2667 -0.5078
 2207SOL    MW4 8875   2.736   0.489   4.756  0.5403  0.1076 -0.1278
 2208SOL     OW 8876   0.895   3.508   3.905  0.3652 -0.7297  0.5436
 2208SOL    HW2 8877   0.826   3.568   3.877  0.2105 -1.3418 -0.3883
 2208SOL    HW3 8878   0.864   3.421   3.879  0.8311 -1.1604  1.4062
 2208SOL    MW4 8879   0.882   3.504   3.898  0.4063 -0.8669  0.5343
 2209SOL     OW 8880   0.903   4.050   3.784  0.5633 -0.3068  0.1855
 2209SOL    HW2 8881   0.924   4.028   3.693 -0.2166 -1.3076  0.2368
 2209SOL    HW3 8882   0.910   4.146   3.787 -0.2050 -0.1871 -1.1381
 2209SOL    MW4 8883   0.907   4.060   3.772  0.3590 -0.4230  0.0179
 2210SOL     OW 8884   1.730   0.527   4.352 -0.4908  0.0343 -0.5759
 2210SOL    HW2 8885   1.743   0.490   4.440 -0.4569 -0.0809 -0.6290
 2210SOL    HW3 8886   1.641   0.563   4.354 -0.3207  0.4438 -0.3468
 2210SOL    MW4 8887   1.720   0.527   4.364 -0.4638  0.0731 -0.5522
 2211SOL     OW 8888   2.077   0.334   4.341  0.1535  0.0463  0.1386
 2211SOL    HW2 8889   2.043   0.245   4.351 -1.8425  0.6102 -1.2562
 2211SOL    HW3 8890   2.072   0.371   4.429 -0.5394 -0.7156  0.4362
 2211SOL    MW4 8891   2.072   0.327   4.354 -0.2012  0.0202 -0.0067
 2212SOL     OW 8892   0.438   4.260   3.849  0.4043 -0.5149 -0.4542
 2212SOL    HW2 8893   0.456   4.257   3.943  1.2020 -1.6602 -0.6325
 2212SOL    HW3 8894   0.500   4.323   3.814  0.6117 -0.6456 -0.3215
 2212SOL    MW4 8895   0.448   4.268   3.857  0.5369 -0.6828 -0.4604
 2213SOL     OW 8896   1.103   3.948   3.958  0.8390 -0.2654  0.5548
 2213SOL    HW2 8897   1.037   3.970   3.893  0.7656 -0.1126  0.6787
 2213SOL    HW3 8898   1.187   3.966   3.915  0.8444 -1.6360 -0.0263
 2213SOL    MW4 8899   1.106   3.953   3.944  0.8301 -0.4261  0.4945
 2214SOL     OW 8900   2.806   2.148   4.500 -0.0420 -0.0758  0.0370
 2214SOL    HW2 8901   2.798   2.123   4.408  0.1240 -3.1463  0.7903
 2214SOL    HW3 8902   2.717   2.139   4.534 -0.2476  1.7810  0.0452
 2214SOL    MW4 8903   2.793   2.143   4.492 -0.0472 -0.2358  0.1373
 2215SOL     OW 8904   3.207   1.836   4.092  0.0040  0.2398 -0.1878
 2215SOL    HW2 8905   3.167   1.912   4.135 -0.5984 -0.4965  0.5721
 2215SOL    HW3 8906   3.170   1.835   4.004 -1.3394 -0.1812  0.3676
 2215SOL    MW4 8907   3.197   1.846   4.086 -0.2525  0.0870 -0.0143
 2216SOL     OW 8908   2.257   4.111   4.061 -0.1558 -0.3472 -0.0030
 2216SOL    HW2 8909   2.277   4.053   3.988 -1.0372  0.0794 -0.5909
 2216SOL    HW3 8910   2.269   4.199   4.025 -1.1345 -0.1248  0.2047
 2216SOL    MW4 8911   2.261   4.115   4.046 -0.4013 -0.2618 -0.0534
 2217SOL     OW 8912   0.656   0.348   4.309  0.2371  0.0892 -0.8231
 2217SOL    HW2 8913   0.740   0.343   4.263  0.8622 -0.6609  0.3866
 2217SOL    HW3 8914   0.679   0.378   4.397 -0.7275 -0.4075 -0.3960
 2217SOL    MW4 8915   0.670   0.352   4.315  0.1924 -0.0753 -0.6070
 2218SOL     OW 8916   0.903   2.056   4.368 -0.5732  0.0528 -0.1675
 2218SOL    HW2 8917   0.838   1.986   4.380 -0.2064 -0.3703 -0.5892
 2218SOL    HW3 8918   0.942   2.067   4.454 -1.1203  0.2231  0.0619
 2218SOL    MW4 8919   0.899   2.048   4.381 -0.5969  0.0193 -0.1926
 2219SOL     OW 8920   1.749   3.474   3.865  0.0258  0.2320  0.2057
 2219SOL    HW2 8921   1.826   3.523   3.837  0.0969  0.0714  0.1229
 2219SOL    HW3 8922   1.753   3.473   3.960 -0.1294  0.6392  0.2170
 2219SOL    MW4 8923   1.759   3.480   3.874  0.0147  0.2644  0.1962
 2220SOL     OW 8924   4.452   1.103   4.186 -0.0562 -0.4455  0.1500
 2220SOL    HW2 8925   4.455   1.120   4.092  1.1850 -0.3797  0.1925
 2220SOL    HW3 8926   4.533   1.056   4.204 -0.1304 -0.1631  1.2430
 2220SOL    MW4 8927   4.463   1.099   4.176  0.0973 -0.3994  0.2999
 2221SOL     OW 8928   0.892   1.159   3.862  0.2440  0.1379  0.0507
 2221SOL    HW2 8929   0.827   1.215   3.819 -0.1027 -0.0185  0.3718
 2221SOL    HW3 8930   0.884   1.075   3.817 -0.0855 -0.0117  0.3875
 2221SOL    MW4 8931   0.883   1.155   3.850  0.1547  0.0974  0.1378
 2222SOL     OW 8932   3.183   2.072   4.263 -0.1769 -0.1889  0.3180
 2222SOL    HW2 8933   3.134   2.048   4.342  0.3441  0.7002  0.9263
 2222SOL    HW3 8934   3.234   2.149   4.290  0.8177 -0.5283 -0.5870
 2222SOL    MW4 8935   3.183   2.079   4.277  0.0231 -0.1163  0.2785
 2223SOL     OW 8936   1.793   1.731   4.480  0.4571 -0.4935 -0.5538
 2223SOL    HW2 8937   1.761   1.655   4.432 -1.9338  0.5344 -0.6357
 2223SOL    HW3 8938   1.821   1.792   4.412  0.8959 -0.6547 -0.5218
 2223SOL    MW4 8939   1.793   1.729   4.465  0.1996 -0.3790 -0.5603
 2224SOL     OW 8940   1.763   0.428   4.595  0.3037 -0.0827 -0.0007
 2224SOL    HW2 8941   1.777   0.333   4.587  0.7817 -0.0968  0.9971
 2224SOL    HW3 8942   1.683   0.436   4.647  0.5462  0.0658  0.3500
 2224SOL    MW4 8943   1.754   0.416   4.600  0.3988 -0.0650  0.1774
 2225SOL     OW 8944   0.879   1.151   4.163 -0.4504  0.3045  0.8367
 2225SOL    HW2 8945   0.886   1.165   4.069  0.5249  1.8199  1.1076
 2225SOL    HW3 8946   0.969   1.134   4.192 -0.9177 -1.4840  1.3166
 2225SOL    MW4 8947   0.892   1.151   4.155 -0.3833  0.2685  0.9356
 2226SOL     OW 8948   1.381   1.989   4.334 -0.5604 -0.0257  0.1817
 2226SOL    HW2 8949   1.421   1.925   4.392  1.7104  3.0230  2.1737
 2226SOL    HW3 8950   1.328   2.044   4.392 -0.0341  1.7291 -0.9709
 2226SOL    MW4 8951   1.379   1.988   4.349 -0.1913  0.6081  0.2923
 2227SOL     OW 8952   2.991   0.798   4.171  0.1200 -0.4273 -0.5717
 2227SOL    HW2 8953   2.959   0.792   4.081 -1.0381  1.1613 -0.2968
 2227SOL    HW3 8954   2.959   0.883   4.202  0.9533 -0.7228  1.1644
 2227SOL    MW4 8955   2.983   0.808   4.164  0.0772 -0.2567 -0.3066
 2228SOL     OW 8956   3.135   3.501   4.149 -0.0720 -0.5326 -0.2514
 2228SOL    HW2 8957   3.134   3.414   4.190 -0.1527 -0.8702 -0.9587
 2228SOL    HW3 8958   3.152   3.483   4.056  0.3660  0.2403 -0.3216
 2228SOL    MW4 8959   3.137   3.487   4.142 -0.0246 -0.4752 -0.3543
 2229SOL     OW 8960   0.890   3.259   3.769  0.8508  0.4318 -0.1718
 2229SOL    HW2 8961   0.962   3.215   3.814  0.5416 -0.2570 -0.3322
 2229SOL    HW3 8962   0.919   3.266   3.678  0.3508 -0.6733 -0.4272
 2229SOL    MW4 8963   0.903   3.254   3.763  0.7439  0.1950 -0.2267
 2230SOL     OW 8964   0.936   3.255   3.495  0.0918  0.2625 -0.0428
 2230SOL    HW2 8965   0.849   3.237   3.458 -0.3571 -2.9738  2.3654
 2230SOL    HW3 8966   0.995   3.195   3.449  0.6312  0.7790 -0.0236
 2230SOL    MW4 8967   0.932   3.245   3.484  0.1037 -0.0966  0.2778
 2231SOL     OW 8968   1.170   3.461   4.258 -0.0467 -0.6934 -0.0412
 2231SOL    HW2 8969   1.096   3.517   4.233 -0.1884 -0.7196  0.3178
 2231SOL    HW3 8970   1.140   3.372   4.240  0.2357 -0.6419 -0.7573
 2231SOL    MW4 8971   1.156   3.457   4.253 -0.0283 -0.6902 -0.0877
 2232SOL     OW 8972   2.756   2.496   4.249  0.4597  0.1218  0.0604
 2232SOL    HW2 8973   2.768   2.591   4.251  0.4335  0.1160  0.7498
 2232SOL    HW3 8974   2.725   2.474   4.337 -0.5217 -0.3935 -0.4097
 2232SOL    MW4 8975   2.754   2.505   4.261  0.3269  0.0529  0.0896
 2233SOL     OW 8976   0.842   0.277   4.757  0.2928 -0.3522  0.3125
 2233SOL    HW2 8977   0.814   0.271   4.848 -1.0480 -1.8713 -0.1791
 2233SOL    HW3 8978   0.857   0.186   4.731 -0.7291 -0.0468 -1.4032
 2233SOL    MW4 8979   0.841   0.264   4.766 -0.0190 -0.5123  0.0215
 2234SOL     OW 8980   1.060   1.760   4.202 -0.5644  0.0588 -0.7579
 2234SOL    HW2 8981   1.060   1.744   4.296  1.0076 -1.2469 -0.9474
 2234SOL    HW3 8982   1.116   1.691   4.166 -1.8566  0.0126 -2.7458
 2234SOL    MW4 8983   1.067   1.749   4.209 -0.5275 -0.1196 -1.0452
 2235SOL     OW 8984   3.566   4.245   3.877 -0.3096  0.1910 -0.1640
 2235SOL    HW2 8985   3.644   4.300   3.882  1.1354 -1.7122 -1.4675
 2235SOL    HW3 8986   3.571   4.189   3.954 -0.3463 -0.0101 -0.3083
 2235SOL    MW4 8987   3.577   4.245   3.888 -0.1237 -0.0863 -0.3552
 2236SOL     OW 8988   1.296   3.991   4.229 -0.3745  0.0759 -0.3648
 2236SOL    HW2 8989   1.380   3.954   4.204  0.3801  1.7428 -0.3211
 2236SOL    HW3 8990   1.265   3.935   4.300  1.1696  0.0705  0.3094
 2236SOL    MW4 8991   1.303   3.979   4.235 -0.0713  0.2954 -0.2699
 2237SOL     OW 8992   2.201   2.640   3.742  0.1601 -0.3112 -0.4715
 2237SOL    HW2 8993   2.191   2.582   3.817 -0.9729 -0.4495 -0.7186
 2237SOL    HW3 8994   2.284   2.684   3.756  0.5508 -1.2660  0.2271
 2237SOL    MW4 8995   2.210   2.638   3.754  0.0622 -0.4556 -0.4117
 2238SOL     OW 8996   0.894   0.896   3.752 -0.3436  0.6245  0.2835
 2238SOL    HW2 8997   0.897   0.879   3.658 -0.2735  1.1600  0.1862
 2238SOL    HW3 8998   0.970   0.849   3.787  0.5167  1.6513 -0.1351
 2238SOL    MW4 8999   0.905   0.888   3.744 -0.2208  0.8306  0.2153
 2239SOL     OW 9000   2.061   0.773   3.414 -0.8568  0.0851  0.1407
 2239SOL    HW2 9001   2.134   0.829   3.440  0.0023 -1.1555  0.4771
 2239SOL    HW3 9002   2.062   0.774   3.318  0.8943 -1.5154  0.1107
 2239SOL    MW4 9003   2.071   0.780   3.405 -0.5124 -0.2898  0.1812
 2240SOL     OW 9004   1.758   0.421   3.404  0.7548  0.6901 -0.4983
 2240SOL    HW2 9005   1.781   0.419   3.311  0.3760 -0.0571 -0.5798
 2240SOL    HW3 9006   1.769   0.331   3.433  1.4006  1.0346  0.3161
 2240SOL    MW4 9007   1.763   0.409   3.395  0.7900  0.6370 -0.4015
 2241SOL     OW 9008   0.446   2.757   3.798  0.4311 -0.3213 -0.6349
 2241SOL    HW2 9009   0.484   2.751   3.886  0.2283 -0.2500 -0.5420
 2241SOL    HW3 9010   0.446   2.667   3.766 -0.9631 -0.5867  0.0606
 2241SOL    MW4 9011   0.451   2.744   3.805  0.2204 -0.3469 -0.5307
 2242SOL     OW 9012   2.160   0.046   4.609 -0.4472  0.6481 -0.1659
 2242SOL    HW2 9013   2.124   0.103   4.676  0.3730  1.3000 -0.2649
 2242SOL    HW3 9014   2.250   0.077   4.597 -0.6851  0.7634 -1.7995
 2242SOL    MW4 9015   2.167   0.057   4.616 -0.3703  0.7494 -0.3943
 2243SOL     OW 9016   3.453   3.282   4.307 -0.0253  0.2274 -0.6213
 2243SOL    HW2 9017   3.521   3.216   4.322  0.5175  0.9858  0.2706
 2243SOL    HW3 9018   3.392   3.239   4.246  0.4807 -0.9829 -0.3008
 2243SOL    MW4 9019   3.453   3.267   4.301  0.1130  0.1678 -0.4606
 2244SOL     OW 9020   1.745   0.338   4.137  0.0228 -0.2933  0.2642
 2244SOL    HW2 9021   1.726   0.392   4.060  1.4183 -0.0093  0.1076
 2244SOL    HW3 9022   1.741   0.399   4.211  0.7650 -0.1326  0.1782
 2244SOL    MW4 9023   1.742   0.353   4.136  0.3048 -0.2347  0.2322
 2245SOL     OW 9024   3.001   1.706   4.209 -0.5091 -0.3584 -0.4661
 2245SOL    HW2 9025   2.934   1.768   4.177  0.5238  1.3279  0.5606
 2245SOL    HW3 9026   3.082   1.735   4.168  0.0341 -0.8937  0.2226
 2245SOL    MW4 9027   3.003   1.718   4.199 -0.3011 -0.2067 -0.2398
 2246SOL     OW 9028   1.540   1.050   4.327 -0.0715  0.0361  0.2724
 2246SOL    HW2 9029   1.626   1.090   4.319  0.1551 -0.3092  0.9610
 2246SOL    HW3 9030   1.490   1.112   4.381 -0.0043 -0.1497  0.5519
 2246SOL    MW4 9031   1.545   1.063   4.333 -0.0327 -0.0339  0.4001
 2247SOL     OW 9032   2.908   1.463   4.119  0.2352  0.1775  0.2889
 2247SOL    HW2 9033   2.932   1.548   4.157 -1.6150  0.8257  0.0834
 2247SOL    HW3 9034   2.885   1.482   4.028 -2.8050 -0.0316  0.9499
 2247SOL    MW4 9035   2.908   1.477   4.112 -0.4098  0.2354  0.3495
 2248SOL     OW 9036   3.127   4.221   4.136  0.2349 -0.0602  0.0361
 2248SOL    HW2 9037   3.144   4.137   4.177 -0.5343 -0.4784 -0.5029
 2248SOL    HW3 9038   3.056   4.260   4.188 -0.1160 -0.1959 -0.3347
 2248SOL    MW4 9039   3.120   4.215   4.148  0.0870 -0.1330 -0.0839
 2249SOL     OW 9040   0.975   2.718   3.691 -0.4672  0.4751  0.5164
 2249SOL    HW2 9041   0.943   2.629   3.707  0.0973 -0.0496 -1.2082
 2249SOL    HW3 9042   0.897   2.773   3.696 -0.8014 -0.0779  1.7414
 2249SOL    MW4 9043   0.961   2.714   3.694 -0.4368  0.3328  0.4506
 2250SOL     OW 9044   3.592   1.101   3.399  0.5417 -0.5456 -0.0283
 2250SOL    HW2 9045   3.569   1.017   3.437 -2.2421 -0.2155 -0.8482
 2250SOL    HW3 9046   3.599   1.084   3.305 -0.1035  0.1253 -0.2087
 2250SOL    MW4 9047   3.590   1.088   3.392  0.0889 -0.4134 -0.1602
 2251SOL     OW 9048   3.176   0.115   3.513  0.2394  0.2413  0.2044
 2251SOL    HW2 9049   3.089   0.087   3.486  0.1837  0.3433  0.2834
 2251SOL    HW3 9050   3.194   0.193   3.461  0.2555  0.2615  0.2405
 2251SOL    MW4 9051   3.167   0.121   3.502  0.2341  0.2574  0.2196
 2252SOL     OW 9052   1.132   0.539   3.784 -0.3406  0.1511  0.1136
 2252SOL    HW2 9053   1.202   0.496   3.833  0.1544 -0.5109 -1.1642
 2252SOL    HW3 9054   1.137   0.631   3.811 -0.1354 -0.2238  1.3678
 2252SOL    MW4 9055   1.142   0.545   3.794 -0.2481  0.0143  0.1104
 2253SOL     OW 9056   0.021   2.677   3.863 -0.2529  0.4309 -0.7211
 2253SOL    HW2 9057   0.098   2.723   3.829  0.4461 -0.7462 -0.7726
 2253SOL    HW3 9058   0.027   2.687   3.958  1.3801 -1.8054 -0.5503
 2253SOL    MW4 9059   0.032   2.684   3.871  0.0548 -0.0193 -0.7050
 2254SOL     OW 9060   3.117   1.634   3.738 -0.0566  0.2129  0.5902
 2254SOL    HW2 9061   3.177   1.597   3.803  0.5704 -2.2098 -1.2837
 2254SOL    HW3 9062   3.035   1.585   3.751  0.5848 -1.5004 -1.4858
 2254SOL    MW4 9063   3.114   1.623   3.748  0.1106 -0.3328  0.0691
 2255SOL     OW 9064   0.648   4.414   3.752  0.2291  0.2063 -0.0996
 2255SOL    HW2 9065   0.729   4.377   3.788 -0.2206 -0.9279 -0.2100
 2255SOL    HW3 9066   0.657   4.405   3.658 -0.2256 -0.3829 -0.0929
 2255SOL    MW4 9067   0.660   4.408   3.745  0.1097 -0.0210 -0.1135
 2256SOL     OW 9068   2.000   3.080   3.857  0.1007 -0.8714  0.6588
 2256SOL    HW2 9069   1.920   3.117   3.819 -0.7318 -1.1950  2.0827
 2256SOL    HW3 9070   2.013   2.998   3.810 -1.5470 -1.8152  1.8218
 2256SOL    MW4 9071   1.991   3.074   3.846 -0.2264 -1.0388  1.0002
 2257SOL     OW 9072   0.031   0.418   3.869  0.3298 -0.4140  0.2842
 2257SOL    HW2 9073   0.114   0.464   3.857 -0.3298  0.7270  0.0030
 2257SOL    HW3 9074   0.047   0.330   3.834  1.2208  0.0121 -0.4022
 2257SOL    MW4 9075   0.044   0.412   3.863  0.3603 -0.2072  0.1564
 2258SOL     OW 9076   1.586   0.016   3.432 -0.0501 -0.1837 -0.3909
 2258SOL    HW2 9077   1.585  -0.075   3.461  0.7100  0.9730  3.5908
 2258SOL    HW3 9078   1.504   0.053   3.467  1.2064  1.4280  0.9739
 2258SOL    MW4 9079   1.575   0.009   3.441  0.2160  0.1817  0.3145
 2259SOL     OW 9080   2.487   0.932   4.267  0.5802 -0.3573  0.0560
 2259SOL    HW2 9081   2.463   0.914   4.176  1.1979 -0.9933  0.0181
 2259SOL    HW3 9082   2.407   0.966   4.307 -0.0118 -1.1882 -0.4204
 2259SOL    MW4 9083   2.473   0.935   4.260  0.5836 -0.5508 -0.0124
 2260SOL     OW 9084   0.255   4.427   4.244 -0.1005  0.0883 -0.0406
 2260SOL    HW2 9085   0.269   4.447   4.336 -1.5889 -1.7061  0.5954
 2260SOL    HW3 9086   0.167   4.391   4.239  0.0581 -0.1153 -2.1264
 2260SOL    MW4 9087   0.246   4.425   4.255 -0.2759 -0.1750 -0.2317
 2261SOL     OW 9088   1.611   4.447   3.821  0.1392  0.5441 -0.1289
 2261SOL    HW2 9089   1.690   4.407   3.857  0.3009  0.5388 -0.4892
 2261SOL    HW3 9090   1.622   4.442   3.726 -0.3927  0.3534 -0.1813
 2261SOL    MW4 9091   1.623   4.441   3.813  0.0902  0.5183 -0.1833
 2262SOL     OW 9092   1.307   1.949   3.825 -0.3329  0.2043 -0.3548
 2262SOL    HW2 9093   1.239   2.005   3.787  0.6756  0.8577 -1.2099
 2262SOL    HW3 9094   1.296   1.960   3.920  0.0878  2.1551 -0.5125
 2262SOL    MW4 9095   1.297   1.958   3.833 -0.1442  0.5480 -0.4885
 2263SOL     OW 9096   2.653   4.489   4.342  0.2722 -0.0486 -0.0135
 2263SOL    HW2 9097   2.686   4.412   4.296  1.2522  0.9590 -1.0407
 2263SOL    HW3 9098   2.581   4.521   4.287 -0.6126 -0.6587  0.7938
 2263SOL    MW4 9099   2.648   4.483   4.329  0.2844  0.0043 -0.0420
 2264SOL     OW 9100   0.252   2.353   3.777  0.0881  0.2748  0.4214
 2264SOL    HW2 9101   0.158   2.370   3.769  0.0865  0.0471 -0.0654
 2264SOL    HW3 9102   0.273   2.377   3.867 -0.2941  1.0258  0.3156
 2264SOL    MW4 9103   0.242   2.359   3.788  0.0374  0.3438  0.3428
 2265SOL     OW 9104   3.179   0.205   4.744 -0.5878  0.2404  0.0949
 2265SOL    HW2 9105   3.106   0.264   4.721 -0.2805  0.3150 -0.7088
 2265SOL    HW3 9106   3.138   0.133   4.791 -1.3464 -0.3267 -1.4217
 2265SOL    MW4 9107   3.164   0.203   4.747 -0.6473  0.1754 -0.2112
 2266SOL     OW 9108   1.866   0.838   3.804 -0.2606 -0.4615  0.3094
 2266SOL    HW2 9109   1.911   0.755   3.816  1.7500  0.6960  1.0454
 2266SOL    HW3 9110   1.810   0.848   3.881 -0.3087 -1.0010  0.3425
 2266SOL    MW4 9111   1.864   0.829   3.815 -0.0017 -0.3800  0.4108
 2267SOL     OW 9112   1.097   1.234   4.471  0.1807 -0.2077  0.1949
 2267SOL    HW2 9113   1.093   1.329   4.466  1.6760 -0.0738  1.3273
 2267SOL    HW3 9114   1.188   1.215   4.493  0.4537 -1.9896 -2.2155
 2267SOL    MW4 9115   1.109   1.244   4.473  0.4140 -0.4252  0.0262
 2268SOL     OW 9116   1.961   2.400   4.893  0.9688  0.0223  0.1946
 2268SOL    HW2 9117   1.983   2.309   4.913  0.9495 -0.1603 -0.6078
 2268SOL    HW3 9118   1.994   2.414   4.804  0.7847  0.7331  0.2364
 2268SOL    MW4 9119   1.968   2.389   4.884  0.9419  0.0920  0.0944
 2269SOL     OW 9120   1.316   3.273   3.782  0.1807 -0.1471 -0.0720
 2269SOL    HW2 9121   1.328   3.365   3.804  0.3467 -0.0839 -0.4300
 2269SOL    HW3 9122   1.384   3.227   3.832  0.0428 -0.0824  0.1716
 2269SOL    MW4 9123   1.327   3.279   3.791  0.1844 -0.1304 -0.0870
 2270SOL     OW 9124   1.078   3.399   4.629 -0.4021 -0.4689 -0.3439
 2270SOL    HW2 9125   1.023   3.390   4.551  0.4342 -2.4856 -0.7511
 2270SOL    HW3 9126   1.020   3.378   4.701 -0.7459 -0.3447 -0.5842
 2270SOL    MW4 9127   1.063   3.395   4.628 -0.3370 -0.7186 -0.4292
 2271SOL     OW 9128   2.650   3.452   4.457  0.1029  0.2000 -0.5293
 2271SOL    HW2 9129   2.581   3.493   4.508 -1.8082 -0.1476 -2.7575
 2271SOL    HW3 9130   2.722   3.516   4.458 -1.5206  2.0875 -1.0268
 2271SOL    MW4 9131   2.650   3.466   4.464 -0.3636  0.4032 -0.8883
 2272SOL     OW 9132   0.924   3.574   4.175 -0.0943 -0.8072  0.0117
 2272SOL    HW2 9133   0.911   3.544   4.085  2.1370 -0.6187 -0.3945
 2272SOL    HW3 9134   0.955   3.664   4.166  0.8789 -1.0445  0.9379
 2272SOL    MW4 9135   0.927   3.582   4.162  0.3285 -0.8140  0.0801
 2273SOL     OW 9136   1.082   2.774   4.443 -0.1025 -0.4141 -0.1468
 2273SOL    HW2 9137   1.057   2.704   4.504 -0.1836 -0.5221 -0.3029
 2273SOL    HW3 9138   1.039   2.750   4.361 -2.1092  1.1058  0.4291
 2273SOL    MW4 9139   1.073   2.761   4.440 -0.3779 -0.2279 -0.0916
 2274SOL     OW 9140   3.575   3.547   4.551  0.4871  0.4603  0.5899
 2274SOL    HW2 9141   3.503   3.597   4.514  1.2507  0.1892 -1.3121
 2274SOL    HW3 9142   3.652   3.604   4.540  1.3635 -1.0663 -1.6045
 2274SOL    MW4 9143   3.576   3.561   4.545  0.7036  0.2232  0.0496
 2275SOL     OW 9144   0.692   1.606   4.096  0.3862 -0.1589  0.1419
 2275SOL    HW2 9145   0.665   1.698   4.093  0.2107 -0.2115  0.1011
 2275SOL    HW3 9146   0.620   1.562   4.142  1.0761 -0.0574  1.3480
 2275SOL    MW4 9147   0.679   1.612   4.102  0.4541 -0.1525  0.2961
 2276SOL     OW 9148   1.575   0.027   3.929 -0.3094 -0.3312  0.2980
 2276SOL    HW2 9149   1.604   0.028   4.021 -0.8760  1.0410  0.4641
 2276SOL    HW3 9150   1.583  -0.065   3.903 -1.1940 -0.9234  2.0529
 2276SOL    MW4 9151   1.580   0.015   3.938 -0.5008 -0.2283  0.5515
 2277SOL     OW 9152   4.032   0.096   3.795 -0.5426 -0.0216  0.5208
 2277SOL    HW2 9153   4.014   0.090   3.701 -3.4387 -1.1255  1.0831
 2277SOL    HW3 9154   4.045   0.190   3.811  0.4504  0.1227 -1.0378
 2277SOL    MW4 9155   4.031   0.108   3.785 -0.7939 -0.1482  0.3893
 2278SOL     OW 9156   0.257   3.215   4.492  0.5983  0.2571  0.3003
 2278SOL    HW2 9157   0.243   3.289   4.551 -0.4234  0.7153 -0.5121
 2278SOL    HW3 9158   0.331   3.241   4.437 -0.2590  1.0158 -0.5091
 2278SOL    MW4 9159   0.265   3.228   4.492  0.3504  0.4177  0.0863
 2279SOL     OW 9160   2.477   0.015   3.922  0.0761 -0.1304 -0.0082
 2279SOL    HW2 9161   2.469  -0.073   3.885 -0.0147  0.0199 -0.3453
 2279SOL    HW3 9162   2.472   0.001   4.017  1.0031 -0.5882 -0.0188
 2279SOL    MW4 9163   2.475   0.001   3.930  0.1864 -0.1709 -0.0541
 2280SOL     OW 9164   3.798   3.732   4.500 -0.0344  0.2144 -0.3225
 2280SOL    HW2 9165   3.863   3.673   4.538 -0.2563 -0.8754 -1.6004
 2280SOL    HW3 9166   3.798   3.710   4.406 -0.1837  2.1784 -0.8121
 2280SOL    MW4 9167   3.807   3.722   4.492 -0.0834  0.3297 -0.5560
 2281SOL     OW 9168   3.434   0.663   4.709  0.2640 -0.0307  0.0431
 2281SOL    HW2 9169   3.394   0.589   4.755 -1.8831  0.6602 -0.6363
 2281SOL    HW3 9170   3.378   0.676   4.632  1.8515  0.9622 -0.9727
 2281SOL    MW4 9171   3.421   0.655   4.705  0.1905  0.1914 -0.1802
 2282SOL     OW 9172   1.813   4.009   3.773  0.0227  0.1987  0.1615
 2282SOL    HW2 9173   1.886   3.967   3.818 -0.8020 -1.8606 -0.3548
 2282SOL    HW3 9174   1.735   3.969   3.811 -0.7819  1.0003 -0.6120
 2282SOL    MW4 9175   1.812   3.998   3.784 -0.1922  0.0324 -0.0088
 2283SOL     OW 9176   3.765   4.568   4.186 -0.4693 -0.1911  0.2687
 2283SOL    HW2 9177   3.799   4.580   4.097 -0.4606 -0.0321  0.2937
 2283SOL    HW3 9178   3.765   4.656   4.224 -0.9787 -0.1784  0.2439
 2283SOL    MW4 9179   3.769   4.581   4.179 -0.5352 -0.1683  0.2685
 2284SOL     OW 9180   2.642   2.428   4.490 -0.3632  0.2269  0.4869
 2284SOL    HW2 9181   2.639   2.521   4.514  2.3929  0.1591  1.3087
 2284SOL    HW3 9182   2.722   2.395   4.532  0.9023 -1.5345 -3.0836
 2284SOL    MW4 9183   2.652   2.436   4.499  0.1674 -0.0143  0.1245
 2285SOL     OW 9184   4.040   0.671   4.452 -0.1678 -0.4856 -0.0457
 2285SOL    HW2 9185   4.095   0.598   4.481 -0.8467 -0.6322  0.8986
 2285SOL    HW3 9186   3.957   0.658   4.496  0.1076  1.5587  1.1778
 2285SOL    MW4 9187   4.037   0.660   4.462 -0.2213 -0.2353  0.2403
 2286SOL     OW 9188   3.936   2.351   4.530  0.2827 -0.0434  0.3311
 2286SOL    HW2 9189   3.878   2.426   4.543 -0.4313 -0.5392  0.0493
 2286SOL    HW3 9190   3.880   2.275   4.544  1.2837 -0.5317  1.8190
 2286SOL    MW4 9191   3.921   2.351   4.534  0.3207 -0.1733  0.4907
 2287SOL     OW 9192   3.049   4.642   4.840 -0.4015 -0.3349  0.2472
 2287SOL    HW2 9193   2.957   4.640   4.814 -0.2805 -0.1789 -0.1982
 2287SOL    HW3 9194   3.093   4.584   4.778  0.4181  2.5268 -1.9973
 2287SOL    MW4 9195   3.043   4.634   4.829 -0.2775  0.0634 -0.1073
 2288SOL     OW 9196   0.973   0.734   4.241 -0.1775  0.4111  0.4964
 2288SOL    HW2 9197   0.999   0.645   4.264 -0.4045  0.0145 -0.7506
 2288SOL    HW3 9198   0.961   0.778   4.326 -1.4036 -1.1186  1.1536
 2288SOL    MW4 9199   0.975   0.728   4.256 -0.3692  0.1569  0.4187
 2289SOL     OW 9200   0.620   3.888   4.236  0.1183  0.3590  0.6126
 2289SOL    HW2 9201   0.535   3.931   4.245 -0.5983 -0.6551 -0.9947
 2289SOL    HW3 9202   0.642   3.900   4.144  2.0601  1.1998  1.1690
 2289SOL    MW4 9203   0.612   3.895   4.225  0.2799  0.3362  0.4740
 2290SOL     OW 9204   2.706   0.403   3.898  0.0290 -0.0034  0.3775
 2290SOL    HW2 9205   2.793   0.439   3.880  0.8311 -0.8268  2.4578
 2290SOL    HW3 9206   2.705   0.319   3.852  0.8939 -0.6535  1.5100
 2290SOL    MW4 9207   2.717   0.396   3.889  0.2491 -0.1979  0.8018
 2291SOL     OW 9208   0.022   3.425   4.145 -0.6171  0.2381 -0.5340
 2291SOL    HW2 9209   0.020   3.453   4.054 -0.9769  1.2241 -0.2349
 2291SOL    HW3 9210   0.098   3.469   4.182  0.7600 -1.8039 -0.8543
 2291SOL    MW4 9211   0.032   3.435   4.138 -0.4829  0.0989 -0.5369
 2292SOL     OW 9212   2.695   3.067   4.802  0.6198  0.1761  0.2598
 2292SOL    HW2 9213   2.624   3.047   4.740  0.2995 -2.4176  1.3899
 2292SOL    HW3 9214   2.652   3.109   4.876  0.6201  0.7878 -0.0821
 2292SOL    MW4 9215   2.680   3.070   4.803  0.5774 -0.0854  0.3638
 2293SOL     OW 9216   3.826   0.781   3.851  0.0561 -0.3879 -0.0611
 2293SOL    HW2 9217   3.838   0.786   3.945 -1.2256 -0.7772  0.1292
 2293SOL    HW3 9218   3.751   0.838   3.833  0.5559  0.0213 -0.8988
 2293SOL    MW4 9219   3.818   0.789   3.861 -0.0470 -0.3853 -0.1464
 2294SOL     OW 9220   0.693   0.753   3.877 -0.2268 -0.0097 -0.0517
 2294SOL    HW2 9221   0.709   0.767   3.971 -0.6550 -0.0220  0.0247
 2294SOL    HW3 9222   0.761   0.805   3.833  0.3152 -0.4437  0.2700
 2294SOL    MW4 9223   0.704   0.762   3.884 -0.2119 -0.0686  0.0007
 2295SOL     OW 9224   1.297   2.165   4.529  0.2216 -0.4286 -0.2477
 2295SOL    HW2 9225   1.359   2.137   4.596  0.6887 -1.2269 -1.0099
 2295SOL    HW3 9226   1.324   2.254   4.506 -0.6304  0.2879  1.4285
 2295SOL    MW4 9227   1.309   2.173   4.535  0.1708 -0.4396 -0.1268
 2296SOL     OW 9228   1.596   1.347   4.057  0.7705 -0.1625  0.6150
 2296SOL    HW2 9229   1.642   1.317   4.135  2.2999  0.3766 -0.0502
 2296SOL    HW3 9230   1.570   1.437   4.077  2.8299  0.6449 -0.1567
 2296SOL    MW4 9231   1.599   1.355   4.070  1.2439  0.0150  0.4253
 2297SOL     OW 9232   0.029   3.171   4.224 -0.5501 -0.3062 -0.0383
 2297SOL    HW2 9233  -0.048   3.137   4.180  0.1660 -0.1694 -1.4078
 2297SOL    HW3 9234   0.040   3.259   4.189  1.3533 -1.0294 -1.3321
 2297SOL    MW4 9235   0.020   3.178   4.214 -0.2045 -0.3834 -0.3901
 2298SOL     OW 9236   0.509   3.431   4.170  0.2349  0.2913 -0.0843
 2298SOL    HW2 9237   0.501   3.436   4.075  1.6435  0.7811 -0.1952
 2298SOL    HW3 9238   0.550   3.514   4.195  0.4072 -0.0755  0.8904
 2298SOL    MW4 9239   0.514   3.443   4.161  0.4435  0.3076  0.0291
 2299SOL     OW 9240   2.677   4.291   3.941 -0.1447 -0.3623  0.4420
 2299SOL    HW2 9241   2.692   4.307   4.034  0.0903  1.1574  0.1581
 2299SOL    HW3 9242   2.751   4.332   3.897  0.1349 -1.7191 -0.3825
 2299SOL    MW4 9243   2.688   4.298   3.948 -0.0768 -0.3409  0.2956
 2300SOL     OW 9244   2.971   2.917   3.799  0.3119  0.2849  0.2295
 2300SOL    HW2 9245   3.012   3.003   3.797  0.0987  0.3790 -0.2307
 2300SOL    HW3 9246   2.956   2.895   3.707  0.2022 -0.1633  0.3521
 2300SOL    MW4 9247   2.974   2.925   3.786  0.2692  0.2382  0.1848
 2301SOL     OW 9248   3.377   3.856   3.771 -0.1576  0.2170 -0.3391
 2301SOL    HW2 9249   3.284   3.879   3.765 -0.1196  0.4146 -0.1562
 2301SOL    HW3 9250   3.378   3.760   3.770 -0.6164  0.1006  3.5272
 2301SOL    MW4 9251   3.365   3.846   3.770 -0.2131  0.2279  0.1953
 2302SOL     OW 9252   2.704   0.861   3.731 -0.1290 -0.5724 -0.0003
 2302SOL    HW2 9253   2.652   0.784   3.752 -0.5902 -0.5047 -0.8633
 2302SOL    HW3 9254   2.659   0.933   3.777 -0.0996 -0.7013  0.2337
 2302SOL    MW4 9255   2.691   0.860   3.740 -0.1857 -0.5805 -0.0832
 2303SOL     OW 9256   3.188   2.645   4.127  0.5688  0.2787  0.2943
 2303SOL    HW2 9257   3.145   2.656   4.211  0.2185  2.0106 -0.0875
 2303SOL    HW3 9258   3.199   2.551   4.117 -0.9382 -0.0362  1.4904
 2303SOL    MW4 9259   3.184   2.634   4.137  0.3238  0.4659  0.4015
 2304SOL     OW 9260   2.937   4.657   3.917  0.2550  0.0206 -0.1527
 2304SOL    HW2 9261   2.865   4.695   3.866  0.0240  0.4344  0.4795
 2304SOL    HW3 9262   2.909   4.665   4.008  0.2298 -1.6528 -0.0068
 2304SOL    MW4 9263   2.924   4.663   3.922  0.2215 -0.1455 -0.0498
 2305SOL     OW 9264   0.895   3.145   4.313 -0.2972  0.0791 -0.0388
 2305SOL    HW2 9265   0.825   3.109   4.258  0.0623 -0.1918 -0.3230
 2305SOL    HW3 9266   0.869   3.235   4.330 -0.1022  0.3602 -1.1845
 2305SOL    MW4 9267   0.883   3.152   4.308 -0.2241  0.0803 -0.2275
 2306SOL     OW 9268   1.860   1.588   4.084  0.2962  0.7952 -0.4588
 2306SOL    HW2 9269   1.930   1.632   4.131  0.9079 -1.3206  0.7045
 2306SOL    HW3 9270   1.901   1.553   4.005  0.0181  1.5088 -0.9261
 2306SOL    MW4 9271   1.874   1.589   4.080  0.3402  0.6101 -0.3667
 2307SOL     OW 9272   0.892   0.324   4.160 -0.1894  0.2684  0.2765
 2307SOL    HW2 9273   0.929   0.237   4.173 -1.1043 -0.1310  0.2180
 2307SOL    HW3 9274   0.905   0.342   4.067  2.0169  1.1387  0.7095
 2307SOL    MW4 9275   0.899   0.315   4.150 -0.0190  0.3305  0.3257
 2308SOL     OW 9276   3.562   2.216   4.786 -0.5293 -0.0462 -0.4719
 2308SOL    HW2 9277   3.497   2.145   4.782 -0.0926 -0.5629  1.1102
 2308SOL    HW3 9278   3.631   2.189   4.726 -0.4163 -0.9151  0.0422
 2308SOL    MW4 9279   3.562   2.203   4.778 -0.4570 -0.2291 -0.1950
 2309SOL     OW 9280   1.124   1.541   3.778  0.1333  0.6741  0.6114
 2309SOL    HW2 9281   1.038   1.579   3.760 -0.3260 -0.2391  0.8569
 2309SOL    HW3 9282   1.114   1.448   3.758  1.3598  0.7270 -0.3679
 2309SOL    MW4 9283   1.112   1.534   3.773  0.2346  0.5605  0.5145
 2310SOL     OW 9284   4.287   4.429   4.528  0.1829 -0.8324  0.6528
 2310SOL    HW2 9285   4.330   4.512   4.550  0.0682 -0.6458  0.1865
 2310SOL    HW3 9286   4.333   4.363   4.580  0.2173 -0.4653  1.0931
 2310SOL    MW4 9287   4.299   4.431   4.538  0.1726 -0.7596  0.6490
 2311SOL     OW 9288   0.011   1.737   4.478 -0.3882  0.0116  0.3136
 2311SOL    HW2 9289   0.070   1.792   4.528 -0.7876 -1.6024  2.6514
 2311SOL    HW3 9290  -0.076   1.756   4.514 -1.0162  0.6676 -1.4998
 2311SOL    MW4 9291   0.007   1.747   4.489 -0.5236 -0.1149  0.3829
 2312SOL     OW 9292   3.092   4.087   4.537  0.0759 -0.1053  0.3125
 2312SOL    HW2 9293   3.180   4.060   4.562 -0.0048 -1.3054 -0.6639
 2312SOL    HW3 9294   3.039   4.008   4.545 -0.8355  0.5208  0.5179
 2312SOL    MW4 9295   3.097   4.073   4.541 -0.0551 -0.1812  0.2112
 2313SOL     OW 9296   2.288   2.838   4.265  0.0466 -0.4748  0.3342
 2313SOL    HW2 9297   2.204   2.877   4.292 -0.1549 -0.1648 -0.7074
 2313SOL    HW3 9298   2.325   2.803   4.345 -1.1533 -0.7284  0.7877
 2313SOL    MW4 9299   2.282   2.839   4.279 -0.1383 -0.4673  0.2565
 2314SOL     OW 9300   3.262   1.433   4.551 -0.3015 -0.5942  0.2567
 2314SOL    HW2 9301   3.245   1.456   4.460  0.7235  1.6944  0.6294
 2314SOL    HW3 9302   3.233   1.341   4.557 -1.0064 -0.5879 -2.1740
 2314SOL    MW4 9303   3.256   1.424   4.540 -0.2594 -0.2915 -0.0148
 2315SOL     OW 9304   2.267   0.139   3.816  0.1483  0.1708 -0.0447
 2315SOL    HW2 9305   2.350   0.112   3.856 -0.9217 -0.1845  2.0030
 2315SOL    HW3 9306   2.249   0.225   3.854 -0.2931  0.3576 -0.6741
 2315SOL    MW4 9307   2.276   0.147   3.827 -0.0515  0.1486  0.1426
 2316SOL     OW 9308   4.054   1.923   3.837 -0.0918 -0.4938 -0.0638
 2316SOL    HW2 9309   4.041   1.834   3.802  0.9935  0.7073 -3.7361
 2316SOL    HW3 9310   3.969   1.966   3.827  0.0873 -0.3053 -0.8000
 2316SOL    MW4 9311   4.041   1.917   3.831  0.0749 -0.3105 -0.6454
 2317SOL     OW 9312   0.894   1.701   3.726  0.0199  0.2466 -0.5293
 2317SOL    HW2 9313   0.872   1.711   3.633 -2.0743  1.8325  0.1090
 2317SOL    HW3 9314   0.884   1.788   3.763  1.3970 -0.2594  1.0980
 2317SOL    MW4 9315   0.890   1.714   3.718 -0.0746  0.3890 -0.2301
 2318SOL     OW 9316   4.400   2.469   4.409  0.2145  0.0100 -0.5684
 2318SOL    HW2 9317   4.313   2.508   4.421 -0.2552 -0.9870 -0.7304
 2318SOL    HW3 9318   4.461   2.539   4.433 -0.6191  0.9743 -1.2130
 2318SOL    MW4 9319   4.397   2.484   4.413  0.0424  0.0057 -0.6742
 2319SOL     OW 9320   3.969   0.620   4.199 -0.4957  0.4851 -0.4594
 2319SOL    HW2 9321   4.051   0.634   4.153 -0.1670 -0.9072 -0.2924
 2319SOL    HW3 9322   3.988   0.640   4.290 -0.2048 -0.3863 -0.3324
 2319SOL    MW4 9323   3.982   0.625   4.205 -0.4139  0.1864 -0.4210
 2320SOL     OW 9324   3.108   1.899   3.833  0.2796 -0.5811  0.4561
 2320SOL    HW2 9325   3.122   1.819   3.783 -1.4028 -0.2441 -0.5876
 2320SOL    HW3 9326   3.179   1.958   3.805 -0.7242 -0.3405 -1.6755
 2320SOL    MW4 9327   3.119   1.896   3.823 -0.0746 -0.5049  0.0370
 2321SOL     OW 9328   3.478   4.592   4.151  0.3847 -0.3765 -0.0106
 2321SOL    HW2 9329   3.412   4.532   4.187 -0.4954  0.2032 -0.6425
 2321SOL    HW3 9330   3.560   4.543   4.156  0.1274 -0.6743  1.8872
 2321SOL    MW4 9331   3.480   4.578   4.156  0.2348 -0.3386  0.1564
 2322SOL     OW 9332   2.699   0.278   4.161  0.2868  0.0590  0.0013
 2322SOL    HW2 9333   2.745   0.197   4.141  2.4387  1.1808  0.2409
 2322SOL    HW3 9334   2.692   0.323   4.077 -0.4458 -0.1321 -0.0447
 2322SOL    MW4 9335   2.704   0.273   4.147  0.4742  0.1818  0.0272
 2323SOL     OW 9336   3.610   3.996   3.726 -0.6594  0.2047  0.2581
 2323SOL    HW2 9337   3.531   3.944   3.743 -0.3407 -0.2852  0.2414
 2323SOL    HW3 9338   3.590   4.082   3.764 -1.2901  0.1561  0.0541
 2323SOL    MW4 9339   3.597   4.001   3.733 -0.7005  0.1340  0.2289
 2324SOL     OW 9340   1.718   2.944   4.216  0.1620  0.4347 -0.4416
 2324SOL    HW2 9341   1.716   2.854   4.184  1.3584  0.5708 -0.9395
 2324SOL    HW3 9342   1.793   2.983   4.171  0.2325  1.4032  0.5089
 2324SOL    MW4 9343   1.728   2.937   4.206  0.3293  0.5803 -0.3815
 2325SOL     OW 9344   3.787   3.885   4.101  0.4476 -0.2893 -0.2534
 2325SOL    HW2 9345   3.812   3.880   4.009  1.4469 -1.0704  0.0619
 2325SOL    HW3 9346   3.802   3.797   4.136  0.2477  0.0460  0.7088
 2325SOL    MW4 9347   3.792   3.873   4.094  0.5531 -0.3481 -0.0849
 2326SOL     OW 9348   1.735   3.028   4.491 -0.2251  0.2296 -0.0919
 2326SOL    HW2 9349   1.741   2.989   4.404  0.2430  0.2003 -0.0506
 2326SOL    HW3 9350   1.681   2.967   4.541 -1.4108  0.8029 -0.6628
 2326SOL    MW4 9351   1.729   3.015   4.486 -0.3197  0.3016 -0.1621
 2327SOL     OW 9352   1.750   2.681   4.147 -0.1301  0.0009 -0.2422
 2327SOL    HW2 9353   1.834   2.680   4.194 -0.0871 -3.5414 -0.2730
 2327SOL    HW3 9354   1.774   2.695   4.056  0.2723  0.7771 -0.0214
 2327SOL    MW4 9355   1.764   2.683   4.142 -0.0713 -0.3641 -0.2170
 2328SOL     OW 9356   1.524   2.548   4.113  0.3039  0.1958 -0.2395
 2328SOL    HW2 9357   1.463   2.548   4.186 -0.4487  0.0561 -0.8695
 2328SOL    HW3 9358   1.602   2.591   4.148 -0.1539  0.3925  0.5560
 2328SOL    MW4 9359   1.526   2.554   4.128  0.1444  0.2034 -0.2179
 2329SOL     OW 9360   2.888   2.049   3.762 -0.0919  0.0437  0.2652
 2329SOL    HW2 9361   2.969   2.008   3.793  0.5642  1.0968  0.0008
 2329SOL    HW3 9362   2.891   2.137   3.799 -0.6277  0.4159 -0.5686
 2329SOL    MW4 9363   2.899   2.055   3.771 -0.0761  0.2317  0.1206
 2330SOL     OW 9364   3.587   4.190   4.359  0.2903  0.0797 -0.2797
 2330SOL    HW2 9365   3.584   4.117   4.421  0.6463  1.3493  1.2692
 2330SOL    HW3 9366   3.677   4.222   4.365 -0.1487  1.3031 -0.1493
 2330SOL    MW4 9367   3.599   4.184   4.368  0.2789  0.4082 -0.0582
 2331SOL     OW 9368   2.534   3.538   4.206 -0.0209 -0.0862  0.3077
 2331SOL    HW2 9369   2.450   3.494   4.199 -0.2053  0.2924  0.1251
 2331SOL    HW3 9370   2.574   3.501   4.285 -0.1557 -0.6021  0.1383
 2331SOL    MW4 9371   2.528   3.527   4.216 -0.0627 -0.1044  0.2613
 2332SOL     OW 9372   2.327   3.330   4.550  0.1482  0.3268 -0.1403
 2332SOL    HW2 9373   2.243   3.329   4.596  0.8330 -1.0837  1.1158
 2332SOL    HW3 9374   2.357   3.420   4.556  0.2535  0.1493  2.2495
 2332SOL    MW4 9375   2.320   3.342   4.557  0.2527  0.1173  0.3405
 2333SOL     OW 9376   2.641   2.709   4.519 -1.1260 -0.4345  0.1791
 2333SOL    HW2 9377   2.547   2.728   4.517 -0.9631  0.3564 -0.5313
 2333SOL    HW3 9378   2.673   2.752   4.598 -0.9311  1.5531 -0.9155
 2333SOL    MW4 9379   2.633   2.717   4.529 -1.0788 -0.0679 -0.0587
 2334SOL     OW 9380   3.587   0.904   3.794  0.5670  0.6547  0.7584
 2334SOL    HW2 9381   3.567   0.881   3.704  1.0703  0.0215  0.8112
 2334SOL    HW3 9382   3.523   0.856   3.846 -0.2267  1.6206  0.7061
 2334SOL    MW4 9383   3.576   0.895   3.789  0.5283  0.6986  0.7586
 2335SOL     OW 9384   2.633   0.378   3.422  0.1700  0.2088 -0.2101
 2335SOL    HW2 9385   2.715   0.405   3.465  2.3079 -1.8576 -2.8016
 2335SOL    HW3 9386   2.655   0.374   3.329 -2.7028 -1.1052 -0.8712
 2335SOL    MW4 9387   2.647   0.381   3.416  0.0730 -0.2371 -0.6392
 2336SOL     OW 9388   3.965   0.344   4.139 -0.4828  0.0830  0.4899
 2336SOL    HW2 9389   3.992   0.435   4.152 -0.7145  0.1461  0.5328
 2336SOL    HW3 9390   3.995   0.322   4.051  0.6209 -0.1709  0.9111
 2336SOL    MW4 9391   3.973   0.353   4.129 -0.3676  0.0578  0.5517
 2337SOL     OW 9392   2.760   4.258   4.235  0.1940  0.6544 -0.2825
 2337SOL    HW2 9393   2.832   4.271   4.297 -0.7602  0.8351  0.8116
 2337SOL    HW3 9394   2.747   4.163   4.234 -0.7988  0.7573  0.9974
 2337SOL    MW4 9395   2.768   4.247   4.243 -0.0632  0.6919  0.0310
 2338SOL     OW 9396   2.885   4.403   3.803  0.0169  0.3136 -0.3715
 2338SOL    HW2 9397   2.959   4.343   3.798 -0.9157 -0.9053  0.3061
 2338SOL    HW3 9398   2.921   4.482   3.843  0.9667 -0.2697 -0.0613
 2338SOL    MW4 9399   2.899   4.406   3.808  0.0191  0.0753 -0.2410
 2339SOL     OW 9400   0.248   3.821   4.131  0.4800  0.5059  0.3336
 2339SOL    HW2 9401   0.234   3.728   4.151 -0.3929  0.7154  0.6927
 2339SOL    HW3 9402   0.259   3.823   4.035  1.4272 -0.0779  0.4180
 2339SOL    MW4 9403   0.248   3.809   4.121  0.4898  0.4566  0.3924
 2340SOL     OW 9404   3.368   2.866   3.777  0.3947 -0.4182 -0.0211
 2340SOL    HW2 9405   3.289   2.814   3.794  0.8487 -1.3064 -0.5905
 2340SOL    HW3 9406   3.378   2.864   3.682  0.6179  0.4362 -0.0212
 2340SOL    MW4 9407   3.359   2.859   3.767  0.4842 -0.4227 -0.0961
 2341SOL     OW 9408   1.637   2.150   4.869 -0.0683  0.3403  0.2447
 2341SOL    HW2 9409   1.642   2.245   4.859  0.7029  0.2191 -0.5597
 2341SOL    HW3 9410   1.716   2.127   4.918  0.5246 -0.0509 -0.8763
 2341SOL    MW4 9411   1.648   2.159   4.874  0.1118  0.2728 -0.0095
 2342SOL     OW 9412   4.280   4.393   3.815 -0.4142  0.1230 -0.0152
 2342SOL    HW2 9413   4.262   4.487   3.824 -1.2214 -0.0129 -0.2001
 2342SOL    HW3 9414   4.208   4.350   3.860 -0.9252 -0.4282 -1.3348
 2342SOL    MW4 9415   4.268   4.400   3.822 -0.5879  0.0324 -0.2136
 2343SOL     OW 9416   0.878   4.203   4.119 -0.0339 -0.4881  0.4895
 2343SOL    HW2 9417   0.846   4.143   4.185 -0.9568 -0.7798 -0.2187
 2343SOL    HW3 9418   0.973   4.202   4.129  0.0446 -2.9939 -0.3130
 2343SOL    MW4 9419   0.887   4.195   4.129 -0.1453 -0.8574  0.2899
 2344SOL     OW 9420   1.556   2.816   3.782  0.4078 -0.0273 -0.3327
 2344SOL    HW2 9421   1.533   2.908   3.792  0.6037 -0.1636  1.5550
 2344SOL    HW3 9422   1.490   2.769   3.833  0.2322 -0.9570 -1.3793
 2344SOL    MW4 9423   1.544   2.822   3.790  0.4104 -0.1676 -0.2217
 2345SOL     OW 9424   2.427   3.623   3.772 -0.3644  0.6989  0.1626
 2345SOL    HW2 9425   2.502   3.569   3.797 -1.0522 -0.2522  0.2067
 2345SOL    HW3 9426   2.435   3.634   3.678 -0.4800  0.1088  0.0807
 2345SOL    MW4 9427   2.438   3.617   3.763 -0.4706  0.4959  0.1571
 2346SOL     OW 9428   1.536   3.631   3.774  0.1594 -0.4361 -0.5109
 2346SOL    HW2 9429   1.604   3.588   3.827 -0.0745  0.4489  0.5370
 2346SOL    HW3 9430   1.453   3.602   3.813 -0.0446 -0.8912 -1.2842
 2346SOL    MW4 9431   1.534   3.622   3.786  0.1017 -0.3793 -0.4749
 2347SOL     OW 9432   3.128   1.167   3.855  0.0516 -0.1776  0.2485
 2347SOL    HW2 9433   3.202   1.208   3.809  0.4964 -1.3886 -0.1337
 2347SOL    HW3 9434   3.137   1.073   3.837 -0.5809 -0.5272  1.6328
 2347SOL    MW4 9435   3.139   1.160   3.847  0.0267 -0.3835  0.3808
 2348SOL     OW 9436   4.279   0.776   4.348  0.2560  0.5102 -0.0081
 2348SOL    HW2 9437   4.207   0.727   4.389 -0.5002  1.9532  0.4203
 2348SOL    HW3 9438   4.267   0.761   4.254  1.1774 -1.6878  0.2108
 2348SOL    MW4 9439   4.268   0.767   4.341  0.2775  0.4107  0.0772
 2349SOL     OW 9440   3.377   0.775   3.925 -0.3024  0.2203  0.6299
 2349SOL    HW2 9441   3.331   0.776   4.009 -0.8971 -0.3524  0.3168
 2349SOL    HW3 9442   3.386   0.682   3.904  1.7000  0.2951  1.0668
 2349SOL    MW4 9443   3.372   0.762   3.933 -0.1166  0.1546  0.6461
 2350SOL     OW 9444   3.136   3.175   3.801 -0.2243  0.2565  0.2826
 2350SOL    HW2 9445   3.154   3.180   3.707  0.3433  0.9444  0.4252
 2350SOL    HW3 9446   3.221   3.155   3.841 -0.3120  0.7299  0.7111
 2350SOL    MW4 9447   3.150   3.173   3.794 -0.1607  0.4101  0.3581
 2351SOL     OW 9448   4.277   3.893   3.844  0.1331 -0.3267 -0.0331
 2351SOL    HW2 9449   4.196   3.938   3.822  0.7850  2.3133  2.5652
 2351SOL    HW3 9450   4.270   3.877   3.939  1.8508 -1.7660 -0.1177
 2351SOL    MW4 9451   4.266   3.897   3.854  0.4454 -0.1681  0.2985
 2352SOL     OW 9452   1.417   1.251   4.488 -0.1237  0.1076  0.3536
 2352SOL    HW2 9453   1.430   1.338   4.450 -1.0400  0.4464  0.8033
 2352SOL    HW3 9454   1.491   1.240   4.548  1.7559 -0.7449 -2.0635
 2352SOL    MW4 9455   1.428   1.261   4.491  0.0033  0.0398  0.0939
 2353SOL     OW 9456   1.358   2.563   4.327  0.3699  0.1963  0.7009
 2353SOL    HW2 9457   1.353   2.657   4.345 -0.7908  0.3401 -0.3131
 2353SOL    HW3 9458   1.386   2.524   4.410  0.9889  1.4467  1.0874
 2353SOL    MW4 9459   1.361   2.570   4.341  0.2984  0.3800  0.6185
 2354SOL     OW 9460   3.981   1.655   4.468  0.1281  0.0037 -0.7829
 2354SOL    HW2 9461   3.913   1.592   4.491  0.3704 -0.1922 -0.6043
 2354SOL    HW3 9462   4.063   1.605   4.472  0.1318 -0.1644 -2.5594
 2354SOL    MW4 9463   3.983   1.640   4.472  0.1605 -0.0443 -0.9937
 2355SOL     OW 9464   0.014   2.439   4.147 -0.5049  0.0728  0.1231
 2355SOL    HW2 9465  -0.057   2.406   4.092 -0.6374 -1.5560  1.2455
 2355SOL    HW3 9466  -0.019   2.432   4.236  0.4646  0.7880  0.5426
 2355SOL    MW4 9467   0.000   2.433   4.151 -0.3945 -0.0479  0.3262
 2356SOL     OW 9468   4.128   3.708   4.438  0.3160  0.0732 -0.1672
 2356SOL    HW2 9469   4.071   3.768   4.389 -0.2916 -0.4666 -0.1354
 2356SOL    HW3 9470   4.069   3.640   4.470  0.7001  0.4162  1.3328
 2356SOL    MW4 9471   4.113   3.707   4.436  0.2866  0.0472  0.0343
 2357SOL     OW 9472   1.901   3.496   4.357 -0.5247  0.3080  0.4103
 2357SOL    HW2 9473   1.901   3.450   4.274  0.1051 -0.3857  0.7959
 2357SOL    HW3 9474   1.863   3.434   4.419  0.3076  0.3116  0.9248
 2357SOL    MW4 9475   1.896   3.482   4.354 -0.3316  0.2172  0.5288
 2358SOL     OW 9476   0.335   2.392   4.457 -0.0909  0.7085  0.3139
 2358SOL    HW2 9477   0.405   2.360   4.400  0.7505  1.9040  0.6472
 2358SOL    HW3 9478   0.357   2.484   4.472 -1.7348  1.0883  0.4368
 2358SOL    MW4 9479   0.347   2.400   4.452 -0.1968  0.9162  0.3738
 2359SOL     OW 9480   1.459   4.149   4.410  0.1097  0.2411  0.2493
 2359SOL    HW2 9481   1.540   4.100   4.392 -0.1677 -0.5231  1.0682
 2359SOL    HW3 9482   1.396   4.113   4.348 -0.3147 -1.0317  1.3883
 2359SOL    MW4 9483   1.462   4.138   4.399  0.0172 -0.0281  0.5078
 2360SOL     OW 9484   4.182   1.448   4.453  0.3962 -0.1266 -1.1823
 2360SOL    HW2 9485   4.265   1.466   4.496 -1.0950 -0.7058  2.1051
 2360SOL    HW3 9486   4.159   1.360   4.482 -3.2574  1.5195  1.3335
 2360SOL    MW4 9487   4.190   1.439   4.463 -0.2828  0.0142 -0.4168
 2361SOL     OW 9488   0.496   2.743   4.079  0.4345 -0.2714  0.5640
 2361SOL    HW2 9489   0.427   2.780   4.134  0.1240  0.5127 -0.3467
 2361SOL    HW3 9490   0.575   2.789   4.106  0.0029  1.2741 -0.7526
 2361SOL    MW4 9491   0.497   2.754   4.090  0.3366  0.0358  0.2704
 2362SOL     OW 9492   4.142   1.185   4.522 -0.2568 -0.5507 -0.0785
 2362SOL    HW2 9493   4.203   1.154   4.588 -1.6288  0.3870  1.6720
 2362SOL    HW3 9494   4.158   1.129   4.446  1.2474 -1.7368  1.0875
 2362SOL    MW4 9495   4.152   1.173   4.520 -0.2389 -0.5835  0.3061
 2363SOL     OW 9496   3.564   1.163   3.875 -0.1137 -0.2302  0.0573
 2363SOL    HW2 9497   3.641   1.218   3.862  0.2396 -0.4255  1.2180
 2363SOL    HW3 9498   3.593   1.076   3.847  0.7820 -0.7407  2.4231
 2363SOL    MW4 9499   3.578   1.159   3.870  0.0510 -0.3233  0.5224
 2364SOL     OW 9500   3.293   0.459   4.826 -0.1854  0.6187 -0.1181
 2364SOL    HW2 9501   3.199   0.473   4.812 -0.0220 -0.1253 -1.9606
 2364SOL    HW3 9502   3.302   0.365   4.838  0.4704  0.5686 -1.0123
 2364SOL    MW4 9503   3.281   0.449   4.826 -0.0770  0.5139 -0.4792
 2365SOL     OW 9504   3.975   1.042   4.119  0.1010  0.0382  0.2701
 2365SOL    HW2 9505   4.009   1.059   4.032 -0.7285 -1.1320 -0.2921
 2365SOL    HW3 9506   4.054   1.027   4.173  0.5693 -0.5634 -0.5643
 2365SOL    MW4 9507   3.990   1.042   4.115  0.0532 -0.1955  0.0858
 2366SOL     OW 9508   0.640   2.760   4.468  0.0840  0.2564  0.2125
 2366SOL    HW2 9509   0.559   2.710   4.467  0.2823 -0.0426 -1.6483
 2366SOL    HW3 9510   0.669   2.762   4.377  1.3608  1.6730  0.6200
 2366SOL    MW4 9511   0.633   2.754   4.456  0.2787  0.4036  0.0205
 2367SOL     OW 9512   3.797   1.863   4.487  0.1537  0.0356 -0.2184
 2367SOL    HW2 9513   3.861   1.795   4.465  0.2259  0.1170 -0.2622
 2367SOL    HW3 9514   3.716   1.815   4.503  0.6550 -0.2512  1.6363
 2367SOL    MW4 9515   3.795   1.848   4.486  0.2291  0.0083  0.0205
 2368SOL     OW 9516   2.992   4.305   4.392  0.0261 -0.1193 -0.1685
 2368SOL    HW2 9517   3.027   4.226   4.432  0.9359 -0.3000 -1.3286
 2368SOL    HW3 9518   3.052   4.374   4.419  0.0904 -0.0769 -0.4245
 2368SOL    MW4 9519   3.004   4.304   4.401  0.1547 -0.1373 -0.3552
 2369SOL     OW 9520   0.875   2.458   3.756  0.1238 -0.3631 -0.2477
 2369SOL    HW2 9521   0.796   2.422   3.798 -0.5893  0.3599 -0.9621
 2369SOL    HW3 9522   0.947   2.405   3.792 -0.3559  0.8629  2.6452
 2369SOL    MW4 9523   0.874   2.446   3.766 -0.0336 -0.1061  0.0396
 2370SOL     OW 9524   0.440   1.660   3.762 -0.3511  0.1770 -0.1827
 2370SOL    HW2 9525   0.377   1.605   3.810 -0.3816  0.4753  0.1196
 2370SOL    HW3 9526   0.526   1.627   3.789 -0.3476  1.1616  1.0467
 2370SOL    MW4 9527   0.443   1.648   3.772 -0.3547  0.3462  0.0196
 2371SOL     OW 9528   2.662   3.194   3.757  0.1752 -0.4816 -0.6026
 2371SOL    HW2 9529   2.707   3.141   3.824  0.5238  0.1725 -0.3176
 2371SOL    HW3 9530   2.569   3.174   3.768  0.0513  1.0977  1.3609
 2371SOL    MW4 9531   2.656   3.184   3.767  0.2050 -0.1872 -0.3059
 2372SOL     OW 9532   1.359   2.667   3.904 -0.3786  0.2060  0.3842
 2372SOL    HW2 9533   1.344   2.598   3.840 -0.4642  0.4129  0.1773
 2372SOL    HW3 9534   1.414   2.627   3.971 -1.8529 -0.5651  1.1577
 2372SOL    MW4 9535   1.365   2.653   3.905 -0.5845  0.1316  0.4590
 2373SOL     OW 9536   3.842   3.075   3.881  0.2573  0.0351 -0.3473
 2373SOL    HW2 9537   3.759   3.115   3.854  0.3071  0.6262  0.3528
 2373SOL    HW3 9538   3.908   3.141   3.858  0.1862  1.0883  2.3110
 2373SOL    MW4 9539   3.840   3.089   3.874  0.2544  0.2522  0.0956
 2374SOL     OW 9540   3.372   3.110   3.919  0.0152 -0.0730  0.5579
 2374SOL    HW2 9541   3.456   3.143   3.887  1.6588 -2.7741  1.9017
 2374SOL    HW3 9542   3.362   3.025   3.875 -1.3299 -0.3759  1.4374
 2374SOL    MW4 9543   3.382   3.103   3.909  0.0548 -0.4692  0.8509
 2375SOL     OW 9544   1.816   1.172   3.425 -0.3479 -0.1901  0.0886
 2375SOL    HW2 9545   1.797   1.090   3.470 -1.1849 -0.7775 -1.2714
 2375SOL    HW3 9546   1.894   1.206   3.467  0.2300 -1.8974  0.4239
 2375SOL    MW4 9547   1.824   1.165   3.436 -0.3821 -0.4929 -0.0465
 2376SOL     OW 9548   3.841   3.861   3.821 -0.5553  0.2507  0.2446
 2376SOL    HW2 9549   3.764   3.904   3.785 -0.3373  1.3002  1.0108
 2376SOL    HW3 9550   3.913   3.923   3.807  0.5008 -1.3764 -1.9121
 2376SOL    MW4 9551   3.840   3.875   3.815 -0.3874  0.1745  0.0613
 2377SOL     OW 9552   3.437   1.484   4.124  0.2794  0.2612  0.3577
 2377SOL    HW2 9553   3.347   1.457   4.140  0.4157 -0.5092 -0.1133
 2377SOL    HW3 9554   3.484   1.401   4.110  0.4634  0.7933 -2.4395
 2377SOL    MW4 9555   3.432   1.469   4.124  0.3216  0.2297 -0.0734
 2378SOL     OW 9556   3.256   0.967   4.508 -0.7448  0.1604  0.2201
 2378SOL    HW2 9557   3.305   0.960   4.590  1.1292 -0.1484 -0.8858
 2378SOL    HW3 9558   3.185   0.904   4.517 -0.2583 -0.2452  1.4081
 2378SOL    MW4 9559   3.253   0.958   4.520 -0.4334  0.0661  0.2308
 2379SOL     OW 9560   1.501   3.795   4.152 -0.1402 -0.2205 -0.4489
 2379SOL    HW2 9561   1.580   3.791   4.207  1.8080  0.7105 -3.0901
 2379SOL    HW3 9562   1.465   3.706   4.156  1.3971 -0.8268  0.2880
 2379SOL    MW4 9563   1.507   3.783   4.160  0.3196 -0.1779 -0.7005
 2380SOL     OW 9564   0.029   4.247   4.168 -0.3201 -0.2331 -0.8799
 2380SOL    HW2 9565  -0.051   4.279   4.211  0.8587  0.0615  1.1889
 2380SOL    HW3 9566   0.039   4.157   4.200  0.1421 -0.2907 -1.1834
 2380SOL    MW4 9567   0.019   4.239   4.178 -0.1036 -0.2022 -0.6471
 2381SOL     OW 9568   1.775   0.468   3.874  0.4598 -0.4493  0.1925
 2381SOL    HW2 9569   1.862   0.508   3.871  0.7463 -1.1043 -0.3243
 2381SOL    HW3 9570   1.787   0.381   3.836 -0.3464 -0.6827  0.4588
 2381SOL    MW4 9571   1.788   0.462   3.869  0.3912 -0.5665  0.1597
 2382SOL     OW 9572   4.037   3.938   4.214 -0.1412  0.0991 -0.3265
 2382SOL    HW2 9573   4.047   4.024   4.255  1.0839 -0.6885  1.1004
 2382SOL    HW3 9574   3.946   3.935   4.186 -0.1675  1.9049 -0.5000
 2382SOL    MW4 9575   4.026   3.949   4.216  0.0172  0.2339 -0.1612
 2383SOL     OW 9576   0.006   1.897   3.798 -0.6652  0.4287 -0.0705
 2383SOL    HW2 9577   0.070   1.948   3.748  0.6850 -0.8821  0.2804
 2383SOL    HW3 9578  -0.077   1.942   3.784 -0.3709  0.0067 -3.6627
 2383SOL    MW4 9579   0.003   1.910   3.790 -0.4483  0.2002 -0.4981
 2384SOL     OW 9580   1.577   0.924   4.584 -0.5944 -0.4204 -0.6025
 2384SOL    HW2 9581   1.597   1.003   4.635 -1.0516 -1.4069  1.1116
 2384SOL    HW3 9582   1.544   0.958   4.500  0.6589  1.2073 -0.4660
 2384SOL    MW4 9583   1.576   0.939   4.579 -0.4894 -0.3358 -0.3581
 2385SOL     OW 9584   2.750   2.120   4.219  0.0494 -0.0642 -0.0889
 2385SOL    HW2 9585   2.765   2.028   4.199 -0.3554 -0.1085 -0.1827
 2385SOL    HW3 9586   2.657   2.135   4.201 -0.2786 -0.0440  1.5058
 2385SOL    MW4 9587   2.740   2.110   4.214 -0.0474 -0.0675  0.1087
 2386SOL     OW 9588   0.453   1.115   3.811 -0.0269 -0.4897 -0.1128
 2386SOL    HW2 9589   0.519   1.180   3.785  2.3662 -1.0906  4.0949
 2386SOL    HW3 9590   0.371   1.165   3.812  0.4792  0.6462 -3.8660
 2386SOL    MW4 9591   0.450   1.130   3.807  0.3556 -0.4191 -0.0529
 2387SOL     OW 9592   3.530   0.369   4.097 -0.5256  0.1242 -0.2060
 2387SOL    HW2 9593   3.523   0.298   4.161 -1.3245  1.7543  1.5746
 2387SOL    HW3 9594   3.596   0.427   4.134 -0.0176  0.4301 -1.5563
 2387SOL    MW4 9595   3.538   0.367   4.110 -0.5636  0.3796 -0.1493
 2388SOL     OW 9596   1.920   2.403   4.359  0.0740  0.0072 -0.7726
 2388SOL    HW2 9597   1.839   2.384   4.405  0.8409  0.4484  0.7955
 2388SOL    HW3 9598   1.947   2.319   4.322 -0.3838 -0.4228 -0.1339
 2388SOL    MW4 9599   1.913   2.389   4.360  0.1149  0.0088 -0.4816
 2389SOL     OW 9600   4.279   0.797   3.854 -0.2934  0.1684  0.6261
 2389SOL    HW2 9601   4.353   0.850   3.825 -0.2191  0.0293  0.5585
 2389SOL    HW3 9602   4.208   0.818   3.793 -0.9748  1.9134  1.9666
 2389SOL    MW4 9603   4.279   0.807   3.842 -0.3738  0.3802  0.7939
 2390SOL     OW 9604   2.460   0.825   3.990 -0.1267  0.4148 -0.0244
 2390SOL    HW2 9605   2.500   0.760   3.933 -0.2219  1.2657 -1.0704
 2390SOL    HW3 9606   2.412   0.883   3.931  0.9930  2.1748  0.7580
 2390SOL    MW4 9607   2.459   0.824   3.975  0.0083  0.7593 -0.0591
 2391SOL     OW 9608   2.340   2.380   4.488  0.1095 -0.0990  0.3745
 2391SOL    HW2 9609   2.425   2.419   4.506  0.4851 -0.4828 -0.5193
 2391SOL    HW3 9610   2.343   2.294   4.530  0.1992 -0.1499  0.2638
 2391SOL    MW4 9611   2.351   2.374   4.496  0.1709 -0.1562  0.2427
 2392SOL     OW 9612   4.023   2.430   3.705  0.2396 -0.3936 -0.4619
 2392SOL    HW2 9613   3.947   2.386   3.743  0.6191 -1.3321 -0.7806
 2392SOL    HW3 9614   4.015   2.521   3.734 -0.1188 -0.8359  0.8799
 2392SOL    MW4 9615   4.012   2.436   3.714  0.2422 -0.5758 -0.3269
 2393SOL     OW 9616   0.440   1.931   3.826  0.0113 -0.2978 -0.1044
 2393SOL    HW2 9617   0.424   1.841   3.799 -1.2655 -0.1600  0.1542
 2393SOL    HW3 9618   0.492   1.923   3.906 -1.1587 -0.8407  0.6169
 2393SOL    MW4 9619   0.445   1.918   3.833 -0.3116 -0.3513  0.0250
 2394SOL     OW 9620   2.224   2.456   3.971  0.3005  0.2696  0.0363
 2394SOL    HW2 9621   2.244   2.453   4.065  1.8009  0.5623 -0.2625
 2394SOL    HW3 9622   2.142   2.407   3.963 -0.2544  0.8852  1.6035
 2394SOL    MW4 9623   2.216   2.449   3.983  0.4253  0.3896  0.2036
 2395SOL     OW 9624   2.702   3.175   4.395 -0.1659 -0.0369  0.1179
 2395SOL    HW2 9625   2.678   3.265   4.416  3.2430  0.6879  1.3270
 2395SOL    HW3 9626   2.752   3.181   4.314 -0.1921 -0.8610  0.0301
 2395SOL    MW4 9627   2.705   3.187   4.387  0.2804 -0.0498  0.2661
 2396SOL     OW 9628   3.216   2.365   4.128  0.3013 -0.3285  0.1453
 2396SOL    HW2 9629   3.125   2.341   4.144  0.2954 -0.6097 -0.3009
 2396SOL    HW3 9630   3.237   2.324   4.044  0.7945 -0.1448  0.1785
 2396SOL    MW4 9631   3.207   2.357   4.119  0.3655 -0.3414  0.0906
 2397SOL     OW 9632   4.223   0.467   4.496  0.4088 -0.0534 -0.3718
 2397SOL    HW2 9633   4.203   0.419   4.576  0.8603 -1.6071 -1.1773
 2397SOL    HW3 9634   4.221   0.401   4.427  0.7667  1.1346 -1.5417
 2397SOL    MW4 9635   4.220   0.452   4.497  0.5159 -0.1017 -0.6323
 2398SOL     OW 9636   2.759   0.971   4.412  0.1260 -0.2961 -0.2202
 2398SOL    HW2 9637   2.805   1.031   4.354  1.5276 -1.3289 -0.2035
 2398SOL    HW3 9638   2.702   0.920   4.355 -1.2890  1.2320 -0.1978
 2398SOL    MW4 9639   2.758   0.972   4.397  0.1242 -0.2307 -0.2151
 2399SOL     OW 9640   3.822   3.585   3.753 -0.1416 -0.0813  0.5151
 2399SOL    HW2 9641   3.832   3.679   3.765 -0.8793  0.0307  0.2327
 2399SOL    HW3 9642   3.754   3.560   3.816 -0.5106 -0.2924  0.0338
 2399SOL    MW4 9643   3.815   3.594   3.763 -0.2878 -0.0944  0.4141
 2400SOL     OW 9644   4.298   3.639   3.762 -0.1395 -0.1994  0.6245
 2400SOL    HW2 9645   4.216   3.594   3.783 -0.1036 -0.7618 -0.4153
 2400SOL    HW3 9646   4.285   3.728   3.795 -0.9018 -0.4823  1.0983
 2400SOL    MW4 9647   4.285   3.645   3.769 -0.2351 -0.3111  0.5498
 2401SOL     OW 9648   1.134   0.730   4.623 -0.3195 -0.2681 -0.3250
 2401SOL    HW2 9649   1.059   0.764   4.574 -0.6815  0.0066  0.4148
 2401SOL    HW3 9650   1.108   0.641   4.647 -1.0739  0.3958  1.3331
 2401SOL    MW4 9651   1.121   0.723   4.619 -0.4667 -0.1443 -0.0086
 2402SOL     OW 9652   4.058   4.032   3.779  0.1371 -0.2040  0.7202
 2402SOL    HW2 9653   4.069   4.073   3.694 -1.5665 -2.0369 -0.4412
 2402SOL    HW3 9654   4.049   4.105   3.840  1.3682  1.1250 -0.6521
 2402SOL    MW4 9655   4.058   4.047   3.776  0.0749 -0.2708  0.3860
 2403SOL     OW 9656   1.756   3.202   3.791 -0.1354 -0.3644 -0.4558
 2403SOL    HW2 9657   1.745   3.288   3.831  1.6306 -0.9326  1.3911
 2403SOL    HW3 9658   1.791   3.219   3.704 -0.5872  0.8078 -0.4064
 2403SOL    MW4 9659   1.759   3.215   3.785  0.0381 -0.2847 -0.2058
 2404SOL     OW 9660   3.109   1.201   4.583  0.1413 -0.0359  0.3239
 2404SOL    HW2 9661   3.173   1.138   4.550  0.2410 -0.3660  1.1446
 2404SOL    HW3 9662   3.041   1.204   4.515  0.7056 -0.1627 -0.2475
 2404SOL    MW4 9663   3.109   1.193   4.569  0.2289 -0.0962  0.3562
 2405SOL     OW 9664   0.571   2.517   4.695 -0.0174  0.2832  0.5511
 2405SOL    HW2 9665   0.493   2.536   4.643  0.2579  0.4809  0.2084
 2405SOL    HW3 9666   0.571   2.585   4.763 -0.2612  0.1510  0.6866
 2405SOL    MW4 9667   0.560   2.528   4.697 -0.0132  0.2918  0.5240
 2406SOL     OW 9668   3.958   3.514   4.569 -0.2354  0.4665 -0.1994
 2406SOL    HW2 9669   3.891   3.446   4.562 -0.0749  0.5782 -3.3511
 2406SOL    HW3 9670   4.015   3.484   4.640 -2.1291 -0.9037  0.7945
 2406SOL    MW4 9671   3.957   3.501   4.578 -0.4642  0.3004 -0.4840
 2407SOL     OW 9672   4.025   2.698   3.803 -0.2022  0.2442 -0.8243
 2407SOL    HW2 9673   4.108   2.738   3.777 -0.2287  0.5302 -0.4809
 2407SOL    HW3 9674   4.025   2.704   3.899  0.6117 -2.2148 -0.6570
 2407SOL    MW4 9675   4.036   2.704   3.812 -0.0987 -0.0422 -0.7570
 2408SOL     OW 9676   3.813   3.086   4.157 -0.2487  0.2384 -0.4305
 2408SOL    HW2 9677   3.842   2.998   4.182  0.7687  0.3274 -1.2507
 2408SOL    HW3 9678   3.810   3.083   4.061 -0.9485  0.8726 -0.4289
 2408SOL    MW4 9679   3.817   3.074   4.148 -0.2069  0.3335 -0.5383
 2409SOL     OW 9680   4.349   0.020   4.596 -0.3066  0.0768  0.1871
 2409SOL    HW2 9681   4.290   0.089   4.629 -0.6906 -0.4240  0.5575
 2409SOL    HW3 9682   4.430   0.066   4.576 -0.6459  0.6887  0.1767
 2409SOL    MW4 9683   4.352   0.035   4.598 -0.4020  0.0915  0.2346
 2410SOL     OW 9684   0.677   0.972   4.718  0.1818  0.0988  0.1331
 2410SOL    HW2 9685   0.759   1.014   4.693  0.3369 -0.6152 -0.5851
 2410SOL    HW3 9686   0.667   0.900   4.656 -0.9185  0.0931  0.3030
 2410SOL    MW4 9687   0.687   0.968   4.706  0.0570  0.0038  0.0606
 2411SOL     OW 9688   0.242   3.850   3.854 -0.2080 -0.1476  0.1349
 2411SOL    HW2 9689   0.313   3.912   3.836 -0.0423 -0.3313  0.1554
 2411SOL    HW3 9690   0.164   3.893   3.820  0.0749 -0.4035 -0.8546
 2411SOL    MW4 9691   0.241   3.864   3.847 -0.1488 -0.2058  0.0069
 2412SOL     OW 9692   4.209   2.801   4.422 -0.1270  0.0523 -0.4176
 2412SOL    HW2 9693   4.171   2.714   4.411 -1.7937  1.0017 -2.5658
 2412SOL    HW3 9694   4.252   2.819   4.339  1.4499  0.7539  0.5083
 2412SOL    MW4 9695   4.210   2.792   4.410 -0.1392  0.2701 -0.5794
 2413SOL     OW 9696   2.650   1.142   4.168 -0.1450  0.8641  0.2419
 2413SOL    HW2 9697   2.654   1.130   4.073  1.6815 -1.4244  0.5621
 2413SOL    HW3 9698   2.596   1.070   4.200 -1.2505  1.9708  0.9002
 2413SOL    MW4 9699   2.644   1.131   4.159 -0.0501  0.7082  0.3710
 2414SOL     OW 9700   1.595   2.071   4.171 -0.2272 -0.2954 -0.0557
 2414SOL    HW2 9701   1.520   2.057   4.228 -0.4173  0.3408 -0.1474
 2414SOL    HW3 9702   1.602   1.991   4.120  0.2430 -1.0745  1.2077
 2414SOL    MW4 9703   1.586   2.059   4.172 -0.1904 -0.3142  0.0992
 2415SOL     OW 9704   4.291   3.602   4.185 -0.0091  0.0745 -0.0550
 2415SOL    HW2 9705   4.362   3.537   4.194  1.3591  1.1814 -2.2374
 2415SOL    HW3 9706   4.269   3.626   4.275  1.0364 -1.7392  0.7263
 2415SOL    MW4 9707   4.298   3.596   4.198  0.3099 -0.0186 -0.2398
 2416SOL     OW 9708   1.529   0.187   4.881 -0.3905 -0.1802 -0.0260
 2416SOL    HW2 9709   1.512   0.276   4.852 -0.3501  0.9710  3.2615
 2416SOL    HW3 9710   1.618   0.188   4.914 -0.5569 -1.3110  0.5035
 2416SOL    MW4 9711   1.538   0.199   4.882 -0.4070 -0.1776  0.4778
 2417SOL     OW 9712   0.110   1.998   4.044  0.3512 -0.4246 -0.1941
 2417SOL    HW2 9713   0.085   1.966   3.958 -0.6868  1.2037 -0.5077
 2417SOL    HW3 9714   0.096   1.923   4.103 -2.0140 -0.5612 -0.9110
 2417SOL    MW4 9715   0.105   1.984   4.041 -0.0978 -0.2278 -0.3300
 2418SOL     OW 9716   3.152   2.711   3.857 -0.4212  0.2146  0.3094
 2418SOL    HW2 9717   3.077   2.771   3.852  0.8252  1.7597  0.1142
 2418SOL    HW3 9718   3.157   2.688   3.950 -0.7130  0.6336  0.4317
 2418SOL    MW4 9719   3.143   2.716   3.869 -0.2954  0.4735  0.2999
 2419SOL     OW 9720   0.550   3.754   4.533  0.1402 -0.8251 -0.3093
 2419SOL    HW2 9721   0.540   3.668   4.573 -0.6719 -0.3697  0.4978
 2419SOL    HW3 9722   0.610   3.740   4.460  1.1727 -1.7919  0.7015
 2419SOL    MW4 9723   0.556   3.741   4.529  0.1693 -0.8926 -0.0691
 2420SOL     OW 9724   3.264   0.744   4.159 -0.6714 -0.2022  0.3879
 2420SOL    HW2 9725   3.299   0.752   4.248 -1.9692  0.7040  0.8244
 2420SOL    HW3 9726   3.171   0.764   4.168 -0.6895  0.5252 -1.2721
 2420SOL    MW4 9727   3.257   0.748   4.172 -0.8452  0.0133  0.2265
 2421SOL     OW 9728   4.238   1.805   4.242 -0.4000 -0.0572  0.2822
 2421SOL    HW2 9729   4.270   1.885   4.201 -1.5320  0.3567  0.1799
 2421SOL    HW3 9730   4.249   1.819   4.336  3.1614 -1.4202  0.1423
 2421SOL    MW4 9731   4.244   1.817   4.249 -0.0796 -0.1824  0.2503
 2422SOL     OW 9732   3.341   3.943   4.550 -0.7954 -0.2320 -0.0232
 2422SOL    HW2 9733   3.427   3.985   4.545 -0.5484 -0.6482  0.5884
 2422SOL    HW3 9734   3.358   3.851   4.529 -1.0150 -0.3978  0.5092
 2422SOL    MW4 9735   3.355   3.937   4.547 -0.7918 -0.3090  0.1278
 2423SOL     OW 9736   1.299   3.531   3.876  0.4186 -0.3385  0.3777
 2423SOL    HW2 9737   1.222   3.589   3.868  1.0983  0.3166 -1.8592
 2423SOL    HW3 9738   1.312   3.522   3.970 -2.5526 -0.6633  0.8161
 2423SOL    MW4 9739   1.290   3.538   3.887  0.1163 -0.2952  0.1407
 2424SOL     OW 9740   1.795   1.644   3.707  0.0935  0.5345  0.7883
 2424SOL    HW2 9741   1.781   1.737   3.723 -3.6361  0.0472  0.7993
 2424SOL    HW3 9742   1.793   1.635   3.611 -0.4303  0.3839  0.8078
 2424SOL    MW4 9743   1.793   1.655   3.696 -0.4677  0.4504  0.7923
 2425SOL     OW 9744   2.792   1.638   4.610 -0.0332  0.1013  0.3299
 2425SOL    HW2 9745   2.822   1.547   4.607 -3.1343 -0.9597  0.0764
 2425SOL    HW3 9746   2.863   1.687   4.568  0.7990 -2.4605 -1.4249
 2425SOL    MW4 9747   2.806   1.632   4.604 -0.3326 -0.3768  0.0648
 2426SOL     OW 9748   0.525   4.039   4.545  0.1400 -0.2428 -0.8124
 2426SOL    HW2 9749   0.455   4.057   4.482 -0.1309  2.4089  0.2237
 2426SOL    HW3 9750   0.530   3.943   4.547 -2.5892 -0.4511 -1.8311
 2426SOL    MW4 9751   0.516   4.029   4.537 -0.2559  0.0796 -0.8101
 2427SOL     OW 9752   3.527   1.779   4.491  0.1967 -0.1059  0.5627
 2427SOL    HW2 9753   3.503   1.868   4.463  0.5461 -0.0957  0.2967
 2427SOL    HW3 9754   3.541   1.731   4.409 -0.5756 -0.5677  0.7007
 2427SOL    MW4 9755   3.526   1.785   4.476  0.1411 -0.1656  0.5455
 2428SOL     OW 9756   3.628   0.125   3.753 -0.2926  0.1141  0.1415
 2428SOL    HW2 9757   3.624   0.111   3.658 -1.0385  1.7724 -0.0915
 2428SOL    HW3 9758   3.559   0.070   3.788  0.8078 -1.4729 -0.1535
 2428SOL    MW4 9759   3.619   0.116   3.745 -0.2458  0.1235  0.0720
 2429SOL     OW 9760   2.855   3.900   4.506 -0.0668  0.0771  0.2174
 2429SOL    HW2 9761   2.849   3.806   4.523 -1.3044 -0.1470 -1.3598
 2429SOL    HW3 9762   2.790   3.938   4.566 -0.2327 -0.1553  0.1881
 2429SOL    MW4 9763   2.846   3.892   4.516 -0.2520  0.0165  0.0048
 2430SOL     OW 9764   1.359   1.153   3.805  0.4995 -0.1833  0.1949
 2430SOL    HW2 9765   1.430   1.185   3.748  0.7083 -0.7005  0.1625
 2430SOL    HW3 9766   1.388   1.066   3.832  0.0484 -0.2404  0.4882
 2430SOL    MW4 9767   1.372   1.146   3.801  0.4675 -0.2590  0.2291
 2431SOL     OW 9768   2.867   3.854   3.817 -0.0635  0.0309 -0.7040
 2431SOL    HW2 9769   2.873   3.856   3.913  0.6374  0.8039 -0.7618
 2431SOL    HW3 9770   2.885   3.763   3.794 -1.6293 -0.4878 -0.0218
 2431SOL    MW4 9771   2.870   3.843   3.827 -0.1776  0.0646 -0.6216
 2432SOL     OW 9772   1.970   3.623   3.786  0.1398 -0.3415 -0.4798
 2432SOL    HW2 9773   1.973   3.649   3.694  1.1700  0.6015 -0.1805
 2432SOL    HW3 9774   2.054   3.581   3.802 -0.0801 -0.5977  0.0067
 2432SOL    MW4 9775   1.981   3.621   3.776  0.2469 -0.2508 -0.3760
 2433SOL     OW 9776   0.899   0.399   3.885 -0.0198 -0.0633  0.4142
 2433SOL    HW2 9777   0.962   0.458   3.843  0.6449 -0.5765  0.6906
 2433SOL    HW3 9778   0.814   0.430   3.854  0.2780  1.4994  1.1224
 2433SOL    MW4 9779   0.896   0.411   3.875  0.1072  0.0752  0.5441
 2434SOL     OW 9780   1.118   2.464   4.220  0.1279  0.6418 -0.6979
 2434SOL    HW2 9781   1.202   2.489   4.258  0.3325  0.9352 -1.3393
 2434SOL    HW3 9782   1.139   2.393   4.160 -0.2160  0.0804 -0.1581
 2434SOL    MW4 9783   1.132   2.458   4.217  0.1098  0.6068 -0.7110
 2435SOL     OW 9784   3.251   2.288   4.609 -0.3559  0.0612 -0.1469
 2435SOL    HW2 9785   3.324   2.341   4.638 -0.4171  0.0988 -0.0603
 2435SOL    HW3 9786   3.271   2.200   4.639 -0.4083  0.0960 -0.0096
 2435SOL    MW4 9787   3.263   2.283   4.617 -0.3710  0.0708 -0.1173
 2436SOL     OW 9788   2.192   4.019   4.604  0.3627 -0.8255 -0.2293
 2436SOL    HW2 9789   2.180   4.113   4.616  0.2456 -0.7164 -1.1793
 2436SOL    HW3 9790   2.224   4.010   4.514  0.7963 -1.6552  0.0049
 2436SOL    MW4 9791   2.195   4.031   4.594  0.4044 -0.9208 -0.3242
 2437SOL     OW 9792   2.618   2.880   4.110 -0.1100  0.1198 -0.3665
 2437SOL    HW2 9793   2.549   2.941   4.137  1.1274  0.6411  1.7736
 2437SOL    HW3 9794   2.575   2.819   4.051 -1.8871  1.7631 -0.8335
 2437SOL    MW4 9795   2.603   2.880   4.106 -0.1812  0.4053 -0.1454
 2438SOL     OW 9796   3.837   3.642   4.251  0.5771  0.1414 -0.5263
 2438SOL    HW2 9797   3.907   3.598   4.204 -0.0557 -3.4037  1.6387
 2438SOL    HW3 9798   3.759   3.589   4.234 -0.5500  1.2505  0.9910
 2438SOL    MW4 9799   3.836   3.629   4.243  0.3445 -0.1800 -0.0405
 2439SOL     OW 9800   2.710   1.386   4.295  0.1974 -0.5842 -0.4196
 2439SOL    HW2 9801   2.774   1.419   4.232 -0.1729 -0.3063 -0.6549
 2439SOL    HW3 9802   2.681   1.303   4.257  0.1565 -0.5378 -0.4898
 2439SOL    MW4 9803   2.715   1.379   4.281  0.1433 -0.5414 -0.4601
 2440SOL     OW 9804   3.305   0.782   3.369 -0.0078 -0.1439  0.1105
 2440SOL    HW2 9805   3.314   0.694   3.406  1.4065 -0.7894 -1.6960
 2440SOL    HW3 9806   3.227   0.818   3.412 -1.2450 -2.6757  0.0800
 2440SOL    MW4 9807   3.296   0.775   3.380  0.0155 -0.5631 -0.1321
 2441SOL     OW 9808   0.976   0.075   4.191 -0.3374 -0.0395  0.1900
 2441SOL    HW2 9809   1.059   0.033   4.170 -1.3477 -1.5823 -0.8764
 2441SOL    HW3 9810   0.969   0.069   4.286 -0.4240 -2.3026  0.0733
 2441SOL    MW4 9811   0.986   0.069   4.200 -0.4821 -0.5416  0.0343
 2442SOL     OW 9812   4.274   4.663   3.887  0.3465  0.0998  0.0764
 2442SOL    HW2 9813   4.190   4.697   3.858  0.1202 -2.2808 -2.2694
 2442SOL    HW3 9814   4.338   4.723   3.849 -0.2222  0.8527  0.3002
 2442SOL    MW4 9815   4.272   4.675   3.878  0.2413 -0.1149 -0.2036
 2443SOL     OW 9816   2.267   2.075   4.569 -0.9113  0.3814  0.1717
 2443SOL    HW2 9817   2.240   2.078   4.478 -0.7942 -3.8675 -0.0721
 2443SOL    HW3 9818   2.359   2.048   4.567 -0.6318  1.1438  1.5313
 2443SOL    MW4 9819   2.276   2.072   4.557 -0.8588 -0.0787  0.3190
 2444SOL     OW 9820   2.507   3.820   4.221 -0.1019  0.0765 -0.4581
 2444SOL    HW2 9821   2.504   3.834   4.127 -1.4801  0.4791 -0.3746
 2444SOL    HW3 9822   2.510   3.725   4.232  0.0128  0.0295 -0.9130
 2444SOL    MW4 9823   2.507   3.809   4.210 -0.2687  0.1237 -0.5069
 2445SOL     OW 9824   4.450   0.887   3.454 -0.0009  0.3628  0.3031
 2445SOL    HW2 9825   4.415   0.960   3.404  1.1072  1.0039  0.4427
 2445SOL    HW3 9826   4.468   0.923   3.541  0.2684 -0.1462  0.4660
 2445SOL    MW4 9827   4.448   0.901   3.459  0.1807  0.3803  0.3428
 2446SOL     OW 9828   2.924   3.654   4.224 -0.2452 -0.4289 -0.5152
 2446SOL    HW2 9829   3.008   3.614   4.199 -0.5126 -0.0275 -2.0897
 2446SOL    HW3 9830   2.927   3.742   4.187 -1.2069 -0.2716 -0.2331
 2446SOL    MW4 9831   2.936   3.660   4.216 -0.4075 -0.3550 -0.6862
 2447SOL     OW 9832   2.725   3.982   4.276  0.3231  0.4220  0.0743
 2447SOL    HW2 9833   2.659   3.914   4.266  1.3235 -0.4133 -1.0108
 2447SOL    HW3 9834   2.782   3.950   4.346  0.3906  0.4692  0.0408
 2447SOL    MW4 9835   2.724   3.969   4.284  0.4642  0.3178 -0.0734
 2448SOL     OW 9836   0.206   4.644   3.813  0.1928 -0.4288  0.0447
 2448SOL    HW2 9837   0.184   4.630   3.905 -1.5276 -1.1730 -0.4721
 2448SOL    HW3 9838   0.213   4.557   3.776  2.0713 -0.1724 -0.2993
 2448SOL    MW4 9839   0.204   4.631   3.820  0.2137 -0.4930 -0.0689
 2449SOL     OW 9840   1.629   4.435   4.229  0.4107 -0.2112  0.6815
 2449SOL    HW2 9841   1.664   4.349   4.204  0.0822 -0.1417 -0.0145
 2449SOL    HW3 9842   1.534   4.426   4.221  0.4450  0.6303 -0.7367
 2449SOL    MW4 9843   1.621   4.423   4.225  0.3719 -0.0911  0.4025
 2450SOL     OW 9844   2.472   4.433   3.805 -0.1337 -0.2990 -0.0777
 2450SOL    HW2 9845   2.392   4.411   3.853 -1.0686 -1.4536 -2.1146
 2450SOL    HW3 9846   2.537   4.370   3.838  0.0835  0.9146  1.8872
 2450SOL    MW4 9847   2.470   4.422   3.816 -0.2284 -0.2913 -0.0873
 2451SOL     OW 9848   3.077   3.273   4.542 -0.1623  0.2570 -0.0141
 2451SOL    HW2 9849   3.019   3.198   4.552 -1.5634  1.0739 -1.7092
 2451SOL    HW3 9850   3.086   3.285   4.447  1.3581  1.2310  0.2285
 2451SOL    MW4 9851   3.070   3.265   4.531 -0.1464  0.4933 -0.2060
 2452SOL     OW 9852   2.299   0.988   4.482 -0.3512  0.5360 -0.0072
 2452SOL    HW2 9853   2.219   1.039   4.490 -0.4792  0.5277 -1.1419
 2452SOL    HW3 9854   2.269   0.897   4.480 -0.5499  0.6058 -2.8084
 2452SOL    MW4 9855   2.284   0.983   4.483 -0.3943  0.5441 -0.5264
 2453SOL     OW 9856   4.263   2.325   3.789 -0.0818 -0.1636 -0.3272
 2453SOL    HW2 9857   4.252   2.236   3.755 -0.2961  0.6578 -2.4376
 2453SOL    HW3 9858   4.181   2.369   3.766  0.1225  0.6701  0.5126
 2453SOL    MW4 9859   4.250   2.319   3.781 -0.0825  0.0548 -0.4947
 2454SOL     OW 9860   2.906   3.903   4.081 -0.0601 -0.2334 -0.3213
 2454SOL    HW2 9861   2.997   3.922   4.103  0.1814  0.0816 -1.5563
 2454SOL    HW3 9862   2.855   3.953   4.144  0.6207  0.6761 -0.4827
 2454SOL    MW4 9863   2.911   3.912   4.092  0.0620 -0.0720 -0.5059
 2455SOL     OW 9864   4.056   4.255   3.951  0.2364 -0.2071 -0.1308
 2455SOL    HW2 9865   4.048   4.244   4.045 -0.6372  0.9581 -0.0620
 2455SOL    HW3 9866   3.974   4.297   3.924  1.1895  1.0419 -1.1540
 2455SOL    MW4 9867   4.044   4.259   3.960  0.2470  0.1111 -0.2568
 2456SOL     OW 9868   0.704   0.419   4.567  0.5761 -0.3593  0.3156
 2456SOL    HW2 9869   0.615   0.416   4.601  0.5243 -1.0709  0.1282
 2456SOL    HW3 9870   0.756   0.370   4.631  0.2552 -2.8437 -1.2632
 2456SOL    MW4 9871   0.699   0.412   4.580  0.5269 -0.7810  0.0825
 2457SOL     OW 9872   4.035   1.128   3.849 -0.4526 -0.0156 -0.1239
 2457SOL    HW2 9873   4.103   1.188   3.819 -0.5197 -0.2107 -0.6809
 2457SOL    HW3 9874   4.060   1.044   3.811  0.4160 -0.6572  1.8018
 2457SOL    MW4 9875   4.047   1.125   3.840 -0.3471 -0.1260  0.0565
 2458SOL     OW 9876   4.268   2.826   4.168 -0.2870 -0.1816  1.2018
 2458SOL    HW2 9877   4.257   2.921   4.167 -0.9566 -0.2525  1.7749
 2458SOL    HW3 9878   4.182   2.791   4.145  0.4336 -0.6277 -0.9578
 2458SOL    MW4 9879   4.255   2.834   4.165 -0.2809 -0.2499  0.9928
 2459SOL     OW 9880   3.568   1.244   4.160 -0.3155 -0.4653 -0.2323
 2459SOL    HW2 9881   3.579   1.201   4.075 -0.0699  0.1270 -0.4969
 2459SOL    HW3 9882   3.519   1.180   4.212 -1.2360 -0.4670 -1.0920
 2459SOL    MW4 9883   3.563   1.230   4.155 -0.4044 -0.3874 -0.3810
 2460SOL     OW 9884   3.656   3.116   4.374 -0.0978  0.2096  0.0254
 2460SOL    HW2 9885   3.704   3.175   4.434 -1.6335  1.1913  0.3237
 2460SOL    HW3 9886   3.708   3.116   4.294  0.6509  0.9026  0.4983
 2460SOL    MW4 9887   3.669   3.124   4.372 -0.2015  0.4306  0.1268
 2461SOL     OW 9888   4.272   3.105   4.124 -0.3297  0.0879  0.1508
 2461SOL    HW2 9889   4.266   3.095   4.029 -0.6609 -1.8532  0.3657
 2461SOL    HW3 9890   4.188   3.142   4.149  0.0885  1.4651 -0.3986
 2461SOL    MW4 9891   4.260   3.109   4.115 -0.3181  0.0136  0.1063
 2462SOL     OW 9892   4.231   1.555   4.084  0.1105  0.2839 -0.1950
 2462SOL    HW2 9893   4.163   1.508   4.133  0.2730 -0.4551 -0.6641
 2462SOL    HW3 9894   4.246   1.635   4.134 -0.5514  0.0838  0.3335
 2462SOL    MW4 9895   4.224   1.559   4.097  0.0448  0.1600 -0.1874
 2463SOL     OW 9896   2.908   1.284   3.497  0.2335  0.3560  0.0655
 2463SOL    HW2 9897   2.977   1.224   3.469 -0.3465 -0.1176 -0.3572
 2463SOL    HW3 9898   2.828   1.248   3.459 -0.0096  1.8460 -0.8913
 2463SOL    MW4 9899   2.906   1.272   3.488  0.1249  0.4901 -0.1166
 2464SOL     OW 9900   2.004   2.018   4.637  0.0552 -0.3340  0.2746
 2464SOL    HW2 9901   2.091   2.057   4.625 -0.1659 -0.2908 -1.2968
 2464SOL    HW3 9902   2.019   1.924   4.627 -0.1520 -0.2878 -0.5206
 2464SOL    MW4 9903   2.017   2.011   4.634 -0.0014 -0.3221 -0.0377
 2465SOL     OW 9904   2.303   3.208   4.326  0.5717 -0.1435 -0.0650
 2465SOL    HW2 9905   2.319   3.247   4.412 -1.7424 -1.4891  1.0203
 2465SOL    HW3 9906   2.261   3.277   4.276 -0.3450 -0.1412  0.7072
 2465SOL    MW4 9907   2.300   3.222   4.331  0.1454 -0.3207  0.1798
 2466SOL     OW 9908   4.473   1.157   3.916 -0.2143 -0.4419  0.2980
 2466SOL    HW2 9909   4.554   1.193   3.880  0.1279 -0.1754  1.3079
 2466SOL    HW3 9910   4.403   1.213   3.880 -0.0387 -1.2216 -1.2863
 2466SOL    MW4 9911   4.474   1.169   3.907 -0.1459 -0.5095  0.2222
 2467SOL     OW 9912   3.845   4.352   4.350  0.6180  0.5190  0.0438
 2467SOL    HW2 9913   3.813   4.422   4.293  4.9756  1.1811 -1.8452
 2467SOL    HW3 9914   3.893   4.397   4.420  1.5970 -0.4844  0.0451
 2467SOL    MW4 9915   3.847   4.367   4.352  1.3218  0.4745 -0.2055
 2468SOL     OW 9916   1.590   3.371   4.289  0.3349 -0.1991  0.2661
 2468SOL    HW2 9917   1.553   3.376   4.377  0.9721  0.7179  0.4914
 2468SOL    HW3 9918   1.582   3.279   4.265  0.1406 -0.4563  1.2819
 2468SOL    MW4 9919   1.584   3.360   4.298  0.3933 -0.1121  0.4292
 2469SOL     OW 9920   1.889   4.564   4.159  0.0551  0.3586 -0.0960
 2469SOL    HW2 9921   1.863   4.623   4.088 -0.0572 -0.2869 -0.5916
 2469SOL    HW3 9922   1.807   4.525   4.189  0.2521 -0.3014 -0.4319
 2469SOL    MW4 9923   1.875   4.567   4.154  0.0663  0.1860 -0.2055
 2470SOL     OW 9924   1.101   4.540   4.608  0.4321 -0.3455 -0.5314
 2470SOL    HW2 9925   1.180   4.572   4.650  1.9420 -1.7623 -2.1976
 2470SOL    HW3 9926   1.124   4.453   4.576 -1.4500 -0.3558 -2.0053
 2470SOL    MW4 9927   1.114   4.533   4.609  0.3830 -0.5336 -0.9460
 2471SOL     OW 9928   2.828   0.023   4.169  0.4752  0.0203  0.1252
 2471SOL    HW2 9929   2.917   0.014   4.203  0.4954  0.1428  0.1047
 2471SOL    HW3 9930   2.782  -0.054   4.202  0.7673 -0.3910 -0.4420
 2471SOL    MW4 9931   2.834   0.012   4.178  0.5164 -0.0176  0.0482
 2472SOL     OW 9932   0.494   1.174   4.724 -0.0931 -0.4245 -0.1918
 2472SOL    HW2 9933   0.434   1.164   4.798  1.0606  0.4567  0.8981
 2472SOL    HW3 9934   0.552   1.098   4.729 -0.3231 -0.6155 -0.4711
 2472SOL    MW4 9935   0.494   1.163   4.735  0.0287 -0.3335 -0.0854
 2473SOL     OW 9936   4.078   3.507   3.838 -0.0464 -0.3519 -0.2158
 2473SOL    HW2 9937   4.071   3.482   3.930  0.7861  0.4042  0.0547
 2473SOL    HW3 9938   3.993   3.544   3.816 -0.1380 -0.2448  0.3329
 2473SOL    MW4 9939   4.066   3.508   3.847  0.0515 -0.2382 -0.1080
 2474SOL     OW 9940   3.813   2.804   4.247  0.7669  0.4804 -0.0595
 2474SOL    HW2 9941   3.806   2.782   4.340  0.1096 -1.6602 -0.5976
 2474SOL    HW3 9942   3.742   2.757   4.206  0.2039  2.5219 -1.4937
 2474SOL    MW4 9943   3.803   2.795   4.254  0.6056  0.4673 -0.3195
 2475SOL     OW 9944   3.803   2.239   4.127 -0.0915 -0.0504 -0.0316
 2475SOL    HW2 9945   3.727   2.281   4.167 -0.9793 -1.2411 -0.4064
 2475SOL    HW3 9946   3.838   2.183   4.197 -0.2920 -0.4205 -0.2252
 2475SOL    MW4 9947   3.798   2.237   4.142 -0.2351 -0.2563 -0.1068
 2476SOL     OW 9948   1.349   0.163   3.807 -0.3413 -0.0777 -0.1303
 2476SOL    HW2 9949   1.265   0.123   3.830 -0.0278 -0.3512  0.5774
 2476SOL    HW3 9950   1.414   0.107   3.850  0.1843  0.2961 -0.4384
 2476SOL    MW4 9951   1.346   0.150   3.816 -0.2306 -0.0644 -0.0777
 2477SOL     OW 9952   0.730   2.842   3.725  0.3714  0.4732 -0.4546
 2477SOL    HW2 9953   0.655   2.787   3.742  1.8784 -1.7219 -0.7474
 2477SOL    HW3 9954   0.724   2.864   3.632  0.5561 -0.3782 -0.6631
 2477SOL    MW4 9955   0.720   2.838   3.715  0.5946  0.0713 -0.5207
 2478SOL     OW 9956   1.330   4.032   3.849  0.1758  0.0993  0.1560
 2478SOL    HW2 9957   1.408   3.989   3.882 -0.0643 -0.1265  0.4222
 2478SOL    HW3 9958   1.347   4.045   3.755  0.4837 -0.0492  0.1939
 2478SOL    MW4 9959   1.342   4.028   3.841  0.1848  0.0505  0.1960
 2479SOL     OW 9960   2.255   2.480   4.245 -0.5076 -0.2685  0.6592
 2479SOL    HW2 9961   2.278   2.429   4.322  0.4488 -1.5639 -0.4649
 2479SOL    HW3 9962   2.338   2.514   4.212 -0.8579 -0.0637 -0.0439
 2479SOL    MW4 9963   2.269   2.478   4.251 -0.4275 -0.4125  0.4182
 2480SOL     OW 9964   1.103   2.836   3.922  0.0520  0.1911  0.0564
 2480SOL    HW2 9965   1.054   2.788   3.856  1.3668 -0.2511 -0.6118
 2480SOL    HW3 9966   1.189   2.793   3.924  0.5696  1.2435  0.8768
 2480SOL    MW4 9967   1.108   2.824   3.914  0.2939  0.2718  0.0763
 2481SOL     OW 9968   2.173   3.629   4.328 -0.1910  0.2799  0.1182
 2481SOL    HW2 9969   2.142   3.711   4.289  2.2446  0.4398 -1.6197
 2481SOL    HW3 9970   2.093   3.582   4.353 -1.7318  1.6035 -2.1469
 2481SOL    MW4 9971   2.158   3.634   4.326 -0.0730  0.4756 -0.4101
 2482SOL     OW 9972   2.694   4.271   4.736 -0.4706  0.1811  0.5219
 2482SOL    HW2 9973   2.766   4.330   4.758  0.4073 -0.6292 -0.1175
 2482SOL    HW3 9974   2.637   4.323   4.679  1.2270 -0.1059 -1.5265
 2482SOL    MW4 9975   2.696   4.286   4.731 -0.1314  0.0367  0.1678
 2483SOL     OW 9976   1.525   0.606   3.825 -0.2275 -0.1176 -0.1937
 2483SOL    HW2 9977   1.462   0.552   3.873 -0.0496  0.4306  0.6575
 2483SOL    HW3 9978   1.610   0.569   3.848 -0.1466  0.1083 -0.1342
 2483SOL    MW4 9979   1.528   0.594   3.834 -0.1932 -0.0154 -0.0734
 2484SOL     OW 9980   0.078   2.999   4.534 -0.0986 -0.4645  0.6071
 2484SOL    HW2 9981   0.158   3.045   4.510 -0.3849  0.0052  0.5515
 2484SOL    HW3 9982   0.007   3.056   4.504 -0.4541 -1.3929 -0.3671
 2484SOL    MW4 9983   0.079   3.012   4.527 -0.1833 -0.5252  0.4711
 2485SOL     OW 9984   0.455   3.188   4.296 -0.7621 -0.2396  0.5938
 2485SOL    HW2 9985   0.391   3.152   4.235  0.3142 -2.3021  0.6357
 2485SOL    HW3 9986   0.483   3.270   4.256 -0.6354 -1.2014 -1.3072
 2485SOL    MW4 9987   0.450   3.194   4.283 -0.6034 -0.6382  0.3481
 2486SOL     OW 9988   1.968   0.673   4.349  0.3185 -0.0072 -0.1473
 2486SOL    HW2 9989   1.919   0.718   4.418  2.0410  0.2945  0.9146
 2486SOL    HW3 9990   1.911   0.602   4.322 -0.8620  0.5575  0.8106
 2486SOL    MW4 9991   1.954   0.670   4.355  0.3901  0.1072  0.1192
 2487SOL     OW 9992   1.593   2.324   3.783 -0.3703  0.3951 -0.2990
 2487SOL    HW2 9993   1.583   2.235   3.747 -1.8279  1.1087 -1.7281
 2487SOL    HW3 9994   1.573   2.314   3.876 -2.1449 -0.5052 -0.7548
 2487SOL    MW4 9995   1.589   2.311   3.791 -0.7967  0.3705 -0.5476
 2488SOL     OW 9996   3.611   3.216   3.826 -0.5118  0.2536  0.2704
 2488SOL    HW2 9997   3.593   3.308   3.847  0.3576  0.5487 -0.2233
 2488SOL    HW3 9998   3.615   3.214   3.730  1.0875  0.0386  0.3235
 2488SOL    MW4 9999   3.609   3.228   3.816 -0.1862  0.2642  0.2122
 2489SOL     OW10000   2.661   1.113   3.889 -0.0789 -0.3703 -0.0917
 2489SOL    HW210001   2.741   1.148   3.851 -0.2514  0.7453  0.5480
 2489SOL    HW310002   2.596   1.181   3.875 -1.0357 -1.4307 -0.9688
 2489SOL    MW410003   2.663   1.126   3.882 -0.2279 -0.3630 -0.1228
 2490SOL     OW10004   0.996   2.707   4.141  0.0189 -0.4823 -0.4412
 2490SOL    HW210005   1.048   2.628   4.156  2.4924  1.3454  1.1009
 2490SOL    HW310006   1.036   2.747   4.064 -1.2545 -0.7405 -1.2440
 2490SOL    MW410007   1.008   2.702   4.133  0.1773 -0.2754 -0.3438
 2491SOL     OW10008   3.619   1.108   4.664 -0.2036  0.0733 -0.0638
 2491SOL    HW210009   3.585   1.191   4.696  0.5279 -0.2973  1.7695
 2491SOL    HW310010   3.705   1.129   4.628  0.1329  0.0765  0.7222
 2491SOL    MW410011   3.626   1.122   4.664 -0.0629  0.0248  0.2813
 2492SOL     OW10012   1.833   3.384   4.124 -0.5211  0.0694  0.1554
 2492SOL    HW210013   1.871   3.296   4.118 -0.9616 -0.0735 -0.5169
 2492SOL    HW310014   1.750   3.371   4.171 -0.3149  0.2094  0.5601
 2492SOL    MW410015   1.827   3.371   4.130 -0.5518  0.0691  0.1202
 2493SOL     OW10016   2.110   4.326   4.406  0.4681  0.0441 -0.0225
 2493SOL    HW210017   2.173   4.325   4.478  0.9590  0.8279 -0.4341
 2493SOL    HW310018   2.024   4.324   4.449  0.7426 -2.8575  0.5142
 2493SOL    MW410019   2.107   4.326   4.421  0.5691 -0.2351 -0.0062
 2494SOL     OW10020   3.343   1.524   3.863 -0.0923  0.0149  0.4135
 2494SOL    HW210021   3.390   1.517   3.946  1.1451 -0.7777 -0.3453
 2494SOL    HW310022   3.344   1.436   3.827 -1.3591  0.1860 -0.0591
 2494SOL    MW410023   3.349   1.512   3.870 -0.0963 -0.0671  0.2508
 2495SOL     OW10024   2.076   2.395   4.611  0.1847 -0.0044  0.3245
 2495SOL    HW210025   2.166   2.401   4.578  0.3598  0.0989  0.8148
 2495SOL    HW310026   2.022   2.391   4.532  0.5657  0.7681  0.0140
 2495SOL    MW410027   2.081   2.395   4.596  0.2580  0.1113  0.3481
 2496SOL     OW10028   0.226   1.271   3.772  0.3475  0.1215 -0.4553
 2496SOL    HW210029   0.222   1.274   3.677  0.3049  1.3606 -0.4199
 2496SOL    HW310030   0.219   1.362   3.800  2.2367 -0.0470  0.6567
 2496SOL    MW410031   0.224   1.283   3.763  0.5912  0.2629 -0.3040
 2497SOL     OW10032   0.415   1.142   4.096 -0.1209  0.4642  0.1576
 2497SOL    HW210033   0.493   1.120   4.147 -0.3355  1.2532  0.8438
 2497SOL    HW310034   0.438   1.120   4.006  1.0580  1.1036  0.2898
 2497SOL    MW410035   0.429   1.136   4.091  0.0063  0.6527  0.2651
 2498SOL     OW10036   4.261   2.832   3.722  0.3635  0.4204  0.0010
 2498SOL    HW210037   4.325   2.783   3.774  1.1335  0.7793 -0.6000
 2498SOL    HW310038   4.261   2.919   3.761 -0.3769  0.1973  0.5228
 2498SOL    MW410039   4.269   2.837   3.734  0.3672  0.4380 -0.0098
 2499SOL     OW10040   3.578   3.485   3.898 -0.4021  0.7212 -0.3197
 2499SOL    HW210041   3.501   3.530   3.865 -1.1774 -0.8523 -0.6990
 2499SOL    HW310042   3.578   3.504   3.992 -0.0810  2.4283 -0.6602
 2499SOL    MW410043   3.568   3.493   3.906 -0.4621  0.7389 -0.4146
 2500SOL     OW10044   1.989   0.444   4.097 -0.1833  0.0415  0.0982
 2500SOL    HW210045   1.896   0.422   4.105 -0.1396  0.0197  0.5275
 2500SOL    HW310046   2.031   0.398   4.170  0.6609 -2.8781 -2.0951
 2500SOL    MW410047   1.982   0.435   4.107 -0.0663 -0.3466 -0.1354
 2501SOL     OW10048   0.879   0.145   3.770  0.2708 -0.6870  0.2638
 2501SOL    HW210049   0.798   0.108   3.804 -0.1330  0.2515  0.3356
 2501SOL    HW310050   0.880   0.235   3.802  0.3120 -0.0417 -1.4735
 2501SOL    MW410051   0.869   0.152   3.778  0.2230 -0.4781  0.0441
 2502SOL     OW10052   2.637   2.627   3.913 -0.0644  0.4629  0.5471
 2502SOL    HW210053   2.660   2.555   3.854 -0.4579  1.3491 -0.7143
 2502SOL    HW310054   2.605   2.584   3.993 -0.1889 -0.7541 -0.1496
 2502SOL    MW410055   2.636   2.612   3.916 -0.1326  0.4194  0.2887
 2503SOL     OW10056   1.528   3.131   4.177  0.1140  0.4245  0.2199
 2503SOL    HW210057   1.446   3.118   4.225  0.1188 -1.3741 -0.1987
 2503SOL    HW310058   1.577   3.050   4.190 -0.0662 -0.3211 -3.0992
 2503SOL    MW410059   1.523   3.119   4.185  0.0908  0.0889 -0.2728
 2504SOL     OW10060   1.727   1.254   4.301 -0.1456 -0.1361  0.1880
 2504SOL    HW210061   1.728   1.347   4.323  1.6205 -0.6509  2.4812
 2504SOL    HW310062   1.813   1.237   4.263 -1.2418 -0.4046 -2.2321
 2504SOL    MW410063   1.738   1.264   4.299 -0.0572 -0.2394  0.1707
 2505SOL     OW10064   3.993   1.660   3.724  0.3683  0.0847 -0.1664
 2505SOL    HW210065   3.918   1.624   3.771  0.1080  1.8931  0.8506
 2505SOL    HW310066   4.069   1.620   3.767  0.0201 -1.6378 -1.1091
 2505SOL    MW410067   3.993   1.650   3.736  0.2882  0.0962 -0.1569
 2506SOL     OW10068   0.560   3.052   4.539  0.3410  0.3337 -0.2450
 2506SOL    HW210069   0.499   3.087   4.474  0.8829  0.1621 -0.8572
 2506SOL    HW310070   0.570   2.959   4.515  0.0871  0.1219  0.4448
 2506SOL    MW410071   0.553   3.044   4.527  0.3790  0.2832 -0.2346
 2507SOL     OW10072   2.669   1.168   3.372  0.4140 -0.1122  0.0895
 2507SOL    HW210073   2.675   1.076   3.400 -0.1925 -0.1718  0.0490
 2507SOL    HW310074   2.665   1.163   3.277 -2.8362 -0.2780  0.1772
 2507SOL    MW410075   2.669   1.155   3.363 -0.0949 -0.1419  0.0958
 2508SOL     OW10076   3.611   0.400   4.466 -0.1989 -0.3520  0.3462
 2508SOL    HW210077   3.517   0.394   4.485 -0.6528 -0.3473 -1.7719
 2508SOL    HW310078   3.615   0.441   4.380  1.7227 -1.2490 -0.0063
 2508SOL    MW410079   3.599   0.404   4.457 -0.0052 -0.4697  0.0200
 2509SOL     OW10080   0.366   4.031   4.281  0.0300 -0.3212  0.2397
 2509SOL    HW210081   0.312   3.972   4.228  1.3728 -0.8747 -0.5480
 2509SOL    HW310082   0.389   4.102   4.222  0.2717 -0.1642  0.5220
 2509SOL    MW410083   0.362   4.032   4.266  0.2391 -0.3738  0.1726
 2510SOL     OW10084   0.901   0.851   4.478  0.5378  0.6249 -0.1881
 2510SOL    HW210085   0.816   0.819   4.508 -0.6739  1.2775 -2.7650
 2510SOL    HW310086   0.905   0.941   4.509 -0.2909  0.9941 -1.1152
 2510SOL    MW410087   0.891   0.859   4.486  0.2686  0.7597 -0.6504
 2511SOL     OW10088   0.955   3.016   4.558 -0.0304 -0.2148 -0.2169
 2511SOL    HW210089   1.010   2.942   4.532  0.8802  0.3014  0.2297
 2511SOL    HW310090   0.925   3.052   4.474 -0.8639 -1.3651 -0.4263
 2511SOL    MW410091   0.958   3.011   4.543 -0.0202 -0.2983 -0.1855
 2512SOL     OW10092   1.991   0.602   3.781  0.1538  0.2022 -0.0125
 2512SOL    HW210093   1.992   0.555   3.698 -0.1508  0.0641  0.0629
 2512SOL    HW310094   2.084   0.619   3.800  0.2436 -0.0844 -0.1986
 2512SOL    MW410095   2.003   0.598   3.773  0.1254  0.1462 -0.0272
 2513SOL     OW10096   1.508   1.786   4.485  0.3564 -0.0358 -0.2956
 2513SOL    HW210097   1.600   1.804   4.506  0.3987  0.2366 -0.6979
 2513SOL    HW310098   1.458   1.824   4.557  0.5372  0.2100 -0.3000
 2513SOL    MW410099   1.514   1.793   4.497  0.3858  0.0325 -0.3490
 2514SOL     OW10100   2.776   2.803   4.759 -0.7662  0.3030  0.1254
 2514SOL    HW210101   2.871   2.811   4.756 -0.7342 -0.4614 -2.2467
 2514SOL    HW310102   2.746   2.884   4.800  0.9626 -0.1195  2.3287
 2514SOL    MW410103   2.784   2.814   4.764 -0.5338  0.1464  0.1030
 2515SOL     OW10104   1.303   0.274   4.582  0.2778 -0.1219 -0.1953
 2515SOL    HW210105   1.212   0.304   4.579 -0.3417 -1.8427  0.5313
 2515SOL    HW310106   1.319   0.239   4.495 -0.5127 -1.8849  0.3467
 2515SOL    MW410107   1.293   0.273   4.570  0.0918 -0.5815 -0.0281
 2516SOL     OW10108   1.753   3.731   4.289  0.4272 -0.2375  0.0735
 2516SOL    HW210109   1.796   3.649   4.316  2.1282 -0.8359 -4.0401
 2516SOL    HW310110   1.825   3.787   4.260 -1.1177  0.8437 -1.7649
 2516SOL    MW410111   1.769   3.727   4.289  0.4478 -0.1738 -0.7114
 2517SOL     OW10112   2.788   1.873   4.132 -0.0634 -0.1923  0.0674
 2517SOL    HW210113   2.747   1.885   4.047 -2.3728  0.2409  1.2036
 2517SOL    HW310114   2.717   1.844   4.190  0.7289  2.6550  2.6134
 2517SOL    MW410115   2.773   1.871   4.129 -0.2635  0.2407  0.5531
 2518SOL     OW10116   1.803   3.216   3.529  0.0888  0.2756 -0.5103
 2518SOL    HW210117   1.806   3.297   3.478  0.5325  0.7742  0.3001
 2518SOL    HW310118   1.731   3.166   3.491  0.0817  0.8718 -1.2824
 2518SOL    MW410119   1.794   3.220   3.517  0.1463  0.4201 -0.5052
 2519SOL     OW10120   2.247   4.387   3.975 -0.7342  0.3244 -0.3219
 2519SOL    HW210121   2.172   4.403   3.918 -1.3719  1.9473  0.9130
 2519SOL    HW310122   2.241   4.456   4.042  1.6162  0.2059  0.0454
 2519SOL    MW410123   2.236   4.398   3.977 -0.5083  0.5231 -0.1104
 2520SOL     OW10124   2.546   1.843   4.283 -0.1565 -0.4860  0.3837
 2520SOL    HW210125   2.454   1.863   4.266  0.2155  0.3785 -0.5992
 2520SOL    HW310126   2.543   1.764   4.338 -1.4343 -1.5437 -1.1505
 2520SOL    MW410127   2.533   1.835   4.288 -0.2761 -0.5114  0.0510
 2521SOL     OW10128   4.203   1.032   4.304 -0.6063 -0.3046  0.0145
 2521SOL    HW210129   4.284   1.072   4.274 -0.8340 -0.4674 -0.8413
 2521SOL    HW310130   4.227   0.942   4.324 -0.1896  0.1211  1.5173
 2521SOL    MW410131   4.217   1.026   4.303 -0.5817 -0.2700  0.0997
 2522SOL     OW10132   2.295   3.977   4.334 -0.4248  0.7560  0.1893
 2522SOL    HW210133   2.271   4.025   4.254  1.7755  1.2380 -0.1895
 2522SOL    HW310134   2.338   3.898   4.302  0.5279  0.9854  0.9027
 2522SOL    MW410135   2.297   3.973   4.319 -0.0088  0.8500  0.2332
 2523SOL     OW10136   1.999   0.048   3.859 -0.3331 -0.0451 -0.2185
 2523SOL    HW210137   2.088   0.075   3.836  0.2197 -0.3057  1.5383
 2523SOL    HW310138   1.999  -0.047   3.849 -0.8882  0.1111 -1.7686
 2523SOL    MW410139   2.010   0.039   3.855 -0.3333 -0.0587 -0.1910
 2524SOL     OW10140   4.472   2.702   4.554  0.4621  0.4472 -0.4571
 2524SOL    HW210141   4.524   2.782   4.550 -1.6531  1.8195 -1.4658
 2524SOL    HW310142   4.382   2.733   4.565 -0.2387 -1.8471  0.4209
 2524SOL    MW410143   4.467   2.717   4.555  0.0906  0.3254 -0.4745
 2525SOL     OW10144   3.045   0.775   4.555  0.0204 -0.0941  0.2889
 2525SOL    HW210145   3.004   0.857   4.583  0.5991  0.3994 -0.3037
 2525SOL    HW310146   2.979   0.733   4.499  0.1644  0.5142 -0.3468
 2525SOL    MW410147   3.031   0.780   4.551  0.1159  0.0512  0.1268
 2526SOL     OW10148   0.089   3.946   4.499 -0.1182  0.2877 -0.4300
 2526SOL    HW210149   0.068   3.958   4.406  0.7647 -0.9212 -0.7988
 2526SOL    HW310150   0.149   4.018   4.519  0.7678 -0.2442 -1.1554
 2526SOL    MW410151   0.094   3.957   4.489  0.1152  0.0579 -0.5741
 2527SOL     OW10152   0.812   2.827   4.697 -0.0896 -0.8676  0.5371
 2527SOL    HW210153   0.755   2.792   4.629 -0.7237 -0.2716  0.7547
 2527SOL    HW310154   0.845   2.909   4.660  0.6142 -1.2036  0.4171
 2527SOL    MW410155   0.809   2.833   4.683 -0.0805 -0.8335  0.5498
 2528SOL     OW10156   3.262   0.463   4.119  0.2358 -0.3858 -0.1360
 2528SOL    HW210157   3.259   0.558   4.127  0.0810 -0.4431  0.5256
 2528SOL    HW310158   3.354   0.440   4.135  0.0738 -0.4348  0.7233
 2528SOL    MW410159   3.274   0.472   4.122  0.1941 -0.3998  0.0648
 2529SOL     OW10160   2.881   0.635   4.394 -0.2443  0.4310  0.1175
 2529SOL    HW210161   2.921   0.662   4.312  1.2860 -0.6870  0.4831
 2529SOL    HW310162   2.868   0.541   4.385  0.2263  0.2456  1.2812
 2529SOL    MW410163   2.885   0.627   4.382  0.0200  0.2591  0.3190
 2530SOL     OW10164   4.209   0.313   4.270  0.4113 -0.1921  0.0059
 2530SOL    HW210165   4.128   0.330   4.222 -0.0407  0.5983  1.0319
 2530SOL    HW310166   4.279   0.343   4.212 -0.0141 -0.9142 -0.9021
 2530SOL    MW410167   4.207   0.319   4.256  0.2956 -0.1831  0.0215
 2531SOL     OW10168   1.505   0.434   4.702  0.1695  0.0278  0.3217
 2531SOL    HW210169   1.456   0.382   4.639  0.2412 -1.4140  1.4193
 2531SOL    HW310170   1.468   0.522   4.695 -0.5724 -0.3789 -0.9338
 2531SOL    MW410171   1.493   0.439   4.693  0.0812 -0.2161  0.3014
 2532SOL     OW10172   1.066   0.436   4.590  0.3219  0.8102 -0.2463
 2532SOL    HW210173   1.053   0.468   4.500  0.8107 -0.5700 -0.8290
 2532SOL    HW310174   0.985   0.392   4.612  0.8773 -0.4998 -0.7407
 2532SOL    MW410175   1.054   0.434   4.581  0.4597  0.4553 -0.3891
 2533SOL     OW10176   1.289   3.203   4.611 -0.4489  0.5601 -0.0657
 2533SOL    HW210177   1.269   3.123   4.659  0.5913 -0.5365 -1.4315
 2533SOL    HW310178   1.211   3.258   4.624 -0.2333  0.2743  2.7569
 2533SOL    MW410179   1.276   3.200   4.619 -0.2830  0.3777  0.1264
 2534SOL     OW10180   1.702   0.901   4.014  0.4072  0.1205 -0.0795
 2534SOL    HW210181   1.625   0.850   4.039 -0.5606  0.9791 -1.2519
 2534SOL    HW310182   1.740   0.929   4.097 -1.1172  0.5303  0.4909
 2534SOL    MW410183   1.697   0.898   4.028  0.0784  0.2878 -0.1583
 2535SOL     OW10184   1.531   2.876   4.622  0.0700  0.2218  0.2472
 2535SOL    HW210185   1.476   2.877   4.543  0.4873 -0.1601 -0.0456
 2535SOL    HW310186   1.497   2.948   4.675  0.6231  1.3165 -0.8522
 2535SOL    MW410187   1.519   2.886   4.619  0.1980  0.3159  0.0634
 2536SOL     OW10188   0.685   4.647   4.139  0.5041 -0.0142  0.1563
 2536SOL    HW210189   0.773   4.678   4.156  0.8704 -1.3202  0.6857
 2536SOL    HW310190   0.673   4.659   4.044  1.8089 -1.2124 -0.1777
 2536SOL    MW410191   0.695   4.653   4.129  0.7246 -0.3446  0.1817
 2537SOL     OW10192   1.968   2.281   3.945 -0.0689  0.5741  0.4603
 2537SOL    HW210193   1.976   2.206   3.887 -2.3213 -0.1898  1.0729
 2537SOL    HW310194   1.925   2.348   3.892 -0.9129  0.3281  0.8124
 2537SOL    MW410195   1.963   2.280   3.931 -0.4774  0.4406  0.5875
 2538SOL     OW10196   2.665   0.912   3.453 -0.2854  0.0149 -0.0666
 2538SOL    HW210197   2.650   0.905   3.547  0.4416  0.9669  0.1271
 2538SOL    HW310198   2.590   0.868   3.413 -0.2129 -1.0895  0.9656
 2538SOL    MW410199   2.653   0.905   3.460 -0.1798 -0.0052  0.0949
 2539SOL     OW10200   2.106   3.017   4.326  0.3234 -0.1916  0.7528
 2539SOL    HW210201   2.070   3.012   4.414  1.3339  1.5129  1.2670
 2539SOL    HW310202   2.182   3.074   4.333 -0.2126  0.8536 -1.4149
 2539SOL    MW410203   2.111   3.024   4.338  0.3860  0.1712  0.5345
 2540SOL     OW10204   0.508   1.980   4.528  0.2247 -0.1215  0.2470
 2540SOL    HW210205   0.513   2.051   4.592 -3.1341  0.2500  0.1724
 2540SOL    HW310206   0.512   2.023   4.443  0.4231 -0.2471  0.1910
 2540SOL    MW410207   0.509   1.995   4.526 -0.1923 -0.0890  0.2298
 2541SOL     OW10208   1.919   4.042   4.525 -0.0554  0.2139 -0.0541
 2541SOL    HW210209   2.001   3.999   4.549 -0.5252 -1.2090 -0.9418
 2541SOL    HW310210   1.910   4.113   4.588  1.1602 -0.4643  0.9039
 2541SOL    MW410211   1.929   4.046   4.536  0.0429 -0.0634 -0.0443
 2542SOL     OW10212   1.691   2.406   4.804 -0.3206  0.0524 -0.3698
 2542SOL    HW210213   1.775   2.405   4.849  0.5367  1.9345 -1.8435
 2542SOL    HW310214   1.666   2.499   4.802 -1.4514 -0.2610 -1.6680
 2542SOL    MW410215   1.699   2.418   4.810 -0.3566  0.2594 -0.7353
 2543SOL     OW10216   1.111   0.026   3.867  0.1033 -0.5650  0.2992
 2543SOL    HW210217   1.036   0.077   3.837 -0.3173 -1.1659  0.3183
 2543SOL    HW310218   1.115  -0.049   3.807  0.4395 -0.7458  0.5439
 2543SOL    MW410219   1.102   0.022   3.855  0.0921 -0.6681  0.3338
 2544SOL     OW10220   1.556   1.297   3.678 -0.2858  0.4470 -0.4278
 2544SOL    HW210221   1.553   1.388   3.709  0.7466  0.3136  0.1014
 2544SOL    HW310222   1.609   1.251   3.744 -0.8779 -0.5581 -0.6414
 2544SOL    MW410223   1.563   1.303   3.691 -0.2277  0.2967 -0.3860
 2545SOL     OW10224   0.176   2.151   4.458 -0.1968  0.1328  0.1632
 2545SOL    HW210225   0.204   2.242   4.465 -2.0961  0.7180  0.2814
 2545SOL    HW310226   0.081   2.155   4.451 -0.2714 -1.8212 -0.2673
 2545SOL    MW410227   0.167   2.163   4.458 -0.4573 -0.0477  0.1221
 2546SOL     OW10228   0.319   4.476   4.514 -0.1007 -0.0965 -0.0488
 2546SOL    HW210229   0.404   4.501   4.551 -0.2262 -1.0993  0.9457
 2546SOL    HW310230   0.261   4.549   4.536  0.3437  0.2840 -0.1323
 2546SOL    MW410231   0.322   4.489   4.522 -0.0586 -0.1783  0.0715
 2547SOL     OW10232   0.001   2.438   3.688 -0.2162 -0.2665  0.5031
 2547SOL    HW210233  -0.082   2.410   3.728 -0.2778  0.4424  0.8769
 2547SOL    HW310234   0.028   2.513   3.740  1.8054 -1.8430  1.8163
 2547SOL    MW410235  -0.006   2.444   3.700  0.0420 -0.3810  0.7260
 2548SOL     OW10236   3.577   1.633   3.772  0.4272 -0.1307 -0.1094
 2548SOL    HW210237   3.491   1.593   3.782  0.9814 -1.6392 -1.1256
 2548SOL    HW310238   3.582   1.655   3.679  0.3752  1.7738  0.3202
 2548SOL    MW410239   3.566   1.631   3.761  0.4930 -0.0784 -0.1867
 2549SOL     OW10240   3.521   0.168   4.295  0.0542 -0.0148 -0.3749
 2549SOL    HW210241   3.466   0.167   4.374 -0.3009 -1.3773 -0.6070
 2549SOL    HW310242   3.495   0.088   4.249  1.5576 -0.1624 -0.9707
 2549SOL    MW410243   3.510   0.157   4.300  0.2058 -0.2140 -0.4845
 2550SOL     OW10244   4.189   1.832   4.540  0.7455 -0.2720  0.2222
 2550SOL    HW210245   4.102   1.797   4.522  1.2598 -0.6360 -1.6979
 2550SOL    HW310246   4.181   1.926   4.521  0.9242 -0.4138 -0.5715
 2550SOL    MW410247   4.176   1.840   4.535  0.8368 -0.3388 -0.1354
 2551SOL     OW10248   2.363   2.771   4.519  0.1217  0.2469 -0.0305
 2551SOL    HW210249   2.280   2.761   4.565 -0.3914  0.9747 -0.7853
 2551SOL    HW310250   2.398   2.854   4.552 -0.0839  0.5978 -0.6818
 2551SOL    MW410251   2.357   2.781   4.529  0.0269  0.3893 -0.2160
 2552SOL     OW10252   1.180   0.870   4.127  0.0431  0.1833 -0.7304
 2552SOL    HW210253   1.107   0.823   4.166  0.8011 -0.5903 -0.2313
 2552SOL    HW310254   1.178   0.956   4.169  0.4222 -0.4000  0.5370
 2552SOL    MW410255   1.170   0.875   4.138  0.1932  0.0042 -0.4969
 2553SOL     OW10256   0.896   1.950   3.836  0.1658 -0.0161  0.3542
 2553SOL    HW210257   0.820   1.999   3.807 -0.3519 -1.0560 -0.0933
 2553SOL    HW310258   0.903   1.968   3.929 -1.0599 -0.4603  0.5443
 2553SOL    MW410259   0.887   1.959   3.844 -0.0643 -0.2120  0.3200
 2554SOL     OW10260   3.819   0.559   4.590  0.2264 -0.0181  0.5081
 2554SOL    HW210261   3.760   0.633   4.600  1.1773  0.5162  2.4333
 2554SOL    HW310262   3.764   0.488   4.558 -1.1376  0.8938  0.8044
 2554SOL    MW410263   3.804   0.559   4.587  0.1719  0.1727  0.8016
 2555SOL     OW10264   1.025   2.143   4.605 -0.1013  0.1736 -0.3934
 2555SOL    HW210265   1.114   2.163   4.574  0.4613 -0.0025  1.0852
 2555SOL    HW310266   0.984   2.228   4.616 -0.5066  0.2341 -2.1355
 2555SOL    MW410267   1.031   2.157   4.602 -0.0806  0.1583 -0.4282
 2556SOL     OW10268   3.174   0.116   3.797  0.2386 -0.5495 -0.0762
 2556SOL    HW210269   3.144   0.113   3.706 -0.3785  2.5581 -0.0528
 2556SOL    HW310270   3.095   0.099   3.849 -0.4356  2.1780 -0.1083
 2556SOL    MW410271   3.160   0.114   3.792  0.0682  0.2204 -0.0775
 2557SOL     OW10272   2.022   4.436   3.813 -0.5776  0.2552  0.2930
 2557SOL    HW210273   1.955   4.373   3.838 -0.4396 -0.0855 -0.1901
 2557SOL    HW310274   2.046   4.412   3.724 -0.5563  1.0169  0.0846
 2557SOL    MW410275   2.017   4.425   3.805 -0.5562  0.3109  0.2019
 2558SOL     OW10276   1.914   4.617   4.669 -0.1302  0.8041  0.1017
 2558SOL    HW210277   1.861   4.689   4.636 -0.5098  0.1655 -0.6901
 2558SOL    HW310278   2.003   4.638   4.642 -0.3540  0.5778 -0.8283
 2558SOL    MW410279   1.918   4.629   4.661 -0.2097  0.6895 -0.1254
 2559SOL     OW10280   1.875   4.374   4.546 -0.0474  0.3603  0.2688
 2559SOL    HW210281   1.780   4.371   4.557 -0.2897  1.9137 -1.2133
 2559SOL    HW310282   1.902   4.454   4.590  0.7330 -0.6353  1.6408
 2559SOL    MW410283   1.866   4.384   4.553  0.0235  0.4339  0.2546
 2560SOL     OW10284   0.681   1.558   3.835 -0.1793  0.1965 -0.0307
 2560SOL    HW210285   0.670   1.579   3.928 -0.4194 -1.3015  0.2975
 2560SOL    HW310286   0.756   1.610   3.807 -0.9500  1.7235  0.6439
 2560SOL    MW410287   0.689   1.568   3.843 -0.3127  0.2004  0.1018
 2561SOL     OW10288   3.683   0.542   4.229  0.2302  0.2619 -0.2029
 2561SOL    HW210289   3.763   0.569   4.183  0.5572 -0.7897 -0.2461
 2561SOL    HW310290   3.641   0.625   4.253  0.8846  0.8212 -0.9538
 2561SOL    MW410291   3.688   0.557   4.226  0.3595  0.1969 -0.3080
 2562SOL     OW10292   3.364   2.311   4.351 -0.4770  0.3190  0.5221
 2562SOL    HW210293   3.322   2.337   4.433  0.1488 -1.3767  1.4212
 2562SOL    HW310294   3.311   2.351   4.282 -1.1229  1.6126  1.7442
 2562SOL    MW410295   3.352   2.319   4.353 -0.4795  0.2658  0.8020
 2563SOL     OW10296   0.237   1.897   4.556  0.3149 -0.0750  0.6423
 2563SOL    HW210297   0.216   1.990   4.541 -0.1336 -0.3530 -0.5336
 2563SOL    HW310298   0.331   1.896   4.570  0.4412  0.4824 -0.0932
 2563SOL    MW410299   0.246   1.909   4.556  0.2723 -0.0380  0.3896
 2564SOL     OW10300   1.967   0.089   4.372  0.1584 -0.2617  0.0328
 2564SOL    HW210301   2.039   0.053   4.424  0.5558  0.9893  0.3695
 2564SOL    HW310302   1.950   0.023   4.305  0.6449 -1.2174  0.8383
 2564SOL    MW410303   1.974   0.075   4.370  0.2750 -0.2227  0.1841
 2565SOL     OW10304   2.223   0.388   3.946 -0.0897 -0.0182 -0.0225
 2565SOL    HW210305   2.277   0.391   4.024 -0.2929  1.6530  0.0749
 2565SOL    HW310306   2.134   0.405   3.978 -0.5168 -1.5867 -0.3302
 2565SOL    MW410307   2.218   0.390   3.960 -0.1731 -0.0046 -0.0503
 2566SOL     OW10308   0.846   4.017   4.318 -0.0159 -0.0939  0.0778
 2566SOL    HW210309   0.856   4.032   4.412 -0.6084 -2.6317  0.5906
 2566SOL    HW310310   0.756   3.986   4.308  0.3378 -0.7529 -1.2168
 2566SOL    MW410311   0.836   4.015   4.329 -0.0474 -0.5155 -0.0253
 2567SOL     OW10312   3.351   0.085   4.543  0.1410  0.1972  0.3221
 2567SOL    HW210313   3.439   0.106   4.575  0.1601  1.1087 -0.2994
 2567SOL    HW310314   3.292   0.113   4.613  0.3823 -1.0210  1.0159
 2567SOL    MW410315   3.355   0.091   4.556  0.1752  0.1568  0.3319
 2568SOL     OW10316   2.519   0.901   4.646 -0.0535  0.3220  0.3563
 2568SOL    HW210317   2.597   0.954   4.664  1.0875 -0.2848 -2.5993
 2568SOL    HW310318   2.462   0.959   4.596 -0.1851 -0.2128 -0.1192
 2568SOL    MW410319   2.521   0.916   4.642  0.0796  0.1714 -0.0963
 2569SOL     OW10320   2.205   1.946   3.916  0.1714  0.1975 -0.4144
 2569SOL    HW210321   2.227   1.912   4.003  1.3629 -2.6961 -1.7704
 2569SOL    HW310322   2.257   2.025   3.907  2.0179 -0.8696  0.5368
 2569SOL    MW410323   2.215   1.952   3.927  0.5722 -0.3251 -0.4678
 2570SOL     OW10324   2.687   1.923   3.889  0.3158 -0.0071 -0.5363
 2570SOL    HW210325   2.755   1.970   3.840  0.5023 -0.6446 -0.8897
 2570SOL    HW310326   2.662   1.850   3.832  1.5713 -1.6096  0.8833
 2570SOL    MW410327   2.693   1.919   3.875  0.5064 -0.3026 -0.3955
 2571SOL     OW10328   1.671   1.814   4.094  0.1061  0.4207 -0.0142
 2571SOL    HW210329   1.736   1.747   4.072  0.5295  0.9049 -0.2395
 2571SOL    HW310330   1.591   1.764   4.113  0.7735 -0.2461  1.1545
 2571SOL    MW410331   1.669   1.798   4.094  0.2501  0.3966  0.1101
 2572SOL     OW10332   0.455   3.175   3.756 -0.0543  0.0418 -0.2167
 2572SOL    HW210333   0.471   3.258   3.801 -0.8701 -1.4585  2.9830
 2572SOL    HW310334   0.532   3.122   3.776 -0.3765 -0.6255 -0.7314
 2572SOL    MW410335   0.467   3.179   3.765 -0.2044 -0.2444  0.1376
 2573SOL     OW10336   0.208   3.454   4.643 -0.6692 -0.3554  0.5365
 2573SOL    HW210337   0.194   3.534   4.593  1.8268  0.4876  1.1080
 2573SOL    HW310338   0.123   3.436   4.684 -1.6387  1.1934 -0.7321
 2573SOL    MW410339   0.195   3.462   4.642 -0.4678 -0.0398  0.4444
 2574SOL     OW10340   2.500   1.304   4.528 -0.2479 -0.1095  0.0775
 2574SOL    HW210341   2.415   1.306   4.484 -0.3692  2.0345  0.3689
 2574SOL    HW310342   2.538   1.389   4.510  1.3846 -0.6455  0.8822
 2574SOL    MW410343   2.494   1.315   4.520 -0.0484  0.1025  0.2222
 2575SOL     OW10344   4.227   0.683   4.099  0.0015 -0.0735  0.7090
 2575SOL    HW210345   4.289   0.610   4.097 -0.6058 -0.5677 -1.2985
 2575SOL    HW310346   4.236   0.725   4.014 -0.0607  1.8882  1.6440
 2575SOL    MW410347   4.236   0.679   4.088 -0.0868  0.1201  0.5674
 2576SOL     OW10348   2.645   4.034   4.627 -0.1348 -0.4251  0.1309
 2576SOL    HW210349   2.588   4.073   4.560 -1.2622 -0.3295  1.1134
 2576SOL    HW310350   2.678   4.109   4.676 -1.3926 -0.6003  1.3009
 2576SOL    MW410351   2.642   4.049   4.625 -0.4494 -0.4349  0.4148
 2577SOL     OW10352   4.384   3.220   4.483  0.4496  0.2551  0.0575
 2577SOL    HW210353   4.419   3.232   4.395 -0.5846  3.6079  0.0501
 2577SOL    HW310354   4.290   3.211   4.471  0.0618  2.7678  0.9216
 2577SOL    MW410355   4.376   3.220   4.470  0.2623  1.0293  0.1707
 2578SOL     OW10356   4.392   2.200   4.408 -0.0127  0.6574 -0.0348
 2578SOL    HW210357   4.307   2.160   4.428 -0.7118  1.3842 -1.4852
 2578SOL    HW310358   4.376   2.294   4.412  0.4324  0.8108 -1.3975
 2578SOL    MW410359   4.378   2.207   4.411 -0.0458  0.7732 -0.4063
 2579SOL     OW10360   1.329   0.422   3.932  0.4331 -0.4917  0.6685
 2579SOL    HW210361   1.344   0.428   4.026  1.8848  1.1775  0.3579
 2579SOL    HW310362   1.349   0.331   3.910 -1.2353 -1.2423  2.1746
 2579SOL    MW410363   1.334   0.411   3.942  0.4046 -0.3705  0.8264
 2580SOL     OW10364   0.213   1.016   4.235 -0.1734  0.0669  0.1008
 2580SOL    HW210365   0.266   1.087   4.197 -0.0448 -0.3187 -0.4477
 2580SOL    HW310366   0.235   0.939   4.183 -1.8813  0.0741 -0.6708
 2580SOL    MW410367   0.223   1.015   4.223 -0.3818  0.0169 -0.0730
 2581SOL     OW10368   2.880   1.254   3.768 -0.4140  0.1438 -0.3736
 2581SOL    HW210369   2.968   1.231   3.800 -0.5487 -0.5062 -0.4569
 2581SOL    HW310370   2.890   1.257   3.673 -0.6587 -0.6983 -0.4286
 2581SOL    MW410371   2.893   1.251   3.760 -0.4637 -0.0532 -0.3917
 2582SOL     OW10372   4.126   2.128   4.446 -0.0767 -0.1043  0.0599
 2582SOL    HW210373   4.051   2.093   4.399  0.7124 -3.0801  0.8418
 2582SOL    HW310374   4.093   2.205   4.492 -2.2520 -0.4714 -0.8380
 2582SOL    MW410375   4.112   2.133   4.446 -0.2599 -0.5453  0.0439
 2583SOL     OW10376   0.819   4.092   4.598  0.0894  0.6758  0.1155
 2583SOL    HW210377   0.813   4.059   4.687  0.2175 -0.5775 -0.3296
 2583SOL    HW310378   0.731   4.083   4.562  0.0253  1.2287  0.1223
 2583SOL    MW410379   0.807   4.087   4.605  0.0978  0.5832  0.0577
 2584SOL     OW10380   1.993   2.175   4.217 -0.0667 -0.5488 -0.0459
 2584SOL    HW210381   1.958   2.208   4.135 -0.9513  0.1619  0.6136
 2584SOL    HW310382   1.949   2.091   4.230 -1.6255  0.3816  0.8259
 2584SOL    MW410383   1.983   2.168   4.208 -0.3891 -0.3324  0.1564
 2585SOL     OW10384   2.951   0.522   3.797 -0.5706 -0.2832 -0.2166
 2585SOL    HW210385   3.039   0.488   3.813  0.0564  1.6652  0.7021
 2585SOL    HW310386   2.934   0.504   3.705  1.8412  1.5498 -1.0872
 2585SOL    MW410387   2.960   0.515   3.787 -0.1700  0.2156 -0.2103
 2586SOL     OW10388   3.609   0.395   3.835 -0.2190  0.2120 -0.1992
 2586SOL    HW210389   3.604   0.372   3.928  1.5528  0.3578 -0.0620
 2586SOL    HW310390   3.634   0.314   3.791 -0.0595  0.3851 -0.4304
 2586SOL    MW410391   3.611   0.381   3.841  0.0358  0.2541 -0.2117
 2587SOL     OW10392   2.479   0.216   4.303 -0.0754  0.0010  0.1134
 2587SOL    HW210393   2.550   0.249   4.248  0.0104 -1.1452 -0.4688
 2587SOL    HW310394   2.410   0.282   4.293  0.6480  0.7829  0.1615
 2587SOL    MW410395   2.479   0.229   4.295  0.0315 -0.0471  0.0429
 2588SOL     OW10396   0.039   2.715   4.138  0.3035  0.3246  0.1976
 2588SOL    HW210397   0.035   2.621   4.157  0.7041 -0.1037 -1.7443
 2588SOL    HW310398  -0.052   2.745   4.142  0.0354 -0.3999 -0.3655
 2588SOL    MW410399   0.027   2.707   4.141  0.3210  0.1726 -0.1330
 2589SOL     OW10400   1.976   2.116   4.892  0.1542  0.4875 -0.7042
 2589SOL    HW210401   2.036   2.062   4.944 -0.8744 -0.3880 -0.4087
 2589SOL    HW310402   1.984   2.082   4.803 -0.0111  0.2702 -0.6365
 2589SOL    MW410403   1.985   2.104   4.888 -0.0033  0.3428 -0.6557
 2590SOL     OW10404   1.425   2.429   4.536  0.5082  0.0372  0.0547
 2590SOL    HW210405   1.433   2.487   4.612  1.1569  0.6806 -0.4933
 2590SOL    HW310406   1.516   2.411   4.511  0.3023  0.6045 -1.1460
 2590SOL    MW410407   1.438   2.434   4.542  0.5667  0.1969 -0.1760
 2591SOL     OW10408   2.449   2.774   3.800 -0.0367  0.7670  0.2296
 2591SOL    HW210409   2.473   2.785   3.708 -0.3138  1.4978  0.2437
 2591SOL    HW310410   2.514   2.713   3.834 -0.4017 -0.1279 -0.6432
 2591SOL    MW410411   2.461   2.767   3.792 -0.1214  0.7455  0.1161
 2592SOL     OW10412   2.400   3.612   4.521  0.1704  0.4013 -0.2119
 2592SOL    HW210413   2.434   3.685   4.573  1.0068 -0.1784  0.0687
 2592SOL    HW310414   2.335   3.652   4.463  0.0004  1.2288  0.5325
 2592SOL    MW410415   2.396   3.627   4.520  0.2582  0.4339 -0.0772
 2593SOL     OW10416   1.301   0.046   4.748  0.0762 -0.0191  0.0446
 2593SOL    HW210417   1.376   0.067   4.804  0.6100  0.0203 -0.6817
 2593SOL    HW310418   1.294   0.120   4.688  0.1580 -0.5552 -0.6271
 2593SOL    MW410419   1.310   0.059   4.748  0.1574 -0.0846 -0.1397
 2594SOL     OW10420   4.261   0.475   3.539 -0.1130  0.0346  0.1990
 2594SOL    HW210421   4.237   0.559   3.500  1.5353  0.7629  0.7082
 2594SOL    HW310422   4.275   0.495   3.632 -0.5012 -0.9601  0.4713
 2594SOL    MW410423   4.260   0.489   3.546  0.0529 -0.0006  0.3018
 2595SOL     OW10424   0.455   0.129   3.722 -0.2215  0.4403 -0.4527
 2595SOL    HW210425   0.450   0.221   3.751  2.4373 -0.2287  2.3663
 2595SOL    HW310426   0.372   0.091   3.752  0.3273  1.0255  1.9822
 2595SOL    MW410427   0.443   0.136   3.730  0.2017  0.4292  0.2406
 2596SOL     OW10428   0.471   1.548   4.291  0.1167 -0.5405  0.2030
 2596SOL    HW210429   0.408   1.476   4.295  0.2782 -0.6451  0.8304
 2596SOL    HW310430   0.418   1.627   4.302  0.0343 -0.6013  0.2452
 2596SOL    MW410431   0.456   1.549   4.293  0.1271 -0.5622  0.2904
 2597SOL     OW10432   3.564   2.684   3.878 -0.0426  0.5040 -0.2331
 2597SOL    HW210433   3.636   2.737   3.844 -1.6624  4.1144  1.6910
 2597SOL    HW310434   3.486   2.738   3.865 -2.3358 -2.8385 -1.2543
 2597SOL    MW410435   3.563   2.698   3.872 -0.5589  0.5395 -0.1137
 2598SOL     OW10436   2.177   1.728   3.735  0.4772  0.0174  0.2049
 2598SOL    HW210437   2.195   1.807   3.786  0.9132 -0.0841  0.2097
 2598SOL    HW310438   2.107   1.684   3.783  0.5779  0.1481  0.4735
 2598SOL    MW410439   2.170   1.733   3.748  0.5479  0.0211  0.2410
 2599SOL     OW10440   4.017   1.441   4.229  0.1992  0.2586  0.2422
 2599SOL    HW210441   3.949   1.374   4.241  0.2706  0.0776 -0.3447
 2599SOL    HW310442   4.069   1.436   4.309 -0.3087  0.2032  0.5743
 2599SOL    MW410443   4.015   1.431   4.241  0.1416  0.2276  0.2084
 2600SOL     OW10444   2.227   3.489   3.895 -0.6450 -0.5994 -0.3478
 2600SOL    HW210445   2.284   3.548   3.846 -1.5753 -0.2047 -0.9629
 2600SOL    HW310446   2.227   3.408   3.845 -0.8811 -0.4939 -0.5176
 2600SOL    MW410447   2.235   3.486   3.882 -0.7989 -0.5333 -0.4516
 2601SOL     OW10448   4.278   2.317   4.053  0.1814  1.0076 -0.0435
 2601SOL    HW210449   4.305   2.228   4.077 -0.3001  0.6432 -0.8439
 2601SOL    HW310450   4.280   2.319   3.958  0.8022  2.0561 -0.0175
 2601SOL    MW410451   4.282   2.306   4.044  0.2003  1.0979 -0.1459
 2602SOL     OW10452   1.842   0.127   4.914  0.0374  0.0912  0.1890
 2602SOL    HW210453   1.886   0.073   4.980 -1.9101  0.7953  2.1267
 2602SOL    HW310454   1.815   0.065   4.846  0.0866 -0.9890  1.1490
 2602SOL    MW410455   1.844   0.111   4.914 -0.2131  0.0416  0.5713
 2603SOL     OW10456   4.037   2.436   4.146 -0.2564 -0.1907 -0.3205
 2603SOL    HW210457   4.109   2.382   4.114  2.0171 -0.0615  4.1418
 2603SOL    HW310458   3.960   2.379   4.141  0.8861 -1.6512 -1.6313
 2603SOL    MW410459   4.036   2.422   4.141  0.1941 -0.3664  0.0954
 2604SOL     OW10460   0.013   0.157   3.785  0.4360 -0.0519 -0.0392
 2604SOL    HW210461   0.077   0.089   3.807  0.5309 -0.0343 -0.2630
 2604SOL    HW310462  -0.007   0.143   3.693  1.1668  0.8108 -0.3335
 2604SOL    MW410463   0.019   0.146   3.776  0.5445  0.0642 -0.1075
 2605SOL     OW10464   1.108   3.131   3.912  0.2461 -0.4955  0.2420
 2605SOL    HW210465   1.175   3.170   3.856  0.5805 -0.1131  0.8891
 2605SOL    HW310466   1.123   3.036   3.906 -1.4506 -0.6296 -2.4151
 2605SOL    MW410467   1.119   3.123   3.904  0.0664 -0.4625 -0.0231
 2606SOL     OW10468   3.583   3.495   4.175 -0.0868  0.1110 -0.4530
 2606SOL    HW210469   3.555   3.427   4.237 -1.2105  0.0130 -1.0601
 2606SOL    HW310470   3.520   3.567   4.189  1.9756  1.6717  1.2565
 2606SOL    MW410471   3.571   3.496   4.185  0.0372  0.3040 -0.3076
 2607SOL     OW10472   3.458   2.456   4.670  0.0329 -0.1138  0.2058
 2607SOL    HW210473   3.510   2.390   4.716  0.4682  0.4040  0.4639
 2607SOL    HW310474   3.449   2.528   4.733 -0.2933  0.1455 -0.1324
 2607SOL    MW410475   3.464   2.457   4.684  0.0474 -0.0114  0.1950
 2608SOL     OW10476   0.511   0.685   4.211 -0.3173  0.4821 -0.0057
 2608SOL    HW210477   0.498   0.711   4.303  0.4096  2.6105 -0.4746
 2608SOL    HW310478   0.595   0.725   4.187 -0.0452 -0.8535 -1.3319
 2608SOL    MW410479   0.521   0.694   4.220 -0.1855  0.5867 -0.2422
 2609SOL     OW10480   3.167   3.976   4.243 -0.1619 -0.2859  0.0596
 2609SOL    HW210481   3.243   3.938   4.200 -0.9920 -1.5641 -0.3119
 2609SOL    HW310482   3.190   3.977   4.336  1.0932  1.2134 -0.2513
 2609SOL    MW410483   3.180   3.971   4.250 -0.1056 -0.2565 -0.0305
 2610SOL     OW10484   1.522   3.118   3.908  0.1728  0.6113 -0.2712
 2610SOL    HW210485   1.537   3.135   4.001 -0.8683  0.3940 -0.0611
 2610SOL    HW310486   1.608   3.132   3.867  0.4649  1.4692  0.6070
 2610SOL    MW410487   1.535   3.122   3.915  0.0739  0.6957 -0.1276
 2611SOL     OW10488   3.362   3.882   4.073  0.1345  0.1949  0.6217
 2611SOL    HW210489   3.342   3.887   3.980 -0.1863 -0.0144  0.6766
 2611SOL    HW310490   3.447   3.924   4.082  0.2858 -0.0179  0.1948
 2611SOL    MW410491   3.371   3.888   4.062  0.1125  0.1392  0.5727
 2612SOL     OW10492   2.526   4.385   3.539 -0.0458  0.3132 -0.2117
 2612SOL    HW210493   2.459   4.321   3.516 -0.2684  0.9945 -1.4997
 2612SOL    HW310494   2.503   4.413   3.628 -1.7631  0.9239 -0.8420
 2612SOL    MW410495   2.514   4.380   3.548 -0.3016  0.4840 -0.4647
 2613SOL     OW10496   4.295   1.081   4.716 -0.1365  0.0079  0.0258
 2613SOL    HW210497   4.377   1.129   4.706 -0.4233  0.4994  0.0025
 2613SOL    HW310498   4.264   1.105   4.803  0.0645 -0.6781  0.2852
 2613SOL    MW410499   4.302   1.091   4.726 -0.1478 -0.0178  0.0563
 2614SOL     OW10500   2.466   2.199   4.151 -0.0597  0.1482  0.2607
 2614SOL    HW210501   2.402   2.183   4.220 -0.4369  1.1842  0.1694
 2614SOL    HW310502   2.414   2.208   4.071  0.4337 -1.8539 -0.3225
 2614SOL    MW410503   2.451   2.198   4.150 -0.0443  0.0207  0.1721
 2615SOL     OW10504   1.831   2.452   3.743  0.2915 -0.3262 -0.5514
 2615SOL    HW210505   1.827   2.466   3.648 -0.3225  0.0898 -0.4635
 2615SOL    HW310506   1.744   2.419   3.766  0.5917 -0.8892 -0.2053
 2615SOL    MW410507   1.819   2.449   3.733  0.2500 -0.3455 -0.4940
 2616SOL     OW10508   0.039   3.966   4.231 -0.3066 -0.2616  0.3918
 2616SOL    HW210509  -0.050   3.940   4.210 -0.0296 -0.2701 -0.8673
 2616SOL    HW310510   0.093   3.921   4.165  0.5410  0.3526  0.6557
 2616SOL    MW410511   0.034   3.957   4.219 -0.1582 -0.1814  0.2608
 2617SOL     OW10512   2.573   2.168   3.802  0.1091 -0.1796 -0.2499
 2617SOL    HW210513   2.601   2.090   3.849 -1.1483 -1.2389 -1.2328
 2617SOL    HW310514   2.563   2.139   3.711  1.1864  1.5031 -0.9262
 2617SOL    MW410515   2.575   2.154   3.796  0.0851 -0.0973 -0.4690
 2618SOL     OW10516   0.649   1.297   4.503 -0.3962 -0.2601  0.0178
 2618SOL    HW210517   0.660   1.392   4.496  1.1853 -0.3106  1.4379
 2618SOL    HW310518   0.577   1.286   4.566 -1.8758 -0.0195 -1.5792
 2618SOL    MW410519   0.641   1.308   4.511 -0.3827 -0.2350 -0.0052
 2619SOL     OW10520   3.377   1.253   3.465  0.2071  0.2669  0.0768
 2619SOL    HW210521   3.390   1.342   3.433  0.7702  0.5094  0.9686
 2619SOL    HW310522   3.455   1.205   3.435  0.0768  0.1531 -0.0881
 2619SOL    MW410523   3.389   1.258   3.457  0.2639  0.2840  0.1726
 2620SOL     OW10524   2.909   3.589   3.752  0.1225 -0.3900  0.1519
 2620SOL    HW210525   2.837   3.527   3.764  0.2840 -0.3632  1.2599
 2620SOL    HW310526   2.924   3.590   3.657 -0.8567 -0.9333 -0.0098
 2620SOL    MW410527   2.902   3.581   3.741  0.0145 -0.4582  0.2766
 2621SOL     OW10528   3.037   2.418   4.464  0.1261 -0.1055  0.0537
 2621SOL    HW210529   3.028   2.353   4.394  0.9812 -0.5547  0.3605
 2621SOL    HW310530   3.079   2.371   4.536 -2.2993 -0.1102  1.5255
 2621SOL    MW410531   3.041   2.403   4.464 -0.0811 -0.1652  0.2885
 2622SOL     OW10532   1.685   3.992   4.345  0.0347 -0.3884 -0.0373
 2622SOL    HW210533   1.761   4.011   4.400 -0.1344  0.3052 -0.0308
 2622SOL    HW310534   1.676   3.897   4.347  0.2002 -0.3880  0.9196
 2622SOL    MW410535   1.694   3.982   4.353  0.0342 -0.2968  0.0901
 2623SOL     OW10536   3.419   1.019   4.277 -0.1811  0.1950  0.0558
 2623SOL    HW210537   3.362   1.033   4.352 -0.1939  0.1927  0.0465
 2623SOL    HW310538   3.466   0.938   4.298 -0.2230  0.1658  0.0372
 2623SOL    MW410539   3.418   1.010   4.290 -0.1884  0.1909  0.0520
 2624SOL     OW10540   1.213   1.570   4.061  0.1128 -0.0727 -0.0286
 2624SOL    HW210541   1.227   1.477   4.076  1.0829  0.0363 -0.2338
 2624SOL    HW310542   1.179   1.575   3.971  1.4135 -0.1180 -0.5299
 2624SOL    MW410543   1.210   1.558   4.051  0.4125 -0.0643 -0.1216
 2625SOL     OW10544   4.413   3.413   4.674  0.9607 -0.3802  0.0287
 2625SOL    HW210545   4.429   3.339   4.614 -2.5456 -1.2383  0.0562
 2625SOL    HW310546   4.397   3.488   4.617  1.1878 -0.3934 -0.0523
 2625SOL    MW410547   4.413   3.413   4.659  0.5279 -0.4954  0.0219
 2626SOL     OW10548   3.216   4.527   4.442  0.3411 -0.4024  0.5700
 2626SOL    HW210549   3.259   4.602   4.483  1.8600 -0.1830 -1.3320
 2626SOL    HW310550   3.287   4.475   4.405 -0.6930 -2.7877  1.8097
 2626SOL    MW410551   3.231   4.530   4.442  0.4048 -0.6881  0.4826
 2627SOL     OW10552   1.588   4.394   4.503  0.9010  0.2273 -0.1624
 2627SOL    HW210553   1.543   4.309   4.506  0.9560  0.2025 -0.0330
 2627SOL    HW310554   1.620   4.401   4.413  2.8615 -0.9351  0.4018
 2627SOL    MW410555   1.586   4.383   4.491  1.1669  0.0706 -0.0706
 2628SOL     OW10556   0.215   3.091   3.853 -0.0444 -0.3550 -0.0630
 2628SOL    HW210557   0.304   3.111   3.824 -0.7572 -0.0307 -2.1188
 2628SOL    HW310558   0.199   3.002   3.821 -0.2300 -0.6577  0.8705
 2628SOL    MW410559   0.225   3.082   3.845 -0.1629 -0.3524 -0.2112
 2629SOL     OW10560   0.365   1.818   4.311 -0.3751  0.1467  0.6055
 2629SOL    HW210561   0.340   1.854   4.396 -1.6931 -0.9564  0.7050
 2629SOL    HW310562   0.281   1.800   4.267  0.2982  1.0552 -1.0712
 2629SOL    MW410563   0.350   1.820   4.316 -0.4602  0.1209  0.3972
 2630SOL     OW10564   2.225   0.657   4.488  0.3856 -0.3998  0.1524
 2630SOL    HW210565   2.155   0.671   4.424 -0.5033  1.0401  1.3917
 2630SOL    HW310566   2.306   0.662   4.438 -0.2689  1.5818 -0.7288
 2630SOL    MW410567   2.226   0.659   4.473  0.1819  0.0516  0.1993
 2631SOL     OW10568   4.198   0.036   4.355  0.1230  0.2989  0.3424
 2631SOL    HW210569   4.208   0.127   4.328  1.4237 -0.4992 -2.0983
 2631SOL    HW310570   4.241   0.031   4.440  1.4264  1.6477 -0.2208
 2631SOL    MW410571   4.205   0.047   4.362  0.4663  0.3715 -0.0539
 2632SOL     OW10572   1.398   1.536   4.410  0.2479  0.0886 -0.3193
 2632SOL    HW210573   1.304   1.536   4.392  0.3186 -1.0494 -0.6934
 2632SOL    HW310574   1.412   1.616   4.461 -1.0023  0.0110  0.1659
 2632SOL    MW410575   1.387   1.546   4.415  0.0923 -0.0716 -0.3042
 2633SOL     OW10576   1.958   2.050   3.783  0.2826  0.4932  0.0366
 2633SOL    HW210577   1.969   2.061   3.689  1.2196 -0.0349  0.0822
 2633SOL    HW310578   2.043   2.019   3.814  0.3874  1.9404  1.2631
 2633SOL    MW410579   1.970   2.048   3.775  0.4201  0.6146  0.2046
 2634SOL     OW10580   3.472   1.918   4.156 -0.4259 -0.4676  0.2263
 2634SOL    HW210581   3.518   1.835   4.167 -0.4194 -0.5123 -0.1127
 2634SOL    HW310582   3.383   1.893   4.131 -0.0062 -0.3645 -1.4320
 2634SOL    MW410583   3.466   1.904   4.154 -0.3695 -0.4599 -0.0377
 2635SOL     OW10584   0.730   0.848   4.148  0.5272  0.1009  0.3328
 2635SOL    HW210585   0.724   0.937   4.183  2.4815  0.6903 -0.7386
 2635SOL    HW310586   0.806   0.810   4.192  1.2111 -0.1616 -1.0430
 2635SOL    MW410587   0.739   0.855   4.158  0.8752  0.1441  0.0095
 2636SOL     OW10588   1.336   2.839   4.425  0.5252  0.3780  0.3820
 2636SOL    HW210589   1.249   2.807   4.448  0.7257 -0.6434 -0.2622
 2636SOL    HW310590   1.319   2.913   4.366  0.0953 -0.3595 -0.4377
 2636SOL    MW410591   1.322   2.845   4.420  0.4950  0.1462  0.1888
 2637SOL     OW10592   0.626   1.100   4.280 -0.0857  0.1632  0.6963
 2637SOL    HW210593   0.708   1.127   4.239  0.1810 -0.7215  0.6437
 2637SOL    HW310594   0.630   1.136   4.368 -0.2109  1.2115  0.2798
 2637SOL    MW410595   0.637   1.108   4.286 -0.0670  0.1848  0.6347
 2638SOL     OW10596   0.833   0.007   4.700  0.0209  0.6800  0.0294
 2638SOL    HW210597   0.754  -0.033   4.664 -0.2070  1.5071 -0.3996
 2638SOL    HW310598   0.900  -0.061   4.691 -0.4016  0.3356 -0.5457
 2638SOL    MW410599   0.832  -0.007   4.694 -0.0649  0.7434 -0.1025
 2639SOL     OW10600   3.268   2.041   4.727 -0.2550  0.0937  0.2144
 2639SOL    HW210601   3.181   2.031   4.690  0.1613 -1.1100 -0.4541
 2639SOL    HW310602   3.314   1.961   4.704  1.5149  1.3380 -0.7395
 2639SOL    MW410603   3.263   2.029   4.719  0.0331  0.0987  0.0005
 2640SOL     OW10604   0.916   2.326   4.376 -0.3149 -0.2825  0.1490
 2640SOL    HW210605   0.916   2.232   4.356 -0.3642 -0.4395  0.9010
 2640SOL    HW310606   0.985   2.362   4.319  0.1093 -0.8619  0.2932
 2640SOL    MW410607   0.925   2.318   4.366 -0.2654 -0.3800  0.2670
 2641SOL     OW10608   3.518   2.059   4.402 -0.1580 -0.1261 -0.1630
 2641SOL    HW210609   3.445   2.119   4.413 -0.4890 -0.4090 -0.8185
 2641SOL    HW310610   3.511   2.029   4.312 -0.2164 -1.4455  0.2775
 2641SOL    MW410611   3.508   2.063   4.392 -0.2093 -0.3376 -0.1917
 2642SOL     OW10612   0.559   2.472   4.077 -0.1630 -0.6958  0.2020
 2642SOL    HW210613   0.559   2.565   4.100  0.2896 -0.8390  0.8127
 2642SOL    HW310614   0.468   2.444   4.089 -0.1840 -0.4629  0.5920
 2642SOL    MW410615   0.547   2.480   4.082 -0.1060 -0.6840  0.3343
 2643SOL     OW10616   1.140   0.808   3.847  0.3537 -0.1570  0.5976
 2643SOL    HW210617   1.224   0.823   3.802  0.7617 -0.2743  1.3037
 2643SOL    HW310618   1.153   0.848   3.933  0.0473 -1.0897  1.0799
 2643SOL    MW410619   1.153   0.815   3.853  0.3669 -0.2955  0.7541
 2644SOL     OW10620   2.844   1.369   4.546 -0.0047 -0.5055 -0.0659
 2644SOL    HW210621   2.799   1.302   4.598  0.6057 -1.9124 -1.3040
 2644SOL    HW310622   2.802   1.365   4.460 -0.5831  1.3527  0.1264
 2644SOL    MW410623   2.833   1.360   4.542 -0.0002 -0.4458 -0.2041
 2645SOL     OW10624   1.981   1.257   3.783 -0.3048 -0.5931  0.2931
 2645SOL    HW210625   1.994   1.278   3.691 -0.5689 -1.0885  0.1426
 2645SOL    HW310626   1.888   1.236   3.790  0.2929 -3.5261  0.0679
 2645SOL    MW410627   1.970   1.257   3.772 -0.2608 -1.0455  0.2434
 2646SOL     OW10628   0.466   4.010   3.780  0.4762  0.0457 -0.4666
 2646SOL    HW210629   0.471   4.099   3.814  1.4665 -0.5884  1.0992
 2646SOL    HW310630   0.474   4.020   3.685  1.3791  1.5581 -0.2505
 2646SOL    MW410631   0.468   4.023   3.772  0.7260  0.1616 -0.2313
 2647SOL     OW10632   3.065   2.676   4.384 -0.0714  0.5366 -0.5270
 2647SOL    HW210633   3.047   2.587   4.414  1.0533 -0.3929 -2.5095
 2647SOL    HW310634   2.984   2.704   4.342 -0.7725  0.8484  1.0239
 2647SOL    MW410635   3.052   2.668   4.382 -0.0153  0.4549 -0.5846
 2648SOL     OW10636   1.212   2.251   4.072  0.5195 -0.2081 -0.2004
 2648SOL    HW210637   1.307   2.262   4.060  0.8509 -1.6066  1.0518
 2648SOL    HW310638   1.200   2.157   4.080 -1.0259 -0.0533 -0.5578
 2648SOL    MW410639   1.223   2.240   4.071  0.3594 -0.3722 -0.0815
 2649SOL     OW10640   3.547   2.433   3.764  0.0137  0.2568  0.5506
 2649SOL    HW210641   3.543   2.524   3.795 -0.6922  0.4263 -0.0142
 2649SOL    HW310642   3.481   2.388   3.817  0.0071  0.1853  0.4808
 2649SOL    MW410643   3.538   2.439   3.775 -0.0803  0.2699  0.4666
 2650SOL     OW10644   2.683   0.128   3.515  0.2947  0.2157  0.0875
 2650SOL    HW210645   2.670   0.215   3.477 -0.0799 -0.2488 -0.8605
 2650SOL    HW310646   2.611   0.076   3.481 -0.7533  0.0873  2.4116
 2650SOL    MW410647   2.672   0.133   3.506  0.1068  0.1374  0.2689
 2651SOL     OW10648   1.355   4.414   4.165 -0.4670  0.0066  0.1014
 2651SOL    HW210649   1.371   4.395   4.072  0.3686 -0.1441  0.2697
 2651SOL    HW310650   1.296   4.345   4.194  1.2659 -1.4288  0.3029
 2651SOL    MW410651   1.349   4.402   4.156 -0.1281 -0.2027  0.1507
 2652SOL     OW10652   4.032   4.212   4.215 -0.6714  0.2145 -0.2747
 2652SOL    HW210653   3.966   4.264   4.262  0.3127 -0.1312  1.5230
 2652SOL    HW310654   4.115   4.255   4.235 -0.3092  0.4606 -2.2810
 2652SOL    MW410655   4.034   4.225   4.224 -0.4940  0.2017 -0.3028
 2653SOL     OW10656   2.581   0.124   4.869 -0.0989  0.1376 -0.4446
 2653SOL    HW210657   2.520   0.120   4.796 -0.0223 -3.0009 -0.4236
 2653SOL    HW310658   2.526   0.125   4.947 -0.1806 -1.4756 -0.4582
 2653SOL    MW410659   2.566   0.124   4.870 -0.0997 -0.4893 -0.4439
 2654SOL     OW10660   2.191   4.525   4.246 -0.1704 -0.0808  0.1064
 2654SOL    HW210661   2.176   4.455   4.309 -1.3346 -0.7650 -0.8933
 2654SOL    HW310662   2.103   4.554   4.220  0.2629 -0.2379 -1.6457
 2654SOL    MW410663   2.177   4.520   4.251 -0.2668 -0.1912 -0.2565
 2655SOL     OW10664   3.275   3.075   4.174 -0.3606 -0.2475 -0.0499
 2655SOL    HW210665   3.319   3.004   4.221 -0.3428 -0.6854 -0.7287
 2655SOL    HW310666   3.324   3.084   4.092  0.1883  1.1484  0.4233
 2655SOL    MW410667   3.287   3.067   4.169 -0.2856 -0.1211 -0.0768
 2656SOL     OW10668   1.351   2.466   3.720  0.3529 -0.3433  0.2063
 2656SOL    HW210669   1.430   2.418   3.744 -0.7043 -1.2008  2.1094
 2656SOL    HW310670   1.279   2.410   3.750 -0.9520  0.9645 -0.4250
 2656SOL    MW410671   1.352   2.452   3.728  0.0412 -0.2840  0.3738
 2657SOL     OW10672   3.643   3.966   4.521 -0.1276 -0.4599  0.0062
 2657SOL    HW210673   3.700   3.894   4.492  0.7491  0.8592 -1.6122
 2657SOL    HW310674   3.686   3.999   4.600  0.0855 -0.9520  0.1034
 2657SOL    MW410675   3.656   3.961   4.528  0.0162 -0.3510 -0.1945
 2658SOL     OW10676   3.188   0.395   3.870 -0.2478 -0.1890 -0.3942
 2658SOL    HW210677   3.186   0.301   3.853 -0.7668 -0.2183 -0.1560
 2658SOL    HW310678   3.215   0.402   3.961  1.6642 -0.0532 -0.9352
 2658SOL    MW410679   3.192   0.383   3.880 -0.0639 -0.1750 -0.4342
 2659SOL     OW10680   1.812   4.272   3.910  0.0216  0.2922 -0.0226
 2659SOL    HW210681   1.822   4.186   3.869  0.4716 -0.2754  1.2666
 2659SOL    HW310682   1.799   4.253   4.002 -2.6629  1.4717 -0.1094
 2659SOL    MW410683   1.811   4.258   3.916 -0.2732  0.3729  0.1357
 2660SOL     OW10684   0.852   3.388   4.434 -0.1376 -0.5596 -0.0768
 2660SOL    HW210685   0.786   3.345   4.488 -1.1254 -2.3820 -2.6173
 2660SOL    HW310686   0.808   3.465   4.398 -0.4717 -0.9969 -0.6307
 2660SOL    MW410687   0.838   3.392   4.436 -0.3119 -0.8578 -0.4849
 2661SOL     OW10688   2.722   1.653   3.511  0.1026  0.5911  0.3827
 2661SOL    HW210689   2.805   1.629   3.470 -0.4058 -0.6780  0.0618
 2661SOL    HW310690   2.658   1.593   3.472 -0.7594  0.7931  1.4603
 2661SOL    MW410691   2.724   1.642   3.500 -0.0780  0.4503  0.4828
 2662SOL     OW10692   2.626   0.662   4.569  0.3810  0.3767  0.5168
 2662SOL    HW210693   2.586   0.744   4.598 -0.5314  0.9361 -2.1485
 2662SOL    HW310694   2.703   0.689   4.519  0.2851 -0.3977 -0.0532
 2662SOL    MW410695   2.631   0.676   4.567  0.2480  0.3483  0.0896
 2663SOL     OW10696   0.401   0.686   4.496  0.3248  0.3564  0.0148
 2663SOL    HW210697   0.346   0.764   4.505  0.0137  0.1042  0.2947
 2663SOL    HW310698   0.342   0.612   4.509  0.8054  0.0931  0.8009
 2663SOL    MW410699   0.386   0.687   4.499  0.3471  0.2884  0.1554
 2664SOL     OW10700   1.488   2.628   4.754  0.2478 -0.2151  0.2469
 2664SOL    HW210701   1.405   2.642   4.800  1.1951 -0.4840  2.1007
 2664SOL    HW310702   1.506   2.711   4.711 -0.2131  0.3528  1.1352
 2664SOL    MW410703   1.479   2.640   4.754  0.3120 -0.1757  0.6084
 2665SOL     OW10704   0.281   3.076   4.117  0.0403 -0.4454  0.0238
 2665SOL    HW210705   0.256   3.085   4.024  0.2275 -0.3878 -0.0200
 2665SOL    HW310706   0.200   3.097   4.165  0.1277  0.2085 -0.1106
 2665SOL    MW410707   0.267   3.080   4.111  0.0765 -0.3517  0.0005
 2666SOL     OW10708   4.048   3.511   4.123 -0.1161 -0.1177 -0.0222
 2666SOL    HW210709   4.135   3.539   4.151 -0.3635  0.2738  0.3602
 2666SOL    HW310710   4.039   3.423   4.159  0.1683 -0.2062 -0.1652
 2666SOL    MW410711   4.058   3.503   4.132 -0.1111 -0.0775  0.0095
 2667SOL     OW10712   0.737   2.789   4.216 -0.0522  0.4023  0.1683
 2667SOL    HW210713   0.827   2.764   4.196 -0.0797  0.8289 -0.4977
 2667SOL    HW310714   0.731   2.881   4.192 -0.3903  0.6487  1.1561
 2667SOL    MW410715   0.748   2.798   4.210 -0.1004  0.4909  0.2117
 2668SOL     OW10716   0.034   4.264   3.889  0.8056  0.0633 -0.5079
 2668SOL    HW210717   0.036   4.244   3.983  0.0398 -0.1606 -0.5425
 2668SOL    HW310718  -0.046   4.314   3.876 -0.2835 -1.8605 -1.4334
 2668SOL    MW410719   0.024   4.268   3.900  0.5608 -0.2203 -0.6347
 2669SOL     OW10720   1.116   3.218   4.167 -0.4418  0.4388  0.1061
 2669SOL    HW210721   1.134   3.179   4.082  0.6230 -0.9970  0.9700
 2669SOL    HW310722   1.035   3.177   4.196 -0.0503 -0.1376  0.4022
 2669SOL    MW410723   1.108   3.208   4.160 -0.2496  0.1733  0.2594
 2670SOL     OW10724   2.239   3.249   3.777 -0.4318 -0.3717  0.0759
 2670SOL    HW210725   2.306   3.184   3.798 -0.5706 -0.7481 -0.6099
 2670SOL    HW310726   2.156   3.205   3.796 -0.4795  0.1222  1.0009
 2670SOL    MW410727   2.237   3.235   3.782 -0.4563 -0.3562  0.1078
 2671SOL     OW10728   2.039   4.120   4.220 -0.3056 -0.2148 -0.6407
 2671SOL    HW210729   2.104   4.123   4.151  0.1874 -3.2473 -0.3888
 2671SOL    HW310730   2.078   4.170   4.292  1.8188 -2.0203 -0.4765
 2671SOL    MW410731   2.052   4.127   4.221  0.0398 -0.8526 -0.5860
 2672SOL     OW10732   0.528   2.210   4.679  0.3421  0.0240  0.0637
 2672SOL    HW210733   0.486   2.290   4.649 -0.4482  0.1641  1.4889
 2672SOL    HW310734   0.569   2.234   4.762  1.3303 -0.6888 -0.2084
 2672SOL    MW410735   0.528   2.224   4.686  0.3682 -0.0517  0.2151
 2673SOL     OW10736   1.816   2.721   3.877  0.0093  0.5989 -0.1092
 2673SOL    HW210737   1.739   2.762   3.836  0.0736 -1.0343 -1.9728
 2673SOL    HW310738   1.819   2.634   3.837  0.6672 -0.7035  2.7270
 2673SOL    MW410739   1.806   2.715   3.866  0.1047  0.2120  0.0191
 2674SOL     OW10740   0.899   4.310   3.835  0.1005  0.4639  0.9602
 2674SOL    HW210741   0.900   4.285   3.927  1.3342 -1.5782  0.4071
 2674SOL    HW310742   0.989   4.337   3.816  0.2101 -0.5733 -0.0229
 2674SOL    MW410743   0.911   4.310   3.845  0.2776  0.0577  0.7575
 2675SOL     OW10744   3.411   2.808   4.247 -0.0489 -0.1281 -0.0678
 2675SOL    HW210745   3.341   2.762   4.200 -2.1623  1.5265  1.3911
 2675SOL    HW310746   3.385   2.803   4.339  2.4076 -0.5602  0.6381
 2675SOL    MW410747   3.398   2.801   4.253 -0.0041  0.0334  0.2174
 2676SOL     OW10748   4.032   3.243   3.768 -0.0471 -0.0134 -0.5628
 2676SOL    HW210749   4.051   3.244   3.674  1.2393  0.3981 -0.3119
 2676SOL    HW310750   4.054   3.332   3.797 -0.1295 -0.2374  0.1855
 2676SOL    MW410751   4.038   3.255   3.759  0.1121  0.0114 -0.4308
 2677SOL     OW10752   3.017   0.463   4.695 -0.3166 -0.5734  0.3738
 2677SOL    HW210753   2.925   0.471   4.718 -0.2958  0.4758  0.1037
 2677SOL    HW310754   3.034   0.536   4.636  0.6256 -0.9067  0.2188
 2677SOL    MW410755   3.007   0.473   4.690 -0.1895 -0.4789  0.3176
 2678SOL     OW10756   3.588   1.680   4.232  0.4686 -0.5825  0.1757
 2678SOL    HW210757   3.676   1.643   4.218  1.0813  0.6896  0.6038
 2678SOL    HW310758   3.529   1.606   4.220  1.3362 -0.7647 -3.5156
 2678SOL    MW410759   3.592   1.665   4.229  0.6640 -0.4387 -0.2556
 2679SOL     OW10760   3.105   4.245   3.857  0.1440 -0.4210  0.2651
 2679SOL    HW210761   3.179   4.301   3.834  0.0453 -0.6285 -0.5906
 2679SOL    HW310762   3.107   4.240   3.953 -0.0345  1.2848  0.3787
 2679SOL    MW410763   3.115   4.252   3.867  0.1073 -0.2227  0.1669
 2680SOL     OW10764   4.006   4.548   4.479 -0.9177 -0.0864  0.1765
 2680SOL    HW210765   4.052   4.593   4.408 -1.3044 -1.0805 -0.7053
 2680SOL    HW310766   4.077   4.508   4.531 -0.6411  0.5904  0.3323
 2680SOL    MW410767   4.022   4.549   4.477 -0.9327 -0.1283  0.0806
 2681SOL     OW10768   2.002   2.994   4.603 -0.3142 -0.2911  0.5765
 2681SOL    HW210769   1.910   3.018   4.596 -0.1126 -0.4200 -3.5021
 2681SOL    HW310770   2.001   2.900   4.623 -1.0634 -0.5165 -0.5139
 2681SOL    MW410771   1.990   2.985   4.605 -0.3865 -0.3378 -0.1054
 2682SOL     OW10772   0.221   0.384   4.238  0.2714 -0.0518  0.0506
 2682SOL    HW210773   0.306   0.400   4.195  0.2484 -0.1973 -0.0478
 2682SOL    HW310774   0.218   0.289   4.250  0.1211 -0.0450  0.0570
 2682SOL    MW410775   0.232   0.374   4.234  0.2485 -0.0701  0.0381
 2683SOL     OW10776   0.681   0.710   4.543 -0.2479  0.0445 -0.2176
 2683SOL    HW210777   0.585   0.708   4.545 -0.2182 -1.2739  0.3371
 2683SOL    HW310778   0.707   0.620   4.560  1.1089  0.5797  0.5864
 2683SOL    MW410779   0.672   0.698   4.546 -0.0650 -0.0588 -0.0386
 2684SOL     OW10780   0.999   2.606   4.673  0.1673  0.0385 -0.2604
 2684SOL    HW210781   0.955   2.521   4.671  0.4739 -0.1075 -0.8704
 2684SOL    HW310782   0.929   2.669   4.692 -0.4136 -0.1293 -1.7891
 2684SOL    MW410783   0.984   2.603   4.676  0.1311 -0.0029 -0.5426
 2685SOL     OW10784   3.200   1.397   4.252 -0.0389  0.4508 -0.2330
 2685SOL    HW210785   3.130   1.444   4.206  0.2210  0.8914 -0.1842
 2685SOL    HW310786   3.196   1.308   4.218  0.1169  0.7595 -1.0725
 2685SOL    MW410787   3.190   1.392   4.242  0.0160  0.5496 -0.3366
 2686SOL     OW10788   3.561   1.927   3.876 -0.4236 -0.2737 -0.0271
 2686SOL    HW210789   3.560   1.832   3.867  1.7500 -0.2951 -0.2414
 2686SOL    HW310790   3.532   1.943   3.966  0.3392 -1.2135  0.3986
 2686SOL    MW410791   3.557   1.917   3.887 -0.0362 -0.4005  0.0007
 2687SOL     OW10792   0.085   1.764   4.206 -0.2389  0.3322 -0.2236
 2687SOL    HW210793   0.063   1.773   4.298  1.1786 -0.7793  0.2311
 2687SOL    HW310794   0.028   1.694   4.175 -0.3154  0.3216 -0.0603
 2687SOL    MW410795   0.074   1.756   4.214 -0.0620  0.1842 -0.1421
 2688SOL     OW10796   3.505   1.371   4.676  0.3396 -0.3343  0.1501
 2688SOL    HW210797   3.502   1.399   4.768  1.5034  1.4430 -0.3288
 2688SOL    HW310798   3.416   1.382   4.644  0.4675  1.4132  0.3892
 2688SOL    MW410799   3.493   1.376   4.684  0.5102  0.1308  0.1183
 2689SOL     OW10800   3.341   2.294   3.892  0.1797 -0.1053 -0.0486
 2689SOL    HW210801   3.348   2.207   3.852 -0.4686 -0.3892  0.4492
 2689SOL    HW310802   3.286   2.344   3.832 -0.4992 -0.4261  0.2953
 2689SOL    MW410803   3.335   2.289   3.879  0.0048 -0.1855  0.0625
 2690SOL     OW10804   3.404   0.933   4.754  0.2254 -0.6696  0.1158
 2690SOL    HW210805   3.479   0.993   4.754 -0.3729  0.0886 -0.4648
 2690SOL    HW310806   3.443   0.846   4.761  1.2532 -0.4048 -1.9039
 2690SOL    MW410807   3.419   0.929   4.755  0.2820 -0.5346 -0.2279
 2691SOL     OW10808   1.379   0.149   4.325  0.6137  0.4776 -0.0984
 2691SOL    HW210809   1.326   0.098   4.264  0.4096  0.7056 -0.1087
 2691SOL    HW310810   1.422   0.083   4.379 -0.8277  0.3293  0.8903
 2691SOL    MW410811   1.378   0.133   4.324  0.3965  0.4881  0.0310
 2692SOL     OW10812   0.632   2.378   4.327  0.2563 -0.2500  0.3696
 2692SOL    HW210813   0.611   2.413   4.241  0.7291  1.5166  0.9606
 2692SOL    HW310814   0.726   2.357   4.323 -0.2105 -2.3477 -0.2706
 2692SOL    MW410815   0.642   2.380   4.315  0.2571 -0.2937  0.3633
 2693SOL     OW10816   3.906   2.028   4.291 -0.1073 -0.5317  0.2631
 2693SOL    HW210817   3.850   1.966   4.337  1.1824 -1.3033  0.8361
 2693SOL    HW310818   3.942   1.977   4.218  1.1953 -0.5502  0.9131
 2693SOL    MW410819   3.903   2.013   4.287  0.2348 -0.6359  0.4249
 2694SOL     OW10820   2.434   2.340   3.392 -0.0385  0.3743  0.0488
 2694SOL    HW210821   2.427   2.255   3.434 -0.0164  0.8320  1.0112
 2694SOL    HW310822   2.366   2.393   3.435 -0.8880  0.4930 -1.4127
 2694SOL    MW410823   2.424   2.336   3.403 -0.1481  0.4504 -0.0169
 2695SOL     OW10824   2.305   0.431   4.230  0.5422  0.1673 -0.1173
 2695SOL    HW210825   2.345   0.506   4.275  1.6538 -0.5357  0.0621
 2695SOL    HW310826   2.231   0.407   4.287  0.2496  1.0470 -0.1118
 2695SOL    MW410827   2.300   0.438   4.244  0.6504  0.1906 -0.0930
 2696SOL     OW10828   0.686   3.279   4.638 -0.2444 -0.5076  0.4088
 2696SOL    HW210829   0.648   3.192   4.631  0.3906 -0.6836 -0.9284
 2696SOL    HW310830   0.754   3.271   4.706  0.9246 -1.4598 -0.8591
 2696SOL    MW410831   0.690   3.267   4.646 -0.0063 -0.6566  0.0653
 2697SOL     OW10832   0.244   0.906   4.483 -0.1680 -0.2774  0.4834
 2697SOL    HW210833   0.224   0.936   4.394  1.1585 -1.4536 -0.2396
 2697SOL    HW310834   0.160   0.879   4.519 -0.6427 -0.3063 -0.6238
 2697SOL    MW410835   0.230   0.906   4.476 -0.0556 -0.4364  0.2418
 2698SOL     OW10836   0.563   2.090   4.294 -0.6381 -0.0843  0.3530
 2698SOL    HW210837   0.590   2.181   4.305 -1.2789  0.0550  0.8127
 2698SOL    HW310838   0.472   2.096   4.262 -0.0583 -0.5372 -1.4799
 2698SOL    MW410839   0.554   2.103   4.291 -0.6461 -0.1256  0.1721
 2699SOL     OW10840   1.127   1.278   3.731  0.2150  0.8106  0.5469
 2699SOL    HW210841   1.051   1.230   3.765  0.3104  0.9365  0.9391
 2699SOL    HW310842   1.202   1.228   3.763  0.3039  0.8123  0.3437
 2699SOL    MW410843   1.127   1.265   3.740  0.2393  0.8274  0.5715
 2700SOL     OW10844   0.559   1.862   4.090  0.2277 -0.1580  0.2527
 2700SOL    HW210845   0.502   1.853   4.167 -1.0630  1.7662 -0.4263
 2700SOL    HW310846   0.621   1.930   4.115  0.7389 -0.5789  0.1257
 2700SOL    MW410847   0.559   1.870   4.104  0.1248  0.0404  0.1459
 2701SOL     OW10848   0.384   0.098   4.719  0.0789  0.1855 -0.3078
 2701SOL    HW210849   0.353   0.030   4.779  0.1462 -0.5405 -1.0862
 2701SOL    HW310850   0.461   0.060   4.677  0.6554  1.0906 -0.0926
 2701SOL    MW410851   0.390   0.084   4.721  0.1638  0.2092 -0.3819
 2702SOL     OW10852   1.138   1.906   4.679  0.2697  0.0254 -0.5150
 2702SOL    HW210853   1.088   1.986   4.661  3.2444  1.8765 -0.8875
 2702SOL    HW310854   1.172   1.918   4.768  0.4769 -0.9883 -0.4511
 2702SOL    MW410855   1.136   1.918   4.688  0.6895  0.1360 -0.5550
 2703SOL     OW10856   3.103   0.007   4.240  0.0303  0.0320 -0.2210
 2703SOL    HW210857   3.132   0.096   4.261 -1.4114  0.2196  1.0081
 2703SOL    HW310858   3.134  -0.046   4.314  0.6280 -0.4451 -0.8067
 2703SOL    MW410859   3.111   0.012   4.253 -0.0813 -0.0061 -0.1359
 2704SOL     OW10860   3.801   2.048   3.769  0.1392  0.1834 -0.7970
 2704SOL    HW210861   3.719   2.010   3.802 -0.3185  0.1716 -1.9275
 2704SOL    HW310862   3.800   2.138   3.801  0.3303 -0.2039  0.3174
 2704SOL    MW410863   3.790   2.055   3.778  0.1042  0.1307 -0.7992
 2705SOL     OW10864   4.368   2.059   4.183 -0.5585 -0.0242 -0.1162
 2705SOL    HW210865   4.459   2.047   4.156  0.0388  0.9083  1.4163
 2705SOL    HW310866   4.373   2.120   4.256 -2.3070 -0.9663  0.8160
 2705SOL    MW410867   4.381   2.065   4.189 -0.7110 -0.0253  0.2089
 2706SOL     OW10868   2.893   3.069   4.583 -0.1807  0.7613  0.2769
 2706SOL    HW210869   2.839   3.099   4.510  0.1340  0.5736 -0.0334
 2706SOL    HW310870   2.842   3.090   4.661 -0.2648  1.4743  0.0283
 2706SOL    MW410871   2.879   3.076   4.584 -0.1502  0.8304  0.2031
 2707SOL     OW10872   4.158   0.207   4.656 -0.2474  0.1325 -0.1376
 2707SOL    HW210873   4.072   0.178   4.625 -0.1198 -1.4425  0.9015
 2707SOL    HW310874   4.139   0.258   4.735 -0.2074 -0.8032  0.4913
 2707SOL    MW410875   4.144   0.210   4.662 -0.2255 -0.1988  0.0830
 2708SOL     OW10876   3.103   3.258   4.277 -0.1633  0.3211  0.2077
 2708SOL    HW210877   3.154   3.184   4.246 -0.5361 -0.1863  0.8056
 2708SOL    HW310878   3.015   3.243   4.242  0.4130  1.9530 -2.0748
 2708SOL    MW410879   3.098   3.247   4.269 -0.1364  0.4694 -0.0148
 2709SOL     OW10880   1.350   1.703   3.698 -0.5691 -0.1461  0.1659
 2709SOL    HW210881   1.287   1.642   3.736  0.7699 -1.0458  1.0187
 2709SOL    HW310882   1.327   1.788   3.736 -1.6014 -0.3774  0.0476
 2709SOL    MW410883   1.339   1.706   3.708 -0.5286 -0.2955  0.2627
 2710SOL     OW10884   3.798   4.360   3.844 -0.0634  0.0383 -0.2401
 2710SOL    HW210885   3.801   4.455   3.858  3.2848 -0.1978  1.1672
 2710SOL    HW310886   3.806   4.350   3.749  2.3742  1.1659 -0.2099
 2710SOL    MW410887   3.800   4.371   3.833  0.7000  0.1559 -0.0503
 2711SOL     OW10888   1.077   3.706   3.808  0.0544  0.2955 -0.1731
 2711SOL    HW210889   1.091   3.770   3.877  0.9176 -0.1685  0.0859
 2711SOL    HW310890   1.000   3.656   3.837  0.4857  0.0192  0.5273
 2711SOL    MW410891   1.068   3.708   3.821  0.2252  0.1976 -0.0463
 2712SOL     OW10892   1.235   4.652   4.115  0.2662 -0.3205 -0.0105
 2712SOL    HW210893   1.212   4.661   4.022 -0.5470  1.0661  0.3057
 2712SOL    HW310894   1.274   4.565   4.122  1.8344  0.1848 -1.9541
 2712SOL    MW410895   1.237   4.642   4.104  0.3659 -0.0710 -0.2255
 2713SOL     OW10896   4.026   2.969   4.530 -0.2744  0.1879 -0.1760
 2713SOL    HW210897   4.107   2.928   4.499  1.5261  1.0222  3.1573
 2713SOL    HW310898   3.963   2.897   4.537  1.3124 -1.1331  0.6924
 2713SOL    MW410899   4.028   2.954   4.527  0.1721  0.1237  0.3781
 2714SOL     OW10900   4.461   4.220   4.621 -0.0948  0.4466  0.0556
 2714SOL    HW210901   4.452   4.135   4.580  0.5686  0.1141  0.5998
 2714SOL    HW310902   4.553   4.242   4.612  0.1655  0.1256  1.8306
 2714SOL    MW410903   4.472   4.212   4.614  0.0272  0.3605  0.3614
 2715SOL     OW10904   1.480   4.654   4.521  0.0371 -0.0767  0.0799
 2715SOL    HW210905   1.433   4.673   4.602  0.0740  0.1189  0.0559
 2715SOL    HW310906   1.514   4.565   4.533  1.8540  0.7362  1.1437
 2715SOL    MW410907   1.478   4.644   4.533  0.2817  0.0563  0.2170
 2716SOL     OW10908   2.782   3.024   3.960 -0.0300 -0.1920  0.0725
 2716SOL    HW210909   2.842   2.964   3.914 -0.7056 -0.2137 -0.7958
 2716SOL    HW310910   2.727   2.967   4.013  0.0811 -0.2449  0.1325
 2716SOL    MW410911   2.783   3.009   3.961 -0.1044 -0.2017 -0.0339
 2717SOL     OW10912   3.802   2.307   3.856 -0.2525  0.4899 -0.2255
 2717SOL    HW210913   3.711   2.321   3.830  0.0215  0.4201 -1.2411
 2717SOL    HW310914   3.797   2.286   3.949 -1.1013  2.3639  0.1722
 2717SOL    MW410915   3.789   2.306   3.865 -0.3281  0.7279 -0.3071
 2718SOL     OW10916   2.432   3.064   3.844  0.5134  0.1305 -0.1176
 2718SOL    HW210917   2.429   3.058   3.940 -0.7994  0.5618 -0.1224
 2718SOL    HW310918   2.438   2.973   3.815 -2.8586 -0.2784  0.2966
 2718SOL    MW410919   2.432   3.051   3.853 -0.1044  0.1333 -0.0637
 2719SOL     OW10920   1.247   4.115   4.578  0.0671  0.1493  0.4863
 2719SOL    HW210921   1.332   4.140   4.539  0.6166  0.6958  2.0142
 2719SOL    HW310922   1.239   4.022   4.557  1.2235 -0.0005  0.6454
 2719SOL    MW410923   1.257   4.106   4.570  0.2921  0.2012  0.7091
 2720SOL     OW10924   1.227   2.671   4.837 -0.0027 -0.1726  0.1672
 2720SOL    HW210925   1.149   2.654   4.785 -0.4839 -0.3629  0.9317
 2720SOL    HW310926   1.196   2.668   4.928  0.7315  0.5753  0.4532
 2720SOL    MW410927   1.212   2.668   4.842  0.0308 -0.0989  0.3057
 2721SOL     OW10928   1.998   2.836   3.713 -0.5128  0.2295  0.4178
 2721SOL    HW210929   1.935   2.804   3.777  0.6861 -1.0858  0.9778
 2721SOL    HW310930   2.078   2.786   3.731 -0.3547 -0.7057 -2.5565
 2721SOL    MW410931   2.000   2.825   3.724 -0.3338 -0.0670  0.0994
 2722SOL     OW10932   2.643   1.839   4.730 -0.6064 -0.3676  0.2930
 2722SOL    HW210933   2.685   1.766   4.686 -1.3068 -0.9508  0.5883
 2722SOL    HW310934   2.619   1.805   4.816 -0.1896  0.4548  0.7364
 2722SOL    MW410935   2.646   1.825   4.735 -0.6437 -0.3361  0.3905
 2723SOL     OW10936   3.019   1.745   4.482 -0.1548 -0.2644 -0.1347
 2723SOL    HW210937   3.109   1.741   4.512 -0.5530  0.6125  1.2171
 2723SOL    HW310938   3.024   1.728   4.388  1.4766  0.4205 -0.1795
 2723SOL    MW410939   3.031   1.742   4.473  0.0081 -0.0584  0.0377
 2724SOL     OW10940   3.842   1.626   4.131  0.1536 -0.2527 -0.3415
 2724SOL    HW210941   3.910   1.571   4.172  1.2118  0.5425 -0.9938
 2724SOL    HW310942   3.887   1.708   4.113 -1.7023  1.2602  1.6552
 2724SOL    MW410943   3.857   1.629   4.134  0.0482  0.0519 -0.1645
 2725SOL     OW10944   0.379   2.665   4.522 -0.2197 -0.3267 -0.3072
 2725SOL    HW210945   0.331   2.716   4.457  2.2237 -0.5309 -2.3457
 2725SOL    HW310946   0.374   2.718   4.602  1.5650  2.7832 -2.1614
 2725SOL    MW410947   0.372   2.679   4.524  0.3381  0.0567 -0.8206
 2726SOL     OW10948   1.371   0.934   3.496  0.2565  0.0505  0.7063
 2726SOL    HW210949   1.357   1.023   3.464 -2.4842  0.2328  2.2598
 2726SOL    HW310950   1.461   0.914   3.471  0.0679  2.2400 -2.0456
 2726SOL    MW410951   1.381   0.943   3.488 -0.1299  0.3635  0.5484
 2727SOL     OW10952   1.216   1.959   4.090 -0.2987 -0.0334 -0.2212
 2727SOL    HW210953   1.291   1.962   4.149 -0.3045  0.4656 -0.2334
 2727SOL    HW310954   1.156   1.896   4.130 -0.5527  0.7267  0.6039
 2727SOL    MW410955   1.218   1.951   4.103 -0.3330  0.1326 -0.1135
 2728SOL     OW10956   3.307   2.890   4.512  0.0707 -0.4550 -0.3523
 2728SOL    HW210957   3.230   2.865   4.563 -0.0322 -0.6980 -0.6191
 2728SOL    HW310958   3.313   2.985   4.521 -1.6821 -0.1164 -2.2791
 2728SOL    MW410959   3.298   2.899   4.520 -0.1743 -0.4423 -0.6413
 2729SOL     OW10960   3.361   0.533   3.492  0.2749 -0.0575 -0.2879
 2729SOL    HW210961   3.383   0.549   3.584  0.4719  0.8707 -0.4984
 2729SOL    HW310962   3.427   0.470   3.463 -0.6538 -1.4810  0.5969
 2729SOL    MW410963   3.373   0.527   3.501  0.1781 -0.1229 -0.1988
 2730SOL     OW10964   1.546   1.545   3.791  0.4880  0.4292 -0.3557
 2730SOL    HW210965   1.486   1.605   3.747  1.5014 -0.0889 -2.5045
 2730SOL    HW310966   1.633   1.580   3.772  0.9437  0.3999  1.5766
 2730SOL    MW410967   1.550   1.558   3.783  0.6819  0.3569 -0.3841
 2731SOL     OW10968   4.025   2.712   4.086 -0.4485 -0.5253 -0.1761
 2731SOL    HW210969   4.041   2.625   4.121 -1.9721 -0.6229  0.3231
 2731SOL    HW310970   3.955   2.748   4.141 -0.0134  0.9078 -0.5391
 2731SOL    MW410971   4.018   2.706   4.098 -0.5922 -0.3493 -0.1583
 2732SOL     OW10972   3.576   2.622   4.151 -0.3180  0.3066 -0.3685
 2732SOL    HW210973   3.556   2.624   4.058 -0.1007 -1.0339 -0.4487
 2732SOL    HW310974   3.515   2.685   4.190 -1.8030 -0.6183 -1.1600
 2732SOL    MW410975   3.565   2.630   4.144 -0.4852  0.0076 -0.4835
 2733SOL     OW10976   1.477   3.410   4.545 -0.2406 -0.4025  0.3062
 2733SOL    HW210977   1.421   3.485   4.564 -0.7391 -1.3369  2.6862
 2733SOL    HW310978   1.425   3.334   4.569  0.8690 -1.4454 -0.5199
 2733SOL    MW410979   1.463   3.410   4.551 -0.1601 -0.6633  0.5116
 2734SOL     OW10980   3.360   3.647   4.209  0.2679  0.0552  0.1276
 2734SOL    HW210981   3.280   3.599   4.185  1.0168 -0.2268 -1.9352
 2734SOL    HW310982   3.358   3.725   4.154  1.4416  0.0079  0.0096
 2734SOL    MW410983   3.349   3.651   4.199  0.5214  0.0117 -0.1602
 2735SOL     OW10984   0.209   2.073   3.695  0.4530  0.1547 -0.0991
 2735SOL    HW210985   0.278   2.017   3.730  1.0214  0.8612 -0.0685
 2735SOL    HW310986   0.246   2.162   3.699 -0.2105  0.4637 -0.6782
 2735SOL    MW410987   0.223   2.078   3.700  0.4405  0.2885 -0.1714
 2736SOL     OW10988   0.474   0.390   3.838  0.0298  0.0271  0.2663
 2736SOL    HW210989   0.397   0.442   3.815 -0.1346 -0.5241 -0.4863
 2736SOL    HW310990   0.472   0.384   3.933 -1.4435 -0.8465  0.2001
 2736SOL    MW410991   0.463   0.396   3.847 -0.1863 -0.1608  0.1578
 2737SOL     OW10992   1.115   1.491   4.401  0.0470 -0.0225  0.0530
 2737SOL    HW210993   1.078   1.568   4.443 -1.2872 -1.0412  0.8110
 2737SOL    HW310994   1.043   1.456   4.348  0.9653 -0.1305 -1.1296
 2737SOL    MW410995   1.100   1.496   4.400 -0.0076 -0.1712 -0.0029
 2738SOL     OW10996   1.473   0.614   4.339 -0.0309 -0.2471  0.4328
 2738SOL    HW210997   1.454   0.649   4.426  2.3896 -0.7054  1.1929
 2738SOL    HW310998   1.453   0.686   4.279 -0.8120  0.3928  1.4582
 2738SOL    MW410999   1.468   0.628   4.342  0.1853 -0.2232  0.6685
 2739SOL     OW11000   2.816   2.765   4.297 -0.5886 -0.4180  0.0918
 2739SOL    HW211001   2.770   2.773   4.380 -1.2245  0.7861 -0.3799
 2739SOL    HW311002   2.768   2.820   4.236  1.1675  0.4808 -0.5312
 2739SOL    MW411003   2.804   2.773   4.300 -0.4406 -0.1407 -0.0529
 2740SOL     OW11004   0.949   2.946   4.929 -0.0892 -0.1867 -0.1521
 2740SOL    HW211005   0.954   2.889   5.006 -1.2117  0.9987  0.8244
 2740SOL    HW311006   0.894   2.898   4.867 -0.2542 -0.5821  0.2968
 2740SOL    MW411007   0.942   2.932   4.931 -0.2590 -0.0825  0.0367
 2741SOL     OW11008   0.676   3.057   4.172  0.1557  0.0538  0.6883
 2741SOL    HW211009   0.603   3.101   4.215  0.0098  0.6551 -0.1593
 2741SOL    HW311010   0.669   3.083   4.080  1.3533  0.0154  0.5700
 2741SOL    MW411011   0.666   3.066   4.165  0.2944  0.1283  0.5608
 2742SOL     OW11012   3.052   2.027   4.534  0.1740  0.1487  0.1913
 2742SOL    HW211013   3.038   1.933   4.520  0.1421 -0.3067  2.9456
 2742SOL    HW311014   2.964   2.064   4.539  0.1880  0.4150 -1.2726
 2742SOL    MW411015   3.039   2.019   4.533  0.1717  0.1240  0.3619
 2743SOL     OW11016   1.123   2.328   3.811 -0.6589  0.1123  0.3732
 2743SOL    HW211017   1.136   2.296   3.900  0.4668 -0.6958 -0.0785
 2743SOL    HW311018   1.116   2.250   3.757 -0.0820  0.5960 -0.4226
 2743SOL    MW411019   1.124   2.314   3.816 -0.4343  0.0694  0.2086
 2744SOL     OW11020   0.421   4.249   4.135 -0.3063 -0.1767 -0.1357
 2744SOL    HW211021   0.507   4.286   4.159 -0.2381 -1.1783  1.2186
 2744SOL    HW311022   0.358   4.312   4.171 -0.1579 -0.3178  0.3872
 2744SOL    MW411023   0.424   4.262   4.143 -0.2778 -0.3271  0.1116
 2745SOL     OW11024   3.163   2.428   3.735 -0.3852 -0.0110  0.0205
 2745SOL    HW211025   3.150   2.520   3.758  2.4370 -0.0908  2.0845
 2745SOL    HW311026   3.087   2.384   3.772 -0.9069  1.2441  0.4883
 2745SOL    MW411027   3.151   2.435   3.743 -0.0818  0.1442  0.3545
 2746SOL     OW11028   3.320   0.392   4.498 -0.2034  0.3224 -0.1881
 2746SOL    HW211029   3.287   0.345   4.575 -1.8044  0.9963 -0.4542
 2746SOL    HW311030   3.264   0.363   4.426  0.2901  0.8807 -0.8057
 2746SOL    MW411031   3.308   0.382   4.499 -0.3498  0.4850 -0.3042
 2747SOL     OW11032   2.263   3.960   3.827  0.7442  0.2929 -0.1586
 2747SOL    HW211033   2.253   3.950   3.732 -0.5260  0.4437 -0.0498
 2747SOL    HW311034   2.347   3.920   3.847  0.5777 -0.5992 -1.2245
 2747SOL    MW411035   2.273   3.954   3.817  0.5546  0.1953 -0.2851
 2748SOL     OW11036   4.489   0.582   4.562  0.2583 -0.1471 -0.3541
 2748SOL    HW211037   4.481   0.676   4.581  0.3761  0.3551 -2.5811
 2748SOL    HW311038   4.399   0.555   4.541 -0.0184 -0.8848  1.7467
 2748SOL    MW411039   4.476   0.591   4.562  0.2375 -0.1782 -0.3705
 2749SOL     OW11040   2.511   4.134   4.417 -0.4990  0.2957 -0.2360
 2749SOL    HW211041   2.588   4.110   4.366 -0.1779  1.3770 -0.2841
 2749SOL    HW311042   2.440   4.083   4.379  0.5129 -2.1035  0.9950
 2749SOL    MW411043   2.512   4.124   4.405 -0.3231  0.1221 -0.0806
 2750SOL     OW11044   0.513   3.484   4.609  0.2075 -1.0893  0.4676
 2750SOL    HW211045   0.577   3.416   4.631 -0.9200 -2.1179  0.5739
 2750SOL    HW311046   0.435   3.461   4.659 -0.1166  0.4190  0.6886
 2750SOL    MW411047   0.511   3.472   4.619  0.0160 -1.0259  0.5107
 2751SOL     OW11048   0.877   1.437   4.260 -0.2109  0.0588  0.0981
 2751SOL    HW211049   0.850   1.490   4.185 -1.2902 -0.2720  0.2459
 2751SOL    HW311050   0.877   1.347   4.228 -1.1339 -0.1278  0.6269
 2751SOL    MW411051   0.874   1.432   4.246 -0.4751 -0.0095  0.1874
 2752SOL     OW11052   1.364   4.323   3.899 -0.0406  0.2702  0.3857
 2752SOL    HW211053   1.454   4.352   3.881  0.1880 -0.7616 -0.1858
 2752SOL    HW311054   1.367   4.228   3.888 -1.3450  0.2918 -0.2977
 2752SOL    MW411055   1.376   4.315   3.895 -0.1825  0.1369  0.2203
 2753SOL     OW11056   2.961   2.292   4.206 -0.3070 -0.6328 -0.2725
 2753SOL    HW211057   2.909   2.213   4.194 -0.4942 -0.3163 -1.5877
 2753SOL    HW311058   2.896   2.360   4.228 -0.3204 -0.4853 -0.7753
 2753SOL    MW411059   2.945   2.291   4.208 -0.3333 -0.5715 -0.5126
 2754SOL     OW11060   3.590   4.075   4.092  0.6926  0.0672 -0.0404
 2754SOL    HW211061   3.661   4.011   4.099  0.7061  0.1663  0.8227
 2754SOL    HW311062   3.586   4.115   4.179 -1.9466 -1.5760  0.6708
 2754SOL    MW411063   3.599   4.072   4.104  0.3462 -0.1369  0.1669
 2755SOL     OW11064   3.206   1.156   4.127 -0.0377  0.0940  0.0375
 2755SOL    HW211065   3.185   1.146   4.034  1.4581  0.1478 -0.3062
 2755SOL    HW311066   3.253   1.076   4.149 -0.1865  0.1897  0.7024
 2755SOL    MW411067   3.209   1.144   4.117  0.1400  0.1137  0.0801
 2756SOL     OW11068   1.758   2.081   4.493  0.3539  0.0175 -0.1001
 2756SOL    HW211069   1.833   2.057   4.547 -0.8930 -0.1510  1.5726
 2756SOL    HW311070   1.772   2.034   4.411  2.2098  0.1957  0.0916
 2756SOL    MW411071   1.770   2.072   4.489  0.4343  0.0191  0.1459
 2757SOL     OW11072   1.319   1.299   4.055  0.0919  0.2040 -0.4452
 2757SOL    HW211073   1.329   1.262   3.968  0.5184  0.0240 -0.3224
 2757SOL    HW311074   1.408   1.304   4.090 -0.0552  0.4475 -0.0915
 2757SOL    MW411075   1.332   1.295   4.048  0.1287  0.2124 -0.3824
 2758SOL     OW11076   0.583   2.737   4.875  0.2059 -0.0420  0.2333
 2758SOL    HW211077   0.503   2.779   4.845 -0.2743 -0.0776  1.4179
 2758SOL    HW311078   0.653   2.791   4.838 -0.3548 -0.2008 -1.0648
 2758SOL    MW411079   0.582   2.750   4.866  0.0686 -0.0677  0.2189
 2759SOL     OW11080   3.608   2.376   4.258 -0.1396 -0.1826 -0.1053
 2759SOL    HW211081   3.527   2.341   4.294  1.0194 -0.9373  1.8568
 2759SOL    HW311082   3.583   2.459   4.217 -2.0566 -0.9281 -0.4840
 2759SOL    MW411083   3.594   2.383   4.257 -0.2398 -0.3810  0.1040
 2760SOL     OW11084   3.616   0.131   4.620 -0.4826 -0.2828 -0.0191
 2760SOL    HW211085   3.710   0.111   4.624 -0.5225 -0.5386 -0.3597
 2760SOL    HW311086   3.613   0.226   4.609 -0.2857 -0.1417  1.0142
 2760SOL    MW411087   3.628   0.141   4.619 -0.4621 -0.2980  0.0725
 2761SOL     OW11088   2.316   2.193   3.915  0.3791 -0.2615 -0.0264
 2761SOL    HW211089   2.400   2.185   3.870  0.1974  1.2860 -0.6654
 2761SOL    HW311090   2.308   2.287   3.935  0.4972 -0.8950  3.3015
 2761SOL    MW411091   2.326   2.205   3.912  0.3707 -0.1407  0.3283
 2762SOL     OW11092   4.248   3.082   3.847 -0.1939 -0.4459 -0.3836
 2762SOL    HW211093   4.321   3.133   3.813  0.2730  0.1745  1.4978
 2762SOL    HW311094   4.170   3.131   3.822  0.0945 -0.4202 -1.2469
 2762SOL    MW411095   4.248   3.095   3.839 -0.0939 -0.3607 -0.2494
 2763SOL     OW11096   1.243   3.592   4.519  0.4861 -0.4008 -0.4882
 2763SOL    HW211097   1.227   3.569   4.427  1.3543  0.4848 -0.8822
 2763SOL    HW311098   1.185   3.536   4.569 -2.2443  1.2167 -1.7202
 2763SOL    MW411099   1.233   3.582   4.513  0.2404 -0.0708 -0.7029
 2764SOL     OW11100   0.703   3.900   3.904  0.2135 -0.0997  0.0083
 2764SOL    HW211101   0.771   3.958   3.869 -0.4676  0.8519  0.2624
 2764SOL    HW311102   0.621   3.940   3.877 -0.2731 -0.7078  0.5720
 2764SOL    MW411103   0.701   3.913   3.896  0.0594 -0.0544  0.1161
 2765SOL     OW11104   1.188   2.969   4.768  0.0628 -0.2833 -0.6524
 2765SOL    HW211105   1.105   2.967   4.815  0.0741  1.5031 -0.5111
 2765SOL    HW311106   1.228   2.884   4.787  0.1640  0.4262  2.7969
 2765SOL    MW411107   1.182   2.958   4.777  0.0776  0.0460 -0.1788
 2766SOL     OW11108   0.485   3.438   3.871  0.3278  0.0504  0.1553
 2766SOL    HW211109   0.555   3.501   3.854 -0.2442  0.4729 -0.6477
 2766SOL    HW311110   0.406   3.479   3.837 -0.5235  0.0629  2.1161
 2766SOL    MW411111   0.484   3.452   3.864  0.1400  0.1080  0.3080
 2767SOL     OW11112   1.012   4.248   4.506 -0.6596  0.1638 -0.0254
 2767SOL    HW211113   0.940   4.204   4.550  0.6680  0.3426  2.4088
 2767SOL    HW311114   1.091   4.205   4.540  0.4187  0.6213 -1.8970
 2767SOL    MW411115   1.013   4.237   4.516 -0.3421  0.2475  0.0486
 2768SOL     OW11116   3.784   2.831   3.773 -0.4134  0.4555 -0.2432
 2768SOL    HW211117   3.870   2.790   3.781 -0.3215  0.7759  0.5574
 2768SOL    HW311118   3.797   2.920   3.807 -0.8038  0.8687 -1.1560
 2768SOL    MW411119   3.797   2.837   3.779 -0.4528  0.5522 -0.2580
 2769SOL     OW11120   2.588   1.610   4.424  0.1030 -0.2153  0.4792
 2769SOL    HW211121   2.659   1.632   4.484  0.5914  1.3384 -0.6367
 2769SOL    HW311122   2.628   1.550   4.360  1.5132  3.5386 -2.3626
 2769SOL    MW411123   2.603   1.605   4.423  0.3536  0.4849 -0.0424
 2770SOL     OW11124   2.934   2.335   3.865 -0.0790  0.5691  0.2398
 2770SOL    HW211125   2.862   2.384   3.827 -0.1715  1.4453  1.5202
 2770SOL    HW311126   2.922   2.343   3.960  1.1953 -0.0226  0.4703
 2770SOL    MW411127   2.923   2.342   3.873  0.0770  0.6068  0.4392
 2771SOL     OW11128   3.913   0.117   4.555  0.5990 -0.2917 -0.2043
 2771SOL    HW211129   3.894   0.145   4.465  1.3124 -0.6391 -0.4673
 2771SOL    HW311130   3.937   0.025   4.547  1.4637 -0.1080  0.2343
 2771SOL    MW411131   3.913   0.109   4.542  0.8075 -0.3133 -0.1812
 2772SOL     OW11132   3.676   3.196   4.743  0.3668  0.3431 -0.6239
 2772SOL    HW211133   3.588   3.229   4.758  1.0951  0.9095  2.8340
 2772SOL    HW311134   3.666   3.101   4.741  0.2107  0.1318  4.6010
 2772SOL    MW411135   3.663   3.188   4.745  0.4423  0.3898  0.5207
 2773SOL     OW11136   0.465   0.429   4.125  0.1237 -0.0168 -0.1872
 2773SOL    HW211137   0.533   0.392   4.182 -0.8153 -0.2029  0.8217
 2773SOL    HW311138   0.453   0.519   4.157 -1.2151 -0.4880  0.6541
 2773SOL    MW411139   0.473   0.436   4.137 -0.1768 -0.1035  0.0563
 2774SOL     OW11140   4.260   4.347   4.266 -0.1283  0.1732 -0.0260
 2774SOL    HW211141   4.281   4.425   4.215 -0.2845 -0.9688 -1.8797
 2774SOL    HW311142   4.269   4.375   4.357  0.9695  2.0343 -0.6737
 2774SOL    MW411143   4.264   4.361   4.271 -0.0043  0.2685 -0.3557
 2775SOL     OW11144   2.484   2.852   3.532  0.1190  0.1095 -0.6225
 2775SOL    HW211145   2.487   2.946   3.517 -1.0768  0.1724 -0.4972
 2775SOL    HW311146   2.401   2.824   3.493  0.3332 -0.8459 -0.4079
 2775SOL    MW411147   2.473   2.861   3.525 -0.0107 -0.0083 -0.5777
 2776SOL     OW11148   4.098   3.233   4.464  0.0544 -0.0959  0.3379
 2776SOL    HW211149   4.080   3.282   4.544 -0.7095 -0.7546  0.5747
 2776SOL    HW311150   4.074   3.143   4.485  2.3289 -0.7746  0.2075
 2776SOL    MW411151   4.093   3.227   4.477  0.2537 -0.2720  0.3519
 2777SOL     OW11152   2.946   1.117   4.263  0.1239 -0.2086 -0.5788
 2777SOL    HW211153   3.032   1.130   4.224  0.0267  1.5041 -0.2783
 2777SOL    HW311154   2.896   1.194   4.235 -0.5257  0.0895  1.3506
 2777SOL    MW411155   2.951   1.129   4.254  0.0255  0.0566 -0.2842
 2778SOL     OW11156   1.132   4.225   4.225 -0.0681 -0.4872 -0.1944
 2778SOL    HW211157   1.172   4.140   4.242  0.3013 -0.4323 -0.7920
 2778SOL    HW311158   1.075   4.240   4.300  0.0283 -1.1660  0.0153
 2778SOL    MW411159   1.130   4.216   4.237 -0.0067 -0.5698 -0.2456
 2779SOL     OW11160   0.249   0.542   3.753  0.5211  0.2309  0.3380
 2779SOL    HW211161   0.252   0.637   3.760 -0.5460  0.2976  0.0826
 2779SOL    HW311162   0.243   0.526   3.659  0.8392 -0.0956  0.3733
 2779SOL    MW411163   0.248   0.552   3.741  0.4222  0.1967  0.3090
 2780SOL     OW11164   0.129   4.616   4.080  0.1005  0.9365 -0.0092
 2780SOL    HW211165   0.038   4.598   4.102 -0.1028  1.6885 -0.2376
 2780SOL    HW311166   0.178   4.541   4.116 -0.6173  0.4645 -0.0140
 2780SOL    MW411167   0.124   4.603   4.088 -0.0210  0.9737 -0.0405
 2781SOL     OW11168   0.686   3.626   4.285  0.3353 -0.2132  0.6900
 2781SOL    HW211169   0.662   3.714   4.254 -0.7064 -0.9227 -0.5538
 2781SOL    HW311170   0.768   3.607   4.241 -0.8337 -0.9707 -1.2236
 2781SOL    MW411171   0.693   3.635   4.275  0.0435 -0.4065  0.2732
 2782SOL     OW11172   4.047   3.246   4.184 -0.0469 -0.0817 -0.2279
 2782SOL    HW211173   4.061   3.237   4.278  0.4910 -0.5024 -0.3456
 2782SOL    HW311174   3.963   3.202   4.168 -0.0898 -0.0971  0.0375
 2782SOL    MW411175   4.038   3.239   4.194  0.0181 -0.1392 -0.2084
 2783SOL     OW11176   0.579   4.589   4.565  0.1713  0.1389  0.1480
 2783SOL    HW211177   0.638   4.522   4.532 -1.2744 -0.8214 -0.5509
 2783SOL    HW311178   0.560   4.644   4.489  1.3389  1.3523  0.7120
 2783SOL    MW411179   0.584   4.588   4.551  0.1346  0.1717  0.1302
 2784SOL     OW11180   3.393   0.553   3.770 -0.0305  0.5718  0.5267
 2784SOL    HW211181   3.313   0.502   3.778  0.2634 -0.1885 -1.0513
 2784SOL    HW311182   3.462   0.496   3.804 -0.0742  0.9911  1.3242
 2784SOL    MW411183   3.392   0.539   3.775  0.0024  0.5268  0.4237
 2785SOL     OW11184   3.564   0.789   4.315 -0.0752 -0.2629 -0.2422
 2785SOL    HW211185   3.626   0.830   4.255  0.4633 -1.3802 -0.4669
 2785SOL    HW311186   3.592   0.817   4.402 -0.0926  0.3482 -0.4360
 2785SOL    MW411187   3.576   0.798   4.319 -0.0064 -0.3297 -0.2980
 2786SOL     OW11188   1.779   3.295   4.539 -0.5557 -0.1055  0.3094
 2786SOL    HW211189   1.757   3.209   4.504 -0.3645  0.4646 -1.2238
 2786SOL    HW311190   1.697   3.327   4.577 -0.5882 -1.0232  1.0232
 2786SOL    MW411191   1.765   3.288   4.540 -0.5347 -0.1514  0.2007
 2787SOL     OW11192   3.167   0.277   4.295 -0.0271 -0.0568  0.2011
 2787SOL    HW211193   3.075   0.292   4.315  0.2198  1.9372 -0.1318
 2787SOL    HW311194   3.187   0.338   4.225  1.7028 -0.0812  0.6517
 2787SOL    MW411195   3.158   0.287   4.289  0.2337  0.2030  0.2165
 2788SOL     OW11196   0.639   4.659   3.856  0.0065  0.0939  0.6320
 2788SOL    HW211197   0.582   4.709   3.798  1.1409 -1.1424 -1.5969
 2788SOL    HW311198   0.641   4.571   3.819  2.1933 -0.2557  1.4734
 2788SOL    MW411199   0.632   4.654   3.844  0.4448 -0.1154  0.4489
 2789SOL     OW11200   2.476   4.623   4.182  0.0077  0.7600 -0.1066
 2789SOL    HW211201   2.473   4.712   4.219 -0.7680  1.0594 -0.8492
 2789SOL    HW311202   2.395   4.582   4.212  0.1204  0.4817 -0.1826
 2789SOL    MW411203   2.465   4.630   4.191 -0.0799  0.7629 -0.2146
 2790SOL     OW11204   2.888   0.356   4.348  0.2245 -0.3446  0.4673
 2790SOL    HW211205   2.860   0.312   4.428 -0.1743  0.1067  0.5796
 2790SOL    HW311206   2.816   0.342   4.287  0.1221  0.0948  0.4844
 2790SOL    MW411207   2.874   0.348   4.351  0.1585 -0.2270  0.4845
 2791SOL     OW11208   1.030   3.836   4.215 -0.6607 -0.2587  0.3543
 2791SOL    HW211209   1.074   3.866   4.136  1.2040 -1.7410  0.7638
 2791SOL    HW311210   0.971   3.907   4.239  0.9294  1.4620 -0.7066
 2791SOL    MW411211   1.028   3.849   4.208 -0.2049 -0.2275  0.2680
 2792SOL     OW11212   2.569   4.507   4.602  0.0018 -0.3299 -0.4462
 2792SOL    HW211213   2.642   4.532   4.659 -0.2527  3.0362 -1.4868
 2792SOL    HW311214   2.606   4.510   4.514 -1.0179  0.0673 -0.8680
 2792SOL    MW411215   2.584   4.511   4.598 -0.1664  0.1664 -0.6390
 2793SOL     OW11216   2.274   3.439   4.170 -0.2188 -1.1297  0.2371
 2793SOL    HW211217   2.242   3.461   4.083  0.2872 -0.7699  0.1375
 2793SOL    HW311218   2.241   3.510   4.226 -1.2073 -1.7781  0.4830
 2793SOL    MW411219   2.266   3.451   4.166 -0.2825 -1.1678  0.2561
 2794SOL     OW11220   3.800   2.776   4.524  0.2893 -0.2379  0.6173
 2794SOL    HW211221   3.768   2.686   4.523  0.4064 -0.2817 -1.0319
 2794SOL    HW311222   3.727   2.827   4.560  0.0586 -0.9249  1.1305
 2794SOL    MW411223   3.786   2.771   4.528  0.2744 -0.3343  0.4678
 2795SOL     OW11224   4.087   0.355   3.886  0.1625 -0.7503 -0.4497
 2795SOL    HW211225   4.014   0.402   3.847  0.0745 -0.5665 -0.0719
 2795SOL    HW311226   4.163   0.411   3.870  0.1809 -0.8292 -0.6379
 2795SOL    MW411227   4.087   0.369   3.879  0.1535 -0.7364 -0.4249
 2796SOL     OW11228   2.770   0.225   4.571  0.0334  0.8392  0.1125
 2796SOL    HW211229   2.773   0.285   4.646 -0.7403 -0.7579  1.4384
 2796SOL    HW311230   2.677   0.204   4.560  0.3300 -0.4441 -0.0546
 2796SOL    MW411231   2.758   0.230   4.580 -0.0293  0.4592  0.2656
 2797SOL     OW11232   0.883   1.962   4.114  0.1789  0.5078  0.1523
 2797SOL    HW211233   0.927   1.884   4.146 -0.6162 -0.1496 -0.3325
 2797SOL    HW311234   0.883   2.022   4.188  0.2580 -0.1877  0.7166
 2797SOL    MW411235   0.888   1.960   4.128  0.0845  0.3295  0.1626
 2798SOL     OW11236   2.059   0.447   4.612 -0.0532  0.0519 -0.0991
 2798SOL    HW211237   2.110   0.519   4.575 -0.9873  0.5327 -0.4808
 2798SOL    HW311238   1.974   0.486   4.631 -0.7972 -1.1229 -0.9761
 2798SOL    MW411239   2.055   0.461   4.609 -0.2744 -0.0397 -0.2651
 2799SOL     OW11240   2.696   1.129   4.645 -0.2740  0.7315 -0.0380
 2799SOL    HW211241   2.692   1.084   4.561 -1.8684  0.4713  0.1474
 2799SOL    HW311242   2.613   1.178   4.650  0.1606  1.3883  1.0157
 2799SOL    MW411243   2.684   1.129   4.635 -0.4272  0.7838  0.1249
 2800SOL     OW11244   3.581   2.946   4.592  0.1369 -0.0266 -0.3573
 2800SOL    HW211245   3.607   2.994   4.513  0.0861  2.4572  1.0940
 2800SOL    HW311246   3.488   2.926   4.578  0.1058  0.4875 -0.8892
 2800SOL    MW411247   3.572   2.950   4.580  0.1261  0.3691 -0.2360
 2801SOL     OW11248   1.046   0.477   4.329  0.2484  0.2766 -0.4506
 2801SOL    HW211249   0.989   0.430   4.268 -0.3847 -1.0204  1.1190
 2801SOL    HW311250   1.134   0.460   4.296 -0.1752  1.9502 -2.6450
 2801SOL    MW411251   1.050   0.469   4.316  0.1091  0.3263 -0.5331
 2802SOL     OW11252   2.489   3.865   3.935 -0.3125 -0.1332 -0.3974
 2802SOL    HW211253   2.494   3.784   3.884  1.5408 -1.5666  1.9561
 2802SOL    HW311254   2.558   3.920   3.897  0.4998 -0.8645  0.0052
 2802SOL    MW411255   2.499   3.862   3.923  0.0393 -0.4189 -0.0334
 2803SOL     OW11256   3.769   1.470   4.546  0.0935  0.6271  0.0105
 2803SOL    HW211257   3.816   1.388   4.531 -0.4388  0.0001  1.6522
 2803SOL    HW311258   3.680   1.443   4.567  0.1711  1.5553  1.6254
 2803SOL    MW411259   3.764   1.456   4.546  0.0336  0.6669  0.4401
 2804SOL     OW11260   0.276   3.712   4.451  0.0308  0.5856 -0.5628
 2804SOL    HW211261   0.209   3.776   4.476  1.0830  2.2571 -1.9622
 2804SOL    HW311262   0.356   3.744   4.493  0.7175  0.5761 -1.8567
 2804SOL    MW411263   0.278   3.724   4.460  0.2602  0.8051 -0.9179
 2805SOL     OW11264   4.120   2.526   4.407  0.0161 -0.1439  0.1480
 2805SOL    HW211265   4.115   2.488   4.319  0.8926 -0.2860  0.1470
 2805SOL    HW311266   4.060   2.473   4.459 -1.2978  0.5983 -0.5791
 2805SOL    MW411267   4.112   2.514   4.402 -0.0415 -0.0646  0.0515
 2806SOL     OW11268   1.413   3.510   4.137  0.1706 -0.3318 -0.3618
 2806SOL    HW211269   1.331   3.490   4.181  0.5645  0.9891  1.0308
 2806SOL    HW311270   1.478   3.457   4.183  0.4290  0.3051  0.0153
 2806SOL    MW411271   1.411   3.501   4.149  0.2567 -0.0737 -0.1283
 2807SOL     OW11272   2.070   2.725   4.572 -0.1974 -0.2921  0.1881
 2807SOL    HW211273   2.061   2.632   4.595 -0.3894 -0.5763 -0.9933
 2807SOL    HW311274   2.021   2.734   4.490  0.4478  0.6901 -0.0995
 2807SOL    MW411275   2.062   2.714   4.564 -0.1376 -0.1998 -0.0052
 2808SOL     OW11276   3.367   3.590   3.767 -0.1862  0.5383 -0.1531
 2808SOL    HW211277   3.291   3.536   3.789  0.1600 -0.4804 -1.3522
 2808SOL    HW311278   3.374   3.583   3.672  2.0949 -0.3136  0.0492
 2808SOL    MW411279   3.358   3.582   3.757  0.1602  0.2916 -0.2847
 2809SOL     OW11280   0.297   2.835   4.753 -0.0118  0.0269 -0.4549
 2809SOL    HW211281   0.248   2.904   4.707  0.1080  0.8620  0.6599
 2809SOL    HW311282   0.229   2.776   4.786 -0.1263 -0.2724 -1.2101
 2809SOL    MW411283   0.282   2.836   4.751 -0.0111  0.0978 -0.4077
 2810SOL     OW11284   3.869   1.196   4.544 -0.3630  0.4846  0.4170
 2810SOL    HW211285   3.960   1.177   4.567 -0.4926 -1.0392 -0.2295
 2810SOL    HW311286   3.867   1.194   4.448 -1.3342 -0.9619  0.4399
 2810SOL    MW411287   3.880   1.193   4.534 -0.5083  0.0926  0.3347
 2811SOL     OW11288   1.544   2.056   3.730  0.3295 -0.0521 -0.3624
 2811SOL    HW211289   1.614   1.992   3.744 -0.0103 -0.5933 -1.1532
 2811SOL    HW311290   1.467   2.017   3.772  0.0341 -0.3308 -1.1598
 2811SOL    MW411291   1.543   2.042   3.737  0.2457 -0.1600 -0.5717
 2812SOL     OW11292   0.710   3.075   3.880 -0.3290 -0.3053  0.3202
 2812SOL    HW211293   0.737   2.997   3.831 -1.9230 -1.7673  1.7284
 2812SOL    HW311294   0.767   3.145   3.847 -1.2980 -1.2348 -3.5677
 2812SOL    MW411295   0.721   3.074   3.869 -0.6672 -0.6208 -0.0069
 2813SOL     OW11296   4.135   3.357   4.719  0.4984  0.1101 -0.4719
 2813SOL    HW211297   4.134   3.275   4.768 -1.1544 -0.6218 -1.7053
 2813SOL    HW311298   4.228   3.378   4.711  0.9999 -2.0699 -0.8333
 2813SOL    MW411299   4.147   3.349   4.724  0.3457 -0.2742 -0.6824
 2814SOL     OW11300   2.250   2.120   4.289 -0.2250 -0.5358  0.3397
 2814SOL    HW211301   2.258   2.033   4.250 -0.4404 -1.0594  1.4441
 2814SOL    HW311302   2.166   2.153   4.257  0.0526 -0.5659 -0.4170
 2814SOL    MW411303   2.240   2.113   4.280 -0.2165 -0.6089  0.3858
 2815SOL     OW11304   2.659   4.042   3.797 -0.0822 -0.0109 -0.2006
 2815SOL    HW211305   2.738   3.988   3.807 -0.3697 -0.2581  0.8636
 2815SOL    HW311306   2.669   4.111   3.862 -1.6054 -1.1337  1.2849
 2815SOL    MW411307   2.671   4.044   3.807 -0.3209 -0.1917  0.1357
 2816SOL     OW11308   1.344   0.122   3.533  0.1705  0.2414  0.1450
 2816SOL    HW211309   1.347   0.125   3.629 -1.9760 -0.0027  0.2414
 2816SOL    HW311310   1.349   0.213   3.506  0.3481  0.3431  0.5197
 2816SOL    MW411311   1.345   0.134   3.542 -0.0892  0.2226  0.2072
 2817SOL     OW11312   0.223   4.357   3.724 -0.0364  0.4181 -0.1507
 2817SOL    HW211313   0.151   4.318   3.773 -0.0236  0.9509  0.2847
 2817SOL    HW311314   0.301   4.333   3.773  0.2098 -1.2504 -1.3089
 2817SOL    MW411315   0.224   4.348   3.737 -0.0023  0.2675 -0.2460
 2818SOL     OW11316   2.011   3.837   4.220 -0.1457  0.1264 -0.3917
 2818SOL    HW211317   2.017   3.931   4.239  0.1268 -0.0267  0.3026
 2818SOL    HW311318   2.015   3.832   4.124 -0.1254  0.8185 -0.4340
 2818SOL    MW411319   2.012   3.849   4.210 -0.1068  0.1976 -0.3061
 2819SOL     OW11320   0.741   4.404   4.454  0.7921 -0.0932 -0.0495
 2819SOL    HW211321   0.835   4.387   4.462  0.5947 -1.2744 -0.1813
 2819SOL    HW311322   0.723   4.402   4.360  0.6350  0.1614 -0.0269
 2819SOL    MW411323   0.751   4.401   4.443  0.7453 -0.2155 -0.0639
 2820SOL     OW11324   2.581   0.635   3.816 -0.1286  0.5965  1.0879
 2820SOL    HW211325   2.625   0.553   3.836 -0.8334  0.3961  1.8545
 2820SOL    HW311326   2.488   0.612   3.809 -0.5249  1.5607  2.7643
 2820SOL    MW411327   2.574   0.621   3.818 -0.2742  0.6973  1.4102
 2821SOL     OW11328   3.155   2.734   3.404 -0.0803 -0.6181 -0.6631
 2821SOL    HW211329   3.142   2.640   3.416  0.2526 -0.6500 -0.5429
 2821SOL    HW311330   3.241   2.751   3.443 -0.3678 -0.1737 -0.2141
 2821SOL    MW411331   3.165   2.724   3.411 -0.0744 -0.5636 -0.5882
 2822SOL     OW11332   1.738   1.885   3.821  0.2259 -0.3268  0.2182
 2822SOL    HW211333   1.814   1.944   3.821 -0.5303  0.6760 -0.4668
 2822SOL    HW311334   1.711   1.881   3.912  0.4634  0.1689  0.3133
 2822SOL    MW411335   1.745   1.892   3.833  0.1575 -0.1291  0.1404
 2823SOL     OW11336   2.059   0.217   4.796 -0.1126 -0.3756  0.1611
 2823SOL    HW211337   2.041   0.307   4.767 -1.6958 -0.5564  0.5328
 2823SOL    HW311338   1.977   0.188   4.836  1.4315 -0.8042  3.1333
 2823SOL    MW411339   2.046   0.225   4.798 -0.1175 -0.4560  0.6018
 2824SOL     OW11340   2.854   3.210   4.172 -0.1055 -0.5082  0.0159
 2824SOL    HW211341   2.813   3.293   4.148 -0.1413 -0.6565 -0.4424
 2824SOL    HW311342   2.851   3.158   4.092 -0.6046 -1.1620  0.4561
 2824SOL    MW411343   2.848   3.214   4.158 -0.1760 -0.6142  0.0134
 2825SOL     OW11344   3.374   4.384   3.766  0.1037 -0.8235  0.3773
 2825SOL    HW211345   3.392   4.469   3.807 -0.5235 -0.6435  0.2844
 2825SOL    HW311346   3.435   4.324   3.809 -0.5850 -0.6489  1.6317
 2825SOL    MW411347   3.385   4.388   3.777 -0.0701 -0.7777  0.5307
 2826SOL     OW11348   1.626   0.101   4.190  0.2157  0.1840  0.5068
 2826SOL    HW211349   1.534   0.123   4.205  0.1350 -0.9506  1.8059
 2826SOL    HW311350   1.668   0.186   4.173 -1.1894  0.6200 -0.8475
 2826SOL    MW411351   1.620   0.115   4.190  0.0197  0.0918  0.4992
 2827SOL     OW11352   0.699   1.551   4.447  0.0063 -0.1488 -0.0535
 2827SOL    HW211353   0.615   1.534   4.403  0.9669 -0.4766 -1.8342
 2827SOL    HW311354   0.764   1.524   4.383  1.5143  2.0723  0.5064
 2827SOL    MW411355   0.696   1.545   4.433  0.3321  0.1011 -0.2151
 2828SOL     OW11356   0.864   1.118   4.556 -0.4238  0.0615 -0.0101
 2828SOL    HW211357   0.939   1.169   4.524 -0.2836 -1.0573 -1.4846
 2828SOL    HW311358   0.788   1.174   4.540 -0.0086  0.8245  0.6478
 2828SOL    MW411359   0.864   1.132   4.550 -0.3506  0.0147 -0.1178
 2829SOL     OW11360   3.808   4.637   3.913  0.1071  0.3029  0.3975
 2829SOL    HW211361   3.748   4.681   3.853 -0.1311 -0.0751  0.3595
 2829SOL    HW311362   3.893   4.678   3.895 -0.1166  0.7614  0.3766
 2829SOL    MW411363   3.811   4.648   3.902  0.0465  0.3133  0.3898
 2830SOL     OW11364   4.441   1.471   4.551 -0.6611 -0.0437  0.1000
 2830SOL    HW211365   4.477   1.559   4.544 -1.0435  0.0480 -0.7655
 2830SOL    HW311366   4.477   1.424   4.476  0.2594 -0.8879  1.0573
 2830SOL    MW411367   4.450   1.476   4.540 -0.5898 -0.1432  0.1125
 2831SOL     OW11368   1.518   2.033   4.645  1.0325  0.2556 -0.1380
 2831SOL    HW211369   1.546   2.071   4.728 -1.0130  1.5609 -0.0192
 2831SOL    HW311370   1.588   2.056   4.583  1.1471  1.7940  0.5616
 2831SOL    MW411371   1.531   2.041   4.648  0.7777  0.6306 -0.0300
 2832SOL     OW11372   1.723   0.119   4.555  0.9316 -0.2744 -0.4074
 2832SOL    HW211373   1.637   0.078   4.557  1.5145 -1.4674  0.6443
 2832SOL    HW311374   1.759   0.095   4.469 -0.6046  1.9951 -1.7333
 2832SOL    MW411375   1.716   0.111   4.544  0.8057 -0.1323 -0.4435
 2833SOL     OW11376   0.141   0.038   4.535 -0.2279 -0.3739 -0.2982
 2833SOL    HW211377   0.153   0.065   4.444 -1.5642 -0.9275 -0.6554
 2833SOL    HW311378   0.212   0.081   4.582 -0.9741  1.9548 -1.1985
 2833SOL    MW411379   0.152   0.047   4.529 -0.5027 -0.1397 -0.4644
 2834SOL     OW11380   4.064   0.867   3.713  0.5164 -0.2874  0.2733
 2834SOL    HW211381   3.985   0.853   3.765  0.0670  0.7152 -0.1164
 2834SOL    HW311382   4.035   0.856   3.622  0.7017  0.6114  0.1016
 2834SOL    MW411383   4.050   0.864   3.708  0.4811 -0.0365  0.1993
 2835SOL     OW11384   1.860   1.914   4.283  0.3353  0.1053  0.2166
 2835SOL    HW211385   1.793   1.892   4.218  0.2559 -0.8990  0.6154
 2835SOL    HW311386   1.937   1.863   4.256  1.0884  1.5828 -0.4863
 2835SOL    MW411387   1.861   1.904   4.271  0.4241  0.1677  0.1769
 2836SOL     OW11388   4.359   4.575   4.149  0.0776  0.0667 -0.6289
 2836SOL    HW211389   4.330   4.587   4.059 -1.1667  0.7207 -0.1495
 2836SOL    HW311390   4.302   4.632   4.200 -0.5320 -1.7738  0.7977
 2836SOL    MW411391   4.348   4.584   4.144 -0.1664 -0.0896 -0.3777
 2837SOL     OW11392   2.889   3.631   4.502 -0.4430  0.3622 -0.2362
 2837SOL    HW211393   2.919   3.638   4.412 -0.2648 -0.7256 -0.2661
 2837SOL    HW311394   2.969   3.618   4.553 -0.5348  1.0393  0.0989
 2837SOL    MW411395   2.904   3.631   4.497 -0.4315  0.3083 -0.1955
 2838SOL     OW11396   0.002   1.525   4.099 -0.1274 -0.4147  0.4250
 2838SOL    HW211397  -0.094   1.532   4.101 -0.1215 -0.2588  0.1924
 2838SOL    HW311398   0.024   1.475   4.177 -0.2376  1.4916  1.7119
 2838SOL    MW411399  -0.008   1.520   4.109 -0.1411 -0.1427  0.5646
 2839SOL     OW11400   3.420   4.657   3.884 -0.3104 -0.1297 -0.0649
 2839SOL    HW211401   3.436   4.645   3.978 -0.4173 -3.2323 -0.3890
 2839SOL    HW311402   3.339   4.707   3.880  0.0965  0.6788  1.5046
 2839SOL    MW411403   3.411   4.662   3.896 -0.2706 -0.4324  0.0992
 2840SOL     OW11404   3.806   1.529   3.864  0.4638  0.1921 -0.1422
 2840SOL    HW211405   3.729   1.572   3.826  0.8747  0.1607 -1.0375
 2840SOL    HW311406   3.809   1.559   3.955 -0.2142  0.7283 -0.2942
 2840SOL    MW411407   3.796   1.539   3.871  0.4284  0.2587 -0.2804
 2841SOL     OW11408   0.216   0.113   4.278  0.5228  0.0070  0.1070
 2841SOL    HW211409   0.186   0.052   4.211  0.4746 -0.9806  1.0077
 2841SOL    HW311410   0.312   0.104   4.277  0.5078 -0.1725  0.3259
 2841SOL    MW411411   0.225   0.103   4.269  0.5145 -0.1470  0.2546
 2842SOL     OW11412   2.337   4.293   4.565 -0.1459  0.1347  0.9782
 2842SOL    HW211413   2.395   4.354   4.611  0.7537 -0.5897  0.8389
 2842SOL    HW311414   2.394   4.247   4.503 -0.8786 -0.5528  0.7917
 2842SOL    MW411415   2.352   4.295   4.563 -0.1237 -0.0525  0.9351
 2843SOL     OW11416   1.400   0.686   4.604 -0.0056  0.4137  0.1623
 2843SOL    HW211417   1.438   0.774   4.612  0.1367  0.5318 -1.6082
 2843SOL    HW311418   1.305   0.701   4.609  0.0867  0.3818  2.2674
 2843SOL    MW411419   1.392   0.700   4.606  0.0254  0.4252  0.2065
 2844SOL     OW11420   2.472   0.129   4.587 -0.5192  0.1398  0.4460
 2844SOL    HW211421   2.487   0.035   4.600 -0.2956  0.3423  1.7592
 2844SOL    HW311422   2.457   0.138   4.493  0.4833 -1.0665  0.1478
 2844SOL    MW411423   2.472   0.118   4.577 -0.3572  0.0074  0.5803
 2845SOL     OW11424   1.114   2.086   3.688 -0.4079 -0.4601  0.3261
 2845SOL    HW211425   1.124   2.076   3.594 -0.5280  0.1228  0.2496
 2845SOL    HW311426   1.034   2.037   3.709 -0.6581 -0.1715  0.0514
 2845SOL    MW411427   1.105   2.078   3.679 -0.4567 -0.3452  0.2801
 2846SOL     OW11428   3.345   3.686   4.479  0.8234 -0.2213 -0.3740
 2846SOL    HW211429   3.373   3.667   4.390 -0.9887 -1.2795 -0.7394
 2846SOL    HW311430   3.276   3.623   4.497  1.0173  0.1019  1.7200
 2846SOL    MW411431   3.340   3.675   4.470  0.6099 -0.3178 -0.1464
 2847SOL     OW11432   3.856   0.508   3.801  0.3722 -0.1076  0.0462
 2847SOL    HW211433   3.776   0.459   3.818  0.9904 -0.7452  1.1532
 2847SOL    HW311434   3.830   0.600   3.810 -0.5708 -0.2441 -1.1254
 2847SOL    MW411435   3.842   0.514   3.804  0.3293 -0.2097  0.0374
 2848SOL     OW11436   2.004   2.653   4.280 -0.0583 -0.0914 -0.4341
 2848SOL    HW211437   2.090   2.639   4.241  1.0220 -0.9282  2.1606
 2848SOL    HW311438   1.976   2.567   4.309 -0.7587  0.5347  0.7813
 2848SOL    MW411439   2.011   2.640   4.278 -0.0081 -0.1190  0.0691
 2849SOL     OW11440   2.540   2.021   4.531  0.2159 -0.2718  0.2546
 2849SOL    HW211441   2.543   1.961   4.457  0.5039  0.4157 -0.2928
 2849SOL    HW311442   2.571   1.969   4.605  2.1625 -0.3073 -0.5590
 2849SOL    MW411443   2.545   2.006   4.531  0.5105 -0.1857  0.0749
 2850SOL     OW11444   4.396   3.633   4.498 -0.3621  0.0034  0.4274
 2850SOL    HW211445   4.307   3.659   4.475 -0.2999  1.1437  1.4458
 2850SOL    HW311446   4.444   3.716   4.503  1.2133 -0.7175 -1.9761
 2850SOL    MW411447   4.390   3.648   4.496 -0.1459  0.0587  0.2446
 2851SOL     OW11448   3.161   0.897   3.808 -0.1785 -0.4667  0.2649
 2851SOL    HW211449   3.083   0.849   3.835  0.3000 -0.9879  0.7254
 2851SOL    HW311450   3.233   0.853   3.853  0.5715 -1.0061 -1.4377
 2851SOL    MW411451   3.160   0.885   3.818 -0.0167 -0.6066  0.1011
 2852SOL     OW11452   2.871   1.525   3.845  0.0686 -0.1723  0.2866
 2852SOL    HW211453   2.784   1.562   3.827 -0.0859  0.2794  1.9255
 2852SOL    HW311454   2.863   1.432   3.822 -0.5010  0.1003 -0.6641
 2852SOL    MW411455   2.858   1.518   3.839 -0.0269 -0.0769  0.3774
 2853SOL     OW11456   2.661   3.467   3.789 -0.2166 -0.0417  0.3842
 2853SOL    HW211457   2.683   3.464   3.882 -1.6431  0.1532  0.7477
 2853SOL    HW311458   2.662   3.375   3.761 -0.4449 -0.1600  0.7579
 2853SOL    MW411459   2.664   3.454   3.797 -0.4351 -0.0315  0.4814
 2854SOL     OW11460   3.332   2.037   3.765 -0.6309 -0.1696 -0.4240
 2854SOL    HW211461   3.418   2.011   3.798 -1.0691 -0.7729  0.2597
 2854SOL    HW311462   3.342   2.034   3.670  0.6169  1.4979 -0.3805
 2854SOL    MW411463   3.345   2.033   3.757 -0.5240 -0.0293 -0.3283
 2855SOL     OW11464   0.955   3.199   4.787 -0.0161 -0.8142  0.0894
 2855SOL    HW211465   0.966   3.152   4.704 -0.3322  0.1464 -0.5025
 2855SOL    HW311466   0.979   3.135   4.854 -0.4659 -1.8292 -0.7026
 2855SOL    MW411467   0.960   3.184   4.785 -0.1171 -0.8209 -0.0935
 2856SOL     OW11468   1.823   0.896   3.530 -0.0693 -0.3250  0.0633
 2856SOL    HW211469   1.898   0.853   3.488 -0.4077 -0.9621  0.1086
 2856SOL    HW311470   1.841   0.888   3.624  1.5373  2.5892  0.0687
 2856SOL    MW411471   1.835   0.889   3.537  0.0980 -0.0245  0.0699
 2857SOL     OW11472   0.999   1.742   4.482  0.1153 -0.3342  0.1422
 2857SOL    HW211473   0.913   1.783   4.487 -0.0126 -0.6972  0.8584
 2857SOL    HW311474   1.051   1.786   4.548  0.5509  0.0550 -0.4618
 2857SOL    MW411475   0.994   1.753   4.491  0.1559 -0.3308  0.1569
 2858SOL     OW11476   4.289   3.881   4.113 -0.0795  0.3857  0.1066
 2858SOL    HW211477   4.201   3.896   4.147 -0.7761 -1.1936 -0.9572
 2858SOL    HW311478   4.306   3.788   4.131  0.9420  0.4153 -0.6726
 2858SOL    MW411479   4.280   3.871   4.120 -0.0367  0.1812 -0.1369
 2859SOL     OW11480   2.925   0.779   3.898 -0.0229  0.1760 -0.3411
 2859SOL    HW211481   2.939   0.686   3.880 -0.3005 -0.1234  0.9283
 2859SOL    HW311482   2.857   0.805   3.835 -0.2096 -0.5640 -0.4552
 2859SOL    MW411483   2.918   0.770   3.887 -0.0842  0.0389 -0.1886
 2860SOL     OW11484   3.466   3.379   4.768 -0.4802  0.0976  0.2804
 2860SOL    HW211485   3.516   3.425   4.701 -1.7834 -0.2096 -0.9170
 2860SOL    HW311486   3.401   3.328   4.720 -2.8479  1.5409  1.8386
 2860SOL    MW411487   3.464   3.378   4.753 -0.9646  0.2475  0.3281
 2861SOL     OW11488   0.984   0.097   4.476 -0.2621  0.2300  0.3130
 2861SOL    HW211489   1.047   0.037   4.517  0.5604  1.1836  0.4745
 2861SOL    HW311490   0.913   0.105   4.541 -0.1266 -0.1562  0.5130
 2861SOL    MW411491   0.983   0.090   4.490 -0.1357  0.3049  0.3610
 2862SOL     OW11492   0.220   4.210   4.483  0.0003 -0.0535 -0.0440
 2862SOL    HW211493   0.255   4.297   4.501  1.0135 -0.2077 -1.2354
 2862SOL    HW311494   0.258   4.185   4.399 -2.4592 -0.4970 -1.0590
 2862SOL    MW411495   0.229   4.218   4.474 -0.1905 -0.1326 -0.3347
 2863SOL     OW11496   1.693   1.518   4.302  0.5593 -0.0594 -0.1137
 2863SOL    HW211497   1.616   1.574   4.291 -1.1114 -2.1735  0.3481
 2863SOL    HW311498   1.745   1.533   4.224 -0.5741  1.0097 -0.6962
 2863SOL    MW411499   1.689   1.528   4.290  0.1892 -0.1972 -0.1302
 2864SOL     OW11500   1.171   1.122   4.214  0.0436 -0.1172  0.4179
 2864SOL    HW211501   1.228   1.182   4.166  0.3234 -0.1504  0.7099
 2864SOL    HW311502   1.173   1.152   4.304 -1.1140  0.4242  0.2759
 2864SOL    MW411503   1.179   1.134   4.219 -0.0722 -0.0502  0.4377
 2865SOL     OW11504   2.388   3.030   4.108  0.4357 -0.0165  0.0136
 2865SOL    HW211505   2.334   2.960   4.146 -0.4536  0.0381 -1.1258
 2865SOL    HW311506   2.376   3.104   4.168 -0.6011 -0.0732 -0.1146
 2865SOL    MW411507   2.379   3.031   4.121  0.1814 -0.0167 -0.1535
 2866SOL     OW11508   2.699   2.416   3.758  0.5220 -0.2698 -0.8288
 2866SOL    HW211509   2.659   2.329   3.770 -1.9270  0.9322  0.1316
 2866SOL    HW311510   2.679   2.439   3.668 -1.6583  0.6137 -0.1593
 2866SOL    MW411511   2.691   2.408   3.748 -0.0885  0.0055 -0.6139
 2867SOL     OW11512   0.200   2.846   3.747  0.0909 -0.5089 -0.4292
 2867SOL    HW211513   0.286   2.822   3.781 -0.1816 -0.1341  0.5317
 2867SOL    HW311514   0.206   2.829   3.653  1.6853  0.8903 -0.5959
 2867SOL    MW411515   0.212   2.841   3.739  0.2653 -0.2747 -0.3242
 2868SOL     OW11516   2.749   3.467   4.065  0.1675 -0.0260 -0.2877
 2868SOL    HW211517   2.797   3.538   4.106 -0.0375  1.1222 -1.9867
 2868SOL    HW311518   2.664   3.467   4.108  0.5537  0.0165  0.4877
 2868SOL    MW411519   2.744   3.476   4.076  0.1917  0.1311 -0.4091
 2869SOL     OW11520   1.491   1.609   4.068 -0.1014  0.0824 -0.3610
 2869SOL    HW211521   1.508   1.586   3.977  1.9006 -0.0592  0.0324
 2869SOL    HW311522   1.399   1.588   4.081 -0.3128 -0.2510 -2.2386
 2869SOL    MW411523   1.481   1.604   4.058  0.1349  0.0197 -0.5574
 2870SOL     OW11524   1.828   0.862   4.487 -0.0403 -0.1654  0.4757
 2870SOL    HW211525   1.817   0.898   4.399  0.8756 -0.3241  0.2956
 2870SOL    HW311526   1.739   0.856   4.521 -0.2554  1.7923  0.3103
 2870SOL    MW411527   1.815   0.866   4.480  0.0522  0.0720  0.4301
 2871SOL     OW11528   2.346   0.967   3.790  0.2805 -0.2757  0.0906
 2871SOL    HW211529   2.252   0.980   3.800  0.1800  0.9772 -2.1955
 2871SOL    HW311530   2.384   1.055   3.801  1.0150 -0.4689 -0.8674
 2871SOL    MW411531   2.339   0.980   3.793  0.3643 -0.1358 -0.3374
 2872SOL     OW11532   1.196   3.847   4.456  0.5548 -0.4237  0.0589
 2872SOL    HW211533   1.126   3.834   4.393  0.1293 -1.7618  0.7952
 2872SOL    HW311534   1.216   3.759   4.489  2.7546 -0.1034 -0.3276
 2872SOL    MW411535   1.189   3.834   4.452  0.7889 -0.5581  0.1049
 2873SOL     OW11536   0.666   1.288   3.741 -0.3832  0.2522 -0.2306
 2873SOL    HW211537   0.681   1.380   3.763  1.0920 -0.0739  0.1561
 2873SOL    HW311538   0.679   1.283   3.647 -0.0297  0.3568 -0.1887
 2873SOL    MW411539   0.669   1.299   3.732 -0.1420  0.2230 -0.1740
 2874SOL     OW11540   3.284   0.669   4.476 -0.1101  0.7809 -0.2685
 2874SOL    HW211541   3.193   0.678   4.507  0.4091 -0.5121  1.7459
 2874SOL    HW311542   3.299   0.574   4.475  1.9100  1.0334  1.6063
 2874SOL    MW411543   3.274   0.657   4.480  0.2248  0.6436  0.2437
 2875SOL     OW11544   1.298   3.101   4.349  0.2018  0.1500 -0.1815
 2875SOL    HW211545   1.234   3.154   4.300 -0.0628 -0.7582 -0.8334
 2875SOL    HW311546   1.295   3.136   4.438 -0.8620  0.4342 -0.3239
 2875SOL    MW411547   1.289   3.113   4.354  0.0265  0.0679 -0.2866
 2876SOL     OW11548   3.701   2.514   4.510  0.1953 -0.4592 -0.1905
 2876SOL    HW211549   3.676   2.466   4.431  1.0381  1.2663 -1.5721
 2876SOL    HW311550   3.618   2.538   4.551 -0.2578 -1.3279 -0.5915
 2876SOL    MW411551   3.687   2.511   4.505  0.2465 -0.3462 -0.4263
 2877SOL     OW11552   0.902   0.892   3.473 -0.3041 -0.0283  0.0209
 2877SOL    HW211553   0.888   0.978   3.434  0.5844  0.0556 -0.1098
 2877SOL    HW311554   0.830   0.839   3.439  0.4091  0.0612 -1.6865
 2877SOL    MW411555   0.890   0.896   3.464 -0.0928 -0.0054 -0.2215
 2878SOL     OW11556   3.131   3.956   3.793 -0.1377 -0.1634 -0.4849
 2878SOL    HW211557   3.116   4.051   3.794 -0.4951 -0.2111 -1.4577
 2878SOL    HW311558   3.043   3.918   3.796 -0.0143 -0.4637 -0.6678
 2878SOL    MW411559   3.118   3.963   3.794 -0.1686 -0.2096 -0.6373
 2879SOL     OW11560   0.071   0.671   4.281 -0.2222  0.3803  0.3933
 2879SOL    HW211561   0.058   0.640   4.371 -2.3033  0.3507  0.1050
 2879SOL    HW311562  -0.005   0.638   4.233 -0.5899  2.7789 -0.7553
 2879SOL    MW411563   0.059   0.662   4.287 -0.5453  0.6928  0.2036
 2880SOL     OW11564   1.992   1.536   3.856 -0.2307  0.3843  0.3470
 2880SOL    HW211565   1.922   1.556   3.794  1.2269  0.0281 -1.4343
 2880SOL    HW311566   2.010   1.443   3.843  0.0255  0.2838  1.3743
 2880SOL    MW411567   1.985   1.526   3.846 -0.0045  0.3241  0.2472
 2881SOL     OW11568   0.236   3.590   3.752  0.2171 -0.4452  0.1167
 2881SOL    HW211569   0.247   3.674   3.797 -0.8188  0.0712 -0.5831
 2881SOL    HW311570   0.162   3.548   3.796  0.8633 -1.0884  0.5993
 2881SOL    MW411571   0.228   3.596   3.763  0.1657 -0.4618  0.0882
 2882SOL     OW11572   0.048   1.347   4.322  0.0811 -0.2674 -0.4501
 2882SOL    HW211573   0.139   1.342   4.290 -0.1547  0.7369 -1.2908
 2882SOL    HW311574   0.006   1.268   4.287  0.6622 -0.8157  0.0686
 2882SOL    MW411575   0.055   1.336   4.313  0.1267 -0.2072 -0.4930
 2883SOL     OW11576   3.804   0.147   4.294 -0.1406  0.4964  0.4359
 2883SOL    HW211577   3.718   0.182   4.317 -0.9420 -0.5212 -0.8822
 2883SOL    HW311578   3.843   0.214   4.237  0.2644  1.3009  1.6560
 2883SOL    MW411579   3.798   0.161   4.289 -0.1926  0.4683  0.4230
 2884SOL     OW11580   0.261   3.567   4.225 -0.3119  0.5407  0.0419
 2884SOL    HW211581   0.339   3.514   4.204 -0.3407  0.7010 -0.4854
 2884SOL    HW311582   0.276   3.598   4.314  0.0094  0.1811  0.1149
 2884SOL    MW411583   0.273   3.564   4.234 -0.2733  0.5145 -0.0181
 2885NA      NA11584   3.133   2.714   0.627 -0.1567 -0.3792 -0.1640
   4.49070   4.66690  10.00000
