Gromacs Runs On Most of All Computer Systems
   62
    1DC     O5'    1  -0.023  -0.097   0.093
    1DC     C5'    2  -0.054   0.037   0.059
    1DC     H5'    3   0.020   0.075  -0.014
    1DC    H5''    4  -0.052   0.100   0.150
    1DC     C4'    5  -0.192   0.043  -0.003
    1DC     H4'    6  -0.220   0.148  -0.022
    1DC     O4'    7  -0.191  -0.031  -0.128
    1DC     C3'    8  -0.291  -0.031   0.087
    1DC     H3'    9  -0.240  -0.117   0.136
    1DC     O3'   10  -0.340   0.058   0.186
    1DC     C2'   11  -0.403  -0.067  -0.010
    1DC     C1'   12  -0.327  -0.083  -0.141
    1DC     H1'   13  -0.374  -0.019  -0.219
    1DC     H2'   14  -0.447  -0.165   0.019
    1DC     H2'   15  -0.493   0.042  -0.020
    1DC      N1   17  -0.324  -0.225  -0.180
    1DC      C2   18  -0.396  -0.282  -0.283
    1DC      O2   19  -0.471  -0.214  -0.353
    1DC      N3   20  -0.382  -0.415  -0.305
    1DC      C4   21  -0.300  -0.489  -0.229
    1DC      N4   22  -0.289  -0.620  -0.254
    1DC     H41   23  -0.341  -0.663  -0.329
    1DC     H42   24  -0.227  -0.677  -0.197
    1DC      C5   25  -0.225  -0.431  -0.122
    1DC      H5   26  -0.160  -0.493  -0.063
    1DC      C6   27  -0.241  -0.298  -0.101
    1DC      H6   28  -0.186  -0.250  -0.022
    1DC     H5T   29  -0.043  -0.132   0.181
    2DG       P   30  -0.314   0.026   0.342
    2DG     OP1   31  -0.354   0.145   0.420
    2DG     OP2   32  -0.176  -0.028   0.355
    2DG     O5'   33  -0.417  -0.093   0.375
    2DG     C5'   34  -0.554  -0.065   0.405
    2DG    H5'1   35  -0.598  -0.007   0.321
    2DG    H5'2   36  -0.560  -0.006   0.499
    2DG     C4'   37  -0.629  -0.195   0.421
    2DG     H4'   38  -0.735  -0.173   0.448
    2DG     O4'   39  -0.625  -0.270   0.297
    2DG     C3'   40  -0.558  -0.282   0.524
    2DG     H3'   41  -0.449  -0.262   0.520
    2DG     O3'   42  -0.608  -0.253   0.654
    2DG     C2'   43  -0.600  -0.423   0.483
    2DG     C1'   44  -0.616  -0.408   0.332
    2DG     H1'   45  -0.710  -0.456   0.299
    2DG     H2'   46  -0.518  -0.495   0.505
    2DG     H2'   47  -0.726  -0.452   0.540
    2DG      N9   49  -0.498  -0.465   0.265
    2DG      C8   50  -0.368  -0.418   0.265
    2DG      H8   51  -0.338  -0.329   0.318
    2DG      N7   52  -0.286  -0.492   0.195
    2DG      C5   53  -0.367  -0.594   0.146
    2DG      C4   54  -0.496  -0.578   0.188
    2DG      C6   55  -0.339  -0.705   0.064
    2DG      N3   56  -0.602  -0.658   0.160
    2DG      C2   57  -0.583  -0.764   0.083
    2DG      N1   58  -0.450  -0.785   0.037
    2DG      H1   59  -0.434  -0.866  -0.021
    2DG      N2   60  -0.686  -0.845   0.054
    2DG     H21   61  -0.778  -0.824   0.090
    2DG     H22   62  -0.672  -0.926  -0.004
    2DG      O6   63  -0.227  -0.729   0.020
    2DG     H3T   64  -0.577  -0.175   0.700
   0.00000   0.00000   0.00000
