Gromacs Runs On Most of All Computer Systems
   62
    1DC     O5'    1  -0.023  -0.097   0.093
    1DC     H5T    2   0.068  -0.101   0.134
    1DC     C5'    3  -0.054   0.037   0.059
    1DC    H5'1    4   0.015   0.069  -0.005
    1DC    H5'2    5  -0.050   0.092   0.143
    1DC     C4'    6  -0.192   0.043  -0.003
    1DC     H4'    7  -0.217   0.138  -0.020
    1DC     O4'    8  -0.191  -0.031  -0.128
    1DC     C1'    9  -0.327  -0.083  -0.141
    1DC     H1'   10  -0.371  -0.031  -0.214
    1DC      N1   11  -0.324  -0.225  -0.180
    1DC      C6   12  -0.241  -0.298  -0.101
    1DC      H6   13  -0.191  -0.253  -0.027
    1DC      C5   14  -0.225  -0.431  -0.122
    1DC      H5   15  -0.164  -0.486  -0.065
    1DC      C4   16  -0.300  -0.489  -0.229
    1DC      N4   17  -0.289  -0.620  -0.254
    1DC     H41   18  -0.229  -0.677  -0.198
    1DC     H42   19  -0.341  -0.661  -0.329
    1DC      N3   20  -0.382  -0.415  -0.305
    1DC      C2   21  -0.396  -0.282  -0.283
    1DC      O2   22  -0.471  -0.214  -0.353
    1DC     C3'   23  -0.291  -0.031   0.087
    1DC     H3'   24  -0.254  -0.107   0.140
    1DC     C2'   25  -0.403  -0.067  -0.010
    1DC    H2'1   26  -0.448  -0.152   0.016
    1DC    H2'2   27  -0.471   0.006  -0.016
    1DC     O3'   28  -0.340   0.058   0.186
    2DG       P   29  -0.314   0.026   0.342
    2DG     O1P   30  -0.354   0.145   0.420
    2DG     O2P   31  -0.176  -0.028   0.355
    2DG     O5'   32  -0.417  -0.093   0.375
    2DG     C5'   33  -0.554  -0.065   0.405
    2DG    H5'1   34  -0.592  -0.011   0.330
    2DG    H5'2   35  -0.558  -0.012   0.490
    2DG     C4'   36  -0.629  -0.195   0.421
    2DG     H4'   37  -0.724  -0.175   0.444
    2DG     O4'   38  -0.625  -0.270   0.297
    2DG     C1'   39  -0.616  -0.408   0.332
    2DG     H1'   40  -0.700  -0.452   0.299
    2DG      N9   41  -0.498  -0.465   0.265
    2DG      C8   42  -0.368  -0.418   0.265
    2DG      H8   43  -0.339  -0.335   0.314
    2DG      N7   44  -0.286  -0.492   0.195
    2DG      C5   45  -0.367  -0.594   0.146
    2DG      C6   46  -0.339  -0.705   0.064
    2DG      O6   47  -0.227  -0.729   0.020
    2DG      N1   48  -0.450  -0.785   0.037
    2DG      H1   49  -0.435  -0.865  -0.021
    2DG      C2   50  -0.583  -0.764   0.083
    2DG      N2   51  -0.686  -0.845   0.054
    2DG     H21   52  -0.672  -0.926  -0.003
    2DG     H22   53  -0.777  -0.825   0.090
    2DG      N3   54  -0.602  -0.658   0.160
    2DG      C4   55  -0.496  -0.578   0.188
    2DG     C3'   56  -0.558  -0.282   0.524
    2DG     H3'   57  -0.460  -0.267   0.532
    2DG     C2'   58  -0.600  -0.423   0.483
    2DG    H2'1   59  -0.529  -0.490   0.506
    2DG    H2'2   60  -0.686  -0.449   0.526
    2DG     O3'   61  -0.608  -0.253   0.654
    2DG     H3T   62  -0.561  -0.310   0.721
   0.84538   1.07077   1.07427
