
Gromacs Runs On Most of All Computer Systems in water
11583
    1DC     O5'    1   2.404   2.484   5.154 -0.2974 -0.2687  0.3601
    1DC     H5T    2   2.327   2.511   5.103 -0.2551  0.9786  0.9187
    1DC     C5'    3   2.405   2.343   5.166 -0.1330  0.6239  0.5565
    1DC    H5'1    4   2.322   2.294   5.215 -1.2469  0.8800 -1.0444
    1DC    H5'2    5   2.490   2.311   5.227 -0.5024 -1.9291 -0.2264
    1DC     C4'    6   2.409   2.272   5.031 -0.2352  0.6775  0.0137
    1DC     H4'    7   2.489   2.312   4.969  0.0124 -1.4903 -1.1314
    1DC     O4'    8   2.441   2.133   5.052  0.1521 -0.3291 -0.0262
    1DC     C1'    9   2.401   2.071   4.933  0.0452  0.0598  0.5246
    1DC     H1'   10   2.453   2.105   4.844  0.7466  0.1188  0.9604
    1DC      N1   11   2.414   1.923   4.944  0.4708 -0.3830  0.5176
    1DC      C6   12   2.340   1.852   5.038  0.0966 -0.0732  0.0982
    1DC      H6   13   2.291   1.889   5.128 -1.3519 -1.5792 -0.0487
    1DC      C5   14   2.332   1.712   5.027 -0.5994  0.1726 -0.2165
    1DC      H5   15   2.279   1.658   5.103  1.9620  0.0400  1.5317
    1DC      C4   16   2.403   1.647   4.922 -0.4230  0.2409  0.1422
    1DC      N4   17   2.408   1.514   4.918 -0.4044 -0.1303 -0.1811
    1DC     H41   18   2.343   1.469   4.981 -0.9707  0.2143 -0.5152
    1DC     H42   19   2.461   1.478   4.840 -0.1354  3.2480 -1.6149
    1DC      N3   20   2.474   1.713   4.835  0.2636 -0.3382 -0.9894
    1DC      C2   21   2.483   1.848   4.845  0.3850 -0.1080 -0.8179
    1DC      O2   22   2.548   1.906   4.758 -0.2196  0.4269 -0.4120
    1DC     C3'   23   2.268   2.266   4.959  0.4184 -0.6813  0.0910
    1DC     H3'   24   2.185   2.297   5.021 -0.3528 -1.2933 -0.6302
    1DC     C2'   25   2.258   2.115   4.923  0.0157 -0.4264  0.0923
    1DC    H2'1   26   2.204   2.066   5.004  0.3316  0.8384  1.0743
    1DC    H2'2   27   2.211   2.103   4.825 -1.9797 -1.7393  1.1689
    1DC     O3'   28   2.281   2.339   4.839 -0.0599  0.5806  0.0196
    2DG       P   29   2.236   2.490   4.833  0.0960  0.0843 -0.0160
    2DG     O1P   30   2.320   2.553   4.729 -0.2114 -0.2608 -0.1296
    2DG     O2P   31   2.220   2.554   4.965  0.0751  0.0490 -0.1505
    2DG     O5'   32   2.084   2.478   4.772 -0.0357  0.2548  0.3452
    2DG     C5'   33   2.001   2.586   4.754  0.2910 -0.2820 -0.1905
    2DG    H5'1   34   1.982   2.590   4.647  2.3281  1.0754 -0.5189
    2DG    H5'2   35   2.046   2.677   4.792 -0.0609 -0.8010  1.4862
    2DG     C4'   36   1.871   2.556   4.819 -0.3858  0.3682 -0.0659
    2DG     H4'   37   1.802   2.639   4.807 -0.6364  0.0117 -1.2018
    2DG     O4'   38   1.804   2.441   4.768  0.2582 -0.0834  0.1135
    2DG     C1'   39   1.736   2.359   4.867 -0.0008  0.0403  0.1255
    2DG     H1'   40   1.629   2.346   4.854 -0.1912  0.8417  0.7932
    2DG      N9   41   1.795   2.221   4.870  0.4425  0.1182  0.1050
    2DG      C8   42   1.925   2.183   4.868  0.5111  0.2971 -0.3915
    2DG      H8   43   2.005   2.256   4.864 -1.3767  2.4797  0.7693
    2DG      N7   44   1.945   2.055   4.851 -0.0501  0.2580  0.2158
    2DG      C5   45   1.815   2.001   4.854 -0.1528  0.1565  0.1833
    2DG      C6   46   1.770   1.865   4.842 -0.4053  0.6234 -0.4368
    2DG      O6   47   1.836   1.759   4.828 -0.3461  0.2220  0.0940
    2DG      N1   48   1.632   1.858   4.828 -0.1257 -0.0230 -0.6857
    2DG      H1   49   1.592   1.768   4.806 -0.5091  0.4233 -1.8504
    2DG      C2   50   1.545   1.965   4.829 -0.2310  0.7786 -0.6910
    2DG      N2   51   1.416   1.946   4.826  0.3414  0.1375  0.1368
    2DG     H21   52   1.377   1.861   4.788 -0.7330 -0.0975  1.7033
    2DG     H22   53   1.360   2.030   4.837 -0.3344 -0.0273 -1.8594
    2DG      N3   54   1.585   2.093   4.846 -0.1204 -0.4071  0.3144
    2DG      C4   55   1.723   2.104   4.857  0.3446  0.1447  0.4172
    2DG     C3'   56   1.876   2.529   4.970 -0.2860 -0.3735  0.2767
    2DG     H3'   57   1.967   2.476   4.995 -0.5185 -0.5221  0.8356
    2DG     C2'   58   1.758   2.435   4.997 -0.0239 -0.1372  0.6920
    2DG    H2'1   59   1.788   2.369   5.079  2.0343  0.3979  0.3931
    2DG    H2'2   60   1.670   2.497   5.014 -0.0530 -0.3514  1.3569
    2DG     O3'   61   1.878   2.647   5.050  0.1968  0.1196  0.3218
    2DG     H3T   62   1.966   2.684   5.058  0.3167  0.1463 -1.0185
    5SOL     OW   63   0.426   0.181   0.504 -0.6975  0.0557 -0.0622
    5SOL    HW2   64   0.495   0.122   0.474 -0.0235  0.7636  0.0875
    5SOL    HW3   65   0.437   0.260   0.452 -1.7573 -0.0295 -0.4387
    5SOL    MW4   66   0.436   0.183   0.493 -0.7484  0.1379 -0.0921
    6SOL     OW   67   3.532   0.354   0.381  0.6738 -0.3275  0.2717
    6SOL    HW2   68   3.537   0.348   0.286  2.2652  0.7138  0.2851
    6SOL    HW3   69   3.544   0.264   0.412  1.4455 -0.4744 -0.4544
    6SOL    MW4   70   3.534   0.341   0.373  0.9856 -0.2095  0.1777
    7SOL     OW   71   3.569   0.080   0.453 -0.5397 -0.3066  0.0279
    7SOL    HW2   72   3.638   0.015   0.464 -1.1481 -1.1946 -1.2070
    7SOL    HW3   73   3.494   0.030   0.421 -0.8362  1.0735 -1.5405
    7SOL    MW4   74   3.568   0.065   0.450 -0.6590 -0.2417 -0.3420
    8SOL     OW   75   0.032   1.624   0.406  0.2070  0.1284  0.7826
    8SOL    HW2   76   0.016   1.625   0.500 -1.1697  0.2785  0.5629
    8SOL    HW3   77  -0.014   1.701   0.373  0.8167  0.1703  0.0101
    8SOL    MW4   78   0.024   1.634   0.414  0.1057  0.1537  0.6517
    9SOL     OW   79   1.205   0.951   0.161 -0.0571 -0.0406 -0.2041
    9SOL    HW2   80   1.262   0.956   0.237 -0.7287  0.8576  0.2480
    9SOL    HW3   81   1.259   0.982   0.089  1.3829 -3.2088 -0.5980
    9SOL    MW4   82   1.220   0.956   0.161  0.0442 -0.3401 -0.1964
   10SOL     OW   83   0.213   0.050   0.348 -0.3203  0.5606 -0.0353
   10SOL    HW2   84   0.276   0.097   0.403  0.5069  0.3929 -0.8332
   10SOL    HW3   85   0.253   0.048   0.261 -0.4417 -1.4507 -0.0644
   10SOL    MW4   86   0.226   0.056   0.344 -0.2272  0.2731 -0.1444
   11SOL     OW   87   0.442   1.082   0.401  0.3222 -0.4893  0.3167
   11SOL    HW2   88   0.379   1.150   0.422 -0.2558 -1.2610  1.1100
   11SOL    HW3   89   0.418   1.054   0.312  1.7509  1.6374 -0.7828
   11SOL    MW4   90   0.430   1.087   0.392  0.4344 -0.3105  0.2763
   12SOL     OW   91   0.798   0.791   0.363  0.2620 -0.2602 -0.4723
   12SOL    HW2   92   0.806   0.875   0.408 -0.1987  0.4728 -1.7305
   12SOL    HW3   93   0.888   0.760   0.354  0.2811 -1.0202  2.0249
   12SOL    MW4   94   0.811   0.798   0.368  0.2037 -0.2638 -0.3088
   13SOL     OW   95   0.972   1.429   0.217  0.3423  0.3857 -0.1433
   13SOL    HW2   96   1.028   1.496   0.255 -0.9152  0.3900  1.7812
   13SOL    HW3   97   1.012   1.346   0.243 -1.2959  0.3756  2.4801
   13SOL    MW4   98   0.984   1.427   0.225 -0.0397  0.3849  0.4567
   14SOL     OW   99   0.095   1.362   0.359 -0.4748  0.1469  0.3746
   14SOL    HW2  100   0.063   1.452   0.348  0.4333  0.4037 -0.2215
   14SOL    HW3  101   0.016   1.309   0.364 -1.0087  0.8254 -0.6921
   14SOL    MW4  102   0.080   1.367   0.358 -0.4255  0.2702  0.1552
   15SOL     OW  103   4.332   1.217   0.415 -0.1618  0.2995  0.1070
   15SOL    HW2  104   4.252   1.267   0.404 -0.5289 -0.4008 -0.4259
   15SOL    HW3  105   4.329   1.187   0.506 -0.5661  0.1770  0.0554
   15SOL    MW4  106   4.321   1.220   0.426 -0.2637  0.1909  0.0299
   16SOL     OW  107   0.158   1.944   0.465  0.1174 -0.0719 -0.2354
   16SOL    HW2  108   0.198   1.857   0.469  0.9543  0.2971 -0.4423
   16SOL    HW3  109   0.227   2.000   0.430 -0.7799  0.4730 -1.1559
   16SOL    MW4  110   0.173   1.940   0.461  0.1094  0.0488 -0.3842
   17SOL     OW  111   0.284   2.812   0.418  0.2598  0.4552 -0.2724
   17SOL    HW2  112   0.195   2.843   0.399 -0.0598 -0.6621 -0.6438
   17SOL    HW3  113   0.341   2.882   0.386 -0.5164  1.7366  1.0788
   17SOL    MW4  114   0.280   2.826   0.412  0.1152  0.4771 -0.1431
   18SOL     OW  115   4.474   2.359   0.422  0.1130 -0.3586 -0.2843
   18SOL    HW2  116   4.419   2.428   0.385 -0.1091 -0.9363 -1.0482
   18SOL    HW3  117   4.489   2.386   0.513  0.6954  1.0961 -0.7982
   18SOL    MW4  118   4.469   2.372   0.429  0.1612 -0.2429 -0.4529
   19SOL     OW  119   3.975   2.893   0.311  0.3050  0.0416 -0.0389
   19SOL    HW2  120   3.991   2.799   0.319  0.3398  0.0888  0.4346
   19SOL    HW3  121   4.062   2.933   0.312  0.1537  0.3783  3.5408
   19SOL    MW4  122   3.988   2.886   0.312  0.2897  0.0923  0.4959
   20SOL     OW  123   0.518   3.268   0.456  0.1095  0.1418  0.0862
   20SOL    HW2  124   0.492   3.247   0.546  1.1639  0.3484  0.4502
   20SOL    HW3  125   0.613   3.280   0.461  0.1816  0.0995 -1.0687
   20SOL    MW4  126   0.527   3.267   0.468  0.2581  0.1636 -0.0181
   21SOL     OW  127   0.804   3.240   0.550 -0.3963  0.5519  0.1805
   21SOL    HW2  128   0.839   3.219   0.637  1.1235  1.0343 -0.2984
   21SOL    HW3  129   0.879   3.273   0.501 -0.8072 -1.4989 -1.9344
   21SOL    MW4  130   0.818   3.242   0.555 -0.2500  0.3450 -0.1618
   22SOL     OW  131   1.077   3.078   0.277  0.1883 -0.1402 -0.1990
   22SOL    HW2  132   1.038   2.991   0.276  0.3929 -0.2194 -1.0573
   22SOL    HW3  133   1.171   3.063   0.273  0.2730  0.0954  0.6541
   22SOL    MW4  134   1.084   3.064   0.277  0.2263 -0.1194 -0.1997
   23SOL     OW  135   4.146   3.987   0.303  0.0104 -0.2776  0.0079
   23SOL    HW2  136   4.144   3.892   0.294 -0.5452 -0.3287  0.6155
   23SOL    HW3  137   4.231   4.005   0.343 -0.3652 -0.6243  0.9766
   23SOL    MW4  138   4.157   3.977   0.307 -0.1125 -0.3300  0.2159
   24SOL     OW  139   0.131   3.851   0.378  0.0066  0.1497 -0.2450
   24SOL    HW2  140   0.205   3.872   0.322 -1.1055  1.1251 -1.3934
   24SOL    HW3  141   0.081   3.933   0.385 -1.8035 -0.8695 -0.8091
   24SOL    MW4  142   0.134   3.865   0.372 -0.3790  0.1440 -0.4710
   25SOL     OW  143   0.890   4.204   0.359  0.0193 -0.0796  0.4002
   25SOL    HW2  144   0.952   4.153   0.307 -0.9446 -0.0706 -0.7852
   25SOL    HW3  145   0.845   4.139   0.412  0.8985 -0.1070  1.1290
   25SOL    MW4  146   0.892   4.189   0.359  0.0081 -0.0820  0.3400
   26SOL     OW  147   0.432   0.104   0.175  0.2470  0.1847 -0.0905
   26SOL    HW2  148   0.501   0.092   0.240  1.2129  1.1641 -0.9288
   26SOL    HW3  149   0.463   0.175   0.119 -1.9402  1.4825  0.2404
   26SOL    MW4  150   0.445   0.112   0.176  0.0859  0.4851 -0.1575
   27SOL     OW  151   4.021   3.731   0.327  0.0079 -0.2815  0.5040
   27SOL    HW2  152   3.977   3.658   0.283 -0.9386  1.6820 -1.9122
   27SOL    HW3  153   3.954   3.771   0.381  0.4987 -1.1041  1.7382
   27SOL    MW4  154   4.007   3.727   0.328 -0.0525 -0.1311  0.3481
   28SOL     OW  155   4.232   3.607   0.457 -0.1866 -0.2055  0.3142
   28SOL    HW2  156   4.165   3.660   0.414 -0.3712 -0.9282 -0.2858
   28SOL    HW3  157   4.312   3.624   0.407 -0.5961 -1.7577 -0.9016
   28SOL    MW4  158   4.234   3.616   0.445 -0.2646 -0.5057  0.0747
   29SOL     OW  159   1.431   4.378   0.574  0.3868  0.3377  0.3622
   29SOL    HW2  160   1.478   4.303   0.537  1.1610 -0.0777  2.1696
   29SOL    HW3  161   1.497   4.428   0.620 -0.4036  1.3721  0.3963
   29SOL    MW4  162   1.446   4.374   0.575  0.3847  0.4191  0.6052
   30SOL     OW  163   0.447   4.352   0.361 -0.0304  0.0062  0.0190
   30SOL    HW2  164   0.436   4.399   0.278 -1.2029 -0.2341  0.0339
   30SOL    HW3  165   0.541   4.356   0.378  0.1390  0.6032 -1.0034
   30SOL    MW4  166   0.458   4.359   0.352 -0.1627  0.0529 -0.1140
   31SOL     OW  167   0.581   0.711   0.201  0.4232  0.2719  0.4164
   31SOL    HW2  168   0.659   0.753   0.236  0.9057 -1.7546  1.8665
   31SOL    HW3  169   0.517   0.715   0.272  0.0329 -0.2456  0.1004
   31SOL    MW4  170   0.583   0.717   0.215  0.4354 -0.0638  0.5660
   32SOL     OW  171   1.116   4.399   0.471 -0.0072 -0.4808 -0.0136
   32SOL    HW2  172   1.077   4.392   0.558 -1.9833  0.8548 -0.7730
   32SOL    HW3  173   1.056   4.350   0.414 -0.3729  1.2506 -1.1245
   32SOL    MW4  174   1.103   4.391   0.475 -0.3161 -0.0763 -0.2604
   33SOL     OW  175   1.072   1.156   0.301 -0.2836 -0.3256  0.0906
   33SOL    HW2  176   1.018   1.113   0.368  1.4685 -0.0028  1.7436
   33SOL    HW3  177   1.105   1.083   0.247  0.7630 -0.8764  1.4482
   33SOL    MW4  178   1.069   1.141   0.303  0.0856 -0.3556  0.4878
   34SOL     OW  179   0.555   0.453   0.047  0.2996 -0.0190 -0.1750
   34SOL    HW2  180   0.530   0.541   0.074 -2.2317 -0.5118 -0.7833
   34SOL    HW3  181   0.610   0.466  -0.031  0.4997  1.0450  0.1428
   34SOL    MW4  182   0.559   0.466   0.040 -0.0079  0.0564 -0.2133
   35SOL     OW  183   0.421   0.984   0.146 -0.7865 -0.2803 -0.1526
   35SOL    HW2  184   0.329   0.963   0.129 -1.1836 -0.2263  1.8163
   35SOL    HW3  185   0.467   0.901   0.136 -0.7596  0.0187 -2.8848
   35SOL    MW4  186   0.415   0.970   0.142 -0.8354 -0.2338 -0.2533
   36SOL     OW  187   0.756   1.474   0.389 -0.2083  0.0833  0.3388
   36SOL    HW2  188   0.750   1.394   0.441 -1.3176 -0.6289 -0.8366
   36SOL    HW3  189   0.820   1.453   0.320 -1.1965 -0.1211 -0.5241
   36SOL    MW4  190   0.764   1.461   0.386 -0.4849 -0.0378  0.0699
   37SOL     OW  191   1.135   1.296   0.764 -0.5596  0.1946 -0.1005
   37SOL    HW2  192   1.050   1.260   0.788 -0.3077 -0.8943 -0.7909
   37SOL    HW3  193   1.129   1.310   0.669 -1.1912  3.4529  0.3670
   37SOL    MW4  194   1.123   1.293   0.755 -0.6098  0.4808 -0.1299
   38SOL     OW  195   0.610   2.106   0.405 -0.3971  0.0196  0.3878
   38SOL    HW2  196   0.695   2.084   0.365 -0.0636  0.3535  0.9025
   38SOL    HW3  197   0.608   2.201   0.407 -0.6617  0.0095  0.6415
   38SOL    MW4  198   0.621   2.116   0.400 -0.3880  0.0622  0.4892
   39SOL     OW  199   0.225   2.361   0.282  0.2353 -0.1271 -0.4760
   39SOL    HW2  200   0.140   2.371   0.324  0.4756 -0.7031  0.1343
   39SOL    HW3  201   0.262   2.280   0.318  0.8526 -0.1174 -1.0637
   39SOL    MW4  202   0.219   2.352   0.292  0.3485 -0.2019 -0.4730
   40SOL     OW  203   3.898   2.025   0.380 -0.3713 -0.7618  0.0561
   40SOL    HW2  204   3.964   2.091   0.359  0.0250 -0.6668  1.5137
   40SOL    HW3  205   3.815   2.065   0.356 -0.0343 -0.2036 -0.1927
   40SOL    MW4  206   3.896   2.039   0.374 -0.2747 -0.6757  0.2156
   41SOL     OW  207   0.845   2.462   0.459  0.5976 -0.1154 -0.0434
   41SOL    HW2  208   0.865   2.459   0.553 -0.0847  0.6588  0.1350
   41SOL    HW3  209   0.839   2.555   0.439  2.9216 -0.2019 -1.3477
   41SOL    MW4  210   0.847   2.474   0.469  0.8141 -0.0246 -0.1919
   42SOL     OW  211   4.254   2.863   0.376  0.3846 -0.4465 -0.0776
   42SOL    HW2  212   4.348   2.871   0.357  0.3157  0.3833 -0.0665
   42SOL    HW3  213   4.248   2.870   0.471  0.0021  2.7957 -0.2788
   42SOL    MW4  214   4.266   2.865   0.386  0.3247  0.0908 -0.1027
   43SOL     OW  215   3.532   3.186   0.213  0.5275  0.6244  0.2753
   43SOL    HW2  216   3.489   3.141   0.141  0.6521  0.6491  0.1861
   43SOL    HW3  217   3.609   3.133   0.232  0.9301  1.0597 -0.1412
   43SOL    MW4  218   3.536   3.173   0.206  0.5970  0.6852  0.2086
   44SOL     OW  219   0.037   3.429   0.355 -0.5184  0.3569 -0.1046
   44SOL    HW2  220  -0.011   3.492   0.301  1.2473  0.4548 -1.6108
   44SOL    HW3  221   0.098   3.483   0.406  0.8575 -0.0999 -1.2477
   44SOL    MW4  222   0.039   3.444   0.355 -0.1039  0.3097 -0.4542
   45SOL     OW  223   0.650   0.045   0.368  0.2223 -0.4500 -0.2889
   45SOL    HW2  224   0.725   0.102   0.384  0.0730 -0.8145  1.9738
   45SOL    HW3  225   0.683  -0.043   0.388 -0.2122 -0.8736 -1.4123
   45SOL    MW4  226   0.664   0.041   0.373  0.1453 -0.5540 -0.1386
   46SOL     OW  227   0.204   3.609   0.523  0.0346 -0.5000  0.3768
   46SOL    HW2  228   0.185   3.689   0.474 -1.5167 -0.0875  1.6238
   46SOL    HW3  229   0.299   3.597   0.514  0.2919  1.5206  0.2565
   46SOL    MW4  230   0.214   3.618   0.515 -0.1362 -0.1788  0.5254
   47SOL     OW  231   0.467   4.078   0.473 -0.2589 -0.1941 -0.1209
   47SOL    HW2  232   0.447   4.077   0.566  0.6240  1.3069  0.1078
   47SOL    HW3  233   0.434   4.163   0.442  2.1992  0.6854 -0.5018
   47SOL    MW4  234   0.460   4.089   0.481  0.1819  0.1202 -0.1409
   48SOL     OW  235   1.070   3.593   0.462  0.6234 -0.2626  0.2156
   48SOL    HW2  236   1.060   3.508   0.420  0.3781  0.4866 -1.3156
   48SOL    HW3  237   0.999   3.646   0.425  0.5489  0.5056  1.4180
   48SOL    MW4  238   1.059   3.589   0.451  0.5814 -0.0627  0.1722
   49SOL     OW  239   0.484   3.555   0.479  0.2172  0.5831 -0.2607
   49SOL    HW2  240   0.536   3.577   0.556 -0.3811  0.1248  0.2723
   49SOL    HW3  241   0.486   3.459   0.475 -2.7964  0.4129  1.3011
   49SOL    MW4  242   0.491   3.545   0.489 -0.2594  0.5002  0.0157
   50SOL     OW  243   1.050   3.327   0.404  0.1641  0.3253 -0.1867
   50SOL    HW2  244   1.105   3.283   0.468  0.7236  1.2914  0.0182
   50SOL    HW3  245   1.034   3.262   0.336  0.6539 -0.2966  0.2939
   50SOL    MW4  246   1.055   3.313   0.403  0.3026  0.3705 -0.0963
   51SOL     OW  247   1.300   4.021   0.331 -0.5072  0.0094 -0.2568
   51SOL    HW2  248   1.335   3.943   0.372 -0.3416  0.3019  0.1643
   51SOL    HW3  249   1.208   4.000   0.313 -0.7208  0.0539  0.7321
   51SOL    MW4  250   1.292   4.008   0.334 -0.5136  0.0539 -0.0707
   52SOL     OW  251   0.868   0.218   0.460 -0.0228  0.2796 -0.1051
   52SOL    HW2  252   0.863   0.200   0.554 -0.5463  0.7421 -0.0482
   52SOL    HW3  253   0.851   0.312   0.452  0.5824  0.3517 -0.6117
   52SOL    MW4  254   0.865   0.228   0.471 -0.0119  0.3501 -0.1644
   53SOL     OW  255   0.770   0.496   0.460  0.3668 -0.4312 -0.1639
   53SOL    HW2  256   0.690   0.486   0.409 -0.7598  0.3131  1.4421
   53SOL    HW3  257   0.795   0.588   0.448 -0.4828  0.0221  1.4533
   53SOL    MW4  258   0.763   0.507   0.452  0.1060 -0.2732  0.2614
   54SOL     OW  259   0.404   0.651   0.415 -0.1074 -0.2678 -0.0714
   54SOL    HW2  260   0.427   0.706   0.490 -0.4631  1.1428 -0.9754
   54SOL    HW3  261   0.316   0.619   0.436 -0.5881  0.8625 -0.2770
   54SOL    MW4  262   0.395   0.654   0.428 -0.2178  0.0675 -0.2178
   55SOL     OW  263   1.146   0.468   0.437  0.4819  0.1751 -0.3215
   55SOL    HW2  264   1.139   0.536   0.370 -0.2860 -0.0597 -0.4874
   55SOL    HW3  265   1.240   0.452   0.445  0.7233  1.8687  0.3435
   55SOL    MW4  266   1.157   0.475   0.429  0.4125  0.3675 -0.2556
   56SOL     OW  267   1.637   0.496   0.252  0.2397 -0.1942  0.0260
   56SOL    HW2  268   1.627   0.452   0.168  0.2698 -1.3659  0.6277
   56SOL    HW3  269   1.728   0.479   0.277  0.4788  0.8626 -0.0958
   56SOL    MW4  270   1.648   0.488   0.244  0.2754 -0.2094  0.0893
   57SOL     OW  271   1.583   0.761   0.344 -0.2261  0.1247  0.1341
   57SOL    HW2  272   1.669   0.770   0.386 -0.5117 -0.4667  0.8662
   57SOL    HW3  273   1.577   0.669   0.321 -0.5555  0.2203 -0.1729
   57SOL    MW4  274   1.593   0.750   0.347 -0.3073  0.0593  0.1902
   58SOL     OW  275   0.299   1.702   0.479 -0.1083 -0.3341  0.2907
   58SOL    HW2  276   0.219   1.663   0.444 -0.2537  1.8074 -1.9083
   58SOL    HW3  277   0.370   1.659   0.431 -0.1551  0.5742 -0.5954
   58SOL    MW4  278   0.298   1.691   0.468 -0.1337  0.0683 -0.1163
   59SOL     OW  279   0.874   1.044   0.483  0.1427 -0.3467 -0.3142
   59SOL    HW2  280   0.798   1.102   0.480 -0.2583 -0.9324 -1.5250
   59SOL    HW3  281   0.892   1.033   0.576 -0.9045  0.2605 -0.0362
   59SOL    MW4  282   0.866   1.050   0.495 -0.0483 -0.3439 -0.4373
   60SOL     OW  283   1.628   1.669   0.318 -0.2971  0.0972  0.0302
   60SOL    HW2  284   1.715   1.688   0.350 -0.1495 -1.8261  0.8472
   60SOL    HW3  285   1.623   1.573   0.316 -2.2403  0.1733 -0.3868
   60SOL    MW4  286   1.639   1.659   0.322 -0.5341 -0.1464  0.0830
   61SOL     OW  287   1.421   1.210   0.441 -0.0783  0.3550 -0.3232
   61SOL    HW2  288   1.398   1.122   0.411 -0.2232  0.5085 -0.6661
   61SOL    HW3  289   1.338   1.257   0.447 -0.0991  0.1899  0.7707
   61SOL    MW4  290   1.407   1.205   0.438 -0.1001  0.3536 -0.2241
   62SOL     OW  291   1.103   1.600   0.401 -0.5496 -0.1472 -0.4233
   62SOL    HW2  292   1.022   1.644   0.425  0.6836  2.2004 -0.4508
   62SOL    HW3  293   1.170   1.668   0.404  1.3419 -1.9109 -0.9543
   62SOL    MW4  294   1.101   1.615   0.405 -0.1372 -0.0702 -0.4970
   63SOL     OW  295   0.343   2.111   0.360 -0.0198  0.2805  0.1336
   63SOL    HW2  296   0.434   2.116   0.387 -0.3207  0.9272  1.0537
   63SOL    HW3  297   0.346   2.077   0.270  1.0121 -1.5000  0.8244
   63SOL    MW4  298   0.355   2.107   0.351  0.0766  0.1307  0.3461
   64SOL     OW  299   0.870   2.049   0.322  0.0470 -0.0780 -1.0827
   64SOL    HW2  300   0.865   1.954   0.331  0.4779  0.0065  0.0796
   64SOL    HW3  301   0.891   2.063   0.229  0.1386 -1.1165 -1.2238
   64SOL    MW4  302   0.872   2.038   0.311  0.1160 -0.2041 -0.9480
   65SOL     OW  303   1.107   2.362   0.335  0.3291  0.6662  0.2086
   65SOL    HW2  304   1.026   2.393   0.376 -0.5364 -0.0521 -0.9171
   65SOL    HW3  305   1.119   2.273   0.370 -0.9944 -0.3602 -1.8556
   65SOL    MW4  306   1.098   2.354   0.345  0.0402  0.4361 -0.2123
   66SOL     OW  307   0.841   1.783   0.403 -0.1969  0.1737 -0.2938
   66SOL    HW2  308   0.841   1.747   0.492 -1.3362  1.2803  0.1776
   66SOL    HW3  309   0.777   1.730   0.356 -2.0216  1.6589  0.4547
   66SOL    MW4  310   0.832   1.772   0.409 -0.5879  0.5158 -0.1328
   67SOL     OW  311   1.028   2.806   0.225  0.2150 -0.0427  0.4042
   67SOL    HW2  312   0.953   2.768   0.271  0.6363 -0.7684  0.5075
   67SOL    HW3  313   1.039   2.751   0.147 -0.5297  1.2141 -0.6154
   67SOL    MW4  314   1.020   2.794   0.221  0.1723  0.0274  0.2833
   68SOL     OW  315   0.577   2.392   0.433  0.1518  0.3475  0.9883
   68SOL    HW2  316   0.661   2.433   0.451  0.9060  0.0257 -1.6342
   68SOL    HW3  317   0.530   2.456   0.379  0.7917 -1.5702 -1.9555
   68SOL    MW4  318   0.582   2.406   0.428  0.3358  0.0520  0.2539
   69SOL     OW  319   0.617   2.661   0.159 -0.0606 -0.0470 -0.5216
   69SOL    HW2  320   0.531   2.632   0.190  0.0070  0.1243 -0.1637
   69SOL    HW3  321   0.605   2.753   0.137  0.2117  0.1854  0.2590
   69SOL    MW4  322   0.604   2.670   0.160 -0.0157  0.0064 -0.3714
   70SOL     OW  323   0.388   3.886   0.275  0.0310  0.3304 -0.0062
   70SOL    HW2  324   0.413   3.946   0.345  0.1404  0.7487 -0.4001
   70SOL    HW3  325   0.454   3.817   0.278  0.3467  0.6282 -0.0436
   70SOL    MW4  326   0.400   3.885   0.284  0.0871  0.4249 -0.0631
   71SOL     OW  327   1.656   3.323   0.446  0.4403  0.2293  0.1222
   71SOL    HW2  328   1.750   3.331   0.431  0.2077  1.3929 -0.8088
   71SOL    HW3  329   1.634   3.235   0.414  1.2655 -0.1719  0.6470
   71SOL    MW4  330   1.666   3.313   0.439  0.5183  0.3300  0.0686
   72SOL     OW  331   1.049   3.966   0.272 -0.9234  0.0505 -0.0787
   72SOL    HW2  332   1.068   3.943   0.181 -0.3540 -0.6484  0.2083
   72SOL    HW3  333   0.985   3.901   0.300 -0.3167 -0.3715  0.3314
   72SOL    MW4  334   1.043   3.954   0.263 -0.7683 -0.0973  0.0133
   73SOL     OW  335   0.628   3.652   0.262  0.1198  0.0779 -0.4596
   73SOL    HW2  336   0.594   3.608   0.184 -2.0030  1.3180 -0.2645
   73SOL    HW3  337   0.578   3.613   0.335  1.9546 -0.9360  0.2894
   73SOL    MW4  338   0.617   3.641   0.261  0.0818  0.1075 -0.3351
   74SOL     OW  339   1.393   4.279   0.281  0.0275  0.3630 -0.2844
   74SOL    HW2  340   1.393   4.298   0.187  0.1475  0.0271 -0.3494
   74SOL    HW3  341   1.357   4.191   0.288 -1.0643  0.8153  0.0671
   74SOL    MW4  342   1.388   4.270   0.269 -0.1007  0.3786 -0.2466
   75SOL     OW  343   1.094   0.719   0.322  0.4710 -0.3583  0.1772
   75SOL    HW2  344   1.129   0.766   0.397  0.2069 -0.6040  0.4571
   75SOL    HW3  345   1.113   0.775   0.247  2.2508 -0.8944  0.2183
   75SOL    MW4  346   1.101   0.732   0.322  0.6710 -0.4615  0.2195
   76SOL     OW  347   0.714   4.436   0.416  0.6038  0.2409  0.1123
   76SOL    HW2  348   0.695   4.417   0.508 -0.3296 -0.5934 -0.2416
   76SOL    HW3  349   0.770   4.364   0.388 -0.2786 -0.2730 -0.3514
   76SOL    MW4  350   0.719   4.424   0.424  0.3643  0.0634  0.0044
   77SOL     OW  351   1.320   0.023   0.482 -0.0179  0.2696 -0.1204
   77SOL    HW2  352   1.241   0.066   0.450  0.1593  0.8114  0.1656
   77SOL    HW3  353   1.392   0.071   0.441  0.1717  0.0835 -0.0054
   77SOL    MW4  354   1.319   0.035   0.472  0.0305  0.3165 -0.0675
   78SOL     OW  355   1.541   0.173   0.333 -0.1605  0.3182  0.2338
   78SOL    HW2  356   1.619   0.153   0.384  0.6096  0.8750 -0.7016
   78SOL    HW3  357   1.523   0.266   0.351  0.7950  0.8393 -1.3646
   78SOL    MW4  358   1.549   0.183   0.342  0.0672  0.4604 -0.1005
   79SOL     OW  359   1.189   4.611   0.225 -0.1884  0.7364 -0.1243
   79SOL    HW2  360   1.115   4.592   0.168 -0.5446  0.4644  0.4142
   79SOL    HW3  361   1.169   4.696   0.264 -0.6000  0.3179  0.6036
   79SOL    MW4  362   1.177   4.619   0.223 -0.2897  0.6452  0.0428
   80SOL     OW  363   2.272   0.849   0.471  0.0927 -0.0267 -0.0177
   80SOL    HW2  364   2.358   0.886   0.450 -0.0163  0.6316  0.6521
   80SOL    HW3  365   2.264   0.772   0.415  0.4011  0.8726 -1.3287
   80SOL    MW4  366   2.282   0.844   0.461  0.1187  0.1788 -0.1023
   81SOL     OW  367   1.448   0.434   0.444  0.5475 -0.3810 -0.1649
   81SOL    HW2  368   1.508   0.460   0.374 -0.4988  3.0534  0.1556
   81SOL    HW3  369   1.488   0.469   0.524 -0.6302 -0.1717  0.3481
   81SOL    MW4  370   1.461   0.442   0.445  0.2540  0.0997 -0.0549
   82SOL     OW  371   2.030   1.536   0.338  0.1020  0.1596  0.2382
   82SOL    HW2  372   1.977   1.607   0.374 -2.3038 -1.6924  0.4334
   82SOL    HW3  373   2.033   1.553   0.244 -2.0505 -0.4827  0.0370
   82SOL    MW4  374   2.024   1.548   0.331 -0.4995 -0.1694  0.2374
   83SOL     OW  375   1.608   1.385   0.320  0.2528  0.1905 -0.2313
   83SOL    HW2  376   1.548   1.318   0.352 -0.0737  0.7076  0.2424
   83SOL    HW3  377   1.695   1.352   0.341  0.1323 -0.4802 -0.7581
   83SOL    MW4  378   1.612   1.372   0.327  0.1937  0.1701 -0.2383
   84SOL     OW  379   1.831   0.812   0.486 -0.0379  0.7262 -0.0890
   84SOL    HW2  380   1.796   0.851   0.565 -0.3904  0.5456 -0.1555
   84SOL    HW3  381   1.902   0.871   0.459 -1.5170  2.1337 -1.0070
   84SOL    MW4  382   1.836   0.825   0.493 -0.2795  0.8880 -0.2189
   85SOL     OW  383   1.180   1.347   0.490 -0.2641  0.0866  0.4178
   85SOL    HW2  384   1.154   1.434   0.460  2.8423  0.9536 -0.0118
   85SOL    HW3  385   1.151   1.288   0.421 -1.6215  0.9013  0.2793
   85SOL    MW4  386   1.173   1.351   0.477 -0.0333  0.3085  0.3428
   86SOL     OW  387   1.275   2.531   0.454  0.8157 -0.0184 -0.2854
   86SOL    HW2  388   1.233   2.458   0.407  1.0153 -0.7720  0.6909
   86SOL    HW3  389   1.367   2.524   0.432  0.9053 -0.3547  0.2001
   86SOL    MW4  390   1.281   2.520   0.445  0.8539 -0.1621 -0.0925
   87SOL     OW  391   1.541   2.516   0.410  0.3496  0.0511  0.3195
   87SOL    HW2  392   1.510   2.524   0.320 -0.5468 -0.6623  0.5502
   87SOL    HW3  393   1.573   2.603   0.432 -0.9811  0.6703 -0.1361
   87SOL    MW4  394   1.541   2.529   0.401  0.0558  0.0384  0.2898
   88SOL     OW  395   1.624   1.945   0.256  0.2373  0.2005 -0.3146
   88SOL    HW2  396   1.542   1.963   0.302  0.4866  0.3851  0.0631
   88SOL    HW3  397   1.628   1.850   0.247 -0.7621  0.2766 -1.7049
   88SOL    MW4  398   1.614   1.935   0.261  0.1384  0.2348 -0.4482
   89SOL     OW  399   1.400   1.995   0.423  0.2739 -0.3249  0.2318
   89SOL    HW2  400   1.378   1.902   0.424 -0.6653 -0.0980  1.8946
   89SOL    HW3  401   1.315   2.040   0.415  0.5147  0.4312  1.7007
   89SOL    MW4  402   1.386   1.989   0.422  0.1817 -0.1951  0.6450
   90SOL     OW  403   0.806   2.722   0.360  0.0993 -0.2875 -0.2849
   90SOL    HW2  404   0.734   2.706   0.299 -1.7751 -0.5482  1.9475
   90SOL    HW3  405   0.779   2.799   0.410  1.3845 -0.3714  0.5700
   90SOL    MW4  406   0.793   2.730   0.359  0.0216 -0.3326  0.1225
   91SOL     OW  407   0.743   2.968   0.482 -0.0718 -0.3456  0.1992
   91SOL    HW2  408   0.769   3.059   0.496  0.6395 -0.6113  0.6424
   91SOL    HW3  409   0.721   2.935   0.569 -0.3679 -0.5872  0.0334
   91SOL    MW4  410   0.744   2.976   0.495 -0.0170 -0.4122  0.2358
   92SOL     OW  411   2.233   2.501   0.472 -0.1221 -0.4152 -0.1571
   92SOL    HW2  412   2.296   2.572   0.456 -0.6485  0.1263  0.1477
   92SOL    HW3  413   2.249   2.475   0.563 -0.2650 -0.3451 -0.1112
   92SOL    MW4  414   2.243   2.507   0.482 -0.2103 -0.3347 -0.1108
   93SOL     OW  415   1.846   4.087   0.466  0.2478 -0.2313 -0.0669
   93SOL    HW2  416   1.757   4.120   0.453 -0.4226 -1.6912  0.7427
   93SOL    HW3  417   1.898   4.129   0.397 -1.3659 -0.5544 -1.4916
   93SOL    MW4  418   1.841   4.097   0.455 -0.0535 -0.4668 -0.1481
   94SOL     OW  419   1.340   3.784   0.484 -0.8751 -0.5249  0.0398
   94SOL    HW2  420   1.420   3.732   0.485 -0.1642  0.5721 -0.1787
   94SOL    HW3  421   1.272   3.722   0.456 -0.1231 -1.4640  0.2668
   94SOL    MW4  422   1.341   3.769   0.481 -0.6821 -0.5043  0.0409
   95SOL     OW  423   1.329   3.034   0.428  0.1064 -0.1430  0.3989
   95SOL    HW2  424   1.290   2.947   0.435  1.9084 -0.8257  2.3309
   95SOL    HW3  425   1.418   3.018   0.396  0.4929  0.9915  0.8842
   95SOL    MW4  426   1.336   3.021   0.425  0.3951 -0.0832  0.7178
   96SOL     OW  427   2.090   3.699   0.469 -0.1755  0.3178 -0.3267
   96SOL    HW2  428   2.135   3.630   0.420  1.6501 -0.5731  2.4623
   96SOL    HW3  429   2.073   3.659   0.554 -3.4695  1.7416 -0.2822
   96SOL    MW4  430   2.094   3.684   0.474 -0.3693  0.3881  0.0471
   97SOL     OW  431   4.428   3.686   0.262 -0.3061  0.1102  0.3275
   97SOL    HW2  432   4.493   3.739   0.308  1.2639 -1.1481 -0.4151
   97SOL    HW3  433   4.391   3.746   0.196 -0.6571  1.1182  1.4081
   97SOL    MW4  434   4.431   3.701   0.259 -0.1450  0.0775  0.3721
   98SOL     OW  435   1.833   3.805   0.395 -0.4913 -0.3294 -0.1288
   98SOL    HW2  436   1.921   3.775   0.421 -0.0484  0.7106 -0.4011
   98SOL    HW3  437   1.834   3.899   0.413 -1.0684 -0.0562 -1.4587
   98SOL    MW4  438   1.845   3.813   0.401 -0.5090 -0.1559 -0.3402
   99SOL     OW  439   0.763   3.985   0.488  0.1889 -0.7936  0.0736
   99SOL    HW2  440   0.670   4.007   0.478 -0.0503 -1.9231 -0.3345
   99SOL    HW3  441   0.779   3.990   0.582 -0.2451 -0.4391  0.1319
   99SOL    MW4  442   0.753   3.989   0.499  0.1001 -0.8957  0.0274
  100SOL     OW  443   2.228   4.593   0.482  0.0211 -0.0842  0.4703
  100SOL    HW2  444   2.290   4.543   0.429  0.2265  0.9762 -0.3147
  100SOL    HW3  445   2.154   4.534   0.494  0.3437 -0.6487 -0.2704
  100SOL    MW4  446   2.226   4.578   0.477  0.0908 -0.0186  0.2690
  101SOL     OW  447   1.514   4.565   0.284 -0.4239  0.2439  0.5603
  101SOL    HW2  448   1.522   4.660   0.288  0.2580  0.2167 -0.0525
  101SOL    HW3  449   1.597   4.532   0.319 -0.1750 -0.1140 -0.3692
  101SOL    MW4  450   1.526   4.573   0.289 -0.3010  0.1936  0.3568
  102SOL     OW  451   2.005   4.398   0.424 -0.2886  0.2045  0.2791
  102SOL    HW2  452   2.021   4.322   0.367 -1.1457  0.8187 -0.8005
  102SOL    HW3  453   1.910   4.408   0.424 -0.2329  0.7494  1.1281
  102SOL    MW4  454   1.995   4.389   0.416 -0.3945  0.3576  0.2486
  103SOL     OW  455   1.116   0.181   0.353 -0.0960  0.3387 -0.2080
  103SOL    HW2  456   1.026   0.187   0.387 -0.6343  0.2635 -1.5776
  103SOL    HW3  457   1.142   0.273   0.340  0.3561  0.3916  1.0064
  103SOL    MW4  458   1.107   0.194   0.356 -0.1075  0.3358 -0.2284
  104SOL     OW  459   1.908   0.327   0.337  0.0235  0.2241  0.0425
  104SOL    HW2  460   1.986   0.273   0.345 -0.8979 -1.0346  0.5477
  104SOL    HW3  461   1.925   0.402   0.394  0.6261 -0.3035  0.5579
  104SOL    MW4  462   1.921   0.330   0.345 -0.0186 -0.0116  0.1771
  105SOL     OW  463   2.680   2.155   0.409  0.2321  0.6209 -0.4466
  105SOL    HW2  464   2.646   2.070   0.440 -0.8707  0.5736 -1.7316
  105SOL    HW3  465   2.769   2.136   0.379  0.3586  0.1285  0.2299
  105SOL    MW4  466   2.687   2.141   0.409  0.1032  0.5496 -0.5269
  106SOL     OW  467   2.368   1.229   0.491  0.1886 -0.0962  0.4562
  106SOL    HW2  468   2.437   1.296   0.488  0.2262 -0.1502  0.1239
  106SOL    HW3  469   2.410   1.150   0.457  0.7685 -0.8426  2.7970
  106SOL    MW4  470   2.383   1.227   0.486  0.2701 -0.2017  0.7212
  107SOL     OW  471   2.050   0.962   0.388  0.5250 -0.1405 -0.3224
  107SOL    HW2  472   2.057   1.057   0.394  0.2299  0.1090 -3.2331
  107SOL    HW3  473   2.131   0.929   0.429  0.4113  1.3184  1.1039
  107SOL    MW4  474   2.062   0.970   0.394  0.4706  0.0850 -0.5182
  108SOL     OW  475   2.691   1.058   0.222  0.0736 -0.1472  0.3385
  108SOL    HW2  476   2.698   1.143   0.266 -1.5898  0.0783  0.1955
  108SOL    HW3  477   2.708   1.076   0.130  0.1051 -0.0275  0.3683
  108SOL    MW4  478   2.694   1.071   0.216 -0.1416 -0.1016  0.3236
  109SOL     OW  479   1.968   2.005   0.366 -0.3805  0.6864 -0.7171
  109SOL    HW2  480   1.975   2.041   0.454 -0.6544  0.8294 -0.7547
  109SOL    HW3  481   1.913   2.068   0.318 -1.6249 -0.2429 -0.5319
  109SOL    MW4  482   1.962   2.018   0.371 -0.5808  0.5829 -0.6976
  110SOL     OW  483   1.119   2.082   0.429  0.0463  0.0944  0.4021
  110SOL    HW2  484   1.121   2.045   0.518  1.5808 -1.4952 -0.2717
  110SOL    HW3  485   1.028   2.072   0.401  0.1421 -1.9237  0.7652
  110SOL    MW4  486   1.108   2.076   0.437  0.2613 -0.3817  0.3611
  111SOL     OW  487   2.411   2.692   0.475  0.0275  0.2002 -0.6024
  111SOL    HW2  488   2.486   2.679   0.417  0.8264  0.2196  0.4273
  111SOL    HW3  489   2.447   2.737   0.551 -0.8820 -0.5036  0.2510
  111SOL    MW4  490   2.426   2.696   0.477  0.0131  0.1099 -0.3540
  112SOL     OW  491   1.936   3.218   0.435  0.2087  0.0152  0.0275
  112SOL    HW2  492   1.923   3.147   0.372  2.8592 -0.1536 -0.3989
  112SOL    HW3  493   2.031   3.224   0.446  0.0142  2.9096  0.7380
  112SOL    MW4  494   1.947   3.210   0.428  0.5327  0.3746  0.0650
  113SOL     OW  495   1.925   2.769   0.330 -0.4027  0.2096  0.3648
  113SOL    HW2  496   1.996   2.806   0.382  0.3223 -0.2888 -0.2653
  113SOL    HW3  497   1.959   2.685   0.299 -1.2611 -0.0283  0.0552
  113SOL    MW4  498   1.939   2.763   0.332 -0.4201  0.1125  0.2409
  114SOL     OW  499   1.631   3.016   0.380  0.1426 -0.1465 -0.0737
  114SOL    HW2  500   1.713   3.027   0.331 -0.1065  0.7811 -0.3033
  114SOL    HW3  501   1.632   2.925   0.409  0.9763 -0.3057 -0.5817
  114SOL    MW4  502   1.642   3.006   0.377  0.2198 -0.0451 -0.1710
  115SOL     OW  503   1.360   1.722   0.426 -0.5423 -0.1195  0.2496
  115SOL    HW2  504   1.447   1.702   0.390 -1.0574 -0.8733 -0.5950
  115SOL    HW3  505   1.363   1.688   0.515  0.6456  1.4954  0.8504
  115SOL    MW4  506   1.372   1.715   0.433 -0.4536 -0.0060  0.2175
  116SOL     OW  507   3.938   2.560   0.643 -0.0740  0.2293 -0.3055
  116SOL    HW2  508   3.957   2.628   0.708  2.2528 -0.4934 -0.1928
  116SOL    HW3  509   3.898   2.489   0.694  1.1709 -0.0818  0.2657
  116SOL    MW4  510   3.935   2.560   0.658  0.3972  0.0930 -0.2152
  117SOL     OW  511   2.049   2.297   0.153 -0.0491  0.2372 -0.0925
  117SOL    HW2  512   2.113   2.226   0.146  0.9585  1.1318 -0.0934
  117SOL    HW3  513   1.964   2.255   0.138  0.2885 -1.4050  2.4502
  117SOL    MW4  514   2.046   2.282   0.150  0.1285  0.1385  0.2429
  118SOL     OW  515   1.197   2.799   0.467 -0.5640 -0.2889  0.2875
  118SOL    HW2  516   1.227   2.709   0.472 -0.3525 -0.1779  1.0104
  118SOL    HW3  517   1.154   2.805   0.382  1.1133 -0.5471 -0.6047
  118SOL    MW4  518   1.195   2.788   0.456 -0.3148 -0.3085  0.2652
  119SOL     OW  519   2.257   3.469   0.390 -0.1169 -0.1315  0.0519
  119SOL    HW2  520   2.350   3.491   0.394 -0.5078  1.5406  0.1625
  119SOL    HW3  521   2.254   3.375   0.412  1.3113  0.3236  2.3619
  119SOL    MW4  522   2.269   3.459   0.393  0.0203  0.1490  0.3713
  120SOL     OW  523   2.667   2.650   0.379  0.6760  0.3764 -0.1040
  120SOL    HW2  524   2.718   2.714   0.428  0.2950  1.1186 -0.6572
  120SOL    HW3  525   2.707   2.649   0.292  1.3357 -0.9164  0.2084
  120SOL    MW4  526   2.679   2.658   0.374  0.7126  0.3037 -0.1357
  121SOL     OW  527   0.862   3.758   0.350 -0.7375  0.1767 -0.2409
  121SOL    HW2  528   0.794   3.708   0.304  0.1040 -1.5420  0.3551
  121SOL    HW3  529   0.815   3.832   0.389 -2.0369 -0.2653 -0.9383
  121SOL    MW4  530   0.847   3.761   0.349 -0.7979 -0.1085 -0.2543
  122SOL     OW  531   1.568   4.161   0.461  0.1960  0.3265 -0.1620
  122SOL    HW2  532   1.503   4.098   0.492  0.3816  1.4360  2.6527
  122SOL    HW3  533   1.531   4.196   0.380 -1.9129 -0.3059  0.4954
  122SOL    MW4  534   1.555   4.158   0.455 -0.0578  0.3896  0.2961
  123SOL     OW  535   1.740   4.492   0.438 -0.1358  0.4019 -0.0440
  123SOL    HW2  536   1.719   4.483   0.532 -0.1100  0.2533 -0.0519
  123SOL    HW3  537   1.776   4.580   0.430 -0.7546  0.6652 -0.0244
  123SOL    MW4  538   1.742   4.502   0.449 -0.2141  0.4168 -0.0424
  124SOL     OW  539   2.899   2.480   4.518 -0.3235 -0.4410 -0.0117
  124SOL    HW2  540   2.860   2.566   4.532  0.2499 -0.2842  0.6302
  124SOL    HW3  541   2.851   2.444   4.443 -0.4538  0.4944 -0.3775
  124SOL    MW4  542   2.887   2.487   4.510 -0.2649 -0.2968  0.0243
  125SOL     OW  543   2.736   0.634   0.347  0.0380 -0.1318  0.2166
  125SOL    HW2  544   2.804   0.574   0.377  0.7577 -0.2943 -1.7007
  125SOL    HW3  545   2.768   0.721   0.373  1.2570 -0.1521 -1.1630
  125SOL    MW4  546   2.749   0.637   0.354  0.2940 -0.1559 -0.2184
  126SOL     OW  547   2.148   0.184   0.377  0.4001  0.2243  0.3000
  126SOL    HW2  548   2.159   0.096   0.413  0.9402 -0.2150 -0.8920
  126SOL    HW3  549   2.224   0.233   0.409  0.3202  0.1359  0.6221
  126SOL    MW4  550   2.160   0.179   0.386  0.4611  0.1546  0.1853
  127SOL     OW  551   3.130   1.641   0.474 -0.1233 -0.3239 -0.5950
  127SOL    HW2  552   3.072   1.566   0.465  0.8821 -1.2096  0.1350
  127SOL    HW3  553   3.130   1.660   0.568 -1.2827  1.3333 -0.9080
  127SOL    MW4  554   3.123   1.634   0.486 -0.1435 -0.2220 -0.5400
  128SOL     OW  555   1.959   0.558   0.471 -0.4710 -0.2052  0.5465
  128SOL    HW2  556   1.927   0.648   0.469 -1.0844 -0.4394 -1.5040
  128SOL    HW3  557   2.051   0.565   0.445 -1.2153 -0.4044 -2.3069
  128SOL    MW4  558   1.967   0.571   0.467 -0.6500 -0.2624 -0.1006
  129SOL     OW  559   3.077   1.024   0.499  0.2509  0.0423 -0.5451
  129SOL    HW2  560   3.111   1.059   0.582  0.6215  0.9535 -1.0691
  129SOL    HW3  561   3.127   0.944   0.484  1.6582  0.9579 -0.9132
  129SOL    MW4  562   3.088   1.018   0.508  0.4854  0.2834 -0.6628
  130SOL     OW  563   3.855   1.252   0.245 -0.2709  0.5307 -0.1164
  130SOL    HW2  564   3.819   1.285   0.163 -1.9324 -0.2477  0.2896
  130SOL    HW3  565   3.863   1.158   0.232  0.4972  0.5432  0.2314
  130SOL    MW4  566   3.851   1.244   0.233 -0.3886  0.4295 -0.0169
  131SOL     OW  567   2.701   1.299   0.377 -0.4464  0.1772  0.1969
  131SOL    HW2  568   2.791   1.325   0.361 -1.5652  1.8773 -3.7471
  131SOL    HW3  569   2.659   1.377   0.413 -0.9316  0.1308 -0.2598
  131SOL    MW4  570   2.707   1.312   0.380 -0.6580  0.3954 -0.3838
  132SOL     OW  571   2.525   1.493   0.501  0.3177  0.5019 -0.2117
  132SOL    HW2  572   2.581   1.568   0.484  0.9037  0.2814  0.7095
  132SOL    HW3  573   2.436   1.527   0.494  0.5700  0.9632 -1.1921
  132SOL    MW4  574   2.521   1.507   0.498  0.4282  0.5337 -0.2196
  133SOL     OW  575   3.267   0.802   0.486 -0.1888  0.4548  0.0699
  133SOL    HW2  576   3.236   0.804   0.577 -0.6898  0.0353 -0.0850
  133SOL    HW3  577   3.357   0.836   0.490 -0.5239  1.2874  0.5849
  133SOL    MW4  578   3.275   0.806   0.499 -0.2990  0.5094  0.1174
  134SOL     OW  579   2.208   2.065   0.221 -0.3603  0.0466  0.0017
  134SOL    HW2  580   2.246   2.126   0.286  0.1165 -1.4371  1.1393
  134SOL    HW3  581   2.127   2.034   0.262 -0.5471 -0.1655 -0.5283
  134SOL    MW4  582   2.203   2.069   0.235 -0.3223 -0.1769  0.0819
  135SOL     OW  583   1.878   1.745   0.441  0.5698  0.0493 -0.1769
  135SOL    HW2  584   1.907   1.834   0.421  1.3136 -0.0287  0.5077
  135SOL    HW3  585   1.843   1.750   0.530  0.9375 -0.4115 -0.0006
  135SOL    MW4  586   1.878   1.757   0.450  0.7164 -0.0217 -0.0633
  136SOL     OW  587   3.384   2.717   0.189 -0.4525 -0.2170  0.1290
  136SOL    HW2  588   3.395   2.725   0.094  1.1631 -1.5878  0.1799
  136SOL    HW3  589   3.473   2.709   0.223 -1.0175  0.2530  1.7701
  136SOL    MW4  590   3.397   2.717   0.181 -0.3140 -0.3359  0.3522
  137SOL     OW  591   2.678   1.718   0.513 -0.2304  0.0547 -0.4947
  137SOL    HW2  592   2.688   1.705   0.607 -2.7740 -0.4885 -0.2746
  137SOL    HW3  593   2.761   1.757   0.485  1.0719 -1.0483  1.7207
  137SOL    MW4  594   2.690   1.721   0.521 -0.3943 -0.1625 -0.1733
  138SOL     OW  595   1.995   2.491   0.341 -0.5979 -0.4795 -0.3127
  138SOL    HW2  596   2.019   2.422   0.279 -0.2552 -0.7084  0.0738
  138SOL    HW3  597   2.074   2.503   0.394 -1.2087 -0.9414  0.7024
  138SOL    MW4  598   2.009   2.484   0.340 -0.6335 -0.5708 -0.1278
  139SOL     OW  599   1.793   2.166   0.204  0.1454  0.5591 -0.0936
  139SOL    HW2  600   1.724   2.101   0.191 -0.5087  1.4042 -0.8878
  139SOL    HW3  601   1.754   2.232   0.262  0.4829  0.7242 -0.0509
  139SOL    MW4  602   1.779   2.166   0.210  0.1036  0.6921 -0.1928
  140SOL     OW  603   1.765   2.358   0.455 -0.2973  0.5637  0.2715
  140SOL    HW2  604   1.835   2.393   0.400 -1.1277 -0.4802 -1.4791
  140SOL    HW3  605   1.686   2.404   0.427 -0.9431 -0.8545 -0.2780
  140SOL    MW4  606   1.764   2.369   0.444 -0.4920  0.2387 -0.0320
  141SOL     OW  607   1.240   3.242   0.599 -0.1193 -0.1924 -0.3648
  141SOL    HW2  608   1.195   3.209   0.678  0.7087 -0.0359  0.1733
  141SOL    HW3  609   1.275   3.163   0.557  1.2700 -0.0802  0.5582
  141SOL    MW4  610   1.238   3.227   0.604  0.1732 -0.1569 -0.1720
  142SOL     OW  611   1.856   3.034   0.219 -0.3400  0.3137  0.4428
  142SOL    HW2  612   1.819   3.032   0.131  0.8300  0.8104 -0.0751
  142SOL    HW3  613   1.885   2.944   0.236 -2.2406 -0.1934  1.0627
  142SOL    MW4  614   1.855   3.022   0.210 -0.4363  0.3123  0.4562
  143SOL     OW  615   1.603   3.654   0.431 -0.0228  0.4295 -0.5088
  143SOL    HW2  616   1.668   3.713   0.393  0.1384  0.0587 -0.8102
  143SOL    HW3  617   1.644   3.567   0.429 -0.4444  0.2261 -0.5077
  143SOL    MW4  618   1.617   3.650   0.426 -0.0571  0.3541 -0.5484
  144SOL     OW  619   2.195   3.202   0.488 -0.2197 -0.0085  0.0874
  144SOL    HW2  620   2.210   3.217   0.582  2.4459  0.5569 -0.3879
  144SOL    HW3  621   2.221   3.111   0.474  1.1603  0.4475 -0.4177
  144SOL    MW4  622   2.201   3.192   0.499  0.3140  0.1266 -0.0420
  145SOL     OW  623   2.037   4.165   0.288  0.1676 -0.4007  0.3115
  145SOL    HW2  624   2.033   4.139   0.196 -1.0058  0.1547  0.1956
  145SOL    HW3  625   2.089   4.097   0.330  1.9605  0.0906 -1.0215
  145SOL    MW4  626   2.044   4.153   0.281  0.2494 -0.2632  0.1203
  146SOL     OW  627   2.221   3.938   0.412  0.2369 -0.3827 -0.5725
  146SOL    HW2  628   2.309   3.919   0.380  0.7131 -1.3095  1.2395
  146SOL    HW3  629   2.181   3.853   0.427 -0.7707  0.0331 -0.8271
  146SOL    MW4  630   2.227   3.924   0.410  0.1669 -0.4501 -0.3670
  147SOL     OW  631   2.841   4.660   0.438 -0.2096  0.0797 -0.2753
  147SOL    HW2  632   2.814   4.701   0.520  0.8018  4.3546 -1.9280
  147SOL    HW3  633   2.768   4.676   0.378  0.5377  0.1273 -1.1821
  147SOL    MW4  634   2.828   4.668   0.441  0.0224  0.6499 -0.6130
  148SOL     OW  635   2.515   3.848   0.358 -0.0635 -0.5771 -0.4504
  148SOL    HW2  636   2.547   3.849   0.267 -0.3035 -0.3534 -0.5306
  148SOL    HW3  637   2.506   3.755   0.378 -1.3871 -0.6117 -1.1402
  148SOL    MW4  638   2.518   3.836   0.348 -0.2699 -0.5519 -0.5520
  149SOL     OW  639   2.954   4.388   0.454 -0.2150  0.3281 -0.2956
  149SOL    HW2  640   2.911   4.472   0.466 -0.7250  0.0740 -0.3146
  149SOL    HW3  641   2.968   4.355   0.543  0.1480  0.5125 -0.2828
  149SOL    MW4  642   2.950   4.395   0.467 -0.2344  0.3190 -0.2964
  150SOL     OW  643   2.511   0.983   0.439  0.5271 -0.2692  0.0332
  150SOL    HW2  644   2.573   1.001   0.368  1.2427 -0.5916  0.5644
  150SOL    HW3  645   2.567   0.968   0.516 -0.2092 -0.6772  0.4927
  150SOL    MW4  646   2.527   0.984   0.440  0.5243 -0.3656  0.1639
  151SOL     OW  647   1.783   0.118   0.453  0.3427  0.0060  0.0276
  151SOL    HW2  648   1.812   0.193   0.402  0.2207 -0.0828 -0.1732
  151SOL    HW3  649   1.811   0.137   0.543  2.9253 -1.0711 -0.4987
  151SOL    MW4  650   1.790   0.130   0.458  0.6673 -0.1478 -0.0683
  152SOL     OW  651   2.524   0.215   0.469 -0.1995 -0.1299 -0.0208
  152SOL    HW2  652   2.568   0.187   0.550 -2.7019  0.3811  1.5691
  152SOL    HW3  653   2.536   0.141   0.410  0.3128 -1.1926  1.3585
  152SOL    MW4  654   2.532   0.201   0.472 -0.4621 -0.2027  0.3710
  153SOL     OW  655   2.338   1.813   0.256  0.1121 -0.5038  0.1208
  153SOL    HW2  656   2.287   1.893   0.242 -0.0405 -0.4655  0.8603
  153SOL    HW3  657   2.394   1.806   0.179 -1.2156 -0.6917 -0.8527
  153SOL    MW4  658   2.338   1.822   0.244 -0.0834 -0.5237  0.0899
  154SOL     OW  659   3.163   1.259   0.318 -0.2058  0.0220  0.0234
  154SOL    HW2  660   3.148   1.182   0.371 -0.0813  0.2336  0.3671
  154SOL    HW3  661   3.258   1.259   0.301 -0.4025 -0.6756 -1.1657
  154SOL    MW4  662   3.174   1.249   0.322 -0.2153 -0.0421 -0.0881
  155SOL     OW  663   2.952   1.418   0.416  0.0657 -0.2969  0.4788
  155SOL    HW2  664   2.942   1.364   0.494  0.5387 -0.8216  0.1855
  155SOL    HW3  665   3.019   1.373   0.365 -0.1815  0.0832 -0.1885
  155SOL    MW4  666   2.959   1.405   0.419  0.0956 -0.3159  0.3521
  156SOL     OW  667   3.661   1.324   0.426 -0.1252  0.4269  0.1301
  156SOL    HW2  668   3.692   1.309   0.515  0.5953  1.4653  0.0674
  156SOL    HW3  669   3.731   1.290   0.370  0.6808  2.2379 -0.0121
  156SOL    MW4  670   3.674   1.318   0.430  0.0763  0.8028  0.1031
  157SOL     OW  671   2.931   1.855   0.476  0.0949  0.0031  0.6133
  157SOL    HW2  672   2.980   1.773   0.468  0.4418  0.3474 -1.1488
  157SOL    HW3  673   2.964   1.896   0.556  1.8385 -0.3291  0.0838
  157SOL    MW4  674   2.942   1.850   0.485  0.3710  0.0048  0.3110
  158SOL     OW  675   2.213   0.584   0.321  0.0703  0.1231  0.1155
  158SOL    HW2  676   2.176   0.553   0.239 -0.4865 -0.0182  0.4209
  158SOL    HW3  677   2.306   0.561   0.315 -0.3103 -1.4902  0.2757
  158SOL    MW4  678   2.221   0.577   0.310 -0.0536 -0.1083  0.1769
  159SOL     OW  679   2.936   2.098   0.357  0.1881 -0.4113 -0.0876
  159SOL    HW2  680   2.939   2.005   0.380  0.7705 -0.0871  1.1852
  159SOL    HW3  681   3.018   2.134   0.390 -0.6031  0.8196  0.5817
  159SOL    MW4  682   2.947   2.091   0.364  0.1607 -0.2058  0.1687
  160SOL     OW  683   2.378   2.224   0.361 -0.4312 -0.5404  0.7692
  160SOL    HW2  684   2.472   2.216   0.374 -0.2585  1.0663  0.6747
  160SOL    HW3  685   2.358   2.315   0.385 -1.7329 -0.4652 -0.4773
  160SOL    MW4  686   2.388   2.235   0.366 -0.5801 -0.3185  0.5923
  161SOL     OW  687   2.516   1.938   0.467 -0.0776  0.0415  0.0044
  161SOL    HW2  688   2.462   1.934   0.388 -0.4091 -0.7921  0.2678
  161SOL    HW3  689   2.567   1.857   0.465  1.6026  1.0664 -0.5416
  161SOL    MW4  690   2.516   1.927   0.456  0.1001  0.0670 -0.0328
  162SOL     OW  691   2.781   2.407   0.474 -0.3343  0.1712 -0.2171
  162SOL    HW2  692   2.725   2.474   0.434 -0.4474 -0.5617 -1.3263
  162SOL    HW3  693   2.742   2.324   0.446 -0.3847 -0.3708  1.3984
  162SOL    MW4  694   2.768   2.405   0.465 -0.3557  0.0031 -0.1503
  163SOL     OW  695   2.665   3.334   0.426 -0.1092  0.0996  0.3366
  163SOL    HW2  696   2.666   3.306   0.517  2.6818  0.4438  0.4321
  163SOL    HW3  697   2.700   3.259   0.378 -0.0179  0.5251 -0.2645
  163SOL    MW4  698   2.669   3.320   0.432  0.2708  0.2012  0.2699
  164SOL     OW  699   1.655   2.755   0.476 -0.0724  0.1133  0.0178
  164SOL    HW2  700   1.659   2.779   0.568  0.2909  1.9481 -0.4618
  164SOL    HW3  701   1.740   2.716   0.457  0.0311  0.1868  0.3324
  164SOL    MW4  702   1.666   2.753   0.486 -0.0108  0.3653 -0.0040
  165SOL     OW  703   3.083   3.223   0.487 -0.5774 -0.0680 -0.0198
  165SOL    HW2  704   3.169   3.206   0.448 -0.6406 -0.9413  0.2281
  165SOL    HW3  705   3.101   3.239   0.579 -0.5668  0.8253 -0.1655
  165SOL    MW4  706   3.097   3.223   0.494 -0.5841 -0.0653 -0.0063
  166SOL     OW  707   2.162   2.863   0.470 -0.0430  0.1135 -0.1136
  166SOL    HW2  708   2.121   2.835   0.552 -1.4884 -0.7883 -1.1062
  166SOL    HW3  709   2.237   2.804   0.459 -0.0766 -0.0189  0.3605
  166SOL    MW4  710   2.167   2.852   0.479 -0.2382 -0.0231 -0.1820
  167SOL     OW  711   3.209   3.808   0.444 -0.0464  0.4324 -0.2698
  167SOL    HW2  712   3.260   3.729   0.461  0.1331  0.4738 -0.6002
  167SOL    HW3  713   3.208   3.855   0.527 -0.5829 -0.1655  0.0636
  167SOL    MW4  714   3.216   3.804   0.457 -0.0935  0.3588 -0.2694
  168SOL     OW  715   3.772   3.095   0.254  0.1210  0.2681  0.2248
  168SOL    HW2  716   3.825   3.165   0.292 -0.0532  0.0762  0.8208
  168SOL    HW3  717   3.822   3.015   0.270 -0.4766  0.0468  1.0553
  168SOL    MW4  718   3.785   3.093   0.261  0.0188  0.2134  0.4131
  169SOL     OW  719   2.488   4.421   0.423  0.1119 -0.1644  0.6182
  169SOL    HW2  720   2.468   4.424   0.516  2.1666 -0.1397  1.0985
  169SOL    HW3  721   2.564   4.362   0.417 -1.0132 -1.5150 -1.2419
  169SOL    MW4  722   2.496   4.413   0.434  0.2346 -0.3395  0.4362
  170SOL     OW  723   2.898   2.838   0.463 -0.0203  0.0503  0.5853
  170SOL    HW2  724   2.981   2.823   0.418 -0.1303  0.7887  0.1486
  170SOL    HW3  725   2.882   2.931   0.455  0.2476  0.3004  2.6404
  170SOL    MW4  726   2.907   2.848   0.456  0.0002  0.1810  0.7989
  171SOL     OW  727   3.502   4.302   0.469  0.1670 -0.0421 -0.1376
  171SOL    HW2  728   3.543   4.216   0.461  1.2958  0.4311  0.3134
  171SOL    HW3  729   3.421   4.296   0.419 -0.0085 -1.5159  0.3103
  171SOL    MW4  730   3.497   4.290   0.461  0.2925 -0.1740 -0.0190
  172SOL     OW  731   3.050   0.370   0.451  0.0471  0.0089  0.3628
  172SOL    HW2  732   3.077   0.279   0.458  1.4074  0.4296  0.8027
  172SOL    HW3  733   3.131   0.418   0.436 -0.4568  1.3105  1.6365
  172SOL    MW4  734   3.064   0.365   0.450  0.1597  0.2361  0.5889
  173SOL     OW  735   3.713   4.472   0.489  0.2521 -0.2013 -0.1685
  173SOL    HW2  736   3.640   4.412   0.474 -0.3942  0.6247 -0.3745
  173SOL    HW3  737   3.733   4.463   0.582  0.1424 -0.7248 -0.1983
  173SOL    MW4  738   3.706   4.463   0.500  0.1523 -0.1607 -0.1996
  174SOL     OW  739   3.225   4.307   0.352 -0.1315  0.5300  0.2253
  174SOL    HW2  740   3.136   4.310   0.387 -0.2965 -0.4115 -0.0970
  174SOL    HW3  741   3.234   4.218   0.316  0.6983  0.8451 -0.3661
  174SOL    MW4  742   3.215   4.295   0.352 -0.0436  0.4473  0.1048
  175SOL     OW  743   3.320   3.986   0.258  0.3894  0.2904 -0.4496
  175SOL    HW2  744   3.269   3.921   0.306  1.6953 -0.3872  0.0258
  175SOL    HW3  745   3.285   3.983   0.169 -1.6927  1.1878  0.3107
  175SOL    MW4  746   3.309   3.977   0.253  0.2868  0.3195 -0.2865
  176SOL     OW  747   2.089   1.271   0.449  0.2037  0.4604 -0.0885
  176SOL    HW2  748   2.084   1.361   0.418 -0.1784 -0.0751 -1.6671
  176SOL    HW3  749   2.182   1.256   0.465  0.2208  1.2493  0.5605
  176SOL    MW4  750   2.101   1.281   0.447  0.1554  0.4939 -0.2111
  177SOL     OW  751   3.877   0.987   0.186  0.4437 -0.2405 -0.0661
  177SOL    HW2  752   3.914   0.928   0.120  0.6494  0.0997 -0.2576
  177SOL    HW3  753   3.870   0.933   0.265 -0.4316 -0.8361 -0.5437
  177SOL    MW4  754   3.881   0.972   0.188  0.3555 -0.2742 -0.1543
  178SOL     OW  755   2.475   0.498   0.405 -0.4092 -0.1478 -0.3180
  178SOL    HW2  756   2.557   0.538   0.378 -1.0530  0.8289 -0.8691
  178SOL    HW3  757   2.496   0.406   0.421  1.4665  0.7022  2.4899
  178SOL    MW4  758   2.488   0.491   0.404 -0.2465  0.0932 -0.0203
  179SOL     OW  759   3.304   0.523   0.441  0.0784 -0.1193 -0.1738
  179SOL    HW2  760   3.385   0.487   0.405  0.3413  1.2488 -1.0014
  179SOL    HW3  761   3.323   0.616   0.455 -1.1760  0.1042  0.1367
  179SOL    MW4  762   3.317   0.531   0.438 -0.0522  0.0906 -0.2420
  180SOL     OW  763   3.539   0.910   0.450 -0.0192 -0.0240 -0.8513
  180SOL    HW2  764   3.566   0.905   0.542  0.6616 -0.9611 -1.0981
  180SOL    HW3  765   3.508   1.000   0.440 -0.2723  0.0388  0.3413
  180SOL    MW4  766   3.539   0.921   0.461  0.0372 -0.1394 -0.7266
  181SOL     OW  767   3.849   1.718   0.342  0.0728  0.3710 -0.4593
  181SOL    HW2  768   3.764   1.679   0.361  0.5098 -0.7764 -0.8063
  181SOL    HW3  769   3.835   1.813   0.352 -1.1910  0.1815 -0.3435
  181SOL    MW4  770   3.836   1.726   0.346 -0.0362  0.1947 -0.4898
  182SOL     OW  771   3.439   1.156   0.435  0.1617 -0.3192  0.1516
  182SOL    HW2  772   3.419   1.183   0.525  3.5478 -1.4788  1.3344
  182SOL    HW3  773   3.511   1.213   0.408  1.3977 -2.1804 -0.5841
  182SOL    MW4  774   3.446   1.167   0.443  0.7715 -0.7178  0.2106
  183SOL     OW  775   3.984   1.188   0.599  0.4094  0.2363 -0.4066
  183SOL    HW2  776   4.033   1.247   0.542 -0.2950  0.0615 -1.2013
  183SOL    HW3  777   3.991   1.102   0.557  1.0640 -0.1661  0.5107
  183SOL    MW4  778   3.991   1.184   0.586  0.4027  0.1601 -0.3905
  184SOL     OW  779   3.443   2.028   0.451 -0.1418 -0.2093 -0.5855
  184SOL    HW2  780   3.427   1.937   0.427 -2.5848 -0.0749  0.4101
  184SOL    HW3  781   3.405   2.037   0.538 -0.0004  1.7870 -0.7103
  184SOL    MW4  782   3.436   2.017   0.459 -0.4456  0.0718 -0.4706
  185SOL     OW  783   3.612   1.596   0.412 -0.0517 -0.1479  0.2312
  185SOL    HW2  784   3.627   1.501   0.408  1.7331  0.0677  0.9253
  185SOL    HW3  785   3.622   1.617   0.505  1.4926  0.9799 -0.1646
  185SOL    MW4  786   3.616   1.586   0.424  0.3874  0.0294  0.2706
  186SOL     OW  787   3.607   2.754   0.823  0.4739  0.1270 -0.1513
  186SOL    HW2  788   3.584   2.743   0.915  0.6231  1.2102  0.0159
  186SOL    HW3  789   3.596   2.666   0.785  0.7821 -0.4061  0.9772
  186SOL    MW4  790   3.603   2.741   0.830  0.5341  0.1996  0.0196
  187SOL     OW  791   2.833   3.104   0.446 -0.0356  0.2078 -0.0128
  187SOL    HW2  792   2.922   3.137   0.448 -0.6533  1.9277 -0.2114
  187SOL    HW3  793   2.795   3.131   0.529 -0.7485  0.6272 -0.4606
  187SOL    MW4  794   2.839   3.112   0.457 -0.2112  0.4902 -0.0981
  188SOL     OW  795   3.618   2.762   0.487  0.5042 -0.0635 -0.1838
  188SOL    HW2  796   3.594   2.696   0.552  1.9355 -0.7658 -0.3313
  188SOL    HW3  797   3.545   2.824   0.487 -0.0285 -0.6622  1.2725
  188SOL    MW4  798   3.605   2.762   0.496  0.6227 -0.2353 -0.0111
  189SOL     OW  799   2.882   2.787   0.745  0.1265  0.1734  0.0246
  189SOL    HW2  800   2.879   2.801   0.650  0.1703  0.9310  0.1337
  189SOL    HW3  801   2.958   2.730   0.758  0.3469  0.3795 -0.3521
  189SOL    MW4  802   2.892   2.781   0.734  0.1614  0.3004 -0.0107
  190SOL     OW  803   3.316   4.600   0.365 -0.0828 -0.3097 -0.4689
  190SOL    HW2  804   3.274   4.515   0.354 -1.3883  0.3294 -0.4478
  190SOL    HW3  805   3.248   4.657   0.398  1.0875  0.4678  0.6573
  190SOL    MW4  806   3.302   4.596   0.368 -0.1009 -0.1230 -0.3175
  191SOL     OW  807   2.745   3.972   0.419  0.6691 -0.2806  0.0054
  191SOL    HW2  808   2.807   3.919   0.369 -0.0661 -0.9979 -0.1715
  191SOL    HW3  809   2.660   3.929   0.404  0.1973  0.4439  0.5663
  191SOL    MW4  810   2.742   3.960   0.410  0.5100 -0.2799  0.0561
  192SOL     OW  811   3.798   3.186   0.590  0.3287 -0.0785  0.1541
  192SOL    HW2  812   3.842   3.232   0.518 -0.7813 -0.5565 -0.8605
  192SOL    HW3  813   3.812   3.093   0.570 -0.3338 -0.2202  0.3228
  192SOL    MW4  814   3.806   3.180   0.578  0.0949 -0.1602  0.0425
  193SOL     OW  815   3.813   3.499   0.251 -0.0680 -0.4511 -0.2062
  193SOL    HW2  816   3.747   3.482   0.318 -0.2382 -2.7327 -0.9182
  193SOL    HW3  817   3.764   3.507   0.170  0.3799 -0.4540 -0.4799
  193SOL    MW4  818   3.798   3.498   0.249 -0.0312 -0.7522 -0.3363
  194SOL     OW  819   2.910   3.510   0.483 -0.2009 -0.3626  0.1031
  194SOL    HW2  820   2.985   3.456   0.458  0.1522  1.3165 -2.7563
  194SOL    HW3  821   2.835   3.452   0.473  0.2848 -0.7265 -1.8145
  194SOL    MW4  822   2.910   3.495   0.478 -0.0904 -0.1888 -0.5272
  195SOL     OW  823   2.600   0.001   0.294 -0.1959 -0.2416 -0.2111
  195SOL    HW2  824   2.626  -0.026   0.206  0.6744 -0.0745 -0.0076
  195SOL    HW3  825   2.578  -0.080   0.339  0.2216 -0.4033 -0.3028
  195SOL    MW4  826   2.600  -0.013   0.288 -0.0260 -0.2408 -0.1964
  196SOL     OW  827   2.503   3.584   0.433 -0.2564  0.1124 -0.0408
  196SOL    HW2  828   2.564   3.512   0.423  0.8185  1.2948 -2.4038
  196SOL    HW3  829   2.497   3.598   0.527  0.1419 -2.4974  0.3985
  196SOL    MW4  830   2.510   3.576   0.444 -0.0622 -0.0758 -0.2946
  197SOL     OW  831   0.165   4.429   0.428 -0.1129 -0.3464 -0.6741
  197SOL    HW2  832   0.160   4.514   0.384 -1.0330 -0.3829 -0.6437
  197SOL    HW3  833   0.258   4.406   0.424  0.4976  1.6630  1.2106
  197SOL    MW4  834   0.177   4.437   0.422 -0.1538 -0.0858 -0.4214
  198SOL     OW  835   3.140   0.102   0.467  0.4571  0.3115  0.1755
  198SOL    HW2  836   3.061   0.068   0.426  0.7352 -0.3830  0.2178
  198SOL    HW3  837   3.125   0.092   0.561  0.3479  0.7385  0.2073
  198SOL    MW4  838   3.127   0.096   0.474  0.4795  0.2762  0.1853
  199SOL     OW  839   2.846   0.900   0.396 -0.2935  0.2039  0.3435
  199SOL    HW2  840   2.827   0.937   0.310 -2.2404  0.6437  0.9531
  199SOL    HW3  841   2.926   0.946   0.424 -0.8244  1.5680 -0.3307
  199SOL    MW4  842   2.854   0.911   0.389 -0.6204  0.4419  0.3349
  200SOL     OW  843   3.776   0.496   0.467 -0.1939 -0.0654 -0.6801
  200SOL    HW2  844   3.700   0.440   0.448  0.6920 -0.6727 -2.4850
  200SOL    HW3  845   3.793   0.481   0.561  0.1651 -3.0372 -1.1651
  200SOL    MW4  846   3.768   0.487   0.477 -0.0296 -0.5376 -0.9822
  201SOL     OW  847   4.102   0.403   0.485  0.2090  0.0496  0.0419
  201SOL    HW2  848   4.015   0.430   0.455  0.7446  0.0987 -1.5284
  201SOL    HW3  849   4.099   0.308   0.485 -0.1215  0.0589  0.8330
  201SOL    MW4  850   4.090   0.394   0.481  0.2360  0.0573 -0.0609
  202SOL     OW  851   4.452   0.166   0.445 -0.5941 -0.3412 -0.8212
  202SOL    HW2  852   4.481   0.133   0.530  0.0462 -1.2312 -1.3778
  202SOL    HW3  853   4.517   0.133   0.383  0.2312  2.2299 -1.3669
  202SOL    MW4  854   4.465   0.157   0.448 -0.4001 -0.1194 -0.9666
  203SOL     OW  855   3.792   0.778   0.382  0.5820 -0.2991  0.5345
  203SOL    HW2  856   3.705   0.818   0.373  0.1240 -1.3861 -0.0287
  203SOL    HW3  857   3.775   0.692   0.420  1.4749 -0.2834  0.9825
  203SOL    MW4  858   3.778   0.772   0.386  0.6394 -0.4404  0.5193
  204SOL     OW  859   4.231   0.938   0.413 -0.0430 -0.3042  0.4816
  204SOL    HW2  860   4.270   1.023   0.392 -0.0454 -0.2252  0.7966
  204SOL    HW3  861   4.301   0.889   0.456 -0.0065 -0.5036  0.1953
  204SOL    MW4  862   4.245   0.942   0.416 -0.0386 -0.3201  0.4854
  205SOL     OW  863   2.271   1.615   0.458  0.4124  0.1361  0.1249
  205SOL    HW2  864   2.189   1.577   0.427  0.4034  0.4469 -0.2391
  205SOL    HW3  865   2.289   1.686   0.397  1.1006 -0.1108  0.0350
  205SOL    MW4  866   2.262   1.619   0.446  0.5021  0.1445  0.0650
  206SOL     OW  867   3.367   1.765   0.355 -0.3173  0.0024 -0.5127
  206SOL    HW2  868   3.428   1.694   0.336  0.4498  0.4199  0.3933
  206SOL    HW3  869   3.283   1.721   0.370 -0.0509 -0.6389 -0.8874
  206SOL    MW4  870   3.364   1.750   0.354 -0.1814 -0.0272 -0.4426
  207SOL     OW  871   4.065   1.355   0.399 -0.0467  0.3447 -0.3261
  207SOL    HW2  872   3.997   1.334   0.336  0.3002  1.3286 -1.0273
  207SOL    HW3  873   4.054   1.448   0.418  1.6387  0.7344 -1.1326
  207SOL    MW4  874   4.055   1.364   0.393  0.2217  0.5260 -0.5250
  208SOL     OW  875   3.652   2.401   0.407  0.0057 -0.2224 -0.0614
  208SOL    HW2  876   3.670   2.309   0.387 -0.7384  0.0642 -2.0878
  208SOL    HW3  877   3.612   2.398   0.494 -0.2766 -1.8443 -0.2182
  208SOL    MW4  878   3.649   2.388   0.416 -0.1299 -0.3986 -0.3495
  209SOL     OW  879   3.940   3.285   0.384  0.2276 -0.0317  0.2472
  209SOL    HW2  880   3.921   3.372   0.348 -0.5147 -0.8205 -1.2937
  209SOL    HW3  881   4.030   3.291   0.414  0.8409  0.6812 -1.6771
  209SOL    MW4  882   3.949   3.297   0.383  0.2108 -0.0415 -0.2100
  210SOL     OW  883   3.126   2.656   0.799 -0.2764  0.4384  0.4200
  210SOL    HW2  884   3.216   2.688   0.792 -0.4797  0.9511  0.0771
  210SOL    HW3  885   3.132   2.562   0.784  0.3426  0.2996  1.4839
  210SOL    MW4  886   3.138   2.648   0.796 -0.2220  0.4878  0.5152
  211SOL     OW  887   2.703   4.245   0.409 -0.4994  0.3715  0.3856
  211SOL    HW2  888   2.718   4.150   0.405 -0.2688  0.2202  3.7656
  211SOL    HW3  889   2.789   4.282   0.429 -0.6696  1.2811 -0.5420
  211SOL    MW4  890   2.716   4.237   0.411 -0.4914  0.4711  0.7091
  212SOL     OW  891   3.058   2.448   0.447  0.2845  0.4909 -0.5195
  212SOL    HW2  892   2.965   2.427   0.459  0.0998  0.9291 -1.2057
  212SOL    HW3  893   3.092   2.378   0.392  0.3830  0.2959 -0.2159
  212SOL    MW4  894   3.050   2.436   0.441  0.2735  0.5231 -0.5700
  213SOL     OW  895   4.185   3.320   0.499 -0.2914 -0.3561  0.5338
  213SOL    HW2  896   4.146   3.305   0.585 -0.3714  1.4970  0.8541
  213SOL    HW3  897   4.201   3.415   0.497  1.4418 -0.6532 -0.7539
  213SOL    MW4  898   4.182   3.331   0.510 -0.0730 -0.1509  0.4061
  214SOL     OW  899   3.344   2.857   0.504  0.2395 -0.2014  0.4075
  214SOL    HW2  900   3.336   2.948   0.474  0.5385 -0.0072  0.9160
  214SOL    HW3  901   3.275   2.811   0.456  1.5147 -0.1448 -1.5623
  214SOL    MW4  902   3.334   2.863   0.494  0.4470 -0.1683  0.2148
  215SOL     OW  903   3.814   3.773   0.516  0.2302 -0.0339  0.3173
  215SOL    HW2  904   3.815   3.699   0.577 -0.1835  0.9157  1.4903
  215SOL    HW3  905   3.732   3.761   0.467 -0.0325 -0.1413  0.7732
  215SOL    MW4  906   3.803   3.762   0.518  0.1407  0.0772  0.5322
  216SOL     OW  907   3.191   2.196   0.474  0.0351 -0.1477  0.3846
  216SOL    HW2  908   3.267   2.141   0.455  0.4542  0.7684 -0.6208
  216SOL    HW3  909   3.203   2.222   0.565  1.8094  1.3475 -0.2530
  216SOL    MW4  910   3.203   2.192   0.484  0.3242  0.1705  0.1678
  217SOL     OW  911   3.402   3.600   0.493  0.0481 -0.1640  0.1124
  217SOL    HW2  912   3.457   3.523   0.476 -1.8075 -1.6921  0.8305
  217SOL    HW3  913   3.378   3.592   0.586 -1.0804  0.6701 -0.0971
  217SOL    MW4  914   3.406   3.589   0.503 -0.3457 -0.2556  0.1795
  218SOL     OW  915   4.437   3.180   0.478 -0.3572 -0.3068 -0.3232
  218SOL    HW2  916   4.483   3.250   0.432  0.5539 -1.0829 -0.5948
  218SOL    HW3  917   4.345   3.207   0.475 -0.2617 -0.1122 -2.1797
  218SOL    MW4  918   4.431   3.193   0.471 -0.2246 -0.3834 -0.6039
  219SOL     OW  919   3.371   3.119   0.424 -0.3600 -0.0215  0.3781
  219SOL    HW2  920   3.413   3.144   0.506  0.1759  0.0369  0.0873
  219SOL    HW3  921   3.429   3.154   0.356 -0.4819 -0.6028 -0.0246
  219SOL    MW4  922   3.384   3.127   0.426 -0.3057 -0.0904  0.2865
  220SOL     OW  923   3.946   4.082   0.448 -0.1202 -0.0680 -0.2765
  220SOL    HW2  924   4.020   4.049   0.398  0.3683 -0.9789  1.0065
  220SOL    HW3  925   3.957   4.177   0.449  0.0162 -0.0580 -1.6174
  220SOL    MW4  926   3.957   4.090   0.442 -0.0379 -0.1864 -0.2842
  221SOL     OW  927   4.181   0.120   0.454  0.3459 -0.0762 -0.3994
  221SOL    HW2  928   4.272   0.141   0.434  0.1269  0.6901 -0.6218
  221SOL    HW3  929   4.178   0.024   0.455  1.4776 -0.1133  1.1454
  221SOL    MW4  930   4.192   0.110   0.452  0.4659  0.0200 -0.2249
  222SOL     OW  931   0.508   0.403   0.327  0.2719 -0.5282 -0.0233
  222SOL    HW2  932   0.526   0.411   0.234 -0.4956 -1.4197 -0.2545
  222SOL    HW3  933   0.477   0.490   0.353  2.0693  0.1837 -0.2360
  222SOL    MW4  934   0.506   0.416   0.318  0.4077 -0.5519 -0.0819
  223SOL     OW  935   0.470   1.511   0.388  0.4035  0.1249  0.3174
  223SOL    HW2  936   0.565   1.498   0.386  0.6124  1.5595  0.4345
  223SOL    HW3  937   0.440   1.481   0.302  0.6138 -2.6903  1.1500
  223SOL    MW4  938   0.478   1.505   0.376  0.4588 -0.0573  0.4427
  224SOL     OW  939   4.400   0.435   0.497 -0.1561 -0.1006  0.4520
  224SOL    HW2  940   4.307   0.440   0.476 -0.3343 -0.2684  1.1922
  224SOL    HW3  941   4.423   0.342   0.485  0.2284  0.1587 -0.9951
  224SOL    MW4  942   4.391   0.423   0.493 -0.1287 -0.0885  0.3588
  225SOL     OW  943   3.993   0.929   0.508  0.5466 -0.4496 -0.3375
  225SOL    HW2  944   4.075   0.926   0.459  0.3215  1.0107 -0.8644
  225SOL    HW3  945   3.934   0.870   0.460  1.0938 -1.0083 -0.3249
  225SOL    MW4  946   3.996   0.921   0.495  0.5891 -0.3306 -0.4054
  226SOL     OW  947   3.960   4.378   0.387  0.0233 -0.5669  0.0539
  226SOL    HW2  948   3.964   4.395   0.293  2.7202  0.6078  0.3297
  226SOL    HW3  949   3.878   4.417   0.416 -0.2193  0.1666 -1.5994
  226SOL    MW4  950   3.950   4.385   0.378  0.3469 -0.3152 -0.1278
  227SOL     OW  951   0.157   0.577   0.521  0.8770 -0.4735 -0.0455
  227SOL    HW2  952   0.094   0.522   0.474  0.3136  0.3732 -0.2801
  227SOL    HW3  953   0.150   0.548   0.612 -0.9710  0.6696  0.1944
  227SOL    MW4  954   0.148   0.566   0.527  0.5589 -0.2109 -0.0448
  228SOL     OW  955   0.318   1.313   0.506  0.0048  0.0505  0.1082
  228SOL    HW2  956   0.233   1.317   0.463 -0.3159 -0.9196  0.6412
  228SOL    HW3  957   0.363   1.392   0.477 -1.0087  0.4827 -0.3172
  228SOL    MW4  958   0.313   1.324   0.497 -0.1712 -0.0205  0.1224
  229SOL     OW  959   3.663   2.134   0.309  0.4541 -0.4050 -0.3394
  229SOL    HW2  960   3.636   2.149   0.218  1.3830  0.0503 -0.5522
  229SOL    HW3  961   3.588   2.091   0.350 -0.4822  0.6181 -0.9675
  229SOL    MW4  962   3.649   2.130   0.302  0.4535 -0.2100 -0.4504
  230SOL     OW  963   4.086   1.650   0.448  0.1477  0.3449 -0.1142
  230SOL    HW2  964   3.999   1.666   0.411 -0.3493 -0.4842  0.6627
  230SOL    HW3  965   4.141   1.720   0.412 -0.9208  1.0859 -0.3276
  230SOL    MW4  966   4.082   1.662   0.438 -0.0591  0.3332 -0.0398
  231SOL     OW  967   4.408   2.095   0.414  0.3778  0.1098  0.1934
  231SOL    HW2  968   4.446   2.183   0.409  1.3664 -0.2576  1.1578
  231SOL    HW3  969   4.481   2.038   0.438 -0.7164 -0.6426  1.8092
  231SOL    MW4  970   4.423   2.099   0.416  0.3638 -0.0379  0.5338
  232SOL     OW  971   4.295   1.808   0.340 -0.0186 -0.0296  0.4895
  232SOL    HW2  972   4.322   1.899   0.352  1.5719 -0.3693 -0.2662
  232SOL    HW3  973   4.270   1.802   0.247 -0.5559 -0.2514  0.6480
  232SOL    MW4  974   4.296   1.819   0.329  0.1202 -0.1037  0.4106
  233SOL     OW  975   0.382   2.578   0.301 -0.2413  0.1113 -0.5944
  233SOL    HW2  976   0.339   2.647   0.351 -0.1370 -0.0875 -0.2250
  233SOL    HW3  977   0.313   2.514   0.283 -0.5184  0.7166 -1.6586
  233SOL    MW4  978   0.367   2.579   0.305 -0.2641  0.1647 -0.6861
  234SOL     OW  979   0.056   2.941   0.345  0.1028 -0.1825  0.6974
  234SOL    HW2  980   0.022   3.019   0.388 -0.8163  0.3841 -0.9951
  234SOL    HW3  981   0.096   2.973   0.264 -0.4825 -1.4813 -0.1325
  234SOL    MW4  982   0.057   2.955   0.340 -0.0957 -0.2792  0.3646
  235SOL     OW  983   4.134   2.198   0.386 -0.1262 -0.3608 -0.3343
  235SOL    HW2  984   4.142   2.288   0.418 -0.9915  0.0031 -1.1331
  235SOL    HW3  985   4.224   2.171   0.369  0.0326  0.8813 -1.5159
  235SOL    MW4  986   4.147   2.207   0.388 -0.2198 -0.1490 -0.5956
  236SOL     OW  987   4.452   3.207   0.751 -0.2736  0.2827  0.3224
  236SOL    HW2  988   4.544   3.184   0.768 -0.6534 -0.8674  0.8299
  236SOL    HW3  989   4.441   3.194   0.657  0.2954  1.2377  0.1032
  236SOL    MW4  990   4.463   3.203   0.741 -0.2489  0.2573  0.3604
  237SOL     OW  991   2.933   3.773   0.333 -0.1371  0.0996  0.3782
  237SOL    HW2  992   3.019   3.791   0.370  0.4286 -0.3355 -0.6787
  237SOL    HW3  993   2.909   3.688   0.369 -0.1443  0.2520  0.7273
  237SOL    MW4  994   2.941   3.764   0.342 -0.0634  0.0622  0.2848
  238SOL     OW  995   0.471   2.997   0.344  0.0053  0.0898  0.1964
  238SOL    HW2  996   0.455   3.088   0.366  0.3732  0.3831 -0.7243
  238SOL    HW3  997   0.556   2.977   0.383 -0.4688 -0.1279  1.1489
  238SOL    MW4  998   0.480   3.006   0.352 -0.0088  0.0994  0.2006
  239SOL     OW  999   3.531   3.836   0.374  0.1268 -0.1009 -0.0066
  239SOL    HW2 1000   3.488   3.770   0.429 -0.3561 -1.0602 -1.4958
  239SOL    HW3 1001   3.460   3.879   0.327  0.5923  0.1684 -0.4681
  239SOL    MW4 1002   3.516   3.833   0.375  0.1247 -0.1919 -0.2640
  240SOL     OW 1003   4.286   2.562   0.320 -0.0039 -0.6091  0.0347
  240SOL    HW2 1004   4.267   2.654   0.339  0.2350 -0.6116  0.2898
  240SOL    HW3 1005   4.219   2.536   0.256 -0.5373 -0.4627  0.5221
  240SOL    MW4 1006   4.274   2.570   0.314 -0.0424 -0.5903  0.1327
  241SOL     OW 1007   4.404   4.312   0.395  0.3386 -0.5247  0.1728
  241SOL    HW2 1008   4.340   4.376   0.424 -0.3620 -1.0761 -0.1273
  241SOL    HW3 1009   4.486   4.360   0.389 -0.4359  0.6291 -1.2478
  241SOL    MW4 1010   4.406   4.327   0.398  0.1445 -0.4454 -0.0542
  242SOL     OW 1011   4.191   4.510   0.496  0.2180 -0.3787  0.2842
  242SOL    HW2 1012   4.198   4.496   0.590 -1.2731  1.5679  0.7146
  242SOL    HW3 1013   4.110   4.466   0.470 -0.7066  1.2194  0.3843
  242SOL    MW4 1014   4.182   4.503   0.505 -0.1006  0.0887  0.3542
  243SOL     OW 1015   3.677   4.063   0.444  0.1658  0.1872 -0.1637
  243SOL    HW2 1016   3.631   3.983   0.420  0.4290  0.1367 -0.5046
  243SOL    HW3 1017   3.770   4.042   0.433  0.2981  0.1610  0.9114
  243SOL    MW4 1018   3.683   4.050   0.439  0.2179  0.1769 -0.0668
  244SOL     OW 1019   4.394   4.027   0.464  0.6421  0.2748 -0.4601
  244SOL    HW2 1020   4.405   4.005   0.557  0.2680 -0.0799 -0.4958
  244SOL    HW3 1021   4.412   4.120   0.458 -1.0051  0.6430  0.2488
  244SOL    MW4 1022   4.398   4.036   0.475  0.3753  0.2770 -0.3713
  245SOL     OW 1023   0.251   4.651   0.815  0.0302 -0.3111 -0.4983
  245SOL    HW2 1024   0.231   4.564   0.782 -0.2885 -0.0747 -0.9416
  245SOL    HW3 1025   0.175   4.704   0.790 -0.8493 -0.4100  1.7968
  245SOL    MW4 1026   0.238   4.647   0.807 -0.1279 -0.2928 -0.2539
  246SOL     OW 1027   0.014   0.117   0.734  0.2591 -0.3812 -0.0960
  246SOL    HW2 1028  -0.057   0.070   0.777  0.4997 -0.2545  0.4428
  246SOL    HW3 1029   0.004   0.208   0.765 -0.5797  0.0642 -1.5971
  246SOL    MW4 1030   0.003   0.123   0.743  0.1802 -0.3057 -0.2229
  247SOL     OW 1031   0.016   0.366   0.859 -0.3358  0.1121 -0.3176
  247SOL    HW2 1032   0.003   0.364   0.954 -0.3219  0.8971 -0.2972
  247SOL    HW3 1033   0.091   0.424   0.846 -1.2295  1.1424 -0.9089
  247SOL    MW4 1034   0.024   0.373   0.870 -0.4519  0.3516 -0.3929
  248SOL     OW 1035   0.214   0.568   0.800 -0.1862 -0.3246 -0.1251
  248SOL    HW2 1036   0.283   0.503   0.814  0.3967  0.1493 -0.8093
  248SOL    HW3 1037   0.207   0.613   0.884  0.4305 -0.2850 -0.0891
  248SOL    MW4 1038   0.222   0.565   0.813 -0.0280 -0.2568 -0.2106
  249SOL     OW 1039   0.215   0.836   0.706 -0.0317 -0.2368  0.0009
  249SOL    HW2 1040   0.209   0.743   0.729 -2.8014  0.4306  2.3415
  249SOL    HW3 1041   0.144   0.850   0.643 -0.0548  0.4192  0.1665
  249SOL    MW4 1042   0.205   0.826   0.701 -0.4002 -0.0623  0.3316
  250SOL     OW 1043   4.440   0.807   0.568 -0.0273 -0.1117 -0.5646
  250SOL    HW2 1044   4.406   0.763   0.646  0.5819  0.9717  0.3181
  250SOL    HW3 1045   4.470   0.736   0.511 -1.3659 -0.9499 -0.2396
  250SOL    MW4 1046   4.439   0.792   0.571 -0.1240 -0.0794 -0.4052
  251SOL     OW 1047   0.076   1.077   0.819  0.0446 -0.1971 -0.0064
  251SOL    HW2 1048   0.038   1.071   0.906 -0.4254 -0.0042 -0.2000
  251SOL    HW3 1049   0.089   0.986   0.792 -1.0317 -0.2788 -0.2708
  251SOL    MW4 1050   0.073   1.064   0.827 -0.1594 -0.1823 -0.0668
  252SOL     OW 1051   0.298   1.251   0.807  0.6526  0.0116  0.0891
  252SOL    HW2 1052   0.227   1.187   0.805  0.2581  0.4426  0.2183
  252SOL    HW3 1053   0.312   1.274   0.716  0.2357  0.3582  0.1140
  252SOL    MW4 1054   0.290   1.245   0.795  0.5455  0.1142  0.1094
  253SOL     OW 1055   0.212   1.519   0.830  0.0846  0.0289 -0.6311
  253SOL    HW2 1056   0.292   1.566   0.808  0.2163  0.9307  1.6277
  253SOL    HW3 1057   0.234   1.426   0.820  1.3660  0.2790 -0.1912
  253SOL    MW4 1058   0.225   1.513   0.826  0.2710  0.1810 -0.2750
  254SOL     OW 1059   4.488   1.644   0.704  0.0611 -0.0446 -0.0870
  254SOL    HW2 1060   4.412   1.595   0.736  0.0738  1.5141  2.3983
  254SOL    HW3 1061   4.563   1.600   0.744  0.4415 -0.9810 -1.7720
  254SOL    MW4 1062   4.488   1.632   0.713  0.1125  0.0374  0.0186
  255SOL     OW 1063   4.448   1.905   0.800  0.3240 -0.4474  0.1701
  255SOL    HW2 1064   4.537   1.942   0.795  0.2046 -0.0267  1.0530
  255SOL    HW3 1065   4.456   1.817   0.763  0.7145  0.2881 -1.5477
  255SOL    MW4 1066   4.461   1.899   0.794  0.3595 -0.2949  0.0599
  256SOL     OW 1067   0.222   1.982   0.733  0.3854  0.5567 -0.2574
  256SOL    HW2 1068   0.221   2.078   0.731 -1.4182  0.5582 -0.0217
  256SOL    HW3 1069   0.211   1.956   0.641 -2.7605  0.6182  0.0255
  256SOL    MW4 1070   0.220   1.991   0.720 -0.2676  0.5651 -0.1890
  257SOL     OW 1071   0.237   2.249   0.797  0.3755 -0.3861 -0.1785
  257SOL    HW2 1072   0.228   2.287   0.885 -2.2702  2.2294 -1.4764
  257SOL    HW3 1073   0.317   2.288   0.763  1.9287 -2.1283  1.3501
  257SOL    MW4 1074   0.246   2.259   0.804  0.2314 -0.2708 -0.1481
  258SOL     OW 1075   0.032   2.420   0.681 -0.3880  0.1999 -0.0249
  258SOL    HW2 1076  -0.042   2.369   0.712 -0.0480  0.3287  1.0237
  258SOL    HW3 1077   0.109   2.371   0.709 -0.0705  0.6305 -0.1316
  258SOL    MW4 1078   0.033   2.407   0.688 -0.3012  0.2739  0.0994
  259SOL     OW 1079   0.001   2.694   0.773  0.1041  0.3226  0.4419
  259SOL    HW2 1080   0.000   2.688   0.868 -0.0410  0.4598  0.4485
  259SOL    HW3 1081   0.003   2.603   0.743  1.8166  0.2911  0.5921
  259SOL    MW4 1082   0.001   2.681   0.781  0.3114  0.3366  0.4625
  260SOL     OW 1083   0.280   2.789   0.712 -0.0997  0.3588  0.3613
  260SOL    HW2 1084   0.186   2.772   0.721 -0.3127  0.5853 -1.3356
  260SOL    HW3 1085   0.295   2.792   0.618  1.9582 -1.5449  0.5828
  260SOL    MW4 1086   0.270   2.787   0.701  0.1437  0.1373  0.1667
  261SOL     OW 1087   0.232   3.038   0.794  0.3716  0.3214 -0.0807
  261SOL    HW2 1088   0.233   3.037   0.890 -1.0326  0.4777 -0.0545
  261SOL    HW3 1089   0.270   2.954   0.769  0.4477  0.1396  0.6159
  261SOL    MW4 1090   0.237   3.027   0.804  0.1964  0.3178  0.0146
  262SOL     OW 1091   4.236   3.055   0.831  0.2773  0.3774  0.3245
  262SOL    HW2 1092   4.314   3.106   0.807  0.1297 -0.1625 -1.3998
  262SOL    HW3 1093   4.162   3.109   0.803  0.0360  0.7740  1.7233
  262SOL    MW4 1094   4.237   3.069   0.824  0.2255  0.3583  0.2816
  263SOL     OW 1095   4.470   3.472   0.822  0.2807 -0.0628 -0.0629
  263SOL    HW2 1096   4.398   3.521   0.783 -1.1244 -1.7387  0.3567
  263SOL    HW3 1097   4.462   3.384   0.785  1.0326 -0.7470  1.3477
  263SOL    MW4 1098   4.460   3.467   0.812  0.1945 -0.3746  0.1786
  264SOL     OW 1099   0.212   3.609   0.800  0.3012  0.2875  0.0106
  264SOL    HW2 1100   0.129   3.564   0.814  1.3247 -1.5027  0.4756
  264SOL    HW3 1101   0.223   3.609   0.705  1.5847 -2.9392  0.0990
  264SOL    MW4 1102   0.203   3.603   0.789  0.6056 -0.3746  0.0836
  265SOL     OW 1103   0.190   3.876   0.857  0.6288  0.5878 -0.1190
  265SOL    HW2 1104   0.207   3.877   0.951  0.4735 -0.5791 -0.0652
  265SOL    HW3 1105   0.188   3.783   0.834  0.5295  0.8573 -1.2520
  265SOL    MW4 1106   0.192   3.864   0.866  0.5952  0.4692 -0.2614
  266SOL     OW 1107   4.480   4.011   0.755 -0.4581 -0.2523  0.2711
  266SOL    HW2 1108   4.411   3.951   0.784  0.0875 -0.0939  1.9098
  266SOL    HW3 1109   4.561   3.967   0.781 -0.0424  1.0402  1.1865
  266SOL    MW4 1110   4.481   3.997   0.762 -0.3314 -0.0608  0.6080
  267SOL     OW 1111   4.252   4.438   0.751  0.1447 -0.0473  0.1933
  267SOL    HW2 1112   4.273   4.517   0.801 -1.0324 -0.0418  0.6721
  267SOL    HW3 1113   4.325   4.379   0.769  0.4499  0.4889  0.7540
  267SOL    MW4 1114   4.265   4.441   0.760  0.0300  0.0238  0.3305
  268SOL     OW 1115   0.187   4.401   0.715 -0.1730  0.6400 -0.1213
  268SOL    HW2 1116   0.107   4.355   0.740 -0.3822  0.8585 -0.3789
  268SOL    HW3 1117   0.176   4.417   0.621 -0.5136  2.0326  0.1502
  268SOL    MW4 1118   0.175   4.397   0.706 -0.2455  0.8521 -0.1195
  269SOL     OW 1119   0.684   4.629   0.808  0.2220 -0.1138  0.4175
  269SOL    HW2 1120   0.690   4.640   0.903  0.4925  1.2772  0.2487
  269SOL    HW3 1121   0.623   4.698   0.780  0.6971 -0.0676 -0.4987
  269SOL    MW4 1122   0.676   4.640   0.817  0.3204  0.0753  0.2744
  270SOL     OW 1123   0.479   0.127   0.771 -0.1296 -0.3401 -0.1326
  270SOL    HW2 1124   0.402   0.075   0.792  0.6179 -1.4999 -0.2175
  270SOL    HW3 1125   0.473   0.143   0.677 -0.6448  0.2046 -0.0094
  270SOL    MW4 1126   0.468   0.123   0.761 -0.0990 -0.4213 -0.1276
  271SOL     OW 1127   0.436   0.393   0.821  0.3668  0.0626  0.5959
  271SOL    HW2 1128   0.512   0.444   0.793 -0.3375  0.5730 -0.3864
  271SOL    HW3 1129   0.450   0.306   0.783  0.2206  0.2939  0.0126
  271SOL    MW4 1130   0.448   0.388   0.812  0.2546  0.1604  0.3893
  272SOL     OW 1131   0.669   0.502   0.729 -0.2287 -0.5268  0.0767
  272SOL    HW2 1132   0.734   0.446   0.771 -0.3883 -0.4191  0.4638
  272SOL    HW3 1133   0.695   0.502   0.636  0.8667  0.2536  0.3647
  272SOL    MW4 1134   0.681   0.495   0.722 -0.1053 -0.4096  0.1657
  273SOL     OW 1135   0.673   0.782   0.746 -0.1813  0.0437 -0.3257
  273SOL    HW2 1136   0.600   0.807   0.689 -0.8215  0.2086  0.5607
  273SOL    HW3 1137   0.687   0.689   0.727 -2.2267 -0.6380  1.2301
  273SOL    MW4 1138   0.665   0.773   0.736 -0.5357 -0.0245 -0.0035
  274SOL     OW 1139   0.455   0.857   0.586 -0.0613 -0.0206  0.2216
  274SOL    HW2 1140   0.446   0.931   0.526  1.6995  1.0795  1.2602
  274SOL    HW3 1141   0.370   0.850   0.629 -0.1207  1.6906  0.4115
  274SOL    MW4 1142   0.443   0.866   0.584  0.1632  0.3503  0.3837
  275SOL     OW 1143   0.599   1.327   0.761 -0.3204 -0.2823 -0.2051
  275SOL    HW2 1144   0.614   1.420   0.778 -0.6195 -0.1280 -0.7609
  275SOL    HW3 1145   0.521   1.305   0.813  0.3312 -0.4657  0.6968
  275SOL    MW4 1146   0.590   1.336   0.770 -0.2739 -0.2861 -0.1594
  276SOL     OW 1147   0.660   1.224   0.516 -0.3304 -0.4162  0.1698
  276SOL    HW2 1148   0.638   1.260   0.601 -0.4207 -0.0348 -0.0151
  276SOL    HW3 1149   0.581   1.179   0.487 -0.2622 -0.6436  0.3391
  276SOL    MW4 1150   0.647   1.223   0.523 -0.3332 -0.3960  0.1677
  277SOL     OW 1151   0.671   1.602   0.790  0.1113 -0.2578 -0.0716
  277SOL    HW2 1152   0.658   1.579   0.883  0.5878  0.6894  0.2368
  277SOL    HW3 1153   0.583   1.625   0.759 -0.1169 -0.9624  0.0311
  277SOL    MW4 1154   0.657   1.602   0.798  0.1441 -0.2258 -0.0173
  278SOL     OW 1155   0.422   1.676   0.738  0.1478  0.4968  0.0358
  278SOL    HW2 1156   0.437   1.756   0.788 -0.4647  0.5004  0.2163
  278SOL    HW3 1157   0.390   1.707   0.653 -1.6002  0.3953  0.6468
  278SOL    MW4 1158   0.420   1.691   0.733 -0.1637  0.4839  0.1402
  279SOL     OW 1159   0.456   1.929   0.843  0.6513 -0.3768 -0.1254
  279SOL    HW2 1160   0.458   1.934   0.938 -0.0304 -1.0576 -0.0727
  279SOL    HW3 1161   0.367   1.954   0.819  0.9142  0.1133 -0.6062
  279SOL    MW4 1162   0.445   1.933   0.852  0.5960 -0.4021 -0.1819
  280SOL     OW 1163   0.642   2.077   0.693  0.1450 -0.1920  0.0791
  280SOL    HW2 1164   0.572   2.023   0.729  1.3232 -1.4133  0.5615
  280SOL    HW3 1165   0.618   2.088   0.601  0.1446 -1.9361 -0.1343
  280SOL    MW4 1166   0.629   2.072   0.685  0.3004 -0.5832  0.1147
  281SOL     OW 1167   0.714   2.319   0.815  0.2193  0.2019 -0.1000
  281SOL    HW2 1168   0.721   2.318   0.910  0.0490  0.6704 -0.0801
  281SOL    HW3 1169   0.707   2.227   0.790 -0.6889  0.1237  0.4185
  281SOL    MW4 1170   0.714   2.307   0.824  0.0771  0.2534 -0.0290
  282SOL     OW 1171   0.479   2.384   0.684 -0.3934  0.0449  0.0310
  282SOL    HW2 1172   0.563   2.371   0.729 -0.2910  0.2453 -0.1019
  282SOL    HW3 1173   0.501   2.379   0.591 -0.4505  0.5666 -0.0130
  282SOL    MW4 1174   0.493   2.381   0.678 -0.3874  0.1402  0.0076
  283SOL     OW 1175   0.502   2.640   0.790  0.5530 -0.3661  0.6701
  283SOL    HW2 1176   0.480   2.557   0.747  1.1143  0.0109 -0.3642
  283SOL    HW3 1177   0.429   2.697   0.769  1.3498  0.1573 -0.7459
  283SOL    MW4 1178   0.490   2.636   0.781  0.7322 -0.2470  0.3468
  284SOL     OW 1179   0.704   2.869   0.735 -0.2771  0.3859  0.1451
  284SOL    HW2 1180   0.783   2.824   0.764  0.1452  0.8831 -0.2201
  284SOL    HW3 1181   0.634   2.805   0.750  0.1710 -0.0163  0.5787
  284SOL    MW4 1182   0.705   2.854   0.741 -0.1622  0.3986  0.1543
  285SOL     OW 1183   0.593   3.100   0.864  0.7647 -0.0962  0.3213
  285SOL    HW2 1184   0.533   3.145   0.804  1.2052  0.2433  0.1289
  285SOL    HW3 1185   0.621   3.022   0.815 -0.0979 -0.6458  0.7048
  285SOL    MW4 1186   0.589   3.096   0.849  0.7090 -0.1237  0.3465
  286SOL     OW 1187   0.411   3.236   0.717  0.8085  0.2632  0.1296
  286SOL    HW2 1188   0.415   3.303   0.786  0.3768 -0.6232  1.0313
  286SOL    HW3 1189   0.353   3.169   0.752  2.4628 -1.3383 -0.0915
  286SOL    MW4 1190   0.404   3.236   0.731  0.9699 -0.0648  0.2194
  287SOL     OW 1191   0.392   3.442   0.914  0.3265  0.2457  0.2869
  287SOL    HW2 1192   0.410   3.467   1.005 -2.3137 -0.9731  1.1767
  287SOL    HW3 1193   0.331   3.509   0.882 -0.6080 -0.6514  0.1766
  287SOL    MW4 1194   0.386   3.455   0.922 -0.1451 -0.0334  0.3898
  288SOL     OW 1195   0.581   3.611   0.748  0.0479 -0.3832 -0.2295
  288SOL    HW2 1196   0.518   3.569   0.807 -0.3740 -1.7709 -1.6237
  288SOL    HW3 1197   0.606   3.692   0.793  0.1097 -1.6354  2.0632
  288SOL    MW4 1198   0.576   3.616   0.762  0.0004 -0.7315 -0.1109
  289SOL     OW 1199   0.629   3.844   0.859 -0.6883 -0.3585 -0.1651
  289SOL    HW2 1200   0.703   3.896   0.827 -1.6713  1.9515  1.2107
  289SOL    HW3 1201   0.551   3.889   0.826 -1.5458 -2.2315 -0.8038
  289SOL    MW4 1202   0.628   3.857   0.850 -0.9311 -0.3011 -0.0678
  290SOL     OW 1203   0.440   4.032   0.739  0.2628  0.0199  0.2766
  290SOL    HW2 1204   0.444   4.125   0.758 -0.9453  0.1528 -0.0517
  290SOL    HW3 1205   0.353   4.005   0.769  0.7773 -1.1004  0.8054
  290SOL    MW4 1206   0.429   4.041   0.745  0.1713 -0.1101  0.3031
  291SOL     OW 1207   0.429   4.310   0.791  0.2490 -0.1783 -0.4002
  291SOL    HW2 1208   0.432   4.321   0.886  0.8919  1.2398 -0.5684
  291SOL    HW3 1209   0.345   4.349   0.765 -0.4554 -1.6017 -0.2996
  291SOL    MW4 1210   0.418   4.316   0.800  0.2409 -0.1783 -0.4091
  292SOL     OW 1211   0.653   4.384   0.681 -0.4509 -0.1875 -0.2577
  292SOL    HW2 1212   0.570   4.365   0.725 -0.0096 -0.7614  0.3369
  292SOL    HW3 1213   0.678   4.470   0.714 -0.9688  0.1276 -0.6833
  292SOL    MW4 1214   0.646   4.393   0.691 -0.4610 -0.2217 -0.2354
  293SOL     OW 1215   1.111   4.637   0.821  0.3787 -0.0454  0.0190
  293SOL    HW2 1216   1.190   4.682   0.792  0.4063 -1.4107 -2.1313
  293SOL    HW3 1217   1.039   4.689   0.785  0.4007 -1.2577 -1.8546
  293SOL    MW4 1218   1.112   4.650   0.813  0.3853 -0.3848 -0.5119
  294SOL     OW 1219   0.898   0.134   0.733  0.2519  0.2830  0.3693
  294SOL    HW2 1220   0.900   0.203   0.799  1.6237 -0.2615  0.9319
  294SOL    HW3 1221   0.837   0.069   0.768  0.1573  0.4954  0.5957
  294SOL    MW4 1222   0.890   0.134   0.747  0.4205  0.2392  0.4734
  295SOL     OW 1223   0.893   0.358   0.873 -0.1638  0.1361 -0.0172
  295SOL    HW2 1224   0.916   0.373   0.965 -0.6412  2.6167 -0.2718
  295SOL    HW3 1225   0.958   0.408   0.823 -0.9031  0.1498 -0.9832
  295SOL    MW4 1226   0.905   0.367   0.879 -0.3243  0.4652 -0.1783
  296SOL     OW 1227   1.062   0.506   0.703  0.0497  0.3394  0.5482
  296SOL    HW2 1228   1.148   0.477   0.736  0.9941  2.3444 -0.0699
  296SOL    HW3 1229   1.067   0.491   0.608 -0.4737  0.0040  0.5735
  296SOL    MW4 1230   1.074   0.500   0.695  0.1054  0.5597  0.4700
  297SOL     OW 1231   1.115   0.803   0.777  0.2048 -0.0450  0.5539
  297SOL    HW2 1232   1.110   0.783   0.870 -0.2738 -0.0206  0.5341
  297SOL    HW3 1233   1.127   0.717   0.735 -0.2778 -0.1332  0.5878
  297SOL    MW4 1234   1.116   0.789   0.784  0.0778 -0.0533  0.5558
  298SOL     OW 1235   0.887   0.965   0.752  0.0485 -0.3810  0.2510
  298SOL    HW2 1236   0.968   0.918   0.771  0.3249 -0.7654 -1.7382
  298SOL    HW3 1237   0.819   0.897   0.755  0.1086 -0.4627 -0.2490
  298SOL    MW4 1238   0.889   0.950   0.755  0.0929 -0.4424 -0.0774
  299SOL     OW 1239   0.863   1.228   0.830 -0.2109 -0.2628 -0.4135
  299SOL    HW2 1240   0.860   1.136   0.806 -0.1038 -0.0097 -1.4145
  299SOL    HW3 1241   0.779   1.263   0.801 -0.7211 -0.2944  1.0056
  299SOL    MW4 1242   0.852   1.221   0.823 -0.2640 -0.2335 -0.3583
  300SOL     OW 1243   1.350   0.928   0.690 -0.0551 -0.2772  0.2925
  300SOL    HW2 1244   1.266   0.891   0.718 -0.9366 -0.4154 -2.3800
  300SOL    HW3 1245   1.356   1.012   0.735 -0.9539 -0.8999  1.5921
  300SOL    MW4 1246   1.340   0.934   0.700 -0.2900 -0.3777  0.1114
  301SOL     OW 1247   1.114   1.561   0.809  0.6109  0.2635  0.3146
  301SOL    HW2 1248   1.042   1.591   0.752 -0.0550  1.6170  1.8395
  301SOL    HW3 1249   1.126   1.469   0.786 -2.0101 -0.1410  0.4485
  301SOL    MW4 1250   1.106   1.553   0.798  0.1773  0.3889  0.5335
  302SOL     OW 1251   0.894   1.686   0.655 -0.1237 -0.1037  0.3900
  302SOL    HW2 1252   0.895   1.775   0.689  1.0179 -0.3149  0.9473
  302SOL    HW3 1253   0.818   1.645   0.695 -0.7962  0.6906 -0.0646
  302SOL    MW4 1254   0.884   1.693   0.665 -0.0618 -0.0268  0.4035
  303SOL     OW 1255   0.868   1.926   0.792  0.2181  0.1447 -0.3860
  303SOL    HW2 1256   0.867   1.922   0.887 -1.2676 -1.5267 -0.4438
  303SOL    HW3 1257   0.784   1.965   0.768  1.1299  1.7906 -0.9919
  303SOL    MW4 1258   0.857   1.931   0.801  0.1423  0.1413 -0.4736
  304SOL     OW 1259   1.098   2.031   0.698 -0.1419 -0.0925 -0.7485
  304SOL    HW2 1260   1.104   2.113   0.747 -0.2047 -2.1163  2.8864
  304SOL    HW3 1261   1.014   1.993   0.726  0.5013 -2.0030 -1.3295
  304SOL    MW4 1262   1.088   2.037   0.708 -0.0652 -0.6115 -0.3455
  305SOL     OW 1263   1.126   2.270   0.807  0.0144  0.2985  0.1969
  305SOL    HW2 1264   1.126   2.306   0.895 -2.4653  1.3057 -0.1828
  305SOL    HW3 1265   1.204   2.307   0.765  0.1115  1.3745  1.3258
  305SOL    MW4 1266   1.136   2.279   0.813 -0.2999  0.5734  0.2957
  306SOL     OW 1267   0.924   2.458   0.726 -0.2826 -0.4984  0.2938
  306SOL    HW2 1268   1.004   2.408   0.740 -1.1173 -1.5541  1.4196
  306SOL    HW3 1269   0.854   2.400   0.758 -1.2519  1.4711  1.7836
  306SOL    MW4 1270   0.925   2.443   0.732 -0.5206 -0.3781  0.6389
  307SOL     OW 1271   0.942   2.722   0.804 -0.0241  0.5106 -0.1980
  307SOL    HW2 1272   0.936   2.731   0.899  0.0244  0.7927 -0.2217
  307SOL    HW3 1273   0.949   2.627   0.789  1.2083  0.5342  0.1534
  307SOL    MW4 1274   0.943   2.710   0.814  0.1448  0.5510 -0.1547
  308SOL     OW 1275   1.156   2.862   0.730  0.4578 -0.1325 -0.2443
  308SOL    HW2 1276   1.082   2.815   0.768 -0.6393  1.4734 -0.3832
  308SOL    HW3 1277   1.145   2.851   0.635 -0.5253  1.4838 -0.3264
  308SOL    MW4 1278   1.145   2.854   0.722  0.1833  0.2925 -0.2735
  309SOL     OW 1279   1.120   3.116   0.822  0.2070 -0.2410  0.0642
  309SOL    HW2 1280   1.027   3.136   0.826  0.6777  2.0521  0.0141
  309SOL    HW3 1281   1.124   3.028   0.784 -1.9999 -1.1239  1.7334
  309SOL    MW4 1282   1.108   3.107   0.818 -0.0219 -0.0548  0.2778
  310SOL     OW 1283   0.858   3.188   0.811 -0.4205  0.0169 -0.1834
  310SOL    HW2 1284   0.858   3.283   0.815 -1.5537  0.0737 -1.1825
  310SOL    HW3 1285   0.778   3.162   0.856  0.3256 -0.5242  0.8679
  310SOL    MW4 1286   0.847   3.197   0.817 -0.4716 -0.0472 -0.1765
  311SOL     OW 1287   0.843   3.474   0.840 -0.1425 -0.0503  0.3605
  311SOL    HW2 1288   0.915   3.532   0.815  0.7099 -0.7096  1.2486
  311SOL    HW3 1289   0.764   3.519   0.810  0.7292  0.0486 -1.8128
  311SOL    MW4 1290   0.842   3.488   0.833  0.0850 -0.1245  0.1909
  312SOL     OW 1291   1.071   3.614   0.751  0.2807  0.0098  0.2626
  312SOL    HW2 1292   1.156   3.580   0.778  0.0861 -0.6946 -0.0215
  312SOL    HW3 1293   1.074   3.614   0.655 -0.2472 -0.5410  0.2440
  312SOL    MW4 1294   1.083   3.610   0.742  0.1854 -0.1554  0.2226
  313SOL     OW 1295   1.073   3.890   0.812 -0.3764  0.4781  0.2593
  313SOL    HW2 1296   1.092   3.896   0.906 -2.1023  0.1771  0.6428
  313SOL    HW3 1297   1.068   3.796   0.794 -3.4548  0.5362  0.6046
  313SOL    MW4 1298   1.075   3.879   0.822 -1.0103  0.4458  0.3554
  314SOL     OW 1299   0.827   3.998   0.764  0.1701  0.3101  0.2439
  314SOL    HW2 1300   0.841   4.081   0.810  0.7921 -0.2654  1.1160
  314SOL    HW3 1301   0.913   3.955   0.765  0.3631  0.5421 -2.0094
  314SOL    MW4 1302   0.840   4.003   0.770  0.2776  0.2646  0.0616
  315SOL     OW 1303   0.834   4.263   0.848  0.4740 -0.0788  0.3843
  315SOL    HW2 1304   0.919   4.299   0.823  0.5944 -0.2853  0.4988
  315SOL    HW3 1305   0.771   4.308   0.790  0.4072  1.6345  1.7313
  315SOL    MW4 1306   0.837   4.274   0.837  0.4811  0.1197  0.5771
  316SOL     OW 1307   1.071   4.361   0.750  0.0672  0.3946 -0.0595
  316SOL    HW2 1308   1.153   4.317   0.773 -0.7160 -0.7556  0.5859
  316SOL    HW3 1309   1.093   4.455   0.753  1.2783  0.1118  0.4075
  316SOL    MW4 1310   1.085   4.368   0.754  0.1237  0.2055  0.0873
  317SOL     OW 1311   1.594   0.008   0.868 -0.0002  0.5560  0.2109
  317SOL    HW2 1312   1.583   0.007   0.963  0.7155  0.2419  0.2883
  317SOL    HW3 1313   1.509   0.037   0.834 -0.2769  0.5884  0.9411
  317SOL    MW4 1314   1.581   0.012   0.876  0.0578  0.5188  0.3174
  318SOL     OW 1315   1.339   0.080   0.753  0.1709 -0.3186  0.1945
  318SOL    HW2 1316   1.329   0.175   0.758 -2.2979 -0.4510 -1.4557
  318SOL    HW3 1317   1.333   0.061   0.659  2.7494 -1.9180  0.3040
  318SOL    MW4 1318   1.337   0.090   0.741  0.1855 -0.5471 -0.0088
  319SOL     OW 1319   1.290   0.359   0.794 -0.1189 -0.1852 -0.0843
  319SOL    HW2 1320   1.294   0.370   0.889 -2.0391  1.1939 -0.1250
  319SOL    HW3 1321   1.364   0.409   0.761 -0.5761  0.9354  0.5778
  319SOL    MW4 1322   1.300   0.367   0.802 -0.4325  0.1446 -0.0023
  320SOL     OW 1323   1.510   0.498   0.699  0.0600 -0.1214 -0.1677
  320SOL    HW2 1324   1.510   0.582   0.745 -0.2916  0.0508 -0.4754
  320SOL    HW3 1325   1.590   0.454   0.729  0.5412  0.5552 -0.4243
  320SOL    MW4 1326   1.521   0.503   0.709  0.0771 -0.0095 -0.2422
  321SOL     OW 1327   1.556   0.745   0.818  0.4089  0.2235  0.0376
  321SOL    HW2 1328   1.638   0.790   0.800  0.6962 -0.0438  0.6496
  321SOL    HW3 1329   1.491   0.791   0.765  1.2146 -0.5511 -1.6530
  321SOL    MW4 1330   1.558   0.757   0.809  0.5531  0.0861 -0.1047
  322SOL     OW 1331   1.363   0.939   0.406 -0.3341 -0.0610 -0.3542
  322SOL    HW2 1332   1.438   0.883   0.386 -1.4930 -2.0733  0.7492
  322SOL    HW3 1333   1.354   0.935   0.501 -1.5505  0.5251 -0.4263
  322SOL    MW4 1334   1.372   0.931   0.416 -0.6475 -0.2491 -0.2181
  323SOL     OW 1335   1.364   1.151   0.838  0.4545 -0.1120 -0.1463
  323SOL    HW2 1336   1.438   1.198   0.799 -0.0407  0.3299 -0.5614
  323SOL    HW3 1337   1.287   1.193   0.800  0.0042 -1.2484 -0.5093
  323SOL    MW4 1338   1.364   1.162   0.828  0.3297 -0.2035 -0.2490
  324SOL     OW 1339   1.562   1.263   0.695 -0.1321  0.6048  0.5330
  324SOL    HW2 1340   1.556   1.359   0.699 -0.2261  0.7872 -2.7442
  324SOL    HW3 1341   1.533   1.241   0.606  1.7957 -2.3194  0.5708
  324SOL    MW4 1342   1.557   1.273   0.684  0.1098  0.2428  0.1056
  325SOL     OW 1343   1.586   1.537   0.762 -0.0623 -0.2502  0.3960
  325SOL    HW2 1344   1.586   1.528   0.857 -0.2579  2.4216  0.6972
  325SOL    HW3 1345   1.499   1.569   0.741 -0.4083 -1.9237 -0.8391
  325SOL    MW4 1346   1.575   1.540   0.771 -0.1336 -0.1185  0.2728
  326SOL     OW 1347   1.356   1.651   0.687  0.1623  0.6006 -0.0682
  326SOL    HW2 1348   1.368   1.735   0.731  0.7676 -0.3079  1.5800
  326SOL    HW3 1349   1.268   1.624   0.712 -0.4668  1.2490 -1.5241
  326SOL    MW4 1350   1.346   1.658   0.696  0.1590  0.5664 -0.0428
  327SOL     OW 1351   1.344   1.906   0.784 -0.1513  0.1475 -0.5013
  327SOL    HW2 1352   1.334   1.920   0.878  0.8527 -0.9590 -0.2131
  327SOL    HW3 1353   1.265   1.942   0.746 -0.3176  1.1131  0.7256
  327SOL    MW4 1354   1.332   1.912   0.792 -0.0408  0.1287 -0.3014
  328SOL     OW 1355   1.545   2.065   0.668 -0.3881 -0.1471 -0.2306
  328SOL    HW2 1356   1.476   2.027   0.723 -1.8934  1.9660 -0.5661
  328SOL    HW3 1357   1.519   2.043   0.579 -0.1764 -0.0754 -0.3100
  328SOL    MW4 1358   1.532   2.057   0.664 -0.5589  0.1414 -0.2854
  329SOL     OW 1359   1.535   2.301   0.808 -0.3054  0.1642  0.3458
  329SOL    HW2 1360   1.458   2.351   0.778 -0.0974  0.2243 -0.0917
  329SOL    HW3 1361   1.547   2.233   0.742  1.7198  1.8789 -1.1130
  329SOL    MW4 1362   1.526   2.299   0.796 -0.0108  0.3982  0.0955
  330SOL     OW 1363   1.327   2.463   0.725  0.9389  0.4318  0.2208
  330SOL    HW2 1364   1.366   2.547   0.751  1.0772  0.2523  0.5986
  330SOL    HW3 1365   1.307   2.474   0.632 -3.0556  2.4322  1.1810
  330SOL    MW4 1366   1.330   2.476   0.716  0.4301  0.6723  0.3973
  331SOL     OW 1367   1.388   2.720   0.850 -0.4385 -0.1479  0.3230
  331SOL    HW2 1368   1.370   2.712   0.944 -0.4584  0.3190  0.3597
  331SOL    HW3 1369   1.319   2.778   0.817 -1.5638 -1.8157 -0.3302
  331SOL    MW4 1370   1.377   2.727   0.858 -0.5895 -0.3064  0.2416
  332SOL     OW 1371   1.609   2.813   0.727  0.4380  0.1084 -0.2264
  332SOL    HW2 1372   1.618   2.903   0.758  0.1098  0.7732 -1.9820
  332SOL    HW3 1373   1.525   2.783   0.762 -0.9092  1.5554 -2.1159
  332SOL    MW4 1374   1.599   2.821   0.735  0.2168  0.3872 -0.7073
  333SOL     OW 1375   1.607   3.079   0.801  0.2100 -0.0021 -0.3196
  333SOL    HW2 1376   1.593   3.068   0.894 -1.5404 -0.2417 -0.6042
  333SOL    HW3 1377   1.551   3.152   0.776 -2.9291 -2.8278 -2.0134
  333SOL    MW4 1378   1.598   3.087   0.810 -0.4352 -0.4063 -0.5807
  334SOL     OW 1379   1.478   3.316   0.701  0.5342  0.2872 -0.0974
  334SOL    HW2 1380   1.390   3.286   0.678  1.3751 -1.6296 -0.8979
  334SOL    HW3 1381   1.521   3.334   0.618  1.2846  0.1121  0.2460
  334SOL    MW4 1382   1.472   3.315   0.687  0.7441  0.0112 -0.1577
  335SOL     OW 1383   1.343   3.537   0.804  0.7802  0.2159 -0.4596
  335SOL    HW2 1384   1.383   3.623   0.813  0.1350  0.5393 -0.6427
  335SOL    HW3 1385   1.416   3.478   0.785  1.5258  0.3119  1.9502
  335SOL    MW4 1386   1.358   3.541   0.802  0.7935  0.2713 -0.1658
  336SOL     OW 1387   1.653   3.722   0.698  0.0280 -0.0676  0.0073
  336SOL    HW2 1388   1.709   3.657   0.741 -0.4026 -0.8189 -0.5579
  336SOL    HW3 1389   1.632   3.683   0.613  0.5088  1.2155 -0.7144
  336SOL    MW4 1390   1.658   3.708   0.692  0.0346  0.0026 -0.1625
  337SOL     OW 1391   1.450   3.787   0.866 -0.0526 -0.1402 -0.3162
  337SOL    HW2 1392   1.397   3.862   0.838  1.0083  0.6089 -0.3314
  337SOL    HW3 1393   1.522   3.784   0.804  0.6896 -0.2839  0.5427
  337SOL    MW4 1394   1.453   3.797   0.854  0.1853 -0.0601 -0.2049
  338SOL     OW 1395   1.297   3.977   0.689  0.0414  0.0776 -0.1806
  338SOL    HW2 1396   1.210   3.965   0.727 -0.7921  1.1275 -1.7071
  338SOL    HW3 1397   1.300   3.917   0.615  0.9920 -0.6586  0.4432
  338SOL    MW4 1398   1.286   3.968   0.684  0.0569  0.1190 -0.2997
  339SOL     OW 1399   1.304   4.239   0.800 -0.0615 -0.3020  0.2454
  339SOL    HW2 1400   1.353   4.285   0.731  0.2256 -1.2501 -0.1917
  339SOL    HW3 1401   1.314   4.147   0.779  0.4975 -0.6410  1.8758
  339SOL    MW4 1402   1.312   4.233   0.788  0.0502 -0.4716  0.4028
  340SOL     OW 1403   1.662   4.471   0.705  0.4673  0.0218 -0.1405
  340SOL    HW2 1404   1.684   4.395   0.758 -0.3910  0.6442  1.1285
  340SOL    HW3 1405   1.620   4.532   0.766  0.4165  1.1812 -1.3063
  340SOL    MW4 1406   1.660   4.469   0.720  0.3475  0.2570 -0.1270
  341SOL     OW 1407   2.033   4.649   0.801 -0.1010 -0.1167  0.0395
  341SOL    HW2 1408   2.111   4.688   0.763 -0.3071  0.3382  0.0853
  341SOL    HW3 1409   2.034   4.558   0.770 -0.3257  0.2755 -1.1415
  341SOL    MW4 1410   2.043   4.642   0.792 -0.1578 -0.0048 -0.1103
  342SOL     OW 1411   1.811   0.116   0.751  0.2385 -0.2540  0.4341
  342SOL    HW2 1412   1.887   0.062   0.775  0.2919 -0.0887  0.6419
  342SOL    HW3 1413   1.738   0.076   0.798  0.1800 -0.4747  0.1524
  342SOL    MW4 1414   1.812   0.104   0.761  0.2378 -0.2613  0.4243
  343SOL     OW 1415   1.736   0.391   0.828  0.1214  0.0043  0.2285
  343SOL    HW2 1416   1.771   0.304   0.808  0.2580 -0.3653  1.9518
  343SOL    HW3 1417   1.811   0.450   0.821  0.3779 -0.2727  0.6054
  343SOL    MW4 1418   1.751   0.387   0.825  0.1732 -0.0810  0.5056
  344SOL     OW 1419   1.960   0.519   0.740 -0.1016 -0.2481  0.0292
  344SOL    HW2 1420   2.034   0.457   0.747 -1.2461 -1.4626  1.6878
  344SOL    HW3 1421   1.945   0.526   0.645  0.6987 -1.7514 -0.2403
  344SOL    MW4 1422   1.968   0.511   0.728 -0.1471 -0.6067  0.2125
  345SOL     OW 1423   2.010   0.768   0.831  0.4483 -0.0483 -0.0384
  345SOL    HW2 1424   2.096   0.796   0.799 -0.3943  1.7541 -0.8009
  345SOL    HW3 1425   2.001   0.678   0.801  2.3402 -0.4935  0.6306
  345SOL    MW4 1426   2.020   0.760   0.823  0.5867  0.1308 -0.0507
  346SOL     OW 1427   1.774   0.897   0.755 -0.2057  0.0643  0.1230
  346SOL    HW2 1428   1.778   0.989   0.781  1.1941  0.3418 -1.0491
  346SOL    HW3 1429   1.857   0.860   0.785 -0.9145 -0.9074  0.9009
  346SOL    MW4 1430   1.785   0.904   0.763 -0.1147 -0.0272  0.0709
  347SOL     OW 1431   1.782   1.182   0.830  0.1708 -0.2850 -0.0159
  347SOL    HW2 1432   1.862   1.225   0.802 -0.2309  0.9439  0.6761
  347SOL    HW3 1433   1.712   1.231   0.787 -0.2246 -1.1809 -0.4074
  347SOL    MW4 1434   1.783   1.194   0.821  0.0657 -0.2410  0.0238
  348SOL     OW 1435   2.030   1.241   0.716 -0.5735 -1.0832 -0.0172
  348SOL    HW2 1436   2.107   1.191   0.743  1.7943  2.2374 -0.3811
  348SOL    HW3 1437   2.037   1.249   0.621 -1.9820 -1.6853 -0.1893
  348SOL    MW4 1438   2.041   1.236   0.707 -0.4470 -0.7247 -0.0880
  349SOL     OW 1439   1.997   1.516   0.777  0.1451 -0.1987 -0.7473
  349SOL    HW2 1440   2.070   1.576   0.768  0.9228 -0.9764  0.2361
  349SOL    HW3 1441   2.038   1.429   0.782 -0.9159 -0.7657 -1.5308
  349SOL    MW4 1442   2.012   1.512   0.776  0.1078 -0.3760 -0.7209
  350SOL     OW 1443   1.805   1.723   0.695  0.3733  0.3319 -0.0071
  350SOL    HW2 1444   1.864   1.665   0.742  0.6467  0.4613 -0.1887
  350SOL    HW3 1445   1.718   1.686   0.709  0.6502 -0.6748 -0.9489
  350SOL    MW4 1446   1.802   1.711   0.703  0.4457  0.2164 -0.1553
  351SOL     OW 1447   1.793   1.987   0.805 -0.0081 -0.0333 -0.3941
  351SOL    HW2 1448   1.793   1.893   0.786  0.6301  0.0987 -1.0698
  351SOL    HW3 1449   1.715   2.021   0.762 -0.5126 -0.3374  0.2774
  351SOL    MW4 1450   1.783   1.979   0.797  0.0094 -0.0559 -0.3946
  352SOL     OW 1451   1.992   2.090   0.635  0.5149 -0.6606  0.0856
  352SOL    HW2 1452   2.008   2.170   0.686 -0.4921 -1.0409  1.0108
  352SOL    HW3 1453   1.917   2.049   0.678  0.5708 -1.7352 -0.8332
  352SOL    MW4 1454   1.984   2.095   0.647  0.3893 -0.8526  0.0864
  353SOL     OW 1455   2.036   2.339   0.806 -0.7546  0.4477  0.0790
  353SOL    HW2 1456   2.028   2.345   0.901  1.5958 -0.0926  0.3511
  353SOL    HW3 1457   1.952   2.369   0.773 -1.4703  1.0240  2.3156
  353SOL    MW4 1458   2.024   2.344   0.814 -0.5388  0.4525  0.4100
  354SOL     OW 1459   1.780   2.393   0.720 -0.1346  0.1477  0.4628
  354SOL    HW2 1460   1.701   2.360   0.763  0.0718 -0.9377  0.0076
  354SOL    HW3 1461   1.765   2.378   0.627  0.7307 -0.3242  0.3960
  354SOL    MW4 1462   1.768   2.387   0.714  0.0068 -0.0577  0.3940
  355SOL     OW 1463   1.813   2.653   0.815 -0.1674  0.5773  0.4104
  355SOL    HW2 1464   1.801   2.561   0.792  0.6880  0.3792  0.7300
  355SOL    HW3 1465   1.730   2.695   0.790 -0.6168 -0.2994  0.4022
  355SOL    MW4 1466   1.800   2.646   0.809 -0.1138  0.4354  0.4516
  356SOL     OW 1467   2.044   2.783   0.724 -0.3145  0.3103  0.3716
  356SOL    HW2 1468   2.116   2.741   0.771 -0.9214  0.6411  1.6141
  356SOL    HW3 1469   1.968   2.730   0.746 -0.6719  0.7021  0.0797
  356SOL    MW4 1470   2.044   2.770   0.733 -0.4420  0.4055  0.4970
  357SOL     OW 1471   2.051   3.067   0.839  0.0284  0.2806  0.1534
  357SOL    HW2 1472   1.985   3.120   0.794 -0.2706  0.2962  0.6114
  357SOL    HW3 1473   2.037   2.978   0.807 -1.3916 -0.0365  1.5899
  357SOL    MW4 1474   2.041   3.062   0.829 -0.1984  0.2410  0.4034
  358SOL     OW 1475   1.855   3.213   0.729 -0.0398  0.2907  0.2380
  358SOL    HW2 1476   1.789   3.143   0.737 -0.4881  0.8692  1.9752
  358SOL    HW3 1477   1.870   3.222   0.635 -2.5560  0.2353 -0.2109
  358SOL    MW4 1478   1.848   3.205   0.718 -0.4309  0.3595  0.4080
  359SOL     OW 1479   1.802   3.488   0.804  0.8287  0.0687 -0.2846
  359SOL    HW2 1480   1.806   3.486   0.900 -0.7854  1.0598 -0.1760
  359SOL    HW3 1481   1.790   3.397   0.778 -1.9391  0.1354  0.6368
  359SOL    MW4 1482   1.801   3.476   0.813  0.2506  0.2079 -0.1487
  360SOL     OW 1483   2.031   3.599   0.714 -0.4944  0.0543  0.0245
  360SOL    HW2 1484   2.030   3.681   0.763 -0.0522 -0.5478  1.0555
  360SOL    HW3 1485   1.957   3.549   0.750 -0.8058  0.0165 -0.6468
  360SOL    MW4 1486   2.021   3.603   0.725 -0.4773 -0.0300  0.0719
  361SOL     OW 1487   2.080   3.871   0.782 -0.3883  0.4347 -0.0509
  361SOL    HW2 1488   2.078   3.869   0.878 -0.9296  0.2898 -0.0606
  361SOL    HW3 1489   1.988   3.879   0.757 -0.2978 -0.1533 -0.5728
  361SOL    MW4 1490   2.067   3.872   0.792 -0.4480  0.3381 -0.1211
  362SOL     OW 1491   1.813   3.944   0.711 -0.0301 -0.1123 -0.3160
  362SOL    HW2 1492   1.756   3.868   0.697  1.3208 -1.2086 -0.0231
  362SOL    HW3 1493   1.816   3.988   0.626 -0.5103 -0.6066 -0.5928
  362SOL    MW4 1494   1.806   3.940   0.698  0.0848 -0.3221 -0.3139
  363SOL     OW 1495   1.785   4.222   0.797  0.2084 -0.3971  0.4371
  363SOL    HW2 1496   1.772   4.215   0.891  1.0531  0.0561  0.6016
  363SOL    HW3 1497   1.810   4.134   0.769  0.6523 -0.3729  0.7546
  363SOL    MW4 1498   1.787   4.210   0.805  0.3785 -0.3338  0.5008
  364SOL     OW 1499   2.010   4.377   0.705 -0.0532 -0.2925  0.1437
  364SOL    HW2 1500   1.936   4.321   0.729  0.4436 -1.5676 -1.2305
  364SOL    HW3 1501   2.014   4.372   0.610  0.5767  1.3716  0.0563
  364SOL    MW4 1502   2.001   4.369   0.696  0.0954 -0.2408 -0.0491
  365SOL     OW 1503   2.507   0.016   0.801 -0.2066 -0.0280  0.0636
  365SOL    HW2 1504   2.505  -0.005   0.894 -0.3949  0.5365  0.1898
  365SOL    HW3 1505   2.495  -0.068   0.757 -0.7653 -0.2081  0.5573
  365SOL    MW4 1506   2.505   0.002   0.807 -0.3052  0.0229  0.1454
  366SOL     OW 1507   2.266   0.109   0.708 -0.0702 -0.0924 -0.3810
  366SOL    HW2 1508   2.350   0.092   0.752 -0.3773 -1.4105 -0.2846
  366SOL    HW3 1509   2.272   0.062   0.625 -0.6315 -0.0059 -0.4721
  366SOL    MW4 1510   2.278   0.101   0.703 -0.1848 -0.2549 -0.3804
  367SOL     OW 1511   2.195   0.373   0.765 -0.3571  0.3479  0.0162
  367SOL    HW2 1512   2.261   0.437   0.735 -1.8331  0.8459 -2.3380
  367SOL    HW3 1513   2.230   0.288   0.739 -0.3470  0.5620 -0.6736
  367SOL    MW4 1514   2.208   0.370   0.757 -0.5505  0.4419 -0.3853
  368SOL     OW 1515   2.427   0.544   0.672 -0.0731  0.5378  0.5886
  368SOL    HW2 1516   2.493   0.484   0.706 -0.6908 -0.1633  0.5601
  368SOL    HW3 1517   2.437   0.539   0.577 -1.2560 -0.8303  0.5166
  368SOL    MW4 1518   2.437   0.535   0.664 -0.3107  0.2648  0.5754
  369SOL     OW 1519   2.522   0.770   0.803  0.1030  0.0959 -0.3940
  369SOL    HW2 1520   2.581   0.822   0.749 -1.3696  1.9614 -0.2261
  369SOL    HW3 1521   2.496   0.697   0.746  2.7018 -0.8757 -0.3886
  369SOL    MW4 1522   2.526   0.767   0.788  0.2518  0.2139 -0.3711
  370SOL     OW 1523   2.248   0.850   0.738 -0.0885  1.0300  0.2001
  370SOL    HW2 1524   2.332   0.817   0.770 -1.3091 -1.5995  0.7547
  370SOL    HW3 1525   2.248   0.827   0.645 -0.4260  0.5880  0.3132
  370SOL    MW4 1526   2.259   0.843   0.730 -0.2940  0.6247  0.2881
  371SOL     OW 1527   2.229   1.104   0.846  0.0801  0.2597  0.1592
  371SOL    HW2 1528   2.210   1.091   0.939 -2.1545 -0.3111 -0.3470
  371SOL    HW3 1529   2.223   1.017   0.808  2.3612  0.2824 -0.3195
  371SOL    MW4 1530   2.226   1.091   0.853  0.0865  0.1875  0.0292
  372SOL     OW 1531   2.462   1.254   0.757  0.2094  0.4338 -0.1364
  372SOL    HW2 1532   2.396   1.204   0.805  2.1883 -2.2151 -0.1055
  372SOL    HW3 1533   2.429   1.256   0.667 -0.4005 -0.0244  0.0695
  372SOL    MW4 1534   2.449   1.248   0.751  0.3901  0.0238 -0.1052
  373SOL     OW 1535   2.423   1.527   0.819 -0.5363 -0.3489  0.1423
  373SOL    HW2 1536   2.509   1.565   0.800 -0.4935  0.4480  1.8660
  373SOL    HW3 1537   2.432   1.435   0.795  0.8621 -0.3122  0.4540
  373SOL    MW4 1538   2.435   1.520   0.813 -0.3462 -0.2388  0.4108
  374SOL     OW 1539   2.205   1.688   0.717 -0.0316  0.1342  0.2515
  374SOL    HW2 1540   2.280   1.638   0.750 -1.5262 -1.5739  1.1588
  374SOL    HW3 1541   2.203   1.671   0.623  0.5661 -0.0187  0.2676
  374SOL    MW4 1542   2.214   1.679   0.709 -0.1500 -0.1112  0.3732
  375SOL     OW 1543   2.186   1.952   0.806  0.1892 -0.0529 -0.1652
  375SOL    HW2 1544   2.188   1.864   0.770 -1.0014 -0.1368 -0.0503
  375SOL    HW3 1545   2.126   2.000   0.749  0.8728  0.7096 -0.2651
  375SOL    MW4 1546   2.179   1.947   0.794  0.1223  0.0366 -0.1632
  376SOL     OW 1547   2.455   2.020   0.742 -0.2336 -0.4949  0.1829
  376SOL    HW2 1548   2.362   2.011   0.761 -0.6370 -0.1031 -1.5134
  376SOL    HW3 1549   2.464   1.989   0.652  1.4144 -1.3033  0.5986
  376SOL    MW4 1550   2.444   2.014   0.733 -0.0694 -0.5500  0.0139
  377SOL     OW 1551   2.482   2.265   0.850  0.1159 -0.0409 -0.0988
  377SOL    HW2 1552   2.563   2.300   0.812 -0.4524  1.2443 -0.1609
  377SOL    HW3 1553   2.466   2.184   0.803  2.1376 -1.0471  0.8857
  377SOL    MW4 1554   2.491   2.259   0.839  0.3078 -0.0041  0.0229
  378SOL     OW 1555   2.286   2.432   0.742 -0.1249  0.3300  0.3632
  378SOL    HW2 1556   2.357   2.375   0.772  0.4398  0.1730 -1.2221
  378SOL    HW3 1557   2.207   2.380   0.752  0.5392 -1.3341 -2.4675
  378SOL    MW4 1558   2.285   2.418   0.747  0.0372  0.0896 -0.2194
  379SOL     OW 1559   2.272   2.682   0.849 -0.1054  0.2041  0.0577
  379SOL    HW2 1560   2.271   2.672   0.945 -0.7107  0.8512  0.1211
  379SOL    HW3 1561   2.279   2.592   0.816  0.7942  0.0206  0.7195
  379SOL    MW4 1562   2.273   2.669   0.858 -0.0665  0.2654  0.1534
  380SOL     OW 1563   2.491   2.790   0.722 -0.1191  0.6023  0.3121
  380SOL    HW2 1564   2.550   2.729   0.766 -0.7986 -0.7857 -0.6439
  380SOL    HW3 1565   2.405   2.770   0.759 -0.2616  1.3782  0.3998
  380SOL    MW4 1566   2.487   2.779   0.733 -0.2275  0.5217  0.1975
  381SOL     OW 1567   2.525   3.039   0.818 -0.1007  0.2486  0.2198
  381SOL    HW2 1568   2.502   3.036   0.911 -0.2225  0.6982  0.2080
  381SOL    HW3 1569   2.514   2.949   0.788 -2.3816  0.5323  0.1038
  381SOL    MW4 1570   2.520   3.027   0.827 -0.4177  0.3452  0.2029
  382SOL     OW 1571   2.289   3.204   0.777  0.2717  0.1598  0.6103
  382SOL    HW2 1572   2.217   3.146   0.803 -0.2122 -0.4835 -1.9876
  382SOL    HW3 1573   2.367   3.149   0.784 -0.0892 -0.6253 -1.0497
  382SOL    MW4 1574   2.289   3.189   0.781  0.1602 -0.0284  0.0485
  383SOL     OW 1575   2.267   3.483   0.824  0.4559 -0.1738 -0.0846
  383SOL    HW2 1576   2.265   3.388   0.808  0.6992  0.2007 -2.4517
  383SOL    HW3 1577   2.190   3.517   0.778  0.1063  0.7342  1.1483
  383SOL    MW4 1578   2.256   3.475   0.816  0.4418 -0.0045 -0.2342
  384SOL     OW 1579   2.492   3.615   0.723  0.2065  0.0618 -0.2665
  384SOL    HW2 1580   2.564   3.563   0.759  0.5400 -0.9036 -2.2367
  384SOL    HW3 1581   2.413   3.565   0.746  0.3650 -0.2205 -0.3260
  384SOL    MW4 1582   2.491   3.601   0.731  0.2711 -0.1030 -0.5343
  385SOL     OW 1583   2.449   3.886   0.812 -0.1204  0.0549  0.0123
  385SOL    HW2 1584   2.383   3.919   0.751 -0.6184  0.4702  0.7633
  385SOL    HW3 1585   2.455   3.792   0.793  0.6082  0.4020 -1.4887
  385SOL    MW4 1586   2.441   3.878   0.802 -0.0899  0.1557 -0.0865
  386SOL     OW 1587   2.263   4.039   0.667  0.1142 -0.1843 -0.0638
  386SOL    HW2 1588   2.196   3.991   0.715 -0.4280 -1.0255 -1.6173
  386SOL    HW3 1589   2.257   4.005   0.578  0.7042  1.7712 -0.8638
  386SOL    MW4 1590   2.254   4.028   0.662  0.1206 -0.0377 -0.3743
  387SOL     OW 1591   2.255   4.294   0.795  0.1933 -0.0928  0.0168
  387SOL    HW2 1592   2.273   4.211   0.751  1.1788 -0.7458  1.5812
  387SOL    HW3 1593   2.168   4.319   0.765 -0.8053 -2.5283  0.7311
  387SOL    MW4 1594   2.246   4.287   0.785  0.1915 -0.4997  0.3174
  388SOL     OW 1595   2.478   4.431   0.703  0.1969  0.6822 -0.3289
  388SOL    HW2 1596   2.549   4.373   0.731  0.3487  0.6664 -0.7404
  388SOL    HW3 1597   2.398   4.384   0.727  0.3089 -0.0821 -1.3925
  388SOL    MW4 1598   2.477   4.417   0.710  0.2317  0.5794 -0.5235
  389SOL     OW 1599   2.888   4.622   0.824  0.5763 -0.2377 -0.2486
  389SOL    HW2 1600   2.893   4.538   0.779 -1.0990 -0.5084  0.0372
  389SOL    HW3 1601   2.836   4.678   0.766 -0.4226 -0.1694  0.6874
  389SOL    MW4 1602   2.882   4.618   0.810  0.2234 -0.2646 -0.0874
  390SOL     OW 1603   2.742   0.115   0.664  0.4961  0.0284 -0.0787
  390SOL    HW2 1604   2.736   0.198   0.712 -1.7432  0.8422 -1.6526
  390SOL    HW3 1605   2.668   0.064   0.696 -0.6230  0.3162 -2.1361
  390SOL    MW4 1606   2.731   0.119   0.675  0.0527  0.1738 -0.5578
  391SOL     OW 1607   2.629   0.377   0.766 -0.4436 -0.3862 -0.2731
  391SOL    HW2 1608   2.629   0.386   0.861 -0.8019  0.8230 -0.3746
  391SOL    HW3 1609   2.714   0.413   0.739 -1.4335  1.7687 -0.6078
  391SOL    MW4 1610   2.641   0.383   0.775 -0.6213  0.0576 -0.3307
  392SOL     OW 1611   2.894   0.450   0.683 -0.0572  0.4316 -0.2102
  392SOL    HW2 1612   2.934   0.391   0.746 -0.2744  1.3204  0.7693
  392SOL    HW3 1613   2.940   0.432   0.601 -0.1158 -1.0831  0.0665
  392SOL    MW4 1614   2.906   0.440   0.680 -0.0939  0.3490 -0.0444
  393SOL     OW 1615   2.887   0.743   0.781  0.3263 -0.0544  0.3598
  393SOL    HW2 1616   2.900   0.739   0.876  0.6195  1.0793  0.3725
  393SOL    HW3 1617   2.883   0.651   0.753 -2.7410 -0.4408  1.8615
  393SOL    MW4 1618   2.888   0.730   0.790 -0.0396  0.0441  0.5596
  394SOL     OW 1619   2.709   0.906   0.640 -0.0939  0.0494  0.0581
  394SOL    HW2 1620   2.779   0.865   0.691 -0.8437 -0.3849  0.7244
  394SOL    HW3 1621   2.745   0.910   0.551  0.8404 -0.0319  0.4188
  394SOL    MW4 1622   2.723   0.901   0.635 -0.0696 -0.0186  0.1937
  395SOL     OW 1623   2.707   1.160   0.814 -0.2336  0.0137 -0.3393
  395SOL    HW2 1624   2.702   1.076   0.769  0.4505 -0.4417  0.4264
  395SOL    HW3 1625   2.624   1.203   0.794 -0.7319 -0.9921 -0.4304
  395SOL    MW4 1626   2.695   1.155   0.805 -0.2093 -0.1791 -0.2503
  396SOL     OW 1627   2.925   1.298   0.649  0.0935 -0.0386 -0.2059
  396SOL    HW2 1628   2.993   1.262   0.706 -0.4721 -1.4136 -0.3769
  396SOL    HW3 1629   2.845   1.252   0.675 -0.5126  0.5821 -0.9342
  396SOL    MW4 1630   2.923   1.287   0.660 -0.0610 -0.1383 -0.3246
  397SOL     OW 1631   2.895   1.512   0.837 -0.2471  0.5360 -0.1935
  397SOL    HW2 1632   2.970   1.566   0.813  0.1844  0.0482  0.0807
  397SOL    HW3 1633   2.900   1.435   0.781  0.6110 -0.4759  1.2512
  397SOL    MW4 1634   2.905   1.509   0.827 -0.0770  0.3382  0.0333
  398SOL     OW 1635   2.675   1.661   0.805  0.0029  0.1122 -0.5802
  398SOL    HW2 1636   2.689   1.749   0.838  1.8723 -0.3079 -0.1786
  398SOL    HW3 1637   2.758   1.615   0.822 -1.5911 -2.3015  1.0280
  398SOL    MW4 1638   2.688   1.666   0.811  0.0393 -0.2617 -0.3150
  399SOL     OW 1639   2.708   1.934   0.882  0.1280  0.3954  0.3594
  399SOL    HW2 1640   2.691   1.942   0.976 -0.5285  0.8690  0.2037
  399SOL    HW3 1641   2.633   1.976   0.841  0.0143 -0.5367 -0.3966
  399SOL    MW4 1642   2.696   1.941   0.889  0.0265  0.3350  0.2391
  400SOL     OW 1643   2.943   1.980   0.722 -0.1198  0.4500  0.1102
  400SOL    HW2 1644   2.928   2.073   0.738 -0.0888  0.2839  1.1068
  400SOL    HW3 1645   2.873   1.935   0.769 -0.8017  0.0112 -1.2886
  400SOL    MW4 1646   2.932   1.986   0.730 -0.2055  0.3701  0.0571
  401SOL     OW 1647   2.922   2.242   0.824  0.0507  0.4744 -0.1379
  401SOL    HW2 1648   2.931   2.230   0.919 -0.8026 -0.6708 -0.1912
  401SOL    HW3 1649   2.843   2.294   0.814  1.4274  2.6095 -0.1193
  401SOL    MW4 1650   2.913   2.247   0.836  0.1197  0.6051 -0.1425
  402SOL     OW 1651   2.708   2.384   0.747 -0.0953  0.2245 -0.2614
  402SOL    HW2 1652   2.720   2.396   0.653 -0.2432  0.6983 -0.2199
  402SOL    HW3 1653   2.681   2.470   0.779 -0.6916 -0.0953  0.1129
  402SOL    MW4 1654   2.706   2.397   0.739 -0.1936  0.2451 -0.2065
  403SOL     OW 1655   2.691   2.631   0.854 -0.0848  0.4595 -0.6619
  403SOL    HW2 1656   2.686   2.639   0.949 -0.4259  0.9829 -0.7251
  403SOL    HW3 1657   2.760   2.692   0.828  0.6620 -0.3624 -0.6658
  403SOL    MW4 1658   2.700   2.640   0.863 -0.0312  0.4206 -0.6707
  404SOL     OW 1659   3.151   2.729   0.373 -0.2205  0.4740  0.1269
  404SOL    HW2 1660   3.126   2.638   0.389 -0.6308  0.5679  0.0212
  404SOL    HW3 1661   3.221   2.723   0.307 -1.1284  0.3007 -0.8382
  404SOL    MW4 1662   3.157   2.716   0.366 -0.3943  0.4635 -0.0144
  405SOL     OW 1663   2.932   3.055   0.808 -0.2341 -0.0603 -0.4630
  405SOL    HW2 1664   2.850   3.091   0.774  0.4679 -0.5486 -2.7655
  405SOL    HW3 1665   2.931   2.963   0.781  0.7605 -0.2322  0.0637
  405SOL    MW4 1666   2.921   3.048   0.800 -0.0103 -0.1473 -0.6973
  406SOL     OW 1667   2.719   3.201   0.692  0.1398  0.0032 -0.3414
  406SOL    HW2 1668   2.705   3.280   0.744  0.2677  0.0247 -0.3392
  406SOL    HW3 1669   2.651   3.140   0.722  1.1019 -0.5020  0.8782
  406SOL    MW4 1670   2.708   3.203   0.703  0.2837 -0.0606 -0.1802
  407SOL     OW 1671   2.696   3.447   0.810 -0.3449  0.0926  0.0073
  407SOL    HW2 1672   2.693   3.435   0.905 -2.6083 -1.9231 -0.2833
  407SOL    HW3 1673   2.781   3.489   0.794  0.7694 -1.0065  2.7526
  407SOL    MW4 1674   2.707   3.451   0.820 -0.4969 -0.3181  0.3312
  408SOL     OW 1675   2.940   3.580   0.743  0.0119  0.1729 -0.0405
  408SOL    HW2 1676   2.941   3.673   0.763 -1.5508  0.3278 -0.6078
  408SOL    HW3 1677   2.937   3.576   0.648 -0.7952 -0.4402  0.0036
  408SOL    MW4 1678   2.940   3.592   0.733 -0.3009  0.1125 -0.1095
  409SOL     OW 1679   2.972   3.839   0.846 -0.2546  0.2129 -0.6904
  409SOL    HW2 1680   2.956   3.830   0.940 -0.9945 -0.5425 -0.8768
  409SOL    HW3 1681   2.892   3.879   0.811  0.1185  0.7211 -0.9538
  409SOL    MW4 1682   2.959   3.843   0.854 -0.3030  0.1802 -0.7498
  410SOL     OW 1683   2.754   3.954   0.708 -0.2556  0.4644  0.2315
  410SOL    HW2 1684   2.664   3.922   0.705 -0.3003  0.5784  0.3182
  410SOL    HW3 1685   2.774   3.977   0.617 -0.1639  0.0359  0.1419
  410SOL    MW4 1686   2.745   3.953   0.696 -0.2494  0.4230  0.2311
  411SOL     OW 1687   2.697   4.257   0.808 -0.3848  0.2270  0.4032
  411SOL    HW2 1688   2.679   4.239   0.900 -1.1486 -0.4931  0.1222
  411SOL    HW3 1689   2.695   4.171   0.766 -1.2580  0.6686 -0.4883
  411SOL    MW4 1690   2.694   4.243   0.815 -0.6008  0.1903  0.2486
  412SOL     OW 1691   2.935   4.373   0.719  0.2119  0.2859 -0.5576
  412SOL    HW2 1692   3.002   4.320   0.764  0.8181  0.9583 -0.6570
  412SOL    HW3 1693   2.852   4.331   0.741  0.4612  0.8571  1.5454
  412SOL    MW4 1694   2.933   4.360   0.727  0.3247  0.4497 -0.2933
  413SOL     OW 1695   3.366   4.595   0.821 -0.4665  0.5540 -0.4240
  413SOL    HW2 1696   3.374   4.616   0.915  0.1328  0.7619 -0.5161
  413SOL    HW3 1697   3.287   4.640   0.793 -0.9404  0.0585  0.1028
  413SOL    MW4 1698   3.357   4.604   0.830 -0.4501  0.5159 -0.3666
  414SOL     OW 1699   3.126   0.054   0.748 -0.2338  0.0251 -0.4073
  414SOL    HW2 1700   3.124   0.144   0.782  0.9951  0.1740 -0.6802
  414SOL    HW3 1701   3.044   0.015   0.777 -0.0767  0.7524  1.0620
  414SOL    MW4 1702   3.115   0.061   0.756 -0.0508  0.1407 -0.2494
  415SOL     OW 1703   3.112   0.326   0.827  0.3347  0.2105 -0.3236
  415SOL    HW2 1704   3.118   0.344   0.921 -0.2256 -0.6393 -0.1204
  415SOL    HW3 1705   3.194   0.359   0.791  1.2899 -1.0112  0.7048
  415SOL    MW4 1706   3.123   0.333   0.835  0.3865 -0.0628 -0.1612
  416SOL     OW 1707   3.333   0.449   0.712  0.1195 -0.4622 -0.0085
  416SOL    HW2 1708   3.413   0.404   0.739  1.1809  0.7862 -1.0416
  416SOL    HW3 1709   3.337   0.451   0.617 -1.3192 -0.6939 -0.0880
  416SOL    MW4 1710   3.344   0.443   0.703  0.0696 -0.3280 -0.1553
  417SOL     OW 1711   3.363   0.719   0.806 -0.5062 -0.0605  0.7014
  417SOL    HW2 1712   3.285   0.771   0.788 -0.6662  0.2129  2.0868
  417SOL    HW3 1713   3.346   0.634   0.765 -0.9831  0.4203 -0.0930
  417SOL    MW4 1714   3.350   0.714   0.798 -0.5901  0.0390  0.7794
  418SOL     OW 1715   3.139   0.881   0.776  0.3127 -0.1196  0.2731
  418SOL    HW2 1716   3.120   0.974   0.780  1.8732  0.1425  2.3606
  418SOL    HW3 1717   3.053   0.839   0.783 -0.3449  1.1542 -0.1083
  418SOL    MW4 1718   3.125   0.888   0.778  0.4318  0.0831  0.4982
  419SOL     OW 1719   3.120   1.161   0.797 -0.6299  0.5155 -0.0376
  419SOL    HW2 1720   3.121   1.152   0.892  1.0460 -1.2484 -0.2084
  419SOL    HW3 1721   3.210   1.182   0.773 -0.8528  0.0563 -1.3169
  419SOL    MW4 1722   3.132   1.163   0.807 -0.4382  0.2222 -0.2289
  420SOL     OW 1723   3.374   1.226   0.710 -0.0697  0.3684  0.3090
  420SOL    HW2 1724   3.452   1.197   0.757  1.2000  1.8641 -0.7978
  420SOL    HW3 1725   3.371   1.321   0.725 -1.0443  0.4805 -0.5516
  420SOL    MW4 1726   3.384   1.235   0.718 -0.0308  0.5804  0.0495
  421SOL     OW 1727   3.382   1.496   0.789  0.1293 -0.1562 -0.8600
  421SOL    HW2 1728   3.399   1.511   0.882 -0.2508  0.4335 -0.8799
  421SOL    HW3 1729   3.454   1.538   0.744  1.0647 -1.6453 -0.7942
  421SOL    MW4 1730   3.394   1.503   0.796  0.2024 -0.2748 -0.8539
  422SOL     OW 1731   3.130   1.624   0.756  0.0919  0.2200 -0.3336
  422SOL    HW2 1732   3.208   1.569   0.763 -0.4819 -0.6871 -1.0163
  422SOL    HW3 1733   3.160   1.711   0.782  0.9895 -0.4179  0.8003
  422SOL    MW4 1734   3.144   1.628   0.761  0.1347  0.0161 -0.2741
  423SOL     OW 1735   3.189   1.893   0.827 -0.0138  0.0951 -0.3355
  423SOL    HW2 1736   3.191   1.883   0.922  1.4586 -0.8769 -0.4423
  423SOL    HW3 1737   3.107   1.939   0.809  0.3345  1.5022  1.5166
  423SOL    MW4 1738   3.179   1.897   0.837  0.2263  0.1526 -0.1053
  424SOL     OW 1739   3.344   2.071   0.702 -0.1041 -0.2385 -0.0341
  424SOL    HW2 1740   3.349   2.155   0.747  0.6777  0.4803 -1.4458
  424SOL    HW3 1741   3.282   2.020   0.754 -2.9964  2.2794 -0.8670
  424SOL    MW4 1742   3.336   2.075   0.715 -0.3827  0.1884 -0.3303
  425SOL     OW 1743   3.583   2.528   0.668  0.1804 -0.3959 -0.3223
  425SOL    HW2 1744   3.652   2.471   0.701  1.2103  0.6202 -0.6970
  425SOL    HW3 1745   3.502   2.494   0.707  0.9191 -1.4616  0.2736
  425SOL    MW4 1746   3.581   2.516   0.677  0.4139 -0.4025 -0.2931
  426SOL     OW 1747   3.128   2.396   0.709 -0.6282 -0.5531 -0.2815
  426SOL    HW2 1748   3.100   2.424   0.622 -0.1934 -0.4856 -0.4037
  426SOL    HW3 1749   3.055   2.345   0.743 -0.8842 -0.4006 -0.6026
  426SOL    MW4 1750   3.115   2.393   0.702 -0.6049 -0.5243 -0.3400
  427SOL     OW 1751   3.343   2.828   0.768 -0.2605 -0.0082 -0.0906
  427SOL    HW2 1752   3.338   2.823   0.673  1.0016  0.8895 -0.2081
  427SOL    HW3 1753   3.435   2.816   0.789 -0.3155  1.1978  0.9222
  427SOL    MW4 1754   3.354   2.826   0.758 -0.1013  0.2694  0.0276
  428SOL     OW 1755   3.593   3.392   0.404  0.6675  0.0768 -0.1408
  428SOL    HW2 1756   3.598   3.360   0.494  0.0687  0.4870  0.0396
  428SOL    HW3 1757   3.569   3.315   0.352 -1.5342  0.3621  0.3896
  428SOL    MW4 1758   3.590   3.377   0.409  0.2980  0.1688 -0.0471
  429SOL     OW 1759   3.364   3.090   0.824  0.4133  0.3291 -0.4716
  429SOL    HW2 1760   3.345   3.090   0.918 -0.7263  0.0282 -0.6974
  429SOL    HW3 1761   3.360   2.998   0.798 -0.9977  0.5559 -1.1376
  429SOL    MW4 1762   3.361   3.078   0.833  0.0768  0.3190 -0.5893
  430SOL     OW 1763   3.145   3.220   0.742  0.2537 -0.0430  0.2145
  430SOL    HW2 1764   3.228   3.175   0.761  0.5411  0.0380 -0.7853
  430SOL    HW3 1765   3.078   3.155   0.761  0.4159  0.5707  3.0586
  430SOL    MW4 1766   3.147   3.206   0.747  0.3130  0.0489  0.4578
  431SOL     OW 1767   3.138   3.470   0.887 -0.5633 -0.3970 -0.3825
  431SOL    HW2 1768   3.137   3.381   0.852 -0.5601  0.2000 -1.9245
  431SOL    HW3 1769   3.063   3.513   0.846 -1.1697  0.0233  1.1387
  431SOL    MW4 1770   3.128   3.464   0.877 -0.6430 -0.2630 -0.3852
  432SOL     OW 1771   3.338   3.576   0.752 -0.3279  0.6386 -0.0814
  432SOL    HW2 1772   3.356   3.661   0.792  1.2279 -0.6103  1.9460
  432SOL    HW3 1773   3.266   3.540   0.803  0.0463  0.0919  0.0685
  432SOL    MW4 1774   3.331   3.583   0.764 -0.0732  0.4017  0.2058
  433SOL     OW 1775   3.443   3.827   0.804 -0.2793 -0.2673 -0.0267
  433SOL    HW2 1776   3.441   3.845   0.898  0.4593 -0.2062 -0.0149
  433SOL    HW3 1777   3.527   3.863   0.775 -0.5121 -0.2698 -0.7131
  433SOL    MW4 1778   3.454   3.834   0.812 -0.2127 -0.2596 -0.1158
  434SOL     OW 1779   3.201   3.935   0.698  0.0982  0.1386 -0.6850
  434SOL    HW2 1780   3.274   3.887   0.737 -0.2704 -1.1830 -1.5694
  434SOL    HW3 1781   3.123   3.892   0.733 -0.2787  1.9623  0.7671
  434SOL    MW4 1782   3.201   3.923   0.707  0.0000  0.2050 -0.6101
  435SOL     OW 1783   3.129   4.187   0.811  0.4355  0.5073 -0.0240
  435SOL    HW2 1784   3.209   4.239   0.798  1.1108 -0.3081  0.7842
  435SOL    HW3 1785   3.150   4.102   0.771 -0.1456  0.3901 -0.0778
  435SOL    MW4 1786   3.143   4.183   0.804  0.4482  0.3839  0.0755
  436SOL     OW 1787   3.346   4.338   0.702 -0.2740  0.5294  0.2922
  436SOL    HW2 1788   3.329   4.432   0.706 -0.3045  0.5053  0.7913
  436SOL    HW3 1789   3.391   4.325   0.618 -0.5774  0.9365  0.0645
  436SOL    MW4 1790   3.350   4.348   0.691 -0.3181  0.5803  0.3280
  437SOL     OW 1791   3.822   4.655   0.849 -0.1801  0.4203  0.2812
  437SOL    HW2 1792   3.895   4.667   0.788 -1.0479 -0.5571 -0.9792
  437SOL    HW3 1793   3.744   4.675   0.797 -0.9032 -0.0010  1.1922
  437SOL    MW4 1794   3.821   4.659   0.834 -0.3898  0.2356  0.2351
  438SOL     OW 1795   3.587   0.066   0.733  0.4141 -0.3665  0.6934
  438SOL    HW2 1796   3.520   0.002   0.757  1.3885 -2.0734 -1.0028
  438SOL    HW3 1797   3.571   0.085   0.640  0.5703  1.3456  0.9960
  438SOL    MW4 1798   3.576   0.060   0.724  0.5629 -0.3658  0.5094
  439SOL     OW 1799   3.566   0.335   0.863 -0.0686 -0.0964  0.3468
  439SOL    HW2 1800   3.571   0.323   0.957 -0.1888  1.3885  0.5653
  439SOL    HW3 1801   3.559   0.247   0.827  1.9308 -0.7971  1.5968
  439SOL    MW4 1802   3.566   0.322   0.870  0.1793  0.0070  0.5406
  440SOL     OW 1803   3.816   0.454   0.746 -0.2983 -0.3065 -0.3871
  440SOL    HW2 1804   3.812   0.538   0.792  0.3859 -0.9307  0.8407
  440SOL    HW3 1805   3.765   0.395   0.800 -0.0667 -0.8941 -0.8101
  440SOL    MW4 1806   3.809   0.458   0.759 -0.1774 -0.4663 -0.2810
  441SOL     OW 1807   3.824   0.719   0.828 -0.0847  0.0196 -0.4002
  441SOL    HW2 1808   3.825   0.717   0.923 -0.1254  0.7861 -0.3785
  441SOL    HW3 1809   3.906   0.763   0.804 -0.6497  0.9514 -0.6755
  441SOL    MW4 1810   3.835   0.725   0.837 -0.1647  0.2437 -0.4337
  442SOL     OW 1811   3.591   0.863   0.718  0.1645 -0.1158 -0.4040
  442SOL    HW2 1812   3.673   0.816   0.733  0.5132  0.9495  1.0753
  442SOL    HW3 1813   3.523   0.805   0.752  0.2470 -1.2013 -2.0445
  442SOL    MW4 1814   3.593   0.850   0.724  0.2215 -0.1184 -0.4252
  443SOL     OW 1815   3.597   1.115   0.859 -0.2936 -0.1362 -0.5808
  443SOL    HW2 1816   3.599   1.101   0.954 -2.2137  0.4640 -0.4269
  443SOL    HW3 1817   3.586   1.027   0.822 -1.0841 -0.2186 -0.1631
  443SOL    MW4 1818   3.596   1.102   0.867 -0.6511 -0.0678 -0.5054
  444SOL     OW 1819   3.740   1.293   0.692 -0.0244  0.2107 -0.3396
  444SOL    HW2 1820   3.687   1.232   0.743  0.8577  0.4871  0.9286
  444SOL    HW3 1821   3.825   1.248   0.683  0.3561  0.8817 -0.1248
  444SOL    MW4 1822   3.745   1.279   0.697  0.1421  0.3357 -0.1439
  445SOL     OW 1823   3.807   1.514   0.833 -0.5655  0.1080  0.1200
  445SOL    HW2 1824   3.875   1.557   0.782  0.1020 -0.1107  0.8162
  445SOL    HW3 1825   3.796   1.428   0.791 -0.7030  0.3067 -0.2445
  445SOL    MW4 1826   3.815   1.508   0.821 -0.4954  0.1053  0.1638
  446SOL     OW 1827   3.592   1.661   0.703  0.2755  0.1526  0.0998
  446SOL    HW2 1828   3.600   1.756   0.711  1.8785  0.0492 -0.0322
  446SOL    HW3 1829   3.664   1.627   0.755  0.0034 -0.9817 -0.2576
  446SOL    MW4 1830   3.603   1.669   0.711  0.4508 -0.0105  0.0352
  447SOL     OW 1831   3.604   1.921   0.764 -0.0649 -0.2158  0.1666
  447SOL    HW2 1832   3.670   1.963   0.710 -0.0448 -0.4138  0.0356
  447SOL    HW3 1833   3.526   1.976   0.754  0.5533  0.9571  1.6526
  447SOL    MW4 1834   3.602   1.934   0.756  0.0193 -0.0871  0.3453
  448SOL     OW 1835   3.799   2.084   0.642 -0.3781  0.0435  0.3321
  448SOL    HW2 1836   3.855   2.033   0.701 -0.7373 -0.1825  0.4764
  448SOL    HW3 1837   3.843   2.078   0.557 -1.2556 -1.8492 -0.0163
  448SOL    MW4 1838   3.812   2.076   0.638 -0.5412 -0.2360  0.3052
  449SOL     OW 1839   3.767   2.341   0.767  0.1308 -0.2076 -0.0057
  449SOL    HW2 1840   3.781   2.334   0.862  1.4969  0.8401 -0.1053
  449SOL    HW3 1841   3.779   2.252   0.735 -0.2698 -0.5589  0.7988
  449SOL    MW4 1842   3.771   2.328   0.775  0.2580 -0.1159  0.0873
  450SOL     OW 1843   3.959   2.619   0.371 -0.5005 -0.1605 -0.2354
  450SOL    HW2 1844   3.935   2.611   0.464  1.3341 -0.3165  0.2337
  450SOL    HW3 1845   3.875   2.609   0.324 -1.6292  1.1981  1.4400
  450SOL    MW4 1846   3.945   2.617   0.377 -0.4077 -0.0021  0.0475
  451SOL     OW 1847   3.387   2.393   0.808 -0.0025 -0.1965  0.5159
  451SOL    HW2 1848   3.292   2.394   0.794  0.1708  2.7688 -0.7418
  451SOL    HW3 1849   3.398   2.359   0.897 -2.1557 -1.8610  0.1774
  451SOL    MW4 1850   3.376   2.389   0.818 -0.2637 -0.0248  0.3052
  452SOL     OW 1851   3.638   2.615   0.246 -0.4324 -0.0753 -0.1981
  452SOL    HW2 1852   3.630   2.666   0.327 -2.0491  0.7194 -0.8249
  452SOL    HW3 1853   3.645   2.524   0.276  1.3436  0.3924  0.8898
  452SOL    MW4 1854   3.638   2.610   0.261 -0.4115  0.0913 -0.1373
  453SOL     OW 1855   3.831   2.915   0.826 -0.5753  0.0769 -0.1764
  453SOL    HW2 1856   3.845   2.942   0.735  1.5689 -0.7093 -0.1147
  453SOL    HW3 1857   3.765   2.846   0.821  0.3921 -0.7762 -1.2637
  453SOL    MW4 1858   3.824   2.910   0.814 -0.1645 -0.1395 -0.3116
  454SOL     OW 1859   3.536   3.240   0.666 -0.1583 -0.3672 -0.0336
  454SOL    HW2 1860   3.483   3.192   0.730  0.2947  0.1798  0.7620
  454SOL    HW3 1861   3.623   3.198   0.671  0.3156  0.6922  0.8673
  454SOL    MW4 1862   3.541   3.228   0.675 -0.0360 -0.1552  0.1903
  455SOL     OW 1863   3.585   3.449   0.851  0.5436 -0.1039 -0.3600
  455SOL    HW2 1864   3.563   3.380   0.790 -0.3766 -0.0884 -0.0534
  455SOL    HW3 1865   3.516   3.515   0.839 -0.1898 -0.5288  1.3481
  455SOL    MW4 1866   3.573   3.449   0.842  0.3257 -0.1578 -0.0942
  456SOL     OW 1867   3.804   3.580   0.731  0.3055 -0.1431  0.0741
  456SOL    HW2 1868   3.889   3.545   0.757  0.7788 -0.0286 -1.2525
  456SOL    HW3 1869   3.741   3.514   0.759  0.7652  0.0326  1.5828
  456SOL    MW4 1870   3.807   3.567   0.738  0.4284 -0.1049  0.0981
  457SOL     OW 1871   3.846   3.835   0.823 -0.1677 -0.2261  0.2556
  457SOL    HW2 1872   3.775   3.888   0.787 -1.3121 -1.1097  1.1599
  457SOL    HW3 1873   3.825   3.745   0.796  1.0484 -0.3934 -0.1571
  457SOL    MW4 1874   3.834   3.830   0.815 -0.1583 -0.3648  0.3205
  458SOL     OW 1875   3.644   3.982   0.703  0.0589  0.6431 -0.2792
  458SOL    HW2 1876   3.632   4.061   0.755  1.2997  0.4307  0.3644
  458SOL    HW3 1877   3.655   4.013   0.613  0.4833  1.2064 -0.0357
  458SOL    MW4 1878   3.644   3.997   0.698  0.2785  0.6897 -0.1622
  459SOL     OW 1879   3.576   4.224   0.824 -0.2168 -0.1307  0.0452
  459SOL    HW2 1880   3.646   4.283   0.796 -1.3055  0.4033 -1.6299
  459SOL    HW3 1881   3.495   4.268   0.799 -1.1354 -1.1493  1.1471
  459SOL    MW4 1882   3.574   4.237   0.817 -0.4816 -0.1945 -0.0304
  460SOL     OW 1883   3.785   4.399   0.748  0.3670  0.3459  0.1067
  460SOL    HW2 1884   3.863   4.344   0.747 -0.0007 -0.2014  0.9384
  460SOL    HW3 1885   3.805   4.470   0.809 -0.0556 -0.2132  0.9109
  460SOL    MW4 1886   3.798   4.401   0.756  0.2625  0.2003  0.3225
  461SOL     OW 1887   4.288   0.006   0.882  0.3245 -0.3711  0.2728
  461SOL    HW2 1888   4.264  -0.012   0.973  0.0653 -0.8256  0.1159
  461SOL    HW3 1889   4.204   0.024   0.838  0.3079 -1.3929 -0.1483
  461SOL    MW4 1890   4.273   0.006   0.888  0.2885 -0.5659  0.1966
  462SOL     OW 1891   4.090   0.083   0.720 -0.0314 -0.0815  0.5449
  462SOL    HW2 1892   4.076   0.170   0.757 -0.2956 -0.8448  2.2691
  462SOL    HW3 1893   4.123   0.100   0.632  0.9332  1.7622  1.2358
  462SOL    MW4 1894   4.093   0.097   0.713  0.0610  0.0610  0.8637
  463SOL     OW 1895   4.043   0.325   0.862 -0.1045 -0.2703 -0.1511
  463SOL    HW2 1896   4.122   0.360   0.820  0.3309 -0.6221  0.3687
  463SOL    HW3 1897   3.971   0.365   0.814  0.3899  1.5064  0.5761
  463SOL    MW4 1898   4.044   0.335   0.850  0.0176 -0.0823  0.0134
  464SOL     OW 1899   4.262   0.429   0.755  0.3024  0.4260  0.3867
  464SOL    HW2 1900   4.348   0.414   0.792  0.0726  0.5121  0.9560
  464SOL    HW3 1901   4.277   0.433   0.660  0.8362 -0.1316  0.4416
  464SOL    MW4 1902   4.275   0.427   0.747  0.3428  0.3638  0.4690
  465SOL     OW 1903   4.312   0.701   0.783 -0.3128 -0.0795 -0.4375
  465SOL    HW2 1904   4.229   0.747   0.769 -0.3284 -0.3338 -1.2384
  465SOL    HW3 1905   4.290   0.609   0.768  0.0764 -0.1612 -0.4905
  465SOL    MW4 1906   4.298   0.695   0.779 -0.2642 -0.1238 -0.5503
  466SOL     OW 1907   4.078   0.842   0.757  0.1983 -0.2423 -0.3052
  466SOL    HW2 1908   4.090   0.930   0.792 -1.0651 -0.3800  0.5037
  466SOL    HW3 1909   4.039   0.855   0.670  1.1787  0.0314 -0.7064
  466SOL    MW4 1910   4.074   0.855   0.750  0.1612 -0.2243 -0.2514
  467SOL     OW 1911   4.107   1.104   0.840  0.1275  0.6947 -0.3044
  467SOL    HW2 1912   4.069   1.128   0.925 -2.7270 -1.3547 -0.9504
  467SOL    HW3 1913   4.047   1.142   0.775  2.4927  2.5740 -1.4504
  467SOL    MW4 1914   4.094   1.112   0.843  0.0629  0.6723 -0.5409
  468SOL     OW 1915   4.337   1.206   0.694  0.2834  0.0983  0.1528
  468SOL    HW2 1916   4.264   1.164   0.740  0.2030  0.6513  0.5426
  468SOL    HW3 1917   4.415   1.171   0.736  0.2057  0.7854  0.8936
  468SOL    MW4 1918   4.338   1.196   0.706  0.2623  0.2619  0.3020
  469SOL     OW 1919   4.272   1.481   0.779 -0.0214 -0.1330  0.0270
  469SOL    HW2 1920   4.274   1.487   0.875  1.8607  2.9290 -0.1352
  469SOL    HW3 1921   4.305   1.394   0.760 -1.0353 -1.0365  2.1714
  469SOL    MW4 1922   4.276   1.470   0.789  0.0935  0.1518  0.2885
  470SOL     OW 1923   4.034   1.621   0.716  0.1115 -0.4587  0.1557
  470SOL    HW2 1924   4.107   1.573   0.754  0.5953 -0.6554 -1.0023
  470SOL    HW3 1925   4.050   1.619   0.622  0.2364  2.0962  0.0777
  470SOL    MW4 1926   4.046   1.615   0.709  0.1912 -0.1475 -0.0073
  471SOL     OW 1927   3.984   1.897   0.741  0.0673 -0.1452 -0.2227
  471SOL    HW2 1928   4.065   1.946   0.727 -0.0117 -0.0548 -0.3654
  471SOL    HW3 1929   4.010   1.805   0.731  0.6716 -0.2827  2.2289
  471SOL    MW4 1930   3.998   1.891   0.738  0.1366 -0.1513  0.0820
  472SOL     OW 1931   4.234   2.035   0.691  0.4054  0.2333 -0.5508
  472SOL    HW2 1932   4.319   2.005   0.723 -0.1040 -1.4204 -0.7389
  472SOL    HW3 1933   4.248   2.051   0.598  1.1032  2.2002 -0.1378
  472SOL    MW4 1934   4.247   2.033   0.683  0.4301  0.2744 -0.5211
  473SOL     OW 1935   4.275   2.315   0.768  0.2615 -0.1689 -0.2299
  473SOL    HW2 1936   4.238   2.358   0.691 -1.0635 -0.5828  0.1691
  473SOL    HW3 1937   4.246   2.224   0.761  1.2030 -0.5001  0.0897
  473SOL    MW4 1938   4.266   2.309   0.757  0.2112 -0.2670 -0.1351
  474SOL     OW 1939   4.169   2.431   0.529 -0.3331  0.4354  0.2850
  474SOL    HW2 1940   4.207   2.476   0.454 -1.8761 -0.2192 -0.9157
  474SOL    HW3 1941   4.092   2.483   0.553 -1.6533 -1.0422 -0.5973
  474SOL    MW4 1942   4.164   2.443   0.523 -0.7110  0.1543  0.0101
  475SOL     OW 1943   4.053   2.731   0.840  0.1306 -0.6116  0.3527
  475SOL    HW2 1944   4.121   2.758   0.778  1.4725  0.8616  2.4017
  475SOL    HW3 1945   3.991   2.804   0.840  0.4952 -0.2955  1.2391
  475SOL    MW4 1946   4.053   2.744   0.832  0.3552 -0.3755  0.7400
  476SOL     OW 1947   4.269   2.824   0.666 -0.8539 -0.2970  0.3232
  476SOL    HW2 1948   4.346   2.768   0.676 -1.6381 -1.1948  1.3991
  476SOL    HW3 1949   4.283   2.896   0.726  0.1362  0.6609 -1.0288
  476SOL    MW4 1950   4.281   2.826   0.675 -0.8264 -0.2890  0.2868
  477SOL     OW 1951   4.040   3.232   0.727  0.0366 -0.1530  0.1146
  477SOL    HW2 1952   3.949   3.214   0.704 -0.4624 -2.2676  3.4685
  477SOL    HW3 1953   4.036   3.313   0.779  0.4179  1.1608 -1.8516
  477SOL    MW4 1954   4.028   3.241   0.731  0.0215 -0.2584  0.2977
  478SOL     OW 1955   3.844   2.909   0.547 -0.3617  0.1128 -0.2831
  478SOL    HW2 1956   3.918   2.902   0.486  1.1064  0.2181  1.4392
  478SOL    HW3 1957   3.776   2.853   0.509  0.7924 -0.4128 -1.6180
  478SOL    MW4 1958   3.845   2.901   0.534 -0.0155  0.0575 -0.2320
  479SOL     OW 1959   4.055   3.482   0.825  0.4529 -0.3459  0.0247
  479SOL    HW2 1960   4.071   3.496   0.918  1.2860  2.7277 -0.5282
  479SOL    HW3 1961   4.132   3.518   0.782 -0.5616 -0.4373 -1.9257
  479SOL    MW4 1962   4.067   3.489   0.831  0.4292  0.0477 -0.3056
  480SOL     OW 1963   4.270   3.622   0.726 -0.4581 -0.4476 -0.4011
  480SOL    HW2 1964   4.257   3.630   0.632 -2.0910 -1.1149 -0.2456
  480SOL    HW3 1965   4.282   3.712   0.756  0.3018 -0.2535 -1.2724
  480SOL    MW4 1966   4.270   3.635   0.718 -0.5732 -0.5097 -0.4956
  481SOL     OW 1967   4.267   3.876   0.826  0.3863 -0.0431 -0.2201
  481SOL    HW2 1968   4.264   3.871   0.921  0.3929 -0.8708 -0.2612
  481SOL    HW3 1969   4.187   3.923   0.802 -0.2478 -0.9446  0.1154
  481SOL    MW4 1970   4.256   3.881   0.835  0.3037 -0.2713 -0.1813
  482SOL     OW 1971   4.029   4.016   0.732  0.0213 -0.2037 -0.4737
  482SOL    HW2 1972   3.973   3.947   0.769 -0.1982  0.9519  1.4368
  482SOL    HW3 1973   3.995   4.029   0.644 -1.3560 -1.0121 -0.0817
  482SOL    MW4 1974   4.017   4.008   0.725 -0.1893 -0.1578 -0.1698
  483SOL     OW 1975   4.026   4.284   0.846 -0.4698  0.4430 -0.4030
  483SOL    HW2 1976   4.104   4.339   0.833 -0.6504  0.6425 -0.6319
  483SOL    HW3 1977   4.046   4.203   0.799  0.3202 -0.1833  0.9682
  483SOL    MW4 1978   4.039   4.281   0.838 -0.3896  0.3862 -0.2523
  484SOL     OW 1979   4.453   4.271   0.821 -0.1910  0.0279  0.1202
  484SOL    HW2 1980   4.435   4.263   0.915  0.3576 -2.1368  0.0853
  484SOL    HW3 1981   4.470   4.181   0.793  0.0145  0.7007 -1.9875
  484SOL    MW4 1982   4.453   4.258   0.830 -0.0920 -0.1693 -0.1625
  485SOL     OW 1983   0.213   0.007   1.099 -0.4666  0.1409 -0.6613
  485SOL    HW2 1984   0.290   0.048   1.137 -0.2162  0.0915 -1.1172
  485SOL    HW3 1985   0.220   0.023   1.005  0.3476 -2.1074 -1.0220
  485SOL    MW4 1986   0.224   0.014   1.092 -0.3261 -0.1623 -0.7691
  486SOL     OW 1987   4.471   0.096   1.227  0.1445  0.0142  0.2928
  486SOL    HW2 1988   4.397   0.036   1.214  0.0803 -0.7825  3.8333
  486SOL    HW3 1989   4.540   0.059   1.171 -0.5376 -2.2013  0.8331
  486SOL    MW4 1990   4.470   0.083   1.218  0.0460 -0.3832  0.8311
  487SOL     OW 1991   4.477   0.354   1.147  0.0558 -0.4949  0.7367
  487SOL    HW2 1992   4.390   0.384   1.172 -0.7828 -1.6040 -0.7512
  487SOL    HW3 1993   4.477   0.261   1.169  0.2310 -0.8965 -0.8748
  487SOL    MW4 1994   4.465   0.345   1.153 -0.0315 -0.6942  0.3277
  488SOL     OW 1995   0.227   0.478   1.202 -0.2007 -0.0772  0.5440
  488SOL    HW2 1996   0.223   0.544   1.133  1.2408  0.7865  1.2650
  488SOL    HW3 1997   0.145   0.429   1.193 -0.7968  1.1055 -0.6838
  488SOL    MW4 1998   0.216   0.480   1.192 -0.0892  0.1928  0.4772
  489SOL     OW 1999   0.223   0.705   1.046 -0.1202  0.2334 -0.1974
  489SOL    HW2 2000   0.288   0.757   1.092  0.6087 -1.6175  0.9416
  489SOL    HW3 2001   0.138   0.741   1.074  0.2614 -1.3769  3.3391
  489SOL    MW4 2002   0.220   0.716   1.056  0.0263 -0.2232  0.4194
  490SOL     OW 2003   0.003   0.849   1.156  0.2999 -0.3674  0.4112
  490SOL    HW2 2004  -0.011   0.831   1.249  1.2689 -0.7743  0.4867
  490SOL    HW3 2005  -0.082   0.830   1.115 -0.6809  1.6017  1.4485
  490SOL    MW4 2006  -0.010   0.844   1.163  0.2985 -0.1612  0.5579
  491SOL     OW 2007   4.475   1.117   1.067  0.0751  0.0387  0.1796
  491SOL    HW2 2008   4.391   1.158   1.085 -0.8485 -1.5213 -0.4546
  491SOL    HW3 2009   4.474   1.037   1.121  0.6369 -0.5923 -0.7329
  491SOL    MW4 2010   4.464   1.112   1.077  0.0277 -0.2503 -0.0244
  492SOL     OW 2011   0.174   1.274   1.214  0.3053  0.2771 -0.3263
  492SOL    HW2 2012   0.257   1.241   1.179 -0.5938 -0.8169 -1.4452
  492SOL    HW3 2013   0.107   1.228   1.164 -0.9838  1.1299  0.6045
  492SOL    MW4 2014   0.176   1.264   1.203  0.0166  0.2452 -0.3512
  493SOL     OW 2015   0.182   1.535   1.105  0.1405 -0.0979 -0.4688
  493SOL    HW2 2016   0.187   1.447   1.143  0.0960  0.3058  0.5061
  493SOL    HW3 2017   0.194   1.522   1.011 -0.9949 -1.2612 -0.4655
  493SOL    MW4 2018   0.184   1.522   1.098 -0.0152 -0.1981 -0.3396
  494SOL     OW 2019   4.442   1.655   1.233 -0.2814  0.2819 -0.4231
  494SOL    HW2 2020   4.442   1.737   1.183 -0.4255 -0.4173 -1.6107
  494SOL    HW3 2021   4.522   1.610   1.203 -0.4888 -0.2460 -0.1847
  494SOL    MW4 2022   4.453   1.660   1.222 -0.3276  0.1199 -0.5485
  495SOL     OW 2023   4.437   1.879   1.083  0.0522  0.2534  0.3008
  495SOL    HW2 2024   4.369   1.942   1.108 -1.1594 -1.1844  0.7094
  495SOL    HW3 2025   4.449   1.893   0.989 -1.0572  0.3007  0.1574
  495SOL    MW4 2026   4.430   1.889   1.074 -0.2542  0.0700  0.3358
  496SOL     OW 2027   0.196   2.008   1.168  0.1284  0.6378 -0.0500
  496SOL    HW2 2028   0.197   2.101   1.144  2.1819  0.5132 -0.5374
  496SOL    HW3 2029   0.113   1.975   1.133  0.1269  1.9253 -1.2992
  496SOL    MW4 2030   0.185   2.016   1.161  0.3992  0.7913 -0.2791
  497SOL     OW 2031   0.228   2.278   1.105 -0.4596  0.4881 -0.0186
  497SOL    HW2 2032   0.304   2.316   1.148  0.1019 -0.5794 -0.0543
  497SOL    HW3 2033   0.156   2.337   1.127  0.2924  1.2691  0.3663
  497SOL    MW4 2034   0.228   2.291   1.113 -0.2863  0.4501  0.0274
  498SOL     OW 2035   0.024   2.461   1.160  0.0039  0.1627  0.4048
  498SOL    HW2 2036   0.004   2.474   1.253 -1.0668 -0.8365  0.3272
  498SOL    HW3 2037  -0.056   2.423   1.124  0.1380  1.2755 -1.0962
  498SOL    MW4 2038   0.011   2.457   1.167 -0.1197  0.1776  0.1965
  499SOL     OW 2039   4.485   2.706   1.056  0.0643 -0.1590  0.9151
  499SOL    HW2 2040   4.409   2.751   1.094 -1.2721 -0.9931 -0.7408
  499SOL    HW3 2041   4.487   2.621   1.101 -0.0562 -0.1852  0.8723
  499SOL    MW4 2042   4.475   2.701   1.067 -0.1279 -0.2723  0.6908
  500SOL     OW 2043   0.238   2.802   1.165 -0.4239 -0.1222  0.1808
  500SOL    HW2 2044   0.224   2.784   1.258  1.0443 -1.0491  0.2375
  500SOL    HW3 2045   0.161   2.766   1.122 -1.7888  1.5428  1.1489
  500SOL    MW4 2046   0.226   2.795   1.172 -0.4102 -0.0248  0.3160
  501SOL     OW 2047   0.235   3.071   1.071  0.1270 -0.0988 -0.0102
  501SOL    HW2 2048   0.273   3.142   1.123 -1.7669  0.1140  1.1445
  501SOL    HW3 2049   0.243   2.993   1.126  0.7067 -0.4573 -0.5973
  501SOL    MW4 2050   0.241   3.070   1.085 -0.0464 -0.1178  0.0646
  502SOL     OW 2051   4.482   3.211   1.189  0.5715  0.2758  0.8596
  502SOL    HW2 2052   4.398   3.174   1.161  1.1604 -1.2332  1.0072
  502SOL    HW3 2053   4.546   3.142   1.168  1.6836  1.1625  1.3022
  502SOL    MW4 2054   4.480   3.197   1.182  0.7958  0.1936  0.9376
  503SOL     OW 2055   0.025   3.477   1.115  0.4838  0.5085 -0.2728
  503SOL    HW2 2056   0.027   3.391   1.157 -1.0653  0.7843  0.4050
  503SOL    HW3 2057  -0.011   3.461   1.028  0.8158  0.3766 -0.3860
  503SOL    MW4 2058   0.021   3.464   1.109  0.3233  0.5274 -0.1984
  504SOL     OW 2059   0.233   3.630   1.209 -0.0267 -0.5249  0.2262
  504SOL    HW2 2060   0.242   3.596   1.298  0.2346 -0.2220  0.3145
  504SOL    HW3 2061   0.166   3.575   1.169 -0.5036 -0.3332  0.7658
  504SOL    MW4 2062   0.225   3.618   1.215 -0.0552 -0.4597  0.3090
  505SOL     OW 2063   0.240   3.895   1.122 -0.4292 -0.2111 -0.3598
  505SOL    HW2 2064   0.166   3.930   1.170 -0.5671 -1.5016  0.3988
  505SOL    HW3 2065   0.253   3.807   1.157  1.5633  0.0428 -0.3494
  505SOL    MW4 2066   0.232   3.888   1.133 -0.1845 -0.3481 -0.2583
  506SOL     OW 2067   0.001   3.979   1.229  0.1718 -0.3671  0.0004
  506SOL    HW2 2068  -0.026   3.966   1.319 -0.1906  1.6219  0.1872
  506SOL    HW3 2069  -0.070   3.941   1.177  0.6362 -2.0100  0.5321
  506SOL    MW4 2070  -0.012   3.972   1.234  0.1855 -0.3214  0.0951
  507SOL     OW 2071   4.467   4.251   1.129  0.2593 -0.2194 -0.0971
  507SOL    HW2 2072   4.547   4.291   1.162  0.6104 -0.5646 -0.5222
  507SOL    HW3 2073   4.480   4.157   1.142 -0.1813 -0.2573  0.0653
  507SOL    MW4 2074   4.479   4.244   1.135  0.2475 -0.2694 -0.1318
  508SOL     OW 2075   0.196   4.392   1.206 -0.2342 -0.1926  0.0044
  508SOL    HW2 2076   0.221   4.395   1.298 -2.3893  0.6931  0.6006
  508SOL    HW3 2077   0.197   4.483   1.177 -2.2409 -0.1670 -0.0599
  508SOL    MW4 2078   0.199   4.404   1.214 -0.7833 -0.0720  0.0746
  509SOL     OW 2079   0.677   4.649   1.086 -0.3383 -0.1850 -0.1179
  509SOL    HW2 2080   0.749   4.689   1.135 -1.2556  0.0355  1.0897
  509SOL    HW3 2081   0.673   4.559   1.118 -0.6501 -0.1701 -0.1088
  509SOL    MW4 2082   0.686   4.642   1.097 -0.5004 -0.1540  0.0427
  510SOL     OW 2083   0.467   0.106   1.197 -0.0808 -0.0807 -0.4579
  510SOL    HW2 2084   0.466   0.194   1.158  0.3237 -0.6327 -1.7468
  510SOL    HW3 2085   0.540   0.062   1.153 -0.9064 -1.3837 -0.5339
  510SOL    MW4 2086   0.477   0.112   1.186 -0.1364 -0.3254 -0.6381
  511SOL     OW 2087   0.447   0.352   1.093 -0.0023 -0.3328 -0.4256
  511SOL    HW2 2088   0.368   0.393   1.128 -0.1099 -1.0007  0.1192
  511SOL    HW3 2089   0.437   0.359   0.998 -0.0082  0.9169 -0.3418
  511SOL    MW4 2090   0.435   0.359   1.085 -0.0173 -0.2560 -0.3426
  512SOL     OW 2091   0.629   0.547   1.178  0.0060  0.3595  0.3107
  512SOL    HW2 2092   0.626   0.626   1.124  0.9128  0.4848  0.4368
  512SOL    HW3 2093   0.573   0.485   1.132 -0.2678  0.8936 -0.0881
  512SOL    MW4 2094   0.621   0.549   1.165  0.0895  0.4464  0.2745
  513SOL     OW 2095   0.630   0.805   1.043 -0.1638 -0.1277  0.2207
  513SOL    HW2 2096   0.545   0.832   1.077 -0.1019 -0.9320  1.0605
  513SOL    HW3 2097   0.625   0.821   0.949 -1.3242 -0.3669  0.2335
  513SOL    MW4 2098   0.618   0.810   1.035 -0.3088 -0.2655  0.3332
  514SOL     OW 2099   0.410   0.866   1.201  0.0833  0.1321 -0.4763
  514SOL    HW2 2100   0.422   0.857   1.296 -0.1391  1.9994 -0.2466
  514SOL    HW3 2101   0.397   0.960   1.188 -0.3237 -0.1691 -2.3150
  514SOL    MW4 2102   0.410   0.877   1.212  0.0002  0.3387 -0.6884
  515SOL     OW 2103   0.357   1.126   1.063 -0.2598  0.5439  0.0266
  515SOL    HW2 2104   0.450   1.147   1.072  0.2510 -1.6038 -0.0562
  515SOL    HW3 2105   0.336   1.150   0.973  1.3432 -3.0190 -1.3906
  515SOL    MW4 2106   0.367   1.132   1.052  0.0191 -0.2097 -0.1712
  516SOL     OW 2107   0.598   1.268   1.140 -0.3558  0.1258 -0.5425
  516SOL    HW2 2108   0.685   1.228   1.128 -0.3722  0.3900 -1.5556
  516SOL    HW3 2109   0.609   1.358   1.110 -0.4481  0.7604  1.2842
  516SOL    MW4 2110   0.611   1.275   1.135 -0.3701  0.2441 -0.4352
  517SOL     OW 2111   0.642   1.541   1.050 -0.4476  0.1923 -0.2590
  517SOL    HW2 2112   0.724   1.573   1.088 -0.1637 -1.4460  0.5568
  517SOL    HW3 2113   0.574   1.570   1.111 -0.5839  2.1990 -1.3218
  517SOL    MW4 2114   0.644   1.549   1.063 -0.4282  0.2408 -0.2916
  518SOL     OW 2115   0.423   1.635   1.222 -0.2042 -0.0793 -0.9187
  518SOL    HW2 2116   0.418   1.635   1.318 -0.9216  0.0536 -0.9516
  518SOL    HW3 2117   0.340   1.596   1.194 -0.4704  0.9140 -1.5124
  518SOL    MW4 2118   0.411   1.630   1.231 -0.3340  0.0693 -1.0014
  519SOL     OW 2119   0.443   1.914   1.129 -0.0403  0.1577  0.2309
  519SOL    HW2 2120   0.432   1.827   1.168 -0.5242  0.4445  0.7532
  519SOL    HW3 2121   0.357   1.956   1.140 -0.1533  0.2810 -1.0547
  519SOL    MW4 2122   0.430   1.908   1.135 -0.1191  0.2120  0.1302
  520SOL     OW 2123   0.652   2.054   1.206 -0.1823 -0.1242 -0.6144
  520SOL    HW2 2124   0.669   2.065   1.300 -0.3214 -0.5785 -0.5349
  520SOL    HW3 2125   0.578   1.994   1.202  0.3842 -0.7983 -1.0408
  520SOL    MW4 2126   0.644   2.048   1.218 -0.1259 -0.2732 -0.6601
  521SOL     OW 2127   0.719   2.317   1.102  0.3098 -0.1838 -0.2284
  521SOL    HW2 2128   0.633   2.346   1.133  0.5052  0.2050 -0.0391
  521SOL    HW3 2129   0.729   2.229   1.137  0.1652 -0.0714  0.0982
  521SOL    MW4 2130   0.709   2.310   1.111  0.3165 -0.1175 -0.1605
  522SOL     OW 2131   0.475   2.430   1.190 -0.0145 -0.1140  0.3134
  522SOL    HW2 2132   0.443   2.444   1.278 -0.6209 -1.0152  0.2498
  522SOL    HW3 2133   0.488   2.518   1.154 -1.4217  0.2628  0.7009
  522SOL    MW4 2134   0.472   2.443   1.197 -0.2801 -0.1833  0.3561
  523SOL     OW 2135   0.498   2.689   1.071 -0.2606  0.3172 -0.3509
  523SOL    HW2 2136   0.417   2.736   1.091 -0.5980 -0.3554 -0.1062
  523SOL    HW3 2137   0.492   2.670   0.977 -1.8262 -2.3820  0.2440
  523SOL    MW4 2138   0.486   2.693   1.061 -0.5116 -0.1278 -0.2401
  524SOL     OW 2139   0.692   2.847   1.192 -0.0478  0.4627  0.3593
  524SOL    HW2 2140   0.671   2.940   1.186  1.6386  0.7553 -1.9967
  524SOL    HW3 2141   0.621   2.804   1.145 -0.3481  0.6434  0.6461
  524SOL    MW4 2142   0.680   2.854   1.185  0.1351  0.5252  0.0863
  525SOL     OW 2143   0.640   3.123   1.155 -0.4937  0.1321 -0.1186
  525SOL    HW2 2144   0.721   3.175   1.154  0.1763 -0.8735 -2.2131
  525SOL    HW3 2145   0.613   3.119   1.063 -3.1451  0.7480  0.6041
  525SOL    MW4 2146   0.647   3.129   1.143 -0.7551  0.0806 -0.2997
  526SOL     OW 2147   0.401   3.234   1.251  0.3614  0.0793  0.1195
  526SOL    HW2 2148   0.400   3.329   1.239 -0.7826 -0.0006 -0.5286
  526SOL    HW3 2149   0.487   3.206   1.217  0.4200  0.8058 -0.3379
  526SOL    MW4 2150   0.412   3.242   1.245  0.2182  0.1647 -0.0262
  527SOL     OW 2151   0.453   3.500   1.179 -0.2862  0.1234 -0.3331
  527SOL    HW2 2152   0.533   3.537   1.217  0.0200 -0.7432 -0.1327
  527SOL    HW3 2153   0.387   3.569   1.192 -0.2073 -0.1594  1.8246
  527SOL    MW4 2154   0.455   3.514   1.186 -0.2353 -0.0284 -0.0221
  528SOL     OW 2155   0.688   3.614   1.260 -0.3477 -0.2738  0.2172
  528SOL    HW2 2156   0.657   3.624   1.350 -0.4105  1.5542 -0.0029
  528SOL    HW3 2157   0.688   3.702   1.223  2.1822 -0.6164 -0.7554
  528SOL    MW4 2158   0.684   3.627   1.267 -0.0222 -0.0777  0.0598
  529SOL     OW 2159   0.653   3.884   1.163  0.3194  0.1256  0.6386
  529SOL    HW2 2160   0.584   3.948   1.182 -2.0980 -2.4674  0.8882
  529SOL    HW3 2161   0.644   3.868   1.069  1.5554  0.8549  0.3919
  529SOL    MW4 2162   0.643   3.891   1.153  0.1635 -0.1202  0.6391
  530SOL     OW 2163   0.422   4.067   1.210  0.2901  0.0682 -0.3618
  530SOL    HW2 2164   0.433   4.147   1.158  0.4552  0.5110  0.3424
  530SOL    HW3 2165   0.351   4.020   1.167 -0.8160  1.3051  0.0608
  530SOL    MW4 2166   0.414   4.072   1.197  0.1659  0.2899 -0.2130
  531SOL     OW 2167   0.441   4.309   1.059  0.1860 -0.4160  0.1410
  531SOL    HW2 2168   0.514   4.345   1.110  0.5325 -0.1088 -0.5674
  531SOL    HW3 2169   0.363   4.334   1.107  0.5158 -0.2077  0.5724
  531SOL    MW4 2170   0.441   4.317   1.072  0.2753 -0.3481  0.1044
  532SOL     OW 2171   0.654   4.395   1.218  0.0229  0.3394  0.2081
  532SOL    HW2 2172   0.641   4.400   1.313 -0.4195  1.3272  0.1019
  532SOL    HW3 2173   0.730   4.338   1.207  0.1467  0.3092  1.1587
  532SOL    MW4 2174   0.662   4.388   1.229 -0.0191  0.4654  0.3195
  533SOL     OW 2175   1.111   4.665   1.138  0.4648 -0.1066  0.6110
  533SOL    HW2 2176   1.097   4.578   1.174 -0.2369 -0.1005  0.3738
  533SOL    HW3 2177   1.116   4.651   1.043 -1.1413  0.2843  0.4590
  533SOL    MW4 2178   1.110   4.652   1.130  0.1602 -0.0544  0.5598
  534SOL     OW 2179   0.890   0.143   1.211 -0.3377  0.2283  0.0715
  534SOL    HW2 2180   0.897   0.135   1.306 -0.4446  1.1519  0.1590
  534SOL    HW3 2181   0.968   0.097   1.178  0.0782  0.5206  0.6252
  534SOL    MW4 2182   0.901   0.136   1.219 -0.2968  0.3888  0.1560
  535SOL     OW 2183   0.879   0.419   1.150 -0.3488  0.2453  0.1952
  535SOL    HW2 2184   0.869   0.325   1.165 -0.8576 -0.3838 -3.6556
  535SOL    HW3 2185   0.792   0.455   1.169  0.1502  0.2101  2.8668
  535SOL    MW4 2186   0.866   0.412   1.155 -0.3501  0.1577  0.0397
  536SOL     OW 2187   1.117   0.541   1.221  0.0413 -0.0900  0.1664
  536SOL    HW2 2188   1.127   0.549   1.316  0.4988 -0.3918  0.1434
  536SOL    HW3 2189   1.044   0.480   1.210  1.7291 -2.2069  0.3326
  536SOL    MW4 2190   1.109   0.534   1.232  0.3244 -0.4092  0.1853
  537SOL     OW 2191   1.112   0.752   1.059  0.4375  0.1235 -0.2264
  537SOL    HW2 2192   1.027   0.789   1.082 -0.0698 -1.1975  0.0908
  537SOL    HW3 2193   1.122   0.677   1.118  0.9943 -0.8209 -1.4964
  537SOL    MW4 2194   1.102   0.747   1.070  0.4442 -0.1754 -0.3521
  538SOL     OW 2195   0.868   0.879   1.156 -0.0144 -0.2359  0.4717
  538SOL    HW2 2196   0.870   0.971   1.130 -2.3223  0.5233  2.8447
  538SOL    HW3 2197   0.781   0.849   1.133  0.3744 -1.5659  0.6859
  538SOL    MW4 2198   0.857   0.887   1.149 -0.2676 -0.3112  0.8131
  539SOL     OW 2199   0.865   1.168   1.108  0.0527  0.1196 -0.0055
  539SOL    HW2 2200   0.932   1.226   1.145 -0.6577  0.4339  0.8198
  539SOL    HW3 2201   0.869   1.184   1.014  0.8997  0.3986  0.0734
  539SOL    MW4 2202   0.874   1.178   1.101  0.0707  0.1980  0.1138
  540SOL     OW 2203   1.067   1.330   1.214  0.0283 -0.7209 -1.3268
  540SOL    HW2 2204   1.075   1.346   1.308  0.6957  0.7436 -1.6200
  540SOL    HW3 2205   1.146   1.283   1.190 -0.1913 -1.1871 -1.1357
  540SOL    MW4 2206   1.078   1.326   1.223  0.0875 -0.5891 -1.3402
  541SOL     OW 2207   1.117   1.568   1.084  0.1211  0.2682  0.2599
  541SOL    HW2 2208   1.100   1.477   1.110 -0.3568  0.5751  1.0626
  541SOL    HW3 2209   1.112   1.568   0.989  0.2300 -0.5720  0.2537
  541SOL    MW4 2210   1.114   1.556   1.075  0.0724  0.1978  0.3650
  542SOL     OW 2211   0.865   1.653   1.178 -0.2923  0.3888  0.8142
  542SOL    HW2 2212   0.842   1.742   1.150  1.1494  0.4451 -0.2595
  542SOL    HW3 2213   0.954   1.641   1.147 -0.1419 -1.1073  1.7822
  542SOL    MW4 2214   0.874   1.663   1.170 -0.0822  0.1988  0.8001
  543SOL     OW 2215   0.842   1.910   1.077  0.4516  0.0154 -0.3588
  543SOL    HW2 2216   0.928   1.939   1.107  0.4647 -0.6951  0.2943
  543SOL    HW3 2217   0.780   1.964   1.126  0.5131 -0.0431 -0.2141
  543SOL    MW4 2218   0.845   1.921   1.088  0.4615 -0.0861 -0.2534
  544SOL     OW 2219   1.081   2.052   1.143 -0.1649 -0.3651  0.2703
  544SOL    HW2 2220   1.097   2.049   1.237 -0.1373 -0.0776  0.2761
  544SOL    HW3 2221   1.082   2.146   1.121  1.6528 -0.4929 -0.3218
  544SOL    MW4 2222   1.084   2.064   1.152  0.0786 -0.3443  0.1930
  545SOL     OW 2223   1.135   2.343   1.086 -0.3439 -0.1870  0.2342
  545SOL    HW2 2224   1.223   2.362   1.118  0.1928  1.5001 -2.1327
  545SOL    HW3 2225   1.077   2.391   1.145  0.4231  0.0410  0.8093
  545SOL    MW4 2226   1.139   2.352   1.098 -0.1719  0.0658 -0.0021
  546SOL     OW 2227   0.901   2.479   1.224  0.2239 -0.1771 -0.3629
  546SOL    HW2 2228   0.890   2.464   1.318  1.6569  2.2289  0.2550
  546SOL    HW3 2229   0.832   2.427   1.182 -0.3328 -1.3984  2.0002
  546SOL    MW4 2230   0.891   2.470   1.231  0.3396 -0.0207  0.0304
  547SOL     OW 2231   0.921   2.733   1.105 -0.0401 -0.1282 -0.0160
  547SOL    HW2 2232   0.911   2.647   1.147 -0.4805 -0.3539 -0.5714
  547SOL    HW3 2233   0.844   2.782   1.133  0.1158  0.0207  0.1498
  547SOL    MW4 2234   0.909   2.728   1.114 -0.0777 -0.1385 -0.0674
  548SOL     OW 2235   1.132   2.861   1.214  0.2966 -0.2860 -0.2830
  548SOL    HW2 2236   1.137   2.837   1.306 -0.0733 -1.3552 -0.5411
  548SOL    HW3 2237   1.055   2.815   1.181  0.3232  0.2380 -1.0833
  548SOL    MW4 2238   1.123   2.852   1.222  0.2511 -0.3576 -0.4227
  549SOL     OW 2239   1.137   3.124   1.098  0.6238 -0.3842 -0.2416
  549SOL    HW2 2240   1.125   3.035   1.132 -0.4714 -0.5023 -0.9337
  549SOL    HW3 2241   1.140   3.112   1.003  0.9443  0.2726 -0.3128
  549SOL    MW4 2242   1.136   3.111   1.090  0.5215 -0.3133 -0.3422
  550SOL     OW 2243   0.905   3.252   1.187  0.1653  0.0755  0.1263
  550SOL    HW2 2244   0.936   3.343   1.180 -0.3327  0.2530  0.1766
  550SOL    HW3 2245   0.979   3.199   1.160  1.1949  0.4171  2.1294
  550SOL    MW4 2246   0.919   3.257   1.183  0.2354  0.1440  0.3972
  551SOL     OW 2247   0.915   3.547   1.113 -0.1507  0.5118 -0.2820
  551SOL    HW2 2248   0.835   3.567   1.161 -0.3566  0.1182 -0.4663
  551SOL    HW3 2249   0.886   3.526   1.024  0.1909  0.7830 -0.4585
  551SOL    MW4 2250   0.901   3.547   1.108 -0.1327  0.4957 -0.3295
  552SOL     OW 2251   1.146   3.665   1.236 -0.0718 -0.1636  0.7546
  552SOL    HW2 2252   1.220   3.615   1.200 -0.1445  0.0626  0.2826
  552SOL    HW3 2253   1.068   3.621   1.203 -0.1450 -0.1985  0.9719
  552SOL    MW4 2254   1.146   3.653   1.227 -0.0911 -0.1383  0.7211
  553SOL     OW 2255   1.097   3.892   1.083  0.2146 -0.0690 -0.0567
  553SOL    HW2 2256   1.028   3.942   1.126  0.4114  0.5695 -0.4668
  553SOL    HW3 2257   1.098   3.808   1.128 -0.6894 -0.0092  0.0866
  553SOL    MW4 2258   1.088   3.888   1.094  0.1215  0.0229 -0.0919
  554SOL     OW 2259   0.877   4.006   1.227  0.1548 -0.1588 -0.6331
  554SOL    HW2 2260   0.857   4.006   1.321 -0.7827 -0.5489 -0.8238
  554SOL    HW3 2261   0.802   3.962   1.187  0.3239  0.4384 -1.6162
  554SOL    MW4 2262   0.864   4.000   1.234  0.0535 -0.1316 -0.7879
  555SOL     OW 2263   0.883   4.276   1.125  0.6851 -0.3483  0.7424
  555SOL    HW2 2264   0.894   4.182   1.141  1.0403 -0.6099 -0.9406
  555SOL    HW3 2265   0.869   4.283   1.031 -1.4340  1.1245  1.1321
  555SOL    MW4 2266   0.883   4.265   1.115  0.4523 -0.1884  0.5718
  556SOL     OW 2267   1.123   4.402   1.220  0.3391  0.1466 -0.5488
  556SOL    HW2 2268   1.126   4.403   1.315  1.3171 -1.0806 -0.5620
  556SOL    HW3 2269   1.038   4.362   1.199  0.3963 -0.1622 -0.1958
  556SOL    MW4 2270   1.112   4.397   1.229  0.4755 -0.0563 -0.5040
  557SOL     OW 2271   1.541   4.644   1.152 -0.3766  0.6677  0.0379
  557SOL    HW2 2272   1.617   4.695   1.181 -0.9565  1.9503 -0.6431
  557SOL    HW3 2273   1.567   4.553   1.164  0.9437  1.1116  0.6304
  557SOL    MW4 2274   1.554   4.639   1.157 -0.2789  0.8960  0.0261
  558SOL     OW 2275   1.326   0.129   1.244 -0.0823  0.9284  0.3323
  558SOL    HW2 2276   1.394   0.063   1.233  0.0287  1.0370  0.3653
  558SOL    HW3 2277   1.252   0.096   1.193 -0.6367 -0.0701  1.7432
  558SOL    MW4 2278   1.325   0.116   1.236 -0.1407  0.8110  0.5229
  559SOL     OW 2279   1.317   0.380   1.075  0.6132 -0.1709  0.2733
  559SOL    HW2 2280   1.336   0.303   1.130 -0.1748  0.8333  2.0157
  559SOL    HW3 2281   1.245   0.424   1.121  0.7578  1.3667 -0.9513
  559SOL    MW4 2282   1.310   0.376   1.089  0.5282  0.1644  0.3418
  560SOL     OW 2283   1.537   0.500   1.196 -0.5305 -0.1862 -0.4061
  560SOL    HW2 2284   1.547   0.590   1.163 -0.6242 -0.3262 -0.8154
  560SOL    HW3 2285   1.460   0.466   1.152  0.5366 -1.0804 -1.6397
  560SOL    MW4 2286   1.528   0.508   1.186 -0.4021 -0.3226 -0.6229
  561SOL     OW 2287   1.546   0.775   1.101  0.2558  0.0839  0.6276
  561SOL    HW2 2288   1.604   0.844   1.132 -0.3062  0.9790 -0.2985
  561SOL    HW3 2289   1.553   0.777   1.006 -0.9985 -0.0402  0.5139
  561SOL    MW4 2290   1.554   0.784   1.092  0.0162  0.1857  0.4904
  562SOL     OW 2291   1.316   0.877   1.201  0.7438 -0.1560  0.4055
  562SOL    HW2 2292   1.394   0.829   1.175  0.2755 -0.6951  0.0014
  562SOL    HW3 2293   1.244   0.830   1.161  0.2714  0.8102  0.1075
  562SOL    MW4 2294   1.317   0.865   1.193  0.6196 -0.0997  0.3130
  563SOL     OW 2295   1.266   1.140   1.088  0.2016 -0.7416 -0.5684
  563SOL    HW2 2296   1.279   1.057   1.134 -0.4276 -0.4852  0.0787
  563SOL    HW3 2297   1.309   1.128   1.003 -0.1966 -1.8454 -0.6132
  563SOL    MW4 2298   1.274   1.128   1.083  0.0660 -0.8534 -0.4889
  564SOL     OW 2299   1.483   1.285   1.196  0.0249 -0.3798 -0.0738
  564SOL    HW2 2300   1.562   1.245   1.159  0.1909 -0.3325  0.2248
  564SOL    HW3 2301   1.411   1.235   1.157  0.1891 -0.2078 -0.6001
  564SOL    MW4 2302   1.484   1.273   1.186  0.0684 -0.3508 -0.1037
  565SOL     OW 2303   1.569   1.515   1.059  0.0634  0.1204  0.0461
  565SOL    HW2 2304   1.645   1.553   1.103 -0.8694  0.9569  0.9439
  565SOL    HW3 2305   1.531   1.456   1.124 -0.8184  0.7083  0.0746
  565SOL    MW4 2306   1.574   1.512   1.073 -0.1760  0.3084  0.1684
  566SOL     OW 2307   1.351   1.681   1.210  0.3417 -0.1436 -0.0172
  566SOL    HW2 2308   1.415   1.623   1.169 -0.3640 -2.2143  1.7329
  566SOL    HW3 2309   1.266   1.644   1.186 -0.1533  0.9051  0.0762
  566SOL    MW4 2310   1.348   1.669   1.202  0.1832 -0.2786  0.2260
  567SOL     OW 2311   1.310   1.938   1.062 -0.5138 -0.3915 -0.0201
  567SOL    HW2 2312   1.329   1.868   1.124 -0.2284  0.6139  1.0283
  567SOL    HW3 2313   1.231   1.980   1.096  0.6166  1.2488  0.5957
  567SOL    MW4 2314   1.302   1.934   1.075 -0.3270 -0.0424  0.1993
  568SOL     OW 2315   1.543   2.046   1.162 -0.2952  0.4153  0.2046
  568SOL    HW2 2316   1.562   2.134   1.129  1.5478 -0.8846 -2.3523
  568SOL    HW3 2317   1.460   2.023   1.122  0.5222 -0.0157 -1.2914
  568SOL    MW4 2318   1.535   2.055   1.152  0.0558  0.1869 -0.3301
  569SOL     OW 2319   1.565   2.317   1.081 -0.3950  0.1471 -0.3948
  569SOL    HW2 2320   1.486   2.351   1.123 -0.1016  0.4132 -0.0554
  569SOL    HW3 2321   1.546   2.321   0.987 -0.3401  1.3504 -0.3658
  569SOL    MW4 2322   1.552   2.322   1.074 -0.3490  0.3409 -0.3463
  570SOL     OW 2323   1.360   2.454   1.229  0.0218 -0.0654 -0.6567
  570SOL    HW2 2324   1.383   2.469   1.320  1.9387  0.8914 -1.2694
  570SOL    HW3 2325   1.354   2.541   1.190  0.8958 -0.5200 -1.8419
  570SOL    MW4 2326   1.362   2.467   1.236  0.3901  0.0010 -0.8941
  571SOL     OW 2327   1.358   2.715   1.118 -0.3233 -0.1995  0.8082
  571SOL    HW2 2328   1.428   2.761   1.164  1.0504 -0.3300 -1.0825
  571SOL    HW3 2329   1.279   2.766   1.136  0.9351  2.1473 -0.1472
  571SOL    MW4 2330   1.356   2.728   1.126  0.0240  0.0927  0.4327
  572SOL     OW 2331   1.578   2.830   1.231 -0.3107  0.0538  0.2943
  572SOL    HW2 2332   1.641   2.788   1.172 -0.5508  0.4954 -0.2771
  572SOL    HW3 2333   1.568   2.919   1.197 -1.1294  0.0339  0.4641
  572SOL    MW4 2334   1.585   2.836   1.218 -0.4503  0.1094  0.2413
  573SOL     OW 2335   1.593   3.075   1.093 -0.2562 -0.1684 -0.4867
  573SOL    HW2 2336   1.672   3.126   1.111 -1.0434  0.6140  0.8523
  573SOL    HW3 2337   1.521   3.137   1.106 -1.1156 -0.9877 -1.2479
  573SOL    MW4 2338   1.593   3.090   1.097 -0.4735 -0.1733 -0.4103
  574SOL     OW 2339   1.390   3.258   1.142 -0.0701  0.1601 -0.5352
  574SOL    HW2 2340   1.382   3.242   1.236  2.4799  0.3387 -0.2531
  574SOL    HW3 2341   1.306   3.229   1.105 -1.1613  0.2722  1.8051
  574SOL    MW4 2342   1.378   3.252   1.149  0.1222  0.1986 -0.1891
  575SOL     OW 2343   1.340   3.520   1.087  0.3221 -0.3137  0.1912
  575SOL    HW2 2344   1.360   3.428   1.100  0.4935 -0.0031  2.1409
  575SOL    HW3 2345   1.334   3.529   0.991  5.1490 -1.3095 -0.3141
  575SOL    MW4 2346   1.342   3.509   1.076  0.9817 -0.4041  0.3818
  576SOL     OW 2347   1.609   3.606   1.196 -0.7959  0.6707  0.0174
  576SOL    HW2 2348   1.578   3.696   1.182 -1.7821  0.1487 -1.2521
  576SOL    HW3 2349   1.539   3.551   1.162 -0.4105 -0.6013  1.2372
  576SOL    MW4 2350   1.596   3.611   1.190 -0.8751  0.4339  0.0108
  577SOL     OW 2351   1.544   3.874   1.124 -0.1150  0.1887 -0.1527
  577SOL    HW2 2352   1.463   3.911   1.158  0.4161  1.4942 -0.2755
  577SOL    HW3 2353   1.522   3.848   1.034 -0.8111 -0.8981  0.3242
  577SOL    MW4 2354   1.530   3.875   1.116 -0.1367  0.2174 -0.1059
  578SOL     OW 2355   1.318   4.007   1.240 -0.4330 -0.1458 -0.1788
  578SOL    HW2 2356   1.315   4.096   1.206 -0.0746  0.3141  0.9698
  578SOL    HW3 2357   1.255   3.959   1.186 -1.7436  1.1406  0.1787
  578SOL    MW4 2358   1.309   4.012   1.228 -0.5587  0.0844  0.0199
  579SOL     OW 2359   1.323   4.250   1.115  0.1925 -0.1679  0.4800
  579SOL    HW2 2360   1.254   4.311   1.139 -0.3663 -0.7937  0.4600
  579SOL    HW3 2361   1.324   4.250   1.019  0.9393  0.6387  0.4708
  579SOL    MW4 2362   1.314   4.258   1.106  0.2173 -0.1435  0.4761
  580SOL     OW 2363   1.564   4.361   1.174  0.3904  0.2591 -0.2435
  580SOL    HW2 2364   1.577   4.364   1.269  2.0081 -2.9949 -0.2934
  580SOL    HW3 2365   1.481   4.313   1.163  0.7892 -0.3763 -0.4945
  580SOL    MW4 2366   1.555   4.355   1.185  0.6565 -0.2537 -0.2831
  581SOL     OW 2367   2.007   4.641   1.092 -0.0920  0.1235 -0.4345
  581SOL    HW2 2368   1.999   4.548   1.110  2.8177 -0.0733  0.1908
  581SOL    HW3 2369   2.015   4.646   0.996 -0.1340 -0.2951 -0.4600
  581SOL    MW4 2370   2.007   4.630   1.082  0.2861  0.0424 -0.3554
  582SOL     OW 2371   1.769   0.102   1.213 -0.0948  0.6659  0.1143
  582SOL    HW2 2372   1.762   0.177   1.155 -1.1180 -0.8148 -1.7259
  582SOL    HW3 2373   1.854   0.063   1.194 -1.0560 -0.6898 -1.5045
  582SOL    MW4 2374   1.779   0.107   1.203 -0.3567  0.2917 -0.3420
  583SOL     OW 2375   1.754   0.362   1.099 -0.1845  0.3327  0.0802
  583SOL    HW2 2376   1.676   0.408   1.131 -0.2394 -0.1431  0.6341
  583SOL    HW3 2377   1.749   0.371   1.004 -0.1578  1.5404  0.1732
  583SOL    MW4 2378   1.743   0.370   1.091 -0.1880  0.4293  0.1655
  584SOL     OW 2379   1.985   0.483   1.196  0.3524 -1.0209  0.0848
  584SOL    HW2 2380   1.979   0.484   1.291  0.3705 -1.1139  0.0872
  584SOL    HW3 2381   1.906   0.437   1.167 -0.7332  0.8685 -0.0378
  584SOL    MW4 2382   1.974   0.477   1.205  0.2115 -0.7839  0.0688
  585SOL     OW 2383   1.997   0.774   1.107 -0.6046  0.1799  0.5419
  585SOL    HW2 2384   1.986   0.684   1.137  0.0939  0.1542  0.7413
  585SOL    HW3 2385   2.002   0.767   1.011  0.2926 -0.0878  0.6062
  585SOL    MW4 2386   1.996   0.761   1.098 -0.3940  0.1411  0.5766
  586SOL     OW 2387   1.771   0.915   1.200 -0.0350  0.2953  0.1791
  586SOL    HW2 2388   1.768   0.902   1.295 -0.4052  0.1856  0.1549
  586SOL    HW3 2389   1.838   0.854   1.169  0.7680  1.0294  0.4826
  586SOL    MW4 2390   1.779   0.905   1.208  0.0221  0.3777  0.2160
  587SOL     OW 2391   1.723   1.193   1.107  0.2882 -0.3135  0.1552
  587SOL    HW2 2392   1.721   1.099   1.124  0.0437  0.0447  2.1986
  587SOL    HW3 2393   1.735   1.200   1.012  0.7388 -2.3960  0.0396
  587SOL    MW4 2394   1.724   1.182   1.097  0.3154 -0.5410  0.4095
  588SOL     OW 2395   1.979   1.277   1.210  0.0467  0.1200 -0.4352
  588SOL    HW2 2396   2.042   1.210   1.184 -0.0081  0.5138 -1.6019
  588SOL    HW3 2397   1.895   1.243   1.179 -0.3090 -0.3685  1.0493
  588SOL    MW4 2398   1.976   1.264   1.202 -0.0075  0.1075 -0.3934
  589SOL     OW 2399   1.988   1.520   1.078  0.2891  0.2064 -0.3235
  589SOL    HW2 2400   1.994   1.437   1.127 -0.4465  0.8569  0.9048
  589SOL    HW3 2401   1.980   1.493   0.986  1.8145 -1.0356 -0.1119
  589SOL    MW4 2402   1.987   1.505   1.072  0.3934  0.1283 -0.1335
  590SOL     OW 2403   1.765   1.666   1.197 -0.5105 -0.0536 -0.4637
  590SOL    HW2 2404   1.770   1.754   1.159  1.9687  0.0880  0.1103
  590SOL    HW3 2405   1.841   1.620   1.160  0.0970 -0.9084  1.7967
  590SOL    MW4 2406   1.776   1.672   1.187 -0.1032 -0.1476 -0.0899
  591SOL     OW 2407   1.777   1.935   1.090 -0.5330  0.1312  0.2701
  591SOL    HW2 2408   1.697   1.980   1.118 -0.7171  0.0451 -0.1132
  591SOL    HW3 2409   1.787   1.960   0.998 -1.0697 -1.2390 -0.1710
  591SOL    MW4 2410   1.768   1.944   1.081 -0.6280 -0.0609  0.1613
  592SOL     OW 2411   2.001   2.091   1.189 -0.5709 -0.1348  0.0495
  592SOL    HW2 2412   2.018   2.090   1.283 -0.5860 -1.1523  0.0474
  592SOL    HW3 2413   1.918   2.044   1.179  0.2065 -1.4039 -0.6059
  592SOL    MW4 2414   1.993   2.085   1.200 -0.4703 -0.4365 -0.0372
  593SOL     OW 2415   2.005   2.341   1.072 -0.0365  0.2018  0.3939
  593SOL    HW2 2416   2.083   2.380   1.110  0.4259  0.0510 -0.3957
  593SOL    HW3 2417   2.006   2.250   1.102  0.8722 -0.1922 -0.7890
  593SOL    MW4 2418   2.015   2.334   1.081  0.1445  0.1299  0.1336
  594SOL     OW 2419   1.773   2.459   1.205  0.0766 -0.5391  0.4883
  594SOL    HW2 2420   1.851   2.421   1.163  0.6700  0.0466  1.0364
  594SOL    HW3 2421   1.700   2.409   1.170  0.8444 -2.2212  1.1941
  594SOL    MW4 2422   1.774   2.447   1.195  0.2563 -0.6835  0.6537
  595SOL     OW 2423   1.803   2.703   1.086  0.2984  0.0796 -0.4672
  595SOL    HW2 2424   1.784   2.617   1.123 -2.1321  1.1347  0.8105
  595SOL    HW3 2425   1.811   2.688   0.991 -0.2354 -1.5095 -0.2642
  595SOL    MW4 2426   1.802   2.690   1.078 -0.0926  0.0093 -0.2719
  596SOL     OW 2427   2.037   2.808   1.213  0.8034 -0.1702  0.1542
  596SOL    HW2 2428   2.031   2.899   1.184  0.8329  0.4552  2.0373
  596SOL    HW3 2429   1.954   2.769   1.188  0.0942  0.8514  0.8774
  596SOL    MW4 2430   2.025   2.815   1.206  0.7138  0.0472  0.4983
  597SOL     OW 2431   2.043   3.066   1.110  0.1084 -0.1133 -0.0829
  597SOL    HW2 2432   1.965   3.108   1.148  0.0069 -0.5341  0.1768
  597SOL    HW3 2433   2.029   3.072   1.016 -0.5391 -0.7388 -0.0331
  597SOL    MW4 2434   2.031   3.072   1.103  0.0095 -0.2513 -0.0421
  598SOL     OW 2435   1.811   3.215   1.177 -0.2100 -0.1498  0.9343
  598SOL    HW2 2436   1.804   3.229   1.272 -0.5276 -1.4286  1.1113
  598SOL    HW3 2437   1.824   3.302   1.141  0.9655  0.2402  2.2558
  598SOL    MW4 2438   1.812   3.228   1.185 -0.0968 -0.2673  1.1321
  599SOL     OW 2439   1.834   3.482   1.080  0.1406 -0.7020  0.0972
  599SOL    HW2 2440   1.907   3.533   1.118 -0.1312 -0.1004 -0.1888
  599SOL    HW3 2441   1.757   3.512   1.128  0.0887 -1.4101  0.4646
  599SOL    MW4 2442   1.834   3.493   1.092  0.0979 -0.7160  0.1079
  600SOL     OW 2443   2.066   3.603   1.171 -0.0842  0.0126  0.5723
  600SOL    HW2 2444   2.071   3.605   1.266 -0.3871 -2.1533  0.6738
  600SOL    HW3 2445   2.148   3.561   1.144  0.3983  1.4082 -0.1837
  600SOL    MW4 2446   2.078   3.597   1.180 -0.0603 -0.0892  0.4860
  601SOL     OW 2447   2.048   3.849   1.050 -0.0454 -0.1789  0.2894
  601SOL    HW2 2448   1.963   3.886   1.077  0.2341  0.1181  0.7761
  601SOL    HW3 2449   2.055   3.768   1.100  0.5573  0.4643  1.2753
  601SOL    MW4 2450   2.038   3.844   1.060  0.0710 -0.0548  0.4839
  602SOL     OW 2451   1.805   3.974   1.164 -0.2885  0.2005  0.0046
  602SOL    HW2 2452   1.823   3.975   1.258 -0.9031  0.6633  0.1231
  602SOL    HW3 2453   1.715   3.942   1.158  0.7875 -2.8859 -0.6144
  602SOL    MW4 2454   1.795   3.970   1.176 -0.2276 -0.1454 -0.0614
  603SOL     OW 2455   1.789   4.232   1.077  0.0982  0.4821  0.3030
  603SOL    HW2 2456   1.778   4.146   1.116 -0.2183  0.4912  0.2312
  603SOL    HW3 2457   1.715   4.283   1.109  0.6229  0.9086  0.8437
  603SOL    MW4 2458   1.778   4.228   1.086  0.1255  0.5398  0.3648
  604SOL     OW 2459   2.020   4.381   1.159 -0.0072  0.4928 -0.0623
  604SOL    HW2 2460   2.013   4.376   1.255  2.6473 -0.6451  0.1014
  604SOL    HW3 2461   1.951   4.322   1.128  0.3853 -0.6684  1.1926
  604SOL    MW4 2462   2.010   4.373   1.168  0.3946  0.1898  0.1249
  605SOL     OW 2463   2.463   0.006   1.088  0.0950 -0.2192  0.2003
  605SOL    HW2 2464   2.539   0.049   1.128 -0.0659  0.8436 -0.6238
  605SOL    HW3 2465   2.387   0.046   1.130 -0.0243 -0.9594  0.6968
  605SOL    MW4 2466   2.463   0.017   1.099  0.0579 -0.1764  0.1570
  606SOL     OW 2467   2.230   0.134   1.213 -0.5743  0.0912  0.3948
  606SOL    HW2 2468   2.224   0.221   1.174  1.5108 -1.0911 -2.7597
  606SOL    HW3 2469   2.153   0.087   1.182 -0.4061  0.0333  0.0707
  606SOL    MW4 2470   2.219   0.139   1.204 -0.2770 -0.0724 -0.0641
  607SOL     OW 2471   2.209   0.391   1.057  0.0039  0.1906  0.2834
  607SOL    HW2 2472   2.123   0.422   1.087 -1.0455 -1.7434 -0.6538
  607SOL    HW3 2473   2.196   0.371   0.964  1.4506 -0.1837  0.1525
  607SOL    MW4 2474   2.196   0.393   1.048  0.0563 -0.1139  0.1425
  608SOL     OW 2475   2.448   0.515   1.170  0.3807 -0.3513  0.0968
  608SOL    HW2 2476   2.453   0.498   1.264  0.1461 -1.8531 -0.1603
  608SOL    HW3 2477   2.369   0.470   1.142  0.4485  0.0991 -0.8259
  608SOL    MW4 2478   2.438   0.507   1.179  0.3586 -0.4901 -0.0588
  609SOL     OW 2479   2.435   0.765   1.076 -0.3058  0.0659 -0.0944
  609SOL    HW2 2480   2.437   0.673   1.100 -0.1799 -0.2242 -1.1898
  609SOL    HW3 2481   2.469   0.767   0.986 -0.0428  1.2052  0.0215
  609SOL    MW4 2482   2.440   0.753   1.067 -0.2542  0.1779 -0.2236
  610SOL     OW 2483   2.239   0.863   1.228  0.0516 -0.2100 -0.2609
  610SOL    HW2 2484   2.309   0.822   1.177  1.0699  0.8890  0.2417
  610SOL    HW3 2485   2.159   0.827   1.190  0.8590 -1.0225 -1.2452
  610SOL    MW4 2486   2.238   0.853   1.216  0.2925 -0.1721 -0.3244
  611SOL     OW 2487   2.182   1.098   1.120 -0.5936  0.0022 -0.5275
  611SOL    HW2 2488   2.259   1.146   1.153 -0.6402  0.0777 -0.5301
  611SOL    HW3 2489   2.195   1.009   1.152 -0.4180 -0.0244 -0.6716
  611SOL    MW4 2490   2.194   1.092   1.129 -0.5765  0.0086 -0.5471
  612SOL     OW 2491   2.386   1.248   1.183  0.0637 -0.4005 -0.2760
  612SOL    HW2 2492   2.467   1.210   1.148 -0.7343 -1.4253 -1.0495
  612SOL    HW3 2493   2.395   1.343   1.168  1.1198 -0.5092 -0.3347
  612SOL    MW4 2494   2.398   1.256   1.176  0.0978 -0.5500 -0.3858
  613SOL     OW 2495   2.465   1.537   1.104 -0.3000 -0.4691 -0.1274
  613SOL    HW2 2496   2.386   1.587   1.122 -0.9667 -0.9959 -1.5385
  613SOL    HW3 2497   2.468   1.528   1.009  1.5581 -0.3020 -0.1092
  613SOL    MW4 2498   2.455   1.542   1.094 -0.1426 -0.5165 -0.3111
  614SOL     OW 2499   2.215   1.635   1.175 -0.0075  0.0955 -0.2996
  614SOL    HW2 2500   2.202   1.727   1.154  2.1144 -0.2330 -3.3291
  614SOL    HW3 2501   2.146   1.590   1.126  0.2278 -0.0902 -0.4592
  614SOL    MW4 2502   2.204   1.641   1.166  0.3035  0.0275 -0.7204
  615SOL     OW 2503   2.199   1.914   1.079  0.3492 -0.0156  0.3395
  615SOL    HW2 2504   2.147   1.984   1.119 -0.3103 -0.6805  0.6570
  615SOL    HW3 2505   2.187   1.926   0.985  1.2298  1.0444  0.3582
  615SOL    MW4 2506   2.190   1.925   1.072  0.3784  0.0365  0.3837
  616SOL     OW 2507   2.433   2.010   1.220  0.3223 -0.0960 -0.2045
  616SOL    HW2 2508   2.508   1.960   1.190  0.5396  1.6836 -2.7803
  616SOL    HW3 2509   2.358   1.974   1.171  0.1490  0.6941 -0.5314
  616SOL    MW4 2510   2.433   1.999   1.210  0.3281  0.2433 -0.5875
  617SOL     OW 2511   2.460   2.278   1.124 -0.3803 -0.2068  0.0935
  617SOL    HW2 2512   2.465   2.184   1.143 -0.8284 -0.3168 -0.3177
  617SOL    HW3 2513   2.462   2.283   1.028  0.9308  0.2844  0.1319
  617SOL    MW4 2514   2.461   2.266   1.114 -0.2663 -0.1566  0.0442
  618SOL     OW 2515   2.219   2.414   1.222  0.1393  0.2157  0.5236
  618SOL    HW2 2516   2.219   2.429   1.316  1.3435  0.8028  0.4449
  618SOL    HW3 2517   2.304   2.373   1.204 -0.9139 -1.7642 -0.0271
  618SOL    MW4 2518   2.230   2.411   1.232  0.1590  0.0319  0.4406
  619SOL     OW 2519   2.254   2.660   1.116  0.0290  0.1544 -0.2416
  619SOL    HW2 2520   2.250   2.584   1.174  0.3053  0.3359  0.0110
  619SOL    HW3 2521   2.174   2.709   1.135  0.6789  0.8296  0.8253
  619SOL    MW4 2522   2.243   2.657   1.126  0.1514  0.2677 -0.0675
  620SOL     OW 2523   2.472   2.793   1.220 -0.3186 -0.1565 -0.1325
  620SOL    HW2 2524   2.462   2.816   1.312 -1.9949 -0.6154 -0.1804
  620SOL    HW3 2525   2.387   2.756   1.195  0.0140  0.2427 -1.9355
  620SOL    MW4 2526   2.459   2.791   1.229 -0.4959 -0.1643 -0.3768
  621SOL     OW 2527   2.476   3.039   1.081  0.2995 -0.0860 -0.3587
  621SOL    HW2 2528   2.400   3.077   1.125  0.0337 -0.5738 -0.3938
  621SOL    HW3 2529   2.484   2.951   1.118  1.3187  0.2377  0.2129
  621SOL    MW4 2530   2.467   3.032   1.092  0.3989 -0.1075 -0.2878
  622SOL     OW 2531   2.282   3.190   1.195 -0.0592  0.0569  0.0523
  622SOL    HW2 2532   2.283   3.282   1.167 -0.0854 -0.0118 -0.1821
  622SOL    HW3 2533   2.192   3.161   1.180  0.2802 -0.4120 -1.2525
  622SOL    MW4 2534   2.270   3.198   1.189 -0.0176 -0.0141 -0.1507
  623SOL     OW 2535   2.288   3.478   1.091  0.1353  0.2907 -0.1173
  623SOL    HW2 2536   2.376   3.508   1.113  0.8348 -1.3855 -0.5873
  623SOL    HW3 2537   2.281   3.493   0.996  0.7285 -1.5951 -0.4755
  623SOL    MW4 2538   2.298   3.484   1.081  0.3057 -0.1793 -0.2266
  624SOL     OW 2539   2.524   3.601   1.169 -0.2901  0.8495 -0.2484
  624SOL    HW2 2540   2.509   3.609   1.263 -0.7571  0.8916 -0.3283
  624SOL    HW3 2541   2.515   3.690   1.135  0.8130  0.9861 -0.1964
  624SOL    MW4 2542   2.521   3.614   1.177 -0.2062  0.8729 -0.2521
  625SOL     OW 2543   2.473   3.867   1.092 -0.3130  0.1846  0.2534
  625SOL    HW2 2544   2.400   3.924   1.115 -0.2310  0.9228 -1.2485
  625SOL    HW3 2545   2.478   3.871   0.997  2.3837  1.0492  0.3730
  625SOL    MW4 2546   2.464   3.875   1.083  0.0534  0.3960  0.0710
  626SOL     OW 2547   2.258   4.018   1.154 -0.1257  0.5002  0.7152
  626SOL    HW2 2548   2.245   4.097   1.101  0.7348  0.3954  0.3287
  626SOL    HW3 2549   2.197   3.954   1.117  0.2105  0.5396  0.0724
  626SOL    MW4 2550   2.248   4.020   1.142  0.0322  0.4916  0.5794
  627SOL     OW 2551   2.269   4.279   1.066  0.1512 -0.2536 -0.1178
  627SOL    HW2 2552   2.187   4.318   1.095 -0.2538 -0.2549 -1.2468
  627SOL    HW3 2553   2.266   4.283   0.971  0.0830 -3.0493 -0.2677
  627SOL    MW4 2554   2.258   4.285   1.057  0.0885 -0.6227 -0.2866
  628SOL     OW 2555   2.481   4.375   1.227 -0.0284  0.1900 -0.5567
  628SOL    HW2 2556   2.402   4.330   1.196 -0.1909  0.0866  0.0117
  628SOL    HW3 2557   2.480   4.459   1.181  0.1093 -0.2534 -1.3846
  628SOL    MW4 2558   2.470   4.380   1.217 -0.0317  0.1173 -0.5909
  629SOL     OW 2559   2.919   4.641   1.116 -0.1869 -0.0460 -0.2784
  629SOL    HW2 2560   2.897   4.552   1.146 -1.0792 -0.3995 -1.9287
  629SOL    HW3 2561   2.910   4.637   1.021  1.1130  1.4596 -0.4866
  629SOL    MW4 2562   2.915   4.628   1.107 -0.1330  0.1054 -0.5237
  630SOL     OW 2563   2.680   0.138   1.202  0.1975 -0.0437 -0.4738
  630SOL    HW2 2564   2.697   0.133   1.296  0.9786  2.1863 -0.4771
  630SOL    HW3 2565   2.749   0.084   1.163 -0.9792 -2.1567  0.2724
  630SOL    MW4 2566   2.692   0.130   1.209  0.1457 -0.0283 -0.3757
  631SOL     OW 2567   2.640   0.363   1.040  0.3887 -0.2272  0.0696
  631SOL    HW2 2568   2.639   0.278   1.084  1.6236 -0.0989  0.3409
  631SOL    HW3 2569   2.580   0.417   1.092 -0.8010 -1.0627 -0.4001
  631SOL    MW4 2570   2.632   0.359   1.053  0.3948 -0.3205  0.0435
  632SOL     OW 2571   2.868   0.479   1.178 -0.0819  0.1689 -0.3169
  632SOL    HW2 2572   2.885   0.568   1.149  0.2059  0.3241  0.3174
  632SOL    HW3 2573   2.784   0.456   1.138 -0.1766  0.7364 -0.4413
  632SOL    MW4 2574   2.859   0.488   1.169 -0.0563  0.2642 -0.2496
  633SOL     OW 2575   2.875   0.747   1.070  0.1395  0.5367  0.1014
  633SOL    HW2 2576   2.945   0.798   1.111  0.3150  0.0130  0.4662
  633SOL    HW3 2577   2.794   0.789   1.100  0.1597 -1.5328  3.3727
  633SOL    MW4 2578   2.873   0.759   1.079  0.1652  0.1945  0.5811
  634SOL     OW 2579   2.658   0.905   1.190  0.4595  0.2605  0.4905
  634SOL    HW2 2580   2.674   0.997   1.169  0.2984  0.4495  1.2049
  634SOL    HW3 2581   2.573   0.886   1.151  0.2937  0.5331  0.7180
  634SOL    MW4 2582   2.649   0.915   1.182  0.4165  0.3213  0.6148
  635SOL     OW 2583   2.654   1.161   1.091  0.5935  0.0276  0.0804
  635SOL    HW2 2584   2.720   1.211   1.141 -0.3133  2.6136 -1.2070
  635SOL    HW3 2585   2.683   1.169   1.000  0.3020 -1.6719 -0.1709
  635SOL    MW4 2586   2.667   1.169   1.086  0.4354  0.1446 -0.1228
  636SOL     OW 2587   2.865   1.238   1.242  0.0717  0.3016 -0.5029
  636SOL    HW2 2588   2.865   1.252   1.337 -1.5661  0.4843 -0.5149
  636SOL    HW3 2589   2.891   1.323   1.206 -0.5379  0.6075 -0.2447
  636SOL    MW4 2590   2.868   1.251   1.250 -0.2251  0.3660 -0.4704
  637SOL     OW 2591   2.884   1.482   1.109 -0.1850 -0.3581  0.8558
  637SOL    HW2 2592   2.953   1.539   1.141  0.7890 -1.8086  1.3997
  637SOL    HW3 2593   2.894   1.483   1.014 -0.2961  0.5320  0.8565
  637SOL    MW4 2594   2.894   1.489   1.101 -0.0710 -0.4321  0.9277
  638SOL     OW 2595   2.698   1.653   1.207  0.4587 -0.3854 -0.0938
  638SOL    HW2 2596   2.766   1.605   1.161 -0.4438 -1.2134 -0.5965
  638SOL    HW3 2597   2.616   1.612   1.178 -0.2782  0.8703  0.1645
  638SOL    MW4 2598   2.696   1.641   1.197  0.2422 -0.3289 -0.1260
  639SOL     OW 2599   2.688   1.925   1.158 -0.1772 -0.3109  0.2069
  639SOL    HW2 2600   2.769   1.969   1.182 -0.9650  1.3742 -0.1310
  639SOL    HW3 2601   2.702   1.834   1.181  1.8032 -0.0291  0.1720
  639SOL    MW4 2602   2.700   1.919   1.164 -0.0198 -0.0514  0.1577
  640SOL     OW 2603   2.958   2.002   1.224 -0.3784  0.0921  0.1114
  640SOL    HW2 2604   2.963   2.013   1.319 -0.8793 -0.6018  0.2293
  640SOL    HW3 2605   2.959   2.091   1.189 -0.4091  0.3610  0.7811
  640SOL    MW4 2606   2.959   2.015   1.232 -0.4487  0.0362  0.2152
  641SOL     OW 2607   2.945   2.249   1.108 -0.1861 -0.0527 -0.4680
  641SOL    HW2 2608   3.018   2.299   1.145 -0.2749 -0.1301 -0.1867
  641SOL    HW3 2609   2.867   2.295   1.138 -0.2871 -0.8585  0.5132
  641SOL    MW4 2610   2.944   2.262   1.117 -0.2112 -0.1693 -0.3012
  642SOL     OW 2611   2.710   2.390   1.187 -0.0611  0.1718 -0.0592
  642SOL    HW2 2612   2.696   2.393   1.281  0.8924 -2.1030  0.1801
  642SOL    HW3 2613   2.634   2.344   1.152 -0.6857  1.4848 -0.4975
  642SOL    MW4 2614   2.698   2.385   1.195 -0.0179  0.0451 -0.0855
  643SOL     OW 2615   2.694   2.666   1.137 -0.2062 -0.0807 -0.0035
  643SOL    HW2 2616   2.685   2.572   1.155  1.4101  0.0831  1.7545
  643SOL    HW3 2617   2.612   2.704   1.168 -1.2327 -1.0021 -1.5071
  643SOL    MW4 2618   2.682   2.658   1.143 -0.1283 -0.1807  0.0299
  644SOL     OW 2619   2.912   2.822   1.194  0.1475  0.0636  0.0274
  644SOL    HW2 2620   2.903   2.820   1.289 -3.0975  1.5656 -0.1734
  644SOL    HW3 2621   2.839   2.769   1.162  0.5852  0.4464 -1.6473
  644SOL    MW4 2622   2.901   2.815   1.202 -0.2227  0.3121 -0.2201
  645SOL     OW 2623   2.923   3.080   1.108  0.3478 -0.4078  0.2986
  645SOL    HW2 2624   2.935   2.990   1.138  0.7153 -0.2664  0.5863
  645SOL    HW3 2625   2.915   3.074   1.013 -2.4266 -1.0284  0.5496
  645SOL    MW4 2626   2.924   3.068   1.099  0.0303 -0.4711  0.3694
  646SOL     OW 2627   2.673   3.199   1.189 -0.0580 -0.5922  0.0820
  646SOL    HW2 2628   2.748   3.141   1.195  0.7513  0.5553  1.3908
  646SOL    HW3 2629   2.602   3.144   1.155  0.8860 -2.1251  0.5685
  646SOL    MW4 2630   2.673   3.184   1.185  0.1733 -0.6433  0.3189
  647SOL     OW 2631   2.723   3.446   1.078 -0.0088  0.1194 -0.0674
  647SOL    HW2 2632   2.708   3.363   1.124 -0.0349  0.1392 -0.0409
  647SOL    HW3 2633   2.653   3.504   1.108 -1.4084 -0.5799 -1.8917
  647SOL    MW4 2634   2.712   3.443   1.088 -0.1969  0.0296 -0.3046
  648SOL     OW 2635   2.915   3.598   1.222  0.3945  0.3473  0.1758
  648SOL    HW2 2636   2.996   3.556   1.192 -0.7566 -0.0637 -2.4958
  648SOL    HW3 2637   2.845   3.543   1.188 -1.0690  1.8675  0.6356
  648SOL    MW4 2638   2.916   3.585   1.214  0.0494  0.4935 -0.1160
  649SOL     OW 2639   2.905   3.869   1.113  0.0399 -0.0193  0.2220
  649SOL    HW2 2640   2.995   3.894   1.134 -0.5718  1.2615  1.4009
  649SOL    HW3 2641   2.893   3.784   1.156  0.0707  0.7375  1.7920
  649SOL    MW4 2642   2.916   3.861   1.122 -0.0367  0.2496  0.5847
  650SOL     OW 2643   2.681   4.010   1.209  0.1421  0.0034  0.0372
  650SOL    HW2 2644   2.763   3.971   1.180 -0.0627  0.4334 -1.1604
  650SOL    HW3 2645   2.613   3.954   1.173 -0.1007 -0.0419  0.5610
  650SOL    MW4 2646   2.683   3.998   1.201  0.0830  0.0541 -0.0516
  651SOL     OW 2647   2.684   4.255   1.089  0.5755 -0.3734 -0.0283
  651SOL    HW2 2648   2.688   4.167   1.128 -0.3125 -0.7120 -0.6708
  651SOL    HW3 2649   2.607   4.295   1.130  1.7425  0.6167  1.2620
  651SOL    MW4 2650   2.674   4.249   1.100  0.6123 -0.2871  0.0573
  652SOL     OW 2651   2.898   4.374   1.200 -0.0528  0.5402  0.2757
  652SOL    HW2 2652   2.974   4.324   1.169 -0.7315  0.1677 -0.8258
  652SOL    HW3 2653   2.823   4.333   1.157 -0.9799  0.3848  2.0125
  652SOL    MW4 2654   2.898   4.362   1.190 -0.2646  0.4706  0.3595
  653SOL     OW 2655   3.362   4.633   1.093  0.2934 -0.1704  0.2735
  653SOL    HW2 2656   3.432   4.678   1.140  0.2745 -1.2514  1.3468
  653SOL    HW3 2657   3.281   4.667   1.130  0.2758 -0.8507  0.8616
  653SOL    MW4 2658   3.361   4.643   1.104  0.2885 -0.4029  0.4927
  654SOL     OW 2659   3.141   0.098   1.198  0.3873 -0.3647 -0.1089
  654SOL    HW2 2660   3.142   0.113   1.292  0.0232 -0.6712 -0.0539
  654SOL    HW3 2661   3.060   0.048   1.182  0.7785 -0.8895 -0.4880
  654SOL    MW4 2662   3.130   0.093   1.208  0.3910 -0.4744 -0.1516
  655SOL     OW 2663   3.111   0.352   1.105 -0.2859 -0.4122  0.1782
  655SOL    HW2 2664   3.100   0.264   1.139  0.9365 -1.2516 -1.5455
  655SOL    HW3 2665   3.033   0.399   1.135 -1.4979 -2.3760  0.1824
  655SOL    MW4 2666   3.099   0.347   1.113 -0.2844 -0.7820 -0.0488
  656SOL     OW 2667   3.340   0.454   1.221 -0.0112  0.4301  0.1854
  656SOL    HW2 2668   3.322   0.545   1.195 -0.6899  0.3258  0.2616
  656SOL    HW3 2669   3.267   0.404   1.183  0.2977 -0.0620  0.2424
  656SOL    MW4 2670   3.328   0.459   1.213 -0.0601  0.3514  0.2030
  657SOL     OW 2671   3.317   0.715   1.095 -0.1218  0.3168  0.0927
  657SOL    HW2 2672   3.246   0.775   1.119  0.6926  1.6277 -0.7188
  657SOL    HW3 2673   3.301   0.696   1.002 -1.2586 -1.9713  0.7192
  657SOL    MW4 2674   3.306   0.721   1.086 -0.1643  0.1879  0.0682
  658SOL     OW 2675   3.084   0.861   1.173 -0.0167 -0.0239 -0.0910
  658SOL    HW2 2676   3.085   0.876   1.268  0.0384 -0.1327 -0.0745
  658SOL    HW3 2677   3.098   0.948   1.135  1.2398 -0.1795  0.0134
  658SOL    MW4 2678   3.086   0.875   1.181  0.1562 -0.0588 -0.0749
  659SOL     OW 2679   3.102   1.130   1.089  0.0536 -0.0779  0.9304
  659SOL    HW2 2680   3.177   1.177   1.127 -0.1191  0.2904  0.8153
  659SOL    HW3 2681   3.027   1.186   1.107 -0.2467 -0.5867  1.3044
  659SOL    MW4 2682   3.102   1.143   1.097 -0.0088 -0.0963  0.9645
  660SOL     OW 2683   3.341   1.229   1.189  0.3712  0.2261  0.1656
  660SOL    HW2 2684   3.340   1.230   1.285 -0.0607  0.0465  0.1619
  660SOL    HW3 2685   3.351   1.321   1.164 -1.5739  0.4909  0.3539
  660SOL    MW4 2686   3.342   1.242   1.198  0.0575  0.2373  0.1900
  661SOL     OW 2687   3.385   1.495   1.084 -0.0117  0.1402  0.3158
  661SOL    HW2 2688   3.456   1.546   1.123 -0.3225  1.3227 -0.6444
  661SOL    HW3 2689   3.305   1.538   1.114 -0.3010 -0.4473  0.3903
  661SOL    MW4 2690   3.384   1.507   1.093 -0.0908  0.2186  0.1990
  662SOL     OW 2691   3.142   1.609   1.179  0.0980 -0.3178 -0.0826
  662SOL    HW2 2692   3.159   1.608   1.273 -0.7510 -1.0721  0.0689
  662SOL    HW3 2693   3.170   1.695   1.150  0.3469 -0.0795  0.8716
  662SOL    MW4 2694   3.148   1.620   1.188  0.0188 -0.3859  0.0633
  663SOL     OW 2695   3.185   1.889   1.092  0.4740 -0.0757 -0.4258
  663SOL    HW2 2696   3.249   1.952   1.123  0.8943 -2.0731  3.0076
  663SOL    HW3 2697   3.105   1.911   1.139 -0.1969 -0.2428 -1.4764
  663SOL    MW4 2698   3.183   1.900   1.102  0.4408 -0.3612 -0.1115
  664SOL     OW 2699   3.394   2.051   1.169 -0.5351 -0.0673  0.0418
  664SOL    HW2 2700   3.468   2.003   1.131 -0.5318 -1.4022  1.6459
  664SOL    HW3 2701   3.406   2.141   1.139  0.5462 -0.6801 -1.4646
  664SOL    MW4 2702   3.405   2.057   1.160 -0.3920 -0.3242  0.0547
  665SOL     OW 2703   3.423   2.302   1.078  0.7635 -0.2064 -0.2249
  665SOL    HW2 2704   3.489   2.368   1.101  1.3221 -1.0509  0.6233
  665SOL    HW3 2705   3.343   2.332   1.122 -0.0682  2.0999 -3.1947
  665SOL    MW4 2706   3.421   2.315   1.087  0.7274 -0.0136 -0.5049
  666SOL     OW 2707   3.146   2.437   1.201 -0.6168  0.2600 -0.4918
  666SOL    HW2 2708   3.145   2.438   1.297 -0.2958 -0.5433 -0.4730
  666SOL    HW3 2709   3.126   2.527   1.176 -0.1839  0.5954  0.3310
  666SOL    MW4 2710   3.143   2.449   1.211 -0.5171  0.1984 -0.3806
  667SOL     OW 2711   3.143   2.685   1.086  0.2646  0.2112  0.4060
  667SOL    HW2 2712   3.059   2.731   1.095  0.8803  1.2692  0.9339
  667SOL    HW3 2713   3.149   2.664   0.993  0.6853  2.6490 -0.1577
  667SOL    MW4 2714   3.133   2.689   1.075  0.4015  0.6723  0.4013
  668SOL     OW 2715   3.353   2.808   1.230  0.4026 -0.3790 -0.2458
  668SOL    HW2 2716   3.347   2.889   1.179 -0.0980 -0.9463 -1.1041
  668SOL    HW3 2717   3.274   2.759   1.207 -0.8979  0.2431  2.6770
  668SOL    MW4 2718   3.342   2.812   1.220  0.1650 -0.3717  0.0266
  669SOL     OW 2719   3.337   3.069   1.113 -0.1724 -0.7163  0.2387
  669SOL    HW2 2720   3.420   3.096   1.152  0.0441  0.6756 -1.1583
  669SOL    HW3 2721   3.271   3.118   1.162  0.1567  1.6903 -1.6581
  669SOL    MW4 2722   3.339   3.079   1.125 -0.1004 -0.2153 -0.1959
  670SOL     OW 2723   3.125   3.188   1.266  0.6257  0.0500 -0.3808
  670SOL    HW2 2724   3.129   3.278   1.233 -0.5989 -0.2838 -1.5012
  670SOL    HW3 2725   3.051   3.149   1.220  0.1840 -1.0857  1.2424
  670SOL    MW4 2726   3.116   3.195   1.255  0.4060 -0.1438 -0.3145
  671SOL     OW 2727   3.132   3.438   1.151  0.0796 -0.1034  0.3593
  671SOL    HW2 2728   3.212   3.488   1.170  0.4854 -0.2535 -0.8979
  671SOL    HW3 2729   3.124   3.443   1.055 -0.8677 -0.9316  0.4007
  671SOL    MW4 2730   3.142   3.446   1.141  0.0083 -0.2325  0.1990
  672SOL     OW 2731   3.356   3.634   1.183 -0.0047 -0.1563 -0.5503
  672SOL    HW2 2732   3.340   3.622   1.276 -0.1034 -1.1182 -0.6839
  672SOL    HW3 2733   3.434   3.581   1.165  0.9909  1.3139 -0.7021
  672SOL    MW4 2734   3.364   3.626   1.193  0.1135 -0.0892 -0.5881
  673SOL     OW 2735   3.397   3.885   1.060 -0.4090  0.6520 -0.0294
  673SOL    HW2 2736   3.326   3.930   1.104 -0.3618 -0.0864  0.8178
  673SOL    HW3 2737   3.397   3.797   1.098  0.7500  0.5460 -0.2469
  673SOL    MW4 2738   3.387   3.879   1.070 -0.2494  0.5403  0.0535
  674SOL     OW 2739   3.158   3.979   1.184 -0.1870 -0.0925  0.0562
  674SOL    HW2 2740   3.130   3.977   1.276  0.4330  0.5815  0.2721
  674SOL    HW3 2741   3.129   4.065   1.153 -1.2414 -0.6975 -0.6604
  674SOL    MW4 2742   3.151   3.990   1.192 -0.2446 -0.0834 -0.0098
  675SOL     OW 2743   3.121   4.217   1.090 -0.4985 -0.4329 -0.7859
  675SOL    HW2 2744   3.200   4.268   1.106 -0.5508 -0.7821  0.6576
  675SOL    HW3 2745   3.131   4.184   1.001 -0.0397  1.3384 -1.4114
  675SOL    MW4 2746   3.132   4.220   1.081 -0.4449 -0.2451 -0.6779
  676SOL     OW 2747   3.358   4.360   1.186 -0.3449  0.2090 -0.3309
  676SOL    HW2 2748   3.439   4.316   1.159 -0.5018 -1.4409  1.7243
  676SOL    HW3 2749   3.371   4.452   1.161  2.9101  0.3387  1.5186
  676SOL    MW4 2750   3.370   4.366   1.179  0.0639  0.0086  0.1842
  677SOL     OW 2751   3.827   4.659   1.124 -0.2029 -0.4492  0.0740
  677SOL    HW2 2752   3.819   4.569   1.154  0.5233 -0.3309  0.6376
  677SOL    HW3 2753   3.821   4.654   1.029 -2.2480 -0.8604  0.2122
  677SOL    MW4 2754   3.825   4.647   1.116 -0.3769 -0.4879  0.1665
  678SOL     OW 2755   3.570   0.066   1.219  0.1435 -0.1787 -0.1865
  678SOL    HW2 2756   3.581   0.161   1.208 -1.6525 -0.0442 -0.8316
  678SOL    HW3 2757   3.648   0.028   1.178 -0.3081  0.8956 -2.0551
  678SOL    MW4 2758   3.582   0.074   1.212 -0.1533 -0.0192 -0.5181
  679SOL     OW 2759   3.578   0.341   1.159 -0.1223  0.0525 -0.2398
  679SOL    HW2 2760   3.646   0.399   1.194 -0.0805 -0.3265  0.3103
  679SOL    HW3 2761   3.496   0.381   1.185 -0.0984  0.1321 -0.2874
  679SOL    MW4 2762   3.576   0.354   1.167 -0.1137  0.0131 -0.1734
  680SOL     OW 2763   3.794   0.489   1.252  0.0877 -0.2812 -0.0117
  680SOL    HW2 2764   3.861   0.432   1.214 -0.5525 -0.8936 -0.2260
  680SOL    HW3 2765   3.819   0.577   1.223  1.2436 -0.4019  0.5645
  680SOL    MW4 2766   3.806   0.493   1.243  0.1559 -0.3780  0.0361
  681SOL     OW 2767   3.825   0.728   1.115 -0.0920 -0.0402  0.4523
  681SOL    HW2 2768   3.887   0.798   1.130  0.6316 -0.8400  1.2287
  681SOL    HW3 2769   3.740   0.764   1.140  0.4243  0.2131  1.8392
  681SOL    MW4 2770   3.822   0.742   1.120  0.0720 -0.1124  0.7377
  682SOL     OW 2771   3.558   0.819   1.187  0.0807 -0.0269  0.2946
  682SOL    HW2 2772   3.547   0.908   1.153  0.1083 -0.0149  0.3166
  682SOL    HW3 2773   3.480   0.772   1.157  1.1452 -0.5973 -1.6686
  682SOL    MW4 2774   3.546   0.825   1.178  0.2248 -0.1006  0.0385
  683SOL     OW 2775   3.564   1.095   1.126  0.1181 -0.0977 -0.0256
  683SOL    HW2 2776   3.628   1.149   1.173  0.3442 -0.5792  0.2175
  683SOL    HW3 2777   3.480   1.134   1.149  0.2953  0.3133 -0.0541
  683SOL    MW4 2778   3.562   1.107   1.135  0.1712 -0.1070  0.0027
  684SOL     OW 2779   3.761   1.258   1.231  0.3259  0.1988  0.4027
  684SOL    HW2 2780   3.770   1.267   1.326  3.1091 -0.9637  0.3014
  684SOL    HW3 2781   3.756   1.348   1.199  0.7045  0.6489  1.5685
  684SOL    MW4 2782   3.762   1.271   1.239  0.7427  0.1049  0.5432
  685SOL     OW 2783   3.806   1.485   1.121 -0.3115  0.2994 -0.0577
  685SOL    HW2 2784   3.890   1.528   1.139 -0.3288  0.5965 -0.6765
  685SOL    HW3 2785   3.799   1.484   1.026 -0.6808 -0.3701 -0.0287
  685SOL    MW4 2786   3.816   1.490   1.111 -0.3626  0.2502 -0.1355
  686SOL     OW 2787   3.575   1.649   1.202 -0.2510 -0.2897  0.2614
  686SOL    HW2 2788   3.563   1.726   1.145 -2.2511  0.5398  1.7103
  686SOL    HW3 2789   3.665   1.622   1.188 -0.1389  1.0558 -1.8637
  686SOL    MW4 2790   3.585   1.656   1.193 -0.5002 -0.0027  0.1721
  687SOL     OW 2791   3.595   1.892   1.050 -0.1455  0.4894 -0.2386
  687SOL    HW2 2792   3.665   1.947   1.084 -2.4214  2.6381  1.0938
  687SOL    HW3 2793   3.602   1.901   0.955  0.2891  2.1048 -0.0651
  687SOL    MW4 2794   3.605   1.901   1.042 -0.3884  0.9860 -0.0399
  688SOL     OW 2795   3.782   2.056   1.176  0.4766 -0.2304 -0.2601
  688SOL    HW2 2796   3.799   2.047   1.270  0.8475  0.0341 -0.2973
  688SOL    HW3 2797   3.859   2.016   1.134  1.3295  1.5182 -0.4300
  688SOL    MW4 2798   3.795   2.049   1.183  0.6380  0.0355 -0.2874
  689SOL     OW 2799   3.809   2.307   1.045 -0.2865 -0.1530 -0.4629
  689SOL    HW2 2800   3.879   2.349   1.095 -0.6880 -0.4571  0.3569
  689SOL    HW3 2801   3.801   2.220   1.083  0.6183 -1.0248 -2.2309
  689SOL    MW4 2802   3.817   2.301   1.056 -0.2201 -0.3083 -0.5881
  690SOL     OW 2803   3.626   2.482   1.155  0.1689  0.5954  0.0933
  690SOL    HW2 2804   3.629   2.469   1.250  0.1201  1.1658  0.1751
  690SOL    HW3 2805   3.703   2.435   1.122 -0.8086 -1.1284  0.2262
  690SOL    MW4 2806   3.637   2.474   1.163  0.0334  0.4435  0.1217
  691SOL     OW 2807   3.575   2.733   1.097 -0.1355 -0.2496 -0.1563
  691SOL    HW2 2808   3.592   2.642   1.121 -0.0091 -0.3990 -0.7993
  691SOL    HW3 2809   3.489   2.753   1.135  0.1430 -0.4214  0.5697
  691SOL    MW4 2810   3.566   2.724   1.105 -0.0820 -0.2918 -0.1454
  692SOL     OW 2811   3.806   2.826   1.203 -0.3999  0.3495  0.2590
  692SOL    HW2 2812   3.800   2.827   1.299 -0.7150  1.7379  0.2441
  692SOL    HW3 2813   3.721   2.796   1.174 -0.4227  0.2693  0.4055
  692SOL    MW4 2814   3.794   2.822   1.212 -0.4444  0.5217  0.2762
  693SOL     OW 2815   3.784   3.060   1.066  0.1096 -0.3439 -0.1252
  693SOL    HW2 2816   3.793   2.990   1.129  0.6313  0.0802  0.2818
  693SOL    HW3 2817   3.796   3.017   0.981 -2.7315 -1.2816 -0.1026
  693SOL    MW4 2818   3.787   3.045   1.063 -0.1967 -0.4115 -0.0685
  694SOL     OW 2819   3.582   3.192   1.196 -0.1015 -0.1939  0.4055
  694SOL    HW2 2820   3.561   3.283   1.175  0.3905  0.1804  1.4687
  694SOL    HW3 2821   3.649   3.167   1.133 -0.0353  0.2808  0.2873
  694SOL    MW4 2822   3.588   3.200   1.185 -0.0277 -0.0818  0.5302
  695SOL     OW 2823   3.580   3.468   1.115 -0.3394  0.1888 -0.1388
  695SOL    HW2 2824   3.662   3.508   1.144 -0.6712  0.2789  0.7008
  695SOL    HW3 2825   3.587   3.465   1.020  0.4370  0.6278 -0.1015
  695SOL    MW4 2826   3.592   3.473   1.106 -0.2806  0.2587 -0.0232
  696SOL     OW 2827   3.818   3.578   1.182 -0.4533  0.2016  0.0179
  696SOL    HW2 2828   3.832   3.570   1.276  0.4869  0.1844 -0.1228
  696SOL    HW3 2829   3.824   3.672   1.164 -0.1380  0.1612 -0.0978
  696SOL    MW4 2830   3.821   3.589   1.192 -0.2880  0.1941 -0.0159
  697SOL     OW 2831   3.839   3.838   1.117  0.1241  0.7302 -0.2905
  697SOL    HW2 2832   3.763   3.894   1.135 -0.7011 -0.7064  0.8786
  697SOL    HW3 2833   3.843   3.831   1.022 -1.9668 -0.1644 -0.3327
  697SOL    MW4 2834   3.829   3.844   1.107 -0.2608  0.4225 -0.1419
  698SOL     OW 2835   3.621   3.985   1.174 -0.6207  0.1125  0.7271
  698SOL    HW2 2836   3.606   3.981   1.269  0.5130 -1.2771  0.8719
  698SOL    HW3 2837   3.541   3.953   1.135 -0.5849 -0.6381  1.2641
  698SOL    MW4 2838   3.609   3.980   1.182 -0.4666 -0.1700  0.8172
  699SOL     OW 2839   3.596   4.248   1.103 -0.2038  0.0757  0.0909
  699SOL    HW2 2840   3.604   4.154   1.122  1.1260  0.4002  1.1850
  699SOL    HW3 2841   3.585   4.252   1.008 -0.6050 -1.2084  0.0739
  699SOL    MW4 2842   3.595   4.236   1.093 -0.0811 -0.0510  0.2328
  700SOL     OW 2843   3.801   4.394   1.206  0.5107 -0.4669 -0.3826
  700SOL    HW2 2844   3.809   4.372   1.299 -0.2307  0.1435 -0.1779
  700SOL    HW3 2845   3.733   4.335   1.174  1.5156 -1.4291 -0.7855
  700SOL    MW4 2846   3.793   4.383   1.214  0.5457 -0.5131 -0.4086
  701SOL     OW 2847   4.251   4.616   1.151 -0.2267 -0.5787 -0.1132
  701SOL    HW2 2848   4.258   4.523   1.171 -3.7865 -1.3387 -1.8903
  701SOL    HW3 2849   4.192   4.651   1.217  0.8830  0.3942  0.3892
  701SOL    MW4 2850   4.244   4.608   1.162 -0.5498 -0.5503 -0.2815
  702SOL     OW 2851   4.051   0.133   1.240  0.2143  0.2224 -0.3684
  702SOL    HW2 2852   4.044   0.125   1.335  0.5821 -1.2609 -0.4463
  702SOL    HW3 2853   3.967   0.099   1.207  0.3460  0.1103 -0.5893
  702SOL    MW4 2854   4.039   0.127   1.248  0.2804  0.0119 -0.4077
  703SOL     OW 2855   4.000   0.372   1.129  0.0558 -0.2292  0.3494
  703SOL    HW2 2856   4.025   0.285   1.160 -2.1978 -1.5828 -1.3903
  703SOL    HW3 2857   4.012   0.368   1.034 -0.4643  1.2184  0.2067
  703SOL    MW4 2858   4.005   0.360   1.120 -0.3104 -0.2168  0.1011
  704SOL     OW 2859   4.238   0.479   1.216 -0.5123  0.0479  0.4216
  704SOL    HW2 2860   4.220   0.489   1.310 -0.7255  1.3041  0.2518
  704SOL    HW3 2861   4.159   0.439   1.180 -0.4219 -0.4566  0.7757
  704SOL    MW4 2862   4.225   0.475   1.224 -0.5288  0.1471  0.4458
  705SOL     OW 2863   4.251   0.721   1.078  0.0816 -0.3305  0.2995
  705SOL    HW2 2864   4.253   0.632   1.113 -0.0758 -0.5565 -0.2582
  705SOL    HW3 2865   4.261   0.709   0.983  1.5851  0.3317  0.3671
  705SOL    MW4 2866   4.253   0.707   1.070  0.2594 -0.2729  0.2347
  706SOL     OW 2867   4.047   0.895   1.190 -0.5594 -0.4823 -0.4375
  706SOL    HW2 2868   4.055   0.897   1.285  0.4254 -0.0429 -0.5304
  706SOL    HW3 2869   4.124   0.846   1.160 -1.3908 -1.5074 -0.9477
  706SOL    MW4 2870   4.058   0.889   1.199 -0.5393 -0.5596 -0.5170
  707SOL     OW 2871   3.994   1.158   1.095  0.3165 -0.2202 -0.0687
  707SOL    HW2 2872   4.010   1.073   1.135  0.3485 -0.1589  0.0500
  707SOL    HW3 2873   3.913   1.189   1.136  0.2085 -0.2723 -0.2407
  707SOL    MW4 2874   3.985   1.151   1.106  0.3066 -0.2190 -0.0757
  708SOL     OW 2875   4.247   1.271   1.156  0.2080  0.3999 -0.2435
  708SOL    HW2 2876   4.251   1.269   1.252 -0.9859 -1.1156 -0.2048
  708SOL    HW3 2877   4.155   1.252   1.136  0.5525  0.2351 -1.6992
  708SOL    MW4 2878   4.235   1.268   1.166  0.0954  0.1783 -0.4305
  709SOL     OW 2879   4.274   1.530   1.055 -0.9785 -0.1708 -0.1701
  709SOL    HW2 2880   4.274   1.439   1.084  0.1746 -0.4351 -0.9584
  709SOL    HW3 2881   4.326   1.576   1.120 -1.2797 -0.1337  0.0458
  709SOL    MW4 2882   4.281   1.524   1.067 -0.8655 -0.2007 -0.2456
  710SOL     OW 2883   4.028   1.646   1.170 -0.3383  0.7364  0.5529
  710SOL    HW2 2884   4.029   1.630   1.265  0.9473 -0.0246  0.4202
  710SOL    HW3 2885   4.102   1.596   1.137 -2.0373 -0.7183 -1.1462
  710SOL    MW4 2886   4.038   1.638   1.178 -0.3934  0.4439  0.3111
  711SOL     OW 2887   4.000   1.904   1.060 -0.6077 -0.0457  0.4947
  711SOL    HW2 2888   4.012   1.821   1.106  0.2290 -0.5296 -0.5957
  711SOL    HW3 2889   3.977   1.879   0.971  0.1168  0.9034  0.0405
  711SOL    MW4 2890   3.998   1.890   1.055 -0.4017  0.0156  0.2910
  712SOL     OW 2891   4.259   2.070   1.168 -0.2042  0.2922  0.2331
  712SOL    HW2 2892   4.259   2.157   1.128 -0.5342 -0.1800 -0.8179
  712SOL    HW3 2893   4.182   2.027   1.131  0.4511 -0.7507  0.0649
  712SOL    MW4 2894   4.249   2.076   1.158 -0.1616  0.0923  0.0724
  713SOL     OW 2895   4.275   2.326   1.058  1.1308 -0.2370  0.2931
  713SOL    HW2 2896   4.188   2.356   1.083 -0.5133 -4.2984 -0.1579
  713SOL    HW3 2897   4.276   2.328   0.963  1.1709 -1.0610  0.2681
  713SOL    MW4 2898   4.264   2.330   1.049  0.9193 -0.8814  0.2303
  714SOL     OW 2899   4.026   2.459   1.151 -0.1335  0.6697  0.5436
  714SOL    HW2 2900   4.033   2.467   1.247  0.5892  2.0493  0.3799
  714SOL    HW3 2901   4.029   2.549   1.119 -0.0082  0.1893 -0.8063
  714SOL    MW4 2902   4.027   2.472   1.160 -0.0215  0.7882  0.3439
  715SOL     OW 2903   4.058   2.742   1.122  0.1233  0.0822  0.1768
  715SOL    HW2 2904   3.964   2.752   1.141 -0.2877  0.1805 -1.7994
  715SOL    HW3 2905   4.063   2.744   1.027  2.1214 -0.2142  0.2637
  715SOL    MW4 2906   4.046   2.743   1.112  0.3324  0.0560 -0.0726
  716SOL     OW 2907   4.284   2.836   1.216  0.4290  0.2206  0.0289
  716SOL    HW2 2908   4.280   2.922   1.174 -0.2034 -0.7823 -2.0130
  716SOL    HW3 2909   4.201   2.794   1.192  0.4098 -0.6991  1.6147
  716SOL    MW4 2910   4.272   2.842   1.208  0.3428 -0.0331 -0.0312
  717SOL     OW 2911   4.236   3.101   1.108 -0.3520  0.1214  0.3299
  717SOL    HW2 2912   4.149   3.120   1.142 -0.5604  0.1406 -0.2101
  717SOL    HW3 2913   4.222   3.081   1.016 -0.0180 -1.6962  0.6446
  717SOL    MW4 2914   4.223   3.101   1.101 -0.3352 -0.1159  0.3002
  718SOL     OW 2915   3.980   3.195   1.192 -0.0133 -0.3992  0.0019
  718SOL    HW2 2916   3.964   3.183   1.286  0.2039  0.5313  0.1580
  718SOL    HW3 2917   3.901   3.161   1.150 -0.0222 -1.0180  0.5082
  718SOL    MW4 2918   3.967   3.189   1.199  0.0143 -0.3581  0.0893
  719SOL     OW 2919   4.056   3.458   1.114 -0.2309 -0.4118  0.3111
  719SOL    HW2 2920   4.038   3.365   1.129  0.5004 -0.8400 -1.3200
  719SOL    HW3 2921   3.975   3.503   1.139 -0.8233 -1.5544  0.4872
  719SOL    MW4 2922   4.043   3.451   1.119 -0.2122 -0.6192  0.1191
  720SOL     OW 2923   4.290   3.619   1.195  0.2937  0.4330 -0.2118
  720SOL    HW2 2924   4.231   3.553   1.158  0.5722 -0.7652  1.3972
  720SOL    HW3 2925   4.377   3.579   1.190  0.0509 -0.8690  3.9598
  720SOL    MW4 2926   4.294   3.605   1.189  0.2985  0.1035  0.5509
  721SOL     OW 2927   4.258   3.878   1.107 -0.0902 -0.1731  0.5027
  721SOL    HW2 2928   4.185   3.901   1.164  0.2352 -1.0117  1.2549
  721SOL    HW3 2929   4.287   3.792   1.137  0.8270 -0.1112 -0.1711
  721SOL    MW4 2930   4.253   3.870   1.118  0.0734 -0.2754  0.5132
  722SOL     OW 2931   4.031   3.982   1.242 -0.0381 -0.4524  0.3824
  722SOL    HW2 2932   4.038   4.068   1.200  0.3800 -0.5701  0.2148
  722SOL    HW3 2933   3.962   3.937   1.193  0.2969 -0.5081 -0.0341
  722SOL    MW4 2934   4.023   3.988   1.230  0.0610 -0.4752  0.3052
  723SOL     OW 2935   4.011   4.237   1.143 -0.3640 -0.6243  0.2892
  723SOL    HW2 2936   3.930   4.285   1.163 -1.0976 -1.5609 -0.3775
  723SOL    HW3 2937   4.022   4.248   1.048  0.3319 -0.4388  0.3930
  723SOL    MW4 2938   4.002   4.245   1.133 -0.3691 -0.7243  0.2149
  724SOL     OW 2939   4.235   4.340   1.260 -0.0283 -0.4807 -0.0731
  724SOL    HW2 2940   4.159   4.299   1.218  1.1764 -0.8441 -1.9173
  724SOL    HW3 2941   4.311   4.295   1.223  1.0609 -1.7783  3.5220
  724SOL    MW4 2942   4.235   4.329   1.250  0.2742 -0.6995  0.1580
  725SOL     OW 2943   0.263   4.650   1.608 -0.1764 -0.3385  0.9600
  725SOL    HW2 2944   0.331   4.696   1.558 -0.4185 -0.9188  0.1102
  725SOL    HW3 2945   0.181   4.682   1.572 -0.3493 -0.9700  0.7950
  725SOL    MW4 2946   0.261   4.661   1.597 -0.2311 -0.4988  0.8261
  726SOL     OW 2947   0.024   0.082   1.514 -0.2957  0.3191  0.1138
  726SOL    HW2 2948  -0.048   0.036   1.557 -0.9952  1.4381  0.1395
  726SOL    HW3 2949   0.008   0.072   1.421  0.1345 -0.3926  0.1117
  726SOL    MW4 2950   0.013   0.075   1.508 -0.3314  0.3728  0.1168
  727SOL     OW 2951   4.490   0.367   1.576 -0.0458 -0.2641 -0.1435
  727SOL    HW2 2952   4.475   0.366   1.671  2.1465  0.2185  0.2417
  727SOL    HW3 2953   4.519   0.278   1.555 -1.6180 -0.6826 -0.5596
  727SOL    MW4 2954   4.492   0.355   1.586  0.0360 -0.2556 -0.1475
  728SOL     OW 2955   0.222   0.492   1.492 -0.1312 -0.4394 -0.2041
  728SOL    HW2 2956   0.146   0.440   1.517  0.4134 -1.0950  0.0944
  728SOL    HW3 2957   0.217   0.497   1.396 -0.3439 -0.7920 -0.2109
  728SOL    MW4 2958   0.211   0.486   1.482 -0.0874 -0.5724 -0.1655
  729SOL     OW 2959   0.197   0.759   1.567 -0.1495  0.6460 -0.1306
  729SOL    HW2 2960   0.287   0.787   1.550  0.1781  0.6647  1.5208
  729SOL    HW3 2961   0.197   0.665   1.552  0.8046  0.2194  2.4061
  729SOL    MW4 2962   0.209   0.750   1.563  0.0196  0.5922  0.4219
  730SOL     OW 2963   4.472   0.858   1.444  0.3060 -0.3335  0.7507
  730SOL    HW2 2964   4.489   0.950   1.467 -0.4656 -0.1288  0.5181
  730SOL    HW3 2965   4.531   0.808   1.500  0.9503  0.3157  0.6740
  730SOL    MW4 2966   4.482   0.864   1.454  0.2894 -0.2208  0.7101
  731SOL     OW 2967   4.479   1.117   1.552 -0.6999 -0.2144  0.4053
  731SOL    HW2 2968   4.489   1.124   1.647  0.8411 -0.2706  0.2643
  731SOL    HW3 2969   4.546   1.176   1.516  0.3150 -1.9665 -0.6519
  731SOL    MW4 2970   4.489   1.126   1.559 -0.3629 -0.4529  0.2472
  732SOL     OW 2971   0.197   1.290   1.499  0.2234  0.3042 -0.2635
  732SOL    HW2 2972   0.199   1.384   1.517 -0.6484  0.5699 -1.5470
  732SOL    HW3 2973   0.194   1.283   1.404  0.1834 -1.0227 -0.1759
  732SOL    MW4 2974   0.197   1.302   1.489  0.1031  0.1640 -0.4214
  733SOL     OW 2975   0.205   1.553   1.578 -0.6353 -0.2131 -0.1337
  733SOL    HW2 2976   0.219   1.536   1.671 -2.2232 -0.1459  0.1377
  733SOL    HW3 2977   0.124   1.604   1.576  0.0014  0.7501 -1.4741
  733SOL    MW4 2978   0.196   1.557   1.590 -0.7608 -0.0771 -0.2747
  734SOL     OW 2979   4.468   1.689   1.512  0.3902  0.3804 -0.6021
  734SOL    HW2 2980   4.460   1.780   1.540  2.3685  0.7948 -1.3217
  734SOL    HW3 2981   4.453   1.692   1.417 -0.3674 -0.1784 -0.5094
  734SOL    MW4 2982   4.465   1.701   1.503  0.5507  0.3614 -0.6847
  735SOL     OW 2983   4.478   1.956   1.559 -0.1906  0.3461 -0.2096
  735SOL    HW2 2984   4.473   1.960   1.654 -0.9107 -0.5389 -0.1986
  735SOL    HW3 2985   4.393   1.988   1.529 -0.6879 -1.1768 -0.4843
  735SOL    MW4 2986   4.466   1.960   1.567 -0.3514  0.0284 -0.2444
  736SOL     OW 2987   0.226   2.069   1.452  0.0050  0.3938  0.1177
  736SOL    HW2 2988   0.148   2.032   1.494 -0.2221  0.4216 -0.2695
  736SOL    HW3 2989   0.207   2.063   1.358  0.9336 -0.5806 -0.0057
  736SOL    MW4 2990   0.213   2.064   1.445  0.0976  0.2687  0.0504
  737SOL     OW 2991   0.213   2.326   1.561 -0.1904  0.4440  0.1068
  737SOL    HW2 2992   0.213   2.327   1.656 -0.8799 -0.2143  0.1117
  737SOL    HW3 2993   0.232   2.235   1.537 -0.3651  0.5299 -0.3760
  737SOL    MW4 2994   0.215   2.314   1.570 -0.3044  0.3684  0.0437
  738SOL     OW 2995   4.482   2.443   1.443  0.5013 -0.3356 -0.1734
  738SOL    HW2 2996   4.400   2.400   1.466  0.1400 -0.7927 -2.1888
  738SOL    HW3 2997   4.550   2.385   1.479 -0.0365  0.0979  1.5888
  738SOL    MW4 2998   4.480   2.430   1.451  0.3824 -0.3388 -0.2069
  739SOL     OW 2999   0.002   2.673   1.582 -0.0542 -0.0351  0.0225
  739SOL    HW2 3000  -0.071   2.725   1.550  1.4104  1.4399 -1.0213
  739SOL    HW3 3001   0.005   2.596   1.524 -0.5450  0.0905 -0.1657
  739SOL    MW4 3002  -0.007   2.669   1.570  0.0743  0.1762 -0.1401
  740SOL     OW 3003   0.216   2.819   1.455 -0.2298 -0.5810 -0.1926
  740SOL    HW2 3004   0.298   2.791   1.495 -0.1310  1.3778  1.0160
  740SOL    HW3 3005   0.148   2.775   1.507 -0.0350  0.2872  0.8073
  740SOL    MW4 3006   0.218   2.810   1.467 -0.1910 -0.2079  0.0987
  741SOL     OW 3007   0.247   3.069   1.567 -0.5937  0.1360 -0.0257
  741SOL    HW2 3008   0.167   3.120   1.554  0.1025  1.3395  0.3392
  741SOL    HW3 3009   0.226   2.982   1.533 -2.2959  0.2294  0.7624
  741SOL    MW4 3010   0.234   3.064   1.561 -0.7264  0.3071  0.1265
  742SOL     OW 3011   0.009   3.206   1.499  0.3083 -0.4501  0.2574
  742SOL    HW2 3012   0.005   3.296   1.533  0.1415 -0.1552 -0.5313
  742SOL    HW3 3013   0.011   3.217   1.404 -2.2624 -1.3537  0.0566
  742SOL    MW4 3014   0.009   3.220   1.491 -0.0528 -0.5305  0.1268
  743SOL     OW 3015   4.480   3.479   1.611 -0.3655 -0.0483 -0.4654
  743SOL    HW2 3016   4.482   3.505   1.703 -1.3042  0.1710 -0.5083
  743SOL    HW3 3017   4.414   3.536   1.571 -1.4885 -1.5864 -0.8390
  743SOL    MW4 3018   4.472   3.490   1.618 -0.6375 -0.2222 -0.5202
  744SOL     OW 3019   0.213   3.574   1.477 -0.3157  0.0594  0.0134
  744SOL    HW2 3020   0.218   3.667   1.498  1.1772  0.1379 -0.6170
  744SOL    HW3 3021   0.138   3.542   1.527 -1.3699  1.7707 -0.4127
  744SOL    MW4 3022   0.203   3.582   1.486 -0.2578  0.2956 -0.1260
  745SOL     OW 3023   0.210   3.832   1.566 -0.3950  0.2849 -0.4034
  745SOL    HW2 3024   0.216   3.834   1.661 -0.6371  1.1220 -0.4060
  745SOL    HW3 3025   0.256   3.911   1.537 -1.6791  0.8525 -0.9135
  745SOL    MW4 3026   0.217   3.842   1.575 -0.5964  0.4702 -0.4710
  746SOL     OW 3027   4.464   3.978   1.510 -0.2683  0.3988  0.2589
  746SOL    HW2 3028   4.476   4.072   1.528 -0.0763  0.5395 -0.5857
  746SOL    HW3 3029   4.552   3.942   1.514 -0.0548  0.6488 -1.5584
  746SOL    MW4 3030   4.477   3.986   1.513 -0.2148  0.4506 -0.0924
  747SOL     OW 3031   4.465   4.271   1.546  0.7913  0.2535 -0.2296
  747SOL    HW2 3032   4.473   4.281   1.641  0.9900  1.2251 -0.3396
  747SOL    HW3 3033   4.383   4.315   1.524  0.9828  0.4471 -0.5653
  747SOL    MW4 3034   4.455   4.278   1.556  0.8430  0.4072 -0.2885
  748SOL     OW 3035   0.213   4.405   1.478  0.3984 -0.3809  0.5768
  748SOL    HW2 3036   0.126   4.370   1.497  0.1773  0.2159  0.6674
  748SOL    HW3 3037   0.220   4.483   1.532  1.6151 -1.2865  1.7758
  748SOL    MW4 3038   0.203   4.410   1.488  0.5298 -0.4215  0.7470
  749SOL     OW 3039   0.645   4.649   1.601 -0.0338 -0.0751  0.0521
  749SOL    HW2 3040   0.732   4.685   1.579  0.2829 -0.7701  0.1542
  749SOL    HW3 3041   0.584   4.715   1.569  0.5942  1.5948  2.2034
  749SOL    MW4 3042   0.649   4.662   1.594  0.0909  0.0534  0.3495
  750SOL     OW 3043   0.460   0.139   1.495  0.6080 -0.1306 -0.2650
  750SOL    HW2 3044   0.461   0.233   1.511 -0.4402 -0.2233  0.4182
  750SOL    HW3 3045   0.460   0.130   1.400 -0.0205  0.5787 -0.3322
  750SOL    MW4 3046   0.460   0.150   1.485  0.3867 -0.0492 -0.1836
  751SOL     OW 3047   0.472   0.413   1.592 -0.0595 -0.0695 -0.3160
  751SOL    HW2 3048   0.536   0.459   1.539  0.0474 -1.1798 -1.1631
  751SOL    HW3 3049   0.387   0.442   1.558 -0.0133  0.6886  0.1944
  751SOL    MW4 3050   0.469   0.423   1.581 -0.0393 -0.1160 -0.3604
  752SOL     OW 3051   0.680   0.533   1.449  0.1910  0.1533 -0.0601
  752SOL    HW2 3052   0.692   0.617   1.494  0.1001  0.0298  0.1978
  752SOL    HW3 3053   0.657   0.556   1.360 -0.1582  0.4032  0.0962
  752SOL    MW4 3054   0.679   0.547   1.443  0.1329  0.1701 -0.0055
  753SOL     OW 3055   0.690   0.784   1.562 -0.1842 -0.4545  0.2346
  753SOL    HW2 3056   0.707   0.775   1.655 -0.0525 -0.9270  0.1674
  753SOL    HW3 3057   0.760   0.840   1.530  0.0781 -0.7334  0.3225
  753SOL    MW4 3058   0.701   0.790   1.570 -0.1322 -0.5536  0.2375
  754SOL     OW 3059   0.433   0.877   1.480 -0.2378 -1.0451 -0.2172
  754SOL    HW2 3060   0.429   0.964   1.520 -0.1609 -0.9269 -0.4709
  754SOL    HW3 3061   0.518   0.843   1.505  0.0550 -0.7321 -0.7806
  754SOL    MW4 3062   0.443   0.884   1.489 -0.1890 -0.9882 -0.3250
  755SOL     OW 3063   0.413   1.130   1.584  0.1224 -0.2579 -0.2971
  755SOL    HW2 3064   0.481   1.171   1.530 -0.7324 -0.5696 -1.6094
  755SOL    HW3 3065   0.337   1.186   1.573  1.1223  2.2367  4.0904
  755SOL    MW4 3066   0.412   1.143   1.575  0.1415  0.0300  0.1086
  756SOL     OW 3067   0.628   1.220   1.425  0.0989 -0.1215  0.5606
  756SOL    HW2 3068   0.649   1.312   1.442 -0.6089  0.2220 -0.3730
  756SOL    HW3 3069   0.612   1.216   1.330  0.9327 -1.3707  0.4602
  756SOL    MW4 3070   0.628   1.232   1.414  0.1155 -0.2409  0.4241
  757SOL     OW 3071   0.667   1.514   1.552 -0.3467 -0.2408 -0.3333
  757SOL    HW2 3072   0.747   1.564   1.532 -0.1776 -0.2448  0.3315
  757SOL    HW3 3073   0.596   1.569   1.520 -0.0616 -0.4063 -1.2833
  757SOL    MW4 3074   0.668   1.528   1.545 -0.2868 -0.2631 -0.3711
  758SOL     OW 3075   0.444   1.666   1.495 -0.1105 -0.9244  0.3458
  758SOL    HW2 3076   0.431   1.761   1.495 -0.9035 -0.9365 -3.8360
  758SOL    HW3 3077   0.365   1.631   1.537 -2.0880  0.1004 -2.3904
  758SOL    MW4 3078   0.432   1.674   1.501 -0.4760 -0.7907 -0.5668
  759SOL     OW 3079   0.457   1.930   1.523 -0.2731 -0.0944 -0.4895
  759SOL    HW2 3080   0.453   1.923   1.618 -1.0634  1.4664 -0.3836
  759SOL    HW3 3081   0.373   1.968   1.498 -0.0174 -0.3593 -1.8022
  759SOL    MW4 3082   0.445   1.934   1.532 -0.3436  0.0767 -0.6487
  760SOL     OW 3083   0.676   2.088   1.467 -0.5340 -0.1109  0.3126
  760SOL    HW2 3084   0.752   2.036   1.494  0.8128  2.8006  2.4362
  760SOL    HW3 3085   0.601   2.036   1.495  0.7198 -1.7254  0.8124
  760SOL    MW4 3086   0.676   2.074   1.474 -0.1909  0.0601  0.6586
  761SOL     OW 3087   0.624   2.355   1.585  0.5834 -0.1708 -0.1467
  761SOL    HW2 3088   0.551   2.403   1.547  1.2533  0.4836 -0.6074
  761SOL    HW3 3089   0.617   2.268   1.547 -0.5386 -0.4108  0.5674
  761SOL    MW4 3090   0.613   2.350   1.575  0.5237 -0.1161 -0.1132
  762SOL     OW 3091   0.410   2.485   1.455 -0.0916 -0.1603  0.0743
  762SOL    HW2 3092   0.399   2.576   1.483  0.8796 -0.1635  0.5004
  762SOL    HW3 3093   0.338   2.438   1.496 -0.9664  0.5233 -0.6528
  762SOL    MW4 3094   0.399   2.491   1.464 -0.0789 -0.0706  0.0346
  763SOL     OW 3095   0.440   2.755   1.576 -0.4184  0.3418 -0.0186
  763SOL    HW2 3096   0.440   2.720   1.665 -0.8118  0.1312 -0.0986
  763SOL    HW3 3097   0.532   2.767   1.555 -0.2556 -0.8833 -0.0770
  763SOL    MW4 3098   0.452   2.752   1.585 -0.4489  0.1523 -0.0371
  764SOL     OW 3099   0.696   2.800   1.502 -0.3518 -0.3689 -0.1573
  764SOL    HW2 3100   0.709   2.894   1.513  0.8476 -0.6343  0.9447
  764SOL    HW3 3101   0.696   2.786   1.408 -1.6841  0.8731 -0.3630
  764SOL    MW4 3102   0.698   2.810   1.491 -0.3693 -0.2401 -0.0390
  765SOL     OW 3103   0.714   3.086   1.546 -0.7524  0.2293 -0.2425
  765SOL    HW2 3104   0.787   3.146   1.528 -1.2667  0.7376 -0.6533
  765SOL    HW3 3105   0.636   3.140   1.533 -1.1795  0.5471  3.2255
  765SOL    MW4 3106   0.713   3.101   1.542 -0.8765  0.3383  0.1609
  766SOL     OW 3107   0.468   3.204   1.521 -0.3906 -0.0473  0.3084
  766SOL    HW2 3108   0.403   3.139   1.548  1.0757 -1.5647  0.2659
  766SOL    HW3 3109   0.448   3.221   1.429 -0.3833 -0.9600  0.1285
  766SOL    MW4 3110   0.457   3.198   1.513 -0.1962 -0.3681  0.2791
  767SOL     OW 3111   0.458   3.470   1.585  0.4344  0.0737 -0.6243
  767SOL    HW2 3112   0.460   3.376   1.569 -1.7494 -0.0918 -0.1931
  767SOL    HW3 3113   0.373   3.499   1.550 -0.1164  1.3759  1.6420
  767SOL    MW4 3114   0.447   3.461   1.579  0.0736  0.2236 -0.2685
  768SOL     OW 3115   0.653   3.649   1.539 -0.6196 -0.1085  0.7084
  768SOL    HW2 3116   0.729   3.592   1.551 -1.1067 -0.9991 -0.4076
  768SOL    HW3 3117   0.578   3.593   1.557 -1.0668  0.4630  0.6548
  768SOL    MW4 3118   0.653   3.634   1.543 -0.7429 -0.1507  0.5542
  769SOL     OW 3119   0.632   3.928   1.553  0.0952 -0.5761 -0.0848
  769SOL    HW2 3120   0.717   3.951   1.517  0.1716 -1.2919 -0.3791
  769SOL    HW3 3121   0.630   3.832   1.549  0.3798 -0.7023  2.4551
  769SOL    MW4 3122   0.643   3.918   1.548  0.1429 -0.6874  0.2115
  770SOL     OW 3123   0.392   4.051   1.477  0.4648 -0.5310  0.6246
  770SOL    HW2 3124   0.477   4.013   1.497  0.1406 -1.8877 -0.4997
  770SOL    HW3 3125   0.391   4.058   1.381 -1.0756 -1.4651  0.5596
  770SOL    MW4 3126   0.403   4.047   1.467  0.2188 -0.8330  0.4677
  771SOL     OW 3127   0.433   4.293   1.603  0.3400 -0.0641 -0.7450
  771SOL    HW2 3128   0.434   4.199   1.584 -1.3950 -0.6042  1.6141
  771SOL    HW3 3129   0.360   4.327   1.552 -0.2535 -0.3651 -0.1115
  771SOL    MW4 3130   0.424   4.285   1.594  0.0328 -0.1750 -0.3502
  772SOL     OW 3131   0.659   4.395   1.494  0.3194  0.3568  0.1073
  772SOL    HW2 3132   0.586   4.358   1.543 -0.0294  0.3814 -0.3928
  772SOL    HW3 3133   0.664   4.486   1.524  0.2036  0.3315  0.2075
  772SOL    MW4 3134   0.650   4.402   1.505  0.2581  0.3567  0.0546
  773SOL     OW 3135   1.086   0.006   1.609 -0.3783  0.0311 -0.3389
  773SOL    HW2 3136   1.101   0.002   1.703  0.7418 -2.6307 -0.5661
  773SOL    HW3 3137   1.164   0.049   1.574 -0.3271  0.0994 -0.1384
  773SOL    MW4 3138   1.098   0.011   1.617 -0.2239 -0.3104 -0.3424
  774SOL     OW 3139   0.868   0.128   1.502 -0.1918 -0.6450  0.0811
  774SOL    HW2 3140   0.878   0.221   1.522 -0.0496 -0.1948 -1.9645
  774SOL    HW3 3141   0.945   0.087   1.543  0.9459  0.4555 -0.9042
  774SOL    MW4 3142   0.880   0.135   1.510 -0.0229 -0.4404 -0.3188
  775SOL     OW 3143   0.894   0.393   1.572 -0.1327  0.1165  0.1054
  775SOL    HW2 3144   0.870   0.383   1.664 -1.5894 -1.7117 -0.4215
  775SOL    HW3 3145   0.821   0.441   1.534 -0.0794 -0.1329 -0.3145
  775SOL    MW4 3146   0.881   0.398   1.579 -0.3179 -0.1576 -0.0197
  776SOL     OW 3147   1.140   0.540   1.497  0.1279 -0.1535  0.2817
  776SOL    HW2 3148   1.123   0.627   1.532 -0.5478 -0.0073 -0.3920
  776SOL    HW3 3149   1.066   0.487   1.526 -0.2703 -0.1128 -0.6316
  776SOL    MW4 3150   1.128   0.545   1.505 -0.0138 -0.1287  0.0722
  777SOL     OW 3151   1.120   0.801   1.600  0.1953  0.4583 -0.0909
  777SOL    HW2 3152   1.143   0.778   1.690 -0.4719 -0.2324 -0.0859
  777SOL    HW3 3153   1.198   0.844   1.565  0.8783 -0.3376  0.4376
  777SOL    MW4 3154   1.133   0.803   1.608  0.1973  0.2622 -0.0204
  778SOL     OW 3155   0.895   0.925   1.458 -0.2550  0.3401 -0.2448
  778SOL    HW2 3156   0.962   0.875   1.505  0.0100  1.0525  0.1514
  778SOL    HW3 3157   0.905   0.900   1.367  0.2649  0.1152 -0.1253
  778SOL    MW4 3158   0.905   0.915   1.452 -0.1514  0.4044 -0.1767
  779SOL     OW 3159   0.843   1.144   1.607  0.2718  0.1467  0.2694
  779SOL    HW2 3160   0.862   1.073   1.547 -0.2779 -0.6069  0.9630
  779SOL    HW3 3161   0.757   1.177   1.579  0.5881  0.6292 -0.1362
  779SOL    MW4 3162   0.834   1.139   1.596  0.2410  0.1110  0.3074
  780SOL     OW 3163   1.076   1.329   1.497 -0.0424  0.5626  0.3214
  780SOL    HW2 3164   1.147   1.272   1.527  0.8726  1.1636 -0.6718
  780SOL    HW3 3165   0.996   1.281   1.518  0.7234 -1.2544 -0.7751
  780SOL    MW4 3166   1.075   1.315   1.503  0.1792  0.4021  0.0457
  781SOL     OW 3167   1.124   1.590   1.585  0.5083 -0.3502  0.1091
  781SOL    HW2 3168   1.204   1.622   1.542 -0.0758  0.8820 -0.0778
  781SOL    HW3 3169   1.114   1.501   1.552  1.0991 -0.0714 -0.8654
  781SOL    MW4 3170   1.134   1.582   1.575  0.5091 -0.1507 -0.0441
  782SOL     OW 3171   0.889   1.644   1.448  0.2956 -0.2008 -0.2369
  782SOL    HW2 3172   0.979   1.627   1.477  0.6689  0.1496 -1.1896
  782SOL    HW3 3173   0.891   1.633   1.353 -0.3577  1.2198 -0.4302
  782SOL    MW4 3174   0.901   1.640   1.439  0.2587  0.0329 -0.3881
  783SOL     OW 3175   0.869   1.905   1.519  0.2464 -0.0675  0.0532
  783SOL    HW2 3176   0.951   1.944   1.488  1.0987 -0.4750  1.6909
  783SOL    HW3 3177   0.878   1.812   1.498 -0.4183  0.1078 -1.0294
  783SOL    MW4 3178   0.881   1.898   1.512  0.2713 -0.0981  0.1266
  784SOL     OW 3179   1.108   2.038   1.413  0.5544  0.1041  0.1971
  784SOL    HW2 3180   1.182   1.996   1.457  0.1089  0.8767  1.6707
  784SOL    HW3 3181   1.096   2.121   1.458 -1.4126 -0.1446  0.1681
  784SOL    MW4 3182   1.116   2.043   1.424  0.2362  0.1736  0.3878
  785SOL     OW 3183   1.100   2.293   1.540 -0.6192 -0.5316  0.0249
  785SOL    HW2 3184   1.173   2.353   1.531 -0.3928 -0.5448  1.6628
  785SOL    HW3 3185   1.024   2.342   1.507 -0.1715  0.0910 -0.0830
  785SOL    MW4 3186   1.100   2.307   1.534 -0.5304 -0.4513  0.2269
  786SOL     OW 3187   0.866   2.422   1.479  0.0136 -0.1143 -0.3099
  786SOL    HW2 3188   0.877   2.505   1.524 -0.0181  0.5004 -1.4158
  786SOL    HW3 3189   0.779   2.391   1.506  0.3673 -0.2024  0.7510
  786SOL    MW4 3190   0.856   2.428   1.489  0.0561 -0.0443 -0.3158
  787SOL     OW 3191   0.917   2.665   1.596 -0.1632 -0.1352 -0.2429
  787SOL    HW2 3192   0.918   2.685   1.689 -0.4730  0.1516 -0.2998
  787SOL    HW3 3193   0.840   2.711   1.562 -0.0366 -0.2123 -0.6433
  787SOL    MW4 3194   0.907   2.674   1.604 -0.1874 -0.1078 -0.3033
  788SOL     OW 3195   1.137   2.822   1.500 -0.1793 -0.0042  0.1657
  788SOL    HW2 3196   1.139   2.911   1.533  1.7211 -0.1450  0.4996
  788SOL    HW3 3197   1.055   2.785   1.534  0.2814  0.7971  2.2125
  788SOL    MW4 3198   1.126   2.829   1.509  0.1323  0.0830  0.4798
  789SOL     OW 3199   1.160   3.100   1.560 -0.2527 -0.2624  0.6376
  789SOL    HW2 3200   1.175   3.099   1.655  0.8891 -1.2833  0.4561
  789SOL    HW3 3201   1.231   3.154   1.526 -0.6072  0.0202  0.3381
  789SOL    MW4 3202   1.171   3.107   1.568 -0.1488 -0.3598  0.5741
  790SOL     OW 3203   0.917   3.258   1.473 -0.4669 -0.4363  0.0349
  790SOL    HW2 3204   1.002   3.216   1.487 -1.1177 -1.5390  0.7489
  790SOL    HW3 3205   0.900   3.247   1.380  0.2328 -0.0933 -0.1368
  790SOL    MW4 3206   0.926   3.251   1.463 -0.4604 -0.5364  0.1066
  791SOL     OW 3207   0.886   3.510   1.594 -0.4858  0.6221  0.5290
  791SOL    HW2 3208   0.969   3.550   1.568 -1.1055  2.0254  0.6733
  791SOL    HW3 3209   0.885   3.425   1.549  1.0658  0.5558  0.6053
  791SOL    MW4 3210   0.897   3.504   1.584 -0.3628  0.7985  0.5580
  792SOL     OW 3211   1.118   3.608   1.517  0.2679 -0.4827  0.4328
  792SOL    HW2 3212   1.207   3.576   1.531  1.3916  2.2294 -0.0973
  792SOL    HW3 3213   1.111   3.622   1.423 -0.2491  0.5584  0.6097
  792SOL    MW4 3214   1.129   3.606   1.507  0.3479  0.0126  0.3862
  793SOL     OW 3215   1.104   3.865   1.616 -0.7233  0.1199 -0.1903
  793SOL    HW2 3216   1.193   3.889   1.590 -1.1125  1.0174 -0.7132
  793SOL    HW3 3217   1.090   3.779   1.576  0.1438 -0.3210  0.4395
  793SOL    MW4 3218   1.114   3.857   1.607 -0.6603  0.1802 -0.1762
  794SOL     OW 3219   0.887   4.037   1.514 -0.3183  0.1200  0.5328
  794SOL    HW2 3220   0.886   4.127   1.547  2.4020  0.9320 -1.4884
  794SOL    HW3 3221   0.958   3.995   1.562  1.0279  0.1817 -1.3839
  794SOL    MW4 3222   0.896   4.043   1.525  0.2182  0.2351  0.0132
  795SOL     OW 3223   0.882   4.293   1.610 -0.4043 -0.0784 -0.1640
  795SOL    HW2 3224   0.872   4.306   1.704  0.7162 -0.6409  0.0438
  795SOL    HW3 3225   0.802   4.329   1.572 -0.3339  1.2454  0.9012
  795SOL    MW4 3226   0.870   4.299   1.617 -0.2472  0.0219  0.0039
  796SOL     OW 3227   1.126   4.398   1.512  0.4190  0.1835  0.2922
  796SOL    HW2 3228   1.049   4.351   1.543  1.2907  0.0748  2.3729
  796SOL    HW3 3229   1.123   4.483   1.557  1.3702  0.2813  0.1822
  796SOL    MW4 3230   1.115   4.403   1.522  0.6595  0.1817  0.5523
  797SOL     OW 3231   1.552   4.662   1.587 -0.3629  0.3457 -0.1432
  797SOL    HW2 3232   1.561   4.676   1.681  0.9951  1.6165 -0.4389
  797SOL    HW3 3233   1.466   4.698   1.565 -0.3655  0.7200  0.4826
  797SOL    MW4 3234   1.542   4.668   1.597 -0.1841  0.5627 -0.0997
  798SOL     OW 3235   1.312   0.124   1.525 -0.0067  0.0001 -0.2708
  798SOL    HW2 3236   1.313   0.215   1.554  0.0856 -0.1415  0.1749
  798SOL    HW3 3237   1.318   0.129   1.430  0.9780  0.4345 -0.1918
  798SOL    MW4 3238   1.313   0.136   1.516  0.1354  0.0387 -0.2017
  799SOL     OW 3239   1.362   0.402   1.595 -0.3264  0.0051 -0.1733
  799SOL    HW2 3240   1.431   0.457   1.558 -0.6870  0.0246 -0.8263
  799SOL    HW3 3241   1.281   0.445   1.568 -0.6664 -1.9126 -2.4116
  799SOL    MW4 3242   1.361   0.415   1.586 -0.4188 -0.2454 -0.5548
  800SOL     OW 3243   1.555   0.542   1.469 -0.4132  0.3465  0.8858
  800SOL    HW2 3244   1.635   0.498   1.500  0.0932  0.6459  0.0235
  800SOL    HW3 3245   1.561   0.537   1.374 -1.3621  0.4988  0.8213
  800SOL    MW4 3246   1.567   0.535   1.461 -0.4717  0.4061  0.7635
  801SOL     OW 3247   1.568   0.788   1.590  0.2154 -0.0497 -0.3001
  801SOL    HW2 3248   1.584   0.774   1.683 -0.2789 -0.5054 -0.2780
  801SOL    HW3 3249   1.567   0.700   1.552  0.4292  0.1330 -0.7393
  801SOL    MW4 3250   1.570   0.775   1.597  0.1785 -0.0857 -0.3551
  802SOL     OW 3251   1.352   0.915   1.485 -0.4812 -0.1585 -0.2329
  802SOL    HW2 3252   1.427   0.862   1.512  1.4254  2.1717 -0.7090
  802SOL    HW3 3253   1.345   0.901   1.391  0.2805  0.6993 -0.4283
  802SOL    MW4 3254   1.361   0.906   1.476 -0.1292  0.2620 -0.3215
  803SOL     OW 3255   1.289   1.184   1.591 -0.2942 -0.0626 -0.4361
  803SOL    HW2 3256   1.306   1.182   1.686  1.3097 -0.1332 -0.7071
  803SOL    HW3 3257   1.307   1.094   1.562 -1.2424 -0.1558 -0.7397
  803SOL    MW4 3258   1.294   1.172   1.600 -0.2077 -0.0842 -0.5119
  804SOL     OW 3259   1.512   1.309   1.480 -0.2678  0.1597 -0.2294
  804SOL    HW2 3260   1.443   1.252   1.515 -0.0938 -0.3795 -0.7620
  804SOL    HW3 3261   1.504   1.300   1.385  2.7454 -2.6285 -0.3093
  804SOL    MW4 3262   1.501   1.300   1.472  0.1527 -0.2792 -0.3102
  805SOL     OW 3263   1.572   1.557   1.584 -0.4168  0.2655  0.0122
  805SOL    HW2 3264   1.582   1.562   1.680 -0.2877 -0.8684  0.0619
  805SOL    HW3 3265   1.564   1.464   1.566 -1.2061  0.5286 -1.0172
  805SOL    MW4 3266   1.572   1.546   1.595 -0.5040  0.1506 -0.1171
  806SOL     OW 3267   1.378   1.706   1.478 -0.0598 -0.1394 -0.6427
  806SOL    HW2 3268   1.446   1.646   1.508  0.8536  0.5203 -1.3686
  806SOL    HW3 3269   1.372   1.690   1.384 -0.5417  0.1720 -0.6645
  806SOL    MW4 3270   1.386   1.696   1.469 -0.0027 -0.0112 -0.7414
  807SOL     OW 3271   1.340   1.958   1.557  0.4690  0.2091 -0.0565
  807SOL    HW2 3272   1.343   1.965   1.652 -0.0713  1.6489 -0.1408
  807SOL    HW3 3273   1.359   1.865   1.539  3.4093  0.5135  1.2867
  807SOL    MW4 3274   1.343   1.946   1.567  0.7858  0.4392  0.1097
  808SOL     OW 3275   1.548   2.066   1.442  0.2352 -0.5277  0.3811
  808SOL    HW2 3276   1.466   2.032   1.478  0.0406  0.0509  0.4880
  808SOL    HW3 3277   1.535   2.061   1.347 -0.1152  0.0161  0.3980
  808SOL    MW4 3278   1.535   2.061   1.434  0.1632 -0.3798  0.3974
  809SOL     OW 3279   1.576   2.325   1.607 -0.1947  0.5699 -0.2120
  809SOL    HW2 3280   1.650   2.360   1.556 -1.4900  1.3834 -1.5971
  809SOL    HW3 3281   1.558   2.240   1.568  1.2721 -0.5116  1.4340
  809SOL    MW4 3282   1.583   2.319   1.595 -0.1720  0.5348 -0.1776
  810SOL     OW 3283   1.336   2.440   1.516 -0.1207 -0.2202  0.3551
  810SOL    HW2 3284   1.345   2.530   1.547 -1.8945 -0.0976  0.5208
  810SOL    HW3 3285   1.420   2.399   1.537  0.2346  1.0464  1.4332
  810SOL    MW4 3286   1.348   2.446   1.523 -0.3077 -0.0370  0.5192
  811SOL     OW 3287   1.353   2.702   1.607  0.3918 -0.1409 -0.3223
  811SOL    HW2 3288   1.427   2.758   1.580 -0.7929  0.7911 -1.7014
  811SOL    HW3 3289   1.276   2.745   1.571 -1.1176  0.1902  3.1211
  811SOL    MW4 3290   1.353   2.715   1.599  0.0364  0.0257 -0.0501
  812SOL     OW 3291   1.581   2.847   1.512 -0.0303 -0.1437  0.0260
  812SOL    HW2 3292   1.655   2.798   1.550 -0.0743  0.4755  0.9167
  812SOL    HW3 3293   1.584   2.825   1.419  1.2817 -0.1374  0.0504
  812SOL    MW4 3294   1.591   2.838   1.505  0.1370 -0.0613  0.1466
  813SOL     OW 3295   1.573   3.111   1.574  0.1267 -0.0501 -0.6026
  813SOL    HW2 3296   1.658   3.139   1.539  0.6656 -0.1095  0.6013
  813SOL    HW3 3297   1.565   3.019   1.547  0.3794 -0.0002 -0.8473
  813SOL    MW4 3298   1.583   3.102   1.566  0.2310 -0.0513 -0.4760
  814SOL     OW 3299   1.374   3.251   1.424  0.0217 -0.6219  0.2344
  814SOL    HW2 3300   1.377   3.340   1.460  0.7915  0.0455 -1.4059
  814SOL    HW3 3301   1.436   3.201   1.476 -0.8093 -0.3447  1.5171
  814SOL    MW4 3302   1.383   3.256   1.436  0.0137 -0.4969  0.1873
  815SOL     OW 3303   1.366   3.503   1.571 -0.4040  0.3190  0.1873
  815SOL    HW2 3304   1.372   3.500   1.667 -1.6374  0.0029  0.2579
  815SOL    HW3 3305   1.448   3.544   1.544  0.4882 -0.6817  1.3096
  815SOL    MW4 3306   1.378   3.508   1.580 -0.4488  0.1452  0.3448
  816SOL     OW 3307   1.595   3.624   1.471 -0.1723 -0.1526 -0.3215
  816SOL    HW2 3308   1.619   3.716   1.485  0.5671 -0.2557 -0.8605
  816SOL    HW3 3309   1.586   3.617   1.376  0.6786 -0.8593 -0.3515
  816SOL    MW4 3310   1.597   3.635   1.460  0.0374 -0.2594 -0.3965
  817SOL     OW 3311   1.588   3.889   1.596 -0.1221 -0.1001 -0.1458
  817SOL    HW2 3312   1.586   3.876   1.691 -1.0897  0.1403 -0.1318
  817SOL    HW3 3313   1.510   3.941   1.577 -0.1923 -0.5634 -1.1337
  817SOL    MW4 3314   1.578   3.894   1.606 -0.2589 -0.1292 -0.2744
  818SOL     OW 3315   1.345   4.005   1.509 -0.0563 -0.2176  0.0048
  818SOL    HW2 3316   1.363   4.095   1.538  0.3899 -0.2391 -0.2073
  818SOL    HW3 3317   1.326   4.014   1.416  2.6467 -0.6792 -0.6321
  818SOL    MW4 3318   1.345   4.018   1.501  0.3592 -0.2813 -0.1072
  819SOL     OW 3319   1.369   4.266   1.584  0.1602  0.7814  0.0423
  819SOL    HW2 3320   1.448   4.301   1.542  0.5492  1.2091  1.1212
  819SOL    HW3 3321   1.298   4.319   1.550  0.3198  0.3349 -1.0119
  819SOL    MW4 3322   1.370   4.277   1.574  0.2327  0.7787  0.0455
  820SOL     OW 3323   1.581   4.407   1.453  0.6781 -0.4725  0.0186
  820SOL    HW2 3324   1.653   4.366   1.501  0.6095 -0.9165 -0.2516
  820SOL    HW3 3325   1.570   4.492   1.494  0.2544 -1.0628  1.1707
  820SOL    MW4 3326   1.589   4.413   1.465  0.6131 -0.6089  0.1349
  821SOL     OW 3327   2.003   4.635   1.540 -0.1974 -0.0334 -0.2449
  821SOL    HW2 3328   2.013   4.626   1.635  0.2308  0.5507 -0.2310
  821SOL    HW3 3329   1.921   4.682   1.529  0.2688  0.8377 -0.1148
  821SOL    MW4 3330   1.994   4.640   1.551 -0.0794  0.1583 -0.2258
  822SOL     OW 3331   1.764   0.131   1.484  0.3037 -0.1656 -0.3566
  822SOL    HW2 3332   1.688   0.093   1.529 -0.5113  0.5222 -1.1136
  822SOL    HW3 3333   1.742   0.124   1.391  1.8617 -1.3451 -0.6397
  822SOL    MW4 3334   1.751   0.125   1.478  0.4017 -0.2305 -0.4938
  823SOL     OW 3335   1.777   0.392   1.576 -0.4520  0.0255  0.2551
  823SOL    HW2 3336   1.853   0.437   1.539 -1.0292  0.6221 -0.2196
  823SOL    HW3 3337   1.783   0.302   1.542 -0.1329  0.1549 -0.0317
  823SOL    MW4 3338   1.788   0.386   1.567 -0.4861  0.1213  0.1546
  824SOL     OW 3339   2.003   0.503   1.472  0.0033 -0.0243 -0.0204
  824SOL    HW2 3340   2.075   0.466   1.523  1.5226  1.2632 -1.1865
  824SOL    HW3 3341   1.997   0.593   1.502  0.1966  0.4340 -1.3509
  824SOL    MW4 3342   2.012   0.510   1.483  0.2291  0.2061 -0.3496
  825SOL     OW 3343   2.018   0.752   1.591  0.2201 -0.8858 -0.7743
  825SOL    HW2 3344   2.102   0.784   1.558  0.6017 -1.8488 -0.7522
  825SOL    HW3 3345   1.954   0.815   1.559  0.7156 -1.1968 -2.4438
  825SOL    MW4 3346   2.021   0.764   1.583  0.3359 -1.0540 -0.9917
  826SOL     OW 3347   1.793   0.895   1.484 -0.4203 -0.5580  0.6404
  826SOL    HW2 3348   1.792   0.990   1.498 -1.3102 -0.3440 -0.8044
  826SOL    HW3 3349   1.717   0.863   1.532 -0.1829 -0.5294  1.0377
  826SOL    MW4 3350   1.783   0.903   1.492 -0.5064 -0.5260  0.5022
  827SOL     OW 3351   1.752   1.170   1.574 -0.2839  0.1690 -0.1711
  827SOL    HW2 3352   1.830   1.217   1.545  0.6483 -1.1348  0.2210
  827SOL    HW3 3353   1.680   1.230   1.553  0.5757  0.3809 -2.7936
  827SOL    MW4 3354   1.753   1.185   1.567 -0.0473  0.0250 -0.4653
  828SOL     OW 3355   1.997   1.295   1.490  0.1998 -0.0871 -0.4122
  828SOL    HW2 3356   2.006   1.388   1.510 -0.7796 -0.2958  0.9940
  828SOL    HW3 3357   1.989   1.292   1.394  0.5780  1.2280 -0.4941
  828SOL    MW4 3358   1.997   1.307   1.480  0.1205  0.0590 -0.2376
  829SOL     OW 3359   2.017   1.561   1.619 -0.1858  0.1023  0.4051
  829SOL    HW2 3360   2.093   1.583   1.565  0.7484 -0.7639  1.3463
  829SOL    HW3 3361   1.945   1.609   1.579  0.5193 -0.3823 -1.5202
  829SOL    MW4 3362   2.018   1.570   1.606  0.0305 -0.0759  0.2753
  830SOL     OW 3363   1.793   1.691   1.497  0.3100  0.6742  0.0460
  830SOL    HW2 3364   1.725   1.637   1.537  0.0108  0.8737 -0.2003
  830SOL    HW3 3365   1.788   1.672   1.404  0.6851  0.5846  0.0422
  830SOL    MW4 3366   1.784   1.681   1.490  0.3201  0.6884  0.0129
  831SOL     OW 3367   1.770   1.982   1.570 -0.2665 -0.1309 -0.2709
  831SOL    HW2 3368   1.777   1.891   1.542  0.2394 -0.3220  0.4613
  831SOL    HW3 3369   1.703   2.020   1.513 -1.9455 -1.4863  0.7614
  831SOL    MW4 3370   1.762   1.975   1.559 -0.4214 -0.3350 -0.0380
  832SOL     OW 3371   2.005   2.076   1.472 -0.3330  0.2235  0.4706
  832SOL    HW2 3372   2.071   2.010   1.490  0.5206  0.8253 -0.3837
  832SOL    HW3 3373   1.925   2.041   1.510  0.0083 -1.5047 -0.3402
  832SOL    MW4 3374   2.003   2.063   1.479 -0.1755  0.0749  0.2508
  833SOL     OW 3375   2.026   2.326   1.580 -0.6842  0.2665  0.4196
  833SOL    HW2 3376   2.009   2.325   1.674 -1.1644  0.1242  0.3357
  833SOL    HW3 3377   2.028   2.233   1.555  2.1421  0.2056  0.7505
  833SOL    MW4 3378   2.024   2.313   1.589 -0.3748  0.2398  0.4522
  834SOL     OW 3379   1.788   2.425   1.472 -0.1723 -0.7014  0.1848
  834SOL    HW2 3380   1.865   2.389   1.515  0.3353 -0.2713 -0.3533
  834SOL    HW3 3381   1.801   2.406   1.379  0.1929  0.9819 -0.1314
  834SOL    MW4 3382   1.800   2.418   1.466 -0.0572 -0.4225  0.0720
  835SOL     OW 3383   1.783   2.695   1.629  0.7573  0.6508  0.2661
  835SOL    HW2 3384   1.854   2.738   1.582  0.3664 -0.8867 -1.8055
  835SOL    HW3 3385   1.782   2.606   1.595 -1.0979  0.1701  1.4760
  835SOL    MW4 3386   1.792   2.689   1.618  0.4609  0.3843  0.1523
  836SOL     OW 3387   1.989   2.844   1.479 -0.2525  0.0533  0.1532
  836SOL    HW2 3388   2.005   2.939   1.480 -0.4248  0.0827  0.1001
  836SOL    HW3 3389   2.021   2.815   1.394 -1.0817  0.2167 -0.2191
  836SOL    MW4 3390   1.996   2.853   1.468 -0.3844  0.0787  0.0972
  837SOL     OW 3391   2.024   3.113   1.531  0.0051 -0.2150 -0.2868
  837SOL    HW2 3392   2.026   3.110   1.627 -0.1932 -1.4967 -0.3101
  837SOL    HW3 3393   2.108   3.149   1.506 -0.2967  0.9868  0.4012
  837SOL    MW4 3394   2.035   3.117   1.540 -0.0608 -0.2255 -0.1990
  838SOL     OW 3395   1.794   3.229   1.451 -0.0764 -0.4008  0.7430
  838SOL    HW2 3396   1.789   3.317   1.488  0.4203 -0.4435  0.9077
  838SOL    HW3 3397   1.884   3.202   1.466 -0.1023 -0.7482  0.2546
  838SOL    MW4 3398   1.805   3.237   1.458 -0.0142 -0.4525  0.7004
  839SOL     OW 3399   1.838   3.488   1.543  0.1864 -0.4953 -0.4407
  839SOL    HW2 3400   1.816   3.478   1.635  1.5988  1.6126  0.1554
  839SOL    HW3 3401   1.762   3.534   1.505  0.5454  0.6122  0.1559
  839SOL    MW4 3402   1.825   3.493   1.550  0.4201 -0.0713 -0.2832
  840SOL     OW 3403   2.064   3.615   1.457 -0.3947  0.2109 -0.2867
  840SOL    HW2 3404   2.141   3.572   1.494  0.3540  0.8086 -1.1135
  840SOL    HW3 3405   1.990   3.571   1.498  0.3884 -0.2876  0.6203
  840SOL    MW4 3406   2.065   3.603   1.467 -0.1926  0.2241 -0.2761
  841SOL     OW 3407   2.065   3.867   1.568  0.5525  0.1177  0.0157
  841SOL    HW2 3408   2.135   3.913   1.521  0.5628 -0.0691 -0.1579
  841SOL    HW3 3409   2.067   3.778   1.531  0.1830  0.1295 -0.0317
  841SOL    MW4 3410   2.075   3.861   1.557  0.5050  0.0949 -0.0135
  842SOL     OW 3411   1.818   3.982   1.452 -0.0326 -0.0744  0.0791
  842SOL    HW2 3412   1.900   3.953   1.494 -0.5962  0.8430  1.8625
  842SOL    HW3 3413   1.749   3.946   1.508 -0.7781  3.1644  1.3361
  842SOL    MW4 3414   1.820   3.973   1.465 -0.2054  0.4740  0.4801
  843SOL     OW 3415   1.785   4.237   1.580  0.1106 -0.1810 -0.0850
  843SOL    HW2 3416   1.859   4.280   1.537  0.3366 -0.9142 -0.4363
  843SOL    HW3 3417   1.776   4.153   1.534 -0.5404 -0.3647  0.3690
  843SOL    MW4 3418   1.793   4.231   1.568  0.0546 -0.3018 -0.0714
  844SOL     OW 3419   1.988   4.376   1.440  0.1494  0.2351  0.6711
  844SOL    HW2 3420   2.062   4.337   1.487 -0.2304  0.1268  1.1830
  844SOL    HW3 3421   1.991   4.469   1.463  2.2096  0.9127 -2.0657
  844SOL    MW4 3422   1.999   4.383   1.449  0.3711  0.3104  0.3777
  845SOL     OW 3423   2.468   4.634   1.579  0.3600 -0.5013  0.2279
  845SOL    HW2 3424   2.454   4.637   1.674 -1.0840 -0.3973  0.0294
  845SOL    HW3 3425   2.401   4.692   1.543  1.8581  0.6433 -0.7730
  845SOL    MW4 3426   2.457   4.642   1.587  0.3672 -0.3366  0.0696
  846SOL     OW 3427   2.239   0.123   1.491 -0.0988 -0.2582 -0.2571
  846SOL    HW2 3428   2.155   0.078   1.506  0.3770 -0.7180  1.1480
  846SOL    HW3 3429   2.246   0.130   1.396 -0.7476 -2.0904 -0.4615
  846SOL    MW4 3430   2.229   0.118   1.481 -0.1216 -0.5606 -0.0986
  847SOL     OW 3431   2.241   0.380   1.583 -0.4023 -0.1926 -0.0516
  847SOL    HW2 3432   2.253   0.368   1.677 -1.1619  0.1233  0.0858
  847SOL    HW3 3433   2.231   0.292   1.548 -0.1405 -0.3077  0.1651
  847SOL    MW4 3434   2.241   0.367   1.591 -0.4680 -0.1661 -0.0049
  848SOL     OW 3435   2.462   0.474   1.454 -0.4164 -0.1371 -0.0150
  848SOL    HW2 3436   2.528   0.417   1.492 -0.5542 -1.3559 -1.5583
  848SOL    HW3 3437   2.379   0.445   1.494 -0.0435  1.5073  2.0513
  848SOL    MW4 3438   2.460   0.463   1.465 -0.3855 -0.0809  0.0541
  849SOL     OW 3439   2.467   0.716   1.583  0.2926  0.0265  0.3261
  849SOL    HW2 3440   2.397   0.768   1.544  1.4555  1.1378 -0.3374
  849SOL    HW3 3441   2.457   0.629   1.543  0.3297  0.6418 -1.0548
  849SOL    MW4 3442   2.456   0.711   1.572  0.4508  0.2543  0.0564
  850SOL     OW 3443   2.243   0.871   1.509  0.0362 -0.2936  0.2149
  850SOL    HW2 3444   2.236   0.963   1.534 -0.1077 -0.9310  2.6242
  850SOL    HW3 3445   2.251   0.873   1.413  1.6979  2.3001  0.3538
  850SOL    MW4 3446   2.243   0.883   1.499  0.2365 -0.0355  0.5512
  851SOL     OW 3447   2.270   1.137   1.571 -0.0874  0.5011 -0.2131
  851SOL    HW2 3448   2.271   1.139   1.667 -1.2349 -1.7648 -0.1353
  851SOL    HW3 3449   2.185   1.175   1.548 -0.2108  0.1582 -0.3140
  851SOL    MW4 3450   2.259   1.142   1.581 -0.2551  0.1569 -0.2162
  852SOL     OW 3451   2.472   1.273   1.460 -0.0627 -0.0299  0.1019
  852SOL    HW2 3452   2.402   1.228   1.507  1.5542 -2.7625 -0.0056
  852SOL    HW3 3453   2.447   1.266   1.368 -1.2679  1.8974  0.2591
  852SOL    MW4 3454   2.459   1.266   1.454 -0.0086 -0.1361  0.1084
  853SOL     OW 3455   2.483   1.527   1.584  0.1611  0.2329 -0.4908
  853SOL    HW2 3456   2.553   1.576   1.540 -0.7399  0.8118 -1.2885
  853SOL    HW3 3457   2.481   1.442   1.540  1.3802 -0.3553  0.5531
  853SOL    MW4 3458   2.492   1.522   1.573  0.2031  0.2317 -0.4582
  854SOL     OW 3459   2.249   1.624   1.478 -0.1150 -0.2255 -0.3438
  854SOL    HW2 3460   2.325   1.578   1.512  0.4806  0.3109 -0.9185
  854SOL    HW3 3461   2.254   1.611   1.383 -0.3579  0.3800 -0.4406
  854SOL    MW4 3462   2.260   1.616   1.470 -0.0684 -0.0749 -0.4324
  855SOL     OW 3463   2.197   1.896   1.570 -0.1278  0.0606  0.2423
  855SOL    HW2 3464   2.222   1.900   1.663 -0.8325 -1.5911  0.5334
  855SOL    HW3 3465   2.209   1.804   1.547  0.8260  0.6205 -1.5416
  855SOL    MW4 3466   2.202   1.884   1.579 -0.0949 -0.0834  0.0454
  856SOL     OW 3467   2.412   2.047   1.498 -0.1285  0.0547  0.4000
  856SOL    HW2 3468   2.322   2.016   1.509 -0.3410  0.7459  0.6345
  856SOL    HW3 3469   2.431   2.037   1.405 -1.0244  1.4646  0.0568
  856SOL    MW4 3470   2.403   2.041   1.487 -0.2747  0.3319  0.3856
  857SOL     OW 3471   2.463   2.327   1.566 -0.3219  0.3880  0.0252
  857SOL    HW2 3472   2.474   2.314   1.660  0.2186  0.2541 -0.0527
  857SOL    HW3 3473   2.424   2.245   1.535  1.1088 -0.2530 -0.1317
  857SOL    MW4 3474   2.459   2.314   1.574 -0.0618  0.2856 -0.0058
  858SOL     OW 3475   2.230   2.475   1.494  0.2077  0.3573 -0.2886
  858SOL    HW2 3476   2.311   2.428   1.512 -0.8184 -1.2691  0.1176
  858SOL    HW3 3477   2.161   2.419   1.529 -0.9973  2.4465  0.7670
  858SOL    MW4 3478   2.232   2.462   1.501 -0.0868  0.4184 -0.0958
  859SOL     OW 3479   2.232   2.735   1.585  0.1577 -0.6190  0.0436
  859SOL    HW2 3480   2.215   2.648   1.549 -0.4436 -1.0784  1.3791
  859SOL    HW3 3481   2.152   2.784   1.567  0.7566 -0.1240 -1.3125
  859SOL    MW4 3482   2.219   2.730   1.578  0.1574 -0.6142  0.0409
  860SOL     OW 3483   2.461   2.844   1.500  0.1310 -0.2937 -0.6079
  860SOL    HW2 3484   2.457   2.928   1.545  1.2993 -0.1602 -0.7489
  860SOL    HW3 3485   2.376   2.804   1.518 -0.2668  0.7236 -0.1738
  860SOL    MW4 3486   2.449   2.850   1.508  0.2327 -0.1419 -0.5692
  861SOL     OW 3487   2.460   3.074   1.634 -0.4849  0.1047 -0.4532
  861SOL    HW2 3488   2.542   3.103   1.594  0.0219 -1.0086 -0.2514
  861SOL    HW3 3489   2.392   3.120   1.586  0.3241  2.5194  0.6262
  861SOL    MW4 3490   2.462   3.084   1.623 -0.3111  0.2763 -0.2842
  862SOL     OW 3491   2.269   3.201   1.484  0.0623 -0.1939  0.0336
  862SOL    HW2 3492   2.260   3.293   1.509 -0.1085 -0.3469  0.5321
  862SOL    HW3 3493   2.286   3.204   1.390 -0.7079  0.3102 -0.0903
  862SOL    MW4 3494   2.270   3.214   1.475 -0.0622 -0.1478  0.0831
  863SOL     OW 3495   2.264   3.471   1.578 -0.5261  0.2546  0.6009
  863SOL    HW2 3496   2.274   3.461   1.672  0.2220 -0.0665  0.4913
  863SOL    HW3 3497   2.338   3.526   1.552  0.0907 -0.8327  0.0014
  863SOL    MW4 3498   2.275   3.477   1.587 -0.3462  0.0687  0.5074
  864SOL     OW 3499   2.476   3.611   1.455 -0.0316  0.2260 -0.4019
  864SOL    HW2 3500   2.542   3.556   1.497 -0.8507 -0.2287  0.3135
  864SOL    HW3 3501   2.487   3.697   1.496 -1.4954 -0.4638  1.5460
  864SOL    MW4 3502   2.486   3.615   1.466 -0.3328  0.0751 -0.0505
  865SOL     OW 3503   2.484   3.889   1.555  0.1184  0.0615 -0.1828
  865SOL    HW2 3504   2.478   3.884   1.650  0.5913 -1.6216 -0.2379
  865SOL    HW3 3505   2.572   3.925   1.538  1.1225 -2.2490 -0.0270
  865SOL    MW4 3506   2.495   3.893   1.565  0.3130 -0.4659 -0.1695
  866SOL     OW 3507   2.266   4.025   1.455 -0.0354 -0.1742 -0.2157
  866SOL    HW2 3508   2.348   3.988   1.489  1.3487  2.3751 -0.6480
  866SOL    HW3 3509   2.274   4.018   1.359 -0.7134 -0.6959 -0.2399
  866SOL    MW4 3510   2.278   4.019   1.446  0.0577  0.0930 -0.2760
  867SOL     OW 3511   2.230   4.286   1.563  0.1828 -0.3195 -0.1366
  867SOL    HW2 3512   2.308   4.329   1.527  0.9860 -1.4707  0.1807
  867SOL    HW3 3513   2.245   4.193   1.548 -0.6107 -0.6382  0.9577
  867SOL    MW4 3514   2.242   4.279   1.556  0.1841 -0.5136  0.0498
  868SOL     OW 3515   2.487   4.371   1.497 -0.6330 -0.2299 -0.2740
  868SOL    HW2 3516   2.488   4.466   1.508 -2.0689 -0.2110 -0.2328
  868SOL    HW3 3517   2.489   4.357   1.402  0.1602 -0.1763 -0.2685
  868SOL    MW4 3518   2.488   4.381   1.486 -0.7179 -0.2208 -0.2680
  869SOL     OW 3519   2.949   4.654   1.577  0.1390 -0.4428 -0.0308
  869SOL    HW2 3520   2.946   4.660   1.673  2.0786  1.0600 -0.0445
  869SOL    HW3 3521   2.868   4.696   1.549  0.7008  1.3182  0.8941
  869SOL    MW4 3522   2.938   4.660   1.586  0.4690 -0.0124  0.0894
  870SOL     OW 3523   2.712   0.097   1.472 -0.0083  0.6145  0.3999
  870SOL    HW2 3524   2.702   0.191   1.488 -0.7441  0.6111 -0.0509
  870SOL    HW3 3525   2.637   0.057   1.515 -0.8208  0.4110 -1.1756
  870SOL    MW4 3526   2.701   0.104   1.480 -0.2129  0.5872  0.1327
  871SOL     OW 3527   2.677   0.365   1.575 -0.0479 -0.1511  0.1416
  871SOL    HW2 3528   2.683   0.374   1.670 -0.0599  1.8729 -0.0326
  871SOL    HW3 3529   2.754   0.412   1.542 -1.5206  1.5245 -0.9608
  871SOL    MW4 3530   2.688   0.372   1.584 -0.2439  0.3370 -0.0268
  872SOL     OW 3531   2.917   0.510   1.482 -0.6866 -0.0768 -1.3357
  872SOL    HW2 3532   2.905   0.600   1.513 -0.4655  0.2581 -2.2047
  872SOL    HW3 3533   2.897   0.514   1.388  2.0770 -0.3673 -1.9644
  872SOL    MW4 3534   2.913   0.522   1.473 -0.2928 -0.0709 -1.5333
  873SOL     OW 3535   2.905   0.784   1.537 -0.3896  0.6147  0.2491
  873SOL    HW2 3536   2.900   0.777   1.633  1.2535  2.9944  0.5427
  873SOL    HW3 3537   2.823   0.827   1.513 -0.6434  0.3438  0.6162
  873SOL    MW4 3538   2.893   0.788   1.547 -0.2062  0.8930  0.3363
  874SOL     OW 3539   2.658   0.881   1.465  0.0201  0.5607 -0.2743
  874SOL    HW2 3540   2.589   0.819   1.490  0.1077  0.2659 -0.7599
  874SOL    HW3 3541   2.655   0.883   1.369  1.1721 -0.0106 -0.3277
  874SOL    MW4 3542   2.649   0.873   1.456  0.1838  0.4464 -0.3455
  875SOL     OW 3543   2.685   1.118   1.583  0.3162 -0.0230 -0.4967
  875SOL    HW2 3544   2.671   1.032   1.543 -1.4110 -0.7285  1.5375
  875SOL    HW3 3545   2.611   1.171   1.552  0.0985  0.0308  0.1066
  875SOL    MW4 3546   2.673   1.114   1.574  0.0596 -0.1090 -0.1488
  876SOL     OW 3547   2.886   1.312   1.517  0.0222 -0.1269 -0.7133
  876SOL    HW2 3548   2.967   1.264   1.533 -0.5333 -1.4591 -1.7803
  876SOL    HW3 3549   2.817   1.257   1.554 -0.4848  0.5059 -0.7115
  876SOL    MW4 3550   2.888   1.299   1.524 -0.1185 -0.2193 -0.8539
  877SOL     OW 3551   2.940   1.583   1.569 -0.2651  0.1478  0.0668
  877SOL    HW2 3552   2.876   1.644   1.533  0.4877  0.7922 -0.2035
  877SOL    HW3 3553   2.907   1.497   1.544 -1.2819  0.4418  0.3545
  877SOL    MW4 3554   2.927   1.580   1.561 -0.2999  0.2714  0.0690
  878SOL     OW 3555   2.688   1.691   1.479 -0.1220  0.3466  0.6681
  878SOL    HW2 3556   2.663   1.775   1.517 -0.8359  0.3087  0.2848
  878SOL    HW3 3557   2.702   1.709   1.386  0.1762  0.1324  0.6692
  878SOL    MW4 3558   2.687   1.704   1.472 -0.1767  0.3133  0.6177
  879SOL     OW 3559   2.667   1.960   1.572 -0.0869 -0.1260 -0.0468
  879SOL    HW2 3560   2.690   1.950   1.664  1.6618  1.4098 -0.2830
  879SOL    HW3 3561   2.576   1.992   1.573 -0.3527 -0.8874  1.0966
  879SOL    MW4 3562   2.658   1.963   1.584  0.1087 -0.0238  0.0730
  880SOL     OW 3563   2.937   2.025   1.497  0.0689 -0.3873  0.6065
  880SOL    HW2 3564   2.961   2.112   1.531 -0.4582 -0.1415  0.3506
  880SOL    HW3 3565   2.843   2.018   1.515  0.0675 -0.8156  0.4255
  880SOL    MW4 3566   2.927   2.036   1.504 -0.0010 -0.4113  0.5488
  881SOL     OW 3567   2.942   2.314   1.561 -0.2375 -0.2921 -0.1010
  881SOL    HW2 3568   2.934   2.310   1.657  0.0453  0.5767 -0.0401
  881SOL    HW3 3569   2.854   2.334   1.530 -0.3760 -0.7865 -0.0434
  881SOL    MW4 3570   2.930   2.316   1.570 -0.2186 -0.2429 -0.0854
  882SOL     OW 3571   2.704   2.413   1.459  0.0298 -0.0871  0.3905
  882SOL    HW2 3572   2.690   2.504   1.485 -1.3814 -1.0573  3.2495
  882SOL    HW3 3573   2.627   2.366   1.492  1.0995 -2.4556 -0.3461
  882SOL    MW4 3574   2.692   2.419   1.467 -0.0153 -0.5279  0.6704
  883SOL     OW 3575   2.663   2.665   1.536 -0.0211  0.1190 -0.3205
  883SOL    HW2 3576   2.738   2.716   1.506 -0.5277 -0.4712 -2.7462
  883SOL    HW3 3577   2.590   2.726   1.532 -0.0192  0.1544  0.1528
  883SOL    MW4 3578   2.663   2.680   1.532 -0.0880  0.0455 -0.5780
  884SOL     OW 3579   2.895   2.813   1.473 -0.3356 -0.3302  0.3398
  884SOL    HW2 3580   2.974   2.765   1.497  0.2441  0.7340  0.5913
  884SOL    HW3 3581   2.899   2.893   1.525 -0.5045  0.6940 -1.1950
  884SOL    MW4 3582   2.906   2.817   1.483 -0.2816 -0.0548  0.1705
  885SOL     OW 3583   2.870   3.069   1.587  0.3722  0.3297  0.0229
  885SOL    HW2 3584   2.865   3.085   1.681 -1.3606 -0.5191  0.1032
  885SOL    HW3 3585   2.959   3.093   1.563  0.8520  0.4911  1.8932
  885SOL    MW4 3586   2.881   3.074   1.596  0.2069  0.2389  0.2804
  886SOL     OW 3587   2.658   3.192   1.463 -0.8037 -0.0897  0.4105
  886SOL    HW2 3588   2.728   3.137   1.500 -1.0699 -0.3624  0.5105
  886SOL    HW3 3589   2.660   3.172   1.369 -0.6799 -0.0216  0.3982
  886SOL    MW4 3590   2.668   3.182   1.455 -0.8228 -0.1168  0.4221
  887SOL     OW 3591   2.671   3.446   1.542  0.0172 -0.1176 -0.3131
  887SOL    HW2 3592   2.670   3.457   1.637  1.1628 -1.3911 -0.1389
  887SOL    HW3 3593   2.660   3.352   1.528 -3.3958  0.3875 -1.5621
  887SOL    MW4 3594   2.669   3.435   1.553 -0.2818 -0.2189 -0.4548
  888SOL     OW 3595   2.934   3.556   1.486 -0.4096 -0.9727  0.2280
  888SOL    HW2 3596   2.856   3.505   1.507 -1.3803  0.1625 -0.5428
  888SOL    HW3 3597   2.933   3.563   1.391  0.4720 -0.6915  0.2387
  888SOL    MW4 3598   2.923   3.550   1.477 -0.4210 -0.7858  0.1278
  889SOL     OW 3599   2.939   3.826   1.587 -0.2811 -0.0498  0.1659
  889SOL    HW2 3600   2.864   3.861   1.539 -1.0242 -0.1187  1.2669
  889SOL    HW3 3601   2.947   3.735   1.556  0.3333  0.4107 -1.1037
  889SOL    MW4 3602   2.930   3.818   1.576 -0.2980  0.0019  0.1436
  890SOL     OW 3603   2.730   3.998   1.484  0.7509 -0.3487 -0.2791
  890SOL    HW2 3604   2.730   4.081   1.532 -2.0682 -0.6039  0.2541
  890SOL    HW3 3605   2.718   4.024   1.392  0.1482 -0.1502 -0.1466
  890SOL    MW4 3606   2.728   4.013   1.478  0.2995 -0.3562 -0.1912
  891SOL     OW 3607   2.714   4.239   1.601  0.4375 -0.2790  0.3046
  891SOL    HW2 3608   2.788   4.271   1.550  0.9100  0.0680  1.1995
  891SOL    HW3 3609   2.638   4.281   1.561  0.9147  0.9061  0.6222
  891SOL    MW4 3610   2.714   4.248   1.589  0.5627 -0.0772  0.4647
  892SOL     OW 3611   2.922   4.384   1.473 -0.0249 -0.1375  0.1566
  892SOL    HW2 3612   2.917   4.478   1.490 -0.2783 -0.3233  1.1142
  892SOL    HW3 3613   2.907   4.376   1.378 -0.9008  0.6989  0.2224
  892SOL    MW4 3614   2.919   4.396   1.462 -0.1738 -0.0520  0.2916
  893SOL     OW 3615   3.370   4.641   1.603  0.3572  0.1190 -0.3229
  893SOL    HW2 3616   3.448   4.679   1.561 -0.4714  0.1901 -1.8362
  893SOL    HW3 3617   3.367   4.551   1.570 -0.0615  0.0414 -0.0773
  893SOL    MW4 3618   3.380   4.634   1.593  0.1924  0.1178 -0.4902
  894SOL     OW 3619   3.155   0.145   1.461  0.0492 -0.1237 -0.0359
  894SOL    HW2 3620   3.237   0.107   1.491 -0.6285 -0.3681  1.5462
  894SOL    HW3 3621   3.087   0.087   1.494 -0.9189  1.6684  1.2081
  894SOL    MW4 3622   3.157   0.133   1.469 -0.1681  0.0805  0.3370
  895SOL     OW 3623   3.135   0.392   1.583 -0.2982  0.4505  0.0624
  895SOL    HW2 3624   3.144   0.309   1.536 -0.7349  0.7303 -0.5291
  895SOL    HW3 3625   3.059   0.434   1.542  0.0304  1.2205  0.2417
  895SOL    MW4 3626   3.126   0.387   1.571 -0.3123  0.5890  0.0080
  896SOL     OW 3627   3.380   0.495   1.501 -0.0478  0.2664 -0.1992
  896SOL    HW2 3628   3.293   0.477   1.538 -0.2508  0.8929 -0.3571
  896SOL    HW3 3629   3.367   0.490   1.407 -0.1039  1.1691 -0.2471
  896SOL    MW4 3630   3.367   0.492   1.494 -0.0820  0.4682 -0.2263
  897SOL     OW 3631   3.369   0.753   1.577 -0.1203  0.1219  0.5100
  897SOL    HW2 3632   3.369   0.757   1.672  0.3663 -0.4730  0.5340
  897SOL    HW3 3633   3.372   0.659   1.556 -0.4871  0.2371 -0.0877
  897SOL    MW4 3634   3.369   0.741   1.587 -0.1044  0.0586  0.4342
  898SOL     OW 3635   3.134   0.900   1.448  0.5425  0.2513 -0.0529
  898SOL    HW2 3636   3.194   0.862   1.512  0.4896  1.2549  0.6067
  898SOL    HW3 3637   3.047   0.880   1.482  0.5089  1.7606  0.8044
  898SOL    MW4 3638   3.130   0.892   1.461  0.5312  0.5829  0.1472
  899SOL     OW 3639   3.101   1.151   1.561  0.7734 -0.5443 -0.2718
  899SOL    HW2 3640   3.102   1.149   1.657 -0.0575 -0.4606 -0.2631
  899SOL    HW3 3641   3.105   1.058   1.535 -0.8089 -0.6553 -0.1401
  899SOL    MW4 3642   3.102   1.138   1.570  0.4549 -0.5478 -0.2532
  900SOL     OW 3643   3.351   1.246   1.466  0.0106 -0.3519 -0.1980
  900SOL    HW2 3644   3.420   1.204   1.517  1.0499  0.1236 -1.1778
  900SOL    HW3 3645   3.270   1.212   1.502  0.7706 -1.1714  0.7617
  900SOL    MW4 3646   3.350   1.236   1.478  0.2480 -0.3973 -0.2009
  901SOL     OW 3647   3.374   1.499   1.587 -0.0478 -0.2054  0.1451
  901SOL    HW2 3648   3.359   1.491   1.681  1.1766  1.9861  0.5682
  901SOL    HW3 3649   3.383   1.409   1.556 -0.1227 -0.9340  2.1845
  901SOL    MW4 3650   3.373   1.486   1.596  0.1037 -0.0124  0.4699
  902SOL     OW 3651   3.179   1.644   1.455 -0.4146 -0.2807 -0.5095
  902SOL    HW2 3652   3.245   1.588   1.496 -0.2616  0.1232 -0.1976
  902SOL    HW3 3653   3.096   1.605   1.481 -0.3183 -0.0463  0.1701
  902SOL    MW4 3654   3.177   1.632   1.464 -0.3817 -0.1966 -0.3787
  903SOL     OW 3655   3.170   1.892   1.584 -0.3402 -0.1593  0.6670
  903SOL    HW2 3656   3.173   1.810   1.535 -1.2427  0.6031 -0.7234
  903SOL    HW3 3657   3.081   1.924   1.569  0.3046  1.5467  0.3727
  903SOL    MW4 3658   3.158   1.885   1.575 -0.3743  0.1665  0.4448
  904SOL     OW 3659   3.359   2.063   1.452 -0.1599  0.1460  0.0405
  904SOL    HW2 3660   3.286   2.003   1.469 -1.3559  1.3623 -0.7279
  904SOL    HW3 3661   3.377   2.053   1.359 -0.9593  1.6382 -0.2774
  904SOL    MW4 3662   3.352   2.054   1.442 -0.4234  0.5033 -0.1030
  905SOL     OW 3663   3.373   2.310   1.601  0.2437 -0.4226  0.4596
  905SOL    HW2 3664   3.444   2.356   1.557  1.1438 -2.4527 -0.2936
  905SOL    HW3 3665   3.368   2.225   1.557 -2.0639 -0.6666  1.0954
  905SOL    MW4 3666   3.382   2.305   1.589  0.0577 -0.7226  0.4442
  906SOL     OW 3667   3.152   2.447   1.474  0.5125  0.4582  0.4639
  906SOL    HW2 3668   3.221   2.405   1.525  0.3466  0.5419  0.7575
  906SOL    HW3 3669   3.071   2.407   1.505  0.3628  0.9117  0.6605
  906SOL    MW4 3670   3.150   2.436   1.485  0.4709  0.5291  0.5285
  907SOL     OW 3671   3.131   2.703   1.557  0.1238  0.0693  0.4335
  907SOL    HW2 3672   3.209   2.752   1.532  0.9193 -0.3625  2.0409
  907SOL    HW3 3673   3.149   2.613   1.528 -0.9626  0.5048 -1.7064
  907SOL    MW4 3674   3.144   2.698   1.550  0.0854  0.0699  0.3632
  908SOL     OW 3675   3.393   2.813   1.496  0.3272 -0.3622  0.1249
  908SOL    HW2 3676   3.395   2.898   1.539 -1.8833 -0.6867  0.9673
  908SOL    HW3 3677   3.386   2.833   1.402  0.5807  0.3832  0.2652
  908SOL    MW4 3678   3.392   2.826   1.489  0.0691 -0.3066  0.2546
  909SOL     OW 3679   3.392   3.058   1.624 -0.1776 -0.0561  0.2319
  909SOL    HW2 3680   3.373   3.074   1.717  1.5737 -0.2201  0.6336
  909SOL    HW3 3681   3.456   3.125   1.601  1.2871 -1.5409 -0.1699
  909SOL    MW4 3682   3.398   3.069   1.633  0.2468 -0.2737  0.2320
  910SOL     OW 3683   3.133   3.123   1.538  0.3338  0.4082  0.3344
  910SOL    HW2 3684   3.223   3.097   1.558  0.1094 -0.7748 -0.1498
  910SOL    HW3 3685   3.130   3.127   1.442 -0.6654 -1.5366  0.2676
  910SOL    MW4 3686   3.144   3.120   1.528  0.1724 -0.0045  0.2617
  911SOL     OW 3687   3.164   3.404   1.536  0.7819 -0.1125 -0.4290
  911SOL    HW2 3688   3.156   3.309   1.540 -0.0403  0.0311  2.1397
  911SOL    HW3 3689   3.076   3.434   1.512  1.1903 -0.0067 -1.8429
  911SOL    MW4 3690   3.151   3.395   1.533  0.7277 -0.0796 -0.2767
  912SOL     OW 3691   3.361   3.595   1.460  0.2130  0.0261  0.4480
  912SOL    HW2 3692   3.444   3.558   1.490  0.5104 -0.4650 -0.9518
  912SOL    HW3 3693   3.296   3.528   1.480  0.8400 -1.5718 -2.6443
  912SOL    MW4 3694   3.363   3.581   1.467  0.3350 -0.2496 -0.1447
  913SOL     OW 3695   3.355   3.848   1.557  0.2413  0.3273  0.0710
  913SOL    HW2 3696   3.266   3.881   1.544  0.3252  0.5647  0.1005
  913SOL    HW3 3697   3.348   3.754   1.539  0.1137  0.4499 -0.5592
  913SOL    MW4 3698   3.342   3.840   1.553  0.2358  0.3748 -0.0083
  914SOL     OW 3699   3.133   3.987   1.466 -0.0030  0.8726  0.0960
  914SOL    HW2 3700   3.151   4.060   1.525 -1.0356  0.6131  0.7480
  914SOL    HW3 3701   3.060   3.941   1.507  0.2770 -0.2033 -0.5980
  914SOL    MW4 3702   3.126   3.991   1.479 -0.1023  0.6964  0.0905
  915SOL     OW 3703   3.143   4.255   1.565 -0.1304  0.1347 -0.1456
  915SOL    HW2 3704   3.148   4.263   1.660 -2.3348 -2.6746  0.2866
  915SOL    HW3 3705   3.062   4.299   1.541 -0.0491  0.0389 -0.5989
  915SOL    MW4 3706   3.133   4.262   1.574 -0.4103 -0.2480 -0.1483
  916SOL     OW 3707   3.358   4.379   1.476 -0.4504  0.4434 -0.6125
  916SOL    HW2 3708   3.278   4.333   1.497  1.1750 -1.7664  0.8972
  916SOL    HW3 3709   3.364   4.376   1.380 -0.6209 -2.0881 -0.5625
  916SOL    MW4 3710   3.348   4.373   1.466 -0.2582 -0.1822 -0.4067
  917SOL     OW 3711   3.826   4.607   1.608  0.2623  0.5536  0.2277
  917SOL    HW2 3712   3.826   4.605   1.704 -1.5083  0.3063  0.2550
  917SOL    HW3 3713   3.891   4.672   1.585  0.5682  0.7578  1.6158
  917SOL    MW4 3714   3.834   4.615   1.618  0.0691  0.5479  0.4144
  918SOL     OW 3715   3.603   0.077   1.509  0.7858  0.2677 -0.1513
  918SOL    HW2 3716   3.671   0.016   1.539 -0.0005 -0.4154  0.2417
  918SOL    HW3 3717   3.591   0.055   1.416  0.3657 -0.3041  0.0380
  918SOL    MW4 3718   3.611   0.066   1.500  0.6268  0.1021 -0.0745
  919SOL     OW 3719   3.576   0.341   1.602 -0.4043  0.0253 -0.1898
  919SOL    HW2 3720   3.570   0.261   1.549  1.8867  1.3297 -2.5348
  919SOL    HW3 3721   3.513   0.400   1.562 -0.3233  0.2334 -0.0085
  919SOL    MW4 3722   3.567   0.338   1.589 -0.0913  0.2249 -0.4752
  920SOL     OW 3723   3.813   0.486   1.525  0.3978 -0.0086 -0.1990
  920SOL    HW2 3724   3.731   0.446   1.555  0.8250 -1.0218 -0.3833
  920SOL    HW3 3725   3.811   0.476   1.429 -0.3818  2.1114 -0.4441
  920SOL    MW4 3726   3.802   0.480   1.516  0.3514  0.1374 -0.2558
  921SOL     OW 3727   3.807   0.748   1.582  0.2762  0.3365  0.0097
  921SOL    HW2 3728   3.745   0.803   1.534  0.5375  1.3209  0.7712
  921SOL    HW3 3729   3.785   0.658   1.556 -1.4800  0.6630  0.2915
  921SOL    MW4 3730   3.796   0.743   1.572  0.0789  0.5095  0.1473
  922SOL     OW 3731   3.577   0.874   1.453  0.2615  0.4008 -0.0098
  922SOL    HW2 3732   3.500   0.828   1.487  0.3773  1.5949  1.9581
  922SOL    HW3 3733   3.573   0.862   1.358 -1.9427 -0.1667  0.1367
  922SOL    MW4 3734   3.566   0.866   1.445 -0.0141  0.4835  0.2693
  923SOL     OW 3735   3.561   1.117   1.606  0.2577  0.1066 -0.0685
  923SOL    HW2 3736   3.643   1.159   1.579  0.4712  0.5532  1.2370
  923SOL    HW3 3737   3.571   1.026   1.578  1.7644 -0.1509  1.2225
  923SOL    MW4 3738   3.573   1.110   1.599  0.4847  0.1315  0.2741
  924SOL     OW 3739   3.791   1.259   1.522  0.2203  0.2047 -0.2058
  924SOL    HW2 3740   3.883   1.231   1.526 -0.2682 -1.2232  1.9786
  924SOL    HW3 3741   3.795   1.355   1.527  1.5417  0.0763  1.9903
  924SOL    MW4 3742   3.804   1.268   1.523  0.3304 -0.0007  0.3723
  925SOL     OW 3743   3.807   1.534   1.562 -0.4677  0.2009  0.1952
  925SOL    HW2 3744   3.822   1.543   1.656 -0.8287  0.4868  0.2303
  925SOL    HW3 3745   3.720   1.573   1.548 -1.2111 -1.4738  0.0263
  925SOL    MW4 3746   3.797   1.541   1.573 -0.6135  0.0178  0.1776
  926SOL     OW 3747   3.565   1.680   1.477 -0.0387 -0.2089 -0.7842
  926SOL    HW2 3748   3.499   1.620   1.511  0.2911 -0.1603 -0.0530
  926SOL    HW3 3749   3.559   1.670   1.382 -0.5429 -0.8000 -0.6967
  926SOL    MW4 3750   3.556   1.670   1.469 -0.0618 -0.2805 -0.6763
  927SOL     OW 3751   3.586   1.939   1.570  0.2446 -0.3487 -0.3358
  927SOL    HW2 3752   3.585   1.849   1.537 -1.0653 -0.4702 -0.0110
  927SOL    HW3 3753   3.501   1.975   1.543  0.5675  0.6389 -0.0565
  927SOL    MW4 3754   3.575   1.932   1.562  0.1147 -0.2345 -0.2561
  928SOL     OW 3755   3.832   2.037   1.468  0.3461 -0.6034  0.0541
  928SOL    HW2 3756   3.846   2.131   1.480  1.7568 -0.8175  0.1953
  928SOL    HW3 3757   3.749   2.019   1.512  0.3063  0.4948  0.4383
  928SOL    MW4 3758   3.823   2.047   1.476  0.5269 -0.4869  0.1235
  929SOL     OW 3759   3.822   2.333   1.540  0.5334 -0.6719  0.0394
  929SOL    HW2 3760   3.835   2.341   1.634 -0.2023  0.6676  0.0438
  929SOL    HW3 3761   3.884   2.396   1.502 -0.0123 -0.3440 -0.3138
  929SOL    MW4 3762   3.832   2.343   1.547  0.3645 -0.4520 -0.0067
  930SOL     OW 3763   3.586   2.444   1.441 -0.5682 -0.0255  0.4303
  930SOL    HW2 3764   3.597   2.529   1.482  0.1634  0.6304 -1.0715
  930SOL    HW3 3765   3.666   2.396   1.463  0.1162  0.5553 -0.7196
  930SOL    MW4 3766   3.598   2.449   1.449 -0.3812  0.1376  0.0805
  931SOL     OW 3767   3.619   2.672   1.586 -0.4550 -0.2567 -0.4751
  931SOL    HW2 3768   3.609   2.680   1.681  0.3887 -1.8841 -0.2310
  931SOL    HW3 3769   3.538   2.710   1.550  0.1279  2.2242  0.7943
  931SOL    MW4 3770   3.607   2.678   1.594 -0.2666 -0.1438 -0.2754
  932SOL     OW 3771   3.824   2.823   1.477 -0.2446  0.3704  0.2981
  932SOL    HW2 3772   3.910   2.800   1.513 -0.2579 -0.2535 -0.0520
  932SOL    HW3 3773   3.763   2.762   1.519 -0.1335 -0.9863 -1.4178
  932SOL    MW4 3774   3.827   2.812   1.487 -0.2317  0.1090  0.0256
  933SOL     OW 3775   3.808   3.081   1.573  0.1527 -0.0708  0.1213
  933SOL    HW2 3776   3.886   3.125   1.539 -0.1566 -0.6480 -1.3676
  933SOL    HW3 3777   3.825   2.988   1.558 -0.2544 -0.2948  1.0117
  933SOL    MW4 3778   3.821   3.074   1.566  0.0582 -0.1767  0.0424
  934SOL     OW 3779   3.578   3.234   1.480  0.0502  0.3396  0.5692
  934SOL    HW2 3780   3.661   3.189   1.498 -0.7097 -1.4675 -0.3449
  934SOL    HW3 3781   3.567   3.227   1.385 -1.0581  0.7755  0.6542
  934SOL    MW4 3782   3.588   3.227   1.470 -0.1960  0.1588  0.4598
  935SOL     OW 3783   3.599   3.494   1.565 -0.1673  0.0864 -0.6477
  935SOL    HW2 3784   3.677   3.532   1.525 -0.4375 -0.4052 -1.6381
  935SOL    HW3 3785   3.599   3.403   1.537  0.1648 -0.5185  1.2535
  935SOL    MW4 3786   3.609   3.487   1.556 -0.1590 -0.0582 -0.5275
  936SOL     OW 3787   3.824   3.587   1.465  0.2741 -0.2496 -0.0599
  936SOL    HW2 3788   3.894   3.536   1.507 -0.6965  0.0239  1.9417
  936SOL    HW3 3789   3.844   3.677   1.487  0.0444 -0.0466 -0.6680
  936SOL    MW4 3790   3.836   3.592   1.473  0.1156 -0.1867  0.1239
  937SOL     OW 3791   3.783   3.841   1.576  0.4733  0.1634  0.3387
  937SOL    HW2 3792   3.862   3.895   1.567  0.2986  0.5272  0.9346
  937SOL    HW3 3793   3.722   3.877   1.512 -0.1312  1.5738  1.6913
  937SOL    MW4 3794   3.786   3.853   1.567  0.3703  0.3977  0.5959
  938SOL     OW 3795   3.583   3.983   1.442  0.3368 -0.3605  0.1313
  938SOL    HW2 3796   3.575   4.071   1.479  0.2688 -0.7030  0.9487
  938SOL    HW3 3797   3.510   3.935   1.479  0.0761 -0.6292 -0.7173
  938SOL    MW4 3798   3.572   3.988   1.452  0.2937 -0.4416  0.1271
  939SOL     OW 3799   3.567   4.228   1.572 -0.2391  0.3305  0.7138
  939SOL    HW2 3800   3.572   4.238   1.667  0.9623  1.1315  0.5751
  939SOL    HW3 3801   3.485   4.271   1.548 -0.3816  0.4248  1.3442
  939SOL    MW4 3802   3.557   4.235   1.582 -0.0994  0.4482  0.7786
  940SOL     OW 3803   3.777   4.363   1.470 -0.1274  0.5423 -0.3299
  940SOL    HW2 3804   3.699   4.315   1.496  1.4546 -1.0445  1.6434
  940SOL    HW3 3805   3.776   4.442   1.525  0.9747 -0.7334  1.5673
  940SOL    MW4 3806   3.767   4.367   1.481  0.2265  0.1645  0.1807
  941SOL     OW 3807   4.286   4.645   1.639 -0.1982  0.7795 -0.1527
  941SOL    HW2 3808   4.288   4.657   1.734  0.2239 -0.4795  0.0006
  941SOL    HW3 3809   4.268   4.552   1.626 -0.0140  0.8918 -1.3048
  941SOL    MW4 3810   4.284   4.634   1.649 -0.1183  0.6285 -0.2846
  942SOL     OW 3811   4.047   0.090   1.524 -0.2157 -0.2910  0.2768
  942SOL    HW2 3812   4.047   0.182   1.550  0.6221  0.5914 -2.6377
  942SOL    HW3 3813   4.133   0.058   1.549  0.5001  0.4801 -1.1614
  942SOL    MW4 3814   4.058   0.098   1.531 -0.0105 -0.0728 -0.2974
  943SOL     OW 3815   4.036   0.354   1.597  0.0874  0.1209 -0.1340
  943SOL    HW2 3816   4.022   0.347   1.692  0.0399  1.2740 -0.0474
  943SOL    HW3 3817   3.959   0.399   1.564  0.1722 -0.1488 -0.7036
  943SOL    MW4 3818   4.024   0.359   1.605  0.0925  0.2375 -0.1975
  944SOL     OW 3819   4.263   0.495   1.486 -0.1632 -0.2662  0.0491
  944SOL    HW2 3820   4.194   0.450   1.535  0.1853  0.1381  0.9351
  944SOL    HW3 3821   4.343   0.448   1.510 -0.1808 -0.9860 -1.2877
  944SOL    MW4 3822   4.264   0.483   1.496 -0.1197 -0.3079 -0.0105
  945SOL     OW 3823   4.282   0.744   1.611  0.6485 -0.0329  0.4618
  945SOL    HW2 3824   4.262   0.657   1.576 -0.8427  0.2714  0.5138
  945SOL    HW3 3825   4.340   0.784   1.547  0.7864 -0.8112  0.0984
  945SOL    MW4 3826   4.287   0.738   1.598  0.4702 -0.0954  0.4207
  946SOL     OW 3827   4.052   0.868   1.485 -0.7008 -0.1623 -0.0377
  946SOL    HW2 3828   4.121   0.823   1.534 -0.1870  0.1124 -0.5121
  946SOL    HW3 3829   3.971   0.828   1.517 -0.2934 -0.8975  0.0854
  946SOL    MW4 3830   4.050   0.857   1.496 -0.5789 -0.2231 -0.0840
  947SOL     OW 3831   4.045   1.139   1.566 -0.3361  0.4023  0.0589
  947SOL    HW2 3832   4.037   1.139   1.661  1.0009 -0.8167  0.2121
  947SOL    HW3 3833   4.038   1.046   1.542  0.5332  0.5647 -0.8843
  947SOL    MW4 3834   4.043   1.127   1.576 -0.0453  0.2629 -0.0453
  948SOL     OW 3835   4.268   1.246   1.445 -0.1226  0.0563 -0.7109
  948SOL    HW2 3836   4.184   1.223   1.484 -0.3829  0.4958 -1.0026
  948SOL    HW3 3837   4.330   1.185   1.483 -0.3679  0.4940  0.4006
  948SOL    MW4 3838   4.265   1.235   1.455 -0.1893  0.1720 -0.6028
  949SOL     OW 3839   4.267   1.495   1.574  0.1259  0.2890  0.2866
  949SOL    HW2 3840   4.280   1.413   1.527 -2.3121  0.1123 -0.1771
  949SOL    HW3 3841   4.344   1.548   1.553  1.4089 -1.6481  0.0891
  949SOL    MW4 3842   4.279   1.491   1.565 -0.0267  0.0100  0.1994
  950SOL     OW 3843   4.041   1.613   1.453 -0.4931  0.0901  0.3398
  950SOL    HW2 3844   4.120   1.577   1.495 -1.1060  2.2985  3.6465
  950SOL    HW3 3845   3.969   1.578   1.506 -1.4330  1.4400 -0.0433
  950SOL    MW4 3846   4.042   1.604   1.466 -0.6986  0.5596  0.7254
  951SOL     OW 3847   4.064   1.888   1.550  0.1179  0.2061 -0.4368
  951SOL    HW2 3848   4.063   1.797   1.520 -0.1647  0.7667 -2.1823
  951SOL    HW3 3849   3.988   1.928   1.507 -0.6548  0.8880  1.5392
  951SOL    MW4 3850   4.054   1.882   1.540 -0.0215  0.3699 -0.4064
  952SOL     OW 3851   4.261   2.065   1.457 -0.2987  0.1164  0.1247
  952SOL    HW2 3852   4.177   2.028   1.483 -0.8712  1.3601  0.0623
  952SOL    HW3 3853   4.268   2.045   1.363 -1.0453  1.0137 -0.1219
  952SOL    MW4 3854   4.251   2.057   1.448 -0.4725  0.3991  0.0839
  953SOL     OW 3855   4.226   2.338   1.527  0.0954 -0.0039  0.0630
  953SOL    HW2 3856   4.222   2.343   1.623 -0.0588 -0.9348  0.1128
  953SOL    HW3 3857   4.225   2.244   1.508 -1.4805  0.2020 -0.9164
  953SOL    MW4 3858   4.225   2.326   1.538 -0.1326 -0.0997 -0.0597
  954SOL     OW 3859   4.010   2.493   1.424 -0.0980 -0.3532  0.2956
  954SOL    HW2 3860   4.022   2.583   1.453  0.0639 -0.4363  0.4817
  954SOL    HW3 3861   4.086   2.445   1.458  0.6739 -0.2258 -1.1864
  954SOL    MW4 3862   4.022   2.498   1.432  0.0253 -0.3471  0.1247
  955SOL     OW 3863   4.063   2.731   1.584 -0.2456 -0.2353  0.0803
  955SOL    HW2 3864   4.052   2.730   1.679 -0.7711  0.3027  0.0302
  955SOL    HW3 3865   4.149   2.772   1.570 -1.2414  1.9925  0.2526
  955SOL    MW4 3866   4.073   2.737   1.595 -0.4468  0.1297  0.0966
  956SOL     OW 3867   4.302   2.837   1.499  0.0035 -0.0921  0.2650
  956SOL    HW2 3868   4.289   2.921   1.544 -1.5311 -1.3986  2.3833
  956SOL    HW3 3869   4.289   2.857   1.407  0.3447  2.1189  0.6513
  956SOL    MW4 3870   4.299   2.851   1.493 -0.1535  0.0272  0.5956
  957SOL     OW 3871   4.263   3.091   1.602  0.2712 -0.0657  0.5550
  957SOL    HW2 3872   4.272   3.112   1.695  0.0859 -0.7926  0.7424
  957SOL    HW3 3873   4.341   3.130   1.561  0.6380 -0.2170  1.0974
  957SOL    MW4 3874   4.275   3.099   1.609  0.2947 -0.1814  0.6512
  958SOL     OW 3875   4.043   3.193   1.470  0.0196 -0.3629 -0.2726
  958SOL    HW2 3876   4.068   3.276   1.511 -1.3794 -0.4035  0.6973
  958SOL    HW3 3877   4.107   3.130   1.504 -0.1874 -0.0819  0.6717
  958SOL    MW4 3878   4.055   3.195   1.480 -0.1922 -0.3312 -0.0198
  959SOL     OW 3879   4.054   3.470   1.567  0.2012 -0.1818  0.4287
  959SOL    HW2 3880   4.046   3.485   1.661 -0.9086  2.6242 -0.0727
  959SOL    HW3 3881   4.133   3.518   1.541 -0.3451  0.3193 -0.3255
  959SOL    MW4 3882   4.063   3.478   1.576 -0.0176  0.2544  0.2630
  960SOL     OW 3883   4.272   3.606   1.484  0.5147 -0.3435  0.1208
  960SOL    HW2 3884   4.272   3.694   1.523 -1.5420 -0.4957  0.4981
  960SOL    HW3 3885   4.269   3.622   1.390 -0.2436  0.0014  0.2001
  960SOL    MW4 3886   4.272   3.620   1.477  0.1435 -0.3181  0.1810
  961SOL     OW 3887   4.244   3.860   1.617 -0.5393 -0.2824  0.0976
  961SOL    HW2 3888   4.163   3.904   1.589  0.4372  1.0193 -0.7367
  961SOL    HW3 3889   4.314   3.912   1.578  0.7178 -1.2341  1.0552
  961SOL    MW4 3890   4.242   3.873   1.608 -0.2446 -0.2358  0.1138
  962SOL     OW 3891   4.015   3.977   1.519 -0.3769  0.3102 -0.6067
  962SOL    HW2 3892   4.006   4.067   1.549 -1.5937 -0.2300  0.7267
  962SOL    HW3 3893   4.026   3.984   1.425 -0.3314  1.8586 -0.4977
  962SOL    MW4 3894   4.015   3.990   1.511 -0.5317  0.4435 -0.4165
  963SOL     OW 3895   3.981   4.229   1.618 -0.1856 -0.3464  0.1187
  963SOL    HW2 3896   3.981   4.239   1.713 -0.5506 -1.0276  0.1954
  963SOL    HW3 3897   3.906   4.280   1.588  0.1230  0.1406  0.1584
  963SOL    MW4 3898   3.971   4.237   1.626 -0.1931 -0.3719  0.1340
  964SOL     OW 3899   4.191   4.384   1.552 -0.1424 -0.0730  0.1117
  964SOL    HW2 3900   4.115   4.332   1.576  1.7359 -2.7901  0.4419
  964SOL    HW3 3901   4.206   4.365   1.459  1.0805 -0.8880  0.4551
  964SOL    MW4 3902   4.183   4.375   1.543  0.2670 -0.5388  0.2004
  965SOL     OW 3903   0.221   0.023   1.878 -0.0821  0.0763  0.0273
  965SOL    HW2 3904   0.290   0.073   1.921  0.5079 -0.2823 -0.4888
  965SOL    HW3 3905   0.250   0.015   1.787  0.3390 -2.0571  0.3231
  965SOL    MW4 3906   0.234   0.028   1.871  0.0513 -0.2527 -0.0019
  966SOL     OW 3907   4.479   0.136   1.993  0.4692 -0.2345  0.0722
  966SOL    HW2 3908   4.470   0.224   1.956  1.4967  0.3351  1.1387
  966SOL    HW3 3909   4.553   0.097   1.946  0.1835 -0.4383 -0.2129
  966SOL    MW4 3910   4.487   0.142   1.982  0.5671 -0.1862  0.1754
  967SOL     OW 3911   4.472   0.404   1.848  0.9580  0.4993 -0.0407
  967SOL    HW2 3912   4.398   0.452   1.886  0.3829 -0.2081 -0.2481
  967SOL    HW3 3913   4.546   0.425   1.904  0.6693  1.4891 -0.0245
  967SOL    MW4 3914   4.472   0.413   1.860  0.8440  0.5366 -0.0658
  968SOL     OW 3915   0.195   0.481   1.993 -0.3509 -0.0739  0.3118
  968SOL    HW2 3916   0.282   0.446   1.970 -0.2981 -0.0358  0.4506
  968SOL    HW3 3917   0.190   0.564   1.946 -0.0202  0.2664  0.8666
  968SOL    MW4 3918   0.206   0.487   1.984 -0.3003 -0.0240  0.4034
  969SOL     OW 3919   0.206   0.726   1.853 -0.1128 -0.3469 -0.2372
  969SOL    HW2 3920   0.282   0.764   1.897 -1.6822  1.2290  1.1745
  969SOL    HW3 3921   0.213   0.758   1.763  0.6850  0.0950 -0.0280
  969SOL    MW4 3922   0.217   0.735   1.847 -0.2146 -0.0806 -0.0232
  970SOL     OW 3923   4.454   0.901   1.961 -0.4852  0.2108  0.2048
  970SOL    HW2 3924   4.380   0.845   1.941 -0.2255 -0.5819  1.4206
  970SOL    HW3 3925   4.530   0.853   1.930 -0.2515 -0.1767  1.3514
  970SOL    MW4 3926   4.454   0.887   1.954 -0.4201  0.0551  0.5167
  971SOL     OW 3927   4.478   1.157   1.823  0.2131  0.0283 -0.1340
  971SOL    HW2 3928   4.403   1.199   1.866  1.0597  0.7368  0.6549
  971SOL    HW3 3929   4.486   1.072   1.867  1.6836  1.1459  1.8110
  971SOL    MW4 3930   4.469   1.151   1.835  0.5188  0.2692  0.2266
  972SOL     OW 3931   0.210   1.290   1.957  0.0455 -0.1548  0.6785
  972SOL    HW2 3932   0.243   1.369   1.912  1.1025  0.1494  1.9521
  972SOL    HW3 3933   0.133   1.264   1.906  0.3385  1.0531 -0.4198
  972SOL    MW4 3934   0.204   1.297   1.944  0.2236  0.0447  0.7018
  973SOL     OW 3935   0.226   1.549   1.844 -0.1279 -0.5252 -0.6578
  973SOL    HW2 3936   0.283   1.602   1.900 -0.4169  0.4350 -1.2656
  973SOL    HW3 3937   0.137   1.577   1.867 -0.2555 -0.2405 -1.4613
  973SOL    MW4 3938   0.222   1.560   1.855 -0.1829 -0.3611 -0.8441
  974SOL     OW 3939   4.476   1.676   1.943  0.2100  0.0969  0.1000
  974SOL    HW2 3940   4.472   1.681   2.038  0.4661 -0.2762  0.1353
  974SOL    HW3 3941   4.402   1.621   1.919 -1.5116  2.4825 -0.1406
  974SOL    MW4 3942   4.466   1.669   1.952  0.0167  0.3624  0.0728
  975SOL     OW 3943   4.438   1.925   1.828  0.0236 -0.0741 -0.1662
  975SOL    HW2 3944   4.362   1.971   1.865 -0.7607 -1.4742  0.0186
  975SOL    HW3 3945   4.447   1.847   1.883  1.1878 -0.2646 -0.6213
  975SOL    MW4 3946   4.429   1.921   1.840  0.0730 -0.2838 -0.2019
  976SOL     OW 3947   0.183   2.050   1.929 -0.0475  0.0101 -0.2710
  976SOL    HW2 3948   0.177   2.138   1.893 -0.7381  0.8929  1.9203
  976SOL    HW3 3949   0.104   2.006   1.899 -0.2153  0.4688 -0.5049
  976SOL    MW4 3950   0.172   2.056   1.920 -0.1608  0.1869 -0.0128
  977SOL     OW 3951   0.187   2.304   1.836 -0.1527  0.2779  0.2939
  977SOL    HW2 3952   0.261   2.346   1.878  0.3389  0.0744 -0.3635
  977SOL    HW3 3953   0.110   2.341   1.880  0.3683 -0.8139  2.2068
  977SOL    MW4 3954   0.186   2.314   1.847 -0.0191  0.1068  0.4596
  978SOL     OW 3955   4.448   2.450   1.938  0.0163  0.2632  0.0147
  978SOL    HW2 3956   4.437   2.450   2.033 -1.2238  1.5885 -0.0953
  978SOL    HW3 3957   4.456   2.543   1.915 -2.6710  0.2025 -1.4462
  978SOL    MW4 3958   4.447   2.462   1.947 -0.5021  0.4301 -0.1924
  979SOL     OW 3959   0.011   2.718   1.847  0.7423 -0.1622  0.4416
  979SOL    HW2 3960  -0.067   2.759   1.883  1.0835 -0.9522  2.1244
  979SOL    HW3 3961  -0.001   2.721   1.752 -0.7585  0.8134  0.6600
  979SOL    MW4 3962  -0.001   2.724   1.839  0.5889 -0.1380  0.6925
  980SOL     OW 3963   0.233   2.829   1.972 -0.0230 -0.1806  0.0030
  980SOL    HW2 3964   0.222   2.920   1.943  0.0910 -0.1518  0.0523
  980SOL    HW3 3965   0.164   2.781   1.925  0.8204 -0.3183 -1.1088
  980SOL    MW4 3966   0.222   2.835   1.962  0.1033 -0.1950 -0.1372
  981SOL     OW 3967   0.230   3.083   1.833  0.3390 -0.6560  0.2618
  981SOL    HW2 3968   0.320   3.103   1.858  0.0058  1.5520 -0.2001
  981SOL    HW3 3969   0.235   3.061   1.740  0.2272  0.9518 -0.1462
  981SOL    MW4 3970   0.242   3.083   1.824  0.2803 -0.1526  0.1470
  982SOL     OW 3971   0.044   3.253   1.922  0.0430  0.1475 -0.0097
  982SOL    HW2 3972  -0.038   3.205   1.909 -0.3519  0.6805  0.4555
  982SOL    HW3 3973   0.112   3.193   1.891 -0.4942 -0.4396 -0.0781
  982SOL    MW4 3974   0.042   3.239   1.916 -0.0801  0.1402  0.0427
  983SOL     OW 3975   0.003   3.530   1.895 -0.1107  0.1563 -0.6704
  983SOL    HW2 3976   0.093   3.563   1.905 -0.3141  1.2842 -2.2004
  983SOL    HW3 3977   0.008   3.438   1.918  1.4960  0.1670 -0.9129
  983SOL    MW4 3978   0.016   3.522   1.899  0.0744  0.3066 -0.9043
  984SOL     OW 3979   0.243   3.606   1.968 -0.4780 -0.3201 -0.3518
  984SOL    HW2 3980   0.233   3.608   2.063  0.5621  2.6753 -0.2754
  984SOL    HW3 3981   0.305   3.535   1.952 -1.7016 -1.7554  1.0747
  984SOL    MW4 3982   0.250   3.597   1.978 -0.5022 -0.1142 -0.1533
  985SOL     OW 3983   0.219   3.850   1.851 -0.0313 -0.3099  0.3258
  985SOL    HW2 3984   0.292   3.905   1.880  1.6490 -0.9700 -2.4585
  985SOL    HW3 3985   0.238   3.764   1.888  0.3570 -0.3796 -0.0393
  985SOL    MW4 3986   0.231   3.846   1.860  0.2416 -0.4063 -0.0896
  986SOL     OW 3987   0.009   3.997   1.958 -0.1774 -0.0443  0.9699
  986SOL    HW2 3988   0.006   4.080   1.911  0.5689 -0.3211  0.4295
  986SOL    HW3 3989   0.084   3.951   1.921 -1.0039 -1.2624  0.7813
  986SOL    MW4 3990   0.019   4.002   1.947 -0.1880 -0.2413  0.8737
  987SOL     OW 3991   4.489   4.249   1.833 -0.0455  0.0448 -0.1680
  987SOL    HW2 3992   4.417   4.300   1.868  0.6822  0.1844  1.1447
  987SOL    HW3 3993   4.568   4.291   1.868  0.5998 -1.4314  0.1890
  987SOL    MW4 3994   4.490   4.262   1.842  0.1359 -0.1316  0.0522
  988SOL     OW 3995   0.215   4.400   1.957 -0.1314  0.6854 -0.5098
  988SOL    HW2 3996   0.185   4.402   2.048 -0.4223  0.6433 -0.6035
  988SOL    HW3 3997   0.207   4.491   1.927 -1.2837  0.4770 -0.8900
  988SOL    MW4 3998   0.210   4.413   1.965 -0.3218  0.6523 -0.5723
  989SOL     OW 3999   0.670   4.660   1.884  0.0055 -0.0396 -0.0734
  989SOL    HW2 4000   0.669   4.576   1.929  0.1262  0.1725  0.3280
  989SOL    HW3 4001   0.638   4.640   1.795  1.6116 -0.8015 -0.5008
  989SOL    MW4 4002   0.666   4.646   1.878  0.2334 -0.1121 -0.0768
  990SOL     OW 4003   0.457   0.131   1.984  0.0882  0.1505 -0.4910
  990SOL    HW2 4004   0.449   0.217   1.942 -0.9090  0.1076 -0.4076
  990SOL    HW3 4005   0.535   0.092   1.945 -0.3964  0.4155 -1.7356
  990SOL    MW4 4006   0.466   0.137   1.973 -0.1073  0.1798 -0.6442
  991SOL     OW 4007   0.437   0.389   1.879 -0.3656  0.2866  0.4659
  991SOL    HW2 4008   0.513   0.429   1.920  0.3572 -1.7439  1.1650
  991SOL    HW3 4009   0.451   0.401   1.785  0.6931  0.1654  0.6024
  991SOL    MW4 4010   0.449   0.396   1.872 -0.1306  0.0027  0.5761
  992SOL     OW 4011   0.659   0.535   1.967  0.1116 -0.1004 -0.4210
  992SOL    HW2 4012   0.666   0.511   2.059 -1.2691  1.0838  0.0260
  992SOL    HW3 4013   0.742   0.509   1.929  1.2918  0.7573  1.4825
  992SOL    MW4 4014   0.671   0.529   1.974  0.0851  0.1690 -0.1107
  993SOL     OW 4015   0.690   0.766   1.844  0.1468 -0.1516  0.1000
  993SOL    HW2 4016   0.773   0.794   1.882  0.6351  0.9322 -1.6925
  993SOL    HW3 4017   0.667   0.687   1.891  0.7581  1.1038  2.5666
  993SOL    MW4 4018   0.698   0.759   1.855  0.2919  0.1570  0.1889
  994SOL     OW 4019   0.439   0.858   1.943 -0.3263 -0.2651  0.1377
  994SOL    HW2 4020   0.442   0.947   1.908  0.0501 -0.2132  0.3083
  994SOL    HW3 4021   0.526   0.822   1.926 -0.9103 -1.0800 -1.2024
  994SOL    MW4 4022   0.450   0.865   1.936 -0.3537 -0.3658 -0.0166
  995SOL     OW 4023   0.426   1.130   1.863 -0.2505  0.0784  0.4389
  995SOL    HW2 4024   0.346   1.180   1.875 -0.1254  0.4320 -0.1572
  995SOL    HW3 4025   0.448   1.143   1.770 -0.3314 -1.2525  0.2349
  995SOL    MW4 4026   0.419   1.139   1.852 -0.2446 -0.0505  0.3334
  996SOL     OW 4027   0.643   1.251   1.988 -0.0388  0.5207 -0.0108
  996SOL    HW2 4028   0.623   1.249   2.081 -0.6982 -1.2732 -0.1836
  996SOL    HW3 4029   0.561   1.227   1.945  0.6931 -0.2874 -0.9810
  996SOL    MW4 4030   0.629   1.248   1.994 -0.0293  0.1771 -0.1616
  997SOL     OW 4031   0.654   1.503   1.854 -0.3975 -0.5097 -0.1070
  997SOL    HW2 4032   0.645   1.416   1.894  1.0444 -0.7411 -0.2556
  997SOL    HW3 4033   0.644   1.487   1.760  2.3672 -0.9121 -0.3548
  997SOL    MW4 4034   0.651   1.489   1.847  0.1575 -0.5933 -0.1594
  998SOL     OW 4035   0.465   1.699   1.946  0.1264  0.2745  0.3558
  998SOL    HW2 4036   0.468   1.700   2.042  0.6442  0.5886  0.3442
  998SOL    HW3 4037   0.529   1.632   1.921  1.1547  1.2910  0.2083
  998SOL    MW4 4038   0.474   1.691   1.956  0.3304  0.4501  0.3349
  999SOL     OW 4039   0.419   1.953   1.819  0.1272  0.2151  0.2756
  999SOL    HW2 4040   0.437   1.874   1.868  1.4472  0.4556  0.1830
  999SOL    HW3 4041   0.335   1.984   1.854 -0.7999 -1.6382 -0.2509
  999SOL    MW4 4042   0.410   1.947   1.830  0.1791  0.0024  0.1941
 1000SOL     OW 4043   0.674   2.057   1.877 -0.0122  0.2316  0.0457
 1000SOL    HW2 4044   0.658   2.052   1.972 -0.4603  2.1093  0.0841
 1000SOL    HW3 4045   0.597   2.016   1.838 -0.2181  0.1957  0.4821
 1000SOL    MW4 4046   0.662   2.051   1.885 -0.0985  0.4747  0.1082
 1001SOL     OW 4047   0.664   2.335   1.853 -0.2918  0.0774  0.0475
 1001SOL    HW2 4048   0.658   2.241   1.868  0.2938 -0.0283 -0.3564
 1001SOL    HW3 4049   0.662   2.345   1.758 -1.1622  0.5380  0.1082
 1001SOL    MW4 4050   0.663   2.324   1.842 -0.3293  0.1242  0.0024
 1002SOL     OW 4051   0.420   2.430   1.951 -0.0184 -0.2662 -0.7208
 1002SOL    HW2 4052   0.435   2.447   2.044 -0.1074  1.8977 -1.0796
 1002SOL    HW3 4053   0.499   2.386   1.922  1.1600  1.4692 -0.2047
 1002SOL    MW4 4054   0.432   2.426   1.960  0.1253  0.2482 -0.7000
 1003SOL     OW 4055   0.423   2.686   1.856 -0.5665 -0.1671 -0.4264
 1003SOL    HW2 4056   0.416   2.598   1.893 -0.7224  0.0000 -0.0570
 1003SOL    HW3 4057   0.361   2.738   1.907  0.8237  0.5643  0.5474
 1003SOL    MW4 4058   0.413   2.681   1.868 -0.4036 -0.0484 -0.2491
 1004SOL     OW 4059   0.654   2.831   1.942  0.1535  0.0995  1.0237
 1004SOL    HW2 4060   0.660   2.838   2.037 -0.2005  1.0206  0.9895
 1004SOL    HW3 4061   0.580   2.773   1.926  0.2993 -0.1657  1.3142
 1004SOL    MW4 4062   0.645   2.825   1.952  0.1260  0.1860  1.0575
 1005SOL     OW 4063   0.708   3.097   1.823 -0.5777  0.7923 -0.2947
 1005SOL    HW2 4064   0.702   3.002   1.839  1.6400  0.4185 -1.5097
 1005SOL    HW3 4065   0.718   3.104   1.729 -3.3817  2.4335 -0.5330
 1005SOL    MW4 4066   0.708   3.085   1.813 -0.6551  0.9596 -0.4864
 1006SOL     OW 4067   0.452   3.180   1.979 -0.2646  0.2176 -0.2232
 1006SOL    HW2 4068   0.434   3.267   1.946 -1.3691  0.0727 -0.0216
 1006SOL    HW3 4069   0.537   3.156   1.941 -0.9289  0.5540 -1.9228
 1006SOL    MW4 4070   0.461   3.188   1.970 -0.4980  0.2429 -0.4208
 1007SOL     OW 4071   0.448   3.441   1.874  0.1224 -0.1212  0.3383
 1007SOL    HW2 4072   0.530   3.475   1.910 -0.0759  0.4588  0.2482
 1007SOL    HW3 4073   0.454   3.459   1.780  0.0995 -0.5110  0.2618
 1007SOL    MW4 4074   0.460   3.448   1.866  0.0933 -0.0961  0.3163
 1008SOL     OW 4075   0.678   3.595   1.959 -0.1291  0.2384 -0.7047
 1008SOL    HW2 4076   0.759   3.564   1.919  0.2337  1.5806 -1.0404
 1008SOL    HW3 4077   0.667   3.684   1.924 -1.0020  0.5792  0.4146
 1008SOL    MW4 4078   0.688   3.603   1.949 -0.1963  0.4606 -0.6013
 1009SOL     OW 4079   0.667   3.902   1.849 -0.4212  0.8411 -0.2713
 1009SOL    HW2 4080   0.739   3.953   1.886  0.9179 -0.8728 -0.4510
 1009SOL    HW3 4081   0.664   3.928   1.757  0.0695  0.7942 -0.3016
 1009SOL    MW4 4082   0.676   3.912   1.842 -0.1798  0.6087 -0.2990
 1010SOL     OW 4083   0.428   4.017   1.934 -0.1931 -0.5871  0.3265
 1010SOL    HW2 4084   0.445   4.109   1.912 -1.6769 -0.5735 -0.8042
 1010SOL    HW3 4085   0.512   3.973   1.918  0.2242  0.3773 -0.1857
 1010SOL    MW4 4086   0.442   4.023   1.929 -0.3338 -0.4578  0.1096
 1011SOL     OW 4087   0.466   4.293   1.872 -0.6479 -0.1372  0.0825
 1011SOL    HW2 4088   0.392   4.337   1.914 -0.6272  0.8247 -0.8733
 1011SOL    HW3 4089   0.447   4.299   1.778 -1.1065 -2.9736 -0.0535
 1011SOL    MW4 4090   0.453   4.299   1.865 -0.7057 -0.3848 -0.0615
 1012SOL     OW 4091   0.658   4.423   2.010  0.1710  0.0214  0.1841
 1012SOL    HW2 4092   0.737   4.384   1.973  1.2055  3.4635 -1.4146
 1012SOL    HW3 4093   0.586   4.384   1.960  1.0192 -1.1354 -0.1527
 1012SOL    MW4 4094   0.659   4.413   1.999  0.4195  0.3228 -0.0712
 1013SOL     OW 4095   1.103   0.038   1.898 -0.2685  0.0721 -0.3274
 1013SOL    HW2 4096   1.183   0.072   1.938 -0.5917 -0.4683  0.8187
 1013SOL    HW3 4097   1.103  -0.055   1.921 -1.5609  0.2133  0.2822
 1013SOL    MW4 4098   1.114   0.030   1.907 -0.4818  0.0194 -0.0958
 1014SOL     OW 4099   0.858   0.172   1.958  0.0736  0.0602 -0.2517
 1014SOL    HW2 4100   0.939   0.130   1.928  0.5425  1.2976 -0.7803
 1014SOL    HW3 4101   0.788   0.114   1.928  0.6935 -0.2675 -1.1017
 1014SOL    MW4 4102   0.860   0.159   1.950  0.2172  0.1802 -0.4336
 1015SOL     OW 4103   0.888   0.420   1.847 -0.3011  0.0756 -0.3647
 1015SOL    HW2 4104   0.984   0.424   1.850 -0.3054  0.0919 -0.2457
 1015SOL    HW3 4105   0.866   0.342   1.898 -0.4079  0.7544  0.6564
 1015SOL    MW4 4106   0.898   0.410   1.854 -0.3158  0.1673 -0.2143
 1016SOL     OW 4107   1.140   0.475   1.935  0.2831 -0.1174  0.2290
 1016SOL    HW2 4108   1.228   0.444   1.914  0.5351 -1.2603  2.7994
 1016SOL    HW3 4109   1.145   0.570   1.925  0.9915 -0.3903 -2.4243
 1016SOL    MW4 4110   1.152   0.484   1.931  0.4097 -0.3042  0.2180
 1017SOL     OW 4111   1.158   0.735   1.865 -0.0039 -0.3184 -0.2211
 1017SOL    HW2 4112   1.215   0.800   1.907  0.4799  0.2604 -1.7359
 1017SOL    HW3 4113   1.069   0.767   1.881  0.1948  0.1837 -0.0898
 1017SOL    MW4 4114   1.154   0.748   1.873  0.0862 -0.1758 -0.4038
 1018SOL     OW 4115   0.939   0.863   1.952 -0.1663  0.2034  0.4051
 1018SOL    HW2 4116   0.920   0.862   2.046  0.5261  2.1692  0.5915
 1018SOL    HW3 4117   0.916   0.951   1.924 -2.0673 -0.9237 -1.6606
 1018SOL    MW4 4118   0.934   0.874   1.961 -0.3258  0.3141  0.1572
 1019SOL     OW 4119   0.892   1.137   1.897  0.5130  0.5279 -0.4155
 1019SOL    HW2 4120   0.810   1.157   1.942  0.3997  0.5735 -0.6426
 1019SOL    HW3 4121   0.869   1.137   1.804  0.4840 -0.7910 -0.4084
 1019SOL    MW4 4122   0.878   1.140   1.890  0.4942  0.3598 -0.4445
 1020SOL     OW 4123   1.113   1.290   1.971  0.0969 -0.0294  0.1707
 1020SOL    HW2 4124   1.096   1.376   1.933 -0.5310  0.7904  2.2692
 1020SOL    HW3 4125   1.033   1.240   1.955  0.5376 -0.3151 -1.2315
 1020SOL    MW4 4126   1.101   1.295   1.964  0.0722  0.0411  0.2626
 1021SOL     OW 4127   1.114   1.558   1.860  0.0862 -0.2483  0.4535
 1021SOL    HW2 4128   1.033   1.607   1.874 -1.2056 -1.8871 -0.9692
 1021SOL    HW3 4129   1.134   1.570   1.767 -0.2539 -2.3243  0.0746
 1021SOL    MW4 4130   1.106   1.566   1.850 -0.1290 -0.7383  0.2158
 1022SOL     OW 4131   0.879   1.680   1.912 -0.0018 -0.1397 -0.3430
 1022SOL    HW2 4132   0.891   1.757   1.857 -1.6058 -0.2210 -0.8240
 1022SOL    HW3 4133   0.805   1.634   1.874 -0.1890 -0.9833  0.9983
 1022SOL    MW4 4134   0.871   1.684   1.900 -0.2382 -0.2617 -0.2295
 1023SOL     OW 4135   0.901   1.939   1.806  0.5708 -0.1441 -0.0874
 1023SOL    HW2 4136   0.813   1.967   1.832  0.5256  0.3412 -0.7382
 1023SOL    HW3 4137   0.898   1.937   1.710  1.0939 -0.7118 -0.0945
 1023SOL    MW4 4138   0.889   1.943   1.797  0.6338 -0.1550 -0.1742
 1024SOL     OW 4139   1.109   2.030   1.954 -0.3332  0.0831 -0.2164
 1024SOL    HW2 4140   1.103   2.119   1.921 -1.0096 -0.3005 -1.1693
 1024SOL    HW3 4141   1.046   1.980   1.901  2.1810 -1.5549 -1.7599
 1024SOL    MW4 4142   1.100   2.035   1.943 -0.0907 -0.1833 -0.5459
 1025SOL     OW 4143   1.105   2.305   1.822 -0.0100  0.2122  0.1662
 1025SOL    HW2 4144   1.198   2.321   1.838  0.4823 -0.3083 -2.0826
 1025SOL    HW3 4145   1.097   2.302   1.727 -2.1705 -0.7384  0.3569
 1025SOL    MW4 4146   1.116   2.307   1.812 -0.2302  0.0181 -0.1054
 1026SOL     OW 4147   0.913   2.454   1.956 -0.5189  0.2520 -0.2548
 1026SOL    HW2 4148   0.981   2.407   1.907 -1.0680 -0.4363 -0.3623
 1026SOL    HW3 4149   0.831   2.426   1.916 -0.9088  0.5137  0.3536
 1026SOL    MW4 4150   0.911   2.444   1.945 -0.6428  0.1957 -0.1887
 1027SOL     OW 4151   0.916   2.729   1.885 -0.0858 -0.4505 -0.3450
 1027SOL    HW2 4152   0.926   2.634   1.897 -0.3600 -0.3917  0.4265
 1027SOL    HW3 4153   0.826   2.746   1.914 -0.3773 -0.1093 -1.4627
 1027SOL    MW4 4154   0.905   2.719   1.891 -0.1605 -0.3979 -0.3908
 1028SOL     OW 4155   1.146   2.867   1.947  0.0371  0.1251 -0.5438
 1028SOL    HW2 4156   1.121   2.854   2.038  0.9886 -0.6283 -0.3744
 1028SOL    HW3 4157   1.077   2.825   1.896  0.7991 -1.7223 -0.0971
 1028SOL    MW4 4158   1.134   2.860   1.952  0.2631 -0.2182 -0.4625
 1029SOL     OW 4159   1.164   3.119   1.851 -0.3299  0.1096  0.0171
 1029SOL    HW2 4160   1.091   3.162   1.895  1.3501  0.9470  2.0664
 1029SOL    HW3 4161   1.170   3.033   1.892 -1.1386 -0.5839 -1.2708
 1029SOL    MW4 4162   1.155   3.114   1.862 -0.2148  0.1285  0.1175
 1030SOL     OW 4163   0.920   3.226   1.951  0.2030 -0.1462  0.6289
 1030SOL    HW2 4164   0.898   3.233   2.044 -2.1037  0.5002  0.0659
 1030SOL    HW3 4165   0.842   3.186   1.911  2.1745 -2.8742 -0.6455
 1030SOL    MW4 4166   0.907   3.221   1.958  0.1587 -0.4206  0.3866
 1031SOL     OW 4167   0.929   3.495   1.870 -0.2205 -0.3823  0.3911
 1031SOL    HW2 4168   0.934   3.402   1.890  0.1585 -0.0762  1.7596
 1031SOL    HW3 4169   0.920   3.498   1.775  1.9543 -1.7539  0.1019
 1031SOL    MW4 4170   0.929   3.483   1.860  0.1163 -0.5226  0.5335
 1032SOL     OW 4171   1.159   3.659   1.939  0.0390 -0.1572  0.1408
 1032SOL    HW2 4172   1.173   3.649   2.033 -1.2831  0.6643  0.4346
 1032SOL    HW3 4173   1.087   3.598   1.919  1.2683 -1.3826 -0.6035
 1032SOL    MW4 4174   1.151   3.650   1.949  0.0268 -0.2103  0.0814
 1033SOL     OW 4175   1.106   3.928   1.873  0.4455  0.2316  0.0638
 1033SOL    HW2 4176   1.105   3.836   1.897  1.5648  0.2465  0.1872
 1033SOL    HW3 4177   1.101   3.928   1.777  2.1878 -0.0190 -0.0403
 1033SOL    MW4 4178   1.105   3.916   1.863  0.8230  0.2003  0.0662
 1034SOL     OW 4179   0.871   4.057   1.964  0.4486  0.1872 -0.5211
 1034SOL    HW2 4180   0.866   4.032   2.056  0.0981  0.7502 -0.3840
 1034SOL    HW3 4181   0.957   4.026   1.935  0.6699  0.2504  0.0705
 1034SOL    MW4 4182   0.882   4.050   1.972  0.4315  0.2699 -0.4250
 1035SOL     OW 4183   0.889   4.325   1.883  0.0522 -0.0774  0.5912
 1035SOL    HW2 4184   0.966   4.371   1.916  0.4184  0.1761 -0.5935
 1035SOL    HW3 4185   0.898   4.236   1.917  1.5513 -0.4033 -0.6309
 1035SOL    MW4 4186   0.900   4.320   1.892  0.2982 -0.0868  0.2737
 1036SOL     OW 4187   1.114   4.449   1.956 -0.0973  0.1372  0.0771
 1036SOL    HW2 4188   1.124   4.445   2.051  1.1504  1.1683  0.0087
 1036SOL    HW3 4189   1.194   4.409   1.922  1.0002  2.6726 -0.5087
 1036SOL    MW4 4190   1.126   4.443   1.964  0.2120  0.6080 -0.0093
 1037SOL     OW 4191   1.588   0.017   1.868 -0.1824  0.0983 -0.0511
 1037SOL    HW2 4192   1.670   0.061   1.892  0.0841 -0.5207  0.1746
 1037SOL    HW3 4193   1.594  -0.069   1.910 -0.8471 -0.0326 -0.2260
 1037SOL    MW4 4194   1.600   0.012   1.877 -0.2348 -0.0006 -0.0443
 1038SOL     OW 4195   1.359   0.141   1.953  0.4261  0.0000 -0.0510
 1038SOL    HW2 4196   1.372   0.154   2.047 -1.2178 -1.0934  0.3598
 1038SOL    HW3 4197   1.434   0.090   1.925  0.8923  0.2670  0.6944
 1038SOL    MW4 4198   1.370   0.136   1.962  0.2707 -0.1090  0.1017
 1039SOL     OW 4199   1.413   0.384   1.856 -0.1699  0.2067  0.0629
 1039SOL    HW2 4200   1.388   0.294   1.876 -1.2464  0.5690  0.3690
 1039SOL    HW3 4201   1.391   0.395   1.763 -0.8617  0.4217  0.2481
 1039SOL    MW4 4202   1.407   0.374   1.846 -0.4032  0.2829  0.1278
 1040SOL     OW 4203   1.627   0.512   1.973  0.0710  0.2926 -0.0609
 1040SOL    HW2 4204   1.710   0.467   1.955  0.6970  1.4482 -0.1013
 1040SOL    HW3 4205   1.560   0.456   1.933  0.5907 -1.8373  1.9954
 1040SOL    MW4 4206   1.629   0.499   1.965  0.2220  0.1640  0.2050
 1041SOL     OW 4207   1.587   0.765   1.875  0.2596 -0.0812  0.4619
 1041SOL    HW2 4208   1.665   0.815   1.899  0.8038 -0.3063 -0.8105
 1041SOL    HW3 4209   1.598   0.680   1.919  1.1733 -0.4420 -0.4667
 1041SOL    MW4 4210   1.599   0.761   1.884  0.4518 -0.1585  0.1715
 1042SOL     OW 4211   1.341   0.898   1.979  0.4505  0.0507 -0.3750
 1042SOL    HW2 4212   1.337   0.892   2.075  2.2917  0.4831 -0.2635
 1042SOL    HW3 4213   1.423   0.854   1.956 -1.0433 -1.9914 -1.9449
 1042SOL    MW4 4214   1.351   0.891   1.989  0.4964 -0.1617 -0.5674
 1043SOL     OW 4215   1.344   1.151   1.876 -0.8898  0.3724  0.1518
 1043SOL    HW2 4216   1.340   1.070   1.926 -1.0902  0.2613 -0.0436
 1043SOL    HW3 4217   1.275   1.206   1.914  0.2738  1.0433  1.3193
 1043SOL    MW4 4218   1.334   1.148   1.887 -0.7628  0.4463  0.2800
 1044SOL     OW 4219   1.594   1.250   1.970 -0.3521  0.0419 -0.0736
 1044SOL    HW2 4220   1.596   1.340   1.937 -1.9662  0.3358  0.5587
 1044SOL    HW3 4221   1.514   1.213   1.932 -1.0943 -0.2897  1.7534
 1044SOL    MW4 4222   1.583   1.257   1.960 -0.6632  0.0370  0.2509
 1045SOL     OW 4223   1.611   1.509   1.871 -0.1362 -0.0041  0.3276
 1045SOL    HW2 4224   1.687   1.559   1.900 -0.2413  1.1528 -1.3467
 1045SOL    HW3 4225   1.536   1.552   1.913 -0.2634  1.5137 -1.3897
 1045SOL    MW4 4226   1.611   1.521   1.880 -0.1667  0.3489 -0.1199
 1046SOL     OW 4227   1.368   1.661   1.935  0.1375 -0.0634 -0.6101
 1046SOL    HW2 4228   1.372   1.695   2.024  1.0054  0.0170 -0.6780
 1046SOL    HW3 4229   1.277   1.631   1.925  0.4389 -1.5022  0.8121
 1046SOL    MW4 4230   1.356   1.661   1.945  0.2917 -0.2427 -0.4314
 1047SOL     OW 4231   1.347   1.922   1.828 -0.3483 -0.5769  0.5079
 1047SOL    HW2 4232   1.357   1.830   1.852 -0.3168 -0.4250  1.1040
 1047SOL    HW3 4233   1.262   1.947   1.864  0.5716  0.1865  2.2329
 1047SOL    MW4 4234   1.337   1.913   1.836 -0.2228 -0.4562  0.8142
 1048SOL     OW 4235   1.555   2.032   1.972 -0.2531 -0.1516 -0.1569
 1048SOL    HW2 4236   1.567   2.121   1.938  1.1429  0.0586  0.8315
 1048SOL    HW3 4237   1.490   1.993   1.914 -1.4426  1.7537 -0.1632
 1048SOL    MW4 4238   1.548   2.039   1.960 -0.2258  0.1276 -0.0273
 1049SOL     OW 4239   1.590   2.305   1.881  0.3100 -0.6007 -0.1052
 1049SOL    HW2 4240   1.662   2.362   1.909 -0.1325  0.1663 -0.5112
 1049SOL    HW3 4241   1.586   2.315   1.786 -1.3140  0.5643  0.0610
 1049SOL    MW4 4242   1.599   2.314   1.872  0.0374 -0.3457 -0.1367
 1050SOL     OW 4243   1.344   2.431   1.937  0.2638  0.0302  0.4828
 1050SOL    HW2 4244   1.356   2.524   1.918 -0.5941 -0.1598 -1.1567
 1050SOL    HW3 4245   1.432   2.394   1.930  0.3789  0.4563 -0.4635
 1050SOL    MW4 4246   1.357   2.439   1.933  0.1657  0.0613  0.1416
 1051SOL     OW 4247   1.379   2.723   1.881 -0.3638 -0.0939 -0.0969
 1051SOL    HW2 4248   1.305   2.777   1.907 -0.1797  0.5219 -0.8051
 1051SOL    HW3 4249   1.368   2.712   1.786 -1.0752 -2.3440  0.2121
 1051SOL    MW4 4250   1.368   2.728   1.872 -0.4332 -0.3097 -0.1495
 1052SOL     OW 4251   1.598   2.878   1.957  0.7517 -0.2241  0.3900
 1052SOL    HW2 4252   1.673   2.826   1.930  0.4374 -1.0437  1.0809
 1052SOL    HW3 4253   1.522   2.830   1.925  0.5203  0.8819 -0.7927
 1052SOL    MW4 4254   1.598   2.865   1.950  0.6796 -0.1867  0.3252
 1053SOL     OW 4255   1.601   3.136   1.853 -0.4821  0.2014  0.1956
 1053SOL    HW2 4256   1.588   3.046   1.882 -0.3511 -0.0451 -0.5253
 1053SOL    HW3 4257   1.598   3.132   1.758 -2.8964  1.2983  0.1774
 1053SOL    MW4 4258   1.599   3.124   1.844 -0.7833  0.3135  0.0982
 1054SOL     OW 4259   1.368   3.266   1.978  0.0686 -0.0570  0.5481
 1054SOL    HW2 4260   1.446   3.218   1.951  0.9149  0.5539  1.8734
 1054SOL    HW3 4261   1.297   3.228   1.926  1.3880  0.0016 -1.3140
 1054SOL    MW4 4262   1.369   3.254   1.968  0.3542  0.0312  0.4773
 1055SOL     OW 4263   1.401   3.508   1.850 -0.1165 -0.2967 -0.5045
 1055SOL    HW2 4264   1.388   3.425   1.895  0.1658 -0.1462 -0.1368
 1055SOL    HW3 4265   1.324   3.561   1.872 -0.4327 -0.5603 -0.9699
 1055SOL    MW4 4266   1.389   3.504   1.859 -0.1209 -0.3114 -0.5172
 1056SOL     OW 4267   1.628   3.606   1.982  0.3900  0.1061  0.4436
 1056SOL    HW2 4268   1.619   3.592   2.076  0.2951  0.4832  0.4919
 1056SOL    HW3 4269   1.541   3.589   1.947  0.2622  0.6108  0.5088
 1056SOL    MW4 4270   1.615   3.602   1.989  0.3606  0.2224  0.4585
 1057SOL     OW 4271   1.595   3.853   1.883  0.5117  0.0778 -0.5035
 1057SOL    HW2 4272   1.664   3.907   1.921  0.0966  0.0168  0.3657
 1057SOL    HW3 4273   1.613   3.765   1.915  1.2355 -0.3252 -1.9915
 1057SOL    MW4 4274   1.606   3.849   1.892  0.5524  0.0167 -0.5852
 1058SOL     OW 4275   1.362   4.042   1.941  0.1388  0.2287 -0.0404
 1058SOL    HW2 4276   1.421   3.968   1.928  0.2078 -0.1455  2.1363
 1058SOL    HW3 4277   1.280   4.015   1.899  0.7241 -0.3147 -0.8480
 1058SOL    MW4 4278   1.359   4.028   1.934  0.2252  0.1078  0.1402
 1059SOL     OW 4279   1.342   4.319   1.864 -0.1349 -0.3031 -0.2334
 1059SOL    HW2 4280   1.344   4.232   1.905 -0.8480 -0.2994 -0.1798
 1059SOL    HW3 4281   1.346   4.300   1.770  0.0488 -0.3784 -0.2109
 1059SOL    MW4 4282   1.343   4.305   1.857 -0.2047 -0.3128 -0.2233
 1060SOL     OW 4283   1.590   4.421   1.951 -0.1904 -0.3933  0.1248
 1060SOL    HW2 4284   1.599   4.427   2.046  1.5028 -0.8032  0.0166
 1060SOL    HW3 4285   1.502   4.386   1.937 -0.9214  0.8529  1.4864
 1060SOL    MW4 4286   1.580   4.417   1.962 -0.0634 -0.2828  0.2903
 1061SOL     OW 4287   2.048   4.645   1.828  0.1268  0.1090  0.0734
 1061SOL    HW2 4288   2.126   4.692   1.857  1.7301 -1.8667 -0.9297
 1061SOL    HW3 4289   2.047   4.566   1.880  1.1644 -1.8770 -2.7887
 1061SOL    MW4 4290   2.058   4.641   1.838  0.4752 -0.4139 -0.4367
 1062SOL     OW 4291   1.836   0.121   1.928  0.1264  0.3024  0.2055
 1062SOL    HW2 4292   1.846   0.125   2.023  1.2470  0.3881  0.0849
 1062SOL    HW3 4293   1.911   0.070   1.898  0.3571  1.1844 -0.7342
 1062SOL    MW4 4294   1.847   0.114   1.936  0.3048  0.4300  0.0657
 1063SOL     OW 4295   1.842   0.406   1.850 -0.2239 -0.1033  0.0229
 1063SOL    HW2 4296   1.844   0.310   1.858 -1.3359 -0.1215  0.1584
 1063SOL    HW3 4297   1.810   0.421   1.761 -0.9896  0.1437  0.3396
 1063SOL    MW4 4298   1.838   0.395   1.839 -0.4716 -0.0731  0.0827
 1064SOL     OW 4299   2.056   0.503   1.980 -0.3179  0.0868  0.1435
 1064SOL    HW2 4300   2.052   0.588   1.936  1.1068 -0.5630 -1.2994
 1064SOL    HW3 4301   1.977   0.457   1.952  0.4651 -0.2332 -1.6248
 1064SOL    MW4 4302   2.045   0.508   1.970 -0.0265 -0.0412 -0.2801
 1065SOL     OW 4303   2.070   0.761   1.868 -0.8825 -0.1128  0.3531
 1065SOL    HW2 4304   2.148   0.816   1.874 -1.5538  0.9240 -0.1928
 1065SOL    HW3 4305   2.054   0.753   1.774 -1.6142 -0.0673  0.4752
 1065SOL    MW4 4306   2.078   0.767   1.856 -1.0676  0.0300  0.2972
 1066SOL     OW 4307   1.833   0.875   1.950 -0.3394 -0.2458 -0.6241
 1066SOL    HW2 4308   1.834   0.958   1.902 -0.4359 -0.1139 -0.3987
 1066SOL    HW3 4309   1.917   0.834   1.928 -0.7278 -0.5627 -1.5501
 1066SOL    MW4 4310   1.845   0.880   1.940 -0.4034 -0.2702 -0.7166
 1067SOL     OW 4311   1.814   1.135   1.851  0.2399 -0.0227 -0.2793
 1067SOL    HW2 4312   1.742   1.165   1.908  0.3811  0.2734 -0.2592
 1067SOL    HW3 4313   1.779   1.143   1.762  0.3314  0.3467 -0.2831
 1067SOL    MW4 4314   1.800   1.140   1.847  0.2706  0.0651 -0.2772
 1068SOL     OW 4315   2.016   1.256   1.987  0.1789  0.5473  0.0127
 1068SOL    HW2 4316   2.099   1.222   1.956 -0.2768 -0.5915  0.0281
 1068SOL    HW3 4317   1.950   1.216   1.930 -0.5205 -0.1313  1.2699
 1068SOL    MW4 4318   2.018   1.246   1.976  0.0267  0.3074  0.1807
 1069SOL     OW 4319   2.071   1.503   1.891 -0.0086 -0.3650  0.0366
 1069SOL    HW2 4320   2.042   1.419   1.926 -1.1025 -0.3906 -0.9083
 1069SOL    HW3 4321   2.054   1.497   1.797 -0.9765  1.2474  0.0826
 1069SOL    MW4 4322   2.065   1.491   1.883 -0.2806 -0.1556 -0.0819
 1070SOL     OW 4323   1.855   1.650   1.967 -0.2002 -0.1566 -0.5709
 1070SOL    HW2 4324   1.845   1.715   1.898  1.2287 -0.0673 -0.7227
 1070SOL    HW3 4325   1.926   1.593   1.936 -0.5418 -0.9927  0.1544
 1070SOL    MW4 4326   1.863   1.651   1.954 -0.0569 -0.2552 -0.4952
 1071SOL     OW 4327   1.789   1.885   1.835 -0.3461  0.8476 -0.2349
 1071SOL    HW2 4328   1.711   1.917   1.880 -0.6358  1.6803 -1.3029
 1071SOL    HW3 4329   1.782   1.921   1.746  1.3441  1.0699 -0.2944
 1071SOL    MW4 4330   1.778   1.894   1.829 -0.1614  0.9868 -0.3837
 1072SOL     OW 4331   1.995   2.072   1.927  0.4651 -0.5219  0.3031
 1072SOL    HW2 4332   2.073   2.023   1.901  0.5610  0.1514 -0.6833
 1072SOL    HW3 4333   1.921   2.016   1.904  0.5317  0.2188 -1.7641
 1072SOL    MW4 4334   1.996   2.059   1.921  0.4864 -0.3352 -0.0999
 1073SOL     OW 4335   1.988   2.336   1.851  0.4108  0.4598  0.3695
 1073SOL    HW2 4336   2.076   2.371   1.866  0.6170 -0.8391  2.2784
 1073SOL    HW3 4337   1.991   2.248   1.888 -1.6428  0.3412  0.2738
 1073SOL    MW4 4338   2.000   2.329   1.858  0.1671  0.2728  0.6086
 1074SOL     OW 4339   1.780   2.458   1.994 -0.0057 -0.1341  0.0199
 1074SOL    HW2 4340   1.779   2.438   2.088  0.2262  0.8135  0.2300
 1074SOL    HW3 4341   1.865   2.425   1.963 -0.8420 -2.0747 -0.2256
 1074SOL    MW4 4342   1.791   2.451   2.003 -0.0855 -0.2654  0.0153
 1075SOL     OW 4343   1.812   2.719   1.898 -0.3046 -0.4769 -0.1012
 1075SOL    HW2 4344   1.803   2.630   1.933 -0.1644 -0.3868  0.1613
 1075SOL    HW3 4345   1.794   2.709   1.805  2.8176 -1.3178 -0.6777
 1075SOL    MW4 4346   1.808   2.706   1.891  0.1258 -0.5760 -0.1426
 1076SOL     OW 4347   2.038   2.860   1.983  0.2910 -0.0661  0.6066
 1076SOL    HW2 4348   2.020   2.864   2.077 -0.3282 -1.3641  0.5578
 1076SOL    HW3 4349   1.974   2.798   1.950  0.6133  0.2743 -0.6590
 1076SOL    MW4 4350   2.027   2.853   1.991  0.2518 -0.1926  0.4332
 1077SOL     OW 4351   2.024   3.090   1.821  0.6550 -0.0424  0.0162
 1077SOL    HW2 4352   1.972   3.146   1.877  1.7246  0.8115  0.1817
 1077SOL    HW3 4353   2.035   3.009   1.871  2.1672  0.9551  1.3513
 1077SOL    MW4 4354   2.019   3.087   1.835  0.9956  0.2019  0.2142
 1078SOL     OW 4355   1.848   3.232   1.964 -0.2762  0.2265  0.1614
 1078SOL    HW2 4356   1.845   3.243   2.059  2.1747 -1.2830  0.4782
 1078SOL    HW3 4357   1.765   3.191   1.942 -0.6379  0.0758  1.7276
 1078SOL    MW4 4358   1.837   3.228   1.974 -0.0007  0.0076  0.4098
 1079SOL     OW 4359   1.819   3.477   1.833 -0.5029  0.6239 -0.2262
 1079SOL    HW2 4360   1.820   3.389   1.872 -0.0975  0.4622 -0.6052
 1079SOL    HW3 4361   1.751   3.523   1.882 -1.0181 -0.0321 -0.3066
 1079SOL    MW4 4362   1.810   3.471   1.845 -0.5175  0.5159 -0.2867
 1080SOL     OW 4363   2.028   3.628   1.962  0.1017 -0.0735  0.5275
 1080SOL    HW2 4364   2.026   3.714   1.919 -1.1766 -0.4549 -0.1781
 1080SOL    HW3 4365   1.963   3.576   1.916  1.1185 -1.5492  0.7216
 1080SOL    MW4 4366   2.019   3.632   1.951  0.0675 -0.3183  0.4600
 1081SOL     OW 4367   2.003   3.876   1.844  0.1818 -0.2415  0.0869
 1081SOL    HW2 4368   2.081   3.913   1.885  0.5824 -0.4402 -0.4868
 1081SOL    HW3 4369   2.015   3.893   1.750 -1.5497  1.7939  0.1783
 1081SOL    MW4 4370   2.015   3.883   1.837  0.0064  0.0010  0.0232
 1082SOL     OW 4371   1.807   4.013   1.984 -0.1184  0.0404  0.6492
 1082SOL    HW2 4372   1.815   4.097   1.940 -0.1200 -0.0202  0.5310
 1082SOL    HW3 4373   1.871   3.956   1.940  0.5648  0.2440  1.3692
 1082SOL    MW4 4374   1.817   4.017   1.972 -0.0286  0.0596  0.7286
 1083SOL     OW 4375   1.789   4.257   1.869  0.3658  0.2829  0.2517
 1083SOL    HW2 4376   1.710   4.308   1.886  1.0308  1.6158 -0.6032
 1083SOL    HW3 4377   1.789   4.245   1.774  0.0368 -1.6227  0.4704
 1083SOL    MW4 4378   1.778   4.262   1.859  0.4100  0.2074  0.1677
 1084SOL     OW 4379   2.015   4.412   1.969  0.1586 -0.4760 -0.1010
 1084SOL    HW2 4380   2.093   4.373   1.929 -0.3792  0.2278 -1.8851
 1084SOL    HW3 4381   1.942   4.374   1.921 -0.5270  0.1177  0.4540
 1084SOL    MW4 4382   2.016   4.402   1.958 -0.0031 -0.3047 -0.2632
 1085SOL     OW 4383   2.452   4.657   1.867  0.4161 -0.0710 -0.0435
 1085SOL    HW2 4384   2.537   4.691   1.896  0.6458  0.2797 -1.1093
 1085SOL    HW3 4385   2.446   4.570   1.907  1.5337 -0.3369 -0.4511
 1085SOL    MW4 4386   2.463   4.650   1.876  0.5941 -0.0601 -0.2378
 1086SOL     OW 4387   2.232   0.117   1.981  0.0956  0.5604 -0.1260
 1086SOL    HW2 4388   2.242   0.105   2.075 -0.2655 -0.1107 -0.1723
 1086SOL    HW3 4389   2.319   0.098   1.945 -0.3440 -1.5002 -0.1544
 1086SOL    MW4 4390   2.245   0.113   1.988 -0.0100  0.2000 -0.1359
 1087SOL     OW 4391   2.261   0.357   1.877 -0.2840 -0.0011  0.1314
 1087SOL    HW2 4392   2.241   0.275   1.922 -0.2567 -0.0815 -0.0065
 1087SOL    HW3 4393   2.188   0.415   1.901  0.3582  0.3513  1.2908
 1087SOL    MW4 4394   2.248   0.354   1.886 -0.1955  0.0348  0.2662
 1088SOL     OW 4395   2.471   0.487   1.988 -0.0767  0.3263  0.0926
 1088SOL    HW2 4396   2.541   0.436   1.949  0.1909  0.3142  0.5777
 1088SOL    HW3 4397   2.391   0.444   1.960  0.1645 -0.8418  1.1297
 1088SOL    MW4 4398   2.470   0.475   1.979 -0.0098  0.1705  0.2936
 1089SOL     OW 4399   2.507   0.731   1.867 -0.1535  0.1055  0.3864
 1089SOL    HW2 4400   2.479   0.649   1.908  0.7284  0.1720  1.1281
 1089SOL    HW3 4401   2.503   0.713   1.773 -0.1633 -0.7217  0.5419
 1089SOL    MW4 4402   2.503   0.718   1.860 -0.0386  0.0051  0.5047
 1090SOL     OW 4403   2.288   0.893   1.964 -0.2896 -0.1833  0.0064
 1090SOL    HW2 4404   2.274   0.872   2.056  0.8245 -1.4654 -0.0841
 1090SOL    HW3 4405   2.374   0.855   1.944 -0.6744 -0.2412 -1.6496
 1090SOL    MW4 4406   2.298   0.885   1.973 -0.1936 -0.3601 -0.2240
 1091SOL     OW 4407   2.264   1.137   1.847 -0.0364  0.1592  0.5345
 1091SOL    HW2 4408   2.337   1.190   1.879  0.1778  0.0053  0.3078
 1091SOL    HW3 4409   2.266   1.058   1.901  0.0358  0.1061  0.4554
 1091SOL    MW4 4410   2.274   1.133   1.858  0.0014  0.1320  0.4941
 1092SOL     OW 4411   2.487   1.272   1.943  0.6168 -0.0421 -0.2113
 1092SOL    HW2 4412   2.496   1.268   2.038  1.9379 -0.1391 -0.3288
 1092SOL    HW3 4413   2.502   1.364   1.921  0.0164  0.0353 -0.2991
 1092SOL    MW4 4414   2.490   1.283   1.952  0.7119 -0.0446 -0.2385
 1093SOL     OW 4415   2.517   1.530   1.855  0.5641  0.0261 -0.3199
 1093SOL    HW2 4416   2.435   1.559   1.894  0.6876 -0.7811  0.5529
 1093SOL    HW3 4417   2.506   1.546   1.762 -0.3901  0.3989 -0.1508
 1093SOL    MW4 4418   2.505   1.536   1.848  0.4547 -0.0312 -0.1825
 1094SOL     OW 4419   2.298   1.664   1.942 -0.1117  0.3515  0.1251
 1094SOL    HW2 4420   2.273   1.671   2.034 -1.4945  0.6540 -0.2495
 1094SOL    HW3 4421   2.225   1.616   1.901  0.5973  0.0131 -0.7664
 1094SOL    MW4 4422   2.285   1.658   1.949 -0.2007  0.3468 -0.0420
 1095SOL     OW 4423   2.236   1.936   1.844  0.5796  0.1970  0.2494
 1095SOL    HW2 4424   2.314   1.979   1.880  1.6483 -1.2375 -0.2856
 1095SOL    HW3 4425   2.240   1.847   1.880  0.4513 -0.5877 -1.6501
 1095SOL    MW4 4426   2.247   1.930   1.854  0.7036 -0.0958 -0.0719
 1096SOL     OW 4427   2.490   2.050   1.938  0.6896 -0.2262  0.1876
 1096SOL    HW2 4428   2.565   1.998   1.910  1.2558  0.7541 -0.1106
 1096SOL    HW3 4429   2.505   2.137   1.901 -0.8357 -0.1497 -0.3025
 1096SOL    MW4 4430   2.502   2.055   1.929  0.5629 -0.0868  0.0837
 1097SOL     OW 4431   2.472   2.328   1.837 -0.3114  0.5340 -0.4524
 1097SOL    HW2 4432   2.532   2.396   1.869 -0.0636 -0.2808  0.8320
 1097SOL    HW3 4433   2.387   2.351   1.874  0.0436 -0.5986  1.0768
 1097SOL    MW4 4434   2.469   2.340   1.846 -0.2317  0.2770 -0.0812
 1098SOL     OW 4435   2.232   2.443   1.935  0.1334 -0.1487 -0.3185
 1098SOL    HW2 4436   2.246   2.433   2.029 -0.5459 -1.5256 -0.3506
 1098SOL    HW3 4437   2.223   2.538   1.922 -0.2287  0.0143  1.0697
 1098SOL    MW4 4438   2.233   2.454   1.946 -0.0038 -0.3090 -0.1397
 1099SOL     OW 4439   2.265   2.709   1.867 -0.2011 -0.0032  0.1642
 1099SOL    HW2 4440   2.199   2.769   1.901 -0.7730  0.1318 -1.1479
 1099SOL    HW3 4441   2.260   2.719   1.772  1.2702 -0.4654  0.0204
 1099SOL    MW4 4442   2.256   2.718   1.859 -0.0825 -0.0465 -0.0279
 1100SOL     OW 4443   2.504   2.841   1.924  0.1598 -0.4827  0.3344
 1100SOL    HW2 4444   2.477   2.932   1.915  1.8516  0.0171  0.1818
 1100SOL    HW3 4445   2.427   2.791   1.895 -0.2271  0.8988 -1.1450
 1100SOL    MW4 4446   2.490   2.846   1.919  0.3319 -0.2344  0.1189
 1101SOL     OW 4447   2.451   3.121   1.907 -0.2570  0.5029 -0.0221
 1101SOL    HW2 4448   2.363   3.150   1.933 -0.4009  0.9868 -1.0257
 1101SOL    HW3 4449   2.447   3.114   1.812  0.9861  1.1946 -0.1339
 1101SOL    MW4 4450   2.439   3.124   1.898 -0.1121  0.6580 -0.1693
 1102SOL     OW 4451   2.216   3.223   1.975  0.2694 -0.3649 -0.4439
 1102SOL    HW2 4452   2.191   3.210   2.067 -0.3319 -0.0252 -0.5489
 1102SOL    HW3 4453   2.156   3.167   1.926  0.6691 -0.6360 -0.6221
 1102SOL    MW4 4454   2.204   3.214   1.981  0.2429 -0.3557 -0.4814
 1103SOL     OW 4455   2.284   3.467   1.886  0.2960 -0.3998  1.1575
 1103SOL    HW2 4456   2.261   3.380   1.920  1.2753 -0.8226  0.7630
 1103SOL    HW3 4457   2.201   3.514   1.882 -0.2778 -1.4015  1.1621
 1103SOL    MW4 4458   2.270   3.461   1.890  0.3498 -0.5877  1.1061
 1104SOL     OW 4459   2.483   3.651   1.978 -0.3988  0.2321  0.4088
 1104SOL    HW2 4460   2.493   3.612   2.064 -0.5028  0.0743  0.3500
 1104SOL    HW3 4461   2.412   3.602   1.937  2.3056 -2.4518 -1.3093
 1104SOL    MW4 4462   2.475   3.639   1.984 -0.0558 -0.1431  0.1743
 1105SOL     OW 4463   2.435   3.891   1.822  0.1807  0.0963  0.5036
 1105SOL    HW2 4464   2.364   3.940   1.864 -0.8610  0.3015 -1.4318
 1105SOL    HW3 4465   2.448   3.814   1.877 -1.7980 -0.1220  0.6887
 1105SOL    MW4 4466   2.427   3.888   1.834 -0.2177  0.0944  0.2726
 1106SOL     OW 4467   2.211   4.006   1.949 -0.1062  0.1541 -0.2253
 1106SOL    HW2 4468   2.207   4.002   2.044 -0.6499  0.7372 -0.2228
 1106SOL    HW3 4469   2.230   4.097   1.929 -0.5479  0.1481 -0.6928
 1106SOL    MW4 4470   2.213   4.017   1.959 -0.2360  0.2303 -0.2866
 1107SOL     OW 4471   2.243   4.286   1.856  0.4581 -0.5933  0.1432
 1107SOL    HW2 4472   2.332   4.316   1.875 -0.1760  1.0126  0.6657
 1107SOL    HW3 4473   2.233   4.298   1.761  0.2101  0.8568  0.3523
 1107SOL    MW4 4474   2.253   4.291   1.846  0.3417 -0.1907  0.2397
 1108SOL     OW 4475   2.474   4.410   1.970  0.0897  0.2767  0.0952
 1108SOL    HW2 4476   2.481   4.402   2.065 -0.4494  0.5732  0.1586
 1108SOL    HW3 4477   2.562   4.387   1.938  0.1771 -0.1550  0.6402
 1108SOL    MW4 4478   2.487   4.406   1.979  0.0305  0.2589  0.1755
 1109SOL     OW 4479   2.909   4.638   1.862 -0.2602  0.4822 -0.4366
 1109SOL    HW2 4480   2.978   4.690   1.904  1.2990  0.0992 -2.4553
 1109SOL    HW3 4481   2.927   4.548   1.888 -0.3923  0.4511 -0.4520
 1109SOL    MW4 4482   2.920   4.633   1.871 -0.0722  0.4282 -0.7050
 1110SOL     OW 4483   2.690   0.108   1.950  0.1557 -0.0602 -0.4028
 1110SOL    HW2 4484   2.694   0.116   2.045  0.8032  0.1211 -0.4414
 1110SOL    HW3 4485   2.761   0.049   1.927 -0.1455 -0.2912 -0.7559
 1110SOL    MW4 4486   2.700   0.101   1.959  0.2015 -0.0668 -0.4544
 1111SOL     OW 4487   2.696   0.383   1.866 -0.1851 -0.2070 -0.3127
 1111SOL    HW2 4488   2.769   0.431   1.907  0.9460 -0.9081 -1.4558
 1111SOL    HW3 4489   2.715   0.291   1.884 -0.3964 -0.4371 -1.2109
 1111SOL    MW4 4490   2.708   0.377   1.874 -0.0637 -0.3299 -0.5821
 1112SOL     OW 4491   2.908   0.553   1.941  0.5177 -0.2584  0.3725
 1112SOL    HW2 4492   2.978   0.501   1.903  0.4891 -0.0026 -0.0324
 1112SOL    HW3 4493   2.914   0.638   1.898 -0.1225 -0.2754  0.2355
 1112SOL    MW4 4494   2.918   0.557   1.930  0.4294 -0.2269  0.3010
 1113SOL     OW 4495   2.941   0.804   1.814  0.2562 -0.0359 -0.0711
 1113SOL    HW2 4496   3.022   0.821   1.863  1.4040 -0.0662 -1.9395
 1113SOL    HW3 4497   2.873   0.846   1.867  1.6720  1.2069  0.8230
 1113SOL    MW4 4498   2.943   0.812   1.828  0.5946  0.1241 -0.1997
 1114SOL     OW 4499   2.731   0.869   1.988 -0.1977  0.2608  0.0515
 1114SOL    HW2 4500   2.726   0.957   1.953  1.1381 -0.4195 -1.8871
 1114SOL    HW3 4501   2.674   0.817   1.932 -0.4377 -0.2615  0.7638
 1114SOL    MW4 4502   2.723   0.874   1.976 -0.0532  0.1022 -0.1103
 1115SOL     OW 4503   2.700   1.114   1.864  0.0126  0.0918  0.5092
 1115SOL    HW2 4504   2.623   1.167   1.885  0.3416  0.6306  0.3902
 1115SOL    HW3 4505   2.708   1.120   1.769  0.5820  0.5897  0.5814
 1115SOL    MW4 4506   2.691   1.122   1.854  0.1309  0.2286  0.5029
 1116SOL     OW 4507   2.929   1.251   1.970 -0.1340 -0.2193 -0.6003
 1116SOL    HW2 4508   2.931   1.339   1.931  1.0158 -0.0070 -0.0712
 1116SOL    HW3 4509   2.853   1.209   1.929 -1.5824  1.5010  0.2232
 1116SOL    MW4 4510   2.919   1.257   1.959 -0.1731  0.0356 -0.4218
 1117SOL     OW 4511   2.967   1.488   1.843  0.2778 -0.0664  0.2066
 1117SOL    HW2 4512   3.038   1.538   1.884 -0.5433  1.3812 -0.0918
 1117SOL    HW3 4513   2.971   1.513   1.751  0.9262 -1.8781 -0.2792
 1117SOL    MW4 4514   2.977   1.498   1.836  0.2551 -0.1146  0.1030
 1118SOL     OW 4515   2.758   1.635   1.964 -0.1342  0.1379 -0.3218
 1118SOL    HW2 4516   2.823   1.587   1.912  0.0017 -0.3307  0.2719
 1118SOL    HW3 4517   2.674   1.603   1.931 -0.0414 -0.7433  0.2710
 1118SOL    MW4 4518   2.755   1.624   1.952 -0.1042 -0.0402 -0.1652
 1119SOL     OW 4519   2.731   1.894   1.847  0.4310  0.3584 -0.1083
 1119SOL    HW2 4520   2.802   1.950   1.878  0.2831  0.4436  0.0775
 1119SOL    HW3 4521   2.749   1.809   1.888  0.8646  0.1696 -0.6897
 1119SOL    MW4 4522   2.743   1.890   1.857  0.4687  0.3448 -0.1605
 1120SOL     OW 4523   2.959   2.051   1.932 -0.4339 -0.0235  0.1585
 1120SOL    HW2 4524   2.960   2.055   2.028  1.2259  1.7271  0.1063
 1120SOL    HW3 4525   3.038   2.000   1.910 -0.2104  0.5190 -0.2985
 1120SOL    MW4 4526   2.970   2.045   1.942 -0.1857  0.2787  0.0913
 1121SOL     OW 4527   2.917   2.315   1.837 -0.0018 -0.1505  0.4690
 1121SOL    HW2 4528   2.991   2.370   1.862 -0.1366  0.6246 -0.8041
 1121SOL    HW3 4529   2.931   2.233   1.885  1.9772 -0.2304 -0.2161
 1121SOL    MW4 4530   2.928   2.311   1.847  0.2415 -0.0587  0.2106
 1122SOL     OW 4531   2.699   2.450   1.948 -0.0063 -0.4041 -0.3070
 1122SOL    HW2 4532   2.714   2.539   1.918  0.1113 -0.3483 -0.0811
 1122SOL    HW3 4533   2.769   2.399   1.908  1.0067 -0.0854  1.0284
 1122SOL    MW4 4534   2.710   2.455   1.939  0.1428 -0.3548 -0.1010
 1123SOL     OW 4535   2.710   2.688   1.820  0.1888  0.2217 -0.6156
 1123SOL    HW2 4536   2.640   2.741   1.857 -0.3862 -0.2056 -1.0731
 1123SOL    HW3 4537   2.686   2.677   1.728  0.5963 -0.3451 -0.6585
 1123SOL    MW4 4538   2.698   2.693   1.813  0.1667  0.0904 -0.6815
 1124SOL     OW 4539   2.930   2.861   1.909  0.7635  0.5553  0.0926
 1124SOL    HW2 4540   2.907   2.951   1.885  0.7171  0.6865  0.6274
 1124SOL    HW3 4541   2.864   2.807   1.866  1.2401  0.7176 -0.8665
 1124SOL    MW4 4542   2.918   2.866   1.900  0.8204  0.5944  0.0366
 1125SOL     OW 4543   2.868   3.119   1.856  0.1912  0.5980 -0.5013
 1125SOL    HW2 4544   2.939   3.161   1.905 -0.4650 -0.2632  1.2666
 1125SOL    HW3 4545   2.789   3.165   1.885 -0.1657  0.3180 -1.0317
 1125SOL    MW4 4546   2.867   3.130   1.867  0.0577  0.4475 -0.3380
 1126SOL     OW 4547   2.667   3.258   1.965 -0.2655  0.3342 -0.6018
 1126SOL    HW2 4548   2.650   3.348   1.936  0.0578  0.1669 -1.3213
 1126SOL    HW3 4549   2.582   3.214   1.956 -0.7416  0.8964  0.9977
 1126SOL    MW4 4550   2.653   3.264   1.960 -0.2856  0.3865 -0.4857
 1127SOL     OW 4551   2.662   3.530   1.815  0.4584 -0.2885 -0.4983
 1127SOL    HW2 4552   2.746   3.558   1.853  0.1781 -0.3842  0.1950
 1127SOL    HW3 4553   2.596   3.572   1.870  0.0294 -2.2572  0.4982
 1127SOL    MW4 4554   2.665   3.539   1.827  0.3648 -0.5610 -0.2753
 1128SOL     OW 4555   2.917   3.586   1.946 -0.2035  0.2774  0.1578
 1128SOL    HW2 4556   2.940   3.588   2.039 -0.5972  0.0040  0.2629
 1128SOL    HW3 4557   2.995   3.552   1.902  0.1678  0.8975  0.3299
 1128SOL    MW4 4558   2.930   3.582   1.952 -0.2065  0.3231  0.1943
 1129SOL     OW 4559   2.927   3.870   1.861  0.1370  0.2678  0.7012
 1129SOL    HW2 4560   2.922   3.784   1.902  0.1531  0.3680  0.9172
 1129SOL    HW3 4561   2.933   3.852   1.767 -0.8854  0.0688  0.6701
 1129SOL    MW4 4562   2.927   3.856   1.854  0.0043  0.2549  0.7256
 1130SOL     OW 4563   2.667   4.006   1.970 -0.2909 -0.4955  0.5892
 1130SOL    HW2 4564   2.745   3.965   1.933 -0.3112  0.0942 -0.1142
 1130SOL    HW3 4565   2.594   3.959   1.930 -0.3052 -0.8086  0.9751
 1130SOL    MW4 4566   2.667   3.995   1.960 -0.2956 -0.4594  0.5474
 1131SOL     OW 4567   2.709   4.267   1.887  0.1420  0.1040 -0.0217
 1131SOL    HW2 4568   2.701   4.178   1.922 -0.8907  0.4391  0.6294
 1131SOL    HW3 4569   2.705   4.256   1.792 -1.3491 -0.4293  0.0952
 1131SOL    MW4 4570   2.707   4.254   1.879 -0.1907  0.0772  0.0795
 1132SOL     OW 4571   2.954   4.383   1.962  0.0619 -0.0844  0.5075
 1132SOL    HW2 4572   2.952   4.400   2.056  0.4418 -0.6439  0.6260
 1132SOL    HW3 4573   2.865   4.356   1.941 -0.0991  0.3277  0.6491
 1132SOL    MW4 4574   2.942   4.381   1.972  0.0906 -0.1035  0.5418
 1133SOL     OW 4575   3.334   0.020   1.875  0.3798 -0.4821  0.2453
 1133SOL    HW2 4576   3.339  -0.072   1.899  1.9214 -0.2236  0.9605
 1133SOL    HW3 4577   3.352   0.021   1.781 -1.8790 -1.1171 -0.2123
 1133SOL    MW4 4578   3.337   0.008   1.865  0.2851 -0.5318  0.2794
 1134SOL     OW 4579   3.113   0.143   1.975  0.1639  0.4940  0.2061
 1134SOL    HW2 4580   3.126   0.160   2.068  1.4939  0.3367  0.0464
 1134SOL    HW3 4581   3.193   0.100   1.946 -0.8281 -0.7936 -0.6922
 1134SOL    MW4 4582   3.125   0.139   1.983  0.2084  0.3033  0.0666
 1135SOL     OW 4583   3.118   0.391   1.860 -0.1727 -0.0854 -0.1522
 1135SOL    HW2 4584   3.102   0.305   1.899 -0.1876 -0.4469 -0.9494
 1135SOL    HW3 4585   3.116   0.376   1.765 -2.0712  1.1200 -0.3482
 1135SOL    MW4 4586   3.116   0.378   1.852 -0.4251  0.0259 -0.2831
 1136SOL     OW 4587   3.351   0.489   1.988  0.2284 -0.5472  0.2078
 1136SOL    HW2 4588   3.429   0.444   1.956 -0.0119 -1.3518  0.7167
 1136SOL    HW3 4589   3.278   0.445   1.944  0.0133 -0.3437  0.3585
 1136SOL    MW4 4590   3.351   0.477   1.978  0.1686 -0.6265  0.2948
 1137SOL     OW 4591   3.369   0.732   1.864 -0.0726 -0.3163 -0.5474
 1137SOL    HW2 4592   3.291   0.779   1.893  1.0023  0.1260  1.7900
 1137SOL    HW3 4593   3.360   0.645   1.904  0.5309 -0.3349 -0.4551
 1137SOL    MW4 4594   3.357   0.727   1.873  0.1490 -0.2604 -0.2270
 1138SOL     OW 4595   3.148   0.885   1.948 -0.6496 -0.3770  0.1508
 1138SOL    HW2 4596   3.161   0.897   2.042 -0.6718  0.2322  0.0765
 1138SOL    HW3 4597   3.122   0.971   1.916 -0.5443 -0.5586 -0.4323
 1138SOL    MW4 4598   3.146   0.898   1.956 -0.6387 -0.3206  0.0643
 1139SOL     OW 4599   3.135   1.137   1.829 -0.1258  0.0353 -0.1504
 1139SOL    HW2 4600   3.219   1.158   1.870  0.3631 -1.3466 -0.4096
 1139SOL    HW3 4601   3.071   1.188   1.877  0.8648  1.0662  0.0865
 1139SOL    MW4 4602   3.138   1.146   1.841  0.0694 -0.0111 -0.1533
 1140SOL     OW 4603   3.351   1.248   1.966 -0.4456  0.1788 -0.2495
 1140SOL    HW2 4604   3.339   1.252   2.061 -1.0008 -1.2592 -0.2564
 1140SOL    HW3 4605   3.368   1.339   1.941  0.3119  0.4858  1.3014
 1140SOL    MW4 4606   3.352   1.261   1.975 -0.4189  0.0296 -0.0459
 1141SOL     OW 4607   3.374   1.501   1.878  0.0634  0.4136  0.0036
 1141SOL    HW2 4608   3.456   1.543   1.905  0.0330  0.4525  0.0341
 1141SOL    HW3 4609   3.305   1.553   1.919 -0.0042  0.7445 -0.5272
 1141SOL    MW4 4610   3.376   1.513   1.887  0.0505  0.4624 -0.0623
 1142SOL     OW 4611   3.158   1.637   1.999  0.0079 -0.1575  0.6241
 1142SOL    HW2 4612   3.121   1.651   2.086 -0.7430  1.1461  0.1065
 1142SOL    HW3 4613   3.160   1.725   1.960  1.1084 -0.6147 -0.3676
 1142SOL    MW4 4614   3.153   1.651   2.006  0.0544 -0.0458  0.4251
 1143SOL     OW 4615   3.187   1.894   1.862 -0.2106  0.4821 -0.3508
 1143SOL    HW2 4616   3.265   1.944   1.888  0.0994 -1.1335  1.9600
 1143SOL    HW3 4617   3.193   1.889   1.767  2.6152  0.2397 -0.1975
 1143SOL    MW4 4618   3.198   1.900   1.853  0.2031  0.2369 -0.0259
 1144SOL     OW 4619   3.417   2.023   1.978  0.4936 -0.2146  0.1562
 1144SOL    HW2 4620   3.484   1.977   1.928  2.0021  0.7942  1.2328
 1144SOL    HW3 4621   3.427   2.115   1.954 -1.0093 -0.1396 -0.2472
 1144SOL    MW4 4622   3.427   2.029   1.968  0.4945 -0.0715  0.2452
 1145SOL     OW 4623   3.377   2.279   1.890  0.4958 -0.1722  0.0358
 1145SOL    HW2 4624   3.302   2.334   1.914  0.7710 -0.4148  1.4818
 1145SOL    HW3 4625   3.374   2.275   1.794 -0.5324  0.9467  0.0112
 1145SOL    MW4 4626   3.366   2.286   1.880  0.3967 -0.0570  0.2234
 1146SOL     OW 4627   3.149   2.451   1.967 -0.3719  0.6321 -0.1337
 1146SOL    HW2 4628   3.162   2.456   2.061 -1.5486  0.2282  0.0512
 1146SOL    HW3 4629   3.159   2.542   1.937 -1.5696  1.0175  0.5933
 1146SOL    MW4 4630   3.152   2.464   1.975 -0.6850  0.6297 -0.0135
 1147SOL     OW 4631   3.153   2.692   1.843 -0.0300  0.3429  0.1594
 1147SOL    HW2 4632   3.084   2.754   1.864 -0.3768 -0.0187  0.0906
 1147SOL    HW3 4633   3.147   2.680   1.748 -1.5032 -1.5939  0.4690
 1147SOL    MW4 4634   3.143   2.698   1.833 -0.2704  0.0398  0.1912
 1148SOL     OW 4635   3.352   2.826   1.977  0.2753 -0.1710 -0.4479
 1148SOL    HW2 4636   3.334   2.824   2.071  1.1060 -1.0223 -0.3038
 1148SOL    HW3 4637   3.277   2.781   1.937 -0.8859  1.6033 -0.3388
 1148SOL    MW4 4638   3.340   2.820   1.984  0.2320 -0.0494 -0.4145
 1149SOL     OW 4639   3.329   3.096   1.890  0.0401 -0.0751  0.1274
 1149SOL    HW2 4640   3.407   3.144   1.917  0.1952  0.9082 -1.9492
 1149SOL    HW3 4641   3.348   3.005   1.912  0.8949  0.4486  1.5654
 1149SOL    MW4 4642   3.342   3.090   1.896  0.1733  0.1237  0.0430
 1150SOL     OW 4643   3.102   3.257   1.963 -0.3553  0.2416 -0.1629
 1150SOL    HW2 4644   3.108   3.340   1.916  1.2944  1.4912  2.1751
 1150SOL    HW3 4645   3.179   3.208   1.935 -0.6152  0.0171 -0.5029
 1150SOL    MW4 4646   3.113   3.261   1.953 -0.1717  0.3767  0.1006
 1151SOL     OW 4647   3.139   3.497   1.817 -0.1328 -0.3413  0.1547
 1151SOL    HW2 4648   3.216   3.547   1.842 -0.5927  0.4772 -0.0450
 1151SOL    HW3 4649   3.154   3.474   1.725  0.1576 -0.7139  0.2971
 1151SOL    MW4 4650   3.151   3.501   1.808 -0.1554 -0.2825  0.1471
 1152SOL     OW 4651   3.344   3.616   1.955 -0.2274 -0.3225 -0.0850
 1152SOL    HW2 4652   3.422   3.563   1.938 -0.7287 -0.9516 -0.4400
 1152SOL    HW3 4653   3.363   3.701   1.915 -0.6736 -1.2133 -2.2502
 1152SOL    MW4 4654   3.357   3.620   1.948 -0.3524 -0.5231 -0.4174
 1153SOL     OW 4655   3.394   3.855   1.845  0.3163  0.4022  0.2092
 1153SOL    HW2 4656   3.342   3.930   1.875 -0.9922 -0.6222  0.5710
 1153SOL    HW3 4657   3.394   3.864   1.749 -1.5704 -0.2250  0.1211
 1153SOL    MW4 4658   3.387   3.866   1.836 -0.1054  0.1843  0.2453
 1154SOL     OW 4659   3.176   3.999   1.929 -0.0076 -0.0547  0.1327
 1154SOL    HW2 4660   3.155   4.003   2.022  0.1115  0.6896  0.1298
 1154SOL    HW3 4661   3.104   3.950   1.890  1.2057 -2.6299  0.9854
 1154SOL    MW4 4662   3.164   3.993   1.936  0.1681 -0.2961  0.2449
 1155SOL     OW 4663   3.160   4.261   1.839  0.2149  0.1125 -0.7745
 1155SOL    HW2 4664   3.156   4.173   1.875  2.0503  1.1127  2.0015
 1155SOL    HW3 4665   3.085   4.307   1.876  0.3127  0.2587 -0.7567
 1155SOL    MW4 4666   3.150   4.255   1.848  0.4702  0.2637 -0.4059
 1156SOL     OW 4667   3.368   4.411   1.964 -0.1291 -0.2996 -0.1040
 1156SOL    HW2 4668   3.446   4.360   1.944 -0.8972 -2.0702  1.2561
 1156SOL    HW3 4669   3.296   4.358   1.931 -0.9719 -0.2644  1.6488
 1156SOL    MW4 4670   3.369   4.397   1.957 -0.3417 -0.5288  0.3067
 1157SOL     OW 4671   3.801   4.664   1.881 -0.0816  0.0822  0.3989
 1157SOL    HW2 4672   3.773   4.581   1.920 -0.3956 -0.0048 -0.0192
 1157SOL    HW3 4673   3.736   4.728   1.909  0.0261  0.1424  0.5161
 1157SOL    MW4 4674   3.789   4.662   1.890 -0.1087  0.0787  0.3591
 1158SOL     OW 4675   3.573   0.155   1.975  0.3805  0.0845  0.5578
 1158SOL    HW2 4676   3.582   0.151   2.070 -0.5200  0.1626  0.6562
 1158SOL    HW3 4677   3.487   0.115   1.958  0.0626  1.0395 -0.1257
 1158SOL    MW4 4678   3.563   0.149   1.985  0.2198  0.2209  0.4807
 1159SOL     OW 4679   3.601   0.399   1.866 -0.0871  0.0712  0.0294
 1159SOL    HW2 4680   3.590   0.317   1.915  0.8275 -0.3495 -0.4651
 1159SOL    HW3 4681   3.586   0.374   1.775  0.1004  0.4704 -0.1105
 1159SOL    MW4 4682   3.598   0.385   1.860  0.0584  0.0683 -0.0544
 1160SOL     OW 4683   3.824   0.494   1.976 -0.4572  0.0154  0.8963
 1160SOL    HW2 4684   3.847   0.574   1.929 -0.0452 -0.8218 -0.3430
 1160SOL    HW3 4685   3.748   0.459   1.928  0.0734 -0.9413  0.7432
 1160SOL    MW4 4686   3.817   0.500   1.964 -0.3328 -0.2213  0.7124
 1161SOL     OW 4687   3.820   0.746   1.865  0.0458  0.0585  0.2983
 1161SOL    HW2 4688   3.737   0.777   1.901 -0.8315 -0.8155 -0.9049
 1161SOL    HW3 4689   3.807   0.748   1.770  1.3699 -0.1941  0.1015
 1161SOL    MW4 4690   3.808   0.750   1.857  0.1049 -0.0901  0.1136
 1162SOL     OW 4691   3.593   0.855   1.952 -0.1439 -0.2181 -0.1659
 1162SOL    HW2 4692   3.588   0.946   1.923 -0.7312 -0.1304  0.2071
 1162SOL    HW3 4693   3.524   0.811   1.903 -0.6040 -0.2357  0.5003
 1162SOL    MW4 4694   3.583   0.861   1.942 -0.2818 -0.2088 -0.0290
 1163SOL     OW 4695   3.574   1.118   1.875 -0.1730 -0.0207 -0.4375
 1163SOL    HW2 4696   3.492   1.151   1.913 -0.2965 -0.4287 -0.3485
 1163SOL    HW3 4697   3.561   1.126   1.780 -0.1765  0.2440 -0.4169
 1163SOL    MW4 4698   3.561   1.124   1.867 -0.1900 -0.0397 -0.4231
 1164SOL     OW 4699   3.791   1.294   1.951  0.2695 -0.0871 -0.5253
 1164SOL    HW2 4700   3.806   1.291   2.046 -0.9185 -0.0514 -0.3291
 1164SOL    HW3 4701   3.719   1.232   1.936  0.9240 -0.6217 -1.5051
 1164SOL    MW4 4702   3.783   1.285   1.962  0.1993 -0.1527 -0.6287
 1165SOL     OW 4703   3.824   1.546   1.836 -0.3223  0.0518 -0.3460
 1165SOL    HW2 4704   3.883   1.594   1.894  0.3276 -0.3475 -0.6583
 1165SOL    HW3 4705   3.807   1.464   1.882  0.1140 -0.2232 -0.6698
 1165SOL    MW4 4706   3.830   1.541   1.849 -0.1786 -0.0372 -0.4300
 1166SOL     OW 4707   3.596   1.645   1.957 -0.0557  0.1479  0.2449
 1166SOL    HW2 4708   3.589   1.737   1.934  1.5912  0.4007  0.6312
 1166SOL    HW3 4709   3.682   1.619   1.923 -0.3039 -1.1092  0.5588
 1166SOL    MW4 4710   3.607   1.653   1.949  0.1285  0.0155  0.3372
 1167SOL     OW 4711   3.609   1.895   1.849 -0.4692  0.3956  0.3740
 1167SOL    HW2 4712   3.687   1.939   1.884 -0.0398 -1.4757  1.8861
 1167SOL    HW3 4713   3.614   1.908   1.755  0.6838  1.8794  0.6128
 1167SOL    MW4 4714   3.620   1.902   1.841 -0.2604  0.3444  0.6049
 1168SOL     OW 4715   3.833   2.059   1.931  0.7153  0.0617 -0.0295
 1168SOL    HW2 4716   3.913   2.013   1.906  0.3556 -0.5121 -0.1600
 1168SOL    HW3 4717   3.835   2.141   1.881  0.9772 -0.1742 -0.4116
 1168SOL    MW4 4718   3.844   2.063   1.921  0.7024 -0.0448 -0.0972
 1169SOL     OW 4719   3.842   2.318   1.832 -0.1125  0.1787 -0.3818
 1169SOL    HW2 4720   3.912   2.373   1.867 -0.6446 -1.8248  4.2280
 1169SOL    HW3 4721   3.761   2.365   1.854 -0.4053 -0.0945 -0.8577
 1169SOL    MW4 4722   3.840   2.331   1.840 -0.2215 -0.1216  0.1636
 1170SOL     OW 4723   3.619   2.436   1.937 -0.1002  0.4098 -0.4603
 1170SOL    HW2 4724   3.608   2.531   1.927 -1.4765  0.2057 -0.9336
 1170SOL    HW3 4725   3.533   2.400   1.916  0.4929 -0.9663 -0.5246
 1170SOL    MW4 4726   3.606   2.444   1.933 -0.2034  0.2012 -0.5311
 1171SOL     OW 4727   3.598   2.698   1.874 -0.0904  0.2665 -0.2386
 1171SOL    HW2 4728   3.669   2.751   1.912  0.9935 -1.0038 -0.4505
 1171SOL    HW3 4729   3.518   2.742   1.902  0.7523  0.9372  1.1746
 1171SOL    MW4 4730   3.597   2.711   1.883  0.1633  0.1872 -0.0801
 1172SOL     OW 4731   3.767   2.882   1.963  0.3542 -0.0984 -0.1168
 1172SOL    HW2 4732   3.798   2.882   2.054  0.1431  0.1071 -0.0456
 1172SOL    HW3 4733   3.771   2.974   1.936  0.2448 -0.1355 -0.2582
 1172SOL    MW4 4734   3.772   2.894   1.972  0.3116 -0.0763 -0.1261
 1173SOL     OW 4735   3.779   3.129   1.846  0.0320  0.0949  0.3860
 1173SOL    HW2 4736   3.689   3.155   1.869 -0.2163 -0.6147  0.2433
 1173SOL    HW3 4737   3.776   3.111   1.752  0.1928 -0.4469  0.4827
 1173SOL    MW4 4738   3.767   3.130   1.837  0.0205 -0.0703  0.3799
 1174SOL     OW 4739   3.559   3.234   1.946  0.1963 -0.2954 -0.1420
 1174SOL    HW2 4740   3.558   3.235   2.042 -1.9399  0.3477 -0.1373
 1174SOL    HW3 4741   3.568   3.327   1.922 -2.2753 -0.1247 -0.5291
 1174SOL    MW4 4742   3.560   3.247   1.956 -0.4117 -0.1881 -0.1923
 1175SOL     OW 4743   3.592   3.496   1.855 -0.2995  0.1406  0.1827
 1175SOL    HW2 4744   3.681   3.524   1.876 -0.2105 -0.4525  0.5996
 1175SOL    HW3 4745   3.589   3.498   1.760  0.5850 -1.1522  0.1208
 1175SOL    MW4 4746   3.604   3.500   1.846 -0.1709 -0.1080  0.2295
 1176SOL     OW 4747   3.826   3.604   1.967 -0.5069  0.4806  0.0071
 1176SOL    HW2 4748   3.904   3.576   1.918 -1.0746 -0.2992 -0.4677
 1176SOL    HW3 4749   3.818   3.697   1.948  1.3253  0.9762  1.4833
 1176SOL    MW4 4750   3.835   3.613   1.958 -0.3400  0.4430  0.1392
 1177SOL     OW 4751   3.824   3.870   1.853  0.3254 -0.1838 -0.2056
 1177SOL    HW2 4752   3.756   3.915   1.902  0.7903  1.1697 -0.7759
 1177SOL    HW3 4753   3.794   3.871   1.762  0.2104 -1.2832 -0.1901
 1177SOL    MW4 4754   3.811   3.876   1.847  0.3719 -0.1504 -0.2787
 1178SOL     OW 4755   3.592   4.014   1.953 -0.1013  0.4248 -0.3552
 1178SOL    HW2 4756   3.587   3.994   2.046  0.6433  1.7584 -0.0112
 1178SOL    HW3 4757   3.528   3.957   1.912 -1.2479  0.6367  1.1130
 1178SOL    MW4 4758   3.583   4.004   1.960 -0.1540  0.6285 -0.1161
 1179SOL     OW 4759   3.580   4.272   1.856 -0.1710 -0.5592  0.7407
 1179SOL    HW2 4760   3.645   4.322   1.905 -0.4712  0.3643  0.1982
 1179SOL    HW3 4761   3.590   4.182   1.888  2.5165 -0.7525 -0.5504
 1179SOL    MW4 4762   3.590   4.266   1.867  0.1440 -0.4635  0.4988
 1180SOL     OW 4763   3.767   4.400   1.993  0.1786 -0.0797 -0.4193
 1180SOL    HW2 4764   3.779   4.391   2.087 -0.2381  1.0366 -0.2435
 1180SOL    HW3 4765   3.844   4.359   1.954  0.4251 -0.4056  0.4123
 1180SOL    MW4 4766   3.779   4.394   2.000  0.1564  0.0243 -0.2863
 1181SOL     OW 4767   4.269   4.633   1.923 -0.3025  0.1258 -0.4182
 1181SOL    HW2 4768   4.191   4.687   1.937 -1.2013 -1.0111 -0.9363
 1181SOL    HW3 4769   4.342   4.688   1.953 -1.4526  0.5652  1.6224
 1181SOL    MW4 4770   4.268   4.648   1.929 -0.5727  0.0339 -0.2173
 1182SOL     OW 4771   4.039   0.099   1.995 -0.2952 -0.1540 -0.1039
 1182SOL    HW2 4772   4.022   0.095   2.089 -0.8200  1.5997 -0.1152
 1182SOL    HW3 4773   3.958   0.069   1.954 -0.8796  1.2758 -0.0239
 1182SOL    MW4 4774   4.026   0.095   2.002 -0.4420  0.2660 -0.0949
 1183SOL     OW 4775   4.029   0.337   1.874 -0.3703  0.0837 -0.5195
 1183SOL    HW2 4776   4.028   0.254   1.922 -0.3175  0.4846  0.1798
 1183SOL    HW3 4777   3.960   0.390   1.915  0.7872  1.0423  0.2188
 1183SOL    MW4 4778   4.019   0.333   1.886 -0.2108  0.2631 -0.3299
 1184SOL     OW 4779   4.245   0.474   1.978  0.0097  0.2000  0.3661
 1184SOL    HW2 4780   4.249   0.479   2.074  1.3175 -0.3434  0.3486
 1184SOL    HW3 4781   4.164   0.427   1.960 -0.3338  0.4573  1.1987
 1184SOL    MW4 4782   4.235   0.469   1.988  0.1373  0.1622  0.4736
 1185SOL     OW 4783   4.259   0.747   1.882  0.0859 -0.1283 -0.1578
 1185SOL    HW2 4784   4.242   0.657   1.910 -2.1232  0.2001 -0.3725
 1185SOL    HW3 4785   4.273   0.740   1.788 -1.1943 -0.0990 -0.3489
 1185SOL    MW4 4786   4.259   0.734   1.874 -0.3743 -0.0811 -0.2114
 1186SOL     OW 4787   4.023   0.898   1.942 -0.3651  0.8009 -0.5854
 1186SOL    HW2 4788   4.107   0.863   1.914  0.2875  0.6506  1.4696
 1186SOL    HW3 4789   3.958   0.837   1.907  0.5282 -0.3289 -0.2922
 1186SOL    MW4 4790   4.025   0.885   1.934 -0.1607  0.6319 -0.2756
 1187SOL     OW 4791   4.018   1.159   1.847 -0.3113 -0.0790  0.0598
 1187SOL    HW2 4792   4.008   1.072   1.885  0.7521 -1.4947 -2.7688
 1187SOL    HW3 4793   3.943   1.208   1.880 -2.3414 -2.8089 -0.3245
 1187SOL    MW4 4794   4.007   1.154   1.856 -0.4387 -0.6262 -0.3643
 1188SOL     OW 4795   4.251   1.276   1.952  0.3979 -0.2316 -0.1381
 1188SOL    HW2 4796   4.250   1.273   2.048  0.9694  0.5515 -0.1007
 1188SOL    HW3 4797   4.179   1.219   1.925  0.6318 -0.9691  0.7450
 1188SOL    MW4 4798   4.241   1.268   1.961  0.5045 -0.2255 -0.0167
 1189SOL     OW 4799   4.266   1.534   1.844  0.4011  0.3813  0.2933
 1189SOL    HW2 4800   4.248   1.446   1.876  1.6169 -0.2531 -0.7554
 1189SOL    HW3 4801   4.260   1.528   1.749 -0.6730  1.6951  0.2609
 1189SOL    MW4 4802   4.263   1.522   1.836  0.4196  0.4710  0.1506
 1190SOL     OW 4803   4.038   1.669   1.952 -0.5534 -0.2303  0.2763
 1190SOL    HW2 4804   4.055   1.666   2.046 -0.2260  0.3824  0.2419
 1190SOL    HW3 4805   4.095   1.602   1.915 -0.2223 -0.0536  0.4541
 1190SOL    MW4 4806   4.048   1.660   1.960 -0.4668 -0.1261  0.2953
 1191SOL     OW 4807   4.067   1.928   1.861  0.0282  0.4092  0.1926
 1191SOL    HW2 4808   4.053   1.836   1.886  2.0391  0.3882  1.3309
 1191SOL    HW3 4809   4.087   1.925   1.768  0.8766 -0.3934  0.3954
 1191SOL    MW4 4810   4.068   1.916   1.852  0.4053  0.3005  0.3695
 1192SOL     OW 4811   4.265   2.102   1.953  0.2388 -0.6916 -0.4192
 1192SOL    HW2 4812   4.279   2.087   2.046 -0.6124 -1.2795 -0.3828
 1192SOL    HW3 4813   4.193   2.043   1.929  0.3918 -0.4879 -1.4265
 1192SOL    MW4 4814   4.257   2.092   1.962  0.1464 -0.7422 -0.5474
 1193SOL     OW 4815   4.231   2.333   1.818  0.6553 -0.3343 -0.5528
 1193SOL    HW2 4816   4.238   2.249   1.864  1.1105  0.1290  0.2403
 1193SOL    HW3 4817   4.304   2.384   1.852 -0.5831  0.9634  0.2027
 1193SOL    MW4 4818   4.242   2.328   1.829  0.5517 -0.1020 -0.3486
 1194SOL     OW 4819   4.042   2.496   1.935 -0.0954 -0.6055  0.4129
 1194SOL    HW2 4820   4.028   2.471   2.027 -1.5551  0.4805  0.5008
 1194SOL    HW3 4821   4.109   2.435   1.904 -0.4730 -1.7917  1.8474
 1194SOL    MW4 4822   4.049   2.485   1.943 -0.3381 -0.6187  0.6138
 1195SOL     OW 4823   4.033   2.753   1.856 -0.4452 -0.3020 -0.0728
 1195SOL    HW2 4824   4.019   2.660   1.876 -0.6285 -0.4531 -0.8918
 1195SOL    HW3 4825   3.954   2.797   1.888 -0.3620 -0.4254  0.3088
 1195SOL    MW4 4826   4.021   2.746   1.863 -0.4587 -0.3383 -0.1304
 1196SOL     OW 4827   4.294   2.836   1.971 -0.1754 -0.1997 -0.0675
 1196SOL    HW2 4828   4.293   2.847   2.066  0.2730 -0.3735 -0.0409
 1196SOL    HW3 4829   4.217   2.783   1.952 -0.1817 -0.2936  0.2145
 1196SOL    MW4 4830   4.284   2.831   1.981 -0.1173 -0.2351 -0.0268
 1197SOL     OW 4831   4.305   3.118   1.889  0.2975  0.3010  0.0441
 1197SOL    HW2 4832   4.216   3.147   1.909  0.1873 -0.3882  0.5758
 1197SOL    HW3 4833   4.308   3.028   1.921  1.0884  0.2190 -0.2623
 1197SOL    MW4 4834   4.294   3.110   1.896  0.3877  0.1993  0.0739
 1198SOL     OW 4835   4.043   3.226   1.947 -0.2235 -0.2825 -0.1832
 1198SOL    HW2 4836   4.037   3.231   2.043 -0.1526 -0.9531 -0.1451
 1198SOL    HW3 4837   3.959   3.190   1.919  0.5953 -2.2415 -0.2065
 1198SOL    MW4 4838   4.031   3.222   1.956 -0.1059 -0.6294 -0.1813
 1199SOL     OW 4839   4.045   3.499   1.843  0.4654 -0.1593 -0.4465
 1199SOL    HW2 4840   4.111   3.548   1.893  1.0429  0.8500 -2.1508
 1199SOL    HW3 4841   4.050   3.410   1.877  1.4966  0.2970  0.6394
 1199SOL    MW4 4842   4.055   3.494   1.854  0.6776  0.0341 -0.5280
 1200SOL     OW 4843   4.249   3.636   1.991 -0.0347  0.0256  0.0271
 1200SOL    HW2 4844   4.241   3.723   1.952  0.8832 -0.0411 -0.3123
 1200SOL    HW3 4845   4.334   3.605   1.963  0.7363  0.0361  2.2583
 1200SOL    MW4 4846   4.259   3.643   1.982  0.1879  0.0181  0.2766
 1201SOL     OW 4847   4.247   3.889   1.890 -0.5347  0.0905 -0.1415
 1201SOL    HW2 4848   4.334   3.922   1.913 -0.3369 -0.2525 -0.3980
 1201SOL    HW3 4849   4.251   3.876   1.796 -0.1476 -2.0166  0.1406
 1201SOL    MW4 4850   4.259   3.892   1.881 -0.4578 -0.2327 -0.1382
 1202SOL     OW 4851   4.012   3.990   2.020 -0.3417 -0.0188 -0.1309
 1202SOL    HW2 4852   4.099   3.969   1.987 -1.2719  0.1532 -2.8354
 1202SOL    HW3 4853   3.953   3.937   1.967 -2.0102  1.3967  0.2556
 1202SOL    MW4 4854   4.015   3.980   2.009 -0.6843  0.1905 -0.4368
 1203SOL     OW 4855   3.986   4.252   1.892 -0.0470  0.7223 -0.2448
 1203SOL    HW2 4856   4.066   4.296   1.922 -0.2337  0.6692  0.3333
 1203SOL    HW3 4857   3.995   4.162   1.923  0.6253  0.1822 -1.9709
 1203SOL    MW4 4858   3.998   4.246   1.900  0.0172  0.6437 -0.3963
 1204SOL     OW 4859   4.261   4.358   1.955  0.6126 -0.4107  0.7177
 1204SOL    HW2 4860   4.254   4.350   2.051  2.0311  0.3485  0.9099
 1204SOL    HW3 4861   4.262   4.452   1.939  0.5964 -0.5352 -0.0309
 1204SOL    MW4 4862   4.261   4.369   1.966  0.7973 -0.3276  0.6442
 1205SOL     OW 4863   0.242   4.645   2.367  0.0976  0.5552  0.2749
 1205SOL    HW2 4864   0.229   4.656   2.461  1.3627 -1.3799  0.7124
 1205SOL    HW3 4865   0.315   4.703   2.346 -2.1517  3.3804 -0.1738
 1205SOL    MW4 4866   0.250   4.654   2.377 -0.0323  0.6728  0.2735
 1206SOL     OW 4867   4.480   0.080   2.286  0.2757 -0.3467  0.2550
 1206SOL    HW2 4868   4.567   0.062   2.322  0.3799 -0.0764  0.1385
 1206SOL    HW3 4869   4.492   0.073   2.191 -0.0000 -1.0603  0.2696
 1206SOL    MW4 4870   4.493   0.077   2.278  0.2532 -0.4052  0.2413
 1207SOL     OW 4871   4.467   0.355   2.365  0.4540  0.1671  0.0900
 1207SOL    HW2 4872   4.550   0.401   2.347  0.3904  0.5850  0.8470
 1207SOL    HW3 4873   4.476   0.271   2.320  0.6714  0.8278 -1.1245
 1207SOL    MW4 4874   4.479   0.350   2.356  0.4745  0.3094  0.0298
 1208SOL     OW 4875   0.211   0.492   2.273  0.0258 -0.0835  0.0705
 1208SOL    HW2 4876   0.292   0.451   2.302  1.0544  1.4175 -0.5985
 1208SOL    HW3 4877   0.212   0.482   2.178  0.0438  1.0205 -0.0506
 1208SOL    MW4 4878   0.222   0.486   2.265  0.1639  0.2602 -0.0336
 1209SOL     OW 4879   0.201   0.757   2.332  0.2732  0.0491 -0.1909
 1209SOL    HW2 4880   0.210   0.767   2.427 -1.8282 -1.0379  0.1541
 1209SOL    HW3 4881   0.204   0.663   2.318  0.3721  0.2000 -1.2058
 1209SOL    MW4 4882   0.203   0.746   2.343  0.0090 -0.0743 -0.2792
 1210SOL     OW 4883   4.482   0.907   2.227 -0.1444 -0.5424 -0.4004
 1210SOL    HW2 4884   4.554   0.850   2.254 -0.2526  0.2466  1.6149
 1210SOL    HW3 4885   4.486   0.906   2.131  2.3442 -0.7699 -0.3352
 1210SOL    MW4 4886   4.492   0.899   2.218  0.1698 -0.4683 -0.1261
 1211SOL     OW 4887   0.015   1.151   2.354  0.0369 -0.0827 -0.0773
 1211SOL    HW2 4888   0.003   1.138   2.448  0.5318  0.8451  0.1175
 1211SOL    HW3 4889  -0.001   1.064   2.316  0.6578 -0.6573  0.9344
 1211SOL    MW4 4890   0.011   1.137   2.361  0.1841 -0.0361  0.0820
 1212SOL     OW 4891   0.230   1.280   2.233 -0.8575 -0.1651 -0.0818
 1212SOL    HW2 4892   0.145   1.243   2.257 -1.8287  1.2458 -1.2795
 1212SOL    HW3 4893   0.225   1.291   2.138  0.6202  0.0654 -0.1366
 1212SOL    MW4 4894   0.218   1.276   2.224 -0.7907  0.0515 -0.2472
 1213SOL     OW 4895   0.218   1.536   2.308 -0.7648 -0.1998  0.2411
 1213SOL    HW2 4896   0.226   1.550   2.402  0.1927  1.4904 -0.0701
 1213SOL    HW3 4897   0.239   1.443   2.296  0.4932 -0.1040  1.5428
 1213SOL    MW4 4898   0.222   1.525   2.319 -0.4725  0.0359  0.3719
 1214SOL     OW 4899   0.002   1.694   2.237  0.1689  0.2776 -0.2524
 1214SOL    HW2 4900   0.018   1.780   2.275 -0.3361  0.7458 -1.1010
 1214SOL    HW3 4901   0.085   1.647   2.247  0.5669  1.0023 -0.1740
 1214SOL    MW4 4902   0.015   1.699   2.244  0.1545  0.4349 -0.3538
 1215SOL     OW 4903   0.038   1.949   2.342 -0.0814  0.3754  0.9685
 1215SOL    HW2 4904  -0.042   1.975   2.296 -0.5923 -0.0456  1.6224
 1215SOL    HW3 4905   0.109   1.972   2.281 -0.6087  1.9497  0.9334
 1215SOL    MW4 4906   0.037   1.956   2.328 -0.2184  0.5275  1.0500
 1216SOL     OW 4907   0.251   2.060   2.219  0.2528  0.1472  0.2641
 1216SOL    HW2 4908   0.340   2.030   2.236  0.2103 -0.3272 -0.2928
 1216SOL    HW3 4909   0.249   2.075   2.124  0.3806  2.3136  0.5788
 1216SOL    MW4 4910   0.262   2.058   2.209  0.2641  0.3703  0.2320
 1217SOL     OW 4911   0.214   2.309   2.338 -0.6132  0.0211  0.0869
 1217SOL    HW2 4912   0.211   2.303   2.433 -2.1404 -1.1188 -0.0171
 1217SOL    HW3 4913   0.216   2.217   2.309 -0.4298  0.3618 -0.9907
 1217SOL    MW4 4914   0.214   2.296   2.347 -0.7905 -0.0842 -0.0689
 1218SOL     OW 4915   4.461   2.444   2.212 -0.0141  0.3147 -0.0568
 1218SOL    HW2 4916   4.469   2.527   2.259 -0.4916 -0.3132  1.1518
 1218SOL    HW3 4917   4.536   2.393   2.241  0.1666  0.2437 -0.6452
 1218SOL    MW4 4918   4.472   2.449   2.222 -0.0533  0.2224  0.0250
 1219SOL     OW 4919   4.487   2.694   2.347 -0.3989  0.3095 -0.1429
 1219SOL    HW2 4920   4.499   2.708   2.441 -1.5881 -0.0670  0.0645
 1219SOL    HW3 4921   4.564   2.735   2.307 -0.1234  0.8804  0.9625
 1219SOL    MW4 4922   4.499   2.702   2.354 -0.5193  0.3352  0.0305
 1220SOL     OW 4923   0.216   2.812   2.234 -0.3213  0.7584 -0.2386
 1220SOL    HW2 4924   0.309   2.810   2.254 -0.1842 -1.5642 -0.8814
 1220SOL    HW3 4925   0.212   2.827   2.139 -0.5271 -0.6359 -0.4639
 1220SOL    MW4 4926   0.227   2.813   2.224 -0.3303  0.2677 -0.3531
 1221SOL     OW 4927   0.188   3.062   2.350  0.3554  0.0193 -0.3667
 1221SOL    HW2 4928   0.123   3.116   2.306 -0.1332 -0.4065 -0.1674
 1221SOL    HW3 4929   0.188   2.979   2.302 -0.6571 -0.6864  0.8201
 1221SOL    MW4 4930   0.180   3.058   2.338  0.1574 -0.1297 -0.1838
 1222SOL     OW 4931   4.474   3.199   2.203  0.4000 -0.3402 -0.4684
 1222SOL    HW2 4932   4.469   3.289   2.235 -0.7176 -0.6446  0.2616
 1222SOL    HW3 4933   4.490   3.207   2.110 -0.9823  0.6558 -0.6373
 1222SOL    MW4 4934   4.475   3.212   2.195  0.0706 -0.2491 -0.3943
 1223SOL     OW 4935   4.466   3.454   2.305  0.2123  0.2415  0.0145
 1223SOL    HW2 4936   4.490   3.458   2.398 -1.1008 -1.5549  0.4816
 1223SOL    HW3 4937   4.389   3.511   2.298 -0.8385 -1.0737  0.4688
 1223SOL    MW4 4938   4.459   3.462   2.317 -0.1001 -0.1688  0.1359
 1224SOL     OW 4939   0.196   3.607   2.242 -0.5113  0.3201  0.4897
 1224SOL    HW2 4940   0.274   3.577   2.290 -0.8464 -0.9043  0.2749
 1224SOL    HW3 4941   0.127   3.546   2.268 -0.7298 -0.2780 -1.4515
 1224SOL    MW4 4942   0.198   3.595   2.252 -0.5843  0.0799  0.2050
 1225SOL     OW 4943   0.243   3.859   2.334 -0.0319 -0.1782  0.6239
 1225SOL    HW2 4944   0.168   3.907   2.298 -0.3785  0.2499  1.8857
 1225SOL    HW3 4945   0.235   3.771   2.297 -0.2766  0.2940 -0.4692
 1225SOL    MW4 4946   0.232   3.853   2.325 -0.1099 -0.0594  0.6461
 1226SOL     OW 4947   0.033   4.009   2.236 -0.1754  0.0833 -0.3480
 1226SOL    HW2 4948   0.017   4.094   2.277 -2.5053 -0.2262 -0.5342
 1226SOL    HW3 4949   0.026   4.025   2.142  0.2745 -0.1323 -0.4179
 1226SOL    MW4 4950   0.030   4.022   2.229 -0.4234  0.0148 -0.3817
 1227SOL     OW 4951   4.464   4.261   2.328  0.0916 -0.2305 -0.1954
 1227SOL    HW2 4952   4.477   4.270   2.422 -0.9108 -0.5170 -0.0264
 1227SOL    HW3 4953   4.540   4.305   2.289  0.3063  0.2350  0.7359
 1227SOL    MW4 4954   4.476   4.268   2.335 -0.0129 -0.2065 -0.0503
 1228SOL     OW 4955   0.183   4.414   2.232 -0.1733  0.3480  0.2542
 1228SOL    HW2 4956   0.261   4.372   2.269 -0.1024 -0.6228 -0.9441
 1228SOL    HW3 4957   0.188   4.505   2.261  0.9855  0.1034  0.8513
 1228SOL    MW4 4958   0.194   4.420   2.240 -0.0110  0.1879  0.1745
 1229SOL     OW 4959   0.676   4.623   2.356 -0.4765 -0.3396  0.1077
 1229SOL    HW2 4960   0.691   4.622   2.451  0.4598  0.7787 -0.0115
 1229SOL    HW3 4961   0.756   4.662   2.320 -0.3155 -1.8876 -1.2390
 1229SOL    MW4 4962   0.689   4.628   2.364 -0.3318 -0.3963 -0.0856
 1230SOL     OW 4963   0.466   0.110   2.274 -0.2206 -0.0857 -0.0871
 1230SOL    HW2 4964   0.534   0.053   2.310 -0.0710  1.1764  1.6672
 1230SOL    HW3 4965   0.478   0.104   2.179  2.0298 -0.2658  0.1806
 1230SOL    MW4 4966   0.477   0.102   2.266  0.0960  0.0571  0.1798
 1231SOL     OW 4967   0.430   0.372   2.366 -0.2004  0.1372  0.4045
 1231SOL    HW2 4968   0.448   0.371   2.460 -0.6083  0.8458  0.4934
 1231SOL    HW3 4969   0.449   0.283   2.338 -0.1420 -0.1033  1.1729
 1231SOL    MW4 4970   0.435   0.360   2.375 -0.2465  0.1990  0.5176
 1232SOL     OW 4971   0.657   0.479   2.253 -0.1885 -0.2372 -0.2645
 1232SOL    HW2 4972   0.654   0.573   2.270 -0.2471 -0.5035  1.2321
 1232SOL    HW3 4973   0.574   0.445   2.288  0.2466 -0.9899  0.0377
 1232SOL    MW4 4974   0.645   0.486   2.260 -0.1388 -0.3716 -0.0272
 1233SOL     OW 4975   0.658   0.746   2.314  0.5195  0.8108  0.2725
 1233SOL    HW2 4976   0.649   0.748   2.410 -0.7081 -2.3123  0.2748
 1233SOL    HW3 4977   0.577   0.785   2.281 -0.6621 -1.3544  0.5201
 1233SOL    MW4 4978   0.646   0.751   2.323  0.2016  0.1131  0.3054
 1234SOL     OW 4979   0.426   0.853   2.223  0.2209  0.0496 -0.0988
 1234SOL    HW2 4980   0.340   0.827   2.256 -0.3434  1.3775 -0.5047
 1234SOL    HW3 4981   0.414   0.858   2.128  1.1149 -1.0862 -0.2846
 1234SOL    MW4 4982   0.413   0.850   2.214  0.2644  0.0750 -0.1769
 1235SOL     OW 4983   0.429   1.101   2.342 -0.0377 -0.4678  0.1445
 1235SOL    HW2 4984   0.451   1.015   2.306 -2.2859 -1.0929  0.1918
 1235SOL    HW3 4985   0.345   1.124   2.301 -0.3825  0.8635  1.5315
 1235SOL    MW4 4986   0.421   1.093   2.332 -0.3798 -0.3747  0.3335
 1236SOL     OW 4987   0.619   1.258   2.247 -0.0164  0.1326 -0.4965
 1236SOL    HW2 4988   0.620   1.338   2.300  1.9838 -0.6698  0.7359
 1236SOL    HW3 4989   0.550   1.205   2.286 -0.2926  0.6081 -0.3303
 1236SOL    MW4 4990   0.610   1.262   2.259  0.2112  0.0894 -0.3121
 1237SOL     OW 4991   0.662   1.525   2.354  1.0001 -0.1975  0.2936
 1237SOL    HW2 4992   0.689   1.539   2.445  0.1560  2.8214  0.1185
 1237SOL    HW3 4993   0.730   1.569   2.302 -0.0821  0.6392 -0.4197
 1237SOL    MW4 4994   0.675   1.532   2.359  0.7460  0.3111  0.1762
 1238SOL     OW 4995   0.458   1.661   2.232  0.0153 -0.2058  0.0305
 1238SOL    HW2 4996   0.533   1.618   2.272  0.5247 -1.4049 -2.1544
 1238SOL    HW3 4997   0.383   1.609   2.261  0.1505  0.2026  1.1359
 1238SOL    MW4 4998   0.458   1.648   2.241  0.1004 -0.3102 -0.1121
 1239SOL     OW 4999   0.465   1.929   2.323  0.4714 -0.7140 -0.0270
 1239SOL    HW2 5000   0.526   1.970   2.262  0.1797 -0.7656 -0.3560
 1239SOL    HW3 5001   0.451   1.841   2.288  1.0835 -1.0912  0.6698
 1239SOL    MW4 5002   0.471   1.923   2.310  0.5137 -0.7704  0.0217
 1240SOL     OW 5003   0.652   2.046   2.160  0.3610  0.3176  0.0096
 1240SOL    HW2 5004   0.726   2.018   2.214 -0.6917 -0.6211  0.9760
 1240SOL    HW3 5005   0.634   2.136   2.190 -0.5377 -0.3711  1.5944
 1240SOL    MW4 5006   0.660   2.054   2.171  0.1036  0.1028  0.3459
 1241SOL     OW 5007   0.657   2.303   2.305  0.0169  0.0297 -0.4706
 1241SOL    HW2 5008   0.668   2.297   2.400  1.6286 -1.5357 -0.7327
 1241SOL    HW3 5009   0.743   2.331   2.273 -0.1726 -0.6402 -1.5771
 1241SOL    MW4 5010   0.670   2.306   2.314  0.2045 -0.2654 -0.6511
 1242SOL     OW 5011   0.446   2.472   2.231 -0.3876 -0.0130  0.2517
 1242SOL    HW2 5012   0.524   2.421   2.251 -0.3329  0.6641  1.8293
 1242SOL    HW3 5013   0.375   2.423   2.272 -0.4710  0.6302  0.8790
 1242SOL    MW4 5014   0.447   2.458   2.239 -0.3914  0.1614  0.5426
 1243SOL     OW 5015   0.458   2.720   2.344 -0.1032 -0.2547 -0.2260
 1243SOL    HW2 5016   0.429   2.703   2.433  1.9441 -0.3303  0.4500
 1243SOL    HW3 5017   0.447   2.637   2.298 -2.8535  0.2509 -0.5525
 1243SOL    MW4 5018   0.453   2.707   2.349 -0.1960 -0.1979 -0.1802
 1244SOL     OW 5019   0.678   2.838   2.229 -0.1561 -0.3985 -0.5459
 1244SOL    HW2 5020   0.754   2.788   2.257 -0.7562 -0.1698  1.5814
 1244SOL    HW3 5021   0.603   2.789   2.264 -0.9526 -0.0873 -1.7685
 1244SOL    MW4 5022   0.678   2.825   2.237 -0.3403 -0.3273 -0.4265
 1245SOL     OW 5023   0.666   3.093   2.356 -0.5378 -0.3788  0.2191
 1245SOL    HW2 5024   0.581   3.127   2.329 -1.0167 -1.7952 -0.1309
 1245SOL    HW3 5025   0.661   2.999   2.336  0.1038 -0.9773  2.6847
 1245SOL    MW4 5026   0.654   3.085   2.350 -0.5163 -0.6447  0.4983
 1246SOL     OW 5027   0.416   3.215   2.266  0.1729  0.1830 -0.0688
 1246SOL    HW2 5028   0.343   3.163   2.298  1.0181 -0.5818  0.6384
 1246SOL    HW3 5029   0.429   3.185   2.176  1.6515 -2.0074  0.8100
 1246SOL    MW4 5030   0.408   3.204   2.258  0.4795 -0.2072  0.1402
 1247SOL     OW 5031   0.419   3.468   2.378  0.3492 -0.6437  0.1422
 1247SOL    HW2 5032   0.499   3.502   2.338 -0.2828  0.6683 -0.0288
 1247SOL    HW3 5033   0.402   3.386   2.331  1.6543 -1.0009  0.2713
 1247SOL    MW4 5034   0.428   3.462   2.366  0.4380 -0.5176  0.1369
 1248SOL     OW 5035   0.644   3.560   2.231  0.5188  0.2076 -0.2129
 1248SOL    HW2 5036   0.643   3.649   2.266 -0.5330  0.5370 -1.0324
 1248SOL    HW3 5037   0.651   3.572   2.136  0.5674 -0.5894 -0.3133
 1248SOL    MW4 5038   0.645   3.573   2.223  0.3865  0.1459 -0.3343
 1249SOL     OW 5039   0.655   3.829   2.317 -0.2945 -0.0235  0.3775
 1249SOL    HW2 5040   0.666   3.839   2.411 -0.5129 -1.2026  0.5425
 1249SOL    HW3 5041   0.574   3.875   2.297  0.2239  1.0005  0.6140
 1249SOL    MW4 5042   0.646   3.836   2.327 -0.2549 -0.0439  0.4306
 1250SOL     OW 5043   0.451   3.993   2.228 -0.4103  0.3607 -0.1894
 1250SOL    HW2 5044   0.373   3.960   2.273 -0.3456  0.8762  0.2951
 1250SOL    HW3 5045   0.429   3.985   2.135 -0.6048 -0.5517 -0.0729
 1250SOL    MW4 5046   0.438   3.987   2.222 -0.4274  0.3083 -0.1101
 1251SOL     OW 5047   0.451   4.261   2.336  0.0444  0.0611  0.1077
 1251SOL    HW2 5048   0.535   4.300   2.312  0.2002 -0.1178  0.3521
 1251SOL    HW3 5049   0.458   4.169   2.308  0.1619 -0.1051  0.6725
 1251SOL    MW4 5050   0.463   4.254   2.329  0.0805  0.0157  0.2146
 1252SOL     OW 5051   0.684   4.367   2.271 -0.4326  0.5408  0.6516
 1252SOL    HW2 5052   0.664   4.455   2.304 -0.7082  1.0243 -0.7646
 1252SOL    HW3 5053   0.675   4.375   2.176  0.9213 -0.6732  0.4050
 1252SOL    MW4 5054   0.680   4.380   2.263 -0.2903  0.4444  0.4320
 1253SOL     OW 5055   1.117   4.664   2.342  0.3627  0.6676  1.0244
 1253SOL    HW2 5056   1.087   4.660   2.433  0.2418  0.6630  0.9847
 1253SOL    HW3 5057   1.049   4.713   2.297  0.5944  0.9691  1.0043
 1253SOL    MW4 5058   1.104   4.670   2.348  0.3773  0.7067  1.0166
 1254SOL     OW 5059   0.884   0.128   2.248 -0.0934  0.2217  0.2031
 1254SOL    HW2 5060   0.880   0.215   2.288 -0.1531  0.3565 -0.0960
 1254SOL    HW3 5061   0.847   0.140   2.160  0.3399 -0.0093 -0.0125
 1254SOL    MW4 5062   0.878   0.141   2.242 -0.0442  0.2090  0.1354
 1255SOL     OW 5063   0.886   0.387   2.373  0.5330  0.0046 -0.7025
 1255SOL    HW2 5064   0.961   0.416   2.322 -0.1253  1.4323 -0.8792
 1255SOL    HW3 5065   0.810   0.423   2.327 -0.2563 -1.3834 -0.4964
 1255SOL    MW4 5066   0.885   0.396   2.360  0.3420  0.0099 -0.6988
 1256SOL     OW 5067   1.086   0.478   2.215  0.0797  0.2882  0.6898
 1256SOL    HW2 5068   1.169   0.440   2.247  0.1148  0.6371  1.0225
 1256SOL    HW3 5069   1.092   0.473   2.120  0.5177  0.3773  0.7114
 1256SOL    MW4 5070   1.098   0.472   2.207  0.1421  0.3460  0.7365
 1257SOL     OW 5071   1.123   0.746   2.323  0.1167 -0.0670 -0.5801
 1257SOL    HW2 5072   1.036   0.780   2.302 -0.0505 -1.1717 -1.6962
 1257SOL    HW3 5073   1.118   0.652   2.304  1.4797 -0.1830 -0.4257
 1257SOL    MW4 5074   1.111   0.738   2.318  0.2745 -0.2281 -0.7069
 1258SOL     OW 5075   0.890   0.874   2.222  0.1150  0.5430  0.5123
 1258SOL    HW2 5076   0.884   0.964   2.254  0.4417  0.1670  1.6464
 1258SOL    HW3 5077   0.809   0.832   2.253 -0.6961  0.7875 -1.1693
 1258SOL    MW4 5078   0.878   0.880   2.230  0.0511  0.5255  0.4401
 1259SOL     OW 5079   0.880   1.160   2.289 -0.1104 -0.0528 -0.0031
 1259SOL    HW2 5080   0.952   1.207   2.246  0.0893  0.4111  0.8257
 1259SOL    HW3 5081   0.803   1.213   2.272  0.2897  1.1526  1.8190
 1259SOL    MW4 5082   0.879   1.173   2.281 -0.0312  0.1675  0.3464
 1260SOL     OW 5083   1.098   1.310   2.229 -0.0601 -0.2354  0.2900
 1260SOL    HW2 5084   1.175   1.264   2.263 -0.1694 -0.9078 -0.3618
 1260SOL    HW3 5085   1.109   1.307   2.134 -0.5077  0.3275  0.2200
 1260SOL    MW4 5086   1.110   1.303   2.221 -0.1336 -0.2499  0.1948
 1261SOL     OW 5087   1.105   1.575   2.298 -0.1500  0.6670 -0.5088
 1261SOL    HW2 5088   1.029   1.614   2.254 -0.5433  1.2523  0.6682
 1261SOL    HW3 5089   1.109   1.486   2.264 -3.1527 -0.3514  1.5872
 1261SOL    MW4 5090   1.095   1.568   2.287 -0.5980  0.6099 -0.0770
 1262SOL     OW 5091   0.846   1.673   2.199  0.5411 -0.6418 -0.2342
 1262SOL    HW2 5092   0.838   1.762   2.235 -2.6379 -0.6645 -0.7979
 1262SOL    HW3 5093   0.860   1.687   2.106  0.8060 -0.7257 -0.2068
 1262SOL    MW4 5094   0.847   1.687   2.192  0.1566 -0.6558 -0.3049
 1263SOL     OW 5095   0.851   1.935   2.323 -0.4578 -0.2228 -0.0946
 1263SOL    HW2 5096   0.870   1.919   2.415 -1.2961  0.6207  0.2231
 1263SOL    HW3 5097   0.933   1.971   2.288  0.7817 -3.1227 -0.3414
 1263SOL    MW4 5098   0.864   1.938   2.330 -0.4048 -0.4940 -0.0854
 1264SOL     OW 5099   1.095   2.051   2.238  0.2979 -0.0844  0.2218
 1264SOL    HW2 5100   1.178   2.012   2.265 -0.1097 -1.4361 -0.4583
 1264SOL    HW3 5101   1.097   2.046   2.142  0.2558  1.6169  0.1029
 1264SOL    MW4 5102   1.106   2.045   2.229  0.2385 -0.0384  0.1166
 1265SOL     OW 5103   1.121   2.305   2.338 -0.5625  0.3129  0.1947
 1265SOL    HW2 5104   1.184   2.362   2.295 -0.5252  0.7056  0.7668
 1265SOL    HW3 5105   1.123   2.224   2.287 -0.3999  0.7145 -0.4402
 1265SOL    MW4 5106   1.130   2.302   2.325 -0.5361  0.4175  0.1867
 1266SOL     OW 5107   0.895   2.415   2.230 -0.1048  0.0686  0.0036
 1266SOL    HW2 5108   0.963   2.359   2.266 -1.8605 -1.7953  0.5447
 1266SOL    HW3 5109   0.915   2.422   2.137 -0.7898 -2.9283 -0.4162
 1266SOL    MW4 5110   0.906   2.408   2.223 -0.4269 -0.5729  0.0198
 1267SOL     OW 5111   0.878   2.680   2.323  0.2177  0.5004  0.5023
 1267SOL    HW2 5112   0.868   2.678   2.418  1.2348 -0.6095  0.5928
 1267SOL    HW3 5113   0.888   2.588   2.297  0.2902  0.8156 -0.6385
 1267SOL    MW4 5114   0.878   2.668   2.332  0.3614  0.3958  0.3636
 1268SOL     OW 5115   1.115   2.840   2.226  0.1349  0.1971  0.0106
 1268SOL    HW2 5116   1.185   2.786   2.262  0.3057  0.2607 -0.2267
 1268SOL    HW3 5117   1.035   2.793   2.249  0.1518  0.9882  1.7719
 1268SOL    MW4 5118   1.114   2.826   2.234  0.1597  0.3102  0.2117
 1269SOL     OW 5119   1.101   3.098   2.339 -0.4767 -0.2680 -0.3327
 1269SOL    HW2 5120   1.022   3.140   2.304 -0.6662 -0.1115  0.2774
 1269SOL    HW3 5121   1.101   3.011   2.300 -0.4903  0.0368 -1.0136
 1269SOL    MW4 5122   1.091   3.092   2.329 -0.5035 -0.2072 -0.3421
 1270SOL     OW 5123   0.879   3.224   2.229 -0.4170 -0.4830  0.0600
 1270SOL    HW2 5124   0.886   3.309   2.273 -0.6623  0.2483 -1.2918
 1270SOL    HW3 5125   0.793   3.191   2.255 -1.4428  0.8821 -1.4654
 1270SOL    MW4 5126   0.869   3.231   2.239 -0.5847 -0.2065 -0.3197
 1271SOL     OW 5127   0.916   3.498   2.315 -0.5839  0.4365 -0.0634
 1271SOL    HW2 5128   0.918   3.489   2.410  0.2980  0.6774 -0.0549
 1271SOL    HW3 5129   0.823   3.512   2.294 -0.5579  2.3967  0.9603
 1271SOL    MW4 5130   0.904   3.499   2.325 -0.4641  0.7269  0.0727
 1272SOL     OW 5131   1.141   3.618   2.217  0.5293 -0.0784  0.0002
 1272SOL    HW2 5132   1.210   3.567   2.262  0.6179 -0.5974 -0.7091
 1272SOL    HW3 5133   1.060   3.587   2.256  0.4455 -2.1463 -1.7251
 1272SOL    MW4 5134   1.140   3.607   2.228  0.5299 -0.4196 -0.3211
 1273SOL     OW 5135   1.106   3.891   2.277 -0.4352 -0.3133  0.4082
 1273SOL    HW2 5136   1.190   3.935   2.264 -0.7809  0.0889 -0.5300
 1273SOL    HW3 5137   1.122   3.800   2.252 -0.1461 -0.3504  0.7284
 1273SOL    MW4 5138   1.119   3.885   2.272 -0.4427 -0.2654  0.3269
 1274SOL     OW 5139   0.864   4.007   2.233 -0.4576 -0.1517  0.6297
 1274SOL    HW2 5140   0.942   3.952   2.241  0.2762  0.7091 -0.4611
 1274SOL    HW3 5141   0.794   3.954   2.271  0.2582 -1.7966 -0.2620
 1274SOL    MW4 5142   0.865   3.993   2.239 -0.2663 -0.2551  0.3681
 1275SOL     OW 5143   0.908   4.248   2.366 -0.1335  0.5303 -0.3054
 1275SOL    HW2 5144   0.908   4.164   2.320 -0.8172  0.7337 -0.6877
 1275SOL    HW3 5145   0.831   4.294   2.331 -0.3663  0.8879  0.6751
 1275SOL    MW4 5146   0.898   4.243   2.355 -0.2545  0.6042 -0.2265
 1276SOL     OW 5147   1.112   4.418   2.232 -0.3505 -0.0114 -0.4481
 1276SOL    HW2 5148   1.042   4.355   2.251  1.0518 -1.4098  0.1791
 1276SOL    HW3 5149   1.097   4.490   2.293 -0.6075 -0.8139  0.4430
 1276SOL    MW4 5150   1.101   4.419   2.243 -0.1993 -0.3018 -0.2477
 1277SOL     OW 5151   1.590   0.011   2.363 -0.2460 -0.6454 -0.0543
 1277SOL    HW2 5152   1.670   0.040   2.319  0.2012  0.0897  1.2138
 1277SOL    HW3 5153   1.519   0.050   2.313  0.2811  0.7013  0.2255
 1277SOL    MW4 5154   1.591   0.020   2.351 -0.1174 -0.3707  0.1497
 1278SOL     OW 5155   1.353   0.099   2.241 -0.0819 -0.0455 -0.1317
 1278SOL    HW2 5156   1.337   0.188   2.274 -0.9506  0.2673 -1.3532
 1278SOL    HW3 5157   1.280   0.048   2.275  0.5139 -0.3331  0.7182
 1278SOL    MW4 5158   1.341   0.104   2.250 -0.1179 -0.0422 -0.1805
 1279SOL     OW 5159   1.332   0.374   2.312 -0.5119 -0.2180 -0.4605
 1279SOL    HW2 5160   1.324   0.361   2.407 -0.8834  1.1890 -0.2872
 1279SOL    HW3 5161   1.424   0.393   2.298 -0.6717  0.7426 -0.2258
 1279SOL    MW4 5162   1.343   0.374   2.323 -0.5819  0.0944 -0.4067
 1280SOL     OW 5163   1.601   0.475   2.251 -0.5594  0.2340  0.4708
 1280SOL    HW2 5164   1.674   0.426   2.289 -1.5112 -0.9717  0.7875
 1280SOL    HW3 5165   1.617   0.473   2.157  0.3466  0.8637  0.6022
 1280SOL    MW4 5166   1.613   0.468   2.244 -0.5654  0.1580  0.5298
 1281SOL     OW 5167   1.559   0.739   2.308  0.3416 -0.5687  0.6764
 1281SOL    HW2 5168   1.640   0.778   2.275 -1.1552  0.2263 -2.2416
 1281SOL    HW3 5169   1.568   0.645   2.292  0.4208 -0.3995 -0.3042
 1281SOL    MW4 5170   1.571   0.732   2.302  0.1546 -0.4416  0.1619
 1282SOL     OW 5171   1.335   0.900   2.264 -0.2846  0.3810  0.0006
 1282SOL    HW2 5172   1.412   0.848   2.286 -0.4552 -0.2932 -0.9870
 1282SOL    HW3 5173   1.261   0.848   2.296 -0.3143  1.3044  1.4918
 1282SOL    MW4 5174   1.335   0.887   2.271 -0.3110  0.4138  0.0670
 1283SOL     OW 5175   1.345   1.177   2.305  0.0100 -0.5985  0.3734
 1283SOL    HW2 5176   1.351   1.174   2.401  1.2165 -0.8311  0.2987
 1283SOL    HW3 5177   1.355   1.086   2.277 -0.2155 -0.5155  0.0265
 1283SOL    MW4 5178   1.347   1.165   2.314  0.1396 -0.6183  0.3178
 1284SOL     OW 5179   1.588   1.279   2.252 -0.1872  0.2201 -0.0117
 1284SOL    HW2 5180   1.510   1.236   2.286  0.3444 -1.7237 -1.1762
 1284SOL    HW3 5181   1.576   1.280   2.157  0.8482  0.5980 -0.1522
 1284SOL    MW4 5182   1.576   1.273   2.244  0.0196  0.0136 -0.1838
 1285SOL     OW 5183   1.556   1.567   2.329 -0.2804 -0.2658  0.0911
 1285SOL    HW2 5184   1.631   1.612   2.291 -0.0471 -1.0958 -0.4327
 1285SOL    HW3 5185   1.571   1.475   2.311 -1.3021 -0.4620  0.1964
 1285SOL    MW4 5186   1.568   1.561   2.321 -0.3844 -0.4013  0.0360
 1286SOL     OW 5187   1.334   1.724   2.226  0.0125  0.1395 -0.1926
 1286SOL    HW2 5188   1.403   1.669   2.263  0.2938  0.1874 -0.6430
 1286SOL    HW3 5189   1.253   1.679   2.250  0.1870  0.1812  0.5029
 1286SOL    MW4 5190   1.333   1.711   2.234  0.0728  0.1513 -0.1602
 1287SOL     OW 5191   1.324   1.960   2.355 -0.2091 -0.1668  0.3159
 1287SOL    HW2 5192   1.405   1.999   2.321 -0.2591  0.2559  0.6794
 1287SOL    HW3 5193   1.319   1.874   2.312 -0.5400  0.5591 -1.1337
 1287SOL    MW4 5194   1.334   1.954   2.345 -0.2593 -0.0153  0.1726
 1288SOL     OW 5195   1.566   2.053   2.247 -0.0762  0.2187 -0.0561
 1288SOL    HW2 5196   1.646   2.006   2.273  0.5351  1.3412  0.1395
 1288SOL    HW3 5197   1.565   2.046   2.151 -0.1659 -0.4715 -0.0056
 1288SOL    MW4 5198   1.577   2.046   2.237 -0.0073  0.2759 -0.0236
 1289SOL     OW 5199   1.551   2.312   2.325 -0.2847 -0.4665  0.4803
 1289SOL    HW2 5200   1.571   2.314   2.418 -0.4885 -0.6911  0.5307
 1289SOL    HW3 5201   1.565   2.220   2.300 -0.4940 -0.4622  0.3492
 1289SOL    MW4 5202   1.555   2.300   2.334 -0.3393 -0.4957  0.4694
 1290SOL     OW 5203   1.328   2.437   2.216 -0.3443 -0.0627 -0.0707
 1290SOL    HW2 5204   1.397   2.378   2.244 -0.2014 -0.0816 -0.4636
 1290SOL    HW3 5205   1.329   2.433   2.120  0.1841  1.1696 -0.1240
 1290SOL    MW4 5206   1.337   2.429   2.207 -0.2556  0.0970 -0.1295
 1291SOL     OW 5207   1.322   2.672   2.337  0.6913  0.0297  0.1692
 1291SOL    HW2 5208   1.403   2.716   2.312  0.5650 -0.6531 -1.5207
 1291SOL    HW3 5209   1.326   2.587   2.293 -0.5028 -0.3763  0.8237
 1291SOL    MW4 5210   1.333   2.667   2.328  0.5170 -0.1140  0.0329
 1292SOL     OW 5211   1.534   2.831   2.221 -0.4593 -0.1297  0.4405
 1292SOL    HW2 5212   1.540   2.921   2.254  0.9821 -0.6018  1.4874
 1292SOL    HW3 5213   1.559   2.837   2.129 -2.1448  0.8138  0.0182
 1292SOL    MW4 5214   1.538   2.844   2.213 -0.4916 -0.0675  0.5229
 1293SOL     OW 5215   1.570   3.104   2.329 -0.2925  0.0139 -0.4132
 1293SOL    HW2 5216   1.572   3.101   2.425  0.6969 -0.2075 -0.4368
 1293SOL    HW3 5217   1.492   3.156   2.309 -0.6185 -0.0980  0.5050
 1293SOL    MW4 5218   1.560   3.111   2.339 -0.2049 -0.0298 -0.2954
 1294SOL     OW 5219   1.345   3.213   2.244  0.4797 -0.3036 -0.1755
 1294SOL    HW2 5220   1.261   3.175   2.271  0.8556 -0.8729  0.1969
 1294SOL    HW3 5221   1.334   3.232   2.151  0.4558 -1.7719 -0.4827
 1294SOL    MW4 5222   1.332   3.210   2.236  0.5262 -0.5722 -0.1671
 1295SOL     OW 5223   1.345   3.480   2.339  0.0125 -0.4572  0.2289
 1295SOL    HW2 5224   1.346   3.489   2.434 -1.1711  0.8785  0.1286
 1295SOL    HW3 5225   1.346   3.386   2.323 -1.2580 -0.7072  1.5932
 1295SOL    MW4 5226   1.345   3.469   2.349 -0.3111 -0.3142  0.3958
 1296SOL     OW 5227   1.569   3.614   2.253  0.1487  0.3937 -0.5280
 1296SOL    HW2 5228   1.568   3.705   2.283  0.1888  0.5641 -1.0372
 1296SOL    HW3 5229   1.490   3.575   2.290  1.2887  0.0142  1.6009
 1296SOL    MW4 5230   1.559   3.621   2.262  0.3045  0.3657 -0.3142
 1297SOL     OW 5231   1.554   3.876   2.346 -0.2972 -0.2111 -0.5554
 1297SOL    HW2 5232   1.549   3.860   2.441 -0.3648  1.0732 -0.3349
 1297SOL    HW3 5233   1.637   3.922   2.333  0.0696 -1.0451 -1.2297
 1297SOL    MW4 5234   1.564   3.880   2.357 -0.2577 -0.1521 -0.6151
 1298SOL     OW 5235   1.330   4.024   2.232  0.0103 -0.1620 -0.0673
 1298SOL    HW2 5236   1.406   3.975   2.262  0.9880  1.4624  0.2061
 1298SOL    HW3 5237   1.345   4.035   2.138 -0.8025 -1.3899 -0.3497
 1298SOL    MW4 5238   1.342   4.019   2.223  0.0321 -0.1097 -0.0684
 1299SOL     OW 5239   1.345   4.287   2.327  0.1520  0.1226  0.3106
 1299SOL    HW2 5240   1.340   4.203   2.280  0.9345 -0.1119  0.6291
 1299SOL    HW3 5241   1.257   4.323   2.321 -0.1388 -0.6245 -0.0199
 1299SOL    MW4 5242   1.333   4.281   2.320  0.2167 -0.0067  0.3090
 1300SOL     OW 5243   1.600   4.426   2.258  0.1241 -0.1233 -0.7203
 1300SOL    HW2 5244   1.513   4.390   2.277  0.1378 -0.0593 -0.5409
 1300SOL    HW3 5245   1.594   4.518   2.285 -0.1002  0.1672 -1.7260
 1300SOL    MW4 5246   1.587   4.434   2.264  0.0963 -0.0763 -0.8290
 1301SOL     OW 5247   2.029   4.647   2.348  0.4207 -0.1848 -0.4264
 1301SOL    HW2 5248   2.119   4.669   2.324  0.2417  0.7333 -0.2801
 1301SOL    HW3 5249   2.027   4.551   2.348  1.1387 -0.2028 -1.3771
 1301SOL    MW4 5250   2.041   4.637   2.345  0.4916 -0.0663 -0.5326
 1302SOL     OW 5251   1.820   0.094   2.202  0.0046  0.6160 -0.5083
 1302SOL    HW2 5252   1.819   0.173   2.255 -1.7836 -0.0338  0.4645
 1302SOL    HW3 5253   1.895   0.044   2.235  0.7435  1.6066 -0.6854
 1302SOL    MW4 5254   1.830   0.098   2.213 -0.1339  0.6610 -0.4034
 1303SOL     OW 5255   1.805   0.327   2.364  0.2801  0.2987  0.1539
 1303SOL    HW2 5256   1.804   0.328   2.460 -0.4790  0.2597  0.1481
 1303SOL    HW3 5257   1.888   0.370   2.341  0.3554  0.5234  0.8214
 1303SOL    MW4 5258   1.816   0.333   2.374  0.1898  0.3232  0.2410
 1304SOL     OW 5259   2.036   0.472   2.281 -0.2330 -0.5197 -0.7389
 1304SOL    HW2 5260   2.016   0.562   2.305  0.3167 -0.7486  0.6319
 1304SOL    HW3 5261   2.066   0.477   2.191 -0.8721  0.5770 -0.8934
 1304SOL    MW4 5262   2.037   0.484   2.273 -0.2449 -0.4052 -0.5784
 1305SOL     OW 5263   2.022   0.733   2.352 -0.1211 -0.1854 -0.1651
 1305SOL    HW2 5264   2.096   0.776   2.308 -0.6873 -1.1336 -2.1040
 1305SOL    HW3 5265   1.945   0.777   2.315 -0.5798 -0.4622  0.4696
 1305SOL    MW4 5266   2.021   0.745   2.341 -0.2565 -0.3470 -0.3374
 1306SOL     OW 5267   1.795   0.881   2.222 -0.5350 -0.5616 -0.4785
 1306SOL    HW2 5268   1.819   0.970   2.248  0.8699 -1.2480  0.6013
 1306SOL    HW3 5269   1.796   0.882   2.126 -0.9289  0.6768 -0.4786
 1306SOL    MW4 5270   1.798   0.893   2.213 -0.4016 -0.4888 -0.3362
 1307SOL     OW 5271   1.798   1.161   2.361 -0.0902 -0.0188  0.2797
 1307SOL    HW2 5272   1.877   1.197   2.320 -0.1725 -0.5415 -0.3557
 1307SOL    HW3 5273   1.726   1.196   2.310 -0.2344 -0.0421  0.4670
 1307SOL    MW4 5274   1.799   1.170   2.349 -0.1200 -0.0910  0.2208
 1308SOL     OW 5275   2.028   1.280   2.259  0.3343  0.3665  0.5516
 1308SOL    HW2 5276   2.041   1.373   2.278  1.5945  0.6700 -1.7224
 1308SOL    HW3 5277   2.023   1.275   2.164 -0.6781 -1.7857  0.6904
 1308SOL    MW4 5278   2.029   1.292   2.249  0.3674  0.1227  0.2699
 1309SOL     OW 5279   2.036   1.540   2.330 -0.0676 -0.4975  0.2416
 1309SOL    HW2 5280   2.034   1.541   2.426  0.4603  3.0120  0.2724
 1309SOL    HW3 5281   1.956   1.586   2.304 -0.6619 -2.2111 -1.0547
 1309SOL    MW4 5282   2.025   1.546   2.340 -0.0763 -0.2607  0.0749
 1310SOL     OW 5283   1.783   1.669   2.231 -0.2178 -0.4131  0.5151
 1310SOL    HW2 5284   1.789   1.762   2.251 -1.4516 -0.3412  0.6113
 1310SOL    HW3 5285   1.809   1.662   2.139 -0.3246  0.0586  0.4497
 1310SOL    MW4 5286   1.787   1.680   2.221 -0.3946 -0.3414  0.5190
 1311SOL     OW 5287   1.809   1.929   2.300  0.0079 -0.1259 -0.0959
 1311SOL    HW2 5288   1.809   1.918   2.395 -0.0892  1.6287  0.1286
 1311SOL    HW3 5289   1.893   1.970   2.280 -0.7477  1.2449 -0.5304
 1311SOL    MW4 5290   1.820   1.933   2.310 -0.1045  0.2865 -0.1240
 1312SOL     OW 5291   2.039   2.047   2.219 -0.1705  0.0781 -0.0478
 1312SOL    HW2 5292   2.118   2.012   2.260 -0.6228 -2.1190 -0.9944
 1312SOL    HW3 5293   2.055   2.038   2.125 -1.8752 -1.2329 -0.2467
 1312SOL    MW4 5294   2.051   2.041   2.212 -0.4549 -0.3850 -0.1986
 1313SOL     OW 5295   2.041   2.317   2.325 -0.1262 -0.2442 -0.3761
 1313SOL    HW2 5296   2.114   2.359   2.279 -1.0042  0.9979 -0.6442
 1313SOL    HW3 5297   2.034   2.231   2.282  2.0614 -0.9587  0.5954
 1313SOL    MW4 5298   2.050   2.311   2.313  0.0465 -0.1745 -0.2832
 1314SOL     OW 5299   1.798   2.460   2.287  0.2044 -0.1477 -0.0236
 1314SOL    HW2 5300   1.877   2.414   2.315  0.0730  0.4302  1.3235
 1314SOL    HW3 5301   1.726   2.401   2.309  0.1581 -0.0779  0.0120
 1314SOL    MW4 5302   1.799   2.446   2.293  0.1810 -0.0622  0.1590
 1315SOL     OW 5303   1.771   2.728   2.350  0.1954 -0.2703  0.2501
 1315SOL    HW2 5304   1.771   2.637   2.322  0.3922 -0.2438  0.1654
 1315SOL    HW3 5305   1.694   2.766   2.307 -0.5371 -0.6676  1.1820
 1315SOL    MW4 5306   1.760   2.721   2.341  0.1248 -0.3192  0.3619
 1316SOL     OW 5307   1.985   2.859   2.248 -0.0846  0.0240 -0.0762
 1316SOL    HW2 5308   2.066   2.810   2.265  0.5659  1.1388  0.1209
 1316SOL    HW3 5309   1.917   2.808   2.292  0.5147 -0.9186 -0.2176
 1316SOL    MW4 5310   1.987   2.846   2.256  0.0802  0.0465 -0.0687
 1317SOL     OW 5311   1.960   3.104   2.388  0.3977 -0.5059  0.0642
 1317SOL    HW2 5312   2.034   3.149   2.347  0.6815 -1.1159 -0.0992
 1317SOL    HW3 5313   1.956   3.020   2.343 -0.4159 -0.4640  0.0493
 1317SOL    MW4 5314   1.969   3.099   2.376  0.3279 -0.5808  0.0405
 1318SOL     OW 5315   1.780   3.249   2.244  0.0082  0.5322  0.1136
 1318SOL    HW2 5316   1.843   3.200   2.296 -0.0418  0.3231 -0.0175
 1318SOL    HW3 5317   1.696   3.206   2.262  0.1099 -0.0289 -0.7263
 1318SOL    MW4 5318   1.777   3.237   2.253  0.0151  0.4308 -0.0148
 1319SOL     OW 5319   1.806   3.510   2.358  0.1275  0.1714  0.1936
 1319SOL    HW2 5320   1.805   3.417   2.335 -0.2207 -0.0829  1.2175
 1319SOL    HW3 5321   1.726   3.545   2.319 -0.1028 -0.1097  0.4077
 1319SOL    MW4 5322   1.795   3.502   2.349  0.0510  0.1011  0.3572
 1320SOL     OW 5323   2.049   3.607   2.241  0.9404  0.3979  0.3444
 1320SOL    HW2 5324   1.967   3.575   2.278  0.4456  1.0117 -0.1918
 1320SOL    HW3 5325   2.038   3.597   2.146  0.7877  2.0604  0.1614
 1320SOL    MW4 5326   2.037   3.601   2.233  0.8550  0.6981  0.2496
 1321SOL     OW 5327   2.040   3.872   2.327 -0.5810 -0.2921 -0.1205
 1321SOL    HW2 5328   2.038   3.870   2.423  1.9023 -0.4283 -0.0390
 1321SOL    HW3 5329   2.045   3.781   2.301 -1.9094 -0.2860 -0.4155
 1321SOL    MW4 5330   2.040   3.860   2.337 -0.4287 -0.3092 -0.1488
 1322SOL     OW 5331   1.801   3.994   2.259  0.1962 -0.0065 -0.1902
 1322SOL    HW2 5332   1.883   3.950   2.278  1.0809  0.5803 -2.5373
 1322SOL    HW3 5333   1.792   3.989   2.164 -1.6262  1.4520 -0.1227
 1322SOL    MW4 5334   1.810   3.988   2.249  0.0726  0.2635 -0.4907
 1323SOL     OW 5335   1.795   4.253   2.373  0.2378 -0.3497 -0.2764
 1323SOL    HW2 5336   1.790   4.172   2.322  1.5353 -0.3511 -0.4316
 1323SOL    HW3 5337   1.718   4.303   2.347  0.8436 -0.3709 -2.2137
 1323SOL    MW4 5338   1.784   4.249   2.363  0.4890 -0.3529 -0.5524
 1324SOL     OW 5339   2.029   4.374   2.277 -0.5667 -0.5963 -0.5381
 1324SOL    HW2 5340   1.958   4.324   2.318 -0.6550 -0.6360 -0.7345
 1324SOL    HW3 5341   2.000   4.387   2.186 -1.8520  2.3029  0.2362
 1324SOL    MW4 5342   2.016   4.369   2.270 -0.7482 -0.2189 -0.4618
 1325SOL     OW 5343   2.534   0.004   2.369  0.5980 -0.4349  0.2956
 1325SOL    HW2 5344   2.588   0.061   2.314 -1.8500 -0.3322 -2.0954
 1325SOL    HW3 5345   2.551  -0.084   2.335 -0.2120 -0.4727 -0.0225
 1325SOL    MW4 5346   2.544  -0.000   2.357  0.1678 -0.4253 -0.0618
 1326SOL     OW 5347   2.282   0.065   2.255 -0.2758 -0.2218 -0.2000
 1326SOL    HW2 5348   2.276   0.159   2.273 -1.1110 -0.3593  0.2309
 1326SOL    HW3 5349   2.372   0.042   2.280  0.1405  0.5829 -0.9154
 1326SOL    MW4 5350   2.293   0.074   2.261 -0.3309 -0.1338 -0.2379
 1327SOL     OW 5351   2.267   0.322   2.351  0.2698 -0.3640 -0.1115
 1327SOL    HW2 5352   2.342   0.374   2.321  1.3448 -2.1897 -0.6389
 1327SOL    HW3 5353   2.191   0.378   2.332  1.4465  1.3650  0.1046
 1327SOL    MW4 5354   2.267   0.336   2.344  0.5670 -0.3768 -0.1523
 1328SOL     OW 5355   2.467   0.493   2.260  0.3098 -0.1206 -0.3560
 1328SOL    HW2 5356   2.556   0.469   2.286 -0.4314 -3.8715 -0.8721
 1328SOL    HW3 5357   2.467   0.486   2.165 -0.3396  0.5588 -0.4063
 1328SOL    MW4 5358   2.479   0.489   2.251  0.1264 -0.5259 -0.4308
 1329SOL     OW 5359   2.476   0.738   2.372  0.3949 -0.4192  0.2517
 1329SOL    HW2 5360   2.549   0.780   2.326  0.8862 -0.1591  1.2467
 1329SOL    HW3 5361   2.461   0.657   2.324  2.7442 -1.5156  1.2851
 1329SOL    MW4 5362   2.484   0.733   2.359  0.7699 -0.5295  0.5193
 1330SOL     OW 5363   2.240   0.880   2.244 -0.6077 -0.3157 -0.0773
 1330SOL    HW2 5364   2.248   0.973   2.267  1.0119 -0.4928  0.1585
 1330SOL    HW3 5365   2.306   0.836   2.297  0.6612 -1.2191 -2.3264
 1330SOL    MW4 5366   2.250   0.887   2.254 -0.2265 -0.4582 -0.3426
 1331SOL     OW 5367   2.262   1.128   2.344 -0.0099 -0.1373  0.7261
 1331SOL    HW2 5368   2.328   1.182   2.301 -0.5933 -0.2842 -0.3921
 1331SOL    HW3 5369   2.178   1.171   2.324 -0.5916 -2.0956 -1.2532
 1331SOL    MW4 5370   2.259   1.141   2.336 -0.1638 -0.4151  0.3176
 1332SOL     OW 5371   2.463   1.272   2.229  0.3291 -0.1849 -0.2875
 1332SOL    HW2 5372   2.534   1.229   2.276  1.7640  1.8332 -0.5677
 1332SOL    HW3 5373   2.462   1.361   2.262 -0.2215  0.6133 -2.3448
 1332SOL    MW4 5374   2.472   1.278   2.239  0.4456  0.1867 -0.5958
 1333SOL     OW 5375   2.468   1.536   2.325  0.0964  0.0764  0.1586
 1333SOL    HW2 5376   2.468   1.544   2.421  0.6041 -1.7418  0.3358
 1333SOL    HW3 5377   2.548   1.581   2.297  1.0444 -1.1927  0.7791
 1333SOL    MW4 5378   2.479   1.543   2.334  0.2885 -0.3309  0.2642
 1334SOL     OW 5379   2.253   1.671   2.223 -0.8684  0.7296  0.6703
 1334SOL    HW2 5380   2.331   1.627   2.257 -0.1155  0.8173 -0.8876
 1334SOL    HW3 5381   2.179   1.620   2.257  0.0087 -3.3030 -2.9971
 1334SOL    MW4 5382   2.253   1.658   2.232 -0.6535  0.2091 -0.0191
 1335SOL     OW 5383   2.258   1.939   2.346  0.0633 -0.1502  0.0185
 1335SOL    HW2 5384   2.344   1.965   2.313  0.2227 -0.7225 -0.0249
 1335SOL    HW3 5385   2.252   1.846   2.324 -0.4720 -0.1618  0.2284
 1335SOL    MW4 5386   2.269   1.931   2.339  0.0136 -0.2271  0.0405
 1336SOL     OW 5387   2.477   2.055   2.224 -0.3988 -0.4525 -0.1656
 1336SOL    HW2 5388   2.551   1.999   2.248  0.7899  0.7282 -0.9909
 1336SOL    HW3 5389   2.478   2.056   2.128 -1.6764 -0.6700 -0.1859
 1336SOL    MW4 5390   2.487   2.048   2.214 -0.4103 -0.3257 -0.2773
 1337SOL     OW 5391   2.477   2.308   2.324  0.4954  0.2151  0.3716
 1337SOL    HW2 5392   2.561   2.341   2.291  0.2501  0.1845 -0.3125
 1337SOL    HW3 5393   2.472   2.218   2.292 -0.2064  0.5131 -0.4061
 1337SOL    MW4 5394   2.487   2.301   2.315  0.3705  0.2503  0.1783
 1338SOL     OW 5395   2.271   2.448   2.218  0.4496  0.5304  0.4823
 1338SOL    HW2 5396   2.268   2.537   2.254 -0.3828  0.4562  0.6103
 1338SOL    HW3 5397   2.361   2.419   2.233  1.3771  2.1628 -1.5504
 1338SOL    MW4 5398   2.283   2.456   2.225  0.4621  0.7360  0.2308
 1339SOL     OW 5399   2.221   2.698   2.316  0.4776 -0.1081 -0.3059
 1339SOL    HW2 5400   2.246   2.692   2.409  0.8063  0.3070 -0.3640
 1339SOL    HW3 5401   2.297   2.738   2.274  0.8338 -1.4496 -0.9677
 1339SOL    MW4 5402   2.235   2.702   2.323  0.5679 -0.2303 -0.4008
 1340SOL     OW 5403   2.433   2.824   2.197  0.0443 -0.1037  0.0381
 1340SOL    HW2 5404   2.514   2.791   2.236  0.1572  0.0740 -0.0403
 1340SOL    HW3 5405   2.443   2.808   2.103 -1.2208 -2.6212  0.3098
 1340SOL    MW4 5406   2.445   2.818   2.190 -0.1078 -0.4125  0.0634
 1341SOL     OW 5407   2.442   3.075   2.297 -0.1766 -0.1827  0.3682
 1341SOL    HW2 5408   2.517   3.121   2.261 -1.5896  0.2179 -2.2251
 1341SOL    HW3 5409   2.439   2.992   2.249 -3.0119  1.0172 -1.7178
 1341SOL    MW4 5410   2.451   3.070   2.286 -0.7372  0.0284 -0.2491
 1342SOL     OW 5411   2.190   3.202   2.264 -0.1701 -0.0120 -0.0816
 1342SOL    HW2 5412   2.205   3.295   2.283  1.8138 -0.1104 -1.0217
 1342SOL    HW3 5413   2.275   3.161   2.282 -1.2943 -1.8006  1.2373
 1342SOL    MW4 5414   2.203   3.209   2.269 -0.0565 -0.2608 -0.0315
 1343SOL     OW 5415   2.274   3.453   2.325 -0.0140  0.4199  0.6107
 1343SOL    HW2 5416   2.255   3.452   2.418  0.8348  0.2682  0.7812
 1343SOL    HW3 5417   2.202   3.505   2.287 -0.7613 -0.1447  1.2428
 1343SOL    MW4 5418   2.262   3.460   2.332 -0.0005  0.3254  0.7167
 1344SOL     OW 5419   2.500   3.580   2.243  0.5566 -0.5866 -0.3470
 1344SOL    HW2 5420   2.472   3.666   2.275  0.6760 -1.2909  1.7357
 1344SOL    HW3 5421   2.423   3.524   2.257  0.7189 -0.9838 -1.0320
 1344SOL    MW4 5422   2.486   3.584   2.249  0.5937 -0.7317 -0.1624
 1345SOL     OW 5423   2.464   3.851   2.331 -0.3372 -0.6236 -0.3180
 1345SOL    HW2 5424   2.457   3.875   2.423 -1.1514 -0.2405 -0.4783
 1345SOL    HW3 5425   2.390   3.895   2.289  0.0800 -0.7308 -1.1661
 1345SOL    MW4 5426   2.453   3.860   2.338 -0.3893 -0.5870 -0.4511
 1346SOL     OW 5427   2.258   3.986   2.222  0.1359  0.1907  0.6558
 1346SOL    HW2 5428   2.261   4.075   2.258 -0.0374 -0.1277  1.4674
 1346SOL    HW3 5429   2.187   3.943   2.270  0.8151 -0.6656  0.9063
 1346SOL    MW4 5430   2.249   3.992   2.233  0.2027  0.0353  0.7958
 1347SOL     OW 5431   2.291   4.264   2.320  0.1830 -0.5196 -0.1326
 1347SOL    HW2 5432   2.280   4.280   2.414  1.0696  1.1342 -0.2865
 1347SOL    HW3 5433   2.217   4.309   2.280  0.7463  0.2279 -0.3378
 1347SOL    MW4 5434   2.279   4.272   2.327  0.3741 -0.2031 -0.1798
 1348SOL     OW 5435   2.514   4.399   2.251  0.2333  0.0178 -0.0296
 1348SOL    HW2 5436   2.583   4.340   2.282 -0.2964 -0.2377  0.6756
 1348SOL    HW3 5437   2.434   4.348   2.259 -0.1880  0.7268  0.2591
 1348SOL    MW4 5438   2.513   4.385   2.256  0.1080  0.0782  0.1013
 1349SOL     OW 5439   2.918   0.008   2.336  0.2560 -0.0407  0.7431
 1349SOL    HW2 5440   2.992   0.063   2.310 -0.4885  0.8274  0.4355
 1349SOL    HW3 5441   2.939  -0.079   2.302 -0.5263  0.9763 -2.5401
 1349SOL    MW4 5442   2.930   0.004   2.328  0.0548  0.2080  0.2694
 1350SOL     OW 5443   2.722   0.143   2.216  0.0065 -0.2236  0.6421
 1350SOL    HW2 5444   2.731   0.233   2.249  0.4644 -0.6016  1.5619
 1350SOL    HW3 5445   2.796   0.096   2.255  0.0029 -0.9053 -0.1670
 1350SOL    MW4 5446   2.733   0.149   2.226  0.0663 -0.3635  0.6566
 1351SOL     OW 5447   2.716   0.389   2.344 -0.0874 -0.0838  0.1995
 1351SOL    HW2 5448   2.740   0.387   2.436 -0.3555  1.5422  0.3256
 1351SOL    HW3 5449   2.790   0.433   2.301 -1.0118  1.2707 -0.0085
 1351SOL    MW4 5450   2.729   0.394   2.350 -0.2444  0.3094  0.1886
 1352SOL     OW 5451   2.924   0.525   2.221 -0.5853 -0.1767  0.0096
 1352SOL    HW2 5452   2.925   0.606   2.271 -0.2392 -0.5742  0.6654
 1352SOL    HW3 5453   2.928   0.553   2.130  0.2903  0.5288  0.2511
 1352SOL    MW4 5454   2.925   0.539   2.216 -0.4241 -0.1360  0.1280
 1353SOL     OW 5455   2.931   0.749   2.374  0.5502  0.4690 -0.4002
 1353SOL    HW2 5456   2.923   0.754   2.469  0.8053  0.6318 -0.3855
 1353SOL    HW3 5457   2.844   0.769   2.341  0.3483 -0.0571 -0.1878
 1353SOL    MW4 5458   2.919   0.752   2.382  0.5572  0.4210 -0.3705
 1354SOL     OW 5459   2.706   0.852   2.259 -0.4255 -0.0726 -0.3403
 1354SOL    HW2 5460   2.688   0.942   2.287  0.2108  0.0465 -0.3014
 1354SOL    HW3 5461   2.730   0.860   2.167  0.5501 -0.0855 -0.0929
 1354SOL    MW4 5462   2.707   0.865   2.251 -0.2127 -0.0586 -0.3026
 1355SOL     OW 5463   2.661   1.118   2.348 -0.0584  0.0031 -0.1219
 1355SOL    HW2 5464   2.668   1.110   2.443 -1.3142  2.4670  0.2152
 1355SOL    HW3 5465   2.740   1.166   2.322  0.1233 -0.3846 -0.2904
 1355SOL    MW4 5466   2.672   1.123   2.357 -0.2000  0.2770 -0.0997
 1356SOL     OW 5467   2.903   1.255   2.262 -0.0721 -0.4897 -0.2635
 1356SOL    HW2 5468   2.975   1.212   2.307  0.4286  0.1720 -0.4271
 1356SOL    HW3 5469   2.923   1.244   2.169  0.3932  0.6720 -0.2972
 1356SOL    MW4 5470   2.915   1.248   2.255  0.0553 -0.2491 -0.2897
 1357SOL     OW 5471   2.926   1.512   2.363 -0.2873 -0.0644  0.5173
 1357SOL    HW2 5472   2.948   1.515   2.457  0.3902 -1.2376  0.4133
 1357SOL    HW3 5473   2.929   1.419   2.341  2.5860  0.4321 -1.3818
 1357SOL    MW4 5474   2.929   1.500   2.373  0.1810 -0.1538  0.2530
 1358SOL     OW 5475   2.702   1.650   2.234 -0.4824 -0.3426 -0.0279
 1358SOL    HW2 5476   2.762   1.587   2.274 -0.0330 -0.0719 -0.2679
 1358SOL    HW3 5477   2.715   1.638   2.140  0.1925  0.6636 -0.0706
 1358SOL    MW4 5478   2.711   1.640   2.227 -0.3338 -0.1742 -0.0656
 1359SOL     OW 5479   2.705   1.926   2.314 -0.2511  0.0393  0.2530
 1359SOL    HW2 5480   2.690   1.926   2.408 -0.4373 -0.5353  0.2213
 1359SOL    HW3 5481   2.709   1.834   2.289 -0.3640  0.1853 -0.3280
 1359SOL    MW4 5482   2.704   1.914   2.323 -0.2904 -0.0173  0.1721
 1360SOL     OW 5483   2.949   2.065   2.207 -0.0245  0.0736  0.1235
 1360SOL    HW2 5484   3.020   2.014   2.245 -0.5357 -1.2210 -0.6275
 1360SOL    HW3 5485   2.870   2.031   2.249 -0.3921  0.1020 -0.5417
 1360SOL    MW4 5486   2.948   2.054   2.217 -0.1404 -0.0937 -0.0634
 1361SOL     OW 5487   2.950   2.314   2.309 -0.2505  0.0432 -0.4153
 1361SOL    HW2 5488   2.951   2.302   2.404 -0.3904 -0.6420 -0.5008
 1361SOL    HW3 5489   2.946   2.225   2.273 -1.0926  0.3274 -1.0478
 1361SOL    MW4 5490   2.949   2.301   2.316 -0.3800 -0.0098 -0.5097
 1362SOL     OW 5491   2.706   2.429   2.239 -0.2544 -0.0941 -0.6926
 1362SOL    HW2 5492   2.791   2.392   2.264 -0.4043 -0.4491 -0.6998
 1362SOL    HW3 5493   2.711   2.440   2.144 -0.2406 -0.1758 -0.7013
 1362SOL    MW4 5494   2.718   2.426   2.230 -0.2725 -0.1514 -0.6945
 1363SOL     OW 5495   2.686   2.700   2.284  0.4460  0.5169  0.5504
 1363SOL    HW2 5496   2.770   2.735   2.254  0.4048 -0.8234 -1.2105
 1363SOL    HW3 5497   2.693   2.605   2.270 -1.5766  0.4504 -0.1917
 1363SOL    MW4 5498   2.698   2.692   2.279  0.1736  0.3312  0.2198
 1364SOL     OW 5499   2.931   2.825   2.214 -0.1347 -0.5011  0.4651
 1364SOL    HW2 5500   2.935   2.914   2.248  0.7486  0.0403 -1.0498
 1364SOL    HW3 5501   2.909   2.834   2.122  2.2963 -1.6927 -0.2925
 1364SOL    MW4 5502   2.929   2.838   2.207  0.3023 -0.5867  0.1652
 1365SOL     OW 5503   2.922   3.088   2.323 -0.2215 -0.5347  0.1345
 1365SOL    HW2 5504   2.996   3.141   2.291  0.3338 -0.1828  1.9504
 1365SOL    HW3 5505   2.847   3.121   2.274  0.4898  0.4832 -0.3056
 1365SOL    MW4 5506   2.922   3.100   2.312 -0.0546 -0.3541  0.3161
 1366SOL     OW 5507   2.688   3.200   2.227 -0.4882 -0.0134 -0.0656
 1366SOL    HW2 5508   2.690   3.284   2.273 -1.4931 -0.1906  0.3018
 1366SOL    HW3 5509   2.687   3.223   2.134  1.1979  0.3489 -0.0066
 1366SOL    MW4 5510   2.688   3.214   2.221 -0.3984  0.0112 -0.0095
 1367SOL     OW 5511   2.720   3.457   2.364 -0.1421 -0.3922  0.3170
 1367SOL    HW2 5512   2.793   3.502   2.321  0.2040 -0.1638  1.1450
 1367SOL    HW3 5513   2.642   3.498   2.327  0.1653  0.4661  0.6130
 1367SOL    MW4 5514   2.719   3.468   2.353 -0.0556 -0.2487  0.4652
 1368SOL     OW 5515   2.941   3.602   2.247  0.0664 -0.1358  0.4331
 1368SOL    HW2 5516   3.018   3.566   2.290  0.7006  1.0330  0.2861
 1368SOL    HW3 5517   2.931   3.689   2.285  0.7532  0.9971 -1.9036
 1368SOL    MW4 5518   2.950   3.609   2.258  0.2408  0.1681  0.1054
 1369SOL     OW 5519   2.932   3.861   2.360 -0.3030 -0.0227 -0.1779
 1369SOL    HW2 5520   2.917   3.862   2.455  0.5626 -1.2664 -0.0336
 1369SOL    HW3 5521   2.853   3.902   2.324 -0.9986 -0.2810  1.0242
 1369SOL    MW4 5522   2.919   3.867   2.368 -0.2804 -0.2208 -0.0005
 1370SOL     OW 5523   2.700   3.988   2.250 -0.0454  0.1681  0.0023
 1370SOL    HW2 5524   2.629   3.934   2.286 -0.3276  0.8048  0.4029
 1370SOL    HW3 5525   2.676   4.001   2.158 -0.4812  0.4396  0.1539
 1370SOL    MW4 5526   2.688   3.982   2.243 -0.1402  0.2882  0.0749
 1371SOL     OW 5527   2.730   4.265   2.365  0.1834  0.4281 -0.3235
 1371SOL    HW2 5528   2.696   4.255   2.454 -0.4293 -0.1943 -0.6234
 1371SOL    HW3 5529   2.728   4.176   2.329  1.7122  0.4452 -0.5024
 1371SOL    MW4 5530   2.726   4.252   2.372  0.3045  0.3481 -0.3867
 1372SOL     OW 5531   2.936   4.420   2.244  0.1145  0.3627 -0.1739
 1372SOL    HW2 5532   3.007   4.360   2.266 -1.0684 -0.8683  0.2947
 1372SOL    HW3 5533   2.859   4.384   2.287 -1.3832  0.2041 -2.8737
 1372SOL    MW4 5534   2.936   4.407   2.252 -0.2396  0.1793 -0.4683
 1373SOL     OW 5535   3.355   0.007   2.367 -0.2484 -0.1999 -0.3262
 1373SOL    HW2 5536   3.350  -0.002   2.462 -0.7170 -0.6341 -0.3880
 1373SOL    HW3 5537   3.447  -0.007   2.346 -0.1043  0.1258  0.0889
 1373SOL    MW4 5538   3.366   0.004   2.377 -0.2911 -0.2142 -0.2794
 1374SOL     OW 5539   3.151   0.158   2.262 -0.0144 -0.2714  0.1625
 1374SOL    HW2 5540   3.152   0.241   2.309 -0.0382 -0.4850  0.5365
 1374SOL    HW3 5541   3.220   0.106   2.303 -0.5782 -0.7555  0.5006
 1374SOL    MW4 5542   3.160   0.162   2.273 -0.0920 -0.3634  0.2563
 1375SOL     OW 5543   3.132   0.432   2.359  0.5982 -0.7207 -0.3766
 1375SOL    HW2 5544   3.198   0.485   2.314  1.9617 -1.0850  1.1534
 1375SOL    HW3 5545   3.049   0.460   2.320  1.4464  1.2686 -0.8541
 1375SOL    MW4 5546   3.130   0.443   2.348  0.8900 -0.5063 -0.2379
 1376SOL     OW 5547   3.375   0.526   2.257 -0.2409 -0.4553 -0.0346
 1376SOL    HW2 5548   3.454   0.482   2.289 -1.0134 -1.5833  0.3403
 1376SOL    HW3 5549   3.370   0.502   2.164 -0.6349 -1.1196  0.1580
 1376SOL    MW4 5550   3.385   0.517   2.249 -0.3948 -0.6918  0.0403
 1377SOL     OW 5551   3.372   0.787   2.369  0.2618  0.1779  0.2030
 1377SOL    HW2 5552   3.448   0.821   2.323 -0.6997  1.2222 -0.6477
 1377SOL    HW3 5553   3.375   0.693   2.352  0.6467  0.3782 -0.9296
 1377SOL    MW4 5554   3.382   0.779   2.360  0.1855  0.3421 -0.0587
 1378SOL     OW 5555   3.148   0.859   2.237  0.2490 -0.2321  0.4265
 1378SOL    HW2 5556   3.225   0.841   2.291 -0.8219  0.3195  2.1665
 1378SOL    HW3 5557   3.078   0.807   2.277 -0.8202  1.0540  0.2649
 1378SOL    MW4 5558   3.149   0.850   2.249 -0.0331  0.0104  0.6349
 1379SOL     OW 5559   3.131   1.127   2.365 -0.0601  0.0787 -0.0619
 1379SOL    HW2 5560   3.203   1.169   2.318  0.5323 -0.5720  0.2415
 1379SOL    HW3 5561   3.125   1.040   2.326 -0.7633  0.1735 -0.1631
 1379SOL    MW4 5562   3.140   1.121   2.354 -0.0746  0.0052 -0.0350
 1380SOL     OW 5563   3.346   1.280   2.248  0.6006 -0.2781 -0.1602
 1380SOL    HW2 5564   3.424   1.245   2.291  1.2849  2.4669  0.9354
 1380SOL    HW3 5565   3.349   1.374   2.267 -1.9000  0.1609 -1.8213
 1380SOL    MW4 5566   3.357   1.288   2.256  0.3612  0.1420 -0.2348
 1381SOL     OW 5567   3.386   1.550   2.323 -0.4005  0.3287 -0.0015
 1381SOL    HW2 5568   3.393   1.534   2.417  1.3528 -0.8245 -0.3055
 1381SOL    HW3 5569   3.299   1.587   2.312 -0.9727 -0.3373  1.9634
 1381SOL    MW4 5570   3.375   1.553   2.334 -0.2449  0.0888  0.2177
 1382SOL     OW 5571   3.143   1.646   2.271 -0.1294 -0.4186 -0.0953
 1382SOL    HW2 5572   3.145   1.741   2.286  0.5494 -0.5198  0.5409
 1382SOL    HW3 5573   3.057   1.618   2.302 -0.2833 -0.0250 -0.1669
 1382SOL    MW4 5574   3.132   1.655   2.277 -0.0601 -0.3800 -0.0210
 1383SOL     OW 5575   3.158   1.912   2.322  0.4631  0.0261  0.3408
 1383SOL    HW2 5576   3.156   1.921   2.417  0.8410  0.0772  0.3453
 1383SOL    HW3 5577   3.244   1.946   2.296  0.0991  0.6417 -0.0789
 1383SOL    MW4 5578   3.169   1.918   2.331  0.4647  0.1142  0.2861
 1384SOL     OW 5579   3.393   2.038   2.248  0.1730  0.1122 -0.1904
 1384SOL    HW2 5580   3.473   1.992   2.275  0.9794  2.3120  1.2897
 1384SOL    HW3 5581   3.394   2.033   2.152  1.7968 -0.3872 -0.1755
 1384SOL    MW4 5582   3.404   2.031   2.239  0.4938  0.3369  0.0067
 1385SOL     OW 5583   3.406   2.312   2.331  0.0611 -0.1778 -0.2925
 1385SOL    HW2 5584   3.333   2.353   2.285 -1.2282  0.2562  2.0541
 1385SOL    HW3 5585   3.398   2.219   2.312 -1.6923 -0.2462  0.7403
 1385SOL    MW4 5586   3.395   2.305   2.322 -0.3402 -0.1295  0.1535
 1386SOL     OW 5587   3.178   2.455   2.246  0.0350  0.1466 -0.0784
 1386SOL    HW2 5588   3.160   2.534   2.298 -2.2357 -0.8072  0.6541
 1386SOL    HW3 5589   3.110   2.393   2.273 -1.0534 -0.4873 -3.9708
 1386SOL    MW4 5590   3.166   2.458   2.256 -0.4082 -0.0627 -0.4954
 1387SOL     OW 5591   3.157   2.710   2.350 -0.1976  0.0790  0.0196
 1387SOL    HW2 5592   3.150   2.701   2.445 -1.5344  0.9480  0.0133
 1387SOL    HW3 5593   3.074   2.750   2.323  0.1155 -0.2844 -1.5303
 1387SOL    MW4 5594   3.145   2.714   2.359 -0.3326  0.1457 -0.1855
 1388SOL     OW 5595   3.399   2.824   2.283  0.1261 -0.2059 -0.5239
 1388SOL    HW2 5596   3.384   2.911   2.320  1.1870  0.7497 -2.2635
 1388SOL    HW3 5597   3.320   2.774   2.305 -0.4165  1.1314  0.6292
 1388SOL    MW4 5598   3.387   2.829   2.291  0.1945  0.0966 -0.6013
 1389SOL     OW 5599   3.365   3.083   2.372  0.3601  0.2431 -0.1403
 1389SOL    HW2 5600   3.438   3.121   2.323  0.1542 -0.0901 -0.7210
 1389SOL    HW3 5601   3.287   3.123   2.333  0.1849 -0.1603 -0.2044
 1389SOL    MW4 5602   3.365   3.093   2.360  0.3097  0.1457 -0.2253
 1390SOL     OW 5603   3.165   3.215   2.243 -0.1443 -1.1292  0.2665
 1390SOL    HW2 5604   3.152   3.304   2.276 -1.3119 -1.0226 -0.4642
 1390SOL    HW3 5605   3.155   3.223   2.148  2.8681 -1.4889 -0.1295
 1390SOL    MW4 5606   3.162   3.228   2.234  0.0992 -1.1625  0.1178
 1391SOL     OW 5607   3.160   3.469   2.325 -0.3268 -0.2442 -0.2481
 1391SOL    HW2 5608   3.167   3.485   2.419 -1.8332  0.3731 -0.2366
 1391SOL    HW3 5609   3.224   3.528   2.286 -0.5557  0.3680  0.3000
 1391SOL    MW4 5610   3.170   3.479   2.332 -0.5560 -0.0818 -0.1740
 1392SOL     OW 5611   3.365   3.631   2.249  0.2775 -0.3450  0.0737
 1392SOL    HW2 5612   3.439   3.573   2.267  1.0369  0.1234 -1.4802
 1392SOL    HW3 5613   3.358   3.633   2.154 -0.4985  1.1482  0.1457
 1392SOL    MW4 5614   3.374   3.624   2.239  0.2754 -0.0861 -0.1216
 1393SOL     OW 5615   3.346   3.891   2.351  0.4393  0.2708  0.1622
 1393SOL    HW2 5616   3.428   3.925   2.315  0.1763  0.3100 -0.4056
 1393SOL    HW3 5617   3.344   3.799   2.324 -0.2635  0.5698 -0.8367
 1393SOL    MW4 5618   3.356   3.883   2.343  0.3119  0.3152 -0.0446
 1394SOL     OW 5619   3.137   3.969   2.195  0.6444 -0.4315 -0.6212
 1394SOL    HW2 5620   3.211   3.945   2.250  1.2409  1.2909 -0.6411
 1394SOL    HW3 5621   3.060   3.951   2.249  1.2007  0.6541  0.5773
 1394SOL    MW4 5622   3.136   3.964   2.209  0.7966 -0.0608 -0.4659
 1395SOL     OW 5623   3.140   4.250   2.306 -0.0320 -0.1386 -0.2890
 1395SOL    HW2 5624   3.221   4.296   2.283  0.4647 -0.1983  1.2506
 1395SOL    HW3 5625   3.148   4.165   2.263  0.8216 -0.2234  0.0284
 1395SOL    MW4 5626   3.152   4.245   2.297  0.1462 -0.1578 -0.0443
 1396SOL     OW 5627   3.347   4.421   2.227 -0.0875 -0.0051 -0.4347
 1396SOL    HW2 5628   3.347   4.510   2.260  1.5990  0.0672 -0.5832
 1396SOL    HW3 5629   3.355   4.430   2.132  0.4274 -0.3099 -0.4238
 1396SOL    MW4 5630   3.348   4.434   2.219  0.2027 -0.0358 -0.4528
 1397SOL     OW 5631   3.805   4.649   2.382  0.0594 -0.2472  0.4066
 1397SOL    HW2 5632   3.813   4.654   2.477  0.6612 -0.4882  0.3713
 1397SOL    HW3 5633   3.890   4.680   2.349 -0.0324 -0.4677 -0.0429
 1397SOL    MW4 5634   3.818   4.654   2.390  0.1266 -0.3080  0.3431
 1398SOL     OW 5635   3.609   0.118   2.249 -0.2001 -0.1286 -1.2892
 1398SOL    HW2 5636   3.602   0.179   2.323  0.0025 -0.2410 -1.1751
 1398SOL    HW3 5637   3.673   0.053   2.279 -0.9805 -0.8141 -1.1211
 1398SOL    MW4 5638   3.617   0.118   2.263 -0.2766 -0.2339 -1.2519
 1399SOL     OW 5639   3.576   0.359   2.388  0.2044  0.2194  0.4015
 1399SOL    HW2 5640   3.575   0.375   2.483  0.5915  1.9093  0.1279
 1399SOL    HW3 5641   3.653   0.406   2.357  0.1003 -0.3715 -0.7577
 1399SOL    MW4 5642   3.586   0.367   2.397  0.2418  0.3644  0.2124
 1400SOL     OW 5643   3.783   0.496   2.259  0.1582 -0.1702  0.7085
 1400SOL    HW2 5644   3.774   0.588   2.286 -2.6537 -0.3686  0.5918
 1400SOL    HW3 5645   3.778   0.499   2.164  1.6728 -0.2959  0.6241
 1400SOL    MW4 5646   3.781   0.509   2.250 -0.0129 -0.2130  0.6819
 1401SOL     OW 5647   3.810   0.779   2.343 -0.3351  0.7860  0.4191
 1401SOL    HW2 5648   3.831   0.776   2.436  0.8353 -0.1333  0.1311
 1401SOL    HW3 5649   3.890   0.811   2.301 -0.3611 -0.2626 -0.4332
 1401SOL    MW4 5650   3.823   0.783   2.350 -0.1843  0.5264  0.2685
 1402SOL     OW 5651   3.588   0.906   2.234  0.0684 -0.1871 -0.2149
 1402SOL    HW2 5652   3.668   0.863   2.264 -0.8523 -1.0241  1.0954
 1402SOL    HW3 5653   3.585   0.889   2.140  1.7793  0.4431 -0.3929
 1402SOL    MW4 5654   3.598   0.898   2.225  0.1729 -0.2144 -0.0656
 1403SOL     OW 5655   3.602   1.165   2.339  0.3931  0.2179 -0.0768
 1403SOL    HW2 5656   3.604   1.142   2.432 -1.0312 -0.9446 -0.3211
 1403SOL    HW3 5657   3.592   1.081   2.294 -0.8017  0.9495 -1.1936
 1403SOL    MW4 5658   3.601   1.151   2.345  0.0477  0.1611 -0.2563
 1404SOL     OW 5659   3.831   1.277   2.227 -0.2525  0.2963  0.0595
 1404SOL    HW2 5660   3.829   1.366   2.262 -1.6468  0.8060 -1.2565
 1404SOL    HW3 5661   3.747   1.240   2.252 -0.6274  0.1439 -1.3881
 1404SOL    MW4 5662   3.820   1.284   2.235 -0.4861  0.3433 -0.3049
 1405SOL     OW 5663   3.831   1.539   2.321 -0.3298 -0.1691 -0.4584
 1405SOL    HW2 5664   3.832   1.557   2.415  1.2137 -0.2473 -0.4434
 1405SOL    HW3 5665   3.760   1.592   2.287 -0.2350  0.6560  0.6143
 1405SOL    MW4 5666   3.822   1.548   2.329 -0.1137 -0.0706 -0.3152
 1406SOL     OW 5667   3.624   1.679   2.232 -0.0042  0.0203  0.2599
 1406SOL    HW2 5668   3.551   1.639   2.278  0.1932 -0.1797  0.4059
 1406SOL    HW3 5669   3.608   1.659   2.139 -0.0579 -0.1539  0.3062
 1406SOL    MW4 5670   3.612   1.671   2.226  0.0148 -0.0290  0.2854
 1407SOL     OW 5671   3.640   1.923   2.351  0.0726  0.4493 -0.2269
 1407SOL    HW2 5672   3.709   1.971   2.304  2.2621 -1.7437  0.6648
 1407SOL    HW3 5673   3.638   1.837   2.309 -1.7047  0.2471  0.2142
 1407SOL    MW4 5674   3.649   1.918   2.339  0.1271  0.1333 -0.0513
 1408SOL     OW 5675   3.838   2.072   2.213  0.3215  0.1238  0.1499
 1408SOL    HW2 5676   3.918   2.027   2.239 -0.2858 -0.2870  1.3379
 1408SOL    HW3 5677   3.838   2.069   2.117  0.1648 -2.6122  0.2098
 1408SOL    MW4 5678   3.848   2.066   2.204  0.2208 -0.2916  0.3145
 1409SOL     OW 5679   3.822   2.304   2.370  0.0216 -0.7908  0.4402
 1409SOL    HW2 5680   3.774   2.365   2.314  2.0317 -0.0883 -0.5503
 1409SOL    HW3 5681   3.833   2.226   2.316 -1.8542 -1.7659  1.4263
 1409SOL    MW4 5682   3.817   2.301   2.355  0.0396 -0.8268  0.4392
 1410SOL     OW 5683   3.630   2.435   2.215  0.0792  0.5504  0.7712
 1410SOL    HW2 5684   3.546   2.397   2.241 -0.5667  1.3841 -0.0920
 1410SOL    HW3 5685   3.632   2.427   2.120  0.9825  0.5333  0.7850
 1410SOL    MW4 5686   3.619   2.429   2.206  0.1132  0.6580  0.6595
 1411SOL     OW 5687   3.645   2.705   2.317 -0.2151  0.5262 -0.0010
 1411SOL    HW2 5688   3.633   2.612   2.297  0.8173  0.5672 -0.8538
 1411SOL    HW3 5689   3.556   2.740   2.321 -0.5700 -0.2539 -0.8694
 1411SOL    MW4 5690   3.631   2.697   2.315 -0.1254  0.4284 -0.2279
 1412SOL     OW 5691   3.861   2.855   2.255 -0.1116 -0.5663 -0.3635
 1412SOL    HW2 5692   3.845   2.942   2.292 -2.2486 -0.5745 -1.2468
 1412SOL    HW3 5693   3.782   2.805   2.275  1.3154 -2.5154  0.6390
 1412SOL    MW4 5694   3.849   2.860   2.263 -0.2050 -0.8245 -0.3476
 1413SOL     OW 5695   3.819   3.100   2.351  0.2352  0.1161  0.1813
 1413SOL    HW2 5696   3.810   3.126   2.443  0.3147  0.4357  0.0988
 1413SOL    HW3 5697   3.875   3.167   2.312  1.6350 -0.9743  0.3017
 1413SOL    MW4 5698   3.825   3.112   2.358  0.4301  0.0145  0.1862
 1414SOL     OW 5699   3.573   3.191   2.225  0.0083  0.0603  0.2835
 1414SOL    HW2 5700   3.565   3.280   2.259  1.2643 -0.0063  0.7714
 1414SOL    HW3 5701   3.650   3.155   2.269 -0.1731 -1.0835 -0.3165
 1414SOL    MW4 5702   3.582   3.198   2.235  0.1502 -0.0994  0.2687
 1415SOL     OW 5703   3.564   3.441   2.342 -0.0645 -0.0844 -0.3907
 1415SOL    HW2 5704   3.562   3.440   2.438 -0.5973  1.2090 -0.3747
 1415SOL    HW3 5705   3.650   3.476   2.321  0.1579 -0.6280 -0.3911
 1415SOL    MW4 5706   3.575   3.445   2.352 -0.1056  0.0145 -0.3886
 1416SOL     OW 5707   3.798   3.588   2.233  0.1343  0.5576  0.5342
 1416SOL    HW2 5708   3.821   3.672   2.273 -0.6451  0.2845  1.5809
 1416SOL    HW3 5709   3.795   3.606   2.139  1.9720  1.2203  0.5749
 1416SOL    MW4 5710   3.801   3.601   2.226  0.2742  0.6089  0.6776
 1417SOL     OW 5711   3.806   3.835   2.348 -0.2134  0.2516 -0.8021
 1417SOL    HW2 5712   3.787   3.838   2.442 -1.8236 -1.1798 -1.0507
 1417SOL    HW3 5713   3.890   3.880   2.339  0.3774 -0.3218  1.4392
 1417SOL    MW4 5714   3.815   3.841   2.359 -0.3481 -0.0126 -0.5395
 1418SOL     OW 5715   3.596   3.966   2.230  0.0998 -0.4280  0.1185
 1418SOL    HW2 5716   3.599   4.058   2.256 -0.8860 -0.7474  1.3533
 1418SOL    HW3 5717   3.672   3.926   2.273  0.8158 -0.1048 -0.8174
 1418SOL    MW4 5718   3.606   3.973   2.239  0.0644 -0.4277  0.1581
 1419SOL     OW 5719   3.553   4.238   2.292 -0.3771  0.4027 -0.1764
 1419SOL    HW2 5720   3.623   4.297   2.263 -1.0812  0.6057 -1.5044
 1419SOL    HW3 5721   3.472   4.283   2.268 -1.0365  0.8762  2.7378
 1419SOL    MW4 5722   3.552   4.251   2.285 -0.5572  0.4921  0.0329
 1420SOL     OW 5723   3.776   4.400   2.266  0.3450  0.4508 -0.0039
 1420SOL    HW2 5724   3.847   4.345   2.299  0.1675  0.2699  0.0705
 1420SOL    HW3 5725   3.786   4.483   2.314 -0.8711 -0.3413  1.6433
 1420SOL    MW4 5726   3.787   4.404   2.277  0.1612  0.3223  0.2229
 1421SOL     OW 5727   4.241   4.621   2.335  0.3959  0.2782  0.0373
 1421SOL    HW2 5728   4.228   4.614   2.430  0.6728  0.8092  0.1188
 1421SOL    HW3 5729   4.325   4.666   2.326  0.3572  0.2496 -0.4618
 1421SOL    MW4 5730   4.251   4.626   2.347  0.4272  0.3443 -0.0176
 1422SOL     OW 5731   4.024   0.112   2.266  0.4459  0.0630 -0.1066
 1422SOL    HW2 5732   4.034   0.204   2.293  0.7527 -0.7262  2.5951
 1422SOL    HW3 5733   4.109   0.072   2.286  0.3183 -0.8136 -1.2936
 1422SOL    MW4 5734   4.036   0.119   2.272  0.4697 -0.1568  0.0932
 1423SOL     OW 5735   4.021   0.368   2.372 -0.0451 -0.0149  0.0822
 1423SOL    HW2 5736   4.094   0.425   2.349  0.1691 -0.1938  0.3130
 1423SOL    HW3 5737   3.944   0.409   2.332 -0.3699  2.0834  2.7291
 1423SOL    MW4 5738   4.020   0.381   2.364 -0.0601  0.2383  0.4618
 1424SOL     OW 5739   4.241   0.503   2.266 -0.0676 -0.2623  0.8377
 1424SOL    HW2 5740   4.265   0.594   2.285  2.4324 -0.6916 -0.0063
 1424SOL    HW3 5741   4.320   0.453   2.288 -0.7348 -1.9783 -0.5918
 1424SOL    MW4 5742   4.255   0.509   2.272  0.1745 -0.5453  0.5376
 1425SOL     OW 5743   4.270   0.763   2.337 -0.2223  0.3667 -0.0611
 1425SOL    HW2 5744   4.184   0.799   2.316 -0.1067 -0.0954 -1.3474
 1425SOL    HW3 5745   4.332   0.813   2.283  0.1173 -0.5418 -0.5300
 1425SOL    MW4 5746   4.267   0.774   2.327 -0.1626  0.1859 -0.2925
 1426SOL     OW 5747   4.046   0.874   2.219  0.4716 -0.1662 -0.0385
 1426SOL    HW2 5748   4.037   0.967   2.239  1.7930  0.1440 -0.8678
 1426SOL    HW3 5749   4.036   0.868   2.124 -1.0863 -1.0740  0.1475
 1426SOL    MW4 5750   4.043   0.885   2.209  0.4406 -0.2450 -0.1233
 1427SOL     OW 5751   4.036   1.129   2.330 -0.2662  0.3825 -0.2503
 1427SOL    HW2 5752   4.043   1.144   2.424  0.9937  0.8234 -0.4124
 1427SOL    HW3 5753   3.957   1.176   2.304 -2.5976 -2.5762  1.1611
 1427SOL    MW4 5754   4.027   1.137   2.339 -0.4077  0.0503 -0.0856
 1428SOL     OW 5755   4.267   1.273   2.244 -0.1078  0.5837 -0.1783
 1428SOL    HW2 5756   4.194   1.215   2.264  1.0842 -1.6406 -1.9568
 1428SOL    HW3 5757   4.343   1.230   2.283  0.8979  0.5445 -2.1221
 1428SOL    MW4 5758   4.267   1.259   2.252  0.1817  0.2850 -0.6695
 1429SOL     OW 5759   4.278   1.559   2.364  0.2325  0.0480  0.1689
 1429SOL    HW2 5760   4.265   1.471   2.328 -0.6247  0.2174  0.0609
 1429SOL    HW3 5761   4.365   1.584   2.332 -1.1012  0.7802 -3.0778
 1429SOL    MW4 5762   4.288   1.551   2.355 -0.0567  0.1668 -0.2737
 1430SOL     OW 5763   4.056   1.678   2.226 -0.5116  0.1983  0.2781
 1430SOL    HW2 5764   4.132   1.647   2.275  0.1117  0.2079 -0.6522
 1430SOL    HW3 5765   3.982   1.631   2.264  0.1836 -1.1006  0.0724
 1430SOL    MW4 5766   4.057   1.668   2.237 -0.3371  0.0283  0.1283
 1431SOL     OW 5767   4.054   1.943   2.318 -0.2081  0.0026  1.1436
 1431SOL    HW2 5768   4.048   1.948   2.413 -2.0883  0.8561  1.0038
 1431SOL    HW3 5769   4.051   1.849   2.298 -1.7597 -0.1019  1.8292
 1431SOL    MW4 5770   4.053   1.931   2.328 -0.6604  0.1014  1.2159
 1432SOL     OW 5771   4.291   2.046   2.213 -0.0217  0.1874 -0.1303
 1432SOL    HW2 5772   4.277   2.135   2.245 -1.9492 -0.8706  2.0977
 1432SOL    HW3 5773   4.212   1.999   2.238  0.9863 -2.1709 -1.2419
 1432SOL    MW4 5774   4.279   2.052   2.221 -0.1426 -0.2635  0.0169
 1433SOL     OW 5775   4.241   2.311   2.322 -0.3876 -0.2419  0.2984
 1433SOL    HW2 5776   4.165   2.352   2.281  0.2423  0.2826 -0.3792
 1433SOL    HW3 5777   4.315   2.367   2.295  0.3388 -1.2092  0.2589
 1433SOL    MW4 5778   4.241   2.324   2.313 -0.2089 -0.3004  0.2036
 1434SOL     OW 5779   4.029   2.435   2.208  0.1371  0.3040  0.1014
 1434SOL    HW2 5780   4.045   2.516   2.258 -0.3111 -0.0072  0.7473
 1434SOL    HW3 5781   3.968   2.385   2.261  0.8258 -0.7136 -0.0426
 1434SOL    MW4 5782   4.023   2.439   2.221  0.1683  0.1287  0.1678
 1435SOL     OW 5783   4.064   2.689   2.351 -0.3174  0.1501  0.1239
 1435SOL    HW2 5784   4.050   2.684   2.446 -1.0984 -0.1230  0.0028
 1435SOL    HW3 5785   3.988   2.737   2.319 -0.9468 -1.2802 -0.5585
 1435SOL    MW4 5786   4.052   2.695   2.360 -0.5035 -0.0746  0.0179
 1436SOL     OW 5787   4.273   2.839   2.260  0.2006 -0.1243 -0.1852
 1436SOL    HW2 5788   4.198   2.788   2.289  1.0495 -1.1004  0.3406
 1436SOL    HW3 5789   4.348   2.799   2.304  1.1155  0.4020 -1.2262
 1436SOL    MW4 5790   4.273   2.827   2.270  0.4334 -0.1833 -0.2532
 1437SOL     OW 5791   4.261   3.095   2.366  0.3727 -0.2644  0.0472
 1437SOL    HW2 5792   4.260   3.002   2.342 -1.9002  0.1992 -1.9411
 1437SOL    HW3 5793   4.331   3.133   2.314  0.8445 -0.7406  0.3364
 1437SOL    MW4 5794   4.270   3.088   2.356  0.1349 -0.2661 -0.1771
 1438SOL     OW 5795   4.035   3.240   2.239  0.1158  0.0481  0.1323
 1438SOL    HW2 5796   4.043   3.322   2.288 -0.6168  0.0801  0.2087
 1438SOL    HW3 5797   4.098   3.181   2.280  0.0351  0.3084  0.6351
 1438SOL    MW4 5798   4.045   3.243   2.251  0.0081  0.0865  0.2086
 1439SOL     OW 5799   4.025   3.497   2.377 -0.3178  0.8411 -0.2918
 1439SOL    HW2 5800   4.085   3.547   2.323  0.5540  1.7177  1.4506
 1439SOL    HW3 5801   3.941   3.501   2.331  1.0644 -0.8603 -3.0202
 1439SOL    MW4 5802   4.022   3.504   2.364 -0.0205  0.7322 -0.4218
 1440SOL     OW 5803   4.244   3.643   2.283  0.1534  0.0116  0.3201
 1440SOL    HW2 5804   4.264   3.722   2.332  0.6289 -0.2440  0.5363
 1440SOL    HW3 5805   4.230   3.673   2.193 -1.8580  0.6314  0.8209
 1440SOL    MW4 5806   4.244   3.657   2.278 -0.0491  0.0594  0.4148
 1441SOL     OW 5807   4.297   3.887   2.366 -0.0285 -0.2023  0.3530
 1441SOL    HW2 5808   4.301   3.896   2.461 -1.8731 -1.5268  0.5800
 1441SOL    HW3 5809   4.380   3.923   2.335  0.7121 -0.0174  2.4802
 1441SOL    MW4 5810   4.309   3.893   2.374 -0.1740 -0.3529  0.6635
 1442SOL     OW 5811   4.034   3.972   2.300  0.1267  0.0218  0.7077
 1442SOL    HW2 5812   4.117   3.931   2.326 -0.2773 -0.7594  0.7721
 1442SOL    HW3 5813   4.036   3.969   2.204  0.1899  0.0308  0.7083
 1442SOL    MW4 5814   4.045   3.966   2.291  0.0820 -0.0799  0.7160
 1443SOL     OW 5815   3.979   4.243   2.357 -0.0296  0.2098 -0.2969
 1443SOL    HW2 5816   4.057   4.282   2.316 -1.1129  2.0788 -0.6351
 1443SOL    HW3 5817   3.992   4.149   2.347  2.1095  0.4850 -0.5059
 1443SOL    MW4 5818   3.991   4.236   2.350  0.1097  0.4926 -0.3693
 1444SOL     OW 5819   4.235   4.368   2.232  0.2446  0.3276  0.1026
 1444SOL    HW2 5820   4.247   4.457   2.267 -0.5739  0.5787 -0.2483
 1444SOL    HW3 5821   4.304   4.317   2.274  1.3805  1.3474 -0.4736
 1444SOL    MW4 5822   4.246   4.373   2.242  0.2866  0.4954 -0.0198
 1445SOL     OW 5823   0.199   4.645   2.631 -0.2916  0.0334 -0.2173
 1445SOL    HW2 5824   0.192   4.558   2.668 -0.1023  0.5194  0.9663
 1445SOL    HW3 5825   0.116   4.688   2.654 -0.3485  0.2061 -0.7195
 1445SOL    MW4 5826   0.187   4.640   2.639 -0.2741  0.1203 -0.1273
 1446SOL     OW 5827   4.457   0.115   2.705  0.0741 -0.2582  0.4401
 1446SOL    HW2 5828   4.475   0.122   2.798 -1.1043 -0.7177  0.7154
 1446SOL    HW3 5829   4.450   0.206   2.675 -0.6722 -0.1078  1.0373
 1446SOL    MW4 5830   4.458   0.128   2.713 -0.1798 -0.2990  0.5550
 1447SOL     OW 5831   4.451   0.391   2.648  0.1781 -0.0820 -0.0997
 1447SOL    HW2 5832   4.528   0.443   2.669 -0.5817  1.0326 -0.0038
 1447SOL    HW3 5833   4.463   0.367   2.556  1.2745 -1.0376  0.2930
 1447SOL    MW4 5834   4.462   0.395   2.639  0.2227 -0.0610 -0.0353
 1448SOL     OW 5835   0.219   0.486   2.714 -0.1686 -0.4845  0.1670
 1448SOL    HW2 5836   0.221   0.487   2.810  0.8079  0.4837  0.1491
 1448SOL    HW3 5837   0.303   0.449   2.689  0.2657  0.8041 -0.3228
 1448SOL    MW4 5838   0.230   0.481   2.723  0.0176 -0.1867  0.1001
 1449SOL     OW 5839   0.212   0.745   2.618  0.4779  0.5924  0.7439
 1449SOL    HW2 5840   0.286   0.789   2.661 -0.4888  2.2532  0.7328
 1449SOL    HW3 5841   0.212   0.657   2.656  0.7568  1.4530  2.8263
 1449SOL    MW4 5842   0.222   0.740   2.629  0.3871  0.9251  1.0169
 1450SOL     OW 5843   0.004   0.887   2.733  0.6334 -0.3773 -0.6517
 1450SOL    HW2 5844  -0.077   0.858   2.691  0.2858  1.3054 -1.1952
 1450SOL    HW3 5845   0.073   0.847   2.680  0.1688 -1.3058 -0.5663
 1450SOL    MW4 5846   0.002   0.878   2.720  0.5262 -0.2778 -0.7122
 1451SOL     OW 5847   4.472   1.157   2.646 -0.2323 -0.0103 -0.0630
 1451SOL    HW2 5848   4.549   1.201   2.680  0.3633 -0.9491 -0.1916
 1451SOL    HW3 5849   4.477   1.069   2.682 -1.6548  0.1422  0.5582
 1451SOL    MW4 5850   4.483   1.151   2.656 -0.3414 -0.1141  0.0019
 1452SOL     OW 5851   0.227   1.309   2.704 -0.7329 -0.3917  0.7793
 1452SOL    HW2 5852   0.303   1.255   2.682 -0.2228  0.1532  1.1766
 1452SOL    HW3 5853   0.240   1.389   2.653 -1.1352 -0.3679  0.7141
 1452SOL    MW4 5854   0.239   1.313   2.694 -0.7187 -0.3166  0.8233
 1453SOL     OW 5855   0.248   1.564   2.575 -0.6267  0.1914 -0.4463
 1453SOL    HW2 5856   0.326   1.597   2.620 -0.5067 -1.3396  0.5112
 1453SOL    HW3 5857   0.174   1.604   2.620 -0.4623 -0.1514  0.1241
 1453SOL    MW4 5858   0.249   1.574   2.587 -0.5892 -0.0558 -0.2446
 1454SOL     OW 5859   0.032   1.688   2.718 -0.6190 -0.2102 -0.4073
 1454SOL    HW2 5860   0.043   1.686   2.813  0.3240 -0.7123 -0.5269
 1454SOL    HW3 5861   0.024   1.781   2.697  0.8061 -0.0032 -0.0271
 1454SOL    MW4 5862   0.032   1.700   2.728 -0.3065 -0.2491 -0.3731
 1455SOL     OW 5863   0.011   1.946   2.611 -0.3349 -0.1234  0.0442
 1455SOL    HW2 5864   0.087   2.000   2.634 -0.2758 -0.1412 -0.1066
 1455SOL    HW3 5865   0.012   1.943   2.515 -0.9525  0.4980  0.0072
 1455SOL    MW4 5866   0.021   1.953   2.601 -0.4086 -0.0439  0.0193
 1456SOL     OW 5867   0.249   2.061   2.711  0.0696 -0.3973 -0.1043
 1456SOL    HW2 5868   0.324   2.017   2.670  0.5724  0.6747 -0.3692
 1456SOL    HW3 5869   0.257   2.152   2.682 -0.1623  0.1549  1.5301
 1456SOL    MW4 5870   0.260   2.067   2.702  0.1053 -0.1831  0.0765
 1457SOL     OW 5871   0.227   2.322   2.632  0.0766  0.9049 -0.5821
 1457SOL    HW2 5872   0.296   2.364   2.684  0.1885  1.6838 -1.3488
 1457SOL    HW3 5873   0.146   2.347   2.675  0.2899 -0.6654  0.7975
 1457SOL    MW4 5874   0.226   2.331   2.644  0.1195  0.8004 -0.5009
 1458SOL     OW 5875   4.485   2.412   2.732 -0.9389  0.0785  0.1734
 1458SOL    HW2 5876   4.467   2.421   2.826 -0.4598  0.4763  0.2324
 1458SOL    HW3 5877   4.413   2.359   2.699 -0.6794 -0.7585  0.9197
 1458SOL    MW4 5878   4.473   2.407   2.740 -0.8415  0.0207  0.2797
 1459SOL     OW 5879   4.470   2.695   2.633 -0.1580  0.1107 -0.0283
 1459SOL    HW2 5880   4.389   2.725   2.676  0.5198 -0.4202  1.6740
 1459SOL    HW3 5881   4.487   2.609   2.672  1.4826  0.4265 -0.0349
 1459SOL    MW4 5882   4.461   2.688   2.644  0.1473  0.0820  0.1955
 1460SOL     OW 5883   0.202   2.823   2.731 -0.2638  0.1712 -0.0019
 1460SOL    HW2 5884   0.193   2.912   2.697 -0.4383  0.5725  1.0894
 1460SOL    HW3 5885   0.132   2.773   2.689  0.4655  0.3101 -1.4011
 1460SOL    MW4 5886   0.192   2.828   2.721 -0.1906  0.2422 -0.0424
 1461SOL     OW 5887   0.212   3.093   2.634  0.3035 -0.1270 -0.0070
 1461SOL    HW2 5888   0.302   3.121   2.653 -0.5601  2.9626 -0.1721
 1461SOL    HW3 5889   0.207   3.094   2.538  0.1015 -0.3293  0.0024
 1461SOL    MW4 5890   0.223   3.097   2.624  0.1629  0.2542 -0.0274
 1462SOL     OW 5891   4.476   3.234   2.733  0.4115 -0.4612 -0.3808
 1462SOL    HW2 5892   4.399   3.182   2.709  0.1710 -0.8706  1.2089
 1462SOL    HW3 5893   4.550   3.181   2.703  0.1503 -1.5137  0.7663
 1462SOL    MW4 5894   4.476   3.220   2.726  0.3452 -0.6540 -0.0196
 1463SOL     OW 5895   0.024   3.479   2.603 -0.0869  0.5510  0.1119
 1463SOL    HW2 5896   0.089   3.533   2.647  0.0152 -0.7823  1.6388
 1463SOL    HW3 5897   0.021   3.398   2.654 -2.1237  0.1438 -0.5845
 1463SOL    MW4 5898   0.032   3.475   2.616 -0.3422  0.3214  0.2215
 1464SOL     OW 5899   0.235   3.617   2.706 -0.6131  0.4523 -0.2429
 1464SOL    HW2 5900   0.227   3.629   2.801 -0.4844  1.6786 -0.3855
 1464SOL    HW3 5901   0.307   3.555   2.696 -0.4100  0.5715  0.4534
 1464SOL    MW4 5902   0.243   3.610   2.717 -0.5693  0.6297 -0.1700
 1465SOL     OW 5903   0.242   3.884   2.619 -0.1631  0.5306  0.0602
 1465SOL    HW2 5904   0.217   3.794   2.641 -0.8838  0.8157  0.4137
 1465SOL    HW3 5905   0.257   3.883   2.524  0.6421 -0.1487  0.1858
 1465SOL    MW4 5906   0.241   3.872   2.609 -0.1519  0.4783  0.1233
 1466SOL     OW 5907   4.489   4.010   2.731  0.2705  0.4688 -0.1387
 1466SOL    HW2 5908   4.475   4.095   2.689 -0.4748  0.7005  0.5551
 1466SOL    HW3 5909   4.556   3.967   2.678  0.3290  1.3115 -0.7524
 1466SOL    MW4 5910   4.496   4.016   2.719  0.1799  0.6108 -0.1280
 1467SOL     OW 5911   4.452   4.249   2.604 -0.7369  0.1344 -0.1694
 1467SOL    HW2 5912   4.385   4.310   2.635  0.0844  0.5645  0.7659
 1467SOL    HW3 5913   4.535   4.295   2.618 -0.0853 -1.2850  0.7386
 1467SOL    MW4 5914   4.454   4.263   2.610 -0.5422  0.0038  0.0739
 1468SOL     OW 5915   0.196   4.380   2.696  0.1189 -0.2713 -0.0208
 1468SOL    HW2 5916   0.201   4.362   2.789  0.9007 -0.3172 -0.0691
 1468SOL    HW3 5917   0.284   4.361   2.663  0.0580  0.4992 -0.6287
 1468SOL    MW4 5918   0.208   4.375   2.704  0.2140 -0.1755 -0.1070
 1469SOL     OW 5919   0.666   4.626   2.652 -0.2304  0.1126  0.0411
 1469SOL    HW2 5920   0.740   4.675   2.686  0.5101 -0.7128 -0.3583
 1469SOL    HW3 5921   0.590   4.681   2.671  0.5841  1.4266 -0.4379
 1469SOL    MW4 5922   0.666   4.639   2.659 -0.0253  0.1769 -0.0746
 1470SOL     OW 5923   0.443   0.104   2.744  0.0503  0.0330  0.2149
 1470SOL    HW2 5924   0.429   0.114   2.838  0.0118 -0.3528  0.2481
 1470SOL    HW3 5925   0.364   0.062   2.711  0.8297 -1.5577  0.3084
 1470SOL    MW4 5926   0.431   0.100   2.752  0.1481 -0.2278  0.2315
 1471SOL     OW 5927   0.450   0.362   2.648  0.0483 -0.8981  0.0541
 1471SOL    HW2 5928   0.536   0.400   2.666 -0.2630 -0.8677  1.5162
 1471SOL    HW3 5929   0.451   0.277   2.692 -1.2918 -0.1435  1.5664
 1471SOL    MW4 5930   0.462   0.356   2.656 -0.1696 -0.7945  0.4468
 1472SOL     OW 5931   0.689   0.485   2.731 -0.2743  0.1273 -0.2212
 1472SOL    HW2 5932   0.675   0.501   2.824 -1.8186 -0.4224 -0.3477
 1472SOL    HW3 5933   0.754   0.414   2.728 -0.8299 -0.4166  0.4544
 1472SOL    MW4 5934   0.696   0.478   2.743 -0.5514 -0.0169 -0.1490
 1473SOL     OW 5935   0.657   0.739   2.596 -0.2194 -0.5841  0.1922
 1473SOL    HW2 5936   0.725   0.803   2.618  0.2394 -1.0921  0.2535
 1473SOL    HW3 5937   0.686   0.658   2.638 -0.6126 -0.9291 -0.2052
 1473SOL    MW4 5938   0.669   0.737   2.605 -0.2108 -0.6966  0.1478
 1474SOL     OW 5939   0.444   0.884   2.709 -0.3369 -0.2888 -0.2804
 1474SOL    HW2 5940   0.445   0.974   2.678 -1.7544 -0.0393  0.3735
 1474SOL    HW3 5941   0.513   0.840   2.659  1.0355  1.3845  0.0872
 1474SOL    MW4 5942   0.453   0.890   2.698 -0.3428 -0.0351 -0.1454
 1475SOL     OW 5943   0.431   1.149   2.618 -0.2057  0.2607 -0.4123
 1475SOL    HW2 5944   0.510   1.197   2.643 -0.1284  0.2122 -0.5623
 1475SOL    HW3 5945   0.445   1.125   2.526 -0.5138  0.4880 -0.5190
 1475SOL    MW4 5946   0.443   1.152   2.609 -0.2362  0.2842 -0.4463
 1476SOL     OW 5947   0.683   1.264   2.680  0.1954  0.2403 -0.1676
 1476SOL    HW2 5948   0.674   1.254   2.775  1.0665  0.7199 -0.0296
 1476SOL    HW3 5949   0.760   1.211   2.658 -0.4105 -0.4255 -0.7152
 1476SOL    MW4 5950   0.692   1.256   2.690  0.2304  0.2158 -0.2217
 1477SOL     OW 5951   0.723   1.539   2.623  0.5777 -0.2218 -0.3107
 1477SOL    HW2 5952   0.648   1.584   2.663  0.6358 -0.5123  0.1212
 1477SOL    HW3 5953   0.704   1.446   2.632  0.1251 -0.2903 -1.8400
 1477SOL    MW4 5954   0.711   1.533   2.630  0.5256 -0.2693 -0.4556
 1478SOL     OW 5955   0.497   1.656   2.720  0.6495 -0.0969  0.3366
 1478SOL    HW2 5956   0.480   1.659   2.814  0.6771 -0.9502  0.3694
 1478SOL    HW3 5957   0.478   1.745   2.690  0.0746  0.0308  1.0484
 1478SOL    MW4 5958   0.492   1.668   2.729  0.5773 -0.1926  0.4346
 1479SOL     OW 5959   0.477   1.896   2.590  0.0647 -0.3634 -0.4440
 1479SOL    HW2 5960   0.548   1.955   2.614 -0.8472  0.5501  0.0659
 1479SOL    HW3 5961   0.472   1.903   2.494  0.6852 -0.4661 -0.4875
 1479SOL    MW4 5962   0.486   1.905   2.580  0.0262 -0.2564 -0.3827
 1480SOL     OW 5963   0.688   2.062   2.695  0.3741  0.1736  0.8291
 1480SOL    HW2 5964   0.679   2.041   2.788  0.7174  0.8791  1.0247
 1480SOL    HW3 5965   0.769   2.019   2.668  0.1685 -0.2007  0.8039
 1480SOL    MW4 5966   0.697   2.054   2.704  0.3923  0.2172  0.8514
 1481SOL     OW 5967   0.686   2.321   2.597  0.4195  0.0371 -0.0265
 1481SOL    HW2 5968   0.769   2.358   2.625  0.5349 -1.1948  1.3378
 1481SOL    HW3 5969   0.687   2.231   2.631 -1.1286 -0.2427 -0.6635
 1481SOL    MW4 5970   0.697   2.314   2.605  0.2306 -0.1626  0.0694
 1482SOL     OW 5971   0.454   2.429   2.729  0.0342 -0.2674  0.0127
 1482SOL    HW2 5972   0.439   2.509   2.679  0.4363 -0.9322 -1.1956
 1482SOL    HW3 5973   0.527   2.386   2.685 -1.0559 -1.9726 -0.1926
 1482SOL    MW4 5974   0.462   2.434   2.717 -0.0566 -0.5803 -0.1740
 1483SOL     OW 5975   0.394   2.681   2.605  0.2574 -0.3125 -0.1026
 1483SOL    HW2 5976   0.475   2.717   2.641 -0.4767  0.4943  0.7582
 1483SOL    HW3 5977   0.325   2.732   2.645 -0.6895 -0.9433 -0.8990
 1483SOL    MW4 5978   0.396   2.692   2.615  0.0356 -0.2892 -0.0939
 1484SOL     OW 5979   0.645   2.773   2.712  0.2620  0.3847  0.5379
 1484SOL    HW2 5980   0.628   2.774   2.806 -0.2061  1.3155  0.4473
 1484SOL    HW3 5981   0.658   2.865   2.688  0.8584  0.1146 -0.2227
 1484SOL    MW4 5982   0.645   2.786   2.721  0.2789  0.4721  0.4258
 1485SOL     OW 5983   0.686   3.052   2.632  0.6722  0.3847  0.2518
 1485SOL    HW2 5984   0.775   3.073   2.661  0.7198  1.5924 -0.7152
 1485SOL    HW3 5985   0.688   3.065   2.537  0.2467 -2.4831 -0.1778
 1485SOL    MW4 5986   0.698   3.057   2.624  0.6225  0.1657  0.0677
 1486SOL     OW 5987   0.456   3.177   2.701  0.1841  0.6759  0.1980
 1486SOL    HW2 5988   0.436   3.166   2.795 -0.2305 -0.6512 -0.0235
 1486SOL    HW3 5989   0.544   3.139   2.691 -0.2365 -0.2355 -0.1404
 1486SOL    MW4 5990   0.465   3.170   2.712  0.0739  0.3808  0.1242
 1487SOL     OW 5991   0.445   3.450   2.656  0.5279  0.2338 -0.1318
 1487SOL    HW2 5992   0.490   3.368   2.676  0.4467  0.1751 -0.1888
 1487SOL    HW3 5993   0.434   3.448   2.561 -0.9891 -0.4819  0.0383
 1487SOL    MW4 5994   0.449   3.439   2.646  0.3171  0.1318 -0.1168
 1488SOL     OW 5995   0.686   3.617   2.684 -0.3113 -0.0291 -0.0385
 1488SOL    HW2 5996   0.693   3.607   2.779  0.7182  0.2658 -0.0697
 1488SOL    HW3 5997   0.601   3.580   2.662 -0.6161  0.0142  1.0160
 1488SOL    MW4 5998   0.676   3.611   2.694 -0.2157  0.0155  0.0963
 1489SOL     OW 5999   0.677   3.884   2.592  0.1921  0.2404  0.0566
 1489SOL    HW2 6000   0.611   3.930   2.643  0.5039  0.3012  0.4008
 1489SOL    HW3 6001   0.684   3.798   2.634  0.5779  0.3543  0.2176
 1489SOL    MW4 6002   0.669   3.879   2.604  0.2841  0.2635  0.1233
 1490SOL     OW 6003   0.478   4.016   2.694  0.3605 -0.1930 -0.2438
 1490SOL    HW2 6004   0.462   4.109   2.678 -0.5320  0.0930  2.1296
 1490SOL    HW3 6005   0.396   3.973   2.670  0.4236 -0.2477 -0.3622
 1490SOL    MW4 6006   0.465   4.022   2.689  0.2510 -0.1626  0.0539
 1491SOL     OW 6007   0.446   4.275   2.616  0.4010  0.5478 -0.1104
 1491SOL    HW2 6008   0.522   4.316   2.658  0.6880 -0.2046  0.1089
 1491SOL    HW3 6009   0.472   4.268   2.524  1.3828 -1.4705  0.2947
 1491SOL    MW4 6010   0.460   4.280   2.609  0.5684  0.1826 -0.0279
 1492SOL     OW 6011   0.666   4.367   2.752  0.7683  0.0864 -0.2300
 1492SOL    HW2 6012   0.743   4.322   2.717 -0.6537 -0.2857 -3.0328
 1492SOL    HW3 6013   0.673   4.456   2.719  1.3575  0.7742  1.7265
 1492SOL    MW4 6014   0.677   4.373   2.743  0.6584  0.1287 -0.3417
 1493SOL     OW 6015   1.107   4.614   2.623 -0.4826 -0.0120 -0.2949
 1493SOL    HW2 6016   1.199   4.639   2.634 -0.4903  0.1921 -0.6744
 1493SOL    HW3 6017   1.105   4.521   2.642 -0.2057 -0.0054 -0.2273
 1493SOL    MW4 6018   1.119   4.605   2.626 -0.4470  0.0162 -0.3359
 1494SOL     OW 6019   0.903   0.087   2.736 -0.3631  0.2776  0.1782
 1494SOL    HW2 6020   0.906   0.078   2.831  1.8831 -0.2271  0.0675
 1494SOL    HW3 6021   0.972   0.029   2.703  0.5033  2.2560 -1.6405
 1494SOL    MW4 6022   0.912   0.078   2.744  0.0476  0.4720 -0.0765
 1495SOL     OW 6023   0.956   0.354   2.657  0.1589 -0.2750 -0.0584
 1495SOL    HW2 6024   0.940   0.260   2.668 -0.2491 -0.5145 -2.5331
 1495SOL    HW3 6025   0.940   0.371   2.564 -0.2514  2.3514  0.4539
 1495SOL    MW4 6026   0.952   0.344   2.646  0.0508  0.0399 -0.3176
 1496SOL     OW 6027   1.176   0.490   2.762  0.3434  0.0694  0.0526
 1496SOL    HW2 6028   1.180   0.577   2.724  0.4012  0.2400  0.4434
 1496SOL    HW3 6029   1.090   0.456   2.737  0.5728 -0.0083 -0.6289
 1496SOL    MW4 6030   1.166   0.497   2.754  0.3812  0.0816  0.0145
 1497SOL     OW 6031   1.112   0.725   2.603  0.2698  0.0993 -0.3931
 1497SOL    HW2 6032   1.184   0.772   2.644  0.4973 -0.5046 -0.0897
 1497SOL    HW3 6033   1.132   0.726   2.509 -0.0269  1.1063 -0.4441
 1497SOL    MW4 6034   1.124   0.731   2.596  0.2606  0.1525 -0.3600
 1498SOL     OW 6035   0.879   0.893   2.679  0.0183 -0.1949  0.2312
 1498SOL    HW2 6036   0.890   0.900   2.773 -0.6101  0.2382  0.2752
 1498SOL    HW3 6037   0.947   0.832   2.651 -0.0666 -0.6505  1.0179
 1498SOL    MW4 6038   0.890   0.886   2.687 -0.0758 -0.1979  0.3405
 1499SOL     OW 6039   0.911   1.147   2.570 -0.1289 -0.0115  0.4286
 1499SOL    HW2 6040   0.900   1.053   2.579  0.9765 -0.0284  1.7582
 1499SOL    HW3 6041   0.918   1.162   2.476  2.2507 -1.5779  0.3325
 1499SOL    MW4 6042   0.910   1.137   2.559  0.3309 -0.2204  0.5913
 1500SOL     OW 6043   1.133   1.277   2.697  0.3251  0.9201 -0.2011
 1500SOL    HW2 6044   1.128   1.363   2.655 -1.3592  1.2464  0.6470
 1500SOL    HW3 6045   1.054   1.231   2.667 -0.2978  0.7437  1.6918
 1500SOL    MW4 6046   1.122   1.282   2.687  0.0209  0.9401  0.1605
 1501SOL     OW 6047   1.119   1.524   2.567  0.5391  0.2134  0.9547
 1501SOL    HW2 6048   1.051   1.558   2.625 -0.4192 -0.5715  0.3172
 1501SOL    HW3 6049   1.095   1.555   2.480  0.0988 -1.3658  0.4873
 1501SOL    MW4 6050   1.107   1.533   2.563  0.3546 -0.0985  0.8087
 1502SOL     OW 6051   0.937   1.679   2.718 -0.7504  0.1366 -0.0003
 1502SOL    HW2 6052   0.933   1.675   2.813 -2.3117 -0.7696 -0.0933
 1502SOL    HW3 6053   0.861   1.630   2.688  1.0888 -1.7195 -1.7745
 1502SOL    MW4 6054   0.927   1.672   2.727 -0.7138 -0.2279 -0.2468
 1503SOL     OW 6055   0.912   1.930   2.604 -0.6328  0.1946 -0.0265
 1503SOL    HW2 6056   0.985   1.984   2.634 -0.2221  0.8845 -2.1539
 1503SOL    HW3 6057   0.930   1.843   2.638  1.0400  0.4237 -0.2772
 1503SOL    MW4 6058   0.924   1.926   2.612 -0.3580  0.3158 -0.3402
 1504SOL     OW 6059   1.113   2.081   2.746  0.3767  0.4876  0.3797
 1504SOL    HW2 6060   1.189   2.033   2.711  0.6380  0.1158  1.4330
 1504SOL    HW3 6061   1.116   2.166   2.702  1.4199  0.4762  0.4124
 1504SOL    MW4 6062   1.124   2.086   2.736  0.5487  0.4370  0.5231
 1505SOL     OW 6063   1.147   2.322   2.610 -0.0212  0.2001  0.3197
 1505SOL    HW2 6064   1.237   2.347   2.630  0.3293 -0.6559 -0.1651
 1505SOL    HW3 6065   1.147   2.307   2.515 -0.1905 -1.7187  0.6049
 1505SOL    MW4 6066   1.159   2.324   2.600  0.0027 -0.1662  0.2933
 1506SOL     OW 6067   0.910   2.434   2.696  0.3116 -0.3845 -0.3621
 1506SOL    HW2 6068   0.909   2.522   2.659  0.6099 -0.6418 -0.9878
 1506SOL    HW3 6069   0.992   2.396   2.665  1.0951 -0.2232  1.4576
 1506SOL    MW4 6070   0.921   2.440   2.687  0.4544 -0.3970 -0.2046
 1507SOL     OW 6071   0.870   2.692   2.597  0.2841  0.6283  0.2061
 1507SOL    HW2 6072   0.927   2.759   2.635  0.9660  0.8957 -1.2455
 1507SOL    HW3 6073   0.782   2.717   2.624  0.4726  2.4276 -0.7300
 1507SOL    MW4 6074   0.866   2.704   2.605  0.3989  0.9010 -0.1090
 1508SOL     OW 6075   1.101   2.837   2.701 -0.6880  0.1055 -0.1051
 1508SOL    HW2 6076   1.100   2.829   2.796 -1.4173  0.6676 -0.0647
 1508SOL    HW3 6077   1.182   2.794   2.674 -0.2054  0.4320  0.8120
 1508SOL    MW4 6078   1.112   2.830   2.710 -0.7205  0.2227  0.0215
 1509SOL     OW 6079   1.148   3.096   2.611  0.0000  0.0000  0.1067
 1509SOL    HW2 6080   1.122   3.007   2.633  0.0000  0.0000  0.1017
 1509SOL    HW3 6081   1.136   3.101   2.516  0.0000  0.0000  0.1069
 1509SOL    MW4 6082   1.143   3.085   2.601  0.0000  0.0000  0.1061
 1510SOL     OW 6083   0.919   3.208   2.738  0.0000  0.0000 -0.1486
 1510SOL    HW2 6084   0.903   3.287   2.686  0.0000  0.0000 -0.1580
 1510SOL    HW3 6085   1.006   3.179   2.711  0.0000  0.0000 -0.1464
 1510SOL    MW4 6086   0.928   3.215   2.728  0.0000  0.0000 -0.1493
 1511SOL     OW 6087   0.887   3.462   2.593  0.0000  0.0000  0.6609
 1511SOL    HW2 6088   0.961   3.509   2.634  0.0000  0.0000  0.6733
 1511SOL    HW3 6089   0.810   3.512   2.622  0.0000  0.0000  0.6119
 1511SOL    MW4 6090   0.887   3.475   2.603  0.0000  0.0000  0.6561
 1512SOL     OW 6091   1.102   3.599   2.696  0.0000  0.0000 -0.2232
 1512SOL    HW2 6092   1.101   3.626   2.788  0.0000  0.0000 -0.2244
 1512SOL    HW3 6093   1.100   3.681   2.647  0.0000  0.0000 -0.2272
 1512SOL    MW4 6094   1.102   3.613   2.701  0.0000  0.0000 -0.2241
 1513SOL     OW 6095   1.098   3.851   2.564  0.0000  0.0000  0.0671
 1513SOL    HW2 6096   1.178   3.889   2.602  0.0000  0.0000  0.0644
 1513SOL    HW3 6097   1.110   3.859   2.470  0.0000  0.0000  0.0667
 1513SOL    MW4 6098   1.110   3.857   2.557  0.0000  0.0000  0.0665
 1514SOL     OW 6099   0.893   4.008   2.713  0.0000  0.0000  0.0715
 1514SOL    HW2 6100   0.957   3.963   2.658  0.0000  0.0000  0.0792
 1514SOL    HW3 6101   0.809   3.969   2.687  0.0000  0.0000  0.0487
 1514SOL    MW4 6102   0.890   3.997   2.702  0.0000  0.0000  0.0696
 1515SOL     OW 6103   0.888   4.266   2.628  0.0000  0.0000 -0.2275
 1515SOL    HW2 6104   0.892   4.173   2.652  0.0000  0.0000 -0.2245
 1515SOL    HW3 6105   0.884   4.265   2.532  0.0000  0.0000 -0.2274
 1515SOL    MW4 6106   0.888   4.254   2.618  0.0000  0.0000 -0.2272
 1516SOL     OW 6107   1.144   4.351   2.689  0.0000  0.0000 -0.1979
 1516SOL    HW2 6108   1.137   4.378   2.780  0.0000  0.0000 -0.1981
 1516SOL    HW3 6109   1.055   4.327   2.663  0.0000  0.0000 -0.1950
 1516SOL    MW4 6110   1.131   4.351   2.697  0.0000  0.0000 -0.1974
 1517SOL     OW 6111   1.593   4.643   2.637  0.0000  0.0000  0.0694
 1517SOL    HW2 6112   1.588   4.549   2.653  0.0000  0.0000  0.0692
 1517SOL    HW3 6113   1.581   4.652   2.542  0.0000  0.0000  0.0695
 1517SOL    MW4 6114   1.591   4.632   2.626  0.0000  0.0000  0.0696
 1518SOL     OW 6115   1.356   0.092   2.701 -0.8104 -0.2403  0.0966
 1518SOL    HW2 6116   1.351   0.174   2.653  0.1128 -0.3929 -0.2518
 1518SOL    HW3 6117   1.441   0.055   2.678 -1.3912 -1.4975 -0.0790
 1518SOL    MW4 6118   1.366   0.098   2.692 -0.7652 -0.4263  0.0274
 1519SOL     OW 6119   1.362   0.346   2.588  0.0181  0.5294  0.1596
 1519SOL    HW2 6120   1.449   0.374   2.618  0.2815 -0.4245  0.3184
 1519SOL    HW3 6121   1.301   0.384   2.651  0.4324  0.0972  0.8373
 1519SOL    MW4 6122   1.365   0.354   2.601  0.1075  0.3465  0.2699
 1520SOL     OW 6123   1.585   0.492   2.678 -0.4736 -0.1696 -0.0400
 1520SOL    HW2 6124   1.674   0.457   2.671 -0.0459  1.2593 -2.1747
 1520SOL    HW3 6125   1.591   0.581   2.645 -2.7149 -0.1049 -0.3775
 1520SOL    MW4 6126   1.597   0.499   2.672 -0.7129  0.0275 -0.3662
 1521SOL     OW 6127   1.570   0.748   2.597 -0.2897  0.4228  0.4859
 1521SOL    HW2 6128   1.490   0.792   2.625  0.8808  2.3048  0.9027
 1521SOL    HW3 6129   1.566   0.748   2.502 -2.0842 -1.9461  0.5088
 1521SOL    MW4 6130   1.558   0.754   2.588 -0.3721  0.3585  0.5438
 1522SOL     OW 6131   1.347   0.884   2.677 -0.5508  0.2285  0.0038
 1522SOL    HW2 6132   1.342   0.907   2.770 -0.9584  2.0000 -0.4240
 1522SOL    HW3 6133   1.342   0.969   2.632  0.6090 -0.5425 -1.5927
 1522SOL    MW4 6134   1.345   0.898   2.683 -0.4517  0.3605 -0.2627
 1523SOL     OW 6135   1.351   1.148   2.574  0.5921 -0.0222  0.2520
 1523SOL    HW2 6136   1.423   1.195   2.616  0.7140  0.2910 -0.3107
 1523SOL    HW3 6137   1.272   1.195   2.602  0.5872 -0.4890  1.0333
 1523SOL    MW4 6138   1.350   1.160   2.583  0.6076 -0.0426  0.2809
 1524SOL     OW 6139   1.579   1.286   2.673  0.3242 -0.1849  0.2085
 1524SOL    HW2 6140   1.580   1.278   2.769  0.1093 -0.3001  0.2015
 1524SOL    HW3 6141   1.649   1.227   2.644 -1.0015 -1.8082  0.1824
 1524SOL    MW4 6142   1.588   1.277   2.682  0.1211 -0.4143  0.2043
 1525SOL     OW 6143   1.566   1.556   2.620  0.5588  0.4761 -0.1432
 1525SOL    HW2 6144   1.573   1.460   2.629  0.1732  0.2705 -1.9232
 1525SOL    HW3 6145   1.572   1.572   2.526 -1.4065  2.0498 -0.0213
 1525SOL    MW4 6146   1.568   1.545   2.609  0.2488  0.6566 -0.3622
 1526SOL     OW 6147   1.321   1.674   2.689 -0.1439  0.2266  0.3711
 1526SOL    HW2 6148   1.405   1.633   2.667 -0.0880  1.0959 -1.0958
 1526SOL    HW3 6149   1.256   1.619   2.644 -0.3746 -0.4812  1.5540
 1526SOL    MW4 6150   1.324   1.661   2.680 -0.1669  0.2480  0.3335
 1527SOL     OW 6151   1.320   1.940   2.627  0.3669  0.4811 -0.3397
 1527SOL    HW2 6152   1.311   1.848   2.652  1.2437  0.6936  0.8020
 1527SOL    HW3 6153   1.326   1.938   2.531  1.9357 -0.7912 -0.2461
 1527SOL    MW4 6154   1.320   1.927   2.617  0.6896  0.3413 -0.1769
 1528SOL     OW 6155   1.568   2.047   2.722 -0.1578  0.1400  0.8723
 1528SOL    HW2 6156   1.634   1.993   2.677  0.3069 -0.6666  2.4747
 1528SOL    HW3 6157   1.484   2.010   2.694  0.0726  0.6906 -0.5917
 1528SOL    MW4 6158   1.566   2.035   2.712 -0.0660  0.1063  0.8907
 1529SOL     OW 6159   1.594   2.316   2.599 -0.1102 -0.6754 -0.1675
 1529SOL    HW2 6160   1.654   2.379   2.641  0.8693 -0.9890 -1.0694
 1529SOL    HW3 6161   1.614   2.232   2.641 -0.1405 -0.7248 -0.2522
 1529SOL    MW4 6162   1.605   2.313   2.610  0.0151 -0.7231 -0.2978
 1530SOL     OW 6163   1.373   2.440   2.708  0.1242  0.0299 -0.2764
 1530SOL    HW2 6164   1.354   2.520   2.658 -1.7233 -1.1704 -1.5642
 1530SOL    HW3 6165   1.458   2.412   2.674 -0.1413  0.3790 -1.2754
 1530SOL    MW4 6166   1.382   2.447   2.697 -0.1545 -0.0823 -0.5782
 1531SOL     OW 6167   1.326   2.701   2.609  0.2659 -0.1951  0.6136
 1531SOL    HW2 6168   1.398   2.759   2.634 -0.2505  0.3595  0.8082
 1531SOL    HW3 6169   1.326   2.702   2.513  0.0621  0.3596  0.6211
 1531SOL    MW4 6170   1.335   2.709   2.600  0.1709 -0.0486  0.6404
 1532SOL     OW 6171   1.549   2.841   2.699  0.1507 -0.0017  0.2699
 1532SOL    HW2 6172   1.549   2.844   2.795  0.5423  2.8527  0.2479
 1532SOL    HW3 6173   1.639   2.821   2.675  0.0080 -0.9203  0.5007
 1532SOL    MW4 6174   1.561   2.839   2.709  0.1836  0.2537  0.2975
 1533SOL     OW 6175   1.566   3.092   2.600  0.4192  0.7281  0.4836
 1533SOL    HW2 6176   1.647   3.108   2.648  0.1980  1.3623  0.6564
 1533SOL    HW3 6177   1.545   3.001   2.617  0.8911  0.6729  0.7603
 1533SOL    MW4 6178   1.574   3.082   2.609  0.4522  0.8044  0.5429
 1534SOL     OW 6179   1.372   3.233   2.726  0.3105 -0.1553 -0.1626
 1534SOL    HW2 6180   1.443   3.188   2.681 -0.8920 -0.5649 -1.6915
 1534SOL    HW3 6181   1.292   3.192   2.693 -0.6300 -0.1336  2.0056
 1534SOL    MW4 6182   1.371   3.222   2.716  0.0278 -0.2067 -0.0782
 1535SOL     OW 6183   1.335   3.497   2.621 -0.0163  0.1515 -0.5507
 1535SOL    HW2 6184   1.350   3.407   2.649 -0.5773  0.0799 -0.4857
 1535SOL    HW3 6185   1.248   3.519   2.655  0.1329  0.7291 -0.5333
 1535SOL    MW4 6186   1.326   3.488   2.629 -0.0707  0.2182 -0.5398
 1536SOL     OW 6187   1.581   3.622   2.729 -0.2139 -0.0202  0.0456
 1536SOL    HW2 6188   1.652   3.560   2.710 -1.1389 -1.3203  0.7335
 1536SOL    HW3 6189   1.506   3.586   2.682 -0.7566  0.5927  0.4459
 1536SOL    MW4 6190   1.580   3.609   2.720 -0.4075 -0.1109  0.1891
 1537SOL     OW 6191   1.563   3.879   2.639  0.4914  0.1718  0.0396
 1537SOL    HW2 6192   1.476   3.908   2.666 -0.6119  0.8795 -3.9411
 1537SOL    HW3 6193   1.567   3.787   2.666 -1.0324  0.4660  1.3337
 1537SOL    MW4 6194   1.552   3.871   2.646  0.1448  0.3042 -0.3147
 1538SOL     OW 6195   1.311   3.984   2.688 -0.1642  0.4938  0.3278
 1538SOL    HW2 6196   1.317   3.998   2.783 -2.9104  1.0198  0.4710
 1538SOL    HW3 6197   1.327   4.070   2.650 -1.9266  0.8944  0.4689
 1538SOL    MW4 6198   1.314   3.997   2.696 -0.7591  0.6158  0.3653
 1539SOL     OW 6199   1.379   4.240   2.601  0.0175  0.0356  0.2537
 1539SOL    HW2 6200   1.301   4.285   2.635  0.2356  0.2544  0.4667
 1539SOL    HW3 6201   1.371   4.247   2.506 -0.6978 -0.7599  0.2529
 1539SOL    MW4 6202   1.368   4.247   2.593 -0.0483 -0.0401  0.2818
 1540SOL     OW 6203   1.605   4.383   2.719  0.3149  0.4813  0.1289
 1540SOL    HW2 6204   1.595   4.395   2.813 -0.7398 -0.1242  0.1048
 1540SOL    HW3 6205   1.524   4.341   2.692  1.4331 -1.1749 -0.7228
 1540SOL    MW4 6206   1.593   4.379   2.728  0.3234  0.1831  0.0134
 1541SOL     OW 6207   2.017   0.010   2.622  0.3405 -0.4117 -0.4365
 1541SOL    HW2 6208   2.097   0.056   2.648 -0.2988  0.0088  0.8694
 1541SOL    HW3 6209   2.022   0.005   2.527  1.4202  0.5422 -0.4495
 1541SOL    MW4 6210   2.028   0.016   2.613  0.3986 -0.2304 -0.2658
 1542SOL     OW 6211   1.801   0.107   2.762  0.3365  0.2171  0.1427
 1542SOL    HW2 6212   1.866   0.050   2.721 -1.6209 -1.6365 -0.5342
 1542SOL    HW3 6213   1.717   0.074   2.729 -0.9537  2.4201  1.1213
 1542SOL    MW4 6214   1.798   0.095   2.752 -0.0921  0.2632  0.1829
 1543SOL     OW 6215   1.830   0.357   2.643  0.1158  0.2090  0.0528
 1543SOL    HW2 6216   1.912   0.403   2.662  0.1489 -0.0893  0.6383
 1543SOL    HW3 6217   1.840   0.272   2.685  0.2479 -0.5196 -1.4420
 1543SOL    MW4 6218   1.842   0.352   2.651  0.1377  0.0735 -0.0672
 1544SOL     OW 6219   2.051   0.491   2.725  0.4058  0.2339 -0.0136
 1544SOL    HW2 6220   2.128   0.451   2.684  0.0327 -0.1019 -0.3957
 1544SOL    HW3 6221   2.054   0.583   2.696  1.5811  0.6335  1.3364
 1544SOL    MW4 6222   2.061   0.498   2.716  0.5114  0.2423  0.1140
 1545SOL     OW 6223   2.031   0.746   2.644  0.2744  0.0399  0.6161
 1545SOL    HW2 6224   1.945   0.785   2.662 -0.0940 -0.9830  1.1125
 1545SOL    HW3 6225   2.039   0.749   2.548 -0.4605 -0.1506  0.5466
 1545SOL    MW4 6226   2.021   0.752   2.633  0.1290 -0.1202  0.6721
 1546SOL     OW 6227   1.790   0.835   2.724 -0.0746 -0.2253  0.0802
 1546SOL    HW2 6228   1.787   0.925   2.690  1.3560 -0.6969 -1.3614
 1546SOL    HW3 6229   1.705   0.798   2.700 -0.0997  0.2956 -0.6582
 1546SOL    MW4 6230   1.778   0.842   2.716  0.1109 -0.2188 -0.2074
 1547SOL     OW 6231   1.804   1.117   2.624  0.2433  0.3900  0.1665
 1547SOL    HW2 6232   1.871   1.174   2.660  0.2149  0.4508  0.1233
 1547SOL    HW3 6233   1.793   1.146   2.534  0.9888 -0.3756 -0.1788
 1547SOL    MW4 6234   1.811   1.128   2.617  0.3380  0.2970  0.1152
 1548SOL     OW 6235   2.015   1.276   2.694 -0.1192  0.2703  0.6731
 1548SOL    HW2 6236   2.021   1.270   2.789 -1.8612 -1.5374  0.7098
 1548SOL    HW3 6237   2.099   1.242   2.663 -0.1299 -0.5906  1.5530
 1548SOL    MW4 6238   2.027   1.271   2.702 -0.3505 -0.0818  0.7939
 1549SOL     OW 6239   2.029   1.550   2.599  0.1642 -0.0624 -0.3632
 1549SOL    HW2 6240   1.946   1.581   2.636 -1.0313  0.2058 -3.1775
 1549SOL    HW3 6241   2.034   1.458   2.626 -1.1294 -0.1205 -0.2699
 1549SOL    MW4 6242   2.018   1.542   2.608 -0.1643 -0.0347 -0.7224
 1550SOL     OW 6243   1.803   1.686   2.706  0.1431 -0.0579 -0.4424
 1550SOL    HW2 6244   1.825   1.687   2.799  0.7447  0.8625 -0.5909
 1550SOL    HW3 6245   1.714   1.652   2.703 -0.5105  1.5038  0.5968
 1550SOL    MW4 6246   1.794   1.681   2.718  0.1363  0.2697 -0.3247
 1551SOL     OW 6247   1.786   1.928   2.574  0.1723 -0.1500  0.6046
 1551SOL    HW2 6248   1.862   1.977   2.607  0.8734 -0.7555 -0.0828
 1551SOL    HW3 6249   1.788   1.845   2.621  0.6148 -0.6251 -0.2232
 1551SOL    MW4 6250   1.796   1.924   2.584  0.3232 -0.2925  0.4044
 1552SOL     OW 6251   1.990   2.085   2.686 -0.2589 -0.8119  0.2112
 1552SOL    HW2 6252   1.986   2.067   2.780 -1.5082 -0.9137  0.1502
 1552SOL    HW3 6253   2.000   2.179   2.679  0.6888 -0.8900  0.4535
 1552SOL    MW4 6254   1.991   2.095   2.697 -0.2987 -0.8354  0.2353
 1553SOL     OW 6255   2.023   2.341   2.617  0.5618 -0.3226 -0.6203
 1553SOL    HW2 6256   2.104   2.388   2.636  0.4128  0.0712 -0.9519
 1553SOL    HW3 6257   2.021   2.332   2.522 -0.2380  0.4899 -0.6871
 1553SOL    MW4 6258   2.033   2.346   2.607  0.4365 -0.1638 -0.6728
 1554SOL     OW 6259   1.814   2.502   2.710  0.1593  0.6157  0.0407
 1554SOL    HW2 6260   1.798   2.490   2.803 -0.3585  0.5116 -0.0615
 1554SOL    HW3 6261   1.891   2.448   2.692  0.4711  0.9110  0.4768
 1554SOL    MW4 6262   1.822   2.494   2.720  0.1322  0.6409  0.0846
 1555SOL     OW 6263   1.798   2.744   2.615  0.4645 -0.0604 -0.3707
 1555SOL    HW2 6264   1.796   2.656   2.652 -1.7137 -0.3127 -1.0383
 1555SOL    HW3 6265   1.786   2.731   2.521 -0.6586  0.9883 -0.3801
 1555SOL    MW4 6266   1.797   2.731   2.607  0.0291  0.0446 -0.4599
 1556SOL     OW 6267   2.060   2.779   2.735  0.2316  0.1175  0.0509
 1556SOL    HW2 6268   2.139   2.757   2.685  0.6013  0.9158  0.2714
 1556SOL    HW3 6269   1.989   2.738   2.687  0.6247  0.5452 -0.9206
 1556SOL    MW4 6270   2.061   2.771   2.722  0.3321  0.2792 -0.0482
 1557SOL     OW 6271   2.034   3.063   2.664 -0.0561  0.1215 -0.5202
 1557SOL    HW2 6272   2.034   2.967   2.672  0.7878  0.1379 -0.2684
 1557SOL    HW3 6273   2.034   3.079   2.570  0.8950 -0.1394 -0.5727
 1557SOL    MW4 6274   2.034   3.052   2.653  0.1805  0.0894 -0.4940
 1558SOL     OW 6275   1.797   3.192   2.752  0.0720  0.5840 -0.1604
 1558SOL    HW2 6276   1.794   3.274   2.704  1.6263  0.5048 -0.4170
 1558SOL    HW3 6277   1.882   3.154   2.729 -0.3499 -0.7685  0.4784
 1558SOL    MW4 6278   1.808   3.198   2.742  0.2214  0.3951 -0.1099
 1559SOL     OW 6279   1.776   3.443   2.634 -0.3022  0.4431 -0.2529
 1559SOL    HW2 6280   1.850   3.490   2.675 -0.1819 -0.8564  1.0775
 1559SOL    HW3 6281   1.786   3.460   2.541  1.5250  0.5623 -0.0700
 1559SOL    MW4 6282   1.787   3.451   2.627 -0.0454  0.2875 -0.0532
 1560SOL     OW 6283   2.002   3.594   2.721 -0.3296 -0.2441 -0.1595
 1560SOL    HW2 6284   2.004   3.590   2.816 -0.8334 -2.4490 -0.1980
 1560SOL    HW3 6285   2.074   3.536   2.693 -0.1504  0.4250 -1.1082
 1560SOL    MW4 6286   2.012   3.586   2.730 -0.3726 -0.4468 -0.2897
 1561SOL     OW 6287   2.037   3.856   2.618 -0.1561 -0.3807  0.8426
 1561SOL    HW2 6288   1.958   3.904   2.643 -0.2007 -0.7069  1.3399
 1561SOL    HW3 6289   2.020   3.766   2.647  0.4088 -0.4438  0.9884
 1561SOL    MW4 6290   2.024   3.850   2.625 -0.0877 -0.4323  0.9274
 1562SOL     OW 6291   1.809   3.991   2.709  0.4379 -0.0946 -0.6402
 1562SOL    HW2 6292   1.801   4.082   2.680  0.1756 -0.0201 -0.3364
 1562SOL    HW3 6293   1.727   3.950   2.679  0.4957 -0.1970 -0.6572
 1562SOL    MW4 6294   1.797   3.998   2.701  0.4110 -0.0985 -0.6025
 1563SOL     OW 6295   1.839   4.255   2.641  0.3725  0.5949 -0.3275
 1563SOL    HW2 6296   1.756   4.296   2.665  0.1914  0.2385 -0.3375
 1563SOL    HW3 6297   1.834   4.244   2.546  0.6158  0.9745 -0.3850
 1563SOL    MW4 6298   1.827   4.259   2.632  0.3806  0.5980 -0.3366
 1564SOL     OW 6299   2.041   4.422   2.728  0.4391 -0.4445  0.6270
 1564SOL    HW2 6300   1.967   4.371   2.695  0.7581 -1.5472  1.5532
 1564SOL    HW3 6301   2.031   4.508   2.689  1.0639 -1.8139 -2.7557
 1564SOL    MW4 6302   2.030   4.427   2.718  0.5639 -0.7710  0.3030
 1565SOL     OW 6303   2.525   0.026   2.652 -0.3877  0.2497 -0.0773
 1565SOL    HW2 6304   2.597   0.081   2.683  0.2740 -0.7385  0.1638
 1565SOL    HW3 6305   2.529   0.033   2.556 -0.4268  0.7599 -0.0441
 1565SOL    MW4 6306   2.535   0.034   2.643 -0.3054  0.1866 -0.0412
 1566SOL     OW 6307   2.261   0.103   2.724 -0.4652 -0.2835 -0.6552
 1566SOL    HW2 6308   2.253   0.084   2.818  0.7115  1.8119 -0.0800
 1566SOL    HW3 6309   2.353   0.084   2.704 -0.5051  0.0695 -1.1771
 1566SOL    MW4 6310   2.272   0.098   2.734 -0.3152  0.0396 -0.6485
 1567SOL     OW 6311   2.268   0.347   2.625  0.4750 -0.6924 -0.1544
 1567SOL    HW2 6312   2.275   0.259   2.663 -0.3241 -0.6950  0.0054
 1567SOL    HW3 6313   2.266   0.332   2.530  1.3656 -0.7669 -0.1669
 1567SOL    MW4 6314   2.269   0.334   2.617  0.4871 -0.7026 -0.1349
 1568SOL     OW 6315   2.493   0.466   2.740  0.6622 -0.0139 -0.2803
 1568SOL    HW2 6316   2.476   0.556   2.713  0.1275 -0.3719 -1.1564
 1568SOL    HW3 6317   2.415   0.417   2.713  0.5937 -0.5929  0.9127
 1568SOL    MW4 6318   2.480   0.471   2.733  0.5825 -0.1376 -0.2382
 1569SOL     OW 6319   2.461   0.732   2.645  0.0235 -0.3603  0.3511
 1569SOL    HW2 6320   2.396   0.794   2.678  0.2812 -0.7866  1.7185
 1569SOL    HW3 6321   2.456   0.739   2.550 -0.6665  1.0118  0.4786
 1569SOL    MW4 6322   2.452   0.741   2.637 -0.0336 -0.2356  0.5484
 1570SOL     OW 6323   2.247   0.895   2.732 -0.8654  0.5446  0.2720
 1570SOL    HW2 6324   2.247   0.877   2.826  0.6065 -1.8335 -0.1507
 1570SOL    HW3 6325   2.176   0.840   2.698  0.4976 -0.8415 -0.3789
 1570SOL    MW4 6326   2.237   0.885   2.740 -0.4914  0.0480  0.1304
 1571SOL     OW 6327   2.244   1.153   2.621  0.2111 -0.1494 -0.0467
 1571SOL    HW2 6328   2.234   1.066   2.659 -1.2428 -0.5555 -1.2784
 1571SOL    HW3 6329   2.234   1.139   2.527 -0.2432  1.3738 -0.2414
 1571SOL    MW4 6330   2.241   1.140   2.613 -0.0408 -0.0020 -0.2351
 1572SOL     OW 6331   2.477   1.278   2.668  0.2414 -0.4121  0.0135
 1572SOL    HW2 6332   2.555   1.238   2.630  0.6871  0.7349 -0.2991
 1572SOL    HW3 6333   2.404   1.223   2.638  0.6346  0.1887 -2.0921
 1572SOL    MW4 6334   2.477   1.265   2.659  0.3519 -0.1814 -0.3054
 1573SOL     OW 6335   2.461   1.546   2.631  0.6791  0.0921  0.3090
 1573SOL    HW2 6336   2.386   1.580   2.680 -1.1136 -2.4423 -0.5812
 1573SOL    HW3 6337   2.469   1.455   2.658  2.2225 -0.2231 -1.0809
 1573SOL    MW4 6338   2.452   1.538   2.641  0.6464 -0.2838  0.0081
 1574SOL     OW 6339   2.235   1.700   2.736  0.0141 -0.3761 -0.3552
 1574SOL    HW2 6340   2.224   1.783   2.690 -0.6842  1.0360  2.2422
 1574SOL    HW3 6341   2.156   1.650   2.715 -0.0450  0.0215 -1.1018
 1574SOL    MW4 6342   2.223   1.704   2.727 -0.0858 -0.1372 -0.1106
 1575SOL     OW 6343   2.235   1.953   2.625  0.3795  0.1244 -0.3167
 1575SOL    HW2 6344   2.156   2.005   2.641  0.0171 -0.2118 -0.9946
 1575SOL    HW3 6345   2.244   1.952   2.530  0.1785 -1.3473 -0.3359
 1575SOL    MW4 6346   2.226   1.959   2.615  0.3049 -0.1142 -0.4089
 1576SOL     OW 6347   2.487   2.027   2.711 -0.7070 -0.0494  0.1933
 1576SOL    HW2 6348   2.484   2.114   2.671  1.5882 -0.5074 -1.0085
 1576SOL    HW3 6349   2.405   1.985   2.683 -1.1688  1.2086 -0.3622
 1576SOL    MW4 6350   2.476   2.033   2.702 -0.4652  0.0565 -0.0389
 1577SOL     OW 6351   2.447   2.305   2.611 -0.4624 -0.0710  0.3685
 1577SOL    HW2 6352   2.519   2.360   2.640 -0.2536 -0.1323 -0.0225
 1577SOL    HW3 6353   2.464   2.290   2.518  0.1336 -1.7754  0.7200
 1577SOL    MW4 6354   2.459   2.310   2.602 -0.3564 -0.3042  0.3633
 1578SOL     OW 6355   2.252   2.450   2.749 -0.6527  0.2419  0.1397
 1578SOL    HW2 6356   2.232   2.425   2.840  0.5805  0.8281  0.5889
 1578SOL    HW3 6357   2.315   2.385   2.720  0.7074  1.3752  0.4933
 1578SOL    MW4 6358   2.257   2.438   2.757 -0.3107  0.4690  0.2453
 1579SOL     OW 6359   2.270   2.688   2.597 -0.1785 -0.0349  0.1318
 1579SOL    HW2 6360   2.357   2.719   2.623 -0.3122  0.4816 -0.0289
 1579SOL    HW3 6361   2.249   2.620   2.661  0.0621  0.3057  0.5793
 1579SOL    MW4 6362   2.279   2.683   2.609 -0.1645  0.0780  0.1698
 1580SOL     OW 6363   2.512   2.811   2.688  0.2784  0.0283  0.6660
 1580SOL    HW2 6364   2.584   2.769   2.641  1.2996  0.4155  1.8567
 1580SOL    HW3 6365   2.508   2.899   2.653  0.6321  0.1226  0.8603
 1580SOL    MW4 6366   2.521   2.817   2.677  0.4597  0.0918  0.8485
 1581SOL     OW 6367   2.462   3.053   2.585 -0.1228 -0.0878 -0.4143
 1581SOL    HW2 6368   2.396   3.104   2.632  1.1531  1.0139  0.2137
 1581SOL    HW3 6369   2.449   3.077   2.493  0.4274  1.3526 -0.1347
 1581SOL    MW4 6370   2.451   3.063   2.579  0.1178  0.2475 -0.2947
 1582SOL     OW 6371   2.266   3.186   2.719  0.2158  0.0426  0.2639
 1582SOL    HW2 6372   2.277   3.207   2.812  0.6924  0.7472  0.0509
 1582SOL    HW3 6373   2.182   3.140   2.714 -0.2436  0.8030  0.9135
 1582SOL    MW4 6374   2.256   3.183   2.731  0.2179  0.2358  0.3216
 1583SOL     OW 6375   2.207   3.425   2.609 -0.2311  0.3698 -0.2454
 1583SOL    HW2 6376   2.267   3.489   2.646 -1.2990  0.7188  0.9098
 1583SOL    HW3 6377   2.228   3.343   2.653 -0.3589  0.4114 -0.1075
 1583SOL    MW4 6378   2.218   3.423   2.619 -0.3886  0.4218 -0.0749
 1584SOL     OW 6379   2.423   3.585   2.679  0.2895 -0.3069  0.2697
 1584SOL    HW2 6380   2.420   3.610   2.771 -0.9431 -0.0795  0.1829
 1584SOL    HW3 6381   2.425   3.668   2.632  1.0439 -0.4248  0.1001
 1584SOL    MW4 6382   2.423   3.599   2.685  0.2260 -0.2925  0.2358
 1585SOL     OW 6383   2.432   3.878   2.606 -0.2575 -0.5972 -0.3904
 1585SOL    HW2 6384   2.510   3.917   2.645 -0.2464 -0.7669 -0.2438
 1585SOL    HW3 6385   2.361   3.939   2.628  0.1250  0.4853 -2.0399
 1585SOL    MW4 6386   2.433   3.891   2.614 -0.2053 -0.4768 -0.5887
 1586SOL     OW 6387   2.228   4.031   2.693 -0.2162 -0.3424 -0.0555
 1586SOL    HW2 6388   2.230   4.028   2.788  0.4038  0.8063 -0.0186
 1586SOL    HW3 6389   2.161   3.968   2.668 -0.2147 -0.8231  1.1283
 1586SOL    MW4 6390   2.220   4.023   2.702 -0.1342 -0.2546  0.1056
 1587SOL     OW 6391   2.266   4.283   2.607  0.1919 -0.0066 -0.0018
 1587SOL    HW2 6392   2.267   4.190   2.628  0.7953  0.0497  0.2450
 1587SOL    HW3 6393   2.195   4.319   2.660  0.4711 -0.1930  0.5027
 1587SOL    MW4 6394   2.257   4.276   2.617  0.3083 -0.0243  0.0973
 1588SOL     OW 6395   2.474   4.419   2.737  0.2124 -0.1982  0.0803
 1588SOL    HW2 6396   2.397   4.385   2.691  1.6441 -1.2874 -1.5618
 1588SOL    HW3 6397   2.485   4.508   2.703 -0.2865 -0.0456  0.3043
 1588SOL    MW4 6398   2.465   4.426   2.727  0.3355 -0.3219 -0.1066
 1589SOL     OW 6399   2.971   4.637   2.611 -0.6371  0.0371  0.2265
 1589SOL    HW2 6400   3.047   4.695   2.624  1.5120 -2.2973 -1.5184
 1589SOL    HW3 6401   2.951   4.644   2.518 -1.5480 -0.6469  0.3666
 1589SOL    MW4 6402   2.978   4.646   2.601 -0.4737 -0.3610  0.0148
 1590SOL     OW 6403   2.775   0.146   2.749  0.5655  0.1255 -0.1084
 1590SOL    HW2 6404   2.752   0.120   2.838  0.5801 -0.7823 -0.3672
 1590SOL    HW3 6405   2.836   0.078   2.719  1.8506  1.3110 -0.2176
 1590SOL    MW4 6406   2.780   0.133   2.757  0.7370  0.1622 -0.1569
 1591SOL     OW 6407   2.720   0.391   2.617 -0.1593 -0.0334  0.0912
 1591SOL    HW2 6408   2.743   0.309   2.661 -0.2632 -0.7844 -1.2177
 1591SOL    HW3 6409   2.638   0.418   2.657 -1.7013 -2.1683 -1.5188
 1591SOL    MW4 6410   2.712   0.383   2.628 -0.3765 -0.4141 -0.2937
 1592SOL     OW 6411   2.906   0.511   2.762  0.3685  0.1775 -0.2309
 1592SOL    HW2 6412   2.950   0.584   2.718  1.9578 -1.2508 -1.0659
 1592SOL    HW3 6413   2.840   0.481   2.699 -0.2359  0.8456  0.0837
 1592SOL    MW4 6414   2.903   0.517   2.748  0.4985  0.0772 -0.2997
 1593SOL     OW 6415   2.938   0.778   2.663  0.0835  0.3647  0.2993
 1593SOL    HW2 6416   3.003   0.837   2.700  0.6752  0.0388 -0.2117
 1593SOL    HW3 6417   2.859   0.792   2.717  0.8928 -0.0271  1.6165
 1593SOL    MW4 6418   2.936   0.787   2.675  0.2685  0.2699  0.4058
 1594SOL     OW 6419   2.700   0.840   2.770 -0.2416  0.5893  0.0707
 1594SOL    HW2 6420   2.671   0.849   2.861  0.5444  2.2948  0.1765
 1594SOL    HW3 6421   2.626   0.800   2.725 -2.0215  3.0336  0.7413
 1594SOL    MW4 6422   2.686   0.836   2.776 -0.3729  1.1368  0.1729
 1595SOL     OW 6423   2.698   1.090   2.644 -0.1963 -0.4573  0.0572
 1595SOL    HW2 6424   2.747   1.150   2.700  2.1772 -1.2623 -1.0719
 1595SOL    HW3 6425   2.709   1.005   2.685 -1.3064 -0.5410  0.1977
 1595SOL    MW4 6426   2.706   1.087   2.657 -0.0296 -0.5747 -0.0734
 1596SOL     OW 6427   2.897   1.254   2.754  0.0410 -0.2592  0.4051
 1596SOL    HW2 6428   2.896   1.266   2.849  0.9437 -0.7337  0.4829
 1596SOL    HW3 6429   2.972   1.196   2.738 -0.5611 -0.7930 -0.5257
 1596SOL    MW4 6430   2.907   1.248   2.765  0.0811 -0.3922  0.2925
 1597SOL     OW 6431   2.928   1.490   2.639  0.6316 -0.5030 -0.1721
 1597SOL    HW2 6432   2.845   1.534   2.656  0.3736 -0.5157 -1.3581
 1597SOL    HW3 6433   2.923   1.409   2.690  0.1852 -0.2082  0.2571
 1597SOL    MW4 6434   2.916   1.485   2.648  0.5388 -0.4659 -0.2718
 1598SOL     OW 6435   2.724   1.655   2.698 -0.4787  0.0781 -0.4667
 1598SOL    HW2 6436   2.722   1.682   2.790  2.4591 -1.7840  0.2051
 1598SOL    HW3 6437   2.636   1.620   2.682 -1.3670  1.4218  1.2913
 1598SOL    MW4 6438   2.712   1.654   2.708 -0.2084  0.0098 -0.1462
 1599SOL     OW 6439   2.703   1.908   2.592  0.4305 -0.1053  0.2931
 1599SOL    HW2 6440   2.708   1.816   2.618 -1.3331 -0.5812 -1.0047
 1599SOL    HW3 6441   2.635   1.945   2.648  0.3954  0.1589  0.0761
 1599SOL    MW4 6442   2.695   1.901   2.603  0.1929 -0.1332  0.0932
 1600SOL     OW 6443   2.908   2.038   2.741  0.1494 -0.0626 -0.4272
 1600SOL    HW2 6444   2.911   2.119   2.690 -1.4863 -0.0341 -0.5042
 1600SOL    HW3 6445   2.844   1.984   2.695  0.2180 -0.8531  0.4055
 1600SOL    MW4 6446   2.900   2.042   2.728 -0.0572 -0.1628 -0.3276
 1601SOL     OW 6447   2.933   2.283   2.579 -0.2955 -0.2155 -0.0606
 1601SOL    HW2 6448   3.010   2.321   2.620  0.3787 -1.9143  0.3067
 1601SOL    HW3 6449   2.860   2.334   2.613  0.5217  0.2792  0.9802
 1601SOL    MW4 6450   2.933   2.294   2.589 -0.0989 -0.3743  0.1252
 1602SOL     OW 6451   2.703   2.413   2.671  0.5193 -0.5655 -0.1051
 1602SOL    HW2 6452   2.709   2.423   2.766  0.7098 -0.0708 -0.1701
 1602SOL    HW3 6453   2.715   2.501   2.636 -0.0770 -0.6644 -0.5660
 1602SOL    MW4 6454   2.705   2.426   2.679  0.4659 -0.5131 -0.1745
 1603SOL     OW 6455   2.714   2.667   2.583  0.0512 -0.3742 -0.3871
 1603SOL    HW2 6456   2.790   2.719   2.610 -0.7010  0.9480 -0.7296
 1603SOL    HW3 6457   2.709   2.680   2.488 -1.1036  0.2662 -0.2524
 1603SOL    MW4 6458   2.723   2.676   2.574 -0.2005 -0.1152 -0.4144
 1604SOL     OW 6459   2.916   2.834   2.683 -0.3958  0.2335 -0.0610
 1604SOL    HW2 6460   2.913   2.843   2.778 -0.7048 -2.0060  0.1804
 1604SOL    HW3 6461   2.910   2.923   2.649 -0.4666  1.0310  2.0111
 1604SOL    MW4 6462   2.915   2.847   2.691 -0.4461  0.0432  0.2437
 1605SOL     OW 6463   2.924   3.093   2.601  0.3143  0.1003 -0.0554
 1605SOL    HW2 6464   2.838   3.127   2.622 -0.2017 -1.4587  0.4408
 1605SOL    HW3 6465   2.935   3.112   2.507 -0.2535  0.9555  0.0514
 1605SOL    MW4 6466   2.914   3.100   2.591  0.1714  0.0074  0.0243
 1606SOL     OW 6467   2.680   3.186   2.685 -0.4683 -0.1965  0.3361
 1606SOL    HW2 6468   2.670   3.280   2.670 -1.1415 -0.4090 -0.5897
 1606SOL    HW3 6469   2.598   3.148   2.653  0.3630 -1.2437 -0.5670
 1606SOL    MW4 6470   2.668   3.193   2.679 -0.4473 -0.3631  0.0949
 1607SOL     OW 6471   2.672   3.460   2.638  0.1757 -0.5572 -0.8814
 1607SOL    HW2 6472   2.596   3.509   2.670  1.2251  1.1452 -0.9002
 1607SOL    HW3 6473   2.663   3.461   2.543  0.7655  0.5871 -0.9355
 1607SOL    MW4 6474   2.661   3.467   2.630  0.3922 -0.1819 -0.8910
 1608SOL     OW 6475   2.914   3.603   2.680 -0.5510  0.1941 -0.0201
 1608SOL    HW2 6476   2.915   3.594   2.776 -0.0949 -1.1545 -0.1391
 1608SOL    HW3 6477   2.832   3.561   2.653 -0.6996  0.6153 -0.2121
 1608SOL    MW4 6478   2.903   3.596   2.689 -0.5102  0.0715 -0.0613
 1609SOL     OW 6479   2.899   3.875   2.633  0.2231 -0.2576 -0.0729
 1609SOL    HW2 6480   2.976   3.925   2.661  0.3812  0.2328 -1.3394
 1609SOL    HW3 6481   2.922   3.784   2.652  0.8342 -0.0531  0.1975
 1609SOL    MW4 6482   2.912   3.869   2.639  0.3245 -0.1659 -0.2043
 1610SOL     OW 6483   2.665   3.996   2.713  0.0920  0.2271  0.1910
 1610SOL    HW2 6484   2.676   4.090   2.702  0.1825  0.2042  0.0790
 1610SOL    HW3 6485   2.741   3.958   2.668 -0.4455  0.0625 -0.5851
 1610SOL    MW4 6486   2.677   4.003   2.706  0.0329  0.2017  0.0737
 1611SOL     OW 6487   2.700   4.276   2.655  0.1308  0.1166 -0.0359
 1611SOL    HW2 6488   2.782   4.322   2.673 -0.7346  2.2217 -1.3763
 1611SOL    HW3 6489   2.631   4.337   2.680 -1.0406 -0.6130 -1.3697
 1611SOL    MW4 6490   2.702   4.290   2.660 -0.1380  0.2985 -0.3886
 1612SOL     OW 6491   2.950   4.386   2.690  0.2937  0.3556 -0.0871
 1612SOL    HW2 6492   2.940   4.389   2.785  0.8574  1.1458 -0.0486
 1612SOL    HW3 6493   2.946   4.478   2.663  3.1364  0.3674 -0.5321
 1612SOL    MW4 6494   2.948   4.399   2.699  0.7432  0.4621 -0.1404
 1613SOL     OW 6495   3.396   4.661   2.638 -0.3792  0.0358  0.0689
 1613SOL    HW2 6496   3.379   4.573   2.672 -1.7510  0.5317  0.7321
 1613SOL    HW3 6497   3.319   4.711   2.665  0.5866  1.5368  0.0613
 1613SOL    MW4 6498   3.384   4.656   2.646 -0.4327  0.2990  0.1557
 1614SOL     OW 6499   3.181   0.126   2.742  0.3224  0.0106  0.0619
 1614SOL    HW2 6500   3.161   0.114   2.835 -0.6046 -2.1012 -0.3714
 1614SOL    HW3 6501   3.152   0.215   2.722 -0.4831  0.0960  1.5516
 1614SOL    MW4 6502   3.174   0.136   2.751  0.0937 -0.2567  0.2010
 1615SOL     OW 6503   3.133   0.387   2.650 -0.0220  0.1812 -0.5567
 1615SOL    HW2 6504   3.044   0.412   2.675 -0.7746 -1.4809 -1.4579
 1615SOL    HW3 6505   3.139   0.410   2.557  0.2196 -0.4391 -0.6945
 1615SOL    MW4 6506   3.122   0.393   2.641 -0.0896 -0.1200 -0.6938
 1616SOL     OW 6507   3.331   0.499   2.791 -0.4012 -0.0880  0.4447
 1616SOL    HW2 6508   3.350   0.587   2.759 -0.0640 -0.5677 -0.6862
 1616SOL    HW3 6509   3.264   0.466   2.732 -0.7858 -0.4656  1.0834
 1616SOL    MW4 6510   3.325   0.506   2.779 -0.4072 -0.2012  0.3798
 1617SOL     OW 6511   3.379   0.767   2.665 -0.1941 -0.4066 -0.0797
 1617SOL    HW2 6512   3.464   0.807   2.688 -0.5691  0.2269  0.2253
 1617SOL    HW3 6513   3.374   0.775   2.570 -0.0177 -0.2342 -0.0758
 1617SOL    MW4 6514   3.390   0.773   2.656 -0.2198 -0.3003 -0.0391
 1618SOL     OW 6515   3.162   0.912   2.763  0.7672 -0.1997 -0.2657
 1618SOL    HW2 6516   3.174   0.905   2.858 -1.1420  1.8873  0.1643
 1618SOL    HW3 6517   3.237   0.866   2.726  1.1420 -1.7058  2.2521
 1618SOL    MW4 6518   3.173   0.905   2.771  0.5643 -0.1231  0.1233
 1619SOL     OW 6519   3.157   1.166   2.672 -0.0932  0.1833  0.4056
 1619SOL    HW2 6520   3.165   1.079   2.710 -1.4993 -0.5122 -0.8168
 1619SOL    HW3 6521   3.167   1.152   2.578 -0.5814  1.2961  0.1811
 1619SOL    MW4 6522   3.159   1.153   2.665 -0.3433  0.2383  0.2148
 1620SOL     OW 6523   3.416   1.245   2.754 -0.1130 -0.3587 -0.4441
 1620SOL    HW2 6524   3.417   1.254   2.849 -1.5952  1.7681 -0.6000
 1620SOL    HW3 6525   3.328   1.214   2.733  0.1641 -0.6896 -1.1363
 1620SOL    MW4 6526   3.405   1.242   2.763 -0.2720 -0.1216 -0.5560
 1621SOL     OW 6527   3.392   1.468   2.596 -0.0460 -0.3505 -0.8511
 1621SOL    HW2 6528   3.315   1.519   2.622  1.3018  1.1081  0.4177
 1621SOL    HW3 6529   3.391   1.391   2.653 -1.1336 -0.8821 -1.5740
 1621SOL    MW4 6530   3.382   1.465   2.607 -0.0114 -0.2283 -0.7792
 1622SOL     OW 6531   3.172   1.634   2.674  0.7273  0.3171  0.3367
 1622SOL    HW2 6532   3.157   1.724   2.646  2.2203  0.4943  0.0402
 1622SOL    HW3 6533   3.085   1.594   2.675  0.2622  1.2072 -1.4720
 1622SOL    MW4 6534   3.159   1.641   2.670  0.8626  0.4579  0.0587
 1623SOL     OW 6535   3.149   1.925   2.615  0.0410  0.3396 -0.1702
 1623SOL    HW2 6536   3.227   1.974   2.641  0.8829 -1.0191 -0.1199
 1623SOL    HW3 6537   3.076   1.978   2.648  0.8775  2.1512 -1.1263
 1623SOL    MW4 6538   3.149   1.938   2.623  0.2625  0.3995 -0.2897
 1624SOL     OW 6539   3.376   2.080   2.686  0.4541 -0.1566  0.0519
 1624SOL    HW2 6540   3.377   2.078   2.782 -1.7149  1.0014  0.1177
 1624SOL    HW3 6541   3.393   2.171   2.663 -0.8057 -0.0741 -0.6097
 1624SOL    MW4 6542   3.378   2.092   2.696  0.0014  0.0072 -0.0267
 1625SOL     OW 6543   3.406   2.336   2.607 -0.3848 -0.3260  0.1940
 1625SOL    HW2 6544   3.481   2.391   2.626  0.6367 -1.4348 -0.4988
 1625SOL    HW3 6545   3.404   2.332   2.511  0.4562 -2.6455  0.2380
 1625SOL    MW4 6546   3.415   2.342   2.597 -0.1390 -0.7780  0.1082
 1626SOL     OW 6547   3.157   2.380   2.734 -0.1538 -0.0137  0.3827
 1626SOL    HW2 6548   3.154   2.473   2.709  0.7611  0.1681  0.9526
 1626SOL    HW3 6549   3.245   2.351   2.710 -0.8603 -1.0855 -1.0176
 1626SOL    MW4 6550   3.168   2.388   2.727 -0.1264 -0.1311  0.2732
 1627SOL     OW 6551   3.117   2.640   2.611  0.1113 -0.0751 -0.3834
 1627SOL    HW2 6552   3.181   2.701   2.648 -0.3561  0.3905 -0.3300
 1627SOL    HW3 6553   3.033   2.686   2.620 -0.3778 -1.1343  0.5397
 1627SOL    MW4 6554   3.114   2.654   2.617 -0.0148 -0.1535 -0.2544
 1628SOL     OW 6555   3.323   2.816   2.708 -0.5293 -0.1996  0.2420
 1628SOL    HW2 6556   3.354   2.815   2.799 -0.2688  2.2233  0.2114
 1628SOL    HW3 6557   3.399   2.789   2.657  0.5325  2.2630  0.4594
 1628SOL    MW4 6558   3.337   2.813   2.714 -0.3545  0.4449  0.2666
 1629SOL     OW 6559   3.315   3.081   2.647 -0.0296  0.1012  0.1607
 1629SOL    HW2 6560   3.306   2.992   2.682  1.4035  0.2518  0.9104
 1629SOL    HW3 6561   3.308   3.069   2.552  0.8723 -0.9151  0.2030
 1629SOL    MW4 6562   3.313   3.067   2.639  0.2785 -0.0131  0.2651
 1630SOL     OW 6563   3.115   3.244   2.735 -0.4351  0.4218  0.5444
 1630SOL    HW2 6564   3.184   3.188   2.700 -0.9970 -0.8690  1.4714
 1630SOL    HW3 6565   3.034   3.208   2.699 -0.6477  2.0563 -0.7126
 1630SOL    MW4 6566   3.113   3.232   2.726 -0.5369  0.4668  0.5007
 1631SOL     OW 6567   3.144   3.482   2.602  0.2967  0.3458  0.3138
 1631SOL    HW2 6568   3.124   3.399   2.645  0.2903  0.0592 -0.2340
 1631SOL    HW3 6569   3.067   3.537   2.619 -0.2192 -0.1680 -0.3169
 1631SOL    MW4 6570   3.131   3.478   2.610  0.2279  0.2403  0.1583
 1632SOL     OW 6571   3.356   3.613   2.715  0.2014  0.1975  0.0254
 1632SOL    HW2 6572   3.355   3.585   2.807  0.9225 -0.7540 -0.2403
 1632SOL    HW3 6573   3.273   3.582   2.680 -0.2488  0.9084  0.4497
 1632SOL    MW4 6574   3.345   3.605   2.723  0.2372  0.1657  0.0463
 1633SOL     OW 6575   3.331   3.877   2.623 -0.0509  0.4046  0.2349
 1633SOL    HW2 6576   3.335   3.782   2.635  1.8022  0.4290 -0.0143
 1633SOL    HW3 6577   3.329   3.889   2.528 -1.6906  0.5769  0.2885
 1633SOL    MW4 6578   3.332   3.866   2.612 -0.0226  0.4306  0.2089
 1634SOL     OW 6579   3.136   4.014   2.739 -0.2543  0.0322  0.2584
 1634SOL    HW2 6580   3.134   4.094   2.687 -0.4011  0.0957  0.3601
 1634SOL    HW3 6581   3.210   3.964   2.704  0.4326  0.6378  0.8254
 1634SOL    MW4 6582   3.145   4.018   2.728 -0.1831  0.1206  0.3464
 1635SOL     OW 6583   3.164   4.244   2.578 -0.0818 -0.1201  0.3109
 1635SOL    HW2 6584   3.095   4.298   2.618  0.2337 -0.3548  1.1946
 1635SOL    HW3 6585   3.142   4.242   2.485 -0.9008  0.3551  0.4838
 1635SOL    MW4 6586   3.152   4.251   2.571 -0.1483 -0.0887  0.4501
 1636SOL     OW 6587   3.401   4.365   2.702  0.6052  0.1360  0.4085
 1636SOL    HW2 6588   3.388   4.374   2.796  0.3161 -1.0400  0.4993
 1636SOL    HW3 6589   3.317   4.331   2.670  0.9718 -0.2559 -0.1468
 1636SOL    MW4 6590   3.388   4.361   2.710  0.6154 -0.0706  0.3471
 1637SOL     OW 6591   3.795   4.645   2.659  0.1881 -0.2208 -0.1993
 1637SOL    HW2 6592   3.787   4.555   2.690  0.0989 -0.2856 -0.4083
 1637SOL    HW3 6593   3.725   4.692   2.704  0.8518 -0.0453  0.6646
 1637SOL    MW4 6594   3.785   4.639   2.669  0.2637 -0.2060 -0.1130
 1638SOL     OW 6595   3.582   0.127   2.770 -0.1877  0.3978  0.0393
 1638SOL    HW2 6596   3.578   0.216   2.733  0.0684  0.3805 -0.0324
 1638SOL    HW3 6597   3.516   0.078   2.721  0.2310  0.3463 -0.4833
 1638SOL    MW4 6598   3.573   0.133   2.758 -0.0982  0.3887 -0.0389
 1639SOL     OW 6599   3.555   0.386   2.662 -0.1298 -0.3073  0.4796
 1639SOL    HW2 6600   3.625   0.442   2.695 -1.4081  1.5922  0.0119
 1639SOL    HW3 6601   3.475   0.419   2.704 -0.7841 -2.3947  0.9537
 1639SOL    MW4 6602   3.553   0.397   2.672 -0.3846 -0.3321  0.4804
 1640SOL     OW 6603   3.785   0.530   2.737  0.1132  0.3203  0.5552
 1640SOL    HW2 6604   3.803   0.533   2.831  1.6236  1.6821  0.2356
 1640SOL    HW3 6605   3.857   0.478   2.701 -0.6714 -0.5235  0.1843
 1640SOL    MW4 6606   3.797   0.523   2.745  0.2091  0.3886  0.4642
 1641SOL     OW 6607   3.824   0.792   2.637  0.1987 -0.8949 -0.0433
 1641SOL    HW2 6608   3.754   0.828   2.692 -0.3673  0.1900 -1.4482
 1641SOL    HW3 6609   3.818   0.697   2.650 -0.6027 -0.7080  0.9656
 1641SOL    MW4 6610   3.814   0.784   2.646  0.0181 -0.7271 -0.0951
 1642SOL     OW 6611   3.606   0.895   2.762  0.0424 -0.1935 -0.3423
 1642SOL    HW2 6612   3.595   0.910   2.856  1.1233 -1.8138  0.0679
 1642SOL    HW3 6613   3.629   0.980   2.726  1.3325  0.1002  1.1331
 1642SOL    MW4 6614   3.607   0.908   2.770  0.3552 -0.3685 -0.0935
 1643SOL     OW 6615   3.645   1.135   2.610  0.4415  0.1214  0.0312
 1643SOL    HW2 6616   3.716   1.191   2.641  1.0132  0.4600 -1.8066
 1643SOL    HW3 6617   3.565   1.181   2.634  0.8833  0.6338  0.5138
 1643SOL    MW4 6618   3.644   1.148   2.617  0.5753  0.2337 -0.1476
 1644SOL     OW 6619   3.850   1.303   2.706 -0.1790  0.2719 -0.1813
 1644SOL    HW2 6620   3.925   1.265   2.661 -0.3730 -1.1256  0.6375
 1644SOL    HW3 6621   3.841   1.391   2.668  1.1624  0.0381 -1.0825
 1644SOL    MW4 6622   3.858   1.310   2.695 -0.0279  0.0566 -0.1924
 1645SOL     OW 6623   3.829   1.553   2.604 -0.0640 -0.0719  0.0189
 1645SOL    HW2 6624   3.903   1.588   2.654  1.0277  0.1021 -1.6765
 1645SOL    HW3 6625   3.752   1.596   2.641  0.6347 -0.4690  1.9954
 1645SOL    MW4 6626   3.829   1.563   2.616  0.1721 -0.1012  0.0560
 1646SOL     OW 6627   3.606   1.624   2.711  0.3692 -0.1846  0.1299
 1646SOL    HW2 6628   3.594   1.708   2.666  1.9254 -0.3051 -0.5096
 1646SOL    HW3 6629   3.545   1.565   2.666 -1.2698  0.7589  1.0555
 1646SOL    MW4 6630   3.596   1.627   2.699  0.3581 -0.0761  0.1676
 1647SOL     OW 6631   3.572   1.877   2.619 -0.1050  0.0929 -0.7019
 1647SOL    HW2 6632   3.513   1.947   2.648 -0.3517 -0.2846 -0.2855
 1647SOL    HW3 6633   3.593   1.899   2.528  0.6345  1.2770 -0.2733
 1647SOL    MW4 6634   3.567   1.889   2.611 -0.0403  0.1993 -0.5906
 1648SOL     OW 6635   3.814   2.018   2.719 -0.0150 -0.2603  0.0223
 1648SOL    HW2 6636   3.893   1.974   2.689  0.1596  0.3385 -0.4005
 1648SOL    HW3 6637   3.743   1.979   2.668  0.1579  0.0512 -0.4542
 1648SOL    MW4 6638   3.815   2.007   2.708  0.0308 -0.1402 -0.0966
 1649SOL     OW 6639   3.826   2.286   2.643  0.2305 -0.4294 -0.4759
 1649SOL    HW2 6640   3.815   2.195   2.670 -1.5612 -0.0626  0.1128
 1649SOL    HW3 6641   3.822   2.284   2.547  0.6578 -1.0068 -0.4861
 1649SOL    MW4 6642   3.824   2.273   2.634  0.0505 -0.4573 -0.3996
 1650SOL     OW 6643   3.645   2.491   2.732  0.2550  0.0505 -0.4145
 1650SOL    HW2 6644   3.654   2.489   2.827 -0.3065 -0.0060 -0.3626
 1650SOL    HW3 6645   3.697   2.417   2.701 -0.7641 -0.8394 -0.0508
 1650SOL    MW4 6646   3.653   2.481   2.740  0.0465 -0.0741 -0.3595
 1651SOL     OW 6647   3.581   2.725   2.599 -0.4075  0.5403  0.1659
 1651SOL    HW2 6648   3.595   2.643   2.646  3.0821  1.0496  0.0945
 1651SOL    HW3 6649   3.622   2.711   2.514  0.7690  2.5445  0.3786
 1651SOL    MW4 6650   3.588   2.712   2.594  0.2081  0.8721  0.1848
 1652SOL     OW 6651   3.814   2.849   2.739  0.2286 -0.3327  0.3167
 1652SOL    HW2 6652   3.876   2.807   2.680  1.2430  0.6571  0.6503
 1652SOL    HW3 6653   3.728   2.826   2.704  0.8001 -0.6729 -0.8981
 1652SOL    MW4 6654   3.811   2.841   2.726  0.4377 -0.2468  0.2005
 1653SOL     OW 6655   3.815   3.113   2.640 -0.1669 -0.0210  0.3030
 1653SOL    HW2 6656   3.735   3.157   2.668 -0.8790 -0.8059 -0.4702
 1653SOL    HW3 6657   3.802   3.022   2.667  1.0400  0.1042  1.3615
 1653SOL    MW4 6658   3.803   3.107   2.647 -0.1018 -0.1078  0.3405
 1654SOL     OW 6659   3.584   3.217   2.720  0.0224 -0.0100 -0.1402
 1654SOL    HW2 6660   3.565   3.303   2.684  0.7019 -0.6229 -2.0715
 1654SOL    HW3 6661   3.508   3.163   2.695  0.6351 -0.5127 -0.9782
 1654SOL    MW4 6662   3.571   3.221   2.712  0.1929 -0.1574 -0.5052
 1655SOL     OW 6663   3.596   3.473   2.624  0.1576 -0.0341  0.5001
 1655SOL    HW2 6664   3.670   3.523   2.659 -0.4723  0.4233  1.1923
 1655SOL    HW3 6665   3.518   3.519   2.657 -0.4770  0.8885 -2.1789
 1655SOL    MW4 6666   3.595   3.486   2.633 -0.0091  0.1478  0.2379
 1656SOL     OW 6667   3.786   3.634   2.745  0.3662  0.2562 -0.5234
 1656SOL    HW2 6668   3.872   3.593   2.736  0.5642  0.1598  1.4657
 1656SOL    HW3 6669   3.796   3.721   2.707  1.4013  0.3124 -0.1328
 1656SOL    MW4 6670   3.798   3.640   2.739  0.5288  0.2508 -0.2093
 1657SOL     OW 6671   3.788   3.878   2.611  0.4386  0.0230  0.6574
 1657SOL    HW2 6672   3.855   3.943   2.631  0.7531  0.1167 -0.6469
 1657SOL    HW3 6673   3.707   3.916   2.643  0.5870  1.1707 -0.2993
 1657SOL    MW4 6674   3.786   3.891   2.617  0.4997  0.1869  0.3593
 1658SOL     OW 6675   3.546   4.002   2.726 -0.1073 -0.1904  0.3658
 1658SOL    HW2 6676   3.557   4.088   2.685  0.0746  0.6641  2.1830
 1658SOL    HW3 6677   3.463   3.970   2.692  0.3903  0.1644 -1.2562
 1658SOL    MW4 6678   3.537   4.009   2.716 -0.0174 -0.0305  0.3912
 1659SOL     OW 6679   3.580   4.231   2.570 -0.0246  0.2710  0.1555
 1659SOL    HW2 6680   3.510   4.285   2.606  0.3069  1.1056 -0.4303
 1659SOL    HW3 6681   3.577   4.247   2.476  1.8975  1.4895  0.2651
 1659SOL    MW4 6682   3.571   4.241   2.562  0.2730  0.5417  0.0923
 1660SOL     OW 6683   3.778   4.382   2.724  0.1084 -0.1550  0.0596
 1660SOL    HW2 6684   3.867   4.354   2.703  0.2905 -0.6383  1.4030
 1660SOL    HW3 6685   3.721   4.319   2.679  0.4254  0.5556 -1.3521
 1660SOL    MW4 6686   3.782   4.370   2.715  0.1743 -0.1249  0.0505
 1661SOL     OW 6687   4.231   4.645   2.616 -0.3258 -0.0655  0.1782
 1661SOL    HW2 6688   4.158   4.695   2.653  0.3337  0.1503  1.2013
 1661SOL    HW3 6689   4.309   4.682   2.657  0.4599  0.3925 -1.6825
 1661SOL    MW4 6690   4.232   4.656   2.626 -0.1349  0.0234  0.0677
 1662SOL     OW 6691   4.023   0.115   2.738  0.6115 -0.2205 -0.3822
 1662SOL    HW2 6692   4.019   0.133   2.832  0.7486  1.0309 -0.6094
 1662SOL    HW3 6693   3.938   0.076   2.718  0.0047  0.8944 -0.0128
 1662SOL    MW4 6694   4.011   0.112   2.748  0.5498  0.0917 -0.3633
 1663SOL     OW 6695   3.999   0.371   2.651  0.1898  0.2596  0.3742
 1663SOL    HW2 6696   4.000   0.284   2.690  1.3467  0.9205  1.8666
 1663SOL    HW3 6697   4.012   0.355   2.557 -0.7147 -1.2237  0.4762
 1663SOL    MW4 6698   4.001   0.357   2.643  0.2236  0.1511  0.5848
 1664SOL     OW 6699   4.217   0.542   2.753  0.4049 -0.2944 -0.2986
 1664SOL    HW2 6700   4.128   0.524   2.723 -0.4017  0.8108  1.3521
 1664SOL    HW3 6701   4.272   0.484   2.700 -1.3506 -1.5644 -0.7914
 1664SOL    MW4 6702   4.213   0.532   2.742  0.0672 -0.3162 -0.1459
 1665SOL     OW 6703   4.260   0.788   2.609 -0.0818  0.0571 -0.3623
 1665SOL    HW2 6704   4.258   0.700   2.647  0.5470 -0.0834 -0.6586
 1665SOL    HW3 6705   4.286   0.774   2.518 -1.3406  0.4164 -0.7935
 1665SOL    MW4 6706   4.263   0.774   2.602 -0.1645  0.0859 -0.4582
 1666SOL     OW 6707   4.047   0.932   2.726  0.2462 -0.0629 -0.0952
 1666SOL    HW2 6708   4.121   0.889   2.683  0.0770 -0.0221 -0.4343
 1666SOL    HW3 6709   3.970   0.902   2.677 -0.0080 -0.4964  0.5727
 1666SOL    MW4 6710   4.046   0.922   2.714  0.1898 -0.1146 -0.0517
 1667SOL     OW 6711   4.068   1.195   2.596  0.1014  0.0041 -0.2014
 1667SOL    HW2 6712   4.144   1.243   2.628  0.5188 -0.2780 -0.7595
 1667SOL    HW3 6713   4.060   1.120   2.654  0.7035 -0.3684 -0.5885
 1667SOL    MW4 6714   4.077   1.191   2.608  0.2351 -0.0823 -0.3259
 1668SOL     OW 6715   4.263   1.318   2.741 -0.3690  0.1714 -0.1097
 1668SOL    HW2 6716   4.272   1.413   2.735 -0.2356  0.1826  0.3204
 1668SOL    HW3 6717   4.343   1.284   2.702  0.4401  0.2488  1.4858
 1668SOL    MW4 6718   4.275   1.326   2.735 -0.2446  0.1830  0.1576
 1669SOL     OW 6719   4.280   1.572   2.643 -0.1633 -0.0261 -0.1728
 1669SOL    HW2 6720   4.360   1.621   2.664 -0.4942  0.7585 -0.7247
 1669SOL    HW3 6721   4.282   1.562   2.548  0.9845 -2.9846  0.0843
 1669SOL    MW4 6722   4.291   1.577   2.633 -0.0558 -0.3129 -0.2115
 1670SOL     OW 6723   4.050   1.673   2.727 -0.0265 -0.1248 -0.3080
 1670SOL    HW2 6724   4.057   1.675   2.822 -1.3945 -2.0464 -0.1350
 1670SOL    HW3 6725   4.131   1.631   2.697  0.0362 -0.2698  0.0650
 1670SOL    MW4 6726   4.062   1.668   2.735 -0.1988 -0.3974 -0.2360
 1671SOL     OW 6727   4.055   1.906   2.599 -0.7150 -0.1135  0.3308
 1671SOL    HW2 6728   4.124   1.952   2.646  0.0633 -0.5021 -0.4077
 1671SOL    HW3 6729   4.063   1.815   2.628  0.1632 -0.4726 -0.9845
 1671SOL    MW4 6730   4.065   1.900   2.609 -0.4959 -0.2122  0.0598
 1672SOL     OW 6731   4.269   2.044   2.731 -0.1201 -0.1572 -0.1403
 1672SOL    HW2 6732   4.260   2.132   2.694 -1.7359 -1.2111 -2.3708
 1672SOL    HW3 6733   4.341   2.005   2.683  0.5962 -0.0718  0.8491
 1672SOL    MW4 6734   4.277   2.051   2.720 -0.2384 -0.2849 -0.3042
 1673SOL     OW 6735   4.251   2.295   2.610  0.0359  0.3134 -0.3607
 1673SOL    HW2 6736   4.178   2.346   2.644  0.6771  0.9947  0.0249
 1673SOL    HW3 6737   4.234   2.288   2.516 -0.2421  0.9497 -0.3601
 1673SOL    MW4 6738   4.239   2.301   2.602  0.0844  0.4873 -0.3097
 1674SOL     OW 6739   4.049   2.445   2.717 -0.1075 -0.1495  0.1221
 1674SOL    HW2 6740   4.056   2.439   2.812 -1.0272  0.8644  0.2578
 1674SOL    HW3 6741   3.972   2.393   2.695  0.2146 -0.5405 -0.0944
 1674SOL    MW4 6742   4.040   2.437   2.727 -0.1860 -0.0672  0.1116
 1675SOL     OW 6743   4.015   2.700   2.623  0.3612  0.0017  0.3910
 1675SOL    HW2 6744   4.086   2.744   2.670 -0.5084  0.4018  1.3623
 1675SOL    HW3 6745   4.017   2.610   2.653  0.7621 -0.1006  0.0560
 1675SOL    MW4 6746   4.025   2.694   2.633  0.2990  0.0412  0.4752
 1676SOL     OW 6747   4.233   2.825   2.739  0.1304 -0.8584  0.9610
 1676SOL    HW2 6748   4.254   2.833   2.832  1.0443  1.4273  0.5964
 1676SOL    HW3 6749   4.265   2.906   2.700 -0.6750 -1.5700 -1.2822
 1676SOL    MW4 6750   4.240   2.837   2.746  0.1445 -0.6509  0.6168
 1677SOL     OW 6751   4.261   3.096   2.629  0.2074  0.1879  0.0430
 1677SOL    HW2 6752   4.180   3.142   2.653 -0.2257 -0.9795  0.8517
 1677SOL    HW3 6753   4.267   3.106   2.534 -0.1696  1.4394  0.1412
 1677SOL    MW4 6754   4.251   3.103   2.620  0.1001  0.1991  0.1626
 1678SOL     OW 6755   4.043   3.248   2.724 -0.3087  0.3281  0.3592
 1678SOL    HW2 6756   4.027   3.329   2.677 -0.9919  0.4395  0.7830
 1678SOL    HW3 6757   3.965   3.194   2.708  0.6159 -0.6949 -0.8457
 1678SOL    MW4 6758   4.031   3.251   2.716 -0.2770  0.2079  0.2558
 1679SOL     OW 6759   4.029   3.506   2.658  0.3378  0.1511 -0.3092
 1679SOL    HW2 6760   4.117   3.544   2.664  0.4906 -0.2431 -0.0920
 1679SOL    HW3 6761   4.013   3.500   2.564  0.1024  1.2497 -0.3466
 1679SOL    MW4 6762   4.039   3.511   2.646  0.3271  0.2441 -0.2854
 1680SOL     OW 6763   4.279   3.617   2.703 -0.6141  0.1220  0.3142
 1680SOL    HW2 6764   4.289   3.598   2.797 -0.1759 -0.5801  0.1315
 1680SOL    HW3 6765   4.341   3.558   2.660 -0.9971  0.2597 -0.4382
 1680SOL    MW4 6766   4.289   3.606   2.710 -0.6065  0.0474  0.1910
 1681SOL     OW 6767   4.261   3.879   2.633  0.3952 -0.0461 -0.7764
 1681SOL    HW2 6768   4.258   3.786   2.655  1.3513  0.3158  0.9685
 1681SOL    HW3 6769   4.324   3.917   2.695 -0.5046  1.8862 -0.9801
 1681SOL    MW4 6770   4.269   3.872   2.644  0.4025  0.2565 -0.5727
 1682SOL     OW 6771   4.023   4.003   2.718  0.3700 -0.1614 -0.7410
 1682SOL    HW2 6772   4.030   3.978   2.810  1.9341  0.4012 -0.6856
 1682SOL    HW3 6773   4.107   3.976   2.679 -1.0312 -2.2152 -2.4588
 1682SOL    MW4 6774   4.035   3.996   2.725  0.3920 -0.3583 -0.9606
 1683SOL     OW 6775   4.014   4.272   2.631  0.0895  0.8433 -0.0465
 1683SOL    HW2 6776   4.018   4.178   2.653  1.7766  0.5484 -1.4704
 1683SOL    HW3 6777   3.997   4.273   2.537 -1.8882  2.0071  0.3231
 1683SOL    MW4 6778   4.013   4.260   2.622  0.0515  0.9584 -0.1855
 1684SOL     OW 6779   4.240   4.393   2.720 -0.1403  0.7499  0.2159
 1684SOL    HW2 6780   4.161   4.346   2.693 -0.2551  0.3533  1.2174
 1684SOL    HW3 6781   4.230   4.480   2.681  0.0758 -0.0305 -1.6379
 1684SOL    MW4 6782   4.228   4.399   2.711 -0.1268  0.5951  0.1037
 1685SOL     OW 6783   0.215   4.642   3.067  0.2406  0.0676 -0.6843
 1685SOL    HW2 6784   0.220   4.650   3.163  0.9706 -0.7807 -0.6332
 1685SOL    HW3 6785   0.135   4.688   3.043 -0.6716 -0.8754  0.4791
 1685SOL    MW4 6786   0.205   4.649   3.077  0.2165 -0.1688 -0.5240
 1686SOL     OW 6787   0.004   0.130   2.979 -0.0238  0.1140  0.2979
 1686SOL    HW2 6788  -0.084   0.095   2.998 -0.0531  0.0246 -0.0001
 1686SOL    HW3 6789   0.002   0.219   3.014  0.2673 -0.3921  1.6607
 1686SOL    MW4 6790  -0.008   0.137   2.987  0.0108  0.0354  0.4382
 1687SOL     OW 6791   4.478   0.374   3.110  0.0622 -0.4003  0.2866
 1687SOL    HW2 6792   4.467   0.354   3.203 -2.6159  0.7570  0.2600
 1687SOL    HW3 6793   4.403   0.429   3.088  1.1815  0.1597 -2.3438
 1687SOL    MW4 6794   4.467   0.378   3.120 -0.1435 -0.1738 -0.0639
 1688SOL     OW 6795   0.199   0.500   3.000  1.0722 -0.2673 -0.1150
 1688SOL    HW2 6796   0.282   0.474   3.040  0.8837 -1.5639 -0.5320
 1688SOL    HW3 6797   0.135   0.437   3.034  0.3830  0.3427 -0.2680
 1688SOL    MW4 6798   0.202   0.488   3.009  0.9564 -0.3579 -0.1903
 1689SOL     OW 6799   0.237   0.765   3.101 -0.2768 -0.3322  0.1181
 1689SOL    HW2 6800   0.252   0.753   3.194  0.7087 -1.1886 -0.1389
 1689SOL    HW3 6801   0.219   0.677   3.068  0.3412 -0.1762 -0.6550
 1689SOL    MW4 6802   0.237   0.752   3.109 -0.0652 -0.4246 -0.0179
 1690SOL     OW 6803   4.489   0.898   3.011 -0.2307 -0.1955  0.3638
 1690SOL    HW2 6804   4.569   0.849   3.030 -0.2266 -0.3373 -0.0226
 1690SOL    HW3 6805   4.481   0.896   2.916 -1.7276 -1.7926  0.5080
 1690SOL    MW4 6806   4.498   0.891   3.001 -0.4277 -0.4249  0.3319
 1691SOL     OW 6807   0.039   1.151   3.115 -0.0493 -0.0605 -0.1906
 1691SOL    HW2 6808  -0.039   1.202   3.090 -0.4191 -0.5661 -0.0857
 1691SOL    HW3 6809   0.016   1.061   3.091  0.6786 -0.1476 -0.5621
 1691SOL    MW4 6810   0.026   1.146   3.109 -0.0020 -0.1386 -0.2260
 1692SOL     OW 6811   0.238   1.298   2.969  0.0598 -0.4159  0.0111
 1692SOL    HW2 6812   0.163   1.240   2.983  0.7159 -1.5307 -1.0229
 1692SOL    HW3 6813   0.244   1.307   2.874  0.1943  1.0714  0.1503
 1692SOL    MW4 6814   0.229   1.292   2.959  0.1642 -0.3667 -0.1070
 1693SOL     OW 6815   0.267   1.527   3.147 -0.1348 -0.3408 -0.1077
 1693SOL    HW2 6816   0.199   1.566   3.093 -0.5095 -1.2622 -0.3176
 1693SOL    HW3 6817   0.273   1.436   3.116  0.4565 -0.5544  0.6129
 1693SOL    MW4 6818   0.259   1.520   3.136 -0.1062 -0.4904 -0.0403
 1694SOL     OW 6819   0.068   1.665   2.989 -0.2144 -0.1379 -0.4142
 1694SOL    HW2 6820  -0.006   1.610   3.013 -0.7925  0.9947  0.4516
 1694SOL    HW3 6821   0.050   1.749   3.031  2.1706 -0.2198  0.8794
 1694SOL    MW4 6822   0.056   1.669   2.998  0.0239  0.0006 -0.1292
 1695SOL     OW 6823   0.034   1.912   3.127 -0.1868  0.5757 -0.1215
 1695SOL    HW2 6824  -0.050   1.944   3.092  0.1260  1.4160 -0.1065
 1695SOL    HW3 6825   0.100   1.964   3.081  0.3060  0.2714  0.2497
 1695SOL    MW4 6826   0.031   1.923   3.116 -0.0804  0.6464 -0.0706
 1696SOL     OW 6827   0.233   2.067   2.997 -0.2501  0.0290 -0.5783
 1696SOL    HW2 6828   0.229   2.160   3.022 -0.2376 -0.3047  0.6433
 1696SOL    HW3 6829   0.240   2.070   2.901 -1.3400  1.2682 -0.6451
 1696SOL    MW4 6830   0.234   2.080   2.987 -0.3923  0.1483 -0.4258
 1697SOL     OW 6831   0.258   2.316   3.075 -0.4375  0.2736  0.3761
 1697SOL    HW2 6832   0.251   2.313   3.170 -0.0940 -0.4433  0.3842
 1697SOL    HW3 6833   0.347   2.348   3.059 -0.5007  0.4097  0.2903
 1697SOL    MW4 6834   0.269   2.320   3.085 -0.4005  0.1969  0.3657
 1698SOL     OW 6835   0.002   2.445   3.001  0.0174  0.2115  0.3655
 1698SOL    HW2 6836   0.015   2.539   3.015  0.4418  0.0330  1.1483
 1698SOL    HW3 6837   0.089   2.407   3.014 -0.2800 -0.3646  0.6204
 1698SOL    MW4 6838   0.015   2.453   3.004  0.0342  0.1116  0.5023
 1699SOL     OW 6839   0.030   2.721   3.128 -0.0330  0.3525  0.7994
 1699SOL    HW2 6840   0.042   2.734   3.222 -1.0802  0.5532  0.9039
 1699SOL    HW3 6841   0.094   2.779   3.087 -1.1607  2.0067  1.3421
 1699SOL    MW4 6842   0.040   2.730   3.135 -0.3199  0.5972  0.8845
 1700SOL     OW 6843   0.223   2.873   3.008 -0.0501  0.0438  0.5825
 1700SOL    HW2 6844   0.302   2.831   3.042  0.7480  1.1351  0.1236
 1700SOL    HW3 6845   0.221   2.850   2.915  1.0185  1.9288  0.0727
 1700SOL    MW4 6846   0.233   2.864   3.000  0.1962  0.4363  0.4547
 1701SOL     OW 6847   0.224   3.110   3.141 -0.6739  0.4933  0.0433
 1701SOL    HW2 6848   0.150   3.157   3.102 -0.7513 -1.0148 -1.6977
 1701SOL    HW3 6849   0.222   3.024   3.099  0.3579 -0.5438  2.0844
 1701SOL    MW4 6850   0.214   3.105   3.130 -0.5480  0.1576  0.0830
 1702SOL     OW 6851   0.017   3.235   3.015 -0.0054  0.3396  0.4267
 1702SOL    HW2 6852  -0.057   3.189   3.054 -0.3982  0.7520  0.1681
 1702SOL    HW3 6853   0.005   3.226   2.921  0.4643  0.1142  0.3822
 1702SOL    MW4 6854   0.006   3.228   3.008  0.0047  0.3643  0.3865
 1703SOL     OW 6855   0.004   3.499   3.096 -0.3103 -0.0023 -0.4219
 1703SOL    HW2 6856  -0.082   3.530   3.065 -0.0796  0.7340 -0.3297
 1703SOL    HW3 6857   0.006   3.407   3.070 -1.6505 -0.3682  0.7023
 1703SOL    MW4 6858  -0.007   3.491   3.088 -0.4568  0.0465 -0.2613
 1704SOL     OW 6859   0.228   3.635   2.984  0.3696  0.2761 -0.2884
 1704SOL    HW2 6860   0.220   3.725   3.015  0.4409  0.8306 -1.8360
 1704SOL    HW3 6861   0.151   3.591   3.020  0.8442  0.6975  1.2864
 1704SOL    MW4 6862   0.216   3.641   2.993  0.4416  0.4048 -0.2849
 1705SOL     OW 6863   0.236   3.900   3.073  0.3146  0.1130 -0.2031
 1705SOL    HW2 6864   0.252   3.900   3.168 -1.8658 -1.2482  0.2094
 1705SOL    HW3 6865   0.311   3.947   3.036  2.0668 -0.7940  2.0527
 1705SOL    MW4 6866   0.248   3.906   3.081  0.2581 -0.1862  0.1490
 1706SOL     OW 6867   0.020   4.039   3.006  0.3878 -0.2773 -0.5328
 1706SOL    HW2 6868   0.104   4.001   3.030  1.6014  0.9150 -2.7654
 1706SOL    HW3 6869   0.012   4.024   2.912 -0.9726  1.3877 -0.7176
 1706SOL    MW4 6870   0.030   4.032   2.997  0.3686  0.0992 -0.8519
 1707SOL     OW 6871   4.424   4.282   3.096  0.2766 -0.2684  0.0685
 1707SOL    HW2 6872   4.459   4.292   3.184 -0.3910  0.3047  0.2695
 1707SOL    HW3 6873   4.453   4.195   3.068  0.8559 -0.2712  0.6823
 1707SOL    MW4 6874   4.433   4.272   3.104  0.2651 -0.1926  0.1760
 1708SOL     OW 6875   0.181   4.371   2.983  0.1937 -0.3446 -0.2397
 1708SOL    HW2 6876   0.095   4.341   3.014  0.4329 -0.9250 -0.1337
 1708SOL    HW3 6877   0.190   4.459   3.019 -0.9628  0.2757 -1.4148
 1708SOL    MW4 6878   0.171   4.378   2.992  0.0727 -0.3395 -0.3810
 1709SOL     OW 6879   0.691   0.026   3.103  0.4136  0.4152  0.0325
 1709SOL    HW2 6880   0.678  -0.057   3.058 -1.2033  0.5093  0.2990
 1709SOL    HW3 6881   0.613   0.077   3.082  1.0083  1.5587  0.5493
 1709SOL    MW4 6882   0.679   0.022   3.094  0.2787  0.5784  0.1357
 1710SOL     OW 6883   0.453   0.118   3.020 -0.3038 -0.2214  0.0216
 1710SOL    HW2 6884   0.436   0.211   3.035  0.4324 -0.1878  0.6718
 1710SOL    HW3 6885   0.373   0.074   3.051 -0.8568  0.2183 -0.7479
 1710SOL    MW4 6886   0.440   0.125   3.026 -0.2796 -0.1590  0.0060
 1711SOL     OW 6887   0.436   0.380   3.089 -0.4204 -0.1272  0.2766
 1711SOL    HW2 6888   0.444   0.362   3.183  0.7236 -1.0480  0.0138
 1711SOL    HW3 6889   0.521   0.419   3.065 -0.6833  0.0437 -0.3893
 1711SOL    MW4 6890   0.449   0.383   3.098 -0.3042 -0.2261  0.1540
 1712SOL     OW 6891   0.669   0.499   3.018 -0.0912 -0.1655  0.4329
 1712SOL    HW2 6892   0.749   0.451   3.041  1.1529  0.7204 -1.8654
 1712SOL    HW3 6893   0.688   0.589   3.043 -1.0494 -0.2438  1.4659
 1712SOL    MW4 6894   0.682   0.505   3.024 -0.0535 -0.0589  0.2661
 1713SOL     OW 6895   0.715   0.758   3.086  0.1616  0.2782  0.2346
 1713SOL    HW2 6896   0.708   0.764   3.182  0.4154  1.5004  0.1875
 1713SOL    HW3 6897   0.634   0.798   3.054  1.5052  2.8538 -0.0968
 1713SOL    MW4 6898   0.703   0.764   3.095  0.3724  0.7793  0.1848
 1714SOL     OW 6899   0.465   0.867   2.986  0.3843  0.1291  0.0765
 1714SOL    HW2 6900   0.387   0.834   3.031  0.0719 -0.7192 -1.0592
 1714SOL    HW3 6901   0.446   0.854   2.893  1.7735  0.1607 -0.2242
 1714SOL    MW4 6902   0.452   0.861   2.979  0.5264  0.0213 -0.1130
 1715SOL     OW 6903   0.448   1.143   3.090  0.2398  0.3341 -0.0549
 1715SOL    HW2 6904   0.434   1.051   3.067  0.4151  0.4442 -0.6046
 1715SOL    HW3 6905   0.377   1.190   3.047 -0.2359  0.3884  0.7638
 1715SOL    MW4 6906   0.437   1.137   3.082  0.2002  0.3557 -0.0193
 1716SOL     OW 6907   0.652   1.288   2.962 -0.0515 -0.5583 -0.0428
 1716SOL    HW2 6908   0.727   1.248   3.008 -0.5661 -0.0059  1.2994
 1716SOL    HW3 6909   0.577   1.234   2.988 -0.5903  0.6672  0.9916
 1716SOL    MW4 6910   0.652   1.276   2.972 -0.1905 -0.3237  0.2708
 1717SOL     OW 6911   0.714   1.544   3.092  0.4615  0.4280 -0.1092
 1717SOL    HW2 6912   0.720   1.543   3.188 -0.9513  0.2212 -0.0213
 1717SOL    HW3 6913   0.690   1.455   3.068  0.7896  0.4860 -0.6627
 1717SOL    MW4 6914   0.712   1.532   3.102  0.3183  0.4083 -0.1705
 1718SOL     OW 6915   0.482   1.661   2.998  0.6676  0.0340 -0.2770
 1718SOL    HW2 6916   0.567   1.624   3.023  0.2432 -0.4346  0.4762
 1718SOL    HW3 6917   0.418   1.600   3.035  0.0083  0.1773 -1.1694
 1718SOL    MW4 6918   0.485   1.648   3.006  0.5246 -0.0088 -0.2954
 1719SOL     OW 6919   0.449   1.912   3.103 -0.4113  0.1853  0.2435
 1719SOL    HW2 6920   0.462   1.821   3.077  2.7487  0.2432  1.4129
 1719SOL    HW3 6921   0.363   1.935   3.068 -0.6041 -2.7758 -1.3693
 1719SOL    MW4 6922   0.439   1.903   3.095 -0.0198 -0.1978  0.1850
 1720SOL     OW 6923   0.678   2.049   2.974 -0.1498  0.3963  0.0308
 1720SOL    HW2 6924   0.752   2.004   3.016 -0.5661 -1.1368 -0.8501
 1720SOL    HW3 6925   0.601   2.016   3.020 -0.3865  1.0150  0.0771
 1720SOL    MW4 6926   0.678   2.039   2.986 -0.2360  0.2761 -0.0792
 1721SOL     OW 6927   0.667   2.307   3.071  0.1464  0.1593 -0.3598
 1721SOL    HW2 6928   0.661   2.317   3.166 -0.7697  1.3514 -0.5158
 1721SOL    HW3 6929   0.678   2.214   3.057 -1.3668 -0.2290  0.8600
 1721SOL    MW4 6930   0.667   2.296   3.082 -0.1742  0.2654 -0.2193
 1722SOL     OW 6931   0.475   2.482   3.003  0.0848  0.1928  0.5835
 1722SOL    HW2 6932   0.547   2.428   3.035 -0.8529 -1.7010 -0.4292
 1722SOL    HW3 6933   0.482   2.478   2.907 -0.3335  1.3984  0.4909
 1722SOL    MW4 6934   0.485   2.474   2.994 -0.0942  0.1018  0.4377
 1723SOL     OW 6935   0.434   2.724   3.115  0.1815 -0.4888 -0.0359
 1723SOL    HW2 6936   0.506   2.764   3.068 -0.1562 -0.9042 -0.9108
 1723SOL    HW3 6937   0.420   2.639   3.072  0.7252 -1.4494  1.6304
 1723SOL    MW4 6938   0.442   2.718   3.103  0.2087 -0.6704  0.0684
 1724SOL     OW 6939   0.637   2.861   2.997  0.2723  0.1772  0.3465
 1724SOL    HW2 6940   0.720   2.821   3.023  1.5458  1.1038 -2.1568
 1724SOL    HW3 6941   0.649   2.955   3.015 -0.2314  0.3196 -0.0457
 1724SOL    MW4 6942   0.650   2.868   3.003  0.3738  0.3181 -0.0355
 1725SOL     OW 6943   0.661   3.122   3.068  0.1895 -0.1034  0.3543
 1725SOL    HW2 6944   0.659   3.090   3.158 -0.7430  0.0308  0.3888
 1725SOL    HW3 6945   0.570   3.144   3.048  0.2922 -0.7090 -0.8279
 1725SOL    MW4 6946   0.649   3.121   3.077  0.0799 -0.1657  0.2031
 1726SOL     OW 6947   0.416   3.221   2.970 -0.1263  0.6645  0.4550
 1726SOL    HW2 6948   0.421   3.314   2.989 -1.4392  0.8484 -0.0936
 1726SOL    HW3 6949   0.346   3.188   3.027  0.4536 -0.0227  0.7836
 1726SOL    MW4 6950   0.408   3.229   2.980 -0.2230  0.5982  0.4261
 1727SOL     OW 6951   0.458   3.498   3.071 -0.3318 -0.7139 -0.1752
 1727SOL    HW2 6952   0.454   3.496   3.166  0.1539 -2.0521 -0.1758
 1727SOL    HW3 6953   0.374   3.535   3.044 -0.7799 -1.0669  0.7430
 1727SOL    MW4 6954   0.446   3.503   3.080 -0.3269 -0.9367 -0.0539
 1728SOL     OW 6955   0.667   3.610   2.963 -0.1010 -0.0995  0.0977
 1728SOL    HW2 6956   0.737   3.563   3.009 -0.0244  0.8895  1.0069
 1728SOL    HW3 6957   0.586   3.572   2.999 -0.0424  0.7725  1.1767
 1728SOL    MW4 6958   0.665   3.598   2.974 -0.0831  0.1462  0.3603
 1729SOL     OW 6959   0.712   3.871   3.060  0.1178 -0.3939 -0.2385
 1729SOL    HW2 6960   0.692   3.872   3.154  0.1339  0.5270 -0.2397
 1729SOL    HW3 6961   0.704   3.779   3.035 -0.8623 -0.5068  0.4576
 1729SOL    MW4 6962   0.709   3.859   3.069 -0.0094 -0.2873 -0.1466
 1730SOL     OW 6963   0.456   4.035   2.969 -0.3746 -0.3613  0.2611
 1730SOL    HW2 6964   0.542   4.004   2.998 -0.2390  0.1295  0.3855
 1730SOL    HW3 6965   0.461   4.036   2.874 -0.3597 -0.6645  0.2584
 1730SOL    MW4 6966   0.468   4.031   2.961 -0.3547 -0.3371  0.2773
 1731SOL     OW 6967   0.414   4.268   3.115 -0.2587  0.1756 -0.1550
 1731SOL    HW2 6968   0.432   4.184   3.073 -0.5678 -1.3245  2.5832
 1731SOL    HW3 6969   0.339   4.303   3.067  0.7942 -0.4154 -2.2608
 1731SOL    MW4 6970   0.407   4.261   3.103 -0.1606 -0.1006 -0.0715
 1732SOL     OW 6971   0.668   4.417   3.018 -0.0344 -0.1132 -0.3766
 1732SOL    HW2 6972   0.580   4.391   3.045  0.0149  0.1118  0.0039
 1732SOL    HW3 6973   0.671   4.399   2.924 -0.9039  1.0355 -0.6350
 1732SOL    MW4 6974   0.657   4.411   3.009 -0.1426  0.0682 -0.3603
 1733SOL     OW 6975   1.152   4.631   3.132 -0.3682 -0.1228  0.7688
 1733SOL    HW2 6976   1.232   4.672   3.098  0.1399 -1.7897 -0.0941
 1733SOL    HW3 6977   1.081   4.687   3.102  0.4156  0.8896  0.7897
 1733SOL    MW4 6978   1.153   4.644   3.123 -0.1979 -0.2093  0.6580
 1734SOL     OW 6979   0.941   0.106   3.019  0.1326 -0.0785  0.0867
 1734SOL    HW2 6980   0.940   0.201   3.028  0.3514 -0.2496  2.1038
 1734SOL    HW3 6981   0.856   0.077   3.051  0.3803 -0.6225  0.2705
 1734SOL    MW4 6982   0.930   0.115   3.025  0.1941 -0.1729  0.3769
 1735SOL     OW 6983   0.908   0.385   3.073  0.2695 -0.4189 -0.3940
 1735SOL    HW2 6984   0.908   0.378   3.169  0.3758  1.0594 -0.2617
 1735SOL    HW3 6985   0.982   0.444   3.054 -1.6571  1.8331 -1.1417
 1735SOL    MW4 6986   0.918   0.392   3.084  0.0293  0.0733 -0.4754
 1736SOL     OW 6987   1.143   0.509   3.031  0.2416  0.9296  0.1867
 1736SOL    HW2 6988   1.213   0.457   3.070  0.6922 -0.2000 -2.0264
 1736SOL    HW3 6989   1.156   0.498   2.937 -1.7224  2.3228 -0.2594
 1736SOL    MW4 6990   1.154   0.501   3.024  0.0418  0.9644 -0.1643
 1737SOL     OW 6991   1.133   0.780   3.090 -0.2134  0.2166  0.1014
 1737SOL    HW2 6992   1.112   0.784   3.183  2.3602 -0.4091  0.7604
 1737SOL    HW3 6993   1.134   0.686   3.070 -0.5560  0.3411 -0.5014
 1737SOL    MW4 6994   1.131   0.768   3.100  0.0811  0.1504  0.1087
 1738SOL     OW 6995   0.921   0.908   2.967 -0.2248 -0.0720 -0.2648
 1738SOL    HW2 6996   1.005   0.878   3.001 -0.2646 -0.0294 -0.1256
 1738SOL    HW3 6997   0.856   0.853   3.013 -0.2281 -0.7183 -1.0323
 1738SOL    MW4 6998   0.923   0.897   2.978 -0.2305 -0.1516 -0.3476
 1739SOL     OW 6999   0.891   1.184   3.063 -0.1123 -0.0533  0.1477
 1739SOL    HW2 7000   0.979   1.208   3.033 -0.6601  0.1765 -1.3134
 1739SOL    HW3 7001   0.875   1.098   3.022 -1.1314  0.5714 -0.8041
 1739SOL    MW4 7002   0.901   1.176   3.053 -0.3190  0.0595 -0.1709
 1740SOL     OW 7003   1.140   1.253   2.979  0.2541 -0.2957  0.2207
 1740SOL    HW2 7004   1.224   1.212   3.000  0.0511 -1.6461 -1.5374
 1740SOL    HW3 7005   1.142   1.266   2.885  0.2457  3.6964  0.7031
 1740SOL    MW4 7006   1.152   1.249   2.970  0.2263  0.0528  0.0525
 1741SOL     OW 7007   1.155   1.511   3.077  0.4908  0.3021 -0.4956
 1741SOL    HW2 7008   1.234   1.536   3.029  1.4436 -0.9079  0.4200
 1741SOL    HW3 7009   1.139   1.420   3.051 -0.3128  0.3877 -0.2968
 1741SOL    MW4 7010   1.163   1.502   3.067  0.5106  0.1538 -0.3488
 1742SOL     OW 7011   0.951   1.669   2.993 -0.2148 -0.1307  0.1932
 1742SOL    HW2 7012   1.020   1.620   3.037  0.1562  1.5585  1.5723
 1742SOL    HW3 7013   0.869   1.632   3.026  0.0497 -0.3074  0.6481
 1742SOL    MW4 7014   0.949   1.658   3.003 -0.1310  0.0689  0.4351
 1743SOL     OW 7015   0.887   1.923   3.105  0.1788  0.0735  0.0398
 1743SOL    HW2 7016   0.892   1.907   3.199  0.8628 -0.5010 -0.0875
 1743SOL    HW3 7017   0.901   1.837   3.065 -1.3044  0.1063 -0.5730
 1743SOL    MW4 7018   0.890   1.910   3.112  0.0734  0.0020 -0.0577
 1744SOL     OW 7019   1.128   2.041   3.015 -0.1704  0.2854  0.6154
 1744SOL    HW2 7020   1.051   1.993   3.047  1.5386 -2.3474  0.9884
 1744SOL    HW3 7021   1.116   2.046   2.921  0.5389 -2.7130  0.3166
 1744SOL    MW4 7022   1.116   2.035   3.007  0.1488 -0.4575  0.6254
 1745SOL     OW 7023   1.131   2.309   3.097 -0.1598 -0.0097 -0.6788
 1745SOL    HW2 7024   1.052   2.353   3.064  0.2212  0.3261 -1.1482
 1745SOL    HW3 7025   1.124   2.220   3.065 -0.7159 -0.1821 -0.0970
 1745SOL    MW4 7026   1.119   2.303   3.089 -0.1829  0.0122 -0.6642
 1746SOL     OW 7027   0.905   2.423   2.975  0.1009  0.1054 -0.3200
 1746SOL    HW2 7028   0.825   2.386   3.013  0.1594  1.3932  1.1082
 1746SOL    HW3 7029   0.893   2.414   2.881 -1.8983  0.5758 -0.1471
 1746SOL    MW4 7030   0.893   2.417   2.968 -0.1550  0.3374 -0.1087
 1747SOL     OW 7031   0.876   2.697   3.065 -0.2968  0.7079 -0.2329
 1747SOL    HW2 7032   0.903   2.686   3.156  2.4657  1.4467 -0.9160
 1747SOL    HW3 7033   0.888   2.610   3.027  0.3640  0.8332 -0.3243
 1747SOL    MW4 7034   0.881   2.684   3.072  0.1549  0.8221 -0.3355
 1748SOL     OW 7035   1.099   2.818   2.978 -0.1544  0.5157  0.1083
 1748SOL    HW2 7036   1.097   2.908   3.012 -0.8130  0.8160 -0.7003
 1748SOL    HW3 7037   1.010   2.785   2.991  0.2764 -0.2803  1.0741
 1748SOL    MW4 7038   1.087   2.826   2.984 -0.1844  0.4504  0.1292
 1749SOL     OW 7039   1.090   3.082   3.076  0.4622 -0.2345  0.3336
 1749SOL    HW2 7040   1.166   3.137   3.060  0.5002  0.2624  2.1086
 1749SOL    HW3 7041   1.015   3.140   3.062  0.4735 -0.1124  0.7532
 1749SOL    MW4 7042   1.090   3.097   3.072  0.4687 -0.1531  0.6232
 1750SOL     OW 7043   0.893   3.271   3.006 -0.0184  0.3167  0.1123
 1750SOL    HW2 7044   0.808   3.233   3.024  0.7367 -1.6130 -0.2503
 1750SOL    HW3 7045   0.911   3.248   2.915  0.5656  1.3415 -0.0395
 1750SOL    MW4 7046   0.884   3.263   2.996  0.1583  0.1972  0.0446
 1751SOL     OW 7047   0.894   3.525   3.123 -0.3771  0.0893 -0.3649
 1751SOL    HW2 7048   0.960   3.574   3.075 -0.3846 -0.0755 -0.5443
 1751SOL    HW3 7049   0.906   3.434   3.094 -0.5123  0.0210 -0.2068
 1751SOL    MW4 7050   0.904   3.519   3.113 -0.3959  0.0587 -0.3676
 1752SOL     OW 7051   1.106   3.642   2.985 -0.0043  0.4165  0.4922
 1752SOL    HW2 7052   1.172   3.592   3.034  1.3639  0.6893 -1.0456
 1752SOL    HW3 7053   1.118   3.732   3.014 -0.7078  0.2560  1.3070
 1752SOL    MW4 7054   1.117   3.647   2.996  0.0833  0.4313  0.3967
 1753SOL     OW 7055   1.128   3.895   3.097  0.1326  0.1248  0.2577
 1753SOL    HW2 7056   1.121   3.895   3.192  0.1050  1.4836  0.2674
 1753SOL    HW3 7057   1.053   3.946   3.067 -0.5168 -1.2792 -0.5600
 1753SOL    MW4 7058   1.117   3.901   3.105  0.0432  0.1187  0.1509
 1754SOL     OW 7059   0.918   4.039   2.988 -0.4316  0.4137 -0.0816
 1754SOL    HW2 7060   0.846   3.977   2.998  2.4244 -2.9782  0.4063
 1754SOL    HW3 7061   0.929   4.048   2.893 -1.5034  0.9789 -0.1560
 1754SOL    MW4 7062   0.910   4.032   2.977 -0.1962  0.0405 -0.0272
 1755SOL     OW 7063   0.895   4.293   3.109  0.2427 -0.0607  0.0983
 1755SOL    HW2 7064   0.899   4.202   3.080  0.9837  0.6997 -2.2855
 1755SOL    HW3 7065   0.816   4.329   3.068  1.2691  1.0111 -0.9874
 1755SOL    MW4 7066   0.885   4.286   3.100  0.4759  0.1807 -0.3595
 1756SOL     OW 7067   1.109   4.411   2.968  0.3033  0.2751  0.3393
 1756SOL    HW2 7068   1.032   4.369   3.007  0.7847  0.1318  1.1500
 1756SOL    HW3 7069   1.119   4.493   3.015  1.5662 -0.4209  1.3397
 1756SOL    MW4 7070   1.100   4.416   2.979  0.5335  0.1645  0.5782
 1757SOL     OW 7071   1.594   4.652   3.097  0.6157 -0.1023 -0.0503
 1757SOL    HW2 7072   1.597   4.681   3.188 -0.0383  1.1532 -0.4150
 1757SOL    HW3 7073   1.517   4.696   3.060  1.2193 -0.1132 -1.3668
 1757SOL    MW4 7074   1.584   4.661   3.104  0.6090  0.0615 -0.2718
 1758SOL     OW 7075   1.369   0.101   2.995 -0.2670 -0.5918  0.1286
 1758SOL    HW2 7076   1.362   0.194   3.020  1.7901 -0.0868 -1.0314
 1758SOL    HW3 7077   1.356   0.100   2.901  0.2124 -1.4302  0.0691
 1758SOL    MW4 7078   1.367   0.113   2.986  0.0677 -0.6358 -0.0324
 1759SOL     OW 7079   1.366   0.351   3.117 -0.1772  0.0775  0.3401
 1759SOL    HW2 7080   1.386   0.350   3.210 -0.3452  0.5398  0.3813
 1759SOL    HW3 7081   1.433   0.406   3.078  0.5124 -0.9702  0.0430
 1759SOL    MW4 7082   1.377   0.358   3.124 -0.1084  0.0003  0.3064
 1760SOL     OW 7083   1.571   0.525   2.957  0.1634  0.2791  0.1010
 1760SOL    HW2 7084   1.551   0.616   2.981 -0.3845  0.2566 -0.2633
 1760SOL    HW3 7085   1.562   0.523   2.861  0.3249 -0.1257  0.0927
 1760SOL    MW4 7086   1.567   0.537   2.947  0.1123  0.2227  0.0517
 1761SOL     OW 7087   1.563   0.780   3.066 -0.0841  0.0690  0.7023
 1761SOL    HW2 7088   1.534   0.786   3.157  2.4039  2.7147  1.4019
 1761SOL    HW3 7089   1.499   0.833   3.018 -1.4525 -1.4033  0.8767
 1761SOL    MW4 7090   1.550   0.788   3.072  0.0637  0.2238  0.8178
 1762SOL     OW 7091   1.343   0.891   2.946  0.0045  0.0150 -0.1436
 1762SOL    HW2 7092   1.350   0.981   2.979 -2.5093  0.2099 -0.0036
 1762SOL    HW3 7093   1.279   0.849   3.005  1.0057 -1.8104 -0.3241
 1762SOL    MW4 7094   1.335   0.897   2.958 -0.1950 -0.2002 -0.1490
 1763SOL     OW 7095   1.383   1.129   3.055  0.5554 -0.0158 -0.1980
 1763SOL    HW2 7096   1.387   1.127   3.151 -0.2489 -0.7738 -0.1689
 1763SOL    HW3 7097   1.459   1.181   3.029  0.1865  1.1085  0.8941
 1763SOL    MW4 7098   1.393   1.136   3.064  0.4005  0.0325 -0.0503
 1764SOL     OW 7099   1.597   1.265   2.973 -0.2572 -0.2072  0.3920
 1764SOL    HW2 7100   1.668   1.205   2.996  0.7957  0.6091 -0.6879
 1764SOL    HW3 7101   1.632   1.352   2.995 -1.6027  0.0529  1.5384
 1764SOL    MW4 7102   1.611   1.269   2.979 -0.2958 -0.0652  0.4005
 1765SOL     OW 7103   1.612   1.533   3.051  0.4037  0.3728 -0.3537
 1765SOL    HW2 7104   1.684   1.593   3.033  0.2689  0.0930 -1.9705
 1765SOL    HW3 7105   1.537   1.573   3.008 -0.0377 -0.1644 -0.0893
 1765SOL    MW4 7106   1.612   1.546   3.043  0.3276  0.2651 -0.5324
 1766SOL     OW 7107   1.365   1.632   2.947  0.0812  0.2653  0.4659
 1766SOL    HW2 7108   1.354   1.709   3.003  0.9377  0.7935 -0.0927
 1766SOL    HW3 7109   1.343   1.662   2.860  1.7044  0.2235  0.0272
 1766SOL    MW4 7110   1.361   1.646   2.943  0.4084  0.3296  0.3345
 1767SOL     OW 7111   1.355   1.898   3.077 -0.3041 -0.0703 -0.6394
 1767SOL    HW2 7112   1.358   1.900   3.172  0.2506  0.3049 -0.6624
 1767SOL    HW3 7113   1.274   1.943   3.054  0.6097  1.7430 -0.4071
 1767SOL    MW4 7114   1.345   1.904   3.086 -0.1103  0.2185 -0.6115
 1768SOL     OW 7115   1.567   2.053   3.006  0.3062 -0.3060  0.1344
 1768SOL    HW2 7116   1.492   1.999   3.032  0.3930 -0.5537 -0.1229
 1768SOL    HW3 7117   1.555   2.067   2.912  0.3840 -0.0339  0.1661
 1768SOL    MW4 7118   1.556   2.048   2.997  0.3279 -0.3028  0.1044
 1769SOL     OW 7119   1.581   2.308   3.089  0.0387 -0.8494  0.2112
 1769SOL    HW2 7120   1.504   2.358   3.063  1.0777  0.9909  0.5353
 1769SOL    HW3 7121   1.560   2.217   3.067 -1.8294 -0.2547 -0.5606
 1769SOL    MW4 7122   1.568   2.303   3.083 -0.0706 -0.5279  0.1521
 1770SOL     OW 7123   1.351   2.451   2.988 -0.3226  0.4231  0.0290
 1770SOL    HW2 7124   1.280   2.394   3.017 -0.0791  0.3787  0.5516
 1770SOL    HW3 7125   1.351   2.444   2.893 -0.6685  0.0025  0.0616
 1770SOL    MW4 7126   1.342   2.443   2.979 -0.3362  0.3622  0.1023
 1771SOL     OW 7127   1.323   2.709   3.081  0.1316  0.0106 -0.1565
 1771SOL    HW2 7128   1.316   2.617   3.055 -0.0076  0.5620 -2.1231
 1771SOL    HW3 7129   1.244   2.750   3.044  0.0362  0.8657  0.9727
 1771SOL    MW4 7130   1.311   2.702   3.073  0.1006  0.1962 -0.2670
 1772SOL     OW 7131   1.545   2.836   2.983  0.0364 -0.1445  0.2637
 1772SOL    HW2 7132   1.618   2.784   3.017 -0.6588 -1.7675 -0.6370
 1772SOL    HW3 7133   1.467   2.792   3.016 -0.5661  0.5319 -0.2323
 1772SOL    MW4 7134   1.544   2.823   2.992 -0.1348 -0.2694  0.0794
 1773SOL     OW 7135   1.526   3.097   3.098  0.1473 -0.5497  0.1576
 1773SOL    HW2 7136   1.542   3.098   3.192 -0.4508  0.0684  0.2546
 1773SOL    HW3 7137   1.532   3.004   3.074  1.0631 -0.6329  0.6660
 1773SOL    MW4 7138   1.529   3.085   3.107  0.1892 -0.4790  0.2377
 1774SOL     OW 7139   1.300   3.243   3.006  0.1327  0.5859  0.2719
 1774SOL    HW2 7140   1.378   3.199   3.041 -0.9590 -0.3197  1.6119
 1774SOL    HW3 7141   1.315   3.246   2.912  0.9475 -1.2856  0.3182
 1774SOL    MW4 7142   1.313   3.238   2.998  0.0962  0.2196  0.4549
 1775SOL     OW 7143   1.310   3.497   3.120  0.2898  0.1297  0.1021
 1775SOL    HW2 7144   1.317   3.495   3.215 -1.2927  0.8337  0.2415
 1775SOL    HW3 7145   1.290   3.407   3.095  1.3290 -0.1849  0.3673
 1775SOL    MW4 7146   1.308   3.485   3.129  0.2180  0.1812  0.1554
 1776SOL     OW 7147   1.531   3.651   3.015 -0.4919 -0.2537  0.1537
 1776SOL    HW2 7148   1.462   3.605   3.062  0.3331 -0.7854  0.8777
 1776SOL    HW3 7149   1.516   3.630   2.923 -0.6292 -1.2848  0.4055
 1776SOL    MW4 7150   1.520   3.642   3.009 -0.4010 -0.4597  0.2825
 1777SOL     OW 7151   1.555   3.910   3.092 -0.0313 -0.0865 -0.0718
 1777SOL    HW2 7152   1.645   3.927   3.065  0.0404 -0.0907  0.1592
 1777SOL    HW3 7153   1.541   3.818   3.070  0.1547 -0.1951  0.2590
 1777SOL    MW4 7154   1.565   3.900   3.086  0.0027 -0.1016  0.0021
 1778SOL     OW 7155   1.329   4.030   2.957 -0.6128  0.3370  0.0306
 1778SOL    HW2 7156   1.409   4.003   3.001 -1.1377  0.3115  0.9743
 1778SOL    HW3 7157   1.260   3.976   2.996 -1.0093 -0.0822 -1.2036
 1778SOL    MW4 7158   1.330   4.020   2.968 -0.7343  0.2785 -0.0079
 1779SOL     OW 7159   1.330   4.285   3.059 -0.1792  0.1238 -0.0200
 1779SOL    HW2 7160   1.335   4.198   3.020 -0.5815 -0.1781  0.6026
 1779SOL    HW3 7161   1.255   4.326   3.017 -1.1582 -0.5197  1.0550
 1779SOL    MW4 7162   1.321   4.279   3.048 -0.3613 -0.0010  0.2041
 1780SOL     OW 7163   1.588   4.393   2.988  0.1390 -0.1719 -0.3200
 1780SOL    HW2 7164   1.504   4.367   3.027 -0.8884  0.9238 -1.7670
 1780SOL    HW3 7165   1.603   4.482   3.020 -0.0847  0.2612 -1.4119
 1780SOL    MW4 7166   1.579   4.401   2.998 -0.0260  0.0296 -0.6549
 1781SOL     OW 7167   2.014   4.630   3.128  0.3590  0.3903  0.1435
 1781SOL    HW2 7168   2.018   4.636   3.223  1.0235  1.0277  0.0809
 1781SOL    HW3 7169   1.936   4.678   3.103 -1.4770 -2.2799  0.5736
 1781SOL    MW4 7170   2.004   4.637   3.137  0.2043  0.1221  0.1922
 1782SOL     OW 7171   1.807   0.140   3.035  0.2712  0.3723 -0.1231
 1782SOL    HW2 7172   1.724   0.095   3.050  0.7956 -1.5336 -2.5256
 1782SOL    HW3 7173   1.823   0.128   2.941  3.5628  0.1573  0.4178
 1782SOL    MW4 7174   1.798   0.132   3.024  0.7746  0.0925 -0.3691
 1783SOL     OW 7175   1.775   0.407   3.101  0.2429 -0.6595 -0.1037
 1783SOL    HW2 7176   1.784   0.315   3.076  0.5853 -0.6799  0.0987
 1783SOL    HW3 7177   1.706   0.440   3.043  1.5610 -0.4972 -1.6124
 1783SOL    MW4 7178   1.767   0.399   3.090  0.4621 -0.6408 -0.2759
 1784SOL     OW 7179   2.035   0.504   3.005 -0.5781  0.2403  0.6191
 1784SOL    HW2 7180   1.943   0.485   3.022  0.0007 -3.6674 -0.1970
 1784SOL    HW3 7181   2.044   0.500   2.910  0.1200  2.4237  0.5547
 1784SOL    MW4 7182   2.024   0.501   2.995 -0.4094  0.0128  0.5028
 1785SOL     OW 7183   2.035   0.770   3.106 -0.0317 -0.0382  0.4167
 1785SOL    HW2 7184   1.949   0.799   3.077  0.2865 -0.3562 -0.8534
 1785SOL    HW3 7185   2.036   0.676   3.089  0.5123 -0.0695  0.5854
 1785SOL    MW4 7186   2.024   0.761   3.100  0.0820 -0.0843  0.2713
 1786SOL     OW 7187   1.802   0.862   3.001 -0.5658 -0.0004 -0.6185
 1786SOL    HW2 7188   1.719   0.825   3.033 -1.2113  0.2523 -1.9344
 1786SOL    HW3 7189   1.796   0.852   2.906  1.8539 -1.9490 -0.6204
 1786SOL    MW4 7190   1.790   0.856   2.993 -0.3316 -0.2242 -0.7923
 1787SOL     OW 7191   1.824   1.122   3.065 -0.8580  0.1120 -0.6318
 1787SOL    HW2 7192   1.824   1.105   3.159 -0.4030  1.7565 -0.3233
 1787SOL    HW3 7193   1.835   1.036   3.025 -0.2279 -0.4983  0.8419
 1787SOL    MW4 7194   1.825   1.109   3.072 -0.7149  0.2484 -0.3967
 1788SOL     OW 7195   2.038   1.270   2.990 -0.4166 -0.9114  0.2751
 1788SOL    HW2 7196   2.116   1.233   3.029 -0.2348  0.1216  0.9227
 1788SOL    HW3 7197   1.966   1.216   3.023 -0.1445 -0.7915  1.0630
 1788SOL    MW4 7198   2.039   1.258   2.999 -0.3569 -0.7594  0.4647
 1789SOL     OW 7199   2.032   1.533   3.082  0.0340 -0.1140  0.4975
 1789SOL    HW2 7200   2.017   1.518   3.175  0.7794  0.5038  0.7195
 1789SOL    HW3 7201   2.030   1.446   3.042 -1.9896 -0.2489  0.8276
 1789SOL    MW4 7202   2.030   1.520   3.089 -0.1347 -0.0502  0.5703
 1790SOL     OW 7203   1.826   1.682   2.986 -0.2777 -0.3824  0.3753
 1790SOL    HW2 7204   1.825   1.762   3.038 -0.0932 -0.4881  0.5391
 1790SOL    HW3 7205   1.896   1.629   3.023 -1.2176 -1.1590  1.0947
 1790SOL    MW4 7206   1.835   1.685   2.998 -0.3774 -0.4989  0.4919
 1791SOL     OW 7207   1.827   1.938   3.090 -0.1755 -0.1716 -0.0573
 1791SOL    HW2 7208   1.898   1.986   3.048  0.0945 -0.9938 -0.5497
 1791SOL    HW3 7209   1.747   1.980   3.058  0.0550 -0.1837 -0.6485
 1791SOL    MW4 7210   1.826   1.949   3.081 -0.1094 -0.2817 -0.2005
 1792SOL     OW 7211   2.010   2.082   2.977  0.1070  0.3634 -0.3324
 1792SOL    HW2 7212   2.087   2.036   3.012 -0.0994  0.4212  0.2039
 1792SOL    HW3 7213   2.000   2.158   3.034 -0.4975  0.2239 -0.2499
 1792SOL    MW4 7214   2.019   2.086   2.989 -0.0002  0.3524 -0.2511
 1793SOL     OW 7215   1.994   2.329   3.149  0.2828 -0.0759  0.1635
 1793SOL    HW2 7216   2.076   2.348   3.102  0.2349  2.1007  0.9063
 1793SOL    HW3 7217   1.928   2.381   3.103 -0.2286  0.1215  1.1183
 1793SOL    MW4 7218   1.996   2.338   3.136  0.2089  0.2372  0.3872
 1794SOL     OW 7219   1.794   2.454   2.982  0.4388 -0.5569  0.3915
 1794SOL    HW2 7220   1.781   2.540   3.022 -1.4349 -0.4784 -0.3107
 1794SOL    HW3 7221   1.715   2.405   3.006  0.0548 -1.0650 -1.7625
 1794SOL    MW4 7222   1.782   2.459   2.991  0.1410 -0.6137  0.0145
 1795SOL     OW 7223   1.772   2.715   3.105  0.0452 -0.6047  0.2062
 1795SOL    HW2 7224   1.771   2.728   3.200  0.4143 -1.1877  0.2945
 1795SOL    HW3 7225   1.851   2.760   3.076 -1.3567  1.6720 -0.1472
 1795SOL    MW4 7226   1.783   2.722   3.113 -0.0911 -0.3812  0.1712
 1796SOL     OW 7227   1.991   2.839   3.006 -0.8945 -0.3462 -0.4059
 1796SOL    HW2 7228   1.992   2.930   3.035  0.5737 -0.4598 -0.0344
 1796SOL    HW3 7229   2.026   2.843   2.917 -2.4983 -0.3566 -1.0533
 1796SOL    MW4 7230   1.996   2.852   2.998 -0.9124 -0.3624 -0.4420
 1797SOL     OW 7231   2.007   3.101   3.085 -0.0282  0.5611 -0.2501
 1797SOL    HW2 7232   2.021   3.109   3.180  0.1839  0.6439 -0.2896
 1797SOL    HW3 7233   1.923   3.145   3.070 -0.0984  0.4848 -0.0908
 1797SOL    MW4 7234   1.998   3.108   3.096 -0.0098  0.5622 -0.2344
 1798SOL     OW 7235   1.752   3.231   3.022 -0.3830  0.1558 -0.1868
 1798SOL    HW2 7236   1.674   3.188   3.058  0.1761 -0.4088  0.3536
 1798SOL    HW3 7237   1.744   3.219   2.927 -0.9592  0.1100 -0.1327
 1798SOL    MW4 7238   1.741   3.223   3.014 -0.3852  0.0753 -0.1085
 1799SOL     OW 7239   1.769   3.506   3.068 -0.0594 -0.1430  0.4729
 1799SOL    HW2 7240   1.739   3.418   3.045 -0.9448  0.4734 -0.8181
 1799SOL    HW3 7241   1.700   3.564   3.035  0.7909  1.0728  0.7854
 1799SOL    MW4 7242   1.756   3.502   3.060 -0.0640  0.0989  0.3440
 1800SOL     OW 7243   2.020   3.595   2.988  0.3380  0.0024  0.5205
 1800SOL    HW2 7244   2.017   3.685   3.021  0.3677  0.4158 -0.5889
 1800SOL    HW3 7245   1.937   3.556   3.016 -0.2239  0.7616 -0.0711
 1800SOL    MW4 7246   2.008   3.602   2.996  0.2677  0.1574  0.2959
 1801SOL     OW 7247   2.024   3.848   3.093  0.3685 -0.7018  0.1473
 1801SOL    HW2 7248   2.033   3.852   3.188  0.3707  0.0052  0.1226
 1801SOL    HW3 7249   1.937   3.884   3.075  0.6415 -0.1814 -0.1616
 1801SOL    MW4 7250   2.014   3.853   3.103  0.4048 -0.5400  0.1035
 1802SOL     OW 7251   1.806   3.981   3.002  0.0198 -0.1177 -0.0204
 1802SOL    HW2 7252   1.802   4.066   3.046  1.1725  0.0015 -0.1326
 1802SOL    HW3 7253   1.828   4.002   2.911  1.4632 -0.5964  0.2060
 1802SOL    MW4 7254   1.808   3.995   2.996  0.3624 -0.1652 -0.0052
 1803SOL     OW 7255   1.796   4.257   3.076 -0.2095  0.1671  0.3670
 1803SOL    HW2 7256   1.872   4.310   3.050  0.4001 -0.1159  1.5440
 1803SOL    HW3 7257   1.721   4.303   3.038  0.5058  0.6647 -0.4738
 1803SOL    MW4 7258   1.796   4.270   3.067 -0.0347  0.1955  0.4115
 1804SOL     OW 7259   2.020   4.389   3.012 -0.1352 -0.4134  0.1960
 1804SOL    HW2 7260   2.013   4.475   3.054  0.4611 -0.6083  0.7124
 1804SOL    HW3 7261   2.042   4.408   2.921  0.3590 -0.0201  0.3915
 1804SOL    MW4 7262   2.022   4.403   3.006  0.0088 -0.3877  0.2899
 1805SOL     OW 7263   2.462   4.609   3.122 -0.3025 -0.0494  0.2778
 1805SOL    HW2 7264   2.468   4.517   3.096 -1.6009  0.2200 -1.0006
 1805SOL    HW3 7265   2.380   4.640   3.084 -0.4360  1.3435  1.6580
 1805SOL    MW4 7266   2.452   4.601   3.113 -0.4916  0.1698  0.2909
 1806SOL     OW 7267   2.236   0.065   2.993 -0.1502  0.2470 -0.3954
 1806SOL    HW2 7268   2.252   0.157   3.015  1.1632 -0.0231 -0.1243
 1806SOL    HW3 7269   2.161   0.040   3.047 -0.8292  1.3032 -0.8529
 1806SOL    MW4 7270   2.228   0.074   3.003 -0.0665  0.3507 -0.4203
 1807SOL     OW 7271   2.242   0.341   3.097  0.3372  0.1796  0.0096
 1807SOL    HW2 7272   2.237   0.336   3.193 -1.3038 -0.7554 -0.1006
 1807SOL    HW3 7273   2.174   0.404   3.073  0.6321  0.2824 -0.5424
 1807SOL    MW4 7274   2.232   0.348   3.107  0.1595  0.0698 -0.0777
 1808SOL     OW 7275   2.488   0.451   3.051  0.5599 -0.6680 -0.0731
 1808SOL    HW2 7276   2.403   0.413   3.071  1.5936 -2.5839  0.9102
 1808SOL    HW3 7277   2.492   0.454   2.956 -0.6851 -0.3717 -0.1195
 1808SOL    MW4 7278   2.477   0.446   3.041  0.5322 -0.8817  0.0505
 1809SOL     OW 7279   2.462   0.722   3.133  0.2641  0.8852 -0.5158
 1809SOL    HW2 7280   2.543   0.751   3.090  0.9430 -0.1390  0.0430
 1809SOL    HW3 7281   2.458   0.629   3.116 -0.2797  0.7537  0.2987
 1809SOL    MW4 7282   2.472   0.714   3.125  0.2823  0.7327 -0.3345
 1810SOL     OW 7283   2.278   0.880   3.004 -0.1331  0.4201 -0.1183
 1810SOL    HW2 7284   2.340   0.827   3.055 -0.0057 -0.9018 -1.6408
 1810SOL    HW3 7285   2.193   0.841   3.022 -0.1570  0.3223 -0.4397
 1810SOL    MW4 7286   2.275   0.868   3.013 -0.1197  0.2328 -0.3619
 1811SOL     OW 7287   2.274   1.134   3.093  0.3501 -0.3360  0.2473
 1811SOL    HW2 7288   2.298   1.144   3.185  1.8004 -2.0387  0.0668
 1811SOL    HW3 7289   2.291   1.042   3.072  3.0891  0.7095 -2.5689
 1811SOL    MW4 7290   2.279   1.123   3.102  0.9031 -0.4226 -0.1481
 1812SOL     OW 7291   2.466   1.275   2.934 -0.0782  0.1412 -0.2299
 1812SOL    HW2 7292   2.387   1.237   2.973 -0.6268  1.0263 -0.4734
 1812SOL    HW3 7293   2.450   1.272   2.839 -0.5742  1.9231 -0.2232
 1812SOL    MW4 7294   2.454   1.270   2.926 -0.2158  0.4930 -0.2615
 1813SOL     OW 7295   2.507   1.509   3.056 -0.3621 -0.1648  0.6278
 1813SOL    HW2 7296   2.429   1.556   3.028  0.6218 -0.2343 -2.4029
 1813SOL    HW3 7297   2.493   1.419   3.026  0.0053 -0.6454  1.8610
 1813SOL    MW4 7298   2.495   1.503   3.048 -0.1838 -0.2375  0.3908
 1814SOL     OW 7299   2.266   1.662   3.016 -0.0856 -0.1372  0.0594
 1814SOL    HW2 7300   2.192   1.613   3.050  0.5028 -0.6113  0.6700
 1814SOL    HW3 7301   2.257   1.656   2.921 -1.3624  0.6355  0.1211
 1814SOL    MW4 7302   2.255   1.655   3.008 -0.1764 -0.0976  0.1483
 1815SOL     OW 7303   2.205   1.935   3.101 -0.2017 -0.3996 -0.2871
 1815SOL    HW2 7304   2.287   1.965   3.063 -0.0452 -1.7545 -1.0615
 1815SOL    HW3 7305   2.198   1.843   3.074 -0.9999 -0.8628  1.4118
 1815SOL    MW4 7306   2.215   1.927   3.092 -0.2866 -0.6393 -0.1650
 1816SOL     OW 7307   2.429   2.068   3.002  0.1652  0.9553  0.0050
 1816SOL    HW2 7308   2.511   2.034   3.038  0.2501  0.0083 -1.0673
 1816SOL    HW3 7309   2.441   2.062   2.907 -1.9781 -1.2181 -0.1628
 1816SOL    MW4 7310   2.442   2.063   2.994 -0.1063  0.5436 -0.1585
 1817SOL     OW 7311   2.462   2.331   3.061 -0.4181  0.5350 -0.2309
 1817SOL    HW2 7312   2.493   2.347   3.150 -1.9257  0.1097  0.4001
 1817SOL    HW3 7313   2.446   2.237   3.058 -3.4478  0.9886  0.1227
 1817SOL    MW4 7314   2.464   2.321   3.073 -1.0169  0.5386 -0.1009
 1818SOL     OW 7315   2.211   2.445   3.037  0.1077  0.4937  0.3374
 1818SOL    HW2 7316   2.219   2.539   3.054 -1.3967  0.2854  2.3077
 1818SOL    HW3 7317   2.302   2.414   3.037  0.7805  2.2367 -2.3362
 1818SOL    MW4 7318   2.224   2.454   3.039 -0.0021  0.6964  0.2446
 1819SOL     OW 7319   2.242   2.715   3.108 -0.4969  0.7516 -0.1298
 1819SOL    HW2 7320   2.312   2.756   3.057 -0.0657  0.8751  0.5607
 1819SOL    HW3 7321   2.162   2.754   3.074 -0.2072  0.9338 -0.6194
 1819SOL    MW4 7322   2.241   2.725   3.097 -0.4017  0.7920 -0.1035
 1820SOL     OW 7323   2.465   2.809   2.967  0.4942 -0.2115  0.1871
 1820SOL    HW2 7324   2.468   2.903   2.983  2.7520 -0.5050  1.7560
 1820SOL    HW3 7325   2.498   2.799   2.877  3.4131  0.2922  1.1515
 1820SOL    MW4 7326   2.470   2.820   2.957  1.1771 -0.1836  0.5214
 1821SOL     OW 7327   2.469   3.084   3.058  0.0292 -0.3158 -0.5468
 1821SOL    HW2 7328   2.544   3.127   3.018  1.1177 -0.2127  1.5336
 1821SOL    HW3 7329   2.394   3.137   3.032  0.9490  0.8405 -0.8641
 1821SOL    MW4 7330   2.469   3.097   3.049  0.2940 -0.1497 -0.3142
 1822SOL     OW 7331   2.252   3.250   2.977  0.4226 -0.1465  0.0902
 1822SOL    HW2 7332   2.248   3.339   3.010  1.7897 -0.0666  0.0919
 1822SOL    HW3 7333   2.173   3.208   3.010  0.0713  0.8958  0.5910
 1822SOL    MW4 7334   2.241   3.256   2.985  0.5567  0.0017  0.1566
 1823SOL     OW 7335   2.270   3.506   3.100  0.4159 -0.6919 -0.1315
 1823SOL    HW2 7336   2.328   3.552   3.039  0.4250  2.1087  1.8650
 1823SOL    HW3 7337   2.182   3.535   3.077  0.2054 -1.5313 -0.3803
 1823SOL    MW4 7338   2.266   3.516   3.089  0.3891 -0.4332  0.0992
 1824SOL     OW 7339   2.466   3.634   2.951  0.0533 -0.1217 -0.1194
 1824SOL    HW2 7340   2.541   3.582   2.980  1.2139  0.4619 -2.0606
 1824SOL    HW3 7341   2.470   3.713   3.004  1.2596  0.2467 -0.7490
 1824SOL    MW4 7342   2.476   3.637   2.962  0.3653  0.0038 -0.4585
 1825SOL     OW 7343   2.455   3.885   3.094 -0.2426 -0.2898  0.0611
 1825SOL    HW2 7344   2.474   3.873   3.187 -0.5792  1.2183  0.3398
 1825SOL    HW3 7345   2.530   3.932   3.059 -0.2325 -0.6234 -0.3816
 1825SOL    MW4 7346   2.467   3.890   3.101 -0.2856 -0.1349  0.0393
 1826SOL     OW 7347   2.221   3.996   2.971  0.1190  0.1457 -0.5111
 1826SOL    HW2 7348   2.298   3.963   3.018  0.4058 -1.1940 -1.8669
 1826SOL    HW3 7349   2.147   3.959   3.019  0.3223  1.1093  0.5635
 1826SOL    MW4 7350   2.222   3.986   2.983  0.1836  0.0958 -0.5481
 1827SOL     OW 7351   2.233   4.235   3.104 -0.1046 -0.3212 -0.1766
 1827SOL    HW2 7352   2.233   4.155   3.051 -1.8596 -1.0823  0.9195
 1827SOL    HW3 7353   2.167   4.291   3.061  1.3243  0.6731 -1.1126
 1827SOL    MW4 7354   2.224   4.232   3.091 -0.1476 -0.2904 -0.1554
 1828SOL     OW 7355   2.457   4.370   3.000 -0.7475 -0.6160  0.0921
 1828SOL    HW2 7356   2.374   4.329   3.026 -1.8924  1.5940  0.0772
 1828SOL    HW3 7357   2.451   4.379   2.905 -0.8286  0.2167  0.1713
 1828SOL    MW4 7358   2.445   4.366   2.991 -0.9091 -0.2146  0.1006
 1829SOL     OW 7359   2.954   4.605   3.121 -0.2271 -0.0355  0.5812
 1829SOL    HW2 7360   3.029   4.657   3.095 -0.5864  0.3508  0.3102
 1829SOL    HW3 7361   2.953   4.531   3.060  0.3419 -0.4188  1.0317
 1829SOL    MW4 7362   2.964   4.602   3.109 -0.1996 -0.0353  0.6046
 1830SOL     OW 7363   2.701   0.059   2.994  0.2727  0.3905  0.5417
 1830SOL    HW2 7364   2.775   0.021   3.041  0.2744  1.5191  1.4756
 1830SOL    HW3 7365   2.625   0.014   3.029  0.4829 -0.6153 -0.2605
 1830SOL    MW4 7366   2.701   0.048   3.004  0.3004  0.4067  0.5591
 1831SOL     OW 7367   2.733   0.321   3.125  0.1172 -0.8473 -0.6829
 1831SOL    HW2 7368   2.731   0.234   3.085 -1.6987 -0.5454 -1.3088
 1831SOL    HW3 7369   2.661   0.369   3.082  0.1468  0.4842  0.7022
 1831SOL    MW4 7370   2.723   0.316   3.114 -0.1183 -0.6318 -0.5827
 1832SOL     OW 7371   2.938   0.486   3.030  0.4612  0.1366 -0.2350
 1832SOL    HW2 7372   2.867   0.439   3.074  1.7815 -1.9893 -0.3008
 1832SOL    HW3 7373   2.911   0.487   2.938 -0.1398  0.5651 -0.0580
 1832SOL    MW4 7374   2.925   0.480   3.023  0.5562 -0.0874 -0.2203
 1833SOL     OW 7375   2.942   0.743   3.140  0.0412  0.2069 -0.0040
 1833SOL    HW2 7376   2.942   0.727   3.235  2.1706  0.8832  0.1309
 1833SOL    HW3 7377   2.946   0.656   3.101 -1.1378 -0.0920  0.4999
 1833SOL    MW4 7378   2.942   0.729   3.148  0.1667  0.2567  0.0801
 1834SOL     OW 7379   2.698   0.855   3.060  0.0736  0.1884 -0.0744
 1834SOL    HW2 7380   2.685   0.949   3.074  0.2122  0.3780 -1.1861
 1834SOL    HW3 7381   2.790   0.840   3.081  0.2865  0.4756 -0.7887
 1834SOL    MW4 7382   2.708   0.865   3.065  0.1199  0.2513 -0.3154
 1835SOL     OW 7383   2.654   1.132   3.104 -0.0560  0.2914 -0.0035
 1835SOL    HW2 7384   2.730   1.175   3.065 -0.1886  0.4818 -0.0466
 1835SOL    HW3 7385   2.578   1.172   3.062 -0.2555  1.4902  1.4387
 1835SOL    MW4 7386   2.654   1.143   3.093 -0.0994  0.4746  0.1810
 1836SOL     OW 7387   2.909   1.254   3.035  0.2662  0.1136 -0.0288
 1836SOL    HW2 7388   2.973   1.199   3.081 -0.3797 -0.2059  0.5124
 1836SOL    HW3 7389   2.943   1.343   3.043  0.1603  0.0645  1.1079
 1836SOL    MW4 7390   2.922   1.258   3.042  0.1671  0.0651  0.1926
 1837SOL     OW 7391   2.949   1.519   3.033 -0.0187  0.0671  0.0722
 1837SOL    HW2 7392   2.946   1.535   3.127  0.2603 -0.0758  0.1058
 1837SOL    HW3 7393   3.031   1.559   3.004 -0.4250  0.6976 -0.2225
 1837SOL    MW4 7394   2.960   1.527   3.042 -0.0355  0.1315  0.0377
 1838SOL     OW 7395   2.725   1.675   2.989 -0.3172  0.4061  0.0185
 1838SOL    HW2 7396   2.810   1.637   3.012  0.0954  0.1090 -1.8518
 1838SOL    HW3 7397   2.661   1.620   3.033  0.4132 -0.3518  0.1507
 1838SOL    MW4 7398   2.728   1.662   2.998 -0.1664  0.2669 -0.2108
 1839SOL     OW 7399   2.666   1.949   3.086 -0.2997  0.0387 -0.1014
 1839SOL    HW2 7400   2.757   1.976   3.072 -0.2500  0.4720  1.0075
 1839SOL    HW3 7401   2.664   1.859   3.055  0.3019  0.2839 -0.9054
 1839SOL    MW4 7402   2.678   1.941   3.080 -0.2139  0.1281 -0.0613
 1840SOL     OW 7403   2.929   2.028   3.020 -0.2032 -0.0854 -0.1523
 1840SOL    HW2 7404   2.932   2.121   3.044  1.6176 -0.3048  0.5082
 1840SOL    HW3 7405   2.919   2.028   2.925  0.8824  0.7800 -0.2665
 1840SOL    MW4 7406   2.928   2.041   3.011  0.1805 -0.0002 -0.0803
 1841SOL     OW 7407   2.873   2.283   3.110 -0.1401 -0.1477  0.0228
 1841SOL    HW2 7408   2.956   2.325   3.090 -0.0850 -0.6437 -0.8259
 1841SOL    HW3 7409   2.807   2.340   3.070 -0.0134 -1.2792 -1.8572
 1841SOL    MW4 7410   2.875   2.296   3.102 -0.1161 -0.3624 -0.3374
 1842SOL     OW 7411   2.692   2.453   2.955  0.2086  0.0776  0.1310
 1842SOL    HW2 7412   2.686   2.537   2.999 -0.9920 -0.0180  0.1782
 1842SOL    HW3 7413   2.614   2.405   2.984  1.1864 -1.2831  0.5861
 1842SOL    MW4 7414   2.681   2.458   2.964  0.1793 -0.1144  0.1972
 1843SOL     OW 7415   2.681   2.703   3.070  0.0080  0.8895 -0.4830
 1843SOL    HW2 7416   2.699   2.704   3.164  0.4748 -1.0861 -0.5120
 1843SOL    HW3 7417   2.596   2.746   3.061  0.7135  2.5833  0.6398
 1843SOL    MW4 7418   2.672   2.709   3.081  0.1628  0.8521 -0.3386
 1844SOL     OW 7419   2.906   2.818   2.963  0.1579  0.3047 -0.0339
 1844SOL    HW2 7420   2.979   2.764   2.994  0.0077  0.3265  0.3566
 1844SOL    HW3 7421   2.829   2.782   3.006  0.1139  1.0887  0.5538
 1844SOL    MW4 7422   2.906   2.806   2.973  0.1323  0.4110  0.0954
 1845SOL     OW 7423   2.920   3.082   3.065  0.5272 -0.2658 -0.1468
 1845SOL    HW2 7424   2.839   3.119   3.031 -0.1510 -1.2021  0.4309
 1845SOL    HW3 7425   2.921   2.992   3.033  0.4673 -0.7948  1.2709
 1845SOL    MW4 7426   2.909   3.075   3.056  0.4296 -0.4592  0.1166
 1846SOL     OW 7427   2.700   3.212   2.960 -0.5276  0.2309  0.0232
 1846SOL    HW2 7428   2.713   3.306   2.958 -0.1689  0.1828  0.1125
 1846SOL    HW3 7429   2.701   3.185   2.868 -0.0785  0.2363  0.0276
 1846SOL    MW4 7430   2.702   3.221   2.948 -0.4208  0.2255  0.0353
 1847SOL     OW 7431   2.695   3.489   3.028  0.2817  0.8395 -0.1807
 1847SOL    HW2 7432   2.693   3.486   3.124 -0.2450  0.7568 -0.1920
 1847SOL    HW3 7433   2.776   3.535   3.007 -0.4765  2.4977  0.3485
 1847SOL    MW4 7434   2.705   3.495   3.038  0.1121  1.0474 -0.1125
 1848SOL     OW 7435   2.932   3.613   2.964 -0.2370 -0.4503  0.5158
 1848SOL    HW2 7436   2.991   3.559   3.017 -0.7217  0.6336  2.2095
 1848SOL    HW3 7437   2.934   3.698   3.007 -0.9946  0.3252 -0.9816
 1848SOL    MW4 7438   2.940   3.617   2.977 -0.4010 -0.2050  0.5422
 1849SOL     OW 7439   2.950   3.868   3.089 -0.5554 -0.1973  0.4704
 1849SOL    HW2 7440   2.935   3.860   3.183 -1.2580  0.8427  0.4535
 1849SOL    HW3 7441   2.874   3.916   3.056 -0.4386 -0.7881 -0.6689
 1849SOL    MW4 7442   2.938   3.874   3.097 -0.6328 -0.1383  0.3178
 1850SOL     OW 7443   2.704   3.996   2.985 -0.3628 -0.2179  0.1027
 1850SOL    HW2 7444   2.701   4.090   3.003  1.8145 -0.1245  0.1579
 1850SOL    HW3 7445   2.692   3.990   2.890 -1.2464  0.0659  0.1963
 1850SOL    MW4 7446   2.702   4.008   2.975 -0.1922 -0.1678  0.1225
 1851SOL     OW 7447   2.691   4.246   3.060  0.4608  0.4629  0.7770
 1851SOL    HW2 7448   2.700   4.233   3.154  0.7197  1.5438  0.9014
 1851SOL    HW3 7449   2.609   4.294   3.050  0.9592  1.2660  0.5292
 1851SOL    MW4 7450   2.682   4.251   3.071  0.5608  0.7114  0.7608
 1852SOL     OW 7451   2.921   4.373   2.978 -0.5544 -0.0928 -0.3587
 1852SOL    HW2 7452   2.995   4.327   3.017  0.2949  1.6895  0.2145
 1852SOL    HW3 7453   2.844   4.329   3.013  0.2278 -1.7774 -0.7137
 1852SOL    MW4 7454   2.921   4.361   2.988 -0.3390 -0.0801 -0.3300
 1853SOL     OW 7455   3.363   4.645   3.131  0.7022 -0.6006 -0.2279
 1853SOL    HW2 7456   3.447   4.687   3.114  0.9669 -0.7756  0.6469
 1853SOL    HW3 7457   3.368   4.561   3.086  0.3534  0.0822 -1.5805
 1853SOL    MW4 7458   3.375   4.640   3.123  0.6912 -0.5336 -0.2906
 1854SOL     OW 7459   3.147   0.111   3.022 -0.1208  0.2324  0.2564
 1854SOL    HW2 7460   3.129   0.194   3.066  0.6091  0.6441 -0.1940
 1854SOL    HW3 7461   3.227   0.079   3.063 -0.6400 -0.4651  0.7251
 1854SOL    MW4 7462   3.155   0.118   3.033 -0.0927  0.1947  0.2589
 1855SOL     OW 7463   3.147   0.352   3.153 -0.1543  0.3716 -0.0137
 1855SOL    HW2 7464   3.226   0.394   3.117 -0.6189  1.1540 -0.1280
 1855SOL    HW3 7465   3.075   0.404   3.119 -0.8057 -1.0826 -0.9303
 1855SOL    MW4 7466   3.148   0.364   3.144 -0.3016  0.2830 -0.1497
 1856SOL     OW 7467   3.355   0.485   3.069 -0.3560 -0.6306  0.2312
 1856SOL    HW2 7468   3.442   0.447   3.079 -0.3958 -1.3300 -1.9237
 1856SOL    HW3 7469   3.333   0.472   2.977 -2.4855  0.0985  0.6052
 1856SOL    MW4 7470   3.364   0.478   3.058 -0.6423 -0.6267 -0.0038
 1857SOL     OW 7471   3.396   0.755   3.127  0.2323  0.7134 -0.6724
 1857SOL    HW2 7472   3.384   0.748   3.222 -0.8479 -0.1510 -0.8579
 1857SOL    HW3 7473   3.396   0.664   3.097 -0.4816  1.0257 -1.6228
 1857SOL    MW4 7474   3.394   0.742   3.136 -0.0045  0.6406 -0.8223
 1858SOL     OW 7475   3.175   0.889   3.054 -0.1399  0.1944 -0.1014
 1858SOL    HW2 7476   3.254   0.842   3.079  0.1757  0.7282 -0.0867
 1858SOL    HW3 7477   3.103   0.830   3.078  0.2923 -0.9359 -1.4791
 1858SOL    MW4 7478   3.176   0.875   3.060 -0.0410  0.1157 -0.2813
 1859SOL     OW 7479   3.171   1.143   3.133 -0.0078 -0.0278  0.2581
 1859SOL    HW2 7480   3.249   1.170   3.085  1.8173 -2.5314  1.6671
 1859SOL    HW3 7481   3.162   1.050   3.113 -0.4028 -0.6387  3.1126
 1859SOL    MW4 7482   3.180   1.134   3.124  0.1807 -0.4387  0.8206
 1860SOL     OW 7483   3.397   1.283   3.032 -0.4562 -0.1104  0.4957
 1860SOL    HW2 7484   3.480   1.270   3.078  0.0746 -0.5361 -0.5677
 1860SOL    HW3 7485   3.385   1.378   3.030  1.3066  0.0963 -1.6011
 1860SOL    MW4 7486   3.406   1.294   3.038 -0.1535 -0.1394  0.0789
 1861SOL     OW 7487   3.387   1.556   3.060 -0.1438 -0.2913 -0.2590
 1861SOL    HW2 7488   3.386   1.539   3.154 -0.1191 -1.2928 -0.4322
 1861SOL    HW3 7489   3.475   1.591   3.043  0.0220 -0.5743  0.0119
 1861SOL    MW4 7490   3.399   1.559   3.070 -0.1185 -0.4607 -0.2463
 1862SOL     OW 7491   3.172   1.688   2.958 -0.1003  0.3050 -0.1701
 1862SOL    HW2 7492   3.250   1.644   2.992  0.3347  1.1850 -0.0239
 1862SOL    HW3 7493   3.180   1.679   2.863  0.2643  0.5410 -0.1633
 1862SOL    MW4 7494   3.184   1.681   2.950  0.0052  0.4522 -0.1500
 1863SOL     OW 7495   3.187   1.931   3.078  0.2815  0.3618 -0.2514
 1863SOL    HW2 7496   3.188   1.851   3.026  1.6016  1.7986 -2.5579
 1863SOL    HW3 7497   3.098   1.965   3.070  0.5858  0.7857 -1.9857
 1863SOL    MW4 7498   3.175   1.925   3.070  0.4961  0.6075 -0.7844
 1864SOL     OW 7499   3.420   2.068   3.006  0.2100  0.3568  0.0823
 1864SOL    HW2 7500   3.491   2.010   3.035 -0.1381 -0.1221 -0.0037
 1864SOL    HW3 7501   3.341   2.028   3.044 -0.0125  0.8676  0.1518
 1864SOL    MW4 7502   3.419   2.055   3.015  0.1345  0.3612  0.0803
 1865SOL     OW 7503   3.376   2.354   3.075  0.1073  0.2453 -0.2955
 1865SOL    HW2 7504   3.385   2.344   3.170 -1.5989  0.1594 -0.1261
 1865SOL    HW3 7505   3.386   2.266   3.040 -0.4819  0.0981 -0.0893
 1865SOL    MW4 7506   3.379   2.341   3.083 -0.1957  0.2146 -0.2463
 1866SOL     OW 7507   3.123   2.396   3.017 -0.4484 -0.0148 -0.2362
 1866SOL    HW2 7508   3.213   2.365   3.032 -0.9638 -1.3006  0.2935
 1866SOL    HW3 7509   3.119   2.409   2.922 -0.2390 -1.7668 -0.5129
 1866SOL    MW4 7510   3.135   2.393   3.006 -0.4888 -0.4158 -0.2027
 1867SOL     OW 7511   3.130   2.676   3.077 -0.0827 -0.0160  0.5438
 1867SOL    HW2 7512   3.156   2.673   3.169  0.9335 -0.0193  0.2634
 1867SOL    HW3 7513   3.124   2.584   3.051  1.8536 -0.0088  0.0034
 1867SOL    MW4 7514   3.132   2.663   3.086  0.3066 -0.0155  0.4354
 1868SOL     OW 7515   3.373   2.805   2.993  0.0293 -0.4905  0.1322
 1868SOL    HW2 7516   3.366   2.889   3.038 -1.4227  0.3947 -1.7078
 1868SOL    HW3 7517   3.290   2.762   3.012  0.3516 -1.0921  0.1916
 1868SOL    MW4 7518   3.361   2.810   3.002 -0.1197 -0.4530 -0.1028
 1869SOL     OW 7519   3.381   3.066   3.086 -0.0339  0.1347  0.2389
 1869SOL    HW2 7520   3.401   3.080   3.179 -1.9424  0.9670  0.5420
 1869SOL    HW3 7521   3.296   3.107   3.073  0.6637  0.8983 -2.1349
 1869SOL    MW4 7522   3.372   3.073   3.097 -0.1936  0.3450 -0.0343
 1870SOL     OW 7523   3.155   3.201   3.000 -0.5653  0.6012  0.0387
 1870SOL    HW2 7524   3.087   3.144   3.034  0.2683  0.1606  1.0095
 1870SOL    HW3 7525   3.130   3.218   2.909 -0.9106 -1.1830 -0.2191
 1870SOL    MW4 7526   3.143   3.196   2.992 -0.5009  0.3078  0.1328
 1871SOL     OW 7527   3.120   3.479   3.099 -0.2915  0.3459  0.0881
 1871SOL    HW2 7528   3.198   3.522   3.065 -1.3199  1.4547 -0.9062
 1871SOL    HW3 7529   3.139   3.386   3.093  1.7258  0.6176  1.6731
 1871SOL    MW4 7530   3.132   3.472   3.094 -0.1612  0.5281  0.1659
 1872SOL     OW 7531   3.354   3.566   2.985 -0.1104 -0.2218 -0.3647
 1872SOL    HW2 7532   3.430   3.516   3.015  0.4526  0.9340  0.1510
 1872SOL    HW3 7533   3.364   3.652   3.025 -1.5001  0.0630 -0.5909
 1872SOL    MW4 7534   3.365   3.571   2.994 -0.2193 -0.0317 -0.3264
 1873SOL     OW 7535   3.358   3.828   3.099  0.5977  0.3594  0.6311
 1873SOL    HW2 7536   3.362   3.838   3.194  0.5476  0.8236  0.5883
 1873SOL    HW3 7537   3.305   3.903   3.070  0.6111  0.2158  0.2414
 1873SOL    MW4 7538   3.352   3.839   3.108  0.5932  0.4017  0.5741
 1874SOL     OW 7539   3.174   4.012   3.020  0.1846  0.3209 -0.2477
 1874SOL    HW2 7540   3.089   3.976   3.044 -0.3105  2.3264  1.1690
 1874SOL    HW3 7541   3.168   4.027   2.925 -0.8721  0.0420 -0.2269
 1874SOL    MW4 7542   3.162   4.009   3.010 -0.0200  0.5493 -0.0579
 1875SOL     OW 7543   3.150   4.285   3.096  0.3839  0.0360  0.2590
 1875SOL    HW2 7544   3.136   4.296   3.190 -0.0035  0.6476  0.1348
 1875SOL    HW3 7545   3.153   4.190   3.083  0.1559 -0.0532  0.8430
 1875SOL    MW4 7546   3.149   4.274   3.107  0.3026  0.1044  0.3195
 1876SOL     OW 7547   3.386   4.388   2.993 -0.1303  0.4944 -0.3112
 1876SOL    HW2 7548   3.463   4.357   3.040 -0.7558  0.4726  0.7164
 1876SOL    HW3 7549   3.312   4.344   3.035 -0.9507  2.6501  0.5887
 1876SOL    MW4 7550   3.387   4.378   3.005 -0.3209  0.7758 -0.0567
 1877SOL     OW 7551   3.831   4.647   3.065 -0.6539 -0.8756 -0.6238
 1877SOL    HW2 7552   3.810   4.554   3.053 -2.5470 -0.8786  2.1466
 1877SOL    HW3 7553   3.747   4.691   3.051 -0.4193  0.1121  1.0873
 1877SOL    MW4 7554   3.817   4.640   3.061 -0.8726 -0.7456 -0.0324
 1878SOL     OW 7555   3.587   0.096   3.052 -0.1573  0.1454  0.2938
 1878SOL    HW2 7556   3.586   0.184   3.089  0.1452 -0.0408  0.7522
 1878SOL    HW3 7557   3.579   0.109   2.958  1.0266  0.7219  0.2673
 1878SOL    MW4 7558   3.586   0.109   3.045  0.0386  0.1969  0.3507
 1879SOL     OW 7559   3.606   0.376   3.122 -0.0657  0.3766  0.1532
 1879SOL    HW2 7560   3.608   0.372   3.217  1.5034 -3.7065  0.0442
 1879SOL    HW3 7561   3.691   0.412   3.097 -0.1429  0.6500  0.2923
 1879SOL    MW4 7562   3.618   0.380   3.131  0.1311 -0.1261  0.1574
 1880SOL     OW 7563   3.824   0.510   3.024 -0.1085  0.0686  0.0188
 1880SOL    HW2 7564   3.903   0.471   3.060 -1.6776 -1.0431  2.3842
 1880SOL    HW3 7565   3.833   0.603   3.040  0.3867 -0.1414  0.9676
 1880SOL    MW4 7566   3.836   0.517   3.031 -0.2503 -0.1057  0.4559
 1881SOL     OW 7567   3.829   0.782   3.132 -0.4471 -0.2539 -0.3520
 1881SOL    HW2 7568   3.821   0.777   3.227  1.1196 -0.4298 -0.2217
 1881SOL    HW3 7569   3.911   0.829   3.118 -1.5451  1.3314 -1.6130
 1881SOL    MW4 7570   3.839   0.788   3.143 -0.3853 -0.0679 -0.5009
 1882SOL     OW 7571   3.600   0.916   3.039 -0.1248  0.5946 -0.1582
 1882SOL    HW2 7572   3.678   0.872   3.073  0.0742  0.5402 -0.6855
 1882SOL    HW3 7573   3.528   0.861   3.068  0.2136 -0.8825 -2.0227
 1882SOL    MW4 7574   3.601   0.903   3.048 -0.0541  0.3926 -0.4737
 1883SOL     OW 7575   3.628   1.181   3.130  0.7902 -0.1616  0.1324
 1883SOL    HW2 7576   3.685   1.222   3.065  1.3378 -1.6651 -0.3537
 1883SOL    HW3 7577   3.619   1.091   3.100 -0.9577 -0.2254  0.8151
 1883SOL    MW4 7578   3.635   1.175   3.117  0.6320 -0.3685  0.1583
 1884SOL     OW 7579   3.827   1.302   2.994 -0.0859 -0.6861  0.0396
 1884SOL    HW2 7580   3.840   1.392   3.022  1.0592 -1.0271  0.6292
 1884SOL    HW3 7581   3.834   1.305   2.899 -0.2272 -0.1305  0.0451
 1884SOL    MW4 7582   3.830   1.314   2.985  0.0467 -0.6578  0.1183
 1885SOL     OW 7583   3.865   1.549   3.091 -0.0361 -0.1499  0.1285
 1885SOL    HW2 7584   3.847   1.563   3.183 -0.7842  1.1632 -0.2102
 1885SOL    HW3 7585   3.788   1.583   3.045  1.7970  2.4636 -1.1585
 1885SOL    MW4 7586   3.853   1.555   3.097  0.1068  0.3682 -0.0865
 1886SOL     OW 7587   3.623   1.652   2.974  0.2664  0.0919  0.4090
 1886SOL    HW2 7588   3.615   1.746   2.989  1.0387  0.3637 -0.8184
 1886SOL    HW3 7589   3.608   1.641   2.880 -1.6562 -1.2355  0.8220
 1886SOL    MW4 7590   3.620   1.663   2.963  0.1147 -0.0474  0.3018
 1887SOL     OW 7591   3.623   1.900   3.068  0.4853  0.4555  0.2949
 1887SOL    HW2 7592   3.607   1.893   3.162 -0.2390 -0.4920  0.1140
 1887SOL    HW3 7593   3.704   1.950   3.060  0.3515  0.8588  1.4091
 1887SOL    MW4 7594   3.631   1.906   3.079  0.3722  0.3836  0.4182
 1888SOL     OW 7595   3.857   2.038   3.008  0.2846  0.0355  0.2215
 1888SOL    HW2 7596   3.839   2.129   3.033 -0.7448 -0.0846 -0.0672
 1888SOL    HW3 7597   3.844   2.036   2.913 -1.3154 -0.7807  0.4405
 1888SOL    MW4 7598   3.853   2.050   2.999 -0.0625 -0.0882  0.2120
 1889SOL     OW 7599   3.823   2.304   3.101 -0.2681  0.0737 -0.0593
 1889SOL    HW2 7600   3.824   2.317   3.195 -1.0968 -0.3624  0.0148
 1889SOL    HW3 7601   3.752   2.359   3.069 -0.6069 -0.5086 -0.3150
 1889SOL    MW4 7602   3.814   2.313   3.109 -0.4220 -0.0606 -0.0832
 1890SOL     OW 7603   3.620   2.457   3.013  0.5052 -0.2876  0.3807
 1890SOL    HW2 7604   3.623   2.542   3.058  0.8768 -0.9453  1.6165
 1890SOL    HW3 7605   3.532   2.424   3.031  0.7792 -0.7169  0.9390
 1890SOL    MW4 7606   3.609   2.464   3.022  0.5903 -0.4313  0.6175
 1891SOL     OW 7607   3.599   2.705   3.120  0.2458 -0.1306 -0.5853
 1891SOL    HW2 7608   3.682   2.745   3.092  0.5489  0.8075  1.5437
 1891SOL    HW3 7609   3.533   2.742   3.062  0.9543  1.2072 -0.5470
 1891SOL    MW4 7610   3.601   2.715   3.109  0.3791  0.1698 -0.2995
 1892SOL     OW 7611   3.841   2.821   3.014 -0.2113  0.6395  0.2922
 1892SOL    HW2 7612   3.846   2.909   3.051 -0.3419  1.0680 -0.6944
 1892SOL    HW3 7613   3.827   2.835   2.920  2.8482 -0.4112 -0.3763
 1892SOL    MW4 7614   3.840   2.834   3.007  0.1752  0.5574  0.0739
 1893SOL     OW 7615   3.858   3.090   3.127 -0.9633  0.0127  0.1555
 1893SOL    HW2 7616   3.935   3.134   3.090 -0.0841 -0.1297  1.7956
 1893SOL    HW3 7617   3.786   3.118   3.070  0.1366  0.9040 -0.8344
 1893SOL    MW4 7618   3.859   3.100   3.114 -0.7024  0.1116  0.2410
 1894SOL     OW 7619   3.631   3.158   2.986 -0.0397 -0.4514 -0.0363
 1894SOL    HW2 7620   3.545   3.131   3.018 -0.1067 -0.2526 -0.0479
 1894SOL    HW3 7621   3.616   3.186   2.895 -0.1835  0.7198  0.3365
 1894SOL    MW4 7622   3.618   3.159   2.978 -0.0675 -0.2706  0.0114
 1895SOL     OW 7623   3.570   3.426   3.084 -0.1853 -0.2959 -0.1701
 1895SOL    HW2 7624   3.642   3.482   3.054 -0.2010 -0.7033 -0.9764
 1895SOL    HW3 7625   3.596   3.338   3.057 -0.1050 -0.6973  1.1977
 1895SOL    MW4 7626   3.583   3.422   3.076 -0.1767 -0.4027 -0.0961
 1896SOL     OW 7627   3.767   3.602   3.025 -0.0726  0.0903 -0.2886
 1896SOL    HW2 7628   3.749   3.691   3.058 -1.2205 -0.2710  0.1009
 1896SOL    HW3 7629   3.778   3.613   2.931  0.6800  0.7750 -0.1249
 1896SOL    MW4 7630   3.766   3.615   3.017 -0.1245  0.1330 -0.2158
 1897SOL     OW 7631   3.791   3.875   3.086  0.1727  0.2857 -0.1623
 1897SOL    HW2 7632   3.803   3.881   3.181  2.8135  2.3513 -0.5613
 1897SOL    HW3 7633   3.705   3.915   3.070 -0.8110 -1.1034  1.4163
 1897SOL    MW4 7634   3.781   3.881   3.096  0.3912  0.3748 -0.0069
 1898SOL     OW 7635   3.558   3.998   3.013  0.2233  0.3499  0.0177
 1898SOL    HW2 7636   3.494   3.928   3.025 -0.9784  1.6132  1.1550
 1898SOL    HW3 7637   3.572   4.002   2.918 -0.8798 -0.3848 -0.1854
 1898SOL    MW4 7638   3.552   3.989   3.002 -0.0811  0.4194  0.1407
 1899SOL     OW 7639   3.590   4.252   3.134 -0.1996 -0.1862  0.2581
 1899SOL    HW2 7640   3.678   4.279   3.108 -0.0496 -0.9265 -0.0316
 1899SOL    HW3 7641   3.572   4.175   3.080 -1.1458  0.1343  0.1018
 1899SOL    MW4 7642   3.599   4.245   3.124 -0.3047 -0.2413  0.1993
 1900SOL     OW 7643   3.814   4.366   3.000 -0.0018 -0.5786  0.2230
 1900SOL    HW2 7644   3.906   4.339   2.995  0.3930  0.2022  2.6558
 1900SOL    HW3 7645   3.783   4.361   2.909  2.6792  0.0195 -0.7768
 1900SOL    MW4 7646   3.822   4.361   2.987  0.4041 -0.3967  0.4120
 1901SOL     OW 7647   4.254   0.036   3.051  0.1113 -0.0593 -0.2781
 1901SOL    HW2 7648   4.250   0.039   3.147 -1.1232 -1.3705 -0.2573
 1901SOL    HW3 7649   4.237  -0.056   3.030  0.2829  0.2387 -1.7576
 1901SOL    MW4 7650   4.251   0.024   3.061 -0.0296 -0.1930 -0.4706
 1902SOL     OW 7651   4.034   0.179   3.001 -0.7533 -0.2118  0.1363
 1902SOL    HW2 7652   4.118   0.134   3.017 -1.6783 -1.5351  1.4798
 1902SOL    HW3 7653   3.968   0.114   3.026 -2.1479  1.3609  0.5747
 1902SOL    MW4 7654   4.036   0.164   3.007 -1.0591 -0.1789  0.3717
 1903SOL     OW 7655   4.046   0.379   3.175 -0.2012  0.6233 -0.3596
 1903SOL    HW2 7656   4.119   0.425   3.134  0.8029 -0.8638 -0.2820
 1903SOL    HW3 7657   4.036   0.299   3.124  0.4346 -0.7894  1.6949
 1903SOL    MW4 7658   4.054   0.375   3.163  0.0157  0.2407 -0.0782
 1904SOL     OW 7659   4.237   0.522   3.029 -0.1555  0.0056  0.4847
 1904SOL    HW2 7660   4.241   0.617   3.039  1.6528  0.0271 -0.2888
 1904SOL    HW3 7661   4.237   0.507   2.935  0.4263 -0.7973  0.6055
 1904SOL    MW4 7662   4.238   0.532   3.018  0.1602 -0.0975  0.3986
 1905SOL     OW 7663   4.269   0.774   3.117  0.1892 -0.1770 -0.5756
 1905SOL    HW2 7664   4.195   0.825   3.085 -0.0777 -1.5014 -2.1563
 1905SOL    HW3 7665   4.345   0.813   3.074  0.3405  0.7115  0.4732
 1905SOL    MW4 7666   4.269   0.786   3.107  0.1740 -0.2345 -0.6456
 1906SOL     OW 7667   4.057   0.926   3.031 -0.0702 -0.0567  0.4271
 1906SOL    HW2 7668   4.050   1.013   3.070 -0.6838 -0.0365  0.2709
 1906SOL    HW3 7669   4.052   0.942   2.937 -0.8765 -0.3282  0.4234
 1906SOL    MW4 7670   4.056   0.940   3.024 -0.2575 -0.0899  0.4060
 1907SOL     OW 7671   4.047   1.204   3.128  0.4973  0.4062  0.5560
 1907SOL    HW2 7672   4.051   1.197   3.224  0.2984  0.0372  0.5409
 1907SOL    HW3 7673   3.967   1.253   3.111 -0.4466 -1.0907  0.5290
 1907SOL    MW4 7674   4.037   1.209   3.138  0.3467  0.1601  0.5503
 1908SOL     OW 7675   4.293   1.290   3.043  0.2050  0.3445  0.2151
 1908SOL    HW2 7676   4.207   1.266   3.079 -0.2825  0.4560 -0.8640
 1908SOL    HW3 7677   4.284   1.280   2.949  2.1625 -2.0764  0.2424
 1908SOL    MW4 7678   4.280   1.286   3.036  0.3991  0.0398  0.0763
 1909SOL     OW 7679   4.313   1.547   3.094 -0.2408 -0.1426 -0.1703
 1909SOL    HW2 7680   4.230   1.582   3.062  0.1406 -0.8891 -2.0627
 1909SOL    HW3 7681   4.306   1.453   3.081  1.5520 -0.0610 -2.0258
 1909SOL    MW4 7682   4.301   1.539   3.088  0.0463 -0.2303 -0.6649
 1910SOL     OW 7683   4.085   1.685   2.997 -0.0196 -0.4230  0.2540
 1910SOL    HW2 7684   4.080   1.768   3.043 -0.7866 -0.8617  0.9755
 1910SOL    HW3 7685   4.006   1.638   3.024  0.3734 -1.3545 -0.2046
 1910SOL    MW4 7686   4.074   1.690   3.007 -0.0687 -0.6038  0.2887
 1911SOL     OW 7687   4.061   1.930   3.152  0.1149  0.8273  0.3699
 1911SOL    HW2 7688   4.133   1.977   3.111 -0.4220  1.0828 -0.2997
 1911SOL    HW3 7689   3.983   1.961   3.105 -0.1303 -1.7471 -1.0194
 1911SOL    MW4 7690   4.060   1.940   3.140  0.0124  0.5213  0.0982
 1912SOL     OW 7691   4.275   2.025   3.012 -0.0130 -0.1673  0.0824
 1912SOL    HW2 7692   4.286   2.117   3.036  0.3311 -0.1600 -0.1001
 1912SOL    HW3 7693   4.272   2.025   2.916 -0.4042 -0.3029  0.0940
 1912SOL    MW4 7694   4.276   2.037   3.003 -0.0191 -0.1843  0.0596
 1913SOL     OW 7695   4.287   2.296   3.115  0.1264 -0.4298  0.0290
 1913SOL    HW2 7696   4.207   2.324   3.072 -0.4816  0.3404  1.6305
 1913SOL    HW3 7697   4.356   2.350   3.076 -0.0140 -1.4804 -1.7546
 1913SOL    MW4 7698   4.286   2.307   3.104  0.0277 -0.4668  0.0050
 1914SOL     OW 7699   4.065   2.404   2.998 -0.2028  0.2390  0.0362
 1914SOL    HW2 7700   4.063   2.497   3.020 -0.3392 -0.1040  1.5337
 1914SOL    HW3 7701   3.984   2.369   3.035  0.3569 -0.6624  0.4166
 1914SOL    MW4 7702   4.054   2.412   3.006 -0.1464  0.0749  0.2840
 1915SOL     OW 7703   4.055   2.677   3.087 -0.0743  0.3868 -0.4941
 1915SOL    HW2 7704   4.059   2.698   3.180  0.4648  0.5153 -0.5429
 1915SOL    HW3 7705   3.972   2.713   3.057 -1.4583 -1.8939  0.4946
 1915SOL    MW4 7706   4.045   2.684   3.095 -0.1855  0.1030 -0.3703
 1916SOL     OW 7707   4.287   2.811   3.007 -0.2487  0.4893  0.0215
 1916SOL    HW2 7708   4.215   2.751   3.025 -0.5931  1.0279  0.4769
 1916SOL    HW3 7709   4.358   2.781   3.064 -0.5081  0.6697  0.4474
 1916SOL    MW4 7710   4.287   2.799   3.017 -0.3285  0.5841  0.1378
 1917SOL     OW 7711   4.291   3.088   3.108  0.1103 -0.2558  0.1261
 1917SOL    HW2 7712   4.219   3.135   3.066  1.3607  0.2041 -1.5685
 1917SOL    HW3 7713   4.282   2.998   3.076  0.0974 -0.2678  0.1643
 1917SOL    MW4 7714   4.280   3.082   3.098  0.2732 -0.1967 -0.0925
 1918SOL     OW 7715   4.061   3.250   3.019  0.2265 -0.0811 -0.0419
 1918SOL    HW2 7716   4.046   3.337   3.056 -0.5336 -0.7374  1.2452
 1918SOL    HW3 7717   4.053   3.262   2.924  0.0934  1.2437  0.1339
 1918SOL    MW4 7718   4.058   3.263   3.011  0.1087  0.0069  0.1512
 1919SOL     OW 7719   4.023   3.500   3.097 -0.2483 -0.1859 -0.0024
 1919SOL    HW2 7720   4.014   3.474   3.189  0.0058 -0.5969 -0.0929
 1919SOL    HW3 7721   3.946   3.554   3.080 -0.8646 -1.0093  0.1416
 1919SOL    MW4 7722   4.012   3.504   3.107 -0.2966 -0.3486  0.0048
 1920SOL     OW 7723   4.264   3.606   2.992  0.6389 -0.2003 -0.6708
 1920SOL    HW2 7724   4.262   3.697   3.022  1.4482 -0.7480  1.1093
 1920SOL    HW3 7725   4.178   3.571   3.016  0.2781  0.1268 -1.4775
 1920SOL    MW4 7726   4.252   3.613   2.999  0.6981 -0.2296 -0.5424
 1921SOL     OW 7727   4.277   3.884   3.106  0.1687  0.2642 -0.0499
 1921SOL    HW2 7728   4.193   3.913   3.071  0.2011  0.9131  0.3990
 1921SOL    HW3 7729   4.339   3.951   3.076  0.6091 -0.4452 -0.7544
 1921SOL    MW4 7730   4.274   3.897   3.097  0.2313  0.2561 -0.0837
 1922SOL     OW 7731   4.040   3.971   2.987  0.3954 -0.4316 -0.0567
 1922SOL    HW2 7732   4.030   4.056   3.030 -1.0419  0.1002 -1.4071
 1922SOL    HW3 7733   3.966   3.919   3.018 -1.1883  0.2611 -2.5431
 1922SOL    MW4 7734   4.029   3.975   2.997 -0.0033 -0.2699 -0.5631
 1923SOL     OW 7735   4.052   4.223   3.096 -0.0817  0.0876 -0.3614
 1923SOL    HW2 7736   4.031   4.241   3.187  0.2190  0.2175 -0.3155
 1923SOL    HW3 7737   4.110   4.295   3.070  0.5069 -0.3978 -0.4069
 1923SOL    MW4 7738   4.057   4.235   3.104  0.0362  0.0410 -0.3612
 1924SOL     OW 7739   4.224   4.433   3.001  0.0787 -0.3386 -0.4171
 1924SOL    HW2 7740   4.298   4.380   3.030 -0.7154 -1.6881 -0.8145
 1924SOL    HW3 7741   4.221   4.420   2.906 -0.8362 -0.5297 -0.3690
 1924SOL    MW4 7742   4.233   4.424   2.992 -0.1464 -0.5422 -0.4630
 1925SOL     OW 7743   0.231   4.650   3.333 -0.1905  0.1509  0.2647
 1925SOL    HW2 7744   0.292   4.702   3.386  0.5240  0.4638 -0.8556
 1925SOL    HW3 7745   0.235   4.563   3.371  0.9072  0.1882  0.2524
 1925SOL    MW4 7746   0.240   4.646   3.345  0.0486  0.1979  0.1154
 1926SOL     OW 7747   4.485   0.075   3.487 -0.1446 -0.4728  0.3831
 1926SOL    HW2 7748   4.482   0.168   3.463 -0.0531 -0.8830 -1.2885
 1926SOL    HW3 7749   4.559   0.041   3.437 -1.5666 -1.9219 -0.7621
 1926SOL    MW4 7750   4.495   0.083   3.477 -0.3202 -0.7181  0.0114
 1927SOL     OW 7751   4.483   0.327   3.391  0.0779  0.1356  0.2641
 1927SOL    HW2 7752   4.402   0.365   3.424 -0.2582  0.3093 -0.7430
 1927SOL    HW3 7753   4.549   0.395   3.407  0.1052 -0.1540  1.4239
 1927SOL    MW4 7754   4.481   0.341   3.398  0.0367  0.1203  0.2840
 1928SOL     OW 7755   0.223   0.466   3.444  0.0124 -0.3781  0.4851
 1928SOL    HW2 7756   0.305   0.426   3.417  0.2617  0.6448 -0.2963
 1928SOL    HW3 7757   0.237   0.560   3.432 -1.5284 -0.2434 -0.4119
 1928SOL    MW4 7758   0.236   0.473   3.439 -0.1580 -0.2253  0.2637
 1929SOL     OW 7759   0.255   0.732   3.406 -0.0396  0.3077 -0.2278
 1929SOL    HW2 7760   0.335   0.780   3.424 -0.2712  0.2653  0.9336
 1929SOL    HW3 7761   0.185   0.796   3.419 -0.2956 -0.1038  0.4561
 1929SOL    MW4 7762   0.256   0.747   3.410 -0.1040  0.2478  0.0160
 1930SOL     OW 7763   4.478   0.844   3.473  0.1744 -0.2955 -0.2825
 1930SOL    HW2 7764   4.489   0.858   3.567 -1.6580 -0.8782  0.0199
 1930SOL    HW3 7765   4.490   0.931   3.435 -0.9224  0.2822  0.6592
 1930SOL    MW4 7766   4.481   0.857   3.481 -0.2120 -0.2961 -0.1183
 1931SOL     OW 7767   0.027   1.105   3.396 -0.2017 -0.5001 -0.7457
 1931SOL    HW2 7768   0.102   1.151   3.434 -1.1015  1.0036 -0.7504
 1931SOL    HW3 7769   0.035   1.119   3.302 -0.5750 -0.2183 -0.7341
 1931SOL    MW4 7770   0.038   1.113   3.389 -0.3697 -0.2645 -0.7446
 1932SOL     OW 7771   0.230   1.262   3.507 -0.0829  0.4581  0.5054
 1932SOL    HW2 7772   0.303   1.216   3.466 -1.0181 -0.3654 -0.2606
 1932SOL    HW3 7773   0.236   1.352   3.474 -1.2196 -0.3434 -2.0241
 1932SOL    MW4 7774   0.240   1.268   3.497 -0.3562  0.2438  0.0706
 1933SOL     OW 7775   0.251   1.530   3.417 -0.8059  0.3205  0.1424
 1933SOL    HW2 7776   0.331   1.575   3.440 -0.6757  0.5749 -0.7787
 1933SOL    HW3 7777   0.251   1.528   3.321 -1.2822 -0.7722  0.1515
 1933SOL    MW4 7778   0.261   1.535   3.407 -0.8515  0.2098  0.0222
 1934SOL     OW 7779   0.008   1.633   3.470  0.6057 -0.4117  0.0328
 1934SOL    HW2 7780  -0.057   1.575   3.429  1.1233 -1.2806  0.4183
 1934SOL    HW3 7781   0.092   1.590   3.453  1.1182  0.8364 -0.6904
 1934SOL    MW4 7782   0.011   1.619   3.462  0.7417 -0.3616 -0.0117
 1935SOL     OW 7783   0.020   1.896   3.410 -0.4023  0.2548  0.3994
 1935SOL    HW2 7784   0.007   1.804   3.429  0.1500 -0.1877 -1.2632
 1935SOL    HW3 7785   0.020   1.901   3.314  0.6998  1.7932  0.4558
 1935SOL    MW4 7786   0.018   1.885   3.400 -0.1840  0.3995  0.1876
 1936SOL     OW 7787   0.255   2.030   3.477  0.2956 -0.1711  0.0221
 1936SOL    HW2 7788   0.257   2.044   3.572  0.1756 -0.0697  0.0092
 1936SOL    HW3 7789   0.179   1.974   3.463 -0.9089  1.5065 -0.2458
 1936SOL    MW4 7790   0.245   2.025   3.488  0.1208  0.0637 -0.0150
 1937SOL     OW 7791   0.194   2.274   3.345 -0.0928  0.0446 -0.4255
 1937SOL    HW2 7792   0.133   2.332   3.391  0.2374 -0.7706  1.0741
 1937SOL    HW3 7793   0.192   2.193   3.396  0.0591 -0.9770 -2.0366
 1937SOL    MW4 7794   0.186   2.271   3.358 -0.0292 -0.1981 -0.4401
 1938SOL     OW 7795   0.006   2.438   3.496 -0.1347  0.0469  0.2186
 1938SOL    HW2 7796   0.008   2.439   3.591  1.4285 -0.5815  0.2150
 1938SOL    HW3 7797  -0.074   2.390   3.474 -0.7713  0.6367  1.1930
 1938SOL    MW4 7798  -0.004   2.432   3.506 -0.0124  0.0417  0.3469
 1939SOL     OW 7799   0.022   2.718   3.412 -0.2923  0.0347  0.4127
 1939SOL    HW2 7800   0.110   2.731   3.448 -0.5967 -0.4971  1.3619
 1939SOL    HW3 7801  -0.001   2.628   3.436 -1.2087  0.2640  0.4188
 1939SOL    MW4 7802   0.031   2.708   3.420 -0.4534 -0.0050  0.5388
 1940SOL     OW 7803   0.264   2.792   3.530 -0.2929 -0.2342  0.1552
 1940SOL    HW2 7804   0.335   2.743   3.490  0.4395  0.7809  0.1880
 1940SOL    HW3 7805   0.276   2.882   3.498  0.1950  0.5567  2.4393
 1940SOL    MW4 7806   0.275   2.797   3.521 -0.1319  0.0043  0.4611
 1941SOL     OW 7807   0.224   3.034   3.419 -0.2331 -0.2367 -0.3391
 1941SOL    HW2 7808   0.164   3.095   3.463 -0.2818 -0.1742 -0.4915
 1941SOL    HW3 7809   0.210   3.050   3.326  0.5654  0.3111 -0.3704
 1941SOL    MW4 7810   0.214   3.044   3.413 -0.1342 -0.1562 -0.3631
 1942SOL     OW 7811   0.055   3.234   3.496  0.0318  0.0107  0.5416
 1942SOL    HW2 7812  -0.018   3.197   3.445 -0.2444  1.3909 -0.0855
 1942SOL    HW3 7813   0.064   3.323   3.463  1.7323 -0.0039  0.9270
 1942SOL    MW4 7814   0.046   3.241   3.485  0.2197  0.1907  0.5097
 1943SOL     OW 7815   4.488   3.500   3.381 -0.2457 -0.3608  0.3201
 1943SOL    HW2 7816   4.408   3.532   3.422  0.9255 -0.2651  2.6573
 1943SOL    HW3 7817   4.469   3.500   3.287 -3.0688 -0.6449  0.8365
 1943SOL    MW4 7818   4.475   3.504   3.374 -0.4635 -0.3858  0.6967
 1944SOL     OW 7819   0.220   3.655   3.454 -0.4442  0.0001 -0.0934
 1944SOL    HW2 7820   0.219   3.640   3.549 -0.4833 -0.7131 -0.2035
 1944SOL    HW3 7821   0.141   3.612   3.422 -1.2049  1.4971 -0.2708
 1944SOL    MW4 7822   0.210   3.648   3.462 -0.5497  0.1035 -0.1314
 1945SOL     OW 7823   0.256   3.914   3.358 -0.9563  0.0899 -0.0800
 1945SOL    HW2 7824   0.171   3.954   3.379 -1.0964 -0.3774  0.2753
 1945SOL    HW3 7825   0.253   3.829   3.402  0.8270  1.2205  2.3592
 1945SOL    MW4 7826   0.244   3.908   3.367 -0.7395  0.1774  0.2890
 1946SOL     OW 7827   0.005   4.001   3.439  0.2661 -1.0674  0.2894
 1946SOL    HW2 7828   0.008   4.015   3.534  1.3292 -0.3405  0.1605
 1946SOL    HW3 7829  -0.001   4.089   3.402  1.4658 -1.2398 -0.3591
 1946SOL    MW4 7830   0.005   4.015   3.447  0.5647 -0.9937  0.1867
 1947SOL     OW 7831   0.023   4.254   3.359  0.8380 -0.3408  0.6149
 1947SOL    HW2 7832  -0.063   4.291   3.380  0.1577 -1.0010 -0.9030
 1947SOL    HW3 7833   0.086   4.317   3.395 -0.2897  0.9816  0.3338
 1947SOL    MW4 7834   0.020   4.268   3.366  0.5994 -0.2532  0.3777
 1948SOL     OW 7835   0.207   4.413   3.469  0.1907  0.7168  0.0583
 1948SOL    HW2 7836   0.210   4.430   3.563 -0.9172  0.5894  0.1266
 1948SOL    HW3 7837   0.284   4.359   3.452 -0.7267 -1.0275  1.2715
 1948SOL    MW4 7838   0.217   4.408   3.479 -0.0765  0.4697  0.2277
 1949SOL     OW 7839   0.675   0.017   3.390 -0.6653 -0.3949 -0.0745
 1949SOL    HW2 7840   0.757   0.054   3.423 -1.5238 -1.1137  3.0067
 1949SOL    HW3 7841   0.684   0.021   3.295  1.8396  1.9451  0.1891
 1949SOL    MW4 7842   0.687   0.022   3.382 -0.4481 -0.1810  0.3669
 1950SOL     OW 7843   0.423   0.099   3.481  0.1709 -0.2701  0.4175
 1950SOL    HW2 7844   0.426   0.095   3.576  1.3523 -0.8583  0.3588
 1950SOL    HW3 7845   0.506   0.060   3.452 -0.3908 -0.5401 -0.8601
 1950SOL    MW4 7846   0.435   0.093   3.489  0.2527 -0.3833  0.2410
 1951SOL     OW 7847   0.471   0.343   3.356  0.2680 -0.3362  0.2710
 1951SOL    HW2 7848   0.547   0.385   3.396  1.3029 -1.4760 -0.4687
 1951SOL    HW3 7849   0.458   0.263   3.407 -0.7599  0.1021  0.7134
 1951SOL    MW4 7850   0.479   0.338   3.368  0.2689 -0.4288  0.2320
 1952SOL     OW 7851   0.670   0.484   3.476  0.1051 -0.3433  0.0737
 1952SOL    HW2 7852   0.672   0.500   3.570  0.1516  0.5602 -0.0697
 1952SOL    HW3 7853   0.758   0.451   3.455  0.2613 -0.0635  0.2769
 1952SOL    MW4 7854   0.682   0.482   3.485  0.1319 -0.1872  0.0815
 1953SOL     OW 7855   0.720   0.736   3.363 -0.3396  0.5211  0.5152
 1953SOL    HW2 7856   0.641   0.778   3.397  0.0625  1.1081  0.7321
 1953SOL    HW3 7857   0.715   0.646   3.395  0.2627  1.1761  2.5407
 1953SOL    MW4 7858   0.709   0.730   3.372 -0.2071  0.6850  0.8111
 1954SOL     OW 7859   0.484   0.869   3.455  0.8069 -0.1094 -0.4593
 1954SOL    HW2 7860   0.472   0.877   3.550 -3.1420 -0.9474 -0.8066
 1954SOL    HW3 7861   0.465   0.957   3.421 -2.8611 -0.9896 -0.8495
 1954SOL    MW4 7862   0.480   0.882   3.463 -0.1981 -0.3361 -0.5565
 1955SOL     OW 7863   0.437   1.127   3.374 -0.2190 -0.1080 -0.2696
 1955SOL    HW2 7864   0.513   1.175   3.406  1.2029 -2.5262  0.0667
 1955SOL    HW3 7865   0.442   1.132   3.279 -0.8432  1.5420 -0.2306
 1955SOL    MW4 7866   0.447   1.134   3.366 -0.1137 -0.2093 -0.2201
 1956SOL     OW 7867   0.670   1.268   3.443  0.0924  0.8788  0.4880
 1956SOL    HW2 7868   0.756   1.231   3.426 -0.4501  0.0183 -0.4414
 1956SOL    HW3 7869   0.671   1.353   3.401  0.6684  1.0944  0.9375
 1956SOL    MW4 7870   0.681   1.274   3.435  0.0968  0.7937  0.4244
 1957SOL     OW 7871   0.695   1.539   3.354  0.1137 -0.9174 -0.3513
 1957SOL    HW2 7872   0.765   1.554   3.417 -0.0644 -1.6126  0.0296
 1957SOL    HW3 7873   0.618   1.580   3.395  0.2706 -0.2562 -0.7145
 1957SOL    MW4 7874   0.694   1.546   3.368  0.1109 -0.9217 -0.3488
 1958SOL     OW 7875   0.488   1.655   3.500 -0.3251 -0.1043  0.0403
 1958SOL    HW2 7876   0.464   1.673   3.591 -0.6056  0.7639 -0.2033
 1958SOL    HW3 7877   0.484   1.740   3.456 -1.9084 -0.7971 -1.1837
 1958SOL    MW4 7878   0.485   1.669   3.506 -0.5710 -0.0812 -0.1531
 1959SOL     OW 7879   0.474   1.914   3.381 -0.0477 -0.4948  0.0389
 1959SOL    HW2 7880   0.399   1.965   3.414 -0.2671 -1.3523  0.8857
 1959SOL    HW3 7881   0.468   1.923   3.286 -0.0529  1.1001  0.1720
 1959SOL    MW4 7882   0.463   1.922   3.373 -0.0774 -0.3976  0.1681
 1960SOL     OW 7883   0.687   2.059   3.473 -0.0221 -0.1751 -0.5165
 1960SOL    HW2 7884   0.690   2.059   3.568 -0.0916 -1.0913 -0.5164
 1960SOL    HW3 7885   0.624   1.991   3.450 -1.6541  1.5195 -1.1692
 1960SOL    MW4 7886   0.679   2.050   3.482 -0.2465 -0.0722 -0.6027
 1961SOL     OW 7887   0.661   2.307   3.349 -0.0984 -0.2945  0.0163
 1961SOL    HW2 7888   0.728   2.360   3.392 -0.1394 -0.4259  0.2435
 1961SOL    HW3 7889   0.678   2.218   3.381 -0.7851 -0.2287  0.5747
 1961SOL    MW4 7890   0.672   2.302   3.359 -0.1944 -0.3030  0.1197
 1962SOL     OW 7891   0.428   2.401   3.465 -0.3096 -0.0103 -0.0722
 1962SOL    HW2 7892   0.496   2.351   3.420 -0.4850  0.5138 -0.9397
 1962SOL    HW3 7893   0.348   2.380   3.418 -0.6719 -0.2951  0.6809
 1962SOL    MW4 7894   0.427   2.392   3.453 -0.3806  0.0215 -0.0873
 1963SOL     OW 7895   0.479   2.680   3.392  0.2988  0.0683  0.0694
 1963SOL    HW2 7896   0.485   2.585   3.390 -0.4982  0.0220 -0.5172
 1963SOL    HW3 7897   0.456   2.705   3.303 -1.4405  0.6620  0.6528
 1963SOL    MW4 7898   0.477   2.671   3.380 -0.0359  0.1404  0.0689
 1964SOL     OW 7899   0.690   2.844   3.467  0.2838  0.3501 -0.3707
 1964SOL    HW2 7900   0.772   2.806   3.435  1.2484 -0.2817  2.7624
 1964SOL    HW3 7901   0.623   2.780   3.442  0.8226  0.4668 -2.1991
 1964SOL    MW4 7902   0.692   2.831   3.459  0.4821  0.2820 -0.1984
 1965SOL     OW 7903   0.658   3.085   3.343 -0.0296  0.3883  0.4497
 1965SOL    HW2 7904   0.581   3.130   3.377 -0.2308 -0.7997  1.5969
 1965SOL    HW3 7905   0.666   3.006   3.397  0.9149 -0.4335 -0.8641
 1965SOL    MW4 7906   0.649   3.080   3.355  0.0684  0.1230  0.4275
 1966SOL     OW 7907   0.438   3.220   3.456  0.1372 -0.0326  0.6235
 1966SOL    HW2 7908   0.444   3.217   3.551 -1.1982  1.9757  0.8167
 1966SOL    HW3 7909   0.378   3.148   3.434 -0.7010  0.3932  1.4452
 1966SOL    MW4 7910   0.431   3.210   3.466 -0.1496  0.2885  0.7575
 1967SOL     OW 7911   0.415   3.473   3.351 -0.0164 -0.6955 -0.0233
 1967SOL    HW2 7912   0.406   3.384   3.385 -0.3239 -0.3748  0.7405
 1967SOL    HW3 7913   0.333   3.517   3.376  0.5484  0.0895  0.4951
 1967SOL    MW4 7914   0.403   3.467   3.359  0.0176 -0.5498  0.1454
 1968SOL     OW 7915   0.627   3.629   3.453  0.0429 -0.0110  0.3382
 1968SOL    HW2 7916   0.703   3.573   3.435 -0.4925 -0.9305  0.8756
 1968SOL    HW3 7917   0.552   3.578   3.421 -0.2697  1.3531 -1.2052
 1968SOL    MW4 7918   0.627   3.615   3.446 -0.0690  0.0477  0.2053
 1969SOL     OW 7919   0.670   3.869   3.335 -0.1520 -0.0350  0.1299
 1969SOL    HW2 7920   0.617   3.933   3.381  0.3577 -0.0707  0.7627
 1969SOL    HW3 7921   0.636   3.784   3.365 -0.9870 -0.0767 -0.8866
 1969SOL    MW4 7922   0.658   3.866   3.345 -0.1949 -0.0455  0.0792
 1970SOL     OW 7923   0.478   4.005   3.492 -0.0439  0.1563  0.4646
 1970SOL    HW2 7924   0.476   4.100   3.480  0.7053  0.6345  3.6036
 1970SOL    HW3 7925   0.393   3.976   3.460 -0.8518  2.0710  0.7656
 1970SOL    MW4 7926   0.466   4.014   3.486 -0.0516  0.4721  0.9184
 1971SOL     OW 7927   0.432   4.270   3.395 -0.1868 -0.0843  0.0222
 1971SOL    HW2 7928   0.507   4.327   3.410 -0.3774 -0.0569  0.8538
 1971SOL    HW3 7929   0.427   4.264   3.299  0.8150 -0.0168 -0.0447
 1971SOL    MW4 7930   0.441   4.277   3.384 -0.0798 -0.0715  0.1230
 1972SOL     OW 7931   0.663   4.400   3.457  0.0441 -0.0556  0.1254
 1972SOL    HW2 7932   0.746   4.371   3.418  0.9004  1.8627  0.4785
 1972SOL    HW3 7933   0.664   4.495   3.448 -0.6193  0.2799  3.0818
 1972SOL    MW4 7934   0.674   4.409   3.450  0.0696  0.2418  0.5620
 1973SOL     OW 7935   1.135   4.666   3.397 -0.2049 -0.0951 -0.0846
 1973SOL    HW2 7936   1.219   4.699   3.428  0.2498 -0.2974 -1.0741
 1973SOL    HW3 7937   1.148   4.651   3.303 -1.1382 -0.7669 -0.1187
 1973SOL    MW4 7938   1.148   4.668   3.388 -0.2681 -0.2108 -0.2198
 1974SOL     OW 7939   0.911   0.144   3.483 -0.5051  0.3582  0.2291
 1974SOL    HW2 7940   0.902   0.147   3.578  0.2119  0.4938  0.2940
 1974SOL    HW3 7941   0.991   0.094   3.468 -0.9998 -0.2805 -0.3228
 1974SOL    MW4 7942   0.920   0.137   3.493 -0.4758  0.2918  0.1650
 1975SOL     OW 7943   0.905   0.387   3.349  0.1886  0.4427 -0.5648
 1975SOL    HW2 7944   0.984   0.440   3.352 -0.8516  2.0512 -1.1336
 1975SOL    HW3 7945   0.932   0.302   3.386  1.8376  1.3733  0.4297
 1975SOL    MW4 7946   0.919   0.383   3.355  0.2689  0.7777 -0.5090
 1976SOL     OW 7947   1.133   0.536   3.463 -0.0311 -0.1391  0.1848
 1976SOL    HW2 7948   1.123   0.542   3.558  0.6202 -0.8808  0.3015
 1976SOL    HW3 7949   1.113   0.625   3.431 -0.6177  0.0179  0.9706
 1976SOL    MW4 7950   1.129   0.549   3.471 -0.0225 -0.2163  0.3037
 1977SOL     OW 7951   1.102   0.808   3.355  0.5782 -0.1324 -0.7058
 1977SOL    HW2 7952   1.186   0.832   3.394 -0.2144 -0.5980  1.3616
 1977SOL    HW3 7953   1.038   0.864   3.399 -0.5255 -1.7008 -0.2574
 1977SOL    MW4 7954   1.105   0.818   3.366  0.3282 -0.4007 -0.3741
 1978SOL     OW 7955   0.890   0.904   3.485 -0.5053  0.4408  0.0835
 1978SOL    HW2 7956   0.886   0.988   3.438 -0.7184  0.7891  0.7072
 1978SOL    HW3 7957   0.823   0.850   3.444 -0.1269  0.4544 -0.5576
 1978SOL    MW4 7958   0.881   0.908   3.473 -0.4834  0.4885  0.0813
 1979SOL     OW 7959   0.907   1.154   3.363 -0.2196 -0.3203  0.2152
 1979SOL    HW2 7960   0.987   1.184   3.406 -0.2714  1.4209 -0.8240
 1979SOL    HW3 7961   0.917   1.182   3.272 -2.5952  1.2235  0.3576
 1979SOL    MW4 7962   0.919   1.162   3.357 -0.5399  0.1131  0.0966
 1980SOL     OW 7963   1.148   1.248   3.449 -0.1491 -0.0049 -0.2268
 1980SOL    HW2 7964   1.149   1.257   3.545 -1.7066 -0.8005 -0.1109
 1980SOL    HW3 7965   1.129   1.336   3.417  1.4324  0.4865  0.1411
 1980SOL    MW4 7966   1.146   1.260   3.458 -0.1459 -0.0452 -0.1631
 1981SOL     OW 7967   1.129   1.528   3.359 -0.3475 -0.2251  0.2562
 1981SOL    HW2 7968   1.213   1.569   3.378 -1.1848  1.2998  0.7082
 1981SOL    HW3 7969   1.126   1.523   3.263  0.3505 -0.4997  0.2454
 1981SOL    MW4 7970   1.140   1.533   3.349 -0.3660 -0.0603  0.3145
 1982SOL     OW 7971   0.907   1.663   3.482 -0.4963  0.3670  0.4238
 1982SOL    HW2 7972   0.910   1.753   3.450  0.0083  0.0015 -0.5614
 1982SOL    HW3 7973   0.989   1.624   3.451 -0.6732 -0.4119  0.9266
 1982SOL    MW4 7974   0.918   1.670   3.474 -0.4531  0.2159  0.3603
 1983SOL     OW 7975   0.901   1.925   3.378  0.3759 -0.0620  0.5564
 1983SOL    HW2 7976   0.988   1.960   3.401 -0.2622  0.5482  2.1356
 1983SOL    HW3 7977   0.839   1.986   3.419 -0.7721 -1.5726  1.1273
 1983SOL    MW4 7978   0.905   1.937   3.387  0.1402 -0.1808  0.8402
 1984SOL     OW 7979   1.142   2.066   3.472  0.2677  0.3319  0.2724
 1984SOL    HW2 7980   1.211   2.018   3.427 -0.5975 -1.0138  0.3518
 1984SOL    HW3 7981   1.135   2.148   3.424 -0.1433 -0.7689 -1.6317
 1984SOL    MW4 7982   1.150   2.070   3.460  0.0994  0.0093  0.0317
 1985SOL     OW 7983   1.114   2.334   3.377 -0.1025 -0.5525 -0.5431
 1985SOL    HW2 7984   1.205   2.356   3.401 -0.7690  1.9646 -0.1567
 1985SOL    HW3 7985   1.117   2.325   3.282  0.3425  0.7147 -0.6668
 1985SOL    MW4 7986   1.127   2.336   3.368 -0.1316 -0.0532 -0.5085
 1986SOL     OW 7987   0.889   2.468   3.477 -0.0273 -0.2397  0.2952
 1986SOL    HW2 7988   0.901   2.474   3.571 -0.4990  0.6897  0.2948
 1986SOL    HW3 7989   0.966   2.420   3.446 -0.1021 -0.9608  1.2022
 1986SOL    MW4 7990   0.900   2.462   3.485 -0.0995 -0.2122  0.4146
 1987SOL     OW 7991   0.912   2.705   3.358 -0.4796  0.0799 -0.0194
 1987SOL    HW2 7992   0.990   2.750   3.390 -0.3150 -0.3905  0.2414
 1987SOL    HW3 7993   0.914   2.619   3.400  0.5741 -1.1352 -2.4701
 1987SOL    MW4 7994   0.922   2.700   3.368 -0.3188 -0.1421 -0.3083
 1988SOL     OW 7995   1.144   2.794   3.457 -0.7450  0.1325  0.3027
 1988SOL    HW2 7996   1.164   2.794   3.550 -1.8039 -1.0236  0.5380
 1988SOL    HW3 7997   1.214   2.743   3.417  0.8482  2.3126  0.1764
 1988SOL    MW4 7998   1.156   2.788   3.464 -0.6745  0.2675  0.3171
 1989SOL     OW 7999   1.118   3.048   3.355 -0.1133  0.2462 -0.0017
 1989SOL    HW2 8000   1.147   2.959   3.375  1.3497  0.4969 -0.8638
 1989SOL    HW3 8001   1.101   3.047   3.261 -1.4188  0.5238  0.2290
 1989SOL    MW4 8002   1.120   3.036   3.345 -0.0925  0.3161 -0.0854
 1990SOL     OW 8003   0.910   3.221   3.448 -0.0090  0.4785 -0.9699
 1990SOL    HW2 8004   0.981   3.166   3.415  0.7270  0.5911  0.3752
 1990SOL    HW3 8005   0.830   3.173   3.427  0.4630  0.2140 -2.2497
 1990SOL    MW4 8006   0.909   3.208   3.441  0.1504  0.4582 -0.9613
 1991SOL     OW 8007   0.872   3.503   3.396  0.0100  0.0862 -0.1093
 1991SOL    HW2 8008   0.861   3.409   3.409 -1.2368  0.1191 -0.8349
 1991SOL    HW3 8009   0.882   3.513   3.301 -0.7950  0.7746 -0.1237
 1991SOL    MW4 8010   0.872   3.492   3.385 -0.2607  0.1814 -0.2072
 1992SOL     OW 8011   1.116   3.622   3.480  0.2942 -0.0928 -0.8598
 1992SOL    HW2 8012   1.119   3.605   3.574 -1.3915  1.2228 -0.5436
 1992SOL    HW3 8013   1.028   3.593   3.454 -0.4616  2.5397 -1.3986
 1992SOL    MW4 8014   1.105   3.616   3.489 -0.0279  0.4282 -0.8891
 1993SOL     OW 8015   1.175   3.863   3.370 -0.4379  0.0402 -0.1907
 1993SOL    HW2 8016   1.240   3.907   3.424 -0.7867  0.9402 -0.4997
 1993SOL    HW3 8017   1.161   3.778   3.413  0.7352 -0.0523  0.0265
 1993SOL    MW4 8018   1.182   3.857   3.383 -0.3291  0.1466 -0.2027
 1994SOL     OW 8019   0.938   3.994   3.391  0.1298 -0.8627  0.3682
 1994SOL    HW2 8020   1.016   3.941   3.374  0.3357 -0.3513 -0.2667
 1994SOL    HW3 8021   0.865   3.938   3.364  0.2956 -1.1750  0.5607
 1994SOL    MW4 8022   0.939   3.980   3.385  0.1788 -0.8364  0.3102
 1995SOL     OW 8023   0.916   4.271   3.385 -0.3916  0.1049 -0.7040
 1995SOL    HW2 8024   0.915   4.178   3.407 -1.6590  0.2648  0.0173
 1995SOL    HW3 8025   0.911   4.274   3.290 -0.0747 -0.5664 -0.7412
 1995SOL    MW4 8026   0.915   4.259   3.376 -0.5170  0.0372 -0.6139
 1996SOL     OW 8027   1.129   4.424   3.484  0.0068 -0.0454  0.0947
 1996SOL    HW2 8028   1.052   4.380   3.449  0.6503 -0.2197 -1.1183
 1996SOL    HW3 8029   1.118   4.515   3.459  0.4490 -0.1647 -0.5538
 1996SOL    MW4 8030   1.118   4.430   3.476  0.1500 -0.0839 -0.1507
 1997SOL     OW 8031   1.610   0.033   3.370 -0.0998  0.1226  0.4754
 1997SOL    HW2 8032   1.618  -0.059   3.395 -0.0231 -0.3205 -1.1438
 1997SOL    HW3 8033   1.526   0.061   3.406 -1.0086 -1.1192 -0.6471
 1997SOL    MW4 8034   1.600   0.025   3.378 -0.2096 -0.0997  0.1137
 1998SOL     OW 8035   1.360   0.122   3.475 -0.1808  0.5724 -0.4101
 1998SOL    HW2 8036   1.351   0.118   3.570  0.5371 -1.5783 -0.4128
 1998SOL    HW3 8037   1.344   0.214   3.454 -0.1495  1.1256  1.8026
 1998SOL    MW4 8038   1.357   0.134   3.485 -0.0821  0.3616 -0.1187
 1999SOL     OW 8039   1.367   0.389   3.399  0.4880 -0.6499 -0.0167
 1999SOL    HW2 8040   1.439   0.439   3.438  0.3923 -0.1897 -0.4111
 1999SOL    HW3 8041   1.288   0.433   3.430  0.4079 -0.4341 -0.5226
 1999SOL    MW4 8042   1.366   0.401   3.408  0.4648 -0.5607 -0.1357
 2000SOL     OW 8043   1.594   0.510   3.490  0.3252  0.1364 -0.6497
 2000SOL    HW2 8044   1.598   0.518   3.585  0.8835 -0.3961 -0.6266
 2000SOL    HW3 8045   1.680   0.475   3.465  0.2659  0.4985 -1.3690
 2000SOL    MW4 8046   1.606   0.506   3.499  0.3910  0.1140 -0.7417
 2001SOL     OW 8047   1.564   0.754   3.350 -0.2093 -0.1790 -0.0942
 2001SOL    HW2 8048   1.500   0.805   3.400  0.4421  0.1116  0.4615
 2001SOL    HW3 8049   1.568   0.670   3.396 -0.3303 -0.2614 -0.2365
 2001SOL    MW4 8050   1.556   0.750   3.363 -0.1392 -0.1515 -0.0396
 2002SOL     OW 8051   1.335   0.916   3.474 -0.0697 -0.4776 -0.0161
 2002SOL    HW2 8052   1.337   0.929   3.568  1.6160  0.5469 -0.1683
 2002SOL    HW3 8053   1.335   1.004   3.437 -0.6569 -0.8685 -0.9704
 2002SOL    MW4 8054   1.336   0.929   3.481  0.0752 -0.3939 -0.1624
 2003SOL     OW 8055   1.374   1.145   3.326  0.1906  0.0095 -0.4084
 2003SOL    HW2 8056   1.445   1.197   3.365 -0.1859  0.7246 -0.6602
 2003SOL    HW3 8057   1.294   1.183   3.363 -0.1843  0.8493 -2.0475
 2003SOL    MW4 8058   1.373   1.157   3.336  0.0914  0.2147 -0.6578
 2004SOL     OW 8059   1.579   1.263   3.458 -0.0109 -0.3998 -0.4001
 2004SOL    HW2 8060   1.587   1.279   3.552 -0.5372  0.1035 -0.4365
 2004SOL    HW3 8061   1.663   1.225   3.432  0.1283 -0.5573  0.2765
 2004SOL    MW4 8062   1.591   1.260   3.467 -0.0619 -0.3541 -0.3157
 2005SOL     OW 8063   1.590   1.533   3.363 -0.2635  0.3572  0.1704
 2005SOL    HW2 8064   1.595   1.444   3.397  1.5443  0.6940  0.8535
 2005SOL    HW3 8065   1.621   1.526   3.273 -0.5448  0.2169  0.0862
 2005SOL    MW4 8066   1.595   1.520   3.356 -0.0621  0.3831  0.2494
 2006SOL     OW 8067   1.366   1.647   3.436 -0.4507  0.0217  0.0606
 2006SOL    HW2 8068   1.373   1.623   3.528 -1.3850  0.4479  0.2514
 2006SOL    HW3 8069   1.442   1.605   3.394  0.3367  0.3725  1.1226
 2006SOL    MW4 8070   1.377   1.638   3.443 -0.4700  0.1241  0.2258
 2007SOL     OW 8071   1.365   1.921   3.376 -0.2237 -0.8141 -0.7370
 2007SOL    HW2 8072   1.431   1.977   3.416 -1.1271 -0.3117  0.0708
 2007SOL    HW3 8073   1.369   1.839   3.425 -0.9229 -0.4064  0.0187
 2007SOL    MW4 8074   1.374   1.917   3.388 -0.4351 -0.6940 -0.5307
 2008SOL     OW 8075   1.589   2.073   3.464  0.2900 -0.0853  0.1880
 2008SOL    HW2 8076   1.653   2.011   3.430  1.3056  0.7286  0.6027
 2008SOL    HW3 8077   1.612   2.156   3.423 -0.8299  0.1068 -0.0649
 2008SOL    MW4 8078   1.600   2.076   3.454  0.2763  0.0474  0.2096
 2009SOL     OW 8079   1.596   2.330   3.361  0.1180 -0.1059 -0.5923
 2009SOL    HW2 8080   1.507   2.349   3.393  0.7155  0.6783  0.6753
 2009SOL    HW3 8081   1.585   2.312   3.268 -1.6081 -1.7566 -0.0973
 2009SOL    MW4 8082   1.582   2.330   3.353 -0.0309 -0.2201 -0.3598
 2010SOL     OW 8083   1.361   2.411   3.473  0.0947 -0.0611 -0.1194
 2010SOL    HW2 8084   1.365   2.429   3.567  1.4600  0.6335 -0.3044
 2010SOL    HW3 8085   1.352   2.497   3.433 -0.7897 -0.3820 -0.6154
 2010SOL    MW4 8086   1.360   2.424   3.480  0.1581 -0.0119 -0.2093
 2011SOL     OW 8087   1.349   2.650   3.348 -0.6982 -0.3511  0.0264
 2011SOL    HW2 8088   1.403   2.717   3.390 -0.3223 -0.0248 -0.9686
 2011SOL    HW3 8089   1.360   2.666   3.254 -2.1887 -0.5412 -0.1906
 2011SOL    MW4 8090   1.358   2.661   3.341 -0.8453 -0.3333 -0.1335
 2012SOL     OW 8091   1.537   2.832   3.458  0.4443  0.0915 -0.3047
 2012SOL    HW2 8092   1.612   2.787   3.419  0.5772  0.6782 -0.7245
 2012SOL    HW3 8093   1.547   2.924   3.433 -0.3004  0.2117 -0.1871
 2012SOL    MW4 8094   1.548   2.838   3.450  0.3636  0.1845 -0.3445
 2013SOL     OW 8095   1.545   3.097   3.371 -0.0011  0.0104  0.2518
 2013SOL    HW2 8096   1.632   3.137   3.376  0.5217 -1.0214 -0.4289
 2013SOL    HW3 8097   1.486   3.163   3.407  0.7012  1.8499 -1.8061
 2013SOL    MW4 8098   1.548   3.111   3.376  0.1607  0.1168 -0.1094
 2014SOL     OW 8099   1.324   3.239   3.532  0.7112 -0.4187 -0.5097
 2014SOL    HW2 8100   1.322   3.232   3.628 -1.8173  0.3602 -0.4600
 2014SOL    HW3 8101   1.254   3.180   3.503  0.2673  0.6989 -1.7678
 2014SOL    MW4 8102   1.314   3.230   3.541  0.3191 -0.1683 -0.6690
 2015SOL     OW 8103   1.343   3.484   3.396  0.1365  0.4833 -0.2103
 2015SOL    HW2 8104   1.334   3.397   3.435  0.6491 -0.2509 -1.6810
 2015SOL    HW3 8105   1.271   3.535   3.433  0.4640 -0.2501  1.4723
 2015SOL    MW4 8106   1.332   3.479   3.406  0.2472  0.2894 -0.1822
 2016SOL     OW 8107   1.577   3.616   3.457  0.2517  0.0736 -0.1586
 2016SOL    HW2 8108   1.581   3.597   3.551 -0.4384  0.2654 -0.0919
 2016SOL    HW3 8109   1.497   3.572   3.427  0.0379  0.6982 -0.5027
 2016SOL    MW4 8110   1.567   3.608   3.466  0.1324  0.1814 -0.1950
 2017SOL     OW 8111   1.585   3.897   3.370 -0.2076 -0.2995 -0.2121
 2017SOL    HW2 8112   1.585   3.803   3.386  0.5280 -0.3847 -0.7297
 2017SOL    HW3 8113   1.560   3.906   3.278 -1.1534  0.0489  0.0767
 2017SOL    MW4 8114   1.582   3.886   3.360 -0.2353 -0.2649 -0.2422
 2018SOL     OW 8115   1.367   4.039   3.475 -0.2318 -0.1118  0.0040
 2018SOL    HW2 8116   1.372   4.120   3.424 -0.1421  0.0852  0.3275
 2018SOL    HW3 8117   1.435   3.983   3.437  0.6344  0.4693  0.6759
 2018SOL    MW4 8118   1.376   4.043   3.463 -0.1059 -0.0095  0.1354
 2019SOL     OW 8119   1.362   4.293   3.338 -0.5011  0.0329  0.1316
 2019SOL    HW2 8120   1.281   4.324   3.378 -0.4454 -0.6424  0.7720
 2019SOL    HW3 8121   1.342   4.288   3.244 -0.8969  0.7936  0.1742
 2019SOL    MW4 8122   1.348   4.297   3.331 -0.5461  0.0443  0.2217
 2020SOL     OW 8123   1.596   4.432   3.453 -0.3522  0.5193 -0.0910
 2020SOL    HW2 8124   1.667   4.391   3.403  0.6142  1.9010  0.1173
 2020SOL    HW3 8125   1.517   4.384   3.426  0.4996 -0.3365 -1.1300
 2020SOL    MW4 8126   1.595   4.420   3.443 -0.1122  0.5889 -0.2003
 2021SOL     OW 8127   2.031   4.644   3.403  0.0029 -0.2780  0.0393
 2021SOL    HW2 8128   2.113   4.683   3.432  0.4919 -0.5495 -0.9395
 2021SOL    HW3 8129   1.964   4.710   3.423  0.8056  1.0402 -1.5067
 2021SOL    MW4 8130   2.033   4.658   3.409  0.1733 -0.1392 -0.2940
 2022SOL     OW 8131   1.834   0.163   3.470 -0.0858 -0.5583  0.1624
 2022SOL    HW2 8132   1.808   0.161   3.562 -0.5173  1.3012  0.0916
 2022SOL    HW3 8133   1.764   0.116   3.425  0.2151 -1.6288  0.7913
 2022SOL    MW4 8134   1.821   0.156   3.476 -0.1029 -0.4542  0.2360
 2023SOL     OW 8135   1.829   0.433   3.371 -0.3935  0.4637  0.2403
 2023SOL    HW2 8136   1.829   0.340   3.393  0.1467  0.3555 -0.2042
 2023SOL    HW3 8137   1.825   0.435   3.275  0.2015  0.8906  0.2262
 2023SOL    MW4 8138   1.828   0.421   3.361 -0.2437  0.5057  0.1798
 2024SOL     OW 8139   2.055   0.526   3.483  0.4637 -0.1632  0.3706
 2024SOL    HW2 8140   2.058   0.619   3.462  1.5633 -0.4339 -0.6960
 2024SOL    HW3 8141   1.966   0.499   3.460  0.5356  0.3430 -0.4915
 2024SOL    MW4 8142   2.043   0.535   3.477  0.6185 -0.1322  0.1161
 2025SOL     OW 8143   2.046   0.784   3.389 -0.4366  0.3357 -0.6390
 2025SOL    HW2 8144   2.119   0.837   3.422 -0.8697  0.9713 -0.6989
 2025SOL    HW3 8145   2.052   0.790   3.294 -0.8510  0.7757 -0.6370
 2025SOL    MW4 8146   2.057   0.792   3.381 -0.5481  0.4776 -0.6466
 2026SOL     OW 8147   1.795   0.875   3.449  0.5178  0.1456 -0.2928
 2026SOL    HW2 8148   1.874   0.826   3.425  0.8233 -0.0013  0.9739
 2026SOL    HW3 8149   1.724   0.830   3.402  0.8672 -1.1986  0.4366
 2026SOL    MW4 8150   1.796   0.862   3.439  0.6043 -0.0511 -0.0293
 2027SOL     OW 8151   1.806   1.140   3.362  0.2414 -0.0263 -0.0579
 2027SOL    HW2 8152   1.891   1.177   3.383 -0.1445 -0.2830  2.0285
 2027SOL    HW3 8153   1.810   1.051   3.395 -0.5816 -0.2722 -0.6149
 2027SOL    MW4 8154   1.818   1.133   3.369  0.0819 -0.0925  0.1440
 2028SOL     OW 8155   2.058   1.235   3.442 -0.5476  0.2511 -0.4986
 2028SOL    HW2 8156   2.052   1.226   3.537  1.0405 -0.1050 -0.4127
 2028SOL    HW3 8157   2.050   1.329   3.426 -0.1642  0.3764  0.0471
 2028SOL    MW4 8158   2.056   1.246   3.453 -0.2875  0.2207 -0.4153
 2029SOL     OW 8159   2.014   1.506   3.366 -0.2431  0.0782 -0.0849
 2029SOL    HW2 8160   2.094   1.549   3.397 -0.4643 -0.4723  1.2840
 2029SOL    HW3 8161   1.943   1.554   3.410 -0.7480  1.2053 -2.0466
 2029SOL    MW4 8162   2.015   1.518   3.376 -0.3393  0.1543 -0.1633
 2030SOL     OW 8163   1.816   1.669   3.486  0.0028 -0.1214 -0.1341
 2030SOL    HW2 8164   1.800   1.757   3.452  0.8830  0.8584  1.8698
 2030SOL    HW3 8165   1.739   1.619   3.459  0.1355  0.8768 -2.5056
 2030SOL    MW4 8166   1.803   1.674   3.478  0.1365  0.1397 -0.1826
 2031SOL     OW 8167   1.795   1.926   3.372  0.6188  0.3298  0.3964
 2031SOL    HW2 8168   1.871   1.954   3.423  1.3080 -1.6672  0.4971
 2031SOL    HW3 8169   1.826   1.925   3.282  0.3302  0.7846  0.2931
 2031SOL    MW4 8170   1.809   1.929   3.367  0.6717  0.1265  0.3960
 2032SOL     OW 8171   2.001   2.019   3.507  0.4064 -0.2598 -0.1290
 2032SOL    HW2 8172   2.080   1.975   3.476 -0.2271 -1.5761  0.0829
 2032SOL    HW3 8173   1.998   2.100   3.456  1.9930 -0.0995  0.0131
 2032SOL    MW4 8174   2.011   2.024   3.496  0.5319 -0.4125 -0.0827
 2033SOL     OW 8175   2.025   2.293   3.410 -0.2141 -0.3347 -0.6661
 2033SOL    HW2 8176   2.103   2.343   3.433 -1.7232  1.7617  0.0661
 2033SOL    HW3 8177   2.009   2.314   3.318  0.3689 -1.1771 -0.9651
 2033SOL    MW4 8178   2.033   2.302   3.401 -0.3364 -0.1695 -0.6094
 2034SOL     OW 8179   1.806   2.461   3.497  0.3652  0.1697  0.5626
 2034SOL    HW2 8180   1.880   2.407   3.470  0.2138  0.6967 -0.9685
 2034SOL    HW3 8181   1.730   2.420   3.456  0.0575  0.6992  0.5897
 2034SOL    MW4 8182   1.805   2.449   3.488  0.3046  0.3092  0.3638
 2035SOL     OW 8183   1.772   2.736   3.387  0.2115 -0.2274  0.1728
 2035SOL    HW2 8184   1.851   2.784   3.408  1.3616 -2.2788  0.7376
 2035SOL    HW3 8185   1.784   2.651   3.430 -0.8815 -1.6983 -2.3185
 2035SOL    MW4 8186   1.784   2.731   3.395  0.2190 -0.6919 -0.0813
 2036SOL     OW 8187   2.022   2.872   3.452 -0.3782  0.1049 -0.0394
 2036SOL    HW2 8188   2.021   2.870   3.548  0.6961  0.4642 -0.0105
 2036SOL    HW3 8189   2.045   2.962   3.430 -0.7330  0.0527 -0.6413
 2036SOL    MW4 8190   2.025   2.883   3.462 -0.2832  0.1452 -0.1149
 2037SOL     OW 8191   2.047   3.137   3.378  0.0858 -0.4764 -0.1873
 2037SOL    HW2 8192   2.107   3.200   3.420  0.9000 -1.6431  0.4275
 2037SOL    HW3 8193   1.961   3.157   3.415  0.6464 -0.9024  1.3869
 2037SOL    MW4 8194   2.044   3.148   3.388  0.2673 -0.6864  0.1016
 2038SOL     OW 8195   1.779   3.234   3.432  0.7387  0.1972  0.1793
 2038SOL    HW2 8196   1.769   3.253   3.526 -0.0938  0.5424  0.0233
 2038SOL    HW3 8197   1.787   3.321   3.392  1.3346  0.0399 -0.0473
 2038SOL    MW4 8198   1.779   3.248   3.439  0.7076  0.2220  0.1287
 2039SOL     OW 8199   1.810   3.507   3.356 -0.0125 -0.1044  0.2886
 2039SOL    HW2 8200   1.733   3.553   3.389 -1.2399 -1.6818 -0.3124
 2039SOL    HW3 8201   1.797   3.502   3.261  0.7501 -0.5507  0.1990
 2039SOL    MW4 8202   1.798   3.513   3.348 -0.0739 -0.3715  0.1974
 2040SOL     OW 8203   2.037   3.629   3.487  0.4213  0.7213  0.1948
 2040SOL    HW2 8204   2.116   3.590   3.449  0.1929 -0.1571  0.6142
 2040SOL    HW3 8205   1.965   3.586   3.442  0.1581  0.2010  1.0986
 2040SOL    MW4 8206   2.038   3.618   3.476  0.3562  0.5367  0.3695
 2041SOL     OW 8207   2.037   3.891   3.369 -0.1847 -0.0923  0.4201
 2041SOL    HW2 8208   1.960   3.942   3.395 -0.1457  0.6599 -0.8947
 2041SOL    HW3 8209   2.030   3.810   3.420 -0.2816  1.1808  2.4726
 2041SOL    MW4 8210   2.026   3.887   3.379 -0.1922  0.1748  0.5174
 2042SOL     OW 8211   1.810   4.021   3.466  0.1291 -0.1522  0.4218
 2042SOL    HW2 8212   1.797   4.011   3.560  0.0664  2.7706  0.7694
 2042SOL    HW3 8213   1.733   3.980   3.426 -2.2160  2.7171  1.8342
 2042SOL    MW4 8214   1.798   4.014   3.473 -0.1886  0.6113  0.6542
 2043SOL     OW 8215   1.827   4.303   3.346  0.1264 -0.0764  0.1478
 2043SOL    HW2 8216   1.814   4.219   3.390  0.6571  0.9809  2.4227
 2043SOL    HW3 8217   1.820   4.283   3.253 -0.1699 -2.5575  0.6665
 2043SOL    MW4 8218   1.824   4.289   3.340  0.1575 -0.2651  0.5164
 2044SOL     OW 8219   2.024   4.389   3.505  0.2141 -0.1247  0.3442
 2044SOL    HW2 8220   1.958   4.348   3.448  2.2223 -1.3842 -1.1364
 2044SOL    HW3 8221   2.029   4.480   3.473 -0.0502 -0.3051 -0.2197
 2044SOL    MW4 8222   2.016   4.396   3.493  0.4439 -0.3142  0.0741
 2045SOL     OW 8223   2.465   4.633   3.380  0.5835 -0.0342 -0.5667
 2045SOL    HW2 8224   2.470   4.541   3.406  1.1826 -0.1958 -1.2266
 2045SOL    HW3 8225   2.464   4.631   3.284  0.6557  0.6503 -0.5880
 2045SOL    MW4 8226   2.465   4.621   3.370  0.6723  0.0348 -0.6564
 2046SOL     OW 8227   2.253   0.101   3.483  0.0968 -0.2673 -0.7968
 2046SOL    HW2 8228   2.259   0.189   3.446  0.9206  1.0549  2.2680
 2046SOL    HW3 8229   2.333   0.057   3.454  1.0211  0.9300 -0.1261
 2046SOL    MW4 8230   2.265   0.107   3.474  0.3276  0.0651 -0.3040
 2047SOL     OW 8231   2.254   0.357   3.375  0.6898  0.2151 -0.5618
 2047SOL    HW2 8232   2.320   0.407   3.422  0.9889  0.8124 -1.5915
 2047SOL    HW3 8233   2.171   0.402   3.396  1.0002  1.3984 -1.7798
 2047SOL    MW4 8234   2.251   0.370   3.384  0.7701  0.4501 -0.8583
 2048SOL     OW 8235   2.473   0.501   3.484  0.0447  0.0809  0.3756
 2048SOL    HW2 8236   2.545   0.445   3.454  0.6848  0.9665  0.2309
 2048SOL    HW3 8237   2.492   0.586   3.446 -0.5635  0.5611  1.1334
 2048SOL    MW4 8238   2.485   0.504   3.475  0.0491  0.2611  0.4566
 2049SOL     OW 8239   2.513   0.755   3.400 -0.4911  0.8053  0.1669
 2049SOL    HW2 8240   2.597   0.796   3.422 -0.2535  0.1078  0.5647
 2049SOL    HW3 8241   2.518   0.741   3.305  0.0068  0.4167  0.2462
 2049SOL    MW4 8242   2.525   0.758   3.390 -0.3939  0.6620  0.2298
 2050SOL     OW 8243   2.290   0.912   3.461 -0.1005 -0.0221  0.4191
 2050SOL    HW2 8244   2.298   1.003   3.430 -0.4934  0.1755  0.8800
 2050SOL    HW3 8245   2.374   0.872   3.440  0.0327  0.4217  0.1039
 2050SOL    MW4 8246   2.302   0.919   3.454 -0.1349  0.0625  0.4382
 2051SOL     OW 8247   2.303   1.170   3.366  0.4358  0.3704  0.1535
 2051SOL    HW2 8248   2.356   1.216   3.430 -0.0672  1.1796 -0.0101
 2051SOL    HW3 8249   2.213   1.187   3.393  0.2308  0.3090 -0.4810
 2051SOL    MW4 8250   2.298   1.178   3.378  0.3424  0.4692  0.0477
 2052SOL     OW 8251   2.526   1.311   3.515 -0.1435 -0.2483 -0.4169
 2052SOL    HW2 8252   2.532   1.313   3.611  0.4720 -0.0144 -0.4615
 2052SOL    HW3 8253   2.591   1.245   3.489  0.9120  0.9351 -0.7831
 2052SOL    MW4 8254   2.536   1.302   3.524  0.0772 -0.0614 -0.4714
 2053SOL     OW 8255   2.502   1.549   3.336  0.1940  0.4895  0.2840
 2053SOL    HW2 8256   2.491   1.470   3.389  1.2265  0.1302 -0.0229
 2053SOL    HW3 8257   2.488   1.519   3.246  1.1862  0.5290  0.1140
 2053SOL    MW4 8258   2.498   1.534   3.331  0.4611  0.4473  0.2210
 2054SOL     OW 8259   2.249   1.652   3.439  0.2549 -0.6183 -0.1979
 2054SOL    HW2 8260   2.249   1.661   3.534 -0.1779 -0.6706 -0.1907
 2054SOL    HW3 8261   2.341   1.637   3.416  0.5206  0.5190  0.1008
 2054SOL    MW4 8262   2.261   1.651   3.449  0.2329 -0.4750 -0.1576
 2055SOL     OW 8263   2.226   1.907   3.396  0.1263 -0.0068 -0.3200
 2055SOL    HW2 8264   2.229   1.812   3.409  3.2881  0.2687  1.7617
 2055SOL    HW3 8265   2.249   1.919   3.304  1.5277 -1.2233 -0.1554
 2055SOL    MW4 8266   2.230   1.896   3.386  0.7281 -0.1308 -0.0236
 2056SOL     OW 8267   2.464   2.078   3.438  0.1043  0.1576 -0.3039
 2056SOL    HW2 8268   2.457   2.110   3.528 -0.9165  0.3941 -0.4589
 2056SOL    HW3 8269   2.385   2.026   3.425 -0.1822  0.8391 -1.3490
 2056SOL    MW4 8270   2.453   2.076   3.448 -0.0682  0.2789 -0.4625
 2057SOL     OW 8271   2.500   2.342   3.343  0.1420 -0.1868  0.0076
 2057SOL    HW2 8272   2.578   2.372   3.389  0.3600 -0.2689 -0.3094
 2057SOL    HW3 8273   2.496   2.248   3.359  1.0944 -0.4826 -1.4518
 2057SOL    MW4 8274   2.510   2.334   3.351  0.2966 -0.2367 -0.2270
 2058SOL     OW 8275   2.257   2.433   3.464 -0.4802 -0.5146 -0.1308
 2058SOL    HW2 8276   2.249   2.524   3.433 -0.2586 -0.6451 -0.5740
 2058SOL    HW3 8277   2.337   2.401   3.423  0.1536 -0.4969  1.0732
 2058SOL    MW4 8278   2.267   2.441   3.455 -0.3676 -0.5298 -0.0305
 2059SOL     OW 8279   2.217   2.706   3.384 -0.3724 -0.1956  0.5275
 2059SOL    HW2 8280   2.138   2.757   3.406 -0.8115 -0.7806  0.3324
 2059SOL    HW3 8281   2.230   2.722   3.291  0.4289  0.8320  0.8028
 2059SOL    MW4 8282   2.208   2.715   3.375 -0.3247 -0.1373  0.5379
 2060SOL     OW 8283   2.475   2.799   3.427  0.1289 -0.1152  0.1572
 2060SOL    HW2 8284   2.484   2.890   3.400 -0.7361 -0.3233 -0.8660
 2060SOL    HW3 8285   2.383   2.778   3.411  0.6083 -1.5543 -0.8756
 2060SOL    MW4 8286   2.464   2.808   3.421  0.0784 -0.3326 -0.1140
 2061SOL     OW 8287   2.467   3.064   3.334  0.1125  0.0489  0.0559
 2061SOL    HW2 8288   2.546   3.114   3.353  1.2266 -1.6762  0.0450
 2061SOL    HW3 8289   2.462   3.063   3.239  1.4540 -1.8882 -0.0296
 2061SOL    MW4 8290   2.477   3.070   3.324  0.4365 -0.4344  0.0432
 2062SOL     OW 8291   2.273   3.254   3.497  0.4742  0.4566 -0.3692
 2062SOL    HW2 8292   2.280   3.226   3.589 -0.3946 -0.5082 -0.5900
 2062SOL    HW3 8293   2.320   3.186   3.448 -0.3463  0.1718 -0.7713
 2062SOL    MW4 8294   2.280   3.241   3.503  0.2513  0.2918 -0.4513
 2063SOL     OW 8295   2.280   3.515   3.381 -0.0570  0.0521 -0.0064
 2063SOL    HW2 8296   2.273   3.425   3.415 -2.2994  0.3522  0.4042
 2063SOL    HW3 8297   2.278   3.504   3.286 -2.3244 -0.2183  0.0549
 2063SOL    MW4 8298   2.279   3.501   3.373 -0.6521  0.0563  0.0558
 2064SOL     OW 8299   2.528   3.608   3.485  0.0745  0.2172 -0.2213
 2064SOL    HW2 8300   2.527   3.696   3.447  2.3798 -0.5459 -2.1831
 2064SOL    HW3 8301   2.442   3.572   3.464 -1.1319  2.1542  1.1215
 2064SOL    MW4 8302   2.517   3.615   3.477  0.2196  0.3719 -0.3030
 2065SOL     OW 8303   2.498   3.846   3.371  0.0072 -0.4680  0.4734
 2065SOL    HW2 8304   2.574   3.897   3.398  0.0969 -1.1837  1.6376
 2065SOL    HW3 8305   2.423   3.894   3.406  0.1259 -1.4164  2.0808
 2065SOL    MW4 8306   2.498   3.859   3.379  0.0350 -0.6874  0.8392
 2066SOL     OW 8307   2.252   3.990   3.482  0.0635 -0.1157  0.0690
 2066SOL    HW2 8308   2.258   4.085   3.471  0.7058 -0.1568  0.0352
 2066SOL    HW3 8309   2.169   3.967   3.441 -0.1312  0.4434  0.1417
 2066SOL    MW4 8310   2.242   4.000   3.475  0.1225 -0.0474  0.0741
 2067SOL     OW 8311   2.254   4.261   3.385 -0.4249 -0.6000  0.3034
 2067SOL    HW2 8312   2.170   4.302   3.406 -1.0463 -1.4611 -0.4968
 2067SOL    HW3 8313   2.252   4.249   3.290  1.2040  0.6748  0.0862
 2067SOL    MW4 8314   2.243   4.265   3.376 -0.2921 -0.5455  0.1690
 2068SOL     OW 8315   2.503   4.364   3.449  0.4018  0.2237 -0.1414
 2068SOL    HW2 8316   2.500   4.365   3.544 -2.0643  1.8790 -0.1698
 2068SOL    HW3 8317   2.418   4.330   3.422  0.7416  0.5833 -1.7563
 2068SOL    MW4 8318   2.491   4.360   3.458  0.1211  0.4892 -0.3581
 2069SOL     OW 8319   2.965   4.617   3.393  0.0860  0.7973 -0.2159
 2069SOL    HW2 8320   2.883   4.663   3.407 -0.2157  0.8565 -2.1208
 2069SOL    HW3 8321   2.969   4.601   3.299  1.1202 -1.3316  0.1450
 2069SOL    MW4 8322   2.955   4.621   3.382  0.1826  0.5245 -0.4194
 2070SOL     OW 8323   2.715   0.082   3.449 -0.3073  0.2282 -0.0304
 2070SOL    HW2 8324   2.707   0.175   3.427  0.6862  0.0891 -1.0109
 2070SOL    HW3 8325   2.634   0.043   3.417 -0.6387  0.7135  0.1978
 2070SOL    MW4 8326   2.703   0.089   3.442 -0.2201  0.2739 -0.1295
 2071SOL     OW 8327   2.682   0.351   3.394  0.0682  0.2367  0.0659
 2071SOL    HW2 8328   2.759   0.402   3.423  0.2372  0.3858 -0.6313
 2071SOL    HW3 8329   2.694   0.342   3.299 -0.9675  0.5855 -0.1048
 2071SOL    MW4 8330   2.694   0.357   3.385 -0.0458  0.3024 -0.0486
 2072SOL     OW 8331   2.905   0.466   3.494 -0.3451  0.1885 -0.3325
 2072SOL    HW2 8332   2.907   0.489   3.587  1.5415  0.0508 -0.3156
 2072SOL    HW3 8333   2.924   0.548   3.449 -0.3483  0.0624 -0.5631
 2072SOL    MW4 8334   2.908   0.480   3.501 -0.0966  0.1537 -0.3610
 2073SOL     OW 8335   2.948   0.718   3.409  0.4893  0.0051 -0.2126
 2073SOL    HW2 8336   3.014   0.784   3.434  0.1895 -0.0392  0.7193
 2073SOL    HW3 8337   2.866   0.751   3.446  0.4317 -1.1486  0.7300
 2073SOL    MW4 8338   2.946   0.731   3.417  0.4423 -0.1529  0.0348
 2074SOL     OW 8339   2.733   0.872   3.504  0.4582 -0.1857 -0.0345
 2074SOL    HW2 8340   2.736   0.883   3.599  0.8803 -1.0050  0.0495
 2074SOL    HW3 8341   2.746   0.961   3.470  2.8179 -0.2406  0.6482
 2074SOL    MW4 8342   2.735   0.885   3.512  0.8252 -0.3010  0.0670
 2075SOL     OW 8343   2.686   1.115   3.377 -0.1604 -0.3862 -0.1105
 2075SOL    HW2 8344   2.752   1.183   3.388 -0.3225 -0.1562 -0.5790
 2075SOL    HW3 8345   2.663   1.118   3.285 -0.1273 -1.1139 -0.1491
 2075SOL    MW4 8346   2.692   1.124   3.366 -0.1774 -0.4517 -0.1771
 2076SOL     OW 8347   2.923   1.298   3.464 -0.0715  0.2901 -0.3003
 2076SOL    HW2 8348   2.925   1.323   3.556  2.7586  0.2207 -0.3081
 2076SOL    HW3 8349   3.002   1.247   3.451 -0.2926  0.5243 -2.8498
 2076SOL    MW4 8350   2.933   1.295   3.475  0.2730  0.3117 -0.6378
 2077SOL     OW 8351   2.924   1.547   3.295  0.2036 -0.1194  0.3392
 2077SOL    HW2 8352   2.853   1.586   3.346  1.3513  0.4135  1.5780
 2077SOL    HW3 8353   2.930   1.457   3.327 -0.7289 -0.5444 -0.6606
 2077SOL    MW4 8354   2.916   1.540   3.306  0.2320 -0.1050  0.3707
 2078SOL     OW 8355   2.735   1.674   3.439  0.1578 -0.1982  0.5046
 2078SOL    HW2 8356   2.715   1.764   3.416  0.7011 -0.3959 -0.8074
 2078SOL    HW3 8357   2.662   1.623   3.404 -0.2178 -0.2538  1.3675
 2078SOL    MW4 8358   2.723   1.679   3.431  0.1802 -0.2316  0.4456
 2079SOL     OW 8359   2.696   1.935   3.373  0.0513  1.3114  0.2687
 2079SOL    HW2 8360   2.633   1.991   3.418 -0.5875  0.3603  0.5651
 2079SOL    HW3 8361   2.679   1.951   3.280 -1.3410  0.2969  0.3291
 2079SOL    MW4 8362   2.685   1.945   3.367 -0.2170  1.0520  0.3154
 2080SOL     OW 8363   2.960   2.000   3.461  0.1267 -0.6307  0.7112
 2080SOL    HW2 8364   2.952   1.997   3.557  0.6967  0.6699  0.8094
 2080SOL    HW3 8365   2.875   1.969   3.429 -0.1373 -0.8813  1.6386
 2080SOL    MW4 8366   2.947   1.995   3.470  0.1669 -0.4920  0.8466
 2081SOL     OW 8367   2.955   2.268   3.384  0.0133 -0.1465  0.2504
 2081SOL    HW2 8368   2.953   2.173   3.398  0.1121 -0.0729  0.7982
 2081SOL    HW3 8369   2.912   2.281   3.300  0.4493 -0.7228 -0.0673
 2081SOL    MW4 8370   2.949   2.257   3.375  0.0842 -0.2127  0.2806
 2082SOL     OW 8371   2.736   2.419   3.472  0.2467 -0.3133  0.1498
 2082SOL    HW2 8372   2.734   2.436   3.566  2.0291  0.6066  0.0428
 2082SOL    HW3 8373   2.817   2.370   3.458 -0.3787 -1.0920 -0.8104
 2082SOL    MW4 8374   2.747   2.415   3.483  0.3994 -0.2944  0.0091
 2083SOL     OW 8375   2.737   2.667   3.377 -0.3679 -0.5111 -0.2887
 2083SOL    HW2 8376   2.751   2.578   3.409  0.2177  0.0656  1.1216
 2083SOL    HW3 8377   2.650   2.691   3.408  0.1045 -0.0373  0.7025
 2083SOL    MW4 8378   2.727   2.658   3.385 -0.2282 -0.3726  0.0281
 2084SOL     OW 8379   2.961   2.832   3.418 -0.3856  0.1869 -0.0148
 2084SOL    HW2 8380   2.959   2.827   3.513 -0.1881  2.6783  0.1479
 2084SOL    HW3 8381   2.876   2.799   3.390 -0.1818 -1.2233  0.9690
 2084SOL    MW4 8382   2.950   2.827   3.427 -0.3326  0.3297  0.1364
 2085SOL     OW 8383   2.936   3.102   3.350 -0.4213  0.5084 -0.2200
 2085SOL    HW2 8384   2.962   3.017   3.387  1.6840  0.9678 -0.5395
 2085SOL    HW3 8385   2.917   3.083   3.258 -0.7601  0.2398 -0.0961
 2085SOL    MW4 8386   2.937   3.088   3.343 -0.1884  0.5333 -0.2456
 2086SOL     OW 8387   2.678   3.219   3.421  0.0065 -0.0022 -0.0199
 2086SOL    HW2 8388   2.673   3.207   3.516 -1.0065  1.4219  0.1128
 2086SOL    HW3 8389   2.761   3.177   3.397  0.3161 -0.3126  1.4951
 2086SOL    MW4 8390   2.688   3.212   3.431 -0.0863  0.1450  0.1974
 2087SOL     OW 8391   2.703   3.468   3.315 -0.4737 -0.2353 -0.5180
 2087SOL    HW2 8392   2.707   3.381   3.355  1.7339 -0.1279 -0.4146
 2087SOL    HW3 8393   2.632   3.513   3.361  0.8142 -0.7330  2.0658
 2087SOL    MW4 8394   2.694   3.462   3.327 -0.0126 -0.2863 -0.1633
 2088SOL     OW 8395   2.900   3.591   3.448 -0.1913  0.0809  0.0305
 2088SOL    HW2 8396   2.909   3.681   3.416  0.7930 -0.4541 -1.2304
 2088SOL    HW3 8397   2.830   3.554   3.394 -0.7770  0.1658  0.7289
 2088SOL    MW4 8398   2.892   3.598   3.436 -0.1390  0.0215 -0.0434
 2089SOL     OW 8399   2.925   3.842   3.377  0.6046 -0.1705 -0.1609
 2089SOL    HW2 8400   3.007   3.882   3.406  0.7697  0.4731 -1.4807
 2089SOL    HW3 8401   2.857   3.901   3.409  0.7224 -0.0637 -0.1048
 2089SOL    MW4 8402   2.927   3.855   3.385  0.6418 -0.0713 -0.3273
 2090SOL     OW 8403   2.698   4.018   3.459  0.3374  0.4162 -0.3054
 2090SOL    HW2 8404   2.692   4.033   3.553 -0.6823 -0.1350 -0.2785
 2090SOL    HW3 8405   2.697   4.106   3.421  1.6029  0.6796  0.2293
 2090SOL    MW4 8406   2.697   4.031   3.466  0.3698  0.3777 -0.2315
 2091SOL     OW 8407   2.721   4.258   3.338  0.2805 -0.2938 -0.1055
 2091SOL    HW2 8408   2.800   4.294   3.377  1.7486 -0.5764 -2.6819
 2091SOL    HW3 8409   2.649   4.305   3.381  1.9483  1.9072  0.3628
 2091SOL    MW4 8410   2.722   4.269   3.348  0.6943 -0.0405 -0.3834
 2092SOL     OW 8411   2.920   4.362   3.495  0.1283  0.0176 -0.1727
 2092SOL    HW2 8412   2.917   4.356   3.590  1.5801  0.9310 -0.0535
 2092SOL    HW3 8413   2.924   4.455   3.476 -3.2680 -0.0039 -1.2783
 2092SOL    MW4 8414   2.920   4.373   3.505 -0.1280  0.1349 -0.3028
 2093SOL     OW 8415   3.408   4.634   3.402  0.4342  0.3133 -0.3166
 2093SOL    HW2 8416   3.336   4.688   3.435  0.9922  1.8752 -1.5749
 2093SOL    HW3 8417   3.400   4.640   3.307  1.6171 -0.3416 -0.4646
 2093SOL    MW4 8418   3.397   4.642   3.394  0.6642  0.4334 -0.5019
 2094SOL     OW 8419   3.181   0.081   3.505 -0.1013 -0.4131  0.2498
 2094SOL    HW2 8420   3.171   0.173   3.482  0.0955 -0.3204  0.5342
 2094SOL    HW3 8421   3.111   0.036   3.458 -0.3708 -0.0810  0.3393
 2094SOL    MW4 8422   3.171   0.087   3.496 -0.1109 -0.3571  0.2992
 2095SOL     OW 8423   3.155   0.355   3.427 -0.5291 -0.1676 -0.4078
 2095SOL    HW2 8424   3.067   0.365   3.464 -0.6463 -2.2938 -0.0422
 2095SOL    HW3 8425   3.140   0.343   3.333 -0.7369 -1.6109 -0.2084
 2095SOL    MW4 8426   3.141   0.354   3.419 -0.5722 -0.6385 -0.3333
 2096SOL     OW 8427   3.359   0.510   3.511 -0.5334  0.0363  0.3301
 2096SOL    HW2 8428   3.356   0.526   3.606  0.6277 -0.7837  0.5265
 2096SOL    HW3 8429   3.291   0.445   3.495 -0.8999  0.3623  0.5624
 2096SOL    MW4 8430   3.350   0.504   3.522 -0.4287 -0.0288  0.3867
 2097SOL     OW 8431   3.342   0.742   3.385 -0.0400  0.0968 -0.0874
 2097SOL    HW2 8432   3.421   0.779   3.425 -0.2833  0.6031 -0.0596
 2097SOL    HW3 8433   3.341   0.651   3.412  0.4414  0.1356  0.0603
 2097SOL    MW4 8434   3.352   0.735   3.394 -0.0088  0.1687 -0.0644
 2098SOL     OW 8435   3.119   0.897   3.510 -0.2175 -0.1803 -0.4528
 2098SOL    HW2 8436   3.138   0.976   3.460 -3.4514 -0.4217 -2.1582
 2098SOL    HW3 8437   3.181   0.832   3.476  0.5223  0.8252 -1.0528
 2098SOL    MW4 8438   3.130   0.899   3.499 -0.5467 -0.0795 -0.7572
 2099SOL     OW 8439   3.142   1.150   3.403  0.2598 -0.1089 -0.8659
 2099SOL    HW2 8440   3.223   1.180   3.443 -0.2662  0.0083  0.1536
 2099SOL    HW3 8441   3.154   1.162   3.309  1.2704  0.2545 -0.6911
 2099SOL    MW4 8442   3.154   1.155   3.396  0.3238 -0.0454 -0.7083
 2100SOL     OW 8443   3.367   1.271   3.503 -0.2586  0.4723 -0.3283
 2100SOL    HW2 8444   3.452   1.229   3.492 -0.1872  0.5138  0.0352
 2100SOL    HW3 8445   3.373   1.353   3.454  0.0086  0.6057 -0.0737
 2100SOL    MW4 8446   3.379   1.276   3.495 -0.2139  0.4954 -0.2468
 2101SOL     OW 8447   3.361   1.509   3.339  0.1697  0.3753  0.0119
 2101SOL    HW2 8448   3.428   1.561   3.384 -1.2283  0.3746  2.1821
 2101SOL    HW3 8449   3.278   1.545   3.370 -0.8464 -0.6106 -1.4747
 2101SOL    MW4 8450   3.359   1.521   3.349 -0.1490  0.2451  0.1023
 2102SOL     OW 8451   3.145   1.625   3.446  0.3109  0.2672 -0.6326
 2102SOL    HW2 8452   3.168   1.713   3.414  1.0199  0.6832  0.9554
 2102SOL    HW3 8453   3.052   1.617   3.427 -0.4679  2.5861  1.8480
 2102SOL    MW4 8454   3.136   1.636   3.439  0.3018  0.6279 -0.0958
 2103SOL     OW 8455   3.185   1.881   3.361  0.2772 -0.7845  0.3228
 2103SOL    HW2 8456   3.106   1.927   3.388  0.9058  0.4864  0.0437
 2103SOL    HW3 8457   3.186   1.890   3.266  2.0206  1.3574  0.5019
 2103SOL    MW4 8458   3.175   1.889   3.352  0.5898 -0.3341  0.3097
 2104SOL     OW 8459   3.390   2.029   3.468  0.1722  0.1434 -0.1261
 2104SOL    HW2 8460   3.392   2.112   3.421  0.2344 -0.1494 -0.6414
 2104SOL    HW3 8461   3.320   1.979   3.426  0.9926 -0.5601 -0.6624
 2104SOL    MW4 8462   3.381   2.033   3.456  0.2885  0.0119 -0.2646
 2105SOL     OW 8463   3.392   2.296   3.354 -0.5649 -0.1944 -0.4217
 2105SOL    HW2 8464   3.474   2.304   3.403 -0.8674 -1.8481  0.3863
 2105SOL    HW3 8465   3.329   2.349   3.403  0.2168  1.8269 -1.5498
 2105SOL    MW4 8466   3.394   2.304   3.367 -0.5019 -0.1457 -0.4640
 2106SOL     OW 8467   3.168   2.419   3.481  0.3991 -0.2355  0.1342
 2106SOL    HW2 8468   3.155   2.506   3.442  0.8927  0.1378  0.7932
 2106SOL    HW3 8469   3.090   2.369   3.455  0.8671 -0.1005 -1.6103
 2106SOL    MW4 8470   3.156   2.424   3.473  0.5260 -0.1686 -0.0088
 2107SOL     OW 8471   3.162   2.656   3.351  0.3741 -0.1403  0.2030
 2107SOL    HW2 8472   3.231   2.700   3.401  0.7501 -0.2516 -0.2070
 2107SOL    HW3 8473   3.083   2.706   3.370  0.8442  0.8845 -0.4497
 2107SOL    MW4 8474   3.161   2.668   3.360  0.4859 -0.0196  0.0629
 2108SOL     OW 8475   3.363   2.821   3.463  0.2497 -0.3652  0.4399
 2108SOL    HW2 8476   3.440   2.768   3.444  0.0485 -0.8979  1.0958
 2108SOL    HW3 8477   3.385   2.909   3.431  0.1309 -1.0956 -1.7428
 2108SOL    MW4 8478   3.376   2.826   3.456  0.2074 -0.5317  0.2384
 2109SOL     OW 8479   3.399   3.089   3.391  0.6476  0.1018 -0.4450
 2109SOL    HW2 8480   3.466   3.120   3.451  0.8820  0.6547 -0.9906
 2109SOL    HW3 8481   3.323   3.145   3.409  0.7909  0.4157 -0.8255
 2109SOL    MW4 8482   3.398   3.100   3.402  0.6974  0.2162 -0.5670
 2110SOL     OW 8483   3.158   3.234   3.446 -0.0085  0.0022  0.4877
 2110SOL    HW2 8484   3.165   3.328   3.430  2.4801 -0.4160 -1.1142
 2110SOL    HW3 8485   3.074   3.209   3.409  0.0867  1.3047 -0.6375
 2110SOL    MW4 8486   3.148   3.243   3.439  0.3324  0.1187  0.1280
 2111SOL     OW 8487   3.151   3.503   3.375 -0.0173 -0.0140  0.3465
 2111SOL    HW2 8488   3.063   3.528   3.403  0.0650  0.1355  0.4714
 2111SOL    HW3 8489   3.147   3.503   3.280  0.3356  1.7144  0.3183
 2111SOL    MW4 8490   3.139   3.506   3.366  0.0403  0.2337  0.3593
 2112SOL     OW 8491   3.389   3.595   3.458  0.2347 -0.1267 -0.3029
 2112SOL    HW2 8492   3.383   3.687   3.431 -0.1559 -0.2151 -0.5201
 2112SOL    HW3 8493   3.303   3.559   3.439  0.3615 -0.5188 -0.1370
 2112SOL    MW4 8494   3.377   3.602   3.452  0.2000 -0.1900 -0.3097
 2113SOL     OW 8495   3.385   3.868   3.377 -0.1997 -0.1793 -0.2017
 2113SOL    HW2 8496   3.465   3.914   3.401  0.7447 -0.6907 -2.3610
 2113SOL    HW3 8497   3.315   3.933   3.392  0.3843 -0.2061  3.1261
 2113SOL    MW4 8498   3.386   3.883   3.382  0.0019 -0.2503 -0.0477
 2114SOL     OW 8499   3.151   4.009   3.457 -0.1657 -0.0270 -0.0725
 2114SOL    HW2 8500   3.139   4.011   3.552  0.0379 -1.0910 -0.0111
 2114SOL    HW3 8501   3.139   4.099   3.429 -2.6194 -0.0942  0.6559
 2114SOL    MW4 8502   3.148   4.021   3.466 -0.4625 -0.1760  0.0315
 2115SOL     OW 8503   3.140   4.266   3.365 -0.2879  0.4252 -0.0549
 2115SOL    HW2 8504   3.216   4.290   3.418 -0.2023 -1.5236  0.7509
 2115SOL    HW3 8505   3.065   4.296   3.416 -0.1451  0.0302  0.3909
 2115SOL    MW4 8506   3.140   4.274   3.379 -0.2580  0.1159  0.1104
 2116SOL     OW 8507   3.364   4.377   3.511 -0.5322 -0.1373  0.6871
 2116SOL    HW2 8508   3.364   4.383   3.607 -0.0948 -0.4648  0.7073
 2116SOL    HW3 8509   3.378   4.467   3.482  0.6787 -0.2425  0.9423
 2116SOL    MW4 8510   3.366   4.390   3.520 -0.3147 -0.1941  0.7234
 2117SOL     OW 8511   3.851   4.642   3.349  0.3608  0.0198 -0.3344
 2117SOL    HW2 8512   3.765   4.677   3.373 -0.0437 -0.7161 -0.6701
 2117SOL    HW3 8513   3.853   4.648   3.253  0.8026  0.3087 -0.3074
 2117SOL    MW4 8514   3.840   4.647   3.339  0.3657 -0.0386 -0.3748
 2118SOL     OW 8515   3.620   0.103   3.513 -0.2552  0.0436 -0.3139
 2118SOL    HW2 8516   3.602   0.192   3.483  0.2910 -0.2243 -1.4716
 2118SOL    HW3 8517   3.546   0.051   3.481  0.3542 -0.2526 -1.2570
 2118SOL    MW4 8518   3.608   0.108   3.505 -0.1028 -0.0308 -0.5910
 2119SOL     OW 8519   3.569   0.355   3.409  0.2498 -0.2129  0.4325
 2119SOL    HW2 8520   3.645   0.403   3.441 -0.0267  0.9806 -0.6897
 2119SOL    HW3 8521   3.494   0.410   3.431 -0.0233  0.1533 -1.3781
 2119SOL    MW4 8522   3.569   0.368   3.416  0.1774 -0.0071  0.0455
 2120SOL     OW 8523   3.786   0.510   3.501 -0.0175  0.0417 -0.0297
 2120SOL    HW2 8524   3.780   0.518   3.596 -0.3865 -0.6814  0.0099
 2120SOL    HW3 8525   3.849   0.439   3.487 -0.2684 -0.1250 -0.3189
 2120SOL    MW4 8526   3.794   0.502   3.512 -0.0992 -0.0758 -0.0627
 2121SOL     OW 8527   3.814   0.773   3.405 -0.4150 -0.1740  0.1258
 2121SOL    HW2 8528   3.907   0.791   3.421 -0.2433  0.2776 -1.3366
 2121SOL    HW3 8529   3.802   0.683   3.435  0.6901 -0.5142 -0.4149
 2121SOL    MW4 8530   3.824   0.763   3.411 -0.2463 -0.1593 -0.1385
 2122SOL     OW 8531   3.572   0.874   3.476 -0.0325  0.1754 -0.1919
 2122SOL    HW2 8532   3.562   0.864   3.570  0.1432  0.5935 -0.1250
 2122SOL    HW3 8533   3.655   0.830   3.456  0.3170  0.7486 -0.0302
 2122SOL    MW4 8534   3.582   0.867   3.486  0.0367  0.3062 -0.1616
 2123SOL     OW 8535   3.611   1.159   3.417 -0.3584  0.2471 -0.2137
 2123SOL    HW2 8536   3.616   1.066   3.443 -0.7590  0.1415 -0.5178
 2123SOL    HW3 8537   3.596   1.156   3.323 -0.7649  0.6226 -0.1585
 2123SOL    MW4 8538   3.610   1.146   3.408 -0.4652  0.2826 -0.2468
 2124SOL     OW 8539   3.843   1.304   3.469 -0.7762  0.1886 -0.0424
 2124SOL    HW2 8540   3.830   1.321   3.563  1.5310 -0.6913  0.4546
 2124SOL    HW3 8541   3.763   1.257   3.442 -1.2821  0.0960  1.5679
 2124SOL    MW4 8542   3.831   1.300   3.478 -0.5386  0.0603  0.2356
 2125SOL     OW 8543   3.828   1.559   3.380 -0.2032  0.2161 -0.2300
 2125SOL    HW2 8544   3.904   1.595   3.426  0.3447  0.8117 -1.5702
 2125SOL    HW3 8545   3.830   1.466   3.400  0.9531  0.2109 -0.3267
 2125SOL    MW4 8546   3.838   1.552   3.389  0.0217  0.2940 -0.4196
 2126SOL     OW 8547   3.582   1.638   3.453 -0.0571  0.4094  0.2341
 2126SOL    HW2 8548   3.593   1.727   3.418  0.4606 -0.4444 -1.8420
 2126SOL    HW3 8549   3.660   1.591   3.423 -1.0546 -1.1504  0.0366
 2126SOL    MW4 8550   3.594   1.644   3.444 -0.1206  0.0910 -0.0658
 2127SOL     OW 8551   3.620   1.892   3.352 -0.1325  0.0981  0.1073
 2127SOL    HW2 8552   3.699   1.932   3.389 -0.2626 -0.0322  0.5294
 2127SOL    HW3 8553   3.548   1.937   3.396 -0.2906  0.0346 -0.0872
 2127SOL    MW4 8554   3.621   1.903   3.363 -0.1702  0.0725  0.1373
 2128SOL     OW 8555   3.833   2.039   3.495  0.2279 -0.7937 -0.0299
 2128SOL    HW2 8556   3.838   2.056   3.589  2.2113 -1.1802 -0.0450
 2128SOL    HW3 8557   3.918   1.999   3.473 -0.9667 -2.5589 -1.6063
 2128SOL    MW4 8558   3.845   2.036   3.505  0.3319 -1.0777 -0.2396
 2129SOL     OW 8559   3.846   2.298   3.375 -0.1028 -0.3856 -0.1397
 2129SOL    HW2 8560   3.927   2.345   3.395 -0.7362  0.3924  0.6840
 2129SOL    HW3 8561   3.858   2.212   3.415  0.3033 -0.2556  0.0230
 2129SOL    MW4 8562   3.858   2.293   3.383 -0.1328 -0.2658 -0.0095
 2130SOL     OW 8563   3.607   2.387   3.492  0.0624  0.2524  0.7012
 2130SOL    HW2 8564   3.595   2.477   3.462 -0.2285  0.4962  1.5343
 2130SOL    HW3 8565   3.691   2.360   3.455 -0.5877  0.3282 -0.8348
 2130SOL    MW4 8566   3.617   2.395   3.483 -0.0615  0.2947  0.6087
 2131SOL     OW 8567   3.571   2.647   3.412  0.1815  0.2981 -0.0548
 2131SOL    HW2 8568   3.655   2.676   3.449  0.7194 -0.2841 -0.8000
 2131SOL    HW3 8569   3.581   2.659   3.318 -0.0640 -1.0504 -0.2613
 2131SOL    MW4 8570   3.583   2.652   3.404  0.2201  0.0434 -0.1805
 2132SOL     OW 8571   3.820   2.774   3.476  0.1261 -0.1018 -0.3881
 2132SOL    HW2 8572   3.840   2.760   3.569  2.3123 -1.9753 -1.0857
 2132SOL    HW3 8573   3.825   2.869   3.465 -0.9349  0.2156  1.5573
 2132SOL    MW4 8574   3.823   2.785   3.487  0.2744 -0.3071 -0.2234
 2133SOL     OW 8575   3.835   3.036   3.402 -0.2003  0.0704  0.4766
 2133SOL    HW2 8576   3.911   3.080   3.439  0.2991 -2.0253  2.0479
 2133SOL    HW3 8577   3.844   3.048   3.307  1.8806  0.1597  0.6671
 2133SOL    MW4 8578   3.846   3.043   3.394  0.1402 -0.1945  0.7091
 2134SOL     OW 8579   3.622   3.177   3.523 -0.3204 -0.0804  0.1922
 2134SOL    HW2 8580   3.616   3.257   3.470 -0.1289 -0.7958 -0.9271
 2134SOL    HW3 8581   3.696   3.129   3.485 -0.5579 -0.8858  0.7309
 2134SOL    MW4 8582   3.631   3.181   3.511 -0.3264 -0.2809  0.1156
 2135SOL     OW 8583   3.579   3.422   3.377  0.3042  0.6742 -0.1953
 2135SOL    HW2 8584   3.505   3.475   3.405 -0.5275 -0.8936  0.6119
 2135SOL    HW3 8585   3.578   3.427   3.281 -1.4144 -0.0773 -0.2317
 2135SOL    MW4 8586   3.569   3.429   3.368 -0.0324  0.3684 -0.0937
 2136SOL     OW 8587   3.777   3.604   3.451  0.9894 -0.2177  0.0498
 2136SOL    HW2 8588   3.796   3.594   3.545 -1.9858  0.6915  0.7797
 2136SOL    HW3 8589   3.710   3.538   3.433 -0.0119  1.0621 -0.9452
 2136SOL    MW4 8590   3.771   3.594   3.461  0.4647  0.0710  0.0150
 2137SOL     OW 8591   3.817   3.878   3.364  0.4105  0.2704  0.3800
 2137SOL    HW2 8592   3.742   3.925   3.400  1.2139  0.6208  1.6481
 2137SOL    HW3 8593   3.806   3.788   3.395  0.1839  0.1808  0.0402
 2137SOL    MW4 8594   3.806   3.872   3.373  0.4864  0.3047  0.5023
 2138SOL     OW 8595   3.599   4.011   3.458 -0.8090 -0.4817 -0.2618
 2138SOL    HW2 8596   3.585   4.021   3.553 -2.4825  0.5410 -0.5809
 2138SOL    HW3 8597   3.620   4.100   3.428  0.6085 -0.9654 -0.7220
 2138SOL    MW4 8598   3.600   4.024   3.467 -0.8428 -0.4106 -0.3645
 2139SOL     OW 8599   3.621   4.293   3.407  0.0914  0.3799 -0.2104
 2139SOL    HW2 8600   3.535   4.315   3.444  0.7748  1.3247  0.8572
 2139SOL    HW3 8601   3.604   4.278   3.314 -1.1402  1.1155 -0.1225
 2139SOL    MW4 8602   3.607   4.294   3.400  0.0196  0.6013 -0.0584
 2140SOL     OW 8603   3.839   4.434   3.511  0.1030 -0.1342 -0.1646
 2140SOL    HW2 8604   3.769   4.380   3.472 -0.9951  0.6120  0.7559
 2140SOL    HW3 8605   3.844   4.511   3.454  1.4457 -1.0325 -1.2881
 2140SOL    MW4 8606   3.830   4.437   3.498  0.1354 -0.1545 -0.1917
 2141SOL     OW 8607   4.269   4.662   3.341 -0.5795  0.1610  0.7142
 2141SOL    HW2 8608   4.255   4.568   3.352 -0.7435  0.0543 -0.4364
 2141SOL    HW3 8609   4.343   4.681   3.399  1.3885 -1.2239 -1.2853
 2141SOL    MW4 8610   4.277   4.652   3.350 -0.3419 -0.0358  0.2985
 2142SOL     OW 8611   4.066   0.075   3.511  0.1073  0.0448  0.4436
 2142SOL    HW2 8612   4.149   0.070   3.464  0.1750  0.4023  0.5194
 2142SOL    HW3 8613   4.000   0.044   3.449  0.4931 -1.8146  0.9239
 2142SOL    MW4 8614   4.068   0.070   3.497  0.1674 -0.1534  0.5171
 2143SOL     OW 8615   4.007   0.337   3.447 -0.4159 -0.2556 -0.0769
 2143SOL    HW2 8616   4.019   0.244   3.470  1.4681 -0.2486 -0.9244
 2143SOL    HW3 8617   4.022   0.340   3.353 -1.3249  0.7885 -0.1880
 2143SOL    MW4 8618   4.011   0.325   3.438 -0.2866 -0.1169 -0.2036
 2144SOL     OW 8619   4.246   0.448   3.496 -0.4190 -0.0391  0.2141
 2144SOL    HW2 8620   4.241   0.535   3.457 -0.3374 -0.0125  0.2636
 2144SOL    HW3 8621   4.164   0.406   3.471  0.2336 -0.5106 -1.1649
 2144SOL    MW4 8622   4.235   0.454   3.488 -0.3223 -0.0978  0.0386
 2145SOL     OW 8623   4.271   0.694   3.386  0.1475 -0.1998  0.1896
 2145SOL    HW2 8624   4.352   0.733   3.420 -0.0495  0.1002  0.3146
 2145SOL    HW3 8625   4.273   0.713   3.293 -0.4849  1.0761  0.4293
 2145SOL    MW4 8626   4.282   0.701   3.378  0.0377  0.0080  0.2377
 2146SOL     OW 8627   4.060   0.851   3.451  0.6061 -0.0573  0.2618
 2146SOL    HW2 8628   4.074   0.944   3.431  0.1733 -0.2026 -0.7109
 2146SOL    HW3 8629   4.146   0.811   3.436  0.9910  0.3130  1.4297
 2146SOL    MW4 8630   4.073   0.858   3.446  0.5999 -0.0277  0.2878
 2147SOL     OW 8631   4.097   1.142   3.426 -0.2258  0.0825 -0.4250
 2147SOL    HW2 8632   4.158   1.208   3.461 -1.1976  1.4289 -1.2336
 2147SOL    HW3 8633   4.011   1.171   3.456 -0.7003 -0.6404 -1.0713
 2147SOL    MW4 8634   4.094   1.155   3.435 -0.4163  0.1646 -0.6166
 2148SOL     OW 8635   4.338   1.274   3.538 -0.4029  0.1215  0.5182
 2148SOL    HW2 8636   4.338   1.344   3.472 -1.0756  0.2184  0.6198
 2148SOL    HW3 8637   4.384   1.202   3.495 -1.1410  0.0619 -0.1968
 2148SOL    MW4 8638   4.344   1.274   3.523 -0.5898  0.1265  0.4373
 2149SOL     OW 8639   4.307   1.468   3.346  0.1152  0.5278  0.1329
 2149SOL    HW2 8640   4.232   1.517   3.378  0.3005  2.0357 -1.6338
 2149SOL    HW3 8641   4.327   1.508   3.261  1.3230 -1.5285 -0.5738
 2149SOL    MW4 8642   4.300   1.480   3.339  0.2985  0.4555 -0.1934
 2150SOL     OW 8643   4.097   1.616   3.477 -0.1974  0.2115 -0.1548
 2150SOL    HW2 8644   4.095   1.626   3.572  0.3748  0.9916 -0.2229
 2150SOL    HW3 8645   4.087   1.705   3.443  1.3617  0.1419 -0.8148
 2150SOL    MW4 8646   4.095   1.629   3.485  0.0844  0.3054 -0.2508
 2151SOL     OW 8647   4.068   1.899   3.434  0.1084 -0.2791 -0.1983
 2151SOL    HW2 8648   4.137   1.952   3.474 -1.1129  1.7014 -0.6571
 2151SOL    HW3 8649   4.072   1.919   3.341 -0.5879 -0.7328 -0.3327
 2151SOL    MW4 8650   4.077   1.908   3.427 -0.1440 -0.0777 -0.2768
 2152SOL     OW 8651   4.291   2.036   3.535 -0.5362 -0.0992 -0.3586
 2152SOL    HW2 8652   4.294   2.122   3.494 -0.6876 -0.8534 -2.0282
 2152SOL    HW3 8653   4.364   1.988   3.495  0.0739 -0.4759  1.1929
 2152SOL    MW4 8654   4.301   2.041   3.524 -0.4764 -0.2482 -0.3741
 2153SOL     OW 8655   4.287   2.268   3.387 -0.3457  0.2409 -0.0497
 2153SOL    HW2 8656   4.211   2.327   3.386  0.6478  1.5287 -0.2195
 2153SOL    HW3 8657   4.308   2.254   3.295 -0.5112 -0.3140 -0.0079
 2153SOL    MW4 8658   4.280   2.273   3.375 -0.2360  0.3376 -0.0665
 2154SOL     OW 8659   4.071   2.442   3.480 -0.1375 -0.0082 -0.1155
 2154SOL    HW2 8660   4.076   2.435   3.576  1.6467  0.8439 -0.1178
 2154SOL    HW3 8661   4.089   2.534   3.462  0.6044 -0.3857 -1.3270
 2154SOL    MW4 8662   4.074   2.453   3.491  0.1955  0.0544 -0.2756
 2155SOL     OW 8663   4.081   2.723   3.358  0.0339  0.0765 -0.2450
 2155SOL    HW2 8664   4.142   2.778   3.407 -1.3711  2.2622 -0.8895
 2155SOL    HW3 8665   3.994   2.749   3.388 -0.7014 -1.3153 -1.0789
 2155SOL    MW4 8666   4.078   2.734   3.368 -0.2484  0.1810 -0.4401
 2156SOL     OW 8667   4.270   2.871   3.500  0.2625  0.0496 -0.3719
 2156SOL    HW2 8668   4.248   2.856   3.592 -1.0426  0.5872 -0.5752
 2156SOL    HW3 8669   4.361   2.844   3.492  0.6300  0.7354  1.2595
 2156SOL    MW4 8670   4.279   2.866   3.511  0.1388  0.2112 -0.1833
 2157SOL     OW 8671   4.288   3.126   3.379 -0.2461  0.4478 -0.4732
 2157SOL    HW2 8672   4.297   3.035   3.409  1.8802  1.4903  2.2603
 2157SOL    HW3 8673   4.282   3.119   3.284 -1.5185 -2.6391 -0.2213
 2157SOL    MW4 8674   4.288   3.113   3.370 -0.1335  0.1781 -0.0794
 2158SOL     OW 8675   4.050   3.188   3.496  0.3125 -0.4214 -0.0434
 2158SOL    HW2 8676   4.032   3.275   3.459  0.3067 -0.1656  0.5503
 2158SOL    HW3 8677   4.131   3.160   3.453 -0.4437 -0.7423 -1.2944
 2158SOL    MW4 8678   4.059   3.196   3.485  0.2122 -0.4301 -0.1302
 2159SOL     OW 8679   4.007   3.445   3.374 -0.5815  1.0728  0.7005
 2159SOL    HW2 8680   4.092   3.480   3.400  0.1426 -0.3178  0.2289
 2159SOL    HW3 8681   3.944   3.509   3.408  0.7183  2.9869 -0.3874
 2159SOL    MW4 8682   4.010   3.458   3.382 -0.3142  1.1420  0.4950
 2160SOL     OW 8683   4.240   3.607   3.473 -0.1988 -0.2678 -0.6744
 2160SOL    HW2 8684   4.243   3.623   3.568 -1.2209 -1.0810 -0.5103
 2160SOL    HW3 8685   4.254   3.694   3.434  1.5616 -0.1236  0.1983
 2160SOL    MW4 8686   4.242   3.621   3.480 -0.1016 -0.3562 -0.5374
 2161SOL     OW 8687   4.267   3.860   3.367 -0.2506  0.2065  0.1660
 2161SOL    HW2 8688   4.342   3.913   3.394 -1.0793  1.4676  0.0210
 2161SOL    HW3 8689   4.268   3.864   3.271  0.6913 -1.4755  0.0824
 2161SOL    MW4 8690   4.277   3.868   3.358 -0.2356  0.1509  0.1361
 2162SOL     OW 8691   4.048   4.026   3.478 -0.8445 -0.1588  0.3411
 2162SOL    HW2 8692   4.128   3.988   3.441 -0.7673 -0.5123  0.8635
 2162SOL    HW3 8693   3.977   3.984   3.430 -0.7016  0.6290 -0.5684
 2162SOL    MW4 8694   4.050   4.015   3.467 -0.8149 -0.1020  0.2902
 2163SOL     OW 8695   4.022   4.282   3.370 -0.2912 -0.0841  0.1103
 2163SOL    HW2 8696   4.013   4.197   3.411  0.2603  0.0277  0.4601
 2163SOL    HW3 8697   3.966   4.340   3.422  0.5822  0.1057  0.8444
 2163SOL    MW4 8698   4.013   4.279   3.382 -0.1035 -0.0448  0.2537
 2164SOL     OW 8699   4.272   4.389   3.428 -0.1136  0.3778 -0.0046
 2164SOL    HW2 8700   4.271   4.390   3.523 -1.1321  0.7892 -0.0158
 2164SOL    HW3 8701   4.192   4.343   3.403 -0.1733  0.8280 -0.6597
 2164SOL    MW4 8702   4.261   4.383   3.437 -0.2556  0.4916 -0.0925
 2165SOL     OW 8703   0.242   4.654   3.864  0.0643 -0.0848  0.1505
 2165SOL    HW2 8704   0.229   4.649   3.958 -0.3860  0.1104  0.1026
 2165SOL    HW3 8705   0.162   4.695   3.831 -0.1504 -0.9256 -0.4026
 2165SOL    MW4 8706   0.229   4.659   3.872 -0.0235 -0.1702  0.0713
 2166SOL     OW 8707   0.011   0.104   3.767 -0.4105 -0.0858 -0.0152
 2166SOL    HW2 8708   0.002   0.198   3.781 -0.6934 -0.3220  1.4810
 2166SOL    HW3 8709   0.016   0.094   3.672  1.1308  1.5708 -0.1439
 2166SOL    MW4 8710   0.011   0.115   3.757 -0.2445  0.1016  0.1652
 2167SOL     OW 8711   0.025   0.353   3.847  0.7693 -0.1501  0.0247
 2167SOL    HW2 8712  -0.051   0.405   3.820  0.2512 -1.3278 -0.8110
 2167SOL    HW3 8713   0.100   0.404   3.817  0.3125  0.8460  0.5339
 2167SOL    MW4 8714   0.025   0.366   3.839  0.6404 -0.1740 -0.0188
 2168SOL     OW 8715   0.236   0.501   3.739 -0.6270  0.2936  0.6428
 2168SOL    HW2 8716   0.229   0.589   3.774 -2.6443 -0.5463  2.4686
 2168SOL    HW3 8717   0.214   0.510   3.646  2.7620  2.2240 -0.0374
 2168SOL    MW4 8718   0.232   0.514   3.731 -0.4460  0.4375  0.7939
 2169SOL     OW 8719   0.228   0.754   3.848  0.1439  0.1299  0.0692
 2169SOL    HW2 8720   0.218   0.756   3.943  1.9557 -2.4955  0.3505
 2169SOL    HW3 8721   0.147   0.794   3.815 -2.1395 -2.1573  2.6290
 2169SOL    MW4 8722   0.216   0.760   3.856  0.0817 -0.5183  0.4442
 2170SOL     OW 8723   0.011   0.872   3.746  0.3326  0.0388  0.1994
 2170SOL    HW2 8724  -0.076   0.834   3.760 -0.4170  1.1967 -1.2251
 2170SOL    HW3 8725   0.008   0.957   3.788  0.3266  0.6407 -0.9921
 2170SOL    MW4 8726  -0.001   0.878   3.753  0.2332  0.2709 -0.1459
 2171SOL     OW 8727   0.002   1.125   3.877  0.3206 -0.5685  0.0357
 2171SOL    HW2 8728  -0.071   1.184   3.859  0.7394  0.0834  0.4238
 2171SOL    HW3 8729   0.078   1.170   3.841  0.3786 -1.7526 -1.3416
 2171SOL    MW4 8730   0.002   1.139   3.870  0.3834 -0.6388 -0.0949
 2172SOL     OW 8731   0.204   1.271   3.773  0.1995 -0.2249 -0.4737
 2172SOL    HW2 8732   0.212   1.364   3.793  0.1132 -0.5087  0.9244
 2172SOL    HW3 8733   0.210   1.266   3.678  1.6454  1.0601 -0.4623
 2172SOL    MW4 8734   0.206   1.283   3.763  0.3788 -0.0929 -0.2878
 2173SOL     OW 8735   0.245   1.529   3.845  0.0549 -0.2885  0.0312
 2173SOL    HW2 8736   0.236   1.513   3.939  0.6192 -0.5839  0.0357
 2173SOL    HW3 8737   0.158   1.559   3.817  0.5503  2.2797  1.1340
 2173SOL    MW4 8738   0.232   1.531   3.854  0.1947  0.0113  0.1774
 2174SOL     OW 8739   0.006   1.621   3.742  0.1979 -0.2349  0.1638
 2174SOL    HW2 8740   0.016   1.713   3.768  0.5549 -0.4639  0.8732
 2174SOL    HW3 8741   0.008   1.622   3.647 -0.5239  0.5745  0.1539
 2174SOL    MW4 8742   0.008   1.633   3.733  0.1502 -0.1583  0.2561
 2175SOL     OW 8743   0.058   1.881   3.857 -0.3945  0.7928  0.9684
 2175SOL    HW2 8744   0.055   1.862   3.950 -1.0906 -2.3033  0.3622
 2175SOL    HW3 8745  -0.025   1.925   3.838 -0.8680  0.1583  1.5502
 2175SOL    MW4 8746   0.047   1.885   3.866 -0.5488  0.3008  0.9654
 2176SOL     OW 8747   0.226   2.065   3.751 -0.0030  0.4963 -0.1554
 2176SOL    HW2 8748   0.215   2.155   3.782 -0.9468  0.2899  0.1347
 2176SOL    HW3 8749   0.168   2.013   3.807  1.1168 -0.4094  0.2005
 2176SOL    MW4 8750   0.217   2.070   3.762  0.0202  0.3498 -0.0701
 2177SOL     OW 8751   0.218   2.352   3.811  0.1852 -0.0673 -0.1233
 2177SOL    HW2 8752   0.233   2.327   3.902  0.6397  0.0570 -0.1614
 2177SOL    HW3 8753   0.131   2.391   3.811  0.5180  0.7029  0.4282
 2177SOL    MW4 8754   0.209   2.354   3.823  0.2891  0.0508 -0.0556
 2178SOL     OW 8755   4.475   2.454   3.770  0.8550  0.3434 -0.1238
 2178SOL    HW2 8756   4.415   2.400   3.822  1.6302 -0.6979 -0.3094
 2178SOL    HW3 8757   4.483   2.535   3.820  0.3910 -0.0588  0.6100
 2178SOL    MW4 8758   4.468   2.458   3.784  0.8969  0.1531 -0.0515
 2179SOL     OW 8759   0.022   2.673   3.912  0.2904  0.3037  0.3774
 2179SOL    HW2 8760   0.017   2.682   4.007  0.9398 -0.6188  0.5009
 2179SOL    HW3 8761   0.083   2.742   3.884  2.3209 -1.2264  0.9300
 2179SOL    MW4 8762   0.029   2.684   3.920  0.6440 -0.0200  0.4666
 2180SOL     OW 8763   0.219   2.833   3.806 -0.1212 -0.2406  0.4080
 2180SOL    HW2 8764   0.300   2.794   3.839 -0.4946 -1.0181  0.4296
 2180SOL    HW3 8765   0.218   2.810   3.713 -0.9256 -1.3189  0.6694
 2180SOL    MW4 8766   0.229   2.825   3.798 -0.2766 -0.4857  0.4451
 2181SOL     OW 8767   0.258   3.104   3.822  0.1560  0.3189 -0.2472
 2181SOL    HW2 8768   0.264   3.115   3.916 -0.0117  1.3886 -0.3599
 2181SOL    HW3 8769   0.239   3.011   3.810  0.3070  0.1555  0.7630
 2181SOL    MW4 8770   0.256   3.093   3.833  0.1538  0.4385 -0.1287
 2182SOL     OW 8771   0.015   3.229   3.780 -0.0711 -0.4579  0.2235
 2182SOL    HW2 8772   0.104   3.203   3.804 -0.1602 -1.0567 -0.0702
 2182SOL    HW3 8773   0.016   3.231   3.684 -0.4870 -0.8802  0.2096
 2182SOL    MW4 8774   0.027   3.226   3.770 -0.1377 -0.5925  0.1829
 2183SOL     OW 8775   0.002   3.513   3.801 -0.4154  0.1281 -0.1019
 2183SOL    HW2 8776   0.085   3.550   3.770  0.5275 -0.1475  1.9794
 2183SOL    HW3 8777   0.012   3.419   3.791 -0.2411  0.0599  0.6649
 2183SOL    MW4 8778   0.014   3.506   3.796 -0.2680  0.0830  0.2739
 2184SOL     OW 8779   0.247   3.636   3.742 -0.2399 -0.7911 -0.3141
 2184SOL    HW2 8780   0.320   3.583   3.773 -0.2825 -0.5205  0.2441
 2184SOL    HW3 8781   0.262   3.722   3.780 -1.0089 -0.8139  0.0324
 2184SOL    MW4 8782   0.259   3.640   3.751 -0.3470 -0.7586 -0.1948
 2185SOL     OW 8783   0.250   3.897   3.837  0.1047 -0.6025 -0.9180
 2185SOL    HW2 8784   0.266   3.885   3.931 -0.2717 -0.1733 -0.7957
 2185SOL    HW3 8785   0.329   3.940   3.804 -0.3979  0.6619 -0.4962
 2185SOL    MW4 8786   0.263   3.901   3.845 -0.0113 -0.3788 -0.8464
 2186SOL     OW 8787   0.004   4.013   3.754  0.4536  0.1081  0.6981
 2186SOL    HW2 8788  -0.077   3.971   3.786  0.3336 -0.6977 -0.6434
 2186SOL    HW3 8789   0.074   3.965   3.799  0.2513 -0.5033  0.3761
 2186SOL    MW4 8790   0.002   4.001   3.764  0.4110 -0.0787  0.4787
 2187SOL     OW 8791   0.003   4.271   3.781 -0.2333  0.3922  0.2440
 2187SOL    HW2 8792   0.086   4.306   3.748 -0.7561  1.8651  0.4162
 2187SOL    HW3 8793   0.012   4.176   3.776  1.2745  0.5515 -0.1983
 2187SOL    MW4 8794   0.015   4.263   3.776 -0.1033  0.6075  0.2084
 2188SOL     OW 8795   0.262   4.397   3.753 -0.0124  0.1936 -0.5036
 2188SOL    HW2 8796   0.325   4.341   3.799  0.6254  0.5225 -0.9622
 2188SOL    HW3 8797   0.269   4.482   3.796 -1.8302 -0.3621  0.9645
 2188SOL    MW4 8798   0.271   4.400   3.765 -0.1680  0.1640 -0.3705
 2189SOL     OW 8799   0.662   4.665   3.892  0.1616  0.0614  0.2189
 2189SOL    HW2 8800   0.660   4.591   3.832  0.2326  1.2680 -1.3062
 2189SOL    HW3 8801   0.592   4.723   3.861  1.4966  1.6348  0.0543
 2189SOL    MW4 8802   0.653   4.663   3.880  0.3471  0.4277 -0.0038
 2190SOL     OW 8803   0.457   0.125   3.756 -0.0167  0.2088  0.0261
 2190SOL    HW2 8804   0.440   0.215   3.783 -0.3435  0.2312 -0.2607
 2190SOL    HW3 8805   0.386   0.074   3.795  0.4301  0.0065  0.5825
 2190SOL    MW4 8806   0.446   0.130   3.765 -0.0008  0.1851  0.0618
 2191SOL     OW 8807   0.449   0.388   3.874  0.0297  0.3498  0.0605
 2191SOL    HW2 8808   0.523   0.445   3.854 -1.7123  1.9427 -2.0727
 2191SOL    HW3 8809   0.375   0.426   3.826 -1.9323 -1.8233  1.2455
 2191SOL    MW4 8810   0.449   0.400   3.865 -0.4590  0.2732 -0.0646
 2192SOL     OW 8811   0.689   0.504   3.772  0.7486 -0.5942 -0.4753
 2192SOL    HW2 8812   0.763   0.464   3.818  0.4960 -1.9476 -1.2218
 2192SOL    HW3 8813   0.689   0.595   3.802  2.7468 -0.5601 -0.5111
 2192SOL    MW4 8814   0.699   0.511   3.782  0.9788 -0.7682 -0.5784
 2193SOL     OW 8815   0.666   0.770   3.852  0.2744 -0.2814  0.2747
 2193SOL    HW2 8816   0.740   0.822   3.819  0.4868 -1.6593 -1.4466
 2193SOL    HW3 8817   0.591   0.800   3.800  0.1724 -0.9047  0.0676
 2193SOL    MW4 8818   0.666   0.781   3.841  0.2889 -0.5454  0.0203
 2194SOL     OW 8819   0.438   0.862   3.729 -0.0238 -0.6303 -0.3997
 2194SOL    HW2 8820   0.442   0.953   3.760  0.5961 -0.4856 -0.8826
 2194SOL    HW3 8821   0.362   0.825   3.773  0.3327 -0.1837  0.6178
 2194SOL    MW4 8822   0.429   0.869   3.739  0.1050 -0.5523 -0.3293
 2195SOL     OW 8823   0.435   1.136   3.809 -0.4262 -0.5867 -0.1214
 2195SOL    HW2 8824   0.501   1.190   3.765  1.7542 -1.3322  2.1097
 2195SOL    HW3 8825   0.357   1.191   3.811  1.2014  1.7927  0.4227
 2195SOL    MW4 8826   0.433   1.151   3.803  0.0762 -0.3711  0.2449
 2196SOL     OW 8827   0.627   1.324   3.721  0.0618  0.0082 -0.1605
 2196SOL    HW2 8828   0.705   1.284   3.759  0.3648  0.3052 -0.4519
 2196SOL    HW3 8829   0.641   1.318   3.626 -0.4426 -0.2687 -0.2173
 2196SOL    MW4 8830   0.639   1.318   3.713  0.0352  0.0108 -0.2065
 2197SOL     OW 8831   0.669   1.541   3.878 -0.3082  0.2866  0.0570
 2197SOL    HW2 8832   0.745   1.582   3.837  0.2875  0.8157  1.6816
 2197SOL    HW3 8833   0.643   1.472   3.817 -0.0428  1.7036 -1.7038
 2197SOL    MW4 8834   0.676   1.538   3.864 -0.1946  0.5434  0.0391
 2198SOL     OW 8835   0.450   1.691   3.774  0.2023  0.2380  0.3460
 2198SOL    HW2 8836   0.518   1.624   3.779  0.1434  0.1935  0.5498
 2198SOL    HW3 8837   0.371   1.648   3.808  0.4675  0.8075  1.7427
 2198SOL    MW4 8838   0.448   1.676   3.779  0.2296  0.3072  0.5569
 2199SOL     OW 8839   0.460   1.957   3.862  0.3961 -0.0785  0.2727
 2199SOL    HW2 8840   0.466   1.864   3.843  0.8287  0.0891 -0.4770
 2199SOL    HW3 8841   0.385   1.987   3.812  1.1624  0.2506 -0.7072
 2199SOL    MW4 8842   0.451   1.949   3.853  0.5543 -0.0129  0.0446
 2200SOL     OW 8843   0.701   2.075   3.750  0.2699 -0.0493 -0.2582
 2200SOL    HW2 8844   0.678   2.166   3.767 -1.6425 -0.3835 -0.8924
 2200SOL    HW3 8845   0.624   2.025   3.777  0.7420 -1.3531 -1.2269
 2200SOL    MW4 8846   0.688   2.080   3.756  0.0798 -0.2654 -0.4694
 2201SOL     OW 8847   0.666   2.334   3.860 -0.1757  0.1334 -0.1779
 2201SOL    HW2 8848   0.741   2.384   3.828 -0.3870  1.1363  0.8190
 2201SOL    HW3 8849   0.591   2.372   3.814  0.0056 -1.5379 -1.9250
 2201SOL    MW4 8850   0.666   2.346   3.850 -0.1796  0.0451 -0.2768
 2202SOL     OW 8851   0.457   2.462   3.729  0.5197  0.0629 -0.1615
 2202SOL    HW2 8852   0.370   2.442   3.765  1.1060 -2.1969  0.0683
 2202SOL    HW3 8853   0.445   2.451   3.634  0.5887 -0.4698 -0.1134
 2202SOL    MW4 8854   0.444   2.458   3.721  0.6061 -0.3059 -0.1249
 2203SOL     OW 8855   0.468   2.706   3.865 -0.1572 -0.0174 -0.2531
 2203SOL    HW2 8856   0.546   2.746   3.828 -0.7377  0.9021 -0.5159
 2203SOL    HW3 8857   0.465   2.618   3.827 -0.4962  0.7482 -2.0614
 2203SOL    MW4 8858   0.478   2.700   3.855 -0.2785  0.2050 -0.5264
 2204SOL     OW 8859   0.671   2.857   3.749 -0.1521 -0.4566 -0.1567
 2204SOL    HW2 8860   0.756   2.845   3.792  0.2049 -0.1589 -0.7772
 2204SOL    HW3 8861   0.686   2.834   3.658 -1.0465 -1.6060 -0.0298
 2204SOL    MW4 8862   0.684   2.852   3.743 -0.2230 -0.5691 -0.2217
 2205SOL     OW 8863   0.702   3.125   3.820 -0.2746  0.1415  0.5071
 2205SOL    HW2 8864   0.684   3.122   3.914 -0.3626 -0.3864  0.4728
 2205SOL    HW3 8865   0.674   3.040   3.788  0.7052 -0.0533  0.1687
 2205SOL    MW4 8866   0.696   3.114   3.828 -0.1569  0.0463  0.4578
 2206SOL     OW 8867   0.470   3.256   3.740  0.3016  0.1732  0.3061
 2206SOL    HW2 8868   0.555   3.217   3.760  0.1763 -0.4945 -0.4380
 2206SOL    HW3 8869   0.407   3.191   3.769 -0.0748  1.9585  3.7146
 2206SOL    MW4 8870   0.473   3.242   3.747  0.2354  0.3207  0.6576
 2207SOL     OW 8871   0.462   3.511   3.874  0.2593 -0.0648 -0.0460
 2207SOL    HW2 8872   0.544   3.546   3.840  1.0236 -1.4137  0.3621
 2207SOL    HW3 8873   0.458   3.422   3.839  0.3448 -0.9802  2.1565
 2207SOL    MW4 8874   0.472   3.504   3.865  0.3715 -0.3636  0.2985
 2208SOL     OW 8875   0.678   3.596   3.726 -0.3856 -0.3841 -0.0303
 2208SOL    HW2 8876   0.688   3.684   3.764  1.4267 -0.9888  0.9586
 2208SOL    HW3 8877   0.659   3.612   3.634  2.6905  1.0619 -0.4739
 2208SOL    MW4 8878   0.677   3.610   3.719  0.2593 -0.2730  0.0415
 2209SOL     OW 8879   0.723   3.852   3.838 -0.4265 -0.2010  0.3184
 2209SOL    HW2 8880   0.728   3.866   3.933 -0.1859 -0.8446  0.4086
 2209SOL    HW3 8881   0.781   3.919   3.801 -0.6171  0.1315  0.6200
 2209SOL    MW4 8882   0.731   3.863   3.846 -0.4200 -0.2420  0.3703
 2210SOL     OW 8883   0.492   3.981   3.775 -0.3855  0.1510 -0.3331
 2210SOL    HW2 8884   0.575   3.935   3.787  0.7308  2.2337  0.1369
 2210SOL    HW3 8885   0.483   3.989   3.680  1.1948  2.0308 -0.3702
 2210SOL    MW4 8886   0.502   3.976   3.764 -0.0297  0.6738 -0.2759
 2211SOL     OW 8887   0.462   4.257   3.882 -0.0239 -0.4937 -0.0619
 2211SOL    HW2 8888   0.530   4.314   3.847  0.2559 -0.6889  0.1676
 2211SOL    HW3 8889   0.486   4.169   3.853 -0.9803 -0.3838 -1.2405
 2211SOL    MW4 8890   0.474   4.253   3.874 -0.1132 -0.5045 -0.1869
 2212SOL     OW 8891   0.663   4.425   3.755 -0.4098  0.1962  0.3239
 2212SOL    HW2 8892   0.742   4.380   3.785  0.1943  1.1834  0.2265
 2212SOL    HW3 8893   0.658   4.405   3.661  1.0128  2.0334 -0.1624
 2212SOL    MW4 8894   0.673   4.416   3.747 -0.1425  0.5689  0.2470
 2213SOL     OW 8895   1.087   0.002   3.866 -0.1347  0.2630  0.0690
 2213SOL    HW2 8896   1.161   0.044   3.822 -1.1890  0.8714 -1.1669
 2213SOL    HW3 8897   1.092  -0.090   3.838  0.3226  0.2323  0.2367
 2213SOL    MW4 8898   1.098  -0.005   3.856 -0.2135  0.3393 -0.0722
 2214SOL     OW 8899   0.874   0.141   3.766  0.3771 -1.2793  0.3226
 2214SOL    HW2 8900   0.944   0.090   3.808 -0.8768 -3.0479  0.3120
 2214SOL    HW3 8901   0.793   0.101   3.798 -0.6226 -0.1668 -0.7762
 2214SOL    MW4 8902   0.873   0.129   3.776  0.0798 -1.3658  0.1762
 2215SOL     OW 8903   0.908   0.392   3.877  0.3807  0.2076 -0.1982
 2215SOL    HW2 8904   0.923   0.371   3.969 -0.5052  0.4618  0.0049
 2215SOL    HW3 8905   0.914   0.308   3.832  0.3848  0.0222  0.1461
 2215SOL    MW4 8906   0.911   0.379   3.883  0.2643  0.2167 -0.1259
 2216SOL     OW 8907   1.130   0.538   3.753 -0.2949  0.3105  0.1390
 2216SOL    HW2 8908   1.196   0.473   3.776 -0.4873  0.0329 -0.0879
 2216SOL    HW3 8909   1.052   0.511   3.802 -0.1242  0.8653  0.7175
 2216SOL    MW4 8910   1.128   0.526   3.763 -0.2978  0.3470  0.1855
 2217SOL     OW 8911   1.116   0.787   3.862 -0.1154 -0.1129 -0.1653
 2217SOL    HW2 8912   1.111   0.780   3.957 -2.8622 -0.5120 -0.3035
 2217SOL    HW3 8913   1.139   0.699   3.832  1.1006  0.0928  0.1072
 2217SOL    MW4 8914   1.119   0.775   3.870 -0.3175 -0.1385 -0.1476
 2218SOL     OW 8915   0.881   0.943   3.751 -0.5867 -0.0017 -0.2779
 2218SOL    HW2 8916   0.967   0.904   3.771 -1.2222 -1.0713  0.4029
 2218SOL    HW3 8917   0.876   0.941   3.656 -0.2293 -0.7614 -0.2890
 2218SOL    MW4 8918   0.892   0.938   3.741 -0.6234 -0.2430 -0.1895
 2219SOL     OW 8919   0.869   1.217   3.838  0.1355  0.2573 -0.2014
 2219SOL    HW2 8920   0.879   1.229   3.933 -0.0688  0.3120 -0.1886
 2219SOL    HW3 8921   0.853   1.124   3.827  0.2074  0.2427 -0.1871
 2219SOL    MW4 8922   0.868   1.207   3.849  0.1181  0.2625 -0.1976
 2220SOL     OW 8923   1.102   1.305   3.717  0.1529 -0.2937 -0.6960
 2220SOL    HW2 8924   1.103   1.393   3.754  0.9549  0.1286 -1.6735
 2220SOL    HW3 8925   1.023   1.264   3.752  1.3363 -0.2309  2.1824
 2220SOL    MW4 8926   1.092   1.311   3.727  0.4148 -0.2296 -0.4451
 2221SOL     OW 8927   1.136   1.566   3.832 -0.4413  0.5151  0.2874
 2221SOL    HW2 8928   1.137   1.593   3.924 -0.4972  1.6283 -0.0305
 2221SOL    HW3 8929   1.216   1.603   3.795 -0.1012 -0.4639  0.0306
 2221SOL    MW4 8930   1.147   1.575   3.840 -0.4039  0.5327  0.2117
 2222SOL     OW 8931   0.892   1.685   3.755 -0.2870 -0.4925 -0.3026
 2222SOL    HW2 8932   0.969   1.638   3.787 -1.0937 -1.2966  0.4821
 2222SOL    HW3 8933   0.894   1.671   3.660  0.2286 -0.9731 -0.2239
 2222SOL    MW4 8934   0.902   1.677   3.747 -0.3253 -0.6621 -0.1888
 2223SOL     OW 8935   0.942   1.938   3.837  0.5581  0.2027  0.3839
 2223SOL    HW2 8936   0.922   1.854   3.797  0.1816  0.5746 -0.2214
 2223SOL    HW3 8937   0.872   1.997   3.807 -0.3974  0.2164  2.5048
 2223SOL    MW4 8938   0.930   1.935   3.828  0.3824  0.2534  0.5836
 2224SOL     OW 8939   1.171   2.064   3.744 -0.4116 -0.2639  0.5366
 2224SOL    HW2 8940   1.094   2.016   3.776 -0.2390 -0.8857  0.0258
 2224SOL    HW3 8941   1.160   2.066   3.649 -0.2064  0.3580  0.5259
 2224SOL    MW4 8942   1.159   2.058   3.736 -0.3617 -0.2637  0.4675
 2225SOL     OW 8943   1.135   2.347   3.857  0.5101  0.4027  0.1770
 2225SOL    HW2 8944   1.112   2.344   3.950  0.7162  0.8775  0.2482
 2225SOL    HW3 8945   1.140   2.256   3.830 -0.7379  0.2889  0.3319
 2225SOL    MW4 8946   1.133   2.335   3.866  0.3724  0.4504  0.2069
 2226SOL     OW 8947   0.899   2.453   3.752 -0.2507  0.1484  0.3523
 2226SOL    HW2 8948   0.900   2.545   3.779  0.5958  0.0107  0.8087
 2226SOL    HW3 8949   0.980   2.417   3.787 -0.4337 -0.7014 -0.0877
 2226SOL    MW4 8950   0.909   2.460   3.761 -0.1631  0.0181  0.3545
 2227SOL     OW 8951   0.925   2.726   3.829  0.1487  0.7982  0.5087
 2227SOL    HW2 8952   0.927   2.717   3.924  0.0381  0.2452  0.4584
 2227SOL    HW3 8953   1.015   2.746   3.804  0.0963  1.3704  0.7708
 2227SOL    MW4 8954   0.937   2.727   3.838  0.1272  0.8006  0.5364
 2228SOL     OW 8955   1.177   2.792   3.724 -0.1690 -0.1699 -0.0178
 2228SOL    HW2 8956   1.253   2.753   3.768  1.2268  1.5055 -0.8978
 2228SOL    HW3 8957   1.167   2.878   3.766 -1.2828 -0.1718 -0.2635
 2228SOL    MW4 8958   1.186   2.798   3.736 -0.1317  0.0508 -0.1662
 2229SOL     OW 8959   1.146   3.043   3.850  0.9618  0.2343  0.2668
 2229SOL    HW2 8960   1.221   3.102   3.844  0.5844  0.6533 -0.4768
 2229SOL    HW3 8961   1.071   3.098   3.827  0.5011 -0.3270  0.4164
 2229SOL    MW4 8962   1.146   3.058   3.846  0.8512  0.2158  0.1884
 2230SOL     OW 8963   0.937   3.227   3.723 -0.0365  0.0240  0.1994
 2230SOL    HW2 8964   0.857   3.182   3.753 -1.0864  0.7635 -1.4245
 2230SOL    HW3 8965   0.926   3.234   3.628  1.1841  1.6716  0.1687
 2230SOL    MW4 8966   0.925   3.222   3.715 -0.0141  0.3388 -0.0188
 2231SOL     OW 8967   0.903   3.477   3.836 -0.0482  0.2148  0.2819
 2231SOL    HW2 8968   0.918   3.390   3.799  0.5908  0.2249  0.5100
 2231SOL    HW3 8969   0.830   3.512   3.785  0.2859 -0.0923 -0.4215
 2231SOL    MW4 8970   0.896   3.470   3.825  0.0802  0.1760  0.2191
 2232SOL     OW 8971   1.150   3.610   3.752 -0.1772  0.3768 -0.0729
 2232SOL    HW2 8972   1.147   3.700   3.785  1.2301  0.2956  0.3275
 2232SOL    HW3 8973   1.067   3.571   3.780 -0.7409  1.5246 -0.1603
 2232SOL    MW4 8974   1.139   3.616   3.760 -0.0659  0.5176 -0.0315
 2233SOL     OW 8975   1.110   3.865   3.823 -0.0866  0.3880  0.4515
 2233SOL    HW2 8976   1.104   3.876   3.918  0.3224  1.3418  0.3723
 2233SOL    HW3 8977   1.190   3.912   3.798  0.9000 -1.5665 -0.1078
 2233SOL    MW4 8978   1.120   3.873   3.832  0.0976  0.2558  0.3674
 2234SOL     OW 8979   0.904   4.011   3.707 -0.1457 -0.4177 -0.0038
 2234SOL    HW2 8980   0.975   3.955   3.739 -0.5352 -0.3358  1.0344
 2234SOL    HW3 8981   0.899   3.993   3.614  0.6514 -1.0883  0.0788
 2234SOL    MW4 8982   0.913   4.001   3.699 -0.0919 -0.4954  0.1442
 2235SOL     OW 8983   0.866   4.265   3.845 -0.3658  0.1183 -0.1717
 2235SOL    HW2 8984   0.874   4.231   3.935  2.4128  1.4186  0.1136
 2235SOL    HW3 8985   0.877   4.188   3.790  0.1424 -0.3479  0.5685
 2235SOL    MW4 8986   0.868   4.250   3.850  0.0678  0.2284 -0.0365
 2236SOL     OW 8987   1.115   4.420   3.774 -0.1347 -0.3144  0.3872
 2236SOL    HW2 8988   1.047   4.356   3.795 -1.2848  0.6878 -0.2135
 2236SOL    HW3 8989   1.119   4.419   3.678  0.1752  0.1697  0.3979
 2236SOL    MW4 8990   1.107   4.411   3.764 -0.2455 -0.1178  0.3092
 2237SOL     OW 8991   1.538   4.667   3.872 -0.4905 -0.7636  0.0569
 2237SOL    HW2 8992   1.552   4.658   3.967  0.7015 -0.3109 -0.0688
 2237SOL    HW3 8993   1.554   4.579   3.838  0.9846 -0.5099  0.0572
 2237SOL    MW4 8994   1.542   4.654   3.880 -0.1386 -0.6703  0.0405
 2238SOL     OW 8995   1.310   0.109   3.735  0.0430 -0.2909  0.8542
 2238SOL    HW2 8996   1.318   0.201   3.761 -0.7152 -0.0668  0.3091
 2238SOL    HW3 8997   1.372   0.063   3.792  0.2445  0.5205  1.3057
 2238SOL    MW4 8998   1.320   0.115   3.746 -0.0305 -0.1543  0.8419
 2239SOL     OW 8999   1.338   0.387   3.849  0.3242 -0.0005  0.0169
 2239SOL    HW2 9000   1.342   0.366   3.942 -0.7381  0.9945  0.2954
 2239SOL    HW3 9001   1.420   0.432   3.831 -0.4851  1.9509  1.0314
 2239SOL    MW4 9002   1.349   0.390   3.859  0.0772  0.3882  0.1874
 2240SOL     OW 9003   1.565   0.544   3.756  0.6991  0.5115  0.1255
 2240SOL    HW2 9004   1.643   0.504   3.794  1.0147  1.3374  0.3711
 2240SOL    HW3 9005   1.564   0.632   3.793 -0.9478  0.1480  0.9615
 2240SOL    MW4 9006   1.575   0.550   3.766  0.5236  0.5726  0.2682
 2241SOL     OW 9007   1.563   0.772   3.914 -0.0526 -0.3751  0.0194
 2241SOL    HW2 9008   1.641   0.808   3.873  0.4351  0.2824  1.4767
 2241SOL    HW3 9009   1.490   0.820   3.875  0.4148  0.3427  0.0284
 2241SOL    MW4 9010   1.563   0.783   3.904  0.0734 -0.1937  0.2129
 2242SOL     OW 9011   1.343   0.934   3.772  0.0675  0.1608 -0.1206
 2242SOL    HW2 9012   1.337   1.024   3.806 -2.1346 -0.2268  0.5993
 2242SOL    HW3 9013   1.264   0.891   3.805  0.9525 -1.9665 -0.7137
 2242SOL    MW4 9014   1.332   0.940   3.781 -0.1062 -0.1710 -0.1040
 2243SOL     OW 9015   1.326   1.197   3.870 -0.1492  0.5558 -0.1554
 2243SOL    HW2 9016   1.419   1.213   3.856 -0.0417  1.3158  1.2900
 2243SOL    HW3 9017   1.282   1.257   3.809  0.3170  0.6896 -0.3595
 2243SOL    MW4 9018   1.332   1.207   3.860 -0.0736  0.6737  0.0081
 2244SOL     OW 9019   1.577   1.271   3.740  0.1853  0.1199 -0.2908
 2244SOL    HW2 9020   1.651   1.226   3.781 -0.1697  0.4092  0.6833
 2244SOL    HW3 9021   1.572   1.355   3.785 -1.8081 -0.5996  0.8714
 2244SOL    MW4 9022   1.586   1.276   3.751 -0.1247  0.0632 -0.0091
 2245SOL     OW 9023   1.588   1.534   3.840  0.2574 -0.1283  0.2404
 2245SOL    HW2 9024   1.580   1.535   3.936  0.4921  1.8266  0.2567
 2245SOL    HW3 9025   1.672   1.575   3.822 -0.2943  0.5465 -0.8556
 2245SOL    MW4 9026   1.598   1.539   3.850  0.2156  0.2187  0.0980
 2246SOL     OW 9027   1.375   1.652   3.718  0.3934  0.1504 -0.0288
 2246SOL    HW2 9028   1.380   1.741   3.752  2.0594 -0.1086  0.4520
 2246SOL    HW3 9029   1.447   1.606   3.761 -0.7194 -1.5524  0.0595
 2246SOL    MW4 9030   1.385   1.658   3.728  0.4665 -0.1086  0.0460
 2247SOL     OW 9031   1.391   1.903   3.803 -0.0284 -1.0531  0.2468
 2247SOL    HW2 9032   1.392   1.919   3.897  0.5633  1.4268 -0.1471
 2247SOL    HW3 9033   1.317   1.955   3.770  0.7970 -0.5559 -0.8607
 2247SOL    MW4 9034   1.381   1.912   3.811  0.1585 -0.6602  0.0486
 2248SOL     OW 9035   1.604   2.078   3.751  0.3737  0.3836  0.2693
 2248SOL    HW2 9036   1.532   2.016   3.764  0.0100  0.9774  1.1545
 2248SOL    HW3 9037   1.614   2.084   3.656 -0.8811  0.4460  0.1326
 2248SOL    MW4 9038   1.595   2.070   3.740  0.1602  0.4704  0.3679
 2249SOL     OW 9039   1.570   2.327   3.849 -0.1041 -0.0128  0.5325
 2249SOL    HW2 9040   1.650   2.366   3.814  0.4682  0.2867  2.1440
 2249SOL    HW3 9041   1.574   2.235   3.821 -0.0675  0.3984 -0.8606
 2249SOL    MW4 9042   1.581   2.320   3.841 -0.0237  0.0811  0.5612
 2250SOL     OW 9043   1.364   2.462   3.730  0.1431 -0.0271 -0.2484
 2250SOL    HW2 9044   1.432   2.408   3.770  0.7740 -0.1016 -1.4214
 2250SOL    HW3 9045   1.282   2.425   3.763  0.6322 -0.5272  0.4194
 2250SOL    MW4 9046   1.362   2.450   3.740  0.2909 -0.1028 -0.3152
 2251SOL     OW 9047   1.377   2.683   3.885  0.1163 -0.2605  0.1433
 2251SOL    HW2 9048   1.391   2.661   3.977 -0.1371  0.2415  0.3042
 2251SOL    HW3 9049   1.368   2.599   3.841  1.1042 -0.5314  0.4359
 2251SOL    MW4 9050   1.378   2.669   3.891  0.2130 -0.2301  0.2031
 2252SOL     OW 9051   1.584   2.844   3.741  0.0063  0.2827 -0.1498
 2252SOL    HW2 9052   1.520   2.797   3.795  1.0144  1.6828  2.3405
 2252SOL    HW3 9053   1.559   2.823   3.651 -1.9874 -1.7789  0.8244
 2252SOL    MW4 9054   1.572   2.835   3.736 -0.1237  0.1955  0.3073
 2253SOL     OW 9055   1.610   3.106   3.886 -0.2552  0.0820 -0.1448
 2253SOL    HW2 9056   1.611   3.087   3.980  2.1080 -2.1057 -0.5487
 2253SOL    HW3 9057   1.606   3.020   3.845  1.6630  0.8793 -2.0633
 2253SOL    MW4 9058   1.610   3.092   3.893  0.3097 -0.1016 -0.4513
 2254SOL     OW 9059   1.355   3.223   3.835 -0.0276  0.7516 -0.6974
 2254SOL    HW2 9060   1.345   3.305   3.883 -0.0209 -0.2278  1.0171
 2254SOL    HW3 9061   1.444   3.193   3.855 -0.2931 -0.0514 -0.6676
 2254SOL    MW4 9062   1.365   3.230   3.844 -0.0618  0.5164 -0.4671
 2255SOL     OW 9063   1.368   3.489   3.898 -0.6056 -0.4982  0.2977
 2255SOL    HW2 9064   1.438   3.535   3.852 -1.2037 -0.2623 -0.3988
 2255SOL    HW3 9065   1.288   3.519   3.855 -1.1185 -0.9321  0.9371
 2255SOL    MW4 9066   1.366   3.499   3.886 -0.7523 -0.5240  0.2902
 2256SOL     OW 9067   1.557   3.608   3.734  0.1235 -0.1976  0.0633
 2256SOL    HW2 9068   1.624   3.564   3.786 -0.8042 -0.8209  0.7338
 2256SOL    HW3 9069   1.548   3.695   3.775 -0.1479 -0.4557  0.5570
 2256SOL    MW4 9070   1.565   3.614   3.747 -0.0346 -0.3140  0.2172
 2257SOL     OW 9071   1.546   3.869   3.829  0.1538 -0.2179  0.1981
 2257SOL    HW2 9072   1.558   3.863   3.924  0.6316 -0.8671  0.1072
 2257SOL    HW3 9073   1.484   3.941   3.817 -0.1829 -0.3582  1.0199
 2257SOL    MW4 9074   1.540   3.878   3.840  0.1724 -0.3221  0.2944
 2258SOL     OW 9075   1.335   4.036   3.753  0.0268 -0.0875 -0.5943
 2258SOL    HW2 9076   1.327   4.125   3.786  0.9912 -0.2015 -0.0299
 2258SOL    HW3 9077   1.353   4.046   3.660  1.1915  0.3510 -0.3370
 2258SOL    MW4 9078   1.337   4.049   3.745  0.3078 -0.0448 -0.4859
 2259SOL     OW 9079   1.346   4.293   3.881  0.2863  0.2794 -0.1529
 2259SOL    HW2 9080   1.410   4.323   3.817 -1.1779  1.7972 -0.9245
 2259SOL    HW3 9081   1.265   4.337   3.857 -0.2082  1.1885  2.9674
 2259SOL    MW4 9082   1.344   4.302   3.870  0.0279  0.5994  0.1571
 2260SOL     OW 9083   1.553   4.412   3.736 -0.0337 -0.2720 -0.0459
 2260SOL    HW2 9084   1.627   4.364   3.774 -0.7726 -0.8458  0.6971
 2260SOL    HW3 9085   1.570   4.411   3.642  0.4701 -1.1413  0.0453
 2260SOL    MW4 9086   1.565   4.406   3.729 -0.0647 -0.4625  0.0639
 2261SOL     OW 9087   2.006   0.038   3.836 -0.0140 -0.3035 -0.1922
 2261SOL    HW2 9088   2.081   0.082   3.796  1.1099 -0.7373  1.3556
 2261SOL    HW3 9089   2.020  -0.055   3.818 -0.7100 -0.3010 -0.7475
 2261SOL    MW4 9090   2.018   0.032   3.829  0.0422 -0.3600 -0.0613
 2262SOL     OW 9091   1.770   0.139   3.756 -0.3834  0.0092 -0.0781
 2262SOL    HW2 9092   1.852   0.093   3.776 -0.0878 -0.1997 -1.6808
 2262SOL    HW3 9093   1.702   0.088   3.800  0.2905 -0.0891  0.8636
 2262SOL    MW4 9094   1.772   0.126   3.764 -0.2553 -0.0313 -0.1652
 2263SOL     OW 9095   1.794   0.412   3.865  0.0950  0.2644  0.1028
 2263SOL    HW2 9096   1.815   0.413   3.958 -1.2937  0.6876  0.4332
 2263SOL    HW3 9097   1.784   0.320   3.844 -0.6680  0.2169  0.6420
 2263SOL    MW4 9098   1.795   0.400   3.874 -0.1889  0.3140  0.2174
 2264SOL     OW 9099   2.023   0.525   3.771 -0.4053 -0.3844  0.1225
 2264SOL    HW2 9100   1.946   0.477   3.801 -0.4275 -1.2843 -1.3747
 2264SOL    HW3 9101   2.021   0.519   3.676  0.5042  1.1758 -0.0291
 2264SOL    MW4 9102   2.012   0.518   3.763 -0.2882 -0.2972 -0.0951
 2265SOL     OW 9103   2.035   0.793   3.836  0.3074  0.1978 -0.3647
 2265SOL    HW2 9104   2.024   0.784   3.931  0.4397  1.1196 -0.2555
 2265SOL    HW3 9105   2.027   0.704   3.802 -1.3871  0.0664  0.3323
 2265SOL    MW4 9106   2.033   0.780   3.844  0.1016  0.3020 -0.2584
 2266SOL     OW 9107   1.766   0.875   3.769  0.4315 -0.4069 -0.4258
 2266SOL    HW2 9108   1.853   0.840   3.789  0.2146 -0.3649  0.6495
 2266SOL    HW3 9109   1.754   0.858   3.676  1.7258 -0.1032 -0.6498
 2266SOL    MW4 9110   1.776   0.868   3.760  0.5736 -0.3613 -0.3135
 2267SOL     OW 9111   1.804   1.136   3.856 -0.5132 -0.7413  0.1797
 2267SOL    HW2 9112   1.799   1.132   3.951  0.8648 -1.5731  0.2310
 2267SOL    HW3 9113   1.790   1.045   3.828 -0.2416 -0.6104 -0.3825
 2267SOL    MW4 9114   1.801   1.123   3.865 -0.2955 -0.8337  0.1121
 2268SOL     OW 9115   2.021   1.260   3.724 -0.3992 -0.2836  0.1611
 2268SOL    HW2 9116   2.109   1.246   3.759  0.3304  1.1144 -1.0139
 2268SOL    HW3 9117   1.965   1.200   3.773  1.0887 -0.6526  1.4540
 2268SOL    MW4 9118   2.025   1.250   3.735 -0.1070 -0.1477  0.1767
 2269SOL     OW 9119   2.033   1.492   3.870  0.2137  0.1999  0.4462
 2269SOL    HW2 9120   1.953   1.545   3.864 -0.2502 -0.2687  2.1376
 2269SOL    HW3 9121   2.014   1.414   3.817 -0.4700  0.0766  0.8642
 2269SOL    MW4 9122   2.020   1.488   3.862  0.0622  0.1220  0.7243
 2270SOL     OW 9123   1.835   1.664   3.773 -0.9359  0.4048 -0.1447
 2270SOL    HW2 9124   1.818   1.757   3.792  0.2493  0.5179  0.4225
 2270SOL    HW3 9125   1.829   1.657   3.678 -1.9272  0.8752 -0.1236
 2270SOL    MW4 9126   1.832   1.676   3.763 -0.9104  0.4817 -0.0675
 2271SOL     OW 9127   1.793   1.911   3.861  0.0167 -0.4232 -0.6828
 2271SOL    HW2 9128   1.789   1.913   3.956  0.9879  0.1971 -0.6416
 2271SOL    HW3 9129   1.726   1.973   3.832 -0.7094 -1.0807 -0.4244
 2271SOL    MW4 9130   1.784   1.919   3.869  0.0490 -0.4282 -0.6433
 2272SOL     OW 9131   2.040   2.043   3.788  0.0569 -0.0238  0.2963
 2272SOL    HW2 9132   1.958   2.006   3.821 -0.3532  0.8412  0.2511
 2272SOL    HW3 9133   2.029   2.044   3.693 -0.7024  1.9923  0.3945
 2272SOL    MW4 9134   2.028   2.038   3.780 -0.0973  0.3562  0.3033
 2273SOL     OW 9135   2.037   2.300   3.889  0.0914  0.2117  0.3482
 2273SOL    HW2 9136   1.958   2.344   3.856  1.0595  1.1100 -0.8265
 2273SOL    HW3 9137   2.032   2.211   3.854 -1.1051 -0.1576  1.4476
 2273SOL    MW4 9138   2.026   2.294   3.880  0.0610  0.2813  0.3383
 2274SOL     OW 9139   1.813   2.430   3.768  0.3300 -0.1493 -0.1049
 2274SOL    HW2 9140   1.824   2.519   3.802  1.0438 -0.3269  0.1277
 2274SOL    HW3 9141   1.820   2.439   3.673 -1.3851  0.3073 -0.2176
 2274SOL    MW4 9142   1.815   2.443   3.760  0.1979 -0.1123 -0.0894
 2275SOL     OW 9143   1.801   2.702   3.825  0.1843  0.4558 -0.2309
 2275SOL    HW2 9144   1.776   2.711   3.917 -0.4713 -0.0877 -0.3547
 2275SOL    HW3 9145   1.727   2.740   3.777 -0.1377 -0.6218 -0.5840
 2275SOL    MW4 9146   1.788   2.708   3.831  0.0552  0.2420 -0.2937
 2276SOL     OW 9147   2.015   2.868   3.727 -0.2348  0.0495 -0.0418
 2276SOL    HW2 9148   2.087   2.824   3.771  0.4865  0.7274 -0.5368
 2276SOL    HW3 9149   1.936   2.824   3.760  0.3687 -0.3416  0.8912
 2276SOL    MW4 9150   2.014   2.856   3.737 -0.0601  0.0873  0.0162
 2277SOL     OW 9151   1.988   3.116   3.855 -0.5709 -0.2514  0.0132
 2277SOL    HW2 9152   2.069   3.153   3.820 -0.6711  0.6224  0.6858
 2277SOL    HW3 9153   1.982   3.028   3.816 -0.9370  0.8692 -2.5294
 2277SOL    MW4 9154   1.998   3.109   3.845 -0.6322  0.0119 -0.2337
 2278SOL     OW 9155   1.801   3.226   3.711  0.1008  0.0974 -0.6197
 2278SOL    HW2 9156   1.875   3.203   3.768  0.6653  1.3440 -0.8291
 2278SOL    HW3 9157   1.728   3.174   3.745  0.8263 -0.4051  0.2165
 2278SOL    MW4 9158   1.801   3.216   3.723  0.2710  0.1957 -0.5369
 2279SOL     OW 9159   1.747   3.480   3.867  0.3879  0.5003 -0.2518
 2279SOL    HW2 9160   1.833   3.505   3.833  0.0835  0.8045 -0.7890
 2279SOL    HW3 9161   1.729   3.395   3.826 -0.0106  0.9000 -0.9216
 2279SOL    MW4 9162   1.756   3.472   3.857  0.2952  0.5934 -0.4113
 2280SOL     OW 9163   1.998   3.576   3.752  0.0985  0.5347  0.1772
 2280SOL    HW2 9164   2.081   3.564   3.797 -0.0236 -0.5200  0.1201
 2280SOL    HW3 9165   2.022   3.604   3.664  0.4621 -1.7113 -0.4689
 2280SOL    MW4 9166   2.012   3.578   3.746  0.1304  0.0992  0.0844
 2281SOL     OW 9167   1.991   3.840   3.832 -0.2752  0.2498  0.1930
 2281SOL    HW2 9168   2.073   3.875   3.797  0.8753 -0.5225  2.0344
 2281SOL    HW3 9169   1.988   3.749   3.800 -0.8451  0.5369 -0.5793
 2281SOL    MW4 9170   2.001   3.832   3.823 -0.1986  0.1857  0.3340
 2282SOL     OW 9171   1.777   4.016   3.746  0.0604 -0.4153  0.3516
 2282SOL    HW2 9172   1.856   3.967   3.769  0.5843  0.7230  1.0211
 2282SOL    HW3 9173   1.704   3.961   3.777  0.6366 -0.7376  1.1537
 2282SOL    MW4 9174   1.778   4.002   3.753  0.2055 -0.3076  0.5460
 2283SOL     OW 9175   1.787   4.280   3.838  0.3387 -0.6346  0.5553
 2283SOL    HW2 9176   1.866   4.332   3.824 -0.1593 -0.0551 -0.1903
 2283SOL    HW3 9177   1.810   4.192   3.810  0.7764 -0.5107  0.5294
 2283SOL    MW4 9178   1.800   4.275   3.833  0.3307 -0.5422  0.4537
 2284SOL     OW 9179   2.041   4.422   3.794 -0.3375  0.7455 -0.4121
 2284SOL    HW2 9180   2.112   4.360   3.812  1.0606  2.4865  0.3051
 2284SOL    HW3 9181   2.035   4.425   3.699 -0.4781 -0.5276 -0.4543
 2284SOL    MW4 9182   2.050   4.414   3.784 -0.1717  0.8068 -0.3228
 2285SOL     OW 9183   2.484   0.025   3.826 -0.2591  0.1444  0.5939
 2285SOL    HW2 9184   2.470   0.003   3.918  0.7248  1.0361  0.9699
 2285SOL    HW3 9185   2.567   0.073   3.825 -1.0582  1.5536 -0.5457
 2285SOL    MW4 9186   2.493   0.029   3.838 -0.2346  0.4478  0.4930
 2286SOL     OW 9187   2.244   0.127   3.753 -0.0516  0.3408  0.1109
 2286SOL    HW2 9188   2.326   0.093   3.787  0.3995 -0.0856 -1.3483
 2286SOL    HW3 9189   2.247   0.107   3.659 -1.3798  1.1997 -0.1293
 2286SOL    MW4 9190   2.255   0.120   3.745 -0.1671  0.3978 -0.1135
 2287SOL     OW 9191   2.255   0.384   3.874 -0.0061  0.3549 -0.3848
 2287SOL    HW2 9192   2.247   0.297   3.837 -0.6158 -0.0044  0.5817
 2287SOL    HW3 9193   2.175   0.429   3.846  0.8752  1.0189 -1.9289
 2287SOL    MW4 9194   2.243   0.379   3.865  0.0298  0.3951 -0.4609
 2288SOL     OW 9195   2.477   0.522   3.758 -0.4607 -0.3789  0.0918
 2288SOL    HW2 9196   2.388   0.488   3.772 -0.3325 -0.9047 -0.3826
 2288SOL    HW3 9197   2.483   0.534   3.663 -0.0361 -0.2965  0.1317
 2288SOL    MW4 9198   2.466   0.519   3.747 -0.3877 -0.4374  0.0346
 2289SOL     OW 9199   2.480   0.782   3.857 -0.0639  0.7387  0.1618
 2289SOL    HW2 9200   2.410   0.831   3.816 -0.7331  0.2473  0.7075
 2289SOL    HW3 9201   2.462   0.690   3.835  0.2794  0.5915  0.4789
 2289SOL    MW4 9202   2.469   0.776   3.849 -0.1068  0.6544  0.2759
 2290SOL     OW 9203   2.273   0.916   3.740  0.4174  0.0151 -0.0160
 2290SOL    HW2 9204   2.201   0.859   3.767 -0.2958  1.1967  0.6287
 2290SOL    HW3 9205   2.266   0.919   3.644  0.2169 -0.6683 -0.0229
 2290SOL    MW4 9206   2.262   0.909   3.731  0.2968  0.0808  0.0682
 2291SOL     OW 9207   2.264   1.178   3.841  0.0340 -0.3892 -0.1262
 2291SOL    HW2 9208   2.219   1.165   3.924 -2.3187  0.5566 -1.1792
 2291SOL    HW3 9209   2.266   1.091   3.801  0.8728 -0.7829  0.7576
 2291SOL    MW4 9210   2.258   1.165   3.846 -0.1655 -0.3165 -0.1485
 2292SOL     OW 9211   2.521   1.320   3.783  0.3193  0.0635 -0.0918
 2292SOL    HW2 9212   2.509   1.415   3.785 -0.5463 -0.0124 -1.5358
 2292SOL    HW3 9213   2.454   1.287   3.842  0.7733  0.3574  0.5975
 2292SOL    MW4 9214   2.511   1.328   3.791  0.2649  0.0923 -0.1915
 2293SOL     OW 9215   2.456   1.581   3.832 -0.0712  0.4581 -0.5955
 2293SOL    HW2 9216   2.519   1.623   3.774 -0.5996  1.3581 -0.5189
 2293SOL    HW3 9217   2.371   1.615   3.804 -0.3341  0.8927  0.6954
 2293SOL    MW4 9218   2.453   1.591   3.821 -0.1755  0.6342 -0.4151
 2294SOL     OW 9219   2.214   1.672   3.726 -0.3712 -0.2848 -0.0985
 2294SOL    HW2 9220   2.231   1.757   3.767  0.8308  0.0967 -1.3565
 2294SOL    HW3 9221   2.139   1.637   3.775 -0.3815  1.1379  0.9517
 2294SOL    MW4 9222   2.206   1.679   3.738 -0.2139 -0.0467 -0.1259
 2295SOL     OW 9223   2.272   1.920   3.850 -0.3976 -0.4113 -0.4476
 2295SOL    HW2 9224   2.295   1.947   3.939  0.7105  0.1605 -0.9117
 2295SOL    HW3 9225   2.187   1.961   3.834 -0.8682 -0.9648  0.5402
 2295SOL    MW4 9226   2.264   1.929   3.860 -0.3133 -0.4088 -0.3786
 2296SOL     OW 9227   2.469   2.091   3.724 -0.0869  0.5129  0.0159
 2296SOL    HW2 9228   2.459   2.168   3.779 -0.9995 -0.3347  1.0518
 2296SOL    HW3 9229   2.394   2.036   3.745 -0.8168  0.4545 -2.5496
 2296SOL    MW4 9230   2.458   2.094   3.734 -0.3037  0.3932 -0.1857
 2297SOL     OW 9231   2.451   2.341   3.845  0.0810 -0.0327 -0.3534
 2297SOL    HW2 9232   2.517   2.393   3.800 -1.3669 -0.2859 -2.8816
 2297SOL    HW3 9233   2.368   2.376   3.812 -0.9764 -1.4371  0.7798
 2297SOL    MW4 9234   2.448   2.353   3.834 -0.2494 -0.2513 -0.5374
 2298SOL     OW 9235   2.236   2.455   3.734  0.4658  0.5045  0.2855
 2298SOL    HW2 9236   2.157   2.411   3.766  0.6537 -0.6276 -0.8023
 2298SOL    HW3 9237   2.235   2.442   3.640  0.9800  2.1160  0.0423
 2298SOL    MW4 9238   2.226   2.447   3.726  0.5581  0.5679  0.1099
 2299SOL     OW 9239   2.266   2.735   3.802 -0.1088 -0.1075 -0.2350
 2299SOL    HW2 9240   2.284   2.731   3.896  2.2647  0.1688 -0.6512
 2299SOL    HW3 9241   2.250   2.645   3.777 -0.1897 -0.2550  0.3223
 2299SOL    MW4 9242   2.266   2.723   3.811  0.1936 -0.0906 -0.2167
 2300SOL     OW 9243   2.498   2.831   3.701  0.2654  0.0769 -0.3323
 2300SOL    HW2 9244   2.416   2.796   3.735  0.8688 -1.2787 -0.2395
 2300SOL    HW3 9245   2.489   2.824   3.606  0.0786  0.3984 -0.3399
 2300SOL    MW4 9246   2.486   2.826   3.693  0.3204 -0.0596 -0.3207
 2301SOL     OW 9247   2.485   3.122   3.847 -0.4267  0.3227 -0.1119
 2301SOL    HW2 9248   2.492   3.127   3.942 -0.6656  0.4044 -0.1004
 2301SOL    HW3 9249   2.489   3.029   3.827  0.0173  0.3257 -0.0497
 2301SOL    MW4 9250   2.487   3.110   3.857 -0.3996  0.3340 -0.1023
 2302SOL     OW 9251   2.239   3.221   3.779  0.4251  0.6339  0.5669
 2302SOL    HW2 9252   2.242   3.316   3.793  0.0597  0.8252 -0.5954
 2302SOL    HW3 9253   2.324   3.189   3.810  1.3277  1.5926 -0.8638
 2302SOL    MW4 9254   2.250   3.229   3.785  0.4959  0.7856  0.2244
 2303SOL     OW 9255   2.264   3.490   3.850 -0.2003  0.2350 -0.0313
 2303SOL    HW2 9256   2.268   3.497   3.945 -2.3673  2.5544 -0.0621
 2303SOL    HW3 9257   2.343   3.535   3.820  2.0723 -3.0787  0.6734
 2303SOL    MW4 9258   2.275   3.497   3.859 -0.1867  0.1037  0.0577
 2304SOL     OW 9259   2.496   3.638   3.756 -0.0461  0.1387  0.3806
 2304SOL    HW2 9260   2.577   3.600   3.790 -0.4336 -0.0211  1.1226
 2304SOL    HW3 9261   2.506   3.634   3.660  0.8175  0.1184  0.4697
 2304SOL    MW4 9262   2.508   3.632   3.748  0.0167  0.1154  0.4904
 2305SOL     OW 9263   2.459   3.886   3.848  0.3717  0.1281  0.2792
 2305SOL    HW2 9264   2.530   3.933   3.806  0.7024  0.9494  1.7481
 2305SOL    HW3 9265   2.473   3.795   3.823  1.0449  0.4828 -0.6872
 2305SOL    MW4 9266   2.470   3.880   3.839  0.5040  0.2832  0.3455
 2306SOL     OW 9267   2.205   3.992   3.777  0.6469 -0.5466  0.3853
 2306SOL    HW2 9268   2.283   3.945   3.807  0.6736 -0.5415  0.3236
 2306SOL    HW3 9269   2.220   4.008   3.684  0.5627 -0.5663  0.3675
 2306SOL    MW4 9270   2.217   3.988   3.769  0.6397 -0.5484  0.3748
 2307SOL     OW 9271   2.263   4.257   3.834 -0.2775 -0.0495 -0.3962
 2307SOL    HW2 9272   2.262   4.238   3.927 -0.3623  1.9010  0.0093
 2307SOL    HW3 9273   2.232   4.176   3.793  1.8845 -1.7215  1.0890
 2307SOL    MW4 9274   2.259   4.243   3.841 -0.0033 -0.0129 -0.1466
 2308SOL     OW 9275   2.483   4.403   3.711 -0.1323  0.5584  0.3114
 2308SOL    HW2 9276   2.407   4.355   3.744  0.5248 -0.1562  0.7928
 2308SOL    HW3 9277   2.470   4.493   3.740 -0.4298  0.2850  1.0222
 2308SOL    MW4 9278   2.471   4.409   3.719 -0.0849  0.4277  0.4687
 2309SOL     OW 9279   2.925   4.640   3.860  0.0036  0.1442 -0.0420
 2309SOL    HW2 9280   2.913   4.669   3.950 -0.7345 -0.4486  0.0522
 2309SOL    HW3 9281   3.005   4.684   3.831  0.9111 -0.6051  1.2925
 2309SOL    MW4 9282   2.934   4.649   3.868  0.0260 -0.0324  0.1466
 2310SOL     OW 9283   2.736   0.142   3.749 -0.3824 -0.5257 -0.0846
 2310SOL    HW2 9284   2.798   0.081   3.789 -0.6831 -0.9426 -0.2450
 2310SOL    HW3 9285   2.740   0.122   3.655  1.5527  1.5650 -0.4922
 2310SOL    MW4 9286   2.744   0.131   3.742 -0.1664 -0.3048 -0.1597
 2311SOL     OW 9287   2.706   0.388   3.835  0.2869 -0.3470  0.3553
 2311SOL    HW2 9288   2.714   0.303   3.791 -2.3972 -1.1568  1.3543
 2311SOL    HW3 9289   2.625   0.425   3.800  1.8837  2.2392 -0.7394
 2311SOL    MW4 9290   2.696   0.382   3.824  0.1435 -0.1126  0.3424
 2312SOL     OW 9291   2.926   0.525   3.761  0.0759 -0.1194  0.1055
 2312SOL    HW2 9292   2.995   0.470   3.797  1.0146  1.3829  0.6711
 2312SOL    HW3 9293   2.844   0.481   3.784  0.7792 -0.7420  1.4309
 2312SOL    MW4 9294   2.924   0.512   3.769  0.2928 -0.0033  0.3550
 2313SOL     OW 9295   2.932   0.759   3.909 -0.3924 -0.2268  0.5972
 2313SOL    HW2 9296   2.980   0.826   3.862 -0.8819 -0.3064 -0.0254
 2313SOL    HW3 9297   2.931   0.684   3.850 -0.7680 -0.4231  0.8472
 2313SOL    MW4 9298   2.938   0.758   3.895 -0.5066 -0.2632  0.5481
 2314SOL     OW 9299   2.722   0.900   3.779 -0.3065  0.1186  0.0290
 2314SOL    HW2 9300   2.791   0.849   3.821  0.0559  0.9430  0.4510
 2314SOL    HW3 9301   2.641   0.865   3.816 -0.1757 -1.4343 -1.1131
 2314SOL    MW4 9302   2.720   0.889   3.790 -0.2415  0.0225 -0.0660
 2315SOL     OW 9303   2.725   1.162   3.897  0.0299 -0.0706 -0.2867
 2315SOL    HW2 9304   2.716   1.077   3.855 -0.5498 -0.0037 -0.3071
 2315SOL    HW3 9305   2.653   1.215   3.861  0.1157  0.2862  0.0565
 2315SOL    MW4 9306   2.714   1.158   3.887 -0.0350 -0.0147 -0.2441
 2316SOL     OW 9307   2.923   1.307   3.747 -0.2000  0.4236 -0.3593
 2316SOL    HW2 9308   2.906   1.397   3.772 -0.9322  0.6380 -1.5959
 2316SOL    HW3 9309   2.866   1.255   3.803  0.9153  0.6698  1.0101
 2316SOL    MW4 9310   2.913   1.312   3.757 -0.1495  0.4843 -0.3417
 2317SOL     OW 9311   2.876   1.569   3.812 -0.2799 -0.3926  0.3353
 2317SOL    HW2 9312   2.885   1.568   3.907  1.9968 -3.5662  0.1807
 2317SOL    HW3 9313   2.963   1.593   3.779 -0.7777 -0.3066 -0.9593
 2317SOL    MW4 9314   2.889   1.572   3.820 -0.0453 -0.8000  0.1440
 2318SOL     OW 9315   2.666   1.713   3.708  0.1424  0.6701 -0.2497
 2318SOL    HW2 9316   2.735   1.663   3.751 -0.0929 -0.3493 -1.0133
 2318SOL    HW3 9317   2.692   1.715   3.616 -0.2193  1.3358 -0.3374
 2318SOL    MW4 9318   2.678   1.707   3.701  0.0637  0.6235 -0.3617
 2319SOL     OW 9319   2.666   1.946   3.851 -0.4372 -0.0717  0.0855
 2319SOL    HW2 9320   2.656   1.865   3.801  1.7964  0.6438 -1.5928
 2319SOL    HW3 9321   2.597   2.003   3.816 -1.4105 -0.8939  0.6153
 2319SOL    MW4 9322   2.655   1.943   3.840 -0.2708 -0.0857 -0.0660
 2320SOL     OW 9323   2.887   2.091   3.723 -0.1999 -0.3217  0.3675
 2320SOL    HW2 9324   2.888   2.178   3.763  0.3678 -0.5553  0.8596
 2320SOL    HW3 9325   2.798   2.058   3.740 -0.0692 -0.2868  1.1584
 2320SOL    MW4 9326   2.875   2.098   3.731 -0.1075 -0.3479  0.5372
 2321SOL     OW 9327   2.934   2.325   3.850  0.1133  0.1023 -0.3815
 2321SOL    HW2 9328   2.959   2.332   3.942 -1.8700  1.3072  0.0870
 2321SOL    HW3 9329   3.010   2.358   3.802  0.7780  0.3953  0.8667
 2321SOL    MW4 9330   2.947   2.330   3.856 -0.0608  0.2999 -0.1552
 2322SOL     OW 9331   2.696   2.442   3.745 -0.0888 -0.0892  0.3076
 2322SOL    HW2 9332   2.703   2.537   3.760  0.0902  0.1783 -1.4207
 2322SOL    HW3 9333   2.764   2.404   3.800 -0.8620  0.6822  1.8547
 2322SOL    MW4 9334   2.706   2.450   3.754 -0.1674  0.0479  0.2837
 2323SOL     OW 9335   2.725   2.716   3.807  0.1132 -0.2629 -0.3065
 2323SOL    HW2 9336   2.740   2.733   3.900 -0.7030  0.0735 -0.2283
 2323SOL    HW3 9337   2.650   2.771   3.785  0.1390 -0.5418 -1.1022
 2323SOL    MW4 9338   2.717   2.726   3.816  0.0088 -0.2553 -0.4013
 2324SOL     OW 9339   2.948   2.829   3.688 -0.5292 -0.4090  0.2360
 2324SOL    HW2 9340   2.932   2.920   3.712 -1.3708  0.1413 -2.2391
 2324SOL    HW3 9341   2.868   2.783   3.714  0.2313 -0.6396  2.2677
 2324SOL    MW4 9342   2.935   2.835   3.694 -0.5398 -0.3672  0.1774
 2325SOL     OW 9343   2.933   3.099   3.784 -0.2336 -0.3059 -0.1120
 2325SOL    HW2 9344   3.006   3.149   3.748  0.2256 -1.8499 -1.3328
 2325SOL    HW3 9345   2.855   3.140   3.745  0.0614  0.3905  0.0299
 2325SOL    MW4 9346   2.932   3.111   3.774 -0.1340 -0.4175 -0.2542
 2326SOL     OW 9347   2.690   3.225   3.692  0.4913  0.6871 -0.1962
 2326SOL    HW2 9348   2.705   3.310   3.732 -1.1374  0.8019  0.2135
 2326SOL    HW3 9349   2.617   3.187   3.742 -0.8883  0.3813 -2.3525
 2326SOL    MW4 9350   2.682   3.231   3.704  0.0947  0.6618 -0.4268
 2327SOL     OW 9351   2.731   3.485   3.818 -0.3480  0.0317 -0.0639
 2327SOL    HW2 9352   2.727   3.507   3.911 -1.9107  2.8474 -0.7373
 2327SOL    HW3 9353   2.800   3.542   3.784 -0.2927 -0.4557 -0.7659
 2327SOL    MW4 9354   2.740   3.495   3.826 -0.5472  0.3388 -0.2453
 2328SOL     OW 9355   2.953   3.645   3.734 -0.3579 -0.4748 -0.0849
 2328SOL    HW2 9356   3.011   3.579   3.773 -0.7695  0.0677  1.5083
 2328SOL    HW3 9357   2.959   3.630   3.640  1.1521 -1.4369  0.1441
 2328SOL    MW4 9358   2.961   3.634   3.727 -0.2134 -0.5302  0.1557
 2329SOL     OW 9359   2.931   3.901   3.852 -0.0219  0.5859  0.3066
 2329SOL    HW2 9360   2.958   3.887   3.942  1.0059 -0.9122 -0.2082
 2329SOL    HW3 9361   2.925   3.813   3.815 -0.8503  1.1559 -0.9677
 2329SOL    MW4 9362   2.934   3.887   3.859  0.0045  0.4635  0.0701
 2330SOL     OW 9363   2.685   4.001   3.755  0.0065  0.3203 -0.4891
 2330SOL    HW2 9364   2.670   4.089   3.791 -1.1553  0.2501 -0.7751
 2330SOL    HW3 9365   2.774   3.979   3.781 -0.7242  0.3424  2.1515
 2330SOL    MW4 9366   2.695   4.010   3.763 -0.2429  0.3142 -0.1786
 2331SOL     OW 9367   2.687   4.266   3.843  0.6879  0.3275  0.0760
 2331SOL    HW2 9368   2.774   4.292   3.813  0.8002  1.0786  1.0237
 2331SOL    HW3 9369   2.627   4.323   3.794  0.6653 -0.8151 -1.2507
 2331SOL    MW4 9370   2.691   4.277   3.833  0.6998  0.2761  0.0260
 2332SOL     OW 9371   2.919   4.371   3.774  0.0788 -0.5555 -0.5863
 2332SOL    HW2 9372   2.998   4.332   3.811  0.3374  0.8439  0.3510
 2332SOL    HW3 9373   2.929   4.465   3.788 -2.0226 -0.3988  0.0710
 2332SOL    MW4 9374   2.931   4.378   3.780 -0.1645 -0.3500 -0.3757
 2333SOL     OW 9375   3.381   4.664   3.865  0.4388  0.5802 -0.2731
 2333SOL    HW2 9376   3.367   4.692   3.956  0.3601 -0.5672  0.0815
 2333SOL    HW3 9377   3.469   4.695   3.844  0.6751  0.3763  0.3905
 2333SOL    MW4 9378   3.391   4.671   3.874  0.4599  0.4025 -0.1388
 2334SOL     OW 9379   3.145   0.123   3.775 -0.1178 -0.5213 -0.5833
 2334SOL    HW2 9380   3.227   0.090   3.811  0.1733  1.5041  0.6857
 2334SOL    HW3 9381   3.158   0.122   3.680  1.6314  0.3829 -0.3793
 2334SOL    MW4 9382   3.157   0.119   3.767  0.1514 -0.1348 -0.3893
 2335SOL     OW 9383   3.126   0.380   3.862  0.2479  0.1756  0.0705
 2335SOL    HW2 9384   3.133   0.378   3.957  0.1458  0.8692  0.0930
 2335SOL    HW3 9385   3.137   0.289   3.835 -0.3147 -0.1055  0.7847
 2335SOL    MW4 9386   3.128   0.368   3.871  0.1600  0.2300  0.1674
 2336SOL     OW 9387   3.346   0.506   3.778  0.0336 -0.0000 -0.0800
 2336SOL    HW2 9388   3.413   0.453   3.822  0.4243 -0.1703 -0.8691
 2336SOL    HW3 9389   3.264   0.460   3.795  0.1707 -0.0248  0.5292
 2336SOL    MW4 9390   3.344   0.493   3.786  0.1032 -0.0258 -0.1035
 2337SOL     OW 9391   3.354   0.756   3.874 -0.1158 -0.3910  0.1104
 2337SOL    HW2 9392   3.354   0.739   3.969  1.7562 -1.9373 -0.1501
 2337SOL    HW3 9393   3.355   0.669   3.835  0.8393  0.2627 -1.3279
 2337SOL    MW4 9394   3.354   0.742   3.882  0.2573 -0.5088 -0.1137
 2338SOL     OW 9395   3.126   0.915   3.797  0.2106  0.3425  0.3151
 2338SOL    HW2 9396   3.192   0.853   3.828  0.3618  0.1052 -0.4726
 2338SOL    HW3 9397   3.135   0.915   3.702 -1.9469 -0.8242  0.0793
 2338SOL    MW4 9398   3.136   0.907   3.788 -0.0539  0.1573  0.1800
 2339SOL     OW 9399   3.117   1.173   3.886 -0.7346  0.9753 -0.0076
 2339SOL    HW2 9400   3.126   1.085   3.849  0.5646  1.7725 -1.6593
 2339SOL    HW3 9401   3.047   1.213   3.834 -0.7301  1.2117  0.1728
 2339SOL    MW4 9402   3.109   1.166   3.874 -0.5627  1.1116 -0.2017
 2340SOL     OW 9403   3.357   1.286   3.806  0.6185  0.0040  0.1382
 2340SOL    HW2 9404   3.274   1.272   3.852  1.1513 -0.0091  1.1139
 2340SOL    HW3 9405   3.340   1.259   3.716 -0.1737 -0.8801  0.5449
 2340SOL    MW4 9406   3.344   1.281   3.800  0.5841 -0.1146  0.3204
 2341SOL     OW 9407   3.365   1.555   3.853  0.2113  0.1859 -0.2575
 2341SOL    HW2 9408   3.282   1.599   3.839 -0.3327 -0.8457 -0.3341
 2341SOL    HW3 9409   3.351   1.466   3.819  1.4913  0.1505 -0.7215
 2341SOL    MW4 9410   3.352   1.549   3.847  0.3088  0.0452 -0.3285
 2342SOL     OW 9411   3.130   1.683   3.743 -0.0206  0.0756 -0.0937
 2342SOL    HW2 9412   3.120   1.775   3.767 -0.0373  0.1324 -0.3155
 2342SOL    HW3 9413   3.149   1.684   3.649 -1.2799 -0.2130 -0.3583
 2342SOL    MW4 9414   3.131   1.695   3.734 -0.1888  0.0451 -0.1583
 2343SOL     OW 9415   3.125   1.966   3.821  0.2118 -0.7109  0.5667
 2343SOL    HW2 9416   3.139   1.953   3.915  0.3931  1.4441  0.8533
 2343SOL    HW3 9417   3.039   2.009   3.815 -0.0604 -1.3505 -0.3046
 2343SOL    MW4 9418   3.115   1.970   3.833  0.1998 -0.5109  0.4895
 2344SOL     OW 9419   3.379   2.090   3.728 -0.3317 -0.0236 -0.6324
 2344SOL    HW2 9420   3.297   2.042   3.743 -0.6691  0.9264  0.7563
 2344SOL    HW3 9421   3.399   2.076   3.636 -0.9460 -1.9876 -0.5011
 2344SOL    MW4 9422   3.371   2.082   3.718 -0.4568 -0.1574 -0.4323
 2345SOL     OW 9423   3.402   2.309   3.881  0.1320 -0.2391  0.1771
 2345SOL    HW2 9424   3.329   2.360   3.846  0.2808 -0.7193 -0.8507
 2345SOL    HW3 9425   3.406   2.232   3.825  0.1327 -1.2104  1.5070
 2345SOL    MW4 9426   3.393   2.306   3.869  0.1519 -0.4306  0.2170
 2346SOL     OW 9427   3.167   2.419   3.755  0.1067  0.4675 -0.3915
 2346SOL    HW2 9428   3.168   2.513   3.772 -0.0106  0.5367 -0.7591
 2346SOL    HW3 9429   3.162   2.412   3.659  1.0756  0.0858 -0.4213
 2346SOL    MW4 9430   3.167   2.431   3.744  0.2191  0.4263 -0.4442
 2347SOL     OW 9431   3.162   2.693   3.825  0.3381  0.1944 -0.2577
 2347SOL    HW2 9432   3.151   2.708   3.919  0.4810  0.5157 -0.2939
 2347SOL    HW3 9433   3.111   2.763   3.784  0.5592  0.2583 -0.4216
 2347SOL    MW4 9434   3.154   2.704   3.832  0.3862  0.2453 -0.2842
 2348SOL     OW 9435   3.414   2.748   3.734  0.5543 -0.0547 -0.0950
 2348SOL    HW2 9436   3.328   2.729   3.771  0.9082  0.8638  1.2446
 2348SOL    HW3 9437   3.396   2.779   3.646 -0.4512 -0.3862 -0.0150
 2348SOL    MW4 9438   3.400   2.750   3.727  0.4683  0.0226  0.0923
 2349SOL     OW 9439   3.378   3.017   3.821  0.2532 -0.1264  0.0185
 2349SOL    HW2 9440   3.459   3.067   3.818  1.2395 -1.6559  0.7042
 2349SOL    HW3 9441   3.405   2.926   3.815 -1.3311 -0.7168  1.2615
 2349SOL    MW4 9442   3.392   3.012   3.820  0.1743 -0.4063  0.2730
 2350SOL     OW 9443   3.187   3.233   3.730  0.4318 -0.3524 -0.2777
 2350SOL    HW2 9444   3.244   3.160   3.753 -0.4530 -1.2573 -0.8970
 2350SOL    HW3 9445   3.173   3.223   3.636 -2.1177 -1.1318  0.1674
 2350SOL    MW4 9446   3.193   3.222   3.720 -0.0212 -0.5744 -0.3009
 2351SOL     OW 9447   3.156   3.492   3.835 -0.4898 -0.0849  0.0890
 2351SOL    HW2 9448   3.235   3.528   3.794 -2.1236  1.2595 -2.0172
 2351SOL    HW3 9449   3.156   3.399   3.810 -1.3347  0.6565 -2.8999
 2351SOL    MW4 9450   3.167   3.484   3.826 -0.8171  0.1903 -0.5832
 2352SOL     OW 9451   3.395   3.631   3.758 -0.0993  0.2237  0.2716
 2352SOL    HW2 9452   3.379   3.718   3.796  0.0028  0.9795 -1.3575
 2352SOL    HW3 9453   3.408   3.648   3.665  0.3763 -1.5038  0.0065
 2352SOL    MW4 9454   3.395   3.645   3.751 -0.0234  0.0956  0.0219
 2353SOL     OW 9455   3.374   3.903   3.843 -0.0083 -0.1411 -0.3768
 2353SOL    HW2 9456   3.455   3.934   3.804 -0.7058  2.1320 -0.1397
 2353SOL    HW3 9457   3.305   3.943   3.789 -0.9763 -1.7581 -0.3715
 2353SOL    MW4 9458   3.375   3.913   3.831 -0.2282 -0.0546 -0.3450
 2354SOL     OW 9459   3.152   4.050   3.737 -0.5564  0.2935 -0.2035
 2354SOL    HW2 9460   3.182   4.123   3.791 -1.9726  0.7740 -0.0533
 2354SOL    HW3 9461   3.089   4.004   3.792  0.5437 -1.2257 -0.1875
 2354SOL    MW4 9462   3.148   4.054   3.751 -0.5980  0.1569 -0.1814
 2355SOL     OW 9463   3.140   4.282   3.904 -0.0826  0.0016  0.2874
 2355SOL    HW2 9464   3.139   4.296   3.999  1.7691  1.2970  0.1324
 2355SOL    HW3 9465   3.215   4.332   3.873 -2.1982  1.7917 -2.2178
 2355SOL    MW4 9466   3.150   4.290   3.912 -0.1175  0.4086 -0.0639
 2356SOL     OW 9467   3.370   4.406   3.801  0.1919  0.3768  0.4469
 2356SOL    HW2 9468   3.450   4.364   3.834  0.7366  1.0085 -0.0268
 2356SOL    HW3 9469   3.377   4.497   3.833 -0.8387  0.1849  1.2508
 2356SOL    MW4 9470   3.382   4.413   3.810  0.1280  0.4349  0.4907
 2357SOL     OW 9471   3.857   4.665   3.892 -0.0239 -0.1050 -0.1809
 2357SOL    HW2 9472   3.942   4.696   3.862 -0.7074  1.6623 -0.3842
 2357SOL    HW3 9473   3.848   4.577   3.855  0.8334  0.4993 -1.8558
 2357SOL    MW4 9474   3.867   4.658   3.883 -0.0012  0.2079 -0.4287
 2358SOL     OW 9475   3.630   0.102   3.786 -0.1447  0.3304  0.5296
 2358SOL    HW2 9476   3.713   0.061   3.810  0.4354  1.2530  0.1202
 2358SOL    HW3 9477   3.629   0.101   3.690  0.0089  1.5134  0.5072
 2358SOL    MW4 9478   3.641   0.096   3.777 -0.0479  0.6082  0.4728
 2359SOL     OW 9479   3.561   0.372   3.910 -0.2776 -0.2414 -0.0624
 2359SOL    HW2 9480   3.630   0.428   3.874  0.1735 -0.8190 -0.1008
 2359SOL    HW3 9481   3.575   0.287   3.869 -0.2776 -0.6797  0.8290
 2359SOL    MW4 9482   3.572   0.368   3.900 -0.2179 -0.3754  0.0503
 2360SOL     OW 9483   3.764   0.522   3.780 -0.0636  0.8153  0.2687
 2360SOL    HW2 9484   3.834   0.458   3.797 -1.0282 -0.0374  1.0697
 2360SOL    HW3 9485   3.800   0.605   3.811  0.4259  0.2960  1.1142
 2360SOL    MW4 9486   3.778   0.524   3.787 -0.1261  0.6343  0.4859
 2361SOL     OW 9487   3.837   0.801   3.926 -0.1284  0.3169 -0.0879
 2361SOL    HW2 9488   3.912   0.822   3.870  0.4471  2.4512  1.4511
 2361SOL    HW3 9489   3.760   0.831   3.876  0.0502 -1.2876 -1.3783
 2361SOL    MW4 9490   3.836   0.807   3.912 -0.0291  0.3868 -0.0556
 2362SOL     OW 9491   3.600   0.866   3.783 -0.0934  0.2387 -0.0589
 2362SOL    HW2 9492   3.587   0.959   3.802  0.6515  0.1871  0.7424
 2362SOL    HW3 9493   3.527   0.822   3.826 -0.2807  0.4213 -0.1875
 2362SOL    MW4 9494   3.589   0.872   3.791 -0.0200  0.2559  0.0300
 2363SOL     OW 9495   3.581   1.132   3.850  0.2227  0.5461  0.5853
 2363SOL    HW2 9496   3.650   1.184   3.810 -0.4768 -0.0625 -1.4506
 2363SOL    HW3 9497   3.501   1.184   3.839 -0.0780  0.1030  0.6314
 2363SOL    MW4 9498   3.580   1.145   3.843  0.0908  0.4073  0.3226
 2364SOL     OW 9499   3.788   1.271   3.738  0.3581  0.1408 -0.9600
 2364SOL    HW2 9500   3.871   1.231   3.766 -0.1813 -0.5507 -0.3198
 2364SOL    HW3 9501   3.791   1.359   3.775  0.1294 -0.4059  0.4118
 2364SOL    MW4 9502   3.800   1.277   3.746  0.2565 -0.0225 -0.6945
 2365SOL     OW 9503   3.814   1.518   3.840 -0.3207  0.5305  0.0171
 2365SOL    HW2 9504   3.817   1.517   3.936 -1.9192 -0.3388  0.0678
 2365SOL    HW3 9505   3.736   1.569   3.819  0.4186  1.3166 -0.8420
 2365SOL    MW4 9506   3.804   1.525   3.850 -0.4339  0.5194 -0.0894
 2366SOL     OW 9507   3.590   1.668   3.733  0.2651 -0.2235  0.0854
 2366SOL    HW2 9508   3.514   1.623   3.772  0.7982 -0.9065  0.3376
 2366SOL    HW3 9509   3.584   1.649   3.640 -0.4758  0.6150 -0.0423
 2366SOL    MW4 9510   3.579   1.659   3.726  0.2377 -0.2030  0.1018
 2367SOL     OW 9511   3.588   1.916   3.848 -0.2067 -0.1900 -0.1272
 2367SOL    HW2 9512   3.575   1.828   3.814  0.0857 -0.5430  0.6735
 2367SOL    HW3 9513   3.521   1.969   3.804 -0.0797 -0.7122 -0.9596
 2367SOL    MW4 9514   3.577   1.912   3.838 -0.1514 -0.3055 -0.1314
 2368SOL     OW 9515   3.838   2.064   3.767 -0.1763 -0.8257 -0.4803
 2368SOL    HW2 9516   3.906   2.008   3.804 -0.2805 -0.5397  0.1357
 2368SOL    HW3 9517   3.756   2.024   3.796 -0.2417  0.9771  1.9413
 2368SOL    MW4 9518   3.836   2.051   3.776 -0.1988 -0.5503 -0.0794
 2369SOL     OW 9519   3.903   2.317   3.892 -0.1159  0.3877 -0.5084
 2369SOL    HW2 9520   3.826   2.353   3.849 -0.1963  0.7940 -0.0258
 2369SOL    HW3 9521   3.896   2.222   3.879  0.3503  0.5754 -2.1877
 2369SOL    MW4 9522   3.892   2.309   3.885 -0.0651  0.4661 -0.6664
 2370SOL     OW 9523   3.664   2.398   3.777  0.1440  0.0878  0.5801
 2370SOL    HW2 9524   3.584   2.370   3.821 -0.2040 -0.6347 -0.4878
 2370SOL    HW3 9525   3.644   2.391   3.683  1.4510 -0.0925  0.3018
 2370SOL    MW4 9526   3.651   2.394   3.770  0.2706 -0.0312  0.4025
 2371SOL     OW 9527   3.605   2.638   3.923  0.3245 -0.2209 -0.0680
 2371SOL    HW2 9528   3.635   2.556   3.884 -1.4827 -0.8345 -0.2322
 2371SOL    HW3 9529   3.531   2.664   3.869  1.0448  1.6766 -0.1748
 2371SOL    MW4 9530   3.599   2.631   3.911  0.1812 -0.0515 -0.1037
 2372SOL     OW 9531   3.813   2.794   3.755 -0.3750 -0.1704  0.0788
 2372SOL    HW2 9532   3.897   2.768   3.793 -0.8008 -0.5380  0.7701
 2372SOL    HW3 9533   3.747   2.758   3.814 -1.0381 -0.4425 -0.8238
 2372SOL    MW4 9534   3.816   2.786   3.768 -0.5188 -0.2549  0.0510
 2373SOL     OW 9535   3.849   3.050   3.872  0.2026  0.1655 -0.2759
 2373SOL    HW2 9536   3.764   3.092   3.859 -0.3841 -0.4897  1.2330
 2373SOL    HW3 9537   3.839   2.963   3.832  0.8256  0.7738 -1.8121
 2373SOL    MW4 9538   3.836   3.044   3.865  0.2074  0.1593 -0.2794
 2374SOL     OW 9539   3.602   3.187   3.802  0.2371  0.0715  0.3837
 2374SOL    HW2 9540   3.609   3.281   3.816 -2.1795  0.2981  0.3821
 2374SOL    HW3 9541   3.609   3.176   3.707  0.3187  0.2923  0.3649
 2374SOL    MW4 9542   3.604   3.198   3.791 -0.0710  0.1304  0.3810
 2375SOL     OW 9543   3.596   3.458   3.851  0.0005  0.0250 -0.3000
 2375SOL    HW2 9544   3.614   3.472   3.944 -1.0881 -1.1110  0.0923
 2375SOL    HW3 9545   3.518   3.510   3.834  0.6962  0.9133 -0.7865
 2375SOL    MW4 9546   3.588   3.467   3.861 -0.0513 -0.0076 -0.3123
 2376SOL     OW 9547   3.834   3.577   3.718  0.1646  0.1553 -0.2432
 2376SOL    HW2 9548   3.821   3.668   3.745  0.7025  0.4649 -1.0116
 2376SOL    HW3 9549   3.761   3.530   3.758 -0.5398  1.0499 -0.4494
 2376SOL    MW4 9550   3.822   3.583   3.727  0.1426  0.3142 -0.3717
 2377SOL     OW 9551   3.798   3.836   3.799 -0.2984 -0.0306  0.5338
 2377SOL    HW2 9552   3.787   3.826   3.894 -1.3631  0.2392  0.4503
 2377SOL    HW3 9553   3.864   3.904   3.789 -1.1988  0.9341  1.0808
 2377SOL    MW4 9554   3.805   3.843   3.810 -0.5579  0.1321  0.5953
 2378SOL     OW 9555   3.582   4.029   3.741  0.2233  0.1776 -0.2316
 2378SOL    HW2 9556   3.589   4.103   3.802  1.7071  0.9283 -1.2686
 2378SOL    HW3 9557   3.658   3.974   3.762 -0.1313 -0.3685 -0.3732
 2378SOL    MW4 9558   3.593   4.032   3.752  0.3724  0.2046 -0.3872
 2379SOL     OW 9559   3.586   4.267   3.900 -0.3336  0.0709 -0.0155
 2379SOL    HW2 9560   3.597   4.242   3.992 -0.1718 -2.5384 -0.7057
 2379SOL    HW3 9561   3.669   4.309   3.877  0.6807 -1.6974  0.3104
 2379SOL    MW4 9562   3.598   4.270   3.909 -0.1786 -0.5069 -0.0639
 2380SOL     OW 9563   3.819   4.407   3.807  0.3555  0.3078  0.1545
 2380SOL    HW2 9564   3.890   4.344   3.806 -0.0515 -0.1530  0.0779
 2380SOL    HW3 9565   3.788   4.411   3.716  0.1357  0.3353  0.2291
 2380SOL    MW4 9566   3.824   4.399   3.795  0.2728  0.2503  0.1547
 2381SOL     OW 9567   4.295   4.636   3.873 -0.1417  0.1906 -0.1900
 2381SOL    HW2 9568   4.295   4.659   3.966  2.0986  0.9613 -0.3526
 2381SOL    HW3 9569   4.374   4.677   3.838 -0.9334 -0.1233 -2.4374
 2381SOL    MW4 9570   4.305   4.644   3.880  0.0491  0.2503 -0.5081
 2382SOL     OW 9571   4.069   0.127   3.774  0.0429 -0.0669  0.0142
 2382SOL    HW2 9572   4.137   0.069   3.809  0.6068  0.4309 -0.2367
 2382SOL    HW3 9573   4.055   0.097   3.685 -0.6175 -0.6493  0.3063
 2382SOL    MW4 9574   4.076   0.115   3.767  0.0305 -0.0780  0.0198
 2383SOL     OW 9575   3.991   0.383   3.852 -0.1245  0.1377  0.3815
 2383SOL    HW2 9576   4.005   0.401   3.945 -1.7028 -0.5861  0.7665
 2383SOL    HW3 9577   4.022   0.293   3.840  0.0267  0.2112  0.2057
 2383SOL    MW4 9578   3.997   0.374   3.862 -0.3126  0.0519  0.4091
 2384SOL     OW 9579   4.256   0.454   3.782  0.1624 -0.6431  0.1392
 2384SOL    HW2 9580   4.169   0.434   3.815 -0.1413  0.8736  0.2790
 2384SOL    HW3 9581   4.245   0.458   3.687  0.1804 -0.8787  0.1258
 2384SOL    MW4 9582   4.243   0.452   3.774  0.1249 -0.4741  0.1559
 2385SOL     OW 9583   4.266   0.733   3.835 -0.2113 -0.5699  0.3633
 2385SOL    HW2 9584   4.178   0.768   3.816  0.3312 -0.0321 -1.2479
 2385SOL    HW3 9585   4.261   0.641   3.811 -0.4172 -0.6016  0.5301
 2385SOL    MW4 9586   4.254   0.726   3.830 -0.1669 -0.5031  0.1726
 2386SOL     OW 9587   4.039   0.846   3.744  0.0385  0.4194  0.2354
 2386SOL    HW2 9588   4.032   0.939   3.763 -2.0625 -0.0054  1.6797
 2386SOL    HW3 9589   4.035   0.841   3.648  1.0787  1.8535  0.1007
 2386SOL    MW4 9590   4.038   0.858   3.734 -0.1016  0.5526  0.4082
 2387SOL     OW 9591   4.016   1.131   3.821  0.5245  0.0905  0.0039
 2387SOL    HW2 9592   4.005   1.128   3.916 -1.0396  0.4259 -0.1586
 2387SOL    HW3 9593   4.103   1.169   3.808  0.1427  1.4167  1.2701
 2387SOL    MW4 9594   4.026   1.136   3.832  0.2680  0.3097  0.1497
 2388SOL     OW 9595   4.270   1.264   3.804  1.0313  0.0564  0.3028
 2388SOL    HW2 9596   4.279   1.351   3.842 -1.0451  0.5312 -0.2247
 2388SOL    HW3 9597   4.313   1.270   3.719  0.6398  0.6514  0.1428
 2388SOL    MW4 9598   4.277   1.276   3.798  0.7062  0.1976  0.2120
 2389SOL     OW 9599   4.289   1.533   3.906  0.1640  0.7911  0.4450
 2389SOL    HW2 9600   4.210   1.561   3.859 -0.0075  0.3419  0.4618
 2389SOL    HW3 9601   4.362   1.558   3.850  0.0363  1.6362  0.6396
 2389SOL    MW4 9602   4.288   1.540   3.893  0.1245  0.8434  0.4730
 2390SOL     OW 9603   4.046   1.631   3.764  0.0336  0.2807  0.3035
 2390SOL    HW2 9604   4.026   1.721   3.790 -0.1151  0.5711 -0.8127
 2390SOL    HW3 9605   3.966   1.582   3.782 -0.2132  0.5680 -0.0098
 2390SOL    MW4 9606   4.033   1.636   3.770 -0.0186  0.3569  0.1152
 2391SOL     OW 9607   4.042   1.910   3.861  0.1747  0.3183 -0.3728
 2391SOL    HW2 9608   4.062   1.896   3.953 -0.8491  0.9100 -0.0440
 2391SOL    HW3 9609   4.118   1.956   3.826  0.4365  0.3740  0.2609
 2391SOL    MW4 9610   4.054   1.915   3.869  0.0744  0.4039 -0.2458
 2392SOL     OW 9611   4.303   2.006   3.824 -0.1470  0.0447  0.5514
 2392SOL    HW2 9612   4.321   2.097   3.848 -1.4854  0.2674  0.7430
 2392SOL    HW3 9613   4.293   2.008   3.729 -0.0737  0.0838  0.5446
 2392SOL    MW4 9614   4.304   2.018   3.815 -0.3138  0.0792  0.5758
 2393SOL     OW 9615   4.298   2.290   3.887 -0.3339 -0.5124  0.1879
 2393SOL    HW2 9616   4.294   2.285   3.983  0.0928 -2.0410  0.1386
 2393SOL    HW3 9617   4.213   2.325   3.861 -0.5331 -0.2958  1.1222
 2393SOL    MW4 9618   4.286   2.294   3.897 -0.3042 -0.6857  0.3047
 2394SOL     OW 9619   4.101   2.446   3.750 -0.2581  0.3263  0.2228
 2394SOL    HW2 9620   4.082   2.535   3.778  0.0355 -0.2003  2.1335
 2394SOL    HW3 9621   4.037   2.392   3.796 -0.0638 -0.5110 -0.4747
 2394SOL    MW4 9622   4.090   2.450   3.760 -0.1936  0.1462  0.3831
 2395SOL     OW 9623   4.055   2.699   3.852 -0.5487 -0.5840  0.2702
 2395SOL    HW2 9624   4.068   2.683   3.945 -0.3295 -0.6950  0.2214
 2395SOL    HW3 9625   4.139   2.734   3.822 -1.1686  1.1346  0.4847
 2395SOL    MW4 9626   4.068   2.702   3.860 -0.6022 -0.3717  0.2921
 2396SOL     OW 9627   4.297   2.783   3.760  0.0872 -0.0465 -0.0593
 2396SOL    HW2 9628   4.296   2.872   3.794 -1.8271 -0.2617  0.5157
 2396SOL    HW3 9629   4.372   2.742   3.803 -0.4949  0.5799  1.5945
 2396SOL    MW4 9630   4.307   2.789   3.770 -0.2422  0.0076  0.2351
 2397SOL     OW 9631   4.293   3.049   3.834 -0.0229  0.4569  0.6944
 2397SOL    HW2 9632   4.222   3.102   3.797 -0.8349 -1.0273  0.0641
 2397SOL    HW3 9633   4.372   3.101   3.821 -0.9713  2.0409  1.2142
 2397SOL    MW4 9634   4.294   3.063   3.827 -0.2556  0.4702  0.6797
 2398SOL     OW 9635   4.058   3.208   3.770  0.1543 -0.0526  0.3454
 2398SOL    HW2 9636   3.992   3.166   3.825 -1.8016  1.8625 -0.4728
 2398SOL    HW3 9637   4.027   3.195   3.681  0.8831  0.8923 -0.0520
 2398SOL    MW4 9638   4.045   3.201   3.766 -0.0081  0.3247  0.1850
 2399SOL     OW 9639   4.060   3.471   3.854 -0.0960 -0.4363  0.8495
 2399SOL    HW2 9640   4.039   3.382   3.825  0.3198  0.2134 -1.4826
 2399SOL    HW3 9641   4.004   3.528   3.802 -0.2339  0.7092  2.2106
 2399SOL    MW4 9642   4.050   3.467   3.843 -0.0591 -0.1991  0.7217
 2400SOL     OW 9643   4.250   3.628   3.748 -0.5371  0.1183  0.0130
 2400SOL    HW2 9644   4.186   3.570   3.789 -0.3680  0.1343  0.3015
 2400SOL    HW3 9645   4.335   3.585   3.763 -0.4130  0.4399  0.2241
 2400SOL    MW4 9646   4.253   3.615   3.755 -0.4983  0.1628  0.0792
 2401SOL     OW 9647   4.262   3.891   3.834  0.1779 -0.3047 -0.0485
 2401SOL    HW2 9648   4.174   3.922   3.815  0.1031  0.1034  0.9608
 2401SOL    HW3 9649   4.262   3.800   3.805 -0.8972 -0.6235  0.9385
 2401SOL    MW4 9650   4.251   3.883   3.828  0.0262 -0.2928  0.2151
 2402SOL     OW 9651   4.009   4.008   3.756 -0.0536  0.1058 -0.1034
 2402SOL    HW2 9652   4.010   4.098   3.787  0.0529 -0.1720  0.7196
 2402SOL    HW3 9653   4.022   4.014   3.661 -1.3589  1.0253 -0.2330
 2402SOL    MW4 9654   4.011   4.020   3.747 -0.2117  0.1907 -0.0119
 2403SOL     OW 9655   4.057   4.270   3.842  0.3949  0.0367  0.6761
 2403SOL    HW2 9656   4.104   4.277   3.925 -0.4568  2.9312  0.9713
 2403SOL    HW3 9657   4.114   4.313   3.779 -0.6481  1.2286  0.5275
 2403SOL    MW4 9658   4.071   4.277   3.845  0.1450  0.5755  0.6955
 2404SOL     OW 9659   4.268   4.408   3.712  0.1086  0.5731 -0.0891
 2404SOL    HW2 9660   4.274   4.496   3.748 -0.1898  0.6075 -0.1289
 2404SOL    HW3 9661   4.337   4.359   3.758 -0.2114  0.6372  0.4688
 2404SOL    MW4 9662   4.278   4.413   3.723  0.0267  0.5865 -0.0205
 2405SOL     OW 9663   0.239   4.666   4.145 -0.2220  0.0403 -0.2163
 2405SOL    HW2 9664   0.317   4.701   4.189 -0.5128 -0.2999  0.5718
 2405SOL    HW3 9665   0.242   4.572   4.163 -0.4925 -0.0592 -0.6958
 2405SOL    MW4 9666   0.250   4.658   4.153 -0.2960 -0.0181 -0.1750
 2406SOL     OW 9667   0.016   0.136   4.247 -0.6444  0.0438 -0.4144
 2406SOL    HW2 9668   0.001   0.106   4.337 -1.8434 -1.8334 -1.2019
 2406SOL    HW3 9669   0.094   0.089   4.219 -0.6897  0.0701 -0.5877
 2406SOL    MW4 9670   0.024   0.126   4.255 -0.8086 -0.2004 -0.5417
 2407SOL     OW 9671   4.488   0.368   4.112  0.0574 -0.1674  0.3990
 2407SOL    HW2 9672   4.504   0.286   4.160  0.1170  0.1778  0.9751
 2407SOL    HW3 9673   4.500   0.345   4.020  0.3369 -0.7462  0.5791
 2407SOL    MW4 9674   4.492   0.354   4.106  0.1021 -0.1982  0.4992
 2408SOL     OW 9675   0.224   0.500   4.204 -0.2728  0.1438 -0.1457
 2408SOL    HW2 9676   0.288   0.433   4.179 -0.4283  0.6852 -2.0475
 2408SOL    HW3 9677   0.140   0.467   4.170 -0.5915  0.6355  0.1500
 2408SOL    MW4 9678   0.221   0.487   4.196 -0.3354  0.2801 -0.3576
 2409SOL     OW 9679   0.212   0.758   4.141 -0.2036 -0.9937  0.1594
 2409SOL    HW2 9680   0.133   0.791   4.183  0.2129 -1.1108  1.0446
 2409SOL    HW3 9681   0.211   0.664   4.157 -0.1524 -1.0713 -0.2770
 2409SOL    MW4 9682   0.202   0.750   4.149 -0.1419 -1.0194  0.2184
 2410SOL     OW 9683   4.486   0.881   4.244 -0.5262  0.0010  0.1042
 2410SOL    HW2 9684   4.413   0.841   4.198 -0.7543  0.3376  0.1737
 2410SOL    HW3 9685   4.488   0.972   4.212 -0.8132  0.2893  0.9172
 2410SOL    MW4 9686   4.477   0.888   4.233 -0.5941  0.0834  0.2208
 2411SOL     OW 9687   4.455   1.161   4.156  0.5049 -0.7467 -0.2091
 2411SOL    HW2 9688   4.539   1.195   4.186  0.2308  0.0649 -0.3602
 2411SOL    HW3 9689   4.465   1.156   4.061  0.1282  0.0398 -0.2915
 2411SOL    MW4 9690   4.468   1.165   4.148  0.4191 -0.5358 -0.2398
 2412SOL     OW 9691   0.211   1.247   4.246  0.3200 -0.3054 -0.3778
 2412SOL    HW2 9692   0.221   1.219   4.337 -2.5341  0.3067  0.1581
 2412SOL    HW3 9693   0.295   1.226   4.205  2.0979  0.5429  2.6873
 2412SOL    MW4 9694   0.224   1.241   4.252  0.1780 -0.1127  0.0968
 2413SOL     OW 9695   4.335   2.224   4.620  0.4064 -0.2530 -0.6892
 2413SOL    HW2 9696   4.418   2.263   4.593  1.2484  0.3800  2.5447
 2413SOL    HW3 9697   4.268   2.284   4.589  1.0792 -0.8704 -3.5131
 2413SOL    MW4 9698   4.337   2.237   4.612  0.6065 -0.2508 -0.6351
 2414SOL     OW 9699   0.013   1.627   4.247 -0.3399  0.3044 -0.0412
 2414SOL    HW2 9700  -0.074   1.588   4.236 -0.6484  0.8143  0.6007
 2414SOL    HW3 9701   0.001   1.720   4.227  0.1744  0.2763 -0.4955
 2414SOL    MW4 9702  -0.000   1.634   4.243 -0.3128  0.3681 -0.0157
 2415SOL     OW 9703   0.233   2.046   4.240 -0.0859  0.1980  0.2361
 2415SOL    HW2 9704   0.231   2.061   4.334 -0.1163 -1.0143  0.4276
 2415SOL    HW3 9705   0.315   2.000   4.224 -0.2865  0.0155 -0.2760
 2415SOL    MW4 9706   0.243   2.042   4.250 -0.1164  0.0141  0.1936
 2416SOL     OW 9707   0.501   1.980   4.551  0.0405 -0.1785  0.5071
 2416SOL    HW2 9708   0.595   1.988   4.539  0.2000 -0.3456  1.5944
 2416SOL    HW3 9709   0.485   1.885   4.552 -0.2476 -0.1485 -0.4278
 2416SOL    MW4 9710   0.511   1.968   4.550  0.0235 -0.1966  0.5269
 2417SOL     OW 9711   0.279   2.271   4.070 -0.1734  0.5321  0.0008
 2417SOL    HW2 9712   0.371   2.289   4.089  0.0693  0.5854 -1.1556
 2417SOL    HW3 9713   0.257   2.198   4.127  0.3862  0.9624  0.7886
 2417SOL    MW4 9714   0.289   2.264   4.080 -0.0676  0.5958 -0.0477
 2418SOL     OW 9715   0.044   2.375   4.248 -0.0597 -0.3035 -0.1580
 2418SOL    HW2 9716  -0.039   2.340   4.215  0.1738 -1.0001 -0.0135
 2418SOL    HW3 9717   0.105   2.362   4.175 -0.0055 -0.0604 -0.1567
 2418SOL    MW4 9718   0.041   2.368   4.234 -0.0217 -0.3636 -0.1388
 2419SOL     OW 9719   0.019   2.672   4.205  0.1261 -0.3236 -0.0500
 2419SOL    HW2 9720   0.049   2.711   4.287  0.1138  1.1453 -0.7379
 2419SOL    HW3 9721   0.034   2.578   4.217 -0.6750 -0.2265  1.9621
 2419SOL    MW4 9722   0.025   2.664   4.218  0.0188 -0.1171  0.1245
 2420SOL     OW 9723   0.348   2.900   4.307 -0.2910  0.5185 -0.0738
 2420SOL    HW2 9724   0.381   2.816   4.273  0.9039  0.1129  1.9701
 2420SOL    HW3 9725   0.316   2.946   4.230  0.1883 -1.3085 -1.4156
 2420SOL    MW4 9726   0.348   2.895   4.293 -0.0702  0.2239  0.0186
 2421SOL     OW 9727   0.254   3.100   4.122  0.0474 -0.0613 -0.2189
 2421SOL    HW2 9728   0.326   3.156   4.152  0.9955 -1.1256 -0.4577
 2421SOL    HW3 9729   0.175   3.143   4.154  0.7248  1.5811 -0.6599
 2421SOL    MW4 9730   0.253   3.113   4.130  0.2618  0.0150 -0.3090
 2422SOL     OW 9731   0.046   3.236   4.220  0.5059 -0.3480  0.0125
 2422SOL    HW2 9732  -0.018   3.203   4.157 -0.1235  0.9376 -0.0251
 2422SOL    HW3 9733   0.065   3.325   4.191  0.0145  0.3481  1.7948
 2422SOL    MW4 9734   0.040   3.243   4.208  0.3576 -0.0865  0.2432
 2423SOL     OW 9735   0.057   3.496   4.092 -0.0472 -0.0835  0.1513
 2423SOL    HW2 9736  -0.019   3.547   4.121 -0.8781 -0.9172 -0.5514
 2423SOL    HW3 9737   0.058   3.507   3.997  0.8540  0.1018  0.1716
 2423SOL    MW4 9738   0.047   3.504   4.083 -0.0380 -0.1688  0.0610
 2424SOL     OW 9739   0.243   3.643   4.247  0.8531 -0.0510  0.0663
 2424SOL    HW2 9740   0.334   3.611   4.241  0.3921 -1.2010 -1.2565
 2424SOL    HW3 9741   0.194   3.584   4.189 -0.5770  1.1589  0.0296
 2424SOL    MW4 9742   0.249   3.631   4.238  0.6036 -0.0432 -0.1135
 2425SOL     OW 9743   0.218   3.900   4.139 -0.2293  0.2209 -0.0596
 2425SOL    HW2 9744   0.137   3.946   4.163 -0.5629  0.2061 -1.1398
 2425SOL    HW3 9745   0.209   3.814   4.179 -1.2176 -0.1377 -1.0507
 2425SOL    MW4 9746   0.206   3.895   4.147 -0.4037  0.1717 -0.3328
 2426SOL     OW 9747   0.037   4.099   4.161  0.2704  0.1776 -0.3058
 2426SOL    HW2 9748   0.050   4.100   4.255 -0.0553 -1.7245 -0.2073
 2426SOL    HW3 9749  -0.035   4.036   4.148 -0.4333  1.2477 -1.7248
 2426SOL    MW4 9750   0.029   4.091   4.171  0.1345  0.0672 -0.4797
 2427SOL     OW 9751   4.467   4.323   4.035 -0.0165  0.1876  0.2769
 2427SOL    HW2 9752   4.486   4.239   4.077 -0.8397  0.2821  0.8362
 2427SOL    HW3 9753   4.479   4.306   3.942  0.0133 -0.4963  0.4047
 2427SOL    MW4 9754   4.471   4.310   4.028 -0.1211  0.1097  0.3676
 2428SOL     OW 9755   0.165   4.404   4.225  0.0383  0.1891 -0.0245
 2428SOL    HW2 9756   0.102   4.409   4.296  0.1580 -0.9650  0.1767
 2428SOL    HW3 9757   0.112   4.386   4.147  0.0672 -0.2440  0.0553
 2428SOL    MW4 9758   0.150   4.402   4.224  0.0579 -0.0205  0.0124
 2429SOL     OW 9759   0.705   4.611   4.161 -0.1877  0.4463 -0.2798
 2429SOL    HW2 9760   0.626   4.642   4.206  0.3180  1.1089  0.1562
 2429SOL    HW3 9761   0.685   4.623   4.068 -0.0816  1.9089 -0.1253
 2429SOL    MW4 9762   0.692   4.617   4.155 -0.1069  0.7272 -0.2017
 2430SOL     OW 9763   0.468   0.066   4.261 -0.3387 -0.0864 -0.0983
 2430SOL    HW2 9764   0.462   0.079   4.356  0.9155  1.4822 -0.2049
 2430SOL    HW3 9765   0.466   0.155   4.225  0.2017 -0.6161 -1.4717
 2430SOL    MW4 9766   0.467   0.079   4.269 -0.1019  0.0507 -0.2937
 2431SOL     OW 9767   0.443   0.317   4.140 -0.2210 -0.0973  0.1209
 2431SOL    HW2 9768   0.517   0.368   4.174  1.7938 -2.5868 -0.3207
 2431SOL    HW3 9769   0.446   0.330   4.046  0.0391 -0.6424  0.0482
 2431SOL    MW4 9770   0.453   0.325   4.132  0.0792 -0.4977  0.0529
 2432SOL     OW 9771   0.671   0.477   4.192  0.3526  0.1027 -0.1750
 2432SOL    HW2 9772   0.756   0.441   4.167  0.5082  0.3504  0.0000
 2432SOL    HW3 9773   0.673   0.567   4.161  0.4304  0.3212  0.4581
 2432SOL    MW4 9774   0.683   0.484   4.185  0.3834  0.1642 -0.0682
 2433SOL     OW 9775   0.657   0.736   4.111  0.0412 -0.2844 -0.5456
 2433SOL    HW2 9776   0.571   0.775   4.128 -0.5430 -1.0383 -1.7497
 2433SOL    HW3 9777   0.673   0.750   4.018  3.0862  3.4830  0.3934
 2433SOL    MW4 9778   0.648   0.743   4.101  0.3659  0.1131 -0.5808
 2434SOL     OW 9779   0.449   0.899   4.215 -0.7221 -0.1953  0.5516
 2434SOL    HW2 9780   0.429   0.983   4.173 -0.3225  0.0664  0.8811
 2434SOL    HW3 9781   0.363   0.857   4.226 -0.7955 -0.4629 -0.9195
 2434SOL    MW4 9782   0.435   0.904   4.211 -0.6790 -0.1960  0.4010
 2435SOL     OW 9783   0.421   1.142   4.110 -0.2838 -0.1026  0.2054
 2435SOL    HW2 9784   0.494   1.195   4.143 -0.7408  0.4128  0.3769
 2435SOL    HW3 9785   0.436   1.138   4.016 -0.7881  1.1380  0.0713
 2435SOL    MW4 9786   0.433   1.148   4.102 -0.4106  0.1290  0.2108
 2436SOL     OW 9787   0.627   1.265   4.233  0.1141  0.3216 -0.0489
 2436SOL    HW2 9788   0.613   1.268   4.328 -2.5965  0.1028 -0.4190
 2436SOL    HW3 9789   0.629   1.357   4.206 -1.6779  0.3443 -0.1272
 2436SOL    MW4 9790   0.625   1.278   4.242 -0.4799  0.2958 -0.1082
 2437SOL     OW 9791   0.658   1.526   4.154  0.1229 -0.2363 -0.1388
 2437SOL    HW2 9792   0.726   1.581   4.192 -0.3228  0.8047 -0.8086
 2437SOL    HW3 9793   0.660   1.546   4.060 -1.7469  0.5443 -0.0435
 2437SOL    MW4 9794   0.667   1.536   4.146 -0.1826  0.0041 -0.2146
 2438SOL     OW 9795   0.229   1.495   4.125  0.0371 -0.5390  0.1853
 2438SOL    HW2 9796   0.226   1.408   4.164  2.1081 -0.0663  1.4611
 2438SOL    HW3 9797   0.152   1.539   4.160  0.2887 -1.0768  1.4372
 2438SOL    MW4 9798   0.219   1.489   4.134  0.3436 -0.5475  0.5188
 2439SOL     OW 9799   0.483   1.948   4.155  0.6516  0.2071 -0.1750
 2439SOL    HW2 9800   0.462   1.856   4.173  0.0778  0.3762  0.0506
 2439SOL    HW3 9801   0.472   1.956   4.060 -0.3924  0.3069 -0.0509
 2439SOL    MW4 9802   0.479   1.937   4.145  0.4381  0.2427 -0.1287
 2440SOL     OW 9803   0.725   2.055   4.202 -0.6667  0.2870  0.0425
 2440SOL    HW2 9804   0.750   2.046   4.294 -0.4553 -1.3538 -0.1620
 2440SOL    HW3 9805   0.643   2.005   4.194 -0.3012 -0.2009 -0.8052
 2440SOL    MW4 9806   0.718   2.047   4.213 -0.5906  0.0060 -0.0968
 2441SOL     OW 9807   0.564   2.290   4.124 -0.5531  0.2669  0.4234
 2441SOL    HW2 9808   0.621   2.216   4.146  0.4538  1.2455  1.1611
 2441SOL    HW3 9809   0.590   2.314   4.035 -1.7406 -1.0328 -0.2998
 2441SOL    MW4 9810   0.575   2.283   4.115 -0.5769  0.2246  0.4253
 2442SOL     OW 9811   0.510   2.469   4.345  0.2692  0.2912 -0.0698
 2442SOL    HW2 9812   0.493   2.548   4.293  0.2614 -0.3720 -1.0734
 2442SOL    HW3 9813   0.529   2.401   4.281  0.7959 -0.4102  0.8142
 2442SOL    MW4 9814   0.511   2.471   4.330  0.3377  0.1111 -0.0849
 2443SOL     OW 9815   0.478   2.709   4.159  0.1731  0.1490 -0.2539
 2443SOL    HW2 9816   0.562   2.752   4.175 -0.5942  1.1945  1.1488
 2443SOL    HW3 9817   0.475   2.696   4.065  1.7002  0.5332 -0.3707
 2443SOL    MW4 9818   0.489   2.713   4.149  0.2733  0.3376 -0.0839
 2444SOL     OW 9819   0.739   2.849   4.194 -0.2967  0.7393  0.2516
 2444SOL    HW2 9820   0.750   2.859   4.289  0.7306  1.5015  0.0658
 2444SOL    HW3 9821   0.724   2.939   4.163  1.5633  0.7803 -0.5684
 2444SOL    MW4 9822   0.738   2.862   4.202  0.0842  0.8450  0.1192
 2445SOL     OW 9823   0.699   3.108   4.101 -0.1144 -0.0403  0.3019
 2445SOL    HW2 9824   0.774   3.129   4.155 -1.4876 -1.0919  2.6821
 2445SOL    HW3 9825   0.626   3.156   4.141 -1.1968 -0.9868 -0.4848
 2445SOL    MW4 9826   0.699   3.117   4.113 -0.4384 -0.3040  0.5131
 2446SOL     OW 9827   0.466   3.247   4.234 -0.3177  0.7497 -0.0814
 2446SOL    HW2 9828   0.485   3.242   4.328 -3.0017  0.7695  0.5001
 2446SOL    HW3 9829   0.463   3.341   4.215 -0.0550  0.7479 -0.1388
 2446SOL    MW4 9830   0.469   3.259   4.244 -0.6371  0.7517 -0.0124
 2447SOL     OW 9831   0.484   3.517   4.172 -0.0908  0.5199 -0.2319
 2447SOL    HW2 9832   0.572   3.532   4.206 -0.2644 -0.3248  0.6258
 2447SOL    HW3 9833   0.494   3.519   4.077  0.8920  0.2627 -0.1436
 2447SOL    MW4 9834   0.497   3.519   4.164  0.0160  0.3741 -0.1073
 2448SOL     OW 9835   0.745   3.594   4.257  0.6774 -0.1777 -0.1642
 2448SOL    HW2 9836   0.768   3.596   4.350  1.1851  0.5554 -0.3013
 2448SOL    HW3 9837   0.811   3.536   4.218  0.6814 -0.1994 -0.1261
 2448SOL    MW4 9838   0.757   3.586   4.264  0.7449 -0.0839 -0.1769
 2449SOL     OW 9839   0.707   3.844   4.130 -0.1463 -0.2721 -0.1422
 2449SOL    HW2 9840   0.633   3.889   4.171 -0.3472 -0.1195 -0.6720
 2449SOL    HW3 9841   0.719   3.765   4.183 -0.5755 -0.2099  0.0518
 2449SOL    MW4 9842   0.699   3.840   4.143 -0.2294 -0.2437 -0.1869
 2450SOL     OW 9843   0.478   3.985   4.223  0.1482 -0.0418  0.2208
 2450SOL    HW2 9844   0.483   4.075   4.190  0.7527 -0.7173 -1.5463
 2450SOL    HW3 9845   0.397   3.951   4.188  1.0367 -0.9274 -1.0004
 2450SOL    MW4 9846   0.468   3.993   4.214  0.3452 -0.2480 -0.1736
 2451SOL     OW 9847   0.440   4.250   4.159  0.0170 -0.8340 -0.0833
 2451SOL    HW2 9848   0.353   4.283   4.184 -0.0965  0.0542 -1.5978
 2451SOL    HW3 9849   0.442   4.258   4.064  2.0469 -0.0964 -0.0034
 2451SOL    MW4 9850   0.429   4.256   4.150  0.2698 -0.6194 -0.2728
 2452SOL     OW 9851   0.683   4.365   4.271  0.1262  0.4593  0.4712
 2452SOL    HW2 9852   0.596   4.349   4.234 -0.3798 -0.1512  1.8910
 2452SOL    HW3 9853   0.702   4.457   4.250 -1.5736  1.0812  1.5764
 2452SOL    MW4 9854   0.674   4.375   4.263 -0.1649  0.4611  0.8044
 2453SOL     OW 9855   1.123   4.655   4.127 -0.4527  0.2790  0.2867
 2453SOL    HW2 9856   1.132   4.564   4.157 -2.1753 -0.0015 -0.0015
 2453SOL    HW3 9857   1.120   4.648   4.031 -1.2031  0.5910  0.2904
 2453SOL    MW4 9858   1.124   4.642   4.118 -0.7790  0.2832  0.2494
 2454SOL     OW 9859   0.919   0.108   4.259  0.0006  0.2609 -0.4940
 2454SOL    HW2 9860   0.967   0.055   4.195 -0.1719 -0.0378 -0.3799
 2454SOL    HW3 9861   0.832   0.066   4.263  0.9553 -1.5852  2.2059
 2454SOL    MW4 9862   0.914   0.095   4.251  0.1038 -0.0221 -0.1225
 2455SOL     OW 9863   0.922   0.357   4.146  0.2221 -0.1151  0.2523
 2455SOL    HW2 9864   0.994   0.393   4.197  0.9401 -1.5913  0.3003
 2455SOL    HW3 9865   0.918   0.265   4.171  0.2617 -0.7648 -1.9820
 2455SOL    MW4 9866   0.931   0.349   4.156  0.3221 -0.3956 -0.0362
 2456SOL     OW 9867   1.154   0.527   4.254 -0.1272  0.2975  0.2180
 2456SOL    HW2 9868   1.156   0.534   4.349  0.9933  0.2073  0.2129
 2456SOL    HW3 9869   1.236   0.483   4.232 -0.8412 -0.6063 -0.7148
 2456SOL    MW4 9870   1.165   0.522   4.263 -0.0736  0.1664  0.0944
 2457SOL     OW 9871   1.092   0.775   4.157  0.3930 -0.2643 -0.5441
 2457SOL    HW2 9872   1.159   0.836   4.190 -1.0379  1.6208 -1.0501
 2457SOL    HW3 9873   1.117   0.690   4.194  1.8713  0.8033  0.9954
 2457SOL    MW4 9874   1.104   0.772   4.167  0.3992  0.1253 -0.4077
 2458SOL     OW 9875   0.850   0.893   4.207  0.1205  0.1269 -0.3485
 2458SOL    HW2 9876   0.937   0.862   4.180  0.7413  0.0833  1.6757
 2458SOL    HW3 9877   0.789   0.836   4.159  1.1937 -0.1664 -1.4068
 2458SOL    MW4 9878   0.854   0.881   4.197  0.3440  0.0824 -0.2208
 2459SOL     OW 9879   0.866   1.160   4.125 -0.0990  0.4781 -0.0375
 2459SOL    HW2 9880   0.864   1.066   4.139 -1.3609  0.3922 -0.7065
 2459SOL    HW3 9881   0.785   1.192   4.165  0.3273  1.2801  0.1947
 2459SOL    MW4 9882   0.855   1.152   4.132 -0.2092  0.5726 -0.0954
 2460SOL     OW 9883   1.081   1.247   4.263  0.0299  0.4567 -0.0571
 2460SOL    HW2 9884   1.055   1.240   4.355  1.3045 -0.0739  0.2730
 2460SOL    HW3 9885   1.003   1.222   4.215 -0.5532  0.4066  0.8916
 2460SOL    MW4 9886   1.067   1.243   4.269  0.1211  0.3800  0.1116
 2461SOL     OW 9887   1.077   1.511   4.161 -0.5664  0.3934 -0.1068
 2461SOL    HW2 9888   1.005   1.549   4.212 -2.4998 -1.7319 -1.1935
 2461SOL    HW3 9889   1.089   1.423   4.197  0.9487  0.4235 -0.5010
 2461SOL    MW4 9890   1.069   1.505   4.172 -0.6216  0.1169 -0.3028
 2462SOL     OW 9891   0.860   1.684   4.246 -0.2462  0.0604 -0.0137
 2462SOL    HW2 9892   0.848   1.726   4.331 -1.8764 -0.6622  0.1406
 2462SOL    HW3 9893   0.879   1.755   4.186 -0.7874  0.7713  0.6480
 2462SOL    MW4 9894   0.861   1.699   4.249 -0.5327  0.0589  0.0939
 2463SOL     OW 9895   0.909   1.900   4.099 -0.2378 -0.1470  0.1151
 2463SOL    HW2 9896   0.839   1.962   4.122 -0.8100 -0.7512  0.0318
 2463SOL    HW3 9897   0.911   1.900   4.004 -0.1578 -0.1592  0.1165
 2463SOL    MW4 9898   0.900   1.908   4.090 -0.3027 -0.2283  0.1040
 2464SOL     OW 9899   1.157   2.081   4.122 -0.3943  0.0430  0.1521
 2464SOL    HW2 9900   1.191   2.062   4.210  1.5642 -1.2958 -0.8582
 2464SOL    HW3 9901   1.085   2.020   4.110  0.1880 -0.6774  0.3174
 2464SOL    MW4 9902   1.152   2.071   4.132 -0.0590 -0.2289  0.0405
 2465SOL     OW 9903   1.107   2.361   4.138 -0.8505  0.0735 -0.2902
 2465SOL    HW2 9904   1.198   2.389   4.148 -0.7668  0.9219 -3.1758
 2465SOL    HW3 9905   1.111   2.265   4.139  0.0688  0.1089 -0.5303
 2465SOL    MW4 9906   1.119   2.352   4.140 -0.7182  0.1895 -0.7029
 2466SOL     OW 9907   0.971   2.469   4.345  0.4168 -0.1561  0.0170
 2466SOL    HW2 9908   0.975   2.401   4.412 -0.4182 -0.5844 -0.3698
 2466SOL    HW3 9909   1.025   2.434   4.273  1.4646  0.3831  0.5236
 2466SOL    MW4 9910   0.979   2.455   4.344  0.4449 -0.1416  0.0334
 2467SOL     OW 9911   0.946   2.694   4.112  0.1675 -0.0952  0.5045
 2467SOL    HW2 9912   0.961   2.616   4.166  0.7224 -0.1762  0.2304
 2467SOL    HW3 9913   0.862   2.728   4.143 -0.3262 -1.0904  0.2787
 2467SOL    MW4 9914   0.937   2.688   4.123  0.1755 -0.2370  0.4382
 2468SOL     OW 9915   1.172   2.814   4.240 -0.4592  0.6453  0.6490
 2468SOL    HW2 9916   1.189   2.902   4.205 -1.0298  0.2295 -0.7142
 2468SOL    HW3 9917   1.094   2.785   4.194  1.0591 -1.5038 -0.6349
 2468SOL    MW4 9918   1.164   2.822   4.229 -0.3341  0.3068  0.2995
 2469SOL     OW 9919   1.164   3.066   4.125 -0.3034  0.1102 -0.4926
 2469SOL    HW2 9920   1.245   3.119   4.126  1.2720 -2.2025 -1.4748
 2469SOL    HW3 9921   1.153   3.040   4.034 -0.2211 -2.4424  0.1847
 2469SOL    MW4 9922   1.174   3.070   4.113 -0.0845 -0.5317 -0.5326
 2470SOL     OW 9923   0.938   3.157   4.240  0.1108  0.7128 -0.3297
 2470SOL    HW2 9924   0.948   3.179   4.332 -0.4192 -0.9032  0.1172
 2470SOL    HW3 9925   1.028   3.145   4.209  0.2145 -0.4133  0.3913
 2470SOL    MW4 9926   0.952   3.158   4.248  0.0545  0.3510 -0.1764
 2471SOL     OW 9927   0.962   3.436   4.132 -0.3742  0.1972 -0.0760
 2471SOL    HW2 9928   0.944   3.343   4.143 -0.9686  0.2960 -0.2068
 2471SOL    HW3 9929   0.954   3.451   4.038 -0.4110  0.4104 -0.0388
 2471SOL    MW4 9930   0.959   3.426   4.121 -0.4575  0.2384 -0.0882
 2472SOL     OW 9931   1.174   3.610   4.222  0.6676 -0.6466  0.0233
 2472SOL    HW2 9932   1.145   3.693   4.185  0.1844 -0.6875  0.2999
 2472SOL    HW3 9933   1.131   3.543   4.167  1.2263 -0.7122 -0.3325
 2472SOL    MW4 9934   1.164   3.612   4.210  0.6776 -0.6607  0.0129
 2473SOL     OW 9935   1.135   3.884   4.099  0.1973 -0.2906 -0.5090
 2473SOL    HW2 9936   1.204   3.919   4.155  0.3205  2.2890 -2.1927
 2473SOL    HW3 9937   1.053   3.912   4.140  0.1980 -0.9062 -0.0713
 2473SOL    MW4 9938   1.133   3.892   4.112  0.2137 -0.0319 -0.6733
 2474SOL     OW 9939   0.908   3.975   4.248  0.4573 -0.1389  0.7340
 2474SOL    HW2 9940   0.912   4.059   4.203 -0.5308 -0.3197  0.2831
 2474SOL    HW3 9941   0.833   3.930   4.208  0.4113 -0.8618  1.6075
 2474SOL    MW4 9942   0.899   3.980   4.237  0.3209 -0.2582  0.7896
 2475SOL     OW 9943   0.900   4.219   4.126 -0.0904 -0.5810  0.1723
 2475SOL    HW2 9944   0.984   4.261   4.143  0.2034 -0.9277 -0.4248
 2475SOL    HW3 9945   0.839   4.264   4.185  0.3998  0.0429  0.2139
 2475SOL    MW4 9946   0.903   4.231   4.136  0.0130 -0.5441  0.0992
 2476SOL     OW 9947   1.140   4.391   4.186  0.5561 -0.5223  0.2587
 2476SOL    HW2 9948   1.126   4.389   4.281  0.2738 -0.3930  0.2213
 2476SOL    HW3 9949   1.225   4.350   4.173  0.8740  0.0121  0.6245
 2476SOL    MW4 9950   1.149   4.385   4.197  0.5608 -0.4344  0.3023
 2477SOL     OW 9951   1.566   4.660   4.144  0.3325 -0.0917  0.1362
 2477SOL    HW2 9952   1.635   4.704   4.194 -0.0475 -0.8650  1.3441
 2477SOL    HW3 9953   1.485   4.678   4.192  0.1839 -2.2372  0.7400
 2477SOL    MW4 9954   1.564   4.668   4.157  0.2627 -0.4768  0.3753
 2478SOL     OW 9955   1.337   0.082   4.257  0.1192  0.3201 -0.3873
 2478SOL    HW2 9956   1.314   0.071   4.349  1.3405  0.7476 -0.0175
 2478SOL    HW3 9957   1.263   0.045   4.209 -0.5595  0.1628  0.7630
 2478SOL    MW4 9958   1.324   0.076   4.263  0.1909  0.3557 -0.1864
 2479SOL     OW 9959   1.372   0.346   4.129  0.2754 -0.2007  0.0057
 2479SOL    HW2 9960   1.456   0.371   4.166  1.2675 -2.2650 -0.7688
 2479SOL    HW3 9961   1.348   0.266   4.176 -0.3695 -0.6359 -1.0453
 2479SOL    MW4 9962   1.380   0.339   4.140  0.3211 -0.5305 -0.2346
 2480SOL     OW 9963   1.572   0.509   4.283  0.0753 -0.2374 -0.7071
 2480SOL    HW2 9964   1.567   0.518   4.378 -0.2806 -1.3693 -0.6095
 2480SOL    HW3 9965   1.545   0.594   4.249  1.4345  0.5764  0.2227
 2480SOL    MW4 9966   1.568   0.521   4.291  0.2075 -0.2794 -0.5708
 2481SOL     OW 9967   1.491   0.767   4.194  0.0573 -0.0170 -0.2128
 2481SOL    HW2 9968   1.574   0.806   4.220 -0.9737  1.8693  0.2973
 2481SOL    HW3 9969   1.496   0.761   4.098  0.1102  1.7004 -0.3363
 2481SOL    MW4 9970   1.502   0.771   4.185 -0.0716  0.4584 -0.1612
 2482SOL     OW 9971   1.294   0.922   4.295  0.2731  0.7644 -0.0455
 2482SOL    HW2 9972   1.296   0.997   4.236  2.6098 -0.1371 -1.1776
 2482SOL    HW3 9973   1.368   0.868   4.268 -2.2427 -2.7462 -0.2916
 2482SOL    MW4 9974   1.304   0.924   4.283  0.2495  0.1823 -0.2270
 2483SOL     OW 9975   1.291   1.144   4.131 -0.2020 -0.2966 -0.8070
 2483SOL    HW2 9976   1.220   1.178   4.186  0.4336  0.3022 -0.3565
 2483SOL    HW3 9977   1.264   1.166   4.042 -2.2152 -3.0227 -0.9447
 2483SOL    MW4 9978   1.278   1.151   4.126 -0.3837 -0.5772 -0.7658
 2484SOL     OW 9979   1.544   1.258   4.192  0.7156 -0.8574 -0.3403
 2484SOL    HW2 9980   1.538   1.233   4.284 -1.7315  0.0852 -0.2124
 2484SOL    HW3 9981   1.475   1.208   4.149  0.6532  0.0699 -1.3473
 2484SOL    MW4 9982   1.534   1.248   4.199  0.3846 -0.6106 -0.4563
 2485SOL     OW 9983   1.507   1.540   4.139  1.1869 -0.0181 -0.2430
 2485SOL    HW2 9984   1.425   1.578   4.170  0.8260 -0.5592 -0.5298
 2485SOL    HW3 9985   1.509   1.452   4.177 -0.0441 -1.3089 -3.0263
 2485SOL    MW4 9986   1.496   1.533   4.148  0.9769 -0.2599 -0.6475
 2486SOL     OW 9987   1.281   1.674   4.229 -0.1767 -0.2539 -0.5403
 2486SOL    HW2 9988   1.284   1.748   4.168  2.1494 -1.9831 -2.5942
 2486SOL    HW3 9989   1.199   1.629   4.209 -0.0894 -0.0215 -1.4306
 2486SOL    MW4 9990   1.271   1.678   4.218  0.1419 -0.4513 -0.9294
 2487SOL     OW 9991   1.358   1.907   4.068 -0.1067 -1.1660 -0.1211
 2487SOL    HW2 9992   1.425   1.947   4.123  1.3741 -1.3650 -1.7322
 2487SOL    HW3 9993   1.289   1.974   4.061  0.8600 -0.1626 -0.1398
 2487SOL    MW4 9994   1.357   1.921   4.074  0.2162 -1.0598 -0.3357
 2488SOL     OW 9995   1.565   2.058   4.226  0.2662 -0.1429 -0.0141
 2488SOL    HW2 9996   1.599   2.052   4.315  1.5787  1.1744 -0.3985
 2488SOL    HW3 9997   1.563   2.152   4.208 -0.6038 -0.3685 -1.1410
 2488SOL    MW4 9998   1.569   2.070   4.235  0.3245  0.0010 -0.2136
 2489SOL     OW 9999   1.547   2.317   4.125  0.0003 -0.2303 -0.1397
 2489SOL    HW210000   1.623   2.368   4.152  0.2580 -0.8566  0.3265
 2489SOL    HW310001   1.551   2.319   4.029  1.1917 -1.1070 -0.1299
 2489SOL    MW410002   1.558   2.324   4.116  0.1913 -0.4287 -0.0763
 2490SOL     OW10003   1.360   2.518   4.124  0.3459  0.4302  0.0356
 2490SOL    HW210004   1.384   2.565   4.204 -1.0628 -0.7110  1.1491
 2490SOL    HW310005   1.406   2.434   4.130 -2.4734 -1.0766  1.3656
 2490SOL    MW410006   1.370   2.513   4.135 -0.2118  0.0808  0.3581
 2491SOL     OW10007   1.357   2.653   4.384  0.3490 -0.6118 -0.6631
 2491SOL    HW210008   1.434   2.694   4.344  0.4273 -0.1490 -0.0454
 2491SOL    HW310009   1.282   2.694   4.341  0.4254  0.2660  0.0255
 2491SOL    MW410010   1.357   2.664   4.373  0.3693 -0.4349 -0.4911
 2492SOL     OW10011   1.581   2.797   4.286  0.2838 -0.0042 -0.2010
 2492SOL    HW210012   1.634   2.778   4.364  0.7324  0.8133 -0.3026
 2492SOL    HW310013   1.595   2.890   4.269  0.6675 -0.3061 -1.6227
 2492SOL    MW410014   1.590   2.807   4.294  0.3936  0.0637 -0.4020
 2493SOL     OW10015   1.622   3.042   4.175  0.1735 -0.0188 -0.2989
 2493SOL    HW210016   1.699   3.097   4.194 -0.2432  0.0251  1.3434
 2493SOL    HW310017   1.547   3.098   4.195 -0.3151  0.0519 -2.2146
 2493SOL    MW410018   1.622   3.057   4.180  0.0540 -0.0036 -0.3352
 2494SOL     OW10019   1.397   3.217   4.206 -0.0047 -0.0428  0.3229
 2494SOL    HW210020   1.350   3.220   4.289 -0.9236  0.0254 -0.1981
 2494SOL    HW310021   1.413   3.308   4.184  0.1869 -0.0591  0.3922
 2494SOL    MW410022   1.393   3.229   4.214 -0.1006 -0.0362  0.2632
 2495SOL     OW10023   1.414   3.489   4.155 -0.3574  0.0978 -0.5249
 2495SOL    HW210024   1.338   3.531   4.195 -1.2907 -1.2767 -0.8106
 2495SOL    HW310025   1.399   3.496   4.060 -0.3245 -0.5392 -0.5770
 2495SOL    MW410026   1.402   3.495   4.147 -0.4761 -0.1678 -0.5693
 2496SOL     OW10027   1.650   3.619   4.247 -0.2488 -0.3843 -0.2768
 2496SOL    HW210028   1.656   3.626   4.342 -1.4538 -0.4924 -0.1793
 2496SOL    HW310029   1.571   3.566   4.232 -1.7423  2.0555 -1.3788
 2496SOL    MW410030   1.640   3.613   4.258 -0.6050 -0.0768 -0.4096
 2497SOL     OW10031   1.599   3.852   4.107  0.7860 -0.1026 -0.0330
 2497SOL    HW210032   1.517   3.873   4.151  1.2023 -1.1606  1.2810
 2497SOL    HW310033   1.631   3.774   4.152  2.8225  0.6599 -0.1095
 2497SOL    MW410034   1.593   3.845   4.118  1.1096 -0.1416  0.1302
 2498SOL     OW10035   1.369   3.995   4.222  0.3565  0.1190  0.1318
 2498SOL    HW210036   1.400   3.989   4.313 -1.1500  1.5706  0.7895
 2498SOL    HW310037   1.381   4.087   4.199 -0.2865 -0.0115 -0.7642
 2498SOL    MW410038   1.374   4.006   4.231  0.0731  0.2933  0.1001
 2499SOL     OW10039   1.385   4.270   4.160 -0.3343  0.0645  0.5667
 2499SOL    HW210040   1.461   4.315   4.197 -0.0992 -0.6478  0.9568
 2499SOL    HW310041   1.384   4.296   4.068 -0.7905  1.6749  0.9984
 2499SOL    MW410042   1.395   4.279   4.153 -0.3635  0.1831  0.6747
 2500SOL     OW10043   1.608   4.414   4.276 -0.1210  0.1392  0.2500
 2500SOL    HW210044   1.612   4.503   4.241 -1.2742  0.4594  0.8876
 2500SOL    HW310045   1.672   4.364   4.225 -2.1405  0.4550 -2.6958
 2500SOL    MW410046   1.617   4.419   4.265 -0.5395  0.2232 -0.0539
 2501SOL     OW10047   2.018   4.656   4.129 -0.4340  0.0380  0.2357
 2501SOL    HW210048   1.936   4.680   4.172 -0.2464  0.3969  0.3987
 2501SOL    HW310049   2.012   4.696   4.042 -0.8562 -0.7728 -0.1055
 2501SOL    MW410050   2.007   4.665   4.123 -0.4652 -0.0215  0.2122
 2502SOL     OW10051   1.795   0.122   4.269 -0.2014 -0.1888  0.0099
 2502SOL    HW210052   1.790   0.134   4.364 -3.4444  0.6815 -0.2063
 2502SOL    HW310053   1.801   0.212   4.235  2.0589 -0.5440 -0.5948
 2502SOL    MW410054   1.795   0.136   4.277 -0.3310 -0.1208 -0.0982
 2503SOL     OW10055   1.771   0.376   4.144  0.4098 -0.0124  0.1759
 2503SOL    HW210056   1.848   0.424   4.174  0.1041  1.4926 -1.3683
 2503SOL    HW310057   1.697   0.421   4.184  0.2439 -0.5501  0.4775
 2503SOL    MW410058   1.772   0.388   4.153  0.3474  0.1152  0.0124
 2504SOL     OW10059   1.984   0.515   4.245 -0.3519 -0.6213 -0.0381
 2504SOL    HW210060   2.004   0.553   4.331 -0.0718 -1.3389  0.2220
 2504SOL    HW310061   2.063   0.468   4.221 -0.1505  0.2576 -1.0664
 2504SOL    MW410062   1.997   0.513   4.253 -0.2884 -0.6001 -0.1392
 2505SOL     OW10063   1.990   0.757   4.123 -0.1594 -0.1851 -0.3181
 2505SOL    HW210064   2.079   0.788   4.140 -0.2971 -0.4696  0.9491
 2505SOL    HW310065   1.986   0.671   4.165 -0.0398 -1.6091 -3.1131
 2505SOL    MW410066   2.001   0.750   4.131 -0.1619 -0.4105 -0.5198
 2506SOL     OW10067   1.745   0.893   4.209 -0.1401 -0.3717 -0.3046
 2506SOL    HW210068   1.757   0.981   4.173  0.2305  0.2229  1.2442
 2506SOL    HW310069   1.826   0.847   4.186  1.1097  0.7230  1.7881
 2506SOL    MW410070   1.757   0.899   4.201  0.0737 -0.1488  0.1760
 2507SOL     OW10071   1.793   1.145   4.128  0.2575  1.0042 -0.0979
 2507SOL    HW210072   1.859   1.181   4.186  0.2267 -0.1506  0.6822
 2507SOL    HW310073   1.709   1.174   4.164  0.2371  0.2597  0.4678
 2507SOL    MW410074   1.791   1.153   4.140  0.2508  0.7535  0.0792
 2508SOL     OW10075   1.995   1.223   4.290 -0.4672  0.3122  0.0917
 2508SOL    HW210076   2.056   1.186   4.226  0.0789  0.0548  0.7680
 2508SOL    HW310077   1.981   1.312   4.260  0.2513  0.3782 -0.0564
 2508SOL    MW410078   2.001   1.230   4.277 -0.3002  0.2871  0.1616
 2509SOL     OW10079   1.969   1.470   4.150 -0.0382 -0.1272  0.0847
 2509SOL    HW210080   2.045   1.498   4.201  0.7710 -0.7887 -0.7312
 2509SOL    HW310081   1.996   1.482   4.059 -0.5806 -1.2101 -0.2251
 2509SOL    MW410082   1.982   1.475   4.145 -0.0030 -0.3574 -0.0639
 2510SOL     OW10083   1.751   1.634   4.232 -0.5650 -0.0110 -0.1424
 2510SOL    HW210084   1.812   1.579   4.183 -0.7532 -0.9795  0.6818
 2510SOL    HW310085   1.665   1.596   4.214 -1.0139  1.7557 -1.8293
 2510SOL    MW410086   1.748   1.622   4.223 -0.6490  0.0943 -0.2556
 2511SOL     OW10087   1.801   1.908   4.141 -0.3330  0.0965 -0.0379
 2511SOL    HW210088   1.787   1.822   4.181 -0.4116 -0.7843 -1.8794
 2511SOL    HW310089   1.727   1.961   4.170 -1.2789 -1.0276 -0.3664
 2511SOL    MW410090   1.789   1.903   4.150 -0.4683 -0.1681 -0.3242
 2512SOL     OW10091   1.975   1.640   4.537 -0.0456 -0.0286 -0.1297
 2512SOL    HW210092   1.887   1.671   4.517  0.4728  0.7849 -1.2270
 2512SOL    HW310093   2.010   1.703   4.600 -0.8898 -1.3708  1.7220
 2512SOL    MW410094   1.968   1.652   4.543 -0.0886 -0.0985 -0.0305
 2513SOL     OW10095   2.026   2.341   4.169  0.0065  0.3930 -0.3490
 2513SOL    HW210096   2.034   2.254   4.207 -0.8031  0.0132 -1.0086
 2513SOL    HW310097   2.052   2.330   4.077  1.3670  1.1681 -0.0580
 2513SOL    MW410098   2.030   2.328   4.162  0.0792  0.4451 -0.3982
 2514SOL     OW10099   1.776   2.437   4.190  0.3933 -0.4388 -0.2883
 2514SOL    HW210100   1.764   2.433   4.285 -3.5107 -1.1827 -0.7323
 2514SOL    HW310101   1.852   2.382   4.173  0.2233 -1.5331  2.2878
 2514SOL    MW410102   1.784   2.429   4.200 -0.1442 -0.6809 -0.0072
 2515SOL     OW10103   1.762   2.713   4.109  0.2863 -0.1789 -0.2012
 2515SOL    HW210104   1.759   2.618   4.117  2.5552 -0.1316  1.8605
 2515SOL    HW310105   1.688   2.744   4.161  0.3318 -0.7886  0.2346
 2515SOL    MW410106   1.752   2.705   4.117  0.5916 -0.2532  0.1283
 2516SOL     OW10107   2.033   2.829   4.204 -0.5430 -0.1974 -0.2446
 2516SOL    HW210108   2.033   2.828   4.299 -1.1887  1.8617 -0.2144
 2516SOL    HW310109   1.948   2.793   4.179 -1.6332  2.1626  0.0120
 2516SOL    MW410110   2.022   2.824   4.213 -0.7722  0.3855 -0.2065
 2517SOL     OW10111   2.041   3.104   4.145 -0.0898  0.3665 -0.0084
 2517SOL    HW210112   2.046   3.011   4.163 -1.7970  0.3734  0.5403
 2517SOL    HW310113   2.026   3.110   4.051 -1.1744  0.0440  0.1376
 2517SOL    MW410114   2.040   3.093   4.135 -0.4585  0.3247  0.0834
 2518SOL     OW10115   1.828   3.207   4.279  0.0848  0.0047  0.1115
 2518SOL    HW210116   1.820   3.290   4.233 -0.9763 -0.5221 -0.6893
 2518SOL    HW310117   1.899   3.161   4.235 -1.0286 -0.5591 -1.1053
 2518SOL    MW410118   1.836   3.212   4.267 -0.2021 -0.1392 -0.1545
 2519SOL     OW10119   1.823   3.444   4.131 -0.4649  0.1944  0.2265
 2519SOL    HW210120   1.753   3.499   4.165 -1.0228  0.1702 -0.8468
 2519SOL    HW310121   1.809   3.444   4.036  2.2872  1.9658 -0.2351
 2519SOL    MW410122   1.811   3.451   4.123 -0.1755  0.4249  0.0243
 2520SOL     OW10123   2.043   3.590   4.252  0.0612  0.0303 -0.1460
 2520SOL    HW210124   2.033   3.681   4.228 -1.4484 -0.3577 -1.0446
 2520SOL    HW310125   1.961   3.548   4.225  0.6045 -1.5271  0.5187
 2520SOL    MW410126   2.031   3.596   4.246 -0.0660 -0.2263 -0.1774
 2521SOL     OW10127   2.034   3.838   4.112 -0.2095  0.5203 -0.3040
 2521SOL    HW210128   1.957   3.888   4.137 -1.8478 -1.2772 -1.6476
 2521SOL    HW310129   2.029   3.833   4.016  1.9862  1.0067 -0.4771
 2521SOL    MW410130   2.023   3.844   4.102 -0.1357  0.3471 -0.5040
 2522SOL     OW10131   1.812   4.002   4.197 -0.2198  0.2320 -0.3101
 2522SOL    HW210132   1.794   4.094   4.175  0.2117  0.0717 -1.3568
 2522SOL    HW310133   1.727   3.960   4.195 -0.2588  0.3344 -1.1885
 2522SOL    MW410134   1.799   4.009   4.193 -0.1680  0.2241 -0.5636
 2523SOL     OW10135   1.781   4.263   4.119  0.0612  0.2034 -0.3558
 2523SOL    HW210136   1.862   4.307   4.146 -0.6278  2.2687 -1.5328
 2523SOL    HW310137   1.789   4.254   4.024 -0.0380 -1.8144 -0.1923
 2523SOL    MW410138   1.793   4.268   4.110 -0.0428  0.2098 -0.4897
 2524SOL     OW10139   2.015   4.388   4.196 -0.2378  0.4187  0.2930
 2524SOL    HW210140   2.044   4.381   4.287 -0.1007  0.1790  0.2314
 2524SOL    HW310141   2.013   4.482   4.178 -0.6898  0.4842  0.6832
 2524SOL    MW410142   2.019   4.399   4.205 -0.2792  0.3958  0.3362
 2525SOL     OW10143   2.446   4.636   4.089 -0.4711 -0.1668 -0.1252
 2525SOL    HW210144   2.522   4.689   4.113 -0.2853 -0.7603  0.6665
 2525SOL    HW310145   2.470   4.547   4.117 -0.8616 -0.6265 -1.2133
 2525SOL    MW410146   2.460   4.631   4.096 -0.4978 -0.3057 -0.1640
 2526SOL     OW10147   2.244   0.110   4.237  0.1705 -0.1387  0.1222
 2526SOL    HW210148   2.313   0.052   4.206 -0.9036 -0.8714 -0.9996
 2526SOL    HW310149   2.164   0.074   4.198 -0.7241  1.1662  0.7058
 2526SOL    MW410150   2.242   0.098   4.228 -0.0889 -0.0632  0.0515
 2527SOL     OW10151   2.210   0.394   4.134 -0.1312  0.3092 -0.5016
 2527SOL    HW210152   2.212   0.302   4.161 -0.4025  0.7450  1.0417
 2527SOL    HW310153   2.227   0.392   4.040 -1.1910 -1.3989 -0.6605
 2527SOL    MW410154   2.213   0.382   4.125 -0.3068  0.1414 -0.3190
 2528SOL     OW10155   2.437   0.504   4.204  0.0681  0.2917  0.5643
 2528SOL    HW210156   2.452   0.472   4.293  0.6065  0.2844  0.4692
 2528SOL    HW310157   2.350   0.470   4.181  1.0648 -2.0031  0.0708
 2528SOL    MW410158   2.427   0.495   4.213  0.2708 -0.0120  0.4869
 2529SOL     OW10159   2.455   0.785   4.144  0.3276  0.5819 -0.4348
 2529SOL    HW210160   2.433   0.694   4.166  1.6220  0.3638  0.0694
 2529SOL    HW310161   2.451   0.789   4.049 -0.4044  0.1686 -0.4198
 2529SOL    MW410162   2.452   0.774   4.135  0.4020  0.4987 -0.3667
 2530SOL     OW10163   2.203   0.880   4.248  0.6143 -0.0932  0.5478
 2530SOL    HW210164   2.183   0.881   4.341  1.7127  0.3636  0.7809
 2530SOL    HW310165   2.296   0.860   4.243  0.4711 -0.5378 -0.4700
 2530SOL    MW410166   2.212   0.877   4.259  0.7401 -0.0916  0.4439
 2531SOL     OW10167   2.203   1.118   4.124  0.0095 -0.3953  0.0852
 2531SOL    HW210168   2.289   1.158   4.138 -0.6236  0.6619  1.1055
 2531SOL    HW310169   2.207   1.035   4.172  0.9914 -1.1018 -1.1975
 2531SOL    MW410170   2.215   1.112   4.132  0.0556 -0.3489  0.0505
 2532SOL     OW10171   2.445   1.258   4.172 -0.4920 -0.4515  0.1012
 2532SOL    HW210172   2.439   1.279   4.266 -0.5880 -0.3001  0.0617
 2532SOL    HW310173   2.522   1.202   4.165 -0.9072 -1.0552  0.3726
 2532SOL    MW410174   2.454   1.254   4.184 -0.5593 -0.5112  0.1316
 2533SOL     OW10175   2.437   1.545   4.119 -0.0578 -0.1801  0.3636
 2533SOL    HW210176   2.433   1.450   4.131  1.6540 -0.2925  0.1750
 2533SOL    HW310177   2.441   1.557   4.025 -0.7377  0.0999  0.3725
 2533SOL    MW410178   2.437   1.534   4.108  0.0782 -0.1580  0.3400
 2534SOL     OW10179   2.156   1.535   4.344  0.6051  0.0763  0.3685
 2534SOL    HW210180   2.113   1.567   4.423 -1.6782  0.4103 -0.9603
 2534SOL    HW310181   2.230   1.595   4.331 -1.7967  2.9922 -0.3414
 2534SOL    MW410182   2.160   1.548   4.353 -0.0129  0.5053  0.0992
 2535SOL     OW10183   2.276   1.969   4.128  0.3999  0.6035 -0.1606
 2535SOL    HW210184   2.331   2.041   4.158  2.0689 -0.0466 -1.5670
 2535SOL    HW310185   2.310   1.892   4.173  1.0165  0.1146 -1.4319
 2535SOL    MW410186   2.288   1.969   4.138  0.7014  0.4531 -0.5136
 2536SOL     OW10187   2.389   2.201   4.238 -0.1644  0.3306  0.8700
 2536SOL    HW210188   2.329   2.217   4.312  0.8707  1.4039  1.4943
 2536SOL    HW310189   2.473   2.184   4.280  0.5798  1.6250 -0.0768
 2536SOL    MW410190   2.392   2.201   4.254  0.0706  0.6430  0.8273
 2537SOL     OW10191   2.479   2.430   4.128 -0.1906  0.1695  0.2790
 2537SOL    HW210192   2.441   2.344   4.148 -0.1712  0.2121  0.5049
 2537SOL    HW310193   2.485   2.432   4.033 -0.4848  0.0471  0.2563
 2537SOL    MW410194   2.475   2.419   4.118 -0.2265  0.1590  0.3061
 2538SOL     OW10195   2.235   2.506   4.277  0.0814  0.2422 -0.1961
 2538SOL    HW210196   2.311   2.447   4.273 -0.2245 -0.1001 -1.3302
 2538SOL    HW310197   2.163   2.454   4.241 -0.4473  0.9278 -0.1214
 2538SOL    MW410198   2.236   2.491   4.271 -0.0286  0.2878 -0.3357
 2539SOL     OW10199   2.268   2.712   4.092  0.0347 -0.0075  0.1107
 2539SOL    HW210200   2.267   2.622   4.124 -0.3235 -0.1412 -0.2882
 2539SOL    HW310201   2.186   2.750   4.123  0.4265  0.3385  0.7341
 2539SOL    MW410202   2.257   2.705   4.100  0.0389  0.0203  0.1411
 2540SOL     OW10203   2.474   2.862   4.203 -0.0149  0.1489 -0.4135
 2540SOL    HW210204   2.475   2.877   4.298  0.9715  2.3302 -0.7292
 2540SOL    HW310205   2.387   2.827   4.185 -0.0912 -0.6086  1.3426
 2540SOL    MW410206   2.462   2.860   4.213  0.1049  0.3369 -0.2236
 2541SOL     OW10207   2.493   3.123   4.141 -0.7233 -0.2162  0.0469
 2541SOL    HW210208   2.405   3.139   4.177 -0.4706 -1.7300  1.4113
 2541SOL    HW310209   2.505   3.029   4.150  1.1312  0.0155  0.0882
 2541SOL    MW410210   2.483   3.113   4.147 -0.4451 -0.3855  0.2322
 2542SOL     OW10211   2.265   3.224   4.236  0.3643 -0.2853  0.3843
 2542SOL    HW210212   2.276   3.305   4.186  1.3096 -2.1384 -2.5473
 2542SOL    HW310213   2.188   3.182   4.197  0.2617 -1.1040  1.4416
 2542SOL    MW410214   2.257   3.229   4.224  0.4754 -0.6378  0.1364
 2543SOL     OW10215   2.283   3.494   4.130  0.1944 -0.4190 -0.6299
 2543SOL    HW210216   2.350   3.559   4.151  0.5836 -1.0703  0.1449
 2543SOL    HW310217   2.203   3.530   4.169  0.1100  0.2827 -1.4240
 2543SOL    MW410218   2.281   3.508   4.137  0.2344 -0.4125 -0.6328
 2544SOL     OW10219   2.481   3.695   4.223 -0.0852  0.4361 -0.4372
 2544SOL    HW210220   2.514   3.712   4.311  0.4972  0.0378 -0.5791
 2544SOL    HW310221   2.484   3.781   4.180  1.7050  0.2239 -0.7601
 2544SOL    MW410222   2.486   3.709   4.229  0.2277  0.3555 -0.4988
 2545SOL     OW10223   2.465   3.948   4.131 -0.1916  0.5733 -0.2170
 2545SOL    HW210224   2.547   3.983   4.166 -0.4420  1.0044 -0.0462
 2545SOL    HW310225   2.475   3.954   4.036 -0.4425  1.6433 -0.1897
 2545SOL    MW410226   2.477   3.954   4.123 -0.2575  0.7715 -0.1912
 2546SOL     OW10227   2.235   3.998   4.252  0.2921  0.2853 -0.1224
 2546SOL    HW210228   2.318   3.986   4.204  0.6360 -0.6163  0.7006
 2546SOL    HW310229   2.170   3.950   4.200  0.4646  0.1871 -0.2488
 2546SOL    MW410230   2.238   3.990   4.239  0.3603  0.1533 -0.0305
 2547SOL     OW10231   2.255   4.231   4.102 -0.0778 -0.4505 -0.0642
 2547SOL    HW210232   2.241   4.156   4.160 -0.3851 -1.2550 -1.1717
 2547SOL    HW310233   2.186   4.293   4.126  1.0622  0.1350  1.8667
 2547SOL    MW410234   2.244   4.230   4.113  0.0319 -0.4797  0.0443
 2548SOL     OW10235   2.469   4.381   4.196  0.1194  0.3427 -0.0897
 2548SOL    HW210236   2.550   4.338   4.169  0.1619  0.1748  0.3024
 2548SOL    HW310237   2.400   4.326   4.160  0.1515 -0.8464  1.5680
 2548SOL    MW410238   2.471   4.368   4.188  0.1292  0.1636  0.1807
 2549SOL     OW10239   2.911   0.056   4.141  0.0636 -0.0121  0.4475
 2549SOL    HW210240   2.958   0.094   4.216 -2.2099 -0.1207  1.9953
 2549SOL    HW310241   2.908  -0.038   4.160  0.6523 -0.2290 -0.4891
 2549SOL    MW410242   2.917   0.049   4.154 -0.1585 -0.0551  0.5283
 2550SOL     OW10243   2.647   0.131   4.185 -0.0391  0.1054  0.1527
 2550SOL    HW210244   2.643   0.220   4.149  0.0496 -0.1129 -0.3975
 2550SOL    HW310245   2.738   0.104   4.171 -0.0185  0.0010  0.4922
 2550SOL    MW410246   2.658   0.139   4.178 -0.0248  0.0628  0.1249
 2551SOL     OW10247   2.669   0.384   4.097  0.0989  0.2758  0.3368
 2551SOL    HW210248   2.603   0.450   4.116 -0.6983 -0.3451 -0.2635
 2551SOL    HW310249   2.668   0.376   4.001  0.4790 -0.3105  0.3824
 2551SOL    MW410250   2.660   0.392   4.087  0.0439  0.1165  0.2637
 2552SOL     OW10251   2.938   0.430   4.208 -0.0431  0.0606 -0.4955
 2552SOL    HW210252   2.958   0.524   4.205  0.1341  0.0240 -0.4264
 2552SOL    HW310253   2.863   0.420   4.149 -1.2695  0.5416  0.9494
 2552SOL    MW410254   2.931   0.441   4.199 -0.1817  0.1192 -0.2961
 2553SOL     OW10255   2.903   0.725   4.179 -0.3732 -0.1676  0.0260
 2553SOL    HW210256   2.977   0.775   4.212 -0.5846  0.5245 -0.5253
 2553SOL    HW310257   2.911   0.730   4.084 -1.1286 -0.0677 -0.0363
 2553SOL    MW410258   2.913   0.733   4.171 -0.5007 -0.0631 -0.0548
 2554SOL     OW10259   2.689   0.879   4.265  0.2073 -0.4731 -0.2512
 2554SOL    HW210260   2.751   0.819   4.224 -0.1127 -2.1218  1.6081
 2554SOL    HW310261   2.604   0.852   4.231  0.3496  1.0238 -1.8792
 2554SOL    MW410262   2.686   0.868   4.255  0.1838 -0.4931 -0.2208
 2555SOL     OW10263   2.690   1.138   4.173  0.0866  0.2221  0.1894
 2555SOL    HW210264   2.684   1.050   4.212 -0.7816  0.0197 -0.3826
 2555SOL    HW310265   2.720   1.123   4.084 -0.4595  0.4693 -0.0389
 2555SOL    MW410266   2.693   1.124   4.167 -0.0999  0.2279  0.0839
 2556SOL     OW10267   2.901   1.325   4.213  0.2402  0.3953  0.0103
 2556SOL    HW210268   2.981   1.275   4.202  0.4032  0.6662 -0.0474
 2556SOL    HW310269   2.831   1.260   4.211  0.5789 -0.0486  1.9097
 2556SOL    MW410270   2.902   1.310   4.211  0.3066  0.3725  0.2532
 2557SOL     OW10271   2.919   1.575   4.077 -0.1171 -0.0953  0.0947
 2557SOL    HW210272   2.986   1.608   4.136 -0.1170  0.2946 -0.1239
 2557SOL    HW310273   2.895   1.489   4.113  0.9857 -0.5375 -0.2174
 2557SOL    MW410274   2.924   1.568   4.089  0.0286 -0.1023  0.0248
 2558SOL     OW10275   2.685   1.680   4.182  0.3111 -0.1050  0.3859
 2558SOL    HW210276   2.767   1.637   4.159  0.5040  0.5176 -0.0711
 2558SOL    HW310277   2.618   1.628   4.136  0.7114  1.2681 -1.8119
 2558SOL    MW410278   2.687   1.667   4.173  0.3891  0.1583  0.0358
 2559SOL     OW10279   2.740   1.950   4.115 -0.1679 -0.3516 -0.2223
 2559SOL    HW210280   2.731   1.859   4.141 -1.5609  0.1347  1.0474
 2559SOL    HW310281   2.714   1.951   4.022  0.8542 -1.4031 -0.5263
 2559SOL    MW410282   2.735   1.938   4.106 -0.2167 -0.4262 -0.0944
 2560SOL     OW10283   2.964   2.096   4.223  0.0932 -0.0107 -0.0171
 2560SOL    HW210284   2.899   2.055   4.166  2.0352 -1.0370 -1.5460
 2560SOL    HW310285   2.981   2.181   4.182  1.6282 -0.8264 -1.0898
 2560SOL    MW410286   2.957   2.102   4.210  0.5519 -0.2537 -0.3610
 2561SOL     OW10287   2.978   2.361   4.116 -0.6092 -0.3399  0.1533
 2561SOL    HW210288   3.055   2.404   4.154 -0.8988  0.2472  0.0738
 2561SOL    HW310289   2.906   2.383   4.176 -0.8114 -0.4878 -0.0356
 2561SOL    MW410290   2.979   2.370   4.129 -0.6740 -0.2818  0.1183
 2562SOL     OW10291   2.746   2.376   4.299  0.3644 -0.2462  0.6793
 2562SOL    HW210292   2.668   2.423   4.268  1.0911  0.2535 -0.3926
 2562SOL    HW310293   2.712   2.292   4.330 -0.4176 -0.6501 -1.2140
 2562SOL    MW410294   2.731   2.371   4.299  0.3569 -0.2337  0.2880
 2563SOL     OW10295   2.671   2.731   4.082 -0.5179  0.3563 -0.2289
 2563SOL    HW210296   2.671   2.655   4.139  0.6047  0.6677  0.2061
 2563SOL    HW310297   2.602   2.788   4.117 -1.4712 -0.5211 -0.6600
 2563SOL    MW410298   2.662   2.729   4.094 -0.4954  0.2818 -0.2284
 2564SOL     OW10299   2.917   2.855   4.166 -0.0761 -0.1196 -0.4400
 2564SOL    HW210300   2.906   2.875   4.259 -0.0220  0.9296 -0.6496
 2564SOL    HW310301   2.830   2.825   4.138 -0.3704  0.5662 -0.2815
 2564SOL    MW410302   2.904   2.854   4.174 -0.1080  0.1094 -0.4473
 2565SOL     OW10303   2.913   3.114   4.072 -0.0669 -0.0374 -0.2116
 2565SOL    HW210304   2.914   3.024   4.104  2.0515 -0.1620 -0.5280
 2565SOL    HW310305   2.926   3.106   3.978 -0.6177  0.5736 -0.3421
 2565SOL    MW410306   2.915   3.101   4.064  0.1402  0.0267 -0.2704
 2566SOL     OW10307   2.709   3.295   4.193  0.1567 -0.0124  0.2728
 2566SOL    HW210308   2.775   3.238   4.155 -0.2875 -0.2044 -0.2157
 2566SOL    HW310309   2.625   3.255   4.168 -0.1372 -0.0416  1.2985
 2566SOL    MW410310   2.707   3.282   4.185  0.0596 -0.0415  0.3438
 2567SOL     OW10311   2.704   3.573   4.086 -0.2053 -0.4221  0.3625
 2567SOL    HW210312   2.699   3.490   4.134 -0.2544 -0.1389  0.8446
 2567SOL    HW310313   2.632   3.625   4.121 -0.5745 -0.4156 -0.4046
 2567SOL    MW410314   2.694   3.569   4.097 -0.2606 -0.3839  0.3247
 2568SOL     OW10315   2.963   3.587   4.202 -0.3379 -0.1014 -0.2270
 2568SOL    HW210316   2.939   3.591   4.295 -0.2153 -1.2442 -0.1432
 2568SOL    HW310317   2.880   3.590   4.156 -0.4407 -0.2459 -0.0537
 2568SOL    MW410318   2.949   3.588   4.208 -0.3352 -0.2711 -0.1931
 2569SOL     OW10319   2.977   3.874   4.117  0.1995  0.0070  0.0226
 2569SOL    HW210320   3.028   3.938   4.166 -0.0843  0.7174 -0.5936
 2569SOL    HW310321   3.019   3.790   4.135  1.3823  0.5384 -0.2041
 2569SOL    MW410322   2.990   3.871   4.126  0.3181  0.1709 -0.0887
 2570SOL     OW10323   2.728   4.006   4.228  0.0976 -0.1381  0.2520
 2570SOL    HW210324   2.725   4.077   4.164 -0.8241 -0.8440 -0.5014
 2570SOL    HW310325   2.782   3.938   4.187 -2.7309 -1.7303 -1.0038
 2570SOL    MW410326   2.735   4.006   4.214 -0.3974 -0.4411 -0.0124
 2571SOL     OW10327   2.688   4.246   4.099  0.1860 -0.2363 -0.1292
 2571SOL    HW210328   2.764   4.302   4.115  0.5996 -0.8892  0.1917
 2571SOL    HW310329   2.688   4.233   4.004  0.3439 -0.0599 -0.1546
 2571SOL    MW410330   2.698   4.252   4.089  0.2613 -0.2990 -0.0906
 2572SOL     OW10331   2.869   4.437   4.200  0.1272  0.0432  0.1666
 2572SOL    HW210332   2.842   4.423   4.291 -0.7755  0.8140  0.0283
 2572SOL    HW310333   2.961   4.413   4.198  0.2506  0.4084  1.3732
 2572SOL    MW410334   2.877   4.432   4.212  0.0246  0.1931  0.3076
 2573SOL     OW10335   3.291   0.065   4.129  0.3082  0.2247 -0.4781
 2573SOL    HW210336   3.377   0.082   4.167  0.5475 -1.8233 -0.0283
 2573SOL    HW310337   3.272  -0.026   4.153 -0.4411 -0.4689 -3.5309
 2573SOL    MW410338   3.299   0.055   4.137  0.2408 -0.1370 -0.8216
 2574SOL     OW10339   3.047   0.163   4.374  0.4171  0.4096 -0.1895
 2574SOL    HW210340   3.035   0.247   4.419  1.1014 -0.0069  0.7761
 2574SOL    HW310341   3.126   0.126   4.412 -0.7996 -1.4473  0.5889
 2574SOL    MW410342   3.056   0.169   4.385  0.3469  0.1097  0.0405
 2575SOL     OW10343   3.184   0.326   4.137  0.1474 -0.3429  0.1531
 2575SOL    HW210344   3.186   0.231   4.154 -0.3685 -0.2506  0.7756
 2575SOL    HW310345   3.101   0.355   4.175  0.3380  0.3742  0.0302
 2575SOL    MW410346   3.173   0.317   4.145  0.1044 -0.2361  0.2189
 2576SOL     OW10347   3.355   0.478   4.286 -0.0325 -0.5883  0.2166
 2576SOL    HW210348   3.438   0.443   4.253  0.3554 -1.4976  2.0608
 2576SOL    HW310349   3.288   0.435   4.235  0.6268  0.5871 -1.7019
 2576SOL    MW410350   3.357   0.468   4.275  0.1056 -0.5532  0.2065
 2577SOL     OW10351   3.328   0.723   4.145  0.4138 -0.1137 -0.0031
 2577SOL    HW210352   3.259   0.776   4.185 -0.0325 -0.1834 -0.6898
 2577SOL    HW310353   3.334   0.646   4.200  0.4979  0.2637  0.5246
 2577SOL    MW410354   3.320   0.720   4.158  0.3662 -0.0731 -0.0238
 2578SOL     OW10355   3.131   0.882   4.241 -0.0612  0.3096  0.0087
 2578SOL    HW210356   3.161   0.886   4.332  0.8834 -1.4647 -0.1955
 2578SOL    HW310357   3.152   0.967   4.204  0.4473  0.6966  1.1896
 2578SOL    MW410358   3.138   0.893   4.248  0.1307  0.1265  0.1378
 2579SOL     OW10359   3.133   1.156   4.167 -0.1920  0.3341 -0.0304
 2579SOL    HW210360   3.222   1.187   4.186  0.3522 -1.6154  0.7926
 2579SOL    HW310361   3.125   1.163   4.072  0.4629  1.5122 -0.0082
 2579SOL    MW410362   3.144   1.161   4.157 -0.0336  0.2322  0.0811
 2580SOL     OW10363   3.383   1.270   4.229  0.5200  0.1443 -0.7828
 2580SOL    HW210364   3.370   1.262   4.324 -0.0804  0.1149 -0.8618
 2580SOL    HW310365   3.389   1.364   4.213  1.4989  0.1114 -0.6055
 2580SOL    MW410366   3.382   1.281   4.239  0.5698  0.1360 -0.7701
 2581SOL     OW10367   3.378   1.560   4.140 -0.2301 -0.4549 -0.1215
 2581SOL    HW210368   3.296   1.603   4.162 -0.5397 -0.4008 -1.3180
 2581SOL    HW310369   3.376   1.552   4.044  0.8764 -1.0068 -0.1127
 2581SOL    MW410370   3.367   1.564   4.130 -0.1249 -0.5206 -0.2789
 2582SOL     OW10371   3.125   1.690   4.216 -0.2411 -0.1696 -0.6385
 2582SOL    HW210372   3.134   1.689   4.311 -0.9758  0.6650 -0.5537
 2582SOL    HW310373   3.141   1.782   4.191 -1.7660 -0.0273 -1.1443
 2582SOL    MW410374   3.128   1.702   4.225 -0.5388 -0.0407 -0.6943
 2583SOL     OW10375   3.169   1.934   4.105  0.0323 -0.4688 -0.1595
 2583SOL    HW210376   3.246   1.980   4.138  0.4171 -1.7375  0.7790
 2583SOL    HW310377   3.094   1.985   4.136  0.4930  1.0888 -1.5597
 2583SOL    MW410378   3.169   1.947   4.114  0.1438 -0.4306 -0.2208
 2584SOL     OW10379   3.379   2.056   4.210 -0.0135  0.3601  0.4114
 2584SOL    HW210380   3.461   2.021   4.174  0.8603  0.2347  2.4689
 2584SOL    HW310381   3.375   2.145   4.175  0.7294  0.1937 -0.1352
 2584SOL    MW410382   3.390   2.063   4.200  0.2000  0.3216  0.6108
 2585SOL     OW10383   3.382   2.329   4.155 -0.3965 -0.0190 -0.4331
 2585SOL    HW210384   3.462   2.346   4.204 -0.6655  0.6091 -0.2063
 2585SOL    HW310385   3.406   2.341   4.063  0.1817 -1.4874 -0.4832
 2585SOL    MW410386   3.396   2.332   4.149 -0.3557 -0.1297 -0.4101
 2586SOL     OW10387   3.185   2.502   4.220  0.3045 -0.3776 -0.0202
 2586SOL    HW210388   3.193   2.591   4.187 -2.5817  0.0363  0.3374
 2586SOL    HW310389   3.268   2.460   4.195  1.0473  1.9231 -1.5544
 2586SOL    MW410390   3.197   2.508   4.212  0.0219 -0.0196 -0.1750
 2587SOL     OW10391   3.160   2.753   4.117  0.0710 -0.5844 -0.2256
 2587SOL    HW210392   3.230   2.793   4.168 -0.0975 -0.6021  0.0212
 2587SOL    HW310393   3.080   2.789   4.154 -0.0377 -0.3432 -0.7001
 2587SOL    MW410394   3.159   2.763   4.129  0.0346 -0.5550 -0.2565
 2588SOL     OW10395   3.367   2.839   4.273  0.4041 -0.1043 -0.4459
 2588SOL    HW210396   3.442   2.785   4.247  0.4258 -0.5193  0.4737
 2588SOL    HW310397   3.370   2.914   4.213  2.1783  0.4110  0.2603
 2588SOL    MW410398   3.377   2.842   4.261  0.6409 -0.0911 -0.2322
 2589SOL     OW10399   3.350   3.037   4.100 -0.5567  0.7701  0.2651
 2589SOL    HW210400   3.273   3.090   4.120 -1.3709 -1.0037  1.9900
 2589SOL    HW310401   3.351   3.031   4.004 -1.3952  2.4522  0.1249
 2589SOL    MW410402   3.340   3.043   4.090 -0.7749  0.7579  0.4740
 2590SOL     OW10403   3.144   3.180   4.206  0.1796  0.0962  0.2451
 2590SOL    HW210404   3.161   3.271   4.186  1.0549 -0.3877 -1.2663
 2590SOL    HW310405   3.068   3.156   4.152 -0.8093  0.2397  1.5307
 2590SOL    MW410406   3.136   3.189   4.196  0.1645  0.0513  0.2151
 2591SOL     OW10407   3.181   3.429   4.127 -0.1929 -0.8714  0.0677
 2591SOL    HW210408   3.109   3.478   4.166 -0.4739 -1.0805 -0.1789
 2591SOL    HW310409   3.177   3.450   4.033 -1.1340 -2.3705 -0.2460
 2591SOL    MW410410   3.171   3.438   4.120 -0.3538 -1.0967 -0.0057
 2592SOL     OW10411   3.369   3.602   4.210  0.2518 -0.2410 -0.1229
 2592SOL    HW210412   3.343   3.601   4.303  0.8449  0.9555  0.0490
 2592SOL    HW310413   3.310   3.538   4.170 -0.6249 -0.1156  0.9151
 2592SOL    MW410414   3.357   3.593   4.217  0.2141 -0.0668  0.0362
 2593SOL     OW10415   3.475   3.836   4.091  0.2973  0.3813 -0.5572
 2593SOL    HW210416   3.436   3.754   4.121 -0.1713  0.2946 -1.3751
 2593SOL    HW310417   3.415   3.868   4.024  0.2779  1.5963  0.0300
 2593SOL    MW410418   3.462   3.829   4.086  0.2327  0.5300 -0.5875
 2594SOL     OW10419   3.125   4.070   4.244 -0.3674 -0.1769 -0.0652
 2594SOL    HW210420   3.101   4.057   4.335 -0.2461 -1.8243 -0.2510
 2594SOL    HW310421   3.220   4.064   4.243 -0.5357 -3.5325 -0.7634
 2594SOL    MW410422   3.134   4.067   4.255 -0.3736 -0.8368 -0.1822
 2595SOL     OW10423   3.122   4.337   4.172  0.2754 -0.3038 -0.6032
 2595SOL    HW210424   3.197   4.369   4.221 -0.4794  0.4187  0.1099
 2595SOL    HW310425   3.119   4.243   4.190  1.3625 -0.4514 -1.1433
 2595SOL    MW410426   3.131   4.329   4.181  0.3192 -0.2275 -0.5803
 2596SOL     OW10427   3.335   4.486   4.267 -0.3064 -0.2884  0.4057
 2596SOL    HW210428   3.316   4.478   4.360 -0.8996 -0.2210  0.2929
 2596SOL    HW310429   3.428   4.467   4.260  0.0283  0.9796  1.1821
 2596SOL    MW410430   3.345   4.483   4.278 -0.3402 -0.1130  0.4926
 2597SOL     OW10431   3.745   4.630   4.138  0.0233 -0.1464  0.1206
 2597SOL    HW210432   3.808   4.660   4.204  1.3415 -2.1788 -0.1767
 2597SOL    HW310433   3.785   4.651   4.054 -0.1550 -0.5432 -0.0670
 2597SOL    MW410434   3.758   4.637   4.136  0.1736 -0.4673  0.0567
 2598SOL     OW10435   3.544   0.099   4.263 -0.3427 -0.2356 -0.4467
 2598SOL    HW210436   3.553   0.193   4.244  0.3590 -0.0499  0.7744
 2598SOL    HW310437   3.615   0.058   4.214  1.7772  0.2935  2.0948
 2598SOL    MW410438   3.554   0.106   4.254  0.0293 -0.1413  0.0501
 2599SOL     OW10439   3.592   0.371   4.193  0.3552 -0.3738 -0.2495
 2599SOL    HW210440   3.678   0.398   4.225 -0.1321  3.7452 -2.1343
 2599SOL    HW310441   3.599   0.376   4.098 -1.8055 -0.6267 -0.4557
 2599SOL    MW410442   3.604   0.375   4.185  0.0057  0.1363 -0.5255
 2600SOL     OW10443   3.840   0.454   4.282  0.0387 -0.3771 -0.4149
 2600SOL    HW210444   3.891   0.474   4.361  1.2557 -2.0736 -0.7577
 2600SOL    HW310445   3.841   0.536   4.232  1.3973 -0.0294  0.1622
 2600SOL    MW410446   3.847   0.468   4.286  0.3786 -0.5550 -0.3839
 2601SOL     OW10447   3.826   0.713   4.172  0.0192  0.5028  0.1473
 2601SOL    HW210448   3.755   0.763   4.212 -1.6126 -0.4914 -1.4013
 2601SOL    HW310449   3.824   0.738   4.080  0.8898 -0.4387 -0.1456
 2601SOL    MW410450   3.816   0.723   4.165 -0.0811  0.2474 -0.0954
 2602SOL     OW10451   3.575   0.837   4.241  0.0293  0.4278  0.2369
 2602SOL    HW210452   3.562   0.926   4.209 -1.0628  0.3493  0.4575
 2602SOL    HW310453   3.496   0.790   4.217  0.4600 -0.4026  0.4139
 2602SOL    MW410454   3.563   0.843   4.234 -0.0579  0.3078  0.2899
 2603SOL     OW10455   3.578   1.109   4.130 -0.2624 -0.1255 -0.0803
 2603SOL    HW210456   3.508   1.164   4.165 -0.0999 -0.6897  1.1626
 2603SOL    HW310457   3.564   1.110   4.036  0.1250  2.5934 -0.1610
 2603SOL    MW410458   3.567   1.117   4.123 -0.1898  0.1589  0.0730
 2604SOL     OW10459   3.799   1.259   4.215  0.5312  0.3565 -0.4314
 2604SOL    HW210460   3.719   1.215   4.189  0.6816 -0.2837  0.1798
 2604SOL    HW310461   3.791   1.347   4.178 -0.6213  0.4217 -0.0391
 2604SOL    MW410462   3.788   1.265   4.206  0.3986  0.2806 -0.2990
 2605SOL     OW10463   3.842   1.536   4.110 -0.4921 -0.5759 -0.2627
 2605SOL    HW210464   3.917   1.575   4.155 -1.3748 -0.6214  1.2678
 2605SOL    HW310465   3.766   1.578   4.149 -1.2637 -0.1298 -2.1875
 2605SOL    MW410466   3.842   1.547   4.121 -0.7105 -0.5230 -0.3147
 2606SOL     OW10467   3.602   1.673   4.264  0.0624 -0.1921 -0.3333
 2606SOL    HW210468   3.569   1.663   4.353  0.8867 -3.3937 -0.3411
 2606SOL    HW310469   3.536   1.630   4.209  1.6698 -2.1315 -0.8143
 2606SOL    MW410470   3.589   1.666   4.269  0.3831 -0.8702 -0.3977
 2607SOL     OW10471   3.609   1.925   4.132  0.3014  0.0665  0.1772
 2607SOL    HW210472   3.614   1.844   4.182 -0.0594  0.6056  1.1098
 2607SOL    HW310473   3.582   1.898   4.045  0.6880 -0.8653  0.3462
 2607SOL    MW410474   3.606   1.911   4.128  0.3049  0.0147  0.3228
 2608SOL     OW10475   3.846   2.048   4.220 -0.1812  0.4328 -0.2945
 2608SOL    HW210476   3.849   2.034   4.315 -2.6496 -1.1623 -0.4172
 2608SOL    HW310477   3.758   2.022   4.195  0.2548  1.4050 -2.9679
 2608SOL    MW410478   3.835   2.043   4.229 -0.4494  0.3507 -0.6638
 2609SOL     OW10479   3.851   2.323   4.167 -0.0199  0.0723 -0.2112
 2609SOL    HW210480   3.861   2.230   4.188 -0.3009 -0.2258 -1.4087
 2609SOL    HW310481   3.885   2.332   4.078 -0.3605  1.0485 -0.2452
 2609SOL    MW410482   3.857   2.312   4.158 -0.1020  0.1616 -0.3738
 2610SOL     OW10483   3.612   2.382   4.282  0.2346 -0.4665 -0.3427
 2610SOL    HW210484   3.615   2.382   4.378 -0.7536 -1.0929 -0.3043
 2610SOL    HW310485   3.701   2.357   4.256  0.1869 -1.5184  0.4406
 2610SOL    MW410486   3.624   2.378   4.291  0.0978 -0.6878 -0.2337
 2611SOL     OW10487   3.588   2.643   4.197  0.2494  0.2133 -0.3596
 2611SOL    HW210488   3.603   2.554   4.227  0.4350 -0.1594 -1.5247
 2611SOL    HW310489   3.598   2.639   4.102 -1.4345  1.1231 -0.6076
 2611SOL    MW410490   3.591   2.631   4.188  0.0517  0.2842 -0.5460
 2612SOL     OW10491   3.844   2.527   4.765 -0.1937  0.0874  0.1297
 2612SOL    HW210492   3.861   2.441   4.726  0.6955  0.1046  0.4781
 2612SOL    HW310493   3.757   2.552   4.731 -1.3986 -1.8690  1.6974
 2612SOL    MW410494   3.835   2.519   4.755 -0.2353 -0.1683  0.3829
 2613SOL     OW10495   3.849   3.114   4.144 -0.0058  0.0731  0.1346
 2613SOL    HW210496   3.762   3.151   4.163  0.0469  0.3041 -0.0849
 2613SOL    HW310497   3.849   3.098   4.050 -0.1182 -0.7172  0.2636
 2613SOL    MW410498   3.837   3.116   4.134 -0.0136 -0.0010  0.1225
 2614SOL     OW10499   3.585   3.177   4.211 -0.2642  0.0989 -0.8247
 2614SOL    HW210500   3.569   3.146   4.300 -0.9355  1.7024 -0.3544
 2614SOL    HW310501   3.515   3.138   4.159 -0.7954  0.4035 -0.3455
 2614SOL    MW410502   3.573   3.168   4.216 -0.4227  0.3505 -0.6990
 2615SOL     OW10503   3.607   3.466   4.155 -0.1605  0.3090  0.2260
 2615SOL    HW210504   3.529   3.510   4.187 -1.4835 -1.5177 -0.4063
 2615SOL    HW310505   3.589   3.373   4.166  1.7508 -0.1559 -0.3294
 2615SOL    MW410506   3.595   3.460   4.160 -0.0827  0.0067  0.0696
 2616SOL     OW10507   3.815   3.610   4.237 -0.0943 -0.0162 -0.0139
 2616SOL    HW210508   3.887   3.553   4.209  0.7438  0.9409  0.1642
 2616SOL    HW310509   3.736   3.560   4.217  0.6386 -1.5338  0.7972
 2616SOL    MW410510   3.814   3.595   4.230  0.1130 -0.0899  0.1168
 2617SOL     OW10511   3.764   3.821   4.091  0.0826  0.2097  0.3557
 2617SOL    HW210512   3.669   3.827   4.104 -0.1980 -0.4312 -1.3968
 2617SOL    HW310513   3.789   3.740   4.135 -0.2916  0.0023  0.1886
 2617SOL    MW410514   3.755   3.811   4.099 -0.0038  0.0980  0.1025
 2618SOL     OW10515   3.856   4.036   4.231  0.4578 -0.0178 -0.2589
 2618SOL    HW210516   3.832   3.952   4.192 -1.4157  0.4126 -0.0695
 2618SOL    HW310517   3.861   4.018   4.325 -0.2653  0.1457 -0.1858
 2618SOL    MW410518   3.854   4.022   4.238  0.1152  0.0606 -0.2246
 2619SOL     OW10519   3.622   4.164   4.159 -0.4359  0.1475  0.2366
 2619SOL    HW210520   3.695   4.112   4.192 -0.1089  1.0682  0.9692
 2619SOL    HW310521   3.544   4.124   4.198 -0.2050  0.0907  0.6331
 2619SOL    MW410522   3.621   4.152   4.168 -0.3622  0.2613  0.3853
 2620SOL     OW10523   3.596   4.420   4.251 -0.2623  0.1686 -0.1487
 2620SOL    HW210524   3.613   4.330   4.221 -1.3194 -0.1495  0.1740
 2620SOL    HW310525   3.657   4.474   4.200  0.8923 -0.7985  0.1635
 2620SOL    MW410526   3.606   4.415   4.240 -0.2496 -0.0014 -0.0648
 2621SOL     OW10527   4.285   0.024   4.132 -0.1423 -0.2559  0.4875
 2621SOL    HW210528   4.272  -0.061   4.175 -1.2374  0.3332  1.3508
 2621SOL    HW310529   4.362   0.061   4.176 -1.5119  0.5316  2.3060
 2621SOL    MW410530   4.293   0.017   4.144 -0.4673 -0.0743  0.8407
 2622SOL     OW10531   3.909   0.069   4.363  0.4346 -0.0212 -0.2813
 2622SOL    HW210532   3.859   0.138   4.407 -0.1506 -0.8763  0.4085
 2622SOL    HW310533   3.979   0.116   4.318 -0.3963  1.0977 -0.4415
 2622SOL    MW410534   3.912   0.085   4.363  0.2480  0.0136 -0.2112
 2623SOL     OW10535   4.043   0.380   4.127  0.3192 -0.0687 -0.4343
 2623SOL    HW210536   4.115   0.439   4.151  0.4811 -0.5411  0.2555
 2623SOL    HW310537   3.973   0.401   4.190  0.4363 -0.7194 -0.0852
 2623SOL    MW410538   4.043   0.391   4.139  0.3562 -0.2170 -0.2971
 2624SOL     OW10539   4.264   0.501   4.222 -0.0202  0.2733 -0.4648
 2624SOL    HW210540   4.281   0.594   4.206 -1.2097  0.2326 -2.0565
 2624SOL    HW310541   4.338   0.456   4.180  0.7374  0.5058  0.6071
 2624SOL    MW410542   4.276   0.507   4.214 -0.0772  0.2986 -0.5331
 2625SOL     OW10543   4.267   0.753   4.109 -0.1703  0.2382 -0.0861
 2625SOL    HW210544   4.191   0.804   4.136 -0.8785 -0.6800 -0.3471
 2625SOL    HW310545   4.263   0.751   4.013  0.3450  0.4357 -0.1145
 2625SOL    MW410546   4.257   0.759   4.100 -0.1960  0.1431 -0.1240
 2626SOL     OW10547   4.052   0.870   4.199 -0.5937 -0.3525 -0.1173
 2626SOL    HW210548   4.041   0.950   4.149 -0.7380  0.6064  1.4113
 2626SOL    HW310549   3.970   0.822   4.188 -0.5724 -0.2175 -0.8895
 2626SOL    MW410550   4.040   0.874   4.191 -0.6099 -0.2081 -0.0176
 2627SOL     OW10551   4.029   1.139   4.101 -0.3131 -0.1709 -0.3068
 2627SOL    HW210552   4.089   1.190   4.155 -1.7155  0.7234  0.4371
 2627SOL    HW310553   3.943   1.176   4.118 -1.1524 -1.7029 -1.0312
 2627SOL    MW410554   4.025   1.150   4.110 -0.6084 -0.2550 -0.3037
 2628SOL     OW10555   4.227   1.265   4.251  0.2207  0.0564 -0.4059
 2628SOL    HW210556   4.236   1.261   4.346  0.6184 -0.9148 -0.4763
 2628SOL    HW310557   4.303   1.218   4.217 -0.3899 -0.3903 -1.1859
 2628SOL    MW410558   4.238   1.258   4.259  0.1926 -0.1305 -0.5178
 2629SOL     OW10559   4.248   1.532   4.178  0.0098 -0.0456  0.5294
 2629SOL    HW210560   4.237   1.439   4.198 -1.8497  0.1602  0.5423
 2629SOL    HW310561   4.238   1.537   4.083 -0.9495  0.2877  0.6510
 2629SOL    MW410562   4.245   1.520   4.169 -0.3624  0.0255  0.5469
 2630SOL     OW10563   4.015   1.660   4.284 -0.2576  0.2587  0.4897
 2630SOL    HW210564   4.092   1.605   4.272 -0.8156 -0.3615 -0.3758
 2630SOL    HW310565   3.995   1.653   4.377 -0.6632 -1.5077  0.2995
 2630SOL    MW410566   4.022   1.652   4.295 -0.3848 -0.0561  0.3505
 2631SOL     OW10567   4.059   1.905   4.141  0.1755 -0.3786 -0.4742
 2631SOL    HW210568   4.051   1.819   4.182  0.9147 -0.0527  0.3818
 2631SOL    HW310569   3.982   1.954   4.171 -0.4715 -0.8750 -1.3112
 2631SOL    MW410570   4.048   1.900   4.150  0.1884 -0.4010 -0.4716
 2632SOL     OW10571   0.018   1.888   4.152 -0.1064 -0.0017 -0.3793
 2632SOL    HW210572   0.095   1.925   4.195 -0.0589 -2.2628  1.6178
 2632SOL    HW310573  -0.056   1.936   4.190 -0.0327 -1.6831  2.0045
 2632SOL    MW410574   0.018   1.899   4.163 -0.0906 -0.5219  0.1988
 2633SOL     OW10575   4.266   2.290   4.167  0.4521 -0.0053 -0.0710
 2633SOL    HW210576   4.222   2.351   4.226  1.0950  0.3795  0.0178
 2633SOL    HW310577   4.260   2.205   4.212  0.4932  0.1945  0.3165
 2633SOL    MW410578   4.260   2.287   4.181  0.5426  0.0720 -0.0076
 2634SOL     OW10579   4.063   2.452   4.277  0.3757 -0.2399  0.0891
 2634SOL    HW210580   4.063   2.428   4.370  0.5277  0.2477  0.2201
 2634SOL    HW310581   3.988   2.406   4.240  0.0248 -0.0520  0.5593
 2634SOL    MW410582   4.053   2.443   4.284  0.3495 -0.1509  0.1683
 2635SOL     OW10583   4.106   2.708   4.115 -0.4136 -0.2398 -0.9095
 2635SOL    HW210584   4.118   2.621   4.152  1.6007  0.3714 -0.0428
 2635SOL    HW310585   4.047   2.753   4.177 -0.3197 -0.5299 -0.6090
 2635SOL    MW410586   4.100   2.703   4.128 -0.1349 -0.1974 -0.7558
 2636SOL     OW10587   4.306   2.864   4.194 -0.0696 -0.4134 -0.1628
 2636SOL    HW210588   4.228   2.822   4.156 -0.3709 -0.5456  0.5945
 2636SOL    HW310589   4.375   2.798   4.185 -0.4949 -1.0044  0.8391
 2636SOL    MW410590   4.305   2.849   4.188 -0.1655 -0.5088  0.0691
 2637SOL     OW10591   4.303   3.135   4.100  0.3400  0.1521 -0.1453
 2637SOL    HW210592   4.319   3.050   4.140 -0.6682 -0.1652 -0.3973
 2637SOL    HW310593   4.299   3.117   4.006  1.7057  0.7348 -0.3218
 2637SOL    MW410594   4.304   3.122   4.093  0.3872  0.1874 -0.2017
 2638SOL     OW10595   4.077   3.255   4.221  0.1807  0.1776 -0.3044
 2638SOL    HW210596   4.153   3.215   4.179 -0.2187 -2.3195  1.2212
 2638SOL    HW310597   4.002   3.209   4.183 -0.3722  0.4292  0.4638
 2638SOL    MW410598   4.077   3.244   4.210  0.0553 -0.1187 -0.0019
 2639SOL     OW10599   4.055   3.518   4.124 -0.0394 -0.0870 -0.0731
 2639SOL    HW210600   4.058   3.430   4.162  0.7037 -0.9771 -2.1024
 2639SOL    HW310601   4.067   3.504   4.030  0.0940  2.1924 -0.4329
 2639SOL    MW410602   4.057   3.505   4.116  0.0763  0.0966 -0.3881
 2640SOL     OW10603   4.318   3.642   4.150 -0.1138  0.0162  0.2365
 2640SOL    HW210604   4.313   3.734   4.125 -1.0356  0.1237  0.8029
 2640SOL    HW310605   4.227   3.613   4.156  0.1593 -0.8090  0.5024
 2640SOL    MW410606   4.305   3.650   4.148 -0.1988 -0.0784  0.3467
 2641SOL     OW10607   4.299   3.923   4.101 -0.1130 -0.5221 -0.8164
 2641SOL    HW210608   4.243   3.988   4.144  2.3982  0.4307  1.2236
 2641SOL    HW310609   4.269   3.920   4.011 -2.7683  0.6564 -0.0037
 2641SOL    MW410610   4.288   3.931   4.095 -0.1321 -0.2410 -0.4401
 2642SOL     OW10611   4.151   3.805   4.448 -0.4742 -0.7827  0.3164
 2642SOL    HW210612   4.133   3.719   4.486 -0.1374 -0.4650  1.2059
 2642SOL    HW310613   4.244   3.803   4.427 -0.6010 -0.8578 -0.2282
 2642SOL    MW410614   4.161   3.794   4.450 -0.4463 -0.7510  0.3619
 2643SOL     OW10615   4.120   4.107   4.247  0.0986 -0.3775  0.0517
 2643SOL    HW210616   4.130   4.194   4.208  0.0137 -0.5807 -0.4133
 2643SOL    HW310617   4.032   4.080   4.224  0.1525 -0.6230  0.1352
 2643SOL    MW410618   4.110   4.115   4.239  0.0944 -0.4373  0.0010
 2644SOL     OW10619   4.439   0.018   4.545  0.4605 -0.0750  0.0198
 2644SOL    HW210620   4.358   0.065   4.565  0.9282  1.1799 -0.9937
 2644SOL    HW310621   4.509   0.078   4.571  1.0643  0.3111 -2.3409
 2644SOL    MW410622   4.438   0.032   4.551  0.6013  0.1415 -0.4263
 2645SOL     OW10623   4.352   0.440   4.485 -0.0384 -0.5854 -0.1803
 2645SOL    HW210624   4.328   0.436   4.393 -1.7342  0.1355  0.2223
 2645SOL    HW310625   4.331   0.353   4.520 -0.7548 -0.3941 -0.1416
 2645SOL    MW410626   4.346   0.428   4.478 -0.3567 -0.4650 -0.1225
 2646SOL     OW10627   4.448   4.412   4.463 -0.2387  0.0847  0.3068
 2646SOL    HW210628   4.473   4.492   4.510  2.4462 -1.5517  1.7881
 2646SOL    HW310629   4.450   4.343   4.529  1.0174 -1.8134 -1.6248
 2646SOL    MW410630   4.452   4.414   4.478  0.2813 -0.3815  0.2480
 2647SOL     OW10631   4.157   0.204   4.294  0.0575 -0.4633  0.3658
 2647SOL    HW210632   4.108   0.267   4.240  0.6911  0.2485  0.6211
 2647SOL    HW310633   4.199   0.146   4.230 -0.2071 -0.3898  0.1206
 2647SOL    MW410634   4.156   0.204   4.278  0.1068 -0.3597  0.3672
 2648SOL     OW10635   4.273   0.995   4.591  0.0950 -0.0804 -0.0519
 2648SOL    HW210636   4.218   0.923   4.560  1.3073 -2.2009  2.5114
 2648SOL    HW310637   4.362   0.963   4.582  0.7934  2.0592 -1.0917
 2648SOL    MW410638   4.277   0.981   4.586  0.3467 -0.0778  0.1488
 2649SOL     OW10639   0.147   0.211   4.581 -0.1141  0.2367  0.0928
 2649SOL    HW210640   0.242   0.198   4.589  0.1004 -0.2583 -2.7024
 2649SOL    HW310641   0.138   0.296   4.538 -0.8952 -0.1903 -0.6026
 2649SOL    MW410642   0.158   0.220   4.576 -0.1889  0.1151 -0.3676
 2650SOL     OW10643   0.959   1.215   4.502 -0.1712 -0.1016 -0.5078
 2650SOL    HW210644   0.870   1.248   4.505 -0.2350 -0.2723 -0.5294
 2650SOL    HW310645   1.000   1.250   4.582 -0.1852  0.1783 -0.6244
 2650SOL    MW410646   0.953   1.224   4.513 -0.1814 -0.0873 -0.5260
 2651SOL     OW10647   0.054   0.964   4.501  0.0203 -0.0975 -0.0964
 2651SOL    HW210648   0.035   0.937   4.411 -1.8156  0.4146  0.1282
 2651SOL    HW310649   0.114   0.897   4.534  0.6638 -0.3223 -1.6784
 2651SOL    MW410650   0.060   0.952   4.493 -0.1371 -0.0597 -0.2756
 2652SOL     OW10651   0.674   1.275   4.526  0.3570  0.1591  0.3948
 2652SOL    HW210652   0.613   1.206   4.550  0.2368  0.2015  0.2121
 2652SOL    HW310653   0.650   1.349   4.583 -0.7386  0.6739 -0.7136
 2652SOL    MW410654   0.663   1.276   4.537  0.1965  0.2326  0.2251
 2653SOL     OW10655   0.780   2.026   4.488  0.6395 -0.5133 -0.3820
 2653SOL    HW210656   0.834   2.091   4.533 -0.1574 -0.6652  0.8289
 2653SOL    HW310657   0.825   1.943   4.502  1.2347 -0.3362 -1.2403
 2653SOL    MW410658   0.793   2.024   4.496  0.6129 -0.5100 -0.3352
 2654SOL     OW10659   0.275   1.442   4.631 -0.6411 -0.0975  0.5078
 2654SOL    HW210660   0.202   1.501   4.612 -0.7049 -0.4975 -0.5047
 2654SOL    HW310661   0.252   1.360   4.589  0.3403 -0.2626  0.2783
 2654SOL    MW410662   0.262   1.439   4.623 -0.5201 -0.1721  0.3438
 2655SOL     OW10663   4.204   1.775   4.682  0.2245  0.1878  0.7955
 2655SOL    HW210664   4.246   1.692   4.706  0.2885  0.4366  1.5763
 2655SOL    HW310665   4.121   1.750   4.643  0.9234 -0.2978 -0.3940
 2655SOL    MW410666   4.199   1.761   4.680  0.3247  0.1566  0.7415
 2656SOL     OW10667   0.436   1.691   4.219  0.2749  0.2847 -0.1748
 2656SOL    HW210668   0.369   1.629   4.191 -1.1832  1.0099  1.5506
 2656SOL    HW310669   0.519   1.648   4.199 -0.7089 -1.2287 -1.1019
 2656SOL    MW410670   0.438   1.677   4.213 -0.0472  0.1807 -0.0691
 2657SOL     OW10671   0.222   2.069   4.516  0.1178 -0.2666 -0.4014
 2657SOL    HW210672   0.163   2.001   4.546 -0.4940  0.8480  0.9513
 2657SOL    HW310673   0.310   2.033   4.528 -0.2527 -1.6695 -1.8038
 2657SOL    MW410674   0.226   2.056   4.521 -0.0118 -0.3045 -0.4082
 2658SOL     OW10675   4.193   2.006   4.544 -0.0280 -0.2704 -0.5607
 2658SOL    HW210676   4.238   2.078   4.588  0.1945 -0.1262 -1.0250
 2658SOL    HW310677   4.209   1.930   4.601 -1.0078  0.2178  0.3895
 2658SOL    MW410678   4.201   2.005   4.558 -0.1283 -0.1872 -0.4969
 2659SOL     OW10679   0.752   3.376   4.608  0.7914  0.2851 -0.0389
 2659SOL    HW210680   0.661   3.354   4.587  0.2936  0.9045  1.3950
 2659SOL    HW310681   0.759   3.469   4.587  1.2532  0.1231 -0.6290
 2659SOL    MW410682   0.741   3.385   4.602  0.7867  0.3450  0.0725
 2660SOL     OW10683   0.472   2.708   4.635  0.1624  0.2615 -0.3359
 2660SOL    HW210684   0.529   2.635   4.660  0.0693  0.5930  0.8518
 2660SOL    HW310685   0.395   2.665   4.597  0.2545 -0.2505  0.0472
 2660SOL    MW410686   0.469   2.693   4.633  0.1622  0.2375 -0.1287
 2661SOL     OW10687   0.085   2.319   4.524 -0.2792  0.1335  0.1265
 2661SOL    HW210688   0.121   2.232   4.541 -0.8484  0.0921  1.1886
 2661SOL    HW310689   0.080   2.325   4.429 -0.1787 -0.9732  0.0443
 2661SOL    MW410690   0.089   2.309   4.514 -0.3411 -0.0176  0.2561
 2662SOL     OW10691   4.064   3.576   4.607 -0.0384  0.0584 -0.3512
 2662SOL    HW210692   4.086   3.493   4.566 -0.7204 -0.2024 -0.1978
 2662SOL    HW310693   4.127   3.584   4.680 -1.1187 -1.1963  0.7487
 2662SOL    MW410694   4.075   3.566   4.612 -0.2704 -0.1416 -0.1860
 2663SOL     OW10695   0.239   3.342   4.519  0.1485 -0.3138  0.3328
 2663SOL    HW210696   0.158   3.291   4.513 -0.2856  0.2775  1.1032
 2663SOL    HW310697   0.211   3.433   4.514  0.8916 -0.1346 -0.7045
 2663SOL    MW410698   0.225   3.347   4.517  0.1892 -0.2120  0.2980
 2664SOL     OW10699   4.221   4.067   4.494 -0.2035  0.1273 -0.2069
 2664SOL    HW210700   4.180   4.106   4.417 -1.2697 -1.0565 -0.2465
 2664SOL    HW310701   4.192   3.976   4.493  0.9384 -0.2505  0.8007
 2664SOL    MW410702   4.212   4.060   4.484 -0.1936 -0.0792 -0.0792
 2665SOL     OW10703   0.454   0.138   4.532  0.4255  1.0156 -0.1849
 2665SOL    HW210704   0.511   0.214   4.524  1.7222 -0.0309 -1.1422
 2665SOL    HW310705   0.509   0.070   4.570 -0.5037  0.3214 -0.0520
 2665SOL    MW410706   0.469   0.139   4.536  0.4740  0.7859 -0.2937
 2666SOL     OW10707   3.608   0.488   4.537  0.0685  0.3777 -0.4071
 2666SOL    HW210708   3.516   0.477   4.562  0.4865 -1.4118  0.3459
 2666SOL    HW310709   3.618   0.583   4.526 -2.2585  0.4938 -2.0228
 2666SOL    MW410710   3.597   0.499   4.539 -0.1833  0.1569 -0.5212
 2667SOL     OW10711   3.772   3.599   4.495 -0.2597  0.0868 -0.3128
 2667SOL    HW210712   3.799   3.601   4.403  0.1162 -1.9861 -0.2641
 2667SOL    HW310713   3.853   3.595   4.544 -0.4875  0.3336  0.0906
 2667SOL    MW410714   3.786   3.599   4.489 -0.2401 -0.1543 -0.2527
 2668SOL     OW10715   3.977   4.511   4.468  0.2437  0.1118 -0.1434
 2668SOL    HW210716   3.901   4.464   4.502 -0.0478  1.0469  0.5479
 2668SOL    HW310717   3.940   4.590   4.428  1.0637  2.5111  3.5728
 2668SOL    MW410718   3.962   4.515   4.468  0.3133  0.5512  0.4382
 2669SOL     OW10719   0.631   4.568   4.606  0.2501 -0.5330  0.1146
 2669SOL    HW210720   0.721   4.540   4.621  0.7996  0.6408 -0.9800
 2669SOL    HW310721   0.584   4.487   4.584  1.1657 -1.0420  0.0309
 2669SOL    MW410722   0.636   4.553   4.605  0.4434 -0.4458 -0.0415
 2670SOL     OW10723   0.551   1.499   4.672 -0.0923 -0.6116 -0.2439
 2670SOL    HW210724   0.526   1.555   4.599 -1.9022  0.5271  1.2014
 2670SOL    HW310725   0.469   1.459   4.701  0.9352 -2.8187 -0.2474
 2670SOL    MW410726   0.537   1.501   4.667 -0.1955 -0.7523 -0.0539
 2671SOL     OW10727   1.135   0.823   4.505  0.4687  0.2685 -0.0003
 2671SOL    HW210728   1.046   0.854   4.488 -0.2543 -1.1839  1.0410
 2671SOL    HW310729   1.187   0.858   4.432 -1.0037  0.8847 -0.7714
 2671SOL    MW410730   1.130   0.832   4.493  0.1791  0.1581  0.0358
 2672SOL     OW10731   0.521   0.685   4.446 -0.7548  0.2523  0.0276
 2672SOL    HW210732   0.515   0.701   4.352 -1.8546 -1.5349 -0.2355
 2672SOL    HW310733   0.433   0.703   4.479 -0.3794  0.8493  0.7204
 2672SOL    MW410734   0.509   0.690   4.438 -0.8504  0.0953  0.0849
 2673SOL     OW10735   1.862   1.160   4.531  0.1262  0.0128 -0.2169
 2673SOL    HW210736   1.892   1.233   4.585  1.5028 -1.1824  0.6576
 2673SOL    HW310737   1.901   1.176   4.445 -0.8986  1.1619 -0.4719
 2673SOL    MW410738   1.871   1.172   4.527  0.1727  0.0068 -0.1349
 2674SOL     OW10739   0.225   1.187   4.535  0.1205 -0.2581 -0.4564
 2674SOL    HW210740   0.167   1.112   4.545  1.1703 -0.9636  0.4450
 2674SOL    HW310741   0.313   1.150   4.533  0.4600  0.6275 -3.8257
 2674SOL    MW410742   0.229   1.173   4.536  0.3038 -0.2344 -0.7825
 2675SOL     OW10743   1.951   1.384   4.688  0.4752  0.4090 -0.3167
 2675SOL    HW210744   2.028   1.359   4.739  0.8502 -0.2288 -1.1781
 2675SOL    HW310745   1.967   1.475   4.663 -0.0326  0.9425  1.2745
 2675SOL    MW410746   1.963   1.392   4.691  0.4576  0.3953 -0.2203
 2676SOL     OW10747   0.812   1.597   4.722 -0.5511  0.0557  0.0251
 2676SOL    HW210748   0.804   1.657   4.797 -1.7395 -0.3297  0.2213
 2676SOL    HW310749   0.722   1.567   4.707 -0.1056 -0.8905 -0.7158
 2676SOL    MW410750   0.799   1.601   4.730 -0.6491 -0.1199 -0.0467
 2677SOL     OW10751   1.197   0.993   4.730  0.1422  0.0516  0.1657
 2677SOL    HW210752   1.182   0.934   4.804 -1.4335  0.0534 -0.1331
 2677SOL    HW310753   1.178   0.940   4.653 -1.2937  0.9290 -0.1079
 2677SOL    MW410754   1.192   0.978   4.730 -0.2551  0.1676  0.0906
 2678SOL     OW10755   0.891   1.780   4.497  0.0678  0.1801 -0.6003
 2678SOL    HW210756   0.986   1.775   4.502  0.1772 -0.8000 -3.0225
 2678SOL    HW310757   0.860   1.718   4.563  1.1030  0.1795 -0.1042
 2678SOL    MW410758   0.899   1.771   4.506  0.2187  0.0507 -0.8540
 2679SOL     OW10759   1.110   2.590   4.701 -0.2915  0.2533  0.7635
 2679SOL    HW210760   1.167   2.666   4.688 -1.7678  1.2889  0.2067
 2679SOL    HW310761   1.023   2.620   4.672 -0.5394 -2.2330 -1.1820
 2679SOL    MW410762   1.106   2.604   4.696 -0.5190  0.0618  0.4330
 2680SOL     OW10763   1.426   1.291   4.575 -0.1525  0.0321  0.2230
 2680SOL    HW210764   1.490   1.232   4.535  0.4405  1.5680 -1.1567
 2680SOL    HW310765   1.479   1.361   4.614 -0.8956  0.1529  1.0456
 2680SOL    MW410766   1.441   1.292   4.575 -0.1724  0.2507  0.1497
 2681SOL     OW10767   0.262   2.556   4.480 -0.1675  0.1894  0.3021
 2681SOL    HW210768   0.344   2.515   4.454 -1.0977 -1.5193 -0.0217
 2681SOL    HW310769   0.212   2.486   4.522 -1.6947  1.0572 -0.0069
 2681SOL    MW410770   0.266   2.541   4.482 -0.4917  0.0784  0.2189
 2682SOL     OW10771   0.761   2.872   4.466 -0.4489  0.3375  0.1893
 2682SOL    HW210772   0.672   2.891   4.497 -0.1378  0.4472  1.0170
 2682SOL    HW310773   0.786   2.792   4.512 -0.0647  0.3871  0.0656
 2682SOL    MW410774   0.752   2.864   4.476 -0.3572  0.3588  0.2818
 2683SOL     OW10775   0.634   2.451   4.599 -0.5042 -0.0346  0.1290
 2683SOL    HW210776   0.616   2.417   4.511  1.9712  0.6253 -0.6925
 2683SOL    HW310777   0.661   2.374   4.649 -1.0646 -0.2708  0.0777
 2683SOL    MW410778   0.635   2.436   4.594 -0.2515  0.0215  0.0138
 2684SOL     OW10779   1.154   2.259   4.463  0.5919 -0.5127 -0.2242
 2684SOL    HW210780   1.221   2.319   4.496  0.7378 -0.5150 -0.5119
 2684SOL    HW310781   1.203   2.188   4.421  0.4090 -0.1362 -1.0966
 2684SOL    MW410782   1.169   2.258   4.462  0.5870 -0.4635 -0.3772
 2685SOL     OW10783   1.280   3.213   4.455  0.0128  0.1833 -0.0802
 2685SOL    HW210784   1.365   3.188   4.491 -0.9688 -2.8343  0.2017
 2685SOL    HW310785   1.221   3.141   4.477 -2.0509  1.0652 -2.4239
 2685SOL    MW410786   1.284   3.201   4.463 -0.3891 -0.0982 -0.3519
 2686SOL     OW10787   1.206   4.603   4.736  0.4403 -0.4401  0.1739
 2686SOL    HW210788   1.248   4.520   4.717  0.0020 -0.5162 -0.4684
 2686SOL    HW310789   1.255   4.667   4.684 -0.1858 -0.5201 -0.5279
 2686SOL    MW410790   1.218   4.601   4.727  0.2999 -0.4611 -0.0038
 2687SOL     OW10791   4.440   3.218   4.482 -0.0551  0.8102 -0.3523
 2687SOL    HW210792   4.472   3.226   4.392  0.1729 -2.2480 -0.6075
 2687SOL    HW310793   4.440   3.123   4.499 -0.1400  1.3215  2.8480
 2687SOL    MW410794   4.444   3.206   4.473 -0.0367  0.4745  0.0358
 2688SOL     OW10795   4.424   3.774   4.394  0.1955 -0.4395 -0.3532
 2688SOL    HW210796   4.401   3.727   4.314 -1.3798 -1.5122  0.7136
 2688SOL    HW310797   4.495   3.723   4.433  0.3711 -0.3971 -0.6160
 2688SOL    MW410798   4.431   3.761   4.389  0.0110 -0.5758 -0.2470
 2689SOL     OW10799   0.977   0.131   4.538  0.0337  0.5733 -0.3784
 2689SOL    HW210800   0.949   0.056   4.591 -0.2686  0.5255 -0.6062
 2689SOL    HW310801   0.942   0.113   4.451  1.1036  0.3226 -0.7585
 2689SOL    MW410802   0.969   0.119   4.534  0.1349  0.5339 -0.4582
 2690SOL     OW10803   0.356   4.099   4.459 -0.0542  0.2867 -0.1160
 2690SOL    HW210804   0.261   4.096   4.447  0.0449 -2.6478 -0.4743
 2690SOL    HW310805   0.391   4.050   4.385  1.5836 -0.9231  1.4305
 2690SOL    MW410806   0.348   4.092   4.448  0.1749 -0.2599  0.0410
 2691SOL     OW10807   0.072   4.024   4.441 -0.2028  0.1411 -0.0568
 2691SOL    HW210808   0.015   4.069   4.503 -0.0253 -0.4165  0.5104
 2691SOL    HW310809   0.032   3.937   4.430 -0.6288  0.4735 -1.2630
 2691SOL    MW410810   0.059   4.018   4.448 -0.2356  0.1116 -0.1411
 2692SOL     OW10811   0.557   4.291   4.520  0.1531  0.1657  0.1748
 2692SOL    HW210812   0.592   4.313   4.433  0.8678  1.9798  0.9022
 2692SOL    HW310813   0.473   4.250   4.502 -0.3447  1.7901 -1.3478
 2692SOL    MW410814   0.551   4.288   4.506  0.1818  0.6194  0.0701
 2693SOL     OW10815   1.321   0.345   4.658 -0.0190  0.2643  0.0931
 2693SOL    HW210816   1.281   0.327   4.744 -0.8453  0.6856 -0.2004
 2693SOL    HW310817   1.274   0.422   4.625  0.9687  0.7018 -0.3077
 2693SOL    MW410818   1.309   0.353   4.665  0.0024  0.3776  0.0014
 2694SOL     OW10819   0.901   0.420   4.568 -0.3241  0.1451 -0.2750
 2694SOL    HW210820   0.807   0.435   4.557 -0.3848 -0.2793 -0.3252
 2694SOL    HW310821   0.914   0.329   4.544  0.0829  0.1696 -0.1497
 2694SOL    MW410822   0.890   0.410   4.564 -0.2784  0.0923 -0.2651
 2695SOL     OW10823   0.645   0.884   4.618  0.2260 -0.0988  0.2161
 2695SOL    HW210824   0.738   0.903   4.604 -0.7709  3.2412 -2.2536
 2695SOL    HW310825   0.624   0.818   4.552  0.9753 -1.4061  1.2567
 2695SOL    MW410826   0.655   0.878   4.608  0.1932  0.1695  0.0277
 2696SOL     OW10827   1.441   0.931   4.574  0.2678  0.4139 -0.4234
 2696SOL    HW210828   1.378   0.961   4.640 -0.0800 -1.7646  0.2598
 2696SOL    HW310829   1.393   0.938   4.491 -0.8032 -1.0166  0.0691
 2696SOL    MW410830   1.426   0.936   4.572  0.0806 -0.0622 -0.2685
 2697SOL     OW10831   1.616   0.707   4.565 -0.2938 -0.0902  0.1541
 2697SOL    HW210832   1.556   0.779   4.583  0.6984  0.4709  1.2932
 2697SOL    HW310833   1.700   0.749   4.544 -0.2357 -0.8638 -1.2924
 2697SOL    MW410834   1.620   0.722   4.565 -0.1551 -0.1183  0.1140
 2698SOL     OW10835   0.469   1.056   4.468 -0.1310 -0.5205 -0.2635
 2698SOL    HW210836   0.472   1.009   4.384  0.9939 -0.0122 -0.5076
 2698SOL    HW310837   0.529   1.007   4.524  1.4851  0.9179 -0.6842
 2698SOL    MW410838   0.477   1.043   4.464  0.2306 -0.2637 -0.3514
 2699SOL     OW10839   1.096   1.551   4.750  0.5248 -0.0025 -0.1467
 2699SOL    HW210840   1.117   1.461   4.725  0.4631 -0.2721  0.7646
 2699SOL    HW310841   1.002   1.559   4.731  0.2883 -0.4785  0.8063
 2699SOL    MW410842   1.087   1.540   4.744  0.4855 -0.1009  0.0997
 2700SOL     OW10843   1.166   1.288   4.700  0.0779 -0.2228  0.4339
 2700SOL    HW210844   1.253   1.299   4.662  1.2962 -0.7075  2.9684
 2700SOL    HW310845   1.166   1.199   4.737 -1.6480 -0.3883  0.1170
 2700SOL    MW410846   1.177   1.277   4.700  0.0111 -0.3085  0.7267
 2701SOL     OW10847   1.750   1.483   4.855 -0.5756 -0.0318  0.5862
 2701SOL    HW210848   1.787   1.570   4.847 -2.2366  0.7548  1.1308
 2701SOL    HW310849   1.809   1.426   4.806  1.5020  1.0999  1.7521
 2701SOL    MW410850   1.763   1.487   4.847 -0.5205  0.2214  0.8121
 2702SOL     OW10851   1.848   0.876   4.474 -0.3949 -0.5241 -0.5340
 2702SOL    HW210852   1.835   0.885   4.380 -0.6540 -0.9419 -0.5419
 2702SOL    HW310853   1.849   0.966   4.507 -0.8551 -0.3977 -0.8603
 2702SOL    MW410854   1.847   0.889   4.466 -0.4898 -0.5624 -0.5784
 2703SOL     OW10855   0.921   2.233   4.615  0.4157 -0.1405  0.3164
 2703SOL    HW210856   0.947   2.279   4.695 -0.0493  1.2933 -0.3433
 2703SOL    HW310857   1.000   2.233   4.560  0.7023 -1.0272  0.7089
 2703SOL    MW410858   0.935   2.239   4.618  0.3921 -0.0682  0.2813
 2704SOL     OW10859   0.872   2.622   4.556  0.0540 -0.7708 -0.3516
 2704SOL    HW210860   0.901   2.589   4.471 -0.3848 -0.7750 -0.4991
 2704SOL    HW310861   0.795   2.569   4.578  0.5709 -1.2357  0.3669
 2704SOL    MW410862   0.866   2.611   4.548  0.0643 -0.8326 -0.2761
 2705SOL     OW10863   1.561   2.899   4.625  0.2947 -0.0830 -0.0673
 2705SOL    HW210864   1.472   2.871   4.645  0.1935  0.2057 -0.1105
 2705SOL    HW310865   1.560   2.994   4.637 -0.2515  0.3742 -3.2402
 2705SOL    MW410866   1.549   2.908   4.629  0.2092  0.0153 -0.4911
 2706SOL     OW10867   1.189   3.501   4.495  0.1129  0.1560  0.0131
 2706SOL    HW210868   1.163   3.539   4.411  0.1211 -0.8001 -0.4322
 2706SOL    HW310869   1.214   3.411   4.474  1.2631  0.2618  0.8549
 2706SOL    MW410870   1.189   3.494   4.481  0.2657  0.0439  0.0658
 2707SOL     OW10871   0.904   3.162   4.518 -0.0818 -0.1608 -0.5267
 2707SOL    HW210872   0.858   3.234   4.562 -1.9527 -0.7220 -1.5189
 2707SOL    HW310873   0.836   3.097   4.503  1.6298 -2.2699  0.5750
 2707SOL    MW410874   0.889   3.163   4.522 -0.1028 -0.5131 -0.5126
 2708SOL     OW10875   0.600   3.903   4.524 -0.2523 -0.3149  0.3760
 2708SOL    HW210876   0.606   3.943   4.437 -0.9783  0.9031  0.8712
 2708SOL    HW310877   0.651   3.962   4.580  0.9981 -1.5900  0.6255
 2708SOL    MW410878   0.608   3.916   4.520 -0.1832 -0.3226  0.4740
 2709SOL     OW10879   1.198   3.800   4.759  0.1607  0.4807  0.0574
 2709SOL    HW210880   1.279   3.768   4.720  0.1108  1.9706 -1.2988
 2709SOL    HW310881   1.133   3.733   4.738  0.3867  0.7179 -1.4578
 2709SOL    MW410882   1.200   3.787   4.751  0.1841  0.7086 -0.3209
 2710SOL     OW10883   1.407   3.695   4.609 -0.6871  0.2481  0.3822
 2710SOL    HW210884   1.499   3.667   4.613 -0.6040  0.2043 -1.4696
 2710SOL    HW310885   1.364   3.630   4.553 -1.3181  1.6049 -0.7674
 2710SOL    MW410886   1.413   3.683   4.602 -0.7594  0.4215 -0.0138
 2711SOL     OW10887   1.693   3.687   4.517 -0.2210  0.4954 -0.6144
 2711SOL    HW210888   1.755   3.759   4.514 -0.4524  0.7043 -0.4253
 2711SOL    HW310889   1.747   3.609   4.528 -0.0342  0.7496  0.3235
 2711SOL    MW410890   1.708   3.686   4.518 -0.2269  0.5562 -0.4654
 2712SOL     OW10891   0.500   3.243   4.514  0.0102 -0.2578 -0.0446
 2712SOL    HW210892   0.496   3.149   4.533 -0.9421  0.0823  1.5386
 2712SOL    HW310893   0.409   3.272   4.518  0.5388  1.2442  2.1911
 2712SOL    MW410894   0.487   3.234   4.517 -0.0457 -0.0145  0.4587
 2713SOL     OW10895   0.313   3.831   4.598 -0.1106  0.3025  0.1161
 2713SOL    HW210896   0.290   3.914   4.554  1.7861  0.7262 -0.1005
 2713SOL    HW310897   0.408   3.829   4.596 -0.1168 -1.2494  1.3582
 2713SOL    MW410898   0.322   3.842   4.592  0.1388  0.1535  0.2518
 2714SOL     OW10899   1.078   4.352   4.452 -0.5570 -0.0720  0.2216
 2714SOL    HW210900   1.035   4.267   4.457 -0.3186 -0.2058  0.0319
 2714SOL    HW310901   1.149   4.347   4.517  0.1238 -0.4046 -0.5436
 2714SOL    MW410902   1.082   4.341   4.461 -0.4356 -0.1335  0.0954
 2715SOL     OW10903   0.730   4.125   4.663  0.2975 -0.2993  0.0360
 2715SOL    HW210904   0.772   4.181   4.729 -0.7921  0.6356 -0.0378
 2715SOL    HW310905   0.665   4.182   4.622  1.2328 -0.7624 -2.1252
 2715SOL    MW410906   0.727   4.140   4.667  0.2772 -0.2375 -0.2589
 2716SOL     OW10907   1.293   4.326   4.611  0.4682  0.1789  0.1934
 2716SOL    HW210908   1.275   4.239   4.645 -2.0529  0.5182 -0.1659
 2716SOL    HW310909   1.385   4.323   4.583  0.7044 -2.0161  1.1292
 2716SOL    MW410910   1.303   4.314   4.612  0.1668 -0.0663  0.2694
 2717SOL     OW10911   1.560   4.272   4.540  0.0715  0.0430 -0.3293
 2717SOL    HW210912   1.539   4.180   4.527  1.3415 -0.1560 -1.0767
 2717SOL    HW310913   1.592   4.301   4.454 -1.0387  1.3761 -0.3102
 2717SOL    MW410914   1.562   4.264   4.527  0.0924  0.1926 -0.4258
 2718SOL     OW10915   0.944   4.530   4.622  0.6623  0.2839  0.1496
 2718SOL    HW210916   0.978   4.480   4.548  0.4680 -0.9737  0.8988
 2718SOL    HW310917   1.021   4.551   4.674  0.8555  1.5810 -0.6558
 2718SOL    MW410918   0.958   4.526   4.619  0.6621  0.2894  0.1426
 2719SOL     OW10919   0.639   0.425   4.465  0.0489 -0.1672 -0.3056
 2719SOL    HW210920   0.587   0.499   4.497  0.5099 -0.2029  0.5500
 2719SOL    HW310921   0.681   0.458   4.385  0.7400  0.7093  0.4106
 2719SOL    MW410922   0.638   0.439   4.458  0.2010 -0.0562 -0.0982
 2720SOL     OW10923   1.826   0.190   4.539  0.8114 -0.3393  0.1234
 2720SOL    HW210924   1.757   0.248   4.570  1.1609  0.4749 -0.5958
 2720SOL    HW310925   1.814   0.109   4.588  0.6053  0.5066  1.4791
 2720SOL    MW410926   1.816   0.187   4.550  0.8304 -0.1202  0.2069
 2721SOL     OW10927   1.155   0.539   4.514 -0.0142  0.2567 -0.2756
 2721SOL    HW210928   1.064   0.515   4.533 -0.2447  0.4313 -1.1451
 2721SOL    HW310929   1.156   0.634   4.517 -0.0163  0.2840 -0.9158
 2721SOL    MW410930   1.143   0.548   4.517 -0.0448  0.2834 -0.4749
 2722SOL     OW10931   1.558   1.530   4.668  0.3182  0.4830  0.5578
 2722SOL    HW210932   1.619   1.509   4.739  2.0111  0.6033 -0.8319
 2722SOL    HW310933   1.608   1.588   4.610 -1.1967  0.7593 -0.5009
 2722SOL    MW410934   1.573   1.535   4.670  0.3417  0.5354  0.2351
 2723SOL     OW10935   0.894   0.944   4.485 -0.4194 -0.0654 -0.3965
 2723SOL    HW210936   0.864   0.936   4.394 -0.0334 -0.2790 -0.5018
 2723SOL    HW310937   0.915   1.037   4.494  0.7281 -0.2721 -0.8917
 2723SOL    MW410938   0.893   0.956   4.474 -0.2171 -0.1209 -0.4754
 2724SOL     OW10939   2.185   0.568   4.471  0.7576 -0.1932  0.0706
 2724SOL    HW210940   2.279   0.554   4.482  0.4760 -1.6654  0.6476
 2724SOL    HW310941   2.145   0.484   4.493 -0.6862  0.3630 -0.3655
 2724SOL    MW410942   2.192   0.555   4.475  0.5300 -0.3140  0.0901
 2725SOL     OW10943   1.600   1.140   4.443 -0.5842  0.6898 -0.0771
 2725SOL    HW210944   1.680   1.156   4.493 -0.5118 -0.7626  0.2871
 2725SOL    HW310945   1.556   1.070   4.490 -1.2375  0.3211 -1.2257
 2725SOL    MW410946   1.605   1.133   4.456 -0.6608  0.4494 -0.1807
 2726SOL     OW10947   1.289   1.999   4.372 -0.0441  0.1213  0.1983
 2726SOL    HW210948   1.245   1.927   4.417 -1.5348 -0.4941 -2.1073
 2726SOL    HW310949   1.368   1.960   4.335  0.6453  0.3832  1.3688
 2726SOL    MW410950   1.293   1.985   4.373 -0.1500  0.0746  0.0482
 2727SOL     OW10951   1.766   2.436   4.462 -0.0477  0.1585 -0.3825
 2727SOL    HW210952   1.734   2.524   4.485 -1.0940  0.0121 -1.2093
 2727SOL    HW310953   1.711   2.376   4.512 -0.2706 -0.0563 -0.8710
 2727SOL    MW410954   1.754   2.440   4.471 -0.2151  0.1109 -0.5560
 2728SOL     OW10955   2.004   2.330   4.552  0.3606 -0.1751 -0.2624
 2728SOL    HW210956   1.933   2.387   4.521  0.1608  0.3417  1.0891
 2728SOL    HW310957   2.034   2.372   4.633  0.5967 -1.7022  0.4542
 2728SOL    MW410958   1.999   2.343   4.559  0.3653 -0.3085  0.0110
 2729SOL     OW10959   1.030   2.371   4.840 -0.2036 -0.1183 -0.4508
 2729SOL    HW210960   1.051   2.452   4.792  1.2555 -0.0603  0.2452
 2729SOL    HW310961   0.990   2.401   4.922  0.9746 -0.0647  0.1131
 2729SOL    MW410962   1.028   2.386   4.845  0.1444 -0.1035 -0.2842
 2730SOL     OW10963   1.012   3.594   4.687 -0.1716 -0.9350 -0.0878
 2730SOL    HW210964   1.075   3.557   4.625 -1.8313 -2.2738 -1.0091
 2730SOL    HW310965   0.974   3.518   4.732 -1.0766 -0.1476  0.5158
 2730SOL    MW410966   1.015   3.579   4.685 -0.5099 -1.0078 -0.1292
 2731SOL     OW10967   1.349   2.422   4.574  0.3530  0.0634 -0.1999
 2731SOL    HW210968   1.280   2.461   4.629 -0.1638 -0.6732 -0.3151
 2731SOL    HW310969   1.367   2.489   4.508  0.3187  0.5851  0.3116
 2731SOL    MW410970   1.342   2.436   4.573  0.2804  0.0353 -0.1473
 2732SOL     OW10971   1.743   2.724   4.497  0.0911 -0.3367 -0.4425
 2732SOL    HW210972   1.694   2.786   4.551  0.7898 -1.8409  1.9982
 2732SOL    HW310973   1.830   2.763   4.488  0.3987 -0.7188  0.7356
 2732SOL    MW410974   1.748   2.737   4.503  0.2239 -0.5858  0.0348
 2733SOL     OW10975   1.267   2.797   4.613  0.0570 -0.4045 -0.0371
 2733SOL    HW210976   1.305   2.744   4.543  0.4163  0.2056 -0.3087
 2733SOL    HW310977   1.218   2.865   4.568  0.4844  0.1354  0.2921
 2733SOL    MW410978   1.266   2.799   4.598  0.1607 -0.2527 -0.0291
 2734SOL     OW10979   1.115   2.990   4.485 -0.2290 -0.1590 -0.0152
 2734SOL    HW210980   1.028   3.025   4.503 -0.6016 -0.8216 -0.4705
 2734SOL    HW310981   1.102   2.933   4.408  0.5749 -0.3628 -0.0025
 2734SOL    MW410982   1.102   2.987   4.477 -0.1720 -0.2735 -0.0739
 2735SOL     OW10983   0.797   3.659   4.519 -0.0850  0.4885  0.0944
 2735SOL    HW210984   0.731   3.728   4.523  1.2077  1.9096 -2.2703
 2735SOL    HW310985   0.869   3.690   4.574 -0.0377  0.3894  0.0899
 2735SOL    MW410986   0.798   3.672   4.527  0.0918  0.6630 -0.2184
 2736SOL     OW10987   2.132   3.522   4.514  0.1010 -0.2422 -0.2033
 2736SOL    HW210988   2.102   3.554   4.429 -0.1795 -0.2494 -0.1062
 2736SOL    HW310989   2.152   3.430   4.500  2.2065  0.2791 -0.8279
 2736SOL    MW410990   2.131   3.514   4.501  0.3417 -0.1748 -0.2728
 2737SOL     OW10991   1.807   3.219   4.549  0.5348 -0.2246  0.0888
 2737SOL    HW210992   1.888   3.186   4.587  1.4903  0.7938 -1.0053
 2737SOL    HW310993   1.823   3.219   4.454 -1.3478 -1.5641 -0.2691
 2737SOL    MW410994   1.820   3.215   4.541  0.4123 -0.2670 -0.1030
 2738SOL     OW10995   1.845   3.489   4.584 -0.0705 -0.0083  0.0249
 2738SOL    HW210996   1.939   3.500   4.577 -0.1047 -0.2257 -0.8050
 2738SOL    HW310997   1.831   3.394   4.579 -0.2830 -0.0253  0.8179
 2738SOL    MW410998   1.855   3.478   4.582 -0.1030 -0.0393  0.0196
 2739SOL     OW10999   0.968   4.070   4.502  0.2247  0.3447  0.1773
 2739SOL    HW211000   0.939   4.024   4.423 -0.6737  1.5289 -0.1949
 2739SOL    HW311001   0.894   4.065   4.562  0.8029 -0.3007  0.8546
 2739SOL    MW411002   0.955   4.063   4.499  0.1825  0.4153  0.2174
 2740SOL     OW11003   1.827   4.224   4.477 -0.3227 -0.3769 -0.1132
 2740SOL    HW211004   1.846   4.132   4.496 -0.6377  0.0254  2.2707
 2740SOL    HW311005   1.747   4.243   4.526 -0.2352  1.1685 -0.5487
 2740SOL    MW411006   1.819   4.214   4.486 -0.3526 -0.1202  0.1440
 2741SOL     OW11007   2.847   0.062   4.538  0.3997 -0.0392 -0.3033
 2741SOL    HW211008   2.915   0.101   4.483  0.3714  0.1736 -0.1885
 2741SOL    HW311009   2.772   0.049   4.479  0.7207 -0.7821 -0.5607
 2741SOL    MW411010   2.846   0.065   4.523  0.4385 -0.1092 -0.3223
 2742SOL     OW11011   1.258   0.115   4.529 -0.0643 -0.1990 -0.2217
 2742SOL    HW211012   1.283   0.203   4.556 -1.2695 -0.2334  1.0456
 2742SOL    HW311013   1.163   0.118   4.519 -0.0751 -1.2482 -0.5866
 2742SOL    MW411014   1.249   0.127   4.531 -0.2247 -0.3420 -0.1030
 2743SOL     OW11015   2.085   0.319   4.560 -0.3675  0.1226 -0.1924
 2743SOL    HW211016   2.003   0.276   4.534 -0.7599  0.5936  0.2450
 2743SOL    HW311017   2.152   0.252   4.551 -1.1874 -1.0058  1.8747
 2743SOL    MW411018   2.083   0.305   4.555 -0.5274  0.0359  0.1383
 2744SOL     OW11019   2.086   4.314   4.457  0.3099  0.5115  0.4499
 2744SOL    HW211020   2.132   4.230   4.464  0.4991  0.5242 -0.5779
 2744SOL    HW311021   1.994   4.292   4.468  0.2782  0.0435 -0.6562
 2744SOL    MW411022   2.080   4.300   4.460  0.3307  0.4520  0.1683
 2745SOL     OW11023   2.280   4.472   4.614 -0.0372  0.5747  0.2087
 2745SOL    HW211024   2.217   4.416   4.570  0.5798  2.4021 -3.1888
 2745SOL    HW311025   2.233   4.554   4.630  0.7744  1.1537 -0.2944
 2745SOL    MW411026   2.266   4.475   4.611  0.1512  0.8922 -0.3057
 2746SOL     OW11027   1.588   0.413   4.557  0.4891 -0.1729  0.3363
 2746SOL    HW211028   1.588   0.503   4.588  1.7003  0.0102 -0.1982
 2746SOL    HW311029   1.502   0.379   4.584 -0.6880  1.6673 -1.0216
 2746SOL    MW411030   1.576   0.420   4.565  0.4936  0.0940  0.0868
 2747SOL     OW11031   2.122   0.855   4.513  0.0720  0.4893 -0.6432
 2747SOL    HW211032   2.146   0.763   4.525  0.7716  0.7840  0.2634
 2747SOL    HW311033   2.027   0.853   4.503  0.2518 -0.5070 -2.4250
 2747SOL    MW411034   2.113   0.842   4.514  0.1879  0.3968 -0.7586
 2748SOL     OW11035   1.254   2.198   4.805  0.6051  0.3489 -0.2154
 2748SOL    HW211036   1.241   2.173   4.714 -2.0910 -3.3258  1.0416
 2748SOL    HW311037   1.175   2.246   4.828  0.5368 -0.1385  0.5968
 2748SOL    MW411038   1.242   2.201   4.796  0.2403 -0.2000  0.0577
 2749SOL     OW11039   1.702   1.712   4.496 -0.1761 -0.0366 -0.0363
 2749SOL    HW211040   1.724   1.703   4.403  1.7899  1.1402  0.2837
 2749SOL    HW311041   1.700   1.807   4.510 -3.6459 -0.1432  0.4178
 2749SOL    MW411042   1.705   1.724   4.486 -0.3743  0.1045  0.0658
 2750SOL     OW11043   1.171   1.785   4.478 -0.1720 -0.1642 -0.1151
 2750SOL    HW211044   1.201   1.745   4.397  0.9046 -2.2916  1.2805
 2750SOL    HW311045   1.220   1.739   4.547 -0.2880  2.2997  1.6707
 2750SOL    MW411046   1.182   1.773   4.477 -0.0452 -0.1198  0.3052
 2751SOL     OW11047   1.685   2.008   4.491  0.3935  0.1341  0.3040
 2751SOL    HW211048   1.778   2.030   4.498  0.0854  1.3751  0.6939
 2751SOL    HW311049   1.641   2.076   4.541 -0.8181  0.2497 -0.8886
 2751SOL    MW411050   1.691   2.020   4.499  0.1930  0.3130  0.1979
 2752SOL     OW11051   2.027   2.061   4.237 -0.3008 -0.4315 -0.0451
 2752SOL    HW211052   1.956   2.003   4.207 -0.5940  0.2083 -0.6087
 2752SOL    HW311053   2.107   2.016   4.210 -0.4889 -1.2134  0.6937
 2752SOL    MW411054   2.028   2.047   4.229 -0.3641 -0.4501 -0.0224
 2753SOL     OW11055   1.556   2.233   4.597 -0.0224 -0.0333  0.0893
 2753SOL    HW211056   1.483   2.295   4.596  0.8323  0.9940 -1.4850
 2753SOL    HW311057   1.555   2.196   4.685 -1.6752  0.8713  0.4799
 2753SOL    MW411058   1.546   2.236   4.608 -0.1277  0.2215 -0.0668
 2754SOL     OW11059   2.269   2.246   4.484  0.2813 -0.4412 -0.1741
 2754SOL    HW211060   2.279   2.152   4.500 -0.3874 -0.2761  1.3189
 2754SOL    HW311061   2.176   2.264   4.503  0.4920  0.5812 -0.0816
 2754SOL    MW411062   2.258   2.236   4.489  0.2208 -0.2847  0.0348
 2755SOL     OW11063   2.237   2.662   4.505  0.5233 -0.1202  0.3150
 2755SOL    HW211064   2.275   2.617   4.581  0.4792  0.5009  0.7058
 2755SOL    HW311065   2.247   2.599   4.433  0.6846 -0.6615  0.8025
 2755SOL    MW411066   2.243   2.648   4.506  0.5388 -0.1099  0.4311
 2756SOL     OW11067   1.208   4.059   4.644  0.2846 -0.0689 -0.3994
 2756SOL    HW211068   1.124   4.071   4.599  0.0202 -0.8134 -0.1053
 2756SOL    HW311069   1.198   3.977   4.692  1.4021 -0.4712 -0.8442
 2756SOL    MW411070   1.195   4.050   4.644  0.3973 -0.2198 -0.4191
 2757SOL     OW11071   2.209   3.246   4.496 -0.3042 -0.2692 -0.3051
 2757SOL    HW211072   2.227   3.236   4.403 -0.0521 -2.4074 -0.0556
 2757SOL    HW311073   2.287   3.287   4.532 -0.2684  0.2457 -0.9809
 2757SOL    MW411074   2.221   3.250   4.489 -0.2666 -0.4833 -0.3619
 2758SOL     OW11075   2.063   3.046   4.625 -0.1634  0.1700 -0.6086
 2758SOL    HW211076   2.115   3.036   4.705  0.3483 -0.4447 -1.0181
 2758SOL    HW311077   2.107   3.114   4.575 -0.2664  0.2857 -0.5423
 2758SOL    MW411078   2.075   3.054   4.629 -0.1094  0.1042 -0.6542
 2759SOL     OW11079   2.626   3.728   4.470  0.4058 -0.3814 -0.6506
 2759SOL    HW211080   2.572   3.680   4.533  0.9990 -1.4874 -0.9654
 2759SOL    HW311081   2.634   3.816   4.506 -1.4196 -0.2715 -0.4931
 2759SOL    MW411082   2.620   3.733   4.483  0.2437 -0.5128 -0.6709
 2760SOL     OW11083   1.534   3.179   4.617 -0.0119  0.5651 -0.8421
 2760SOL    HW211084   1.624   3.183   4.585  0.1581 -1.0717 -0.5981
 2760SOL    HW311085   1.541   3.207   4.709  0.2099  0.6488 -0.8834
 2760SOL    MW411086   1.547   3.183   4.625  0.0397  0.3600 -0.8154
 2761SOL     OW11087   2.370   3.613   4.629 -0.1490 -0.6115 -0.2518
 2761SOL    HW211088   2.274   3.612   4.629 -0.1457 -1.0113 -0.4346
 2761SOL    HW311089   2.395   3.521   4.635  0.2185 -0.5674 -1.0698
 2761SOL    MW411090   2.360   3.601   4.630 -0.1001 -0.6583 -0.3843
 2762SOL     OW11091   1.452   4.004   4.502  0.1155  0.4158  0.3119
 2762SOL    HW211092   1.367   4.004   4.547 -0.5928 -1.2793 -0.9607
 2762SOL    HW311093   1.499   3.929   4.539  0.5691  0.6058  0.1274
 2762SOL    MW411094   1.447   3.994   4.513  0.0819  0.2174  0.1197
 2763SOL     OW11095   2.298   0.143   4.508 -0.2679  0.0623  0.1737
 2763SOL    HW211096   2.392   0.129   4.514 -0.4725 -2.2012 -1.3912
 2763SOL    HW311097   2.277   0.128   4.416 -2.1691  0.4540  0.5222
 2763SOL    MW411098   2.307   0.139   4.496 -0.5460 -0.1846  0.0134
 2764SOL     OW11099   2.447   0.453   4.478  0.2518 -0.1913  0.1969
 2764SOL    HW211100   2.426   0.361   4.491 -0.6981 -0.0123 -0.0556
 2764SOL    HW311101   2.542   0.454   4.464  0.0380 -1.3236 -1.4677
 2764SOL    MW411102   2.457   0.441   4.478  0.0982 -0.3171 -0.0563
 2765SOL     OW11103   2.497   4.307   4.464 -0.5064 -0.0843  0.2554
 2765SOL    HW211104   2.482   4.351   4.380  0.9359  1.3320  0.7057
 2765SOL    HW311105   2.446   4.358   4.527 -0.3246 -0.1874  0.4861
 2765SOL    MW411106   2.488   4.320   4.461 -0.2923  0.0892  0.3452
 2766SOL     OW11107   2.090   4.042   4.583  0.0447  0.1551  0.0087
 2766SOL    HW211108   2.075   4.032   4.677 -0.1592 -0.0929 -0.0499
 2766SOL    HW311109   2.170   3.993   4.566  0.0155  0.0985  0.0330
 2766SOL    MW411110   2.098   4.034   4.593  0.0141  0.1149  0.0043
 2767SOL     OW11111   1.336   1.684   4.690  0.1567  0.1985 -0.4370
 2767SOL    HW211112   1.263   1.635   4.728  0.8051 -0.4527 -0.0168
 2767SOL    HW311113   1.410   1.624   4.694  1.1228  1.4119  0.6557
 2767SOL    MW411114   1.336   1.670   4.696  0.3698  0.2728 -0.2370
 2768SOL     OW11115   3.085   4.032   4.513 -0.2638 -0.2691  0.0026
 2768SOL    HW211116   2.989   4.029   4.519 -0.3907  1.3293 -1.1831
 2768SOL    HW311117   3.112   3.943   4.538 -2.0783 -0.9236 -0.2302
 2768SOL    MW411118   3.076   4.020   4.517 -0.5202 -0.1440 -0.1841
 2769SOL     OW11119   2.587   0.156   4.449 -0.2175 -0.5399 -0.3113
 2769SOL    HW211120   2.651   0.224   4.470 -0.8159  0.2356 -0.9630
 2769SOL    HW311121   2.604   0.133   4.357 -0.5353 -0.6893 -0.3377
 2769SOL    MW411122   2.597   0.162   4.439 -0.3386 -0.4573 -0.4010
 2770SOL     OW11123   2.954   1.049   4.642 -0.2316  0.2215  0.2058
 2770SOL    HW211124   2.898   1.124   4.664 -0.3122  1.0581 -2.6518
 2770SOL    HW311125   2.895   0.985   4.603  0.0344 -0.8810  1.5840
 2770SOL    MW411126   2.939   1.051   4.640 -0.2072  0.1864  0.0110
 2771SOL     OW11127   2.084   1.853   4.672  0.2223 -0.0083 -0.1196
 2771SOL    HW211128   2.039   1.861   4.755  0.6273  0.7089  0.0360
 2771SOL    HW311129   2.051   1.926   4.619  1.7012  0.9777  0.2529
 2771SOL    MW411130   2.074   1.864   4.676  0.4709  0.2165 -0.0501
 2772SOL     OW11131   2.356   1.342   4.444  0.5407 -0.3376 -0.8098
 2772SOL    HW211132   2.279   1.379   4.402  0.0364 -1.0124 -0.4841
 2772SOL    HW311133   2.329   1.255   4.472  0.9934 -0.0624  0.5417
 2772SOL    MW411134   2.343   1.335   4.442  0.5338 -0.3905 -0.5884
 2773SOL     OW11135   2.518   1.704   4.535  0.5966 -0.3913 -0.0068
 2773SOL    HW211136   2.611   1.694   4.515  0.7301  0.3279  0.2344
 2773SOL    HW311137   2.516   1.772   4.602  0.0753 -1.8817  1.5266
 2773SOL    MW411138   2.530   1.711   4.541  0.5455 -0.4930  0.2270
 2774SOL     OW11139   2.360   1.751   4.293  0.3868  0.1148 -0.4350
 2774SOL    HW211140   2.388   1.686   4.229 -1.0993 -1.5191  0.5067
 2774SOL    HW311141   2.427   1.748   4.362  0.3154 -0.4546 -0.3858
 2774SOL    MW411142   2.372   1.742   4.294  0.1814 -0.1758 -0.3037
 2775SOL     OW11143   1.970   2.057   4.518 -0.4048 -0.0516 -0.3994
 2775SOL    HW211144   2.006   2.048   4.429  0.6778  1.3297 -0.1157
 2775SOL    HW311145   1.988   2.147   4.542 -1.1189 -0.2889  1.0587
 2775SOL    MW411146   1.977   2.068   4.509 -0.3563  0.0994 -0.1698
 2776SOL     OW11147   2.279   1.979   4.519 -0.1557  0.4222 -0.2870
 2776SOL    HW211148   2.232   1.927   4.586 -0.8932  0.8718 -0.4453
 2776SOL    HW311149   2.305   1.914   4.454 -0.2000  0.1008  0.0081
 2776SOL    MW411150   2.276   1.963   4.519 -0.2587  0.4392 -0.2685
 2777SOL     OW11151   2.549   2.955   4.706  0.0979 -0.8197  0.2876
 2777SOL    HW211152   2.569   2.879   4.761  0.4743 -0.5781  0.4916
 2777SOL    HW311153   2.635   2.987   4.678 -0.1239 -1.5093 -1.2269
 2777SOL    MW411154   2.563   2.949   4.710  0.1180 -0.8786  0.1144
 2778SOL     OW11155   2.132   2.769   5.088 -0.5312  0.0000  0.2734
 2778SOL    HW211156   2.173   2.692   5.048  1.6950  1.8491 -1.1562
 2778SOL    HW311157   2.153   2.761   5.181  1.6737 -0.0079 -0.1872
 2778SOL    MW411158   2.140   2.758   5.095  0.0534  0.2429  0.0238
 2779SOL     OW11159   2.011   2.813   4.471  0.2310  0.6118 -0.3242
 2779SOL    HW211160   2.041   2.887   4.524 -1.2514  0.8381  0.1989
 2779SOL    HW311161   2.067   2.740   4.499  0.5844  1.1367  0.3473
 2779SOL    MW411162   2.023   2.813   4.482  0.0820  0.7110 -0.1669
 2780SOL     OW11163   2.444   2.841   4.466  0.4148 -0.0499 -0.1046
 2780SOL    HW211164   2.476   2.885   4.545  0.3668 -0.6174  0.2336
 2780SOL    HW311165   2.379   2.779   4.498  0.0394  0.0648 -0.6434
 2780SOL    MW411166   2.440   2.839   4.480  0.3586 -0.1097 -0.1311
 2781SOL     OW11167   2.402   3.167   4.809 -0.2849 -0.7880 -0.2491
 2781SOL    HW211168   2.450   3.089   4.779 -0.4220 -0.7161 -0.6632
 2781SOL    HW311169   2.316   3.133   4.834 -0.8787 -0.5506 -1.9010
 2781SOL    MW411170   2.397   3.152   4.808 -0.3815 -0.7470 -0.5217
 2782SOL     OW11171   1.851   3.932   4.466 -0.5421 -0.4536  0.2331
 2782SOL    HW211172   1.936   3.961   4.498  0.3816 -2.9419  0.1455
 2782SOL    HW311173   1.854   3.945   4.372 -0.6993  0.5151  0.3569
 2782SOL    MW411174   1.862   3.937   4.458 -0.4411 -0.6542  0.2379
 2783SOL     OW11175   2.913   3.646   4.480 -0.6899  0.3633  0.3217
 2783SOL    HW211176   2.836   3.684   4.520 -0.1259 -0.3529  2.1381
 2783SOL    HW311177   2.929   3.565   4.529  0.0846 -0.4811 -1.2739
 2783SOL    MW411178   2.905   3.640   4.492 -0.5133  0.1571  0.3505
 2784SOL     OW11179   2.211   2.925   4.819  0.2704  0.0478 -0.1251
 2784SOL    HW211180   2.257   2.856   4.771 -1.0141 -1.3999  0.6960
 2784SOL    HW311181   2.195   2.888   4.906  0.2608  1.6829  0.5997
 2784SOL    MW411182   2.215   2.911   4.824  0.0999  0.0725  0.0787
 2785SOL     OW11183   3.059   3.171   4.712 -0.4567  0.5050  0.2974
 2785SOL    HW211184   3.104   3.176   4.627  0.6097  0.2616  0.8432
 2785SOL    HW311185   3.022   3.258   4.724  0.0882  0.7863 -0.0396
 2785SOL    MW411186   3.060   3.183   4.702 -0.2441  0.5102  0.3247
 2786SOL     OW11187   3.645   3.853   4.531 -0.3068 -0.0744  0.3753
 2786SOL    HW211188   3.692   3.770   4.527 -1.1480 -0.5524  0.3266
 2786SOL    HW311189   3.714   3.919   4.539  0.3024 -0.8802  1.9413
 2786SOL    MW411190   3.661   3.851   4.531 -0.3374 -0.2437  0.5755
 2787SOL     OW11191   2.548   4.042   4.581 -0.2215  0.1362  0.3282
 2787SOL    HW211192   2.543   4.126   4.535 -0.4418  0.7089  1.3833
 2787SOL    HW311193   2.469   3.995   4.553  0.0984  0.1258 -0.5637
 2787SOL    MW411194   2.537   4.047   4.571 -0.2084  0.2108  0.3495
 2788SOL     OW11195   2.320   3.880   4.522  0.2902  0.1137  0.3530
 2788SOL    HW211196   2.299   3.877   4.429  1.6620  1.2716 -0.0101
 2788SOL    HW311197   2.340   3.789   4.544 -0.5907 -0.2558 -0.3467
 2788SOL    MW411198   2.320   3.867   4.513  0.3552  0.2177  0.2131
 2789SOL     OW11199   2.745   0.406   4.422 -0.0961  0.2113  0.5957
 2789SOL    HW211200   2.786   0.425   4.338 -1.0824 -0.5090 -0.0654
 2789SOL    HW311201   2.818   0.388   4.481  0.5431 -0.8018 -0.4916
 2789SOL    MW411202   2.760   0.406   4.418 -0.1419 -0.0174  0.3653
 2790SOL     OW11203   3.244   4.470   4.547 -0.0569 -0.3145  0.0543
 2790SOL    HW211204   3.281   4.391   4.587  0.4406  0.1686  0.5733
 2790SOL    HW311205   3.149   4.460   4.558 -0.0372 -1.1627 -0.5085
 2790SOL    MW411206   3.236   4.458   4.554  0.0112 -0.3629  0.0491
 2791SOL     OW11207   3.299   0.071   4.632  0.2046  0.0200  0.2759
 2791SOL    HW211208   3.390   0.080   4.604  0.9100 -0.6201  2.2617
 2791SOL    HW311209   3.278  -0.021   4.619  0.4251 -0.2072  1.5180
 2791SOL    MW411210   3.308   0.060   4.627  0.3266 -0.0945  0.7019
 2792SOL     OW11211   2.556   1.055   4.561  0.5832  0.7441  0.1004
 2792SOL    HW211212   2.621   1.125   4.557  0.0445  1.1785 -1.0882
 2792SOL    HW311213   2.608   0.976   4.576  1.3834  1.0966 -0.7789
 2792SOL    MW411214   2.572   1.054   4.563  0.6177  0.8479 -0.1717
 2793SOL     OW11215   3.806   1.215   4.480 -0.0795  0.3019  0.0175
 2793SOL    HW211216   3.835   1.232   4.390  0.1957 -0.7831 -0.1007
 2793SOL    HW311217   3.884   1.230   4.534 -0.3690  1.4338  0.1334
 2793SOL    MW411218   3.820   1.219   4.476 -0.0813  0.3080  0.0172
 2794SOL     OW11219   2.275   1.108   4.565 -0.2390  0.2092  0.1954
 2794SOL    HW211220   2.356   1.056   4.572  0.0150  0.5628 -0.0645
 2794SOL    HW311221   2.208   1.044   4.541 -0.0992 -0.1378  0.7255
 2794SOL    MW411222   2.277   1.093   4.562 -0.1874  0.2102  0.2308
 2795SOL     OW11223   2.913   1.439   4.467  0.0190  0.0104 -0.1798
 2795SOL    HW211224   2.858   1.517   4.472 -1.9598 -1.3125 -0.9793
 2795SOL    HW311225   2.893   1.401   4.382 -0.0875 -2.1478  0.7918
 2795SOL    MW411226   2.903   1.445   4.456 -0.2563 -0.4488 -0.1574
 2796SOL     OW11227   3.178   1.530   4.478  0.5876  0.0436  0.0136
 2796SOL    HW211228   3.095   1.484   4.467  0.0752  1.0533 -0.3975
 2796SOL    HW311229   3.155   1.610   4.525  1.4311  0.0203  0.4810
 2796SOL    MW411230   3.164   1.534   4.483  0.6311  0.1737  0.0210
 2797SOL     OW11231   2.730   1.275   4.606  0.0414  0.5785  0.8721
 2797SOL    HW211232   2.658   1.329   4.640 -0.0532  0.2250  1.2294
 2797SOL    HW311233   2.789   1.338   4.564 -1.8165  0.6117 -1.8212
 2797SOL    MW411234   2.728   1.291   4.605 -0.2162  0.5362  0.5636
 2798SOL     OW11235   2.643   2.117   4.327  0.3613  0.3232  0.3454
 2798SOL    HW211236   2.672   2.092   4.415 -0.1476  0.2295  0.4892
 2798SOL    HW311237   2.681   2.051   4.269  1.0620  0.6428  0.4479
 2798SOL    MW411238   2.652   2.105   4.331  0.3862  0.3529  0.3777
 2799SOL     OW11239   2.716   2.058   4.597 -0.4033 -0.0397  0.1186
 2799SOL    HW211240   2.667   2.005   4.659 -1.0662  0.2567 -0.1415
 2799SOL    HW311241   2.739   2.138   4.645 -1.1626  0.3134 -0.0977
 2799SOL    MW411242   2.713   2.062   4.611 -0.5908  0.0458  0.0558
 2800SOL     OW11243   2.894   1.944   4.437  0.1877  0.1371 -0.4805
 2800SOL    HW211244   2.924   2.019   4.385 -0.0157  0.2262 -0.4669
 2800SOL    HW311245   2.844   1.983   4.509  0.3780  0.0081 -0.2778
 2800SOL    MW411246   2.892   1.959   4.440  0.1857  0.1318 -0.4520
 2801SOL     OW11247   2.741   2.323   4.692 -0.1835 -0.4383 -0.2874
 2801SOL    HW211248   2.807   2.385   4.660 -0.1715 -0.7225 -0.8177
 2801SOL    HW311249   2.657   2.364   4.671 -0.1852  0.2839  1.0853
 2801SOL    MW411250   2.739   2.337   4.685 -0.1824 -0.3805 -0.1769
 2802SOL     OW11251   2.468   2.430   4.555  0.1148  0.4287 -0.2171
 2802SOL    HW211252   2.403   2.366   4.527  0.8989  0.2354 -1.6395
 2802SOL    HW311253   2.428   2.474   4.630 -1.0877 -0.6157 -0.2316
 2802SOL    MW411254   2.454   2.428   4.561  0.0596  0.2654 -0.4067
 2803SOL     OW11255   2.782   3.055   4.589 -0.3292  0.2152 -0.1468
 2803SOL    HW211256   2.835   3.091   4.660  0.0758  0.9150 -0.7971
 2803SOL    HW311257   2.845   3.015   4.530 -0.7295 -1.0502  0.2636
 2803SOL    MW411258   2.797   3.054   4.591 -0.3285  0.1407 -0.1788
 2804SOL     OW11259   2.645   2.566   5.028 -0.5873 -0.3833 -0.0873
 2804SOL    HW211260   2.697   2.486   5.027 -0.3362 -0.2174 -0.4714
 2804SOL    HW311261   2.573   2.548   5.089 -0.3950 -0.8122  0.0098
 2804SOL    MW411262   2.642   2.553   5.036 -0.5286 -0.4182 -0.1254
 2805SOL     OW11263   2.430   3.350   4.607  0.1005  0.4418  0.5204
 2805SOL    HW211264   2.518   3.342   4.571 -0.1552 -1.7940  0.3251
 2805SOL    HW311265   2.428   3.289   4.681 -1.3036  0.4518  0.5109
 2805SOL    MW411266   2.441   3.341   4.612 -0.1183  0.1483  0.4940
 2806SOL     OW11267   2.944   3.407   4.627  0.1044  0.1051  0.5407
 2806SOL    HW211268   3.009   3.368   4.568  0.3239  1.2636 -0.0158
 2806SOL    HW311269   2.860   3.374   4.595  0.2141  0.8157 -0.5151
 2806SOL    MW411270   2.941   3.397   4.615  0.1478  0.3519  0.3276
 2807SOL     OW11271   3.194   3.273   4.489  0.3217 -0.0926  0.4259
 2807SOL    HW211272   3.175   3.244   4.399 -0.2393 -1.1197  0.8670
 2807SOL    HW311273   3.286   3.253   4.501 -0.0341 -1.6280  0.6876
 2807SOL    MW411274   3.204   3.266   4.479  0.2010 -0.4308  0.5183
 2808SOL     OW11275   3.273   2.985   4.689 -0.1767  0.7510 -0.0649
 2808SOL    HW211276   3.205   3.041   4.726  0.0457  1.6924 -1.0511
 2808SOL    HW311277   3.227   2.928   4.628 -0.2642  0.4898  0.2416
 2808SOL    MW411278   3.258   2.985   4.686 -0.1590  0.8409 -0.1550
 2809SOL     OW11279   3.143   3.767   4.594  0.2053 -0.3203  0.1308
 2809SOL    HW211280   3.051   3.751   4.574 -0.5377  0.5610  2.6083
 2809SOL    HW311281   3.190   3.702   4.543 -1.9429 -2.2673  0.5395
 2809SOL    MW411282   3.137   3.756   4.585 -0.1764 -0.4609  0.5112
 2810SOL     OW11283   3.283   3.563   4.481  0.0336  0.1055 -0.4119
 2810SOL    HW211284   3.231   3.486   4.506  0.3418 -0.6166 -1.9202
 2810SOL    HW311285   3.371   3.544   4.512  0.1036 -0.1466 -0.7607
 2810SOL    MW411286   3.288   3.550   4.488  0.0832 -0.0229 -0.6571
 2811SOL     OW11287   2.809   4.036   4.484  0.1125 -0.3065  0.4468
 2811SOL    HW211288   2.738   4.045   4.547 -0.5731 -1.2368 -0.1834
 2811SOL    HW311289   2.766   4.014   4.402  1.1208 -0.8042  0.0417
 2811SOL    MW411290   2.794   4.034   4.482  0.1547 -0.4945  0.3099
 2812SOL     OW11291   2.783   4.306   4.434 -0.2239  0.2595  0.0835
 2812SOL    HW211292   2.810   4.218   4.457 -0.4319 -0.0738 -0.8984
 2812SOL    HW311293   2.688   4.306   4.447 -0.3840 -0.0230 -1.0255
 2812SOL    MW411294   2.774   4.295   4.439 -0.2725  0.1783 -0.1926
 2813SOL     OW11295   3.324   0.477   4.549  0.3851  0.3330 -0.9489
 2813SOL    HW211296   3.337   0.481   4.454  0.9452  0.3858 -0.8696
 2813SOL    HW311297   3.311   0.568   4.575  0.4561  0.3403 -0.9406
 2813SOL    MW411298   3.324   0.490   4.540  0.4685  0.3409 -0.9375
 2814SOL     OW11299   2.763   0.835   4.540 -0.3632  0.3424  0.6780
 2814SOL    HW211300   2.750   0.839   4.445  0.1574  2.0264  0.6605
 2814SOL    HW311301   2.744   0.744   4.563 -2.3806  0.3675 -0.7537
 2814SOL    MW411302   2.759   0.824   4.530 -0.5605  0.5679  0.4869
 2815SOL     OW11303   2.236   1.298   4.766  0.1769 -0.1882 -0.0766
 2815SOL    HW211304   2.238   1.222   4.708  0.6283 -0.4455  0.2693
 2815SOL    HW311305   2.304   1.356   4.733 -0.5760  0.3468 -0.7061
 2815SOL    MW411306   2.245   1.296   4.754  0.1371 -0.1515 -0.1144
 2816SOL     OW11307   2.969   4.466   4.536  0.4057  0.0266 -0.1289
 2816SOL    HW211308   2.906   4.401   4.505  0.1940  0.2537 -0.1859
 2816SOL    HW311309   2.914   4.541   4.560  0.5638 -0.1684  0.8545
 2816SOL    MW411310   2.953   4.468   4.535  0.3989  0.0305 -0.0062
 2817SOL     OW11311   3.379   0.724   4.648 -0.0962  0.1156 -0.0242
 2817SOL    HW211312   3.465   0.748   4.614 -0.0222  0.2249  0.2389
 2817SOL    HW311313   3.396   0.697   4.738 -0.3607  0.2992  0.0811
 2817SOL    MW411314   3.393   0.724   4.655 -0.1214  0.1543  0.0238
 2818SOL     OW11315   3.601   1.345   4.609  0.1859  0.0799 -0.2015
 2818SOL    HW211316   3.520   1.303   4.580  0.8293 -0.0313 -1.8559
 2818SOL    HW311317   3.671   1.300   4.562  0.9930  1.9881 -0.8844
 2818SOL    MW411318   3.599   1.334   4.599  0.3772  0.3170 -0.5097
 2819SOL     OW11319   2.516   1.439   4.645  0.0103 -0.0266  0.5552
 2819SOL    HW211320   2.460   1.400   4.578 -0.1440 -0.9303  1.1870
 2819SOL    HW311321   2.498   1.533   4.640  0.6130  0.0163 -1.2060
 2819SOL    MW411322   2.506   1.446   4.636  0.0696 -0.1401  0.4058
 2820SOL     OW11323   3.463   1.585   4.494 -0.3385 -0.5663 -0.2503
 2820SOL    HW211324   3.502   1.500   4.511 -0.1105 -0.4667 -0.2693
 2820SOL    HW311325   3.368   1.569   4.492 -0.3900 -0.5130  1.5009
 2820SOL    MW411326   3.455   1.572   4.496 -0.3152 -0.5462 -0.0219
 2821SOL     OW11327   3.150   1.807   4.474  0.0749  0.4803 -0.0017
 2821SOL    HW211328   3.215   1.876   4.489 -0.1879  1.2143 -2.0357
 2821SOL    HW311329   3.068   1.855   4.460 -0.1346 -0.2528 -1.3005
 2821SOL    MW411330   3.147   1.822   4.474  0.0124  0.4805 -0.4416
 2822SOL     OW11331   2.771   1.677   4.433  0.4117 -0.1035 -0.3310
 2822SOL    HW211332   2.819   1.760   4.428  0.0649  0.1199  0.0436
 2822SOL    HW311333   2.736   1.665   4.345 -1.0245  1.0447  0.0648
 2822SOL    MW411334   2.772   1.686   4.421  0.1762  0.0775 -0.2298
 2823SOL     OW11335   3.305   2.293   4.586 -0.3243 -0.2485  0.0690
 2823SOL    HW211336   3.257   2.357   4.533  0.6488  0.9054  0.5765
 2823SOL    HW311337   3.266   2.300   4.673 -0.6824 -0.8543 -0.0338
 2823SOL    MW411338   3.293   2.302   4.590 -0.2434 -0.1762  0.1221
 2824SOL     OW11339   3.533   1.850   4.587  0.0762 -0.2988 -0.9041
 2824SOL    HW211340   3.466   1.903   4.543  1.1281  0.6227 -1.4262
 2824SOL    HW311341   3.496   1.761   4.588 -1.0290  0.1394 -1.4343
 2824SOL    MW411342   3.519   1.845   4.581  0.0691 -0.1194 -1.0428
 2825SOL     OW11343   2.596   2.618   4.359  0.1160 -0.2420 -0.9497
 2825SOL    HW211344   2.533   2.686   4.334  0.7253  1.2243  1.2697
 2825SOL    HW311345   2.548   2.564   4.422  0.4842 -0.1769 -0.6060
 2825SOL    MW411346   2.581   2.620   4.364  0.2449 -0.0401 -0.6118
 2826SOL     OW11347   3.602   2.361   4.549 -0.0855 -0.2386  0.4057
 2826SOL    HW211348   3.518   2.315   4.553 -0.5537  0.5512 -0.1123
 2826SOL    HW311349   3.586   2.443   4.595  0.1148  0.3396 -0.5433
 2826SOL    MW411350   3.589   2.366   4.556 -0.1206 -0.0582  0.2122
 2827SOL     OW11351   3.158   2.512   4.480  0.2362 -0.1774  0.3095
 2827SOL    HW211352   3.167   2.499   4.385  0.7626 -0.1870  0.3577
 2827SOL    HW311353   3.066   2.494   4.498  0.1247 -0.1316 -0.2094
 2827SOL    MW411354   3.147   2.508   4.469  0.2909 -0.1731  0.2470
 2828SOL     OW11355   3.608   2.620   4.639  0.1655  0.2020  0.0478
 2828SOL    HW211356   3.658   2.680   4.584 -2.4273  2.6167  0.1840
 2828SOL    HW311357   3.569   2.676   4.706 -1.2793 -1.8336  0.9713
 2828SOL    MW411358   3.609   2.636   4.641 -0.3674  0.2518  0.1869
 2829SOL     OW11359   2.739   2.732   4.551 -0.1885  0.2337  0.1090
 2829SOL    HW211360   2.681   2.707   4.479 -0.1921 -0.0890  0.2253
 2829SOL    HW311361   2.686   2.722   4.630 -0.5287  1.6274  0.0748
 2829SOL    MW411362   2.725   2.727   4.552 -0.2337  0.3753  0.1197
 2830SOL     OW11363   2.938   2.901   4.428  0.2420  0.2876  0.2963
 2830SOL    HW211364   3.026   2.871   4.453  0.2630  0.4270  0.3928
 2830SOL    HW311365   2.879   2.833   4.461  0.2539  0.5586  0.8960
 2830SOL    MW411366   2.942   2.888   4.436  0.2460  0.3417  0.3881
 2831SOL     OW11367   4.064   2.659   4.661  0.2015  0.5897  0.3164
 2831SOL    HW211368   3.978   2.625   4.684  0.2096  1.1513  1.2090
 2831SOL    HW311369   4.113   2.661   4.743  0.7914  1.0492 -0.0319
 2831SOL    MW411370   4.059   2.655   4.675  0.2804  0.7243  0.3881
 2832SOL     OW11371   3.489   2.818   4.779  0.2045 -0.3787 -0.5380
 2832SOL    HW211372   3.547   2.888   4.811  0.3047 -0.7345  0.0836
 2832SOL    HW311373   3.401   2.852   4.792  0.1032 -1.7761  3.3020
 2832SOL    MW411374   3.485   2.832   4.785  0.2043 -0.6101  0.0505
 2833SOL     OW11375   3.414   4.032   4.273  0.4486  0.6524  0.2941
 2833SOL    HW211376   3.412   3.991   4.360  0.4214 -0.2299 -0.1200
 2833SOL    HW311377   3.436   3.960   4.214  0.9616  1.3571 -0.3704
 2833SOL    MW411378   3.417   4.017   4.277  0.5128  0.6289  0.1516
 2834SOL     OW11379   3.391   3.956   4.537  0.0555 -0.2619  0.4716
 2834SOL    HW211380   3.481   3.930   4.558 -0.6103 -1.4129  1.9818
 2834SOL    HW311381   3.337   3.887   4.575 -1.4269 -0.2152 -1.4691
 2834SOL    MW411382   3.396   3.943   4.545 -0.2279 -0.4077  0.4148
 2835SOL     OW11383   3.320   4.207   4.620  0.3097  0.0790  0.1165
 2835SOL    HW211384   3.367   4.129   4.590  1.3206  1.2235 -1.3480
 2835SOL    HW311385   3.227   4.185   4.609  0.5399 -1.3524  0.8816
 2835SOL    MW411386   3.314   4.193   4.615  0.4733  0.0415  0.0248
 2836SOL     OW11387   3.668   4.459   4.528 -0.3208 -0.1669  0.4252
 2836SOL    HW211388   3.595   4.432   4.583 -0.4376  0.5395  0.6251
 2836SOL    HW311389   3.640   4.441   4.438 -1.4170  1.6609  0.3824
 2836SOL    MW411390   3.655   4.453   4.523 -0.4809  0.1669  0.4463
 2837SOL     OW11391   3.921   3.974   4.492  0.3969 -0.8505  0.2767
 2837SOL    HW211392   3.969   3.897   4.462  0.4581 -1.0569  0.8940
 2837SOL    HW311393   3.988   4.039   4.512  0.3271 -0.4900 -0.6299
 2837SOL    MW411394   3.936   3.972   4.491  0.3958 -0.8302  0.2384
 2838SOL     OW11395   3.563   0.054   4.537  0.4282 -0.0634  0.0558
 2838SOL    HW211396   3.550   0.074   4.444  1.1634 -1.1756 -0.2990
 2838SOL    HW311397   3.611  -0.029   4.537  0.2018 -0.2063  1.4369
 2838SOL    MW411398   3.567   0.045   4.525  0.4954 -0.2291  0.1917
 2839SOL     OW11399   3.213   1.002   4.521 -0.1727  0.2627 -0.0745
 2839SOL    HW211400   3.248   0.926   4.569  0.7425  0.9534  0.3700
 2839SOL    HW311401   3.127   1.017   4.558 -1.1870 -1.7593 -1.4937
 2839SOL    MW411402   3.206   0.994   4.532 -0.1855  0.0870 -0.2031
 2840SOL     OW11403   3.329   1.254   4.510  0.1041 -0.6653  0.2992
 2840SOL    HW211404   3.264   1.323   4.523 -0.1064 -0.3703 -2.0487
 2840SOL    HW311405   3.281   1.173   4.522 -0.1249 -0.4200  1.0423
 2840SOL    MW411406   3.314   1.253   4.513  0.0460 -0.5940  0.0873
 2841SOL     OW11407   4.247   1.295   4.523 -0.0507 -0.6760  0.6204
 2841SOL    HW211408   4.276   1.205   4.538 -1.2238 -1.2923 -0.7181
 2841SOL    HW311409   4.161   1.300   4.563 -0.1240 -0.2403  0.4101
 2841SOL    MW411410   4.240   1.284   4.530 -0.2155 -0.6999  0.4158
 2842SOL     OW11411   3.818   1.489   4.731  0.0915 -0.4990  0.0670
 2842SOL    HW211412   3.775   1.559   4.780 -0.1455 -0.1205 -0.6722
 2842SOL    HW311413   3.746   1.441   4.690  0.3551  0.2048 -1.2672
 2842SOL    MW411414   3.803   1.492   4.732  0.0949 -0.3561 -0.2065
 2843SOL     OW11415   4.066   0.814   4.488  0.7417  0.1554  0.3899
 2843SOL    HW211416   4.066   0.718   4.488  0.0889  0.1393 -0.5146
 2843SOL    HW311417   4.093   0.838   4.399  0.3874  0.8013  0.4509
 2843SOL    MW411418   4.069   0.805   4.476  0.6089  0.2385  0.2785
 2844SOL     OW11419   4.046   0.539   4.487 -0.1162 -0.2402  0.0752
 2844SOL    HW211420   4.129   0.506   4.451 -1.7936 -4.0104 -0.6039
 2844SOL    HW311421   4.016   0.469   4.546 -1.4523  2.3118  2.5361
 2844SOL    MW411422   4.053   0.525   4.490 -0.5136 -0.4010  0.3104
 2845SOL     OW11423   3.963   1.682   4.569  0.1660 -0.0363 -0.0079
 2845SOL    HW211424   3.925   1.607   4.615  1.6937  0.5206  2.2825
 2845SOL    HW311425   3.907   1.755   4.593 -1.0970 -0.3342 -1.9318
 2845SOL    MW411426   3.951   1.681   4.579  0.2010 -0.0023  0.0410
 2846SOL     OW11427   3.791   1.870   4.679  0.0075  0.0435  0.0576
 2846SOL    HW211428   3.699   1.872   4.652 -0.0437  0.2083  0.2465
 2846SOL    HW311429   3.791   1.905   4.768  0.2433 -0.0390  0.0900
 2846SOL    MW411430   3.779   1.875   4.687  0.0317  0.0542  0.0863
 2847SOL     OW11431   3.333   2.010   4.468 -0.0267 -0.1136  0.0199
 2847SOL    HW211432   3.361   2.025   4.377  1.1022  0.5839  0.4800
 2847SOL    HW311433   3.311   2.097   4.501  0.1635 -0.2904  0.6127
 2847SOL    MW411434   3.334   2.023   4.460  0.1473 -0.0448  0.1583
 2848SOL     OW11435   0.515   2.962   4.542  0.5320 -0.1208  0.0927
 2848SOL    HW211436   0.507   2.891   4.606 -1.8186 -0.3083 -0.3653
 2848SOL    HW311437   0.455   2.937   4.472  0.9051  1.5375 -0.8358
 2848SOL    MW411438   0.506   2.949   4.541  0.2711  0.0734 -0.0901
 2849SOL     OW11439   0.057   1.868   4.564  0.2668 -0.4588  0.1135
 2849SOL    HW211440  -0.026   1.892   4.605 -0.4676  0.4307 -1.8446
 2849SOL    HW311441   0.051   1.774   4.550 -0.0074 -0.5564  0.8447
 2849SOL    MW411442   0.045   1.859   4.568  0.1337 -0.3544 -0.0482
 2850SOL     OW11443   3.908   2.029   4.484  0.0177  0.2761  0.3822
 2850SOL    HW211444   4.002   2.014   4.494 -0.1441  0.0918  1.7064
 2850SOL    HW311445   3.868   1.966   4.543 -0.9256  0.7301  0.2282
 2850SOL    MW411446   3.915   2.019   4.493 -0.1278  0.3116  0.5369
 2851SOL     OW11447   4.101   2.895   4.509  0.0545 -0.0480  0.2642
 2851SOL    HW211448   4.194   2.885   4.493  0.1279  0.8231  0.1193
 2851SOL    HW311449   4.079   2.824   4.570  0.9208  0.1050  0.7627
 2851SOL    MW411450   4.110   2.884   4.515  0.1783  0.0873  0.3109
 2852SOL     OW11451   3.179   2.795   4.483 -0.2230 -0.5988  0.0561
 2852SOL    HW211452   3.171   2.699   4.483  0.3207 -0.6483 -0.2990
 2852SOL    HW311453   3.250   2.813   4.421 -0.3657  0.0397  0.0718
 2852SOL    MW411454   3.187   2.785   4.475 -0.1702 -0.5212  0.0119
 2853SOL     OW11455   3.696   3.051   4.458  0.4336  0.3350 -1.0365
 2853SOL    HW211456   3.785   3.080   4.479 -0.1125  0.6714  0.9263
 2853SOL    HW311457   3.706   2.961   4.429  1.2787 -0.0727  0.4898
 2853SOL    MW411458   3.709   3.043   4.457  0.4728  0.3259 -0.5760
 2854SOL     OW11459   2.707   3.332   4.493  0.3973 -0.4401 -0.6192
 2854SOL    HW211460   2.695   3.353   4.400 -0.7344  0.7059 -0.2175
 2854SOL    HW311461   2.715   3.236   4.494  0.0477 -0.4991 -1.8534
 2854SOL    MW411462   2.707   3.322   4.481  0.2019 -0.2968 -0.7296
 2855SOL     OW11463   3.957   3.155   4.525 -0.0336  0.1835 -0.3129
 2855SOL    HW211464   4.007   3.073   4.522  0.8815  0.7449 -0.3340
 2855SOL    HW311465   4.017   3.221   4.492 -0.5505  0.9908  0.3574
 2855SOL    MW411466   3.971   3.153   4.520  0.0191  0.3641 -0.2265
 2856SOL     OW11467   3.476   3.167   4.579  0.1888 -0.1016 -0.2622
 2856SOL    HW211468   3.550   3.115   4.547 -1.6595 -1.9997 -1.5979
 2856SOL    HW311469   3.421   3.103   4.625 -1.8729  0.7530 -1.4905
 2856SOL    MW411470   3.478   3.151   4.581 -0.3269 -0.2391 -0.6008
 2857SOL     OW11471   3.752   2.787   4.403  0.3157 -0.2548  0.4954
 2857SOL    HW211472   3.837   2.808   4.367  1.0333 -1.2260  1.5745
 2857SOL    HW311473   3.701   2.754   4.329  0.7662  0.6317 -0.2104
 2857SOL    MW411474   3.756   2.785   4.389  0.4697 -0.2663  0.5445
 2858SOL     OW11475   0.129   2.799   4.431 -0.3135 -0.1204 -0.2543
 2858SOL    HW211476   0.165   2.717   4.464 -0.2505 -0.0771 -0.2166
 2858SOL    HW311477   0.202   2.843   4.388 -0.6155 -0.5917 -1.2578
 2858SOL    MW411478   0.143   2.794   4.430 -0.3451 -0.1769 -0.3819
 2859SOL     OW11479   4.419   4.216   4.654 -0.3340 -0.0871  0.3123
 2859SOL    HW211480   4.338   4.179   4.618  0.1752 -1.5907  0.6537
 2859SOL    HW311481   4.419   4.189   4.746  1.8737 -2.5098 -0.3377
 2859SOL    MW411482   4.408   4.207   4.661  0.0248 -0.6051  0.2718
 2860SOL     OW11483   3.989   0.318   4.669 -0.3358 -0.0962  0.2456
 2860SOL    HW211484   3.952   0.303   4.756 -0.7007 -1.8133 -0.1842
 2860SOL    HW311485   3.925   0.279   4.609  0.3252  0.3127 -0.7372
 2860SOL    MW411486   3.975   0.311   4.672 -0.2966 -0.2688  0.0587
 2861SOL     OW11487   2.938   0.311   4.596  0.3173  0.0768  0.0632
 2861SOL    HW211488   2.888   0.229   4.605 -0.6819  0.5460 -1.1056
 2861SOL    HW311489   3.017   0.296   4.648  0.5329 -1.9466 -0.7876
 2861SOL    MW411490   2.942   0.298   4.604  0.2139 -0.1283 -0.2031
 2862SOL     OW11491   3.602   0.766   4.498 -0.6300  0.1958  0.3362
 2862SOL    HW211492   3.655   0.843   4.519 -1.6133  1.0457 -0.2699
 2862SOL    HW311493   3.587   0.771   4.404  0.2043 -1.3243  0.1101
 2862SOL    MW411494   3.607   0.776   4.489 -0.6497  0.1073  0.2260
 2863SOL     OW11495   3.839   0.920   4.579  0.1252  0.0578  0.0046
 2863SOL    HW211496   3.914   0.881   4.535 -0.4242 -1.0564  0.0350
 2863SOL    HW311497   3.823   1.002   4.532  1.3693  0.3077  0.0203
 2863SOL    MW411498   3.847   0.926   4.567  0.2170 -0.0562  0.0100
 2864SOL     OW11499   0.144   0.482   4.488  0.1219  0.0876  0.2606
 2864SOL    HW211500   0.175   0.483   4.398 -0.7227 -0.2865 -0.0365
 2864SOL    HW311501   0.049   0.483   4.481  0.0463  1.4931  1.1688
 2864SOL    MW411502   0.136   0.482   4.475  0.0005  0.2237  0.3414
 2865SOL     OW11503   0.249   0.761   4.584 -0.0492 -0.1850  0.3046
 2865SOL    HW211504   0.204   0.678   4.572  0.5716 -0.5500  0.5012
 2865SOL    HW311505   0.261   0.770   4.678  0.3015 -0.0982  0.2551
 2865SOL    MW411506   0.245   0.751   4.594  0.0790 -0.2217  0.3233
 2866SOL     OW11507   4.230   0.203   4.568 -0.2574 -0.0684 -0.8430
 2866SOL    HW211508   4.152   0.230   4.616 -0.2464 -2.5376  0.6431
 2866SOL    HW311509   4.203   0.201   4.476 -1.3552  1.0754 -0.5536
 2866SOL    MW411510   4.216   0.206   4.562 -0.4005 -0.2433 -0.6089
 2867SOL     OW11511   4.025   1.316   4.670 -0.2567  0.1680 -0.0068
 2867SOL    HW211512   3.967   1.377   4.715 -0.1426  0.1385  0.1813
 2867SOL    HW311513   4.015   1.233   4.716  1.0250  0.5299  0.9590
 2867SOL    MW411514   4.016   1.313   4.682 -0.0725  0.2118  0.1454
 2868SOL     OW11515   0.439   1.710   4.505  0.0693 -0.4841 -0.2722
 2868SOL    HW211516   0.439   1.718   4.410 -1.0789  0.9105 -0.1772
 2868SOL    HW311517   0.348   1.691   4.527  0.1741  0.0248  0.6148
 2868SOL    MW411518   0.427   1.709   4.496 -0.0683 -0.2331 -0.1431
 2869SOL     OW11519   0.067   1.598   4.529 -0.2687 -0.0428  0.2683
 2869SOL    HW211520  -0.005   1.565   4.583 -0.3501 -1.8613 -0.9318
 2869SOL    HW311521   0.032   1.597   4.440  0.5297  1.1201 -0.0693
 2869SOL    MW411522   0.053   1.594   4.525 -0.1741 -0.1293  0.0653
 2870SOL     OW11523   4.356   1.498   4.682 -0.2238 -0.0880 -0.5544
 2870SOL    HW211524   4.361   1.465   4.772 -0.3472  1.2782 -0.0309
 2870SOL    HW311525   4.328   1.422   4.630  1.4442 -1.3152  0.2986
 2870SOL    MW411526   4.353   1.483   4.687 -0.0196 -0.0696 -0.3729
 2871SOL     OW11527   2.569   2.671   4.790 -0.3871 -0.4067 -0.0627
 2871SOL    HW211528   2.607   2.640   4.873 -0.3377 -0.7243 -0.2020
 2871SOL    HW311529   2.480   2.634   4.790  0.1020 -1.6102 -0.8187
 2871SOL    MW411530   2.562   2.662   4.801 -0.3159 -0.6075 -0.1807
 2872SOL     OW11531   4.268   2.040   4.277  0.1629 -0.0347  0.2497
 2872SOL    HW211532   4.193   2.002   4.230  1.4763 -2.9816  0.4388
 2872SOL    HW311533   4.244   2.033   4.369  0.5872 -0.8330  0.3035
 2872SOL    MW411534   4.255   2.034   4.283  0.3924 -0.5291  0.2818
 2873SOL     OW11535   4.094   2.400   4.539 -0.4444 -0.4616 -0.3026
 2873SOL    HW211536   4.088   2.493   4.559 -0.4999 -0.7004  0.8620
 2873SOL    HW311537   4.019   2.361   4.585 -0.7641 -1.0046 -1.2626
 2873SOL    MW411538   4.083   2.407   4.548 -0.4935 -0.5648 -0.2756
 2874SOL     OW11539   4.002   1.063   4.759  0.1971 -0.2078  0.0278
 2874SOL    HW211540   3.941   1.015   4.704  0.3230 -0.2088 -0.1122
 2874SOL    HW311541   4.088   1.024   4.739  0.2189 -0.3270  0.3515
 2874SOL    MW411542   4.005   1.051   4.749  0.2165 -0.2238  0.0520
 2875SOL     OW11543   3.851   2.270   4.634  0.3473  0.0293  0.2656
 2875SOL    HW211544   3.763   2.285   4.600  0.3951 -1.3377 -0.5288
 2875SOL    HW311545   3.872   2.180   4.606  2.1019  0.4458  0.1795
 2875SOL    MW411546   3.842   2.260   4.626  0.5853 -0.0961  0.1493
 2876SOL     OW11547   3.964   2.878   4.261  0.0273  0.0489 -0.8802
 2876SOL    HW211548   3.921   2.957   4.229 -1.3543 -0.4679 -0.3145
 2876SOL    HW311549   4.022   2.909   4.331 -0.4502  0.5793 -0.7147
 2876SOL    MW411550   3.966   2.892   4.266 -0.2184  0.0505 -0.7839
 2877SOL     OW11551   4.380   2.941   4.460 -0.2995 -0.1296 -0.1348
 2877SOL    HW211552   4.343   2.921   4.374 -0.3820 -2.0271  0.3329
 2877SOL    HW311553   4.463   2.893   4.463  0.1907  0.7241  0.4788
 2877SOL    MW411554   4.386   2.932   4.449 -0.2460 -0.2675  0.0076
 2878SOL     OW11555   4.168   3.328   4.463  0.4400  0.3726 -0.0102
 2878SOL    HW211556   4.255   3.291   4.477  1.3087  1.9691 -1.0252
 2878SOL    HW311557   4.141   3.297   4.377 -1.4537 -2.8175  1.6268
 2878SOL    MW411558   4.176   3.319   4.454  0.3047  0.1624  0.0725
 2879SOL     OW11559   0.161   3.630   4.497  0.1879  0.1774 -0.1684
 2879SOL    HW211560   0.200   3.627   4.409  0.0346  0.9581 -0.2589
 2879SOL    HW311561   0.216   3.691   4.546  0.1773 -0.1359  0.2415
 2879SOL    MW411562   0.173   3.637   4.492  0.1663  0.2391 -0.1259
 2880SOL     OW11563   4.215   4.487   4.308 -0.0090 -0.2562 -0.5182
 2880SOL    HW211564   4.289   4.446   4.353  0.3244  2.3728  1.4682
 2880SOL    HW311565   4.151   4.504   4.377 -1.6100 -0.6226 -1.8871
 2880SOL    MW411566   4.216   4.484   4.323 -0.1760  0.0429 -0.4363
 2881SOL     OW11567   3.767   0.249   4.526 -0.1536  0.6260  0.5887
 2881SOL    HW211568   3.718   0.331   4.520 -1.1931 -0.1793 -2.7778
 2881SOL    HW311569   3.700   0.182   4.536  0.4704 -0.1439 -0.3435
 2881SOL    MW411570   3.751   0.251   4.526 -0.2081  0.4182  0.0219
 2882SOL     OW11571   3.531   3.461   4.543  0.0620 -0.0046  0.2660
 2882SOL    HW211572   3.621   3.487   4.524  0.1484 -0.0739  0.5647
 2882SOL    HW311573   3.539   3.376   4.586 -0.0122  0.7785  1.8905
 2882SOL    MW411574   3.544   3.453   4.546  0.0637  0.0896  0.5202
 2883SOL     OW11575   3.197   0.312   4.707 -0.1172 -0.0431 -0.4911
 2883SOL    HW211576   3.237   0.378   4.650 -2.5314  0.5130 -1.5997
 2883SOL    HW311577   3.234   0.229   4.677  4.1534  0.8072  1.9220
 2883SOL    MW411578   3.208   0.310   4.696  0.1276  0.1425 -0.3190
 2884SOL     OW11579   4.181   4.336   4.082  0.4230 -0.0233 -0.4608
 2884SOL    HW211580   4.272   4.354   4.060  0.7320  0.2424  0.9915
 2884SOL    HW311581   4.164   4.388   4.161 -0.6572 -0.9145 -0.0857
 2884SOL    MW411582   4.190   4.345   4.090  0.3209 -0.1059 -0.2198
 2885NA      NA11583   1.315   4.479   0.383 -0.1917 -0.0877  0.1697
   4.49070   4.66690  10.00000
