Gromacs Runs On Most of All Computer Systems
   62
    1DC     O5'    1   2.526   2.368   5.423
    1DC     H5T    2   2.617   2.364   5.464
    1DC     C5'    3   2.495   2.502   5.389
    1DC    H5'1    4   2.564   2.534   5.325
    1DC    H5'2    5   2.499   2.557   5.473
    1DC     C4'    6   2.357   2.508   5.327
    1DC     H4'    7   2.332   2.603   5.310
    1DC     O4'    8   2.358   2.434   5.202
    1DC     C1'    9   2.222   2.382   5.189
    1DC     H1'   10   2.178   2.434   5.116
    1DC      N1   11   2.225   2.240   5.150
    1DC      C6   12   2.308   2.167   5.229
    1DC      H6   13   2.358   2.212   5.303
    1DC      C5   14   2.324   2.034   5.208
    1DC      H5   15   2.385   1.979   5.265
    1DC      C4   16   2.249   1.976   5.101
    1DC      N4   17   2.260   1.845   5.076
    1DC     H41   18   2.320   1.788   5.132
    1DC     H42   19   2.208   1.804   5.001
    1DC      N3   20   2.167   2.050   5.025
    1DC      C2   21   2.153   2.183   5.047
    1DC      O2   22   2.078   2.251   4.977
    1DC     C3'   23   2.258   2.434   5.417
    1DC     H3'   24   2.295   2.358   5.470
    1DC     C2'   25   2.146   2.398   5.320
    1DC    H2'1   26   2.101   2.313   5.346
    1DC    H2'2   27   2.078   2.471   5.314
    1DC     O3'   28   2.209   2.523   5.516
    2DG       P   29   2.235   2.491   5.672
    2DG     O1P   30   2.195   2.610   5.750
    2DG     O2P   31   2.373   2.437   5.685
    2DG     O5'   32   2.132   2.372   5.705
    2DG     C5'   33   1.995   2.400   5.735
    2DG    H5'1   34   1.957   2.454   5.660
    2DG    H5'2   35   1.991   2.453   5.820
    2DG     C4'   36   1.920   2.270   5.751
    2DG     H4'   37   1.825   2.290   5.774
    2DG     O4'   38   1.924   2.195   5.627
    2DG     C1'   39   1.933   2.057   5.662
    2DG     H1'   40   1.849   2.013   5.629
    2DG      N9   41   2.051   2.000   5.595
    2DG      C8   42   2.181   2.047   5.595
    2DG      H8   43   2.210   2.130   5.644
    2DG      N7   44   2.263   1.973   5.525
    2DG      C5   45   2.182   1.871   5.476
    2DG      C6   46   2.210   1.760   5.394
    2DG      O6   47   2.322   1.736   5.350
    2DG      N1   48   2.099   1.680   5.367
    2DG      H1   49   2.114   1.600   5.309
    2DG      C2   50   1.966   1.701   5.413
    2DG      N2   51   1.863   1.620   5.384
    2DG     H21   52   1.877   1.539   5.327
    2DG     H22   53   1.772   1.640   5.420
    2DG      N3   54   1.947   1.807   5.490
    2DG      C4   55   2.053   1.887   5.518
    2DG     C3'   56   1.991   2.183   5.854
    2DG     H3'   57   2.089   2.198   5.862
    2DG     C2'   58   1.949   2.042   5.813
    2DG    H2'1   59   2.020   1.975   5.836
    2DG    H2'2   60   1.863   2.016   5.856
    2DG     O3'   61   1.941   2.212   5.984
    2DG     H3T   62   1.988   2.155   6.051
   4.49070   4.66690  10.00000
