;
;	File 'topol.top' was generated
;	By user: chemistry (1000)
;	On host: max-2
;	At date: Tue Jul 30 16:13:25 2024
;
;	This is a standalone topology file
;
;	Created by:
;	                    :-) GROMACS - gmx pdb2gmx, 2020.3 (-:
;	
;	Executable:   /usr/local/gromacs/bin/gmx
;	Data prefix:  /usr/local/gromacs
;	Working dir:  /home/chemistry/MD/CG_DNA
;	Command line:
;	  gmx pdb2gmx -f CG.gro -ignh
;	Force field was read from the standard GROMACS share directory.
;

; Include forcefield parameters
#include "amber_na_desres.ff/forcefield.itp"

[ moleculetype ]
; Name            nrexcl
DNA                 3

[ atoms ]
;   nr       type  resnr residue  atom   cgnr     charge       mass  typeB    chargeB      massB
; residue   1 DC  rtp DC5  q -0.3
     1         OH      1     DC    O5'      1    -0.6318         16
     2         HO      1     DC    H5T      2     0.4422      1.008
     3         CI      1     DC    C5'      3    -0.0069      12.01
     4         H1      1     DC   H5'1      4     0.0754      1.008
     5         H1      1     DC   H5'2      5     0.0754      1.008
     6         CT      1     DC    C4'      6     0.1629      12.01
     7         H1      1     DC    H4'      7     0.1176      1.008
     8         OS      1     DC    O4'      8    -0.3691         16
     9         CT      1     DC    C1'      9    -0.0116      12.01
    10         H2      1     DC    H1'     10     0.1963      1.008
    11         N*      1     DC     N1     11    -0.0339      14.01
    12         CM      1     DC     C6     12    -0.0183      12.01
    13         H4      1     DC     H6     13     0.2293      1.008
    14         CM      1     DC     C5     14    -0.5222      12.01
    15         HA      1     DC     H5     15     0.1863      1.008
    16         CA      1     DC     C4     16     0.8439      12.01
    17         N2      1     DC     N4     17    -0.9773      14.01
    18          H      1     DC    H41     18     0.4314      1.008
    19          H      1     DC    H42     19     0.4314      1.008
    20         NC      1     DC     N3     20    -0.7748      14.01
    21          C      1     DC     C2     21     0.7959      12.01
    22          O      1     DC     O2     22    -0.6548         16
    23         CT      1     DC    C3'     23     0.0713      12.01
    24         H1      1     DC    H3'     24     0.0985      1.008
    25         CT      1     DC    C2'     25    -0.0854      12.01
    26         HC      1     DC   H2'1     26     0.0718      1.008
    27         HC      1     DC   H2'2     27     0.0718      1.008
    28         OS      1     DC    O3'     28    -0.5232         16   ; qtot -0.3079
; residue   2 DG  rtp DG3  q -0.7
    29          P      2     DG      P     29     1.1659      30.97
    30         O2      2     DG    O1P     30    -0.7761         16
    31         O2      2     DG    O2P     31    -0.7761         16
    32         OS      2     DG    O5'     32    -0.4954         16
    33         CI      2     DG    C5'     33    -0.0069      12.01
    34         H1      2     DG   H5'1     34     0.0754      1.008
    35         H1      2     DG   H5'2     35     0.0754      1.008
    36         CT      2     DG    C4'     36     0.1629      12.01
    37         H1      2     DG    H4'     37     0.1176      1.008
    38         OS      2     DG    O4'     38    -0.3691         16
    39         CT      2     DG    C1'     39     0.0358      12.01
    40         H2      2     DG    H1'     40     0.1746      1.008
    41         N*      2     DG     N9     41     0.0577      14.01
    42         CK      2     DG     C8     42     0.0736      12.01
    43         H5      2     DG     H8     43     0.1997      1.008
    44         NB      2     DG     N7     44    -0.5725      14.01
    45         CB      2     DG     C5     45     0.1991      12.01
    46          C      2     DG     C6     46     0.4918      12.01
    47          O      2     DG     O6     47    -0.5699         16
    48         NA      2     DG     N1     48    -0.5053      14.01
    49          H      2     DG     H1     49      0.352      1.008
    50         CA      2     DG     C2     50     0.7432      12.01
    51         N2      2     DG     N2     51     -0.923      14.01
    52          H      2     DG    H21     52     0.4235      1.008
    53          H      2     DG    H22     53     0.4235      1.008
    54         NC      2     DG     N3     54    -0.6636      14.01
    55         CB      2     DG     C4     55     0.1814      12.01
    56         CT      2     DG    C3'     56     0.0713      12.01
    57         H1      2     DG    H3'     57     0.0985      1.008
    58         CT      2     DG    C2'     58    -0.0854      12.01
    59         HC      2     DG   H2'1     59     0.0718      1.008
    60         HC      2     DG   H2'2     60     0.0718      1.008
    61         OH      2     DG    O3'     61    -0.6549         16
    62         HO      2     DG    H3T     62     0.4396      1.008   ; qtot -1

[ bonds ]
;  ai    aj funct            c0            c1            c2            c3
    1     2     1 
    1     3     1 
    3     4     1 
    3     5     1 
    3     6     1 
    6     7     1 
    6     8     1 
    6    23     1 
    8     9     1 
    9    10     1 
    9    11     1 
    9    25     1 
   11    12     1 
   11    21     1 
   12    13     1 
   12    14     1 
   14    15     1 
   14    16     1 
   16    17     1 
   16    20     1 
   17    18     1 
   17    19     1 
   20    21     1 
   21    22     1 
   23    24     1 
   23    25     1 
   23    28     1 
   25    26     1 
   25    27     1 
   28    29     1 
   29    30     1 
   29    31     1 
   29    32     1 
   32    33     1 
   33    34     1 
   33    35     1 
   33    36     1 
   36    37     1 
   36    38     1 
   36    56     1 
   38    39     1 
   39    40     1 
   39    41     1 
   39    58     1 
   41    42     1 
   41    55     1 
   42    43     1 
   42    44     1 
   44    45     1 
   45    46     1 
   45    55     1 
   46    47     1 
   46    48     1 
   48    49     1 
   48    50     1 
   50    51     1 
   50    54     1 
   51    52     1 
   51    53     1 
   54    55     1 
   56    57     1 
   56    58     1 
   56    61     1 
   58    59     1 
   58    60     1 
   61    62     1 

[ pairs ]
;  ai    aj funct            c0            c1            c2            c3
    1     7     1 
    1     8     1 
    1    23     1 
    2     4     1 
    2     5     1 
    2     6     1 
    3     9     1 
    3    24     1 
    3    25     1 
    3    28     1 
    4     7     1 
    4     8     1 
    4    23     1 
    5     7     1 
    5     8     1 
    5    23     1 
    6    10     1 
    6    11     1 
    6    26     1 
    6    27     1 
    6    29     1 
    7     9     1 
    7    24     1 
    7    25     1 
    7    28     1 
    8    12     1 
    8    21     1 
    8    24     1 
    8    26     1 
    8    27     1 
    8    28     1 
    9    13     1 
    9    14     1 
    9    20     1 
    9    22     1 
    9    24     1 
    9    28     1 
   10    12     1 
   10    21     1 
   10    23     1 
   10    26     1 
   10    27     1 
   11    15     1 
   11    16     1 
   11    23     1 
   11    26     1 
   11    27     1 
   12    17     1 
   12    20     1 
   12    22     1 
   12    25     1 
   13    15     1 
   13    16     1 
   13    21     1 
   14    18     1 
   14    19     1 
   14    21     1 
   15    17     1 
   15    20     1 
   16    22     1 
   17    21     1 
   18    20     1 
   19    20     1 
   21    25     1 
   23    30     1 
   23    31     1 
   23    32     1 
   24    26     1 
   24    27     1 
   24    29     1 
   25    29     1 
   26    28     1 
   27    28     1 
   28    33     1 
   29    34     1 
   29    35     1 
   29    36     1 
   30    33     1 
   31    33     1 
   32    37     1 
   32    38     1 
   32    56     1 
   33    39     1 
   33    57     1 
   33    58     1 
   33    61     1 
   34    37     1 
   34    38     1 
   34    56     1 
   35    37     1 
   35    38     1 
   35    56     1 
   36    40     1 
   36    41     1 
   36    59     1 
   36    60     1 
   36    62     1 
   37    39     1 
   37    57     1 
   37    58     1 
   37    61     1 
   38    42     1 
   38    55     1 
   38    57     1 
   38    59     1 
   38    60     1 
   38    61     1 
   39    43     1 
   39    44     1 
   39    45     1 
   39    54     1 
   39    57     1 
   39    61     1 
   40    42     1 
   40    55     1 
   40    56     1 
   40    59     1 
   40    60     1 
   41    46     1 
   41    50     1 
   41    56     1 
   41    59     1 
   41    60     1 
   42    46     1 
   42    54     1 
   42    58     1 
   43    45     1 
   43    55     1 
   44    47     1 
   44    48     1 
   44    54     1 
   45    49     1 
   45    50     1 
   46    51     1 
   46    54     1 
   47    49     1 
   47    50     1 
   47    55     1 
   48    52     1 
   48    53     1 
   48    55     1 
   49    51     1 
   49    54     1 
   51    55     1 
   52    54     1 
   53    54     1 
   55    58     1 
   57    59     1 
   57    60     1 
   57    62     1 
   58    62     1 
   59    61     1 
   60    61     1 

[ angles ]
;  ai    aj    ak funct            c0            c1            c2            c3
    2     1     3     1 
    1     3     4     1 
    1     3     5     1 
    1     3     6     1 
    4     3     5     1 
    4     3     6     1 
    5     3     6     1 
    3     6     7     1 
    3     6     8     1 
    3     6    23     1 
    7     6     8     1 
    7     6    23     1 
    8     6    23     1 
    6     8     9     1 
    8     9    10     1 
    8     9    11     1 
    8     9    25     1 
   10     9    11     1 
   10     9    25     1 
   11     9    25     1 
    9    11    12     1 
    9    11    21     1 
   12    11    21     1 
   11    12    13     1 
   11    12    14     1 
   13    12    14     1 
   12    14    15     1 
   12    14    16     1 
   15    14    16     1 
   14    16    17     1 
   14    16    20     1 
   17    16    20     1 
   16    17    18     1 
   16    17    19     1 
   18    17    19     1 
   16    20    21     1 
   11    21    20     1 
   11    21    22     1 
   20    21    22     1 
    6    23    24     1 
    6    23    25     1 
    6    23    28     1 
   24    23    25     1 
   24    23    28     1 
   25    23    28     1 
    9    25    23     1 
    9    25    26     1 
    9    25    27     1 
   23    25    26     1 
   23    25    27     1 
   26    25    27     1 
   23    28    29     1 
   28    29    30     1 
   28    29    31     1 
   28    29    32     1 
   30    29    31     1 
   30    29    32     1 
   31    29    32     1 
   29    32    33     1 
   32    33    34     1 
   32    33    35     1 
   32    33    36     1 
   34    33    35     1 
   34    33    36     1 
   35    33    36     1 
   33    36    37     1 
   33    36    38     1 
   33    36    56     1 
   37    36    38     1 
   37    36    56     1 
   38    36    56     1 
   36    38    39     1 
   38    39    40     1 
   38    39    41     1 
   38    39    58     1 
   40    39    41     1 
   40    39    58     1 
   41    39    58     1 
   39    41    42     1 
   39    41    55     1 
   42    41    55     1 
   41    42    43     1 
   41    42    44     1 
   43    42    44     1 
   42    44    45     1 
   44    45    46     1 
   44    45    55     1 
   46    45    55     1 
   45    46    47     1 
   45    46    48     1 
   47    46    48     1 
   46    48    49     1 
   46    48    50     1 
   49    48    50     1 
   48    50    51     1 
   48    50    54     1 
   51    50    54     1 
   50    51    52     1 
   50    51    53     1 
   52    51    53     1 
   50    54    55     1 
   41    55    45     1 
   41    55    54     1 
   45    55    54     1 
   36    56    57     1 
   36    56    58     1 
   36    56    61     1 
   57    56    58     1 
   57    56    61     1 
   58    56    61     1 
   39    58    56     1 
   39    58    59     1 
   39    58    60     1 
   56    58    59     1 
   56    58    60     1 
   59    58    60     1 
   56    61    62     1 

[ dihedrals ]
;  ai    aj    ak    al funct            c0            c1            c2            c3            c4            c5
    2     1     3     4     9 
    2     1     3     5     9 
    2     1     3     6     9 
    1     3     6     7     9 
    1     3     6     8     9 
    1     3     6    23     9 
    4     3     6     7     9 
    4     3     6     8     9 
    4     3     6    23     9 
    5     3     6     7     9 
    5     3     6     8     9 
    5     3     6    23     9 
    3     6     8     9     9 
    7     6     8     9     9 
   23     6     8     9     9 
    3     6    23    24     9 
    3     6    23    25     9 
    3     6    23    28     9 
    7     6    23    24     9 
    7     6    23    25     9 
    7     6    23    28     9 
    8     6    23    24     9 
    8     6    23    25     9 
    8     6    23    28     9 
    6     8     9    10     9 
    6     8     9    11     9 
    6     8     9    25     9 
    8     9    11    12     9 
    8     9    11    21     9 
   10     9    11    12     9 
   10     9    11    21     9 
   25     9    11    12     9 
   25     9    11    21     9 
    8     9    25    23     9 
    8     9    25    26     9 
    8     9    25    27     9 
   10     9    25    23     9 
   10     9    25    26     9 
   10     9    25    27     9 
   11     9    25    23     9 
   11     9    25    26     9 
   11     9    25    27     9 
    9    11    12    13     9 
    9    11    12    14     9 
   21    11    12    13     9 
   21    11    12    14     9 
    9    11    21    20     9 
    9    11    21    22     9 
   12    11    21    20     9 
   12    11    21    22     9 
   11    12    14    15     9 
   11    12    14    16     9 
   13    12    14    15     9 
   13    12    14    16     9 
   12    14    16    17     9 
   12    14    16    20     9 
   15    14    16    17     9 
   15    14    16    20     9 
   14    16    17    18     9 
   14    16    17    19     9 
   20    16    17    18     9 
   20    16    17    19     9 
   14    16    20    21     9 
   17    16    20    21     9 
   16    20    21    11     9 
   16    20    21    22     9 
    6    23    25     9     9 
    6    23    25    26     9 
    6    23    25    27     9 
   24    23    25     9     9 
   24    23    25    26     9 
   24    23    25    27     9 
   28    23    25     9     9 
   28    23    25    26     9 
   28    23    25    27     9 
    6    23    28    29     9 
   24    23    28    29     9 
   25    23    28    29     9 
   23    28    29    30     9 
   23    28    29    31     9 
   23    28    29    32     9 
   28    29    32    33     9 
   30    29    32    33     9 
   31    29    32    33     9 
   29    32    33    34     9 
   29    32    33    35     9 
   29    32    33    36     9 
   32    33    36    37     9 
   32    33    36    38     9 
   32    33    36    56     9 
   34    33    36    37     9 
   34    33    36    38     9 
   34    33    36    56     9 
   35    33    36    37     9 
   35    33    36    38     9 
   35    33    36    56     9 
   33    36    38    39     9 
   37    36    38    39     9 
   56    36    38    39     9 
   33    36    56    57     9 
   33    36    56    58     9 
   33    36    56    61     9 
   37    36    56    57     9 
   37    36    56    58     9 
   37    36    56    61     9 
   38    36    56    57     9 
   38    36    56    58     9 
   38    36    56    61     9 
   36    38    39    40     9 
   36    38    39    41     9 
   36    38    39    58     9 
   38    39    41    42     9 
   38    39    41    55     9 
   40    39    41    42     9 
   40    39    41    55     9 
   58    39    41    42     9 
   58    39    41    55     9 
   38    39    58    56     9 
   38    39    58    59     9 
   38    39    58    60     9 
   40    39    58    56     9 
   40    39    58    59     9 
   40    39    58    60     9 
   41    39    58    56     9 
   41    39    58    59     9 
   41    39    58    60     9 
   39    41    42    43     9 
   39    41    42    44     9 
   55    41    42    43     9 
   55    41    42    44     9 
   39    41    55    45     9 
   39    41    55    54     9 
   42    41    55    45     9 
   42    41    55    54     9 
   41    42    44    45     9 
   43    42    44    45     9 
   42    44    45    46     9 
   42    44    45    55     9 
   44    45    46    47     9 
   44    45    46    48     9 
   55    45    46    47     9 
   55    45    46    48     9 
   44    45    55    41     9 
   44    45    55    54     9 
   46    45    55    41     9 
   46    45    55    54     9 
   45    46    48    49     9 
   45    46    48    50     9 
   47    46    48    49     9 
   47    46    48    50     9 
   46    48    50    51     9 
   46    48    50    54     9 
   49    48    50    51     9 
   49    48    50    54     9 
   48    50    51    52     9 
   48    50    51    53     9 
   54    50    51    52     9 
   54    50    51    53     9 
   48    50    54    55     9 
   51    50    54    55     9 
   50    54    55    41     9 
   50    54    55    45     9 
   36    56    58    39     9 
   36    56    58    59     9 
   36    56    58    60     9 
   57    56    58    39     9 
   57    56    58    59     9 
   57    56    58    60     9 
   61    56    58    39     9 
   61    56    58    59     9 
   61    56    58    60     9 
   36    56    61    62     9 
   57    56    61    62     9 
   58    56    61    62     9 

[ dihedrals ]
;  ai    aj    ak    al funct            c0            c1            c2            c3
    9    11    12    21     4 
   11    14    12    13     4 
   11    20    21    22     4 
   12    16    14    15     4 
   14    17    16    20     4 
   16    18    17    19     4 
   39    41    42    55     4 
   41    44    42    43     4 
   45    48    46    47     4 
   46    50    48    49     4 
   50    52    51    53     4 
   51    48    50    54     4 

; Include Position restraint file
#ifdef POSRES
#include "posre.itp"
#endif

; Include water topology
#include "amber_na_desres.ff/tip4pd.itp"

#ifdef POSRES_WATER
; Position restraint for each water oxygen
[ position_restraints ]
;  i funct       fcx        fcy        fcz
   1    1       1000       1000       1000
#endif

; Include topology for ions
#include "amber_na_desres.ff/ions.itp"

[ system ]
; Name
Gromacs Runs On Most of All Computer Systems in water

[ molecules ]
; Compound        #mols
DNA                 1
SOL              2880
NA                  1
