Gromacs Runs On Most of All Computer Systems in water
11558
    1RG35     P    1   2.280   2.412   4.367  0.1981  0.1738  0.2144
    1RG35   O1P    2   2.393   2.481   4.434 -0.2568 -0.1133 -0.3462
    1RG35   O2P    3   2.271   2.272   4.398  0.1963 -0.1281 -0.2191
    1RG35   O5'    4   2.153   2.466   4.434  0.2173  0.2654  0.1981
    1RG35   C5'    5   2.128   2.610   4.433  0.2147 -0.2076 -0.7194
    1RG35  H5'1    6   2.103   2.642   4.331 -0.1413 -0.1172 -0.6038
    1RG35  H5'2    7   2.219   2.663   4.462 -1.0929  2.0202 -0.5328
    1RG35   C4'    8   2.024   2.664   4.530 -0.3485  0.2192  0.1381
    1RG35   H4'    9   2.019   2.773   4.532 -0.9145  0.2023 -0.3004
    1RG35   O4'   10   1.896   2.623   4.497  0.3057 -0.0324  0.1154
    1RG35   C1'   11   1.816   2.632   4.615 -0.1900  0.5871  0.8899
    1RG35   H1'   12   1.756   2.723   4.620 -0.2407  0.5009  1.8361
    1RG35    N9   13   1.718   2.518   4.615  0.1931  0.7375  0.2395
    1RG35    C8   14   1.579   2.517   4.604 -0.2983 -0.1192 -0.3815
    1RG35    H8   15   1.519   2.605   4.584 -1.1184 -0.4068  0.7878
    1RG35    N7   16   1.515   2.403   4.621  0.3419 -0.2710  0.0840
    1RG35    C5   17   1.623   2.317   4.655 -0.0720  0.8354 -0.3960
    1RG35    C6   18   1.627   2.176   4.671 -0.7089 -0.0556 -0.4893
    1RG35    O6   19   1.535   2.099   4.659  0.6224 -0.2427  0.3427
    1RG35    N1   20   1.756   2.121   4.701  0.1574 -0.2218  0.0106
    1RG35    H1   21   1.767   2.021   4.706 -1.4978 -0.4108  0.2369
    1RG35    C2   22   1.865   2.196   4.682 -0.0440  0.1710  0.3370
    1RG35    N2   23   1.980   2.133   4.692  0.2670 -0.0713 -0.2548
    1RG35   H21   24   1.981   2.032   4.700  0.1319 -0.1060 -0.6713
    1RG35   H22   25   2.060   2.193   4.704 -0.1446  0.1103  1.8109
    1RG35    N3   26   1.869   2.328   4.659 -0.0970  0.4332  0.1096
    1RG35    C4   27   1.744   2.386   4.652 -0.7704 -0.1794 -0.0731
    1RG35   C3'   28   2.044   2.608   4.673 -0.5722  0.3159  0.5126
    1RG35   H3'   29   2.063   2.501   4.677  2.3817  0.7881  0.1426
    1RG35   C2'   30   1.910   2.641   4.735  0.4585  0.4764  0.3057
    1RG35  H2'1   31   1.877   2.569   4.810  0.1003 -0.4494 -0.7201
    1RG35   O2'   32   1.922   2.770   4.779  0.0525 -0.0317  0.3601
    1RG35  HO'2   33   2.010   2.766   4.817  0.8778 -2.0702 -1.6419
    1RG35   O3'   34   2.148   2.678   4.740  0.1987  0.6009  0.5676
    1RG35   H3T   35   2.225   2.620   4.738 -1.0735 -1.1593  0.7353
    1RG35   O3P   36   2.270   2.451   4.226 -0.0659  0.1391  0.1999
    1SOL     OW   37   2.308   1.657   0.477 -0.4912 -0.2274  0.3502
    1SOL    HW2   38   2.327   1.565   0.457  1.0704  0.2283 -0.3539
    1SOL    HW3   39   2.284   1.657   0.570  2.0691 -1.0136  1.0513
    1SOL    MW4   40   2.307   1.645   0.487  0.0529 -0.2710  0.3498
    1SOL     OW   41   4.285   3.618   0.697  0.0004 -0.2700  0.4854
    1SOL    HW2   42   4.298   3.694   0.754 -1.2015  0.4127 -0.1418
    1SOL    HW3   43   4.206   3.576   0.730  0.1549 -0.7491  0.2564
    1SOL    MW4   44   4.277   3.622   0.709 -0.1378 -0.2432  0.3725
    1SOL     OW   45   2.683   0.977   0.497 -0.0408  0.6823  0.2739
    1SOL    HW2   46   2.656   0.918   0.427 -1.3491 -0.6132  1.8341
    1SOL    HW3   47   2.685   0.922   0.575  0.7919  2.2405  1.3799
    1SOL    MW4   48   2.680   0.962   0.498 -0.1035  0.7169  0.6257
    1SOL     OW   49   2.732   2.745   0.320  0.4107 -0.0728 -0.0077
    1SOL    HW2   50   2.815   2.704   0.300  0.8970  1.3154 -0.9351
    1SOL    HW3   51   2.671   2.672   0.335  1.8397 -1.0884  0.9597
    1SOL    MW4   52   2.735   2.730   0.319  0.6635 -0.0236 -0.0024
    1SOL     OW   53   0.767   3.972   0.150  0.3407  0.2513  0.0852
    1SOL    HW2   54   0.779   3.957   0.056 -0.6345 -0.1409  0.0227
    1SOL    HW3   55   0.855   3.960   0.187  0.4164 -1.3416 -0.5546
    1SOL    MW4   56   0.780   3.968   0.142  0.2220 -0.0105 -0.0075
    1SOL     OW   57   0.017   2.404   0.785 -0.0639 -0.3650  0.0360
    1SOL    HW2   58   0.049   2.387   0.696 -1.5616 -1.6376 -0.2756
    1SOL    HW3   59   0.002   2.499   0.788 -0.5033 -0.3873 -1.2383
    1SOL    MW4   60   0.019   2.414   0.773 -0.3195 -0.5357 -0.1732
    1SOL     OW   61   0.839   0.134   0.474  0.2919  0.0565 -0.5427
    1SOL    HW2   62   0.746   0.152   0.489  1.0538  1.8116  2.6785
    1SOL    HW3   63   0.868   0.202   0.414 -0.3311 -0.1105 -1.0421
    1SOL    MW4   64   0.831   0.145   0.468  0.3102  0.2661 -0.1836
    1SOL     OW   65   4.214   0.267   0.504 -0.0596  0.2168 -0.0663
    1SOL    HW2   66   4.215   0.227   0.591 -1.0890 -0.9750 -0.5781
    1SOL    HW3   67   4.194   0.194   0.445  0.6214  1.0152 -1.2995
    1SOL    MW4   68   4.211   0.252   0.508 -0.1059  0.1649 -0.2966
    1SOL     OW   69   2.746   1.698   0.426 -0.4690 -0.0709 -0.2561
    1SOL    HW2   70   2.658   1.726   0.402 -0.5147 -0.8256 -0.9817
    1SOL    HW3   71   2.749   1.605   0.404  0.1169 -0.3375  0.9024
    1SOL    MW4   72   2.735   1.689   0.420 -0.3977 -0.2056 -0.1990
    1SOL     OW   73   2.235   0.136   0.694  0.1982 -0.5197 -0.1663
    1SOL    HW2   74   2.315   0.094   0.725 -0.0695  0.2272  1.5799
    1SOL    HW3   75   2.225   0.106   0.604  1.3172 -2.2537  0.2822
    1SOL    MW4   76   2.244   0.127   0.686  0.3104 -0.6499  0.1233
    1SOL     OW   77   4.087   1.129   0.813 -0.1819 -0.1666  0.4764
    1SOL    HW2   78   4.048   1.144   0.899 -1.1424  0.3258 -0.0331
    1SOL    HW3   79   4.014   1.139   0.752  0.5021 -0.4658 -0.3954
    1SOL    MW4   80   4.072   1.133   0.816 -0.2189 -0.1410  0.2942
    1SOL     OW   81   0.504   2.454   0.804 -0.1598  0.0710 -0.6737
    1SOL    HW2   82   0.502   2.453   0.708  0.5655  0.6832 -0.6949
    1SOL    HW3   83   0.437   2.390   0.830  0.0825 -0.5649 -1.5928
    1SOL    MW4   84   0.495   2.445   0.795 -0.0321  0.0675 -0.7978
    1SOL     OW   85   4.018   0.781   0.656  0.3581 -0.1197 -0.0127
    1SOL    HW2   86   4.098   0.817   0.697  0.0874 -1.1691  1.4757
    1SOL    HW3   87   4.048   0.703   0.610  0.2514 -0.2823  0.1963
    1SOL    MW4   88   4.033   0.776   0.655  0.3076 -0.2795  0.2114
    1SOL     OW   89   4.040   1.917   0.857  0.1163  0.1441 -0.4226
    1SOL    HW2   90   4.050   1.826   0.830  0.0551 -0.2223  0.7748
    1SOL    HW3   91   4.028   1.913   0.952  1.0611  1.4622 -0.2406
    1SOL    MW4   92   4.040   1.905   0.866  0.2327  0.2697 -0.2406
    1SOL     OW   93   4.054   3.302   0.469 -0.2049 -0.0613  0.3753
    1SOL    HW2   94   4.142   3.322   0.436  0.3077  0.3721  1.9596
    1SOL    HW3   95   4.004   3.382   0.453  0.1320  0.2668  0.9366
    1SOL    MW4   96   4.059   3.315   0.463 -0.0930  0.0391  0.6584
    1SOL     OW   97   0.852   0.776   0.507  0.1047 -0.5506  0.2545
    1SOL    HW2   98   0.809   0.835   0.444  0.2486  0.2969  0.9403
    1SOL    HW3   99   0.941   0.767   0.474  0.2267  0.0237  0.4213
    1SOL    MW4  100   0.858   0.783   0.494  0.1398 -0.3630  0.3669
    1SOL     OW  101   3.149   0.201   0.376 -0.7049 -0.0277  0.2534
    1SOL    HW2  102   3.064   0.244   0.382 -1.2779 -1.1954  0.6671
    1SOL    HW3  103   3.141   0.123   0.430  0.5227 -0.3376  0.0209
    1SOL    MW4  104   3.137   0.196   0.384 -0.6185 -0.2227  0.2773
    1SOL     OW  105   1.790   0.599   0.425 -0.4385 -0.2540  0.0636
    1SOL    HW2  106   1.788   0.694   0.431 -1.2605 -0.1530 -1.5675
    1SOL    HW3  107   1.879   0.575   0.449 -0.7590  0.7653  2.3987
    1SOL    MW4  108   1.801   0.608   0.429 -0.5893 -0.1062  0.1565
    1SOL     OW  109   2.605   2.507   0.401 -0.4779 -0.2550 -0.0016
    1SOL    HW2  110   2.685   2.454   0.404 -0.5983 -0.4061  0.5709
    1SOL    HW3  111   2.604   2.552   0.486 -1.9805 -1.6743  0.7502
    1SOL    MW4  112   2.616   2.506   0.413 -0.6921 -0.4623  0.1732
    1SOL     OW  113   0.243   0.527   0.814  0.3132 -0.2862 -0.4422
    1SOL    HW2  114   0.208   0.610   0.845  0.5377  0.0777 -1.1492
    1SOL    HW3  115   0.257   0.540   0.721  1.2671 -0.7948 -0.3778
    1SOL    MW4  116   0.240   0.539   0.806  0.4686 -0.3054 -0.5270
    1SOL     OW  117   2.878   2.410   0.409  0.1687  0.4058 -0.2243
    1SOL    HW2  118   2.888   2.386   0.501  2.1071  0.5183 -0.3777
    1SOL    HW3  119   2.862   2.328   0.364  0.1503  0.2294  0.1039
    1SOL    MW4  120   2.877   2.396   0.415  0.4218  0.3974 -0.2013
    1SOL     OW  121   0.486   4.522   0.402 -0.3603 -0.3885 -0.2183
    1SOL    HW2  122   0.569   4.474   0.405 -0.8704 -1.2062  1.0665
    1SOL    HW3  123   0.512   4.614   0.411  0.4419 -0.5945 -0.3616
    1SOL    MW4  124   0.500   4.528   0.403 -0.3217 -0.5236 -0.0677
    1SOL     OW  125   3.807   1.221   0.684 -0.3969 -0.3479 -0.3763
    1SOL    HW2  126   3.829   1.142   0.634  0.6940  0.3804 -1.0701
    1SOL    HW3  127   3.750   1.189   0.755  0.6239 -1.8747 -0.2069
    1SOL    MW4  128   3.802   1.206   0.687 -0.1183 -0.4532 -0.4454
    1SOL     OW  129   0.477   3.992   0.758 -0.2717  0.0929 -0.2158
    1SOL    HW2  130   0.462   3.994   0.664  2.2695 -1.6348 -0.7045
    1SOL    HW3  131   0.470   4.083   0.786 -0.5900  0.6713 -2.1410
    1SOL    MW4  132   0.474   4.004   0.750  0.0215 -0.0587 -0.5343
    1SOL     OW  133   0.193   4.635   0.807 -0.1261 -0.3716 -0.0228
    1SOL    HW2  134   0.104   4.643   0.844  0.5355 -0.9686  1.7855
    1SOL    HW3  135   0.201   4.542   0.787 -0.0615 -0.2446 -0.5777
    1SOL    MW4  136   0.182   4.624   0.809 -0.0303 -0.4336  0.1426
    1SOL     OW  137   3.621   1.383   0.482 -0.1959  0.5268 -0.0655
    1SOL    HW2  138   3.554   1.319   0.460 -0.2688  0.4845  0.2687
    1SOL    HW3  139   3.685   1.335   0.534 -1.3674  1.1999  2.0979
    1SOL    MW4  140   3.620   1.368   0.486 -0.3600  0.6100  0.2640
    1SOL     OW  141   2.044   2.402   0.834 -0.2165 -0.5116  0.0896
    1SOL    HW2  142   2.032   2.380   0.927  0.2861  1.8140  0.7268
    1SOL    HW3  143   1.955   2.416   0.801 -0.3524 -0.6988  0.3764
    1SOL    MW4  144   2.031   2.401   0.842 -0.1681 -0.2294  0.2115
    1SOL     OW  145   4.298   4.497   0.537  0.1558  0.0135 -0.2181
    1SOL    HW2  146   4.369   4.561   0.531 -0.9394  1.5516  2.4920
    1SOL    HW3  147   4.282   4.488   0.631 -1.1152 -2.7094 -0.6541
    1SOL    MW4  148   4.305   4.504   0.549 -0.1564 -0.1431  0.0819
    1SOL     OW  149   0.711   4.395   0.476 -0.5222 -0.1302 -0.1435
    1SOL    HW2  150   0.707   4.391   0.571 -0.6415 -0.3349 -0.1555
    1SOL    HW3  151   0.785   4.453   0.456 -1.8597  1.7001  0.0840
    1SOL    MW4  152   0.720   4.402   0.486 -0.7144  0.0839 -0.1150
    1SOL     OW  153   1.565   2.292   0.817  0.0294 -0.5536  0.1355
    1SOL    HW2  154   1.477   2.328   0.801 -0.2559 -1.7829 -1.1654
    1SOL    HW3  155   1.562   2.204   0.779  2.0259 -0.3613 -0.5207
    1SOL    MW4  156   1.553   2.285   0.810  0.2551 -0.6905 -0.1227
    1SOL     OW  157   2.001   3.113   0.879  0.3214 -0.3669 -0.0393
    1SOL    HW2  158   1.966   3.035   0.836 -1.4065 -0.8052  2.0646
    1SOL    HW3  159   1.947   3.184   0.845 -0.3315 -0.5640  0.5736
    1SOL    MW4  160   1.989   3.112   0.869  0.0074 -0.4506  0.3192
    1SOL     OW  161   2.543   2.902   0.493  0.5218  0.3623 -0.1251
    1SOL    HW2  162   2.539   2.821   0.544  0.7481  0.5470  0.1869
    1SOL    HW3  163   2.582   2.877   0.410  0.3490  0.1021 -0.1281
    1SOL    MW4  164   2.547   2.888   0.489  0.5291  0.3524 -0.0843
    1SOL     OW  165   0.052   4.653   0.537  0.0421  0.2016 -0.0891
    1SOL    HW2  166   0.022   4.739   0.509 -1.4226 -0.1043  0.4934
    1SOL    HW3  167   0.106   4.670   0.615  0.8204  0.6911 -0.7258
    1SOL    MW4  168   0.055   4.666   0.544 -0.0485  0.2258 -0.0962
    1SOL     OW  169   1.784   2.929   0.342 -0.3379 -0.1811  0.2887
    1SOL    HW2  170   1.735   2.998   0.298 -1.0392 -0.7301  0.1945
    1SOL    HW3  171   1.717   2.871   0.379  0.2390 -0.9811  0.1043
    1SOL    MW4  172   1.769   2.930   0.341 -0.3544 -0.3593  0.2519
    1SOL     OW  173   2.407   0.190   0.309  0.2951  0.2098  0.2180
    1SOL    HW2  174   2.498   0.163   0.318  0.4922  0.4386 -1.0204
    1SOL    HW3  175   2.412   0.277   0.269 -0.4680  0.1779  0.0491
    1SOL    MW4  176   2.419   0.198   0.305  0.2205  0.2357  0.0323
    1SOL     OW  177   0.569   1.188   0.388  0.1257 -0.0821  0.0706
    1SOL    HW2  178   0.605   1.274   0.366 -0.1611  0.3253  1.1542
    1SOL    HW3  179   0.558   1.190   0.484 -2.0598 -0.4590 -0.1326
    1SOL    MW4  180   0.572   1.200   0.398 -0.2006 -0.0780  0.1867
    1SOL     OW  181   3.349   0.740   0.869  0.0274  0.1068  0.2844
    1SOL    HW2  182   3.362   0.648   0.849 -0.1392  0.4425 -1.4493
    1SOL    HW3  183   3.421   0.785   0.825 -1.2080  1.0207 -0.8595
    1SOL    MW4  184   3.360   0.734   0.861 -0.1576  0.2717 -0.0953
    1SOL     OW  185   1.770   3.282   0.829  0.4808 -0.2425 -0.0394
    1SOL    HW2  186   1.782   3.286   0.734  0.8612 -0.1285  0.0123
    1SOL    HW3  187   1.700   3.218   0.842  0.4334 -0.2628 -0.3972
    1SOL    MW4  188   1.762   3.274   0.818  0.5249 -0.2301 -0.0798
    1SOL     OW  189   2.016   2.838   0.732  0.3051 -0.2877 -0.1082
    1SOL    HW2  190   2.001   2.890   0.653 -1.6214  0.6542  0.8258
    1SOL    HW3  191   2.111   2.839   0.744  0.5516  0.2719 -1.9225
    1SOL    MW4  192   2.026   2.845   0.723  0.0834 -0.0892 -0.2244
    1SOL     OW  193   2.005   2.045   0.488 -0.7164  0.2202  0.1244
    1SOL    HW2  194   2.088   2.075   0.451 -0.3901  1.2114  1.6351
    1SOL    HW3  195   2.004   2.078   0.578 -2.3464 -0.5405  0.4231
    1SOL    MW4  196   2.015   2.053   0.495 -0.8883  0.2508  0.3632
    1SOL     OW  197   3.620   1.884   0.857  0.1947 -0.2645  0.2587
    1SOL    HW2  198   3.684   1.930   0.804 -0.9022 -0.9029 -1.6866
    1SOL    HW3  199   3.624   1.793   0.826 -1.1475 -0.4451  0.5592
    1SOL    MW4  200   3.629   1.878   0.846 -0.1273 -0.3726  0.0417
    1SOL     OW  201   0.258   2.809   0.717 -0.3217  0.6973  0.5832
    1SOL    HW2  202   0.318   2.761   0.774  0.0963 -0.0710 -0.5019
    1SOL    HW3  203   0.265   2.900   0.747  0.5594  0.4427  1.1748
    1SOL    MW4  204   0.267   2.815   0.728 -0.1504  0.5622  0.5181
    1SOL     OW  205   1.769   0.100   0.487 -0.3351 -0.1096 -0.5422
    1SOL    HW2  206   1.676   0.100   0.462  0.0310  1.5937 -2.0020
    1SOL    HW3  207   1.798   0.011   0.469 -1.3874 -0.3287 -1.2536
    1SOL    MW4  208   1.760   0.088   0.481 -0.4258  0.0862 -0.8287
    1SOL     OW  209   0.258   3.347   0.439 -0.2675 -0.2801  0.3794
    1SOL    HW2  210   0.220   3.435   0.432 -0.1332 -0.2896 -0.6544
    1SOL    HW3  211   0.183   3.288   0.444 -0.4284 -0.3027 -1.6848
    1SOL    MW4  212   0.243   3.351   0.438 -0.2711 -0.2842 -0.0293
    1SOL     OW  213   2.482   2.057   0.745 -1.0127 -0.1619  0.1409
    1SOL    HW2  214   2.526   2.082   0.664 -1.9936  0.1059 -0.3095
    1SOL    HW3  215   2.472   2.139   0.793 -2.3707  0.0091 -0.4232
    1SOL    MW4  216   2.487   2.071   0.741 -1.3208 -0.1040  0.0070
    1SOL     OW  217   2.909   3.094   0.898 -0.0331 -0.0021  0.1401
    1SOL    HW2  218   2.822   3.124   0.871  0.2921  0.6928 -0.1552
    1SOL    HW3  219   2.913   3.002   0.872 -0.6579 -0.0169  0.1014
    1SOL    MW4  220   2.898   3.086   0.891 -0.0727  0.0875  0.0960
    1SOL     OW  221   0.948   4.260   0.895 -0.1634  0.2978  0.1892
    1SOL    HW2  222   0.934   4.172   0.859 -0.6044  1.3162 -2.2152
    1SOL    HW3  223   1.013   4.299   0.837  0.6805  1.2706  1.7682
    1SOL    MW4  224   0.954   4.254   0.883 -0.1102  0.5608  0.0802
    1SOL     OW  225   2.921   1.320   0.423 -0.2862  0.6437 -0.2606
    1SOL    HW2  226   2.987   1.384   0.399  1.2169 -0.2223  1.4601
    1SOL    HW3  227   2.911   1.329   0.518 -1.9887  0.1412 -0.3609
    1SOL    MW4  228   2.928   1.330   0.432 -0.3126  0.4631 -0.0468
    1SOL     OW  229   1.313   3.604   0.448  0.0576 -0.0806  0.0101
    1SOL    HW2  230   1.268   3.613   0.532  0.6602 -1.1582  0.4644
    1SOL    HW3  231   1.257   3.649   0.385 -1.2810 -0.8000  0.6843
    1SOL    MW4  232   1.300   3.611   0.451 -0.0396 -0.3176  0.1590
    1SOL     OW  233   1.878   4.517   0.479  0.5161  0.1693 -0.7849
    1SOL    HW2  234   1.839   4.431   0.465  0.0311  0.2108  0.2060
    1SOL    HW3  235   1.969   4.507   0.454  0.1995 -0.3345 -1.7293
    1SOL    MW4  236   1.884   4.505   0.474  0.4104  0.1078 -0.7787
    1SOL     OW  237   0.423   4.043   0.487  0.2635 -0.0921 -0.9468
    1SOL    HW2  238   0.357   4.105   0.454  0.5415  1.1779  0.7809
    1SOL    HW3  239   0.506   4.076   0.453  0.3652  0.2946 -0.3493
    1SOL    MW4  240   0.425   4.056   0.478  0.3136  0.1264 -0.6400
    1SOL     OW  241   0.463   2.422   0.546  0.1112 -0.2040 -0.1551
    1SOL    HW2  242   0.416   2.498   0.511  0.3974  0.0878  0.0814
    1SOL    HW3  243   0.419   2.346   0.508  0.2454  0.0975 -0.9273
    1SOL    MW4  244   0.451   2.422   0.536  0.1666 -0.1256 -0.2257
    1SOL     OW  245   1.131   0.776   0.430 -0.0934  0.2606 -0.1383
    1SOL    HW2  246   1.173   0.843   0.374  1.4778 -0.5145  0.0866
    1SOL    HW3  247   1.114   0.703   0.370  1.4667 -0.5176  0.3341
    1SOL    MW4  248   1.134   0.775   0.414  0.3198  0.0557 -0.0463
    1SOL     OW  249   0.259   3.844   0.835  0.0890 -0.1294  0.4350
    1SOL    HW2  250   0.256   3.854   0.931  0.6453 -0.1458  0.4546
    1SOL    HW3  251   0.342   3.884   0.810 -0.9450  1.6346 -0.2566
    1SOL    MW4  252   0.270   3.851   0.845  0.0260  0.1011  0.3462
    1SOL     OW  253   2.576   0.852   0.252 -0.1575  0.2418 -0.2776
    1SOL    HW2  254   2.532   0.933   0.226 -1.8034  0.1168  1.9158
    1SOL    HW3  255   2.506   0.786   0.252  0.9592 -0.9559 -1.0733
    1SOL    MW4  256   2.561   0.854   0.249 -0.2275  0.0672 -0.0932
    1SOL     OW  257   0.418   0.919   0.769 -0.4510 -0.3918 -0.0400
    1SOL    HW2  258   0.498   0.877   0.801 -1.0213 -0.9317  0.7153
    1SOL    HW3  259   0.349   0.883   0.825 -1.1544  0.4408 -0.3656
    1SOL    MW4  260   0.419   0.908   0.781 -0.6190 -0.3532  0.0167
    1SOL     OW  261   2.941   4.191   0.552 -0.1710  0.4408 -0.0547
    1SOL    HW2  262   2.941   4.243   0.632  0.3319  1.4590 -0.7056
    1SOL    HW3  263   2.874   4.232   0.496  0.8179  0.9293 -0.9035
    1SOL    MW4  264   2.932   4.203   0.555  0.0257  0.6399 -0.2526
    1SOL     OW  265   1.371   1.443   0.425 -0.1343 -0.4539 -0.2826
    1SOL    HW2  266   1.449   1.391   0.406  0.1696 -0.4864  1.0095
    1SOL    HW3  267   1.301   1.379   0.430  0.3679 -0.8422  2.0493
    1SOL    MW4  268   1.372   1.428   0.423 -0.0279 -0.5095  0.1956
    1SOL     OW  269   1.344   3.282   0.834 -0.1646  0.0627  0.3185
    1SOL    HW2  270   1.350   3.296   0.739  0.3540  1.6264  0.5686
    1SOL    HW3  271   1.269   3.224   0.845 -0.8741  0.7150 -0.9771
    1SOL    MW4  272   1.335   3.276   0.823 -0.1898  0.3550  0.1805
    1SOL     OW  273   4.362   0.628   0.479  0.0918 -0.0729  0.2454
    1SOL    HW2  274   4.398   0.715   0.492 -0.2537  0.0722  0.2434
    1SOL    HW3  275   4.420   0.587   0.414 -0.6958  0.7525 -1.0111
    1SOL    MW4  276   4.374   0.634   0.472 -0.0582  0.0552  0.0794
    1SOL     OW  277   2.688   0.161   0.385 -0.0975 -0.4607 -0.3673
    1SOL    HW2  278   2.689   0.132   0.477 -0.3575 -0.1408 -0.2626
    1SOL    HW3  279   2.724   0.087   0.337  2.2633  0.2727  0.2442
    1SOL    MW4  280   2.693   0.147   0.391  0.1800 -0.3217 -0.2728
    1SOL     OW  281   1.164   3.076   0.847  0.2482 -0.1093  0.2409
    1SOL    HW2  282   1.073   3.098   0.829  0.2110 -0.4421  0.0219
    1SOL    HW3  283   1.172   2.984   0.823  0.0919 -0.6794  2.3151
    1SOL    MW4  284   1.153   3.067   0.842  0.2226 -0.2284  0.4857
    1SOL     OW  285   1.725   2.540   0.267  0.1062 -0.1370 -0.2771
    1SOL    HW2  286   1.749   2.484   0.193 -0.7582  0.5103 -1.0697
    1SOL    HW3  287   1.782   2.513   0.338  1.3450 -0.4066 -1.3571
    1SOL    MW4  288   1.736   2.529   0.266  0.1556 -0.0870 -0.5241
    1SOL     OW  289   2.141   1.706   0.249 -0.1207 -0.0844 -0.0777
    1SOL    HW2  290   2.058   1.752   0.263  0.5592  0.9321  0.7542
    1SOL    HW3  291   2.176   1.692   0.338  1.1355  0.5352 -0.4521
    1SOL    MW4  292   2.135   1.710   0.263  0.1349  0.1314 -0.0173
    1SOL     OW  293   0.713   3.061   0.865 -0.2743 -0.1444 -0.4266
    1SOL    HW2  294   0.633   3.104   0.835 -0.0045  0.5030 -0.2326
    1SOL    HW3  295   0.716   3.080   0.959 -0.6791 -1.4480 -0.1477
    1SOL    MW4  296   0.703   3.069   0.874 -0.2921 -0.2313 -0.3642
    1SOL     OW  297   0.787   3.959   0.538  0.1382 -0.1965  0.2587
    1SOL    HW2  298   0.810   3.995   0.623  0.0283 -0.4848  0.4110
    1SOL    HW3  299   0.740   4.030   0.494 -0.0517 -0.1433  0.5469
    1SOL    MW4  300   0.784   3.973   0.543  0.0986 -0.2275  0.3169
    1SOL     OW  301   1.005   3.411   0.331 -0.3120 -0.2417 -0.5210
    1SOL    HW2  302   1.061   3.473   0.283  1.1183 -0.2230  1.1501
    1SOL    HW3  303   1.062   3.336   0.349 -1.5986 -1.3785 -1.1499
    1SOL    MW4  304   1.020   3.409   0.327 -0.2931 -0.3893 -0.3835
    1SOL     OW  305   1.827   0.921   0.749  0.7277  0.1270  0.4093
    1SOL    HW2  306   1.865   1.003   0.782  0.5059 -0.4529  2.1376
    1SOL    HW3  307   1.884   0.852   0.784  1.6938 -0.4180 -2.1355
    1SOL    MW4  308   1.840   0.923   0.758  0.8260 -0.0214  0.3017
    1SOL     OW  309   0.016   4.013   0.793 -0.2677  0.1538  0.3132
    1SOL    HW2  310  -0.058   3.963   0.828 -0.5339 -0.2438 -0.7692
    1SOL    HW3  311   0.093   3.963   0.819 -0.5352 -0.8505 -0.7721
    1SOL    MW4  312   0.016   3.999   0.801 -0.3381 -0.0310  0.0272
    1SOL     OW  313   3.391   4.656   0.841 -0.0118 -0.1861  0.0821
    1SOL    HW2  314   3.436   4.641   0.924  0.8551 -0.6605 -0.4761
    1SOL    HW3  315   3.452   4.709   0.789 -1.2843  1.6522  0.4159
    1SOL    MW4  316   3.405   4.661   0.845 -0.0653 -0.0067  0.0525
    1SOL     OW  317   4.216   2.021   0.523  0.4833 -0.0813 -0.3134
    1SOL    HW2  318   4.204   1.927   0.513  0.3838 -0.3542  1.9378
    1SOL    HW3  319   4.224   2.033   0.618  0.0965  2.2141 -0.5516
    1SOL    MW4  320   4.215   2.010   0.534  0.4191  0.1857 -0.0478
    1SOL     OW  321   0.665   2.108   0.513  0.2420 -0.5312  0.0787
    1SOL    HW2  322   0.583   2.142   0.477 -0.6268 -0.5765  1.9684
    1SOL    HW3  323   0.679   2.026   0.465 -0.2630  0.0043 -1.0027
    1SOL    MW4  324   0.656   2.102   0.502  0.0607 -0.4666  0.1853
    1SOL     OW  325   2.523   4.411   0.738  0.3946 -0.0316  0.2431
    1SOL    HW2  326   2.441   4.388   0.780 -0.2291  0.8667 -0.4523
    1SOL    HW3  327   2.526   4.357   0.659  0.1274  0.4402 -0.0945
    1SOL    MW4  328   2.513   4.401   0.733  0.2770  0.1493  0.1068
    1SOL     OW  329   3.371   3.063   0.414 -0.1656  0.4951 -0.2460
    1SOL    HW2  330   3.361   3.055   0.319  0.0873  0.6872 -0.2895
    1SOL    HW3  331   3.429   2.990   0.438  0.4086  0.9092 -0.3497
    1SOL    MW4  332   3.378   3.052   0.404 -0.0565  0.5751 -0.2654
    1SOL     OW  333   2.666   3.943   0.506  0.3561  0.1082 -0.2008
    1SOL    HW2  334   2.641   3.958   0.597  0.5622  0.3082 -0.1755
    1SOL    HW3  335   2.657   3.849   0.494  0.5704  0.0479  0.1004
    1SOL    MW4  336   2.661   3.933   0.516  0.4115  0.1266 -0.1577
    1SOL     OW  337   4.293   1.328   0.757  0.2499  0.0964  0.1720
    1SOL    HW2  338   4.367   1.285   0.801  0.1977 -0.0823  0.0866
    1SOL    HW3  339   4.227   1.259   0.751  0.4713 -0.0350 -0.7111
    1SOL    MW4  340   4.294   1.313   0.762  0.2718  0.0557  0.0442
    1SOL     OW  341   1.874   1.353   0.412  0.2374  0.1968  0.0129
    1SOL    HW2  342   1.836   1.441   0.412  2.1730  1.0641  1.1282
    1SOL    HW3  343   1.948   1.360   0.351  0.1615 -0.7681 -0.1863
    1SOL    MW4  344   1.879   1.366   0.404  0.4829  0.1839  0.1338
    1SOL     OW  345   2.222   2.696   0.354  0.0048  0.0984 -0.2599
    1SOL    HW2  346   2.213   2.616   0.406  2.3816 -0.9261 -1.3759
    1SOL    HW3  347   2.140   2.701   0.304 -1.0113 -0.5220  1.2884
    1SOL    MW4  348   2.210   2.686   0.355  0.1843 -0.1185 -0.2029
    1SOL     OW  349   0.517   3.247   0.501  0.0570  0.1167 -0.4478
    1SOL    HW2  350   0.574   3.321   0.482  1.0790 -0.4728  0.2871
    1SOL    HW3  351   0.428   3.281   0.487  0.4865  1.6331  0.4247
    1SOL    MW4  352   0.513   3.261   0.497  0.2484  0.2389 -0.2357
    1SOL     OW  353   0.671   3.068   0.353  0.0241 -0.6255  0.4421
    1SOL    HW2  354   0.625   3.130   0.409  0.9725  0.4607  0.0396
    1SOL    HW3  355   0.654   3.098   0.264 -0.0173 -1.3019  0.2155
    1SOL    MW4  356   0.663   3.080   0.349  0.1438 -0.5715  0.3591
    1SOL     OW  357   2.556   2.669   0.652 -0.4971  0.3957  0.0182
    1SOL    HW2  358   2.611   2.681   0.729  0.8927 -0.8671 -0.7360
    1SOL    HW3  359   2.483   2.615   0.682  0.4403 -0.7319  0.2766
    1SOL    MW4  360   2.554   2.663   0.666 -0.1903  0.0803 -0.0473
    1SOL     OW  361   3.574   4.247   0.537 -0.2766  0.5131 -0.0060
    1SOL    HW2  362   3.554   4.263   0.630  0.8261 -1.0446  0.5091
    1SOL    HW3  363   3.667   4.266   0.529 -0.1704 -0.2381 -0.6025
    1SOL    MW4  364   3.584   4.252   0.548 -0.1171  0.2079 -0.0169
    1SOL     OW  365   3.412   3.096   0.844  0.0496  0.3530  0.1642
    1SOL    HW2  366   3.328   3.131   0.815 -0.2285 -0.2238  0.2759
    1SOL    HW3  367   3.403   3.088   0.939 -0.4142 -1.4152 -0.0239
    1SOL    MW4  368   3.400   3.100   0.853 -0.0484  0.0434  0.1541
    1SOL     OW  369   2.407   1.072   0.200  0.3602 -0.0753  0.7436
    1SOL    HW2  370   2.389   1.099   0.290 -0.3740 -0.7096  0.7931
    1SOL    HW3  371   2.321   1.073   0.158  0.8558  1.4719 -0.3036
    1SOL    MW4  372   2.393   1.076   0.206  0.3285  0.0451  0.6120
    1SOL     OW  373   4.267   2.038   0.784  0.9052  0.5481 -0.1153
    1SOL    HW2  374   4.337   1.994   0.832 -0.0039 -2.4120 -1.3776
    1SOL    HW3  375   4.189   1.987   0.803 -0.3676  2.1753 -0.9074
    1SOL    MW4  376   4.266   2.025   0.793  0.6175  0.3722 -0.3864
    1SOL     OW  377   0.336   0.435   0.216 -0.0202  0.3474 -0.5710
    1SOL    HW2  378   0.380   0.444   0.300 -0.0754  0.0275 -0.5044
    1SOL    HW3  379   0.373   0.355   0.178 -0.0756  0.4299 -0.8012
    1SOL    MW4  380   0.346   0.425   0.222 -0.0348  0.3161 -0.5925
    1SOL     OW  381   4.283   3.042   0.828 -0.2722 -0.0918  0.6571
    1SOL    HW2  382   4.216   3.105   0.802 -0.5722 -0.9908 -0.8530
    1SOL    HW3  383   4.365   3.081   0.799 -0.4143 -0.1445  0.1632
    1SOL    MW4  384   4.285   3.055   0.820 -0.3304 -0.2174  0.3927
    1SOL     OW  385   0.233   2.028   0.799 -0.5098  0.1248  0.0916
    1SOL    HW2  386   0.317   1.988   0.823  0.1262  1.3668 -0.0590
    1SOL    HW3  387   0.239   2.118   0.831 -0.5925  1.1260 -2.5853
    1SOL    MW4  388   0.245   2.035   0.807 -0.4368  0.4208 -0.2815
    1SOL     OW  389   0.005   4.314   0.832  0.2522 -0.2721 -0.3744
    1SOL    HW2  390  -0.001   4.297   0.926 -0.3891  0.1809 -0.3273
    1SOL    HW3  391  -0.003   4.227   0.791  0.2787 -0.4404 -0.0192
    1SOL    MW4  392   0.003   4.300   0.839  0.1710 -0.2346 -0.3213
    1SOL     OW  393   2.093   3.408   0.539 -0.1693 -0.4538 -0.0607
    1SOL    HW2  394   2.185   3.382   0.529  0.1652  0.5884  0.3027
    1SOL    HW3  395   2.090   3.498   0.507 -1.2502 -0.7869 -0.9295
    1SOL    MW4  396   2.105   3.417   0.533 -0.2677 -0.3603 -0.1274
    1SOL     OW  397   2.911   2.020   0.708 -0.4658  0.1330 -0.1863
    1SOL    HW2  398   2.986   2.010   0.767 -0.7401 -2.9372 -0.2559
    1SOL    HW3  399   2.837   1.985   0.757 -1.3844  0.8497 -1.0416
    1SOL    MW4  400   2.911   2.014   0.722 -0.6232 -0.1774 -0.3084
    1SOL     OW  401   1.792   0.111   0.765  0.1557  0.5511  0.2510
    1SOL    HW2  402   1.793   0.112   0.670 -0.4038  1.4200  0.2576
    1SOL    HW3  403   1.876   0.070   0.789 -0.6827 -1.7880 -0.6352
    1SOL    MW4  404   1.803   0.106   0.756 -0.0287  0.3571  0.1349
    1SOL     OW  405   2.177   0.062   0.435 -0.2684 -0.2947  0.0587
    1SOL    HW2  406   2.249   0.096   0.382  0.0415  0.6929  1.0747
    1SOL    HW3  407   2.162  -0.027   0.403  1.6087 -0.6132  0.0196
    1SOL    MW4  408   2.185   0.055   0.424  0.0200 -0.2064  0.1875
    1SOL     OW  409   1.530   2.029   0.685 -0.0728  0.3405  0.2858
    1SOL    HW2  410   1.548   1.958   0.623  0.8325  1.4628 -0.7633
    1SOL    HW3  411   1.451   2.001   0.731 -1.1286 -0.2505 -1.8095
    1SOL    MW4  412   1.522   2.016   0.683 -0.0926  0.4106 -0.1291
    1SOL     OW  413   1.259   1.012   0.318 -0.3408  0.4730 -0.3478
    1SOL    HW2  414   1.269   1.040   0.227 -0.3228  0.2517 -0.4131
    1SOL    HW3  415   1.348   0.992   0.347 -0.1088  2.2560  0.2705
    1SOL    MW4  416   1.272   1.013   0.310 -0.3079  0.6791 -0.2748
    1SOL     OW  417   1.676   3.892   0.505  0.3647 -0.3075  0.1013
    1SOL    HW2  418   1.716   3.939   0.579 -1.6765  0.4120  0.7641
    1SOL    HW3  419   1.605   3.948   0.476 -2.3240 -3.0462  1.0883
    1SOL    MW4  420   1.672   3.906   0.511 -0.2593 -0.5739  0.3190
    1SOL     OW  421   1.444   4.054   0.448 -0.1024  0.5460 -0.2281
    1SOL    HW2  422   1.409   4.040   0.535  0.7763  0.2862  0.0856
    1SOL    HW3  423   1.497   4.134   0.456 -0.4647  0.8341 -0.6527
    1SOL    MW4  424   1.446   4.063   0.460 -0.0345  0.5493 -0.2427
    1SOL     OW  425   1.158   1.545   0.854  0.1291  0.0010  0.4345
    1SOL    HW2  426   1.180   1.458   0.819  2.3444  0.5749  0.3542
    1SOL    HW3  427   1.230   1.601   0.826 -1.3172  1.8996  0.4493
    1SOL    MW4  428   1.171   1.541   0.846  0.2307  0.3271  0.4259
    1SOL     OW  429   1.333   0.109   0.767 -0.2981 -0.1620 -0.2147
    1SOL    HW2  430   1.418   0.075   0.796 -0.8273 -0.9982  0.3777
    1SOL    HW3  431   1.329   0.197   0.806  0.1701 -0.2253 -0.0078
    1SOL    MW4  432   1.344   0.116   0.776 -0.3061 -0.2807 -0.1093
    1SOL     OW  433   4.156   1.752   0.462 -0.5128 -0.0242 -0.3683
    1SOL    HW2  434   4.127   1.718   0.547  2.8657  1.5500  1.4963
    1SOL    HW3  435   4.212   1.683   0.426 -0.3952  0.1105 -0.4448
    1SOL    MW4  436   4.160   1.738   0.468 -0.0520  0.2013 -0.1324
    1SOL     OW  437   2.126   0.744   0.405 -0.3943 -0.3127  0.3383
    1SOL    HW2  438   2.091   0.662   0.441  0.3306 -0.4036  0.8441
    1SOL    HW3  439   2.176   0.717   0.329 -1.3895 -0.1857 -0.3667
    1SOL    MW4  440   2.128   0.729   0.400 -0.4299 -0.3080  0.3120
    1SOL     OW  441   0.903   4.025   0.788 -0.4150  0.0665  0.1090
    1SOL    HW2  442   0.830   3.982   0.833  1.5218 -0.8205  2.4468
    1SOL    HW3  443   0.977   3.966   0.800  1.0709  1.6752 -0.9782
    1SOL    MW4  444   0.903   4.011   0.795  0.0365  0.1621  0.2739
    1SOL     OW  445   4.056   2.706   0.816  0.0063 -0.1935  0.1007
    1SOL    HW2  446   4.047   2.611   0.807 -0.5511 -0.1256 -0.0493
    1SOL    HW3  447   4.135   2.727   0.766 -1.9295 -0.0818 -2.9519
    1SOL    MW4  448   4.066   2.696   0.809 -0.3228 -0.1698 -0.3218
    1SOL     OW  449   3.725   3.733   0.363  0.0606  0.1350 -0.4469
    1SOL    HW2  450   3.729   3.752   0.270  0.6667 -0.3022 -0.5110
    1SOL    HW3  451   3.681   3.809   0.401 -2.6267 -0.8708 -1.4252
    1SOL    MW4  452   3.719   3.746   0.356 -0.2139 -0.0556 -0.5845
    1SOL     OW  453   0.934   0.387   0.363 -0.1894  0.1805  0.5267
    1SOL    HW2  454   0.866   0.429   0.415 -2.8379 -3.2314  0.0814
    1SOL    HW3  455   1.012   0.386   0.419 -1.1954  2.0723  1.9850
    1SOL    MW4  456   0.935   0.392   0.377 -0.6716 -0.0201  0.6604
    1SOL     OW  457   2.719   0.861   0.748 -0.1198 -0.5152  0.1531
    1SOL    HW2  458   2.722   0.952   0.779  1.6321  0.0498 -1.5815
    1SOL    HW3  459   2.801   0.823   0.779 -0.9286 -1.5797  1.0244
    1SOL    MW4  460   2.730   0.868   0.756  0.0045 -0.5811  0.0392
    1SOL     OW  461   1.802   1.975   0.815  0.3768 -0.0272  0.0168
    1SOL    HW2  462   1.722   1.988   0.764  0.6887 -0.1296 -0.5046
    1SOL    HW3  463   1.839   1.894   0.780  1.4142  0.7426 -0.6847
    1SOL    MW4  464   1.796   1.966   0.804  0.5548  0.0608 -0.1445
    1SOL     OW  465   1.768   0.385   0.241 -0.0347 -0.2897 -0.1083
    1SOL    HW2  466   1.771   0.468   0.288 -0.3176 -0.6872  0.6146
    1SOL    HW3  467   1.840   0.334   0.278  0.3264 -0.2566 -0.7601
    1SOL    MW4  468   1.778   0.389   0.252 -0.0244 -0.3378 -0.0989
    1SOL     OW  469   0.958   3.497   0.775 -0.1929 -0.4112  0.4873
    1SOL    HW2  470   0.944   3.403   0.766 -0.3514 -0.2257 -1.3885
    1SOL    HW3  471   0.870   3.534   0.776 -0.1160 -0.2307  0.5214
    1SOL    MW4  472   0.944   3.490   0.774 -0.2037 -0.3629  0.2443
    1SOL     OW  473   1.905   1.349   0.684  0.0908 -0.0927  0.4530
    1SOL    HW2  474   1.814   1.348   0.716 -0.0107 -0.7782  0.1448
    1SOL    HW3  475   1.897   1.352   0.588  0.3961  1.3484  0.4540
    1SOL    MW4  476   1.892   1.349   0.675  0.1177  0.0070  0.4125
    1SOL     OW  477   4.420   3.577   0.450  0.3854  0.1640  0.0545
    1SOL    HW2  478   4.513   3.596   0.459  0.5008  0.3538 -1.3880
    1SOL    HW3  479   4.383   3.595   0.536  1.5670  0.7441  0.4476
    1SOL    MW4  480   4.428   3.582   0.462  0.5565  0.2656 -0.0840
    1SOL     OW  481   0.475   1.638   0.732 -0.0902 -0.5212  0.2040
    1SOL    HW2  482   0.551   1.591   0.768  0.1023 -0.2328  0.1817
    1SOL    HW3  483   0.480   1.725   0.772 -0.1249 -0.3409 -0.1812
    1SOL    MW4  484   0.486   1.644   0.742 -0.0693 -0.4593  0.1503
    1SOL     OW  485   1.345   0.452   0.340 -0.1451  0.0370  0.1212
    1SOL    HW2  486   1.393   0.380   0.298 -0.8331 -0.5976  0.4064
    1SOL    HW3  487   1.410   0.496   0.394  0.2689 -0.4325  0.0109
    1SOL    MW4  488   1.360   0.448   0.342 -0.1813 -0.1087  0.1442
    1SOL     OW  489   1.330   2.448   0.789  0.1524 -0.1878 -0.3744
    1SOL    HW2  490   1.353   2.442   0.697  1.4431 -0.1146 -0.0760
    1SOL    HW3  491   1.339   2.541   0.810 -2.2885  0.1526 -0.6873
    1SOL    MW4  492   1.334   2.460   0.780  0.0006 -0.1330 -0.3763
    1SOL     OW  493   1.544   2.855   0.486  0.0005 -0.3096  0.1213
    1SOL    HW2  494   1.511   2.766   0.472 -0.6407 -0.3259  1.6078
    1SOL    HW3  495   1.570   2.857   0.578 -0.6112  1.2259  0.2851
    1SOL    MW4  496   1.543   2.844   0.497 -0.1649 -0.1092  0.3390
    1SOL     OW  497   2.480   0.433   0.142  0.4937  0.2135 -0.0194
    1SOL    HW2  498   2.566   0.449   0.179 -0.0256  2.0233  0.4770
    1SOL    HW3  499   2.487   0.461   0.050  0.1776  1.3878  0.2939
    1SOL    MW4  500   2.492   0.439   0.134  0.3834  0.6073  0.0874
    1SOL     OW  501   2.917   4.361   0.764 -0.1856  0.0715 -0.5252
    1SOL    HW2  502   2.884   4.433   0.710  0.5052  0.7064 -0.1080
    1SOL    HW3  503   2.839   4.325   0.806 -0.2990  2.1153  1.1243
    1SOL    MW4  504   2.902   4.366   0.763 -0.1094  0.4244 -0.2525
    1SOL     OW  505   0.081   1.727   0.494  0.1091  0.0492  0.2565
    1SOL    HW2  506   0.044   1.729   0.583  0.2324  1.6090  0.2913
    1SOL    HW3  507   0.137   1.804   0.491 -1.2082  0.9570 -1.7421
    1SOL    MW4  508   0.083   1.737   0.506 -0.0484  0.3747 -0.0026
    1SOL     OW  509   1.626   1.343   0.736  0.0680 -0.0555 -0.2161
    1SOL    HW2  510   1.591   1.341   0.647  1.1304 -1.0244 -0.6283
    1SOL    HW3  511   1.567   1.286   0.786 -1.3851  1.6198  0.0559
    1SOL    MW4  512   1.613   1.335   0.731  0.0165  0.0377 -0.2345
    1SOL     OW  513   1.355   3.543   0.929  0.1539  0.1804 -0.3761
    1SOL    HW2  514   1.429   3.588   0.890  1.4783 -1.3294  0.3341
    1SOL    HW3  515   1.368   3.451   0.906 -0.8427 -0.2668  0.7627
    1SOL    MW4  516   1.366   3.537   0.921  0.1972 -0.0782 -0.1322
    1SOL     OW  517   3.760   2.272   0.860 -0.4790 -0.5970 -0.0792
    1SOL    HW2  518   3.703   2.323   0.803  0.7550 -0.2515 -0.9959
    1SOL    HW3  519   3.778   2.192   0.811 -0.0611 -0.6510  0.1611
    1SOL    MW4  520   3.755   2.268   0.846 -0.2611 -0.5586 -0.1684
    1SOL     OW  521   2.042   4.645   0.843  0.1493  0.1435  0.4137
    1SOL    HW2  522   2.097   4.702   0.789 -1.3638  1.2360 -0.0053
    1SOL    HW3  523   2.058   4.557   0.807 -0.4472  0.7899 -1.5032
    1SOL    MW4  524   2.052   4.641   0.831 -0.1290  0.3729  0.1055
    1SOL     OW  525   2.766   4.338   0.392 -0.1127 -0.6178  0.6566
    1SOL    HW2  526   2.783   4.355   0.299 -0.0475 -0.2095  0.7432
    1SOL    HW3  527   2.782   4.422   0.435 -0.3922 -0.7430  1.0046
    1SOL    MW4  528   2.771   4.351   0.385 -0.1411 -0.5808  0.7139
    1SOL     OW  529   0.741   0.531   0.517  0.3520  0.2212  0.0262
    1SOL    HW2  530   0.757   0.523   0.611  0.3673  0.9205  0.0851
    1SOL    HW3  531   0.757   0.623   0.498  0.6021  0.0261 -0.7139
    1SOL    MW4  532   0.745   0.542   0.527  0.3870  0.2877 -0.0637
    1SOL     OW  533   0.675   2.047   0.781  0.6205 -0.2530  0.0948
    1SOL    HW2  534   0.663   2.046   0.686  1.7479  0.3492 -0.0568
    1SOL    HW3  535   0.670   2.140   0.805  2.1730 -0.2366  0.3832
    1SOL    MW4  536   0.673   2.059   0.772  0.9741 -0.1714  0.1128
    1SOL     OW  537   2.411   2.309   0.420 -0.6716 -0.0452  0.1018
    1SOL    HW2  538   2.477   2.243   0.440 -0.2084  0.5491  0.5386
    1SOL    HW3  539   2.460   2.385   0.391 -1.1216  0.6417  1.1067
    1SOL    MW4  540   2.426   2.310   0.419 -0.6700  0.1237  0.2920
    1SOL     OW  541   2.499   1.833   0.356 -0.1409 -0.6338 -0.0761
    1SOL    HW2  542   2.447   1.770   0.408  0.1628 -0.2698  0.6783
    1SOL    HW3  543   2.439   1.862   0.288 -0.6601 -0.8778  0.2653
    1SOL    MW4  544   2.484   1.828   0.354 -0.1695 -0.6179  0.0685
    1SOL     OW  545   3.852   4.301   0.495 -0.6184 -0.4985  0.0003
    1SOL    HW2  546   3.907   4.242   0.444  0.1729  0.3228 -0.1311
    1SOL    HW3  547   3.893   4.387   0.483 -1.1715 -0.0911  0.9802
    1SOL    MW4  548   3.865   4.305   0.486 -0.5870 -0.3362  0.1123
    1SOL     OW  549   2.026   2.181   0.139  0.3454 -0.5818 -0.3869
    1SOL    HW2  550   1.947   2.128   0.125  1.3284 -2.2055  0.0555
    1SOL    HW3  551   2.067   2.143   0.217  2.3702 -0.7397 -1.4989
    1SOL    MW4  552   2.021   2.169   0.148  0.7424 -0.8166 -0.4752
    1SOL     OW  553   3.073   0.560   0.435  0.0017 -0.0621 -0.0337
    1SOL    HW2  554   3.104   0.649   0.453  0.7423 -0.1676 -0.7593
    1SOL    HW3  555   3.019   0.538   0.511  0.3640  0.7470  0.4709
    1SOL    MW4  556   3.070   0.569   0.447  0.1473  0.0308 -0.0629
    1SOL     OW  557   4.265   4.466   0.815 -0.3066 -0.5229 -0.1842
    1SOL    HW2  558   4.328   4.397   0.795  0.1429 -0.4525  0.9402
    1SOL    HW3  559   4.317   4.536   0.856 -1.0969 -0.4464  0.7124
    1SOL    MW4  560   4.280   4.466   0.818 -0.3514 -0.5035  0.0824
    1SOL     OW  561   1.617   0.789   0.878  0.3597  0.0489  0.3040
    1SOL    HW2  562   1.685   0.838   0.833 -0.3277  1.3502  0.6452
    1SOL    HW3  563   1.537   0.838   0.862 -0.5458 -1.5368 -0.2149
    1SOL    MW4  564   1.615   0.802   0.870  0.1496  0.0113  0.2805
    1SOL     OW  565   0.697   3.863   0.903  0.0237  0.1297  0.5456
    1SOL    HW2  566   0.615   3.896   0.866 -0.8289 -2.1855  0.2558
    1SOL    HW3  567   0.709   3.778   0.860  2.9049  0.7129  0.1283
    1SOL    MW4  568   0.688   3.856   0.892  0.2914 -0.0987  0.4524
    1SOL     OW  569   0.985   3.964   0.324 -0.3047  0.2100  0.2559
    1SOL    HW2  570   0.950   3.955   0.413  0.6646 -0.6612  0.5502
    1SOL    HW3  571   1.053   4.031   0.332  0.1597 -0.2618  0.2857
    1SOL    MW4  572   0.989   3.972   0.337 -0.1156  0.0329  0.2986
    1SOL     OW  573   0.900   1.584   0.773  0.2322  0.0018 -0.5119
    1SOL    HW2  574   0.899   1.678   0.789  0.5248 -0.0653 -0.0807
    1SOL    HW3  575   0.992   1.560   0.782  0.4456 -0.0137 -2.4650
    1SOL    MW4  576   0.912   1.593   0.776  0.2990 -0.0089 -0.7127
    1SOL     OW  577   3.861   0.986   0.550 -0.0415  0.1894  0.4151
    1SOL    HW2  578   3.924   0.913   0.554  0.7684  0.9817  2.5257
    1SOL    HW3  579   3.787   0.950   0.502  0.1162 -2.2474  1.8974
    1SOL    MW4  580   3.860   0.971   0.544  0.0863 -0.0275  0.8891
    1SOL     OW  581   0.671   4.647   0.853 -0.2341  0.1103 -0.5987
    1SOL    HW2  582   0.660   4.655   0.948 -1.2611  1.9194 -0.8403
    1SOL    HW3  583   0.683   4.554   0.838 -0.1500 -0.2123  1.2993
    1SOL    MW4  584   0.671   4.636   0.864 -0.3585  0.3061 -0.3802
    1SOL     OW  585   0.255   3.585   0.754 -0.1464  0.6578  0.1256
    1SOL    HW2  586   0.269   3.676   0.781 -0.8379  0.3403  1.6045
    1SOL    HW3  587   0.328   3.538   0.793  0.6884  0.7022 -1.3635
    1SOL    MW4  588   0.266   3.591   0.763 -0.1275  0.6218  0.1243
    1SOL     OW  589   0.030   3.191   0.470 -0.0367  0.1808  0.0923
    1SOL    HW2  590  -0.041   3.224   0.415  0.2424 -0.0121 -0.3871
    1SOL    HW3  591   0.027   3.096   0.459  1.1990  0.2572 -1.0635
    1SOL    MW4  592   0.020   3.183   0.462  0.1632  0.1655 -0.1235
    1SOL     OW  593   2.838   0.824   0.199  0.0017  0.3599 -0.2141
    1SOL    HW2  594   2.878   0.896   0.248 -0.6349 -0.1276  1.0618
    1SOL    HW3  595   2.745   0.828   0.223 -0.2011 -0.2949 -0.8706
    1SOL    MW4  596   2.831   0.834   0.209 -0.1090  0.2092 -0.1324
    1SOL     OW  597   3.906   3.561   0.514 -0.6822 -0.1162  0.2249
    1SOL    HW2  598   3.978   3.623   0.523 -0.9999  0.4851 -1.2458
    1SOL    HW3  599   3.842   3.607   0.461 -2.4201 -0.4358  2.0083
    1SOL    MW4  600   3.907   3.575   0.508 -0.9537 -0.0789  0.2663
    1SOL     OW  601   2.699   1.900   0.825 -0.6153  0.1277  0.0857
    1SOL    HW2  602   2.621   1.955   0.815  0.2230  1.4405  0.6657
    1SOL    HW3  603   2.708   1.888   0.919 -0.1467 -0.0951  0.0108
    1SOL    MW4  604   2.690   1.906   0.836 -0.4427  0.2717  0.1523
    1SOL     OW  605   1.353   4.270   0.882 -0.3667  0.3595 -0.2481
    1SOL    HW2  606   1.272   4.314   0.857 -0.9086 -1.0979 -1.1276
    1SOL    HW3  607   1.420   4.308   0.826 -0.7833  0.2388 -0.8284
    1SOL    MW4  608   1.351   4.281   0.871 -0.4930  0.1516 -0.4407
    1SOL     OW  609   2.422   3.552   0.495  0.0394  0.1517 -0.0240
    1SOL    HW2  610   2.499   3.587   0.450  1.2419 -0.8443  1.1905
    1SOL    HW3  611   2.422   3.459   0.473 -1.6846  0.4173 -1.2131
    1SOL    MW4  612   2.433   3.544   0.486 -0.0296  0.0553 -0.0206
    1SOL     OW  613   2.846   4.569   0.529  0.2322 -0.0698 -0.3953
    1SOL    HW2  614   2.933   4.609   0.531 -0.2729  1.0663 -0.9536
    1SOL    HW3  615   2.796   4.615   0.597  0.1455 -0.9358  0.1454
    1SOL    MW4  616   2.851   4.580   0.538  0.1545 -0.0339 -0.3977
    1SOL     OW  617   2.681   3.688   0.397 -0.7715 -0.1747  0.0020
    1SOL    HW2  618   2.758   3.636   0.419 -0.7550 -0.1963 -0.1067
    1SOL    HW3  619   2.678   3.688   0.302 -0.6440  0.2094 -0.0055
    1SOL    MW4  620   2.691   3.681   0.388 -0.7524 -0.1268 -0.0133
    1SOL     OW  621   2.429   3.864   0.890 -0.5711  0.0393  0.1833
    1SOL    HW2  622   2.351   3.908   0.855 -0.6830  0.3887  0.8783
    1SOL    HW3  623   2.431   3.780   0.843 -0.5019  0.6617 -0.9435
    1SOL    MW4  624   2.419   3.859   0.879 -0.5767  0.1674  0.1264
    1SOL     OW  625   2.655   3.175   0.503  0.1250  0.1798  0.5141
    1SOL    HW2  626   2.564   3.205   0.498  0.3340  0.9185  1.1097
    1SOL    HW3  627   2.648   3.079   0.503 -0.6387  0.2344  0.3220
    1SOL    MW4  628   2.642   3.166   0.503  0.0515  0.2844  0.5673
    1SOL     OW  629   0.719   1.446   0.379  0.3199 -0.3697 -0.0310
    1SOL    HW2  630   0.792   1.508   0.377 -0.4844  0.5635 -1.6957
    1SOL    HW3  631   0.645   1.497   0.413 -0.0736 -0.7119 -0.3549
    1SOL    MW4  632   0.719   1.461   0.383  0.1618 -0.2916 -0.2934
    1SOL     OW  633   4.450   1.303   0.514 -0.6853  0.2267  0.4034
    1SOL    HW2  634   4.397   1.299   0.593 -0.3574  0.4355  0.6339
    1SOL    HW3  635   4.540   1.314   0.545 -0.6644  1.3319 -0.0146
    1SOL    MW4  636   4.455   1.304   0.529 -0.6394  0.4001  0.3786
    1SOL     OW  637   4.305   2.546   0.497 -0.3684  0.4484  0.1723
    1SOL    HW2  638   4.296   2.627   0.547 -0.2621  1.4352 -1.4039
    1SOL    HW3  639   4.215   2.519   0.479 -0.4310 -0.4462  1.7246
    1SOL    MW4  640   4.292   2.553   0.501 -0.3629  0.4609  0.1691
    1SOL     OW  641   4.352   1.547   0.403 -0.2906  0.0648 -0.0456
    1SOL    HW2  642   4.376   1.463   0.442 -0.7389 -0.7001 -1.4007
    1SOL    HW3  643   4.414   1.609   0.441 -0.3819 -0.7484  1.4797
    1SOL    MW4  644   4.363   1.544   0.413 -0.3614 -0.1434 -0.0232
    1SOL     OW  645   2.692   0.088   0.659 -0.0368  0.3089  0.1047
    1SOL    HW2  646   2.717   0.170   0.702  0.2536  0.4258 -0.2887
    1SOL    HW3  647   2.609   0.064   0.700 -0.2313  0.9090  0.0691
    1SOL    MW4  648   2.685   0.096   0.670 -0.0241  0.4035  0.0482
    1SOL     OW  649   3.100   1.498   0.316 -0.1528  0.1013  0.3506
    1SOL    HW2  650   3.121   1.534   0.229 -2.0370  1.6050  0.4813
    1SOL    HW3  651   3.118   1.569   0.377  0.1668 -0.6078  1.0956
    1SOL    MW4  652   3.105   1.512   0.312 -0.3593  0.2061  0.4662
    1SOL     OW  653   1.319   1.972   0.864 -0.1367 -0.6618  0.6301
    1SOL    HW2  654   1.316   1.879   0.841 -3.4130 -0.8213  1.5370
    1SOL    HW3  655   1.325   1.973   0.959  1.6532  0.0805  0.5256
    1SOL    MW4  656   1.320   1.960   0.873 -0.3327 -0.5848  0.7360
    1SOL     OW  657   0.464   1.885   0.858 -0.5467 -0.7191  0.0692
    1SOL    HW2  658   0.541   1.939   0.840 -0.6472 -0.4079  0.5680
    1SOL    HW3  659   0.464   1.874   0.953 -1.9166  0.5095  0.2432
    1SOL    MW4  660   0.474   1.891   0.868 -0.7407 -0.5159  0.1580
    1SOL     OW  661   4.437   4.058   0.504  0.0732 -0.1357  0.2801
    1SOL    HW2  662   4.421   3.972   0.465  2.1015 -0.0959 -0.7022
    1SOL    HW3  663   4.456   4.040   0.596 -1.0995 -0.5738  0.4449
    1SOL    MW4  664   4.438   4.045   0.511  0.1855 -0.1884  0.1723
    1SOL     OW  665   0.909   3.207   0.744  0.1306 -0.1294  0.0825
    1SOL    HW2  666   0.921   3.160   0.662  0.1743  0.3338 -0.1755
    1SOL    HW3  667   0.826   3.173   0.779 -0.1319  0.0269 -0.3888
    1SOL    MW4  668   0.900   3.196   0.738  0.1018 -0.0474 -0.0138
    1SOL     OW  669   1.637   3.355   0.410  0.2582  0.6007 -0.0392
    1SOL    HW2  670   1.624   3.443   0.446 -1.4172  0.1691  0.4564
    1SOL    HW3  671   1.712   3.319   0.458  0.2266  1.3258  0.5473
    1SOL    MW4  672   1.645   3.362   0.421  0.0331  0.6397  0.1036
    1SOL     OW  673   2.898   3.850   0.896  0.0745 -0.4507 -0.1157
    1SOL    HW2  674   2.810   3.882   0.877  0.1237 -0.8948 -1.1083
    1SOL    HW3  675   2.898   3.834   0.991 -0.4478  0.9325  0.1215
    1SOL    MW4  676   2.887   3.852   0.906  0.0122 -0.3266 -0.2154
    1SOL     OW  677   0.783   0.987   0.349 -0.0711  0.0913  0.3733
    1SOL    HW2  678   0.825   1.008   0.265 -0.1993 -0.8995  0.0518
    1SOL    HW3  679   0.694   1.023   0.341  0.4871  1.6165  0.8054
    1SOL    MW4  680   0.776   0.995   0.337 -0.0144  0.1618  0.3879
    1SOL     OW  681   1.559   3.642   0.788 -0.3422 -0.4727 -0.2883
    1SOL    HW2  682   1.636   3.612   0.837 -0.5814 -0.4839  0.0854
    1SOL    HW3  683   1.586   3.639   0.696 -0.2266 -1.4200 -0.2231
    1SOL    MW4  684   1.573   3.638   0.783 -0.3586 -0.5989 -0.2305
    1SOL     OW  685   2.548   4.218   0.510 -0.2026  0.3764  0.0561
    1SOL    HW2  686   2.574   4.126   0.511 -2.0408 -0.1490  1.3377
    1SOL    HW3  687   2.610   4.259   0.451  1.3049 -1.4939  0.2788
    1SOL    MW4  688   2.560   4.211   0.502 -0.2465  0.0601  0.2546
    1SOL     OW  689   0.089   0.495   0.382 -0.0224 -0.7674  0.2387
    1SOL    HW2  690   0.064   0.415   0.430  0.6691 -1.2651 -0.2228
    1SOL    HW3  691   0.141   0.463   0.309 -1.8099 -0.0721 -1.3700
    1SOL    MW4  692   0.092   0.480   0.379 -0.1670 -0.7414 -0.0344
    1SOL     OW  693   4.026   4.526   0.491 -0.2024  0.0414  0.0386
    1SOL    HW2  694   4.024   4.585   0.416  1.1584  1.7083  1.2667
    1SOL    HW3  695   4.119   4.518   0.514 -0.5154 -1.1679  0.9789
    1SOL    MW4  696   4.038   4.533   0.484 -0.0644  0.1016  0.3247
    1SOL     OW  697   2.479   2.305   0.866  0.1779  0.0253 -0.1818
    1SOL    HW2  698   2.568   2.340   0.870 -0.1099  0.7039  0.3918
    1SOL    HW3  699   2.426   2.376   0.830 -0.0637 -0.5256 -0.9278
    1SOL    MW4  700   2.484   2.319   0.862  0.1080  0.0420 -0.2045
    1SOL     OW  701   4.123   3.760   0.501 -0.5595 -0.4517 -0.7739
    1SOL    HW2  702   4.187   3.789   0.436 -0.1303  0.1820 -0.0710
    1SOL    HW3  703   4.175   3.720   0.571 -0.9573 -0.3571 -0.4191
    1SOL    MW4  704   4.138   3.758   0.502 -0.5550 -0.3557 -0.6343
    1SOL     OW  705   3.151   1.973   0.836 -0.4304  0.5499  0.2296
    1SOL    HW2  706   3.170   1.963   0.930  0.1540  0.3761  0.0918
    1SOL    HW3  707   3.233   2.004   0.798 -0.5319  0.1633 -0.3049
    1SOL    MW4  708   3.164   1.976   0.844 -0.3667  0.4761  0.1410
    1SOL     OW  709   2.935   3.574   0.495 -0.1891  0.0926 -0.2117
    1SOL    HW2  710   2.915   3.599   0.585  2.5529  0.7687  0.2377
    1SOL    HW3  711   2.931   3.478   0.496  0.3537  0.0717  0.7517
    1SOL    MW4  712   2.931   3.564   0.507  0.2444  0.1788 -0.0253
    1SOL     OW  713   1.463   4.459   0.343 -0.3695  0.8263 -0.0563
    1SOL    HW2  714   1.469   4.554   0.338 -1.2712  0.7983 -2.8578
    1SOL    HW3  715   1.380   4.443   0.388 -0.0017  1.3424  0.8205
    1SOL    MW4  716   1.453   4.469   0.348 -0.4399  0.8912 -0.3102
    1SOL     OW  717   3.164   2.694   0.829  0.3436  0.7910  0.4905
    1SOL    HW2  718   3.165   2.612   0.780  0.9511  0.0701  1.6667
    1SOL    HW3  719   3.237   2.745   0.793  0.8741  0.2124  0.7466
    1SOL    MW4  720   3.174   2.690   0.818  0.4940  0.6194  0.6796
    1SOL     OW  721   2.715   0.347   0.758 -0.4110 -0.0428  0.3684
    1SOL    HW2  722   2.709   0.377   0.848 -2.0343 -0.3936  0.3755
    1SOL    HW3  723   2.772   0.412   0.715 -1.8453  1.6430  0.9865
    1SOL    MW4  724   2.722   0.359   0.764 -0.8144  0.1333  0.4509
    1SOL     OW  725   3.175   2.465   0.689  0.1928  0.1217  0.3017
    1SOL    HW2  726   3.232   2.404   0.734  0.7596  0.6058  0.2415
    1SOL    HW3  727   3.088   2.423   0.691  0.0814  0.4115  2.3584
    1SOL    MW4  728   3.171   2.452   0.695  0.2530  0.2236  0.5652
    1SOL     OW  729   1.817   2.363   0.086  0.0594  0.1355 -0.0303
    1SOL    HW2  730   1.854   2.392   0.002  0.2173 -0.1266 -0.0531
    1SOL    HW3  731   1.889   2.316   0.129 -0.0051  0.3099  0.2726
    1SOL    MW4  732   1.832   2.361   0.081  0.0716  0.1240  0.0066
    1SOL     OW  733   0.652   3.704   0.528 -0.2465  0.2065  0.4253
    1SOL    HW2  734   0.562   3.720   0.498 -0.7061 -0.1900  1.5428
    1SOL    HW3  735   0.696   3.788   0.516 -0.5945  0.2389 -0.7026
    1SOL    MW4  736   0.646   3.717   0.523 -0.3531  0.1585  0.4240
    1SOL     OW  737   1.793   2.699   0.848 -0.3660 -0.1160 -0.0662
    1SOL    HW2  738   1.717   2.753   0.825 -0.0729  0.2584 -0.1669
    1SOL    HW3  739   1.867   2.743   0.806  0.0843  0.2277  1.0789
    1SOL    MW4  740   1.793   2.712   0.839 -0.2679 -0.0212  0.0716
    1SOL     OW  741   2.453   3.592   0.798  0.3856  0.0665  0.1989
    1SOL    HW2  742   2.448   3.572   0.704 -2.5171 -0.2836  0.3957
    1SOL    HW3  743   2.526   3.539   0.829  1.2039 -0.0325 -1.8053
    1SOL    MW4  744   2.462   3.582   0.790  0.1106  0.0072 -0.0395
    1SOL     OW  745   2.667   3.179   0.775 -0.2266  0.3131  0.3323
    1SOL    HW2  746   2.682   3.175   0.680  2.0266  0.9865  0.6358
    1SOL    HW3  747   2.662   3.272   0.794 -0.5121  0.1806  0.9156
    1SOL    MW4  748   2.668   3.191   0.765  0.0329  0.3846  0.4492
    1SOL     OW  749   2.701   4.236   0.875 -0.6241 -0.0527 -0.2995
    1SOL    HW2  750   2.693   4.248   0.970 -1.2889 -0.1579 -0.3420
    1SOL    HW3  751   2.634   4.293   0.838  0.7869  1.3223 -0.7847
    1SOL    MW4  752   2.691   4.245   0.883 -0.5255  0.1154 -0.3691
    1SOL     OW  753   0.379   3.794   0.383  0.1078  0.1096  0.6159
    1SOL    HW2  754   0.393   3.885   0.410  0.6259  0.5626 -1.1499
    1SOL    HW3  755   0.449   3.776   0.321 -0.7040 -1.1282  0.0454
    1SOL    MW4  756   0.390   3.804   0.379  0.0690  0.0060  0.3076
    1SOL     OW  757   1.564   4.373   0.745  0.2569  0.0261 -0.3661
    1SOL    HW2  758   1.563   4.463   0.778  1.0012  0.7337 -2.2115
    1SOL    HW3  759   1.635   4.331   0.793 -0.8965  0.0559  1.4040
    1SOL    MW4  760   1.574   4.379   0.755  0.2029  0.1230 -0.3760
    1SOL     OW  761   1.119   1.831   0.408 -0.2746  0.0271  0.2763
    1SOL    HW2  762   1.089   1.917   0.439 -1.6065 -0.0123 -0.8842
    1SOL    HW3  763   1.114   1.836   0.313  2.8647 -0.1999  0.0356
    1SOL    MW4  764   1.114   1.843   0.400 -0.0361 -0.0081  0.0914
    1SOL     OW  765   2.257   2.963   0.463 -0.2651  0.3734  0.0680
    1SOL    HW2  766   2.234   2.870   0.453  0.4587  0.1495  0.4588
    1SOL    HW3  767   2.353   2.963   0.471 -0.1120  1.3018 -1.5654
    1SOL    MW4  768   2.267   2.951   0.462 -0.1493  0.4666 -0.0960
    1SOL     OW  769   0.932   3.091   0.492  0.5494  0.0255 -0.1192
    1SOL    HW2  770   1.004   3.126   0.439 -0.0103 -0.1012 -0.9874
    1SOL    HW3  771   0.855   3.099   0.435  0.0337 -0.6366  0.4760
    1SOL    MW4  772   0.931   3.097   0.477  0.4075 -0.0787 -0.1553
    1SOL     OW  773   1.253   2.796   0.294 -0.0918  0.4968 -0.0029
    1SOL    HW2  774   1.298   2.879   0.279  1.1371 -0.0443  0.5501
    1SOL    HW3  775   1.323   2.731   0.293 -1.0253 -0.5250 -0.3133
    1SOL    MW4  776   1.268   2.798   0.292 -0.0528  0.2906  0.0291
    1SOL     OW  777   3.568   3.262   0.497  0.6330 -0.2244  0.0518
    1SOL    HW2  778   3.563   3.352   0.464 -0.4126  0.3339  1.6794
    1SOL    HW3  779   3.484   3.223   0.474  0.1998 -0.0710  1.3357
    1SOL    MW4  780   3.556   3.269   0.490  0.4380 -0.1302  0.4359
    1SOL     OW  781   1.508   0.077   0.380 -0.1554 -0.4135 -0.1569
    1SOL    HW2  782   1.418   0.092   0.407 -0.1214 -0.1887 -0.1648
    1SOL    HW3  783   1.520   0.134   0.303  0.4771  0.7853  0.8015
    1SOL    MW4  784   1.498   0.087   0.373 -0.0675 -0.2257 -0.0315
    1SOL     OW  785   0.715   3.433   0.426 -0.2369  0.3758  0.6478
    1SOL    HW2  786   0.808   3.427   0.402 -0.2423  2.2659  0.0175
    1SOL    HW3  787   0.707   3.521   0.463 -1.6734  0.0067  1.2182
    1SOL    MW4  788   0.726   3.444   0.428 -0.4271  0.5767  0.6399
    1SOL     OW  789   4.237   0.164   0.770  0.2533 -0.5113 -0.4830
    1SOL    HW2  790   4.150   0.123   0.765 -1.0059  2.2440 -2.2558
    1SOL    HW3  791   4.222   0.247   0.815  1.7400  0.4848 -1.7499
    1SOL    MW4  792   4.223   0.169   0.775  0.2832 -0.0164 -0.8841
    1SOL     OW  793   0.298   1.093   0.391  0.1053  0.1619  0.1067
    1SOL    HW2  794   0.383   1.113   0.351  0.4442  0.7412  1.1209
    1SOL    HW3  795   0.283   1.164   0.453 -1.1321  0.0647 -0.0710
    1SOL    MW4  796   0.307   1.105   0.394 -0.0132  0.2254  0.2171
    1SOL     OW  797   2.525   0.637   0.527 -0.0971 -0.1134 -0.6202
    1SOL    HW2  798   2.489   0.588   0.602  0.0151  1.0153  0.1907
    1SOL    HW3  799   2.579   0.573   0.480 -2.9070 -1.7903 -1.7075
    1SOL    MW4  800   2.527   0.622   0.531 -0.4528 -0.1857 -0.6567
    1SOL     OW  801   0.492   0.398   0.452  0.7116  0.6211  0.1286
    1SOL    HW2  802   0.569   0.453   0.467  0.4081  0.7575  1.2387
    1SOL    HW3  803   0.424   0.437   0.507 -0.0081  0.1840 -0.4392
    1SOL    MW4  804   0.493   0.411   0.461  0.5766  0.5814  0.2001
    1SOL     OW  805   2.232   0.366   0.883 -0.0493  0.2392  0.1162
    1SOL    HW2  806   2.220   0.289   0.826  1.1714  0.8902 -1.0419
    1SOL    HW3  807   2.170   0.430   0.849  0.5863  0.5807 -0.4131
    1SOL    MW4  808   2.222   0.364   0.871  0.1957  0.3701 -0.1065
    1SOL     OW  809   3.406   4.397   0.759  0.2673  0.1365 -0.2152
    1SOL    HW2  810   3.401   4.485   0.795  0.4234 -0.8878  2.4210
    1SOL    HW3  811   3.324   4.355   0.786 -0.3835 -0.1798 -2.5073
    1SOL    MW4  812   3.394   4.403   0.767  0.2019 -0.0401 -0.1697
    1SOL     OW  813   3.606   4.250   0.859 -0.2782  0.2134  0.7926
    1SOL    HW2  814   3.525   4.294   0.833 -0.5136 -0.1060  0.9959
    1SOL    HW3  815   3.603   4.165   0.816  1.3613  1.3304 -1.7113
    1SOL    MW4  816   3.595   4.245   0.850 -0.0927  0.3185  0.4891
    1SOL     OW  817   0.667   4.149   0.372  0.3530 -0.0569 -0.3410
    1SOL    HW2  818   0.700   4.147   0.283  0.5483  1.5027 -0.3151
    1SOL    HW3  819   0.687   4.237   0.404  1.3265 -0.9539  1.6339
    1SOL    MW4  820   0.674   4.160   0.365  0.5073  0.0310 -0.0770
    1SOL     OW  821   2.183   2.446   0.508  0.0585  0.1294 -0.1047
    1SOL    HW2  822   2.261   2.398   0.478  0.0990  0.2620 -0.2190
    1SOL    HW3  823   2.203   2.470   0.598 -0.1340 -0.4170  0.0850
    1SOL    MW4  824   2.196   2.443   0.516  0.0386  0.0749 -0.0948
    1SOL     OW  825   3.347   0.474   0.776 -0.3913  0.1601  0.4551
    1SOL    HW2  826   3.364   0.478   0.682 -1.1647  1.1658  0.3462
    1SOL    HW3  827   3.431   0.447   0.815 -0.0096 -0.0396 -0.4997
    1SOL    MW4  828   3.361   0.471   0.769 -0.4430  0.2664  0.3147
    1SOL     OW  829   0.721   2.543   0.562 -0.9210  0.3426  0.4105
    1SOL    HW2  830   0.705   2.634   0.537 -0.4802 -0.0617 -1.4127
    1SOL    HW3  831   0.639   2.498   0.542 -0.1029 -0.2630 -1.7963
    1SOL    MW4  832   0.708   2.549   0.556 -0.7549  0.2093 -0.1212
    1SOL     OW  833   0.186   4.178   0.394 -0.1813 -0.0601  0.2975
    1SOL    HW2  834   0.190   4.269   0.423 -1.9270 -0.0988  0.7484
    1SOL    HW3  835   0.111   4.141   0.441  0.3659 -1.6708 -0.0538
    1SOL    MW4  836   0.176   4.185   0.404 -0.3394 -0.2775  0.3106
    1SOL     OW  837   0.292   0.552   0.552  0.1098 -0.2453 -0.6681
    1SOL    HW2  838   0.310   0.645   0.543  0.7072 -0.1772  1.0538
    1SOL    HW3  839   0.218   0.536   0.493 -0.1661  1.3579 -0.7808
    1SOL    MW4  840   0.284   0.562   0.543  0.1522 -0.0248 -0.4557
    1SOL     OW  841   2.011   3.652   0.764 -0.0561  0.2512  0.0044
    1SOL    HW2  842   2.081   3.591   0.786 -0.0422 -0.0308 -0.7777
    1SOL    HW3  843   1.935   3.621   0.813 -0.3310 -1.0409 -1.2177
    1SOL    MW4  844   2.010   3.640   0.773 -0.0906  0.0434 -0.2600
    1SOL     OW  845   4.117   0.383   0.881 -0.3766 -0.2847  0.0420
    1SOL    HW2  846   4.181   0.441   0.838  0.8480 -0.9102  0.9870
    1SOL    HW3  847   4.032   0.411   0.846  0.3125  1.2575 -0.4517
    1SOL    MW4  848   4.114   0.395   0.871 -0.1240 -0.1637  0.1016
    1SOL     OW  849   2.940   1.917   0.450  0.0832 -0.0754 -0.6336
    1SOL    HW2  850   2.937   1.946   0.541  0.7480 -2.7091  0.2634
    1SOL    HW3  851   2.874   1.848   0.444  1.4281 -1.3038 -1.6105
    1SOL    MW4  852   2.931   1.912   0.461  0.3486 -0.5850 -0.6441
    1SOL     OW  853   1.405   3.033   0.307  0.5237  0.0307  0.7076
    1SOL    HW2  854   1.465   3.091   0.259 -0.3902  1.1706  0.9053
    1SOL    HW3  855   1.462   2.982   0.365  1.4499 -0.0336 -0.2426
    1SOL    MW4  856   1.421   3.034   0.309  0.5254  0.1729  0.6083
    1SOL     OW  857   1.031   2.531   0.510 -0.3205  0.1449 -0.3928
    1SOL    HW2  858   0.971   2.505   0.439 -0.5894  0.3747 -0.2518
    1SOL    HW3  859   1.039   2.626   0.500 -0.3905  0.1839 -0.0922
    1SOL    MW4  860   1.024   2.540   0.499 -0.3651  0.1805 -0.3346
    1SOL     OW  861   1.630   4.282   0.506  0.0435 -0.0228 -0.4561
    1SOL    HW2  862   1.609   4.308   0.595 -0.1625 -0.0455 -0.4978
    1SOL    HW3  863   1.584   4.346   0.451 -1.6462 -1.3132 -0.5900
    1SOL    MW4  864   1.621   4.294   0.510 -0.2065 -0.1960 -0.4793
    1SOL     OW  865   3.405   0.962   0.433  0.2274  0.5457  0.0137
    1SOL    HW2  866   3.390   1.055   0.449  0.6580  0.7008 -0.4769
    1SOL    HW3  867   3.317   0.925   0.427  0.0547  0.9291  0.1508
    1SOL    MW4  868   3.391   0.970   0.434  0.2613  0.6167 -0.0330
    1SOL     OW  869   0.747   2.327   0.828 -0.6323  0.2136 -0.1880
    1SOL    HW2  870   0.760   2.333   0.923  1.6118  2.2591 -0.5634
    1SOL    HW3  871   0.670   2.380   0.811  0.3996  1.8727  0.2332
    1SOL    MW4  872   0.739   2.335   0.839 -0.2000  0.7026 -0.1819
    1SOL     OW  873   0.188   3.616   0.477  0.0362  0.4511 -0.3225
    1SOL    HW2  874   0.248   3.676   0.433 -0.5908  1.8291  0.6508
    1SOL    HW3  875   0.223   3.608   0.566  0.8334 -1.6608 -0.8009
    1SOL    MW4  876   0.201   3.623   0.483  0.0587  0.3543 -0.2572
    1SOL     OW  877   3.387   2.832   0.757 -0.4530  0.4257 -0.0555
    1SOL    HW2  878   3.390   2.926   0.778  1.4714  0.4288 -0.2057
    1SOL    HW3  879   3.461   2.795   0.806 -1.8982 -1.2303  0.9542
    1SOL    MW4  880   3.397   2.840   0.766 -0.3898  0.2074  0.0579
    1SOL     OW  881   0.470   2.717   0.865 -0.0278  0.2367 -0.2938
    1SOL    HW2  882   0.558   2.748   0.845 -0.3109  1.9877  1.0515
    1SOL    HW3  883   0.476   2.622   0.857  1.9946  0.3291 -0.1915
    1SOL    MW4  884   0.483   2.708   0.862  0.2016  0.4799 -0.1028
    1SOL     OW  885   3.409   0.271   0.326 -0.4322  0.0499 -0.3227
    1SOL    HW2  886   3.420   0.329   0.250 -0.3485 -0.7377 -0.9223
    1SOL    HW3  887   3.317   0.247   0.324 -0.4719  0.1877 -0.0625
    1SOL    MW4  888   3.398   0.276   0.315 -0.4265 -0.0359 -0.3675
    1SOL     OW  889   2.242   4.044   0.805  0.2408  0.4247  0.6298
    1SOL    HW2  890   2.212   4.057   0.715 -0.0954 -1.4303  0.4561
    1SOL    HW3  891   2.164   4.015   0.853  1.3091 -2.9311  0.5048
    1SOL    MW4  892   2.228   4.042   0.799  0.3374 -0.2623  0.5904
    1SOL     OW  893   1.335   4.053   0.709  0.3019 -0.1613  0.1291
    1SOL    HW2  894   1.273   3.996   0.755  1.0345 -1.2105 -0.1796
    1SOL    HW3  895   1.332   4.136   0.758 -0.4859 -0.5815  0.7997
    1SOL    MW4  896   1.327   4.057   0.722  0.2947 -0.3548  0.1768
    1SOL     OW  897   3.578   0.727   0.496  0.3625 -0.1514 -0.3865
    1SOL    HW2  898   3.511   0.662   0.473  0.7728 -0.5505 -0.4676
    1SOL    HW3  899   3.542   0.810   0.467 -0.6525 -0.1911  0.7136
    1SOL    MW4  900   3.565   0.729   0.489  0.2830 -0.2092 -0.2521
    1SOL     OW  901   4.488   1.909   0.887  0.2928  0.3911  0.3442
    1SOL    HW2  902   4.565   1.963   0.869  1.3791 -0.5858  1.8703
    1SOL    HW3  903   4.509   1.825   0.848  0.5122 -0.2099  1.7042
    1SOL    MW4  904   4.501   1.905   0.880  0.4654  0.1830  0.7250
    1SOL     OW  905   0.034   1.178   0.859  0.0877 -0.0481 -0.5199
    1SOL    HW2  906   0.034   1.171   0.954 -0.4598  0.5700 -0.4742
    1SOL    HW3  907   0.015   1.089   0.829 -1.3451  0.0820 -0.0269
    1SOL    MW4  908   0.032   1.166   0.868 -0.1735  0.0507 -0.4488
    1SOL     OW  909   3.092   3.107   0.506 -0.1913  0.0732  0.1154
    1SOL    HW2  910   3.175   3.094   0.461 -0.0581  0.3020  0.2962
    1SOL    HW3  911   3.051   3.020   0.508 -0.0799  0.0145 -0.2146
    1SOL    MW4  912   3.097   3.093   0.500 -0.1588  0.0958  0.0957
    1SOL     OW  913   1.897   2.458   0.480 -0.2167  0.3438  0.2903
    1SOL    HW2  914   1.993   2.451   0.476 -0.2536  0.7161 -1.6478
    1SOL    HW3  915   1.878   2.466   0.573  1.7066  1.2420  0.6356
    1SOL    MW4  916   1.907   2.458   0.492  0.0319  0.5114  0.0802
    1SOL     OW  917   3.138   1.146   0.831  0.0601 -0.3269 -0.0145
    1SOL    HW2  918   3.215   1.185   0.790 -0.1486  0.8042  0.6376
    1SOL    HW3  919   3.159   1.147   0.925 -0.3503 -0.9222  0.0874
    1SOL    MW4  920   3.151   1.151   0.838 -0.0219 -0.2561  0.0849
    1SOL     OW  921   2.900   3.303   0.468 -0.4307  0.2429 -0.2881
    1SOL    HW2  922   2.821   3.249   0.462  0.8046 -1.5659 -0.4659
    1SOL    HW3  923   2.972   3.241   0.476  1.0743  1.8444 -0.9651
    1SOL    MW4  924   2.899   3.288   0.468 -0.0691  0.2155 -0.4009
    1SOL     OW  925   1.373   0.913   0.827 -0.2389 -0.1262  0.3321
    1SOL    HW2  926   1.369   1.006   0.849 -0.9393 -0.2178  0.5813
    1SOL    HW3  927   1.292   0.876   0.862  0.0928 -0.8523  0.3387
    1SOL    MW4  928   1.362   0.920   0.834 -0.2875 -0.2341  0.3659
    1SOL     OW  929   3.808   0.509   0.498  0.0637 -0.1388  0.3031
    1SOL    HW2  930   3.754   0.588   0.492  0.5307  0.0864 -1.1223
    1SOL    HW3  931   3.896   0.539   0.475  0.0112 -1.3171 -1.4959
    1SOL    MW4  932   3.812   0.524   0.494  0.1183 -0.2645 -0.1223
    1SOL     OW  933   3.981   2.423   0.764 -0.3112 -0.0381 -0.0480
    1SOL    HW2  934   4.060   2.389   0.807 -0.4756 -1.5263 -0.8999
    1SOL    HW3  935   3.910   2.368   0.797 -1.0093  1.2379  0.6427
    1SOL    MW4  936   3.982   2.411   0.774 -0.4251 -0.0663 -0.0693
    1SOL     OW  937   1.791   1.631   0.468  0.0702 -0.4611  0.2489
    1SOL    HW2  938   1.844   1.694   0.419 -1.5941  0.1812 -0.7458
    1SOL    HW3  939   1.824   1.637   0.558  0.0940  1.6311  0.1122
    1SOL    MW4  940   1.803   1.640   0.473 -0.1462 -0.1005  0.0996
    1SOL     OW  941   1.386   0.801   0.573 -0.2574  0.0358 -0.4776
    1SOL    HW2  942   1.303   0.770   0.538 -0.6825 -0.4575  0.9104
    1SOL    HW3  943   1.362   0.847   0.654  0.6630  1.3557 -0.9377
    1SOL    MW4  944   1.372   0.803   0.579 -0.1919  0.1448 -0.3552
    1SOL     OW  945   1.776   0.893   0.451 -0.3560 -0.3399 -0.6824
    1SOL    HW2  946   1.786   0.904   0.546 -1.6068 -1.4017 -0.4143
    1SOL    HW3  947   1.858   0.926   0.415  0.5852 -0.9480  0.8397
    1SOL    MW4  948   1.788   0.899   0.459 -0.3968 -0.5602 -0.4462
    1SOL     OW  949   4.216   0.880   0.835 -0.0405 -0.3379 -0.2374
    1SOL    HW2  950   4.171   0.964   0.836  0.7395  0.1005 -0.7665
    1SOL    HW3  951   4.223   0.855   0.927  0.7717  0.7556  0.0086
    1SOL    MW4  952   4.211   0.888   0.847  0.1698 -0.1358 -0.2747
    1SOL     OW  953   0.875   1.252   0.507 -0.5264 -0.0569 -0.1335
    1SOL    HW2  954   0.840   1.166   0.482  0.7149 -0.3726 -0.8327
    1SOL    HW3  955   0.810   1.314   0.473 -1.6695 -0.7242  0.7878
    1SOL    MW4  956   0.862   1.249   0.499 -0.5134 -0.1867 -0.1042
    1SOL     OW  957   0.600   3.752   0.221 -0.0489  0.0560  0.3634
    1SOL    HW2  958   0.656   3.824   0.191  0.2640  1.4027  3.8908
    1SOL    HW3  959   0.660   3.682   0.243 -0.2430 -0.7309 -1.4837
    1SOL    MW4  960   0.615   3.753   0.220 -0.0333  0.1299  0.5851
    1SOL     OW  961   1.190   3.195   0.400  0.5656 -0.5596  0.2612
    1SOL    HW2  962   1.246   3.140   0.344 -0.6736 -0.1861 -1.3965
    1SOL    HW3  963   1.247   3.223   0.471  2.2717 -0.8543 -0.9524
    1SOL    MW4  964   1.205   3.191   0.402  0.6270 -0.5491 -0.1176
    1SOL     OW  965   1.372   2.143   0.452 -0.4642  0.3789 -0.1959
    1SOL    HW2  966   1.418   2.122   0.371 -0.8386 -1.2635 -0.0167
    1SOL    HW3  967   1.428   2.108   0.521 -0.3568  1.3798  0.2349
    1SOL    MW4  968   1.385   2.135   0.450 -0.4994  0.2942 -0.1154
    1SOL     OW  969   3.360   1.251   0.465 -0.0431  0.0571  0.2147
    1SOL    HW2  970   3.356   1.257   0.560 -0.4482 -0.8335  0.2708
    1SOL    HW3  971   3.294   1.313   0.434  1.2282  1.5497  0.4484
    1SOL    MW4  972   3.350   1.260   0.473  0.0713  0.1365  0.2529
    1SOL     OW  973   1.791   2.019   0.121  0.3977  0.1212  0.5256
    1SOL    HW2  974   1.711   2.008   0.172  1.1288 -3.9914  1.0063
    1SOL    HW3  975   1.762   2.050   0.036 -1.5548  0.1660  1.1774
    1SOL    MW4  976   1.777   2.021   0.117  0.2364 -0.4156  0.6750
    1SOL     OW  977   4.459   2.115   0.413  0.7714  0.0805 -0.3080
    1SOL    HW2  978   4.377   2.103   0.461  0.3913 -1.2554 -1.2598
    1SOL    HW3  979   4.450   2.060   0.335  2.4931  0.0567 -0.5205
    1SOL    MW4  980   4.447   2.106   0.409  0.9484 -0.0989 -0.4617
    1SOL     OW  981   3.819   3.105   0.489 -0.0884 -0.4387 -0.2335
    1SOL    HW2  982   3.892   3.160   0.462 -0.2495 -0.0772  0.0577
    1SOL    HW3  983   3.741   3.155   0.465 -0.2507 -0.9954 -0.9032
    1SOL    MW4  984   3.818   3.119   0.482 -0.1311 -0.4644 -0.2834
    1SOL     OW  985   1.357   2.712   0.858  0.5248  0.4356  0.3278
    1SOL    HW2  986   1.362   2.700   0.952 -0.8008  0.1325  0.3720
    1SOL    HW3  987   1.277   2.763   0.845  0.4365  0.0537 -0.6689
    1SOL    MW4  988   1.347   2.717   0.868  0.3383  0.3455  0.2021
    1SOL     OW  989   3.534   0.056   0.450 -0.1534 -0.3059  0.3232
    1SOL    HW2  990   3.504   0.130   0.397  0.0429 -0.6751 -0.3207
    1SOL    HW3  991   3.532   0.088   0.540 -1.2923  0.0694  0.1797
    1SOL    MW4  992   3.530   0.070   0.455 -0.2778 -0.3051  0.2193
    1SOL     OW  993   4.068   3.469   0.809  0.2989 -0.2667 -0.1662
    1SOL    HW2  994   4.067   3.374   0.798  0.4114 -0.1020 -1.7427
    1SOL    HW3  995   4.082   3.483   0.902  0.4731 -1.7991  0.0391
    1SOL    MW4  996   4.070   3.458   0.820  0.3371 -0.4470 -0.3471
    1SOL     OW  997   0.489   0.385   0.835  0.1245  0.1051  0.0626
    1SOL    HW2  998   0.416   0.447   0.836  1.3310  1.5924 -1.2120
    1SOL    HW3  999   0.458   0.313   0.781 -0.8595  0.1243  0.5787
    1SOL    MW4 1000   0.475   0.384   0.828  0.1539  0.3039 -0.0374
    1SOL     OW 1001   2.107   4.478   0.335  0.0113 -0.0572 -0.1688
    1SOL    HW2 1002   2.040   4.435   0.282  1.4214  0.5650 -2.5268
    1SOL    HW3 1003   2.180   4.417   0.337  0.9996  1.0454 -1.2929
    1SOL    MW4 1004   2.108   4.464   0.328  0.3276  0.1702 -0.6282
    1SOL     OW 1005   0.041   0.331   0.819  0.0800 -0.2263 -0.5429
    1SOL    HW2 1006   0.119   0.387   0.815  3.4667 -4.6727 -0.4035
    1SOL    HW3 1007   0.018   0.329   0.912 -0.1132  0.9790 -0.5604
    1SOL    MW4 1008   0.048   0.338   0.830  0.5014 -0.6539 -0.5268
    1SOL     OW 1009   1.912   1.835   0.315 -0.2627  0.4819 -0.3153
    1SOL    HW2 1010   1.919   1.904   0.381  0.9983  1.1594 -1.1320
    1SOL    HW3 1011   1.876   1.879   0.238  2.1469  0.6708 -1.4016
    1SOL    MW4 1012   1.908   1.850   0.313  0.2215  0.5962 -0.5664
    1SOL     OW 1013   0.219   0.786   0.904  0.2716 -0.1742  0.0838
    1SOL    HW2 1014   0.213   0.799   0.998  1.3275  0.6535  0.0422
    1SOL    HW3 1015   0.137   0.821   0.869  1.0458  2.0178  0.4322
    1SOL    MW4 1016   0.207   0.792   0.912  0.5130  0.2243  0.1242
    1SOL     OW 1017   0.047   0.857   0.514 -0.2325  0.2195  0.3170
    1SOL    HW2 1018   0.030   0.935   0.461 -1.4031  0.4842  1.0791
    1SOL    HW3 1019   0.143   0.855   0.522 -0.1224  0.9441 -0.6521
    1SOL    MW4 1020   0.058   0.867   0.508 -0.3724  0.3501  0.2897
    1SOL     OW 1021   0.722   1.842   0.455  0.2863 -0.0973  0.4892
    1SOL    HW2 1022   0.644   1.789   0.441  1.3952 -2.2198  2.0856
    1SOL    HW3 1023   0.789   1.780   0.486  2.2099  1.8866  0.4827
    1SOL    MW4 1024   0.721   1.827   0.457  0.6864 -0.1156  0.6990
    1SOL     OW 1025   0.185   1.558   1.095  0.0974  0.2866 -0.2173
    1SOL    HW2 1026   0.201   1.477   1.143  1.4344  1.6255  1.6308
    1SOL    HW3 1027   0.201   1.534   1.003  0.7234 -1.4793  0.3252
    1SOL    MW4 1028   0.189   1.544   1.089  0.3564  0.2303  0.0981
    1SOL     OW 1029   0.266   1.320   0.554  0.0411  0.3683  0.2559
    1SOL    HW2 1030   0.356   1.327   0.587 -0.6266  0.9502  2.0046
    1SOL    HW3 1031   0.257   1.393   0.494  0.6735  0.4292  0.2311
    1SOL    MW4 1032   0.277   1.330   0.551  0.0364  0.4531  0.4834
    1SOL     OW 1033   1.120   2.819   0.751 -0.1017 -0.3901  0.6233
    1SOL    HW2 1034   1.049   2.766   0.785 -0.3928 -1.0266 -0.9192
    1SOL    HW3 1035   1.110   2.814   0.656  1.5857  0.0792  0.4045
    1SOL    MW4 1036   1.110   2.811   0.743  0.0826 -0.4122  0.3908
    1SOL     OW 1037   4.034   2.440   0.489  0.3333 -0.1232  0.3588
    1SOL    HW2 1038   3.959   2.484   0.448  0.4732  0.0799  0.3232
    1SOL    HW3 1039   4.012   2.438   0.582  1.1230  1.5968  0.6092
    1SOL    MW4 1040   4.021   2.446   0.496  0.4563  0.1307  0.3871
    1SOL     OW 1041   1.079   2.376   0.857 -0.0413  0.4767 -0.1948
    1SOL    HW2 1042   1.075   2.286   0.825 -1.4647  0.0577  1.1400
    1SOL    HW3 1043   1.164   2.408   0.827 -0.0574 -0.8866 -1.7756
    1SOL    MW4 1044   1.090   2.368   0.849 -0.2313  0.2420 -0.2273
    1SOL     OW 1045   0.003   2.905   0.496  0.5657  0.5483  0.3734
    1SOL    HW2 1046  -0.071   2.885   0.553 -0.4841  0.4085 -1.0345
    1SOL    HW3 1047   0.080   2.890   0.552 -0.4144 -0.5288  1.4614
    1SOL    MW4 1048   0.003   2.900   0.511  0.2975  0.3877  0.3312
    1SOL     OW 1049   4.228   2.324   0.846  0.0680  0.1607 -0.6361
    1SOL    HW2 1050   4.239   2.231   0.826  0.5239  0.4069 -1.5687
    1SOL    HW3 1051   4.312   2.363   0.821 -0.3308  0.9164 -0.7814
    1SOL    MW4 1052   4.241   2.317   0.840  0.0753  0.2928 -0.7784
    1SOL     OW 1053   0.009   1.074   0.355 -0.0873  0.0423  0.0073
    1SOL    HW2 1054   0.103   1.089   0.359  0.0159 -0.7703  0.9451
    1SOL    HW3 1055  -0.029   1.151   0.397  0.1944  0.0410  0.2683
    1SOL    MW4 1056   0.016   1.086   0.361 -0.0365 -0.0651  0.1654
    1SOL     OW 1057   4.035   1.663   0.710  0.3202 -0.4368 -0.4552
    1SOL    HW2 1058   3.973   1.593   0.732  0.8178 -0.6509  0.3095
    1SOL    HW3 1059   4.121   1.625   0.731  0.6776 -0.0174 -1.1674
    1SOL    MW4 1060   4.038   1.649   0.716  0.4330 -0.4096 -0.4483
    1SOL     OW 1061   0.269   3.070   0.806  0.2441  0.0328 -0.0642
    1SOL    HW2 1062   0.264   3.043   0.898 -0.0750 -1.2395 -0.4437
    1SOL    HW3 1063   0.183   3.109   0.788  0.9891  2.0871  0.7144
    1SOL    MW4 1064   0.257   3.071   0.816  0.3003  0.1359 -0.0116
    1SOL     OW 1065   1.515   0.993   0.408 -0.1771 -0.4090 -0.1501
    1SOL    HW2 1066   1.481   0.931   0.473  1.0865 -0.2664  0.6612
    1SOL    HW3 1067   1.607   0.969   0.399  0.0497  0.6522 -0.6486
    1SOL    MW4 1068   1.523   0.982   0.416  0.0197 -0.2502 -0.1088
    1SOL     OW 1069   0.035   2.392   0.510 -0.1199 -0.0817  0.0490
    1SOL    HW2 1070   0.008   2.306   0.476  0.3359  0.3288 -1.3999
    1SOL    HW3 1071  -0.042   2.448   0.498 -0.8230 -0.5695  2.1106
    1SOL    MW4 1072   0.021   2.388   0.504 -0.1525 -0.0918  0.1298
    1SOL     OW 1073   0.019   3.192   0.741 -0.3469 -0.5818 -0.7507
    1SOL    HW2 1074   0.025   3.195   0.645  1.4175  1.5644 -0.6139
    1SOL    HW3 1075   0.019   3.284   0.768 -3.0711 -1.1103  1.2155
    1SOL    MW4 1076   0.020   3.205   0.732 -0.4735 -0.3684 -0.4733
    1SOL     OW 1077   0.490   3.463   0.880  0.3592 -0.7204  0.1347
    1SOL    HW2 1078   0.468   3.465   0.973 -0.7594 -0.7511 -0.1133
    1SOL    HW3 1079   0.493   3.370   0.858 -2.5887 -0.7115 -0.5522
    1SOL    MW4 1080   0.487   3.451   0.889 -0.1773 -0.7234  0.0114
    1SOL     OW 1081   0.160   2.597   0.359 -0.0692 -0.2077 -0.0705
    1SOL    HW2 1082   0.130   2.514   0.398 -2.0415  0.4067 -0.2489
    1SOL    HW3 1083   0.082   2.636   0.321  1.2215  0.8035 -1.7745
    1SOL    MW4 1084   0.146   2.591   0.359 -0.1592  0.0067 -0.3189
    1SOL     OW 1085   0.304   1.165   0.840  0.3951  0.5170  0.2258
    1SOL    HW2 1086   0.315   1.078   0.801  0.4229  0.3700  0.5533
    1SOL    HW3 1087   0.210   1.184   0.831  0.5755  0.9375 -0.8431
    1SOL    MW4 1088   0.293   1.156   0.834  0.4226  0.5530  0.1280
    1SOL     OW 1089   0.431   0.101   0.754  0.0750 -0.2747 -0.5469
    1SOL    HW2 1090   0.358   0.042   0.773  1.0677 -1.2474  0.3604
    1SOL    HW3 1091   0.506   0.060   0.797  0.7863  1.6688  0.1362
    1SOL    MW4 1092   0.431   0.088   0.762  0.2998 -0.1466 -0.3371
    1SOL     OW 1093   0.443   0.345   1.106  0.0444  0.0924  0.2646
    1SOL    HW2 1094   0.458   0.352   1.012 -0.2294 -0.3820  0.1838
    1SOL    HW3 1095   0.357   0.385   1.120 -0.7339 -1.4378  0.0476
    1SOL    MW4 1096   0.434   0.351   1.096 -0.0944 -0.1721  0.2253
    1SOL     OW 1097   2.029   2.123   0.757  0.0450  0.4362 -0.4361
    1SOL    HW2 1098   2.031   2.212   0.792 -0.5748  0.0892  0.4948
    1SOL    HW3 1099   1.947   2.086   0.789  0.5521 -0.6513 -0.3735
    1SOL    MW4 1100   2.019   2.129   0.766  0.0300  0.2468 -0.3049
    1SOL     OW 1101   3.365   1.270   0.738 -0.2176  0.3007  0.2512
    1SOL    HW2 1102   3.447   1.226   0.761  0.5684  1.6202  0.0013
    1SOL    HW3 1103   3.382   1.362   0.754 -1.3969  0.6766 -0.5942
    1SOL    MW4 1104   3.378   1.276   0.743 -0.2697  0.5245  0.1067
    1SOL     OW 1105   3.652   1.647   0.733 -0.0974 -0.0557  0.3015
    1SOL    HW2 1106   3.573   1.593   0.743 -0.4553  0.5500  0.7995
    1SOL    HW3 1107   3.668   1.650   0.639  0.6673 -2.0974  0.3424
    1SOL    MW4 1108   3.643   1.640   0.722 -0.0439 -0.2452  0.3726
    1SOL     OW 1109   0.894   0.142   0.758  0.6530  0.4762  0.2500
    1SOL    HW2 1110   0.887   0.130   0.663  1.6753  0.4019  0.1745
    1SOL    HW3 1111   0.826   0.086   0.794  1.0229 -0.3902 -0.3909
    1SOL    MW4 1112   0.884   0.133   0.750  0.8367  0.3521  0.1555
    1SOL     OW 1113   0.695   2.821   0.745 -0.2370  0.0599  0.3366
    1SOL    HW2 1114   0.709   2.906   0.788 -2.0774  0.6780 -0.2400
    1SOL    HW3 1115   0.700   2.841   0.651 -0.9677 -0.4084  0.1942
    1SOL    MW4 1116   0.698   2.835   0.738 -0.5762  0.0799  0.2418
    1SOL     OW 1117   1.516   0.297   0.178  0.1784  0.0258 -0.9355
    1SOL    HW2 1118   1.608   0.315   0.198  0.0789  0.0505 -0.4962
    1SOL    HW3 1119   1.491   0.367   0.118  0.2807  0.3561 -0.5956
    1SOL    MW4 1120   1.525   0.309   0.173  0.1787  0.0726 -0.8327
    1SOL     OW 1121   0.515   3.216   0.787  0.3468 -0.5768  0.4320
    1SOL    HW2 1122   0.527   3.224   0.692 -0.6910 -0.2731  0.3108
    1SOL    HW3 1123   0.435   3.164   0.796  0.0777 -0.0470  1.1332
    1SOL    MW4 1124   0.506   3.210   0.776  0.1745 -0.4671  0.5085
    1SOL     OW 1125   0.522   1.253   0.679 -0.1959  0.2547 -0.1314
    1SOL    HW2 1126   0.462   1.210   0.741 -0.4867  0.4262 -0.2911
    1SOL    HW3 1127   0.583   1.301   0.735  0.8130 -1.2499  0.0893
    1SOL    MW4 1128   0.522   1.254   0.695 -0.1012  0.0787 -0.1233
    1SOL     OW 1129   2.937   1.557   0.833 -0.0279  0.5581 -0.2877
    1SOL    HW2 1130   2.865   1.577   0.774  0.2278  0.7714 -0.5289
    1SOL    HW3 1131   3.007   1.617   0.807  0.1352  0.5542  0.1344
    1SOL    MW4 1132   2.937   1.568   0.822  0.0269  0.5857 -0.2638
    1SOL     OW 1133   0.003   1.669   0.753  0.2450 -0.0726  0.1978
    1SOL    HW2 1134  -0.075   1.631   0.792  0.0162 -0.4038 -0.5664
    1SOL    HW3 1135   0.072   1.605   0.769  0.3557  0.2104  0.8544
    1SOL    MW4 1136   0.002   1.655   0.760  0.2294 -0.0790  0.1836
    1SOL     OW 1137   1.200   4.127   0.338  0.6511  0.5483  0.0536
    1SOL    HW2 1138   1.273   4.091   0.389  0.9264  1.8750  0.6221
    1SOL    HW3 1139   1.236   4.141   0.251  0.8577  0.4640  0.1251
    1SOL    MW4 1140   1.214   4.124   0.334  0.7145  0.7114  0.1380
    1SOL     OW 1141   0.885   2.276   0.538 -0.1433  0.0573  0.2347
    1SOL    HW2 1142   0.936   2.200   0.509  0.1070  0.5964 -0.7471
    1SOL    HW3 1143   0.794   2.247   0.532 -0.0740  0.0404 -0.7304
    1SOL    MW4 1144   0.879   2.262   0.534 -0.1012  0.1261 -0.0222
    1SOL     OW 1145   2.872   0.562   0.244 -0.0947  0.5095  0.0271
    1SOL    HW2 1146   2.863   0.649   0.206 -1.0898  0.7215  0.7216
    1SOL    HW3 1147   2.947   0.569   0.303  0.8945  0.4204 -1.2105
    1SOL    MW4 1148   2.881   0.574   0.247 -0.0954  0.5257 -0.0445
    1SOL     OW 1149   0.662   2.813   0.479  0.6700 -0.2866 -0.2634
    1SOL    HW2 1150   0.578   2.768   0.467 -0.0447  0.8185  0.4393
    1SOL    HW3 1151   0.652   2.896   0.432  1.4081 -0.1942 -0.2659
    1SOL    MW4 1152   0.650   2.818   0.471  0.6731 -0.1287 -0.1710
    1SOL     OW 1153   0.198   1.989   0.516 -0.3308  0.2002  0.0659
    1SOL    HW2 1154   0.210   2.000   0.610  0.3219 -2.0330  0.2912
    1SOL    HW3 1155   0.119   2.039   0.495  0.7030  2.4267  1.4064
    1SOL    MW4 1156   0.189   1.997   0.526 -0.1083  0.1992  0.2726
    1SOL     OW 1157   3.340   3.897   0.860 -0.1327  0.2259  0.0539
    1SOL    HW2 1158   3.338   3.804   0.836  1.5196 -0.1060  1.0759
    1SOL    HW3 1159   3.355   3.896   0.955  0.4673  1.5425 -0.0212
    1SOL    MW4 1160   3.342   3.885   0.870  0.1643  0.3560  0.1788
    1SOL     OW 1161   3.605   2.461   0.713  0.0514  0.4220 -0.3638
    1SOL    HW2 1162   3.596   2.545   0.757  1.7244  0.8342 -0.7622
    1SOL    HW3 1163   3.517   2.423   0.715 -0.2513  1.1626  1.8580
    1SOL    MW4 1164   3.592   2.467   0.719  0.2320  0.5739 -0.1232
    1SOL     OW 1165   0.017   3.468   0.829 -0.4749 -0.2293 -0.5028
    1SOL    HW2 1166   0.098   3.507   0.797 -0.1980 -1.0014 -0.7531
    1SOL    HW3 1167  -0.052   3.521   0.790 -0.0867  0.6387 -0.0175
    1SOL    MW4 1168   0.019   3.480   0.819 -0.3871 -0.2165 -0.4718
    1SOL     OW 1169   0.705   3.613   0.785  0.3534 -0.1089 -0.6905
    1SOL    HW2 1170   0.627   3.562   0.806  0.5689 -0.4255 -0.6538
    1SOL    HW3 1171   0.692   3.641   0.694  0.5080 -0.7282 -0.9039
    1SOL    MW4 1172   0.693   3.610   0.776  0.4022 -0.2325 -0.7138
    1SOL     OW 1173   1.904   4.218   0.475 -0.0740 -0.0070  0.4749
    1SOL    HW2 1174   1.894   4.139   0.422 -1.5222  0.1896  0.4365
    1SOL    HW3 1175   1.820   4.227   0.521  0.8623  0.2504  2.2109
    1SOL    MW4 1176   1.892   4.209   0.474 -0.1416  0.0525  0.6989
    1SOL     OW 1177   0.236   4.445   0.480  0.4185  0.0376 -0.1302
    1SOL    HW2 1178   0.323   4.462   0.443  0.9668  1.2242  1.6343
    1SOL    HW3 1179   0.194   4.531   0.482 -0.8656 -0.5536 -1.0976
    1SOL    MW4 1180   0.242   4.458   0.475  0.3214  0.1159 -0.0250
    1SOL     OW 1181   0.492   4.258   0.852  0.2635 -0.9524 -0.0761
    1SOL    HW2 1182   0.475   4.251   0.946  1.6682 -0.1703  0.2487
    1SOL    HW3 1183   0.424   4.317   0.820 -0.3594 -1.4033  0.4005
    1SOL    MW4 1184   0.481   4.265   0.860  0.3667 -0.9089  0.0296
    1SOL     OW 1185   0.725   4.388   0.791  0.6268  0.0431 -0.1587
    1SOL    HW2 1186   0.797   4.336   0.825  1.2404  1.6055  0.9599
    1SOL    HW3 1187   0.648   4.332   0.802  1.4238 -1.0218  0.0787
    1SOL    MW4 1188   0.724   4.374   0.797  0.8129  0.1087  0.0203
    1SOL     OW 1189   2.432   1.118   0.473  0.4391  0.0989 -0.1849
    1SOL    HW2 1190   2.390   1.032   0.475  0.3954  0.1471  1.6009
    1SOL    HW3 1191   2.525   1.101   0.486  0.3906  0.3461  0.5030
    1SOL    MW4 1192   2.438   1.105   0.475  0.4265  0.1378  0.1415
    1SOL     OW 1193   1.952   1.157   0.884  0.1378 -0.8546 -0.1296
    1SOL    HW2 1194   1.955   1.206   0.803  0.6537 -0.1711  0.2988
    1SOL    HW3 1195   2.040   1.119   0.893  0.0406 -1.0426  0.0401
    1SOL    MW4 1196   1.964   1.158   0.875  0.1930 -0.7892 -0.0507
    1SOL     OW 1197   1.517   0.563   0.547 -0.0374 -0.6110 -0.2616
    1SOL    HW2 1198   1.606   0.579   0.518  0.7495 -2.0624  1.2509
    1SOL    HW3 1199   1.478   0.650   0.554  1.9639  0.2020  1.2040
    1SOL    MW4 1200   1.523   0.576   0.544  0.3303 -0.6952  0.1314
    1SOL     OW 1201   1.137   0.771   0.840  0.4897 -0.0789  0.7465
    1SOL    HW2 1202   1.113   0.768   0.932 -1.1185 -0.3199  0.3308
    1SOL    HW3 1203   1.156   0.679   0.817  2.1090  0.1472  1.1435
    1SOL    MW4 1204   1.137   0.758   0.849  0.4914 -0.0809  0.7439
    1SOL     OW 1205   3.854   0.446   0.760  0.3072 -0.2521 -0.7677
    1SOL    HW2 1206   3.820   0.448   0.671 -2.0171  0.3308  0.0878
    1SOL    HW3 1207   3.848   0.537   0.790  1.2055 -0.4131 -0.0662
    1SOL    MW4 1208   3.849   0.459   0.752  0.1190 -0.1964 -0.5624
    1SOL     OW 1209   2.137   1.112   0.112  0.3384 -0.0717 -0.1964
    1SOL    HW2 1210   2.095   1.191   0.147 -2.4599 -1.8158  0.5263
    1SOL    HW3 1211   2.138   1.125   0.017 -0.6073  0.5976 -0.1174
    1SOL    MW4 1212   2.132   1.124   0.104 -0.1557 -0.2136 -0.0906
    1SOL     OW 1213   1.172   1.248   0.461  0.2802 -0.0997 -0.0324
    1SOL    HW2 1214   1.180   1.155   0.439  0.8218  0.0315 -0.3928
    1SOL    HW3 1215   1.078   1.261   0.473  0.3712 -1.1610  2.0986
    1SOL    MW4 1216   1.161   1.237   0.460  0.3636 -0.2224  0.2013
    1SOL     OW 1217   0.656   0.782   0.867  0.1520 -0.2698 -0.2741
    1SOL    HW2 1218   0.736   0.827   0.840  0.8829 -1.4918 -0.1921
    1SOL    HW3 1219   0.669   0.692   0.838 -1.5036 -0.3301 -0.8938
    1SOL    MW4 1220   0.669   0.776   0.860  0.0300 -0.4389 -0.3451
    1SOL     OW 1221   0.673   1.450   0.834  0.8119 -0.5130  0.0408
    1SOL    HW2 1222   0.758   1.483   0.806  1.7442 -3.0445 -0.2205
    1SOL    HW3 1223   0.674   1.459   0.930  0.8079  0.7044 -0.0624
    1SOL    MW4 1224   0.684   1.455   0.843  0.9344 -0.6864 -0.0073
    1SOL     OW 1225   3.827   2.037   0.737 -0.0337  0.4537  0.0981
    1SOL    HW2 1226   3.825   2.042   0.642  0.3355 -0.5757  0.0316
    1SOL    HW3 1227   3.908   1.990   0.757 -0.1964  0.5135  0.9118
    1SOL    MW4 1228   3.837   2.031   0.727 -0.0064  0.3257  0.1967
    1SOL     OW 1229   1.321   2.409   0.508  0.4485 -0.3845 -0.4407
    1SOL    HW2 1230   1.339   2.320   0.478  2.0893 -0.2416  0.0945
    1SOL    HW3 1231   1.231   2.426   0.479  0.4469 -1.8665 -1.3605
    1SOL    MW4 1232   1.311   2.399   0.500  0.6648 -0.5615 -0.4915
    1SOL     OW 1233   2.933   0.490   0.678  0.3357  0.2289 -0.7314
    1SOL    HW2 1234   2.915   0.572   0.724 -2.3244 -0.9480  0.4077
    1SOL    HW3 1235   2.984   0.438   0.740 -2.2730 -0.9032  0.5557
    1SOL    MW4 1236   2.938   0.494   0.692 -0.3593 -0.0757 -0.4113
    1SOL     OW 1237   3.291   3.903   0.525 -0.5375  0.0117  0.5298
    1SOL    HW2 1238   3.279   3.808   0.523 -0.8665  0.0689 -2.0474
    1SOL    HW3 1239   3.384   3.916   0.505 -0.7046  0.2500 -0.1118
    1SOL    MW4 1240   3.302   3.892   0.522 -0.6030  0.0503  0.1051
    1SOL     OW 1241   0.257   4.379   0.746 -0.3303 -0.6015  0.2677
    1SOL    HW2 1242   0.246   4.402   0.654  0.1692 -1.1066  0.0771
    1SOL    HW3 1243   0.169   4.355   0.775 -1.1256  2.8323  0.8539
    1SOL    MW4 1244   0.244   4.379   0.738 -0.3693 -0.2151  0.3199
    1SOL     OW 1245   1.363   1.718   0.511  0.2706  0.3947  0.3537
    1SOL    HW2 1246   1.366   1.636   0.462  3.2081  0.6314  0.0641
    1SOL    HW3 1247   1.291   1.767   0.471 -0.0199 -1.0902 -0.9935
    1SOL    MW4 1248   1.354   1.714   0.499  0.6200  0.2301  0.1377
    1SOL     OW 1249   0.542   0.127   0.502 -0.1275 -0.1286 -0.8477
    1SOL    HW2 1250   0.497   0.110   0.585 -1.1580 -0.9413 -1.5643
    1SOL    HW3 1251   0.521   0.218   0.482  0.8468  0.3412  0.2168
    1SOL    MW4 1252   0.533   0.137   0.510 -0.1349 -0.1738 -0.8018
    1SOL     OW 1253   0.372   2.198   0.431 -0.4576 -0.1735 -0.2706
    1SOL    HW2 1254   0.340   2.203   0.341 -1.8046  0.8690  0.2351
    1SOL    HW3 1255   0.331   2.119   0.467 -0.3162 -0.3174 -0.4288
    1SOL    MW4 1256   0.362   2.188   0.424 -0.6166 -0.0548 -0.2248
    1SOL     OW 1257   1.151   3.716   0.254 -0.2241 -0.1133  0.4082
    1SOL    HW2 1258   1.190   3.783   0.198  0.4234  0.1213  1.1412
    1SOL    HW3 1259   1.072   3.756   0.289 -1.6949 -0.9403 -1.8855
    1SOL    MW4 1260   1.146   3.730   0.251 -0.3327 -0.1912  0.2022
    1SOL     OW 1261   2.354   1.400   0.404 -0.1426  0.2724  0.5342
    1SOL    HW2 1262   2.356   1.312   0.442 -0.4399  0.2826  0.5719
    1SOL    HW3 1263   2.438   1.408   0.359 -0.6540 -0.5225 -0.5757
    1SOL    MW4 1264   2.365   1.389   0.403 -0.2494  0.1689  0.3927
    1SOL     OW 1265   2.298   4.277   0.419  0.4544 -0.0926  0.3850
    1SOL    HW2 1266   2.383   4.241   0.443  0.1583 -0.9133  0.2309
    1SOL    HW3 1267   2.235   4.210   0.447 -0.1251  0.4568  0.3896
    1SOL    MW4 1268   2.301   4.263   0.426  0.3390 -0.1287  0.3653
    1SOL     OW 1269   3.317   3.635   0.791 -0.0719 -0.2683  0.2413
    1SOL    HW2 1270   3.401   3.595   0.812  0.4170  0.7978  0.3515
    1SOL    HW3 1271   3.252   3.577   0.830  0.6685 -0.3257  1.4146
    1SOL    MW4 1272   3.319   3.622   0.799  0.0904 -0.1349  0.4107
    1SOL     OW 1273   0.515   1.640   0.453  0.5441  0.1535  0.3355
    1SOL    HW2 1274   0.430   1.636   0.410  1.0392  0.8937 -0.7352
    1SOL    HW3 1275   0.495   1.658   0.545 -0.4577  0.0147  0.1516
    1SOL    MW4 1276   0.501   1.642   0.460  0.4772  0.2328  0.1700
    1SOL     OW 1277   1.145   4.392   0.747  0.2907 -0.1561 -0.4748
    1SOL    HW2 1278   1.174   4.401   0.657 -0.2775 -1.7178 -0.8281
    1SOL    HW3 1279   1.126   4.481   0.775 -1.9668  0.1563 -2.7335
    1SOL    MW4 1280   1.146   4.405   0.739 -0.0820 -0.3209 -0.8194
    1SOL     OW 1281   1.790   2.445   0.734  0.1082  0.0095  0.5806
    1SOL    HW2 1282   1.765   2.531   0.766 -1.2778  0.1963 -0.9499
    1SOL    HW3 1283   1.719   2.387   0.761 -0.8997  0.1034 -1.7450
    1SOL    MW4 1284   1.778   2.449   0.742 -0.2075  0.0467  0.0718
    1SOL     OW 1285   1.577   4.643   0.873 -0.5362  0.3421  0.2422
    1SOL    HW2 1286   1.574   4.667   0.966 -0.6699 -0.1404  0.3653
    1SOL    HW3 1287   1.658   4.682   0.840 -0.7211  0.9093  0.4498
    1SOL    MW4 1288   1.587   4.651   0.881 -0.5783  0.3529  0.2857
    1SOL     OW 1289   1.091   4.636   0.838 -0.2108  0.2511 -0.0618
    1SOL    HW2 1290   1.170   4.686   0.817 -0.2108 -0.1561 -1.0403
    1SOL    HW3 1291   1.022   4.680   0.789 -0.4784  0.2025  0.2698
    1SOL    MW4 1292   1.092   4.649   0.829 -0.2462  0.1910 -0.1471
    1SOL     OW 1293   1.372   0.359   0.887  0.2690 -0.0209  0.0417
    1SOL    HW2 1294   1.365   0.336   0.980 -2.3313  0.4614 -0.0067
    1SOL    HW3 1295   1.448   0.418   0.883 -0.6092  1.3060  2.1441
    1SOL    MW4 1296   1.381   0.364   0.899 -0.1898  0.2178  0.3127
    1SOL     OW 1297   1.565   0.527   0.823  0.5726 -0.3692  0.0287
    1SOL    HW2 1298   1.534   0.537   0.733  1.6356 -1.4468 -0.4820
    1SOL    HW3 1299   1.594   0.615   0.848 -0.5936  0.1247 -0.3494
    1SOL    MW4 1300   1.565   0.540   0.814  0.5591 -0.4462 -0.0886
    1SOL     OW 1301   3.173   1.731   0.448 -0.2348  0.2692 -0.4891
    1SOL    HW2 1302   3.113   1.805   0.438  0.2218  0.6069 -0.7718
    1SOL    HW3 1303   3.256   1.764   0.414  0.1196 -0.1752 -0.0568
    1SOL    MW4 1304   3.176   1.745   0.442 -0.1278  0.2551 -0.4694
    1SOL     OW 1305   0.899   0.874   0.753  0.1476 -0.3349 -0.3993
    1SOL    HW2 1306   0.883   0.823   0.673  0.7869 -1.6650  0.2923
    1SOL    HW3 1307   0.982   0.839   0.787 -0.0631  0.2932  0.7898
    1SOL    MW4 1308   0.908   0.862   0.747  0.2042 -0.4275 -0.1512
    1SOL     OW 1309   1.398   1.181   0.869  0.1748 -0.0562  0.3237
    1SOL    HW2 1310   1.365   1.198   0.958 -0.1353  1.2098 -0.0285
    1SOL    HW3 1311   1.329   1.214   0.811 -0.1431 -1.9227 -0.3931
    1SOL    MW4 1312   1.384   1.188   0.873  0.0919 -0.1353  0.1826
    1SOL     OW 1313   3.393   2.043   0.719 -0.3310 -0.3332 -0.4339
    1SOL    HW2 1314   3.408   2.035   0.625 -0.5099  0.4853 -0.5315
    1SOL    HW3 1315   3.454   1.980   0.758  0.1529 -0.2647 -1.0640
    1SOL    MW4 1316   3.403   2.033   0.712 -0.2909 -0.2162 -0.5299
    1SOL     OW 1317   0.149   3.917   0.287 -0.6698  0.0226 -0.1068
    1SOL    HW2 1318   0.234   3.874   0.291 -0.5975 -0.0333 -1.8993
    1SOL    HW3 1319   0.168   4.008   0.310 -0.2876 -0.1724  0.3750
    1SOL    MW4 1320   0.163   3.924   0.291 -0.6098 -0.0105 -0.2797
    1SOL     OW 1321   3.652   1.686   0.456  0.3668  0.1583  0.2656
    1SOL    HW2 1322   3.741   1.715   0.433 -0.1901  0.2624 -1.8754
    1SOL    HW3 1323   3.655   1.591   0.446 -0.0092  0.2484 -0.7582
    1SOL    MW4 1324   3.664   1.678   0.451  0.2439  0.1839 -0.1519
    1SOL     OW 1325   2.098   1.432   0.249 -0.6929  0.0447 -0.3419
    1SOL    HW2 1326   2.110   1.527   0.244 -1.4243  0.3155  2.0814
    1SOL    HW3 1327   2.156   1.404   0.320 -2.9028 -0.7780  1.2385
    1SOL    MW4 1328   2.107   1.441   0.258 -1.0808 -0.0280  0.1864
    1SOL     OW 1329   3.488   2.094   0.441 -0.1695 -0.5115  0.3570
    1SOL    HW2 1330   3.580   2.076   0.457  0.1149 -0.5259 -1.1738
    1SOL    HW3 1331   3.487   2.182   0.403 -0.8396 -0.2827  0.8935
    1SOL    MW4 1332   3.500   2.103   0.438 -0.2205 -0.4833  0.2258
    1SOL     OW 1333   3.570   3.966   0.481  0.3545  0.0981 -0.4503
    1SOL    HW2 1334   3.559   4.057   0.452 -1.6417  0.1952  0.5081
    1SOL    HW3 1335   3.592   3.973   0.573  0.3205 -0.3923 -0.4066
    1SOL    MW4 1336   3.571   3.979   0.489  0.0865  0.0463 -0.3181
    1SOL     OW 1337   1.196   3.623   0.695 -0.0094  0.0261  0.2443
    1SOL    HW2 1338   1.238   3.590   0.775 -0.4067  1.6384  1.1578
    1SOL    HW3 1339   1.110   3.581   0.695  0.1198 -0.2452  0.4890
    1SOL    MW4 1340   1.190   3.613   0.706 -0.0447  0.2031  0.3971
    1SOL     OW 1341   0.908   2.654   0.810  0.8472  0.1705  0.6570
    1SOL    HW2 1342   0.915   2.674   0.904 -1.9843 -0.1964  0.9713
    1SOL    HW3 1343   0.838   2.710   0.779  0.3422 -1.2466 -0.7985
    1SOL    MW4 1344   0.900   2.664   0.819  0.4070 -0.0651  0.5064
    1SOL     OW 1345   1.575   2.854   0.754  0.1642  0.6773 -0.1994
    1SOL    HW2 1346   1.588   2.930   0.810 -1.9105 -0.7498  2.3389
    1SOL    HW3 1347   1.490   2.818   0.781  1.2049 -2.6914 -1.0874
    1SOL    MW4 1348   1.565   2.859   0.765  0.0279  0.0446  0.0184
    1SOL     OW 1349   3.137   4.640   0.547 -0.3382 -0.2927 -0.3115
    1SOL    HW2 1350   3.143   4.653   0.641  0.9517  0.6960 -0.5155
    1SOL    HW3 1351   3.208   4.579   0.527 -0.3946 -0.2387 -0.6806
    1SOL    MW4 1352   3.148   4.634   0.557 -0.1752 -0.1550 -0.3871
    1SOL     OW 1353   4.211   4.221   0.519 -0.5255  0.2928 -0.2695
    1SOL    HW2 1354   4.280   4.156   0.510 -1.5233 -0.8098 -0.0529
    1SOL    HW3 1355   4.252   4.303   0.492  0.6132 -0.4950 -0.9773
    1SOL    MW4 1356   4.226   4.224   0.514 -0.5074  0.0434 -0.3343
    1SOL     OW 1357   1.147   3.890   0.829  0.4977 -0.1154 -0.0405
    1SOL    HW2 1358   1.163   3.807   0.786 -0.6155 -0.9776  1.1474
    1SOL    HW3 1359   1.163   3.872   0.922  0.2725  0.9931  0.2191
    1SOL    MW4 1360   1.151   3.877   0.836  0.3211 -0.0830  0.1504
    1SOL     OW 1361   4.072   4.292   0.896 -0.1370  0.1245 -0.6598
    1SOL    HW2 1362   3.986   4.315   0.860 -0.1727  0.1074 -0.5865
    1SOL    HW3 1363   4.129   4.363   0.868 -0.1718  0.1274 -0.7236
    1SOL    MW4 1364   4.068   4.304   0.888 -0.1459  0.1230 -0.6585
    1SOL     OW 1365   2.242   3.216   0.781 -0.0007 -0.0020 -0.2139
    1SOL    HW2 1366   2.165   3.159   0.784 -0.2280  0.2891 -0.4453
    1SOL    HW3 1367   2.310   3.167   0.827 -0.7810  0.4232  1.4104
    1SOL    MW4 1368   2.241   3.202   0.787 -0.1335  0.0923 -0.0302
    1SOL     OW 1369   2.216   1.661   0.743  0.1407 -0.0868  0.7095
    1SOL    HW2 1370   2.294   1.613   0.770  1.1249  0.2218 -1.4433
    1SOL    HW3 1371   2.232   1.751   0.772  0.9030  0.1102 -0.2770
    1SOL    MW4 1372   2.229   1.667   0.750  0.3712 -0.0200  0.2953
    1SOL     OW 1373   2.059   4.373   0.730  0.0400  0.1111  0.5501
    1SOL    HW2 1374   2.055   4.388   0.635  0.3110  0.5926  0.6101
    1SOL    HW3 1375   1.975   4.334   0.751 -0.4626  1.0206  0.2780
    1SOL    MW4 1376   2.047   4.370   0.720  0.0095  0.2942  0.5221
    1SOL     OW 1377   2.136   4.058   0.539  0.2220  0.3453  0.1815
    1SOL    HW2 1378   2.076   4.133   0.535  0.2088  0.2900 -1.0879
    1SOL    HW3 1379   2.107   4.001   0.467 -0.1133 -1.1478  1.4632
    1SOL    MW4 1380   2.124   4.060   0.529  0.1762  0.1411  0.1831
    1SOL     OW 1381   2.463   0.005   0.782 -0.3762  0.1276 -0.2978
    1SOL    HW2 1382   2.495   0.031   0.869  0.9741  0.2158 -0.8030
    1SOL    HW3 1383   2.480  -0.090   0.778  0.0832  0.2199 -0.6634
    1SOL    MW4 1384   2.470  -0.004   0.793 -0.1376  0.1516 -0.4127
    1SOL     OW 1385   1.852   3.271   0.565  0.0551 -0.0515  0.4817
    1SOL    HW2 1386   1.927   3.332   0.566  0.0656 -0.0578  2.5372
    1SOL    HW3 1387   1.892   3.185   0.555  0.1417  0.1315 -0.8879
    1SOL    MW4 1388   1.867   3.268   0.564  0.0678 -0.0279  0.5721
    1SOL     OW 1389   1.797   0.378   0.842 -0.6175 -0.3613 -0.0813
    1SOL    HW2 1390   1.711   0.418   0.840 -0.5693 -0.2433  0.2908
    1SOL    HW3 1391   1.782   0.287   0.815 -0.8822 -0.3889  0.1605
    1SOL    MW4 1392   1.784   0.371   0.838 -0.6461 -0.3494 -0.0004
    1SOL     OW 1393   3.369   4.493   0.498 -0.6818  0.5776 -0.2573
    1SOL    HW2 1394   3.414   4.469   0.579  0.2192 -1.8507 -1.4388
    1SOL    HW3 1395   3.426   4.559   0.458  0.4258 -0.4260 -0.3729
    1SOL    MW4 1396   3.382   4.499   0.504 -0.4168  0.1249 -0.4284
    1SOL     OW 1397   3.256   4.233   0.489  0.1530 -0.1996  0.4115
    1SOL    HW2 1398   3.272   4.328   0.491  1.3155 -0.3659 -0.4859
    1SOL    HW3 1399   3.339   4.195   0.459 -0.6231 -1.4172 -0.2460
    1SOL    MW4 1400   3.269   4.241   0.485  0.2038 -0.3819  0.2064
    1SOL     OW 1401   1.567   3.118   0.891  0.2930 -0.0795  0.0031
    1SOL    HW2 1402   1.581   3.108   0.985 -0.2593 -2.5480 -0.1357
    1SOL    HW3 1403   1.483   3.164   0.885  0.0680 -0.3787  0.7261
    1SOL    MW4 1404   1.558   3.123   0.903  0.1905 -0.4449  0.0802
    1SOL     OW 1405   3.264   3.610   0.512  0.4284  0.2713 -0.0191
    1SOL    HW2 1406   3.170   3.620   0.497  0.3512 -0.7124 -0.2178
    1SOL    HW3 1407   3.274   3.611   0.607  0.2847  0.9063 -0.0070
    1SOL    MW4 1408   3.253   3.612   0.522  0.3994  0.2253 -0.0437
    1SOL     OW 1409   1.630   3.170   0.196  0.0800  0.1101 -0.2308
    1SOL    HW2 1410   1.642   3.237   0.263  0.4356  0.5068 -0.6973
    1SOL    HW3 1411   1.607   3.218   0.117 -0.9607 -0.3946 -0.2562
    1SOL    MW4 1412   1.628   3.185   0.195 -0.0104  0.0958 -0.2957
    1SOL     OW 1413   2.466   1.531   0.798  0.0246 -0.2789 -0.2712
    1SOL    HW2 1414   2.466   1.438   0.775  1.2124 -0.4478  0.3967
    1SOL    HW3 1415   2.548   1.565   0.763 -0.8581  0.7634 -1.4143
    1SOL    MW4 1416   2.477   1.524   0.790  0.0646 -0.1637 -0.3338
    1SOL     OW 1417   4.062   4.027   0.819  0.7610 -0.0799  0.1646
    1SOL    HW2 1418   4.029   4.032   0.729 -0.9492 -1.2007  0.7053
    1SOL    HW3 1419   4.073   4.119   0.846 -1.5151  0.3362 -0.2054
    1SOL    MW4 1420   4.059   4.040   0.811  0.2356 -0.1726  0.1872
    1SOL     OW 1421   1.471   2.615   0.379 -0.0093 -0.2885  0.1134
    1SOL    HW2 1422   1.458   2.533   0.427  0.2050  0.0836  0.8055
    1SOL    HW3 1423   1.548   2.598   0.324  0.1055 -0.5055  0.3407
    1SOL    MW4 1424   1.479   2.602   0.378  0.0341 -0.2682  0.2347
    1SOL     OW 1425   3.903   1.810   0.356  0.0078  0.1650 -0.1513
    1SOL    HW2 1426   3.929   1.818   0.264  0.1793 -0.5856 -0.1772
    1SOL    HW3 1427   3.984   1.788   0.402  0.2492  2.1846  0.4409
    1SOL    MW4 1428   3.917   1.808   0.350  0.0620  0.3326 -0.0765
    1SOL     OW 1429   1.570   2.063   0.280  0.1274 -0.2923 -0.1177
    1SOL    HW2 1430   1.623   2.128   0.325 -0.4344  0.0701  0.0124
    1SOL    HW3 1431   1.598   1.979   0.317  1.7335 -0.2421 -1.1621
    1SOL    MW4 1432   1.581   2.060   0.291  0.2652 -0.2379 -0.2383
    1SOL     OW 1433   3.591   1.129   0.822  0.2172 -0.3158 -0.1202
    1SOL    HW2 1434   3.584   1.037   0.798 -0.0403 -0.1025 -0.9005
    1SOL    HW3 1435   3.590   1.129   0.917 -0.4727 -1.0747 -0.1160
    1SOL    MW4 1436   3.590   1.117   0.831  0.0923 -0.3878 -0.2226
    1SOL     OW 1437   1.210   4.395   0.446 -0.6603 -0.0273  0.4750
    1SOL    HW2 1438   1.136   4.449   0.416 -0.9102 -1.1659 -1.0297
    1SOL    HW3 1439   1.190   4.307   0.414  0.7166 -0.6110  1.1858
    1SOL    MW4 1440   1.198   4.391   0.438 -0.5116 -0.2546  0.3703
    1SOL     OW 1441   1.085   2.104   0.780  0.0110  0.3853  0.0183
    1SOL    HW2 1442   1.022   2.046   0.823 -0.1794  1.3649  1.1153
    1SOL    HW3 1443   1.171   2.070   0.805 -0.0868  1.7777  2.4140
    1SOL    MW4 1444   1.088   2.092   0.789 -0.0272  0.6983  0.4792
    1SOL     OW 1445   3.382   0.533   0.449  0.2688 -0.4618 -0.1405
    1SOL    HW2 1446   3.425   0.463   0.400  1.0592  0.3460 -0.6070
    1SOL    HW3 1447   3.290   0.529   0.421  0.5518 -0.5213 -1.0737
    1SOL    MW4 1448   3.375   0.523   0.439  0.4101 -0.3631 -0.3252
    1SOL     OW 1449   2.943   2.849   0.508 -0.0265  0.1193  0.2006
    1SOL    HW2 1450   2.860   2.836   0.462 -0.0236  0.6162  0.0490
    1SOL    HW3 1451   2.997   2.775   0.481 -0.9411 -1.0233  1.5012
    1SOL    MW4 1452   2.939   2.838   0.498 -0.1469  0.0343  0.3522
    1SOL     OW 1453   1.784   3.549   0.905 -0.0204  0.1099 -0.0300
    1SOL    HW2 1454   1.800   3.563   0.999 -0.4954  0.5778 -0.0210
    1SOL    HW3 1455   1.798   3.455   0.893 -1.6251 -0.2560  0.8350
    1SOL    MW4 1456   1.788   3.538   0.916 -0.2947  0.1233  0.0853
    1SOL     OW 1457   0.390   2.695   0.497  0.2542  0.6736  0.4366
    1SOL    HW2 1458   0.315   2.679   0.440  0.6901  2.0737 -0.5355
    1SOL    HW3 1459   0.357   2.751   0.566  0.0122 -0.0758  0.9404
    1SOL    MW4 1460   0.376   2.700   0.499  0.2798  0.7598  0.3748
    1SOL     OW 1461   2.597   1.276   0.122  0.4727 -0.3257  0.1751
    1SOL    HW2 1462   2.646   1.251   0.044 -0.4102  1.6081 -1.0534
    1SOL    HW3 1463   2.543   1.200   0.142 -0.6450 -0.2049 -2.2262
    1SOL    MW4 1464   2.596   1.263   0.115  0.2086 -0.0546 -0.3038
    1SOL     OW 1465   0.940   0.398   0.887 -0.2490 -0.2444 -0.5235
    1SOL    HW2 1466   0.905   0.318   0.847 -0.2957 -1.0725  1.1578
    1SOL    HW3 1467   0.938   0.381   0.981 -1.0853  2.0956 -0.0963
    1SOL    MW4 1468   0.935   0.385   0.894 -0.3655 -0.0449 -0.2453
    1SOL     OW 1469   4.377   3.831   0.333  0.0351 -0.3083 -0.5220
    1SOL    HW2 1470   4.407   3.748   0.371  1.5757  0.5287  0.1290
    1SOL    HW3 1471   4.455   3.867   0.290 -0.1776  1.6624  0.7208
    1SOL    MW4 1472   4.391   3.825   0.332  0.2103  0.0620 -0.2722
    1SOL     OW 1473   1.977   0.254   0.379  0.1327 -0.3626  0.5180
    1SOL    HW2 1474   1.913   0.205   0.431  0.4152 -2.5832 -1.1255
    1SOL    HW3 1475   2.052   0.195   0.371  0.6723  0.5039 -1.1375
    1SOL    MW4 1476   1.978   0.240   0.385  0.2412 -0.5413  0.0827
    1SOL     OW 1477   0.239   1.539   0.382  0.0045 -0.1062 -0.1352
    1SOL    HW2 1478   0.200   1.517   0.297 -0.2094 -0.5607  0.0773
    1SOL    HW3 1479   0.183   1.608   0.417  0.6005  0.7079 -0.7477
    1SOL    MW4 1480   0.227   1.545   0.375  0.0549 -0.0589 -0.1880
    1SOL     OW 1481   2.277   0.371   1.153 -0.1054 -0.1257  0.4827
    1SOL    HW2 1482   2.260   0.365   1.060 -0.4167  0.1251  0.5245
    1SOL    HW3 1483   2.203   0.420   1.189 -1.2949 -2.4266  1.2410
    1SOL    MW4 1484   2.265   0.377   1.146 -0.3035 -0.3962  0.5883
    1SOL     OW 1485   4.325   0.519   0.749  0.2568 -0.2250 -0.7027
    1SOL    HW2 1486   4.325   0.554   0.660  0.9781  0.0917 -0.5838
    1SOL    HW3 1487   4.404   0.466   0.754  0.8890  0.7626  0.1293
    1SOL    MW4 1488   4.336   0.517   0.738  0.4354 -0.0529 -0.5773
    1SOL     OW 1489   2.369   0.660   0.284  0.3610  0.0060  0.5301
    1SOL    HW2 1490   2.391   0.584   0.229  1.5226  0.3891  0.4508
    1SOL    HW3 1491   2.409   0.640   0.369  1.3900  0.8851  0.2684
    1SOL    MW4 1492   2.378   0.647   0.288  0.6504  0.1725  0.4851
    1SOL     OW 1493   2.665   1.423   0.359  0.0979  0.5588 -0.3628
    1SOL    HW2 1494   2.648   1.370   0.281 -0.9850 -1.0974  0.9596
    1SOL    HW3 1495   2.749   1.392   0.392  0.1583  0.6677 -0.4179
    1SOL    MW4 1496   2.674   1.412   0.353 -0.0370  0.3548 -0.1957
    1SOL     OW 1497   2.468   1.254   0.728  0.2709  0.0834  0.5931
    1SOL    HW2 1498   2.463   1.205   0.646 -0.0823  1.0900  0.0106
    1SOL    HW3 1499   2.399   1.215   0.783 -2.7023  2.4804 -1.2645
    1SOL    MW4 1500   2.458   1.242   0.724 -0.1681  0.5324  0.2711
    1SOL     OW 1501   2.274   1.107   0.871 -0.0805 -0.5989 -0.0581
    1SOL    HW2 1502   2.268   1.013   0.855 -1.1465 -0.4789 -0.3548
    1SOL    HW3 1503   2.265   1.116   0.966 -0.4008 -0.7542 -0.0767
    1SOL    MW4 1504   2.272   1.096   0.882 -0.2635 -0.6036 -0.0997
    1SOL     OW 1505   1.605   1.609   0.829 -0.5210 -0.1954 -0.0203
    1SOL    HW2 1506   1.621   1.605   0.924  0.0839  0.5285 -0.0826
    1SOL    HW3 1507   1.606   1.518   0.801  0.1846 -0.3644  0.5317
    1SOL    MW4 1508   1.607   1.596   0.838 -0.3481 -0.1222  0.0442
    1SOL     OW 1509   3.122   0.865   0.751 -0.1587  0.7344 -0.3783
    1SOL    HW2 1510   3.197   0.822   0.791  0.0219  0.1646 -1.3120
    1SOL    HW3 1511   3.131   0.958   0.775  0.2380  0.4888  0.4261
    1SOL    MW4 1512   3.133   0.872   0.759 -0.0825  0.6269 -0.3954
    1SOL     OW 1513   1.093   0.569   0.235 -0.0017 -0.1814  0.4406
    1SOL    HW2 1514   1.175   0.523   0.250  0.1057 -0.4030 -0.7633
    1SOL    HW3 1515   1.025   0.510   0.268  0.1920 -0.8238 -0.3138
    1SOL    MW4 1516   1.095   0.555   0.241  0.0379 -0.2954  0.1822
    1SOL     OW 1517   2.240   1.942   0.843 -0.4366 -0.0111  0.1678
    1SOL    HW2 1518   2.164   1.994   0.816 -0.9346 -1.9698 -2.3494
    1SOL    HW3 1519   2.309   1.964   0.781  0.2690 -0.1600  0.8834
    1SOL    MW4 1520   2.239   1.952   0.832 -0.4089 -0.2892 -0.0700
    1SOL     OW 1521   2.110   3.688   0.495  0.2838  0.7703 -0.5087
    1SOL    HW2 1522   2.077   3.693   0.584  1.5930 -2.4160  0.2215
    1SOL    HW3 1523   2.204   3.671   0.505  0.1946 -1.1725 -2.4319
    1SOL    MW4 1524   2.118   3.686   0.508  0.4451  0.0937 -0.6661
    1SOL     OW 1525   3.477   2.812   0.487 -0.4235 -0.0093  0.0520
    1SOL    HW2 1526   3.453   2.825   0.579 -1.5386 -0.9748 -0.1003
    1SOL    HW3 1527   3.435   2.730   0.462  0.4894 -0.1337 -1.1137
    1SOL    MW4 1528   3.468   2.803   0.496 -0.4501 -0.1531 -0.1220
    1SOL     OW 1529   2.278   2.534   0.761 -0.1142 -0.3027  0.0042
    1SOL    HW2 1530   2.202   2.491   0.802  0.0651  0.6189  1.3083
    1SOL    HW3 1531   2.268   2.626   0.783  0.8012 -0.0103 -0.7845
    1SOL    MW4 1532   2.266   2.540   0.769  0.0300 -0.1423  0.0722
    1SOL     OW 1533   2.284   2.820   0.821  0.0930 -0.2637 -0.6321
    1SOL    HW2 1534   2.292   2.779   0.907 -0.3713  2.0162  0.5268
    1SOL    HW3 1535   2.347   2.893   0.823 -1.0380  0.7609 -1.6487
    1SOL    MW4 1536   2.294   2.824   0.832 -0.1173  0.1719 -0.6133
    1SOL     OW 1537   1.393   4.246   0.141 -0.4918  0.2804 -0.7101
    1SOL    HW2 1538   1.435   4.284   0.064 -1.3981  1.9003 -0.4233
    1SOL    HW3 1539   1.411   4.308   0.211  0.2009 -1.1156  0.3618
    1SOL    MW4 1540   1.401   4.259   0.140 -0.5200  0.3099 -0.5309
    1SOL     OW 1541   1.816   4.279   0.841  0.4884  0.1172  0.1383
    1SOL    HW2 1542   1.810   4.287   0.936 -1.2327  0.4559  0.0277
    1SOL    HW3 1543   1.800   4.186   0.824  2.9032 -0.3479  0.3008
    1SOL    MW4 1544   1.813   4.268   0.851  0.5801  0.1006  0.1451
    1SOL     OW 1545   2.349   3.250   0.522  0.2088 -0.4654  0.3914
    1SOL    HW2 1546   2.329   3.237   0.615  1.6914 -2.2469  0.4934
    1SOL    HW3 1547   2.296   3.184   0.477  0.2544 -0.2716  0.0553
    1SOL    MW4 1548   2.339   3.239   0.529  0.4103 -0.6750  0.3605
    1SOL     OW 1549   3.051   2.633   0.414 -0.3118 -0.1087 -0.0656
    1SOL    HW2 1550   3.013   2.545   0.416 -1.3988  0.3627  0.3298
    1SOL    HW3 1551   3.145   2.618   0.420 -0.4249 -1.2924 -1.0576
    1SOL    MW4 1552   3.058   2.620   0.415 -0.4702 -0.2027 -0.1444
    1SOL     OW 1553   1.586   3.624   0.508  0.4629  0.1147  0.4923
    1SOL    HW2 1554   1.492   3.616   0.492  0.3459  1.0483  0.6972
    1SOL    HW3 1555   1.604   3.717   0.495  1.2521  0.0353  1.0442
    1SOL    MW4 1556   1.576   3.636   0.504  0.5516  0.2277  0.5922
    1SOL     OW 1557   1.763   4.025   0.750  0.2961 -0.0375  0.0412
    1SOL    HW2 1558   1.844   3.987   0.784  0.2499  1.5652  2.0404
    1SOL    HW3 1559   1.693   3.980   0.797  0.1318  0.3917  0.2147
    1SOL    MW4 1560   1.764   4.014   0.761  0.2683  0.2303  0.3278
    1SOL     OW 1561   3.098   4.004   0.799  0.2578 -0.0693 -0.1970
    1SOL    HW2 1562   3.023   3.956   0.835  0.9536 -0.7392  0.3661
    1SOL    HW3 1563   3.174   3.950   0.821  1.0586  1.3129  0.4898
    1SOL    MW4 1564   3.098   3.991   0.807  0.4554  0.0248 -0.0320
    1SOL     OW 1565   2.211   2.126   0.345  0.2749  0.2774  0.3589
    1SOL    HW2 1566   2.281   2.191   0.349 -0.1140  0.6390  1.2917
    1SOL    HW3 1567   2.244   2.060   0.285 -0.0204  2.1534 -1.9407
    1SOL    MW4 1568   2.225   2.126   0.338  0.1848  0.5727  0.1785
    1SOL     OW 1569   2.332   0.851   0.533 -0.2904  0.6078 -0.6042
    1SOL    HW2 1570   2.270   0.798   0.484 -0.6919  0.3388  0.1851
    1SOL    HW3 1571   2.408   0.794   0.545 -0.0646  0.7846 -1.1871
    1SOL    MW4 1572   2.334   0.836   0.528 -0.3133  0.5957 -0.5769
    1SOL     OW 1573   2.916   0.699   0.849 -0.8191  0.1038  0.2188
    1SOL    HW2 1574   2.925   0.699   0.944  1.9352 -0.9148  0.0350
    1SOL    HW3 1575   2.990   0.752   0.818 -0.6155 -1.0567 -1.3764
    1SOL    MW4 1576   2.927   0.706   0.857 -0.4287 -0.1837 -0.0159
    1SOL     OW 1577   2.946   3.859   0.498 -0.3920 -0.3247  0.1682
    1SOL    HW2 1578   2.941   3.765   0.482 -0.7221 -0.2737 -0.0419
    1SOL    HW3 1579   2.855   3.890   0.487 -0.2537  0.0465  0.0482
    1SOL    MW4 1580   2.933   3.851   0.495 -0.4172 -0.2692  0.1247
    1SOL     OW 1581   2.528   0.711   0.864 -0.5139  0.0195 -0.2659
    1SOL    HW2 1582   2.609   0.739   0.820  0.0957 -2.1727 -0.6146
    1SOL    HW3 1583   2.510   0.624   0.828 -1.0826 -1.0099  2.3814
    1SOL    MW4 1584   2.537   0.703   0.854 -0.5085 -0.4055  0.0373
    1SOL     OW 1585   2.024   0.987   0.358 -0.4456 -0.1608 -0.2330
    1SOL    HW2 1586   2.064   0.900   0.367 -0.4422 -0.3959 -2.3055
    1SOL    HW3 1587   2.055   1.018   0.273  0.3430  2.2956  0.8971
    1SOL    MW4 1588   2.034   0.979   0.348 -0.3412  0.1323 -0.3573
    1SOL     OW 1589   3.139   0.831   0.472 -0.0805  0.3418  0.2031
    1SOL    HW2 1590   3.089   0.904   0.436 -2.3433 -1.1596  0.1686
    1SOL    HW3 1591   3.134   0.842   0.567  2.4019  2.0290  0.1750
    1SOL    MW4 1592   3.131   0.842   0.480 -0.0515  0.3663  0.1948
    1SOL     OW 1593   1.040   2.814   0.482 -0.0396 -0.0309  0.0354
    1SOL    HW2 1594   0.996   2.899   0.477  0.0967 -0.0188 -1.1452
    1SOL    HW3 1595   1.110   2.819   0.417 -0.5430 -1.3290 -0.6308
    1SOL    MW4 1596   1.043   2.826   0.472 -0.0881 -0.2007 -0.2083
    1SOL     OW 1597   3.339   2.574   0.466 -0.3929 -0.0741  0.0060
    1SOL    HW2 1598   3.293   2.539   0.542  0.0221  0.4986  0.5335
    1SOL    HW3 1599   3.384   2.499   0.428 -1.7406 -0.6466 -0.5181
    1SOL    MW4 1600   3.339   2.560   0.471 -0.5159 -0.0739  0.0065
    1SOL     OW 1601   2.705   1.648   0.695  0.0634 -0.3128 -0.0708
    1SOL    HW2 1602   2.726   1.667   0.604  0.1962  0.3194  0.0866
    1SOL    HW3 1603   2.703   1.734   0.737  0.7901 -0.6647  0.6896
    1SOL    MW4 1604   2.708   1.662   0.688  0.1769 -0.2759  0.0503
    1SOL     OW 1605   3.163   1.700   0.722 -0.3950 -0.0476  0.2327
    1SOL    HW2 1606   3.164   1.700   0.626 -0.2701 -0.6896  0.2381
    1SOL    HW3 1607   3.174   1.793   0.745 -0.4331  0.1115 -0.3703
    1SOL    MW4 1608   3.164   1.712   0.713 -0.3834 -0.1113  0.1538
    1SOL     OW 1609   0.007   0.283   0.535  0.0165 -0.1520  0.1806
    1SOL    HW2 1610  -0.085   0.299   0.511 -0.2351 -0.8158  0.6994
    1SOL    HW3 1611   0.007   0.282   0.630  0.3445 -1.4307  0.1674
    1SOL    MW4 1612  -0.005   0.285   0.544  0.0267 -0.4083  0.2474
    1SOL     OW 1613   1.985   3.020   0.532  0.5484 -0.0177  0.0396
    1SOL    HW2 1614   2.073   3.010   0.495 -0.0900 -1.5814 -1.0843
    1SOL    HW3 1615   1.926   2.986   0.465 -0.7302 -1.4033  1.8160
    1SOL    MW4 1616   1.989   3.014   0.519  0.2955 -0.4070  0.1258
    1SOL     OW 1617   2.709   1.130   0.821  0.1823 -0.1876 -0.5401
    1SOL    HW2 1618   2.775   1.186   0.779 -0.4697  1.2339  0.3039
    1SOL    HW3 1619   2.626   1.175   0.807 -0.5236 -1.5700 -0.9063
    1SOL    MW4 1620   2.707   1.143   0.814  0.0031 -0.1825 -0.4771
    1SOL     OW 1621   2.933   2.313   0.677 -0.0508  0.8084 -0.0752
    1SOL    HW2 1622   2.893   2.332   0.762 -0.9572  0.1867 -0.3579
    1SOL    HW3 1623   2.951   2.219   0.680  1.4200  1.0764  0.0561
    1SOL    MW4 1624   2.930   2.303   0.689  0.0236  0.7617 -0.0952
    1SOL     OW 1625   2.735   2.378   0.897 -0.5884 -0.1296 -0.1169
    1SOL    HW2 1626   2.785   2.364   0.978  0.3279 -3.2863 -1.1412
    1SOL    HW3 1627   2.731   2.473   0.887  2.4202  0.2544  1.7334
    1SOL    MW4 1628   2.741   2.389   0.906 -0.0706 -0.4952 -0.0080
    1SOL     OW 1629   2.716   2.646   0.884 -0.0226 -0.1028  0.2454
    1SOL    HW2 1630   2.786   2.704   0.855 -1.6150  1.3694 -0.7561
    1SOL    HW3 1631   2.707   2.664   0.977 -0.0385  0.7409  0.0820
    1SOL    MW4 1632   2.724   2.656   0.892 -0.2348  0.2027  0.0917
    1SOL     OW 1633   1.176   1.298   0.734  0.0421  0.2835  0.4636
    1SOL    HW2 1634   1.088   1.265   0.751 -0.4402  0.5491 -1.4473
    1SOL    HW3 1635   1.194   1.275   0.643  1.8746  0.4280  0.7557
    1SOL    MW4 1636   1.167   1.291   0.724  0.2203  0.3376  0.2500
    1SOL     OW 1637   1.592   1.255   0.460 -0.0751  0.3358  0.1215
    1SOL    HW2 1638   1.567   1.163   0.451 -0.2700  0.1421  2.3948
    1SOL    HW3 1639   1.684   1.258   0.434 -0.0344 -0.5195  0.1645
    1SOL    MW4 1640   1.601   1.244   0.456 -0.0956  0.1974  0.4270
    1SOL     OW 1641   2.435   3.050   0.903 -0.4522  0.4301  0.0163
    1SOL    HW2 1642   2.509   3.086   0.854 -0.2459  1.0281  0.7589
    1SOL    HW3 1643   2.462   3.056   0.995 -0.9661 -0.3869  0.2195
    1SOL    MW4 1644   2.449   3.056   0.909 -0.4928  0.4013  0.1410
    1SOL     OW 1645   2.676   3.438   0.852  0.9496  0.0460  0.1356
    1SOL    HW2 1646   2.742   3.494   0.810  1.2377  0.4218  1.0847
    1SOL    HW3 1647   2.694   3.445   0.945 -0.7026  0.4802  0.4355
    1SOL    MW4 1648   2.687   3.446   0.859  0.7699  0.1528  0.3004
    1SOL     OW 1649   2.886   3.616   0.756 -0.2937 -0.0225 -0.1415
    1SOL    HW2 1650   2.956   3.561   0.791  1.3925  0.7554 -2.1818
    1SOL    HW3 1651   2.902   3.702   0.795 -0.4617  0.0240 -0.1753
    1SOL    MW4 1652   2.897   3.620   0.766 -0.0935  0.0861 -0.4151
    1SOL     OW 1653   1.961   2.749   0.227  0.2679  0.1858  0.4133
    1SOL    HW2 1654   1.904   2.809   0.275  0.4014  1.0717 -0.4906
    1SOL    HW3 1655   1.901   2.689   0.183  0.0447  0.7379 -0.0490
    1SOL    MW4 1656   1.945   2.749   0.227  0.2562  0.3755  0.2331
    1SOL     OW 1657   1.036   4.608   0.380 -0.2587  0.6218 -0.1619
    1SOL    HW2 1658   1.108   4.650   0.427 -0.2124 -0.4142  0.7157
    1SOL    HW3 1659   0.958   4.653   0.412 -0.2216 -0.0476  0.8981
    1SOL    MW4 1660   1.035   4.619   0.391 -0.2477  0.3963  0.0938
    1SOL     OW 1661   2.647   3.982   0.780  0.0066  0.1991  0.0073
    1SOL    HW2 1662   2.666   4.071   0.812  0.1588  0.4132 -0.6686
    1SOL    HW3 1663   2.569   3.956   0.827  0.2919  0.4699  0.6400
    1SOL    MW4 1664   2.639   3.990   0.790  0.0641  0.2630  0.0016
    1SOL     OW 1665   2.920   1.301   0.720  0.3297 -0.2552  0.1279
    1SOL    HW2 1666   2.935   1.385   0.762  0.5091  0.3356 -1.0877
    1SOL    HW3 1667   2.994   1.247   0.748  0.8049  0.3411  0.0437
    1SOL    MW4 1668   2.932   1.305   0.729  0.4163 -0.0987 -0.0436
    1SOL     OW 1669   2.037   0.512   0.768 -0.1284  0.1382 -0.0687
    1SOL    HW2 1670   1.956   0.468   0.794  0.0915 -0.1530  0.1166
    1SOL    HW3 1671   2.032   0.598   0.811  0.3359 -0.4188  1.1259
    1SOL    MW4 1672   2.026   0.518   0.777 -0.0381  0.0262  0.1134
    1SOL     OW 1673   2.670   0.452   0.366  0.1858 -0.2351  0.0354
    1SOL    HW2 1674   2.746   0.484   0.317 -0.2695  0.9242  0.0606
    1SOL    HW3 1675   2.692   0.362   0.388  1.7211  0.1992  0.3826
    1SOL    MW4 1676   2.683   0.444   0.362  0.3283 -0.0249  0.0845
    1SOL     OW 1677   1.087   2.090   0.497 -0.5280 -0.1247  0.2318
    1SOL    HW2 1678   1.177   2.116   0.482 -0.1811 -0.6481  1.3117
    1SOL    HW3 1679   1.083   2.071   0.591 -1.2044 -2.1473 -0.1790
    1SOL    MW4 1680   1.098   2.091   0.507 -0.5715 -0.4609  0.3201
    1SOL     OW 1681   3.116   0.346   0.839 -0.0146 -0.0665 -0.4359
    1SOL    HW2 1682   3.143   0.356   0.930 -0.0979  0.2095 -0.4396
    1SOL    HW3 1683   3.189   0.382   0.788  0.8554 -1.9628 -0.5455
    1SOL    MW4 1684   3.129   0.352   0.844  0.0892 -0.2802 -0.4509
    1SOL     OW 1685   2.588   2.080   0.483 -0.1638  0.4990 -0.0720
    1SOL    HW2 1686   2.665   2.087   0.426 -1.4941 -0.7028 -2.0852
    1SOL    HW3 1687   2.542   2.003   0.452 -2.9901  2.0506  0.0743
    1SOL    MW4 1688   2.592   2.071   0.471 -0.7122  0.5453 -0.3184
    1SOL     OW 1689   2.454   0.464   0.752  0.4148 -0.2636 -0.1109
    1SOL    HW2 1690   2.394   0.407   0.800  0.3145 -0.8850 -0.9548
    1SOL    HW3 1691   2.539   0.421   0.756  0.5945  0.1128  0.2272
    1SOL    MW4 1692   2.457   0.451   0.759  0.4251 -0.2960 -0.1776
    1SOL     OW 1693   3.836   4.372   0.773 -0.0865 -0.7241  0.6972
    1SOL    HW2 1694   3.750   4.338   0.797 -1.6367  1.8007 -0.9429
    1SOL    HW3 1695   3.849   4.343   0.683 -1.3268  2.5700 -0.6452
    1SOL    MW4 1696   3.827   4.364   0.764 -0.4549  0.0434  0.3037
    1SOL     OW 1697   3.385   1.544   0.794 -0.1275 -0.3843 -0.2365
    1SOL    HW2 1698   3.318   1.606   0.767 -0.6477 -0.2016  1.3708
    1SOL    HW3 1699   3.391   1.556   0.889  0.5716 -1.9867 -0.0593
    1SOL    MW4 1700   3.377   1.554   0.803 -0.1037 -0.5717 -0.0011
    1SOL     OW 1701   2.284   0.833   0.805 -0.5019  0.7503 -0.6281
    1SOL    HW2 1702   2.288   0.846   0.711  0.7792  1.7151 -0.4522
    1SOL    HW3 1703   2.370   0.797   0.828 -1.1719 -0.4661  0.0329
    1SOL    MW4 1704   2.296   0.830   0.796 -0.4213  0.7171 -0.5177
    1SOL     OW 1705   3.581   0.853   0.744 -0.2576 -0.1098  0.2299
    1SOL    HW2 1706   3.560   0.812   0.660  0.7089  1.4457 -0.8109
    1SOL    HW3 1707   3.655   0.803   0.778  1.1722  0.9540 -1.2183
    1SOL    MW4 1708   3.588   0.841   0.737  0.0587  0.2358 -0.0985
    1SOL     OW 1709   3.504   2.366   0.357  0.1030 -0.0667  0.4110
    1SOL    HW2 1710   3.586   2.402   0.389  0.7894 -0.2618 -1.1118
    1SOL    HW3 1711   3.525   2.329   0.271 -1.3988 -0.7996  0.3322
    1SOL    MW4 1712   3.517   2.366   0.350 -0.0043 -0.1893  0.1997
    1SOL     OW 1713   1.545   3.909   0.863  0.2281 -0.3841  0.4202
    1SOL    HW2 1714   1.466   3.948   0.826 -0.6109 -0.2390  2.2700
    1SOL    HW3 1715   1.543   3.818   0.836  0.5085  0.0967 -1.2475
    1SOL    MW4 1716   1.534   3.902   0.855  0.1544 -0.3016  0.4442
    1SOL     OW 1717   3.797   0.194   0.484 -0.1900  0.0786 -0.2241
    1SOL    HW2 1718   3.778   0.287   0.485  2.2951  0.6449 -0.6711
    1SOL    HW3 1719   3.714   0.152   0.465 -1.5713  2.1248  1.0878
    1SOL    MW4 1720   3.784   0.200   0.482 -0.0443  0.4233 -0.1100
    1SOL     OW 1721   3.754   2.821   0.518  0.0520 -0.0924  0.3879
    1SOL    HW2 1722   3.785   2.911   0.506 -0.5939 -0.1558 -1.9615
    1SOL    HW3 1723   3.660   2.825   0.497 -0.5161 -0.8637  2.6071
    1SOL    MW4 1724   3.745   2.833   0.513 -0.1082 -0.2024  0.3707
    1SOL     OW 1725   2.945   2.846   0.788 -0.3116 -0.0414 -0.1283
    1SOL    HW2 1726   3.021   2.790   0.803 -0.4084 -0.0531  0.3317
    1SOL    HW3 1727   2.931   2.844   0.693  0.6453  0.4673 -0.2867
    1SOL    MW4 1728   2.953   2.838   0.777 -0.1984  0.0246 -0.0885
    1SOL     OW 1729   1.853   1.681   0.747  0.0313  0.0892  0.0584
    1SOL    HW2 1730   1.771   1.662   0.792  0.9719  1.3564  2.3796
    1SOL    HW3 1731   1.921   1.637   0.798  1.0754  1.1936 -0.3259
    1SOL    MW4 1732   1.851   1.673   0.759  0.2933  0.4022  0.3139
    1SOL     OW 1733   1.389   3.344   0.560 -0.1520  0.2341 -0.7058
    1SOL    HW2 1734   1.477   3.333   0.524  0.4022  0.8017  0.4571
    1SOL    HW3 1735   1.352   3.418   0.512  0.7134  1.2185  0.1215
    1SOL    MW4 1736   1.396   3.352   0.549  0.0353  0.4389 -0.4432
    1SOL     OW 1737   3.145   3.156   0.769 -0.0458 -0.2252  0.4386
    1SOL    HW2 1738   3.064   3.119   0.805  0.2360 -0.4389  0.8579
    1SOL    HW3 1739   3.141   3.135   0.675 -0.7976  0.3597  0.3379
    1SOL    MW4 1740   3.134   3.148   0.761 -0.1075 -0.1764  0.4807
    1SOL     OW 1741   3.100   3.448   0.842  0.5757  0.1711 -0.8875
    1SOL    HW2 1742   3.131   3.360   0.819  0.4544  0.4496 -2.1210
    1SOL    HW3 1743   3.103   3.450   0.938 -0.3145 -1.5132 -0.8017
    1SOL    MW4 1744   3.104   3.436   0.852  0.4423 -0.0145 -1.0389
    1SOL     OW 1745   3.519   3.517   0.388 -0.0027  0.0403 -0.2070
    1SOL    HW2 1746   3.439   3.559   0.420 -0.8459 -0.2418 -1.8900
    1SOL    HW3 1747   3.584   3.587   0.386 -0.7333  0.7063 -0.6824
    1SOL    MW4 1748   3.517   3.532   0.392 -0.2100  0.0913 -0.4917
    1SOL     OW 1749   3.612   3.974   0.744 -0.1575  0.3067 -0.2262
    1SOL    HW2 1750   3.539   3.951   0.802 -0.5004 -2.1539 -1.5750
    1SOL    HW3 1751   3.690   3.943   0.790 -0.5258 -2.6696 -1.5371
    1SOL    MW4 1752   3.613   3.967   0.758 -0.2515 -0.4108 -0.5771
    1SOL     OW 1753   4.089   0.532   0.492 -0.2119 -0.1799  0.2492
    1SOL    HW2 1754   4.169   0.579   0.469  0.8347 -1.6531  0.7665
    1SOL    HW3 1755   4.116   0.440   0.497 -2.2122 -0.8799 -0.8354
    1SOL    MW4 1756   4.103   0.526   0.489 -0.3376 -0.4666  0.1744
    1SOL     OW 1757   3.158   4.268   0.857  0.0236 -0.5991 -0.2537
    1SOL    HW2 1758   3.076   4.315   0.838  0.1279  0.7903  2.4988
    1SOL    HW3 1759   3.132   4.176   0.863 -1.1468 -0.2985 -0.5298
    1SOL    MW4 1760   3.143   4.262   0.855 -0.1173 -0.3757  0.0730
    1SOL     OW 1761   2.942   1.030   0.408 -0.0342  0.2984 -0.2326
    1SOL    HW2 1762   2.859   1.011   0.451 -0.7418 -2.4440 -2.6552
    1SOL    HW3 1763   2.937   1.123   0.387 -1.9087  0.4582  0.7984
    1SOL    MW4 1764   2.930   1.040   0.411 -0.3750 -0.0423 -0.4162
    1SOL     OW 1765   2.030   1.535   0.889 -0.1318 -0.5191 -0.2266
    1SOL    HW2 1766   2.014   1.454   0.842 -1.2605  0.9072 -2.3750
    1SOL    HW3 1767   2.103   1.576   0.842 -0.3314  0.2486  0.1300
    1SOL    MW4 1768   2.037   1.530   0.877 -0.3071 -0.2295 -0.4629
    1SOL     OW 1769   3.113   0.066   0.830  0.0068  0.0350 -0.4423
    1SOL    HW2 1770   3.111   0.162   0.833  0.0885 -0.0051  2.6421
    1SOL    HW3 1771   3.206   0.044   0.828  0.0321  0.0031  0.8837
    1SOL    MW4 1772   3.125   0.076   0.830  0.0210  0.0255  0.1397
    1SOL     OW 1773   3.601   0.396   0.874  0.1333  0.8670 -0.0183
    1SOL    HW2 1774   3.688   0.417   0.839  0.2518  0.3028 -0.0731
    1SOL    HW3 1775   3.616   0.381   0.967  0.3561 -0.6673 -0.2837
    1SOL    MW4 1776   3.615   0.397   0.882  0.1783  0.5901 -0.0606
    1SOL     OW 1777   0.717   0.518   0.772  0.1597 -0.2581  0.1033
    1SOL    HW2 1778   0.644   0.467   0.805  0.1862 -0.3175  0.0691
    1SOL    HW3 1779   0.794   0.481   0.816 -0.1374  1.6887  2.4196
    1SOL    MW4 1780   0.718   0.507   0.783  0.1239 -0.0091  0.4044
    1SOL     OW 1781   3.808   0.707   0.831  0.0525  0.1975  0.2835
    1SOL    HW2 1782   3.827   0.722   0.923  1.9638 -0.8934  0.0932
    1SOL    HW3 1783   3.883   0.744   0.784 -1.0744  1.0881 -0.8591
    1SOL    MW4 1784   3.821   0.714   0.837  0.1562  0.1711  0.1076
    1SOL     OW 1785   1.598   1.845   0.466 -0.1590  0.5251  0.3677
    1SOL    HW2 1786   1.510   1.808   0.459 -0.2023  0.7764 -0.4917
    1SOL    HW3 1787   1.655   1.770   0.483 -0.3215  0.1403 -0.7685
    1SOL    MW4 1788   1.594   1.831   0.467 -0.1861  0.5074  0.1044
    1SOL     OW 1789   3.841   1.474   0.827  0.0934  0.3131 -0.5676
    1SOL    HW2 1790   3.816   1.387   0.795 -0.5374 -0.1812  1.1987
    1SOL    HW3 1791   3.766   1.529   0.804  0.3595  0.3417 -1.4097
    1SOL    MW4 1792   3.828   1.470   0.819  0.0453  0.2517 -0.4456
    1SOL     OW 1793   2.807   2.114   0.324 -0.1519  0.1583  0.0772
    1SOL    HW2 1794   2.869   2.056   0.368  0.0126  0.9037  0.8452
    1SOL    HW3 1795   2.816   2.093   0.231  0.0193 -0.9285  0.3285
    1SOL    MW4 1796   2.816   2.104   0.317 -0.1075  0.1130  0.2117
    1SOL     OW 1797   4.286   2.795   0.689  0.1073  0.4493 -0.2225
    1SOL    HW2 1798   4.363   2.763   0.735 -0.6895  0.2997  1.0227
    1SOL    HW3 1799   4.265   2.878   0.731  0.1491  0.9594 -1.1932
    1SOL    MW4 1800   4.293   2.802   0.700  0.0081  0.4966 -0.1863
    1SOL     OW 1801   1.172   0.487   0.767  0.4534  0.5816  0.3767
    1SOL    HW2 1802   1.247   0.445   0.810  0.3219 -0.8229 -0.7392
    1SOL    HW3 1803   1.095   0.449   0.810  0.3440  0.1371 -0.2108
    1SOL    MW4 1804   1.172   0.477   0.779  0.4216  0.3377  0.1519
    1SOL     OW 1805   3.744   2.527   0.486 -0.2046  0.1319  0.3310
    1SOL    HW2 1806   3.708   2.499   0.570 -0.3780  0.3301  0.3229
    1SOL    HW3 1807   3.752   2.622   0.494 -1.1737  0.2722 -0.2400
    1SOL    MW4 1808   3.740   2.536   0.498 -0.3552  0.1764  0.2546
    1SOL     OW 1809   3.381   2.311   0.799  0.1772 -0.2424  0.2393
    1SOL    HW2 1810   3.389   2.323   0.893 -1.6992 -0.1922  0.4084
    1SOL    HW3 1811   3.393   2.217   0.785  0.2583 -0.2747  0.5387
    1SOL    MW4 1812   3.384   2.300   0.809 -0.0598 -0.2401  0.3011
    1SOL     OW 1813   3.784   2.299   1.133 -0.3443 -0.0560  0.3229
    1SOL    HW2 1814   3.861   2.355   1.138 -1.3947  1.7737 -2.7773
    1SOL    HW3 1815   3.771   2.284   1.039 -3.0177 -1.3883  0.8451
    1SOL    MW4 1816   3.793   2.304   1.121 -0.8354  0.0098 -0.0173
    1SOL     OW 1817   1.787   2.210   0.421 -0.5470 -0.1368  0.0104
    1SOL    HW2 1818   1.818   2.295   0.450  0.4325 -0.1361 -1.0038
    1SOL    HW3 1819   1.856   2.149   0.446 -0.6782 -0.4464 -0.3739
    1SOL    MW4 1820   1.800   2.213   0.428 -0.4350 -0.1776 -0.1741
    1SOL     OW 1821   3.609   2.681   0.875 -0.2208 -0.4068 -0.1660
    1SOL    HW2 1822   3.620   2.669   0.969 -1.3981  1.0840  0.1766
    1SOL    HW3 1823   3.683   2.737   0.850 -0.9451  0.7274  0.2109
    1SOL    MW4 1824   3.620   2.687   0.884 -0.4716 -0.0608 -0.0710
    1SOL     OW 1825   1.946   3.892   0.369 -0.3904  0.1497 -0.1280
    1SOL    HW2 1826   1.865   3.887   0.420  0.2588  1.3267  1.0354
    1SOL    HW3 1827   1.995   3.814   0.394 -1.1892 -0.6253 -0.9149
    1SOL    MW4 1828   1.941   3.881   0.379 -0.4102  0.2024 -0.0783
    1SOL     OW 1829   3.830   3.100   0.837  0.1294 -0.7564  0.2897
    1SOL    HW2 1830   3.767   3.140   0.777  0.3606 -0.3440  0.3162
    1SOL    HW3 1831   3.826   3.007   0.818 -0.1427 -0.6777 -0.0407
    1SOL    MW4 1832   3.821   3.093   0.826  0.1240 -0.6917  0.2496
    1SOL     OW 1833   3.988   2.164   0.476  0.6378 -0.0363 -0.3511
    1SOL    HW2 1834   4.074   2.123   0.491  0.7189  1.0237  2.4528
    1SOL    HW3 1835   4.007   2.257   0.465 -0.1683  0.2567  0.6486
    1SOL    MW4 1836   4.002   2.171   0.477  0.5422  0.1421  0.1507
    1SOL     OW 1837   3.624   3.266   0.760  0.1079 -0.3839 -0.3685
    1SOL    HW2 1838   3.607   3.257   0.666 -0.3850  0.2447 -0.3406
    1SOL    HW3 1839   3.549   3.226   0.803 -0.2621  0.4252 -0.2474
    1SOL    MW4 1840   3.612   3.260   0.753 -0.0060 -0.1941 -0.3488
    1SOL     OW 1841   3.994   4.037   0.557 -0.3986 -0.1762  0.0583
    1SOL    HW2 1842   4.032   3.954   0.531 -1.6493 -0.9640  0.6592
    1SOL    HW3 1843   4.058   4.103   0.532 -0.0222 -1.1977 -1.7211
    1SOL    MW4 1844   4.007   4.035   0.550 -0.5136 -0.4148 -0.0972
    1SOL     OW 1845   3.837   3.626   0.781 -0.5214  0.0844 -0.1898
    1SOL    HW2 1846   3.905   3.569   0.817 -0.5650  0.5307  0.5928
    1SOL    HW3 1847   3.845   3.614   0.686  0.7717  0.2806 -0.1197
    1SOL    MW4 1848   3.847   3.617   0.773 -0.3567  0.1693 -0.0772
    1SOL     OW 1849   0.925   1.627   0.471  0.3146 -0.1935 -0.2284
    1SOL    HW2 1850   0.923   1.606   0.565  0.4075  2.0528  0.3291
    1SOL    HW3 1851   0.998   1.689   0.463 -0.8602  1.0570 -1.4557
    1SOL    MW4 1852   0.934   1.633   0.483  0.1718  0.2679 -0.3167
    1SOL     OW 1853   2.214   3.489   0.860 -0.0877 -0.0581 -0.5323
    1SOL    HW2 1854   2.218   3.398   0.830  0.8284  0.2316 -1.3218
    1SOL    HW3 1855   2.304   3.521   0.852 -0.3716  0.8568 -0.0837
    1SOL    MW4 1856   2.226   3.481   0.855 -0.0043  0.1006 -0.5773
    1SOL     OW 1857   1.242   0.084   0.505 -0.1431  0.0655 -0.3272
    1SOL    HW2 1858   1.214   0.175   0.499  2.9972  1.0495 -1.5724
    1SOL    HW3 1859   1.284   0.077   0.590 -0.5831 -0.2793 -0.1375
    1SOL    MW4 1860   1.244   0.095   0.515  0.2131  0.1499 -0.4664
    1SOL     OW 1861   4.408   0.006   0.923  0.0444 -0.2002  0.0037
    1SOL    HW2 1862   4.360   0.074   0.876 -0.6457  1.0640  2.4587
    1SOL    HW3 1863   4.370   0.006   1.011  1.6916 -2.0975  0.7526
    1SOL    MW4 1864   4.397   0.015   0.928  0.1707 -0.2837  0.4264
    1SOL     OW 1865   3.570   0.132   0.706  0.6613  0.0761  0.2565
    1SOL    HW2 1866   3.581   0.219   0.744 -0.8159 -0.5152  2.1511
    1SOL    HW3 1867   3.640   0.080   0.743  0.8185  0.1513  0.0669
    1SOL    MW4 1868   3.580   0.137   0.716  0.4871  0.0080  0.4815
    1SOL     OW 1869   4.014   0.093   0.344 -0.3767 -0.5322 -0.0797
    1SOL    HW2 1870   3.940   0.140   0.383  0.0973  0.3724 -0.2696
    1SOL    HW3 1871   4.001   0.101   0.250 -0.8277 -1.6290 -0.1151
    1SOL    MW4 1872   4.002   0.100   0.337 -0.3734 -0.5576 -0.1094
    1SOL     OW 1873   0.023   2.684   0.817 -0.0059 -0.1521 -0.2574
    1SOL    HW2 1874   0.024   2.703   0.911  0.0864  2.2264 -0.6996
    1SOL    HW3 1875   0.108   2.714   0.786 -0.5439  0.2685 -1.3256
    1SOL    MW4 1876   0.034   2.690   0.825 -0.0647  0.2174 -0.4568
    1SOL     OW 1877   4.488   0.898   0.787 -0.0025 -0.0081 -0.0018
    1SOL    HW2 1878   4.395   0.888   0.804 -0.4444  2.6665 -0.6004
    1SOL    HW3 1879   4.496   0.887   0.692  0.5785 -2.0111  0.2557
    1SOL    MW4 1880   4.477   0.896   0.776  0.0162  0.0805 -0.0468
    1SOL     OW 1881   4.302   3.353   0.352 -0.6364 -0.1426  0.0775
    1SOL    HW2 1882   4.291   3.387   0.263  1.2097 -1.3333 -0.6320
    1SOL    HW3 1883   4.343   3.424   0.400  0.7008 -0.3948 -0.6905
    1SOL    MW4 1884   4.306   3.367   0.347 -0.2160 -0.3328 -0.1175
    1SOL     OW 1885   1.366   1.720   0.781 -0.4169 -0.4948  0.0746
    1SOL    HW2 1886   1.451   1.679   0.797  0.4235  0.8266 -0.8958
    1SOL    HW3 1887   1.356   1.719   0.686 -0.9850  0.3305  0.1165
    1SOL    MW4 1888   1.376   1.715   0.770 -0.3810 -0.2116 -0.0480
    1SOL     OW 1889   2.292   4.292   0.870  0.2122  0.2265  0.3845
    1SOL    HW2 1890   2.213   4.323   0.827  0.0917  1.7922  1.7015
    1SOL    HW3 1891   2.309   4.206   0.830 -0.0809  1.4787 -2.4997
    1SOL    MW4 1892   2.284   4.284   0.859  0.1574  0.5980  0.1777
    1SOL     OW 1893   4.269   1.580   0.866  0.2561 -0.1287  0.6547
    1SOL    HW2 1894   4.278   1.496   0.821 -0.8435  0.4211 -0.6394
    1SOL    HW3 1895   4.264   1.558   0.959 -0.6794 -1.5366  0.2798
    1SOL    MW4 1896   4.270   1.566   0.872 -0.0129 -0.2420  0.4345
    1SOL     OW 1897   0.930   1.151   0.798  0.0086 -0.2684  0.0225
    1SOL    HW2 1898   0.859   1.158   0.735 -1.1887 -0.4574  1.3459
    1SOL    HW3 1899   0.958   1.060   0.792 -1.6128 -0.8809  1.3607
    1SOL    MW4 1900   0.925   1.140   0.789 -0.3633 -0.3742  0.3737
    1SOL     OW 1901   1.162   0.365   0.523 -0.2014 -0.1013  0.1331
    1SOL    HW2 1902   1.219   0.419   0.469 -0.7059 -0.0321 -0.3374
    1SOL    HW3 1903   1.158   0.411   0.607  1.2232 -0.6343  0.4936
    1SOL    MW4 1904   1.169   0.379   0.527 -0.0800 -0.1625  0.1186
    1SOL     OW 1905   4.067   3.208   0.733  0.2773 -0.5887  0.0139
    1SOL    HW2 1906   3.988   3.164   0.765 -0.1869 -0.2348 -0.6263
    1SOL    HW3 1907   4.044   3.238   0.645  1.4793 -1.3967 -0.5900
    1SOL    MW4 1908   4.053   3.206   0.726  0.3748 -0.6487 -0.1503
    1SOL     OW 1909   0.249   2.316   1.169 -0.9490  0.1344 -0.7680
    1SOL    HW2 1910   0.173   2.366   1.198 -0.5477  0.3160 -0.0241
    1SOL    HW3 1911   0.324   2.358   1.211 -0.4419 -0.1133 -1.4041
    1SOL    MW4 1912   0.249   2.328   1.178 -0.8292  0.1256 -0.7538
    1SOL     OW 1913   1.989   3.919   0.857 -0.3840  0.5329  0.2359
    1SOL    HW2 1914   1.977   3.895   0.949 -0.5657 -0.5505 -0.0588
    1SOL    HW3 1915   2.014   3.836   0.814  2.2103  1.5018 -0.2307
    1SOL    MW4 1916   1.991   3.905   0.863 -0.0656  0.5178  0.1354
    1SOL     OW 1917   3.813   2.823   0.788 -0.2473  0.3903  0.4473
    1SOL    HW2 1918   3.901   2.786   0.799  0.3891  1.5693 -0.5754
    1SOL    HW3 1919   3.797   2.817   0.694 -1.3649 -0.0362  0.6656
    1SOL    MW4 1920   3.823   2.817   0.777 -0.3109  0.4897  0.3412
    1SOL     OW 1921   0.898   1.892   0.819  0.0424  0.0400 -0.0997
    1SOL    HW2 1922   0.820   1.942   0.792  1.5844  2.1532 -0.8435
    1SOL    HW3 1923   0.895   1.893   0.914 -0.0322  1.4760 -0.1055
    1SOL    MW4 1924   0.888   1.899   0.828  0.2360  0.5083 -0.1987
    1SOL     OW 1925   2.035   0.502   0.494 -0.5479 -0.0611 -0.1420
    1SOL    HW2 1926   2.041   0.502   0.590  0.4672 -0.2988 -0.1969
    1SOL    HW3 1927   2.012   0.412   0.471 -0.1687 -0.1591 -0.1484
    1SOL    MW4 1928   2.033   0.490   0.504 -0.3638 -0.1054 -0.1501
    1SOL     OW 1929   3.751   2.020   0.452  0.9050  0.4023 -0.1167
    1SOL    HW2 1930   3.826   2.079   0.450  1.0103  0.3378  1.2649
    1SOL    HW3 1931   3.786   1.935   0.425  1.3693  0.3344  0.6950
    1SOL    MW4 1932   3.765   2.017   0.448  0.9801  0.3846  0.1727
    1SOL     OW 1933   3.585   3.542   0.861 -0.0456 -0.0885 -0.3692
    1SOL    HW2 1934   3.667   3.588   0.843  0.0886 -0.5264 -0.8914
    1SOL    HW3 1935   3.601   3.452   0.832 -0.8290 -0.0929 -0.8097
    1SOL    MW4 1936   3.598   3.536   0.855 -0.1314 -0.1469 -0.4963
    1SOL     OW 1937   4.281   3.855   0.854  0.1258 -0.6780 -0.0227
    1SOL    HW2 1938   4.207   3.913   0.838  0.3954 -0.2386  0.3020
    1SOL    HW3 1939   4.299   3.865   0.948  2.0780  1.0212 -0.5407
    1SOL    MW4 1940   4.274   3.864   0.864  0.4191 -0.3955 -0.0482
    1SOL     OW 1941   0.322   0.837   0.521  0.4500  0.1649 -0.1438
    1SOL    HW2 1942   0.373   0.869   0.595 -0.5301  1.6724 -0.1155
    1SOL    HW3 1943   0.318   0.911   0.460  0.0844 -0.6196 -1.0941
    1SOL    MW4 1944   0.328   0.851   0.523  0.2725  0.2603 -0.2654
    1SOL     OW 1945   3.831   3.891   0.893 -0.0242 -0.3506  0.2089
    1SOL    HW2 1946   3.907   3.939   0.862 -0.2443 -0.1405 -0.0104
    1SOL    HW3 1947   3.835   3.807   0.848 -0.6129  0.1399 -0.7735
    1SOL    MW4 1948   3.841   3.886   0.883 -0.1309 -0.2582  0.0503
    1SOL     OW 1949   3.995   0.082   0.661 -0.1433 -0.3663 -0.0521
    1SOL    HW2 1950   4.011  -0.006   0.626 -0.3115 -0.4370  0.0458
    1SOL    HW3 1951   3.939   0.123   0.596  1.4158  0.3052 -0.9903
    1SOL    MW4 1952   3.990   0.076   0.648  0.0401 -0.2870 -0.1630
    1SOL     OW 1953   3.776   4.637   0.817 -0.0860  0.0383  0.0920
    1SOL    HW2 1954   3.786   4.542   0.808 -0.2260  0.0215  0.1211
    1SOL    HW3 1955   3.853   4.673   0.772 -0.8563 -0.0478 -1.3188
    1SOL    MW4 1956   3.788   4.629   0.810 -0.2065  0.0248 -0.0903
    1SOL     OW 1957   0.244   4.648   1.109 -0.1095  0.4011  0.1394
    1SOL    HW2 1958   0.314   4.684   1.164 -0.7958  1.6253  0.2263
    1SOL    HW3 1959   0.249   4.698   1.028 -1.2556  0.8966  0.3663
    1SOL    MW4 1960   0.254   4.659   1.105 -0.3513  0.6285  0.1808
    1SOL     OW 1961   0.032   0.122   1.254 -0.0749 -0.2102 -0.2300
    1SOL    HW2 1962  -0.048   0.075   1.228  0.1311  1.2063 -3.6327
    1SOL    HW3 1963   0.103   0.071   1.216  0.3648  0.8301 -0.8152
    1SOL    MW4 1964   0.031   0.109   1.246  0.0103  0.1139 -0.7561
    1SOL     OW 1965   4.475   0.359   1.103  0.6245  0.2013  0.3929
    1SOL    HW2 1966   4.412   0.407   1.156  0.5770  0.7621 -0.1556
    1SOL    HW3 1967   4.499   0.283   1.156 -0.1872  0.2099  0.7806
    1SOL    MW4 1968   4.470   0.356   1.117  0.5107  0.2765  0.3717
    1SOL     OW 1969   0.230   0.491   1.211 -0.2136  0.2358  0.7194
    1SOL    HW2 1970   0.230   0.586   1.197  1.0482  0.0965 -0.2802
    1SOL    HW3 1971   0.142   0.464   1.184  0.1474  0.8277 -1.1382
    1SOL    MW4 1972   0.218   0.500   1.206  0.0005  0.2955  0.3424
    1SOL     OW 1973   0.197   0.751   1.171 -0.0699  0.4976 -0.1713
    1SOL    HW2 1974   0.271   0.800   1.207 -0.2361 -0.0811  0.9564
    1SOL    HW3 1975   0.121   0.808   1.185 -0.3320 -0.2390  1.5287
    1SOL    MW4 1976   0.197   0.765   1.177 -0.1264  0.3240  0.2017
    1SOL     OW 1977   4.462   0.929   1.210  0.4113  0.2975  0.7163
    1SOL    HW2 1978   4.458   0.919   1.305 -1.7999  2.4216  0.9056
    1SOL    HW3 1979   4.476   1.023   1.196 -0.6221  0.2115 -1.0665
    1SOL    MW4 1980   4.463   0.940   1.221 -0.0167  0.5664  0.5060
    1SOL     OW 1981   0.016   1.201   1.140 -0.1788  0.2892 -1.4055
    1SOL    HW2 1982  -0.065   1.230   1.181  0.1299  0.1784 -0.7122
    1SOL    HW3 1983   0.085   1.245   1.189  0.2231 -0.3931 -1.3554
    1SOL    MW4 1984   0.015   1.210   1.152 -0.0850  0.1847 -1.3074
    1SOL     OW 1985   0.238   1.334   1.259 -0.1254 -0.0588 -0.8324
    1SOL    HW2 1986   0.232   1.304   1.349  0.8101  0.6958 -0.5092
    1SOL    HW3 1987   0.299   1.273   1.217 -0.7007 -0.5194 -1.0112
    1SOL    MW4 1988   0.245   1.322   1.265 -0.0779 -0.0200 -0.8134
    1SOL     OW 1989   0.220   1.501   0.805 -0.4117  0.0352 -0.4423
    1SOL    HW2 1990   0.305   1.542   0.791  0.0457 -1.0901 -1.0046
    1SOL    HW3 1991   0.216   1.431   0.740 -2.5356  1.2214 -1.6103
    1SOL    MW4 1992   0.231   1.497   0.795 -0.6315  0.0432 -0.6707
    1SOL     OW 1993   4.456   1.646   1.274  0.2091  0.1193 -0.1318
    1SOL    HW2 1994   4.458   1.741   1.266  0.6603  0.0099 -1.5242
    1SOL    HW3 1995   4.518   1.615   1.208  0.7073 -1.1154  0.8940
    1SOL    MW4 1996   4.464   1.654   1.264  0.3344 -0.0581 -0.1801
    1SOL     OW 1997   0.027   1.906   1.186 -0.0244  0.0377  0.9989
    1SOL    HW2 1998  -0.046   1.967   1.201  0.0524  0.3820  0.0121
    1SOL    HW3 1999   0.027   1.893   1.091  2.2228  1.3131  0.7839
    1SOL    MW4 2000   0.017   1.913   1.175  0.2822  0.2515  0.8403
    1SOL     OW 2001   0.251   2.046   1.277  0.1709 -0.0217  0.4511
    1SOL    HW2 2002   0.240   2.134   1.241 -0.5512 -0.8090 -1.2579
    1SOL    HW3 2003   0.173   1.998   1.250  0.8455 -1.3759  0.8450
    1SOL    MW4 2004   0.240   2.051   1.269  0.1647 -0.3040  0.2776
    1SOL     OW 2005   0.257   2.307   0.895  0.6141  0.1656 -0.4869
    1SOL    HW2 2006   0.178   2.351   0.862  0.4999  0.6929  0.4672
    1SOL    HW3 2007   0.252   2.317   0.990  1.1999 -0.8894 -0.3354
    1SOL    MW4 2008   0.246   2.314   0.903  0.6763  0.0961 -0.3410
    1SOL     OW 2009   0.013   2.424   1.237 -0.0162 -0.8137 -0.1496
    1SOL    HW2 2010   0.020   2.426   1.332  0.3689 -1.3180 -0.1702
    1SOL    HW3 2011  -0.076   2.391   1.220 -0.6289  0.6778  0.0419
    1SOL    MW4 2012   0.002   2.420   1.247 -0.0462 -0.6833 -0.1272
    1SOL     OW 2013   0.026   2.683   1.109  0.1081  0.0520 -0.1973
    1SOL    HW2 2014  -0.060   2.710   1.141  0.8166 -0.8543  2.5932
    1SOL    HW3 2015   0.035   2.592   1.138  1.9556  0.0819 -0.5807
    1SOL    MW4 2016   0.016   2.674   1.117  0.4454 -0.0639  0.1203
    1SOL     OW 2017   0.254   2.788   1.235 -0.0779 -0.1074 -0.4096
    1SOL    HW2 2018   0.254   2.829   1.322 -0.8689  2.1953 -1.4777
    1SOL    HW3 2019   0.162   2.768   1.218  0.0739 -0.5076 -0.7598
    1SOL    MW4 2020   0.242   2.791   1.244 -0.1622  0.1435 -0.5968
    1SOL     OW 2021   0.268   3.029   1.079 -0.0900  0.3864 -0.0018
    1SOL    HW2 2022   0.339   3.086   1.106  1.1457 -0.8137 -0.6352
    1SOL    HW3 2023   0.277   2.951   1.133 -2.1983  1.0392  1.3643
    1SOL    MW4 2024   0.278   3.026   1.089 -0.2052  0.3142  0.0948
    1SOL     OW 2025   0.047   3.178   1.191  0.0023  0.3566 -0.7417
    1SOL    HW2 2026  -0.031   3.129   1.164 -0.1524  0.4716 -0.5076
    1SOL    HW3 2027   0.121   3.124   1.162 -0.1714 -0.2677 -0.0230
    1SOL    MW4 2028   0.046   3.164   1.184 -0.0410  0.2892 -0.6160
    1SOL     OW 2029   0.009   3.450   1.121 -0.0194  0.5112 -0.6246
    1SOL    HW2 2030   0.023   3.356   1.132  0.8301  0.6643 -0.3333
    1SOL    HW3 2031  -0.002   3.462   1.027  0.2652  0.1728 -0.7019
    1SOL    MW4 2032   0.009   3.439   1.110  0.1303  0.4866 -0.5965
    1SOL     OW 2033   0.222   3.616   1.191 -0.0558  0.1525  0.2978
    1SOL    HW2 2034   0.228   3.623   1.287  1.1978 -0.6310  0.2859
    1SOL    HW3 2035   0.162   3.543   1.177 -0.0084  0.0723  0.4990
    1SOL    MW4 2036   0.215   3.607   1.202  0.1158  0.0386  0.3227
    1SOL     OW 2037   0.198   3.864   1.100 -0.2886  0.2864 -0.2457
    1SOL    HW2 2038   0.122   3.903   1.143  0.6120  0.6867  1.0409
    1SOL    HW3 2039   0.192   3.770   1.120  1.0074  0.6834  2.2487
    1SOL    MW4 2040   0.187   3.857   1.109  0.0012  0.3915  0.2532
    1SOL     OW 2041   4.488   4.007   1.226  0.0219 -0.0432 -0.4386
    1SOL    HW2 2042   4.480   4.026   1.319  0.6664 -1.1730 -0.1568
    1SOL    HW3 2043   4.408   3.959   1.205  0.1834 -0.3552 -0.3335
    1SOL    MW4 2044   4.476   4.003   1.235  0.1282 -0.2337 -0.3875
    1SOL     OW 2045   0.004   4.239   1.091  0.7862  0.3739 -0.2464
    1SOL    HW2 2046   0.077   4.289   1.127  0.5766  0.8114 -0.4244
    1SOL    HW3 2047   0.005   4.156   1.139  2.2148 -0.1458 -1.1637
    1SOL    MW4 2048   0.014   4.234   1.102  0.9470  0.3629 -0.3909
    1SOL     OW 2049   0.189   4.396   1.216  0.2024 -0.1530 -0.4181
    1SOL    HW2 2050   0.220   4.410   1.306 -1.1338  0.0813  0.0227
    1SOL    HW3 2051   0.204   4.481   1.173 -0.1980  0.0857 -0.0932
    1SOL    MW4 2052   0.195   4.409   1.222 -0.0267 -0.0906 -0.3171
    1SOL     OW 2053   0.662   4.649   1.156 -0.2211 -0.2441  0.9403
    1SOL    HW2 2054   0.746   4.686   1.183 -0.4421  0.1066  1.1543
    1SOL    HW3 2055   0.674   4.555   1.164  0.2294 -0.2063  0.7401
    1SOL    MW4 2056   0.675   4.642   1.161 -0.1908 -0.1926  0.9420
    1SOL     OW 2057   0.436   0.105   1.258 -0.2474 -0.0772 -0.0277
    1SOL    HW2 2058   0.433   0.186   1.208  0.3414  0.8396  1.3978
    1SOL    HW3 2059   0.517   0.062   1.229 -0.3991 -0.0132 -0.5521
    1SOL    MW4 2060   0.446   0.110   1.247 -0.1897  0.0522  0.0914
    1SOL     OW 2061   2.294   1.910   0.166 -0.1473  0.0168 -0.4575
    1SOL    HW2 2062   2.321   1.892   0.077 -1.4284 -0.4845 -0.7544
    1SOL    HW3 2063   2.231   1.841   0.187 -0.1987  0.3924  0.6694
    1SOL    MW4 2064   2.289   1.899   0.157 -0.3233  0.0002 -0.3480
    1SOL     OW 2065   0.676   0.465   1.209 -0.0151  0.1000  0.8983
    1SOL    HW2 2066   0.678   0.551   1.167  0.3323  0.5014  1.7308
    1SOL    HW3 2067   0.591   0.429   1.186 -0.8546  1.3816  1.9708
    1SOL    MW4 2068   0.665   0.472   1.201 -0.0799  0.3220  1.1495
    1SOL     OW 2069   0.646   0.763   1.144  0.5848 -0.0069  0.1698
    1SOL    HW2 2070   0.574   0.808   1.189  0.5633  0.2006 -0.0694
    1SOL    HW3 2071   0.630   0.780   1.052 -0.8416 -2.6452 -0.1065
    1SOL    MW4 2072   0.634   0.771   1.138  0.3938 -0.3276  0.1017
    1SOL     OW 2073   0.433   0.913   1.227  0.1275 -0.5675  0.2160
    1SOL    HW2 2074   0.439   0.928   1.321  0.1587 -0.5816  0.2161
    1SOL    HW3 2075   0.425   1.001   1.189  0.0669 -0.5647  0.2347
    1SOL    MW4 2076   0.433   0.927   1.234  0.1236 -0.5690  0.2184
    1SOL     OW 2077   0.402   1.163   1.106  0.1523 -0.1007  0.1702
    1SOL    HW2 2078   0.486   1.209   1.110  0.7633 -1.2158  0.2153
    1SOL    HW3 2079   0.370   1.181   1.018  0.9177 -0.5158 -0.1978
    1SOL    MW4 2080   0.409   1.172   1.095  0.3339 -0.3028  0.1274
    1SOL     OW 2081   0.676   1.277   1.182 -0.6013 -0.0888 -0.1154
    1SOL    HW2 2082   0.756   1.238   1.147 -0.8181  0.7636 -1.6433
    1SOL    HW3 2083   0.684   1.370   1.161 -1.3277  0.2446  1.0318
    1SOL    MW4 2084   0.688   1.284   1.175 -0.7257  0.0676 -0.1656
    1SOL     OW 2085   0.671   1.536   1.104  0.4241  0.1178  0.4362
    1SOL    HW2 2086   0.750   1.576   1.142  0.9508  0.3505 -0.8959
    1SOL    HW3 2087   0.600   1.573   1.156  1.0605  1.2462  0.5305
    1SOL    MW4 2088   0.672   1.546   1.116  0.5775  0.2973  0.2728
    1SOL     OW 2089   0.431   1.654   1.243  0.1064 -0.1396  0.3992
    1SOL    HW2 2090   0.443   1.628   1.334 -0.8217  0.8217  0.8077
    1SOL    HW3 2091   0.336   1.653   1.229  0.1599  1.0562 -0.1468
    1SOL    MW4 2092   0.420   1.650   1.253 -0.0090  0.1451  0.3811
    1SOL     OW 2093   0.439   1.908   1.141  0.5995 -0.6863  0.2102
    1SOL    HW2 2094   0.439   1.823   1.186  1.6249 -0.0727  1.4196
    1SOL    HW3 2095   0.384   1.964   1.195 -0.9717 -0.8672 -1.1849
    1SOL    MW4 2096   0.432   1.904   1.154  0.5275 -0.6291  0.1856
    1SOL     OW 2097   0.658   2.048   1.218 -0.1967  0.0460  0.3457
    1SOL    HW2 2098   0.666   2.046   1.313 -0.1142  0.4718  0.3477
    1SOL    HW3 2099   0.586   1.987   1.198  0.6183 -1.0004  0.5890
    1SOL    MW4 2100   0.649   2.039   1.228 -0.0782 -0.0362  0.3781
    1SOL     OW 2101   0.681   2.296   1.105  0.1847  0.3500  0.3216
    1SOL    HW2 2102   0.612   2.332   1.161 -0.3717  0.8542 -0.6921
    1SOL    HW3 2103   0.683   2.203   1.127 -1.1052  0.2575  0.0342
    1SOL    MW4 2104   0.672   2.288   1.115 -0.0588  0.4044  0.1500
    1SOL     OW 2105   0.487   2.440   1.251 -0.0072  0.4158  0.2812
    1SOL    HW2 2106   0.487   2.462   1.344  0.8577  1.6554  0.0107
    1SOL    HW3 2107   0.484   2.524   1.206  1.1407 -0.0932 -0.8038
    1SOL    MW4 2108   0.487   2.454   1.257  0.2584  0.5121  0.1023
    1SOL     OW 2109   0.499   2.689   1.144 -0.1432 -0.2273  0.3336
    1SOL    HW2 2110   0.421   2.734   1.178 -0.1360  0.1617 -0.1582
    1SOL    HW3 2111   0.494   2.702   1.049  1.4645  1.3667  0.4373
    1SOL    MW4 2112   0.488   2.697   1.136  0.0699  0.0346  0.2825
    1SOL     OW 2113   0.722   2.841   1.229 -0.1097  0.3309 -0.6818
    1SOL    HW2 2114   0.723   2.844   1.324 -1.7452  1.0025 -0.6866
    1SOL    HW3 2115   0.652   2.780   1.207  0.9068 -0.5922 -1.4533
    1SOL    MW4 2116   0.713   2.833   1.239 -0.1914  0.2980 -0.7843
    1SOL     OW 2117   0.697   3.121   1.146  0.3274 -0.1944  0.0206
    1SOL    HW2 2118   0.751   3.172   1.206 -0.4030  0.7878 -0.1353
    1SOL    HW3 2119   0.700   3.032   1.180 -0.3017  0.3938  1.6782
    1SOL    MW4 2120   0.705   3.116   1.158  0.1480  0.0129  0.2186
    1SOL     OW 2121   0.454   3.208   1.235  0.1584  0.2742  0.4549
    1SOL    HW2 2122   0.457   3.302   1.219  0.7064  0.0997 -0.5181
    1SOL    HW3 2123   0.534   3.174   1.193 -0.8966 -0.8410 -0.6926
    1SOL    MW4 2124   0.465   3.216   1.227  0.0915  0.1042  0.1750
    1SOL     OW 2125   0.476   3.480   1.189 -0.1517  0.0753 -0.0027
    1SOL    HW2 2126   0.535   3.547   1.225 -1.0291  1.4105 -1.0124
    1SOL    HW3 2127   0.390   3.522   1.187 -1.1408 -1.8052  1.3046
    1SOL    MW4 2128   0.473   3.495   1.194 -0.3980  0.0033  0.0366
    1SOL     OW 2129   0.709   3.646   1.240 -0.9333  0.5362 -0.3411
    1SOL    HW2 2130   0.715   3.639   1.336 -2.1455  0.0402 -0.2885
    1SOL    HW3 2131   0.697   3.739   1.223  1.6070  0.9295 -0.1643
    1SOL    MW4 2132   0.709   3.657   1.251 -0.7581  0.5229 -0.3109
    1SOL     OW 2133   0.671   3.893   1.166  0.1714 -0.0679  0.2719
    1SOL    HW2 2134   0.590   3.942   1.182  1.0797  1.3843  0.5193
    1SOL    HW3 2135   0.670   3.874   1.072 -1.0684 -1.1993  0.4937
    1SOL    MW4 2136   0.660   3.897   1.156  0.1277 -0.0253  0.3338
    1SOL     OW 2137   0.429   3.999   1.224 -0.1178  0.4200 -0.3752
    1SOL    HW2 2138   0.430   4.087   1.187 -1.5102  0.0400 -1.3337
    1SOL    HW3 2139   0.350   3.958   1.188  1.8413 -2.1020 -2.0104
    1SOL    MW4 2140   0.419   4.005   1.214 -0.0430  0.0367 -0.7173
    1SOL     OW 2141   0.423   4.259   1.139  0.2940  0.2038  0.2877
    1SOL    HW2 2142   0.503   4.304   1.165  0.7179 -0.9393  1.0316
    1SOL    HW3 2143   0.353   4.314   1.173  0.7939  0.6265  0.6409
    1SOL    MW4 2144   0.424   4.272   1.147  0.4159  0.1082  0.4325
    1SOL     OW 2145   0.671   4.392   1.219  0.0816  0.3767 -0.2780
    1SOL    HW2 2146   0.665   4.406   1.314 -0.0743 -1.2656 -0.0180
    1SOL    HW3 2147   0.752   4.341   1.208 -0.6126 -0.6172 -0.8674
    1SOL    MW4 2148   0.681   4.387   1.230 -0.0305  0.0286 -0.3213
    1SOL     OW 2149   1.139   4.654   1.116 -0.3235 -0.5641 -0.0126
    1SOL    HW2 2150   1.149   4.563   1.145 -1.3967 -1.4365 -2.2392
    1SOL    HW3 2151   1.121   4.647   1.022  2.1756  2.0898 -0.7605
    1SOL    MW4 2152   1.138   4.641   1.107 -0.1354 -0.3290 -0.4050
    1SOL     OW 2153   0.911   0.078   1.261  0.4789 -0.0534 -0.4493
    1SOL    HW2 2154   0.940   0.079   1.352  1.2400 -0.2655 -0.6919
    1SOL    HW3 2155   0.988   0.052   1.211 -0.1935 -0.8926 -1.0596
    1SOL    MW4 2156   0.925   0.075   1.267  0.4907 -0.1921 -0.5620
    1SOL     OW 2157   0.927   0.348   1.170  0.0825 -0.2522  0.0800
    1SOL    HW2 2158   0.919   0.264   1.216 -0.8580  0.2908  0.9378
    1SOL    HW3 2159   0.845   0.393   1.189  0.9197  1.1941  0.3086
    1SOL    MW4 2160   0.915   0.343   1.179  0.0688  0.0103  0.2233
    1SOL     OW 2161   1.136   0.512   1.230  0.0455  0.1293 -0.1067
    1SOL    HW2 2162   1.151   0.508   1.325  0.2540  2.1070 -0.0399
    1SOL    HW3 2163   1.065   0.449   1.215  0.0502 -0.2578  1.3512
    1SOL    MW4 2164   1.129   0.503   1.241  0.0736  0.3392  0.0944
    1SOL     OW 2165   1.126   0.773   1.121  0.3700 -0.4646 -0.3665
    1SOL    HW2 2166   1.042   0.807   1.151  0.2762 -0.7974 -0.2511
    1SOL    HW3 2167   1.119   0.678   1.132  0.2520 -0.6132 -1.6502
    1SOL    MW4 2168   1.114   0.765   1.126  0.3421 -0.5282 -0.5206
    1SOL     OW 2169   0.879   0.883   1.222  0.2519  0.5393 -0.0077
    1SOL    HW2 2170   0.878   0.968   1.177  0.1662  1.2161  1.2317
    1SOL    HW3 2171   0.797   0.841   1.196 -0.0726  1.1705 -0.0080
    1SOL    MW4 2172   0.868   0.889   1.212  0.1978  0.7118  0.1558
    1SOL     OW 2173   0.887   1.134   1.083 -0.2334 -0.1857  0.5088
    1SOL    HW2 2174   0.968   1.165   1.124 -0.8956  0.2916  1.4657
    1SOL    HW3 2175   0.898   1.156   0.990  0.4087  0.5753  0.7613
    1SOL    MW4 2176   0.899   1.141   1.076 -0.2360 -0.0224  0.6685
    1SOL     OW 2177   1.098   1.279   1.230 -0.1728 -0.0889 -0.2367
    1SOL    HW2 2178   1.103   1.305   1.322 -0.3188 -1.8711  0.2880
    1SOL    HW3 2179   1.187   1.251   1.208  0.2273  1.7168 -1.0963
    1SOL    MW4 2180   1.111   1.279   1.239 -0.1394 -0.0857 -0.2810
    1SOL     OW 2181   1.112   1.536   1.129 -0.0378  0.1621 -0.4218
    1SOL    HW2 2182   1.095   1.443   1.146 -0.4990 -0.1345 -2.3460
    1SOL    HW3 2183   1.126   1.540   1.034 -0.2056  2.0937 -0.3749
    1SOL    MW4 2184   1.112   1.524   1.119 -0.1208  0.3778 -0.6695
    1SOL     OW 2185   0.890   1.667   1.229  0.1247  0.5035 -0.2526
    1SOL    HW2 2186   0.885   1.748   1.178  0.8075 -0.0903 -1.2869
    1SOL    HW3 2187   0.962   1.617   1.189 -0.2275 -0.5802  0.4215
    1SOL    MW4 2188   0.899   1.671   1.217  0.1684  0.2823 -0.3000
    1SOL     OW 2189   0.879   1.913   1.106  0.1911 -0.3612  0.1066
    1SOL    HW2 2190   0.954   1.966   1.134 -0.2896  0.2083  0.3341
    1SOL    HW3 2191   0.802   1.966   1.129 -0.2577 -0.4655 -1.0688
    1SOL    MW4 2192   0.878   1.927   1.112  0.0684 -0.2998 -0.0184
    1SOL     OW 2193   1.097   2.061   1.195  0.0805 -0.1488  0.4531
    1SOL    HW2 2194   1.110   2.080   1.287 -0.5236  0.5458  0.3992
    1SOL    HW3 2195   1.093   2.147   1.153  0.2480 -0.4577 -0.2063
    1SOL    MW4 2196   1.098   2.075   1.201  0.0229 -0.0978  0.3589
    1SOL     OW 2197   1.082   2.342   1.127  0.1085  0.6520 -0.2020
    1SOL    HW2 2198   1.165   2.382   1.152 -0.4930  2.2070 -0.6325
    1SOL    HW3 2199   1.072   2.360   1.034  0.0297 -0.9109 -0.5170
    1SOL    MW4 2200   1.091   2.349   1.118  0.0186  0.6511 -0.3003
    1SOL     OW 2201   0.849   2.468   1.233 -0.0073  0.4772  0.1540
    1SOL    HW2 2202   0.933   2.426   1.213 -0.6782 -0.8079  0.0340
    1SOL    HW3 2203   0.783   2.407   1.202 -1.0048  2.3281 -1.5117
    1SOL    MW4 2204   0.852   2.454   1.226 -0.2274  0.5519 -0.0815
    1SOL     OW 2205   0.922   2.703   1.091  0.1500 -0.3221  0.8124
    1SOL    HW2 2206   0.894   2.618   1.123 -0.0923 -0.5217  0.0933
    1SOL    HW3 2207   0.864   2.766   1.134 -0.9124 -0.6708 -0.0844
    1SOL    MW4 2208   0.911   2.701   1.101 -0.0222 -0.3943  0.5993
    1SOL     OW 2209   1.148   2.820   1.189  0.3028  0.0583 -0.2799
    1SOL    HW2 2210   1.128   2.834   1.282  0.4521  0.2456 -0.2763
    1SOL    HW3 2211   1.067   2.782   1.153 -1.1245  3.4636 -0.8804
    1SOL    MW4 2212   1.135   2.816   1.197  0.1342  0.5322 -0.3587
    1SOL     OW 2213   1.160   3.096   1.139  0.0166 -0.1416  0.5203
    1SOL    HW2 2214   1.147   3.004   1.165 -0.1384 -0.0073  0.9330
    1SOL    HW3 2215   1.149   3.096   1.044 -0.3344 -0.4962  0.5566
    1SOL    MW4 2216   1.157   3.084   1.130 -0.0502 -0.1705  0.5796
    1SOL     OW 2217   0.975   3.272   1.250 -0.0539  0.0870 -0.6346
    1SOL    HW2 2218   0.973   3.358   1.207  0.7481  0.2939 -0.2868
    1SOL    HW3 2219   1.049   3.227   1.210  1.4619  0.7407  1.3219
    1SOL    MW4 2220   0.984   3.278   1.239  0.2519  0.2005 -0.3306
    1SOL     OW 2221   0.959   3.505   1.114  0.7568 -0.2219  0.0407
    1SOL    HW2 2222   0.881   3.552   1.141  1.4184 -0.0057  1.6183
    1SOL    HW3 2223   0.947   3.491   1.020 -1.4565 -0.7525  0.3712
    1SOL    MW4 2224   0.947   3.509   1.105  0.5520 -0.2632  0.2924
    1SOL     OW 2225   1.156   3.653   1.243  0.1312  0.0603 -0.3434
    1SOL    HW2 2226   1.242   3.612   1.229  0.3846  0.0154  1.2384
    1SOL    HW3 2227   1.095   3.596   1.196  0.8215 -0.5585 -0.5141
    1SOL    MW4 2228   1.159   3.640   1.235  0.2556 -0.0272 -0.1571
    1SOL     OW 2229   1.135   3.891   1.113  0.5424 -0.2264  0.2504
    1SOL    HW2 2230   1.063   3.939   1.155  1.5787  1.3428  0.2803
    1SOL    HW3 2231   1.141   3.809   1.162 -1.8965 -0.8594 -0.4119
    1SOL    MW4 2232   1.126   3.887   1.125  0.3574 -0.1028  0.1670
    1SOL     OW 2233   0.917   4.025   1.255 -0.3648 -0.2522 -0.0274
    1SOL    HW2 2234   0.915   4.013   1.350  0.2669 -0.4467 -0.0358
    1SOL    HW3 2235   0.832   3.995   1.225 -0.7698  0.3288  0.5408
    1SOL    MW4 2236   0.906   4.019   1.264 -0.3349 -0.2007  0.0464
    1SOL     OW 2237   0.897   4.275   1.164 -0.0459 -0.0335 -0.4060
    1SOL    HW2 2238   0.905   4.186   1.198  1.5168  0.1465 -0.2881
    1SOL    HW3 2239   0.902   4.265   1.069  1.3298  0.0420 -0.3482
    1SOL    MW4 2240   0.899   4.262   1.156  0.3418  0.0000 -0.3827
    1SOL     OW 2241   1.129   4.414   1.245  0.2612 -0.2725  0.2186
    1SOL    HW2 2242   1.133   4.397   1.339  0.0577  1.7620  0.6241
    1SOL    HW3 2243   1.056   4.361   1.214 -0.5298  0.0742  1.4480
    1SOL    MW4 2244   1.120   4.405   1.253  0.1298  0.0420  0.4343
    1SOL     OW 2245   1.554   0.029   1.135  0.0694 -0.4631 -0.7843
    1SOL    HW2 2246   1.627   0.086   1.161 -1.4363  0.6055  1.2482
    1SOL    HW3 2247   1.578  -0.057   1.168  0.3413 -0.0869  0.0161
    1SOL    MW4 2248   1.567   0.025   1.142 -0.0933 -0.2725 -0.4106
    1SOL     OW 2249   1.328   0.114   1.287  0.1207  0.2780  0.1406
    1SOL    HW2 2250   1.407   0.098   1.235  0.5680 -1.5719  1.3305
    1SOL    HW3 2251   1.258   0.073   1.236  0.2428  0.2078  0.0280
    1SOL    MW4 2252   1.329   0.106   1.273  0.1959  0.0246  0.2825
    1SOL     OW 2253   1.352   0.370   1.176  0.3553 -0.1743  0.4181
    1SOL    HW2 2254   1.334   0.283   1.211 -0.5800 -0.4406 -0.6906
    1SOL    HW3 2255   1.269   0.416   1.182  0.3508 -0.0081 -0.8216
    1SOL    MW4 2256   1.339   0.365   1.181  0.2314 -0.1875  0.1082
    1SOL     OW 2257   1.589   0.485   1.252 -0.2370 -0.0183  0.2139
    1SOL    HW2 2258   1.587   0.577   1.226  0.2717  0.0733  0.4867
    1SOL    HW3 2259   1.501   0.452   1.233 -0.8839  0.9191  1.5171
    1SOL    MW4 2260   1.577   0.492   1.246 -0.2552  0.1175  0.4219
    1SOL     OW 2261   1.588   0.744   1.159 -0.4422  0.1537  0.0230
    1SOL    HW2 2262   1.656   0.801   1.197 -0.0592 -0.6567  0.5675
    1SOL    HW3 2263   1.601   0.751   1.065  0.6556 -0.2996  0.1336
    1SOL    MW4 2264   1.599   0.752   1.152 -0.2469 -0.0131  0.1093
    1SOL     OW 2265   1.357   0.916   1.221  0.4676 -0.5131 -0.4697
    1SOL    HW2 2266   1.429   0.857   1.199  0.3276 -0.4629 -1.0812
    1SOL    HW3 2267   1.279   0.874   1.183  0.3918  0.1313 -1.0362
    1SOL    MW4 2268   1.356   0.903   1.213  0.4390 -0.4215 -0.6251
    1SOL     OW 2269   1.355   1.181   1.137  0.1650 -0.1497 -0.2143
    1SOL    HW2 2270   1.357   1.092   1.172 -2.3975 -0.6870 -1.3556
    1SOL    HW3 2271   1.429   1.225   1.180  0.4807 -2.3540  1.5995
    1SOL    MW4 2272   1.365   1.175   1.147 -0.1315 -0.5113 -0.1254
    1SOL     OW 2273   1.572   1.324   1.224  0.6823  0.0716 -0.4446
    1SOL    HW2 2274   1.648   1.270   1.206 -1.6304 -3.1359 -1.0086
    1SOL    HW3 2275   1.562   1.321   1.319  0.3685 -0.7405 -0.5072
    1SOL    MW4 2276   1.580   1.317   1.234  0.3358 -0.4587 -0.5273
    1SOL     OW 2277   1.614   1.591   1.110 -0.1309 -0.0451 -0.6475
    1SOL    HW2 2278   1.676   1.630   1.172 -0.1529  0.1336 -0.7374
    1SOL    HW3 2279   1.608   1.500   1.137 -1.6141  0.4705  0.8196
    1SOL    MW4 2280   1.622   1.584   1.122 -0.3295  0.0467 -0.4658
    1SOL     OW 2281   1.345   1.679   1.224  0.1978 -0.6632 -0.1913
    1SOL    HW2 2282   1.426   1.651   1.181 -1.1910 -0.8907 -2.7497
    1SOL    HW3 2283   1.282   1.609   1.204 -1.0706  0.3113  0.3497
    1SOL    MW4 2284   1.348   1.666   1.216 -0.1528 -0.5646 -0.4574
    1SOL     OW 2285   1.339   1.949   1.149  0.2072 -0.2335  0.4775
    1SOL    HW2 2286   1.330   1.856   1.172 -2.0947  0.0741  1.0092
    1SOL    HW3 2287   1.251   1.984   1.161  0.9069  1.8716 -0.4321
    1SOL    MW4 2288   1.326   1.941   1.154 -0.0042  0.0849  0.4277
    1SOL     OW 2289   1.575   2.078   1.202  0.1284 -0.0844  0.4850
    1SOL    HW2 2290   1.552   2.164   1.168 -0.5842 -0.9536 -1.2934
    1SOL    HW3 2291   1.495   2.026   1.191  0.9366 -1.3195  0.3527
    1SOL    MW4 2292   1.561   2.082   1.196  0.1409 -0.3619  0.2328
    1SOL     OW 2293   1.569   2.348   1.089  0.2766  0.5553 -0.0725
    1SOL    HW2 2294   1.478   2.360   1.117  0.1354  0.7171 -0.5917
    1SOL    HW3 2295   1.563   2.329   0.995  0.7456  0.0546 -0.0007
    1SOL    MW4 2296   1.556   2.347   1.080  0.3198  0.5105 -0.1315
    1SOL     OW 2297   1.341   2.430   1.231 -0.0575  0.2611  0.0358
    1SOL    HW2 2298   1.330   2.434   1.327 -2.7794  1.2628 -0.2588
    1SOL    HW3 2299   1.355   2.521   1.205  2.1406 -0.1769 -0.4129
    1SOL    MW4 2300   1.341   2.443   1.241 -0.1266  0.3355 -0.0622
    1SOL     OW 2301   1.375   2.681   1.128  0.0283 -0.1949 -0.0963
    1SOL    HW2 2302   1.438   2.733   1.177  0.1091 -0.5998  0.2339
    1SOL    HW3 2303   1.290   2.722   1.146 -0.0171 -0.7039  0.8721
    1SOL    MW4 2304   1.372   2.693   1.137  0.0329 -0.3157  0.0750
    1SOL     OW 2305   1.579   2.840   1.233 -0.2269  0.0801 -0.0479
    1SOL    HW2 2306   1.663   2.814   1.195 -1.5491 -0.8526 -2.3970
    1SOL    HW3 2307   1.567   2.931   1.204 -0.2780  0.0453 -0.1345
    1SOL    MW4 2308   1.589   2.849   1.224 -0.4082 -0.0474 -0.3692
    1SOL     OW 2309   1.586   3.108   1.161  0.0249  1.0810 -0.1030
    1SOL    HW2 2310   1.659   3.166   1.186  0.2381  0.6025  0.3898
    1SOL    HW3 2311   1.508   3.154   1.191  0.1224  1.6176 -0.6689
    1SOL    MW4 2312   1.586   3.122   1.169  0.0658  1.0886 -0.1128
    1SOL     OW 2313   1.363   3.268   1.252 -0.3514 -0.2389  0.3754
    1SOL    HW2 2314   1.352   3.252   1.346  0.3323 -0.4856  0.4165
    1SOL    HW3 2315   1.303   3.206   1.210 -0.6435 -0.1422  0.6470
    1SOL    MW4 2316   1.353   3.258   1.259 -0.2997 -0.2589  0.4166
    1SOL     OW 2317   1.405   3.538   1.207  0.2906  0.0907  0.3394
    1SOL    HW2 2318   1.416   3.444   1.224 -0.0721 -0.0111  0.0183
    1SOL    HW3 2319   1.400   3.544   1.112  0.7476  0.4863  0.3351
    1SOL    MW4 2320   1.406   3.526   1.197  0.3031  0.1295  0.2964
    1SOL     OW 2321   1.623   3.693   1.281 -0.0263  0.0117 -0.1767
    1SOL    HW2 2322   1.616   3.778   1.237 -0.5660  0.6701  1.1512
    1SOL    HW3 2323   1.549   3.643   1.247  0.2898  0.0706 -0.9591
    1SOL    MW4 2324   1.612   3.698   1.270 -0.0557  0.1063 -0.1048
    1SOL     OW 2325   1.593   3.919   1.128 -0.3718  0.4255 -0.0690
    1SOL    HW2 2326   1.507   3.948   1.155 -0.1660  1.2725 -0.3259
    1SOL    HW3 2327   1.590   3.919   1.032 -0.3367 -0.2890 -0.0732
    1SOL    MW4 2328   1.581   3.922   1.119 -0.3402  0.4430 -0.1035
    1SOL     OW 2329   1.349   4.010   1.238  0.1590 -0.2372  0.2426
    1SOL    HW2 2330   1.326   4.103   1.233 -0.6595 -0.3671  1.4660
    1SOL    HW3 2331   1.273   3.964   1.203  0.8574 -0.4285 -1.0576
    1SOL    MW4 2332   1.336   4.016   1.233  0.1431 -0.2794  0.2325
    1SOL     OW 2333   1.349   4.281   1.167 -0.1128  0.4036 -0.0216
    1SOL    HW2 2334   1.268   4.324   1.193 -0.2769 -0.2530  0.5562
    1SOL    HW3 2335   1.349   4.287   1.071 -0.8072  0.4584 -0.0229
    1SOL    MW4 2336   1.338   4.288   1.158 -0.2260  0.3238  0.0544
    1SOL     OW 2337   1.585   4.425   1.244  0.5039  0.0794  0.1413
    1SOL    HW2 2338   1.574   4.420   1.339 -1.1537 -0.6222 -0.0660
    1SOL    HW3 2339   1.497   4.409   1.209  1.4487 -1.5695 -1.5548
    1SOL    MW4 2340   1.572   4.422   1.252  0.4098 -0.2313 -0.1099
    1SOL     OW 2341   2.054   4.662   1.120 -0.1556 -0.1796 -0.1383
    1SOL    HW2 2342   2.082   4.573   1.142  2.2952  0.7241  0.4921
    1SOL    HW3 2343   2.056   4.664   1.024 -0.1892 -0.7685 -0.1553
    1SOL    MW4 2344   2.058   4.650   1.110  0.1633 -0.1378 -0.0576
    1SOL     OW 2345   1.792   0.119   1.219 -0.4594 -0.1009 -0.3371
    1SOL    HW2 2346   1.810   0.205   1.181  0.0383  0.4176  1.0207
    1SOL    HW3 2347   1.875   0.071   1.211 -0.8681 -0.6278 -1.5111
    1SOL    MW4 2348   1.806   0.124   1.213 -0.4475 -0.1020 -0.3127
    1SOL     OW 2349   1.822   0.373   1.125  0.2492 -0.0449  0.1842
    1SOL    HW2 2350   1.738   0.399   1.162 -0.1699 -0.6099 -0.3565
    1SOL    HW3 2351   1.807   0.372   1.030  1.2841  1.3289 -0.0079
    1SOL    MW4 2352   1.809   0.376   1.117  0.3304  0.0618  0.0876
    1SOL     OW 2353   2.026   0.765   1.149  0.0746  0.0173  0.2340
    1SOL    HW2 2354   2.092   0.823   1.187 -0.0034  0.4675 -0.3052
    1SOL    HW3 2355   2.044   0.679   1.186 -0.3232  0.5463  1.6902
    1SOL    MW4 2356   2.037   0.762   1.159  0.0119  0.1465  0.3550
    1SOL     OW 2357   2.017   0.762   0.864  0.2037 -0.0857 -0.1369
    1SOL    HW2 2358   2.108   0.772   0.836 -0.1145  1.4358 -0.6485
    1SOL    HW3 2359   2.020   0.772   0.959  0.4369  0.9932 -0.2541
    1SOL    MW4 2360   2.030   0.764   0.873  0.1924  0.2574 -0.2198
    1SOL     OW 2361   1.798   0.924   1.197  0.5043 -0.0063 -0.2674
    1SOL    HW2 2362   1.826   0.943   1.287  0.1574 -0.5047 -0.0467
    1SOL    HW3 2363   1.857   0.856   1.167  0.9452  0.5260 -0.6015
    1SOL    MW4 2364   1.809   0.917   1.205  0.5167 -0.0018 -0.2822
    1SOL     OW 2365   1.816   1.201   1.127 -0.6251  0.1043  0.5230
    1SOL    HW2 2366   1.798   1.107   1.133 -0.4486  0.0223 -0.1741
    1SOL    HW3 2367   1.854   1.213   1.039  0.1445  0.6904  0.9266
    1SOL    MW4 2368   1.819   1.190   1.116 -0.5004  0.1708  0.4841
    1SOL     OW 2369   2.051   1.273   1.259  0.3319  0.5045 -0.3989
    1SOL    HW2 2370   2.119   1.226   1.211  1.2304  1.2468  0.1201
    1SOL    HW3 2371   1.970   1.228   1.237  1.2445 -1.6645  0.5583
    1SOL    MW4 2372   2.050   1.261   1.250  0.5708  0.3164 -0.2041
    1SOL     OW 2373   1.997   1.563   1.166  0.2544  0.2180 -0.0373
    1SOL    HW2 2374   1.990   1.487   1.224  0.7619 -0.7171 -1.1902
    1SOL    HW3 2375   2.009   1.526   1.079 -1.7008  1.6041 -0.9304
    1SOL    MW4 2376   1.998   1.548   1.162  0.0634  0.2775 -0.3072
    1SOL     OW 2377   1.802   1.740   1.258  0.1469 -0.3171 -0.1769
    1SOL    HW2 2378   1.810   1.810   1.193  0.1005 -0.9111 -0.8239
    1SOL    HW3 2379   1.868   1.676   1.232  0.0657 -0.5957  0.3118
    1SOL    MW4 2380   1.812   1.741   1.246  0.1302 -0.4321 -0.1979
    1SOL     OW 2381   1.807   1.966   1.100  0.2302 -0.1417  0.7201
    1SOL    HW2 2382   1.724   2.003   1.131  0.4710  0.4817  0.6204
    1SOL    HW3 2383   1.803   1.975   1.005  0.4277 -0.0822  0.7176
    1SOL    MW4 2384   1.795   1.972   1.092  0.2881 -0.0517  0.7068
    1SOL     OW 2385   2.062   2.093   1.210  0.1913  0.8669  0.3991
    1SOL    HW2 2386   2.040   2.093   1.303 -0.2900  0.6891  0.2830
    1SOL    HW3 2387   1.986   2.055   1.167  0.8385 -0.0287  0.0293
    1SOL    MW4 2388   2.049   2.088   1.217  0.2131  0.7250  0.3350
    1SOL     OW 2389   1.999   2.366   1.096  0.3412  0.0568  0.0499
    1SOL    HW2 2390   2.076   2.410   1.130  1.4196 -0.8885 -1.1345
    1SOL    HW3 2391   1.998   2.281   1.140  0.0907 -0.0180 -0.0954
    1SOL    MW4 2392   2.009   2.360   1.106  0.4501 -0.0775 -0.1255
    1SOL     OW 2393   1.781   2.478   1.241  0.0969  0.6784 -0.5848
    1SOL    HW2 2394   1.859   2.446   1.194  0.0217  0.7323 -0.7486
    1SOL    HW3 2395   1.708   2.441   1.192 -0.0107  1.8024 -1.2891
    1SOL    MW4 2396   1.782   2.469   1.228  0.0726  0.8337 -0.6994
    1SOL     OW 2397   1.793   2.729   1.125  0.3381  0.2009  0.8715
    1SOL    HW2 2398   1.803   2.638   1.152  0.2363  0.4626  1.8015
    1SOL    HW3 2399   1.801   2.727   1.030 -1.9184 -1.0869  0.6839
    1SOL    MW4 2400   1.795   2.717   1.116  0.0269  0.0658  0.9695
    1SOL     OW 2401   2.050   2.835   1.225 -0.3599  0.4627  0.2893
    1SOL    HW2 2402   2.047   2.930   1.220  0.4428  0.5731  1.8035
    1SOL    HW3 2403   1.964   2.807   1.192 -0.0221  1.6160 -1.6589
    1SOL    MW4 2404   2.038   2.844   1.220 -0.2093  0.6292  0.2320
    1SOL     OW 2405   2.015   3.098   1.175  0.1166 -0.3004 -0.2694
    1SOL    HW2 2406   1.940   3.141   1.217  1.3835  0.5897  1.1357
    1SOL    HW3 2407   2.006   3.119   1.082 -2.2402 -1.5492 -0.3644
    1SOL    MW4 2408   2.004   3.106   1.168 -0.0274 -0.3481 -0.0966
    1SOL     OW 2409   1.793   3.260   1.260  0.0251 -0.1828 -0.4174
    1SOL    HW2 2410   1.787   3.262   1.356 -2.0143 -1.5464 -0.4977
    1SOL    HW3 2411   1.780   3.351   1.233 -1.3772 -0.1001  0.4997
    1SOL    MW4 2412   1.791   3.272   1.269 -0.4288 -0.3519 -0.3071
    1SOL     OW 2413   1.820   3.541   1.179  0.9778 -0.5200  0.7285
    1SOL    HW2 2414   1.904   3.577   1.206  0.2290  0.7740  1.3656
    1SOL    HW3 2415   1.756   3.608   1.203 -0.3342 -1.8677  1.0373
    1SOL    MW4 2416   1.823   3.555   1.185  0.7060 -0.5269  0.8533
    1SOL     OW 2417   2.071   3.648   1.233  0.0050 -0.3643  0.2804
    1SOL    HW2 2418   2.074   3.642   1.329 -0.6172 -0.4527  0.3008
    1SOL    HW3 2419   2.121   3.573   1.202 -0.5552 -0.8543  0.5397
    1SOL    MW4 2420   2.078   3.637   1.242 -0.1509 -0.4406  0.3173
    1SOL     OW 2421   2.039   3.916   1.145 -0.3463  0.7383  0.6141
    1SOL    HW2 2422   1.971   3.954   1.201 -0.7901 -0.8378  1.1563
    1SOL    HW3 2423   2.051   3.827   1.177  0.9300  0.5052 -0.4306
    1SOL    MW4 2424   2.032   3.909   1.156 -0.2367  0.4997  0.5480
    1SOL     OW 2425   1.808   4.040   1.246  0.3665  0.3207  0.4139
    1SOL    HW2 2426   1.794   4.035   1.340  0.3345  0.0869  0.3995
    1SOL    HW3 2427   1.731   3.996   1.208  0.1775  0.7767  0.2663
    1SOL    MW4 2428   1.796   4.033   1.253  0.3372  0.3500  0.3926
    1SOL     OW 2429   1.799   4.308   1.117  0.1637  0.2587  0.2660
    1SOL    HW2 2430   1.822   4.229   1.166 -1.5278 -0.7894 -0.5814
    1SOL    HW3 2431   1.724   4.345   1.163 -0.1844  0.3699 -0.3765
    1SOL    MW4 2432   1.792   4.302   1.129 -0.1054  0.1349  0.0695
    1SOL     OW 2433   2.042   4.408   1.243 -0.2274  0.4381  0.1396
    1SOL    HW2 2434   2.024   4.394   1.336 -0.2375  0.2688  0.1124
    1SOL    HW3 2435   1.963   4.378   1.198  0.5359 -1.3553 -0.0596
    1SOL    MW4 2436   2.029   4.402   1.249 -0.1285  0.1793  0.1098
    1SOL     OW 2437   2.511   0.007   1.066  0.0231 -0.2213 -0.0806
    1SOL    HW2 2438   2.579   0.056   1.113  0.0793 -1.0764  0.7356
    1SOL    HW3 2439   2.431   0.025   1.116 -0.2212  0.1867 -0.6132
    1SOL    MW4 2440   2.509   0.016   1.079 -0.0019 -0.2799 -0.0430
    1SOL     OW 2441   2.284   0.111   1.221 -0.3532  0.5720  0.1016
    1SOL    HW2 2442   2.279   0.206   1.210 -1.0303  0.4539 -0.6832
    1SOL    HW3 2443   2.213   0.077   1.166  0.6457 -0.4604 -0.5620
    1SOL    MW4 2444   2.274   0.119   1.212 -0.3109  0.4202 -0.0893
    1SOL     OW 2445   2.040   0.490   1.254  0.2557  0.3306 -0.1916
    1SOL    HW2 2446   2.026   0.495   1.348 -1.7407  0.7559 -0.4768
    1SOL    HW3 2447   1.966   0.439   1.221  0.4819  0.8798 -1.6116
    1SOL    MW4 2448   2.028   0.484   1.262  0.0219  0.4592 -0.4166
    1SOL     OW 2449   2.507   0.530   1.210  0.0058 -0.1433  0.1158
    1SOL    HW2 2450   2.514   0.516   1.304  0.8648 -2.5354 -0.2662
    1SOL    HW3 2451   2.432   0.477   1.183  0.9862 -1.0944 -0.8208
    1SOL    MW4 2452   2.498   0.521   1.219  0.2487 -0.5844 -0.0583
    1SOL     OW 2453   2.487   0.789   1.112  0.0275  0.0756  0.3258
    1SOL    HW2 2454   2.483   0.702   1.152 -0.9235  0.1373  0.3563
    1SOL    HW3 2455   2.493   0.772   1.018  0.7638 -0.0358  0.3864
    1SOL    MW4 2456   2.488   0.775   1.105 -0.0007  0.0691  0.3378
    1SOL     OW 2457   2.247   0.897   1.223 -0.4914  0.2032 -0.0289
    1SOL    HW2 2458   2.244   0.892   1.318 -0.4642  0.4563 -0.0142
    1SOL    HW3 2459   2.332   0.858   1.200 -1.4428 -1.8607 -0.0952
    1SOL    MW4 2460   2.258   0.891   1.232 -0.6130 -0.0358 -0.0358
    1SOL     OW 2461   2.258   1.156   1.135  0.0502 -0.0010  0.0334
    1SOL    HW2 2462   2.344   1.190   1.163 -0.8253  0.0754  2.7327
    1SOL    HW3 2463   2.259   1.064   1.162  0.2212 -0.6751 -2.1926
    1SOL    MW4 2464   2.270   1.148   1.142 -0.0427 -0.0800  0.0957
    1SOL     OW 2465   2.516   1.267   1.201  0.1391  0.1588 -0.8122
    1SOL    HW2 2466   2.588   1.211   1.173 -0.0186 -0.4831  0.0430
    1SOL    HW3 2467   2.524   1.345   1.147  0.7085 -0.4483 -1.6136
    1SOL    MW4 2468   2.526   1.270   1.191  0.1936 -0.0060 -0.8051
    1SOL     OW 2469   2.476   1.511   1.072  0.1218 -0.2025  0.1688
    1SOL    HW2 2470   2.409   1.561   1.120  1.2939  0.5285  1.0620
    1SOL    HW3 2471   2.450   1.520   0.980 -0.5326  0.8181  0.4355
    1SOL    MW4 2472   2.463   1.519   1.066  0.1905  0.0285  0.3219
    1SOL     OW 2473   2.265   1.645   1.186 -0.7024 -0.6015  0.0384
    1SOL    HW2 2474   2.268   1.740   1.171  0.5150 -0.5227  0.7240
    1SOL    HW3 2475   2.176   1.620   1.162 -0.7601  0.5725 -1.0226
    1SOL    MW4 2476   2.254   1.654   1.181 -0.5493 -0.4362 -0.0112
    1SOL     OW 2477   2.264   1.923   1.132  0.3170 -0.1855 -0.2348
    1SOL    HW2 2478   2.216   1.999   1.164  1.5994  0.3766  0.4216
    1SOL    HW3 2479   2.264   1.932   1.037  0.8262  0.8728 -0.1409
    1SOL    MW4 2480   2.258   1.934   1.124  0.5534  0.0283 -0.1359
    1SOL     OW 2481   2.493   2.045   1.228 -0.1985  0.1216 -0.1291
    1SOL    HW2 2482   2.572   2.021   1.179  0.8475  1.6028  0.7620
    1SOL    HW3 2483   2.424   1.991   1.191  1.5366 -2.3911  0.1441
    1SOL    MW4 2484   2.494   2.035   1.217  0.1683 -0.0145  0.0246
    1SOL     OW 2485   2.453   2.310   1.140  0.0301 -0.0135 -0.4654
    1SOL    HW2 2486   2.469   2.218   1.159 -0.7682 -0.0807 -0.1165
    1SOL    HW3 2487   2.479   2.319   1.048 -1.3790 -0.9582 -0.9802
    1SOL    MW4 2488   2.458   2.299   1.130 -0.2611 -0.1469 -0.4873
    1SOL     OW 2489   2.229   2.473   1.200 -0.0041  0.5073  0.1704
    1SOL    HW2 2490   2.215   2.475   1.295 -1.6532 -1.4598  0.0176
    1SOL    HW3 2491   2.299   2.409   1.188 -1.0620 -0.6404 -0.0308
    1SOL    MW4 2492   2.236   2.465   1.211 -0.3614  0.0963  0.1236
    1SOL     OW 2493   2.273   2.720   1.082 -0.2750  0.3774  0.2988
    1SOL    HW2 2494   2.264   2.629   1.110 -0.4948  0.6385  1.1238
    1SOL    HW3 2495   2.204   2.766   1.131 -0.8735  0.8117 -0.9318
    1SOL    MW4 2496   2.263   2.714   1.092 -0.3831  0.4692  0.2453
    1SOL     OW 2497   2.497   2.820   1.218  0.2028  0.2844 -0.1485
    1SOL    HW2 2498   2.489   2.838   1.311  0.3514 -0.7966  0.0863
    1SOL    HW3 2499   2.413   2.780   1.194  0.4167 -0.0713 -0.3173
    1SOL    MW4 2500   2.485   2.817   1.227  0.2506  0.0949 -0.1398
    1SOL     OW 2501   2.510   3.096   1.160 -0.2012  0.0843  0.0123
    1SOL    HW2 2502   2.424   3.122   1.191 -1.2101 -1.5588 -1.3296
    1SOL    HW3 2503   2.521   3.006   1.193  0.8818  0.1769 -0.0745
    1SOL    MW4 2504   2.500   3.087   1.169 -0.1912 -0.1202 -0.1762
    1SOL     OW 2505   2.268   3.210   1.235  0.1607 -0.2176  0.1935
    1SOL    HW2 2506   2.261   3.299   1.199 -0.5140 -0.3711 -0.0662
    1SOL    HW3 2507   2.179   3.175   1.228 -0.4885  0.5060  4.0246
    1SOL    MW4 2508   2.255   3.217   1.229 -0.0138 -0.1426  0.6647
    1SOL     OW 2509   2.253   3.480   1.142 -0.6229 -0.3643  0.2410
    1SOL    HW2 2510   2.326   3.530   1.180 -0.2161 -1.1921  0.5521
    1SOL    HW3 2511   2.259   3.498   1.048 -1.1353  1.0272  0.4608
    1SOL    MW4 2512   2.264   3.489   1.134 -0.6371 -0.2899  0.3110
    1SOL     OW 2513   2.492   3.605   1.253 -0.0671  0.2942  0.3661
    1SOL    HW2 2514   2.482   3.622   1.346 -2.3385 -0.7522  0.3492
    1SOL    HW3 2515   2.489   3.692   1.212  0.9421  0.7539  1.2396
    1SOL    MW4 2516   2.490   3.619   1.260 -0.2337  0.2170  0.4791
    1SOL     OW 2517   2.472   3.858   1.163  0.2953  0.0409  0.3574
    1SOL    HW2 2518   2.403   3.907   1.207 -0.5007  0.3384 -1.1933
    1SOL    HW3 2519   2.453   3.867   1.070  2.4152  0.1059 -0.1070
    1SOL    MW4 2520   2.461   3.866   1.157  0.4699  0.0887  0.0916
    1SOL     OW 2521   2.283   4.041   1.249  0.0038  0.4057  0.5755
    1SOL    HW2 2522   2.309   4.126   1.212  2.2775 -0.1444  0.8372
    1SOL    HW3 2523   2.202   4.019   1.204  0.0727  2.1194 -0.4301
    1SOL    MW4 2524   2.276   4.049   1.238  0.3130  0.5589  0.4774
    1SOL     OW 2525   2.292   4.298   1.155  0.4195  0.1649  0.1128
    1SOL    HW2 2526   2.210   4.335   1.188 -0.1669 -1.0654  0.0911
    1SOL    HW3 2527   2.278   4.289   1.060  0.4664 -0.3204  0.1516
    1SOL    MW4 2528   2.279   4.301   1.147  0.3481 -0.0615  0.1152
    1SOL     OW 2529   2.506   4.430   1.251 -0.3696 -0.2100 -0.1722
    1SOL    HW2 2530   2.423   4.394   1.220 -0.1091 -0.3253 -0.7530
    1SOL    HW3 2531   2.528   4.498   1.186  0.2118 -0.4909 -0.2728
    1SOL    MW4 2532   2.498   4.434   1.238 -0.2584 -0.2623 -0.2621
    1SOL     OW 2533   2.965   0.039   1.074 -0.5801  0.2616 -0.2330
    1SOL    HW2 2534   2.954  -0.052   1.103 -1.3324  0.0052 -1.2916
    1SOL    HW3 2535   2.990   0.032   0.982 -0.4209  1.1195 -0.2583
    1SOL    MW4 2536   2.967   0.026   1.066 -0.6583  0.3405 -0.3761
    1SOL     OW 2537   2.712   0.160   1.169 -0.0656  0.1884  0.4466
    1SOL    HW2 2538   2.718   0.158   1.265 -0.0514  0.3470  0.4486
    1SOL    HW3 2539   2.794   0.119   1.140  0.7342  1.7246  0.4836
    1SOL    MW4 2540   2.724   0.154   1.178  0.0420  0.4120  0.4517
    1SOL     OW 2541   2.704   0.416   1.043  0.3351 -0.0788  0.3170
    1SOL    HW2 2542   2.705   0.334   1.092  0.7266 -0.8081 -0.8705
    1SOL    HW3 2543   2.644   0.473   1.091  1.1652 -0.5608  1.9517
    1SOL    MW4 2544   2.697   0.413   1.055  0.4961 -0.2386  0.3762
    1SOL     OW 2545   2.917   0.472   1.204 -0.0554  0.1618  0.4638
    1SOL    HW2 2546   2.919   0.565   1.185  0.7064  0.0740  0.1155
    1SOL    HW3 2547   2.846   0.437   1.149  0.7285  0.2621 -0.6161
    1SOL    MW4 2548   2.908   0.480   1.194  0.1483  0.1635  0.2755
    1SOL     OW 2549   2.918   0.744   1.156 -0.0257  0.3054 -0.0377
    1SOL    HW2 2550   2.986   0.808   1.177  0.9658 -1.4285  2.1771
    1SOL    HW3 2551   2.836   0.790   1.175  0.6762  0.9063  1.6969
    1SOL    MW4 2552   2.916   0.759   1.161  0.1979  0.1559  0.4833
    1SOL     OW 2553   2.703   0.904   1.220 -0.4832 -0.5692 -0.2742
    1SOL    HW2 2554   2.713   0.991   1.182  0.1066 -0.9609 -1.0176
    1SOL    HW3 2555   2.623   0.869   1.181  0.0971 -0.9529 -1.1324
    1SOL    MW4 2556   2.694   0.911   1.210 -0.3285 -0.6716 -0.4857
    1SOL     OW 2557   2.739   1.142   1.092 -0.1171 -0.7662 -0.0825
    1SOL    HW2 2558   2.733   1.144   0.997  2.0087 -0.6070 -0.2444
    1SOL    HW3 2559   2.814   1.198   1.112 -1.1531  0.0124  1.7512
    1SOL    MW4 2560   2.748   1.150   1.082  0.0267 -0.6425  0.1383
    1SOL     OW 2561   2.953   1.302   1.197 -0.2507  0.2126  0.0200
    1SOL    HW2 2562   2.933   1.307   1.291  0.1781  0.4454  0.0995
    1SOL    HW3 2563   2.943   1.392   1.166  0.4017  0.2776  0.0042
    1SOL    MW4 2564   2.949   1.315   1.205 -0.1080  0.2519  0.0286
    1SOL     OW 2565   2.938   1.565   1.110  0.3851 -0.3115  0.1392
    1SOL    HW2 2566   3.017   1.611   1.138 -0.7031  1.1120  0.9261
    1SOL    HW3 2567   2.946   1.558   1.015  1.4610 -0.1816  0.2208
    1SOL    MW4 2568   2.949   1.570   1.101  0.3834 -0.1066  0.2538
    1SOL     OW 2569   2.672   1.625   1.248  0.2379  0.4266 -0.5662
    1SOL    HW2 2570   2.750   1.607   1.196 -0.1325  1.5493 -1.5222
    1SOL    HW3 2571   2.599   1.600   1.192 -0.1484  1.0807 -0.3596
    1SOL    MW4 2572   2.673   1.620   1.234  0.1383  0.6610 -0.6649
    1SOL     OW 2573   2.706   1.916   1.112  0.6651  0.0758 -0.2929
    1SOL    HW2 2574   2.785   1.957   1.146  0.5297  0.3794 -0.3445
    1SOL    HW3 2575   2.699   1.834   1.160  1.0514  0.0145 -0.3395
    1SOL    MW4 2576   2.715   1.910   1.123  0.6983  0.1078 -0.3058
    1SOL     OW 2577   2.935   2.053   1.196 -0.1136  0.0965  0.6247
    1SOL    HW2 2578   2.937   2.056   1.292 -1.0021  1.5276  0.6035
    1SOL    HW3 2579   2.947   2.143   1.168  1.9421 -0.5338 -0.6835
    1SOL    MW4 2580   2.937   2.065   1.205  0.0403  0.2024  0.4494
    1SOL     OW 2581   2.898   2.319   1.125 -0.0482 -0.3786  0.0202
    1SOL    HW2 2582   2.979   2.366   1.145  0.3624 -1.5232  1.1328
    1SOL    HW3 2583   2.836   2.347   1.192 -0.2634 -0.2743 -0.2212
    1SOL    MW4 2584   2.901   2.329   1.136 -0.0224 -0.5159  0.1352
    1SOL     OW 2585   2.678   2.431   1.275  0.0096 -0.4395 -0.1310
    1SOL    HW2 2586   2.669   2.451   1.368  1.7104  2.3556 -0.4993
    1SOL    HW3 2587   2.590   2.406   1.247 -1.2530  2.0318  1.5025
    1SOL    MW4 2588   2.665   2.430   1.283  0.0675  0.2553  0.0359
    1SOL     OW 2589   2.717   2.684   1.150 -0.3825 -0.0887 -0.7395
    1SOL    HW2 2590   2.709   2.602   1.200  0.7152  0.9666  1.2307
    1SOL    HW3 2591   2.634   2.729   1.165 -0.5141 -0.2998 -0.8278
    1SOL    MW4 2592   2.705   2.679   1.159 -0.2551  0.0226 -0.4911
    1SOL     OW 2593   2.949   2.811   1.229 -0.2269 -0.0034  0.1446
    1SOL    HW2 2594   2.959   2.822   1.324  1.5827  0.9895 -0.1230
    1SOL    HW3 2595   2.866   2.766   1.219 -0.6768  0.2876  2.1885
    1SOL    MW4 2596   2.940   2.807   1.241 -0.0474  0.1657  0.3788
    1SOL     OW 2597   2.931   3.091   1.175 -0.1139  0.5490  0.2257
    1SOL    HW2 2598   2.939   2.997   1.193  0.5845  0.5915  0.1590
    1SOL    HW3 2599   2.920   3.097   1.080  0.3043  0.5554  0.1745
    1SOL    MW4 2600   2.931   3.080   1.165  0.0339  0.5553  0.2102
    1SOL     OW 2601   2.734   3.248   1.257  0.3520 -0.2330 -0.4810
    1SOL    HW2 2602   2.817   3.204   1.238  0.2166 -1.4891  1.5735
    1SOL    HW3 2603   2.667   3.187   1.225  0.1868 -0.8842  1.0590
    1SOL    MW4 2604   2.736   3.234   1.250  0.3126 -0.4849 -0.0067
    1SOL     OW 2605   2.685   3.479   1.124  0.2744 -0.7171 -0.2099
    1SOL    HW2 2606   2.693   3.396   1.170  1.2951  0.3251  1.5843
    1SOL    HW3 2607   2.607   3.520   1.161  0.9345  0.0008  0.4141
    1SOL    MW4 2608   2.676   3.474   1.135  0.4964 -0.4847  0.1091
    1SOL     OW 2609   2.886   3.592   1.264 -0.1101 -0.5290 -0.0563
    1SOL    HW2 2610   2.963   3.544   1.235 -1.6018 -2.7975 -0.4035
    1SOL    HW3 2611   2.812   3.548   1.222 -1.7318  0.5684  1.5223
    1SOL    MW4 2612   2.886   3.580   1.255 -0.5212 -0.6833  0.1061
    1SOL     OW 2613   2.901   3.856   1.209 -0.0158 -0.0718  0.1696
    1SOL    HW2 2614   2.993   3.883   1.211 -0.3541  1.0645  0.8312
    1SOL    HW3 2615   2.902   3.764   1.235  0.8332  0.2293  1.2245
    1SOL    MW4 2616   2.913   3.847   1.213  0.0515  0.1180  0.3960
    1SOL     OW 2617   2.684   4.009   1.278 -0.1980 -0.5034 -0.4224
    1SOL    HW2 2618   2.761   3.964   1.244 -0.1804 -1.7041  1.1408
    1SOL    HW3 2619   2.610   3.967   1.234 -0.0314 -0.2035 -0.9895
    1SOL    MW4 2620   2.684   3.997   1.268 -0.1736 -0.6227 -0.2909
    1SOL     OW 2621   2.718   4.270   1.165  0.5279 -0.2302 -0.3082
    1SOL    HW2 2622   2.704   4.182   1.200  1.6468 -0.7614 -1.1364
    1SOL    HW3 2623   2.651   4.324   1.206  0.3141 -1.3207  0.7921
    1SOL    MW4 2624   2.708   4.265   1.175  0.6475 -0.4439 -0.2723
    1SOL     OW 2625   2.925   4.442   1.174  0.0612  0.4529  0.0213
    1SOL    HW2 2626   3.007   4.394   1.180 -0.2343 -0.3779 -1.8737
    1SOL    HW3 2627   2.858   4.373   1.168 -0.6919  1.1164  0.7439
    1SOL    MW4 2628   2.927   4.426   1.174 -0.0770  0.4306 -0.1333
    1SOL     OW 2629   3.417   4.639   1.115  0.4776 -0.0415 -0.1289
    1SOL    HW2 2630   3.481   4.692   1.164  2.4468 -0.4865 -2.1309
    1SOL    HW3 2631   3.332   4.665   1.151  1.5252  3.1262  0.2406
    1SOL    MW4 2632   3.414   4.650   1.126  0.8757  0.3181 -0.3444
    1SOL     OW 2633   3.195   0.092   1.215  0.6724  0.0463  0.0280
    1SOL    HW2 2634   3.182   0.088   1.310  0.1221  0.4162 -0.0324
    1SOL    HW3 2635   3.108   0.077   1.178  0.5953  1.4708 -0.3934
    1SOL    MW4 2636   3.182   0.089   1.223  0.5894  0.2830 -0.0354
    1SOL     OW 2637   3.162   0.364   1.110  0.1660  0.4058 -0.0591
    1SOL    HW2 2638   3.182   0.283   1.157 -0.8131 -2.0331 -3.6246
    1SOL    HW3 2639   3.078   0.392   1.145 -0.8243 -1.6794 -0.6846
    1SOL    MW4 2640   3.154   0.357   1.121 -0.0937 -0.1911 -0.6121
    1SOL     OW 2641   3.392   0.502   1.190 -0.4627 -0.4366  0.5661
    1SOL    HW2 2642   3.388   0.593   1.161 -1.6808 -0.4730  0.6062
    1SOL    HW3 2643   3.306   0.466   1.169 -0.7782 -0.9493  2.5624
    1SOL    MW4 2644   3.380   0.509   1.184 -0.6652 -0.5090  0.8347
    1SOL     OW 2645   3.369   0.785   1.153  0.3765 -0.0265  0.0153
    1SOL    HW2 2646   3.366   0.786   1.058  2.3255 -0.5020 -0.0727
    1SOL    HW3 2647   3.286   0.824   1.180 -0.6630 -0.8715 -1.8578
    1SOL    MW4 2648   3.358   0.790   1.144  0.4966 -0.2007 -0.2434
    1SOL     OW 2649   3.141   0.911   1.213 -0.1036  0.1990  0.5114
    1SOL    HW2 2650   3.123   0.922   1.307  1.8990  0.9157  0.8452
    1SOL    HW3 2651   3.156   1.000   1.181 -0.0052 -0.1126 -0.3174
    1SOL    MW4 2652   3.141   0.924   1.222  0.1736  0.2524  0.4460
    1SOL     OW 2653   3.178   1.151   1.103 -0.3115  0.1976  0.1816
    1SOL    HW2 2654   3.256   1.195   1.134 -0.6650 -0.5882  2.2838
    1SOL    HW3 2655   3.106   1.208   1.129 -0.4682  0.8568 -1.6312
    1SOL    MW4 2656   3.179   1.164   1.110 -0.3786  0.1808  0.2198
    1SOL     OW 2657   3.392   1.325   1.182 -0.0535  0.2004 -0.2018
    1SOL    HW2 2658   3.405   1.305   1.275 -0.4839  0.2009 -0.1377
    1SOL    HW3 2659   3.420   1.416   1.173  0.7774 -0.0530 -0.2465
    1SOL    MW4 2660   3.397   1.334   1.193 -0.0007  0.1669 -0.1992
    1SOL     OW 2661   3.408   1.582   1.063 -0.1677 -0.1856 -0.4864
    1SOL    HW2 2662   3.480   1.625   1.109 -0.4597  0.2739 -0.4537
    1SOL    HW3 2663   3.329   1.614   1.107 -0.5064  1.0946 -1.9937
    1SOL    MW4 2664   3.407   1.592   1.075 -0.2513  0.0441 -0.6808
    1SOL     OW 2665   3.187   1.671   1.190  0.2834  0.1612 -0.2322
    1SOL    HW2 2666   3.176   1.660   1.285  1.9326  0.3322 -0.0043
    1SOL    HW3 2667   3.164   1.762   1.174 -0.6732 -0.0477 -0.1211
    1SOL    MW4 2668   3.182   1.681   1.201  0.3746  0.1562 -0.1875
    1SOL     OW 2669   3.172   1.939   1.114 -0.0070 -0.2235  0.3673
    1SOL    HW2 2670   3.234   2.002   1.150 -0.7228  0.6485  0.0881
    1SOL    HW3 2671   3.086   1.976   1.135 -0.4275 -0.8774 -0.2015
    1SOL    MW4 2672   3.169   1.952   1.122 -0.1569 -0.1948  0.2553
    1SOL     OW 2673   3.390   2.107   1.211 -0.3423 -0.3908  0.2149
    1SOL    HW2 2674   3.464   2.059   1.174 -0.1524  0.8351 -1.0156
    1SOL    HW3 2675   3.391   2.191   1.166 -1.8906  0.0130  0.9121
    1SOL    MW4 2676   3.400   2.111   1.200 -0.5214 -0.1762  0.1446
    1SOL     OW 2677   3.363   2.335   1.081  0.0542 -0.2747  0.3184
    1SOL    HW2 2678   3.430   2.380   1.133 -0.0417  1.6083 -1.1405
    1SOL    HW3 2679   3.280   2.372   1.110 -0.1941 -1.0048  0.5578
    1SOL    MW4 2680   3.361   2.345   1.091  0.0086 -0.1225  0.1575
    1SOL     OW 2681   3.139   2.432   1.204 -0.1425 -0.3771 -0.2597
    1SOL    HW2 2682   3.152   2.422   1.298 -1.5292 -0.3547 -0.0569
    1SOL    HW3 2683   3.161   2.524   1.186 -3.9353  0.8044  0.7766
    1SOL    MW4 2684   3.144   2.443   1.214 -0.8259 -0.2184 -0.0962
    1SOL     OW 2685   3.186   2.698   1.107  0.1185 -0.4250  0.0265
    1SOL    HW2 2686   3.103   2.737   1.133  0.4955  0.4249 -0.0121
    1SOL    HW3 2687   3.184   2.700   1.011  0.1876 -0.3991  0.0258
    1SOL    MW4 2688   3.175   2.704   1.098  0.1776 -0.3095  0.0213
    1SOL     OW 2689   3.405   2.829   1.213  0.2152 -0.6121  0.6164
    1SOL    HW2 2690   3.394   2.916   1.176 -1.0256  0.4164  3.3451
    1SOL    HW3 2691   3.323   2.783   1.191  0.1875 -0.5589  0.6095
    1SOL    MW4 2692   3.393   2.834   1.205  0.0477 -0.4694  0.9757
    1SOL     OW 2693   3.372   3.088   1.123 -0.1821  0.1275 -0.2493
    1SOL    HW2 2694   3.448   3.136   1.157 -0.5755  0.1231  0.6460
    1SOL    HW3 2695   3.297   3.127   1.167 -0.7571  0.4275 -1.4634
    1SOL    MW4 2696   3.372   3.099   1.133 -0.3097  0.1664 -0.2915
    1SOL     OW 2697   3.165   3.224   1.244  0.1414 -0.0073  0.6179
    1SOL    HW2 2698   3.161   3.234   1.339  1.2610  0.9272  0.5714
    1SOL    HW3 2699   3.084   3.177   1.222  0.0694 -0.6030  2.0683
    1SOL    MW4 2700   3.153   3.219   1.254  0.2797  0.0372  0.8030
    1SOL     OW 2701   3.137   3.476   1.127 -0.2383  0.0415 -0.1937
    1SOL    HW2 2702   3.211   3.530   1.155 -0.5320  0.1962  0.2937
    1SOL    HW3 2703   3.149   3.393   1.172  0.8864 -0.7475 -1.9023
    1SOL    MW4 2704   3.148   3.472   1.137 -0.1287 -0.0420 -0.3548
    1SOL     OW 2705   3.345   3.638   1.216 -0.0470  0.5608  0.4685
    1SOL    HW2 2706   3.353   3.655   1.310  0.5649  0.1315  0.5004
    1SOL    HW3 2707   3.410   3.570   1.198  0.2680  1.0728 -0.3814
    1SOL    MW4 2708   3.354   3.631   1.226  0.0751  0.5717  0.3605
    1SOL     OW 2709   3.392   3.890   1.142  0.3004 -0.1989 -0.1310
    1SOL    HW2 2710   3.371   3.799   1.166 -0.4494  0.1627  0.6284
    1SOL    HW3 2711   3.310   3.937   1.155  0.8332  0.6934  0.0099
    1SOL    MW4 2712   3.378   3.884   1.147  0.2718 -0.0336 -0.0123
    1SOL     OW 2713   3.141   4.002   1.202 -0.4065  0.6331  0.3609
    1SOL    HW2 2714   3.156   4.005   1.296 -2.0514  0.5263  0.6299
    1SOL    HW3 2715   3.129   4.094   1.177  0.1412  0.6723  0.2207
    1SOL    MW4 2716   3.142   4.015   1.211 -0.5512  0.6242  0.3780
    1SOL     OW 2717   3.153   4.275   1.125 -0.1397  0.0824 -0.4045
    1SOL    HW2 2718   3.237   4.305   1.158 -0.3649  0.7929 -0.4601
    1SOL    HW3 2719   3.162   4.278   1.030 -0.3233  0.4512 -0.4131
    1SOL    MW4 2720   3.165   4.280   1.117 -0.1938  0.2251 -0.4131
    1SOL     OW 2721   3.399   4.382   1.221  0.5614 -0.0646 -0.0760
    1SOL    HW2 2722   3.470   4.328   1.186 -0.3081 -0.2369 -1.6201
    1SOL    HW3 2723   3.414   4.468   1.183  0.3231  0.0704  0.1363
    1SOL    MW4 2724   3.410   4.386   1.212  0.4151 -0.0691 -0.2517
    1SOL     OW 2725   3.801   4.642   1.111  0.2125 -0.1186 -0.0984
    1SOL    HW2 2726   3.792   4.553   1.144  2.1880 -0.2772  0.0372
    1SOL    HW3 2727   3.790   4.633   1.016  0.1722 -0.4616 -0.0635
    1SOL    MW4 2728   3.798   4.629   1.103  0.4678 -0.1850 -0.0759
    1SOL     OW 2729   3.610   0.114   1.255 -0.3217 -0.2433  0.5089
    1SOL    HW2 2730   3.613   0.201   1.214 -2.4234 -0.4991 -0.2092
    1SOL    HW3 2731   3.678   0.064   1.210  0.9861  1.0450  0.9981
    1SOL    MW4 2732   3.619   0.119   1.244 -0.4263 -0.1071  0.4786
    1SOL     OW 2733   3.612   0.359   1.157 -0.0134 -0.5240  0.1279
    1SOL    HW2 2734   3.683   0.416   1.187 -0.2455 -0.5560  0.7412
    1SOL    HW3 2735   3.537   0.418   1.147 -0.5102 -0.8870  1.6961
    1SOL    MW4 2736   3.612   0.375   1.160 -0.1097 -0.5761  0.4157
    1SOL     OW 2737   3.821   0.517   1.248  0.2729 -0.4301 -0.1864
    1SOL    HW2 2738   3.905   0.481   1.221  0.3436 -0.2750 -0.1777
    1SOL    HW3 2739   3.819   0.604   1.207 -0.2208 -0.7399 -0.8274
    1SOL    MW4 2740   3.832   0.524   1.239  0.2170 -0.4505 -0.2698
    1SOL     OW 2741   3.811   0.762   1.113 -0.2733 -0.4153 -0.0303
    1SOL    HW2 2742   3.881   0.820   1.143 -1.1846  0.9218 -0.4806
    1SOL    HW3 2743   3.731   0.799   1.150 -1.0367 -0.5723 -1.5072
    1SOL    MW4 2744   3.809   0.774   1.122 -0.4942 -0.2596 -0.2847
    1SOL     OW 2745   3.594   0.894   1.238 -0.4055  0.0128 -0.2099
    1SOL    HW2 2746   3.597   0.978   1.193 -1.3193  0.6447  0.8832
    1SOL    HW3 2747   3.512   0.854   1.210 -0.3848 -0.1374 -0.0593
    1SOL    MW4 2748   3.584   0.899   1.229 -0.5233  0.0764 -0.0459
    1SOL     OW 2749   3.591   1.157   1.105  0.3936 -0.7790  0.1389
    1SOL    HW2 2750   3.673   1.192   1.139  0.4664 -0.2942 -0.5344
    1SOL    HW3 2751   3.525   1.222   1.130  0.4805 -0.3166 -0.8409
    1SOL    MW4 2752   3.593   1.170   1.113  0.4146 -0.6539 -0.0792
    1SOL     OW 2753   3.801   1.272   1.225 -0.3625  0.0144  0.0105
    1SOL    HW2 2754   3.798   1.281   1.320  2.1777 -0.1200  0.1531
    1SOL    HW3 2755   3.799   1.362   1.192 -0.5621  0.0851  0.2175
    1SOL    MW4 2756   3.800   1.285   1.233 -0.0536  0.0060  0.0566
    1SOL     OW 2757   3.797   1.522   1.099  0.4550  0.1674  0.7444
    1SOL    HW2 2758   3.879   1.557   1.133  0.0578  0.9089  0.9602
    1SOL    HW3 2759   3.815   1.504   1.006  0.9891 -0.0980  0.8972
    1SOL    MW4 2760   3.810   1.524   1.091  0.4733  0.2301  0.7929
    1SOL     OW 2761   3.604   1.697   1.208 -0.1004  0.0102  0.0034
    1SOL    HW2 2762   3.614   1.787   1.176  0.8653  0.4568  1.5557
    1SOL    HW3 2763   3.675   1.648   1.165  0.6073  0.4079  0.7220
    1SOL    MW4 2764   3.615   1.702   1.198  0.1206  0.1217  0.3029
    1SOL     OW 2765   3.619   1.952   1.127 -0.0745 -0.4981  0.0672
    1SOL    HW2 2766   3.703   1.993   1.149 -0.0556 -0.3005 -0.3691
    1SOL    HW3 2767   3.626   1.933   1.034  0.2330 -2.2224  0.4215
    1SOL    MW4 2768   3.631   1.955   1.118 -0.0317 -0.6995  0.0565
    1SOL     OW 2769   4.063   1.912   1.147 -0.1811  0.0253  0.0476
    1SOL    HW2 2770   3.977   1.947   1.171  0.5218  1.6242  0.2615
    1SOL    HW3 2771   4.057   1.818   1.167 -2.5544 -0.2858 -1.8060
    1SOL    MW4 2772   4.051   1.904   1.152 -0.4015  0.1953 -0.1687
    1SOL     OW 2773   3.847   2.046   1.227  0.0548 -0.3952  0.0786
    1SOL    HW2 2774   3.840   2.139   1.203 -0.7448 -0.4188  0.2164
    1SOL    HW3 2775   3.849   2.047   1.323 -0.6374 -0.5676  0.0942
    1SOL    MW4 2776   3.847   2.059   1.237 -0.1421 -0.4213  0.0988
    1SOL     OW 2777   3.556   2.416   1.264  0.0252 -0.1058  0.5514
    1SOL    HW2 2778   3.569   2.431   1.358  0.0865  0.9132  0.3909
    1SOL    HW3 2779   3.626   2.356   1.239  1.0655  0.9790  0.8154
    1SOL    MW4 2780   3.567   2.410   1.273  0.1707  0.1717  0.5652
    1SOL     OW 2781   3.614   2.663   1.144  0.4929  0.2814  0.0013
    1SOL    HW2 2782   3.600   2.579   1.189  0.3512  1.2582  1.7942
    1SOL    HW3 2783   3.544   2.719   1.176  1.7280  1.6800  0.2953
    1SOL    MW4 2784   3.603   2.659   1.154  0.6373  0.5951  0.2766
    1SOL     OW 2785   3.823   2.818   1.211  0.4772  0.3718  0.0992
    1SOL    HW2 2786   3.822   2.847   1.302 -1.3048  1.0323 -0.1221
    1SOL    HW3 2787   3.749   2.758   1.204  1.1714 -0.4006 -0.6905
    1SOL    MW4 2788   3.813   2.814   1.222  0.3335  0.3569 -0.0342
    1SOL     OW 2789   3.833   3.087   1.118  0.2345 -0.0162 -0.1958
    1SOL    HW2 2790   3.836   2.992   1.130  1.3418 -0.0241 -0.4670
    1SOL    HW3 2791   3.818   3.099   1.025  0.9418  0.0757 -0.2995
    1SOL    MW4 2792   3.831   3.076   1.108  0.4740 -0.0050 -0.2453
    1SOL     OW 2793   3.594   3.214   1.235  0.5803  0.2825  0.2466
    1SOL    HW2 2794   3.575   3.299   1.196 -0.9022  0.2946  0.9589
    1SOL    HW3 2795   3.679   3.190   1.199  0.4877  1.5334 -0.8610
    1SOL    MW4 2796   3.603   3.222   1.225  0.3724  0.4492  0.1943
    1SOL     OW 2797   3.556   3.476   1.129 -0.0679 -0.4778 -0.3546
    1SOL    HW2 2798   3.647   3.492   1.152 -0.6319  0.5831  1.2124
    1SOL    HW3 2799   3.548   3.508   1.039  0.6334  1.2957  0.1985
    1SOL    MW4 2800   3.567   3.482   1.120 -0.0494 -0.1037 -0.0749
    1SOL     OW 2801   3.807   3.548   1.208  0.1138 -0.2085  0.1418
    1SOL    HW2 2802   3.825   3.527   1.300  1.6758  0.6437  0.0338
    1SOL    HW3 2803   3.825   3.641   1.200  2.9568 -0.8661 -1.7200
    1SOL    MW4 2804   3.812   3.557   1.219  0.6952 -0.1829 -0.1180
    1SOL     OW 2805   3.850   3.831   1.175 -0.1184 -0.3344  0.0014
    1SOL    HW2 2806   3.769   3.860   1.217 -1.3685 -0.0634 -2.5606
    1SOL    HW3 2807   3.844   3.862   1.085  2.5354 -0.9011 -0.4236
    1SOL    MW4 2808   3.838   3.839   1.169  0.0665 -0.3736 -0.3927
    1SOL     OW 2809   3.636   3.993   1.252 -0.5119  0.1854 -0.4196
    1SOL    HW2 2810   3.628   4.008   1.346 -0.6222 -1.3174 -0.1685
    1SOL    HW3 2811   3.554   3.949   1.228  0.7678 -2.2344 -0.5999
    1SOL    MW4 2812   3.624   3.989   1.261 -0.3579 -0.3319 -0.4102
    1SOL     OW 2813   3.612   4.230   1.131  0.1260 -0.4070  0.2292
    1SOL    HW2 2814   3.622   4.139   1.160  1.4163  0.0875  1.3778
    1SOL    HW3 2815   3.602   4.224   1.036  2.2560 -1.6131  0.0529
    1SOL    MW4 2816   3.612   4.217   1.122  0.5772 -0.5012  0.3575
    1SOL     OW 2817   3.808   4.403   1.235 -0.1805 -0.4387  0.0667
    1SOL    HW2 2818   3.800   4.416   1.329  1.5768 -2.5795  0.5613
    1SOL    HW3 2819   3.744   4.335   1.214  1.6494 -2.3131  0.3396
    1SOL    MW4 2820   3.798   4.396   1.244  0.2928 -0.9685  0.1678
    1SOL     OW 2821   4.271   0.026   1.190 -0.7033 -0.1645  0.1704
    1SOL    HW2 2822   4.257  -0.068   1.194  0.1201 -0.4609 -2.6878
    1SOL    HW3 2823   4.184   0.064   1.201 -1.0792 -1.2774  1.0368
    1SOL    MW4 2824   4.258   0.019   1.192 -0.6442 -0.3510 -0.0925
    1SOL     OW 2825   4.007   0.127   1.223 -0.2958  0.2969  0.2077
    1SOL    HW2 2826   4.000   0.116   1.317  0.4194  0.3045  0.2671
    1SOL    HW3 2827   3.939   0.070   1.187 -1.9895  1.9271  0.7852
    1SOL    MW4 2828   3.997   0.118   1.230 -0.4246  0.5130  0.2917
    1SOL     OW 2829   4.060   0.400   1.155 -0.3434 -0.1292  0.2640
    1SOL    HW2 2830   4.044   0.307   1.170 -0.8050 -0.1647 -0.4644
    1SOL    HW3 2831   4.082   0.406   1.062  0.6132  0.3619  0.5170
    1SOL    MW4 2832   4.061   0.388   1.145 -0.2780 -0.0691  0.2012
    1SOL     OW 2833   4.302   0.544   1.238  0.2380 -0.3111 -0.1600
    1SOL    HW2 2834   4.300   0.540   1.333  1.2842  1.1191 -0.0608
    1SOL    HW3 2835   4.217   0.508   1.210 -0.7668  0.8055  1.3685
    1SOL    MW4 2836   4.290   0.539   1.247  0.2437  0.0249  0.0547
    1SOL     OW 2837   4.250   0.796   1.096  0.3063  0.4136 -0.2145
    1SOL    HW2 2838   4.268   0.706   1.121 -2.0856  0.2298  1.0228
    1SOL    HW3 2839   4.321   0.846   1.135  2.4530 -1.0673 -2.1557
    1SOL    MW4 2840   4.261   0.791   1.105  0.2737  0.1939 -0.3073
    1SOL     OW 2841   4.024   0.918   1.205  0.3488  0.1873 -0.1243
    1SOL    HW2 2842   4.033   0.895   1.297  0.5579 -0.6290 -0.3412
    1SOL    HW3 2843   4.095   0.872   1.161  0.1464  0.4280 -0.7209
    1SOL    MW4 2844   4.034   0.909   1.211  0.3495  0.1114 -0.2317
    1SOL     OW 2845   4.027   1.169   1.109  0.1411  0.1316  0.1465
    1SOL    HW2 2846   4.022   1.078   1.140 -0.8361  0.1878  0.1689
    1SOL    HW3 2847   3.949   1.211   1.146  0.1030  0.7450 -0.6221
    1SOL    MW4 2848   4.016   1.162   1.118  0.0072  0.2198  0.0480
    1SOL     OW 2849   4.254   1.271   1.245 -0.1068  0.0912  0.0140
    1SOL    HW2 2850   4.230   1.279   1.337 -0.0756  0.4367 -0.0046
    1SOL    HW3 2851   4.176   1.237   1.203 -0.1596  0.0450  0.1512
    1SOL    MW4 2852   4.241   1.268   1.251 -0.1097  0.1308  0.0297
    1SOL     OW 2853   4.257   1.534   1.145 -0.0556 -0.5782 -0.3017
    1SOL    HW2 2854   4.263   1.443   1.172  1.0698 -0.8135 -1.2966
    1SOL    HW3 2855   4.325   1.579   1.195 -0.3730 -0.3449 -0.0740
    1SOL    MW4 2856   4.267   1.528   1.155  0.0505 -0.5785 -0.4029
    1SOL     OW 2857   4.020   1.647   1.224  0.5916  0.0248  0.2926
    1SOL    HW2 2858   4.023   1.643   1.320 -0.3967 -0.5543  0.3068
    1SOL    HW3 2859   4.101   1.605   1.196  0.0016 -1.5311  0.8528
    1SOL    MW4 2860   4.031   1.641   1.233  0.3834 -0.2569  0.3684
    1SOL     OW 2861   3.429   1.821   0.363 -0.1406 -0.3583 -0.1093
    1SOL    HW2 2862   3.501   1.766   0.393  0.3498 -0.1289 -0.8629
    1SOL    HW3 2863   3.460   1.911   0.375 -0.8724 -0.2339  0.9575
    1SOL    MW4 2864   3.442   1.826   0.368 -0.1724 -0.3116 -0.0680
    1SOL     OW 2865   4.293   2.053   1.218 -0.1099 -0.3611  0.3855
    1SOL    HW2 2866   4.281   2.142   1.186 -0.6722  0.3877  2.5591
    1SOL    HW3 2867   4.213   2.007   1.193 -0.1292 -0.0531 -0.1206
    1SOL    MW4 2868   4.281   2.058   1.211 -0.1864 -0.2215  0.6055
    1SOL     OW 2869   4.263   2.317   1.130 -0.1092  0.2689 -0.2272
    1SOL    HW2 2870   4.172   2.333   1.156 -0.4089  0.3926 -1.3163
    1SOL    HW3 2871   4.259   2.311   1.035  0.8211 -1.0020 -0.2038
    1SOL    MW4 2872   4.250   2.318   1.121 -0.0253  0.1175 -0.3678
    1SOL     OW 2873   4.002   2.426   1.205 -0.2275 -0.4142  0.4293
    1SOL    HW2 2874   4.020   2.433   1.299 -1.1026 -1.1018  0.6606
    1SOL    HW3 2875   4.008   2.515   1.172 -0.3675 -0.1068  1.2291
    1SOL    MW4 2876   4.005   2.439   1.213 -0.3614 -0.4642  0.5653
    1SOL     OW 2877   4.044   2.678   1.106 -0.3334  0.2198  0.2316
    1SOL    HW2 2878   3.977   2.737   1.139  0.4070  1.4510 -0.3793
    1SOL    HW3 2879   4.052   2.701   1.013  0.2539 -0.5633  0.0827
    1SOL    MW4 2880   4.037   2.689   1.098 -0.1583  0.2789  0.1314
    1SOL     OW 2881   4.280   2.792   1.203 -0.1793  0.2304  0.2906
    1SOL    HW2 2882   4.284   2.880   1.164 -1.0114  0.9142  1.6987
    1SOL    HW3 2883   4.210   2.748   1.154  0.5300  0.2034 -0.7071
    1SOL    MW4 2884   4.271   2.798   1.191 -0.1955  0.3173  0.3449
    1SOL     OW 2885   4.303   3.045   1.111 -0.1053 -0.5300 -0.2040
    1SOL    HW2 2886   4.236   3.103   1.149 -2.6703 -2.9663 -0.8145
    1SOL    HW3 2887   4.298   3.061   1.017  1.0087  0.1092 -0.1594
    1SOL    MW4 2888   4.293   3.055   1.104 -0.2961 -0.7670 -0.2786
    1SOL     OW 2889   4.104   3.220   1.196  0.2991  0.1017 -0.1606
    1SOL    HW2 2890   4.073   3.228   1.287  1.2360  0.8424  0.1119
    1SOL    HW3 2891   4.040   3.163   1.154 -0.5092  0.2619  0.8028
    1SOL    MW4 2892   4.091   3.214   1.203  0.3166  0.2205  0.0024
    1SOL     OW 2893   4.101   3.489   1.089 -0.3954  0.2161  0.0159
    1SOL    HW2 2894   4.112   3.403   1.130  1.1343  0.8953  1.0788
    1SOL    HW3 2895   4.014   3.518   1.117  0.0918  0.0893  1.7326
    1SOL    MW4 2896   4.091   3.482   1.098 -0.1297  0.2892  0.3825
    1SOL     OW 2897   4.290   3.598   1.239  0.1614 -0.0367  0.4948
    1SOL    HW2 2898   4.225   3.554   1.184 -0.8704  0.1484  1.5462
    1SOL    HW3 2899   4.374   3.562   1.210 -0.6050 -2.3199  0.9620
    1SOL    MW4 2900   4.292   3.587   1.228 -0.0753 -0.3135  0.6951
    1SOL     OW 2901   4.275   3.855   1.133 -0.1735  0.3303 -0.2905
    1SOL    HW2 2902   4.203   3.898   1.180  0.3093  1.1584 -0.2884
    1SOL    HW3 2903   4.276   3.766   1.167 -1.1876  0.3193 -0.2802
    1SOL    MW4 2904   4.265   3.849   1.144 -0.2441  0.4382 -0.2888
    1SOL     OW 2905   4.064   3.982   1.293  0.5550 -0.1792 -0.4572
    1SOL    HW2 2906   4.049   4.070   1.258 -1.1481 -0.7106 -1.0846
    1SOL    HW3 2907   3.995   3.929   1.255 -0.7780 -0.9980  2.9646
    1SOL    MW4 2908   4.053   3.987   1.283  0.1545 -0.3574 -0.0885
    1SOL     OW 2909   4.046   4.247   1.168  0.3868 -0.0108  0.4634
    1SOL    HW2 2910   3.974   4.303   1.198  1.4534  0.8467  1.4987
    1SOL    HW3 2911   4.050   4.261   1.074 -0.3963  0.4260  0.4930
    1SOL    MW4 2912   4.037   4.256   1.160  0.4244  0.1597  0.6038
    1SOL     OW 2913   4.273   4.382   1.225  0.4634  0.0550  0.2092
    1SOL    HW2 2914   4.193   4.344   1.188  0.1410 -0.1708  1.1358
    1SOL    HW3 2915   4.344   4.337   1.179  0.0633  0.5329 -0.9035
    1SOL    MW4 2916   4.272   4.371   1.214  0.3681  0.0882  0.1847
    1SOL     OW 2917   0.248   4.661   1.615 -0.1228  0.2545  0.5922
    1SOL    HW2 2918   0.332   4.701   1.591  0.0643  0.2283  1.2009
    1SOL    HW3 2919   0.183   4.726   1.590  0.0629  0.1784 -0.0974
    1SOL    MW4 2920   0.251   4.675   1.609 -0.0736  0.2413  0.5816
    1SOL     OW 2921   0.035   0.134   1.536 -0.0294 -0.0556 -0.0293
    1SOL    HW2 2922  -0.036   0.080   1.572  0.2564 -0.4155 -0.0004
    1SOL    HW3 2923   0.030   0.119   1.442  0.5953 -0.8115  0.0525
    1SOL    MW4 2924   0.025   0.125   1.528  0.0907 -0.2028 -0.0145
    1SOL     OW 2925   0.044   0.386   1.635 -0.0020  0.2653 -0.0061
    1SOL    HW2 2926   0.049   0.384   1.730 -0.1882  0.9376  0.0220
    1SOL    HW3 2927   0.025   0.296   1.610 -3.3987  0.7040  0.8083
    1SOL    MW4 2928   0.042   0.374   1.644 -0.4747  0.4119  0.1049
    1SOL     OW 2929   0.267   0.504   1.502  0.3106 -0.6176  0.2722
    1SOL    HW2 2930   0.193   0.467   1.550 -0.7172  0.3664 -0.5056
    1SOL    HW3 2931   0.243   0.493   1.410  1.1641 -0.3679  0.0197
    1SOL    MW4 2932   0.254   0.498   1.496  0.2877 -0.4548  0.1364
    1SOL     OW 2933   0.245   0.785   1.574 -0.0913  0.3679  0.1165
    1SOL    HW2 2934   0.253   0.691   1.558 -0.8572  0.2334  0.4825
    1SOL    HW3 2935   0.328   0.822   1.546 -0.0460 -0.3358 -0.6929
    1SOL    MW4 2936   0.257   0.778   1.568 -0.1864  0.2574  0.0579
    1SOL     OW 2937   4.475   0.878   1.485 -0.7090 -0.1872  0.3661
    1SOL    HW2 2938   4.455   0.961   1.528 -1.0915  0.0241 -0.2284
    1SOL    HW3 2939   4.564   0.857   1.514  0.3583  1.6801 -1.4652
    1SOL    MW4 2940   4.484   0.886   1.495 -0.6187  0.0870  0.0461
    1SOL     OW 2941   4.464   1.142   1.591 -0.1372 -0.2635  0.2663
    1SOL    HW2 2942   4.456   1.140   1.686  0.3326 -3.7068  0.2832
    1SOL    HW3 2943   4.546   1.189   1.575  0.2256 -0.4302  1.5806
    1SOL    MW4 2944   4.474   1.148   1.602 -0.0272 -0.7398  0.4420
    1SOL     OW 2945   0.215   1.273   1.525 -0.6404  0.1644 -0.5068
    1SOL    HW2 2946   0.292   1.223   1.551 -1.0550 -0.0003  0.4248
    1SOL    HW3 2947   0.223   1.356   1.572 -1.4517 -0.1778  0.2467
    1SOL    MW4 2948   0.226   1.277   1.535 -0.8021  0.0975 -0.2844
    1SOL     OW 2949   0.237   1.531   1.631 -0.2773  0.0527  0.1208
    1SOL    HW2 2950   0.243   1.540   1.726 -0.2785  0.4888  0.0801
    1SOL    HW3 2951   0.161   1.583   1.606  1.0491  1.8111 -0.3671
    1SOL    MW4 2952   0.228   1.539   1.640 -0.1024  0.3422  0.0510
    1SOL     OW 2953   0.021   1.654   1.548 -0.1479  0.2027 -0.3873
    1SOL    HW2 2954   0.032   1.749   1.542 -2.9898  0.6491  1.0294
    1SOL    HW3 2955   0.007   1.627   1.457 -0.6941  1.3268 -0.6551
    1SOL    MW4 2956   0.021   1.663   1.535 -0.5949  0.4098 -0.2357
    1SOL     OW 2957   0.035   1.940   1.626  0.1035 -0.1628  0.0542
    1SOL    HW2 2958   0.027   1.932   1.721 -1.6191  0.8660  0.0111
    1SOL    HW3 2959  -0.052   1.967   1.596  1.0980  1.3609 -1.6005
    1SOL    MW4 2960   0.023   1.942   1.634  0.0074  0.1738 -0.1698
    1SOL     OW 2961   0.269   2.067   1.554  0.1159  0.1025 -0.6120
    1SOL    HW2 2962   0.182   2.042   1.587 -1.3358  1.9115 -2.9091
    1SOL    HW3 2963   0.267   2.044   1.461  1.0967  2.5771 -1.2917
    1SOL    MW4 2964   0.257   2.061   1.546  0.0538  0.6676 -1.0048
    1SOL     OW 2965   0.231   2.321   1.667 -0.3774  0.1302  0.6909
    1SOL    HW2 2966   0.239   2.309   1.762  1.4115 -0.2543  0.5216
    1SOL    HW3 2967   0.255   2.236   1.630 -0.3493  0.4923 -0.1273
    1SOL    MW4 2968   0.236   2.308   1.674 -0.1377  0.1268  0.5606
    1SOL     OW 2969   0.026   2.439   1.524 -0.0315  0.2419 -0.1340
    1SOL    HW2 2970  -0.057   2.416   1.566  0.1729  1.1949  0.7993
    1SOL    HW3 2971   0.092   2.392   1.575  0.0163 -0.5227 -0.8808
    1SOL    MW4 2972   0.024   2.430   1.536  0.0018  0.2668 -0.1093
    1SOL     OW 2973   0.050   2.697   1.588 -0.2390  0.1269  0.0669
    1SOL    HW2 2974  -0.025   2.734   1.542 -0.4847  0.0795  0.4291
    1SOL    HW3 2975   0.052   2.605   1.562 -0.0004  0.2449 -0.3423
    1SOL    MW4 2976   0.041   2.689   1.578 -0.2400  0.1359  0.0607
    1SOL     OW 2977   0.249   2.874   1.504 -0.0872  0.2603 -0.3588
    1SOL    HW2 2978   0.330   2.829   1.529 -0.0201  0.7905  0.4091
    1SOL    HW3 2979   0.180   2.825   1.548 -0.2507 -0.5823 -1.5394
    1SOL    MW4 2980   0.251   2.862   1.513 -0.0999  0.2191 -0.4132
    1SOL     OW 2981   0.229   3.139   1.627 -0.5581 -0.0107  0.3482
    1SOL    HW2 2982   0.152   3.176   1.584 -1.4087 -0.2851  1.6206
    1SOL    HW3 2983   0.235   3.050   1.592  0.1855  0.5654 -1.0265
    1SOL    MW4 2984   0.219   3.132   1.617 -0.5722  0.0288  0.3347
    1SOL     OW 2985   0.018   3.227   1.475  0.2429  0.2889  0.3503
    1SOL    HW2 2986   0.016   3.317   1.508  0.9599  0.1866  0.6752
    1SOL    HW3 2987   0.057   3.235   1.388 -0.5960  0.4149 -0.0149
    1SOL    MW4 2988   0.023   3.240   1.468  0.2268  0.2921  0.3451
    1SOL     OW 2989   0.003   3.479   1.570 -0.0446 -0.3481 -0.2063
    1SOL    HW2 2990   0.018   3.482   1.664  1.0827 -0.5259 -0.3682
    1SOL    HW3 2991  -0.086   3.513   1.558  0.1254  0.4926  0.8447
    1SOL    MW4 2992  -0.007   3.484   1.581  0.1268 -0.2608 -0.0890
    1SOL     OW 2993   0.235   3.626   1.477 -0.1248 -0.1709 -0.1910
    1SOL    HW2 2994   0.246   3.717   1.504  0.1355 -0.2833  0.0894
    1SOL    HW3 2995   0.149   3.601   1.513  0.5128 -0.5229  1.1252
    1SOL    MW4 2996   0.225   3.635   1.486 -0.0063 -0.2322  0.0197
    1SOL     OW 2997   0.232   3.878   1.590  0.4518  0.3225 -0.0161
    1SOL    HW2 2998   0.214   3.872   1.683  0.8578 -0.8055 -0.0055
    1SOL    HW3 2999   0.315   3.926   1.585  0.8966 -0.4041  0.2573
    1SOL    MW4 3000   0.241   3.884   1.602  0.5641  0.0780  0.0212
    1SOL     OW 3001   0.009   4.035   1.507 -0.2071 -0.0560 -0.4509
    1SOL    HW2 3002   0.014   4.127   1.535  0.6333 -0.2526  0.0461
    1SOL    HW3 3003   0.100   4.005   1.507 -0.6147 -1.3495  0.9422
    1SOL    MW4 3004   0.022   4.044   1.511 -0.1497 -0.2522 -0.2015
    1SOL     OW 3005   0.006   4.299   1.596 -0.0510 -0.1685  0.0030
    1SOL    HW2 3006  -0.026   4.285   1.685 -1.5706 -0.6612 -0.6110
    1SOL    HW3 3007  -0.063   4.348   1.553  0.5618 -0.1575 -0.9912
    1SOL    MW4 3008  -0.007   4.304   1.602 -0.1702 -0.2327 -0.2092
    1SOL     OW 3009   0.245   4.399   1.481  0.0271  0.2433  0.0070
    1SOL    HW2 3010   0.173   4.351   1.521  0.3729 -0.3928 -0.1254
    1SOL    HW3 3011   0.235   4.489   1.512 -0.7584  0.1347  0.0755
    1SOL    MW4 3012   0.234   4.404   1.490 -0.0309  0.1445 -0.0014
    1SOL     OW 3013   0.718   0.000   1.654 -0.3911 -0.1503 -0.3490
    1SOL    HW2 3014   0.795   0.044   1.619  0.4558 -0.2659  1.3278
    1SOL    HW3 3015   0.645   0.037   1.604  0.4780  1.9574 -0.1282
    1SOL    MW4 3016   0.718   0.011   1.643 -0.1646  0.1126 -0.0985
    1SOL     OW 3017   0.492   0.114   1.536 -0.0246 -0.9692  0.4865
    1SOL    HW2 3018   0.489   0.204   1.567  0.5957 -1.5791  2.3804
    1SOL    HW3 3019   0.471   0.120   1.443 -1.0304  1.0058  0.8178
    1SOL    MW4 3020   0.489   0.127   1.528 -0.0754 -0.7891  0.7800
    1SOL     OW 3021   0.486   0.372   1.590  0.4574 -0.4331 -0.5046
    1SOL    HW2 3022   0.571   0.412   1.573  0.5385  0.1134  1.0829
    1SOL    HW3 3023   0.423   0.431   1.550  0.5922  1.1856  1.5918
    1SOL    MW4 3024   0.489   0.385   1.582  0.4859 -0.1474 -0.0186
    1SOL     OW 3025   0.748   0.467   1.487 -0.5665  0.5658 -0.0177
    1SOL    HW2 3026   0.722   0.546   1.534 -0.6357  0.1840  0.5949
    1SOL    HW3 3027   0.693   0.466   1.409 -0.3201  1.3040 -0.2062
    1SOL    MW4 3028   0.737   0.477   1.483 -0.5431  0.6128  0.0383
    1SOL     OW 3029   0.673   0.723   1.591  0.3826 -0.4346 -0.2530
    1SOL    HW2 3030   0.659   0.746   1.683 -1.9151  1.3106 -0.9998
    1SOL    HW3 3031   0.759   0.759   1.570  0.0363  0.9472  0.6543
    1SOL    MW4 3032   0.682   0.731   1.600  0.0337 -0.0220 -0.2316
    1SOL     OW 3033   0.485   0.884   1.499 -0.0025 -0.3856  0.1291
    1SOL    HW2 3034   0.485   0.966   1.547 -1.3875 -0.7458  0.7806
    1SOL    HW3 3035   0.563   0.838   1.528  1.2643  1.0630 -0.9043
    1SOL    MW4 3036   0.495   0.888   1.509 -0.0181 -0.2421  0.0788
    1SOL     OW 3037   0.477   1.123   1.609 -0.3575  0.1186  0.1449
    1SOL    HW2 3038   0.551   1.166   1.566  0.4950 -1.1253  0.3420
    1SOL    HW3 3039   0.475   1.159   1.697 -1.1062  1.4770 -0.4144
    1SOL    MW4 3040   0.486   1.133   1.615 -0.3438  0.1336  0.0970
    1SOL     OW 3041   0.685   1.235   1.449  0.1764 -0.2180 -0.1036
    1SOL    HW2 3042   0.698   1.325   1.476  1.8573 -0.4350 -0.1203
    1SOL    HW3 3043   0.677   1.239   1.353  0.2188 -0.0919 -0.1008
    1SOL    MW4 3044   0.686   1.247   1.440  0.4038 -0.2300 -0.1055
    1SOL     OW 3045   0.710   1.483   1.570  0.1267  0.2230  0.1135
    1SOL    HW2 3046   0.777   1.545   1.540 -0.5423  1.1596  0.5493
    1SOL    HW3 3047   0.629   1.533   1.567 -0.1872 -0.1416  2.0199
    1SOL    MW4 3048   0.709   1.498   1.565 -0.0030  0.2985  0.4226
    1SOL     OW 3049   0.474   1.621   1.511  0.0668  0.5656  0.1493
    1SOL    HW2 3050   0.452   1.711   1.533 -1.3435  0.5732 -1.2493
    1SOL    HW3 3051   0.401   1.569   1.545  0.0859  0.1147 -0.5037
    1SOL    MW4 3052   0.462   1.626   1.519 -0.1167  0.5070 -0.1214
    1SOL     OW 3053   0.472   1.896   1.605 -0.2829  0.0902 -0.0513
    1SOL    HW2 3054   0.474   1.908   1.700  1.7856  1.6885 -0.2549
    1SOL    HW3 3055   0.403   1.956   1.575  0.5471  1.2296  0.2627
    1SOL    MW4 3056   0.463   1.906   1.614  0.0995  0.4513 -0.0366
    1SOL     OW 3057   0.671   2.059   1.494 -0.0807 -0.3587 -0.2747
    1SOL    HW2 3058   0.749   2.030   1.541 -1.5646 -0.4807  2.1958
    1SOL    HW3 3059   0.599   2.009   1.532 -1.6125  0.9393 -1.3642
    1SOL    MW4 3060   0.672   2.049   1.505 -0.4786 -0.2036 -0.0925
    1SOL     OW 3061   0.658   2.325   1.614  0.1736 -0.4286 -0.0998
    1SOL    HW2 3062   0.577   2.371   1.590 -0.8758 -1.5727  1.1814
    1SOL    HW3 3063   0.660   2.248   1.558 -0.8679 -1.6570  1.5292
    1SOL    MW4 3064   0.648   2.321   1.604 -0.1023 -0.7417  0.2842
    1SOL     OW 3065   0.428   2.491   1.533  0.3292  0.2323 -0.6005
    1SOL    HW2 3066   0.428   2.581   1.568 -0.5589 -0.2139  0.5938
    1SOL    HW3 3067   0.356   2.448   1.579  0.2569 -0.8770 -1.7436
    1SOL    MW4 3068   0.419   2.497   1.544  0.2025  0.0269 -0.5938
    1SOL     OW 3069   0.456   2.745   1.621 -0.1571  0.5514 -0.2982
    1SOL    HW2 3070   0.457   2.756   1.716  0.6555  0.9208 -0.3402
    1SOL    HW3 3071   0.545   2.766   1.594 -0.5657  1.1367 -1.2190
    1SOL    MW4 3072   0.468   2.749   1.630 -0.1038  0.6773 -0.4251
    1SOL     OW 3073   0.693   2.851   1.509 -0.0293 -0.0184 -0.6840
    1SOL    HW2 3074   0.686   2.934   1.555  1.7546  0.2664 -0.8914
    1SOL    HW3 3075   0.761   2.803   1.556 -1.1048 -1.4137 -0.5028
    1SOL    MW4 3076   0.701   2.856   1.521  0.0641 -0.1650 -0.6875
    1SOL     OW 3077   0.687   3.100   1.615 -0.1304  0.4236 -0.4348
    1SOL    HW2 3078   0.769   3.141   1.587  0.5833 -0.3708  0.4652
    1SOL    HW3 3079   0.619   3.159   1.583  0.8331  1.6213 -0.3041
    1SOL    MW4 3080   0.689   3.113   1.607  0.0909  0.4766 -0.2987
    1SOL     OW 3081   0.470   3.244   1.516  0.2670  0.2804 -0.6099
    1SOL    HW2 3082   0.402   3.201   1.568 -0.3215  1.5963 -0.2670
    1SOL    HW3 3083   0.441   3.235   1.425  0.3729 -0.4242 -0.5749
    1SOL    MW4 3084   0.457   3.237   1.511  0.2033  0.3610 -0.5602
    1SOL     OW 3085   0.472   3.504   1.614 -0.1580  0.2713 -0.1800
    1SOL    HW2 3086   0.474   3.412   1.588 -0.5323  0.5040 -1.0550
    1SOL    HW3 3087   0.398   3.541   1.565 -0.2953  0.9314  0.5159
    1SOL    MW4 3088   0.463   3.497   1.604 -0.2255  0.3893 -0.2037
    1SOL     OW 3089   0.715   3.616   1.521 -0.3283 -0.1809 -0.1306
    1SOL    HW2 3090   0.784   3.562   1.560 -0.3846  0.7161  1.2392
    1SOL    HW3 3091   0.634   3.571   1.543 -0.2333 -0.8223 -1.0737
    1SOL    MW4 3092   0.714   3.603   1.529 -0.3232 -0.1473 -0.0743
    1SOL     OW 3093   0.661   3.892   1.589  0.6215  0.1132 -0.1975
    1SOL    HW2 3094   0.742   3.938   1.566  0.3897  0.3390 -0.5760
    1SOL    HW3 3095   0.667   3.808   1.544 -0.1759  0.8565 -1.7311
    1SOL    MW4 3096   0.673   3.887   1.580  0.4857  0.2410 -0.4497
    1SOL     OW 3097   0.439   4.026   1.532  0.3455  0.3483 -0.1336
    1SOL    HW2 3098   0.522   3.984   1.553 -0.6445 -1.5253  0.2257
    1SOL    HW3 3099   0.432   4.018   1.436  0.6479  0.6493 -0.1815
    1SOL    MW4 3100   0.449   4.019   1.522  0.2548  0.1402 -0.0925
    1SOL     OW 3101   0.477   4.293   1.606  0.0609  0.2132 -0.1327
    1SOL    HW2 3102   0.476   4.203   1.572  2.7234  0.1341 -0.0510
    1SOL    HW3 3103   0.390   4.327   1.584 -0.2790 -1.7188 -1.9401
    1SOL    MW4 3104   0.465   4.286   1.599  0.3673 -0.0525 -0.3605
    1SOL     OW 3105   0.667   4.443   1.483  0.4645  0.1000  0.4479
    1SOL    HW2 3106   0.595   4.405   1.532 -0.0853  0.2432 -0.2418
    1SOL    HW3 3107   0.694   4.519   1.534 -0.2076  0.3433  0.4440
    1SOL    MW4 3108   0.661   4.448   1.496  0.3034  0.1516  0.3564
    1SOL     OW 3109   1.148   4.618   1.642 -0.1724  0.3417  0.3504
    1SOL    HW2 3110   1.136   4.637   1.735  0.2747 -0.5017  0.5851
    1SOL    HW3 3111   1.220   4.675   1.615 -0.5943  0.9095  0.4091
    1SOL    MW4 3112   1.156   4.628   1.651 -0.1690  0.3052  0.3890
    1SOL     OW 3113   0.951   0.118   1.541  0.0201  0.1046 -0.1225
    1SOL    HW2 3114   0.970   0.208   1.567  0.9085 -0.3616  0.8616
    1SOL    HW3 3115   1.026   0.067   1.573 -0.6535 -1.0370 -0.3345
    1SOL    MW4 3116   0.963   0.123   1.549  0.0484 -0.1075 -0.0206
    1SOL     OW 3117   0.969   0.367   1.647  0.6637 -0.4110 -0.1193
    1SOL    HW2 3118   0.960   0.367   1.742  0.8612 -1.1353 -0.0983
    1SOL    HW3 3119   0.886   0.402   1.615  0.9865  0.7806  0.3498
    1SOL    MW4 3120   0.957   0.371   1.655  0.7323 -0.3493 -0.0546
    1SOL     OW 3121   1.198   0.483   1.513  0.4571  0.0179 -0.4252
    1SOL    HW2 3122   1.179   0.569   1.551  1.2591  0.3206 -0.7188
    1SOL    HW3 3123   1.135   0.425   1.556 -2.4965  1.3255 -2.8006
    1SOL    MW4 3124   1.187   0.487   1.524  0.1732  0.2303 -0.7774
    1SOL     OW 3125   1.131   0.732   1.592  0.4312  0.0853  0.1149
    1SOL    HW2 3126   1.125   0.742   1.687  1.9488 -1.0820  0.3526
    1SOL    HW3 3127   1.198   0.794   1.566 -0.5390  0.9753 -0.3232
    1SOL    MW4 3128   1.139   0.741   1.601  0.5034  0.0486  0.0885
    1SOL     OW 3129   0.909   0.870   1.505  0.1618  0.0730  0.2247
    1SOL    HW2 3130   0.984   0.815   1.528  0.3206  0.4306  0.5937
    1SOL    HW3 3131   0.910   0.875   1.410  0.9404  0.5251  0.2533
    1SOL    MW4 3132   0.919   0.864   1.496  0.2854  0.1799  0.2770
    1SOL     OW 3133   0.884   1.116   1.602  0.0441  0.1426  0.0280
    1SOL    HW2 3134   0.880   1.026   1.571  0.6997  0.6552 -1.5966
    1SOL    HW3 3135   0.826   1.164   1.543  0.8743  1.0403 -0.0688
    1SOL    MW4 3136   0.876   1.110   1.590  0.2401  0.3285 -0.1991
    1SOL     OW 3137   1.105   1.292   1.502  0.1728 -0.3739 -0.1856
    1SOL    HW2 3138   1.186   1.266   1.546  0.0285 -0.2699  0.1445
    1SOL    HW3 3139   1.039   1.232   1.535  0.2717 -0.9771 -1.0652
    1SOL    MW4 3140   1.107   1.281   1.512  0.1668 -0.4398 -0.2582
    1SOL     OW 3141   1.094   1.560   1.608  0.2798  0.5520  0.3022
    1SOL    HW2 3142   1.169   1.611   1.578 -0.1329  0.9210 -0.1265
    1SOL    HW3 3143   1.102   1.476   1.563 -0.4709  1.1896 -1.0624
    1SOL    MW4 3144   1.105   1.556   1.598  0.1262  0.6849  0.0657
    1SOL     OW 3145   0.883   1.703   1.520  0.2916 -0.0297  0.3900
    1SOL    HW2 3146   0.966   1.660   1.539  0.3228 -0.1244  0.0391
    1SOL    HW3 3147   0.878   1.706   1.424 -0.1333 -0.0758  0.4077
    1SOL    MW4 3148   0.893   1.698   1.510  0.2397 -0.0484  0.3461
    1SOL     OW 3149   0.915   1.964   1.592 -0.1409  0.3050  0.1583
    1SOL    HW2 3150   0.995   1.990   1.546 -0.8654  0.8442 -0.8001
    1SOL    HW3 3151   0.898   1.875   1.562 -0.1407  0.3517  0.0178
    1SOL    MW4 3152   0.923   1.956   1.582 -0.2365  0.3823  0.0134
    1SOL     OW 3153   1.147   2.089   1.477 -0.1997 -0.0580 -0.1169
    1SOL    HW2 3154   1.225   2.051   1.519 -0.9584 -0.3873  1.0236
    1SOL    HW3 3155   1.132   2.171   1.524  0.8238  1.1784 -1.8931
    1SOL    MW4 3156   1.156   2.094   1.489 -0.1649  0.0618 -0.2010
    1SOL     OW 3157   1.098   2.334   1.624 -0.4483  0.0674  0.2897
    1SOL    HW2 3158   1.163   2.398   1.593 -0.5097 -0.1704 -0.3208
    1SOL    HW3 3159   1.015   2.368   1.592 -0.5133 -0.1748  0.2089
    1SOL    MW4 3160   1.096   2.347   1.616 -0.4649  0.0041  0.1986
    1SOL     OW 3161   0.878   2.454   1.515 -0.1527  0.1267  0.1050
    1SOL    HW2 3162   0.864   2.457   1.421  0.6823 -0.2266 -0.0401
    1SOL    HW3 3163   0.798   2.415   1.551  0.1497 -1.1692 -0.6053
    1SOL    MW4 3164   0.866   2.450   1.508 -0.0026 -0.0911 -0.0080
    1SOL     OW 3165   0.927   2.720   1.620 -0.1932  0.2155 -0.0473
    1SOL    HW2 3166   0.890   2.702   1.706  1.1573 -0.2348  0.4452
    1SOL    HW3 3167   0.921   2.637   1.573  2.1980 -0.4696  0.7963
    1SOL    MW4 3168   0.921   2.707   1.625  0.3005  0.0656  0.1290
    1SOL     OW 3169   1.112   2.842   1.460  0.0977  0.0685  0.2931
    1SOL    HW2 3170   1.111   2.936   1.479  0.5947  0.4030 -1.2057
    1SOL    HW3 3171   1.046   2.805   1.518  0.0994  1.3076  1.1057
    1SOL    MW4 3172   1.103   2.850   1.470  0.1636  0.2761  0.2025
    1SOL     OW 3173   1.118   3.087   1.592  0.1509 -0.3116  0.2145
    1SOL    HW2 3174   1.109   3.096   1.687 -1.0784  1.7924 -0.0672
    1SOL    HW3 3175   1.201   3.131   1.572 -0.0815  0.1354  0.2157
    1SOL    MW4 3176   1.128   3.094   1.602 -0.0418  0.0253  0.1775
    1SOL     OW 3177   0.923   3.262   1.533 -0.3195 -0.6671 -0.4823
    1SOL    HW2 3178   0.996   3.212   1.569 -0.7352 -0.7280  0.2846
    1SOL    HW3 3179   0.934   3.256   1.438  1.7012  0.8381 -0.3718
    1SOL    MW4 3180   0.934   3.255   1.525 -0.1078 -0.4764 -0.3666
    1SOL     OW 3181   0.920   3.506   1.657  0.1877 -0.3186 -0.2772
    1SOL    HW2 3182   0.979   3.567   1.612  1.3092 -2.2488 -1.4755
    1SOL    HW3 3183   0.936   3.422   1.616 -2.5820 -1.1320  0.1960
    1SOL    MW4 3184   0.930   3.503   1.646 -0.0298 -0.6807 -0.3728
    1SOL     OW 3185   1.142   3.640   1.520  0.5355 -0.1619 -0.4139
    1SOL    HW2 3186   1.206   3.576   1.550 -0.0350 -0.3332  0.4507
    1SOL    HW3 3187   1.155   3.645   1.425  1.9761 -0.0176 -0.2167
    1SOL    MW4 3188   1.152   3.633   1.511  0.6503 -0.1655 -0.2738
    1SOL     OW 3189   1.144   3.897   1.621 -0.1756 -0.4282 -0.0297
    1SOL    HW2 3190   1.234   3.914   1.595 -0.2372 -0.2432 -0.1257
    1SOL    HW3 3191   1.130   3.804   1.605  0.0671 -0.5031  0.1938
    1SOL    MW4 3192   1.154   3.887   1.616 -0.1516 -0.4139 -0.0130
    1SOL     OW 3193   0.914   4.014   1.524  0.0598 -0.0966 -0.0993
    1SOL    HW2 3194   0.893   4.100   1.560 -0.8115  0.0853 -1.0154
    1SOL    HW3 3195   0.996   3.989   1.567  0.6029  1.4219 -0.2334
    1SOL    MW4 3196   0.922   4.022   1.535  0.0165  0.1278 -0.2378
    1SOL     OW 3197   0.881   4.287   1.600 -0.2453  0.1688  0.2323
    1SOL    HW2 3198   0.880   4.315   1.691  0.3108  0.9008  0.0266
    1SOL    HW3 3199   0.804   4.329   1.561 -0.4482 -0.0946  0.3506
    1SOL    MW4 3200   0.871   4.296   1.607 -0.1987  0.2303  0.2207
    1SOL     OW 3201   1.123   4.372   1.518 -0.3270 -0.4812 -0.1247
    1SOL    HW2 3202   1.036   4.337   1.537  0.3924 -1.8799  0.6984
    1SOL    HW3 3203   1.131   4.449   1.575 -1.2620  0.0394 -0.6853
    1SOL    MW4 3204   1.113   4.378   1.528 -0.3554 -0.5975 -0.0900
    1SOL     OW 3205   1.562   0.009   1.617 -0.3328  0.1935 -0.1335
    1SOL    HW2 3206   1.564   0.001   1.713 -0.6181  0.5917 -0.0936
    1SOL    HW3 3207   1.497   0.077   1.600  0.7010  1.0855 -0.5565
    1SOL    MW4 3208   1.554   0.017   1.628 -0.2340  0.3638 -0.1842
    1SOL     OW 3209   1.330   0.144   1.570 -0.0941 -0.4877 -0.4196
    1SOL    HW2 3210   1.349   0.231   1.604  1.3321 -0.6427 -0.7842
    1SOL    HW3 3211   1.321   0.156   1.476 -1.2369 -0.5270 -0.3279
    1SOL    MW4 3212   1.331   0.157   1.562 -0.0566 -0.5133 -0.4557
    1SOL     OW 3213   1.406   0.392   1.670 -0.2957 -0.3117  0.4961
    1SOL    HW2 3214   1.481   0.435   1.629  0.2841 -1.3496  0.4419
    1SOL    HW3 3215   1.329   0.433   1.630  0.2643 -0.7291 -1.0258
    1SOL    MW4 3216   1.405   0.403   1.659 -0.1456 -0.5037  0.2881
    1SOL     OW 3217   1.620   0.505   1.534 -0.2415 -0.4115  0.3250
    1SOL    HW2 3218   1.689   0.446   1.562  1.5979  0.9915 -1.0942
    1SOL    HW3 3219   1.616   0.494   1.439  1.2550  2.8138 -0.1970
    1SOL    MW4 3220   1.628   0.496   1.525  0.1987  0.1992  0.0690
    1SOL     OW 3221   1.604   0.794   1.591 -0.0682 -0.3403  0.1137
    1SOL    HW2 3222   1.594   0.777   1.684  0.2207 -1.1010  0.0045
    1SOL    HW3 3223   1.604   0.708   1.550  1.9546 -0.1260 -0.3801
    1SOL    MW4 3224   1.603   0.781   1.598  0.2367 -0.4124  0.0342
    1SOL     OW 3225   1.353   0.891   1.505 -0.4046 -0.1803  0.3128
    1SOL    HW2 3226   1.441   0.861   1.526 -0.2103  1.4011  1.9470
    1SOL    HW3 3227   1.351   0.898   1.409  1.5482  0.6449  0.3194
    1SOL    MW4 3228   1.364   0.888   1.495 -0.1214  0.1373  0.5294
    1SOL     OW 3229   1.346   1.158   1.592  0.2535 -0.0552  0.1007
    1SOL    HW2 3230   1.354   1.154   1.687  1.1912 -0.0632  0.0263
    1SOL    HW3 3231   1.320   1.070   1.566  1.5830 -0.4935  0.2118
    1SOL    MW4 3232   1.343   1.146   1.601  0.5527 -0.1141  0.1056
    1SOL     OW 3233   1.551   1.334   1.509  0.3433 -0.3191 -0.0353
    1SOL    HW2 3234   1.479   1.273   1.528  0.0013 -0.0188 -0.3625
    1SOL    HW3 3235   1.629   1.289   1.542 -0.0892 -0.3292  1.0001
    1SOL    MW4 3236   1.551   1.320   1.516  0.2410 -0.2807  0.0581
    1SOL     OW 3237   1.570   1.592   1.607  0.3430 -0.2186 -0.0536
    1SOL    HW2 3238   1.582   1.590   1.702  1.0822  1.6918 -0.0818
    1SOL    HW3 3239   1.553   1.501   1.583  0.1390 -0.7193  1.9078
    1SOL    MW4 3240   1.569   1.580   1.616  0.4135 -0.0325  0.2016
    1SOL     OW 3241   1.317   1.688   1.517 -0.2174  0.1933 -0.0257
    1SOL    HW2 3242   1.397   1.651   1.556 -0.1475  2.1492  1.7268
    1SOL    HW3 3243   1.333   1.682   1.423 -0.0693 -3.9207  0.1286
    1SOL    MW4 3244   1.330   1.682   1.510 -0.1886 -0.0914  0.2259
    1SOL     OW 3245   1.378   1.958   1.592 -0.4311  0.0839  0.2994
    1SOL    HW2 3246   1.374   1.956   1.688  0.0781  0.1197  0.3273
    1SOL    HW3 3247   1.370   1.867   1.566 -1.2877  0.1464  0.3392
    1SOL    MW4 3248   1.377   1.946   1.601 -0.4770  0.0969  0.3084
    1SOL     OW 3249   1.594   2.121   1.484  0.2173  0.3431  0.4517
    1SOL    HW2 3250   1.548   2.046   1.522  1.9375 -0.6380  0.6783
    1SOL    HW3 3251   1.584   2.110   1.390  0.0688  0.0810  0.4966
    1SOL    MW4 3252   1.587   2.110   1.477  0.4247  0.1791  0.4877
    1SOL     OW 3253   1.518   2.357   1.617 -0.6698 -0.0753 -0.0973
    1SOL    HW2 3254   1.588   2.414   1.584 -2.0164  1.0557 -1.0647
    1SOL    HW3 3255   1.525   2.277   1.565 -1.5009  0.9167 -1.7840
    1SOL    MW4 3256   1.528   2.354   1.606 -0.9573  0.2048 -0.4474
    1SOL     OW 3257   1.310   2.492   1.506  0.5503  0.2117  0.3874
    1SOL    HW2 3258   1.317   2.581   1.538 -0.8864 -0.1149  1.6719
    1SOL    HW3 3259   1.379   2.444   1.552  1.9015  0.8065 -0.9571
    1SOL    MW4 3260   1.320   2.497   1.516  0.5391  0.2472  0.3796
    1SOL     OW 3261   1.344   2.754   1.630 -0.0002 -0.4103  0.1233
    1SOL    HW2 3262   1.421   2.792   1.588 -0.0397 -0.6017 -0.1239
    1SOL    HW3 3263   1.270   2.786   1.578 -0.0386 -0.7641 -0.0451
    1SOL    MW4 3264   1.345   2.763   1.617 -0.0105 -0.4821  0.0685
    1SOL     OW 3265   1.583   2.847   1.529 -0.3888  0.2395  0.3938
    1SOL    HW2 3266   1.663   2.813   1.568 -1.1971 -0.8197  1.1554
    1SOL    HW3 3267   1.588   2.823   1.436  1.4794  2.6490 -0.1858
    1SOL    MW4 3268   1.594   2.839   1.522 -0.2490  0.4172  0.4178
    1SOL     OW 3269   1.560   3.124   1.639  0.0433  0.0140 -0.1843
    1SOL    HW2 3270   1.634   3.173   1.602  0.3484  0.0969  0.5218
    1SOL    HW3 3271   1.570   3.035   1.604 -0.5424  0.4652 -1.5141
    1SOL    MW4 3272   1.571   3.119   1.630  0.0062  0.0844 -0.2667
    1SOL     OW 3273   1.339   3.225   1.533 -0.2243 -0.4057  0.1265
    1SOL    HW2 3274   1.339   3.314   1.569  1.1039 -0.4998  0.3816
    1SOL    HW3 3275   1.417   3.183   1.571  0.3515 -0.9996 -1.6404
    1SOL    MW4 3276   1.349   3.231   1.543  0.0268 -0.4964 -0.0730
    1SOL     OW 3277   1.331   3.478   1.630  0.1678  0.2652  0.2760
    1SOL    HW2 3278   1.331   3.474   1.725  0.1988  1.9421  0.3649
    1SOL    HW3 3279   1.418   3.510   1.607 -0.7161  2.4708 -0.1522
    1SOL    MW4 3280   1.343   3.482   1.639  0.0554  0.7777  0.2313
    1SOL     OW 3281   1.579   3.603   1.552  0.1566  0.3465  0.1055
    1SOL    HW2 3282   1.584   3.684   1.602  0.6312  0.8828 -0.7988
    1SOL    HW3 3283   1.580   3.631   1.461  1.7221 -0.7639 -0.2309
    1SOL    MW4 3284   1.580   3.618   1.547  0.4257  0.2708 -0.0581
    1SOL     OW 3285   1.583   3.862   1.665 -0.4059  0.4506  0.3526
    1SOL    HW2 3286   1.578   3.875   1.760 -0.8882  2.3953  0.0731
    1SOL    HW3 3287   1.503   3.901   1.631  0.0190  0.2448 -0.9268
    1SOL    MW4 3288   1.572   3.869   1.673 -0.4135  0.6800  0.1467
    1SOL     OW 3289   1.385   3.983   1.523 -0.0835  0.2338 -0.5238
    1SOL    HW2 3290   1.378   4.071   1.560  0.6027 -0.1127  0.4702
    1SOL    HW3 3291   1.374   3.995   1.429  0.2119  1.4136 -0.4150
    1SOL    MW4 3292   1.383   3.996   1.516  0.0460  0.3436 -0.3784
    1SOL     OW 3293   1.362   4.248   1.613 -0.2070  0.2219 -0.3248
    1SOL    HW2 3294   1.431   4.312   1.593  0.8508 -0.8702 -0.1771
    1SOL    HW3 3295   1.282   4.291   1.582  0.6639  1.0144 -1.5902
    1SOL    MW4 3296   1.361   4.262   1.606  0.0476  0.1817 -0.4721
    1SOL     OW 3297   1.572   4.417   1.534  0.2617  0.3755 -0.5392
    1SOL    HW2 3298   1.646   4.379   1.582 -1.3534 -1.0851  0.8461
    1SOL    HW3 3299   1.566   4.507   1.567  0.1307 -0.1402  0.8693
    1SOL    MW4 3300   1.581   4.424   1.545  0.0314  0.1144 -0.1705
    1SOL     OW 3301   2.060   4.647   1.581 -0.3775  0.1544 -0.1051
    1SOL    HW2 3302   2.063   4.656   1.676 -0.2839 -2.7054  0.2122
    1SOL    HW3 3303   1.986   4.702   1.554 -0.0286  1.4773  1.5196
    1SOL    MW4 3304   2.051   4.656   1.590 -0.3192 -0.0486  0.1510
    1SOL     OW 3305   1.826   0.105   1.500  0.0211 -0.3108 -0.3859
    1SOL    HW2 3306   1.757   0.048   1.535  0.0564  0.4854  0.9871
    1SOL    HW3 3307   1.811   0.106   1.406 -2.3151  0.4575 -0.0218
    1SOL    MW4 3308   1.815   0.097   1.492 -0.2824 -0.1044 -0.1566
    1SOL     OW 3309   1.811   0.346   1.650  0.0125  0.1989 -0.0430
    1SOL    HW2 3310   1.886   0.390   1.609 -0.2715  0.3902 -0.3548
    1SOL    HW3 3311   1.817   0.255   1.620  0.0660  0.2341 -0.1392
    1SOL    MW4 3312   1.822   0.340   1.641 -0.0178  0.2288 -0.0968
    1SOL     OW 3313   2.034   0.498   1.559 -0.0481 -0.0960  0.0791
    1SOL    HW2 3314   2.125   0.469   1.566 -0.3507 -0.9744  0.5420
    1SOL    HW3 3315   2.035   0.590   1.584  0.7218 -0.0895  0.0176
    1SOL    MW4 3316   2.046   0.506   1.563  0.0134 -0.2111  0.1320
    1SOL     OW 3317   2.007   0.772   1.608  0.0568  0.8255  0.2595
    1SOL    HW2 3318   2.011   0.775   1.703 -0.3709  1.9925  0.2475
    1SOL    HW3 3319   1.933   0.829   1.585 -0.3483 -0.0694 -0.7313
    1SOL    MW4 3320   1.998   0.780   1.617 -0.0532  0.8614  0.1271
    1SOL     OW 3321   1.803   0.949   1.478 -0.3044 -0.4255  0.0061
    1SOL    HW2 3322   1.793   1.027   1.534 -0.1704  0.6948 -1.4880
    1SOL    HW3 3323   1.748   0.883   1.520 -2.1002  1.1064  0.1669
    1SOL    MW4 3324   1.795   0.951   1.491 -0.5236 -0.0755 -0.1699
    1SOL     OW 3325   1.768   1.202   1.642  0.0253  0.1001 -0.5953
    1SOL    HW2 3326   1.861   1.218   1.624  0.3359 -1.0455 -0.0988
    1SOL    HW3 3327   1.765   1.180   1.735 -0.8286  0.7100 -0.4740
    1SOL    MW4 3328   1.780   1.201   1.652 -0.0465  0.0294 -0.5138
    1SOL     OW 3329   2.037   1.298   1.531 -0.1310 -0.1957  0.1706
    1SOL    HW2 3330   2.023   1.392   1.544  1.4453  0.1489 -0.5147
    1SOL    HW3 3331   2.041   1.287   1.436  0.3326 -0.8529  0.2629
    1SOL    MW4 3332   2.035   1.309   1.520  0.1383 -0.2369  0.0924
    1SOL     OW 3333   2.001   1.569   1.575 -0.3886 -0.4383  0.2646
    1SOL    HW2 3334   2.082   1.601   1.533 -0.6455 -1.3369 -0.9660
    1SOL    HW3 3335   1.937   1.638   1.559 -0.7547 -1.2107 -1.7609
    1SOL    MW4 3336   2.004   1.582   1.567 -0.4706 -0.6589 -0.1649
    1SOL     OW 3337   1.778   1.755   1.534 -0.3734 -0.2640 -0.5327
    1SOL    HW2 3338   1.699   1.706   1.555  0.9871 -2.2096  0.2078
    1SOL    HW3 3339   1.784   1.751   1.438 -1.0554 -0.2783 -0.5766
    1SOL    MW4 3340   1.769   1.748   1.524 -0.2838 -0.5226 -0.4408
    1SOL     OW 3341   1.824   2.023   1.657  0.3599 -0.7225 -0.3642
    1SOL    HW2 3342   1.811   1.938   1.615 -0.4972 -0.5866 -0.3961
    1SOL    HW3 3343   1.754   2.078   1.622 -0.2676 -0.5527  1.0957
    1SOL    MW4 3344   1.813   2.019   1.647  0.1640 -0.6824 -0.1761
    1SOL     OW 3345   2.020   2.095   1.491  0.3094 -0.1443  0.0693
    1SOL    HW2 3346   2.100   2.049   1.516  0.2269 -0.7702 -0.8084
    1SOL    HW3 3347   1.952   2.056   1.546  0.6316  0.5250  0.9577
    1SOL    MW4 3348   2.022   2.084   1.502  0.3417 -0.1383  0.0707
    1SOL     OW 3349   1.974   2.362   1.589  0.1643  0.2406 -0.6912
    1SOL    HW2 3350   1.989   2.358   1.683  1.5208 -0.0802 -0.9100
    1SOL    HW3 3351   1.993   2.274   1.558  0.8862  0.6425 -1.4175
    1SOL    MW4 3352   1.979   2.350   1.597  0.4386  0.2513 -0.8159
    1SOL     OW 3353   1.737   2.498   1.535 -0.7908 -0.1920  0.1393
    1SOL    HW2 3354   1.823   2.456   1.544  0.3534  2.1300  0.6321
    1SOL    HW3 3355   1.736   2.530   1.444 -0.0949  1.8175  0.7901
    1SOL    MW4 3356   1.749   2.497   1.524 -0.5480  0.3796  0.2903
    1SOL     OW 3357   1.798   2.735   1.664  0.3908 -0.4216 -0.1151
    1SOL    HW2 3358   1.877   2.766   1.620  0.6540 -0.3516  0.4115
    1SOL    HW3 3359   1.778   2.652   1.620 -0.1406  0.3212 -1.3130
    1SOL    MW4 3360   1.805   2.728   1.652  0.3555 -0.3145 -0.2037
    1SOL     OW 3361   2.015   2.836   1.499  0.2150  0.4419 -0.1539
    1SOL    HW2 3362   2.007   2.931   1.508 -1.0746  0.2554  0.7956
    1SOL    HW3 3363   2.029   2.821   1.405  0.2293  1.5466 -0.3290
    1SOL    MW4 3364   2.016   2.846   1.488  0.0467  0.5629 -0.0517
    1SOL     OW 3365   2.032   3.103   1.587  0.0058 -0.1475 -0.1747
    1SOL    HW2 3366   2.037   3.084   1.680  0.1118 -1.1995 -0.3798
    1SOL    HW3 3367   2.121   3.128   1.562 -0.3629  1.6347  0.3095
    1SOL    MW4 3368   2.044   3.104   1.596 -0.0288 -0.0515 -0.1378
    1SOL     OW 3369   1.794   3.243   1.536 -0.2151  0.3618 -0.3957
    1SOL    HW2 3370   1.810   3.330   1.572 -0.5065  0.5275 -0.6604
    1SOL    HW3 3371   1.877   3.197   1.545 -0.0081  0.7306 -0.4258
    1SOL    MW4 3372   1.807   3.248   1.542 -0.2260  0.4325 -0.4346
    1SOL     OW 3373   1.828   3.490   1.617 -0.2139  0.3229 -0.2357
    1SOL    HW2 3374   1.814   3.479   1.711 -0.9024 -1.1855 -0.5035
    1SOL    HW3 3375   1.742   3.518   1.584 -0.2991 -0.3770 -0.6006
    1SOL    MW4 3376   1.814   3.492   1.625 -0.3159  0.0315 -0.3192
    1SOL     OW 3377   2.045   3.669   1.546  0.2083  0.6937  0.0925
    1SOL    HW2 3378   2.123   3.616   1.564  0.5122  1.2941  0.5495
    1SOL    HW3 3379   1.972   3.616   1.578  0.3287 -0.3138 -1.2527
    1SOL    MW4 3380   2.046   3.655   1.552  0.2644  0.6402 -0.0248
    1SOL     OW 3381   1.998   3.920   1.625 -0.5684  0.0852  0.2997
    1SOL    HW2 3382   2.072   3.962   1.582  1.2097 -1.3785  1.8707
    1SOL    HW3 3383   2.003   3.828   1.598 -0.0788 -0.6191  2.7194
    1SOL    MW4 3384   2.008   3.914   1.616 -0.2692 -0.2010  0.8262
    1SOL     OW 3385   1.759   4.010   1.512  0.1939 -0.3119 -0.0917
    1SOL    HW2 3386   1.844   3.985   1.549  0.7974  1.7676  0.0256
    1SOL    HW3 3387   1.695   3.962   1.564  1.2841 -1.8990 -0.1657
    1SOL    MW4 3388   1.762   4.000   1.524  0.4174 -0.2465 -0.0859
    1SOL     OW 3389   1.792   4.274   1.635  0.1703 -0.2195 -0.1262
    1SOL    HW2 3390   1.874   4.292   1.590 -0.9816  0.6797 -1.8808
    1SOL    HW3 3391   1.768   4.185   1.608 -1.1071  0.7420 -2.2395
    1SOL    MW4 3392   1.800   4.265   1.626 -0.1502  0.0262 -0.6366
    1SOL     OW 3393   2.020   4.380   1.514  0.4105 -0.1900  0.3993
    1SOL    HW2 3394   2.102   4.355   1.557  1.2851 -1.1786 -1.7139
    1SOL    HW3 3395   2.010   4.473   1.532  1.1958 -0.3934  1.9616
    1SOL    MW4 3396   2.029   4.389   1.522  0.6297 -0.3467  0.3268
    1SOL     OW 3397   2.525   0.000   1.575  0.2730 -0.4797 -0.2067
    1SOL    HW2 3398   2.531   0.008   1.671  1.1443  1.2618 -0.3772
    1SOL    HW3 3399   2.445   0.047   1.553  0.4149 -0.3186 -0.3791
    1SOL    MW4 3400   2.516   0.007   1.585  0.4067 -0.2289 -0.2520
    1SOL     OW 3401   2.275   0.128   1.506  0.1746  0.2007  0.0652
    1SOL    HW2 3402   2.202   0.072   1.530 -1.6111  1.8123 -1.4466
    1SOL    HW3 3403   2.274   0.129   1.410 -0.9711  4.1590  0.0102
    1SOL    MW4 3404   2.265   0.121   1.496 -0.2124  0.9356 -0.1415
    1SOL     OW 3405   2.282   0.392   1.567 -0.0782  0.3643 -0.0087
    1SOL    HW2 3406   2.264   0.393   1.662  0.0759  1.1245  0.0148
    1SOL    HW3 3407   2.266   0.301   1.541 -2.9013  0.7236  0.2327
    1SOL    MW4 3408   2.277   0.380   1.576 -0.4303  0.5121  0.0262
    1SOL     OW 3409   2.495   0.551   1.488 -0.2216  0.2010  0.0220
    1SOL    HW2 3410   2.564   0.495   1.524 -0.8912 -1.2319 -0.8883
    1SOL    HW3 3411   2.413   0.507   1.509 -0.7556  0.7858 -0.7701
    1SOL    MW4 3412   2.494   0.538   1.495 -0.3808  0.0891 -0.2028
    1SOL     OW 3413   2.464   0.787   1.595 -0.5906  0.0391  0.1599
    1SOL    HW2 3414   2.375   0.818   1.578 -0.1661  1.1630 -0.0809
    1SOL    HW3 3415   2.471   0.705   1.547 -0.7347  1.1228 -1.7801
    1SOL    MW4 3416   2.453   0.781   1.587 -0.5536  0.3304 -0.1278
    1SOL     OW 3417   2.225   0.899   1.504 -0.3995  0.3380  0.0108
    1SOL    HW2 3418   2.225   0.985   1.545 -0.5699  0.8042 -0.9448
    1SOL    HW3 3419   2.152   0.852   1.546  0.6383  0.1269  1.5938
    1SOL    MW4 3420   2.215   0.904   1.515 -0.2849  0.3717  0.0936
    1SOL     OW 3421   2.273   1.151   1.607 -0.5346 -0.1810 -0.0940
    1SOL    HW2 3422   2.261   1.144   1.702 -1.5248  1.8795 -0.0277
    1SOL    HW3 3423   2.193   1.194   1.576  0.3522  0.3834 -1.6875
    1SOL    MW4 3424   2.261   1.156   1.615 -0.5481  0.1653 -0.2955
    1SOL     OW 3425   2.518   1.300   1.490 -0.5628  0.0304 -0.1689
    1SOL    HW2 3426   2.445   1.244   1.517 -0.4219  0.6447  1.5492
    1SOL    HW3 3427   2.528   1.282   1.396 -2.8323 -0.1433 -0.4148
    1SOL    MW4 3428   2.510   1.290   1.481 -0.8435  0.0886  0.0252
    1SOL     OW 3429   2.447   1.567   1.583 -0.3674 -0.1836  0.0143
    1SOL    HW2 3430   2.529   1.615   1.577  0.0176 -1.0230 -1.9488
    1SOL    HW3 3431   2.465   1.483   1.541 -2.5811  0.1565 -1.7081
    1SOL    MW4 3432   2.460   1.562   1.577 -0.6087 -0.2495 -0.4718
    1SOL     OW 3433   2.232   1.669   1.465  0.2914  0.0005  0.1292
    1SOL    HW2 3434   2.313   1.642   1.508  0.0264  0.1651  0.7392
    1SOL    HW3 3435   2.251   1.663   1.371  1.2820  0.8358  0.2695
    1SOL    MW4 3436   2.245   1.665   1.458  0.3877  0.1326  0.2282
    1SOL     OW 3437   2.245   1.939   1.570  0.0997  0.2460 -0.0928
    1SOL    HW2 3438   2.225   1.923   1.663  0.0752  0.4439 -0.0635
    1SOL    HW3 3439   2.237   1.853   1.529 -1.0186  0.3521 -0.1180
    1SOL    MW4 3440   2.241   1.926   1.577 -0.0513  0.2861 -0.0924
    1SOL     OW 3441   2.495   2.119   1.517 -0.3985 -0.2306  0.5555
    1SOL    HW2 3442   2.418   2.065   1.534 -1.0060  0.2890 -0.5218
    1SOL    HW3 3443   2.501   2.122   1.421  0.6513  0.1753  0.6301
    1SOL    MW4 3444   2.486   2.112   1.506 -0.3402 -0.1082  0.4233
    1SOL     OW 3445   2.424   2.363   1.606 -0.2910 -0.4669 -0.4286
    1SOL    HW2 3446   2.453   2.351   1.696  0.0017 -0.1842 -0.4839
    1SOL    HW3 3447   2.445   2.280   1.562 -0.5200 -0.6380 -0.2165
    1SOL    MW4 3448   2.431   2.351   1.612 -0.2828 -0.4518 -0.4079
    1SOL     OW 3449   2.208   2.459   1.480 -0.1422  0.1061  0.1570
    1SOL    HW2 3450   2.270   2.411   1.535  0.4057 -0.1736 -0.6920
    1SOL    HW3 3451   2.122   2.429   1.509  0.1549 -0.2482  0.6718
    1SOL    MW4 3452   2.204   2.448   1.491 -0.0305  0.0224  0.1131
    1SOL     OW 3453   2.264   2.702   1.604  0.0622 -0.3252  0.2858
    1SOL    HW2 3454   2.248   2.614   1.568  0.1341 -0.2597  0.0901
    1SOL    HW3 3455   2.183   2.750   1.587 -0.0195 -0.3881  0.4976
    1SOL    MW4 3456   2.251   2.697   1.597  0.0610 -0.3247  0.2879
    1SOL     OW 3457   2.489   2.826   1.506  0.0290 -0.0134 -0.5100
    1SOL    HW2 3458   2.489   2.913   1.544 -0.3112  0.3120 -1.2372
    1SOL    HW3 3459   2.414   2.782   1.545  0.0252  0.1231 -0.3634
    1SOL    MW4 3460   2.479   2.832   1.516 -0.0165  0.0477 -0.5866
    1SOL     OW 3461   2.458   3.060   1.630 -0.0014  0.2577  0.0972
    1SOL    HW2 3462   2.528   3.105   1.584 -0.7164  0.7901 -0.4781
    1SOL    HW3 3463   2.378   3.108   1.607 -0.8704 -1.6653 -1.0760
    1SOL    MW4 3464   2.456   3.072   1.621 -0.2105  0.0741 -0.1335
    1SOL     OW 3465   2.257   3.230   1.512 -0.3956 -0.0031  0.0284
    1SOL    HW2 3466   2.269   3.321   1.540 -0.5079 -0.2239  0.8191
    1SOL    HW3 3467   2.243   3.235   1.417  1.3767  0.6457 -0.2235
    1SOL    MW4 3468   2.257   3.243   1.503 -0.1767  0.0536  0.0995
    1SOL     OW 3469   2.247   3.490   1.618  0.5800  0.2269  0.2686
    1SOL    HW2 3470   2.256   3.485   1.714  1.9176  2.1757  0.2780
    1SOL    HW3 3471   2.326   3.536   1.590 -0.6671  1.2345 -1.6124
    1SOL    MW4 3472   2.259   3.495   1.627  0.5922  0.6170  0.0215
    1SOL     OW 3473   2.475   3.622   1.539 -0.2869 -0.5087  0.3817
    1SOL    HW2 3474   2.553   3.572   1.563 -0.3634 -1.4020 -1.1269
    1SOL    HW3 3475   2.499   3.713   1.554  0.8478 -0.8152  0.4657
    1SOL    MW4 3476   2.488   3.627   1.544 -0.1471 -0.6666  0.1937
    1SOL     OW 3477   2.475   3.901   1.615 -0.3166 -0.0915 -0.3167
    1SOL    HW2 3478   2.466   3.907   1.710  1.4244  1.2028 -0.2174
    1SOL    HW3 3479   2.563   3.933   1.597 -1.1872  1.1561 -2.5037
    1SOL    MW4 3480   2.485   3.906   1.625 -0.2015  0.2439 -0.5921
    1SOL     OW 3481   2.256   4.016   1.523 -0.0663  0.4227 -0.2306
    1SOL    HW2 3482   2.338   3.977   1.552 -0.1562  0.8166  0.5715
    1SOL    HW3 3483   2.265   4.023   1.428  1.0172  0.8924 -0.1048
    1SOL    MW4 3484   2.268   4.011   1.515  0.0651  0.5364 -0.1081
    1SOL     OW 3485   2.261   4.267   1.637  0.5575  0.0769  0.1070
    1SOL    HW2 3486   2.345   4.306   1.613  0.4934  0.0913 -0.0956
    1SOL    HW3 3487   2.268   4.176   1.609  0.1490  0.3146 -0.7937
    1SOL    MW4 3488   2.273   4.260   1.630  0.4952  0.1106 -0.0387
    1SOL     OW 3489   2.484   4.416   1.525 -0.1397  0.4508  0.3040
    1SOL    HW2 3490   2.512   4.506   1.545  0.7053  0.4661 -0.8933
    1SOL    HW3 3491   2.492   4.409   1.430  1.0306 -1.2845  0.5015
    1SOL    MW4 3492   2.489   4.427   1.515  0.1261  0.2236  0.1721
    1SOL     OW 3493   2.924   4.636   1.569  0.1442  0.0776  0.5519
    1SOL    HW2 3494   2.933   4.664   1.660  1.1755  1.2916  0.0908
    1SOL    HW3 3495   2.861   4.697   1.532 -1.4092 -1.3226  0.8040
    1SOL    MW4 3496   2.917   4.648   1.576  0.0751  0.0534  0.5243
    1SOL     OW 3497   2.723   0.147   1.454  0.7790 -0.2082  0.1969
    1SOL    HW2 3498   2.718   0.228   1.504 -1.9045  0.4978 -1.1251
    1SOL    HW3 3499   2.651   0.093   1.488  0.6649 -0.8232 -0.9835
    1SOL    MW4 3500   2.713   0.150   1.465  0.4101 -0.1962 -0.1333
    1SOL     OW 3501   2.711   0.388   1.591 -0.3735  0.2816 -0.0675
    1SOL    HW2 3502   2.719   0.380   1.686 -1.0724 -1.0873 -0.1094
    1SOL    HW3 3503   2.796   0.424   1.563  0.1225 -0.0297  0.9863
    1SOL    MW4 3504   2.724   0.392   1.600 -0.4001  0.0599  0.0660
    1SOL     OW 3505   2.950   0.479   1.478 -0.1136 -0.0758 -0.0727
    1SOL    HW2 3506   2.935   0.569   1.506  1.7638  0.2365 -0.0401
    1SOL    HW3 3507   2.930   0.480   1.384 -0.8648  0.1787  0.0842
    1SOL    MW4 3508   2.945   0.491   1.469  0.0350 -0.0010 -0.0478
    1SOL     OW 3509   2.909   0.738   1.576 -0.2046  0.3626 -0.2127
    1SOL    HW2 3510   2.905   0.742   1.671 -0.2349  1.8382 -0.2603
    1SOL    HW3 3511   2.837   0.793   1.546 -0.1800 -0.0676 -1.0883
    1SOL    MW4 3512   2.899   0.746   1.584 -0.2053  0.5005 -0.3343
    1SOL     OW 3513   2.704   0.912   1.525  0.1190  0.0959 -0.2767
    1SOL    HW2 3514   2.617   0.893   1.560 -0.0553  2.9109  0.9827
    1SOL    HW3 3515   2.690   0.924   1.431 -0.8368  0.4379 -0.0958
    1SOL    MW4 3516   2.690   0.911   1.517 -0.0300  0.5124 -0.0868
    1SOL     OW 3517   2.740   1.177   1.613 -0.5923 -0.0818 -0.2729
    1SOL    HW2 3518   2.732   1.085   1.586 -0.9343  0.0550 -0.6437
    1SOL    HW3 3519   2.661   1.219   1.579 -0.8540  0.1722  0.6363
    1SOL    MW4 3520   2.728   1.170   1.605 -0.6719 -0.0303 -0.2018
    1SOL     OW 3521   2.919   1.339   1.488  0.1709 -0.6339 -0.2227
    1SOL    HW2 3522   3.011   1.321   1.510  0.3808  1.0941  0.4078
    1SOL    HW3 3523   2.870   1.272   1.534  1.0735 -1.0377  0.1642
    1SOL    MW4 3524   2.925   1.328   1.497  0.3176 -0.4593 -0.0885
    1SOL     OW 3525   2.903   1.596   1.604 -0.3263 -0.4214  0.6377
    1SOL    HW2 3526   2.826   1.651   1.593  0.2705  0.1321 -0.9263
    1SOL    HW3 3527   2.885   1.517   1.553  1.0645  0.7157 -1.7298
    1SOL    MW4 3528   2.891   1.593   1.596 -0.0641 -0.1982  0.1190
    1SOL     OW 3529   2.678   1.726   1.546  0.3346 -0.1752  0.1402
    1SOL    HW2 3530   2.691   1.821   1.548  0.1890 -0.1511 -0.0857
    1SOL    HW3 3531   2.685   1.703   1.454  0.8304 -0.4471  0.2462
    1SOL    MW4 3532   2.681   1.735   1.534  0.3805 -0.2079  0.1246
    1SOL     OW 3533   2.725   1.998   1.592  0.0802 -0.0790 -0.4085
    1SOL    HW2 3534   2.729   1.980   1.686 -0.2658 -1.0925 -0.5751
    1SOL    HW3 3535   2.640   2.038   1.578 -0.0329 -0.2957 -0.3444
    1SOL    MW4 3536   2.714   2.001   1.603  0.0198 -0.2413 -0.4220
    1SOL     OW 3537   2.950   2.096   1.463  0.1850  0.4093  0.3254
    1SOL    HW2 3538   2.932   2.188   1.479  1.3842  0.8279 -0.6494
    1SOL    HW3 3539   2.876   2.049   1.504 -0.9677  1.8388 -0.0704
    1SOL    MW4 3540   2.937   2.102   1.471  0.1912  0.6528  0.1445
    1SOL     OW 3541   2.920   2.354   1.577  0.0263 -0.1533  0.4363
    1SOL    HW2 3542   2.951   2.356   1.667 -0.5662 -2.2941  0.6968
    1SOL    HW3 3543   2.831   2.391   1.581 -0.0684 -0.4180  0.7550
    1SOL    MW4 3544   2.912   2.359   1.589 -0.0644 -0.4706  0.5127
    1SOL     OW 3545   2.666   2.477   1.544 -0.2295 -0.0081 -0.5128
    1SOL    HW2 3546   2.675   2.568   1.574 -1.4977  0.3562 -1.2093
    1SOL    HW3 3547   2.581   2.449   1.577  0.4165 -1.1611  0.2218
    1SOL    MW4 3548   2.656   2.485   1.553 -0.3114 -0.1121 -0.5077
    1SOL     OW 3549   2.719   2.744   1.620 -0.3608 -0.0031 -0.0167
    1SOL    HW2 3550   2.784   2.802   1.581 -0.8372 -0.2107 -1.1221
    1SOL    HW3 3551   2.636   2.771   1.581 -1.1374  1.0438  2.2385
    1SOL    MW4 3552   2.716   2.755   1.610 -0.5262  0.1078  0.1351
    1SOL     OW 3553   2.935   2.860   1.505 -0.1048 -0.0164 -0.0035
    1SOL    HW2 3554   3.005   2.812   1.549 -1.2785  0.1124  2.0715
    1SOL    HW3 3555   2.943   2.949   1.539 -0.8127  0.1719 -0.3264
    1SOL    MW4 3556   2.945   2.866   1.516 -0.3529  0.0255  0.2277
    1SOL     OW 3557   2.917   3.127   1.607 -0.2062  0.0327  0.3804
    1SOL    HW2 3558   2.928   3.121   1.702  0.5764  0.0044  0.2943
    1SOL    HW3 3559   2.970   3.203   1.582  1.1186 -1.0815 -0.2621
    1SOL    MW4 3560   2.925   3.136   1.616  0.0718 -0.1178  0.2843
    1SOL     OW 3561   2.669   3.217   1.518 -0.3485 -0.0409 -0.1233
    1SOL    HW2 3562   2.755   3.187   1.546 -0.3783 -1.1326 -1.1460
    1SOL    HW3 3563   2.679   3.236   1.425 -1.0235  0.5386 -0.0785
    1SOL    MW4 3564   2.681   3.215   1.510 -0.4416 -0.1085 -0.2522
    1SOL     OW 3565   2.704   3.468   1.624 -0.0134 -0.1359  0.1145
    1SOL    HW2 3566   2.672   3.462   1.714  0.2567 -1.3301  0.1400
    1SOL    HW3 3567   2.679   3.385   1.584  0.1142  0.2768 -0.8388
    1SOL    MW4 3568   2.696   3.456   1.631  0.0391 -0.2391 -0.0079
    1SOL     OW 3569   2.924   3.621   1.539  0.5203 -0.0759 -0.2114
    1SOL    HW2 3570   2.859   3.560   1.574  0.3839  0.4204  0.3982
    1SOL    HW3 3571   2.906   3.624   1.445  0.0129 -0.3624 -0.1253
    1SOL    MW4 3572   2.913   3.613   1.531  0.4354 -0.0479 -0.1196
    1SOL     OW 3573   2.963   3.893   1.628 -0.3047  0.1771  0.1649
    1SOL    HW2 3574   2.883   3.934   1.595  0.0439  0.2172 -0.6234
    1SOL    HW3 3575   2.951   3.800   1.613 -0.4676  0.1210  0.6215
    1SOL    MW4 3576   2.951   3.886   1.622 -0.2804  0.1750  0.1212
    1SOL     OW 3577   2.733   4.005   1.543  0.2697  0.4554  0.2663
    1SOL    HW2 3578   2.721   4.094   1.574  0.7322  0.7790 -0.4544
    1SOL    HW3 3579   2.718   4.011   1.448  0.9591 -0.0986  0.1187
    1SOL    MW4 3580   2.729   4.017   1.534  0.4215  0.4253  0.1516
    1SOL     OW 3581   2.711   4.261   1.607  0.1977 -0.1552 -0.1329
    1SOL    HW2 3582   2.769   4.297   1.540 -0.3128 -0.7015 -0.8716
    1SOL    HW3 3583   2.627   4.304   1.592  0.1681 -0.0427  0.3557
    1SOL    MW4 3584   2.707   4.271   1.596  0.1266 -0.2122 -0.1661
    1SOL     OW 3585   2.921   4.380   1.443 -0.4708  0.0869  0.1547
    1SOL    HW2 3586   2.907   4.465   1.485 -1.1797  0.5441 -0.9593
    1SOL    HW3 3587   2.922   4.400   1.349 -1.3554 -1.2339 -0.1473
    1SOL    MW4 3588   2.919   4.394   1.436 -0.6809 -0.0272 -0.0323
    1SOL     OW 3589   3.392   4.663   1.646 -0.0077 -0.4579 -1.0967
    1SOL    HW2 3590   3.460   4.719   1.609 -0.4650 -0.1672 -1.4998
    1SOL    HW3 3591   3.405   4.578   1.603 -1.2028  0.1648 -2.7256
    1SOL    MW4 3592   3.403   4.659   1.636 -0.2255 -0.3374 -1.3648
    1SOL     OW 3593   3.184   0.087   1.499  0.0131 -0.1895 -0.4360
    1SOL    HW2 3594   3.262   0.062   1.550 -0.3091 -1.1763 -0.4213
    1SOL    HW3 3595   3.117   0.025   1.526 -1.2259  1.6076  0.6612
    1SOL    MW4 3596   3.186   0.076   1.509 -0.1931 -0.0826 -0.2894
    1SOL     OW 3597   3.171   0.349   1.600 -0.3420 -0.1376 -0.2108
    1SOL    HW2 3598   3.187   0.272   1.546  1.3449 -0.2277  0.3971
    1SOL    HW3 3599   3.087   0.383   1.569 -0.2068 -1.1538 -1.7264
    1SOL    MW4 3600   3.162   0.344   1.589 -0.1018 -0.2836 -0.3307
    1SOL     OW 3601   3.353   0.509   1.480 -0.0406 -0.3974  0.2533
    1SOL    HW2 3602   3.280   0.461   1.520 -1.6622  0.8169 -1.1166
    1SOL    HW3 3603   3.353   0.481   1.389  1.6899 -0.9081  0.4056
    1SOL    MW4 3604   3.343   0.499   1.473 -0.0260 -0.3045  0.0927
    1SOL     OW 3605   3.359   0.789   1.550 -0.4340 -0.2758 -0.2439
    1SOL    HW2 3606   3.383   0.786   1.642  0.1936 -0.2619 -0.4039
    1SOL    HW3 3607   3.354   0.698   1.522 -1.2632 -0.3010 -0.0392
    1SOL    MW4 3608   3.361   0.777   1.558 -0.4609 -0.2773 -0.2379
    1SOL     OW 3609   3.120   0.934   1.478  0.4214  0.1753  0.0273
    1SOL    HW2 3610   3.199   0.886   1.502 -0.3327 -1.2566 -0.2833
    1SOL    HW3 3611   3.048   0.880   1.511 -0.4242  1.6074  0.5717
    1SOL    MW4 3612   3.121   0.920   1.485  0.2105  0.1754  0.0581
    1SOL     OW 3613   3.143   1.191   1.568 -0.0202  0.0605 -0.2046
    1SOL    HW2 3614   3.105   1.182   1.655  0.3445  0.1005 -0.0421
    1SOL    HW3 3615   3.135   1.104   1.529  1.2782 -0.3787  0.4672
    1SOL    MW4 3616   3.137   1.178   1.574  0.1991  0.0079 -0.0945
    1SOL     OW 3617   3.391   1.293   1.461  0.4728  0.2860  0.3046
    1SOL    HW2 3618   3.454   1.231   1.499  0.2626 -0.8931 -1.1879
    1SOL    HW3 3619   3.305   1.261   1.489  0.4610  0.9758  1.0487
    1SOL    MW4 3620   3.388   1.281   1.469  0.4435  0.2215  0.2059
    1SOL     OW 3621   3.371   1.542   1.570  0.5390  0.1541  0.5029
    1SOL    HW2 3622   3.355   1.537   1.665 -2.2291 -0.5224  0.0453
    1SOL    HW3 3623   3.375   1.450   1.542 -0.3101  0.3337 -0.2556
    1SOL    MW4 3624   3.369   1.529   1.579  0.0618  0.0886  0.3425
    1SOL     OW 3625   3.141   1.686   1.458 -0.1750 -0.0497 -0.1942
    1SOL    HW2 3626   3.215   1.641   1.499 -0.8070  1.0210  2.2517
    1SOL    HW3 3627   3.065   1.661   1.511 -0.9370  1.7640 -0.3765
    1SOL    MW4 3628   3.141   1.677   1.471 -0.3586  0.3308  0.1044
    1SOL     OW 3629   3.160   1.955   1.581  0.6527  0.1167 -0.1875
    1SOL    HW2 3630   3.145   1.867   1.546  1.8570  0.6420 -2.1433
    1SOL    HW3 3631   3.090   2.008   1.543  0.3093  0.1270  0.4620
    1SOL    MW4 3632   3.149   1.951   1.571  0.7665  0.1874 -0.3600
    1SOL     OW 3633   3.415   2.055   1.489  0.0637  0.0964 -0.0825
    1SOL    HW2 3634   3.326   2.028   1.512  0.3291 -1.0738 -0.3858
    1SOL    HW3 3635   3.410   2.079   1.397  0.1246 -0.2632 -0.1804
    1SOL    MW4 3636   3.403   2.055   1.480  0.1068 -0.1054 -0.1353
    1SOL     OW 3637   3.351   2.287   1.609 -0.1382  0.6165 -0.4981
    1SOL    HW2 3638   3.433   2.336   1.600 -0.2842  0.6558 -1.6875
    1SOL    HW3 3639   3.369   2.202   1.569 -1.1594  1.1838 -2.1890
    1SOL    MW4 3640   3.364   2.282   1.603 -0.2921  0.6964 -0.8780
    1SOL     OW 3641   3.160   2.454   1.476  0.2991 -0.0539 -0.3626
    1SOL    HW2 3642   3.222   2.391   1.514  0.2063 -0.0166 -0.1451
    1SOL    HW3 3643   3.074   2.423   1.506  0.4074  1.4649  1.6680
    1SOL    MW4 3644   3.157   2.441   1.485  0.3011  0.1514 -0.0659
    1SOL     OW 3645   3.162   2.704   1.623  0.1929  0.2104 -0.1189
    1SOL    HW2 3646   3.241   2.743   1.585  0.9601 -0.4211  0.8148
    1SOL    HW3 3647   3.157   2.617   1.584 -0.6079  0.6278 -0.9511
    1SOL    MW4 3648   3.172   2.698   1.613  0.1886  0.1822 -0.1056
    1SOL     OW 3649   3.350   2.862   1.474  0.0435  0.1458 -0.6401
    1SOL    HW2 3650   3.331   2.954   1.492 -0.2502  0.1476 -0.9396
    1SOL    HW3 3651   3.371   2.860   1.380  2.1961  0.2485 -0.1864
    1SOL    MW4 3652   3.350   2.874   1.464  0.2887  0.1597 -0.6198
    1SOL     OW 3653   3.336   3.112   1.593 -0.0388 -0.1893 -0.0764
    1SOL    HW2 3654   3.337   3.099   1.687  0.5050 -0.8183 -0.1663
    1SOL    HW3 3655   3.419   3.155   1.573 -0.4153  0.4918 -0.1969
    1SOL    MW4 3656   3.347   3.116   1.603 -0.0167 -0.1826 -0.1042
    1SOL     OW 3657   3.127   3.298   1.522 -0.1216 -0.1357  0.1965
    1SOL    HW2 3658   3.151   3.384   1.557  0.4562 -0.2983  0.2183
    1SOL    HW3 3659   3.198   3.240   1.552 -0.1339 -0.4727 -0.4272
    1SOL    MW4 3660   3.140   3.301   1.531 -0.0470 -0.2017  0.1172
    1SOL     OW 3661   3.167   3.544   1.626 -0.5050 -0.0319  0.0178
    1SOL    HW2 3662   3.157   3.528   1.720 -0.0654 -0.9974 -0.0916
    1SOL    HW3 3663   3.079   3.570   1.597 -0.7867 -0.3302  0.5846
    1SOL    MW4 3664   3.154   3.545   1.634 -0.4842 -0.1986  0.0781
    1SOL     OW 3665   3.379   3.658   1.479 -0.3623 -0.3187  0.0621
    1SOL    HW2 3666   3.455   3.603   1.495  0.1836  0.0517 -1.1580
    1SOL    HW3 3667   3.313   3.627   1.540  0.1746 -1.8566 -0.1178
    1SOL    MW4 3668   3.380   3.647   1.489 -0.2196 -0.4728 -0.1225
    1SOL     OW 3669   3.375   3.891   1.623 -0.2264 -0.3719 -0.0883
    1SOL    HW2 3670   3.306   3.931   1.569 -0.0505  1.1015  0.7668
    1SOL    HW3 3671   3.389   3.805   1.583 -1.8277 -0.2786 -0.9114
    1SOL    MW4 3672   3.368   3.885   1.611 -0.4146 -0.1655 -0.0840
    1SOL     OW 3673   3.178   4.003   1.481  0.0652 -0.2335  0.2243
    1SOL    HW2 3674   3.170   4.095   1.507 -1.6699  0.2043 -1.7213
    1SOL    HW3 3675   3.103   3.960   1.521  0.1819 -0.5400  0.1137
    1SOL    MW4 3676   3.167   4.010   1.489 -0.1483 -0.2165 -0.0468
    1SOL     OW 3677   3.152   4.270   1.566 -0.2328  0.2049  0.0429
    1SOL    HW2 3678   3.135   4.258   1.660 -2.0321 -1.7567 -0.4956
    1SOL    HW3 3679   3.072   4.310   1.532 -0.8512 -1.9280 -1.1555
    1SOL    MW4 3680   3.139   4.274   1.574 -0.5517 -0.3352 -0.1862
    1SOL     OW 3681   3.389   4.419   1.510  0.4135 -0.4182 -0.1795
    1SOL    HW2 3682   3.314   4.367   1.540  0.6187  0.1300  1.3357
    1SOL    HW3 3683   3.394   4.402   1.416  0.3476 -2.9524  0.2331
    1SOL    MW4 3684   3.380   4.410   1.502  0.4318 -0.6800  0.0749
    1SOL     OW 3685   3.770   0.009   1.598  0.0848 -0.3699 -0.1311
    1SOL    HW2 3686   3.790   0.001   1.691 -0.0190  1.8366  0.1112
    1SOL    HW3 3687   3.853   0.035   1.558 -0.4248  1.0292 -0.2942
    1SOL    MW4 3688   3.784   0.011   1.605  0.0041  0.1058 -0.1208
    1SOL     OW 3689   3.572   0.176   1.528  0.2751  0.2443  0.2166
    1SOL    HW2 3690   3.640   0.117   1.562  1.6709  1.5916 -0.1996
    1SOL    HW3 3691   3.569   0.157   1.435  0.6520  0.7704  0.0995
    1SOL    MW4 3692   3.580   0.165   1.520  0.5088  0.4915  0.1464
    1SOL     OW 3693   3.579   0.442   1.620 -0.4679 -0.1176 -0.1930
    1SOL    HW2 3694   3.585   0.348   1.603 -0.5658 -0.1699  0.0547
    1SOL    HW3 3695   3.509   0.472   1.561  1.1160  0.2196 -1.9396
    1SOL    MW4 3696   3.570   0.433   1.610 -0.2718 -0.0800 -0.3908
    1SOL     OW 3697   3.819   0.557   1.518 -0.0502 -0.0944 -0.0845
    1SOL    HW2 3698   3.735   0.523   1.547  0.1368  0.7683  1.5327
    1SOL    HW3 3699   3.823   0.536   1.425 -1.0434 -2.1823  0.3243
    1SOL    MW4 3700   3.809   0.550   1.510 -0.1564 -0.2561  0.1827
    1SOL     OW 3701   3.834   0.817   1.634 -0.3128  0.9764 -0.1013
    1SOL    HW2 3702   3.747   0.850   1.609 -0.4044  1.7897  1.2265
    1SOL    HW3 3703   3.833   0.726   1.607 -1.1396  1.2941 -1.2009
    1SOL    MW4 3704   3.822   0.810   1.627 -0.4339  1.1257 -0.0710
    1SOL     OW 3705   3.605   0.905   1.516  0.3336 -0.0149  0.1949
    1SOL    HW2 3706   3.522   0.857   1.521 -0.2408  0.8926 -0.4749
    1SOL    HW3 3707   3.626   0.907   1.423 -0.2019  1.9764  0.1111
    1SOL    MW4 3708   3.597   0.899   1.504  0.1874  0.3676  0.0954
    1SOL     OW 3709   3.606   1.173   1.600 -0.9610 -0.3689 -0.1232
    1SOL    HW2 3710   3.677   1.222   1.558 -1.9684  0.7953 -0.4984
    1SOL    HW3 3711   3.620   1.083   1.572 -0.0205 -0.0445 -0.7359
    1SOL    MW4 3712   3.618   1.168   1.591 -0.9699 -0.1725 -0.2534
    1SOL     OW 3713   3.810   1.308   1.493 -0.0982  0.2122 -0.1205
    1SOL    HW2 3714   3.882   1.252   1.522  0.7637  0.5490 -1.5365
    1SOL    HW3 3715   3.828   1.393   1.534  1.1545  0.7060 -1.6190
    1SOL    MW4 3716   3.822   1.312   1.502  0.1807  0.3216 -0.5050
    1SOL     OW 3717   3.814   1.564   1.613 -0.1069  0.0220 -0.0481
    1SOL    HW2 3718   3.807   1.550   1.707  0.9969  1.3735  0.2650
    1SOL    HW3 3719   3.729   1.600   1.587 -0.1391  0.4196  0.5908
    1SOL    MW4 3720   3.802   1.567   1.622  0.0343  0.2527  0.0774
    1SOL     OW 3721   3.590   1.680   1.477 -0.2422 -0.2400 -0.0664
    1SOL    HW2 3722   3.510   1.632   1.500 -0.4307  0.0802 -0.0507
    1SOL    HW3 3723   3.596   1.672   1.382  0.1854 -1.0124  0.0237
    1SOL    MW4 3724   3.580   1.673   1.467 -0.2108 -0.2996 -0.0525
    1SOL     OW 3725   3.610   1.915   1.631 -0.1049  0.0636 -0.8940
    1SOL    HW2 3726   3.613   1.840   1.571  0.1879  1.3248 -2.5044
    1SOL    HW3 3727   3.562   1.982   1.583  0.5457  1.2702  0.1119
    1SOL    MW4 3728   3.604   1.914   1.617  0.0196  0.3892 -0.9738
    1SOL     OW 3729   3.831   2.053   1.519 -0.0710  0.1235 -0.2382
    1SOL    HW2 3730   3.827   2.148   1.529  2.2067  0.2399 -0.0623
    1SOL    HW3 3731   3.765   2.020   1.580 -0.1212  1.5491  0.5194
    1SOL    MW4 3732   3.822   2.061   1.528  0.2229  0.3271 -0.1152
    1SOL     OW 3733   3.788   2.319   1.593  0.3560  0.0213 -0.0201
    1SOL    HW2 3734   3.799   2.308   1.688  0.7374 -0.1439 -0.0812
    1SOL    HW3 3735   3.873   2.351   1.563  0.0229  0.7295 -0.2115
    1SOL    MW4 3736   3.801   2.321   1.602  0.3624  0.0930 -0.0534
    1SOL     OW 3737   3.559   2.448   1.543  0.2786 -0.7936 -0.1055
    1SOL    HW2 3738   3.575   2.542   1.556 -0.6031 -0.9250  2.0279
    1SOL    HW3 3739   3.644   2.407   1.558  0.5522 -0.3910 -0.5359
    1SOL    MW4 3740   3.572   2.455   1.547  0.1984 -0.7579  0.1192
    1SOL     OW 3741   3.583   2.718   1.564 -0.0335 -0.5289  0.2591
    1SOL    HW2 3742   3.578   2.724   1.660  0.3205  2.5663  0.1369
    1SOL    HW3 3743   3.506   2.767   1.534 -0.3457 -1.8196 -1.0345
    1SOL    MW4 3744   3.572   2.726   1.573 -0.0279 -0.2909  0.0724
    1SOL     OW 3745   3.822   2.852   1.488 -0.4127 -0.5563  0.5632
    1SOL    HW2 3746   3.898   2.797   1.506 -0.5659 -0.9095  0.1561
    1SOL    HW3 3747   3.747   2.796   1.509 -0.5524 -0.0193  1.5017
    1SOL    MW4 3748   3.822   2.837   1.493 -0.4516 -0.5324  0.6332
    1SOL     OW 3749   3.838   3.113   1.586  0.2842  0.3711 -0.0754
    1SOL    HW2 3750   3.916   3.138   1.536  1.1133  0.0247  1.0250
    1SOL    HW3 3751   3.815   3.027   1.553  1.7409 -0.5303  1.1624
    1SOL    MW4 3752   3.845   3.105   1.575  0.5860  0.2065  0.2331
    1SOL     OW 3753   3.575   3.234   1.514 -0.4236 -0.0936 -0.5306
    1SOL    HW2 3754   3.658   3.206   1.554 -1.5645 -0.9745  1.3081
    1SOL    HW3 3755   3.587   3.221   1.421  0.9239 -1.7999 -0.1307
    1SOL    MW4 3756   3.587   3.229   1.507 -0.3965 -0.4349 -0.2353
    1SOL     OW 3757   3.584   3.486   1.586 -0.2184 -0.2142 -0.9269
    1SOL    HW2 3758   3.671   3.508   1.552 -0.1093 -0.9766 -1.1639
    1SOL    HW3 3759   3.572   3.394   1.561 -0.1484 -0.7844  1.0489
    1SOL    MW4 3760   3.594   3.477   1.579 -0.1950 -0.3901 -0.6974
    1SOL     OW 3761   3.817   3.559   1.483 -0.1950 -0.2959  0.1788
    1SOL    HW2 3762   3.891   3.518   1.527  0.1663  0.0279 -0.1265
    1SOL    HW3 3763   3.818   3.650   1.512 -0.9442 -0.4749  0.7852
    1SOL    MW4 3764   3.827   3.566   1.492 -0.2463 -0.2768  0.2185
    1SOL     OW 3765   3.842   3.858   1.603  0.3804  0.2454 -0.1999
    1SOL    HW2 3766   3.915   3.920   1.597  0.4528  0.2431  0.6570
    1SOL    HW3 3767   3.764   3.912   1.584  0.5460  0.3609 -0.5660
    1SOL    MW4 3768   3.841   3.873   1.599  0.4115  0.2601 -0.1351
    1SOL     OW 3769   3.616   3.989   1.520 -0.2707 -0.0787 -0.0859
    1SOL    HW2 3770   3.614   4.073   1.565  0.2130  1.0983 -2.1891
    1SOL    HW3 3771   3.528   3.954   1.531 -0.6741  1.0072  0.2423
    1SOL    MW4 3772   3.604   3.995   1.528 -0.2601  0.2201 -0.3202
    1SOL     OW 3773   3.585   4.260   1.617 -0.1296 -0.0676 -0.3164
    1SOL    HW2 3774   3.586   4.284   1.710 -1.2487 -0.4068 -0.2162
    1SOL    HW3 3775   3.522   4.320   1.578 -0.0971 -0.3210 -0.7541
    1SOL    MW4 3776   3.577   4.271   1.624 -0.2730 -0.1454 -0.3610
    1SOL     OW 3777   3.787   4.419   1.510 -0.1157  0.6300 -0.3341
    1SOL    HW2 3778   3.716   4.374   1.556  0.4431  0.1701  0.0945
    1SOL    HW3 3779   3.778   4.511   1.535 -0.2968  0.5043  0.0621
    1SOL    MW4 3780   3.777   4.425   1.520 -0.0658  0.5527 -0.2254
    1SOL     OW 3781   4.286   0.012   1.611 -0.5129  0.1764  0.2211
    1SOL    HW2 3782   4.279  -0.013   1.703 -0.4108 -1.4680 -0.2016
    1SOL    HW3 3783   4.300  -0.071   1.564 -0.6698  0.9775 -1.2842
    1SOL    MW4 3784   4.287  -0.002   1.617 -0.5202  0.0653 -0.0334
    1SOL     OW 3785   4.026   0.106   1.506 -0.6860 -0.5528 -0.0563
    1SOL    HW2 3786   4.030   0.197   1.536 -2.0479 -0.6257  0.3718
    1SOL    HW3 3787   4.100   0.064   1.549  0.3550  0.4976 -0.7854
    1SOL    MW4 3788   4.036   0.112   1.515 -0.7281 -0.4238 -0.0960
    1SOL     OW 3789   4.045   0.366   1.595  0.4968  0.5397 -0.0934
    1SOL    HW2 3790   4.052   0.371   1.690 -1.0373  0.6381  0.0260
    1SOL    HW3 3791   3.982   0.435   1.572  0.9026  0.5517 -1.1816
    1SOL    MW4 3792   4.037   0.376   1.604  0.3481  0.5543 -0.2210
    1SOL     OW 3793   4.273   0.479   1.512 -0.2835  0.6403 -0.1734
    1SOL    HW2 3794   4.192   0.444   1.548  0.6089 -0.8645  0.4230
    1SOL    HW3 3795   4.342   0.436   1.562  0.9532  0.0328 -2.3168
    1SOL    MW4 3796   4.271   0.469   1.523 -0.0029  0.3616 -0.3774
    1SOL     OW 3797   4.255   0.748   1.606 -0.0985 -0.0600  0.2710
    1SOL    HW2 3798   4.253   0.654   1.590  0.6663 -0.3144  1.5730
    1SOL    HW3 3799   4.328   0.780   1.553 -0.0615 -0.2705  0.1946
    1SOL    MW4 3800   4.264   0.740   1.597  0.0072 -0.1214  0.4326
    1SOL     OW 3801   4.052   0.903   1.483  0.3645 -0.4440  0.3265
    1SOL    HW2 3802   4.127   0.855   1.517 -0.1574 -1.2980  0.3074
    1SOL    HW3 3803   3.976   0.862   1.525 -0.1836 -0.5184 -0.7178
    1SOL    MW4 3804   4.052   0.891   1.493  0.2236 -0.5664  0.1862
    1SOL     OW 3805   4.006   1.159   1.596  0.3061  0.2877 -0.1868
    1SOL    HW2 3806   3.995   1.143   1.690  2.2368 -0.3848 -0.0625
    1SOL    HW3 3807   4.018   1.072   1.559  1.3208  0.6948 -0.8176
    1SOL    MW4 3808   4.006   1.145   1.604  0.6948  0.2527 -0.2537
    1SOL     OW 3809   4.231   1.304   1.518 -0.0513 -0.4168 -0.1856
    1SOL    HW2 3810   4.155   1.248   1.539 -0.6392 -0.6230 -2.6348
    1SOL    HW3 3811   4.306   1.246   1.528 -0.4034 -0.8061  0.2499
    1SOL    MW4 3812   4.231   1.289   1.522 -0.1750 -0.4953 -0.4513
    1SOL     OW 3813   4.262   1.551   1.614 -0.2382 -0.0835  0.1001
    1SOL    HW2 3814   4.253   1.460   1.586 -1.5659 -0.1310  0.6397
    1SOL    HW3 3815   4.348   1.578   1.582 -0.9355 -0.6967 -2.3891
    1SOL    MW4 3816   4.272   1.543   1.606 -0.5054 -0.1707 -0.1571
    1SOL     OW 3817   4.040   1.657   1.499  0.5219  0.5297 -0.5375
    1SOL    HW2 3818   4.113   1.618   1.548  0.7342  1.0757 -0.4242
    1SOL    HW3 3819   3.962   1.630   1.548  0.6667  0.2365 -0.4642
    1SOL    MW4 3820   4.039   1.648   1.512  0.5693  0.5630 -0.5128
    1SOL     OW 3821   4.067   1.919   1.624 -0.4821 -0.4392 -0.5005
    1SOL    HW2 3822   4.078   1.832   1.585  2.2300  0.6705 -2.3673
    1SOL    HW3 3823   3.995   1.958   1.576 -1.5987 -1.5783  0.2273
    1SOL    MW4 3824   4.059   1.912   1.612 -0.2713 -0.4431 -0.6508
    1SOL     OW 3825   4.278   2.050   1.510 -0.1424  0.1076 -0.0717
    1SOL    HW2 3826   4.194   2.024   1.548 -0.5395  1.1637 -0.2199
    1SOL    HW3 3827   4.263   2.049   1.416  0.4127 -1.0378 -0.1580
    1SOL    MW4 3828   4.265   2.047   1.503 -0.1221  0.0958 -0.1026
    1SOL     OW 3829   4.260   2.332   1.592 -0.3899  0.1246  0.0638
    1SOL    HW2 3830   4.250   2.330   1.687 -2.3014 -0.3326 -0.1126
    1SOL    HW3 3831   4.276   2.241   1.568 -0.4690  0.1540 -0.1005
    1SOL    MW4 3832   4.261   2.320   1.601 -0.6523  0.0679  0.0190
    1SOL     OW 3833   4.009   2.422   1.494  0.1730  0.0384 -0.1838
    1SOL    HW2 3834   4.013   2.513   1.524 -0.4832  0.1907 -0.5686
    1SOL    HW3 3835   4.096   2.387   1.515  0.2496  0.5958  0.4556
    1SOL    MW4 3836   4.021   2.429   1.501  0.0963  0.1318 -0.1502
    1SOL     OW 3837   4.030   2.695   1.565 -0.1925  0.2956  0.1885
    1SOL    HW2 3838   4.035   2.694   1.660  0.5954  0.4964  0.1550
    1SOL    HW3 3839   4.115   2.731   1.537  0.1098 -1.0204 -0.6248
    1SOL    MW4 3840   4.042   2.700   1.574 -0.0486  0.1485  0.0768
    1SOL     OW 3841   4.277   2.797   1.492 -0.1971  0.1366  0.2270
    1SOL    HW2 3842   4.281   2.893   1.499  1.2576  0.0813  0.2787
    1SOL    HW3 3843   4.282   2.780   1.398  1.2696  0.0517  0.3122
    1SOL    MW4 3844   4.278   2.808   1.481  0.1879  0.1180  0.2451
    1SOL     OW 3845   4.291   3.071   1.557 -0.1126 -0.5975  0.3211
    1SOL    HW2 3846   4.291   3.096   1.649  0.8278 -0.5510  0.3075
    1SOL    HW3 3847   4.356   3.128   1.516 -2.3883  1.2278 -0.8891
    1SOL    MW4 3848   4.299   3.082   1.564 -0.2890 -0.3505  0.1596
    1SOL     OW 3849   4.074   3.206   1.475  0.4875 -0.4077 -0.2689
    1SOL    HW2 3850   4.067   3.277   1.539 -3.0367 -0.8327 -0.0717
    1SOL    HW3 3851   4.150   3.156   1.503  1.6084  1.9182  0.9975
    1SOL    MW4 3852   4.083   3.209   1.487  0.1702 -0.1569 -0.0756
    1SOL     OW 3853   4.040   3.437   1.618 -0.6505 -0.0865 -0.1424
    1SOL    HW2 3854   4.037   3.452   1.712  0.4839 -0.1058 -0.0956
    1SOL    HW3 3855   4.112   3.493   1.587  2.5787 -4.0619 -0.1960
    1SOL    MW4 3856   4.049   3.447   1.626 -0.0749 -0.6137 -0.1432
    1SOL     OW 3857   4.244   3.615   1.532  0.1864 -0.0315 -0.1051
    1SOL    HW2 3858   4.271   3.698   1.571 -0.5244  0.3986 -0.5202
    1SOL    HW3 3859   4.246   3.631   1.438  0.5282 -0.6431 -0.2043
    1SOL    MW4 3860   4.248   3.628   1.525  0.1373 -0.0556 -0.1729
    1SOL     OW 3861   4.302   3.878   1.637 -0.1680  0.3699 -0.0912
    1SOL    HW2 3862   4.228   3.937   1.622 -1.1949 -1.0257 -0.6432
    1SOL    HW3 3863   4.379   3.928   1.609 -0.9719  1.5723 -0.1855
    1SOL    MW4 3864   4.303   3.892   1.631 -0.4091  0.3445 -0.1764
    1SOL     OW 3865   4.079   4.021   1.564  0.7433 -0.3669 -1.0791
    1SOL    HW2 3866   4.059   4.114   1.555 -1.2414 -0.6876 -0.1166
    1SOL    HW3 3867   4.083   3.989   1.474 -0.6166  0.2375 -1.3638
    1SOL    MW4 3868   4.077   4.029   1.551  0.3018 -0.3295 -0.9897
    1SOL     OW 3869   4.056   4.294   1.564 -0.1102 -0.5447  0.1376
    1SOL    HW2 3870   4.042   4.290   1.659 -0.0739 -0.7529  0.1334
    1SOL    HW3 3871   3.980   4.343   1.532  0.0041 -0.2540  0.3009
    1SOL    MW4 3872   4.044   4.300   1.572 -0.0901 -0.5341  0.1585
    1SOL     OW 3873   4.276   4.436   1.485  0.3666 -0.0583  0.1344
    1SOL    HW2 3874   4.197   4.391   1.514 -0.8851  1.7873 -0.3153
    1SOL    HW3 3875   4.290   4.406   1.395 -0.4319  0.3918 -0.1440
    1SOL    MW4 3876   4.268   4.426   1.477  0.0958  0.2451  0.0383
    1SOL     OW 3877   0.229   4.643   1.894  0.4047 -0.9103  0.0036
    1SOL    HW2 3878   0.299   4.704   1.920 -0.1743 -0.2803  0.0856
    1SOL    HW3 3879   0.237   4.638   1.799  0.0750 -0.2377 -0.0652
    1SOL    MW4 3880   0.240   4.651   1.885  0.2848 -0.7384  0.0054
    1SOL     OW 3881   0.009   0.105   1.993  0.1772  0.0402 -0.0059
    1SOL    HW2 3882   0.011   0.198   1.975  1.1657  0.7331  3.2254
    1SOL    HW3 3883   0.092   0.071   1.958 -0.0415  0.4340 -0.8965
    1SOL    MW4 3884   0.020   0.113   1.986  0.2785  0.1836  0.3029
    1SOL     OW 3885   0.046   0.375   1.909  0.4616 -0.6576 -0.4124
    1SOL    HW2 3886  -0.029   0.426   1.939  0.0632 -1.8560  0.6817
    1SOL    HW3 3887   0.121   0.412   1.955  0.4943  0.2622 -1.1835
    1SOL    MW4 3888   0.046   0.387   1.919  0.4129 -0.6944 -0.3698
    1SOL     OW 3889   0.251   0.531   2.022  0.3949  0.5217  0.3427
    1SOL    HW2 3890   0.314   0.484   1.968  0.6710  0.7704  0.4464
    1SOL    HW3 3891   0.246   0.618   1.983  0.2890  0.5731  0.4711
    1SOL    MW4 3892   0.259   0.536   2.010  0.4174  0.5613  0.3731
    1SOL     OW 3893   0.258   0.758   1.869  0.3868 -0.6455 -0.1277
    1SOL    HW2 3894   0.309   0.824   1.915 -0.5978 -0.3749  0.5878
    1SOL    HW3 3895   0.277   0.774   1.776 -0.6140  1.3046 -0.0170
    1SOL    MW4 3896   0.267   0.769   1.863  0.1249 -0.3524 -0.0187
    1SOL     OW 3897   0.029   0.878   1.986 -0.1707 -0.5825  0.3916
    1SOL    HW2 3898  -0.051   0.847   1.944  0.3371 -0.0460 -0.9816
    1SOL    HW3 3899   0.100   0.829   1.944  0.2332 -1.0530  1.5935
    1SOL    MW4 3900   0.028   0.868   1.975 -0.0504 -0.5738  0.3690
    1SOL     OW 3901   0.002   1.142   1.870 -0.0389 -0.2457  0.2940
    1SOL    HW2 3902  -0.069   1.190   1.914  0.6021 -0.2783  1.3867
    1SOL    HW3 3903   0.004   1.057   1.915  0.6094 -0.2894  0.1812
    1SOL    MW4 3904  -0.007   1.137   1.882  0.1311 -0.2558  0.4233
    1SOL     OW 3905   0.220   1.285   1.973 -0.5035  0.5431 -0.5319
    1SOL    HW2 3906   0.207   1.377   1.951 -1.1187  0.3405 -1.0043
    1SOL    HW3 3907   0.138   1.242   1.949 -0.8541  0.1652  1.2763
    1SOL    MW4 3908   0.208   1.292   1.967 -0.6309  0.4666 -0.3556
    1SOL     OW 3909   0.225   1.543   1.909  0.0798 -0.2503  0.0835
    1SOL    HW2 3910   0.304   1.594   1.929  0.6632 -0.6344 -1.1788
    1SOL    HW3 3911   0.153   1.598   1.937  0.7859  0.2370  0.9821
    1SOL    MW4 3912   0.226   1.557   1.916  0.2500 -0.2366  0.0354
    1SOL     OW 3913   0.022   1.687   2.007 -0.0327  0.4970  0.0740
    1SOL    HW2 3914   0.028   1.674   2.102  1.9636 -2.0556 -0.3671
    1SOL    HW3 3915  -0.051   1.631   1.981  0.8530 -0.5640 -0.1742
    1SOL    MW4 3916   0.013   1.678   2.016  0.3475  0.0203 -0.0169
    1SOL     OW 3917   0.019   1.941   1.897  0.3758  0.3730 -0.2003
    1SOL    HW2 3918  -0.061   1.979   1.933  0.8652  0.7787  0.4872
    1SOL    HW3 3919   0.023   1.853   1.936  0.5217  0.5385  0.1600
    1SOL    MW4 3920   0.009   1.934   1.907  0.4592  0.4483 -0.0621
    1SOL     OW 3921   0.246   2.056   1.976  0.4072  0.2268  0.3159
    1SOL    HW2 3922   0.233   2.150   1.966  1.5512  0.3906  0.3158
    1SOL    HW3 3923   0.164   2.017   1.944 -0.2794  1.2332  0.8152
    1SOL    MW4 3924   0.233   2.063   1.971  0.4676  0.3812  0.3817
    1SOL     OW 3925   0.252   2.321   1.954  0.0510 -0.0027 -0.4461
    1SOL    HW2 3926   0.325   2.381   1.969 -0.3791  0.8616 -1.6998
    1SOL    HW3 3927   0.174   2.372   1.974 -0.2295 -0.8007  0.5069
    1SOL    MW4 3928   0.251   2.336   1.958 -0.0428  0.0060 -0.4858
    1SOL     OW 3929   0.011   2.432   1.988 -0.2500  0.1355  0.3153
    1SOL    HW2 3930  -0.004   2.449   2.081  0.1335  0.5641  0.3004
    1SOL    HW3 3931   0.007   2.519   1.947 -0.6783 -0.0788 -0.1068
    1SOL    MW4 3932   0.008   2.446   1.995 -0.2559  0.1640  0.2577
    1SOL     OW 3933   0.026   2.680   1.863 -0.0618 -0.1760 -0.2041
    1SOL    HW2 3934  -0.045   2.741   1.884 -1.5114 -1.7293 -0.4944
    1SOL    HW3 3935   0.038   2.690   1.768  1.6470  1.6798  0.1666
    1SOL    MW4 3936   0.018   2.689   1.853 -0.0276 -0.1361 -0.1936
    1SOL     OW 3937   0.234   2.832   1.995 -0.5200 -0.8299  0.2072
    1SOL    HW2 3938   0.214   2.919   1.962 -0.3806 -0.6846  0.4986
    1SOL    HW3 3939   0.161   2.777   1.965 -0.4129 -0.6952 -0.2985
    1SOL    MW4 3940   0.221   2.836   1.987 -0.4874 -0.7930  0.1789
    1SOL     OW 3941   0.235   3.097   1.895 -0.4389 -0.5873 -0.2851
    1SOL    HW2 3942   0.314   3.147   1.915 -0.8189 -0.1753  0.1955
    1SOL    HW3 3943   0.226   3.103   1.800 -0.0057 -0.4661 -0.3197
    1SOL    MW4 3944   0.244   3.104   1.886 -0.4319 -0.5171 -0.2264
    1SOL     OW 3945   0.012   3.230   1.976  0.0007 -0.5063  0.1012
    1SOL    HW2 3946  -0.070   3.195   1.943 -0.1807  1.6642 -1.9196
    1SOL    HW3 3947   0.080   3.180   1.930 -0.2312  0.3234 -1.1531
    1SOL    MW4 3948   0.010   3.219   1.966 -0.0544 -0.1104 -0.3309
    1SOL     OW 3949   4.486   3.498   1.849  0.0989  0.2550 -0.1842
    1SOL    HW2 3950   4.557   3.545   1.892 -0.7578 -0.2121  1.7595
    1SOL    HW3 3951   4.492   3.409   1.882 -1.2469  0.1625 -0.1761
    1SOL    MW4 3952   4.496   3.493   1.859 -0.1917  0.1812  0.0734
    1SOL     OW 3953   0.177   3.639   1.967 -0.5816 -0.0782  0.0482
    1SOL    HW2 3954   0.170   3.635   2.062 -1.3664  1.7869  0.1038
    1SOL    HW3 3955   0.266   3.611   1.948 -0.4921 -0.6935  1.3024
    1SOL    MW4 3956   0.188   3.635   1.977 -0.6734  0.0868  0.2211
    1SOL     OW 3957   0.235   3.906   1.881 -0.3149  0.5638  0.3206
    1SOL    HW2 3958   0.299   3.947   1.940  1.0854  0.4863 -1.1284
    1SOL    HW3 3959   0.212   3.824   1.925  0.1786  0.8351  1.1072
    1SOL    MW4 3960   0.241   3.901   1.895 -0.0651  0.5896  0.2332
    1SOL     OW 3961   0.007   4.029   1.971 -0.2396  0.1019 -0.2051
    1SOL    HW2 3962  -0.000   4.120   1.941  0.5203 -0.0573 -0.9039
    1SOL    HW3 3963   0.088   3.997   1.931  0.6088 -0.2501  1.7590
    1SOL    MW4 3964   0.017   4.037   1.962 -0.0274  0.0348 -0.0381
    1SOL     OW 3965   4.469   4.279   1.871 -0.7183 -0.4816  0.3025
    1SOL    HW2 3966   4.392   4.322   1.908 -0.3234 -0.7779  1.4751
    1SOL    HW3 3967   4.544   4.324   1.911 -0.2958 -1.8882  1.1310
    1SOL    MW4 3968   4.469   4.291   1.881 -0.6104 -0.7062  0.5665
    1SOL     OW 3969   0.208   4.377   1.970 -0.2305  0.2214  0.0561
    1SOL    HW2 3970   0.218   4.375   2.065 -0.2417 -0.1215  0.0514
    1SOL    HW3 3971   0.215   4.470   1.947 -0.4502  0.3306  0.4166
    1SOL    MW4 3972   0.210   4.389   1.979 -0.2610  0.1903  0.1030
    1SOL     OW 3973   0.673   0.034   1.931  0.2118 -0.6223  0.2292
    1SOL    HW2 3974   0.659  -0.058   1.952  0.4326 -0.5739  0.6004
    1SOL    HW3 3975   0.694   0.035   1.837  1.7415 -1.1164  0.5558
    1SOL    MW4 3976   0.674   0.022   1.921  0.4427 -0.6811  0.3213
    1SOL     OW 3977   0.427   0.135   2.001  0.3284  0.1766  0.1809
    1SOL    HW2 3978   0.434   0.225   1.967  1.7336  0.0046  0.0022
    1SOL    HW3 3979   0.509   0.093   1.975  0.3914 -0.6697  1.7065
    1SOL    MW4 3980   0.438   0.142   1.993  0.5220  0.0422  0.3588
    1SOL     OW 3981   0.448   0.383   1.877  0.1708  0.4924 -0.2150
    1SOL    HW2 3982   0.530   0.424   1.907  0.2793 -0.3546  0.7163
    1SOL    HW3 3983   0.457   0.377   1.782  1.6174 -0.4265 -0.0423
    1SOL    MW4 3984   0.460   0.387   1.869  0.3760  0.2595 -0.0693
    1SOL     OW 3985   0.651   0.529   1.979  0.1957  0.2064 -0.2966
    1SOL    HW2 3986   0.645   0.523   2.074 -0.1148 -0.2812 -0.3498
    1SOL    HW3 3987   0.743   0.512   1.960  0.2050  0.0484 -0.1085
    1SOL    MW4 3988   0.662   0.526   1.989  0.1559  0.1213 -0.2787
    1SOL     OW 3989   0.638   0.781   1.863 -0.0307 -0.7863 -0.2401
    1SOL    HW2 3990   0.725   0.814   1.883  0.8456 -2.3603 -1.3741
    1SOL    HW3 3991   0.636   0.694   1.903 -0.4842 -1.4253 -1.6272
    1SOL    MW4 3992   0.649   0.774   1.871  0.0250 -1.0782 -0.5727
    1SOL     OW 3993   0.454   0.948   1.979 -0.0577 -0.1536 -0.4635
    1SOL    HW2 3994   0.462   0.932   2.073  0.7341  1.6083 -0.2162
    1SOL    HW3 3995   0.517   0.889   1.938 -0.2179 -0.7290  0.1247
    1SOL    MW4 3996   0.463   0.938   1.986  0.0257  0.0029 -0.3532
    1SOL     OW 3997   0.469   1.204   1.884 -0.1383 -0.0278 -0.2978
    1SOL    HW2 3998   0.378   1.228   1.903 -0.0326 -0.4855  0.7942
    1SOL    HW3 3999   0.480   1.118   1.923  0.7029 -0.0794 -0.6378
    1SOL    MW4 4000   0.458   1.196   1.891 -0.0134 -0.0951 -0.1984
    1SOL     OW 4001   0.712   1.304   1.982 -0.4022 -0.2232 -0.0320
    1SOL    HW2 4002   0.706   1.286   2.076 -0.6096  0.3914  0.0707
    1SOL    HW3 4003   0.628   1.272   1.947 -1.0299  1.1002  0.2431
    1SOL    MW4 4004   0.700   1.297   1.990 -0.5124  0.0324  0.0179
    1SOL     OW 4005   0.689   1.539   1.850 -0.2399 -0.2293 -0.0852
    1SOL    HW2 4006   0.706   1.454   1.890  1.5259  0.4322  0.6463
    1SOL    HW3 4007   0.720   1.530   1.759  1.1276  0.0014  0.3492
    1SOL    MW4 4008   0.696   1.527   1.843  0.1735 -0.1117  0.0687
    1SOL     OW 4009   0.462   1.668   1.956 -0.2612 -0.3061 -0.2492
    1SOL    HW2 4010   0.466   1.666   2.052  0.0938 -0.5561 -0.2708
    1SOL    HW3 4011   0.524   1.601   1.927  2.3134  2.2224 -0.7273
    1SOL    MW4 4012   0.471   1.659   1.965  0.1253 -0.0055 -0.3151
    1SOL     OW 4013   0.463   1.945   1.880 -0.2286 -0.0415 -0.1575
    1SOL    HW2 4014   0.464   1.851   1.900  1.8546 -0.0792 -0.3716
    1SOL    HW3 4015   0.379   1.976   1.914 -0.4650 -1.7771  0.8807
    1SOL    MW4 4016   0.452   1.937   1.887  0.0151 -0.2755 -0.0488
    1SOL     OW 4017   0.667   2.085   2.002 -0.1148 -0.0613  0.1636
    1SOL    HW2 4018   0.664   2.060   2.095 -0.5382  1.0014  0.4477
    1SOL    HW3 4019   0.593   2.040   1.963 -1.2628  1.2194  0.8050
    1SOL    MW4 4020   0.657   2.076   2.009 -0.3221  0.2482  0.2859
    1SOL     OW 4021   0.678   2.333   1.902  0.4831  0.0334 -0.4443
    1SOL    HW2 4022   0.676   2.245   1.940  0.2806  0.4504  0.5130
    1SOL    HW3 4023   0.658   2.319   1.809  1.1497 -1.0063 -0.4390
    1SOL    MW4 4024   0.675   2.320   1.894  0.5444 -0.0486 -0.3175
    1SOL     OW 4025   0.474   2.495   2.024 -0.1957  0.6616  0.1251
    1SOL    HW2 4026   0.468   2.474   2.117 -0.4442  0.4370  0.0608
    1SOL    HW3 4027   0.542   2.436   1.990 -0.5620  0.2854  0.0375
    1SOL    MW4 4028   0.482   2.484   2.032 -0.2768  0.5820  0.1051
    1SOL     OW 4029   0.470   2.735   1.895  0.1846  0.1883  0.6587
    1SOL    HW2 4030   0.472   2.647   1.934  0.7038  0.9380  2.3946
    1SOL    HW3 4031   0.388   2.773   1.926 -0.8510 -0.2544 -1.4519
    1SOL    MW4 4032   0.459   2.728   1.904  0.1165  0.2289  0.6092
    1SOL     OW 4033   0.693   2.893   2.015 -0.1933 -0.2056 -0.3940
    1SOL    HW2 4034   0.682   2.884   2.110  0.3221 -0.5738 -0.3659
    1SOL    HW3 4035   0.621   2.842   1.978  0.1127 -0.7799 -0.2035
    1SOL    MW4 4036   0.682   2.885   2.023 -0.0849 -0.3302 -0.3648
    1SOL     OW 4037   0.678   3.136   1.893  0.3072  0.1764  0.0351
    1SOL    HW2 4038   0.675   3.055   1.943 -0.0210  0.3731  0.3360
    1SOL    HW3 4039   0.674   3.108   1.802 -1.3150 -0.0874  0.1620
    1SOL    MW4 4040   0.677   3.122   1.888  0.0498  0.1674  0.0914
    1SOL     OW 4041   0.432   3.269   1.979  0.2264  0.2597  0.3375
    1SOL    HW2 4042   0.423   3.360   1.949 -1.0879 -0.6532 -2.2105
    1SOL    HW3 4043   0.519   3.242   1.948  0.0460  0.2254 -0.1499
    1SOL    MW4 4044   0.442   3.278   1.971  0.0292  0.1347 -0.0629
    1SOL     OW 4045   0.442   3.542   1.880  0.2013  0.0025  0.7011
    1SOL    HW2 4046   0.528   3.576   1.903  0.0910  1.0930 -0.4766
    1SOL    HW3 4047   0.447   3.524   1.786 -0.6342 -0.5920  0.7608
    1SOL    MW4 4048   0.454   3.544   1.871  0.0765  0.0677  0.5536
    1SOL     OW 4049   0.663   3.656   2.014  0.1464  0.1005  0.4729
    1SOL    HW2 4050   0.748   3.620   1.990 -0.1549  0.4690 -1.1757
    1SOL    HW3 4051   0.659   3.742   1.972 -1.4005 -0.2911 -0.2343
    1SOL    MW4 4052   0.673   3.663   2.005 -0.0975  0.0975  0.1624
    1SOL     OW 4053   0.643   3.882   1.882  0.6370 -0.1601 -0.2712
    1SOL    HW2 4054   0.714   3.937   1.915 -1.2368  1.9355  0.3813
    1SOL    HW3 4055   0.651   3.886   1.787 -0.5513  2.7851 -0.3074
    1SOL    MW4 4056   0.654   3.890   1.874  0.2330  0.5050 -0.1899
    1SOL     OW 4057   0.458   4.031   2.033  0.0400  0.0047  0.1557
    1SOL    HW2 4058   0.481   4.109   1.983 -0.2272 -0.1201 -0.1713
    1SOL    HW3 4059   0.507   3.960   1.992  0.4627  0.0399  0.6004
    1SOL    MW4 4060   0.467   4.032   2.021  0.0605 -0.0072  0.1712
    1SOL     OW 4061   0.453   4.274   1.884 -0.1207  0.3979 -0.0309
    1SOL    HW2 4062   0.363   4.304   1.902 -0.0798  0.8224 -0.5517
    1SOL    HW3 4063   0.461   4.279   1.789  0.8340  1.4395  0.0961
    1SOL    MW4 4064   0.442   4.279   1.874  0.0107  0.5918 -0.0827
    1SOL     OW 4065   0.643   4.433   1.992  0.2619  0.4171  0.4612
    1SOL    HW2 4066   0.721   4.401   1.946  0.2453 -0.3238  0.9317
    1SOL    HW3 4067   0.571   4.378   1.958  0.1439  0.3058  0.8891
    1SOL    MW4 4068   0.644   4.421   1.982  0.2441  0.3042  0.5798
    1SOL     OW 4069   1.123   0.019   1.919 -0.2525  0.3803  0.0516
    1SOL    HW2 4070   1.205   0.066   1.937 -0.2982 -0.5273  2.8395
    1SOL    HW3 4071   1.145  -0.073   1.934 -1.4369 -0.0124 -0.5918
    1SOL    MW4 4072   1.137   0.013   1.923 -0.4148  0.2089  0.3344
    1SOL     OW 4073   0.925   0.160   2.031 -0.0817  0.2559  0.0942
    1SOL    HW2 4074   0.999   0.110   1.997 -1.1455 -0.9751 -0.4569
    1SOL    HW3 4075   0.848   0.117   1.995 -1.0459  2.3648 -0.4969
    1SOL    MW4 4076   0.925   0.148   2.022 -0.3492  0.3717 -0.0565
    1SOL     OW 4077   0.896   0.418   1.934  0.3745  0.1297 -0.0395
    1SOL    HW2 4078   0.973   0.473   1.943  0.5056  0.0049 -0.3856
    1SOL    HW3 4079   0.921   0.335   1.975  0.6300 -0.1082 -0.6718
    1SOL    MW4 4080   0.909   0.414   1.940  0.4255  0.0819 -0.1686
    1SOL     OW 4081   1.131   0.531   2.016  0.0128  0.2374  0.0698
    1SOL    HW2 4082   1.187   0.461   1.983 -1.0358 -0.6618  0.1340
    1SOL    HW3 4083   1.165   0.611   1.976  1.3983 -0.2807  0.2165
    1SOL    MW4 4084   1.143   0.532   2.006  0.0571  0.0504  0.0978
    1SOL     OW 4085   1.145   0.756   1.856  0.1680 -0.2711 -0.7837
    1SOL    HW2 4086   1.212   0.814   1.893 -0.1549  0.2066 -0.9539
    1SOL    HW3 4087   1.062   0.791   1.888  0.0366 -1.4241  0.2163
    1SOL    MW4 4088   1.143   0.768   1.865  0.1081 -0.3602 -0.6742
    1SOL     OW 4089   0.892   0.850   1.944  0.3918  0.5158  0.1256
    1SOL    HW2 4090   0.899   0.855   2.039 -0.4316  0.2369  0.2044
    1SOL    HW3 4091   0.894   0.941   1.914  0.5672  0.6061  0.4175
    1SOL    MW4 4092   0.893   0.862   1.952  0.3063  0.4909  0.1745
    1SOL     OW 4093   0.863   1.109   1.878  0.2176  0.2721 -0.2038
    1SOL    HW2 4094   0.811   1.183   1.910  1.3903  1.1562 -0.2667
    1SOL    HW3 4095   0.871   1.125   1.784 -0.8258 -0.7764 -0.4746
    1SOL    MW4 4096   0.857   1.121   1.870  0.2346  0.2506 -0.2478
    1SOL     OW 4097   1.071   1.288   1.969 -0.6542  0.7579  0.0429
    1SOL    HW2 4098   1.060   1.375   1.930 -1.2790  0.8045  0.3242
    1SOL    HW3 4099   1.002   1.235   1.931 -1.8032  1.0252  1.7093
    1SOL    MW4 4100   1.061   1.293   1.959 -0.8881  0.7994  0.2999
    1SOL     OW 4101   1.079   1.540   1.873  0.5450 -0.0981 -0.2890
    1SOL    HW2 4102   1.000   1.585   1.902 -0.0383 -1.3819  0.1784
    1SOL    HW3 4103   1.079   1.551   1.778  0.4026  0.8558 -0.1862
    1SOL    MW4 4104   1.068   1.547   1.864  0.4493 -0.1416 -0.2139
    1SOL     OW 4105   0.865   1.700   1.973  0.8540 -0.3313 -0.0652
    1SOL    HW2 4106   0.853   1.792   1.948  0.4195 -0.0857  1.0325
    1SOL    HW3 4107   0.791   1.655   1.933 -0.2380  0.1752  1.3250
    1SOL    MW4 4108   0.854   1.706   1.964  0.6527 -0.2321  0.2631
    1SOL     OW 4109   0.913   1.977   1.871 -0.4815  0.0503 -0.4210
    1SOL    HW2 4110   0.844   2.037   1.901 -0.3552  0.2802 -0.5908
    1SOL    HW3 4111   0.896   1.967   1.777 -0.6991 -0.4357 -0.3267
    1SOL    MW4 4112   0.901   1.984   1.862 -0.4935  0.0165 -0.4311
    1SOL     OW 4113   1.121   2.066   2.018  0.4802 -0.0357 -0.0441
    1SOL    HW2 4114   1.132   2.157   1.993  1.0627  0.2215  1.1133
    1SOL    HW3 4115   1.046   2.035   1.966  1.3581  0.6026 -1.7090
    1SOL    MW4 4116   1.112   2.074   2.008  0.6731  0.0823 -0.1111
    1SOL     OW 4117   1.100   2.313   1.896 -0.2245  0.4317 -0.4486
    1SOL    HW2 4118   1.173   2.368   1.925  0.3975 -0.4349 -0.3591
    1SOL    HW3 4119   1.094   2.329   1.801 -0.5584  1.2593 -0.2848
    1SOL    MW4 4120   1.109   2.322   1.887 -0.1864  0.4265 -0.4151
    1SOL     OW 4121   0.895   2.447   2.000  0.1672 -0.3245 -0.2171
    1SOL    HW2 4122   0.969   2.403   1.959 -0.5161 -1.8804  0.1676
    1SOL    HW3 4123   0.818   2.401   1.966 -0.5603  0.6100  0.1624
    1SOL    MW4 4124   0.894   2.435   1.990 -0.0189 -0.4063 -0.1163
    1SOL     OW 4125   0.858   2.702   1.886 -0.2661 -0.2973 -0.0698
    1SOL    HW2 4126   0.844   2.614   1.921 -2.2003 -0.0717 -0.2520
    1SOL    HW3 4127   0.788   2.755   1.924  0.0244  0.8444 -1.0997
    1SOL    MW4 4128   0.847   2.697   1.895 -0.4830 -0.1168 -0.2297
    1SOL     OW 4129   1.087   2.849   1.988 -0.2320 -0.1098  0.3490
    1SOL    HW2 4130   1.100   2.841   2.083  1.0834 -1.7797  0.0572
    1SOL    HW3 4131   1.006   2.801   1.971 -1.9555  2.4942  0.9567
    1SOL    MW4 4132   1.078   2.841   1.998 -0.2859  0.0134  0.3908
    1SOL     OW 4133   1.116   3.108   1.871 -0.1414 -0.0129 -0.1856
    1SOL    HW2 4134   1.038   3.147   1.910 -1.0653 -0.8532 -1.1323
    1SOL    HW3 4135   1.115   3.017   1.903  0.4779 -0.0065 -0.1523
    1SOL    MW4 4136   1.105   3.101   1.880 -0.1817 -0.1233 -0.3060
    1SOL     OW 4137   0.910   3.229   1.982 -0.3699 -0.0694 -0.3587
    1SOL    HW2 4138   0.920   3.215   2.076  0.5573 -0.7370 -0.5488
    1SOL    HW3 4139   0.829   3.184   1.958 -0.4438 -0.1575  0.0647
    1SOL    MW4 4140   0.901   3.221   1.991 -0.2573 -0.1693 -0.3279
    1SOL     OW 4141   0.883   3.503   1.920  0.3010 -0.0339  0.5971
    1SOL    HW2 4142   0.881   3.411   1.948  0.4344  0.2284  1.4844
    1SOL    HW3 4143   0.900   3.499   1.826 -0.4599 -0.9497  0.4877
    1SOL    MW4 4144   0.885   3.490   1.911  0.2182 -0.1204  0.6999
    1SOL     OW 4145   1.118   3.645   1.964 -0.4352 -0.4697 -0.4111
    1SOL    HW2 4146   1.128   3.646   2.059 -0.9823  0.4118 -0.3505
    1SOL    HW3 4147   1.052   3.577   1.948 -0.4951 -0.4773 -0.1403
    1SOL    MW4 4148   1.111   3.636   1.974 -0.5152 -0.3543 -0.3673
    1SOL     OW 4149   1.137   3.917   1.895 -0.0571 -0.1416  0.1243
    1SOL    HW2 4150   1.120   3.830   1.932 -0.4790 -0.4089 -0.6869
    1SOL    HW3 4151   1.132   3.904   1.801 -1.8472  1.1110  0.0287
    1SOL    MW4 4152   1.134   3.904   1.888 -0.3490 -0.0117  0.0048
    1SOL     OW 4153   0.869   4.029   1.946  0.2882  0.2598 -0.6992
    1SOL    HW2 4154   0.872   4.042   2.041  0.2249  3.5299 -1.0933
    1SOL    HW3 4155   0.957   3.999   1.924  0.9620  1.5577  0.1420
    1SOL    MW4 4156   0.881   4.027   1.956  0.3687  0.8626 -0.6402
    1SOL     OW 4157   0.858   4.312   1.868  0.0077 -0.2180 -0.6037
    1SOL    HW2 4158   0.937   4.357   1.897 -0.0534 -0.2572 -0.3771
    1SOL    HW3 4159   0.873   4.220   1.889  0.0659 -0.2823 -0.9227
    1SOL    MW4 4160   0.870   4.306   1.874  0.0073 -0.2317 -0.6160
    1SOL     OW 4161   1.113   4.397   1.974 -0.1646 -0.1584  0.4893
    1SOL    HW2 4162   1.114   4.391   2.070  0.0340 -1.2270  0.4346
    1SOL    HW3 4163   1.195   4.355   1.947 -0.2662  0.0515 -0.1509
    1SOL    MW4 4164   1.124   4.391   1.983 -0.1518 -0.2718  0.3974
    1SOL     OW 4165   1.561   4.652   1.890  0.3439  0.4877  0.0022
    1SOL    HW2 4166   1.638   4.696   1.925  1.3197 -0.3535 -1.0539
    1SOL    HW3 4167   1.563   4.564   1.929 -1.2124  1.1060  1.5573
    1SOL    MW4 4168   1.572   4.646   1.899  0.2674  0.4582  0.0679
    1SOL     OW 4169   1.374   0.115   2.019 -0.4251  0.0790  0.0804
    1SOL    HW2 4170   1.369   0.100   2.113 -0.6931 -1.6070 -0.1916
    1SOL    HW3 4171   1.442   0.055   1.989 -0.4146  0.5370 -0.8196
    1SOL    MW4 4172   1.382   0.105   2.027 -0.4590 -0.0830 -0.0744
    1SOL     OW 4173   1.320   0.359   1.918  0.2349  0.0566 -0.0602
    1SOL    HW2 4174   1.333   0.267   1.944  0.6012  0.2124  0.3107
    1SOL    HW3 4175   1.364   0.366   1.833  0.7579  0.0467  0.2055
    1SOL    MW4 4176   1.328   0.348   1.910  0.3523  0.0758  0.0238
    1SOL     OW 4177   1.538   0.546   1.995 -0.2455 -0.1945 -0.2227
    1SOL    HW2 4178   1.609   0.484   1.980 -0.5225  0.0603 -2.8579
    1SOL    HW3 4179   1.458   0.496   1.980 -0.5612  0.0978  0.4398
    1SOL    MW4 4180   1.537   0.531   1.991 -0.3237 -0.1223 -0.4829
    1SOL     OW 4181   1.588   0.772   1.868  0.4481  0.2405  0.2884
    1SOL    HW2 4182   1.652   0.810   1.928 -1.0676  0.7040  1.6652
    1SOL    HW3 4183   1.558   0.693   1.913  1.5960 -1.1440 -1.3253
    1SOL    MW4 4184   1.592   0.767   1.882  0.3995  0.1189  0.2571
    1SOL     OW 4185   1.359   0.902   1.959 -0.1102 -0.2494 -0.2521
    1SOL    HW2 4186   1.375   0.894   2.054 -0.0048  2.9840  0.0484
    1SOL    HW3 4187   1.438   0.866   1.919 -0.1347 -1.6304  0.8847
    1SOL    MW4 4188   1.372   0.896   1.967 -0.0995 -0.0050 -0.0625
    1SOL     OW 4189   1.313   1.173   1.901 -0.0721  0.1874 -0.1491
    1SOL    HW2 4190   1.324   1.082   1.929 -0.6582 -0.2745 -1.3813
    1SOL    HW3 4191   1.224   1.195   1.927  0.4466  0.7725  1.1400
    1SOL    MW4 4192   1.303   1.164   1.908 -0.0811  0.2035 -0.1417
    1SOL     OW 4193   1.536   1.297   2.000 -0.1779 -0.1685  0.1268
    1SOL    HW2 4194   1.554   1.381   1.958 -1.4042  0.3999  0.7014
    1SOL    HW3 4195   1.459   1.264   1.955 -0.3309 -0.4813  0.6088
    1SOL    MW4 4196   1.528   1.304   1.989 -0.3599 -0.1348  0.2661
    1SOL     OW 4197   1.569   1.533   1.884  0.1789 -0.1371  0.2215
    1SOL    HW2 4198   1.640   1.583   1.925  0.4667 -0.1577 -0.2451
    1SOL    HW3 4199   1.489   1.575   1.916  0.4171  0.8020 -0.3766
    1SOL    MW4 4200   1.568   1.545   1.894  0.2483 -0.0159  0.0809
    1SOL     OW 4201   1.326   1.652   1.951 -0.0291  0.6831 -0.1814
    1SOL    HW2 4202   1.324   1.645   2.046 -0.1283  1.8037 -0.0960
    1SOL    HW3 4203   1.245   1.611   1.921 -0.3655  1.0284  0.2636
    1SOL    MW4 4204   1.315   1.646   1.959 -0.0865  0.8765 -0.1115
    1SOL     OW 4205   1.331   1.924   1.871 -0.1678  0.0727  0.1839
    1SOL    HW2 4206   1.332   1.828   1.876 -0.6695  0.0564  0.0547
    1SOL    HW3 4207   1.259   1.950   1.929 -0.3470  0.3428 -0.1537
    1SOL    MW4 4208   1.322   1.915   1.879 -0.2576  0.1062  0.1224
    1SOL     OW 4209   1.555   2.046   1.991  0.0710  0.2357 -0.1869
    1SOL    HW2 4210   1.538   2.135   1.959 -0.6484 -0.1308 -0.8320
    1SOL    HW3 4211   1.492   1.991   1.943  0.6384 -0.6414  0.0754
    1SOL    MW4 4212   1.544   2.051   1.980  0.0510  0.0718 -0.2373
    1SOL     OW 4213   1.539   2.298   1.890  0.0629 -0.3726 -0.2281
    1SOL    HW2 4214   1.622   2.342   1.904 -0.2195 -0.0128  0.3262
    1SOL    HW3 4215   1.520   2.309   1.797  0.7843 -0.7203 -0.4139
    1SOL    MW4 4216   1.547   2.305   1.879  0.1208 -0.3712 -0.1795
    1SOL     OW 4217   1.321   2.441   1.977  0.0088 -0.2782  0.3638
    1SOL    HW2 4218   1.340   2.534   1.967  1.0675 -0.4693  0.5676
    1SOL    HW3 4219   1.403   2.397   1.958 -1.0895 -1.3259 -2.1465
    1SOL    MW4 4220   1.334   2.448   1.973  0.0037 -0.4418  0.0596
    1SOL     OW 4221   1.316   2.718   1.895 -0.0668  0.1662 -0.3804
    1SOL    HW2 4222   1.230   2.754   1.915  0.1008 -0.2733  1.1933
    1SOL    HW3 4223   1.325   2.727   1.800 -2.0531 -0.2588 -0.6212
    1SOL    MW4 4224   1.306   2.724   1.885 -0.3066  0.0522 -0.2046
    1SOL     OW 4225   1.546   2.850   1.983 -0.5402 -0.1205  0.0258
    1SOL    HW2 4226   1.619   2.805   1.941 -0.8510  0.6837 -1.3905
    1SOL    HW3 4227   1.468   2.800   1.957 -0.7009  0.2002 -0.1156
    1SOL    MW4 4228   1.545   2.837   1.974 -0.6024  0.0281 -0.1798
    1SOL     OW 4229   1.534   3.115   1.918 -0.4774  0.2089 -0.0132
    1SOL    HW2 4230   1.534   3.022   1.942  1.8533  0.3743  0.7501
    1SOL    HW3 4231   1.540   3.115   1.823  2.8786 -0.4557  0.1562
    1SOL    MW4 4232   1.535   3.103   1.909  0.2729  0.1431  0.1099
    1SOL     OW 4233   1.304   3.254   2.019 -0.6121  0.0707 -0.1095
    1SOL    HW2 4234   1.387   3.212   1.997 -0.9054  0.0166 -1.1504
    1SOL    HW3 4235   1.240   3.210   1.963 -1.2711  0.4148  0.3709
    1SOL    MW4 4236   1.307   3.242   2.009 -0.7379  0.1090 -0.1836
    1SOL     OW 4237   1.342   3.511   1.904 -0.3824 -0.1786 -0.3344
    1SOL    HW2 4238   1.318   3.430   1.949  0.0147 -0.3004 -0.3342
    1SOL    HW3 4239   1.273   3.573   1.926  0.0080 -0.1219  0.7593
    1SOL    MW4 4240   1.330   3.509   1.913 -0.2786 -0.1874 -0.1900
    1SOL     OW 4241   1.569   3.613   2.033 -0.2597  0.3048  0.3279
    1SOL    HW2 4242   1.555   3.602   2.127 -0.6986 -0.1196  0.2118
    1SOL    HW3 4243   1.488   3.580   1.993 -0.8670  2.2250 -0.1016
    1SOL    MW4 4244   1.556   3.607   2.040 -0.3977  0.5021  0.2558
    1SOL     OW 4245   1.585   3.875   1.956 -0.2779  0.3977  0.4130
    1SOL    HW2 4246   1.668   3.917   1.976 -0.1886 -0.5462  2.1523
    1SOL    HW3 4247   1.591   3.788   1.998 -2.1954  0.4033  0.7606
    1SOL    MW4 4248   1.597   3.869   1.964 -0.5190  0.2737  0.6884
    1SOL     OW 4249   1.365   4.036   2.005 -0.2287 -0.0807 -0.0524
    1SOL    HW2 4250   1.440   3.977   1.991  0.5062  0.9323 -0.4013
    1SOL    HW3 4251   1.289   3.985   1.976  0.1081 -1.7544  1.9198
    1SOL    MW4 4252   1.365   4.021   1.999 -0.0874 -0.1678  0.1618
    1SOL     OW 4253   1.362   4.292   1.891 -0.3624  0.0334 -0.0287
    1SOL    HW2 4254   1.363   4.207   1.936 -1.8797 -0.0942 -0.2154
    1SOL    HW3 4255   1.365   4.270   1.798 -0.0181  0.2013 -0.0544
    1SOL    MW4 4256   1.362   4.278   1.885 -0.5172  0.0396 -0.0567
    1SOL     OW 4257   1.584   4.409   2.003  0.1194 -0.3276  0.0151
    1SOL    HW2 4258   1.592   4.404   2.098 -0.9822  0.2085  0.1482
    1SOL    HW3 4259   1.507   4.357   1.983 -0.6886  0.9907 -0.3927
    1SOL    MW4 4260   1.575   4.402   2.013 -0.1326 -0.0825 -0.0212
    1SOL     OW 4261   2.070   0.009   1.855  0.3558  0.5892  0.0226
    1SOL    HW2 4262   2.141   0.054   1.901  0.2541  0.4472  0.3121
    1SOL    HW3 4263   2.055  -0.070   1.905 -0.8869  1.2439  0.6940
    1SOL    MW4 4264   2.078   0.005   1.867  0.1783  0.6571  0.1494
    1SOL     OW 4265   1.798   0.100   1.980  0.5505  0.7100 -0.2372
    1SOL    HW2 4266   1.805   0.080   2.073 -1.0493  0.4377 -0.1642
    1SOL    HW3 4267   1.886   0.085   1.946  1.1193  0.6824  1.2021
    1SOL    MW4 4268   1.811   0.095   1.988  0.4145  0.6704 -0.0376
    1SOL     OW 4269   1.743   0.374   1.936  0.1592  0.3218 -0.3114
    1SOL    HW2 4270   1.752   0.281   1.960 -0.1028  0.3036 -0.2777
    1SOL    HW3 4271   1.769   0.378   1.844  1.0092  0.3607 -0.0699
    1SOL    MW4 4272   1.747   0.362   1.927  0.2367  0.3245 -0.2750
    1SOL     OW 4273   2.005   0.474   1.990 -0.1877  0.0120 -0.2478
    1SOL    HW2 4274   1.998   0.564   1.958 -1.1459 -0.5887 -1.7911
    1SOL    HW3 4275   1.921   0.435   1.970 -0.4196 -0.7503  2.0427
    1SOL    MW4 4276   1.993   0.481   1.983 -0.3446 -0.1678 -0.1491
    1SOL     OW 4277   1.996   0.732   1.907  0.1442 -0.9156  0.0004
    1SOL    HW2 4278   2.075   0.786   1.916  1.2039 -2.5367  0.6491
    1SOL    HW3 4279   1.929   0.780   1.956  0.9603  0.0223  0.2270
    1SOL    MW4 4280   1.998   0.746   1.915  0.3916 -1.0057  0.1159
    1SOL     OW 4281   1.804   0.893   2.016  0.0896 -0.0165 -0.3961
    1SOL    HW2 4282   1.790   0.977   1.974 -1.3417 -0.1105 -0.1544
    1SOL    HW3 4283   1.789   0.910   2.109  1.4033 -0.1909 -0.1522
    1SOL    MW4 4284   1.800   0.906   2.023  0.0743 -0.0519 -0.3319
    1SOL     OW 4285   1.742   1.145   1.919 -0.3293  0.1814 -0.5503
    1SOL    HW2 4286   1.666   1.186   1.961  0.1606 -1.1494  1.7522
    1SOL    HW3 4287   1.817   1.194   1.953  0.0624 -0.7557 -0.0556
    1SOL    MW4 4288   1.742   1.157   1.929 -0.2131 -0.1178 -0.1812
    1SOL     OW 4289   1.975   1.262   1.968 -0.4064 -0.0567 -0.0756
    1SOL    HW2 4290   2.046   1.217   1.921 -0.6646  0.4893 -0.9898
    1SOL    HW3 4291   2.006   1.265   2.059  1.3274  1.2890 -0.6794
    1SOL    MW4 4292   1.989   1.257   1.974 -0.2117  0.1929 -0.2759
    1SOL     OW 4293   1.990   1.522   1.869  0.3254 -0.3853  0.2323
    1SOL    HW2 4294   1.976   1.430   1.891  1.4499 -0.9057 -1.1861
    1SOL    HW3 4295   2.001   1.523   1.774  1.2312  1.0950  0.3404
    1SOL    MW4 4296   1.990   1.510   1.860  0.5933 -0.2587  0.0594
    1SOL     OW 4297   1.795   1.668   2.001 -0.3605  0.3883 -0.0906
    1SOL    HW2 4298   1.784   1.752   1.956 -1.6345 -0.3935 -1.3195
    1SOL    HW3 4299   1.877   1.633   1.968 -0.8945  0.1876 -1.2442
    1SOL    MW4 4300   1.804   1.675   1.991 -0.5990  0.2587 -0.4050
    1SOL     OW 4301   1.791   1.926   1.909  0.0061  0.0397 -0.2479
    1SOL    HW2 4302   1.717   1.973   1.948  0.1564  0.2334 -0.1990
    1SOL    HW3 4303   1.792   1.956   1.818 -0.0781 -0.0895 -0.2923
    1SOL    MW4 4304   1.781   1.936   1.902  0.0149  0.0482 -0.2474
    1SOL     OW 4305   2.021   2.101   1.958  0.0892 -0.3402  0.0236
    1SOL    HW2 4306   2.096   2.070   1.906 -0.2457 -0.4197 -0.4125
    1SOL    HW3 4307   1.949   2.044   1.933 -0.1627 -0.1515  0.3149
    1SOL    MW4 4308   2.022   2.090   1.948  0.0117 -0.3257  0.0045
    1SOL     OW 4309   2.028   2.370   1.870  0.2095  0.4824  0.3932
    1SOL    HW2 4310   2.116   2.391   1.901  0.4180  0.4771 -0.2032
    1SOL    HW3 4311   2.011   2.283   1.904 -0.7166  1.6263  3.0121
    1SOL    MW4 4312   2.037   2.362   1.879  0.1149  0.6325  0.6599
    1SOL     OW 4313   1.769   2.438   1.990  0.4931 -0.1318 -0.1495
    1SOL    HW2 4314   1.776   2.437   2.086  0.9181  2.4293 -0.1165
    1SOL    HW3 4315   1.858   2.420   1.960  0.5401 -0.0570 -0.0565
    1SOL    MW4 4316   1.781   2.436   1.999  0.5554  0.2162 -0.1329
    1SOL     OW 4317   1.783   2.711   1.928 -0.1348  0.0506 -0.2075
    1SOL    HW2 4318   1.794   2.617   1.944  1.1502  0.2879  0.4089
    1SOL    HW3 4319   1.785   2.720   1.833 -0.5962 -0.5911 -0.2770
    1SOL    MW4 4320   1.785   2.700   1.918 -0.0261 -0.0029 -0.1353
    1SOL     OW 4321   2.051   2.817   1.975  0.3963 -0.2694  0.0740
    1SOL    HW2 4322   2.053   2.826   2.071 -0.6799 -0.1123  0.0862
    1SOL    HW3 4323   1.963   2.785   1.956  0.8191 -0.9254 -0.8204
    1SOL    MW4 4324   2.040   2.814   1.985  0.3102 -0.3355 -0.0422
    1SOL     OW 4325   2.032   3.085   1.870 -0.7986 -0.3402 -0.5238
    1SOL    HW2 4326   1.944   3.107   1.900 -1.2880  0.4282 -2.4284
    1SOL    HW3 4327   2.045   2.994   1.897 -2.6684 -0.8700 -1.3520
    1SOL    MW4 4328   2.022   3.076   1.878 -1.1096 -0.3088 -0.8842
    1SOL     OW 4329   1.804   3.194   2.004 -0.1785 -0.2232 -0.0901
    1SOL    HW2 4330   1.809   3.209   2.098 -1.7373 -0.6395  0.0745
    1SOL    HW3 4331   1.722   3.147   1.991 -0.2270  0.2591 -1.7097
    1SOL    MW4 4332   1.794   3.190   2.014 -0.3904 -0.2143 -0.2820
    1SOL     OW 4333   1.769   3.478   1.899  0.0370 -0.0668  0.0923
    1SOL    HW2 4334   1.771   3.390   1.935 -1.2885 -1.1068 -2.2665
    1SOL    HW3 4335   1.697   3.521   1.944 -0.1619 -0.6194  0.3006
    1SOL    MW4 4336   1.760   3.472   1.910 -0.1640 -0.2768 -0.1913
    1SOL     OW 4337   1.990   3.615   2.008 -0.1336 -0.2154  0.6064
    1SOL    HW2 4338   1.999   3.700   1.964 -0.4480  0.4129  1.7286
    1SOL    HW3 4339   1.916   3.573   1.963 -1.2066  0.9112  1.2777
    1SOL    MW4 4340   1.981   3.621   1.996 -0.3167  0.0160  0.8429
    1SOL     OW 4341   2.008   3.869   1.889 -0.4125 -0.2106  0.1114
    1SOL    HW2 4342   2.085   3.917   1.922 -0.2076 -1.0865  0.9501
    1SOL    HW3 4343   2.004   3.890   1.796 -0.6322  1.8401  0.5690
    1SOL    MW4 4344   2.018   3.878   1.881 -0.4141 -0.0558  0.2823
    1SOL     OW 4345   1.810   4.034   1.998  0.0199 -0.2660 -0.0938
    1SOL    HW2 4346   1.834   4.122   1.970  1.2066 -0.1081  1.3312
    1SOL    HW3 4347   1.880   3.979   1.962 -0.2909 -0.5219 -0.3074
    1SOL    MW4 4348   1.823   4.038   1.989  0.1355 -0.2794  0.0660
    1SOL     OW 4349   1.815   4.299   1.921  0.0957 -0.1766  0.0568
    1SOL    HW2 4350   1.731   4.340   1.939  0.6850  0.9163  0.3627
    1SOL    HW3 4351   1.815   4.284   1.827  0.4056  1.7515 -0.2635
    1SOL    MW4 4352   1.804   4.302   1.911  0.2143  0.2217  0.0548
    1SOL     OW 4353   2.034   4.456   2.022  0.2797  0.1697 -0.0774
    1SOL    HW2 4354   2.106   4.395   2.003  0.5531  0.4126  0.1797
    1SOL    HW3 4355   1.956   4.410   1.991  0.5068 -0.2320 -0.0660
    1SOL    MW4 4356   2.033   4.442   2.015  0.3462  0.1488 -0.0420
    1SOL     OW 4357   2.516   4.647   1.860 -0.2321 -0.4552 -0.1839
    1SOL    HW2 4358   2.588   4.673   1.916 -0.6646 -1.1356  0.6945
    1SOL    HW3 4359   2.490   4.560   1.892 -1.7859  0.0102 -0.1238
    1SOL    MW4 4360   2.522   4.639   1.871 -0.4945 -0.4840 -0.0602
    1SOL     OW 4361   2.302   0.126   1.948  0.4697  0.3545  0.3880
    1SOL    HW2 4362   2.310   0.127   2.043 -1.5104 -1.1291  0.5909
    1SOL    HW3 4363   2.371   0.066   1.919  0.5697  0.1982  0.9357
    1SOL    MW4 4364   2.312   0.119   1.957  0.2215  0.1381  0.4871
    1SOL     OW 4365   2.235   0.397   1.854  0.1700  0.0404 -0.2052
    1SOL    HW2 4366   2.243   0.307   1.887  0.6797  0.1242 -0.1017
    1SOL    HW3 4367   2.161   0.434   1.903 -0.7309 -0.6583 -1.0048
    1SOL    MW4 4368   2.226   0.390   1.865  0.1183 -0.0407 -0.2970
    1SOL     OW 4369   2.488   0.501   1.958  0.0912  0.0767 -0.1092
    1SOL    HW2 4370   2.563   0.447   1.931  0.7146  0.3097  1.1077
    1SOL    HW3 4371   2.411   0.454   1.927  0.5629 -2.1683  1.9829
    1SOL    MW4 4372   2.488   0.488   1.950  0.2358 -0.1888  0.3275
    1SOL     OW 4373   2.488   0.761   1.868 -0.1553  0.5500  0.5175
    1SOL    HW2 4374   2.493   0.669   1.895  0.7585  0.5430  0.3451
    1SOL    HW3 4375   2.488   0.759   1.773 -1.8105  0.6526  0.5123
    1SOL    MW4 4376   2.489   0.749   1.859 -0.2532  0.5625  0.4940
    1SOL     OW 4377   2.237   0.867   1.923  0.0849  0.5334 -0.0709
    1SOL    HW2 4378   2.238   0.859   2.018 -0.9524  0.9350 -0.0207
    1SOL    HW3 4379   2.324   0.837   1.896  1.0414  2.1371  1.1268
    1SOL    MW4 4380   2.249   0.862   1.932  0.0744  0.7979  0.0937
    1SOL     OW 4381   2.210   1.159   1.876  0.3250 -0.2204 -0.4776
    1SOL    HW2 4382   2.276   1.213   1.918  0.1933 -0.2353 -0.2462
    1SOL    HW3 4383   2.228   1.070   1.908  0.0740 -0.1938 -0.2615
    1SOL    MW4 4384   2.221   1.154   1.886  0.2744 -0.2189 -0.4187
    1SOL     OW 4385   2.426   1.320   1.980 -0.5013 -0.2316 -0.1413
    1SOL    HW2 4386   2.433   1.322   2.075  1.0653 -0.8537 -0.2158
    1SOL    HW3 4387   2.410   1.411   1.955  0.7162  0.2042  0.6228
    1SOL    MW4 4388   2.425   1.332   1.989 -0.1340 -0.2562 -0.0504
    1SOL     OW 4389   2.405   1.572   1.861 -0.3107 -0.4064 -0.4338
    1SOL    HW2 4390   2.334   1.630   1.889  1.0061  0.6827  0.7149
    1SOL    HW3 4391   2.395   1.566   1.766 -0.9049  1.1261 -0.4789
    1SOL    MW4 4392   2.394   1.579   1.852 -0.2155 -0.0606 -0.2882
    1SOL     OW 4393   2.172   1.715   1.944 -0.4141 -0.1897  0.1091
    1SOL    HW2 4394   2.182   1.684   2.034  1.3967 -1.8788 -0.6339
    1SOL    HW3 4395   2.120   1.648   1.900  1.2148 -0.8662 -0.8273
    1SOL    MW4 4396   2.167   1.702   1.950  0.0398 -0.5019 -0.1124
    1SOL     OW 4397   2.226   1.964   1.840  0.3145 -0.1602  0.1503
    1SOL    HW2 4398   2.302   1.995   1.888 -0.3930  1.0192  0.5239
    1SOL    HW3 4399   2.202   1.881   1.883  0.5977  0.1226  0.8540
    1SOL    MW4 4400   2.233   1.957   1.852  0.2587  0.0328  0.2924
    1SOL     OW 4401   2.436   2.070   1.979  0.0596  0.7863  0.0104
    1SOL    HW2 4402   2.501   2.009   1.944  1.1431  1.2427  1.1619
    1SOL    HW3 4403   2.461   2.155   1.943  0.0960  0.9575  0.4332
    1SOL    MW4 4404   2.448   2.073   1.970  0.2072  0.8690  0.2182
    1SOL     OW 4405   2.498   2.312   1.886 -0.0179  0.1620 -0.0199
    1SOL    HW2 4406   2.576   2.361   1.910 -0.3906 -0.1951  2.0413
    1SOL    HW3 4407   2.426   2.362   1.924 -0.5499 -1.0154  0.5338
    1SOL    MW4 4408   2.499   2.325   1.894 -0.1373 -0.0405  0.3251
    1SOL     OW 4409   2.275   2.458   1.969  0.4710 -0.4853 -0.2156
    1SOL    HW2 4410   2.269   2.459   2.064 -1.0068 -1.1539 -0.2947
    1SOL    HW3 4411   2.282   2.550   1.944 -0.8032 -0.2020  0.4445
    1SOL    MW4 4412   2.275   2.470   1.978  0.1080 -0.5364 -0.1391
    1SOL     OW 4413   2.277   2.709   1.882 -0.2617 -0.2672  0.3011
    1SOL    HW2 4414   2.194   2.750   1.908 -0.6808 -0.8427 -0.1287
    1SOL    HW3 4415   2.274   2.707   1.786  0.3890 -0.0097  0.2691
    1SOL    MW4 4416   2.266   2.714   1.873 -0.2313 -0.3095  0.2401
    1SOL     OW 4417   2.487   2.841   2.000 -0.0220 -0.2163 -0.4084
    1SOL    HW2 4418   2.479   2.927   1.959 -0.9231 -0.1247 -0.0604
    1SOL    HW3 4419   2.413   2.791   1.965  0.5498 -0.8792 -0.6804
    1SOL    MW4 4420   2.476   2.846   1.990 -0.0656 -0.2918 -0.3984
    1SOL     OW 4421   2.484   3.096   1.886 -0.5440  0.3162  0.2246
    1SOL    HW2 4422   2.409   3.152   1.906 -1.0477 -0.2924  0.0626
    1SOL    HW3 4423   2.476   3.079   1.792 -0.0460  0.4765  0.1539
    1SOL    MW4 4424   2.473   3.102   1.876 -0.5448  0.2570  0.1940
    1SOL     OW 4425   2.259   3.223   1.984 -0.0688 -0.2645 -0.0399
    1SOL    HW2 4426   2.254   3.187   2.073  0.3659 -0.3465 -0.0464
    1SOL    HW3 4427   2.181   3.188   1.940 -1.4835  1.5416  0.9408
    1SOL    MW4 4428   2.248   3.214   1.990 -0.1981 -0.0370  0.0888
    1SOL     OW 4429   2.235   3.498   1.924  0.1276 -0.0686 -0.0081
    1SOL    HW2 4430   2.242   3.404   1.942 -0.0639 -0.0434  0.1962
    1SOL    HW3 4431   2.154   3.525   1.967  0.3966  0.2706  0.2853
    1SOL    MW4 4432   2.226   3.489   1.932  0.1376 -0.0203  0.0576
    1SOL     OW 4433   2.442   3.651   2.009 -0.2685  0.3577  0.0659
    1SOL    HW2 4434   2.448   3.637   2.104 -0.7402 -1.0788 -0.1040
    1SOL    HW3 4435   2.373   3.592   1.980  0.0414  0.6083 -1.2193
    1SOL    MW4 4436   2.434   3.642   2.018 -0.2897  0.2012 -0.1264
    1SOL     OW 4437   2.422   3.910   1.895 -0.3929  0.1211  0.1285
    1SOL    HW2 4438   2.338   3.946   1.922  0.0514  0.5821  0.9319
    1SOL    HW3 4439   2.427   3.825   1.939 -0.8673 -0.3478 -0.7144
    1SOL    MW4 4440   2.412   3.904   1.904 -0.3970  0.1204  0.1233
    1SOL     OW 4441   2.195   4.032   1.996 -0.6383 -0.2593  0.1069
    1SOL    HW2 4442   2.201   4.026   2.092 -1.8032  0.6841  0.2412
    1SOL    HW3 4443   2.202   4.125   1.977  0.6019 -0.5221 -0.8205
    1SOL    MW4 4444   2.197   4.043   2.006 -0.6282 -0.1693  0.0021
    1SOL     OW 4445   2.238   4.286   1.913 -0.1199  0.0313 -0.1898
    1SOL    HW2 4446   2.317   4.338   1.930  0.3571 -0.9850  0.7125
    1SOL    HW3 4447   2.234   4.280   1.817 -0.2431  1.8216 -0.3231
    1SOL    MW4 4448   2.248   4.292   1.902 -0.0732  0.1340 -0.0885
    1SOL     OW 4449   2.482   4.400   1.987 -0.0992  0.3809  0.1506
    1SOL    HW2 4450   2.487   4.387   2.082 -0.1055 -0.0281  0.0974
    1SOL    HW3 4451   2.565   4.364   1.954  0.2287  1.1970  0.0715
    1SOL    MW4 4452   2.494   4.393   1.995 -0.0570  0.4344  0.1332
    1SOL     OW 4453   2.934   0.052   1.838  0.3958 -0.0674  0.2183
    1SOL    HW2 4454   3.009   0.092   1.883 -0.1045  0.3487  0.6899
    1SOL    HW3 4455   2.924  -0.033   1.880  0.7220 -0.1997  0.0283
    1SOL    MW4 4456   2.942   0.046   1.849  0.3726 -0.0300  0.2555
    1SOL     OW 4457   2.723   0.088   2.020  0.4156  0.0148  0.3517
    1SOL    HW2 4458   2.735   0.092   2.115  1.0126  3.5531  0.1713
    1SOL    HW3 4459   2.811   0.095   1.984 -0.0902  2.0980 -0.5226
    1SOL    MW4 4460   2.736   0.089   2.028  0.4275  0.7565  0.2124
    1SOL     OW 4461   2.696   0.348   1.862  0.2073  0.2651 -0.6052
    1SOL    HW2 4462   2.780   0.380   1.893 -0.5968  2.0352 -0.1588
    1SOL    HW3 4463   2.683   0.264   1.906  0.9167  0.8452  0.7136
    1SOL    MW4 4464   2.705   0.341   1.872  0.1948  0.5752 -0.3723
    1SOL     OW 4465   2.945   0.488   1.978 -0.3724  0.2003  0.2508
    1SOL    HW2 4466   3.020   0.433   1.953 -0.8279 -0.1483 -0.3837
    1SOL    HW3 4467   2.956   0.568   1.927 -0.1418  0.3763  0.5719
    1SOL    MW4 4468   2.957   0.491   1.968 -0.4022  0.1775  0.2096
    1SOL     OW 4469   2.927   0.745   1.848  0.7207  0.1271 -0.8279
    1SOL    HW2 4470   3.004   0.795   1.873 -0.5732  1.8331 -0.1201
    1SOL    HW3 4471   2.854   0.793   1.888 -0.7081 -1.3762 -1.5874
    1SOL    MW4 4472   2.927   0.758   1.857  0.3617  0.1539 -0.8346
    1SOL     OW 4473   2.702   0.899   1.951  0.5768  0.5370 -0.5235
    1SOL    HW2 4474   2.688   0.984   1.909 -0.0993  0.3412 -0.7179
    1SOL    HW3 4475   2.628   0.846   1.920  0.3506  0.2389  0.5311
    1SOL    MW4 4476   2.690   0.903   1.941  0.4578  0.4718 -0.4100
    1SOL     OW 4477   2.645   1.158   1.886  0.4396 -0.0136 -0.2125
    1SOL    HW2 4478   2.574   1.219   1.908  0.0872 -0.4325 -0.1753
    1SOL    HW3 4479   2.660   1.171   1.792  2.0899  1.9321  0.2805
    1SOL    MW4 4480   2.638   1.168   1.877  0.6111  0.1879 -0.1426
    1SOL     OW 4481   2.884   1.264   1.982 -0.3509 -0.1079  0.7108
    1SOL    HW2 4482   2.894   1.354   1.950 -1.4498 -0.7873 -1.6556
    1SOL    HW3 4483   2.797   1.238   1.952 -0.0868 -1.9389  1.4783
    1SOL    MW4 4484   2.873   1.273   1.974 -0.4611 -0.4390  0.4998
    1SOL     OW 4485   2.886   1.530   1.891  0.0345 -0.2039 -0.0118
    1SOL    HW2 4486   2.950   1.592   1.926 -1.0757  1.4069 -0.7494
    1SOL    HW3 4487   2.899   1.534   1.796 -1.6512  0.7028 -0.2183
    1SOL    MW4 4488   2.897   1.539   1.883 -0.3340  0.1281 -0.1363
    1SOL     OW 4489   2.683   1.696   1.989  0.1896  0.1595 -0.2417
    1SOL    HW2 4490   2.754   1.643   1.952 -0.0738  0.8310 -1.7613
    1SOL    HW3 4491   2.603   1.651   1.961 -0.0491  1.5574 -1.9271
    1SOL    MW4 4492   2.681   1.683   1.980  0.1235  0.4325 -0.6646
    1SOL     OW 4493   2.675   1.953   1.865 -0.0850  0.2325  0.7282
    1SOL    HW2 4494   2.749   2.007   1.893  0.8514  0.1422 -1.4698
    1SOL    HW3 4495   2.687   1.870   1.910  0.4035  0.6782  1.4231
    1SOL    MW4 4496   2.687   1.949   1.874  0.1030  0.2793  0.5298
    1SOL     OW 4497   2.901   2.065   1.950  0.3311 -0.2785  0.1278
    1SOL    HW2 4498   2.901   2.057   2.045  0.3201  1.2365  0.2579
    1SOL    HW3 4499   2.972   2.008   1.921  1.1842  0.2618  1.1315
    1SOL    MW4 4500   2.910   2.056   1.958  0.4420 -0.0072  0.2774
    1SOL     OW 4501   2.943   2.332   1.855  0.1290  0.2575 -0.5089
    1SOL    HW2 4502   3.026   2.361   1.892 -0.6864  1.0907  0.7111
    1SOL    HW3 4503   2.933   2.242   1.885 -0.6909  1.0374  1.6562
    1SOL    MW4 4504   2.953   2.324   1.864 -0.0870  0.4702 -0.0623
    1SOL     OW 4505   2.725   2.459   1.970  0.1212 -0.6754  0.4665
    1SOL    HW2 4506   2.733   2.553   1.952  1.5012 -1.0980 -1.2081
    1SOL    HW3 4507   2.802   2.420   1.929 -1.3723 -2.7541 -0.4039
    1SOL    MW4 4508   2.736   2.466   1.962  0.1063 -1.0054  0.1308
    1SOL     OW 4509   2.723   2.716   1.888 -0.3088 -0.0754  0.5837
    1SOL    HW2 4510   2.650   2.768   1.920 -0.9623 -0.1784 -0.7423
    1SOL    HW3 4511   2.723   2.729   1.793  0.8692 -0.7406  0.4812
    1SOL    MW4 4512   2.714   2.725   1.880 -0.2394 -0.1767  0.3954
    1SOL     OW 4513   2.960   2.835   1.953 -0.1335  0.0504 -0.4033
    1SOL    HW2 4514   2.941   2.924   1.923  0.5843 -0.5089 -2.5941
    1SOL    HW3 4515   2.876   2.791   1.953 -0.7437  1.1167  2.1553
    1SOL    MW4 4516   2.947   2.841   1.949 -0.1192  0.1175 -0.3548
    1SOL     OW 4517   2.939   3.109   1.882 -0.3683 -0.3746  0.0731
    1SOL    HW2 4518   3.015   3.144   1.929  0.4775 -1.8097 -0.1768
    1SOL    HW3 4519   2.865   3.161   1.913  0.6943  0.9241  0.4616
    1SOL    MW4 4520   2.939   3.121   1.893 -0.1166 -0.3924  0.0914
    1SOL     OW 4521   2.705   3.238   1.975  0.2341  0.1578 -0.4310
    1SOL    HW2 4522   2.685   3.330   1.958 -0.6534 -0.1331 -1.0017
    1SOL    HW3 4523   2.627   3.190   1.946  1.2352 -0.8978 -1.4775
    1SOL    MW4 4524   2.692   3.244   1.969  0.2491 -0.0198 -0.6444
    1SOL     OW 4525   2.651   3.500   1.903 -0.6097 -0.0768  0.2860
    1SOL    HW2 4526   2.724   3.561   1.913 -0.2660 -0.3321 -0.6071
    1SOL    HW3 4527   2.579   3.540   1.951  0.5664 -0.5927  2.5392
    1SOL    MW4 4528   2.651   3.513   1.910 -0.4091 -0.1788  0.4654
    1SOL     OW 4529   2.883   3.648   1.965 -0.0999 -0.1622 -0.0092
    1SOL    HW2 4530   2.894   3.658   2.060 -0.8522  0.7247 -0.0112
    1SOL    HW3 4531   2.958   3.596   1.938  0.4284  0.0670  0.9886
    1SOL    MW4 4532   2.894   3.642   1.974 -0.1295 -0.0150  0.1222
    1SOL     OW 4533   2.915   3.928   1.884 -0.4970  0.1145 -0.2328
    1SOL    HW2 4534   2.906   3.835   1.903 -2.0670 -0.0651 -1.7150
    1SOL    HW3 4535   2.948   3.931   1.794 -0.9814  1.0036 -0.3846
    1SOL    MW4 4536   2.918   3.916   1.875 -0.7682  0.2079 -0.4483
    1SOL     OW 4537   2.689   4.016   1.996 -0.1394  0.1212  0.1877
    1SOL    HW2 4538   2.755   3.969   1.946 -0.2170  0.8309 -0.5963
    1SOL    HW3 4539   2.606   3.984   1.961 -0.1948  0.5823 -0.1045
    1SOL    MW4 4540   2.686   4.006   1.985 -0.1566  0.2756  0.0457
    1SOL     OW 4541   2.732   4.291   1.899  0.0667  0.4036  0.1898
    1SOL    HW2 4542   2.724   4.205   1.939  1.9024  0.2418  0.2545
    1SOL    HW3 4543   2.739   4.274   1.805  0.6592  0.4651  0.2217
    1SOL    MW4 4544   2.732   4.278   1.892  0.3872  0.3901  0.2025
    1SOL     OW 4545   2.940   4.454   1.970  0.4692 -0.0198 -0.4501
    1SOL    HW2 4546   2.954   4.464   2.064 -0.4393  0.2371 -0.3310
    1SOL    HW3 4547   2.861   4.400   1.964 -0.0421  0.7818 -1.0502
    1SOL    MW4 4548   2.931   4.448   1.982  0.2818  0.1197 -0.5138
    1SOL     OW 4549   3.372   4.634   1.929 -0.4693 -0.2030  0.2123
    1SOL    HW2 4550   3.382   4.540   1.943 -0.8889 -0.2261  0.3627
    1SOL    HW3 4551   3.375   4.644   1.834 -0.0695 -0.3271  0.2116
    1SOL    MW4 4552   3.373   4.622   1.918 -0.4718 -0.2222  0.2319
    1SOL     OW 4553   3.133   0.126   2.016 -0.4268  0.1942 -0.4627
    1SOL    HW2 4554   3.110   0.127   2.109 -1.3863 -0.0085 -0.6899
    1SOL    HW3 4555   3.207   0.065   2.011 -0.9638 -0.5168  0.0417
    1SOL    MW4 4556   3.140   0.118   2.028 -0.6244  0.0737 -0.4261
    1SOL     OW 4557   3.158   0.361   1.880 -0.1172  0.3402 -0.0036
    1SOL    HW2 4558   3.157   0.273   1.920 -1.4517  1.2523  2.0442
    1SOL    HW3 4559   3.173   0.344   1.787 -1.0061 -2.1124  0.2486
    1SOL    MW4 4560   3.160   0.347   1.873 -0.4106  0.1370  0.2999
    1SOL     OW 4561   3.350   0.562   1.975  0.4158  0.0538 -0.1764
    1SOL    HW2 4562   3.436   0.522   1.960  0.2499 -0.2420 -0.3462
    1SOL    HW3 4563   3.288   0.496   1.945  0.1634  0.9538 -1.6886
    1SOL    MW4 4564   3.353   0.548   1.969  0.3607  0.1335 -0.3984
    1SOL     OW 4565   3.391   0.788   1.837 -0.3231  0.2464  0.2998
    1SOL    HW2 4566   3.323   0.843   1.877 -0.3017  0.1948  0.4088
    1SOL    HW3 4567   3.382   0.704   1.881 -1.3784 -0.3109 -0.9597
    1SOL    MW4 4568   3.381   0.784   1.848 -0.4597  0.1660  0.1481
    1SOL     OW 4569   3.149   0.877   1.940 -0.1788  0.3694  0.1061
    1SOL    HW2 4570   3.147   0.886   2.036 -0.1121  0.8827  0.0613
    1SOL    HW3 4571   3.129   0.965   1.907 -1.2637 -0.0471 -0.3572
    1SOL    MW4 4572   3.146   0.890   1.948 -0.3133  0.3822  0.0390
    1SOL     OW 4573   3.086   1.124   1.848 -0.1507  0.0181  0.0937
    1SOL    HW2 4574   3.159   1.173   1.885 -0.9346  1.7476 -0.6190
    1SOL    HW3 4575   3.009   1.154   1.897 -0.7175 -0.0853 -0.7216
    1SOL    MW4 4576   3.086   1.134   1.860 -0.3290  0.2327 -0.1079
    1SOL     OW 4577   3.292   1.279   1.953  0.4175  0.3514 -0.3403
    1SOL    HW2 4578   3.303   1.301   2.045  1.3690 -0.8667 -0.1475
    1SOL    HW3 4579   3.312   1.360   1.905  1.5030  0.5465  0.4410
    1SOL    MW4 4580   3.296   1.292   1.959  0.6864  0.2164 -0.2118
    1SOL     OW 4581   3.331   1.534   1.828 -0.4381 -0.1239 -0.2260
    1SOL    HW2 4582   3.407   1.564   1.878  0.4521  0.7058 -2.0602
    1SOL    HW3 4583   3.261   1.596   1.851  0.0828  0.5127 -0.3670
    1SOL    MW4 4584   3.332   1.546   1.838 -0.2520  0.0696 -0.4866
    1SOL     OW 4585   3.117   1.682   1.958  0.1417  0.3757 -0.7760
    1SOL    HW2 4586   3.132   1.698   2.051  2.9114  0.2951 -1.1773
    1SOL    HW3 4587   3.114   1.769   1.919 -1.4743  0.4298 -0.5850
    1SOL    MW4 4588   3.118   1.695   1.965  0.2940  0.3723 -0.8037
    1SOL     OW 4589   3.116   1.930   1.857 -0.7652  0.0097 -0.3973
    1SOL    HW2 4590   3.197   1.963   1.897 -0.2458 -0.6992 -0.8415
    1SOL    HW3 4591   3.129   1.943   1.764 -0.0787 -2.3726 -0.6917
    1SOL    MW4 4592   3.129   1.936   1.850 -0.6061 -0.3982 -0.4950
    1SOL     OW 4593   3.386   2.046   1.971  0.0695  0.3883  0.1716
    1SOL    HW2 4594   3.462   1.998   1.937 -0.2268  0.5239 -0.6720
    1SOL    HW3 4595   3.404   2.137   1.949  0.4683  0.6430  1.4726
    1SOL    MW4 4596   3.399   2.052   1.964  0.0832  0.4396  0.2320
    1SOL     OW 4597   3.398   2.301   1.873 -0.0677  0.0730 -0.6267
    1SOL    HW2 4598   3.319   2.341   1.911 -0.0312  0.3327 -0.8230
    1SOL    HW3 4599   3.380   2.299   1.779 -0.7819 -1.9258 -0.4709
    1SOL    MW4 4600   3.385   2.306   1.866 -0.1569 -0.1566 -0.6320
    1SOL     OW 4601   3.179   2.412   2.010 -0.1200 -0.4225  0.1061
    1SOL    HW2 4602   3.182   2.428   2.105  0.4675 -0.8244  0.1588
    1SOL    HW3 4603   3.181   2.500   1.971 -0.4582 -0.2534  0.4689
    1SOL    MW4 4604   3.180   2.426   2.018 -0.0870 -0.4532  0.1609
    1SOL     OW 4605   3.181   2.670   1.901 -0.1932  0.4105 -0.2151
    1SOL    HW2 4606   3.108   2.728   1.921  1.4471  2.9306 -1.2646
    1SOL    HW3 4607   3.192   2.678   1.806 -0.6335 -2.5057 -0.5402
    1SOL    MW4 4608   3.173   2.679   1.891 -0.0350  0.3581 -0.3964
    1SOL     OW 4609   3.393   2.833   1.967  0.3001 -0.3446 -0.4289
    1SOL    HW2 4610   3.407   2.833   2.062 -1.0059  0.0279 -0.2185
    1SOL    HW3 4611   3.318   2.775   1.954 -0.3263  0.5908 -1.0902
    1SOL    MW4 4612   3.385   2.825   1.978  0.0451 -0.1721 -0.4885
    1SOL     OW 4613   3.371   3.080   1.864  0.0299  0.2890  0.4103
    1SOL    HW2 4614   3.457   3.113   1.888  0.4376 -0.7887  0.4984
    1SOL    HW3 4615   3.371   2.989   1.894 -1.4526  0.5220  1.1563
    1SOL    MW4 4616   3.382   3.072   1.871 -0.1121  0.1776  0.5203
    1SOL     OW 4617   3.181   3.234   1.981 -0.4301  0.2063  0.0179
    1SOL    HW2 4618   3.193   3.250   2.074 -1.3519  0.4981  0.0935
    1SOL    HW3 4619   3.247   3.168   1.959  0.6712  1.1107  0.5803
    1SOL    MW4 4620   3.191   3.227   1.990 -0.4065  0.3643  0.1020
    1SOL     OW 4621   3.114   3.506   1.897 -0.2918  0.3411  0.2648
    1SOL    HW2 4622   3.130   3.413   1.910  1.0256  0.3407 -1.2978
    1SOL    HW3 4623   3.185   3.550   1.944 -0.6146  0.5584  0.5564
    1SOL    MW4 4624   3.125   3.500   1.905 -0.1607  0.3695  0.0972
    1SOL     OW 4625   3.373   3.621   1.952 -0.0175 -0.2986  0.2422
    1SOL    HW2 4626   3.449   3.565   1.938 -0.1500 -0.7502  1.3051
    1SOL    HW3 4627   3.402   3.708   1.923  1.6778  0.0301  2.7851
    1SOL    MW4 4628   3.387   3.625   1.946  0.1886 -0.3147  0.7180
    1SOL     OW 4629   3.387   3.909   1.905  0.0278 -0.6386  0.4085
    1SOL    HW2 4630   3.316   3.951   1.953  0.0441 -1.0168  0.7657
    1SOL    HW3 4631   3.358   3.911   1.813  0.6092  1.2914  0.2602
    1SOL    MW4 4632   3.374   3.915   1.899  0.1068 -0.4339  0.4361
    1SOL     OW 4633   3.141   4.049   1.986 -0.0785 -0.1439 -0.4215
    1SOL    HW2 4634   3.128   4.050   2.081 -0.8282  2.1348 -0.5265
    1SOL    HW3 4635   3.072   3.992   1.953  1.4711 -2.6857  0.5352
    1SOL    MW4 4636   3.130   4.041   1.994  0.0269 -0.1783 -0.3090
    1SOL     OW 4637   3.149   4.285   1.857  0.4005 -0.2718  0.2717
    1SOL    HW2 4638   3.145   4.199   1.898  3.2798 -0.2356  0.7127
    1SOL    HW3 4639   3.079   4.335   1.899  0.2198 -1.6751  1.6953
    1SOL    MW4 4640   3.139   4.280   1.868  0.7565 -0.4520  0.5176
    1SOL     OW 4641   3.363   4.368   2.009  0.1243 -0.3224  0.2594
    1SOL    HW2 4642   3.428   4.319   1.960 -0.4259 -1.2109  0.4017
    1SOL    HW3 4643   3.281   4.353   1.962 -0.4017 -1.1392  1.4065
    1SOL    MW4 4644   3.360   4.360   1.996 -0.0176 -0.5469  0.4296
    1SOL     OW 4645   3.829   0.005   1.861  0.2192 -0.3451  0.2296
    1SOL    HW2 4646   3.826  -0.078   1.910 -2.0749 -0.1648  0.4391
    1SOL    HW3 4647   3.760   0.059   1.901 -0.2574  0.5894 -1.8165
    1SOL    MW4 4648   3.819   0.001   1.873 -0.1464 -0.1979 -0.0128
    1SOL     OW 4649   3.613   0.117   1.991 -0.2435  0.2806 -0.1087
    1SOL    HW2 4650   3.609   0.108   2.086  0.0435  1.4567  0.0250
    1SOL    HW3 4651   3.545   0.058   1.958  0.2024 -0.7491  0.7807
    1SOL    MW4 4652   3.604   0.108   1.999 -0.1466  0.2999  0.0261
    1SOL     OW 4653   3.557   0.407   1.900  0.2634  0.1057  0.3588
    1SOL    HW2 4654   3.562   0.312   1.915  1.1891  0.1105  0.1622
    1SOL    HW3 4655   3.564   0.416   1.805 -3.0916  0.2066  0.0764
    1SOL    MW4 4656   3.559   0.395   1.889 -0.0570  0.1197  0.2954
    1SOL     OW 4657   3.825   0.499   1.937 -0.1216 -0.2696 -0.0542
    1SOL    HW2 4658   3.795   0.590   1.924  0.4537 -0.2036 -0.9266
    1SOL    HW3 4659   3.745   0.447   1.931 -0.6140  0.2797  1.5455
    1SOL    MW4 4660   3.810   0.504   1.934 -0.1104 -0.1884  0.0416
    1SOL     OW 4661   3.823   0.783   1.907 -0.8553  0.1927  0.3093
    1SOL    HW2 4662   3.742   0.824   1.937 -0.9518 -0.3723  0.8409
    1SOL    HW3 4663   3.822   0.794   1.812 -1.8989 -0.4216  0.2392
    1SOL    MW4 4664   3.812   0.789   1.899 -1.0056  0.0371  0.3703
    1SOL     OW 4665   3.590   0.905   1.979 -0.2625  0.2805  0.3441
    1SOL    HW2 4666   3.579   0.997   1.955  0.2154  0.2967  0.1893
    1SOL    HW3 4667   3.528   0.858   1.924  0.3673  0.3820 -0.4545
    1SOL    MW4 4668   3.581   0.911   1.969 -0.1161  0.2960  0.2183
    1SOL     OW 4669   3.539   1.176   1.883 -0.5669  0.2726 -0.1093
    1SOL    HW2 4670   3.456   1.213   1.914  0.2382  1.3045  0.8313
    1SOL    HW3 4671   3.532   1.179   1.787 -1.0548  1.6262 -0.0420
    1SOL    MW4 4672   3.527   1.181   1.874 -0.5250  0.5872  0.0237
    1SOL     OW 4673   3.807   1.257   1.974  0.2565  0.2053  0.1204
    1SOL    HW2 4674   3.809   1.256   2.070  0.6443 -2.9676  0.1261
    1SOL    HW3 4675   3.718   1.232   1.951 -0.4302  2.9824 -0.3883
    1SOL    MW4 4676   3.796   1.254   1.984  0.2172  0.1531  0.0540
    1SOL     OW 4677   3.790   1.530   1.902 -0.6235  0.1915  0.2477
    1SOL    HW2 4678   3.876   1.568   1.920 -0.2815 -0.1967 -0.5076
    1SOL    HW3 4679   3.794   1.443   1.940 -0.1700 -0.3480 -0.9999
    1SOL    MW4 4680   3.802   1.524   1.909 -0.5186  0.0691 -0.0166
    1SOL     OW 4681   3.544   1.627   1.974  0.1712  0.1752  0.4007
    1SOL    HW2 4682   3.558   1.721   1.981 -0.9927  0.4553 -0.7907
    1SOL    HW3 4683   3.629   1.591   1.948  0.7178  0.8476  1.2699
    1SOL    MW4 4684   3.557   1.635   1.971  0.0896  0.3009  0.3581
    1SOL     OW 4685   3.604   1.887   1.916 -0.0020 -0.3282  0.3738
    1SOL    HW2 4686   3.674   1.942   1.948  0.5477 -1.3705  0.9813
    1SOL    HW3 4687   3.614   1.887   1.820  0.6728 -0.2732  0.4473
    1SOL    MW4 4688   3.614   1.894   1.907  0.1595 -0.4585  0.4635
    1SOL     OW 4689   3.822   2.049   1.980 -0.0678  0.2208  0.0032
    1SOL    HW2 4690   3.900   1.999   1.956  0.8196  0.3964  2.3736
    1SOL    HW3 4691   3.839   2.137   1.946  0.8228  0.2718  0.5495
    1SOL    MW4 4692   3.834   2.054   1.972  0.1667  0.2506  0.3880
    1SOL     OW 4693   3.840   2.283   1.865  0.0600 -0.2121 -0.3340
    1SOL    HW2 4694   3.916   2.324   1.908 -1.7750  1.7235  1.1844
    1SOL    HW3 4695   3.765   2.336   1.894 -1.9345 -2.3639 -1.4358
    1SOL    MW4 4696   3.840   2.296   1.874 -0.4454 -0.2406 -0.2791
    1SOL     OW 4697   3.616   2.425   1.963 -0.0705 -0.0571  0.0518
    1SOL    HW2 4698   3.608   2.510   1.919 -0.6633 -0.8506 -1.4246
    1SOL    HW3 4699   3.536   2.378   1.938  0.0363 -0.8794  1.2377
    1SOL    MW4 4700   3.604   2.430   1.954 -0.1347 -0.2704  0.0135
    1SOL     OW 4701   3.582   2.686   1.843  0.0004  0.3118  0.3156
    1SOL    HW2 4702   3.662   2.727   1.878 -0.1750  0.2107  0.8402
    1SOL    HW3 4703   3.511   2.731   1.888 -0.2575  0.7224 -0.4954
    1SOL    MW4 4704   3.583   2.698   1.854 -0.0567  0.3524  0.2779
    1SOL     OW 4705   3.811   2.808   1.945 -0.7507  0.1600  0.0434
    1SOL    HW2 4706   3.815   2.822   2.040  0.6633  1.8512 -0.2391
    1SOL    HW3 4707   3.814   2.895   1.907 -1.6725 -0.4838 -1.5715
    1SOL    MW4 4708   3.812   2.821   1.953 -0.6862  0.2985 -0.2069
    1SOL     OW 4709   3.839   3.086   1.870 -0.2627 -0.3255 -0.0762
    1SOL    HW2 4710   3.751   3.114   1.894 -0.3972 -0.6785 -0.1523
    1SOL    HW3 4711   3.848   3.112   1.778  0.1673  0.8167  0.2717
    1SOL    MW4 4712   3.829   3.093   1.861 -0.2236 -0.2213 -0.0404
    1SOL     OW 4713   3.601   3.177   1.967 -0.0237 -0.2040  0.1840
    1SOL    HW2 4714   3.599   3.178   2.062 -0.4916 -0.8938  0.1788
    1SOL    HW3 4715   3.590   3.269   1.942 -1.8110 -0.2422  0.7605
    1SOL    MW4 4716   3.599   3.190   1.976 -0.3214 -0.2997  0.2593
    1SOL     OW 4717   3.586   3.457   1.886  0.3085 -0.4376  0.2745
    1SOL    HW2 4718   3.660   3.509   1.916  0.3228 -0.1373 -0.2627
    1SOL    HW3 4719   3.588   3.467   1.790 -0.1380 -0.8129  0.2267
    1SOL    MW4 4720   3.596   3.465   1.877  0.2515 -0.4475  0.1973
    1SOL     OW 4721   3.809   3.592   1.991  0.4456 -0.0392 -0.1374
    1SOL    HW2 4722   3.895   3.559   1.963  1.3645  1.9809  0.2010
    1SOL    HW3 4723   3.806   3.682   1.957 -1.1865  0.1933  0.5999
    1SOL    MW4 4724   3.820   3.599   1.983  0.3517  0.2582  0.0046
    1SOL     OW 4725   3.818   3.831   1.895 -0.0271 -0.3750 -0.4533
    1SOL    HW2 4726   3.751   3.898   1.913  0.2482 -0.1754 -0.1693
    1SOL    HW3 4727   3.825   3.829   1.800 -1.2037 -1.1471 -0.5426
    1SOL    MW4 4728   3.810   3.840   1.885 -0.1462 -0.4506 -0.4276
    1SOL     OW 4729   3.628   4.031   1.983 -0.3819 -0.6984  0.6843
    1SOL    HW2 4730   3.622   4.052   2.076 -2.3730 -0.8833  0.6154
    1SOL    HW3 4731   3.544   3.990   1.962 -0.0374 -0.4657 -1.2366
    1SOL    MW4 4732   3.616   4.028   1.993 -0.5991 -0.6924  0.4219
    1SOL     OW 4733   3.585   4.288   1.886  0.1032  0.2563  0.1813
    1SOL    HW2 4734   3.657   4.344   1.915  1.0086 -0.6745 -0.2437
    1SOL    HW3 4735   3.612   4.200   1.912 -0.3987 -0.2247 -0.9233
    1SOL    MW4 4736   3.598   4.284   1.894  0.1564  0.0701 -0.0205
    1SOL     OW 4737   3.821   4.411   1.985  0.0025  0.4411 -0.2794
    1SOL    HW2 4738   3.835   4.383   2.075 -2.0379  1.4259  0.3633
    1SOL    HW3 4739   3.864   4.343   1.932  1.0986 -0.2120  1.4055
    1SOL    MW4 4740   3.828   4.398   1.990 -0.1221  0.4845  0.0278
    1SOL     OW 4741   4.291   4.638   1.890  0.1266 -0.2597  0.2055
    1SOL    HW2 4742   4.210   4.685   1.912  0.0661  0.0189 -0.5840
    1SOL    HW3 4743   4.361   4.690   1.929 -0.0024  0.0668  0.0099
    1SOL    MW4 4744   4.289   4.651   1.898  0.1011 -0.1798  0.0753
    1SOL     OW 4745   4.067   0.119   1.968  0.2862  0.2009  0.3037
    1SOL    HW2 4746   4.056   0.132   2.062 -0.5976 -0.1775  0.2611
    1SOL    HW3 4747   3.981   0.089   1.938  0.8675 -0.7787 -0.4295
    1SOL    MW4 4748   4.054   0.116   1.977  0.2460  0.0218  0.2011
    1SOL     OW 4749   4.085   0.380   1.860  0.4094 -0.9032 -0.2688
    1SOL    HW2 4750   4.077   0.295   1.905  0.3006  0.2447  1.9575
    1SOL    HW3 4751   4.013   0.432   1.896  0.9185  0.3709 -1.0977
    1SOL    MW4 4752   4.074   0.375   1.871  0.4621 -0.5837 -0.0844
    1SOL     OW 4753   4.301   0.518   1.978 -0.1306  0.2196  0.4783
    1SOL    HW2 4754   4.296   0.507   2.073  0.2232 -1.6521  0.3140
    1SOL    HW3 4755   4.216   0.487   1.946  0.2374 -0.4417  0.1100
    1SOL    MW4 4756   4.289   0.512   1.986 -0.0358 -0.1147  0.4081
    1SOL     OW 4757   4.293   0.782   1.875  0.0301 -0.4424  0.1867
    1SOL    HW2 4758   4.289   0.693   1.911  1.9139 -0.8721 -0.5833
    1SOL    HW3 4759   4.278   0.771   1.781 -0.7798  0.1894  0.2339
    1SOL    MW4 4760   4.290   0.769   1.867  0.1721 -0.4157  0.0912
    1SOL     OW 4761   4.065   0.902   1.984 -0.0641 -0.3872 -0.1529
    1SOL    HW2 4762   4.139   0.864   1.937 -0.2570  0.1935 -0.9349
    1SOL    HW3 4763   3.988   0.859   1.946 -0.0936 -1.4724  1.1167
    1SOL    MW4 4764   4.065   0.892   1.973 -0.0935 -0.4538 -0.0886
    1SOL     OW 4765   4.022   1.149   1.879  0.2458 -0.0310 -0.0545
    1SOL    HW2 4766   4.045   1.071   1.929  0.8968  0.5050  0.4930
    1SOL    HW3 4767   3.941   1.180   1.919  1.0993  0.7558  1.0916
    1SOL    MW4 4768   4.015   1.143   1.890  0.4439  0.1434  0.1689
    1SOL     OW 4769   4.267   1.274   1.955 -0.4354 -0.0863  0.5912
    1SOL    HW2 4770   4.250   1.274   2.049 -1.8449 -2.5553  0.3892
    1SOL    HW3 4771   4.186   1.240   1.916  0.6177 -0.4000 -1.4076
    1SOL    MW4 4772   4.254   1.270   1.962 -0.4816 -0.4535  0.3009
    1SOL     OW 4773   4.318   1.531   1.882 -0.0414 -0.1533 -0.0503
    1SOL    HW2 4774   4.325   1.437   1.896  0.7642 -0.2203 -0.8240
    1SOL    HW3 4775   4.290   1.540   1.791 -1.6450  0.3261  0.4867
    1SOL    MW4 4776   4.315   1.520   1.871 -0.1464 -0.0989 -0.0815
    1SOL     OW 4777   4.039   1.626   1.957 -0.6995 -0.9179  0.1160
    1SOL    HW2 4778   4.031   1.613   2.052 -1.1875 -0.2434  0.1754
    1SOL    HW3 4779   4.123   1.586   1.934  0.7376  1.3055  1.2824
    1SOL    MW4 4780   4.049   1.619   1.967 -0.5746 -0.5356  0.2778
    1SOL     OW 4781   4.055   1.899   1.909  0.2007  0.1514  0.1402
    1SOL    HW2 4782   4.051   1.806   1.929  0.5356  0.0162 -0.4016
    1SOL    HW3 4783   4.046   1.903   1.814  0.9766  0.6142  0.0832
    1SOL    MW4 4784   4.054   1.887   1.899  0.3481  0.1947  0.0612
    1SOL     OW 4785   4.266   2.047   1.963  0.6807  0.1138 -0.2990
    1SOL    HW2 4786   4.266   2.057   2.059  1.4860  0.0988 -0.2974
    1SOL    HW3 4787   4.201   1.979   1.947  0.8763 -0.2138  0.2719
    1SOL    MW4 4788   4.257   2.040   1.974  0.8125  0.0687 -0.2235
    1SOL     OW 4789   4.270   2.321   1.880 -0.1350  0.5739  0.3190
    1SOL    HW2 4790   4.285   2.228   1.897  0.6571  0.6277 -0.0732
    1SOL    HW3 4791   4.342   2.365   1.923 -0.3170  0.9880  0.2005
    1SOL    MW4 4792   4.281   2.314   1.888 -0.0539  0.6359  0.2515
    1SOL     OW 4793   4.047   2.444   1.956 -0.2709 -0.1774 -0.5359
    1SOL    HW2 4794   4.054   2.440   2.052  0.5194 -0.0548 -0.5851
    1SOL    HW3 4795   4.126   2.398   1.925 -1.1440 -1.2998 -1.1239
    1SOL    MW4 4796   4.059   2.437   1.965 -0.2813 -0.3092 -0.6200
    1SOL     OW 4797   4.049   2.706   1.842 -0.2295 -0.0660 -0.5908
    1SOL    HW2 4798   4.042   2.615   1.873  1.1953  0.2893  0.8854
    1SOL    HW3 4799   3.965   2.745   1.864  0.0656 -0.3475  1.1917
    1SOL    MW4 4800   4.037   2.699   1.849 -0.0029 -0.0560 -0.1609
    1SOL     OW 4801   4.281   2.829   1.943  0.0266  0.2756 -0.2854
    1SOL    HW2 4802   4.277   2.816   2.037  1.2285  0.1936 -0.2317
    1SOL    HW3 4803   4.204   2.784   1.909  0.3789 -0.9733  0.5298
    1SOL    MW4 4804   4.270   2.821   1.951  0.2322  0.1001 -0.1707
    1SOL     OW 4805   4.292   3.084   1.840  0.0318  0.0656 -0.5509
    1SOL    HW2 4806   4.217   3.131   1.876  0.3759  0.0366  0.2295
    1SOL    HW3 4807   4.294   3.001   1.889  1.5115  0.7412  0.5749
    1SOL    MW4 4808   4.283   3.079   1.851  0.2723  0.1509 -0.2995
    1SOL     OW 4809   4.067   3.204   1.981  0.1759  0.4749  0.0642
    1SOL    HW2 4810   4.067   3.196   2.076 -0.1922  0.3277  0.0544
    1SOL    HW3 4811   3.992   3.151   1.953  1.1684 -0.7157 -0.4081
    1SOL    MW4 4812   4.057   3.196   1.990  0.2584  0.2985  0.0005
    1SOL     OW 4813   4.048   3.467   1.896  0.5591 -0.4341 -0.0251
    1SOL    HW2 4814   4.119   3.508   1.946  0.9990 -0.6636 -0.4635
    1SOL    HW3 4815   4.050   3.375   1.924  0.8453 -0.5766 -0.5026
    1SOL    MW4 4816   4.058   3.460   1.906  0.6552 -0.4833 -0.1459
    1SOL     OW 4817   4.284   3.619   1.983 -0.0341  0.3011 -0.1026
    1SOL    HW2 4818   4.299   3.711   1.963 -0.5847  0.3403 -0.3441
    1SOL    HW3 4819   4.359   3.573   1.946 -0.0476  0.5902 -0.4832
    1SOL    MW4 4820   4.296   3.625   1.975 -0.1087  0.3445 -0.1847
    1SOL     OW 4821   4.257   3.902   1.931 -0.1027  0.1684 -0.3136
    1SOL    HW2 4822   4.338   3.953   1.940  0.0824 -0.3442  0.9476
    1SOL    HW3 4823   4.253   3.880   1.838  2.5246 -1.9666  0.0280
    1SOL    MW4 4824   4.267   3.906   1.920  0.2680 -0.1812 -0.1022
    1SOL     OW 4825   4.028   4.010   1.993 -0.4357 -0.2661 -0.1838
    1SOL    HW2 4826   4.109   3.966   1.965  0.1189  0.5589  0.1072
    1SOL    HW3 4827   3.958   3.951   1.966  0.3116 -1.4401  0.3959
    1SOL    MW4 4828   4.030   3.996   1.986 -0.2637 -0.3123 -0.0690
    1SOL     OW 4829   3.986   4.260   1.849  0.5700  0.6114 -0.1038
    1SOL    HW2 4830   4.066   4.305   1.877  0.0854  0.7313  1.1238
    1SOL    HW3 4831   3.990   4.174   1.891  1.7831 -0.7801 -2.9187
    1SOL    MW4 4832   3.997   4.255   1.858  0.6664  0.4435 -0.3132
    1SOL     OW 4833   4.222   4.380   1.948 -0.1932  0.1040 -0.0684
    1SOL    HW2 4834   4.245   4.395   2.040 -0.7800  1.5195 -0.1428
    1SOL    HW3 4835   4.223   4.467   1.908 -1.6216 -0.2986 -1.0241
    1SOL    MW4 4836   4.225   4.393   1.955 -0.4587  0.2379 -0.2043
    1SOL     OW 4837   0.181   4.598   2.387  0.0223  0.1268  0.3698
    1SOL    HW2 4838   0.185   4.602   2.483  1.5008 -0.2937  0.3349
    1SOL    HW3 4839   0.247   4.660   2.357 -1.5193  1.4259 -0.4163
    1SOL    MW4 4840   0.190   4.606   2.396  0.0140  0.2422  0.2613
    1SOL     OW 4841   4.472   0.087   2.273 -0.0757  0.6838 -0.2112
    1SOL    HW2 4842   4.544   0.032   2.303 -0.8228 -0.9995 -1.4096
    1SOL    HW3 4843   4.487   0.096   2.179 -1.2743  0.5381 -0.4203
    1SOL    MW4 4844   4.483   0.081   2.264 -0.3328  0.4425 -0.3970
    1SOL     OW 4845   4.435   0.352   2.362 -0.4754 -0.0577 -0.2694
    1SOL    HW2 4846   4.520   0.390   2.342 -0.1967  0.0578  1.1077
    1SOL    HW3 4847   4.441   0.262   2.329 -0.4610  0.4973 -1.7958
    1SOL    MW4 4848   4.447   0.345   2.355 -0.4368  0.0308 -0.2892
    1SOL     OW 4849   0.207   0.476   2.286  0.3298  0.6126  0.6861
    1SOL    HW2 4850   0.283   0.430   2.320 -0.6117 -0.3261  1.5690
    1SOL    HW3 4851   0.219   0.477   2.191  1.3005  0.2528  0.8009
    1SOL    MW4 4852   0.218   0.470   2.278  0.3337  0.4413  0.8178
    1SOL     OW 4853   0.216   0.743   2.312 -0.3336 -0.3880 -0.1130
    1SOL    HW2 4854   0.218   0.749   2.407 -0.3716 -0.1102 -0.1289
    1SOL    HW3 4855   0.218   0.649   2.294  1.9586 -0.3968  0.1020
    1SOL    MW4 4856   0.216   0.731   2.322 -0.0362 -0.3525 -0.0868
    1SOL     OW 4857   0.001   0.892   2.271  0.0939  0.3362 -0.5129
    1SOL    HW2 4858   0.081   0.845   2.295 -1.0119 -1.3951 -0.1659
    1SOL    HW3 4859  -0.005   0.881   2.176 -0.1484 -0.2122 -0.4365
    1SOL    MW4 4860   0.011   0.884   2.261 -0.0839  0.0355 -0.4568
    1SOL     OW 4861   4.466   1.163   2.332  0.0584  0.1235  0.2460
    1SOL    HW2 4862   4.472   1.149   2.426  2.4615  0.2846  0.1589
    1SOL    HW3 4863   4.466   1.075   2.294  0.8397  0.0855  0.3279
    1SOL    MW4 4864   4.467   1.150   2.339  0.4785  0.1396  0.2449
    1SOL     OW 4865   0.238   1.238   2.245 -0.1718 -0.1741  0.1098
    1SOL    HW2 4866   0.149   1.227   2.280 -0.5454  0.4912 -0.6166
    1SOL    HW3 4867   0.225   1.271   2.156  0.8005 -0.3467 -0.1002
    1SOL    MW4 4868   0.224   1.241   2.238 -0.0928 -0.1091 -0.0138
    1SOL     OW 4869   0.237   1.503   2.336 -0.3822 -0.0973  0.0508
    1SOL    HW2 4870   0.234   1.502   2.431  0.7863  0.9229  0.1094
    1SOL    HW3 4871   0.248   1.412   2.311  0.8945 -0.1950  0.9516
    1SOL    MW4 4872   0.238   1.491   2.345 -0.0596  0.0244  0.1771
    1SOL     OW 4873   4.490   1.660   2.297  0.8878  0.3724 -0.5183
    1SOL    HW2 4874   4.507   1.743   2.342  0.5471  0.2966 -0.2437
    1SOL    HW3 4875   4.566   1.605   2.318  1.5319  0.9203 -1.4337
    1SOL    MW4 4876   4.502   1.663   2.306  0.9279  0.4348 -0.6027
    1SOL     OW 4877   4.472   1.931   2.382  0.2147 -0.4177  0.2120
    1SOL    HW2 4878   4.398   1.955   2.325 -0.1757  0.4540  1.0710
    1SOL    HW3 4879   4.547   1.977   2.344 -0.3670  1.5554  1.3504
    1SOL    MW4 4880   4.472   1.941   2.370  0.0868 -0.0423  0.4754
    1SOL     OW 4881   0.223   2.042   2.277  0.0308  0.1021  0.2878
    1SOL    HW2 4882   0.282   1.969   2.297 -0.4641 -0.3820  0.0010
    1SOL    HW3 4883   0.231   2.053   2.182  2.1276  2.1811  0.6488
    1SOL    MW4 4884   0.232   2.034   2.267  0.2422  0.3123  0.2975
    1SOL     OW 4885   0.233   2.296   2.363 -0.0850 -0.0707 -0.2127
    1SOL    HW2 4886   0.224   2.284   2.458  0.2960  0.6310 -0.0894
    1SOL    HW3 4887   0.258   2.209   2.331 -0.3737 -0.3502  0.3080
    1SOL    MW4 4888   0.235   2.283   2.371 -0.0728 -0.0148 -0.1273
    1SOL     OW 4889   4.486   2.457   2.286  0.2349  0.1832  0.3947
    1SOL    HW2 4890   4.477   2.534   2.341 -0.3895 -0.4127  1.1328
    1SOL    HW3 4891   4.565   2.413   2.318 -0.6525 -0.6623  1.4389
    1SOL    MW4 4892   4.495   2.461   2.297  0.0354 -0.0072  0.6299
    1SOL     OW 4893   0.010   2.731   2.389  0.0787 -0.7121  0.0990
    1SOL    HW2 4894   0.015   2.755   2.481 -2.8046  0.6695 -0.0748
    1SOL    HW3 4895   0.080   2.781   2.347  0.8803 -0.7387  1.3726
    1SOL    MW4 4896   0.020   2.741   2.396 -0.1960 -0.5333  0.2441
    1SOL     OW 4897   0.241   2.870   2.277  0.1751 -0.2880  0.3002
    1SOL    HW2 4898   0.312   2.809   2.297 -0.4979 -1.3150 -0.4296
    1SOL    HW3 4899   0.233   2.866   2.181 -1.5040 -0.8716  0.4678
    1SOL    MW4 4900   0.250   2.862   2.267 -0.1352 -0.5004  0.2260
    1SOL     OW 4901   0.224   3.119   2.374 -0.4577 -0.4209  0.2231
    1SOL    HW2 4902   0.143   3.155   2.337 -1.1819 -1.0980  1.1008
    1SOL    HW3 4903   0.227   3.029   2.342 -0.5467 -0.6846  0.9377
    1SOL    MW4 4904   0.214   3.111   2.365 -0.5650 -0.5450  0.4332
    1SOL     OW 4905   0.005   3.206   2.273 -0.0189  0.7279  0.7086
    1SOL    HW2 4906  -0.017   3.294   2.305  0.7063  0.4690  1.9566
    1SOL    HW3 4907   0.000   3.214   2.178 -2.1392  1.5393  0.8517
    1SOL    MW4 4908   0.001   3.219   2.265 -0.2029  0.8011  0.8917
    1SOL     OW 4909   4.461   3.467   2.361 -0.4048  0.4514  0.0922
    1SOL    HW2 4910   4.467   3.480   2.456 -1.8781 -0.1916  0.2783
    1SOL    HW3 4911   4.390   3.524   2.333  0.3474  1.0084 -0.7173
    1SOL    MW4 4912   4.453   3.476   2.370 -0.4999  0.4399  0.0100
    1SOL     OW 4913   0.195   3.614   2.249 -0.2888  0.3682 -0.1646
    1SOL    HW2 4914   0.276   3.570   2.276 -0.1975  0.7333  0.1722
    1SOL    HW3 4915   0.125   3.556   2.279 -0.1857  0.7624  0.8668
    1SOL    MW4 4916   0.196   3.600   2.257 -0.2631  0.4685  0.0160
    1SOL     OW 4917   0.201   3.862   2.373 -0.5720  0.0154 -0.5532
    1SOL    HW2 4918   0.118   3.889   2.335 -0.6298  0.7451  0.0688
    1SOL    HW3 4919   0.212   3.771   2.346 -0.6749  0.4865 -2.1884
    1SOL    MW4 4920   0.192   3.854   2.365 -0.5932  0.1740 -0.6871
    1SOL     OW 4921   4.473   4.001   2.256 -0.3621 -0.2612 -0.0213
    1SOL    HW2 4922   4.476   4.078   2.313 -0.5795 -0.1136 -0.2054
    1SOL    HW3 4923   4.476   4.037   2.168  1.0303 -0.5406 -0.0919
    1SOL    MW4 4924   4.474   4.016   2.252 -0.2070 -0.2785 -0.0548
    1SOL     OW 4925   0.006   4.264   2.381  0.2803 -0.1220  0.1137
    1SOL    HW2 4926   0.019   4.267   2.476  2.7312 -1.0459 -0.1328
    1SOL    HW3 4927   0.087   4.301   2.345 -0.1830 -0.7448 -1.6309
    1SOL    MW4 4928   0.019   4.269   2.388  0.5425 -0.3257 -0.1493
    1SOL     OW 4929   0.247   4.372   2.239  0.0253 -0.6457  0.1100
    1SOL    HW2 4930   0.324   4.336   2.283  2.4845  0.6473 -2.9290
    1SOL    HW3 4931   0.226   4.450   2.291 -0.3367 -1.9346  1.9628
    1SOL    MW4 4932   0.255   4.378   2.252  0.3020 -0.6456 -0.0463
    1SOL     OW 4933   0.625   4.659   2.382 -0.1976  0.4175 -0.1702
    1SOL    HW2 4934   0.644   4.657   2.476  1.1236 -2.4886 -0.4536
    1SOL    HW3 4935   0.702   4.700   2.343  0.4544 -0.8621 -0.2352
    1SOL    MW4 4936   0.638   4.665   2.389  0.0627 -0.1345 -0.2162
    1SOL     OW 4937   0.382   0.091   2.280  0.0085 -0.3838 -0.2297
    1SOL    HW2 4938   0.456   0.039   2.313  1.3029  1.7386  0.3064
    1SOL    HW3 4939   0.405   0.111   2.189 -0.0623 -0.0085 -0.1658
    1SOL    MW4 4940   0.395   0.087   2.272  0.1700 -0.0543 -0.1507
    1SOL     OW 4941   0.431   0.355   2.373  0.2443 -0.5140 -0.2789
    1SOL    HW2 4942   0.438   0.357   2.469  0.1184  1.0353 -0.2925
    1SOL    HW3 4943   0.409   0.264   2.353  0.2374 -0.8464  1.1699
    1SOL    MW4 4944   0.429   0.343   2.383  0.2268 -0.3535 -0.0896
    1SOL     OW 4945   0.643   0.483   2.248 -0.1965  0.1873 -0.0048
    1SOL    HW2 4946   0.647   0.575   2.275  0.5427  0.2170 -0.2198
    1SOL    HW3 4947   0.570   0.447   2.300  0.3627  0.5713  1.0645
    1SOL    MW4 4948   0.634   0.491   2.259 -0.0252  0.2418  0.1075
    1SOL     OW 4949   0.673   0.735   2.325  0.5502 -0.2946 -0.2409
    1SOL    HW2 4950   0.674   0.745   2.420 -1.6768 -0.7776 -0.1362
    1SOL    HW3 4951   0.596   0.785   2.297  0.6546 -0.9315 -1.6940
    1SOL    MW4 4952   0.663   0.743   2.334  0.2701 -0.4423 -0.4187
    1SOL     OW 4953   0.459   0.882   2.258  0.2320 -0.3600 -0.3602
    1SOL    HW2 4954   0.442   0.969   2.292  1.3020 -0.9502  1.7710
    1SOL    HW3 4955   0.376   0.836   2.265 -0.1325  0.2346 -0.7387
    1SOL    MW4 4956   0.446   0.887   2.263  0.3251 -0.3594 -0.1287
    1SOL     OW 4957   0.461   1.143   2.365  0.2400 -0.1239 -0.2976
    1SOL    HW2 4958   0.445   1.145   2.459  0.5032  1.5695 -0.2691
    1SOL    HW3 4959   0.382   1.182   2.327  1.0872  1.3198 -0.6202
    1SOL    MW4 4960   0.449   1.148   2.372  0.3865  0.2900 -0.3364
    1SOL     OW 4961   0.687   1.282   2.258 -1.0632 -0.8359  0.0997
    1SOL    HW2 4962   0.690   1.368   2.299 -1.7418 -0.9219  0.3414
    1SOL    HW3 4963   0.615   1.236   2.303 -0.5939 -1.5867  0.0927
    1SOL    MW4 4964   0.678   1.287   2.269 -1.0908 -0.9463  0.1304
    1SOL     OW 4965   0.649   1.545   2.389  0.1548 -0.3660 -0.0108
    1SOL    HW2 4966   0.657   1.535   2.484  0.5520 -0.2033 -0.0300
    1SOL    HW3 4967   0.736   1.569   2.360 -0.0519 -0.0693 -0.3775
    1SOL    MW4 4968   0.661   1.547   2.398  0.1799 -0.3053 -0.0620
    1SOL     OW 4969   0.452   1.666   2.249 -0.1259  0.4521 -0.3514
    1SOL    HW2 4970   0.523   1.624   2.297 -0.5336  0.5814  0.3822
    1SOL    HW3 4971   0.375   1.612   2.268 -0.5619  1.2703  0.2409
    1SOL    MW4 4972   0.451   1.653   2.258 -0.2372  0.5771 -0.1764
    1SOL     OW 4973   0.471   1.919   2.340  0.0852  0.0487  0.2201
    1SOL    HW2 4974   0.554   1.961   2.317  0.1587 -0.4068 -0.3415
    1SOL    HW3 4975   0.478   1.831   2.305 -1.5709  0.7146 -1.8680
    1SOL    MW4 4976   0.483   1.913   2.332 -0.1236  0.0764 -0.1292
    1SOL     OW 4977   0.715   2.056   2.270 -0.1306  0.0690 -0.1465
    1SOL    HW2 4978   0.791   2.009   2.304  0.1338 -0.3956 -1.3421
    1SOL    HW3 4979   0.728   2.146   2.298  1.0316  0.0523 -0.6092
    1SOL    MW4 4980   0.727   2.062   2.278  0.0576  0.0055 -0.3653
    1SOL     OW 4981   0.670   2.315   2.341 -0.4693 -0.2611 -0.2075
    1SOL    HW2 4982   0.667   2.328   2.436 -0.7329  0.2983 -0.2929
    1SOL    HW3 4983   0.747   2.363   2.312  0.3484 -1.4889 -0.1148
    1SOL    MW4 4984   0.680   2.323   2.350 -0.3963 -0.3495 -0.2067
    1SOL     OW 4985   0.433   2.452   2.307  0.2661  0.3062  0.1703
    1SOL    HW2 4986   0.507   2.395   2.328 -0.2731  0.0383  1.4099
    1SOL    HW3 4987   0.356   2.399   2.326 -0.2447  1.3541  1.1141
    1SOL    MW4 4988   0.433   2.438   2.312  0.1276  0.4089  0.4582
    1SOL     OW 4989   0.443   2.716   2.378 -0.4662  0.2138  0.6942
    1SOL    HW2 4990   0.427   2.709   2.472 -1.0104  0.0084  0.5917
    1SOL    HW3 4991   0.437   2.626   2.346 -2.5957  0.5257  0.1142
    1SOL    MW4 4992   0.440   2.703   2.386 -0.8190  0.2277  0.6044
    1SOL     OW 4993   0.659   2.854   2.284 -0.6084  0.2710  0.5472
    1SOL    HW2 4994   0.725   2.798   2.324 -0.6648 -1.1819 -1.3196
    1SOL    HW3 4995   0.577   2.808   2.298 -0.7734  0.3476 -0.1585
    1SOL    MW4 4996   0.657   2.841   2.291 -0.6375  0.0894  0.2079
    1SOL     OW 4997   0.669   3.121   2.381 -0.2060 -0.2888 -0.1976
    1SOL    HW2 4998   0.592   3.156   2.337  0.3689 -1.6935 -2.3947
    1SOL    HW3 4999   0.666   3.027   2.363  1.4191 -0.5237  0.6556
    1SOL    MW4 5000   0.658   3.113   2.373  0.0843 -0.5050 -0.3750
    1SOL     OW 5001   0.453   3.229   2.252 -0.1589  0.0287 -0.2635
    1SOL    HW2 5002   0.378   3.181   2.286 -0.6812  1.0002 -0.0213
    1SOL    HW3 5003   0.443   3.227   2.157  0.3610 -1.1869 -0.2991
    1SOL    MW4 5004   0.442   3.223   2.244 -0.1592 -0.0038 -0.2363
    1SOL     OW 5005   0.424   3.488   2.351 -0.4053  0.7120  0.2647
    1SOL    HW2 5006   0.509   3.525   2.328 -0.3598  1.4956  1.6303
    1SOL    HW3 5007   0.424   3.401   2.310  0.4590  1.2738 -0.9454
    1SOL    MW4 5008   0.435   3.481   2.343 -0.2853  0.8893  0.2854
    1SOL     OW 5009   0.661   3.597   2.290  0.1689 -0.1849 -0.1068
    1SOL    HW2 5010   0.655   3.686   2.323 -0.9539 -0.1058 -0.4815
    1SOL    HW3 5011   0.667   3.606   2.195 -1.4846 -0.5286 -0.2687
    1SOL    MW4 5012   0.661   3.610   2.282 -0.1974 -0.2196 -0.1776
    1SOL     OW 5013   0.668   3.877   2.367 -0.2038  0.3085 -0.3788
    1SOL    HW2 5014   0.690   3.878   2.460  0.4680  0.0024 -0.5300
    1SOL    HW3 5015   0.579   3.910   2.363 -0.6095 -0.6621  0.4714
    1SOL    MW4 5016   0.659   3.881   2.379 -0.1687  0.1400 -0.2866
    1SOL     OW 5017   0.430   4.028   2.309  0.5824  0.0275 -0.1424
    1SOL    HW2 5018   0.353   3.972   2.313  1.2383 -0.8785 -0.0211
    1SOL    HW3 5019   0.435   4.055   2.217  0.1699  0.0301 -0.1661
    1SOL    MW4 5020   0.421   4.024   2.298  0.6145 -0.0916 -0.1295
    1SOL     OW 5021   0.465   4.290   2.385  0.4593 -0.3013 -0.2181
    1SOL    HW2 5022   0.541   4.344   2.364 -0.5611  1.0786 -0.4250
    1SOL    HW3 5023   0.484   4.205   2.345  1.0713  0.5820 -1.8728
    1SOL    MW4 5024   0.478   4.286   2.377  0.4054 -0.0024 -0.4635
    1SOL     OW 5025   0.701   4.427   2.272  0.2909 -0.2715  0.5998
    1SOL    HW2 5026   0.678   4.514   2.305  0.8381  0.1886 -0.1937
    1SOL    HW3 5027   0.679   4.431   2.179 -0.1338 -1.1491  0.6649
    1SOL    MW4 5028   0.695   4.439   2.264  0.3071 -0.3266  0.5038
    1SOL     OW 5029   1.102   4.641   2.377 -0.2499  0.0272 -0.0490
    1SOL    HW2 5030   1.105   4.641   2.473  0.1753 -2.1036 -0.0356
    1SOL    HW3 5031   1.015   4.676   2.356 -0.8011 -0.5814  1.1604
    1SOL    MW4 5032   1.091   4.646   2.387 -0.2664 -0.3343  0.1121
    1SOL     OW 5033   0.861   0.112   2.297  0.1368 -0.1311 -0.0065
    1SOL    HW2 5034   0.844   0.199   2.331  0.1331 -0.1406  0.0152
    1SOL    HW3 5035   0.882   0.126   2.205  1.6126  0.0445  0.3494
    1SOL    MW4 5036   0.862   0.125   2.289  0.3311 -0.1092  0.0434
    1SOL     OW 5037   0.864   0.381   2.380 -0.6589  0.4076 -0.0498
    1SOL    HW2 5038   0.944   0.417   2.342 -0.2167 -0.8473 -0.3301
    1SOL    HW3 5039   0.793   0.424   2.332 -0.1107 -0.4372 -1.6356
    1SOL    MW4 5040   0.865   0.391   2.369 -0.5281  0.1305 -0.2959
    1SOL     OW 5041   1.113   0.508   2.302 -0.5570 -0.3684 -0.1776
    1SOL    HW2 5042   1.193   0.469   2.335  0.5125  1.1052 -0.9767
    1SOL    HW3 5043   1.129   0.521   2.208 -1.7275 -0.0505 -0.3467
    1SOL    MW4 5044   1.125   0.505   2.294 -0.5705 -0.1320 -0.3054
    1SOL     OW 5045   1.098   0.770   2.360 -0.2895  0.1350  0.1829
    1SOL    HW2 5046   1.021   0.809   2.319  0.6339  1.7549 -0.0313
    1SOL    HW3 5047   1.107   0.685   2.317 -1.7377  0.0856 -0.0540
    1SOL    MW4 5048   1.089   0.764   2.349 -0.3586  0.3422  0.1235
    1SOL     OW 5049   0.885   0.891   2.230 -0.8918  0.2237 -0.3951
    1SOL    HW2 5050   0.887   0.977   2.272 -0.5554 -0.4730  1.0584
    1SOL    HW3 5051   0.815   0.844   2.276 -1.2615 -0.1762 -1.3728
    1SOL    MW4 5052   0.876   0.896   2.242 -0.8962  0.0790 -0.3326
    1SOL     OW 5053   0.923   1.147   2.349 -0.0786 -0.1808  0.0372
    1SOL    HW2 5054   1.004   1.177   2.309  0.3595 -2.7997 -1.1537
    1SOL    HW3 5055   0.854   1.197   2.304  0.7170  0.2542 -0.7136
    1SOL    MW4 5056   0.925   1.158   2.337  0.0842 -0.4689 -0.2189
    1SOL     OW 5057   1.156   1.258   2.234  0.3151  0.4017  0.6317
    1SOL    HW2 5058   1.244   1.220   2.236 -0.5853 -1.7854  0.3302
    1SOL    HW3 5059   1.141   1.280   2.143 -0.2984 -1.3324  0.3001
    1SOL    MW4 5060   1.165   1.256   2.222  0.1152 -0.1158  0.5481
    1SOL     OW 5061   1.126   1.505   2.366 -0.2246  0.3943  0.2473
    1SOL    HW2 5062   1.043   1.526   2.324 -0.2187  0.4760  0.2760
    1SOL    HW3 5063   1.143   1.414   2.342  0.9746  1.1432 -1.9419
    1SOL    MW4 5064   1.118   1.496   2.357 -0.0657  0.5038 -0.0377
    1SOL     OW 5065   0.891   1.598   2.245  0.1865 -0.2067 -0.8033
    1SOL    HW2 5066   0.882   1.684   2.285  0.8034 -0.5136  0.0057
    1SOL    HW3 5067   0.886   1.614   2.151  0.2472  0.7066 -0.6501
    1SOL    MW4 5068   0.889   1.611   2.238  0.2759 -0.1267 -0.6762
    1SOL     OW 5069   0.893   1.855   2.367 -0.0485 -0.0430 -0.1256
    1SOL    HW2 5070   0.889   1.869   2.461 -0.6690 -0.2608 -0.1107
    1SOL    HW3 5071   0.971   1.902   2.338 -0.4925  0.9900  0.3338
    1SOL    MW4 5072   0.902   1.863   2.375 -0.1889  0.0646 -0.0629
    1SOL     OW 5073   1.116   2.030   2.297  0.0481 -0.3820  0.5009
    1SOL    HW2 5074   1.204   1.998   2.318 -0.4158 -1.5245  0.7195
    1SOL    HW3 5075   1.119   2.048   2.203  1.1034  1.4975  0.8622
    1SOL    MW4 5076   1.128   2.028   2.287  0.1262 -0.2847  0.5772
    1SOL     OW 5077   1.092   2.295   2.369 -0.3778  0.3804  0.1745
    1SOL    HW2 5078   1.174   2.336   2.340 -0.5925  0.6006 -0.1281
    1SOL    HW3 5079   1.104   2.202   2.352 -0.4607  0.4949 -0.5391
    1SOL    MW4 5080   1.104   2.288   2.362 -0.4170  0.4246  0.0405
    1SOL     OW 5081   0.886   2.478   2.275  0.1615  0.3310  0.0503
    1SOL    HW2 5082   0.956   2.413   2.287 -0.9392 -1.0895 -1.0756
    1SOL    HW3 5083   0.883   2.492   2.180 -0.6113  0.9119  0.1617
    1SOL    MW4 5084   0.895   2.471   2.264 -0.0857  0.2201 -0.0834
    1SOL     OW 5085   0.898   2.729   2.407  0.1277  0.1938 -0.2231
    1SOL    HW2 5086   0.902   2.709   2.501  1.4724  0.3725 -0.2302
    1SOL    HW3 5087   0.896   2.643   2.365 -0.7834  0.1148 -0.0220
    1SOL    MW4 5088   0.898   2.715   2.414  0.1849  0.2069 -0.1974
    1SOL     OW 5089   1.115   2.851   2.270  0.2678 -0.0843  0.1027
    1SOL    HW2 5090   1.180   2.786   2.299  0.1012 -0.2678  0.0643
    1SOL    HW3 5091   1.031   2.807   2.281  0.0415  0.6757  1.5550
    1SOL    MW4 5092   1.113   2.837   2.275  0.2160 -0.0083  0.2890
    1SOL     OW 5093   1.124   3.092   2.395  0.0850  0.0673 -0.5744
    1SOL    HW2 5094   1.051   3.139   2.354  0.8221  1.2874 -0.4840
    1SOL    HW3 5095   1.128   3.009   2.347 -0.8354  0.3335 -1.1338
    1SOL    MW4 5096   1.115   3.087   2.383  0.0608  0.2635 -0.6361
    1SOL     OW 5097   0.905   3.234   2.267 -0.3400 -0.3026 -0.3135
    1SOL    HW2 5098   0.892   3.327   2.284 -0.6683 -0.2586 -0.7993
    1SOL    HW3 5099   0.824   3.193   2.296  0.0535 -0.5200  0.5045
    1SOL    MW4 5100   0.893   3.241   2.273 -0.3313 -0.3254 -0.2697
    1SOL     OW 5101   0.898   3.488   2.359  0.4651 -0.1258 -0.0679
    1SOL    HW2 5102   0.894   3.476   2.454  0.0109  1.6143  0.1537
    1SOL    HW3 5103   0.810   3.514   2.334  0.8084  0.3489 -0.8242
    1SOL    MW4 5104   0.886   3.490   2.368  0.4504  0.1664 -0.1383
    1SOL     OW 5105   1.138   3.630   2.246  0.1810  0.3216  0.3041
    1SOL    HW2 5106   1.202   3.583   2.300  0.9563 -0.0430 -0.9105
    1SOL    HW3 5107   1.057   3.581   2.256 -0.2915  1.5335  2.9116
    1SOL    MW4 5108   1.136   3.617   2.254  0.2211  0.4332  0.4876
    1SOL     OW 5109   1.094   3.899   2.359  0.1216 -0.0763  0.4304
    1SOL    HW2 5110   1.177   3.942   2.336 -0.8262  1.6129  0.0800
    1SOL    HW3 5111   1.101   3.812   2.321  1.8181 -0.0197  0.5661
    1SOL    MW4 5112   1.106   3.893   2.351  0.2204  0.1540  0.4022
    1SOL     OW 5113   0.859   4.016   2.251 -0.2408  0.2158 -0.4352
    1SOL    HW2 5114   0.943   3.988   2.288  0.0908  0.3094 -1.1120
    1SOL    HW3 5115   0.794   3.960   2.295  0.1451  0.3143  0.2730
    1SOL    MW4 5116   0.861   4.005   2.262 -0.1462  0.2408 -0.4311
    1SOL     OW 5117   0.894   4.257   2.391  0.3592  0.5299 -0.6592
    1SOL    HW2 5118   0.887   4.171   2.351  0.3094  0.1058  0.2453
    1SOL    HW3 5119   0.814   4.303   2.363 -0.0570 -0.0315 -0.3967
    1SOL    MW4 5120   0.882   4.252   2.382  0.2977  0.4001 -0.5054
    1SOL     OW 5121   1.124   4.379   2.263  0.0764 -0.1114 -0.0453
    1SOL    HW2 5122   1.054   4.331   2.308  0.0323 -0.5275 -0.5476
    1SOL    HW3 5123   1.120   4.467   2.300  1.7970 -1.1205  2.7196
    1SOL    MW4 5124   1.114   4.384   2.274  0.2975 -0.2990  0.2532
    1SOL     OW 5125   1.600   4.625   2.395  0.0931 -0.1391  0.0200
    1SOL    HW2 5126   1.661   4.688   2.357  0.5234  0.1474  1.1579
    1SOL    HW3 5127   1.514   4.667   2.386  0.0205 -0.6426 -1.7874
    1SOL    MW4 5128   1.597   4.639   2.389  0.1403 -0.1674 -0.0682
    1SOL     OW 5129   1.359   0.096   2.310 -0.4924  0.2807 -0.4883
    1SOL    HW2 5130   1.355   0.191   2.319 -0.2721  0.1694  0.9030
    1SOL    HW3 5131   1.271   0.065   2.331 -0.3681  0.1259 -0.1850
    1SOL    MW4 5132   1.347   0.104   2.314 -0.4469  0.2456 -0.2646
    1SOL     OW 5133   1.341   0.367   2.366  0.1682 -0.2016 -0.7937
    1SOL    HW2 5134   1.345   0.358   2.461 -1.1601 -0.3904 -0.7425
    1SOL    HW3 5135   1.415   0.423   2.344  1.3952 -1.3982  0.1885
    1SOL    MW4 5136   1.351   0.373   2.376  0.1547 -0.3844 -0.6576
    1SOL     OW 5137   1.548   0.514   2.270 -0.0326 -0.0966  0.3717
    1SOL    HW2 5138   1.623   0.457   2.288 -0.3475 -0.4232  0.6457
    1SOL    HW3 5139   1.547   0.522   2.175 -0.2129 -0.8500  0.3095
    1SOL    MW4 5140   1.558   0.507   2.260 -0.0980 -0.2391  0.3998
    1SOL     OW 5141   1.532   0.765   2.372  0.2635  0.0507 -0.0694
    1SOL    HW2 5142   1.614   0.808   2.347  1.3265 -1.1328  1.2919
    1SOL    HW3 5143   1.532   0.683   2.323  0.0453 -0.0782  0.1441
    1SOL    MW4 5144   1.543   0.760   2.362  0.3750 -0.1225  0.1385
    1SOL     OW 5145   1.315   0.901   2.247  0.6761 -0.1519  0.1929
    1SOL    HW2 5146   1.373   0.844   2.296  1.8303  0.3196 -0.6017
    1SOL    HW3 5147   1.227   0.872   2.270  1.2366 -1.3246  0.8733
    1SOL    MW4 5148   1.311   0.890   2.256  0.9023 -0.2444  0.1779
    1SOL     OW 5149   1.368   1.128   2.376 -0.0625 -0.4803  0.5320
    1SOL    HW2 5150   1.360   1.109   2.469  2.1468 -1.2738  0.5855
    1SOL    HW3 5151   1.355   1.044   2.332 -1.4468 -0.0487  0.0917
    1SOL    MW4 5152   1.365   1.115   2.382  0.0463 -0.5281  0.4814
    1SOL     OW 5153   1.566   1.295   2.283 -0.2490  0.2885 -0.1501
    1SOL    HW2 5154   1.502   1.240   2.329 -0.2220  0.6810  0.3616
    1SOL    HW3 5155   1.547   1.280   2.190  0.4073 -1.3447 -0.0396
    1SOL    MW4 5156   1.555   1.285   2.277 -0.1589  0.1248 -0.0682
    1SOL     OW 5157   1.555   1.561   2.360  0.2320 -0.0687  0.5070
    1SOL    HW2 5158   1.637   1.609   2.351  0.4399 -0.4355  0.4178
    1SOL    HW3 5159   1.574   1.474   2.326  0.3175 -0.7028  2.1098
    1SOL    MW4 5160   1.568   1.556   2.354  0.2707 -0.2006  0.7067
    1SOL     OW 5161   1.323   1.630   2.230  0.1123  0.2311  0.0366
    1SOL    HW2 5162   1.397   1.588   2.274  0.0073 -0.0232 -0.0280
    1SOL    HW3 5163   1.247   1.581   2.260  0.1595 -0.6964 -1.3505
    1SOL    MW4 5164   1.323   1.618   2.240  0.1047  0.0751 -0.1550
    1SOL     OW 5165   1.350   1.881   2.372  0.3142  0.1290  0.1163
    1SOL    HW2 5166   1.424   1.933   2.340 -0.6407  0.4433 -1.6185
    1SOL    HW3 5167   1.347   1.805   2.314 -1.4095  0.6875 -0.5634
    1SOL    MW4 5168   1.360   1.878   2.360 -0.0391  0.2443 -0.2027
    1SOL     OW 5169   1.550   2.080   2.268  0.3301  0.4948 -0.2124
    1SOL    HW2 5170   1.638   2.056   2.298  0.0587 -1.6487 -1.0608
    1SOL    HW3 5171   1.552   2.066   2.174 -0.8403  0.7426 -0.2799
    1SOL    MW4 5172   1.562   2.075   2.260  0.1398  0.2449 -0.3333
    1SOL     OW 5173   1.568   2.343   2.351  1.2257 -0.5760  0.1670
    1SOL    HW2 5174   1.555   2.335   2.446  1.2126 -0.6868  0.1559
    1SOL    HW3 5175   1.550   2.255   2.317 -0.1384 -0.2106 -0.0956
    1SOL    MW4 5176   1.564   2.330   2.359  1.0442 -0.5424  0.1307
    1SOL     OW 5177   1.316   2.436   2.265  0.6977 -0.2390 -0.0755
    1SOL    HW2 5178   1.404   2.405   2.285  0.5712 -1.0722 -0.7833
    1SOL    HW3 5179   1.312   2.437   2.169  0.0422  0.1130 -0.0471
    1SOL    MW4 5180   1.327   2.432   2.255  0.5946 -0.3023 -0.1652
    1SOL     OW 5181   1.315   2.690   2.350  0.0242  0.0303  0.5241
    1SOL    HW2 5182   1.396   2.724   2.311  0.7182 -0.2065  1.7462
    1SOL    HW3 5183   1.315   2.597   2.327  0.3792 -0.0877  1.0100
    1SOL    MW4 5184   1.326   2.682   2.342  0.1626 -0.0165  0.7496
    1SOL     OW 5185   1.555   2.845   2.276 -0.1426 -0.1840 -0.0901
    1SOL    HW2 5186   1.570   2.936   2.299 -3.1140  0.6762 -1.2938
    1SOL    HW3 5187   1.577   2.839   2.183  0.6172 -0.8493  0.1244
    1SOL    MW4 5188   1.560   2.856   2.267 -0.4344 -0.1583 -0.2205
    1SOL     OW 5189   1.597   3.103   2.361 -0.0607 -0.2781  0.1220
    1SOL    HW2 5190   1.586   3.101   2.456  0.4477 -1.5984  0.1732
    1SOL    HW3 5191   1.521   3.150   2.329  0.9929  2.3738  1.3492
    1SOL    MW4 5192   1.586   3.109   2.370  0.1454 -0.1023  0.2909
    1SOL     OW 5193   1.363   3.221   2.296  0.0939  0.3795  0.2836
    1SOL    HW2 5194   1.289   3.171   2.330  0.4201 -1.5224 -1.6976
    1SOL    HW3 5195   1.337   3.245   2.207  1.3744  0.7448 -0.0065
    1SOL    MW4 5196   1.349   3.218   2.289  0.3059  0.1764 -0.0162
    1SOL     OW 5197   1.327   3.486   2.412  0.4292  0.2322  0.0622
    1SOL    HW2 5198   1.338   3.485   2.507  2.9313  0.4377 -0.1938
    1SOL    HW3 5199   1.340   3.395   2.386 -0.4883  0.1363 -0.0715
    1SOL    MW4 5200   1.330   3.474   2.421  0.6382  0.2468  0.0105
    1SOL     OW 5201   1.582   3.603   2.325  0.2456 -0.4274 -0.0301
    1SOL    HW2 5202   1.573   3.695   2.349 -0.2882 -0.8139  1.2899
    1SOL    HW3 5203   1.507   3.559   2.365  1.6467 -1.7776  1.2232
    1SOL    MW4 5204   1.571   3.609   2.334  0.3599 -0.6564  0.3092
    1SOL     OW 5205   1.564   3.894   2.370 -0.5226  0.2943 -0.1500
    1SOL    HW2 5206   1.562   3.896   2.466 -1.0333  0.4128 -0.1602
    1SOL    HW3 5207   1.649   3.932   2.347 -1.0046  1.6435  0.2217
    1SOL    MW4 5208   1.575   3.899   2.380 -0.6536  0.4878 -0.1023
    1SOL     OW 5209   1.339   4.018   2.285 -0.4590  0.8336 -0.2346
    1SOL    HW2 5210   1.417   3.966   2.304 -2.4727 -3.1080 -2.0969
    1SOL    HW3 5211   1.344   4.035   2.191 -2.2469 -0.2063 -0.5366
    1SOL    MW4 5212   1.350   4.013   2.275 -0.9605  0.1774 -0.5202
    1SOL     OW 5213   1.352   4.277   2.359  0.1057  0.7592 -0.0320
    1SOL    HW2 5214   1.355   4.184   2.338  0.6281  0.4788  1.3018
    1SOL    HW3 5215   1.268   4.306   2.322  0.0074 -0.1963 -0.5869
    1SOL    MW4 5216   1.341   4.269   2.351  0.1618  0.5965  0.0708
    1SOL     OW 5217   1.590   4.389   2.279  0.1104 -0.0055 -0.3427
    1SOL    HW2 5218   1.506   4.350   2.303  0.0027  0.7073  0.4731
    1SOL    HW3 5219   1.589   4.476   2.320  2.2629 -0.9388  1.7925
    1SOL    MW4 5220   1.578   4.395   2.288  0.3802 -0.0343  0.0465
    1SOL     OW 5221   2.046   0.013   2.360 -0.4410 -0.0808  0.2219
    1SOL    HW2 5222   2.122   0.056   2.321 -1.6345  1.9104  0.0395
    1SOL    HW3 5223   2.052  -0.078   2.331  0.8075  0.4967 -1.3765
    1SOL    MW4 5224   2.057   0.007   2.351 -0.4337  0.2581 -0.0129
    1SOL     OW 5225   1.791   0.100   2.253  0.5379 -0.1329  0.0056
    1SOL    HW2 5226   1.777   0.193   2.269 -0.6199 -0.6098  1.9186
    1SOL    HW3 5227   1.882   0.085   2.280  1.2558  0.7358 -1.8295
    1SOL    MW4 5228   1.801   0.110   2.258  0.4801 -0.0812  0.0157
    1SOL     OW 5229   1.792   0.376   2.334  0.5461 -0.4871  0.3984
    1SOL    HW2 5230   1.801   0.380   2.429  1.8139 -1.6296  0.3255
    1SOL    HW3 5231   1.868   0.425   2.300 -0.8038  1.3958 -0.0247
    1SOL    MW4 5232   1.803   0.383   2.342  0.5352 -0.3894  0.3331
    1SOL     OW 5233   2.037   0.502   2.260 -0.9573 -0.2036 -0.1029
    1SOL    HW2 5234   2.027   0.595   2.284 -0.1889 -0.1299 -0.0574
    1SOL    HW3 5235   2.024   0.500   2.166 -0.5806  0.0056 -0.1582
    1SOL    MW4 5236   2.034   0.514   2.251 -0.8061 -0.1662 -0.1040
    1SOL     OW 5237   1.993   0.766   2.351  0.1771 -0.3364 -0.2827
    1SOL    HW2 5238   2.061   0.806   2.297  1.4391 -0.6354  1.0486
    1SOL    HW3 5239   2.020   0.784   2.441 -1.7668 -0.0588  0.2700
    1SOL    MW4 5240   2.005   0.774   2.355  0.0870 -0.3392 -0.0341
    1SOL     OW 5241   1.768   0.911   2.301  0.8054 -0.3580  0.6831
    1SOL    HW2 5242   1.784   1.000   2.332  1.5363 -0.0200 -0.6256
    1SOL    HW3 5243   1.841   0.859   2.335  0.8438 -0.2821  0.7155
    1SOL    MW4 5244   1.780   0.916   2.309  0.9068 -0.3033  0.5147
    1SOL     OW 5245   1.792   1.207   2.382  0.5516  0.0253  0.0769
    1SOL    HW2 5246   1.867   1.251   2.342 -0.3314  2.1010  0.6602
    1SOL    HW3 5247   1.716   1.240   2.334 -0.1760 -0.3515  0.9481
    1SOL    MW4 5248   1.792   1.217   2.371  0.3390  0.2494  0.2687
    1SOL     OW 5249   2.030   1.282   2.255 -0.0840  0.3495 -0.1875
    1SOL    HW2 5250   2.044   1.366   2.301  1.3974  0.1607 -0.2501
    1SOL    HW3 5251   2.105   1.229   2.281 -1.1408 -1.0519  0.0289
    1SOL    MW4 5252   2.042   1.286   2.265 -0.0279  0.1397 -0.1671
    1SOL     OW 5253   2.033   1.538   2.374 -0.4749  0.8752 -0.0004
    1SOL    HW2 5254   2.028   1.537   2.469  0.3847  1.8698  0.0621
    1SOL    HW3 5255   1.952   1.581   2.346 -1.2934 -0.4999  0.2279
    1SOL    MW4 5256   2.022   1.544   2.383 -0.4694  0.8252  0.0377
    1SOL     OW 5257   1.785   1.705   2.290 -0.0927 -0.2536 -0.0634
    1SOL    HW2 5258   1.784   1.800   2.297 -1.7723 -0.2114 -0.5766
    1SOL    HW3 5259   1.791   1.688   2.196 -1.9930 -0.6168 -0.1439
    1SOL    MW4 5260   1.786   1.715   2.278 -0.5651 -0.2961 -0.1416
    1SOL     OW 5261   1.798   1.986   2.382 -0.0680 -0.0764 -0.1261
    1SOL    HW2 5262   1.817   1.959   2.472 -0.7213 -0.6524 -0.1616
    1SOL    HW3 5263   1.883   2.012   2.347  0.3244 -0.6364  0.3945
    1SOL    MW4 5264   1.812   1.986   2.389 -0.1025 -0.2264 -0.0622
    1SOL     OW 5265   2.040   2.086   2.243 -0.0278 -0.0209  0.9093
    1SOL    HW2 5266   2.112   2.040   2.285 -0.4639 -0.3682  1.2812
    1SOL    HW3 5267   2.057   2.076   2.149 -0.6981 -1.8871  0.9646
    1SOL    MW4 5268   2.051   2.078   2.236 -0.1736 -0.3128  0.9656
    1SOL     OW 5269   2.022   2.336   2.371  0.5159 -0.1767 -0.0206
    1SOL    HW2 5270   2.099   2.383   2.338  0.4647  1.0672  1.5746
    1SOL    HW3 5271   2.027   2.250   2.329  1.8355  0.4768 -1.2589
    1SOL    MW4 5272   2.033   2.330   2.361  0.6831  0.0734  0.0267
    1SOL     OW 5273   1.788   2.463   2.262 -0.2071  0.0963  0.2870
    1SOL    HW2 5274   1.863   2.417   2.299 -1.1339 -0.8099  1.0541
    1SOL    HW3 5275   1.712   2.418   2.298 -1.1247  1.3520 -0.0590
    1SOL    MW4 5276   1.788   2.451   2.272 -0.4504  0.1423  0.3424
    1SOL     OW 5277   1.789   2.720   2.382 -0.3280  0.2775  0.1325
    1SOL    HW2 5278   1.798   2.638   2.334 -0.4505 -0.2785  1.0412
    1SOL    HW3 5279   1.709   2.760   2.347 -1.2313 -0.8234  0.8831
    1SOL    MW4 5280   1.779   2.714   2.371 -0.4634  0.0587  0.3517
    1SOL     OW 5281   2.012   2.854   2.261 -0.3903 -0.0761  0.3443
    1SOL    HW2 5282   2.087   2.812   2.303  0.1773  0.7883  0.2088
    1SOL    HW3 5283   1.936   2.823   2.310  0.2608  0.9611  2.0550
    1SOL    MW4 5284   2.011   2.844   2.273 -0.2296  0.1745  0.5522
    1SOL     OW 5285   2.028   3.114   2.353 -0.0962  0.0506  0.1261
    1SOL    HW2 5286   2.110   3.144   2.315 -0.0994  0.6960  0.6342
    1SOL    HW3 5287   2.019   3.024   2.322  1.1169 -0.2331  0.5799
    1SOL    MW4 5288   2.038   3.106   2.344  0.0632  0.0982  0.2530
    1SOL     OW 5289   1.815   3.256   2.271  0.1329 -0.1458 -0.4884
    1SOL    HW2 5290   1.888   3.213   2.315  0.1698  0.7900  0.3656
    1SOL    HW3 5291   1.737   3.212   2.306  0.1307  0.9819  0.9601
    1SOL    MW4 5292   1.814   3.245   2.281  0.1374  0.1266 -0.1848
    1SOL     OW 5293   1.814   3.487   2.395  0.4248 -0.1940 -0.3825
    1SOL    HW2 5294   1.810   3.401   2.353 -0.0116  0.1872 -1.1373
    1SOL    HW3 5295   1.736   3.532   2.362  0.3902  0.3134  0.3971
    1SOL    MW4 5296   1.803   3.481   2.385  0.3626 -0.0768 -0.3791
    1SOL     OW 5297   2.020   3.614   2.292  0.1023  0.0359 -0.4190
    1SOL    HW2 5298   1.946   3.569   2.331  0.3192 -1.0500 -1.2435
    1SOL    HW3 5299   2.002   3.614   2.198 -0.3370  2.4705 -0.3850
    1SOL    MW4 5300   2.008   3.608   2.285  0.0730  0.2139 -0.5233
    1SOL     OW 5301   2.029   3.868   2.378 -0.1391 -0.0530  0.3079
    1SOL    HW2 5302   1.997   3.870   2.468  0.5865  1.1963  0.5579
    1SOL    HW3 5303   2.038   3.775   2.357 -0.8509 -0.3575  1.3281
    1SOL    MW4 5304   2.026   3.856   2.387 -0.1369  0.0715  0.4754
    1SOL     OW 5305   1.819   3.999   2.265  0.1453  0.2074 -0.0596
    1SOL    HW2 5306   1.887   3.934   2.285 -0.0329  0.3903  1.1901
    1SOL    HW3 5307   1.815   4.001   2.170  0.8296 -0.9170 -0.1212
    1SOL    MW4 5308   1.828   3.991   2.255  0.2121  0.0832  0.0970
    1SOL     OW 5309   1.820   4.270   2.371 -0.1031 -0.4795 -0.0173
    1SOL    HW2 5310   1.820   4.180   2.340 -1.4039 -0.4536 -0.1292
    1SOL    HW3 5311   1.744   4.310   2.329 -0.1194  0.3947  0.8147
    1SOL    MW4 5312   1.810   4.263   2.361 -0.2769 -0.3610  0.0777
    1SOL     OW 5313   2.042   4.406   2.290 -0.1825 -0.5314  0.1759
    1SOL    HW2 5314   1.964   4.355   2.311 -0.8918  0.5209  0.1082
    1SOL    HW3 5315   2.037   4.420   2.195  0.4100 -0.9720  0.0717
    1SOL    MW4 5316   2.031   4.401   2.280 -0.1976 -0.4511  0.1533
    1SOL     OW 5317   2.473   4.644   2.392 -0.1653 -0.2041 -0.2143
    1SOL    HW2 5318   2.556   4.687   2.370  0.6092 -0.3861  2.2538
    1SOL    HW3 5319   2.473   4.563   2.340  1.9236 -0.9614  0.9239
    1SOL    MW4 5320   2.484   4.639   2.382  0.2127 -0.3276  0.2615
    1SOL     OW 5321   2.283   0.138   2.257 -0.3785  0.2476  0.5442
    1SOL    HW2 5322   2.276   0.227   2.291  1.4944  0.4636  0.4216
    1SOL    HW3 5323   2.336   0.092   2.322 -0.1570 -0.4039 -0.0912
    1SOL    MW4 5324   2.289   0.143   2.270 -0.1023  0.1901  0.4444
    1SOL     OW 5325   2.253   0.371   2.382 -0.1289  0.5194 -0.3121
    1SOL    HW2 5326   2.171   0.419   2.370 -0.4645 -0.1481 -0.7201
    1SOL    HW3 5327   2.319   0.423   2.334 -0.7559 -0.1566 -1.9572
    1SOL    MW4 5328   2.251   0.384   2.374 -0.2558  0.3422 -0.5832
    1SOL     OW 5329   2.482   0.479   2.254 -0.0945 -0.1170 -0.2926
    1SOL    HW2 5330   2.564   0.444   2.290 -0.5166  1.0504  1.9029
    1SOL    HW3 5331   2.497   0.483   2.160  1.6963 -1.6543 -0.1095
    1SOL    MW4 5332   2.495   0.475   2.246  0.0863 -0.1659  0.0212
    1SOL     OW 5333   2.448   0.749   2.365  0.0820  0.4669  0.5648
    1SOL    HW2 5334   2.517   0.803   2.325 -0.1923  0.6604  0.3510
    1SOL    HW3 5335   2.474   0.659   2.345 -0.1389  0.5702 -0.1940
    1SOL    MW4 5336   2.460   0.744   2.357  0.0167  0.5060  0.4363
    1SOL     OW 5337   2.215   0.852   2.196  0.0578  0.6769 -0.2539
    1SOL    HW2 5338   2.219   0.937   2.240  0.1864  0.1590  0.7427
    1SOL    HW3 5339   2.281   0.798   2.240  1.4071  0.6665 -2.2349
    1SOL    MW4 5340   2.224   0.856   2.208  0.2530  0.6072 -0.3839
    1SOL     OW 5341   2.235   1.136   2.350 -0.5555  0.0911 -0.0325
    1SOL    HW2 5342   2.310   1.182   2.313 -0.9631 -0.9712 -2.2475
    1SOL    HW3 5343   2.249   1.139   2.445  2.4909 -0.4180 -0.4183
    1SOL    MW4 5344   2.247   1.142   2.358 -0.2074 -0.1162 -0.3760
    1SOL     OW 5345   2.435   1.303   2.250  0.0381 -0.4703 -0.0869
    1SOL    HW2 5346   2.514   1.261   2.285  0.1662 -0.3000 -0.1710
    1SOL    HW3 5347   2.443   1.394   2.276  0.6597 -0.1165 -1.4813
    1SOL    MW4 5348   2.447   1.309   2.258  0.1371 -0.4011 -0.2820
    1SOL     OW 5349   2.440   1.569   2.336  0.1209  0.3274 -0.2607
    1SOL    HW2 5350   2.449   1.540   2.427  0.8295 -0.4362 -0.5630
    1SOL    HW3 5351   2.528   1.600   2.312  0.4626 -1.3753 -1.3129
    1SOL    MW4 5352   2.453   1.569   2.345  0.2594  0.0020 -0.4394
    1SOL     OW 5353   2.215   1.671   2.225 -0.2923 -0.0370 -0.3214
    1SOL    HW2 5354   2.295   1.632   2.260 -0.0817  0.6322 -0.0632
    1SOL    HW3 5355   2.144   1.618   2.262 -0.0415  0.2577  0.5956
    1SOL    MW4 5356   2.216   1.659   2.234 -0.2315  0.0900 -0.1662
    1SOL     OW 5357   2.225   1.905   2.375  0.0508  0.1475 -0.0283
    1SOL    HW2 5358   2.293   1.955   2.330 -0.1664 -0.8006 -1.4204
    1SOL    HW3 5359   2.227   1.819   2.333  0.2282 -0.9422  2.1397
    1SOL    MW4 5360   2.235   1.900   2.364  0.0455 -0.1214  0.0741
    1SOL     OW 5361   2.398   2.065   2.243  0.5662  0.1622  0.1900
    1SOL    HW2 5362   2.474   2.013   2.266 -0.1593 -0.5993  0.9384
    1SOL    HW3 5363   2.399   2.070   2.148  1.1188 -0.5033  0.1593
    1SOL    MW4 5364   2.408   2.059   2.234  0.5434 -0.0262  0.2847
    1SOL     OW 5365   2.478   2.299   2.366 -0.2704  0.1026  0.3668
    1SOL    HW2 5366   2.552   2.334   2.316 -0.0843 -0.8809 -0.0557
    1SOL    HW3 5367   2.449   2.223   2.316 -0.8291 -0.2022  1.1484
    1SOL    MW4 5368   2.484   2.294   2.353 -0.3195 -0.0675  0.4141
    1SOL     OW 5369   2.245   2.460   2.255 -0.3814  0.0102  0.4938
    1SOL    HW2 5370   2.247   2.549   2.289 -0.9423  0.3789 -0.4456
    1SOL    HW3 5371   2.324   2.419   2.291  0.4470  1.2088  0.0490
    1SOL    MW4 5372   2.256   2.466   2.264 -0.3457  0.2170  0.3111
    1SOL     OW 5373   2.253   2.723   2.340  0.0397 -0.3230  0.0785
    1SOL    HW2 5374   2.239   2.728   2.435  1.9349  1.6880  0.2961
    1SOL    HW3 5375   2.336   2.768   2.326  0.2024 -1.3356 -2.4665
    1SOL    MW4 5376   2.262   2.729   2.351  0.3111 -0.1915 -0.2284
    1SOL     OW 5377   2.498   2.847   2.289  0.1689 -0.1794  0.0175
    1SOL    HW2 5378   2.570   2.788   2.314  0.8124  0.1279 -1.0527
    1SOL    HW3 5379   2.510   2.860   2.195 -0.6679  0.7339  0.0332
    1SOL    MW4 5380   2.509   2.841   2.280  0.1435 -0.0186 -0.1216
    1SOL     OW 5381   2.491   3.112   2.382 -0.2413  0.1675 -0.1858
    1SOL    HW2 5382   2.573   3.152   2.353  0.6440 -0.9430  0.7246
    1SOL    HW3 5383   2.497   3.021   2.353 -0.9958 -0.0064  0.1941
    1SOL    MW4 5384   2.503   3.105   2.375 -0.2239 -0.0021 -0.0155
    1SOL     OW 5385   2.256   3.191   2.251  0.2252 -0.1055  0.0267
    1SOL    HW2 5386   2.252   3.285   2.267  0.0779 -0.2508  0.8843
    1SOL    HW3 5387   2.331   3.161   2.303 -0.2529 -0.5870  0.4485
    1SOL    MW4 5388   2.266   3.199   2.260  0.1426 -0.1879  0.1957
    1SOL     OW 5389   2.246   3.459   2.340 -0.0857 -0.3108  0.3803
    1SOL    HW2 5390   2.247   3.477   2.435  0.7989 -1.6255  0.6336
    1SOL    HW3 5391   2.174   3.511   2.307  0.5267  1.3558  1.5630
    1SOL    MW4 5392   2.237   3.469   2.348  0.1118 -0.2642  0.5698
    1SOL     OW 5393   2.460   3.605   2.275  0.8513 -0.4794 -0.3029
    1SOL    HW2 5394   2.447   3.698   2.293  0.4736 -0.5894  0.0060
    1SOL    HW3 5395   2.382   3.563   2.309  1.8761 -1.1253  1.3237
    1SOL    MW4 5396   2.448   3.612   2.282  0.9367 -0.5794 -0.0474
    1SOL     OW 5397   2.476   3.870   2.367  0.4522  0.5619 -0.1030
    1SOL    HW2 5398   2.491   3.894   2.458 -1.6784 -0.6385  0.6062
    1SOL    HW3 5399   2.387   3.900   2.348 -0.2987 -1.9300 -0.7977
    1SOL    MW4 5400   2.466   3.877   2.376  0.0725  0.0746 -0.1009
    1SOL     OW 5401   2.241   4.007   2.277  0.0651 -0.1420 -0.0546
    1SOL    HW2 5402   2.237   4.099   2.303 -0.3179 -0.4238  0.9416
    1SOL    HW3 5403   2.172   3.965   2.329 -0.0179 -0.9250 -0.7797
    1SOL    MW4 5404   2.231   4.014   2.287  0.0036 -0.2828 -0.0188
    1SOL     OW 5405   2.258   4.262   2.368 -0.1174  0.1723  0.3040
    1SOL    HW2 5406   2.273   4.255   2.463 -0.1183  1.0933  0.3800
    1SOL    HW3 5407   2.178   4.315   2.361 -0.5650 -0.5652 -0.1994
    1SOL    MW4 5408   2.249   4.268   2.380 -0.1764  0.1969  0.2475
    1SOL     OW 5409   2.476   4.390   2.260 -0.0599  0.6637 -0.1967
    1SOL    HW2 5410   2.560   4.364   2.298  0.1932  1.6843 -0.0461
    1SOL    HW3 5411   2.413   4.328   2.299  0.6373 -0.2255 -0.4600
    1SOL    MW4 5412   2.479   4.378   2.270  0.0656  0.6809 -0.2112
    1SOL     OW 5413   2.921   4.639   2.407  0.0635  0.2511  0.0363
    1SOL    HW2 5414   2.988   4.695   2.369  0.3908 -0.4036 -0.3586
    1SOL    HW3 5415   2.930   4.556   2.361 -0.4675 -0.1043  0.5638
    1SOL    MW4 5416   2.931   4.636   2.396  0.0365  0.1173  0.0536
    1SOL     OW 5417   2.699   0.098   2.299 -0.2239 -0.0400 -0.3598
    1SOL    HW2 5418   2.695   0.191   2.319 -0.6909 -0.2928  0.7166
    1SOL    HW3 5419   2.783   0.069   2.334  0.3371  0.1579 -1.5069
    1SOL    MW4 5420   2.710   0.106   2.306 -0.2110 -0.0472 -0.3693
    1SOL     OW 5421   2.716   0.377   2.316  0.0137  0.0052 -0.0224
    1SOL    HW2 5422   2.738   0.369   2.409  0.2153  0.0514 -0.0657
    1SOL    HW3 5423   2.781   0.437   2.281 -1.4401  1.8126  0.2832
    1SOL    MW4 5424   2.727   0.384   2.324 -0.1516  0.2498  0.0122
    1SOL     OW 5425   2.926   0.553   2.251 -0.0270 -0.0500 -0.0490
    1SOL    HW2 5426   2.931   0.648   2.262  1.3425 -0.2761  1.5502
    1SOL    HW3 5427   2.922   0.539   2.156 -1.1980  1.6350 -0.2601
    1SOL    MW4 5428   2.926   0.564   2.240 -0.0010  0.1425  0.1340
    1SOL     OW 5429   2.907   0.835   2.320  0.2697  0.3289  0.0179
    1SOL    HW2 5430   2.906   0.832   2.416  0.6193  0.6806  0.0352
    1SOL    HW3 5431   2.817   0.858   2.296  0.0276 -0.3950  0.2381
    1SOL    MW4 5432   2.895   0.838   2.329  0.2837  0.2798  0.0494
    1SOL     OW 5433   2.644   0.904   2.238  0.1904  0.2229 -0.0449
    1SOL    HW2 5434   2.659   0.993   2.268 -1.2687  0.6276 -0.4668
    1SOL    HW3 5435   2.676   0.903   2.148 -0.9837  0.6901 -0.4748
    1SOL    MW4 5436   2.650   0.916   2.230 -0.1569  0.3379 -0.1574
    1SOL     OW 5437   2.670   1.154   2.330 -0.0850  0.2895 -0.3191
    1SOL    HW2 5438   2.666   1.139   2.424 -0.9665  1.4737 -0.1562
    1SOL    HW3 5439   2.756   1.192   2.315  0.3897 -0.6842 -0.1180
    1SOL    MW4 5440   2.681   1.157   2.340 -0.1385  0.3172 -0.2711
    1SOL     OW 5441   2.912   1.297   2.258 -0.3931 -0.5839 -0.2008
    1SOL    HW2 5442   2.986   1.237   2.267  0.8953  1.1788  1.3580
    1SOL    HW3 5443   2.891   1.295   2.165  1.5830 -1.1565 -0.6560
    1SOL    MW4 5444   2.919   1.289   2.247  0.0374 -0.4268 -0.0551
    1SOL     OW 5445   2.921   1.555   2.353  0.7682  0.0114  0.0038
    1SOL    HW2 5446   2.921   1.537   2.447  0.1906  1.2061  0.2451
    1SOL    HW3 5447   2.914   1.468   2.312 -2.4153 -0.3233  1.1308
    1SOL    MW4 5448   2.920   1.541   2.360  0.2720  0.1248  0.1841
    1SOL     OW 5449   2.687   1.665   2.267  0.1007 -0.1447 -0.3822
    1SOL    HW2 5450   2.773   1.643   2.301 -0.5043 -0.3639  1.0496
    1SOL    HW3 5451   2.696   1.660   2.172  1.7914  0.3337 -0.2618
    1SOL    MW4 5452   2.699   1.662   2.259  0.2441 -0.1106 -0.1774
    1SOL     OW 5453   2.642   1.917   2.343  0.2665 -0.3567  0.2249
    1SOL    HW2 5454   2.661   1.914   2.437 -0.8254  0.2592  0.4667
    1SOL    HW3 5455   2.640   1.825   2.316 -0.9181 -0.5914  1.0999
    1SOL    MW4 5456   2.644   1.905   2.352 -0.0339 -0.3064  0.3726
    1SOL     OW 5457   2.873   2.079   2.254  0.0228  0.0203 -0.1560
    1SOL    HW2 5458   2.948   2.024   2.277  0.7273  1.4270  0.9816
    1SOL    HW3 5459   2.797   2.029   2.285  0.5873 -0.7264  0.0467
    1SOL    MW4 5460   2.873   2.065   2.261  0.1903  0.1075  0.0207
    1SOL     OW 5461   2.961   2.329   2.367 -0.0598  0.1263  0.2754
    1SOL    HW2 5462   2.947   2.320   2.461  0.6547  0.6771  0.4429
    1SOL    HW3 5463   2.930   2.246   2.329  0.3391 -0.3912  1.0716
    1SOL    MW4 5464   2.955   2.317   2.374  0.0873  0.1307  0.4027
    1SOL     OW 5465   2.710   2.442   2.257  0.2959 -0.2032  0.3491
    1SOL    HW2 5466   2.793   2.405   2.285  0.5647 -0.0404 -0.2210
    1SOL    HW3 5467   2.716   2.444   2.161 -0.6587 -0.8893  0.2728
    1SOL    MW4 5468   2.722   2.438   2.248  0.2055 -0.2720  0.2639
    1SOL     OW 5469   2.735   2.695   2.353 -0.0213  0.3142 -0.1063
    1SOL    HW2 5470   2.826   2.719   2.335  0.1593 -1.2042 -1.3361
    1SOL    HW3 5471   2.725   2.609   2.312 -2.2566  0.8474 -0.7113
    1SOL    MW4 5472   2.746   2.687   2.346 -0.2923  0.1843 -0.3483
    1SOL     OW 5473   2.972   2.800   2.234  0.6921  0.0436  0.0242
    1SOL    HW2 5474   2.952   2.891   2.257 -2.1198 -0.4213 -0.3974
    1SOL    HW3 5475   2.971   2.799   2.139 -0.3814 -0.6232  0.0317
    1SOL    MW4 5476   2.969   2.812   2.225  0.1795 -0.1059 -0.0305
    1SOL     OW 5477   2.936   3.073   2.326  0.5289 -0.3880  0.0662
    1SOL    HW2 5478   2.920   3.079   2.420 -0.5780  0.0357 -0.1437
    1SOL    HW3 5479   2.865   3.124   2.286  0.2468 -1.6198 -1.0499
    1SOL    MW4 5480   2.924   3.080   2.333  0.3459 -0.4945 -0.1087
    1SOL     OW 5481   2.722   3.233   2.262  0.2730  0.2751  0.2846
    1SOL    HW2 5482   2.722   3.324   2.293  1.0738  0.6862 -0.9122
    1SOL    HW3 5483   2.713   3.240   2.167  1.0844 -0.8803  0.1180
    1SOL    MW4 5484   2.721   3.246   2.254  0.4857  0.1771  0.1047
    1SOL     OW 5485   2.709   3.493   2.344 -0.2702  0.0003  0.6556
    1SOL    HW2 5486   2.779   3.543   2.302  0.7218 -0.9927  1.0955
    1SOL    HW3 5487   2.629   3.537   2.317  0.4184  0.1779 -1.1933
    1SOL    MW4 5488   2.708   3.505   2.335 -0.0484 -0.1070  0.4697
    1SOL     OW 5489   2.932   3.664   2.241 -0.3621  0.0426 -0.1446
    1SOL    HW2 5490   3.016   3.628   2.269  0.1797  0.0212 -1.7891
    1SOL    HW3 5491   2.927   3.750   2.284  0.7814  0.3163 -0.5628
    1SOL    MW4 5492   2.942   3.671   2.251 -0.1395  0.0761 -0.4165
    1SOL     OW 5493   2.897   3.897   2.381 -0.3466  0.0036 -0.4370
    1SOL    HW2 5494   2.886   3.930   2.470 -0.0566  0.2117 -0.4776
    1SOL    HW3 5495   2.817   3.923   2.336 -1.2251 -1.5179  0.1933
    1SOL    MW4 5496   2.885   3.904   2.387 -0.4244 -0.1698 -0.3593
    1SOL     OW 5497   2.688   4.033   2.277  0.0863  0.0769  0.1439
    1SOL    HW2 5498   2.607   3.983   2.291  0.8702 -1.5517 -1.0121
    1SOL    HW3 5499   2.695   4.040   2.182  1.3599  0.1002  0.2382
    1SOL    MW4 5500   2.678   4.027   2.266  0.3576 -0.1354  0.0036
    1SOL     OW 5501   2.719   4.322   2.379  0.0027  0.3872  0.1279
    1SOL    HW2 5502   2.709   4.331   2.474  0.5878 -0.0521  0.2326
    1SOL    HW3 5503   2.719   4.228   2.363 -1.7226  0.4844 -0.4968
    1SOL    MW4 5504   2.718   4.311   2.390 -0.1476  0.3419  0.0591
    1SOL     OW 5505   2.949   4.430   2.247  0.0507 -0.2038 -0.3317
    1SOL    HW2 5506   3.026   4.383   2.278  0.1891 -0.7022 -1.3815
    1SOL    HW3 5507   2.875   4.387   2.290  0.3890  0.5560  1.0075
    1SOL    MW4 5508   2.950   4.418   2.257  0.1135 -0.1693 -0.2935
    1SOL     OW 5509   3.338   0.008   2.348 -0.2574  0.0992  0.0091
    1SOL    HW2 5510   3.343   0.005   2.443  1.1350  1.2079 -0.0057
    1SOL    HW3 5511   3.427   0.031   2.320 -0.6041 -0.4109 -1.5614
    1SOL    MW4 5512   3.350   0.011   2.357 -0.1192  0.1783 -0.2000
    1SOL     OW 5513   3.107   0.147   2.295  0.2432  0.4240  0.0577
    1SOL    HW2 5514   3.117   0.238   2.322 -1.2539  0.3928  0.7979
    1SOL    HW3 5515   3.194   0.109   2.304  0.2440  0.9859  2.8166
    1SOL    MW4 5516   3.120   0.154   2.300  0.0455  0.4940  0.5190
    1SOL     OW 5517   3.117   0.411   2.375  0.5648 -0.0894  0.1152
    1SOL    HW2 5518   3.197   0.447   2.335  1.0813 -0.5518  0.7137
    1SOL    HW3 5519   3.047   0.466   2.342  1.1987  0.6556 -0.0141
    1SOL    MW4 5520   3.119   0.423   2.365  0.7167 -0.0521  0.1769
    1SOL     OW 5521   3.344   0.539   2.251  0.3278 -0.0421  0.1958
    1SOL    HW2 5522   3.412   0.478   2.281  0.8086  0.6746  0.6003
    1SOL    HW3 5523   3.345   0.532   2.156 -0.0061 -1.0693  0.2650
    1SOL    MW4 5524   3.353   0.530   2.242  0.3471 -0.0831  0.2587
    1SOL     OW 5525   3.346   0.777   2.393  0.2147 -0.2557  0.4003
    1SOL    HW2 5526   3.414   0.825   2.345 -1.8960  1.4537 -0.9754
    1SOL    HW3 5527   3.350   0.688   2.358  1.8083 -0.2071  0.4232
    1SOL    MW4 5528   3.356   0.771   2.382  0.1466 -0.0237  0.2217
    1SOL     OW 5529   3.150   0.913   2.230  0.1639 -0.1484  0.3640
    1SOL    HW2 5530   3.208   0.855   2.280 -1.4847 -1.7554  0.4559
    1SOL    HW3 5531   3.062   0.892   2.260 -0.6703  0.6612 -1.4031
    1SOL    MW4 5532   3.146   0.903   2.240 -0.1636 -0.2536  0.1431
    1SOL     OW 5533   3.131   1.149   2.352  0.3541 -0.0033  0.0959
    1SOL    HW2 5534   3.196   1.204   2.308  1.1936 -0.4957  0.6916
    1SOL    HW3 5535   3.144   1.062   2.313 -1.1861  0.2729 -1.0745
    1SOL    MW4 5536   3.142   1.145   2.341  0.2615 -0.0317  0.0205
    1SOL     OW 5537   3.339   1.314   2.231  0.1743 -0.0564 -0.4593
    1SOL    HW2 5538   3.408   1.265   2.275  2.8331  2.3559 -1.8049
    1SOL    HW3 5539   3.336   1.398   2.277 -2.0671 -0.2111 -0.2653
    1SOL    MW4 5540   3.348   1.318   2.243  0.2296  0.2414 -0.6113
    1SOL     OW 5541   3.348   1.560   2.358 -0.0529 -0.0458 -0.0066
    1SOL    HW2 5542   3.352   1.577   2.452  0.6683  1.3767 -0.2741
    1SOL    HW3 5543   3.283   1.623   2.326 -0.2831 -0.5177 -0.4698
    1SOL    MW4 5544   3.340   1.571   2.366  0.0122  0.0796 -0.1030
    1SOL     OW 5545   3.131   1.691   2.239 -0.2188 -0.6467  0.4248
    1SOL    HW2 5546   3.121   1.778   2.277  1.9720 -0.1724 -0.0239
    1SOL    HW3 5547   3.058   1.641   2.274 -1.7624  1.4809  0.3598
    1SOL    MW4 5548   3.120   1.696   2.248 -0.1330 -0.3033  0.3569
    1SOL     OW 5549   3.104   1.951   2.342  0.2300  0.4294 -0.1396
    1SOL    HW2 5550   3.119   1.924   2.433 -1.6158 -1.2167 -0.2976
    1SOL    HW3 5551   3.190   1.980   2.312  1.8703 -3.0287  0.8334
    1SOL    MW4 5552   3.118   1.951   2.350  0.2029 -0.2440 -0.0319
    1SOL     OW 5553   3.372   2.016   2.257 -0.4573  0.5525 -0.0722
    1SOL    HW2 5554   3.451   1.971   2.284  0.0908  2.2860  1.3483
    1SOL    HW3 5555   3.377   2.019   2.161  2.0405  2.0833  0.0534
    1SOL    MW4 5556   3.383   2.011   2.248 -0.0556  0.9830  0.1316
    1SOL     OW 5557   3.428   2.280   2.353  0.8066  0.1914  0.2615
    1SOL    HW2 5558   3.341   2.309   2.324  0.4075 -0.9854  0.2528
    1SOL    HW3 5559   3.435   2.190   2.323  1.8437  0.1169  0.6891
    1SOL    MW4 5560   3.417   2.272   2.345  0.8910  0.0265  0.3166
    1SOL     OW 5561   3.203   2.416   2.294 -0.0469 -0.0177 -0.0935
    1SOL    HW2 5562   3.212   2.498   2.343  0.8218 -0.9251  1.2762
    1SOL    HW3 5563   3.114   2.387   2.313 -0.1319  0.2630 -0.0511
    1SOL    MW4 5564   3.193   2.423   2.303  0.0563 -0.1004  0.0927
    1SOL     OW 5565   3.185   2.687   2.355 -0.0429  0.1379  0.0802
    1SOL    HW2 5566   3.166   2.710   2.446  0.1072  1.1271 -0.1352
    1SOL    HW3 5567   3.117   2.730   2.304 -0.5139 -0.9538 -0.2304
    1SOL    MW4 5568   3.174   2.696   2.360 -0.0854  0.1247  0.0110
    1SOL     OW 5569   3.389   2.825   2.247 -0.5126 -0.7063 -0.5543
    1SOL    HW2 5570   3.361   2.908   2.286  0.3144 -0.1487 -1.1271
    1SOL    HW3 5571   3.323   2.762   2.275 -0.3556 -0.1638  1.0986
    1SOL    MW4 5572   3.376   2.827   2.256 -0.3829 -0.5612 -0.4117
    1SOL     OW 5573   3.363   3.066   2.351  0.1178  0.0416  0.0128
    1SOL    HW2 5574   3.436   3.097   2.297  0.1054  0.4010  0.2054
    1SOL    HW3 5575   3.289   3.120   2.325  0.4973  1.3450  1.5527
    1SOL    MW4 5576   3.363   3.077   2.340  0.1662  0.2608  0.2410
    1SOL     OW 5577   3.166   3.229   2.261 -0.1217  0.2206 -0.4437
    1SOL    HW2 5578   3.161   3.320   2.290 -1.0116 -0.8357  2.9778
    1SOL    HW3 5579   3.084   3.190   2.290  0.4219 -1.7928 -1.5075
    1SOL    MW4 5580   3.155   3.236   2.269 -0.1671 -0.1845 -0.1326
    1SOL     OW 5581   3.156   3.484   2.344  0.0304  0.1650 -0.2278
    1SOL    HW2 5582   3.150   3.491   2.439  2.0425  0.1452 -0.0824
    1SOL    HW3 5583   3.229   3.541   2.320  0.3059 -0.7576 -1.6384
    1SOL    MW4 5584   3.165   3.493   2.353  0.3324  0.0408 -0.3948
    1SOL     OW 5585   3.383   3.627   2.235  0.2545  0.0415  0.2846
    1SOL    HW2 5586   3.454   3.565   2.252 -0.4692 -0.8787 -0.0317
    1SOL    HW3 5587   3.382   3.637   2.140 -1.0802 -1.2153  0.1387
    1SOL    MW4 5588   3.392   3.620   2.225 -0.0172 -0.2458  0.2236
    1SOL     OW 5589   3.337   3.882   2.343  0.3941  0.0231  0.4679
    1SOL    HW2 5590   3.422   3.924   2.353  1.2128 -1.5784  0.3442
    1SOL    HW3 5591   3.357   3.794   2.312 -1.1657 -1.2390  2.8735
    1SOL    MW4 5592   3.351   3.876   2.340  0.2964 -0.3550  0.7689
    1SOL     OW 5593   3.106   4.019   2.273  0.2034 -0.6224  0.3119
    1SOL    HW2 5594   3.181   3.979   2.317  0.6783  0.6308  0.6619
    1SOL    HW3 5595   3.030   3.988   2.321  0.5836 -0.9356  0.7076
    1SOL    MW4 5596   3.106   4.010   2.285  0.3161 -0.4978  0.4103
    1SOL     OW 5597   3.129   4.278   2.370 -0.0026 -0.2669 -0.1978
    1SOL    HW2 5598   3.216   4.307   2.342 -0.4078 -0.0350 -1.2329
    1SOL    HW3 5599   3.122   4.189   2.336 -0.6283  0.1325 -1.1182
    1SOL    MW4 5600   3.140   4.270   2.362 -0.1385 -0.1836 -0.4559
    1SOL     OW 5601   3.357   4.403   2.288  0.3437 -0.3281  0.2740
    1SOL    HW2 5602   3.355   4.498   2.304  0.7521 -0.5307  1.5210
    1SOL    HW3 5603   3.362   4.396   2.192  1.2216  0.9204  0.2085
    1SOL    MW4 5604   3.357   4.415   2.277  0.5133 -0.1903  0.4301
    1SOL     OW 5605   3.800   4.646   2.383  0.1495  0.1286 -0.3772
    1SOL    HW2 5606   3.813   4.666   2.476  2.0304 -1.1449 -0.3440
    1SOL    HW3 5607   3.876   4.684   2.339 -0.0894 -0.3720 -1.2361
    1SOL    MW4 5608   3.812   4.653   2.390  0.3662 -0.1054 -0.4861
    1SOL     OW 5609   3.593   0.109   2.261  0.2726  0.0368 -0.3326
    1SOL    HW2 5610   3.573   0.195   2.296 -1.7142 -1.3264  2.0304
    1SOL    HW3 5611   3.659   0.073   2.320 -0.0610 -0.6646 -0.3760
    1SOL    MW4 5612   3.599   0.116   2.273 -0.0334 -0.2356 -0.0267
    1SOL     OW 5613   3.546   0.361   2.341 -0.0410 -0.2614  0.1868
    1SOL    HW2 5614   3.550   0.373   2.436 -0.8273  0.0934  0.1771
    1SOL    HW3 5615   3.630   0.394   2.309  0.4622 -0.9317  0.8193
    1SOL    MW4 5616   3.558   0.367   2.349 -0.0784 -0.3031  0.2689
    1SOL     OW 5617   3.774   0.494   2.222 -0.1895  0.1987  0.4081
    1SOL    HW2 5618   3.792   0.588   2.232  0.3458  0.2077 -0.5741
    1SOL    HW3 5619   3.786   0.477   2.129 -2.8844 -0.3275  0.1106
    1SOL    MW4 5620   3.778   0.504   2.211 -0.4745  0.1305  0.2394
    1SOL     OW 5621   3.810   0.756   2.304 -0.2759 -0.0812  0.1838
    1SOL    HW2 5622   3.813   0.739   2.399  0.3992 -2.1286 -0.1788
    1SOL    HW3 5623   3.888   0.810   2.288  0.3986 -0.9211  0.5823
    1SOL    MW4 5624   3.821   0.761   2.315 -0.0980 -0.4622  0.1881
    1SOL     OW 5625   3.574   0.886   2.252  0.0365 -0.0465  0.1683
    1SOL    HW2 5626   3.660   0.851   2.277  0.8253  1.9220  0.3406
    1SOL    HW3 5627   3.575   0.885   2.156  0.0770 -0.4634  0.1744
    1SOL    MW4 5628   3.586   0.881   2.243  0.1459  0.1582  0.1919
    1SOL     OW 5629   3.544   1.161   2.353  0.4548 -0.1199  0.1508
    1SOL    HW2 5630   3.553   1.155   2.448 -0.3455  0.2522  0.2486
    1SOL    HW3 5631   3.559   1.071   2.322  0.6802 -0.2493  0.6254
    1SOL    MW4 5632   3.548   1.148   2.361  0.3791 -0.0877  0.2263
    1SOL     OW 5633   3.793   1.248   2.260 -0.2393 -0.1660 -0.3005
    1SOL    HW2 5634   3.792   1.333   2.304 -2.5430 -0.0628 -0.5117
    1SOL    HW3 5635   3.706   1.211   2.275 -0.2265 -1.2579 -2.5643
    1SOL    MW4 5636   3.781   1.255   2.268 -0.5414 -0.2965 -0.6273
    1SOL     OW 5637   3.830   1.534   2.335 -0.0646  0.0207  0.3661
    1SOL    HW2 5638   3.814   1.534   2.429 -0.5075 -2.3126  0.3341
    1SOL    HW3 5639   3.749   1.568   2.297 -0.3465 -0.1854  0.7822
    1SOL    MW4 5640   3.817   1.538   2.342 -0.1605 -0.3144  0.4168
    1SOL     OW 5641   3.582   1.640   2.268  0.1995  0.0830 -0.3290
    1SOL    HW2 5642   3.509   1.592   2.307  1.7289 -1.0560  1.2181
    1SOL    HW3 5643   3.576   1.621   2.174 -2.0630  0.8275 -0.3667
    1SOL    MW4 5644   3.572   1.631   2.261  0.1028  0.0310 -0.1297
    1SOL     OW 5645   3.594   1.892   2.364  0.0526 -0.3578 -0.3077
    1SOL    HW2 5646   3.670   1.944   2.336  0.0900  1.0634  2.2575
    1SOL    HW3 5647   3.598   1.813   2.310  1.4034  1.2109 -2.6055
    1SOL    MW4 5648   3.605   1.889   2.353  0.2358  0.0367 -0.2725
    1SOL     OW 5649   3.799   2.044   2.261 -0.0398 -0.1468  0.0161
    1SOL    HW2 5650   3.878   2.005   2.299  0.6156  1.2521  0.1352
    1SOL    HW3 5651   3.805   2.025   2.168  1.2829  1.3442 -0.2190
    1SOL    MW4 5652   3.810   2.037   2.254  0.2210  0.2344  0.0010
    1SOL     OW 5653   3.813   2.323   2.334 -0.1772 -0.5771 -0.1646
    1SOL    HW2 5654   3.735   2.370   2.302 -1.5813 -1.5260  1.7217
    1SOL    HW3 5655   3.799   2.232   2.307  0.7301 -0.5824 -0.6198
    1SOL    MW4 5656   3.801   2.317   2.327 -0.2427 -0.7029  0.0243
    1SOL     OW 5657   3.602   2.455   2.238 -0.5926 -0.1854 -0.0284
    1SOL    HW2 5658   3.545   2.393   2.284 -0.2440 -1.2093 -0.9488
    1SOL    HW3 5659   3.590   2.433   2.145 -0.1003  0.8196 -0.3310
    1SOL    MW4 5660   3.593   2.444   2.232 -0.4818 -0.1879 -0.1898
    1SOL     OW 5661   3.617   2.710   2.348  0.0166 -0.2168  0.0386
    1SOL    HW2 5662   3.625   2.620   2.315  1.9301  0.3062 -1.0032
    1SOL    HW3 5663   3.533   2.741   2.314  0.0949 -1.0649 -0.9364
    1SOL    MW4 5664   3.607   2.702   2.339  0.2792 -0.2596 -0.2272
    1SOL     OW 5665   3.814   2.859   2.218 -0.1736  0.0400 -0.0064
    1SOL    HW2 5666   3.825   2.938   2.270 -1.1699  0.9628 -1.1931
    1SOL    HW3 5667   3.741   2.813   2.259  0.4792 -0.3427  0.7519
    1SOL    MW4 5668   3.806   2.863   2.231 -0.2189  0.1113 -0.0629
    1SOL     OW 5669   3.834   3.079   2.380  0.3597  0.1311 -0.0553
    1SOL    HW2 5670   3.845   3.079   2.476 -1.0486 -1.8473  0.1410
    1SOL    HW3 5671   3.916   3.115   2.347  1.1259  0.2699  1.8890
    1SOL    MW4 5672   3.846   3.083   2.389  0.2749 -0.1118  0.2272
    1SOL     OW 5673   3.594   3.186   2.242  0.0873  0.1297 -0.1850
    1SOL    HW2 5674   3.599   3.280   2.256 -1.7219  0.1485  0.4196
    1SOL    HW3 5675   3.679   3.153   2.274 -0.7203  1.1307  3.2191
    1SOL    MW4 5676   3.606   3.194   2.248 -0.2580  0.2644  0.3438
    1SOL     OW 5677   3.589   3.454   2.308 -0.1513 -0.4834 -0.0130
    1SOL    HW2 5678   3.581   3.451   2.403  1.0189  0.4875  0.1301
    1SOL    HW3 5679   3.678   3.486   2.292 -0.3196 -0.6717 -1.4327
    1SOL    MW4 5680   3.600   3.458   2.318 -0.0191 -0.3800 -0.1817
    1SOL     OW 5681   3.828   3.603   2.259  0.0718  0.2638 -0.3587
    1SOL    HW2 5682   3.810   3.697   2.269 -1.2262  0.0165 -0.2786
    1SOL    HW3 5683   3.837   3.591   2.165 -1.5586  0.1709 -0.5217
    1SOL    MW4 5684   3.826   3.614   2.248 -0.3145  0.2191 -0.3698
    1SOL     OW 5685   3.793   3.863   2.363 -0.2416  0.1169  0.4162
    1SOL    HW2 5686   3.805   3.854   2.458  0.1534 -2.0402  0.1919
    1SOL    HW3 5687   3.865   3.919   2.335  0.8370 -0.8741  1.1316
    1SOL    MW4 5688   3.804   3.869   2.372 -0.0470 -0.2983  0.4811
    1SOL     OW 5689   3.571   4.016   2.256 -0.1107 -0.0341 -0.4464
    1SOL    HW2 5690   3.576   4.089   2.317  0.7640 -0.3871 -0.0959
    1SOL    HW3 5691   3.639   3.955   2.284 -0.2439 -0.5805 -1.2723
    1SOL    MW4 5692   3.580   4.017   2.267 -0.0129 -0.1526 -0.5090
    1SOL     OW 5693   3.587   4.261   2.387 -0.4053  0.2626  0.2898
    1SOL    HW2 5694   3.667   4.286   2.340  0.6093 -2.9270  0.1805
    1SOL    HW3 5695   3.518   4.310   2.344  1.0724  0.5944 -1.8225
    1SOL    MW4 5696   3.589   4.270   2.375 -0.0765 -0.1140 -0.0033
    1SOL     OW 5697   3.814   4.376   2.274 -0.5153  0.3108 -0.3358
    1SOL    HW2 5698   3.902   4.345   2.294 -0.8317 -0.0918  0.4574
    1SOL    HW3 5699   3.815   4.469   2.300 -0.6902 -0.0100  0.8478
    1SOL    MW4 5700   3.826   4.385   2.280 -0.5803  0.2155 -0.0751
    1SOL     OW 5701   4.244   4.614   2.364 -0.3813  0.2904  0.1122
    1SOL    HW2 5702   4.245   4.599   2.459  1.5653 -1.8873 -0.2050
    1SOL    HW3 5703   4.316   4.675   2.348 -1.0976  1.1337  0.1083
    1SOL    MW4 5704   4.254   4.620   2.375 -0.2189  0.1144  0.0701
    1SOL     OW 5705   4.054   0.112   2.253 -0.2193 -0.2878  0.2699
    1SOL    HW2 5706   4.042   0.202   2.281  0.7661 -0.1742  0.3420
    1SOL    HW3 5707   4.136   0.085   2.293  1.6333  0.1254 -3.0574
    1SOL    MW4 5708   4.063   0.120   2.262  0.1554 -0.2183 -0.1597
    1SOL     OW 5709   4.009   0.374   2.332  0.2374 -0.2409  0.4432
    1SOL    HW2 5710   4.082   0.435   2.322 -0.2029  0.1825 -0.2193
    1SOL    HW3 5711   3.933   0.421   2.298 -0.1475 -1.0630  0.1495
    1SOL    MW4 5712   4.009   0.388   2.326  0.1283 -0.2935  0.3173
    1SOL     OW 5713   4.238   0.511   2.252 -0.2436  0.0902 -0.1941
    1SOL    HW2 5714   4.246   0.601   2.283 -1.0366 -0.4212  1.5510
    1SOL    HW3 5715   4.300   0.462   2.305  0.1268 -0.4128 -1.0842
    1SOL    MW4 5716   4.247   0.516   2.263 -0.2995 -0.0437 -0.0811
    1SOL     OW 5717   4.265   0.756   2.378 -0.0860  0.0357 -0.3182
    1SOL    HW2 5718   4.191   0.806   2.343 -0.9757 -0.4673  0.8412
    1SOL    HW3 5719   4.342   0.804   2.348 -0.8920  0.9446 -0.9621
    1SOL    MW4 5720   4.265   0.769   2.369 -0.3095  0.0892 -0.2503
    1SOL     OW 5721   4.039   0.894   2.270  0.0156  0.2724 -0.5756
    1SOL    HW2 5722   4.056   0.985   2.294  2.0160 -0.1581 -0.3155
    1SOL    HW3 5723   4.045   0.893   2.174 -0.9456  0.5741 -0.6525
    1SOL    MW4 5724   4.042   0.906   2.260  0.1526  0.2555 -0.5512
    1SOL     OW 5725   4.052   1.167   2.335 -0.5555 -0.5810  0.0603
    1SOL    HW2 5726   4.042   1.149   2.428 -0.1231  0.3216  0.2831
    1SOL    HW3 5727   3.966   1.199   2.308  0.0458  1.6178  0.7146
    1SOL    MW4 5728   4.039   1.169   2.344 -0.4196 -0.1717  0.1757
    1SOL     OW 5729   4.264   1.307   2.239 -0.1117  0.2011 -0.6663
    1SOL    HW2 5730   4.186   1.260   2.269 -0.6530  0.5611 -1.4833
    1SOL    HW3 5731   4.337   1.261   2.280 -0.6371 -1.2680 -1.3557
    1SOL    MW4 5732   4.263   1.295   2.249 -0.2522  0.0547 -0.8650
    1SOL     OW 5733   4.239   1.562   2.362  0.1667  0.4939 -0.3121
    1SOL    HW2 5734   4.238   1.471   2.333 -1.6120  0.0066  1.2078
    1SOL    HW3 5735   4.328   1.592   2.344  0.7107 -1.4763 -1.0107
    1SOL    MW4 5736   4.250   1.554   2.356  0.0043  0.1696 -0.2038
    1SOL     OW 5737   4.028   1.675   2.219 -0.2717 -0.2679 -0.0872
    1SOL    HW2 5738   4.108   1.638   2.257 -0.5508  0.3404  1.1507
    1SOL    HW3 5739   3.957   1.640   2.274 -0.7176  0.3894 -0.2340
    1SOL    MW4 5740   4.029   1.666   2.232 -0.3672 -0.1010  0.0567
    1SOL     OW 5741   4.033   1.915   2.345 -0.5142  0.0501  0.0637
    1SOL    HW2 5742   4.038   1.907   2.441 -4.3273  0.5528  0.3908
    1SOL    HW3 5743   4.027   1.824   2.314 -4.6944 -0.0163  0.7900
    1SOL    MW4 5744   4.033   1.902   2.354 -1.5693  0.1078  0.2027
    1SOL     OW 5745   4.249   2.045   2.240  0.6473 -0.6086 -0.0773
    1SOL    HW2 5746   4.252   2.137   2.268  0.2284 -0.5976 -0.0585
    1SOL    HW3 5747   4.165   2.013   2.274  1.4693 -1.4165  1.1990
    1SOL    MW4 5748   4.238   2.053   2.248  0.7010 -0.7136  0.0937
    1SOL     OW 5749   4.265   2.299   2.361  0.0894 -0.3184  0.5417
    1SOL    HW2 5750   4.195   2.345   2.315  0.0623 -0.1298  0.7691
    1SOL    HW3 5751   4.345   2.345   2.336  0.1947 -0.8471 -0.1188
    1SOL    MW4 5752   4.267   2.311   2.352  0.1001 -0.3633  0.4845
    1SOL     OW 5753   4.055   2.428   2.242 -0.0197  0.2963  0.4330
    1SOL    HW2 5754   4.052   2.520   2.270 -1.0286  0.2297  0.5936
    1SOL    HW3 5755   3.973   2.391   2.275  0.2088 -0.5674  0.0413
    1SOL    MW4 5756   4.043   2.435   2.250 -0.1225  0.1736  0.4025
    1SOL     OW 5757   4.047   2.695   2.315 -0.0384  0.1449  0.0306
    1SOL    HW2 5758   4.038   2.700   2.410 -0.0038 -0.6897  0.0788
    1SOL    HW3 5759   3.976   2.749   2.281  0.8018  1.6111  0.5419
    1SOL    MW4 5760   4.037   2.703   2.323  0.0768  0.2279  0.1044
    1SOL     OW 5761   4.266   2.834   2.245 -0.4147  0.4471 -0.1059
    1SOL    HW2 5762   4.185   2.789   2.267  0.3057 -0.8587 -0.0793
    1SOL    HW3 5763   4.330   2.801   2.308  0.1792  1.3647 -0.2065
    1SOL    MW4 5764   4.264   2.824   2.256 -0.2408  0.3958 -0.1154
    1SOL     OW 5765   4.269   3.082   2.370 -0.0401 -0.2990 -0.3499
    1SOL    HW2 5766   4.281   2.994   2.334  0.6092 -0.8498  1.1639
    1SOL    HW3 5767   4.342   3.133   2.336  0.2992 -0.6930 -0.2165
    1SOL    MW4 5768   4.280   3.077   2.361  0.0906 -0.4237 -0.1323
    1SOL     OW 5769   4.045   3.218   2.273 -0.2804 -0.7776  0.2663
    1SOL    HW2 5770   4.055   3.309   2.301 -0.3058 -1.1994  1.6450
    1SOL    HW3 5771   4.125   3.175   2.302 -0.5566 -1.3480  0.1880
    1SOL    MW4 5772   4.057   3.225   2.280 -0.3204 -0.9084  0.4380
    1SOL     OW 5773   4.048   3.483   2.394 -0.4771  0.3695 -0.6195
    1SOL    HW2 5774   4.120   3.534   2.357 -0.3563 -0.3468 -1.3948
    1SOL    HW3 5775   3.969   3.530   2.366 -0.3310  1.1081  0.1604
    1SOL    MW4 5776   4.047   3.496   2.385 -0.4425  0.3726 -0.6192
    1SOL     OW 5777   4.254   3.612   2.249 -0.6564  0.4621 -0.1659
    1SOL    HW2 5778   4.264   3.702   2.280  0.7354 -0.0433  0.9745
    1SOL    HW3 5779   4.266   3.617   2.155  2.3481  1.1274  0.1843
    1SOL    MW4 5780   4.257   3.625   2.241 -0.0768  0.4830  0.0305
    1SOL     OW 5781   4.265   3.857   2.342  0.6470  0.1417  0.3550
    1SOL    HW2 5782   4.270   3.871   2.436 -0.1597  0.5540  0.3461
    1SOL    HW3 5783   4.331   3.916   2.305  1.3094 -0.3894  0.6905
    1SOL    MW4 5784   4.274   3.866   2.350  0.6285  0.1259  0.3979
    1SOL     OW 5785   4.023   3.993   2.269 -0.2061  0.2808 -0.2334
    1SOL    HW2 5786   4.096   3.940   2.302 -1.7977 -2.2645 -0.6307
    1SOL    HW3 5787   4.040   4.000   2.176 -0.1817  0.1429 -0.2406
    1SOL    MW4 5788   4.035   3.987   2.261 -0.4129 -0.0734 -0.2866
    1SOL     OW 5789   4.033   4.260   2.365  0.0519 -0.1375  0.3501
    1SOL    HW2 5790   4.116   4.291   2.331  0.9857 -2.1213  0.7485
    1SOL    HW3 5791   4.018   4.177   2.320 -2.0080  0.4673 -0.1539
    1SOL    MW4 5792   4.042   4.253   2.355 -0.0963 -0.3190  0.3359
    1SOL     OW 5793   4.270   4.364   2.238 -0.2555 -0.3196 -0.0029
    1SOL    HW2 5794   4.268   4.457   2.262  0.4098 -0.3988  0.3573
    1SOL    HW3 5795   4.343   4.328   2.288 -0.3268 -0.9766 -0.3728
    1SOL    MW4 5796   4.279   4.372   2.248 -0.1769 -0.4172 -0.0043
    1SOL     OW 5797   0.226   4.651   2.657 -0.6056  0.7882 -0.1130
    1SOL    HW2 5798   0.217   4.577   2.718 -0.0291  0.1646 -0.7784
    1SOL    HW3 5799   0.142   4.698   2.664 -1.3262 -0.4369 -0.3576
    1SOL    MW4 5800   0.213   4.647   2.666 -0.6246  0.5445 -0.2329
    1SOL     OW 5801   4.458   0.097   2.709  0.0304 -0.0164  0.3046
    1SOL    HW2 5802   4.454   0.113   2.803  1.4484 -0.4795  0.4506
    1SOL    HW3 5803   4.452   0.185   2.670 -1.9117  0.0691  0.7649
    1SOL    MW4 5804   4.457   0.111   2.716 -0.0388 -0.0662  0.3846
    1SOL     OW 5805   4.454   0.375   2.639 -0.2080 -0.0424  0.0405
    1SOL    HW2 5806   4.544   0.405   2.655  0.1951 -0.7116 -0.8624
    1SOL    HW3 5807   4.448   0.368   2.544 -0.5410 -1.9704  0.1772
    1SOL    MW4 5808   4.465   0.378   2.628 -0.1993 -0.3851 -0.0606
    1SOL     OW 5809   0.225   0.467   2.708 -0.2855  0.1955 -0.2493
    1SOL    HW2 5810   0.209   0.446   2.799 -0.9535  1.3973 -0.0789
    1SOL    HW3 5811   0.309   0.426   2.688 -0.3719 -0.4815  0.7541
    1SOL    MW4 5812   0.234   0.459   2.717 -0.3851  0.2648 -0.0944
    1SOL     OW 5813   0.177   0.724   2.580 -0.4458 -0.4421 -0.4242
    1SOL    HW2 5814   0.260   0.768   2.601 -0.3674 -0.7812 -0.0050
    1SOL    HW3 5815   0.190   0.634   2.612 -1.5381 -0.0946  1.0612
    1SOL    MW4 5816   0.190   0.718   2.587 -0.5795 -0.4410 -0.1729
    1SOL     OW 5817   0.003   0.861   2.756  0.0886  0.4804 -0.3089
    1SOL    HW2 5818  -0.082   0.825   2.731  0.1565  0.6261 -0.7452
    1SOL    HW3 5819   0.066   0.812   2.703  0.2723  0.4389 -0.0555
    1SOL    MW4 5820   0.000   0.850   2.746  0.1217  0.4942 -0.3333
    1SOL     OW 5821   0.020   1.120   2.627 -0.2142 -0.2483  0.2864
    1SOL    HW2 5822   0.088   1.169   2.672 -0.8367  0.5468  0.3577
    1SOL    HW3 5823   0.020   1.034   2.670  1.0268 -0.4007  0.0006
    1SOL    MW4 5824   0.029   1.115   2.638 -0.1326 -0.1637  0.2580
    1SOL     OW 5825   0.216   1.266   2.760 -0.2107 -0.2630 -0.2826
    1SOL    HW2 5826   0.288   1.210   2.732  0.2333 -0.0651  0.4486
    1SOL    HW3 5827   0.226   1.346   2.708  0.2525 -0.1367 -0.0053
    1SOL    MW4 5828   0.227   1.269   2.749 -0.0910 -0.2202 -0.1495
    1SOL     OW 5829   0.237   1.514   2.614  0.0937 -0.0830 -0.0138
    1SOL    HW2 5830   0.313   1.562   2.648  0.5699 -1.3080  0.6870
    1SOL    HW3 5831   0.162   1.570   2.635  0.6679  0.4944  0.5148
    1SOL    MW4 5832   0.237   1.528   2.621  0.2323 -0.1684  0.1481
    1SOL     OW 5833   0.021   1.659   2.718 -0.4639  0.2662 -0.1134
    1SOL    HW2 5834   0.023   1.659   2.813 -1.7876  0.3198 -0.0766
    1SOL    HW3 5835   0.012   1.751   2.694  0.7098  0.3283 -0.3129
    1SOL    MW4 5836   0.020   1.671   2.727 -0.4837  0.2815 -0.1349
    1SOL     OW 5837   4.479   1.917   2.640 -0.3873 -0.4200 -0.0012
    1SOL    HW2 5838   4.552   1.967   2.678 -0.1569 -0.1043 -0.8560
    1SOL    HW3 5839   4.490   1.926   2.546 -0.4215 -1.9870 -0.1710
    1SOL    MW4 5840   4.490   1.925   2.633 -0.3614 -0.5852 -0.1364
    1SOL     OW 5841   0.220   2.034   2.726 -0.1386 -0.2540 -0.1797
    1SOL    HW2 5842   0.297   1.994   2.684  1.1221  1.0547  0.8227
    1SOL    HW3 5843   0.231   2.128   2.710 -1.0892  0.0118  0.7125
    1SOL    MW4 5844   0.232   2.041   2.718 -0.0977 -0.0463  0.0703
    1SOL     OW 5845   0.231   2.287   2.645 -0.6784 -0.4515  0.3192
    1SOL    HW2 5846   0.310   2.326   2.684 -0.0367 -1.6972  0.2906
    1SOL    HW3 5847   0.165   2.355   2.652  0.2336  0.3834  0.9357
    1SOL    MW4 5848   0.233   2.301   2.651 -0.4734 -0.5059  0.3967
    1SOL     OW 5849   0.014   2.453   2.698  0.3062 -0.2403  0.1826
    1SOL    HW2 5850   0.015   2.456   2.794  0.5815  1.0499  0.1430
    1SOL    HW3 5851  -0.064   2.401   2.677  1.3056 -2.1617  1.1344
    1SOL    MW4 5852   0.004   2.447   2.708  0.4749 -0.3235  0.3030
    1SOL     OW 5853   4.490   2.729   2.672  0.0189 -0.4646 -0.2519
    1SOL    HW2 5854   4.399   2.750   2.692  0.1620  0.1553 -0.2375
    1SOL    HW3 5855   4.493   2.634   2.670 -0.1112 -0.5535  2.2000
    1SOL    MW4 5856   4.478   2.719   2.675  0.0205 -0.3946  0.0734
    1SOL     OW 5857   0.210   2.862   2.787 -0.1659  0.1111 -0.1728
    1SOL    HW2 5858   0.216   2.953   2.758  0.1575  0.7504  1.8079
    1SOL    HW3 5859   0.132   2.828   2.743 -0.7168  1.5673 -0.3645
    1SOL    MW4 5860   0.200   2.870   2.778 -0.1959  0.3879  0.0632
    1SOL     OW 5861   0.212   3.113   2.660  0.1436  0.6028 -0.1532
    1SOL    HW2 5862   0.294   3.156   2.685  0.3730  0.2211 -0.2418
    1SOL    HW3 5863   0.204   3.128   2.566 -0.0751  0.9533 -0.0796
    1SOL    MW4 5864   0.222   3.121   2.651  0.1450  0.5989 -0.1554
    1SOL     OW 5865   4.475   3.220   2.770  0.2039  0.2572 -0.3045
    1SOL    HW2 5866   4.406   3.169   2.728  0.6997 -0.5543 -0.1570
    1SOL    HW3 5867   4.557   3.182   2.737  0.5914  0.2963  0.5685
    1SOL    MW4 5868   4.477   3.208   2.760  0.3204  0.1552 -0.1700
    1SOL     OW 5869   4.475   3.474   2.639 -0.1152  0.0130 -0.2464
    1SOL    HW2 5870   4.551   3.522   2.674  1.0691 -0.3062 -2.3216
    1SOL    HW3 5871   4.476   3.391   2.687  0.9435 -0.0410 -0.3490
    1SOL    MW4 5872   4.485   3.469   2.650  0.1807 -0.0365 -0.5336
    1SOL     OW 5873   0.206   3.615   2.754  0.3599  0.3319 -0.1246
    1SOL    HW2 5874   0.203   3.608   2.849 -0.3597 -1.1298 -0.2454
    1SOL    HW3 5875   0.280   3.559   2.728  1.0679  1.3713 -0.3706
    1SOL    MW4 5876   0.216   3.607   2.763  0.3583  0.2761 -0.1731
    1SOL     OW 5877   0.212   3.872   2.643 -0.6956 -0.3695 -0.1379
    1SOL    HW2 5878   0.197   3.783   2.673 -0.6248 -0.1196  0.6531
    1SOL    HW3 5879   0.211   3.866   2.547 -1.2446 -1.1246 -0.0904
    1SOL    MW4 5880   0.210   3.860   2.634 -0.7587 -0.4363 -0.0272
    1SOL     OW 5881   4.477   3.998   2.747  0.1631  0.5736 -0.2941
    1SOL    HW2 5882   4.499   4.089   2.726 -1.2627  0.6925 -1.3332
    1SOL    HW3 5883   4.557   3.949   2.726  1.1033  1.6305  0.7283
    1SOL    MW4 5884   4.491   4.004   2.741  0.0987  0.7291 -0.2964
    1SOL     OW 5885   0.019   4.269   2.661 -0.0105 -0.1952  0.1638
    1SOL    HW2 5886  -0.063   4.305   2.694 -0.0119 -0.6601  0.6757
    1SOL    HW3 5887   0.087   4.323   2.702 -0.0244 -0.5326  0.6334
    1SOL    MW4 5888   0.017   4.281   2.671 -0.0129 -0.3009  0.2930
    1SOL     OW 5889   0.223   4.413   2.784  0.0228  0.3007 -0.1834
    1SOL    HW2 5890   0.236   4.381   2.874 -1.0725 -0.1413 -0.1859
    1SOL    HW3 5891   0.302   4.385   2.738  0.8277  0.9735  0.7664
    1SOL    MW4 5892   0.235   4.405   2.790 -0.0155  0.3309 -0.0587
    1SOL     OW 5893   0.705   4.646   2.640  0.0727  0.1437 -0.1268
    1SOL    HW2 5894   0.769   4.701   2.683  1.2545 -1.6440  0.4579
    1SOL    HW3 5895   0.620   4.674   2.675  0.7616  0.7503  1.0480
    1SOL    MW4 5896   0.702   4.657   2.650  0.3195 -0.0129  0.1054
    1SOL     OW 5897   0.471   0.067   2.732 -0.0187 -0.1058  0.2995
    1SOL    HW2 5898   0.457   0.100   2.821  1.5242 -0.1931  0.5866
    1SOL    HW3 5899   0.386   0.033   2.705 -0.5454  0.1114  1.6664
    1SOL    MW4 5900   0.458   0.067   2.740  0.1153 -0.0886  0.5176
    1SOL     OW 5901   0.467   0.331   2.640  0.1004 -0.2574  0.3417
    1SOL    HW2 5902   0.535   0.381   2.686  0.1761  0.2330 -0.2887
    1SOL    HW3 5903   0.470   0.244   2.680  1.5325 -0.4287 -0.1068
    1SOL    MW4 5904   0.476   0.326   2.652  0.2994 -0.2153  0.1993
    1SOL     OW 5905   0.676   0.507   2.757  0.3713 -0.2954  0.2736
    1SOL    HW2 5906   0.666   0.513   2.852  1.2068  0.6320  0.3062
    1SOL    HW3 5907   0.764   0.472   2.743  0.2422 -0.4554 -0.1636
    1SOL    MW4 5908   0.686   0.503   2.768  0.4645 -0.1941  0.2203
    1SOL     OW 5909   0.675   0.731   2.607  0.3713  0.2103 -0.2569
    1SOL    HW2 5910   0.724   0.803   2.647  0.4454  0.5749 -0.9924
    1SOL    HW3 5911   0.691   0.656   2.664  0.6644  0.6652  0.2622
    1SOL    MW4 5912   0.683   0.730   2.620  0.4197  0.3184 -0.2854
    1SOL     OW 5913   0.419   0.815   2.689  0.0389 -0.6219  0.5751
    1SOL    HW2 5914   0.425   0.830   2.784 -1.3036 -0.1322  0.5824
    1SOL    HW3 5915   0.508   0.788   2.664  1.0570  1.6815  1.5502
    1SOL    MW4 5916   0.432   0.814   2.699 -0.0039 -0.2535  0.7045
    1SOL     OW 5917   0.411   1.108   2.636  0.8555 -0.2276 -0.3517
    1SOL    HW2 5918   0.494   1.142   2.667  0.2632  0.9148  0.0189
    1SOL    HW3 5919   0.420   1.013   2.641  2.2987 -0.1217 -0.7698
    1SOL    MW4 5920   0.423   1.100   2.641  0.9678 -0.0629 -0.3581
    1SOL     OW 5921   0.653   1.231   2.696  0.3498 -0.3445 -0.1251
    1SOL    HW2 5922   0.654   1.243   2.790 -0.6641  1.8398 -0.3710
    1SOL    HW3 5923   0.742   1.205   2.674  1.0942  1.0277  1.2042
    1SOL    MW4 5924   0.665   1.229   2.705  0.3142  0.1247  0.0179
    1SOL     OW 5925   0.679   1.509   2.654  0.0672  0.1594  0.0235
    1SOL    HW2 5926   0.598   1.551   2.683 -1.2057 -1.6596 -0.7345
    1SOL    HW3 5927   0.655   1.416   2.645  1.9234 -0.2119 -1.3510
    1SOL    MW4 5928   0.665   1.502   2.657  0.1441 -0.1296 -0.2580
    1SOL     OW 5929   0.451   1.644   2.717  0.7228 -0.1479  0.2460
    1SOL    HW2 5930   0.456   1.643   2.812  1.4827  0.5879  0.2189
    1SOL    HW3 5931   0.442   1.736   2.694  3.1557 -0.0692 -0.5065
    1SOL    MW4 5932   0.450   1.656   2.726  1.1441 -0.0405  0.1428
    1SOL     OW 5933   0.441   1.913   2.629 -0.1574 -0.2599  0.3035
    1SOL    HW2 5934   0.516   1.965   2.661  1.7340 -1.5688 -1.8577
    1SOL    HW3 5935   0.439   1.929   2.535 -2.3851 -0.5613  0.2864
    1SOL    MW4 5936   0.451   1.922   2.621 -0.2017 -0.4723  0.0160
    1SOL     OW 5937   0.671   2.051   2.716  0.3396 -0.4551  0.0499
    1SOL    HW2 5938   0.692   2.050   2.809  0.2081 -0.4638  0.0798
    1SOL    HW3 5939   0.730   1.988   2.677 -0.2993 -1.2018  0.2775
    1SOL    MW4 5940   0.681   2.043   2.723  0.2379 -0.5550  0.0839
    1SOL     OW 5941   0.659   2.323   2.620  0.4315  0.0159 -0.3573
    1SOL    HW2 5942   0.741   2.359   2.654  0.6367 -1.7924  1.1264
    1SOL    HW3 5943   0.654   2.235   2.657 -2.6222  0.4068  0.3142
    1SOL    MW4 5944   0.669   2.316   2.629  0.0557 -0.1709 -0.0730
    1SOL     OW 5945   0.454   2.451   2.755  0.4290 -0.0936 -0.4179
    1SOL    HW2 5946   0.441   2.545   2.743  0.8233  0.0225  0.0358
    1SOL    HW3 5947   0.515   2.427   2.686 -0.8241 -0.3059 -1.4606
    1SOL    MW4 5948   0.460   2.461   2.745  0.3157 -0.1063 -0.4954
    1SOL     OW 5949   0.389   2.698   2.648  0.2817  0.4395  0.2247
    1SOL    HW2 5950   0.473   2.742   2.664  0.8994 -0.2390 -1.0520
    1SOL    HW3 5951   0.325   2.752   2.693  1.1485  2.1106 -0.4916
    1SOL    MW4 5952   0.392   2.711   2.656  0.4776  0.5705 -0.0381
    1SOL     OW 5953   0.635   2.820   2.721  0.4136  0.1770  0.0074
    1SOL    HW2 5954   0.647   2.814   2.816  2.4905 -0.7355 -0.2877
    1SOL    HW3 5955   0.647   2.913   2.701  0.5673  0.2774  0.5634
    1SOL    MW4 5956   0.638   2.832   2.731  0.7078  0.0699  0.0417
    1SOL     OW 5957   0.683   3.102   2.681 -0.3662  0.0351 -0.3447
    1SOL    HW2 5958   0.765   3.123   2.727 -0.3139 -0.5924 -0.1444
    1SOL    HW3 5959   0.697   3.133   2.592  0.5308 -1.0790 -0.6104
    1SOL    MW4 5960   0.696   3.109   2.676 -0.2409 -0.1948 -0.3531
    1SOL     OW 5961   0.455   3.229   2.744  0.2127 -0.0539 -0.6150
    1SOL    HW2 5962   0.431   3.226   2.836  0.2513 -0.8424 -0.6274
    1SOL    HW3 5963   0.536   3.180   2.738 -0.8905 -1.8377 -1.3950
    1SOL    MW4 5964   0.462   3.222   2.755  0.0722 -0.3932 -0.7198
    1SOL     OW 5965   0.429   3.476   2.632 -0.2961 -0.5832  0.2219
    1SOL    HW2 5966   0.433   3.386   2.665  0.2756 -1.1767 -1.4396
    1SOL    HW3 5967   0.427   3.467   2.537  0.8353  1.1961  0.0106
    1SOL    MW4 5968   0.429   3.463   2.624 -0.0714 -0.4265 -0.0253
    1SOL     OW 5969   0.650   3.613   2.760  0.1603 -0.1184  0.4351
    1SOL    HW2 5970   0.649   3.605   2.855 -0.8759 -2.0517  0.2879
    1SOL    HW3 5971   0.572   3.565   2.731  0.7766 -0.0456 -1.4224
    1SOL    MW4 5972   0.640   3.606   2.769  0.1050 -0.3638  0.1707
    1SOL     OW 5973   0.659   3.882   2.675  0.0685  0.1451  0.2174
    1SOL    HW2 5974   0.585   3.932   2.709  1.3016  1.5252  0.9280
    1SOL    HW3 5975   0.650   3.795   2.715 -1.8791 -0.1246 -0.7348
    1SOL    MW4 5976   0.648   3.877   2.685 -0.0257  0.2913  0.1855
    1SOL     OW 5977   0.424   4.025   2.743  0.2976  0.2876 -0.4844
    1SOL    HW2 5978   0.435   4.113   2.709 -0.9813  1.0258  0.9540
    1SOL    HW3 5979   0.345   3.992   2.699 -0.1302  0.4576  0.1430
    1SOL    MW4 5980   0.415   4.032   2.732  0.0724  0.4077 -0.2120
    1SOL     OW 5981   0.451   4.281   2.666  0.0429 -0.4055  0.0266
    1SOL    HW2 5982   0.529   4.331   2.690  1.1561 -2.5732  0.9697
    1SOL    HW3 5983   0.445   4.291   2.571 -0.0281  1.8802  0.2285
    1SOL    MW4 5984   0.461   4.289   2.656  0.1805 -0.3901  0.1776
    1SOL     OW 5985   0.673   4.407   2.779 -0.0753  0.2397 -0.2885
    1SOL    HW2 5986   0.752   4.370   2.740  0.3648  1.3394 -0.4771
    1SOL    HW3 5987   0.664   4.493   2.737  0.1873  1.2897  1.7398
    1SOL    MW4 5988   0.682   4.414   2.768  0.0175  0.5236 -0.0458
    1SOL     OW 5989   1.114   4.617   2.672  0.3861 -0.1549  0.0875
    1SOL    HW2 5990   1.198   4.658   2.695  0.7891 -0.0042 -1.5810
    1SOL    HW3 5991   1.120   4.529   2.710  0.8705  0.1953  0.8586
    1SOL    MW4 5992   1.126   4.611   2.680  0.5033 -0.0892 -0.0308
    1SOL     OW 5993   0.920   0.141   2.739  0.1841 -0.0443  0.0435
    1SOL    HW2 5994   0.896   0.122   2.830  0.1519 -0.6629 -0.0859
    1SOL    HW3 5995   0.993   0.082   2.721 -1.1423 -1.4358 -0.9696
    1SOL    MW4 5996   0.926   0.130   2.748  0.0048 -0.3095 -0.1070
    1SOL     OW 5997   0.899   0.404   2.647  0.3496  0.1241 -0.0054
    1SOL    HW2 5998   0.906   0.310   2.661 -0.1040  0.0162 -0.5044
    1SOL    HW3 5999   0.898   0.415   2.552  2.3805  0.7867  0.0411
    1SOL    MW4 6000   0.899   0.393   2.636  0.5578  0.1973 -0.0653
    1SOL     OW 6001   1.143   0.520   2.724  0.1175 -0.1203  0.4363
    1SOL    HW2 6002   1.124   0.613   2.715 -0.5115 -0.3784 -1.0595
    1SOL    HW3 6003   1.061   0.476   2.701 -0.0436 -1.0206  2.5807
    1SOL    MW4 6004   1.130   0.526   2.720  0.0132 -0.2732  0.5221
    1SOL     OW 6005   1.086   0.788   2.653  0.1430 -0.1454  0.2328
    1SOL    HW2 6006   1.170   0.825   2.681  1.5992 -3.3387  0.3187
    1SOL    HW3 6007   1.088   0.796   2.557 -0.3286  1.4836  0.3376
    1SOL    MW4 6008   1.098   0.794   2.644  0.2729 -0.3518  0.2580
    1SOL     OW 6009   0.841   0.915   2.714  0.0598 -0.2569 -0.1018
    1SOL    HW2 6010   0.834   0.921   2.809 -0.7213 -0.3249 -0.1551
    1SOL    HW3 6011   0.920   0.864   2.699  0.0015 -0.5260  0.5145
    1SOL    MW4 6012   0.851   0.909   2.725 -0.0510 -0.3014 -0.0277
    1SOL     OW 6013   0.904   1.171   2.621  0.4112 -0.1791 -0.2824
    1SOL    HW2 6014   0.884   1.081   2.646  1.6676 -0.4198 -0.1284
    1SOL    HW3 6015   0.915   1.168   2.526 -1.0821  0.1138 -0.4775
    1SOL    MW4 6016   0.903   1.159   2.612  0.3800 -0.1723 -0.2878
    1SOL     OW 6017   1.131   1.275   2.749 -0.3105 -0.3700  0.3025
    1SOL    HW2 6018   1.150   1.364   2.720  0.2723 -0.0588  1.5996
    1SOL    HW3 6019   1.051   1.251   2.702 -0.2013  0.6454 -0.4300
    1SOL    MW4 6020   1.123   1.283   2.739 -0.2191 -0.1950  0.3772
    1SOL     OW 6021   1.146   1.541   2.661 -0.4662 -0.3205  0.1324
    1SOL    HW2 6022   1.067   1.572   2.705  0.0894  1.5268 -0.1243
    1SOL    HW3 6023   1.132   1.559   2.568  0.0890 -0.3399  0.0387
    1SOL    MW4 6024   1.134   1.547   2.655 -0.3196 -0.0794  0.0861
    1SOL     OW 6025   0.907   1.633   2.765  0.0306  0.5836 -0.3418
    1SOL    HW2 6026   0.908   1.642   2.860  0.8410  1.1477 -0.3967
    1SOL    HW3 6027   0.820   1.600   2.745 -0.3152  0.9365  0.5531
    1SOL    MW4 6028   0.896   1.630   2.775  0.0919  0.7046 -0.2310
    1SOL     OW 6029   0.897   1.887   2.641 -0.5175 -0.2724  0.1912
    1SOL    HW2 6030   0.969   1.915   2.697 -1.0170  1.3972  0.0240
    1SOL    HW3 6031   0.882   1.796   2.665  0.9009 -0.2995  1.0177
    1SOL    MW4 6032   0.904   1.879   2.651 -0.3962 -0.0556  0.2782
    1SOL     OW 6033   1.112   2.030   2.773 -0.0883 -0.4143 -0.4996
    1SOL    HW2 6034   1.185   1.991   2.725 -1.1409 -0.6327 -1.9548
    1SOL    HW3 6035   1.098   2.115   2.731 -1.0224 -0.6095 -0.5844
    1SOL    MW4 6036   1.120   2.036   2.762 -0.3505 -0.4687 -0.7029
    1SOL     OW 6037   1.078   2.283   2.648 -0.2526  0.2170 -0.4408
    1SOL    HW2 6038   1.149   2.339   2.680 -0.6002  0.9290 -0.9044
    1SOL    HW3 6039   1.087   2.285   2.553 -1.7260  1.4070 -0.5554
    1SOL    MW4 6040   1.089   2.290   2.640 -0.4929  0.4680 -0.5174
    1SOL     OW 6041   0.868   2.394   2.793 -0.0079  0.3678 -0.1448
    1SOL    HW2 6042   0.871   2.486   2.768 -0.0531  0.7726  1.2520
    1SOL    HW3 6043   0.938   2.352   2.743 -0.4112  1.0297 -1.2805
    1SOL    MW4 6044   0.877   2.401   2.783 -0.0671  0.5085 -0.1104
    1SOL     OW 6045   0.862   2.666   2.683 -0.0735  0.3152 -0.4800
    1SOL    HW2 6046   0.930   2.723   2.718 -0.8078 -0.7438  2.8794
    1SOL    HW3 6047   0.780   2.708   2.707 -0.6192 -1.7101  1.4111
    1SOL    MW4 6048   0.860   2.679   2.691 -0.2425 -0.0918  0.2129
    1SOL     OW 6049   1.083   2.832   2.755  0.0000  0.0000  0.4547
    1SOL    HW2 6050   1.106   2.825   2.848  0.0000  0.0000  0.4541
    1SOL    HW3 6051   1.159   2.795   2.709  0.0000  0.0000  0.4516
    1SOL    MW4 6052   1.096   2.826   2.761  0.0000  0.0000  0.4544
    1SOL     OW 6053   1.148   3.096   2.668  0.0000  0.0000  0.2585
    1SOL    HW2 6054   1.122   3.007   2.691  0.0000  0.0000  0.2548
    1SOL    HW3 6055   1.136   3.101   2.573  0.0000  0.0000  0.2589
    1SOL    MW4 6056   1.143   3.085   2.659  0.0000  0.0000  0.2582
    1SOL     OW 6057   0.919   3.208   2.787  0.0000  0.0000 -0.0546
    1SOL    HW2 6058   0.903   3.287   2.734  0.0000  0.0000 -0.0599
    1SOL    HW3 6059   1.006   3.179   2.759  0.0000  0.0000 -0.0650
    1SOL    MW4 6060   0.928   3.215   2.776  0.0000  0.0000 -0.0567
    1SOL     OW 6061   0.887   3.462   2.664  0.0000  0.0000  0.0479
    1SOL    HW2 6062   0.961   3.508   2.705  0.0000  0.0000  0.0322
    1SOL    HW3 6063   0.810   3.511   2.693  0.0000  0.0000  0.0737
    1SOL    MW4 6064   0.887   3.475   2.673  0.0000  0.0000  0.0491
    1SOL     OW 6065   1.102   3.599   2.775  0.0000  0.0000  0.3274
    1SOL    HW2 6066   1.101   3.626   2.866  0.0000  0.0000  0.3277
    1SOL    HW3 6067   1.100   3.681   2.725  0.0000  0.0000  0.3280
    1SOL    MW4 6068   1.102   3.613   2.780  0.0000  0.0000  0.3278
    1SOL     OW 6069   1.098   3.851   2.647  0.0000  0.0000 -0.1117
    1SOL    HW2 6070   1.178   3.889   2.685  0.0000  0.0000 -0.1128
    1SOL    HW3 6071   1.110   3.859   2.553  0.0000  0.0000 -0.1122
    1SOL    MW4 6072   1.110   3.857   2.640  0.0000  0.0000 -0.1118
    1SOL     OW 6073   0.893   4.008   2.759  0.0000  0.0000 -0.1567
    1SOL    HW2 6074   0.957   3.963   2.704  0.0000  0.0000 -0.1417
    1SOL    HW3 6075   0.809   3.969   2.732  0.0000  0.0000 -0.1684
    1SOL    MW4 6076   0.890   3.997   2.748  0.0000  0.0000 -0.1564
    1SOL     OW 6077   0.888   4.266   2.676  0.0000  0.0000 -0.1035
    1SOL    HW2 6078   0.892   4.173   2.700  0.0000  0.0000 -0.0979
    1SOL    HW3 6079   0.884   4.265   2.580  0.0000  0.0000 -0.1035
    1SOL    MW4 6080   0.888   4.254   2.666  0.0000  0.0000 -0.1028
    1SOL     OW 6081   1.144   4.351   2.733  0.0000  0.0000 -0.1697
    1SOL    HW2 6082   1.137   4.378   2.824  0.0000  0.0000 -0.1697
    1SOL    HW3 6083   1.055   4.327   2.708  0.0000  0.0000 -0.1730
    1SOL    MW4 6084   1.131   4.351   2.742  0.0000  0.0000 -0.1700
    1SOL     OW 6085   1.568   4.665   2.657 -0.0822  0.2915  0.0423
    1SOL    HW2 6086   1.569   4.579   2.698  0.1452  0.6029  0.7004
    1SOL    HW3 6087   1.579   4.648   2.563  1.3790 -0.3088  0.3161
    1SOL    MW4 6088   1.570   4.652   2.650  0.1405  0.2532  0.1652
    1SOL     OW 6089   1.353   0.097   2.779 -0.2480  0.0356  0.2969
    1SOL    HW2 6090   1.347   0.178   2.729 -2.4241 -0.1015  0.2843
    1SOL    HW3 6091   1.428   0.051   2.740  0.3814  1.5718 -0.3627
    1SOL    MW4 6092   1.362   0.101   2.767 -0.4522  0.2202  0.2081
    1SOL     OW 6093   1.334   0.340   2.640 -0.3795  0.3405 -0.2039
    1SOL    HW2 6094   1.412   0.384   2.673 -0.2512 -0.1841  0.2031
    1SOL    HW3 6095   1.261   0.394   2.670 -0.2236  0.2747  0.2956
    1SOL    MW4 6096   1.335   0.353   2.649 -0.3420  0.2626 -0.0844
    1SOL     OW 6097   1.566   0.473   2.749 -0.1066 -0.2508 -0.1191
    1SOL    HW2 6098   1.641   0.439   2.701 -0.4742 -1.7034  0.3201
    1SOL    HW3 6099   1.560   0.565   2.722  0.7716 -0.5804 -1.4727
    1SOL    MW4 6100   1.575   0.481   2.739 -0.0393 -0.4859 -0.2396
    1SOL     OW 6101   1.547   0.719   2.652 -0.1493 -0.2042  0.2300
    1SOL    HW2 6102   1.479   0.770   2.696  0.2644 -0.3435  1.0479
    1SOL    HW3 6103   1.536   0.738   2.559 -0.3118  0.9866  0.4926
    1SOL    MW4 6104   1.537   0.728   2.646 -0.1161 -0.0655  0.3724
    1SOL     OW 6105   1.337   0.867   2.758 -0.2677  0.1057 -0.0548
    1SOL    HW2 6106   1.319   0.871   2.852 -1.0678  2.0283 -0.2864
    1SOL    HW3 6107   1.340   0.958   2.729  0.0739 -0.4562 -1.8878
    1SOL    MW4 6108   1.335   0.879   2.766 -0.3283  0.2851 -0.3273
    1SOL     OW 6109   1.329   1.114   2.655 -0.5762 -0.1520 -0.2312
    1SOL    HW2 6110   1.396   1.181   2.668 -0.3501 -0.2368 -0.9326
    1SOL    HW3 6111   1.250   1.152   2.693  0.0285 -0.3626  1.2675
    1SOL    MW4 6112   1.327   1.128   2.661 -0.4667 -0.1909 -0.1259
    1SOL     OW 6113   1.548   1.279   2.727  0.2384  0.4250 -0.2561
    1SOL    HW2 6114   1.550   1.286   2.823  0.5341 -2.1890 -0.0509
    1SOL    HW3 6115   1.636   1.248   2.703 -0.6653 -1.4908 -1.1432
    1SOL    MW4 6116   1.560   1.276   2.737  0.1582 -0.1726 -0.3459
    1SOL     OW 6117   1.585   1.539   2.642  0.9073  0.1992  0.2865
    1SOL    HW2 6118   1.572   1.444   2.651 -0.0214  0.3620  0.6893
    1SOL    HW3 6119   1.592   1.553   2.548  0.5309 -0.2127  0.1932
    1SOL    MW4 6120   1.584   1.528   2.631  0.7352  0.1664  0.3273
    1SOL     OW 6121   1.380   1.668   2.782  0.2876 -0.0818  0.3492
    1SOL    HW2 6122   1.449   1.618   2.739 -0.0352 -0.4911  0.3008
    1SOL    HW3 6123   1.299   1.628   2.751 -0.0163  1.2510 -0.6500
    1SOL    MW4 6124   1.378   1.656   2.772  0.2048  0.0401  0.2110
    1SOL     OW 6125   1.315   1.913   2.641  0.3189  0.1937  0.0928
    1SOL    HW2 6126   1.335   1.837   2.697  0.9505  0.6398  0.4879
    1SOL    HW3 6127   1.317   1.879   2.552 -1.3337 -0.6624  0.3722
    1SOL    MW4 6128   1.318   1.899   2.637  0.1842  0.1397  0.1817
    1SOL     OW 6129   1.544   2.078   2.712  0.7461 -0.0666 -0.1238
    1SOL    HW2 6130   1.629   2.048   2.680  0.1930  1.4532 -3.1097
    1SOL    HW3 6131   1.481   2.023   2.667  0.0015  1.0486 -0.4406
    1SOL    MW4 6132   1.547   2.067   2.702  0.5748  0.2813 -0.5596
    1SOL     OW 6133   1.497   2.321   2.645 -0.2356  0.2654 -0.4360
    1SOL    HW2 6134   1.564   2.376   2.686 -0.0187 -0.6660  0.4924
    1SOL    HW3 6135   1.515   2.233   2.679 -1.1207 -0.2169 -1.2119
    1SOL    MW4 6136   1.508   2.316   2.655 -0.3238  0.0787 -0.4160
    1SOL     OW 6137   1.280   2.444   2.754 -0.0683  0.1458  0.6372
    1SOL    HW2 6138   1.275   2.530   2.712 -0.3071 -0.0553  0.2403
    1SOL    HW3 6139   1.350   2.398   2.708  1.9894  1.1176  2.7389
    1SOL    MW4 6140   1.288   2.449   2.742  0.1715  0.2470  0.8619
    1SOL     OW 6141   1.291   2.696   2.638 -0.0627 -0.0515  0.5958
    1SOL    HW2 6142   1.364   2.753   2.662  0.0830  0.0984 -0.2020
    1SOL    HW3 6143   1.298   2.685   2.544 -0.3917 -0.9870  0.6703
    1SOL    MW4 6144   1.302   2.702   2.629 -0.0869 -0.1550  0.5004
    1SOL     OW 6145   1.500   2.829   2.748  0.6892  0.4577  0.2436
    1SOL    HW2 6146   1.508   2.825   2.843  0.6744 -0.0004  0.2254
    1SOL    HW3 6147   1.578   2.785   2.714 -0.0232 -0.6728  0.0550
    1SOL    MW4 6148   1.511   2.823   2.756  0.5933  0.2482  0.2162
    1SOL     OW 6149   1.557   3.081   2.629  0.3892  0.4149 -0.2192
    1SOL    HW2 6150   1.629   3.109   2.685  1.1526 -0.5580 -0.7033
    1SOL    HW3 6151   1.536   2.992   2.658 -0.3279  0.5219 -0.3792
    1SOL    MW4 6152   1.563   3.073   2.640  0.3954  0.3009 -0.3040
    1SOL     OW 6153   1.363   3.235   2.780  0.1093  0.2427 -0.0112
    1SOL    HW2 6154   1.436   3.195   2.733 -0.5476  0.3288 -1.1005
    1SOL    HW3 6155   1.285   3.192   2.745 -0.3303 -0.4646  1.7401
    1SOL    MW4 6156   1.362   3.224   2.769 -0.0353  0.1609  0.0765
    1SOL     OW 6157   1.346   3.492   2.693  0.4939 -0.0529 -0.0400
    1SOL    HW2 6158   1.324   3.406   2.730 -0.6099  0.0061 -0.5669
    1SOL    HW3 6159   1.267   3.545   2.706  0.9452  0.6900 -0.3121
    1SOL    MW4 6160   1.333   3.488   2.700  0.4077  0.0529 -0.1452
    1SOL     OW 6161   1.577   3.632   2.786 -0.0360  0.3294  0.1900
    1SOL    HW2 6162   1.653   3.583   2.754  0.1664  0.5568  0.3170
    1SOL    HW3 6163   1.502   3.589   2.746  0.0353 -0.9115  1.3170
    1SOL    MW4 6164   1.577   3.620   2.777  0.0000  0.1957  0.3555
    1SOL     OW 6165   1.574   3.880   2.652  0.0410  0.1406 -0.1439
    1SOL    HW2 6166   1.498   3.921   2.692 -0.2700 -0.2656 -0.3139
    1SOL    HW3 6167   1.574   3.791   2.687 -0.8980 -0.5801 -1.9272
    1SOL    MW4 6168   1.564   3.873   2.662 -0.1239 -0.0079 -0.4017
    1SOL     OW 6169   1.324   3.989   2.741  0.1397  0.0965 -0.1698
    1SOL    HW2 6170   1.303   4.002   2.834  0.6122 -0.4174  0.0112
    1SOL    HW3 6171   1.358   4.073   2.713  0.8331  0.0001  0.3579
    1SOL    MW4 6172   1.326   4.002   2.750  0.2935  0.0157 -0.0763
    1SOL     OW 6173   1.393   4.244   2.651 -0.0280  0.3573  0.0237
    1SOL    HW2 6174   1.311   4.282   2.683  0.4817  0.4030  1.3021
    1SOL    HW3 6175   1.393   4.263   2.557 -1.2985  0.6930  0.0846
    1SOL    MW4 6176   1.382   4.252   2.643 -0.1284  0.4072  0.2003
    1SOL     OW 6177   1.605   4.395   2.768  0.3739 -0.1607 -0.4248
    1SOL    HW2 6178   1.597   4.405   2.863  1.7148  0.1201 -0.3360
    1SOL    HW3 6179   1.530   4.341   2.743  0.4972 -0.9549  0.9093
    1SOL    MW4 6180   1.594   4.389   2.777  0.5670 -0.2289 -0.2370
    1SOL     OW 6181   2.018   4.634   2.652 -0.1331  0.1260  0.4978
    1SOL    HW2 6182   2.093   4.680   2.690  1.3665 -1.3815 -0.5840
    1SOL    HW3 6183   2.019   4.657   2.560 -0.8406 -0.1260  0.4222
    1SOL    MW4 6184   2.028   4.643   2.645 -0.0284 -0.1063  0.3450
    1SOL     OW 6185   1.795   0.140   2.739 -0.4174  0.2261 -0.4378
    1SOL    HW2 6186   1.872   0.086   2.726 -0.4961  0.0293 -0.1126
    1SOL    HW3 6187   1.721   0.080   2.727 -0.4866 -0.0157  1.0862
    1SOL    MW4 6188   1.795   0.125   2.736 -0.4368  0.1683 -0.1938
    1SOL     OW 6189   1.787   0.385   2.609  0.0808 -0.4368  0.3910
    1SOL    HW2 6190   1.867   0.425   2.643  1.0834 -1.3202 -0.9118
    1SOL    HW3 6191   1.787   0.296   2.644 -0.6393 -0.2617  0.8561
    1SOL    MW4 6192   1.797   0.379   2.618  0.1180 -0.5302  0.2806
    1SOL     OW 6193   2.041   0.499   2.705 -0.2255  0.2947  0.0764
    1SOL    HW2 6194   2.120   0.444   2.707 -0.6013 -0.2400  0.0809
    1SOL    HW3 6195   2.020   0.514   2.797  0.2527  0.9895  0.0793
    1SOL    MW4 6196   2.049   0.493   2.717 -0.2117  0.3158  0.0775
    1SOL     OW 6197   2.036   0.756   2.628 -0.2290  0.7755 -0.1503
    1SOL    HW2 6198   2.034   0.662   2.647 -1.2278  0.6882 -0.6723
    1SOL    HW3 6199   1.955   0.790   2.665  1.4047  1.9431  2.5231
    1SOL    MW4 6200   2.025   0.748   2.635 -0.1452  0.9181  0.1338
    1SOL     OW 6201   1.791   0.869   2.733  0.1500  0.1860 -0.3900
    1SOL    HW2 6202   1.803   0.962   2.717  2.5162 -0.1801 -0.8702
    1SOL    HW3 6203   1.706   0.849   2.694 -0.1138  2.0152 -0.7877
    1SOL    MW4 6204   1.781   0.878   2.726  0.4274  0.3790 -0.5057
    1SOL     OW 6205   1.794   1.144   2.662  0.3859  0.0789 -0.4318
    1SOL    HW2 6206   1.869   1.189   2.701  0.7835 -0.9676  0.0311
    1SOL    HW3 6207   1.795   1.171   2.570  0.3898  1.3057 -0.0699
    1SOL    MW4 6208   1.804   1.153   2.655  0.4389  0.1028 -0.3228
    1SOL     OW 6209   2.014   1.264   2.766  0.2657  0.7417  0.1367
    1SOL    HW2 6210   2.042   1.259   2.857 -0.6806 -1.1981  0.3371
    1SOL    HW3 6211   2.088   1.231   2.716 -0.0811 -0.4229  0.3792
    1SOL    MW4 6212   2.027   1.259   2.771  0.0951  0.3321  0.1950
    1SOL     OW 6213   1.998   1.524   2.660  0.9276 -0.4208 -0.2113
    1SOL    HW2 6214   1.932   1.575   2.708  0.0295 -0.6761 -1.1541
    1SOL    HW3 6215   1.992   1.437   2.698  0.8178 -0.4095 -0.2016
    1SOL    MW4 6216   1.989   1.520   2.672  0.7946 -0.4530 -0.3343
    1SOL     OW 6217   1.807   1.679   2.759  0.5855  0.0764 -0.8808
    1SOL    HW2 6218   1.778   1.694   2.850  0.1822  1.7011 -1.2519
    1SOL    HW3 6219   1.732   1.637   2.717  0.1688  0.7943 -0.8659
    1SOL    MW4 6220   1.793   1.676   2.766  0.4773  0.3856 -0.9277
    1SOL     OW 6221   1.802   1.952   2.662  0.2775 -0.2277  0.2324
    1SOL    HW2 6222   1.872   2.003   2.703 -0.0717  0.0869  0.4442
    1SOL    HW3 6223   1.809   1.865   2.701  0.3020 -0.0876  0.5410
    1SOL    MW4 6224   1.812   1.948   2.673  0.2347 -0.1676  0.3011
    1SOL     OW 6225   2.044   2.085   2.727 -0.2182 -0.1804  0.2499
    1SOL    HW2 6226   2.054   2.090   2.822 -1.6061  0.3989  0.3685
    1SOL    HW3 6227   2.026   2.175   2.700 -0.3059 -0.4250 -0.5143
    1SOL    MW4 6228   2.043   2.097   2.736 -0.4129 -0.1361  0.1647
    1SOL     OW 6229   1.988   2.349   2.637 -0.3404 -0.0779  0.8302
    1SOL    HW2 6230   2.073   2.383   2.665 -0.5421 -0.1541  1.5653
    1SOL    HW3 6231   1.994   2.342   2.542 -0.1196  1.4945  0.7190
    1SOL    MW4 6232   2.000   2.352   2.628 -0.3378  0.1197  0.9124
    1SOL     OW 6233   1.728   2.454   2.738 -0.1596 -0.2624  0.0095
    1SOL    HW2 6234   1.736   2.477   2.831  1.0214  0.5205 -0.2815
    1SOL    HW3 6235   1.811   2.412   2.716  0.1701  0.9399 -1.0844
    1SOL    MW4 6236   1.740   2.451   2.747  0.0397 -0.0002 -0.1731
    1SOL     OW 6237   1.738   2.719   2.658 -0.6197 -0.5006  0.1939
    1SOL    HW2 6238   1.736   2.626   2.680 -1.3718 -0.5406 -0.0107
    1SOL    HW3 6239   1.761   2.721   2.565 -0.5374 -0.4772  0.2148
    1SOL    MW4 6240   1.740   2.707   2.648 -0.7082 -0.5031  0.1698
    1SOL     OW 6241   2.000   2.845   2.735  0.5368  0.4193 -0.4345
    1SOL    HW2 6242   2.053   2.778   2.691  0.7666 -0.0854  0.5999
    1SOL    HW3 6243   1.910   2.816   2.724  0.6106  0.1548 -0.3206
    1SOL    MW4 6244   1.995   2.833   2.728  0.5770  0.3178 -0.2830
    1SOL     OW 6245   2.020   3.115   2.654 -0.5894  0.5692 -0.1158
    1SOL    HW2 6246   2.031   3.026   2.686  1.3478  0.8418  0.0514
    1SOL    HW3 6247   2.019   3.107   2.559  0.1233  0.4247 -0.1103
    1SOL    MW4 6248   2.021   3.102   2.646 -0.2396  0.5860 -0.0930
    1SOL     OW 6249   1.771   3.187   2.760  0.1708 -0.3136  0.1277
    1SOL    HW2 6250   1.768   3.280   2.739  0.8961 -0.1046  0.9329
    1SOL    HW3 6251   1.850   3.154   2.716  0.3364 -0.3879  0.4797
    1SOL    MW4 6252   1.781   3.195   2.751  0.2882 -0.2956  0.2804
    1SOL     OW 6253   1.777   3.485   2.665 -0.0205 -0.0162  0.2132
    1SOL    HW2 6254   1.857   3.525   2.701 -0.9233  1.2231  0.8538
    1SOL    HW3 6255   1.784   3.500   2.570  0.2400  0.5536  0.3207
    1SOL    MW4 6256   1.789   3.492   2.657 -0.1051  0.2224  0.3121
    1SOL     OW 6257   2.004   3.595   2.748 -0.2146  0.4081  0.3801
    1SOL    HW2 6258   2.024   3.612   2.840 -0.0592 -2.2378  0.8616
    1SOL    HW3 6259   2.089   3.578   2.707 -0.3690  0.7301 -0.0863
    1SOL    MW4 6260   2.017   3.595   2.754 -0.2146  0.1011  0.3819
    1SOL     OW 6261   1.988   3.850   2.671  0.2529 -0.3494 -0.3751
    1SOL    HW2 6262   1.909   3.884   2.712  1.4795  0.4192  1.4295
    1SOL    HW3 6263   1.988   3.757   2.691 -0.1703 -0.3399 -0.3335
    1SOL    MW4 6264   1.978   3.843   2.679  0.3589 -0.2465 -0.1314
    1SOL     OW 6265   1.774   4.004   2.781  0.1236 -0.3408  0.2790
    1SOL    HW2 6266   1.785   4.091   2.741  2.2092 -0.6671  0.0746
    1SOL    HW3 6267   1.703   3.963   2.731 -1.0233  1.3067  0.5038
    1SOL    MW4 6268   1.766   4.010   2.769  0.2475 -0.1669  0.2816
    1SOL     OW 6269   1.820   4.249   2.644  0.3161  0.3992 -0.3695
    1SOL    HW2 6270   1.750   4.311   2.663 -0.2916 -0.4129  0.0526
    1SOL    HW3 6271   1.822   4.244   2.548  0.6577  1.3826 -0.4254
    1SOL    MW4 6272   1.811   4.257   2.634  0.2811  0.4210 -0.3211
    1SOL     OW 6273   2.047   4.368   2.759  0.0421 -0.1032  0.4020
    1SOL    HW2 6274   1.975   4.313   2.728  0.8606 -0.6935 -0.4977
    1SOL    HW3 6275   2.038   4.450   2.710  1.3804 -1.0647 -1.5223
    1SOL    MW4 6276   2.036   4.372   2.748  0.3264 -0.3080  0.0296
    1SOL     OW 6277   2.470   4.644   2.658  0.0496  0.5892 -0.3845
    1SOL    HW2 6278   2.556   4.679   2.680 -0.0814 -0.0281  1.1048
    1SOL    HW3 6279   2.472   4.635   2.562  1.6997  0.4131 -0.3442
    1SOL    MW4 6280   2.481   4.647   2.648  0.2499  0.4849 -0.1826
    1SOL     OW 6281   2.238   0.103   2.768 -0.0036  0.4245  0.3671
    1SOL    HW2 6282   2.304   0.049   2.725 -0.3152 -0.1893  0.6538
    1SOL    HW3 6283   2.260   0.097   2.861 -1.1381 -0.7165  0.5770
    1SOL    MW4 6284   2.250   0.095   2.775 -0.1945  0.1929  0.4327
    1SOL     OW 6285   2.279   0.356   2.663 -0.0955 -0.2027  0.0584
    1SOL    HW2 6286   2.279   0.342   2.568  0.0334  0.1694  0.0018
    1SOL    HW3 6287   2.268   0.269   2.700  1.0425 -0.5080 -0.2824
    1SOL    MW4 6288   2.278   0.343   2.655  0.0713 -0.1939  0.0060
    1SOL     OW 6289   2.521   0.481   2.696  0.3174 -0.1912  0.1589
    1SOL    HW2 6290   2.501   0.569   2.665 -2.1835 -1.2324 -1.2823
    1SOL    HW3 6291   2.438   0.435   2.692  1.2302 -2.1472  2.5822
    1SOL    MW4 6292   2.508   0.487   2.692  0.1078 -0.5867  0.2885
    1SOL     OW 6293   2.465   0.769   2.632 -0.0933 -0.7063  0.3622
    1SOL    HW2 6294   2.391   0.823   2.660  0.6875  1.0002 -0.7126
    1SOL    HW3 6295   2.461   0.771   2.536  0.7691 -1.4027  0.3007
    1SOL    MW4 6296   2.455   0.777   2.623  0.1237 -0.5730  0.2122
    1SOL     OW 6297   2.237   0.909   2.720 -0.1045 -0.1071  0.1246
    1SOL    HW2 6298   2.241   0.908   2.816  1.9110  0.9663  0.0860
    1SOL    HW3 6299   2.174   0.841   2.698  0.4435 -1.3216  2.1699
    1SOL    MW4 6300   2.229   0.900   2.730  0.2339 -0.1258  0.3896
    1SOL     OW 6301   2.234   1.168   2.630 -0.6404  0.5694  0.2981
    1SOL    HW2 6302   2.230   1.078   2.663 -1.0779  0.8392  0.9907
    1SOL    HW3 6303   2.321   1.199   2.654 -0.4343  0.2808 -0.0764
    1SOL    MW4 6304   2.245   1.160   2.638 -0.6707  0.5670  0.3402
    1SOL     OW 6305   2.486   1.278   2.717 -0.1324  0.0205  0.1548
    1SOL    HW2 6306   2.494   1.358   2.663 -0.8999  0.1867  0.2891
    1SOL    HW3 6307   2.566   1.229   2.697  0.6713  1.1359  0.5822
    1SOL    MW4 6308   2.498   1.282   2.707 -0.1276  0.1895  0.2289
    1SOL     OW 6309   2.455   1.521   2.611 -0.1552 -0.1538 -0.0250
    1SOL    HW2 6310   2.380   1.564   2.652 -0.6163 -0.5477 -0.4516
    1SOL    HW3 6311   2.532   1.565   2.648 -0.6005  0.3104  0.3409
    1SOL    MW4 6312   2.455   1.532   2.621 -0.2747 -0.1446 -0.0329
    1SOL     OW 6313   2.238   1.646   2.746 -0.2619 -0.0351  0.4498
    1SOL    HW2 6314   2.254   1.735   2.716 -0.7467  0.3171  1.2190
    1SOL    HW3 6315   2.157   1.620   2.702 -0.8547  0.4007  1.2805
    1SOL    MW4 6316   2.230   1.654   2.736 -0.4039  0.0688  0.6609
    1SOL     OW 6317   2.227   1.905   2.647  0.2508  0.1012 -0.1400
    1SOL    HW2 6318   2.158   1.964   2.676  0.1631 -0.5090  0.8948
    1SOL    HW3 6319   2.212   1.895   2.553 -0.5533  0.6421 -0.0715
    1SOL    MW4 6320   2.216   1.912   2.638  0.1330  0.0919  0.0057
    1SOL     OW 6321   2.448   2.029   2.737 -0.2047  0.5645  0.4775
    1SOL    HW2 6322   2.451   2.120   2.708  0.7695  1.3320  2.8644
    1SOL    HW3 6323   2.372   1.992   2.692 -0.2156  2.3640 -1.0437
    1SOL    MW4 6324   2.438   2.036   2.727 -0.0775  0.9029  0.5918
    1SOL     OW 6325   2.482   2.294   2.644  0.1157  0.0742  0.0254
    1SOL    HW2 6326   2.536   2.358   2.691 -1.3453  1.5333 -0.2022
    1SOL    HW3 6327   2.513   2.299   2.553  0.3389  0.1113  0.1035
    1SOL    MW4 6328   2.493   2.303   2.638 -0.0477  0.2716  0.0057
    1SOL     OW 6329   2.243   2.443   2.702  0.3353 -0.1744 -0.2688
    1SOL    HW2 6330   2.252   2.449   2.797 -1.7234 -1.3792  0.0385
    1SOL    HW3 6331   2.316   2.388   2.674  0.7998 -0.0341  0.6465
    1SOL    MW4 6332   2.253   2.437   2.711  0.1249 -0.3150 -0.1078
    1SOL     OW 6333   2.211   2.699   2.604 -0.2811  0.1003  0.4398
    1SOL    HW2 6334   2.291   2.737   2.638 -0.9359  1.7868  0.1422
    1SOL    HW3 6335   2.221   2.605   2.619  1.3243  0.3814  1.2637
    1SOL    MW4 6336   2.223   2.692   2.610 -0.1557  0.3598  0.5090
    1SOL     OW 6337   2.438   2.812   2.751  0.1149  0.3179  0.3267
    1SOL    HW2 6338   2.512   2.766   2.711 -1.0120  0.2685 -1.8032
    1SOL    HW3 6339   2.447   2.903   2.721 -0.4458  0.4059  0.4150
    1SOL    MW4 6340   2.449   2.818   2.742 -0.1080  0.3233  0.0577
    1SOL     OW 6341   2.496   3.085   2.657  0.0263  0.2576 -0.0039
    1SOL    HW2 6342   2.419   3.139   2.676 -0.3624 -0.3929  0.2853
    1SOL    HW3 6343   2.504   3.087   2.562  0.5211  1.5218  0.0539
    1SOL    MW4 6344   2.487   3.092   2.647  0.0403  0.3386  0.0417
    1SOL     OW 6345   2.266   3.244   2.728  0.2563 -0.1591 -0.3360
    1SOL    HW2 6346   2.269   3.252   2.823  0.1916  0.7862 -0.3999
    1SOL    HW3 6347   2.188   3.193   2.710 -0.6565  1.0701  0.0530
    1SOL    MW4 6348   2.256   3.239   2.738  0.1276  0.1278 -0.2933
    1SOL     OW 6349   2.250   3.515   2.621 -0.4651 -0.1172 -0.3476
    1SOL    HW2 6350   2.329   3.563   2.648 -0.2835 -0.2116 -0.7120
    1SOL    HW3 6351   2.262   3.428   2.660 -0.1371 -0.2958 -0.8395
    1SOL    MW4 6352   2.262   3.510   2.630 -0.3977 -0.1533 -0.4606
    1SOL     OW 6353   2.459   3.668   2.740  0.1508 -0.0911  0.0487
    1SOL    HW2 6354   2.487   3.668   2.831 -0.3169 -0.6241  0.1946
    1SOL    HW3 6355   2.478   3.756   2.709 -0.0770  0.2180  0.7789
    1SOL    MW4 6356   2.465   3.679   2.748  0.0591 -0.1206  0.1645
    1SOL     OW 6357   2.480   3.935   2.649  0.0379  0.4081  0.5866
    1SOL    HW2 6358   2.542   3.978   2.708 -0.0471 -0.1075  1.0636
    1SOL    HW3 6359   2.396   3.939   2.696  0.3504 -1.7619  1.4107
    1SOL    MW4 6360   2.477   3.941   2.663  0.0679  0.0539  0.7584
    1SOL     OW 6361   2.230   3.972   2.754 -0.2600 -0.0007  0.4492
    1SOL    HW2 6362   2.235   3.974   2.850 -0.8327  1.4233  0.4529
    1SOL    HW3 6363   2.148   3.925   2.736 -0.5886  0.4837  0.6704
    1SOL    MW4 6364   2.220   3.966   2.764 -0.3791  0.2511  0.4792
    1SOL     OW 6365   2.266   4.227   2.644 -0.2915  0.0711  0.4171
    1SOL    HW2 6366   2.264   4.140   2.684 -0.0874  0.2573  0.8421
    1SOL    HW3 6367   2.185   4.269   2.675 -1.0168 -0.4124 -0.8120
    1SOL    MW4 6368   2.255   4.221   2.653 -0.3603  0.0319  0.3109
    1SOL     OW 6369   2.424   4.403   2.792  0.0176 -0.4607 -0.1774
    1SOL    HW2 6370   2.373   4.352   2.728  0.1932 -1.8041  0.7302
    1SOL    HW3 6371   2.423   4.492   2.757  0.1848 -1.1852 -2.0961
    1SOL    MW4 6372   2.417   4.408   2.779  0.0627 -0.7339 -0.3107
    1SOL     OW 6373   2.955   0.002   2.676  0.0952 -0.0569 -0.0166
    1SOL    HW2 6374   3.025   0.063   2.700 -0.7280  0.6374  0.6512
    1SOL    HW3 6375   2.954   0.004   2.580  1.8728 -1.1038 -0.0883
    1SOL    MW4 6376   2.964   0.010   2.666  0.2213 -0.1030  0.0620
    1SOL     OW 6377   2.722   0.106   2.761 -0.2218  0.0207  0.8185
    1SOL    HW2 6378   2.700   0.113   2.854  0.7785  0.7688  1.0077
    1SOL    HW3 6379   2.813   0.079   2.760 -0.2775 -0.1439  0.0482
    1SOL    MW4 6380   2.731   0.103   2.773 -0.0973  0.0976  0.7417
    1SOL     OW 6381   2.751   0.362   2.586 -0.2877 -0.3965  0.2438
    1SOL    HW2 6382   2.757   0.268   2.602  0.8390 -0.4838 -0.5893
    1SOL    HW3 6383   2.667   0.387   2.622 -0.2588 -1.5832  1.1834
    1SOL    MW4 6384   2.741   0.353   2.593 -0.1352 -0.5646  0.2577
    1SOL     OW 6385   2.915   0.551   2.725 -0.4435  0.6196  0.1895
    1SOL    HW2 6386   2.911   0.637   2.684 -1.3916  0.5773  0.1819
    1SOL    HW3 6387   2.858   0.496   2.671  0.9532 -0.2692 -0.4050
    1SOL    MW4 6388   2.907   0.555   2.712 -0.3843  0.4968  0.1101
    1SOL     OW 6389   2.925   0.807   2.597  0.0640 -0.0447 -0.0228
    1SOL    HW2 6390   3.004   0.830   2.645  0.7265 -1.3993 -0.4380
    1SOL    HW3 6391   2.853   0.836   2.653  0.8483  1.0435  0.4330
    1SOL    MW4 6392   2.926   0.814   2.611  0.2549 -0.0798 -0.0176
    1SOL     OW 6393   2.694   0.884   2.748  0.5348  0.3981  0.1262
    1SOL    HW2 6394   2.668   0.889   2.841 -0.0639  1.9443 -0.1061
    1SOL    HW3 6395   2.617   0.846   2.705  0.6791  0.0097  0.2077
    1SOL    MW4 6396   2.680   0.880   2.755  0.4749  0.5509  0.1063
    1SOL     OW 6397   2.702   1.124   2.616  0.8387  0.7105 -0.2718
    1SOL    HW2 6398   2.787   1.155   2.645  0.4915  0.0700  1.4658
    1SOL    HW3 6399   2.693   1.037   2.654 -0.4235  0.6031 -0.7758
    1SOL    MW4 6400   2.712   1.117   2.625  0.6266  0.6118 -0.1090
    1SOL     OW 6401   2.937   1.259   2.703  0.5495 -0.6246  0.2818
    1SOL    HW2 6402   2.932   1.280   2.796 -1.3357  0.6026 -0.0528
    1SOL    HW3 6403   3.023   1.220   2.691  1.0043 -0.3397  2.4451
    1SOL    MW4 6404   2.947   1.257   2.714  0.3610 -0.4251  0.5229
    1SOL     OW 6405   2.917   1.529   2.623 -0.0164 -0.1567 -0.0264
    1SOL    HW2 6406   2.829   1.563   2.643 -0.0196 -0.2615  0.1381
    1SOL    HW3 6407   2.917   1.440   2.659  0.6790  0.3953  1.4025
    1SOL    MW4 6408   2.906   1.522   2.631  0.0749 -0.0976  0.1836
    1SOL     OW 6409   2.678   1.650   2.716  0.2968 -0.5751  0.2895
    1SOL    HW2 6410   2.695   1.644   2.810 -0.5527  0.8389  0.5404
    1SOL    HW3 6411   2.671   1.743   2.698  0.7427 -0.8225 -1.2425
    1SOL    MW4 6412   2.679   1.661   2.726  0.2437 -0.4212  0.1206
    1SOL     OW 6413   2.684   1.906   2.632  1.0135 -0.1400  0.3724
    1SOL    HW2 6414   2.755   1.958   2.669  0.7098 -1.6658  3.2228
    1SOL    HW3 6415   2.604   1.950   2.661  0.7251  0.6131 -1.4379
    1SOL    MW4 6416   2.683   1.919   2.640  0.9353 -0.2421  0.5095
    1SOL     OW 6417   2.922   2.014   2.725  0.1776  0.1917 -0.0285
    1SOL    HW2 6418   2.999   1.973   2.687  0.9786  0.7985  0.8960
    1SOL    HW3 6419   2.926   2.105   2.695  0.1126  0.3554  0.4514
    1SOL    MW4 6420   2.933   2.021   2.716  0.2747  0.2933  0.1566
    1SOL     OW 6421   2.949   2.287   2.651 -0.3515 -0.3524 -0.1332
    1SOL    HW2 6422   3.014   2.354   2.674  0.6133 -0.7249 -1.6893
    1SOL    HW3 6423   2.865   2.331   2.658  0.2633  0.9766 -0.9627
    1SOL    MW4 6424   2.947   2.301   2.655 -0.1433 -0.2265 -0.4480
    1SOL     OW 6425   2.705   2.437   2.715 -0.2904 -0.3819  0.2998
    1SOL    HW2 6426   2.711   2.441   2.810 -1.2164  0.3736  0.3263
    1SOL    HW3 6427   2.678   2.525   2.688 -1.4619 -0.9794 -0.5533
    1SOL    MW4 6428   2.702   2.450   2.724 -0.5670 -0.3610  0.1907
    1SOL     OW 6429   2.669   2.689   2.622 -0.1048  0.2125 -0.0030
    1SOL    HW2 6430   2.739   2.736   2.667  0.8154 -0.4901 -0.6759
    1SOL    HW3 6431   2.690   2.698   2.529 -0.2499 -1.0038 -0.1652
    1SOL    MW4 6432   2.681   2.696   2.616 -0.0024 -0.0408 -0.1130
    1SOL     OW 6433   2.868   2.842   2.716  0.1843  0.3295 -0.6532
    1SOL    HW2 6434   2.961   2.821   2.704  0.5695  1.7681 -0.3206
    1SOL    HW3 6435   2.855   2.838   2.810 -0.0207  0.4673 -0.6764
    1SOL    MW4 6436   2.878   2.838   2.727  0.2084  0.5374 -0.6123
    1SOL     OW 6437   2.896   3.111   2.605 -0.3382  0.2348  0.4454
    1SOL    HW2 6438   2.825   3.169   2.633 -0.1040  0.7688 -0.0708
    1SOL    HW3 6439   2.880   3.029   2.653 -0.8495  0.6159  0.9295
    1SOL    MW4 6440   2.884   3.108   2.615 -0.3750  0.3557  0.4411
    1SOL     OW 6441   2.695   3.261   2.738  0.3157  0.1473 -0.2250
    1SOL    HW2 6442   2.706   3.345   2.693 -0.2734  1.4646  1.9753
    1SOL    HW3 6443   2.628   3.215   2.688 -1.1120  2.0312 -0.1035
    1SOL    MW4 6444   2.687   3.266   2.726  0.0498  0.5696  0.0811
    1SOL     OW 6445   2.683   3.508   2.627  0.2655 -0.2001 -0.2508
    1SOL    HW2 6446   2.604   3.560   2.640  0.3661  0.1946 -1.2422
    1SOL    HW3 6447   2.707   3.521   2.535  0.1635 -2.1544 -0.5900
    1SOL    MW4 6448   2.676   3.516   2.617  0.2654 -0.4055 -0.4261
    1SOL     OW 6449   2.908   3.648   2.720  0.5385 -0.2271 -0.1008
    1SOL    HW2 6450   2.896   3.645   2.815  1.3928 -1.2789 -0.0098
    1SOL    HW3 6451   2.829   3.606   2.684 -1.2700  2.9319 -0.0238
    1SOL    MW4 6452   2.896   3.642   2.728  0.4127  0.0508 -0.0782
    1SOL     OW 6453   2.909   3.939   2.675  0.0837 -0.2535  0.2886
    1SOL    HW2 6454   2.979   3.986   2.721  0.0148 -1.1206  1.3002
    1SOL    HW3 6455   2.924   3.847   2.696 -1.5133 -0.4245  0.7348
    1SOL    MW4 6456   2.920   3.933   2.684 -0.1359 -0.3905  0.4811
    1SOL     OW 6457   2.676   4.047   2.789 -0.4703 -0.4839 -0.1019
    1SOL    HW2 6458   2.669   4.134   2.750 -0.4012 -0.5986 -0.3774
    1SOL    HW3 6459   2.749   4.006   2.743 -1.2664 -1.1229 -0.8403
    1SOL    MW4 6460   2.685   4.053   2.778 -0.5662 -0.5836 -0.2358
    1SOL     OW 6461   2.667   4.304   2.657 -0.0401 -0.2535 -0.5030
    1SOL    HW2 6462   2.740   4.343   2.706 -0.2408 -0.5826  0.0716
    1SOL    HW3 6463   2.589   4.342   2.697 -0.2527 -1.6305  0.4160
    1SOL    MW4 6464   2.667   4.314   2.669 -0.0947 -0.4783 -0.3059
    1SOL     OW 6465   2.888   4.402   2.758 -0.4637  0.4603  0.1704
    1SOL    HW2 6466   2.907   4.413   2.851 -0.2326 -0.0979  0.1888
    1SOL    HW3 6467   2.888   4.491   2.723  0.8397  0.5715  0.4281
    1SOL    MW4 6468   2.891   4.415   2.766 -0.2611  0.4015  0.2069
    1SOL     OW 6469   3.343   0.004   2.624 -0.1574  0.3506  0.1376
    1SOL    HW2 6470   3.343  -0.075   2.678  0.9378 -0.1740 -0.6060
    1SOL    HW3 6471   3.293   0.068   2.675 -0.4540 -0.6002  1.0648
    1SOL    MW4 6472   3.336   0.002   2.638 -0.0520  0.1559  0.1619
    1SOL     OW 6473   3.179   0.155   2.775 -0.2202 -0.1150 -0.1628
    1SOL    HW2 6474   3.147   0.151   2.865  1.4919  0.3778  0.4878
    1SOL    HW3 6475   3.162   0.245   2.747 -0.7580 -0.2698 -0.3478
    1SOL    MW4 6476   3.172   0.166   2.783 -0.0651 -0.0704 -0.1011
    1SOL     OW 6477   3.134   0.399   2.658 -0.1048 -0.4779  0.0372
    1SOL    HW2 6478   3.060   0.454   2.681  0.6943  0.6492 -0.0484
    1SOL    HW3 6479   3.141   0.407   2.563  1.1340  0.7451  0.2157
    1SOL    MW4 6480   3.125   0.407   2.649  0.1640 -0.1679  0.0496
    1SOL     OW 6481   3.366   0.506   2.760 -0.1461  0.3731 -0.7317
    1SOL    HW2 6482   3.372   0.595   2.725 -0.1962  0.5217 -0.3632
    1SOL    HW3 6483   3.282   0.473   2.729 -0.0854  0.4194 -0.9478
    1SOL    MW4 6484   3.356   0.513   2.752 -0.1452  0.3989 -0.7114
    1SOL     OW 6485   3.364   0.760   2.664  0.6196 -0.0700 -0.6124
    1SOL    HW2 6486   3.446   0.804   2.690  0.6386  0.3575 -1.3659
    1SOL    HW3 6487   3.357   0.778   2.570 -0.3043 -0.1689 -0.5625
    1SOL    MW4 6488   3.374   0.768   2.655  0.5002 -0.0266 -0.7052
    1SOL     OW 6489   3.139   0.897   2.736  0.3997 -0.2820 -0.0789
    1SOL    HW2 6490   3.136   0.898   2.832  1.9247  0.2902 -0.0238
    1SOL    HW3 6491   3.213   0.840   2.715  0.9026  0.6515 -0.8890
    1SOL    MW4 6492   3.148   0.889   2.746  0.6671 -0.0833 -0.1786
    1SOL     OW 6493   3.201   1.152   2.622 -0.0539  0.3678 -0.4738
    1SOL    HW2 6494   3.204   1.061   2.654 -1.9802  0.4991  0.1241
    1SOL    HW3 6495   3.190   1.144   2.528 -1.5286 -0.0429 -0.2796
    1SOL    MW4 6496   3.200   1.139   2.614 -0.5026  0.3308 -0.3693
    1SOL     OW 6497   3.389   1.302   2.730 -0.0821  0.3684 -0.4392
    1SOL    HW2 6498   3.376   1.279   2.822 -0.0197  0.3131 -0.4430
    1SOL    HW3 6499   3.324   1.250   2.682  0.0479  0.2102 -0.4467
    1SOL    MW4 6500   3.379   1.292   2.736 -0.0567  0.3403 -0.4406
    1SOL     OW 6501   3.375   1.561   2.632 -0.4019 -0.2881 -0.3298
    1SOL    HW2 6502   3.292   1.586   2.673  0.5888  0.4536  1.2853
    1SOL    HW3 6503   3.392   1.473   2.665 -0.4542 -0.3739 -0.5301
    1SOL    MW4 6504   3.366   1.553   2.642 -0.2780 -0.2016 -0.1431
    1SOL     OW 6505   3.136   1.650   2.759  0.0593 -0.7754  0.1873
    1SOL    HW2 6506   3.055   1.618   2.719  0.3115 -1.7571  0.4491
    1SOL    HW3 6507   3.116   1.656   2.852 -0.2881  0.7842  0.0352
    1SOL    MW4 6508   3.123   1.647   2.766  0.0465 -0.6992  0.2017
    1SOL     OW 6509   3.160   1.888   2.627 -0.3586 -0.5402 -0.1696
    1SOL    HW2 6510   3.238   1.928   2.665 -1.0620 -0.2119  0.9478
    1SOL    HW3 6511   3.150   1.805   2.674 -1.8883  0.3959  1.2177
    1SOL    MW4 6512   3.169   1.882   2.638 -0.6533 -0.3732  0.1609
    1SOL     OW 6513   3.370   2.052   2.719  0.0946  1.2209  0.5791
    1SOL    HW2 6514   3.366   2.043   2.814 -1.3819 -0.6347  0.3807
    1SOL    HW3 6515   3.330   2.137   2.701 -2.3610  0.3218  1.4713
    1SOL    MW4 6516   3.364   2.062   2.729 -0.4244  0.8574  0.6707
    1SOL     OW 6517   3.330   2.298   2.634 -0.0892  0.2482 -0.3645
    1SOL    HW2 6518   3.392   2.358   2.675  0.5892  0.0747 -1.1413
    1SOL    HW3 6519   3.367   2.279   2.548  0.5594 -2.6054  0.4952
    1SOL    MW4 6520   3.343   2.303   2.628  0.0858 -0.1514 -0.3536
    1SOL     OW 6521   3.130   2.476   2.696 -0.1553 -0.0067  0.1887
    1SOL    HW2 6522   3.208   2.424   2.677  0.2514  1.2993 -1.9272
    1SOL    HW3 6523   3.113   2.462   2.789  1.4321 -1.8790  0.2185
    1SOL    MW4 6524   3.138   2.467   2.706  0.1078 -0.0813 -0.0868
    1SOL     OW 6525   3.113   2.748   2.614 -0.0812  0.1774 -0.3550
    1SOL    HW2 6526   3.187   2.795   2.653 -0.3063  0.5179 -0.3261
    1SOL    HW3 6527   3.122   2.658   2.645 -0.6348  0.5910  1.0533
    1SOL    MW4 6528   3.124   2.743   2.623 -0.1841  0.2770 -0.1655
    1SOL     OW 6529   3.347   2.860   2.719 -0.5633 -0.1573 -0.1599
    1SOL    HW2 6530   3.338   2.850   2.814 -1.3288 -0.7092 -0.2835
    1SOL    HW3 6531   3.424   2.809   2.696 -1.5013 -1.6404 -0.0887
    1SOL    MW4 6532   3.356   2.852   2.729 -0.7877 -0.4256 -0.1667
    1SOL     OW 6533   3.352   3.125   2.635  0.7289 -0.4714  0.0195
    1SOL    HW2 6534   3.345   3.036   2.669 -0.5137 -0.7165 -0.8755
    1SOL    HW3 6535   3.372   3.114   2.542  1.2108  0.1921  0.0368
    1SOL    MW4 6536   3.354   3.112   2.627  0.6285 -0.4163 -0.0963
    1SOL     OW 6537   3.116   3.240   2.741 -0.3140 -0.2239  0.1218
    1SOL    HW2 6538   3.192   3.195   2.703 -0.6742 -0.8133  0.0909
    1SOL    HW3 6539   3.041   3.200   2.699 -0.7159 -0.7765  1.3354
    1SOL    MW4 6540   3.116   3.229   2.731 -0.4144 -0.3748  0.2778
    1SOL     OW 6541   3.134   3.489   2.619 -0.3461  0.2223  0.3255
    1SOL    HW2 6542   3.131   3.411   2.675 -1.6555  0.5635  0.7484
    1SOL    HW3 6543   3.059   3.542   2.647  0.2656  1.4315 -0.2591
    1SOL    MW4 6544   3.124   3.486   2.630 -0.4382  0.4268  0.3042
    1SOL     OW 6545   3.361   3.610   2.710  0.0203 -0.2008  0.1271
    1SOL    HW2 6546   3.363   3.623   2.805  1.0036  0.4849  0.0184
    1SOL    HW3 6547   3.275   3.572   2.693  0.5432 -2.1013  1.5163
    1SOL    MW4 6548   3.350   3.607   2.720  0.2189 -0.3607  0.2961
    1SOL     OW 6549   3.319   3.856   2.627  0.2361  0.3155 -0.2543
    1SOL    HW2 6550   3.342   3.767   2.652  0.0947  0.2901 -0.2157
    1SOL    HW3 6551   3.294   3.850   2.535 -0.0004  0.2766 -0.1861
    1SOL    MW4 6552   3.319   3.844   2.619  0.1864  0.3071 -0.2403
    1SOL     OW 6553   3.162   4.034   2.771 -0.2173  0.1339  0.0040
    1SOL    HW2 6554   3.160   4.122   2.732 -0.6967  0.2069  0.1840
    1SOL    HW3 6555   3.218   3.983   2.712  0.4841  0.6914  0.1809
    1SOL    MW4 6556   3.169   4.039   2.758 -0.1881  0.2170  0.0510
    1SOL     OW 6557   3.121   4.279   2.646  0.0300  0.5487  0.1344
    1SOL    HW2 6558   3.039   4.319   2.677  0.4053  1.0760  0.4460
    1SOL    HW3 6559   3.113   4.280   2.550 -0.6480 -0.0768  0.1743
    1SOL    MW4 6560   3.109   4.284   2.637 -0.0100  0.5355  0.1810
    1SOL     OW 6561   3.327   4.429   2.763 -0.3402 -0.0273  0.6321
    1SOL    HW2 6562   3.330   4.414   2.857  1.0715 -0.5305  0.5281
    1SOL    HW3 6563   3.255   4.375   2.731  0.5625 -1.5499  1.1349
    1SOL    MW4 6564   3.318   4.420   2.771 -0.0348 -0.2947  0.6850
    1SOL     OW 6565   3.801   0.003   2.661  0.0930 -0.2629 -0.1983
    1SOL    HW2 6566   3.790  -0.089   2.684 -0.2709  0.0144  0.7862
    1SOL    HW3 6567   3.727   0.047   2.704  0.6095  0.5602 -0.1402
    1SOL    MW4 6568   3.790  -0.003   2.670  0.1132 -0.1173 -0.0610
    1SOL     OW 6569   3.569   0.105   2.742  0.2234 -0.0144  0.4879
    1SOL    HW2 6570   3.554   0.190   2.700 -0.8633  0.4130  1.6812
    1SOL    HW3 6571   3.511   0.045   2.696  0.5404  0.0235  0.0400
    1SOL    MW4 6572   3.559   0.109   2.731  0.1218  0.0470  0.5863
    1SOL     OW 6573   3.546   0.351   2.629 -0.2274 -0.7068  0.3414
    1SOL    HW2 6574   3.630   0.390   2.653 -0.3544 -0.5632  0.5562
    1SOL    HW3 6575   3.481   0.405   2.673 -0.5284  0.2689 -1.2368
    1SOL    MW4 6576   3.548   0.363   2.638 -0.2840 -0.5592  0.1616
    1SOL     OW 6577   3.795   0.443   2.712  0.2082 -0.2682  0.0267
    1SOL    HW2 6578   3.801   0.437   2.807  1.1654  0.1656  0.0049
    1SOL    HW3 6579   3.884   0.429   2.681  0.3438  1.9146 -0.6586
    1SOL    MW4 6580   3.807   0.441   2.720  0.3526  0.0770 -0.0665
    1SOL     OW 6581   3.798   0.705   2.590  0.4787  0.0808  0.0962
    1SOL    HW2 6582   3.733   0.760   2.634  0.0328 -1.0320  0.8579
    1SOL    HW3 6583   3.793   0.621   2.636  1.6292 -0.3809 -0.6089
    1SOL    MW4 6584   3.789   0.701   2.602  0.5717 -0.1270  0.1035
    1SOL     OW 6585   3.607   0.875   2.700  0.8636 -0.6834  0.0986
    1SOL    HW2 6586   3.615   0.873   2.795  0.3160 -1.0315  0.1382
    1SOL    HW3 6587   3.613   0.968   2.678 -1.0541 -0.3910  0.6658
    1SOL    MW4 6588   3.609   0.887   2.710  0.5383 -0.6908  0.1788
    1SOL     OW 6589   3.607   1.143   2.619 -0.4966  0.0518 -0.4997
    1SOL    HW2 6590   3.689   1.176   2.654 -0.7631 -0.2574  0.4172
    1SOL    HW3 6591   3.539   1.188   2.670 -0.8951  0.2005 -1.1533
    1SOL    MW4 6592   3.609   1.153   2.630 -0.5841  0.0305 -0.4652
    1SOL     OW 6593   3.818   1.257   2.752 -0.3327 -0.1387 -0.2995
    1SOL    HW2 6594   3.897   1.231   2.704  0.6262  0.9292  0.6831
    1SOL    HW3 6595   3.794   1.341   2.715 -0.9402 -0.3985 -0.5029
    1SOL    MW4 6596   3.825   1.265   2.741 -0.2861 -0.0321 -0.1969
    1SOL     OW 6597   3.794   1.492   2.610  0.1941  0.5795 -0.0392
    1SOL    HW2 6598   3.871   1.529   2.653  0.2219  1.0463 -0.4934
    1SOL    HW3 6599   3.720   1.543   2.645 -0.0139 -0.4405  1.0648
    1SOL    MW4 6600   3.794   1.504   2.621  0.1702  0.5066  0.0465
    1SOL     OW 6601   3.603   1.672   2.731  0.7091  0.3143  0.1272
    1SOL    HW2 6602   3.601   1.762   2.700  1.7884  0.5475  0.7093
    1SOL    HW3 6603   3.525   1.631   2.692  0.4966  1.3518 -0.5520
    1SOL    MW4 6604   3.592   1.678   2.721  0.8233  0.4821  0.1144
    1SOL     OW 6605   3.607   1.936   2.634  0.0064  0.0113  0.1828
    1SOL    HW2 6606   3.529   1.986   2.659  0.4151  1.3862 -1.1811
    1SOL    HW3 6607   3.595   1.918   2.541  0.4254 -1.4499  0.3976
    1SOL    MW4 6608   3.595   1.940   2.625  0.1156  0.0000  0.0310
    1SOL     OW 6609   3.829   2.061   2.722 -0.1533 -0.0451 -0.3589
    1SOL    HW2 6610   3.896   1.997   2.698  0.2625  0.8136 -1.5522
    1SOL    HW3 6611   3.746   2.015   2.705  0.1374 -0.2600 -1.2639
    1SOL    MW4 6612   3.827   2.046   2.716 -0.0598  0.0398 -0.6356
    1SOL     OW 6613   3.777   2.325   2.621 -0.0081 -0.1110  0.5943
    1SOL    HW2 6614   3.807   2.237   2.645 -0.0017 -0.3619 -0.3181
    1SOL    HW3 6615   3.814   2.340   2.534 -0.9522  0.3412  0.2636
    1SOL    MW4 6616   3.786   2.315   2.612 -0.1318 -0.0844  0.4303
    1SOL     OW 6617   3.539   2.455   2.721  0.0362  0.6727 -0.5596
    1SOL    HW2 6618   3.544   2.440   2.815 -1.3973  2.0468 -0.2318
    1SOL    HW3 6619   3.606   2.398   2.683  0.5508  0.0340  1.2777
    1SOL    MW4 6620   3.549   2.446   2.728 -0.0851  0.7696 -0.2739
    1SOL     OW 6621   3.558   2.712   2.625 -0.9333  0.2871 -0.2494
    1SOL    HW2 6622   3.558   2.620   2.653  2.3778  0.4827  0.6755
    1SOL    HW3 6623   3.567   2.708   2.530  0.7516 -0.4005 -0.0897
    1SOL    MW4 6624   3.559   2.699   2.617 -0.2742  0.2222 -0.1063
    1SOL     OW 6625   3.795   2.830   2.717 -0.0943 -0.0227  0.0716
    1SOL    HW2 6626   3.875   2.795   2.678 -0.6079  0.6117 -1.6141
    1SOL    HW3 6627   3.725   2.782   2.674 -0.7126  1.4610 -0.6089
    1SOL    MW4 6628   3.797   2.819   2.706 -0.2434  0.2568 -0.2403
    1SOL     OW 6629   3.822   3.118   2.660  0.4054 -0.0481 -0.0136
    1SOL    HW2 6630   3.749   3.164   2.701  1.0941 -0.3065  1.5409
    1SOL    HW3 6631   3.809   3.026   2.683  0.2421 -0.3472 -1.2540
    1SOL    MW4 6632   3.811   3.112   2.668  0.4747 -0.1216  0.0281
    1SOL     OW 6633   3.585   3.253   2.743  0.5599  0.0593 -0.3343
    1SOL    HW2 6634   3.574   3.344   2.713  0.0452  0.3505  0.6992
    1SOL    HW3 6635   3.516   3.205   2.698 -1.2537  0.7908  1.5657
    1SOL    MW4 6636   3.574   3.259   2.733  0.2527  0.1943  0.0527
    1SOL     OW 6637   3.601   3.498   2.620  0.2634 -0.1799  0.0718
    1SOL    HW2 6638   3.677   3.530   2.669  0.4315  0.8333 -0.8473
    1SOL    HW3 6639   3.526   3.543   2.659  0.3571  0.3526 -0.3642
    1SOL    MW4 6640   3.601   3.508   2.632  0.2980  0.0238 -0.1070
    1SOL     OW 6641   3.811   3.618   2.768  0.1447 -0.1379 -0.0674
    1SOL    HW2 6642   3.885   3.562   2.745  1.0242  1.2881 -0.7436
    1SOL    HW3 6643   3.824   3.698   2.717 -1.2857  0.5594  0.6224
    1SOL    MW4 6644   3.822   3.621   2.758  0.0722  0.1423 -0.0656
    1SOL     OW 6645   3.821   3.867   2.633  0.0102  0.0091  0.3312
    1SOL    HW2 6646   3.892   3.923   2.664 -0.3880  1.0004 -0.4934
    1SOL    HW3 6647   3.743   3.900   2.677 -0.0281 -0.7249  0.8195
    1SOL    MW4 6648   3.820   3.879   2.643 -0.0470  0.0427  0.2871
    1SOL     OW 6649   3.573   3.978   2.714 -0.0169 -0.1019 -0.1416
    1SOL    HW2 6650   3.564   4.069   2.686 -0.3951  0.0625  0.5156
    1SOL    HW3 6651   3.494   3.934   2.682 -1.3406  0.4864  2.2343
    1SOL    MW4 6652   3.562   3.984   2.706 -0.2413 -0.0024  0.2584
    1SOL     OW 6653   3.565   4.266   2.666  0.2966  0.3637 -0.0343
    1SOL    HW2 6654   3.488   4.312   2.700  0.0512  2.0314 -2.6789
    1SOL    HW3 6655   3.559   4.277   2.571  2.0443 -2.3413 -0.4980
    1SOL    MW4 6656   3.554   4.274   2.658  0.4950  0.2270 -0.4442
    1SOL     OW 6657   3.785   4.409   2.730 -0.3385  0.0432  0.4700
    1SOL    HW2 6658   3.861   4.356   2.704  0.4626 -0.2413  3.1720
    1SOL    HW3 6659   3.710   4.352   2.718  0.1738 -0.5969  0.2915
    1SOL    MW4 6660   3.785   4.395   2.725 -0.1652 -0.0787  0.8030
    1SOL     OW 6661   4.238   4.602   2.645 -0.0579  0.0106  0.3355
    1SOL    HW2 6662   4.170   4.662   2.674  0.3094  0.8930 -0.6137
    1SOL    HW3 6663   4.320   4.645   2.668  0.2015 -0.4163  0.2210
    1SOL    MW4 6664   4.240   4.615   2.651  0.0248  0.0706  0.1953
    1SOL     OW 6665   4.031   0.096   2.752 -0.2647  0.1241  0.8405
    1SOL    HW2 6666   4.041   0.080   2.846 -0.9050 -1.7715  0.6220
    1SOL    HW3 6667   3.942   0.066   2.732  0.2884 -0.6319 -0.5747
    1SOL    MW4 6668   4.020   0.090   2.762 -0.2761 -0.2257  0.6251
    1SOL     OW 6669   4.047   0.358   2.635  0.1037 -0.0615 -0.2626
    1SOL    HW2 6670   4.059   0.267   2.660  1.4385  0.0663 -0.4259
    1SOL    HW3 6671   4.026   0.356   2.542  0.4002 -0.1788 -0.3253
    1SOL    MW4 6672   4.046   0.346   2.626  0.3190 -0.0600 -0.2925
    1SOL     OW 6673   4.237   0.488   2.772  0.5894 -0.0875  0.1671
    1SOL    HW2 6674   4.160   0.437   2.747  0.6129 -0.5346  1.0023
    1SOL    HW3 6675   4.311   0.443   2.731  0.7848 -1.6119  2.1324
    1SOL    MW4 6676   4.237   0.476   2.763  0.6185 -0.3476  0.5367
    1SOL     OW 6677   4.237   0.740   2.665  0.0859  0.2130 -0.1296
    1SOL    HW2 6678   4.246   0.654   2.706 -0.1737  0.4651  0.4664
    1SOL    HW3 6679   4.261   0.726   2.574  1.3873 -0.2115  0.2606
    1SOL    MW4 6680   4.241   0.727   2.659  0.2236  0.1903  0.0005
    1SOL     OW 6681   4.020   0.886   2.716 -0.2011 -0.0906 -0.0635
    1SOL    HW2 6682   4.099   0.836   2.697 -0.1142 -0.1639  0.5075
    1SOL    HW3 6683   3.948   0.827   2.693 -0.0934 -0.0101 -0.6193
    1SOL    MW4 6684   4.021   0.872   2.710 -0.1755 -0.0896 -0.0613
    1SOL     OW 6685   4.051   1.141   2.623  0.4301  0.2191 -0.1550
    1SOL    HW2 6686   4.122   1.193   2.661  0.3174  0.4432 -0.2500
    1SOL    HW3 6687   4.055   1.057   2.670  0.4775  0.3880  0.1455
    1SOL    MW4 6688   4.061   1.137   2.635  0.4210  0.2710 -0.1280
    1SOL     OW 6689   4.279   1.275   2.685  0.0943  0.5145 -0.0896
    1SOL    HW2 6690   4.297   1.368   2.672  0.7428  0.3686 -0.2281
    1SOL    HW3 6691   4.360   1.230   2.663 -0.4517 -0.1506 -0.7945
    1SOL    MW4 6692   4.292   1.281   2.681  0.1078  0.4076 -0.2007
    1SOL     OW 6693   4.276   1.554   2.631 -0.4041  0.5206  0.1447
    1SOL    HW2 6694   4.359   1.592   2.660 -0.0655 -0.4180  0.4190
    1SOL    HW3 6695   4.275   1.570   2.536 -1.0154  2.6277  0.4773
    1SOL    MW4 6696   4.287   1.561   2.622 -0.4401  0.6747  0.2248
    1SOL     OW 6697   4.023   1.598   2.729  0.2771 -0.0958  0.1336
    1SOL    HW2 6698   4.039   1.617   2.822  1.4587 -2.0154  0.3593
    1SOL    HW3 6699   4.110   1.584   2.693 -0.3117 -1.2434 -0.8419
    1SOL    MW4 6700   4.036   1.599   2.737  0.3557 -0.5004  0.0346
    1SOL     OW 6701   4.027   1.881   2.625  0.0375  0.2042 -0.0825
    1SOL    HW2 6702   4.100   1.936   2.654 -1.1572  1.1574  1.1332
    1SOL    HW3 6703   4.046   1.795   2.662 -0.0680  0.7459  1.2651
    1SOL    MW4 6704   4.039   1.877   2.633 -0.1335  0.4014  0.2558
    1SOL     OW 6705   4.228   2.044   2.682 -0.0185  0.2141 -0.6238
    1SOL    HW2 6706   4.221   2.140   2.676 -0.4703  0.1626 -0.9730
    1SOL    HW3 6707   4.317   2.024   2.655  0.3606  0.6097  0.3088
    1SOL    MW4 6708   4.239   2.054   2.678 -0.0277  0.2594 -0.5469
    1SOL     OW 6709   4.257   2.325   2.633 -0.1477  0.4556  0.1635
    1SOL    HW2 6710   4.175   2.370   2.654 -1.3184 -2.1029  1.3096
    1SOL    HW3 6711   4.253   2.309   2.539 -0.4254  1.3573  0.0182
    1SOL    MW4 6712   4.246   2.329   2.623 -0.3386  0.2370  0.2956
    1SOL     OW 6713   4.017   2.454   2.704 -0.8851 -0.0598  0.1172
    1SOL    HW2 6714   4.024   2.448   2.799  0.2359  0.7026  0.0922
    1SOL    HW3 6715   3.937   2.407   2.683  0.2281 -2.5200  1.1933
    1SOL    MW4 6716   4.007   2.447   2.714 -0.5898 -0.2837  0.2558
    1SOL     OW 6717   4.006   2.711   2.583 -0.3294  0.0337  0.1907
    1SOL    HW2 6718   4.082   2.743   2.632 -1.3413 -0.3430  2.0469
    1SOL    HW3 6719   3.986   2.626   2.622 -1.0995 -0.3138 -0.9479
    1SOL    MW4 6720   4.013   2.704   2.595 -0.5646 -0.0618  0.2854
    1SOL     OW 6721   4.225   2.798   2.715 -0.1572  0.5844 -0.2802
    1SOL    HW2 6722   4.227   2.794   2.811 -0.1960 -0.0027 -0.2991
    1SOL    HW3 6723   4.221   2.891   2.695 -1.9485  0.6512  0.3201
    1SOL    MW4 6724   4.225   2.810   2.725 -0.3991  0.5155 -0.2036
    1SOL     OW 6725   4.260   3.074   2.636 -0.4965 -0.4289  0.2847
    1SOL    HW2 6726   4.184   3.121   2.672 -0.6608 -0.9559  0.6225
    1SOL    HW3 6727   4.254   3.089   2.542 -0.1615  0.8084  0.4494
    1SOL    MW4 6728   4.249   3.082   2.628 -0.4745 -0.3352  0.3510
    1SOL     OW 6729   4.048   3.225   2.759  0.0148 -0.2961 -0.5239
    1SOL    HW2 6730   4.037   3.316   2.730 -0.7364  0.4154  1.8734
    1SOL    HW3 6731   3.966   3.183   2.737 -0.1634 -0.0326 -0.3683
    1SOL    MW4 6732   4.036   3.232   2.752 -0.1082 -0.1676 -0.1872
    1SOL     OW 6733   4.023   3.489   2.669 -0.2759 -0.0563 -0.0334
    1SOL    HW2 6734   4.102   3.527   2.708 -0.2657  0.0414 -0.1514
    1SOL    HW3 6735   4.039   3.490   2.575 -1.4634  2.3092 -0.2424
    1SOL    MW4 6736   4.035   3.494   2.662 -0.4315  0.2687 -0.0765
    1SOL     OW 6737   4.248   3.612   2.755  0.1954 -0.5351  0.2887
    1SOL    HW2 6738   4.247   3.599   2.849 -0.3740  0.4685  0.4292
    1SOL    HW3 6739   4.319   3.557   2.723 -0.6949 -2.1807  1.1105
    1SOL    MW4 6740   4.257   3.603   2.763  0.0024 -0.6196  0.4158
    1SOL     OW 6741   4.256   3.869   2.642  0.3879 -0.1333 -0.6399
    1SOL    HW2 6742   4.271   3.778   2.668 -0.2479  0.4371  1.9518
    1SOL    HW3 6743   4.330   3.917   2.680 -0.3077  0.6752 -0.2833
    1SOL    MW4 6744   4.268   3.863   2.651  0.2122  0.0489 -0.2508
    1SOL     OW 6745   4.032   3.980   2.741  0.5404  0.4603  0.1454
    1SOL    HW2 6746   4.054   3.983   2.834 -0.4113 -0.5594  0.4179
    1SOL    HW3 6747   4.103   3.931   2.700  0.6835  0.4376  0.4238
    1SOL    MW4 6748   4.044   3.974   2.748  0.4334  0.3228  0.2179
    1SOL     OW 6749   4.011   4.236   2.642  0.4742  0.0478  0.1627
    1SOL    HW2 6750   4.015   4.146   2.671 -0.6375  0.1269  0.5898
    1SOL    HW3 6751   4.035   4.233   2.549  1.7218 -0.5019  0.4958
    1SOL    MW4 6752   4.014   4.224   2.634  0.4921 -0.0143  0.2630
    1SOL     OW 6753   4.264   4.356   2.780  0.1285 -0.3133  0.2405
    1SOL    HW2 6754   4.197   4.297   2.745 -0.2714  0.1623  0.2084
    1SOL    HW3 6755   4.243   4.442   2.743  1.2731 -0.3258 -0.4858
    1SOL    MW4 6756   4.253   4.359   2.770  0.2265 -0.2518  0.1407
    1SOL     OW 6757   0.196   4.630   3.123 -0.1817 -0.0260 -0.0885
    1SOL    HW2 6758   0.194   4.630   3.218  1.1473 -0.4874 -0.0436
    1SOL    HW3 6759   0.114   4.672   3.097  0.4589  2.1626  1.2959
    1SOL    MW4 6760   0.185   4.636   3.132  0.0782  0.2022  0.1001
    1SOL     OW 6761   4.458   0.117   2.993  0.3222  0.0955 -0.0123
    1SOL    HW2 6762   4.384   0.071   3.032  0.7493 -0.0334  0.6639
    1SOL    HW3 6763   4.460   0.202   3.038  1.2389 -0.3238  0.7627
    1SOL    MW4 6764   4.449   0.122   3.004  0.4997  0.0231  0.1793
    1SOL     OW 6765   4.434   0.353   3.139 -0.2415 -0.3791 -0.1584
    1SOL    HW2 6766   4.422   0.328   3.231 -2.3694 -2.1677 -0.8780
    1SOL    HW3 6767   4.359   0.408   3.119 -0.5036 -1.0873 -1.1716
    1SOL    MW4 6768   4.423   0.357   3.148 -0.5560 -0.7085 -0.3872
    1SOL     OW 6769   0.161   0.484   3.004 -0.0828 -0.7441 -0.0175
    1SOL    HW2 6770   0.233   0.428   3.033 -0.7158 -0.3426  2.4569
    1SOL    HW3 6771   0.085   0.451   3.053 -0.9622  0.6872 -0.4136
    1SOL    MW4 6772   0.161   0.472   3.014 -0.2824 -0.5023  0.2568
    1SOL     OW 6773   0.215   0.732   3.093  0.1115 -0.1264  0.3528
    1SOL    HW2 6774   0.202   0.736   3.187  0.7235  0.5385  0.4043
    1SOL    HW3 6775   0.200   0.639   3.071 -0.6234 -0.1678  1.0035
    1SOL    MW4 6776   0.211   0.720   3.102  0.0953 -0.0442  0.4454
    1SOL     OW 6777   4.457   0.837   3.029 -0.7740 -0.3275 -0.0929
    1SOL    HW2 6778   4.532   0.783   3.056 -0.4566 -0.0244 -0.3593
    1SOL    HW3 6779   4.472   0.852   2.936 -1.2991 -0.4703 -0.1995
    1SOL    MW4 6780   4.469   0.832   3.020 -0.8011 -0.3064 -0.1421
    1SOL     OW 6781   0.003   1.123   3.094  0.0987  0.0972  0.0496
    1SOL    HW2 6782  -0.065   1.170   3.045 -0.8587 -1.4866 -0.1917
    1SOL    HW3 6783  -0.012   1.031   3.073  1.3185 -0.4019  1.2772
    1SOL    MW4 6784  -0.008   1.117   3.085  0.1330 -0.1776  0.1795
    1SOL     OW 6785   0.226   1.271   3.036  0.0799  0.1161 -0.3044
    1SOL    HW2 6786   0.152   1.218   3.066 -0.5439  0.2857 -1.4925
    1SOL    HW3 6787   0.223   1.263   2.940  1.4593  0.3210 -0.3676
    1SOL    MW4 6788   0.216   1.263   3.027  0.1796  0.1655 -0.4694
    1SOL     OW 6789   0.217   1.563   3.109 -0.0505 -0.3407 -0.2335
    1SOL    HW2 6790   0.130   1.592   3.080  0.4027  0.2055 -1.0779
    1SOL    HW3 6791   0.221   1.471   3.084 -0.8519 -0.6950  0.9157
    1SOL    MW4 6792   0.206   1.555   3.102 -0.0964 -0.3154 -0.1931
    1SOL     OW 6793   4.476   1.672   2.997 -0.4520  0.5365  0.9160
    1SOL    HW2 6794   4.401   1.642   3.049 -0.6903  1.3378  1.0431
    1SOL    HW3 6795   4.482   1.765   3.016  0.5719  0.4768  0.8809
    1SOL    MW4 6796   4.467   1.680   3.006 -0.3483  0.6343  0.9279
    1SOL     OW 6797   0.003   1.924   3.099  0.1525 -0.0082 -0.2290
    1SOL    HW2 6798  -0.072   1.965   3.057  0.3775  0.7941  0.1524
    1SOL    HW3 6799   0.079   1.970   3.064  0.4061 -0.1417  0.1394
    1SOL    MW4 6800   0.003   1.935   3.089  0.2156  0.0800 -0.1299
    1SOL     OW 6801   0.253   2.043   2.997  0.3538  0.0895  0.3368
    1SOL    HW2 6802   0.244   2.137   3.008  0.2598 -0.0288  1.3239
    1SOL    HW3 6803   0.249   2.029   2.902 -1.6697  0.8863  0.2738
    1SOL    MW4 6804   0.251   2.053   2.986  0.0744  0.1791  0.4590
    1SOL     OW 6805   0.221   2.327   3.085 -0.0201 -0.0356  0.4709
    1SOL    HW2 6806   0.214   2.318   3.180  1.6748 -0.0336  0.6141
    1SOL    HW3 6807   0.298   2.383   3.072  0.0122 -0.3908 -0.9163
    1SOL    MW4 6808   0.230   2.333   3.096  0.2078 -0.0825  0.3066
    1SOL     OW 6809   4.486   2.454   2.973 -0.1482 -0.1889 -0.4656
    1SOL    HW2 6810   4.472   2.533   3.027  0.5077  0.4975 -1.2810
    1SOL    HW3 6811   4.562   2.412   3.012 -1.6882 -1.5167  1.2047
    1SOL    MW4 6812   4.494   2.459   2.985 -0.2651 -0.2737 -0.3529
    1SOL     OW 6813   4.435   2.694   3.112 -0.0464  0.3681  0.1801
    1SOL    HW2 6814   4.432   2.695   3.208  2.3837 -2.0298  0.3083
    1SOL    HW3 6815   4.512   2.747   3.090  0.8245 -1.1008 -0.3452
    1SOL    MW4 6816   4.445   2.701   3.122  0.3896 -0.1421  0.1276
    1SOL     OW 6817   0.209   2.839   3.072 -0.0198 -0.0466  0.9170
    1SOL    HW2 6818   0.289   2.801   3.106  0.7778  1.8444  1.2115
    1SOL    HW3 6819   0.224   2.847   2.978  0.0322  0.0269  0.9309
    1SOL    MW4 6820   0.221   2.835   3.064  0.0923  0.2129  0.9575
    1SOL     OW 6821   0.183   3.099   3.137 -0.1418  0.2679 -0.1016
    1SOL    HW2 6822   0.102   3.143   3.111  0.3024  0.5928 -0.9657
    1SOL    HW3 6823   0.169   3.007   3.114  0.1596  0.5136 -1.2995
    1SOL    MW4 6824   0.170   3.093   3.130 -0.0434  0.3433 -0.3736
    1SOL     OW 6825   4.462   3.231   3.030  0.0441 -0.5512  0.3414
    1SOL    HW2 6826   4.380   3.191   3.059  0.9372 -1.8496  1.1513
    1SOL    HW3 6827   4.456   3.232   2.934 -1.4762  0.6003  0.4470
    1SOL    MW4 6828   4.451   3.226   3.021 -0.0381 -0.5705  0.4618
    1SOL     OW 6829   4.479   3.482   3.134 -0.4800  0.0425  0.0027
    1SOL    HW2 6830   4.398   3.519   3.100 -0.1332 -0.8081 -1.8186
    1SOL    HW3 6831   4.480   3.392   3.103  1.4399  0.2133 -0.5387
    1SOL    MW4 6832   4.468   3.475   3.125 -0.1807 -0.0470 -0.3092
    1SOL     OW 6833   0.228   3.581   3.029 -0.0988 -0.2752  0.2902
    1SOL    HW2 6834   0.223   3.675   3.048 -0.4996 -0.5947  1.8513
    1SOL    HW3 6835   0.150   3.544   3.072  1.0890 -1.5915  1.3517
    1SOL    MW4 6836   0.217   3.589   3.037  0.0051 -0.4909  0.6363
    1SOL     OW 6837   0.227   3.839   3.124  0.2994  0.7602 -0.5783
    1SOL    HW2 6838   0.210   3.828   3.218  0.7050  0.6573 -0.5184
    1SOL    HW3 6839   0.308   3.890   3.120 -0.2791  1.6704 -0.8694
    1SOL    MW4 6840   0.235   3.845   3.136  0.2766  0.8667 -0.6089
    1SOL     OW 6841   0.008   4.003   3.028  0.5805  0.4545  0.1939
    1SOL    HW2 6842   0.085   3.949   3.046 -0.6420 -1.4998 -0.2928
    1SOL    HW3 6843   0.010   4.018   2.933 -1.3207 -2.3160 -0.3463
    1SOL    MW4 6844   0.018   3.998   3.018  0.1683 -0.1690  0.0584
    1SOL     OW 6845   4.440   4.248   3.154 -0.2428  0.2976  0.3826
    1SOL    HW2 6846   4.472   4.234   3.243 -0.6347  0.4506  0.5491
    1SOL    HW3 6847   4.460   4.167   3.108 -0.3169  0.1031  0.6921
    1SOL    MW4 6848   4.447   4.235   3.160 -0.3042  0.2918  0.4454
    1SOL     OW 6849   0.208   4.365   3.062  0.1452 -0.3829  0.2271
    1SOL    HW2 6850   0.118   4.341   3.083 -0.0331  0.2467  0.1635
    1SOL    HW3 6851   0.216   4.457   3.087  0.8861 -0.5421  0.5991
    1SOL    MW4 6852   0.197   4.374   3.068  0.2195 -0.3214  0.2680
    1SOL     OW 6853   0.642   0.020   3.082  0.4000  0.3762  0.3256
    1SOL    HW2 6854   0.643  -0.076   3.074  2.0222  0.3062  0.9672
    1SOL    HW3 6855   0.554   0.046   3.057 -0.0506 -1.2942  0.1129
    1SOL    MW4 6856   0.631   0.011   3.078  0.5545  0.1466  0.3824
    1SOL     OW 6857   0.397   0.115   2.987  0.0671 -0.5068  0.0480
    1SOL    HW2 6858   0.394   0.200   3.030  2.1514 -0.1500 -0.4254
    1SOL    HW3 6859   0.329   0.064   3.029 -1.6567  1.6016 -0.1220
    1SOL    MW4 6860   0.388   0.119   2.998  0.1146 -0.1815 -0.0370
    1SOL     OW 6861   0.397   0.377   3.107 -0.5824  0.0564  0.3345
    1SOL    HW2 6862   0.405   0.380   3.203  0.7683 -1.8559  0.3130
    1SOL    HW3 6863   0.477   0.418   3.074 -0.7759  0.1821  0.0165
    1SOL    MW4 6864   0.408   0.383   3.116 -0.4297 -0.1793  0.2897
    1SOL     OW 6865   0.638   0.473   3.020  0.2285  0.1260  0.0573
    1SOL    HW2 6866   0.726   0.437   3.031  0.2380 -0.1222 -0.7650
    1SOL    HW3 6867   0.640   0.556   3.067  0.2545 -0.8538  1.8080
    1SOL    MW4 6868   0.650   0.479   3.027  0.2332 -0.0360  0.1798
    1SOL     OW 6869   0.633   0.749   3.114 -0.6086  0.0482 -0.3348
    1SOL    HW2 6870   0.625   0.760   3.208 -1.6774 -0.8064 -0.3121
    1SOL    HW3 6871   0.719   0.786   3.092  0.4567 -1.3947  1.2368
    1SOL    MW4 6872   0.644   0.755   3.123 -0.6090 -0.2550 -0.1247
    1SOL     OW 6873   0.417   0.880   2.961 -0.5122  0.1803  0.0236
    1SOL    HW2 6874   0.341   0.847   3.008 -1.8343  1.3668 -1.2261
    1SOL    HW3 6875   0.491   0.830   2.996 -2.0350 -1.9332  0.3153
    1SOL    MW4 6876   0.417   0.869   2.972 -0.8875  0.0580 -0.1032
    1SOL     OW 6877   0.452   1.138   3.075  0.4540 -0.3093 -0.7640
    1SOL    HW2 6878   0.439   1.048   3.048  0.1804 -0.2864 -0.7053
    1SOL    HW3 6879   0.373   1.184   3.046  0.0549 -0.3286  0.2628
    1SOL    MW4 6880   0.440   1.132   3.067  0.3652 -0.3090 -0.6208
    1SOL     OW 6881   0.677   1.255   2.968  0.3162 -0.1044 -0.0145
    1SOL    HW2 6882   0.756   1.230   3.016  0.3529 -1.5119 -0.7761
    1SOL    HW3 6883   0.605   1.214   3.016  0.1967 -0.0969 -0.1859
    1SOL    MW4 6884   0.678   1.247   2.981  0.3054 -0.2890 -0.1378
    1SOL     OW 6885   0.648   1.485   3.118 -0.2432  0.3340  0.3436
    1SOL    HW2 6886   0.652   1.466   3.212  1.4762  1.6682  0.5840
    1SOL    HW3 6887   0.674   1.403   3.076  1.8345  0.5425  1.1558
    1SOL    MW4 6888   0.652   1.472   3.125  0.2578  0.5376  0.4823
    1SOL     OW 6889   0.465   1.640   2.991 -0.4917 -0.2179  0.3088
    1SOL    HW2 6890   0.538   1.593   3.032 -0.4294 -0.0680  0.3737
    1SOL    HW3 6891   0.387   1.605   3.033 -0.5798 -1.5484 -0.9205
    1SOL    MW4 6892   0.464   1.629   3.002 -0.4951 -0.3736  0.1550
    1SOL     OW 6893   0.442   1.901   3.130 -0.1269  0.2831 -0.2844
    1SOL    HW2 6894   0.449   1.818   3.083 -0.4504  0.1998 -0.1848
    1SOL    HW3 6895   0.377   1.951   3.082 -1.3627 -0.2819  0.7806
    1SOL    MW4 6896   0.434   1.896   3.117 -0.3327  0.1976 -0.1304
    1SOL     OW 6897   0.689   2.036   3.029  0.1199 -0.0603  0.0722
    1SOL    HW2 6898   0.768   1.988   3.053 -0.1989 -0.5269  0.1972
    1SOL    HW3 6899   0.617   1.980   3.059 -0.2470  0.9537  1.0908
    1SOL    MW4 6900   0.690   2.022   3.036  0.0294  0.0119  0.2229
    1SOL     OW 6901   0.642   2.276   3.142 -0.1704 -0.5080  0.6893
    1SOL    HW2 6902   0.645   2.275   3.237 -0.1752  0.5964  0.7003
    1SOL    HW3 6903   0.658   2.185   3.117 -0.2292 -0.8128  1.7412
    1SOL    MW4 6904   0.645   2.264   3.151 -0.1788 -0.4027  0.8292
    1SOL     OW 6905   0.463   2.445   3.040  0.5632 -0.0025 -0.0322
    1SOL    HW2 6906   0.525   2.377   3.067  1.1936  1.1056  1.3514
    1SOL    HW3 6907   0.474   2.452   2.945  0.4011 -1.9128 -0.2046
    1SOL    MW4 6908   0.472   2.437   3.031  0.6249 -0.1082  0.1276
    1SOL     OW 6909   0.469   2.717   3.109 -0.9737  0.1699 -0.5378
    1SOL    HW2 6910   0.555   2.745   3.076 -0.1526 -0.8006  0.7116
    1SOL    HW3 6911   0.472   2.621   3.104 -2.0182  0.1407 -0.5564
    1SOL    MW4 6912   0.481   2.708   3.104 -1.0032  0.0379 -0.3757
    1SOL     OW 6913   0.692   2.822   2.989  0.0982  0.4111 -0.0876
    1SOL    HW2 6914   0.778   2.797   3.021  1.2026  1.3972 -2.1579
    1SOL    HW3 6915   0.681   2.912   3.018  0.2373  0.6327 -0.7022
    1SOL    MW4 6916   0.702   2.831   2.997  0.2623  0.5703 -0.4418
    1SOL     OW 6917   0.652   3.076   3.110 -0.2876 -0.3866 -0.1052
    1SOL    HW2 6918   0.634   3.065   3.203 -1.7807 -1.8818 -0.5235
    1SOL    HW3 6919   0.571   3.113   3.074 -0.3083 -1.2994 -1.0426
    1SOL    MW4 6920   0.639   3.079   3.117 -0.4873 -0.7045 -0.2842
    1SOL     OW 6921   0.424   3.197   3.013  0.1178 -0.3079  0.0605
    1SOL    HW2 6922   0.445   3.278   3.060  0.7630  0.7752 -2.0019
    1SOL    HW3 6923   0.348   3.161   3.059 -0.6258  1.8563  0.5820
    1SOL    MW4 6924   0.417   3.203   3.025  0.1048  0.1202 -0.1428
    1SOL     OW 6925   0.462   3.463   3.125  0.1779 -0.3353  0.0824
    1SOL    HW2 6926   0.454   3.462   3.220  0.9576 -1.1861  0.1377
    1SOL    HW3 6927   0.383   3.509   3.095 -0.3316 -0.5420  1.1064
    1SOL    MW4 6928   0.450   3.469   3.134  0.2136 -0.4747  0.2251
    1SOL     OW 6929   0.698   3.585   3.041  0.4780 -0.5143 -0.3515
    1SOL    HW2 6930   0.772   3.530   3.069  0.6139 -0.6139 -0.9108
    1SOL    HW3 6931   0.621   3.539   3.072  0.6087 -0.8410 -0.5169
    1SOL    MW4 6932   0.698   3.572   3.049  0.5132 -0.5705 -0.4470
    1SOL     OW 6933   0.671   3.839   3.107 -0.3660 -0.0350  0.2920
    1SOL    HW2 6934   0.668   3.855   3.201  0.7760  1.5523  0.0743
    1SOL    HW3 6935   0.694   3.747   3.100  1.0504  0.2002  1.5707
    1SOL    MW4 6936   0.673   3.829   3.119 -0.0284  0.2055  0.4320
    1SOL     OW 6937   0.449   3.992   3.024 -0.0376 -0.3209  0.4355
    1SOL    HW2 6938   0.527   3.939   3.041 -0.3127 -0.8523  0.0683
    1SOL    HW3 6939   0.448   4.003   2.929 -1.8878 -2.6298  0.1460
    1SOL    MW4 6940   0.459   3.986   3.014 -0.3180 -0.6959  0.3488
    1SOL     OW 6941   0.450   4.240   3.154  0.3810 -0.0112 -0.0765
    1SOL    HW2 6942   0.466   4.155   3.113 -1.1554 -0.0558 -0.5896
    1SOL    HW3 6943   0.362   4.265   3.126  0.2088  1.0340  1.3291
    1SOL    MW4 6944   0.441   4.232   3.145  0.1556  0.1206  0.0412
    1SOL     OW 6945   0.659   4.419   3.060 -0.1820  0.1283 -0.4753
    1SOL    HW2 6946   0.577   4.378   3.085 -0.9349  1.6466 -0.4023
    1SOL    HW3 6947   0.665   4.404   2.965  0.0170 -0.9417 -0.2996
    1SOL    MW4 6948   0.649   4.412   3.051 -0.2552  0.1874 -0.4425
    1SOL     OW 6949   1.134   4.635   3.122 -0.3020  0.1268 -0.6439
    1SOL    HW2 6950   1.209   4.689   3.099 -0.5716  0.5951 -0.4249
    1SOL    HW3 6951   1.059   4.681   3.085 -0.5316 -0.0961 -0.4558
    1SOL    MW4 6952   1.134   4.648   3.114 -0.3678  0.1588 -0.5901
    1SOL     OW 6953   0.913   0.097   3.011 -0.0705 -0.1756  0.2532
    1SOL    HW2 6954   0.922   0.191   3.031 -1.7061  0.3975 -1.4563
    1SOL    HW3 6955   0.823   0.076   3.039 -0.5574 -0.6170 -1.5840
    1SOL    MW4 6956   0.902   0.107   3.017 -0.3507 -0.1582 -0.2148
    1SOL     OW 6957   0.891   0.356   3.091 -0.6519  0.1100  0.0582
    1SOL    HW2 6958   0.900   0.355   3.186 -1.3426 -0.7610  0.1171
    1SOL    HW3 6959   0.963   0.411   3.061  0.1364 -0.3731  1.0284
    1SOL    MW4 6960   0.902   0.363   3.100 -0.6391 -0.0686  0.1941
    1SOL     OW 6961   1.126   0.528   3.004 -0.0710 -0.2139 -0.3547
    1SOL    HW2 6962   1.212   0.501   3.038 -0.0226 -0.0761 -0.3687
    1SOL    HW3 6963   1.133   0.518   2.909 -0.3821 -1.1138 -0.2906
    1SOL    MW4 6964   1.139   0.523   2.996 -0.1055 -0.3144 -0.3481
    1SOL     OW 6965   1.050   0.768   3.131 -0.1940  0.1453  0.2915
    1SOL    HW2 6966   1.049   0.760   3.227 -0.1479  0.0756  0.2855
    1SOL    HW3 6967   1.077   0.682   3.100 -0.2927  0.1429  0.2119
    1SOL    MW4 6968   1.053   0.756   3.140 -0.2010  0.1358  0.2804
    1SOL     OW 6969   0.838   0.893   3.002  0.3452  0.0275  0.2132
    1SOL    HW2 6970   0.837   0.977   3.048  2.5247  0.7208 -0.9654
    1SOL    HW3 6971   0.914   0.847   3.037  0.2930 -0.6551 -0.5572
    1SOL    MW4 6972   0.848   0.898   3.012  0.6259  0.0289 -0.0443
    1SOL     OW 6973   0.884   1.151   3.125 -0.5600  0.4635 -0.7390
    1SOL    HW2 6974   0.889   1.143   3.220 -0.5764  0.1111 -0.7646
    1SOL    HW3 6975   0.968   1.188   3.099 -0.5709  0.5952 -0.5819
    1SOL    MW4 6976   0.896   1.155   3.134 -0.5636  0.4344 -0.7219
    1SOL     OW 6977   1.111   1.248   3.015  0.0118  0.5530  0.4774
    1SOL    HW2 6978   1.199   1.226   3.048  0.0753 -1.6966 -1.0771
    1SOL    HW3 6979   1.123   1.257   2.920 -1.1218  2.0548  0.4587
    1SOL    MW4 6980   1.124   1.246   3.007 -0.1292  0.4544  0.2701
    1SOL     OW 6981   1.112   1.505   3.143  0.1197 -0.1800 -0.1799
    1SOL    HW2 6982   1.183   1.561   3.109  0.3896  0.1116  0.8277
    1SOL    HW3 6983   1.113   1.428   3.087  1.6822 -0.4699  0.2235
    1SOL    MW4 6984   1.122   1.502   3.131  0.3616 -0.1798  0.0062
    1SOL     OW 6985   0.872   1.629   3.073  0.2984  0.2177  0.3330
    1SOL    HW2 6986   0.946   1.575   3.101  0.1222 -0.0511  0.2845
    1SOL    HW3 6987   0.795   1.576   3.091  0.1729  0.1101 -0.4949
    1SOL    MW4 6988   0.872   1.615   3.079  0.2586  0.1680  0.2172
    1SOL     OW 6989   0.919   1.890   3.121  0.0814  0.4854  0.4816
    1SOL    HW2 6990   0.933   1.887   3.216 -1.0306 -0.2757  0.6281
    1SOL    HW3 6991   0.903   1.799   3.096 -0.8286  0.8326 -0.2479
    1SOL    MW4 6992   0.919   1.878   3.130 -0.1854  0.4309  0.4046
    1SOL     OW 6993   1.126   2.048   3.063  0.2558  0.3712  0.1120
    1SOL    HW2 6994   1.055   1.990   3.088 -0.3248  1.0365  0.0390
    1SOL    HW3 6995   1.123   2.049   2.967  0.6538  0.0458  0.0958
    1SOL    MW4 6996   1.116   2.041   3.053  0.2317  0.4160  0.1004
    1SOL     OW 6997   1.149   2.322   3.125  0.2440  0.2883 -0.1818
    1SOL    HW2 6998   1.061   2.355   3.107  0.7268  1.2407 -0.7863
    1SOL    HW3 6999   1.141   2.227   3.114 -1.1095  0.1672  1.4110
    1SOL    MW4 7000   1.136   2.313   3.121  0.1291  0.3979 -0.0515
    1SOL     OW 7001   0.875   2.403   3.069 -0.2162  0.3259  0.0675
    1SOL    HW2 7002   0.793   2.362   3.098  0.2953 -1.6494 -1.2183
    1SOL    HW3 7003   0.871   2.399   2.974  1.6368 -0.3310  0.0070
    1SOL    MW4 7004   0.864   2.397   3.060  0.0957 -0.0215 -0.1101
    1SOL     OW 7005   0.926   2.690   3.108  0.3565 -0.1234 -0.1637
    1SOL    HW2 7006   0.935   2.704   3.202  0.5195 -0.9984 -0.0420
    1SOL    HW3 7007   0.914   2.595   3.099  0.6116 -0.0795 -1.0415
    1SOL    MW4 7008   0.926   2.679   3.119  0.4117 -0.2329 -0.2635
    1SOL     OW 7009   1.155   2.822   3.039  0.0743  0.2766 -0.2968
    1SOL    HW2 7010   1.142   2.902   3.089 -0.3531  0.0613 -0.0591
    1SOL    HW3 7011   1.076   2.770   3.056  0.2133 -0.0676 -0.6849
    1SOL    MW4 7012   1.143   2.825   3.048  0.0362  0.2029 -0.3166
    1SOL     OW 7013   1.136   3.067   3.181 -0.3061 -0.7433 -0.1127
    1SOL    HW2 7014   1.198   3.123   3.134 -0.4208 -0.8091 -0.3425
    1SOL    HW3 7015   1.050   3.104   3.161 -0.3307 -0.5080  0.3968
    1SOL    MW4 7016   1.133   3.080   3.172 -0.3247 -0.7207 -0.0758
    1SOL     OW 7017   0.915   3.199   3.057 -0.3246  0.2546  0.0839
    1SOL    HW2 7018   0.828   3.164   3.077 -1.0000  1.4353 -0.7186
    1SOL    HW3 7019   0.912   3.220   2.964  0.8632  0.2124  0.0301
    1SOL    MW4 7020   0.903   3.197   3.048 -0.2571  0.4051 -0.0291
    1SOL     OW 7021   0.914   3.451   3.177  0.2539 -0.1155  0.2415
    1SOL    HW2 7022   0.991   3.494   3.140 -0.6682  0.5222 -0.9789
    1SOL    HW3 7023   0.918   3.361   3.145 -0.3699  0.3509 -1.1753
    1SOL    MW4 7024   0.925   3.445   3.168  0.0499  0.0303 -0.1063
    1SOL     OW 7025   1.133   3.613   3.053 -0.6217 -0.3819  0.1709
    1SOL    HW2 7026   1.211   3.568   3.084 -1.1213 -1.2670  0.1628
    1SOL    HW3 7027   1.151   3.706   3.068  0.7271 -0.5258 -0.5334
    1SOL    MW4 7028   1.146   3.619   3.059 -0.5096 -0.5178  0.0770
    1SOL     OW 7029   1.135   3.876   3.104  0.1971 -0.0339  0.1264
    1SOL    HW2 7030   1.136   3.871   3.199  0.7415 -2.4408  0.0456
    1SOL    HW3 7031   1.061   3.932   3.083 -0.6346 -0.4193  1.9355
    1SOL    MW4 7032   1.126   3.882   3.114  0.1591 -0.4025  0.3545
    1SOL     OW 7033   0.880   4.000   3.027 -0.3931 -0.1652 -0.7283
    1SOL    HW2 7034   0.814   3.934   3.046  0.4767 -0.8664 -0.1367
    1SOL    HW3 7035   0.875   4.012   2.932 -0.8393 -0.7698 -0.7847
    1SOL    MW4 7036   0.871   3.993   3.017 -0.3372 -0.3374 -0.6573
    1SOL     OW 7037   0.884   4.284   3.087 -0.1077 -0.6125 -0.4868
    1SOL    HW2 7038   0.864   4.195   3.059 -0.3038 -0.9188  0.6092
    1SOL    HW3 7039   0.803   4.333   3.072 -0.4113 -0.9210  0.1499
    1SOL    MW4 7040   0.871   4.279   3.081 -0.1736 -0.6938 -0.2582
    1SOL     OW 7041   1.117   4.392   2.991  0.2784  0.2862  0.0626
    1SOL    HW2 7042   1.037   4.357   3.032 -0.2735 -0.5523 -1.6861
    1SOL    HW3 7043   1.126   4.480   3.027 -1.1198  0.1771  0.7140
    1SOL    MW4 7044   1.108   4.399   3.001  0.0211  0.1616 -0.0820
    1SOL     OW 7045   1.584   0.001   3.099  0.0507  0.5545  0.2744
    1SOL    HW2 7046   1.578   0.005   3.194  0.0095  1.3757  0.2353
    1SOL    HW3 7047   1.513   0.057   3.068 -0.6554 -0.6008 -0.2491
    1SOL    MW4 7048   1.573   0.009   3.107 -0.0479  0.5107  0.1998
    1SOL     OW 7049   1.338   0.136   3.051  0.3807  0.0078  0.0940
    1SOL    HW2 7050   1.328   0.231   3.060 -0.9445  0.1521 -2.3770
    1SOL    HW3 7051   1.340   0.121   2.956  0.1830 -2.4696  0.4483
    1SOL    MW4 7052   1.337   0.146   3.039  0.1798 -0.3000 -0.1853
    1SOL     OW 7053   1.339   0.397   3.094  0.3338 -0.1250 -0.4809
    1SOL    HW2 7054   1.335   0.377   3.187 -1.9708 -0.6341 -0.6555
    1SOL    HW3 7055   1.430   0.423   3.078  1.1137 -1.5239  1.5944
    1SOL    MW4 7056   1.350   0.398   3.104  0.1328 -0.3768 -0.2303
    1SOL     OW 7057   1.587   0.486   3.038 -0.4072  0.3423  0.0390
    1SOL    HW2 7058   1.565   0.574   3.068 -0.7966 -0.1672  1.2854
    1SOL    HW3 7059   1.579   0.490   2.943 -1.5740  1.3347  0.1666
    1SOL    MW4 7060   1.583   0.498   3.029 -0.6125  0.4061  0.2201
    1SOL     OW 7061   1.559   0.760   3.120 -0.1449 -0.4627 -0.0042
    1SOL    HW2 7062   1.569   0.775   3.214  0.1474  0.3064 -0.1586
    1SOL    HW3 7063   1.474   0.799   3.099 -0.0051 -0.2374 -0.1467
    1SOL    MW4 7064   1.549   0.767   3.130 -0.0881 -0.3315 -0.0432
    1SOL     OW 7065   1.319   0.878   3.047 -0.2436 -0.5889  0.3281
    1SOL    HW2 7066   1.321   0.972   3.063 -1.8361 -0.4208 -0.3010
    1SOL    HW3 7067   1.238   0.848   3.089 -0.6286 -1.3670 -0.9233
    1SOL    MW4 7068   1.309   0.886   3.054 -0.5045 -0.6694  0.0801
    1SOL     OW 7069   1.359   1.171   3.102 -0.6934 -0.2671 -0.3525
    1SOL    HW2 7070   1.351   1.177   3.198 -0.3555 -2.6975 -0.1352
    1SOL    HW3 7071   1.441   1.217   3.082 -0.3560 -0.4246  0.6263
    1SOL    MW4 7072   1.369   1.177   3.112 -0.6044 -0.6086 -0.1945
    1SOL     OW 7073   1.557   1.328   3.004  0.1445  0.0332  0.5077
    1SOL    HW2 7074   1.637   1.284   3.034  0.0211 -1.4534 -1.2937
    1SOL    HW3 7075   1.553   1.408   3.057  3.1160  0.3941  0.2722
    1SOL    MW4 7076   1.567   1.333   3.015  0.5202 -0.1154  0.2391
    1SOL     OW 7077   1.547   1.582   3.152  0.5512 -0.0260 -0.2645
    1SOL    HW2 7078   1.615   1.642   3.122 -0.6624  0.5746 -1.8326
    1SOL    HW3 7079   1.465   1.627   3.133 -0.3241 -1.3942  0.2410
    1SOL    MW4 7080   1.545   1.596   3.146  0.2756 -0.1272 -0.4044
    1SOL     OW 7081   1.305   1.667   3.041 -0.4626  0.2421  0.2309
    1SOL    HW2 7082   1.314   1.757   3.071 -0.5343  0.2947  0.0927
    1SOL    HW3 7083   1.333   1.668   2.950  0.6909 -0.1088  0.5680
    1SOL    MW4 7084   1.310   1.679   3.033 -0.3198  0.2027  0.2575
    1SOL     OW 7085   1.357   1.920   3.136 -0.3639 -0.4524  0.8787
    1SOL    HW2 7086   1.357   1.907   3.231  0.6060  1.3024  1.1383
    1SOL    HW3 7087   1.270   1.954   3.117  0.0095  0.8148  1.3894
    1SOL    MW4 7088   1.346   1.923   3.146 -0.1867 -0.0538  0.9801
    1SOL     OW 7089   1.565   2.069   3.016 -0.3104 -0.0825  0.7798
    1SOL    HW2 7090   1.484   2.032   3.052  1.0885 -2.3038  1.7547
    1SOL    HW3 7091   1.554   2.062   2.921 -1.1647 -0.5980  0.9052
    1SOL    MW4 7092   1.553   2.063   3.009 -0.2387 -0.4435  0.9253
    1SOL     OW 7093   1.594   2.329   3.119 -0.3940  0.1283 -0.0257
    1SOL    HW2 7094   1.513   2.375   3.099  0.0295  1.6465  1.5424
    1SOL    HW3 7095   1.585   2.243   3.079 -2.6689  0.3729 -0.0609
    1SOL    MW4 7096   1.582   2.324   3.111 -0.6381  0.3607  0.1767
    1SOL     OW 7097   1.370   2.441   3.015 -0.7550 -0.2332  0.3548
    1SOL    HW2 7098   1.289   2.419   3.061 -0.6464 -1.6332 -0.0998
    1SOL    HW3 7099   1.347   2.437   2.922 -0.5143  0.7736  0.2436
    1SOL    MW4 7100   1.356   2.438   3.009 -0.7091 -0.2851  0.2804
    1SOL     OW 7101   1.341   2.670   3.171 -0.1139 -0.6921 -0.2556
    1SOL    HW2 7102   1.359   2.599   3.110 -0.2411  0.6032 -1.8423
    1SOL    HW3 7103   1.277   2.725   3.126  2.2158  2.0638 -0.4057
    1SOL    MW4 7104   1.335   2.668   3.157  0.1767 -0.1576 -0.4847
    1SOL     OW 7105   1.532   2.842   3.018  0.3696 -0.7425 -0.3392
    1SOL    HW2 7106   1.616   2.813   3.052 -0.5093 -1.9774  0.8181
    1SOL    HW3 7107   1.468   2.782   3.056 -1.0454  0.1999 -1.1638
    1SOL    MW4 7108   1.534   2.830   3.028  0.0670 -0.7811 -0.2952
    1SOL     OW 7109   1.558   3.100   3.122 -0.4202 -0.3649  0.2468
    1SOL    HW2 7110   1.576   3.077   3.213 -0.2096 -1.3999 -0.0425
    1SOL    HW3 7111   1.551   3.015   3.078  0.0694  0.1357 -0.8030
    1SOL    MW4 7112   1.560   3.085   3.128 -0.3277 -0.4354  0.0703
    1SOL     OW 7113   1.323   3.207   3.044 -0.1711 -0.3064 -0.8531
    1SOL    HW2 7114   1.403   3.186   3.092 -0.1867  0.8634 -0.2992
    1SOL    HW3 7115   1.352   3.221   2.954  0.1051 -0.7900 -0.8427
    1SOL    MW4 7116   1.337   3.206   3.039 -0.1369 -0.2158 -0.7784
    1SOL     OW 7117   1.341   3.461   3.135 -0.0474  0.3144  0.0220
    1SOL    HW2 7118   1.338   3.448   3.230 -2.6377  2.2037  0.2587
    1SOL    HW3 7119   1.341   3.372   3.099  2.0307 -0.4503  1.7535
    1SOL    MW4 7120   1.341   3.447   3.143 -0.1150  0.4630  0.2816
    1SOL     OW 7121   1.577   3.606   3.059  0.2220  0.1132  0.3012
    1SOL    HW2 7122   1.499   3.556   3.083  1.1111 -1.1533  0.6409
    1SOL    HW3 7123   1.569   3.620   2.964 -0.2406 -0.3347  0.2755
    1SOL    MW4 7124   1.566   3.601   3.049  0.2781 -0.1130  0.3426
    1SOL     OW 7125   1.579   3.866   3.156 -0.0716  0.2180 -0.1066
    1SOL    HW2 7126   1.652   3.911   3.112  2.0925 -0.9096  2.1801
    1SOL    HW3 7127   1.580   3.778   3.119 -0.1068  0.1297  0.1047
    1SOL    MW4 7128   1.589   3.861   3.145  0.2093  0.0575  0.2229
    1SOL     OW 7129   1.377   4.005   3.030  0.8940  0.4310  0.3750
    1SOL    HW2 7130   1.449   3.965   3.079  0.7869  1.8942  1.7701
    1SOL    HW3 7131   1.299   3.962   3.065  0.9250  0.4161  0.4272
    1SOL    MW4 7132   1.376   3.994   3.041  0.8841  0.6218  0.5660
    1SOL     OW 7133   1.366   4.284   3.116  0.3158 -0.2859 -0.7183
    1SOL    HW2 7134   1.360   4.194   3.084  0.2743  0.6298 -3.4543
    1SOL    HW3 7135   1.286   4.326   3.085  0.9536  1.0206 -0.6406
    1SOL    MW4 7136   1.355   4.277   3.108  0.3945  0.0076 -1.0691
    1SOL     OW 7137   1.595   4.403   3.034  0.1744  0.2572  0.3418
    1SOL    HW2 7138   1.512   4.363   3.062 -0.0008  1.0760  0.9965
    1SOL    HW3 7139   1.590   4.493   3.065 -0.1406  1.2849 -2.5235
    1SOL    MW4 7140   1.583   4.410   3.042  0.1097  0.5012  0.0501
    1SOL     OW 7141   2.037   4.659   3.123  0.2970 -0.2406 -0.1424
    1SOL    HW2 7142   2.033   4.667   3.218 -0.0554 -1.4256 -0.0404
    1SOL    HW3 7143   1.975   4.724   3.090 -0.8815 -1.0151  0.5094
    1SOL    MW4 7144   2.028   4.668   3.131  0.0951 -0.4991 -0.0429
    1SOL     OW 7145   1.819   0.135   3.020  0.3774 -0.0377 -0.4835
    1SOL    HW2 7146   1.741   0.091   3.053  1.2734 -2.2442 -1.1999
    1SOL    HW3 7147   1.814   0.125   2.925  0.7931  1.1003 -0.6349
    1SOL    MW4 7148   1.808   0.128   3.012  0.5504 -0.1787 -0.5982
    1SOL     OW 7149   1.799   0.383   3.160  0.2476 -0.4775  0.0969
    1SOL    HW2 7150   1.812   0.299   3.117  2.3906  0.7542 -1.7648
    1SOL    HW3 7151   1.734   0.428   3.105  1.2653  0.2020 -0.5542
    1SOL    MW4 7152   1.792   0.378   3.147  0.6647 -0.2253 -0.2346
    1SOL     OW 7153   1.981   0.505   2.986  0.2983  0.4457  0.3429
    1SOL    HW2 7154   1.916   0.469   3.045  1.0754 -1.5309  0.0150
    1SOL    HW3 7155   2.062   0.460   3.008  0.8264  0.4367 -1.5062
    1SOL    MW4 7156   1.983   0.494   2.996  0.4705  0.1836  0.0556
    1SOL     OW 7157   1.999   0.762   3.095  0.2261  0.3481 -0.4342
    1SOL    HW2 7158   1.919   0.795   3.054  0.4420 -0.3016 -1.3960
    1SOL    HW3 7159   2.015   0.678   3.053 -0.1156 -0.8326  1.7321
    1SOL    MW4 7160   1.991   0.755   3.084  0.2096  0.1065 -0.2751
    1SOL     OW 7161   1.777   0.896   3.012 -0.5672 -0.0511 -0.4271
    1SOL    HW2 7162   1.697   0.850   3.037 -0.0227 -0.8307 -0.1081
    1SOL    HW3 7163   1.787   0.877   2.919 -1.4320  1.0896 -0.7655
    1SOL    MW4 7164   1.768   0.887   3.003 -0.6096 -0.0035 -0.4296
    1SOL     OW 7165   1.759   1.161   3.097 -0.3471 -0.3071 -0.0364
    1SOL    HW2 7166   1.766   1.167   3.192 -2.3746 -0.7570  0.1632
    1SOL    HW3 7167   1.762   1.067   3.078 -1.8973 -0.3419 -0.2178
    1SOL    MW4 7168   1.760   1.149   3.107 -0.8191 -0.3711 -0.0339
    1SOL     OW 7169   2.022   1.281   3.036  0.3644 -0.2032 -0.4711
    1SOL    HW2 7170   2.093   1.222   3.062 -0.4632 -1.6064 -1.3337
    1SOL    HW3 7171   1.942   1.236   3.063 -0.2360  1.0424 -0.1372
    1SOL    MW4 7172   2.021   1.267   3.043  0.1757 -0.2239 -0.5407
    1SOL     OW 7173   1.975   1.551   3.083  0.4046 -0.2293  0.3334
    1SOL    HW2 7174   1.978   1.551   3.178 -2.1760  0.8303  0.4662
    1SOL    HW3 7175   1.989   1.460   3.058 -0.2654 -0.7438  1.7959
    1SOL    MW4 7176   1.977   1.539   3.092 -0.0242 -0.1574  0.5438
    1SOL     OW 7177   1.744   1.726   3.042 -0.2451  0.3481 -0.7177
    1SOL    HW2 7178   1.770   1.814   3.072 -1.2135 -0.0354  1.3591
    1SOL    HW3 7179   1.825   1.676   3.042  0.1079  0.9097 -0.7212
    1SOL    MW4 7180   1.758   1.731   3.046 -0.3263  0.3717 -0.4439
    1SOL     OW 7181   1.813   1.983   3.115  0.1392  0.4090  0.2773
    1SOL    HW2 7182   1.884   2.031   3.072  1.3111 -1.5852 -0.0731
    1SOL    HW3 7183   1.736   2.004   3.063  0.8346  1.0553 -0.5223
    1SOL    MW4 7184   1.812   1.992   3.103  0.3855  0.2310  0.1254
    1SOL     OW 7185   2.032   2.090   2.986 -0.0541 -0.1652 -0.0783
    1SOL    HW2 7186   2.083   2.036   3.047  0.3417  1.8354  1.4081
    1SOL    HW3 7187   2.018   2.173   3.033 -0.7333  0.9956 -2.2669
    1SOL    MW4 7188   2.037   2.094   3.000 -0.0916  0.2520 -0.1707
    1SOL     OW 7189   1.982   2.383   3.083 -0.1904  0.1654 -0.2423
    1SOL    HW2 7190   2.054   2.419   3.031  0.2994  0.2118  0.4559
    1SOL    HW3 7191   1.905   2.434   3.058  0.4033  1.4129  0.4119
    1SOL    MW4 7192   1.982   2.394   3.073 -0.0474  0.3362 -0.0637
    1SOL     OW 7193   1.753   2.515   3.002 -0.3343  0.2072 -0.1033
    1SOL    HW2 7194   1.757   2.596   3.052 -0.2170  0.6154 -0.7737
    1SOL    HW3 7195   1.700   2.456   3.056 -0.3637  0.7038  0.4123
    1SOL    MW4 7196   1.747   2.518   3.016 -0.3227  0.3264 -0.1237
    1SOL     OW 7197   1.765   2.773   3.144 -0.1308 -0.2161 -0.0190
    1SOL    HW2 7198   1.779   2.744   3.234  0.2744 -0.4841 -0.1690
    1SOL    HW3 7199   1.852   2.793   3.111 -0.2460 -0.4393 -0.4591
    1SOL    MW4 7200   1.778   2.772   3.151 -0.0926 -0.2811 -0.0968
    1SOL     OW 7201   1.995   2.863   3.025  0.1627  0.0518 -0.3208
    1SOL    HW2 7202   2.023   2.952   3.048  0.6688 -0.3460  0.6286
    1SOL    HW3 7203   1.990   2.864   2.929  0.8972  0.8944 -0.3646
    1SOL    MW4 7204   1.998   2.875   3.015  0.3265  0.1104 -0.2012
    1SOL     OW 7205   2.043   3.117   3.093 -0.0917 -0.8138 -0.4264
    1SOL    HW2 7206   2.029   3.104   3.187  1.0843  0.6908 -0.0356
    1SOL    HW3 7207   1.967   3.167   3.064  0.1557 -0.2174 -0.0384
    1SOL    MW4 7208   2.031   3.122   3.101  0.0961 -0.5364 -0.3235
    1SOL     OW 7209   1.796   3.223   3.048  0.0434  0.4017 -0.0005
    1SOL    HW2 7210   1.712   3.187   3.076  0.3478  0.7299  1.4191
    1SOL    HW3 7211   1.790   3.229   2.953 -1.4517  0.2158  0.0712
    1SOL    MW4 7212   1.784   3.219   3.040 -0.1138  0.4203  0.1962
    1SOL     OW 7213   1.822   3.490   3.137 -0.0109 -0.5108 -0.4113
    1SOL    HW2 7214   1.821   3.397   3.115  1.4296 -0.2462 -1.6541
    1SOL    HW3 7215   1.743   3.526   3.097  0.3561 -0.8623 -1.4520
    1SOL    MW4 7216   1.812   3.482   3.129  0.2277 -0.5221 -0.7126
    1SOL     OW 7217   2.053   3.606   3.020  0.4763 -0.1144  0.1509
    1SOL    HW2 7218   2.064   3.693   3.059  1.4486 -0.0950 -0.1551
    1SOL    HW3 7219   1.967   3.577   3.050 -0.1336  1.2267 -0.2652
    1SOL    MW4 7220   2.043   3.614   3.029  0.5240  0.0653  0.0553
    1SOL     OW 7221   2.014   3.857   3.134  0.4888  0.2863 -0.1680
    1SOL    HW2 7222   2.025   3.874   3.227 -1.3519 -0.3310  0.1911
    1SOL    HW3 7223   1.926   3.890   3.114  0.2157 -1.0647 -1.2980
    1SOL    MW4 7224   2.004   3.864   3.144  0.2098  0.0265 -0.2699
    1SOL     OW 7225   1.800   4.007   3.068 -0.1612 -0.4868  0.0190
    1SOL    HW2 7226   1.808   4.095   3.105  1.4115 -0.9794  0.9004
    1SOL    HW3 7227   1.785   4.022   2.975  0.2514  0.7187  0.1292
    1SOL    MW4 7228   1.799   4.021   3.061  0.1009 -0.3929  0.1502
    1SOL     OW 7229   1.802   4.271   3.160  0.3268  0.5719 -0.4371
    1SOL    HW2 7230   1.875   4.326   3.133  0.0634 -0.2232 -2.8682
    1SOL    HW3 7231   1.724   4.317   3.129 -0.0363  0.0474 -0.3215
    1SOL    MW4 7232   1.801   4.284   3.152  0.2443  0.3982 -0.7427
    1SOL     OW 7233   2.018   4.401   3.046 -0.1743 -0.0610 -0.1824
    1SOL    HW2 7234   2.025   4.494   3.067  1.6322 -0.4414  1.0549
    1SOL    HW3 7235   2.023   4.397   2.950  0.9404  1.0434 -0.1794
    1SOL    MW4 7236   2.020   4.412   3.036  0.2110  0.0339 -0.0188
    1SOL     OW 7237   2.463   4.664   3.177  0.0749  0.9434  0.2322
    1SOL    HW2 7238   2.446   4.579   3.137  0.7835  0.3670  1.1319
    1SOL    HW3 7239   2.409   4.726   3.128 -0.5212 -0.0454 -0.3526
    1SOL    MW4 7240   2.454   4.661   3.165  0.0899  0.7372  0.2737
    1SOL     OW 7241   2.268   0.124   3.034  0.2233  0.2323  0.3256
    1SOL    HW2 7242   2.247   0.217   3.036  0.4761  0.2841  1.4246
    1SOL    HW3 7243   2.191   0.081   3.072 -0.4630 -0.1336 -1.4551
    1SOL    MW4 7244   2.255   0.130   3.040  0.1659  0.1908  0.2358
    1SOL     OW 7245   2.237   0.406   3.064  0.0347  0.0990  0.3292
    1SOL    HW2 7246   2.229   0.390   3.158  0.8449  0.2403  0.4348
    1SOL    HW3 7247   2.319   0.456   3.056 -1.2698  2.2126 -0.1960
    1SOL    MW4 7248   2.247   0.411   3.076 -0.0305  0.3965  0.2739
    1SOL     OW 7249   2.473   0.536   2.985 -0.3972 -0.2748  0.0399
    1SOL    HW2 7250   2.530   0.472   3.027 -0.9606 -0.1718  0.9610
    1SOL    HW3 7251   2.506   0.541   2.895  1.0325 -0.2122  0.5613
    1SOL    MW4 7252   2.485   0.528   2.978 -0.2830 -0.2530  0.2301
    1SOL     OW 7253   2.450   0.745   3.168 -0.3852  0.3917 -0.3898
    1SOL    HW2 7254   2.527   0.797   3.141 -1.1943  0.7601 -2.0302
    1SOL    HW3 7255   2.454   0.667   3.113 -1.4884  0.6681 -0.8600
    1SOL    MW4 7256   2.461   0.742   3.158 -0.6375  0.4767 -0.6683
    1SOL     OW 7257   2.255   0.853   3.010 -0.1811  0.7286  0.2936
    1SOL    HW2 7258   2.318   0.812   3.070  2.0363  1.4805 -1.4708
    1SOL    HW3 7259   2.170   0.820   3.039  1.1983 -2.1719  1.2675
    1SOL    MW4 7260   2.252   0.843   3.022  0.2935  0.4451  0.1893
    1SOL     OW 7261   2.247   1.123   3.106 -0.1799  0.2290  0.6422
    1SOL    HW2 7262   2.257   1.131   3.201  1.1485  1.6785  0.3866
    1SOL    HW3 7263   2.242   1.029   3.091  0.0838 -0.0303  2.0935
    1SOL    MW4 7264   2.247   1.112   3.116  0.0300  0.3860  0.7999
    1SOL     OW 7265   2.478   1.289   2.999 -0.3825  0.0201 -0.8176
    1SOL    HW2 7266   2.407   1.239   3.038 -0.2420 -0.8863 -1.7000
    1SOL    HW3 7267   2.464   1.282   2.905  0.0893  0.9951 -0.9665
    1SOL    MW4 7268   2.467   1.282   2.992 -0.3018  0.0291 -0.9537
    1SOL     OW 7269   2.455   1.516   3.151 -0.1648  0.6886 -0.0371
    1SOL    HW2 7270   2.390   1.575   3.113  0.1225  0.1945 -1.3299
    1SOL    HW3 7271   2.463   1.445   3.088  0.7482  0.1290  0.6878
    1SOL    MW4 7272   2.447   1.514   3.138 -0.0064  0.5496 -0.1121
    1SOL     OW 7273   2.236   1.662   3.019 -0.0059  0.6635 -0.0150
    1SOL    HW2 7274   2.155   1.622   3.052  0.3995 -1.2931 -1.3040
    1SOL    HW3 7275   2.218   1.679   2.927  1.2387 -0.3113 -0.4540
    1SOL    MW4 7276   2.223   1.659   3.011  0.2117  0.2767 -0.2429
    1SOL     OW 7277   2.222   1.929   3.109  0.1409 -0.1980  0.2120
    1SOL    HW2 7278   2.306   1.961   3.077 -0.3171  0.1300 -0.6469
    1SOL    HW3 7279   2.223   1.835   3.089 -0.6501  0.2203 -1.8802
    1SOL    MW4 7280   2.233   1.921   3.102 -0.0238 -0.0995 -0.1774
    1SOL     OW 7281   2.481   2.012   3.028  0.4278  0.4657 -0.5644
    1SOL    HW2 7282   2.564   1.979   3.062 -0.4674 -1.6107 -0.3725
    1SOL    HW3 7283   2.498   2.026   2.934  0.9299 -0.1576 -0.5687
    1SOL    MW4 7284   2.494   2.010   3.020  0.3760  0.1094 -0.5393
    1SOL     OW 7285   2.434   2.291   3.127 -0.4065 -0.0877  0.6024
    1SOL    HW2 7286   2.450   2.301   3.221  0.1582  0.3914  0.4590
    1SOL    HW3 7287   2.452   2.199   3.109  0.9360  0.1353  0.6984
    1SOL    MW4 7288   2.439   2.280   3.137 -0.1547  0.0052  0.5965
    1SOL     OW 7289   2.242   2.455   2.971 -0.0026  0.3638  0.4375
    1SOL    HW2 7290   2.228   2.535   3.022  0.6481  0.6402  0.1837
    1SOL    HW3 7291   2.315   2.411   3.015  0.3058  0.4127 -0.0201
    1SOL    MW4 7292   2.250   2.460   2.983  0.1240  0.4067  0.3438
    1SOL     OW 7293   2.205   2.703   3.089 -0.1167 -0.0901 -0.4690
    1SOL    HW2 7294   2.282   2.756   3.068  0.5342 -0.6182  0.5328
    1SOL    HW3 7295   2.130   2.758   3.065  0.5327  1.3673  0.7617
    1SOL    MW4 7296   2.205   2.717   3.083  0.0548  0.0324 -0.1745
    1SOL     OW 7297   2.455   2.827   3.032  0.1928 -0.7279  0.6195
    1SOL    HW2 7298   2.459   2.917   3.066  2.8761 -0.9659  1.0983
    1SOL    HW3 7299   2.464   2.837   2.937 -0.2660 -0.4549  0.6020
    1SOL    MW4 7300   2.457   2.840   3.024  0.4864 -0.7231  0.6802
    1SOL     OW 7301   2.486   3.107   3.102 -0.6912 -0.3834 -0.5622
    1SOL    HW2 7302   2.563   3.156   3.072 -1.4100  0.5190 -0.9631
    1SOL    HW3 7303   2.412   3.157   3.068 -1.4574 -1.1560 -0.0287
    1SOL    MW4 7304   2.486   3.120   3.093 -0.8872 -0.3667 -0.5448
    1SOL     OW 7305   2.278   3.250   3.012 -0.4100 -0.3235 -0.1324
    1SOL    HW2 7306   2.280   3.332   3.061 -1.6093 -0.8006  0.7547
    1SOL    HW3 7307   2.195   3.209   3.037 -0.2330 -1.3985 -1.2315
    1SOL    MW4 7308   2.267   3.255   3.022 -0.5450 -0.5283 -0.1605
    1SOL     OW 7309   2.301   3.512   3.126 -0.2107  0.0600 -0.1828
    1SOL    HW2 7310   2.364   3.568   3.080 -1.3962  0.6511 -1.0996
    1SOL    HW3 7311   2.217   3.533   3.086 -1.0822 -0.2907  1.4615
    1SOL    MW4 7312   2.298   3.522   3.114 -0.4821  0.0916 -0.0868
    1SOL     OW 7313   2.509   3.654   3.007 -0.1112  0.4814 -0.4402
    1SOL    HW2 7314   2.580   3.598   3.038 -1.6683 -0.6727  1.0860
    1SOL    HW3 7315   2.509   3.728   3.067 -1.1916 -0.2842  0.5160
    1SOL    MW4 7316   2.518   3.657   3.019 -0.4590  0.2284 -0.1128
    1SOL     OW 7317   2.462   3.886   3.146 -0.3718  0.3225  0.3715
    1SOL    HW2 7318   2.469   3.870   3.241 -1.2951 -1.4842  0.1582
    1SOL    HW3 7319   2.539   3.940   3.125  0.1995  0.1848  2.0324
    1SOL    MW4 7320   2.473   3.891   3.156 -0.4182  0.0658  0.5629
    1SOL     OW 7321   2.213   3.993   3.030 -0.0627 -0.2967  0.5935
    1SOL    HW2 7322   2.286   3.959   3.082  0.1433 -0.3294  0.2832
    1SOL    HW3 7323   2.135   3.954   3.070  0.0131  0.4867  1.5191
    1SOL    MW4 7324   2.212   3.983   3.043 -0.0255 -0.1976  0.6747
    1SOL     OW 7325   2.202   4.246   3.184  0.3211 -0.4009 -0.3212
    1SOL    HW2 7326   2.208   4.171   3.124  0.1285 -1.4234  0.9096
    1SOL    HW3 7327   2.145   4.308   3.138  0.7328 -0.8710 -1.4932
    1SOL    MW4 7328   2.195   4.244   3.170  0.3500 -0.5980 -0.3135
    1SOL     OW 7329   2.418   4.406   3.089 -0.1234 -0.1186 -0.3751
    1SOL    HW2 7330   2.352   4.352   3.132  0.1532  0.2580  0.5133
    1SOL    HW3 7331   2.410   4.383   2.996 -1.4698 -0.1091 -0.2767
    1SOL    MW4 7332   2.408   4.396   3.082 -0.2644 -0.0672 -0.2449
    1SOL     OW 7333   2.875   0.015   3.120 -0.2715 -0.4157  0.1771
    1SOL    HW2 7334   2.955   0.061   3.094  0.6661 -0.1189  3.3299
    1SOL    HW3 7335   2.892  -0.077   3.101  0.4629 -0.2377 -0.0242
    1SOL    MW4 7336   2.888   0.009   3.114 -0.0513 -0.3530  0.5665
    1SOL     OW 7337   2.643   0.138   3.034  0.3853 -0.5014  0.5099
    1SOL    HW2 7338   2.725   0.100   3.065  0.6459  0.1728  0.6586
    1SOL    HW3 7339   2.574   0.084   3.074  0.7567 -1.1059  0.3315
    1SOL    MW4 7340   2.645   0.126   3.043  0.4687 -0.4922  0.5057
    1SOL     OW 7341   2.686   0.405   3.111 -0.0937  0.1230 -0.2894
    1SOL    HW2 7342   2.656   0.315   3.096 -1.3989  0.6739 -1.1136
    1SOL    HW3 7343   2.686   0.415   3.206  2.0762 -1.4017 -0.1098
    1SOL    MW4 7344   2.682   0.395   3.122  0.0203 -0.0055 -0.3746
    1SOL     OW 7345   2.932   0.530   3.009 -0.3904 -0.1677  0.1314
    1SOL    HW2 7346   2.859   0.480   3.045 -0.9439  0.7295  0.2844
    1SOL    HW3 7347   2.909   0.543   2.917 -0.8154  0.7816  0.3601
    1SOL    MW4 7348   2.919   0.525   3.001 -0.5195  0.0759  0.1817
    1SOL     OW 7349   2.911   0.789   3.116 -0.0475  0.2363 -0.1074
    1SOL    HW2 7350   2.905   0.781   3.211  1.3633 -0.4168 -0.0592
    1SOL    HW3 7351   2.915   0.699   3.084 -0.5838  0.4478 -0.8054
    1SOL    MW4 7352   2.911   0.776   3.124  0.0677  0.1780 -0.1931
    1SOL     OW 7353   2.653   0.880   3.019 -0.6261 -0.0110 -0.0418
    1SOL    HW2 7354   2.681   0.967   3.047 -1.7271 -0.1998  1.7058
    1SOL    HW3 7355   2.730   0.824   3.034 -0.3082  0.4205 -0.0393
    1SOL    MW4 7356   2.667   0.885   3.024 -0.7293  0.0210  0.1891
    1SOL     OW 7357   2.712   1.159   3.094  0.0659 -0.3936 -0.1727
    1SOL    HW2 7358   2.786   1.205   3.054  0.2361  0.9987  1.6749
    1SOL    HW3 7359   2.634   1.205   3.060  0.1479 -0.2343 -0.1476
    1SOL    MW4 7360   2.711   1.172   3.084  0.0989 -0.1888  0.0746
    1SOL     OW 7361   2.933   1.277   2.980 -0.1101 -0.0308  0.6524
    1SOL    HW2 7362   3.008   1.232   3.019 -0.6429 -0.4851  1.1514
    1SOL    HW3 7363   2.931   1.363   3.022  0.8066  0.4146 -0.1796
    1SOL    MW4 7364   2.943   1.282   2.991 -0.0594 -0.0319  0.6084
    1SOL     OW 7365   2.910   1.504   3.115  0.0419  0.0290  0.4425
    1SOL    HW2 7366   2.903   1.515   3.209  1.4486  0.6566  0.4862
    1SOL    HW3 7367   2.985   1.559   3.089 -0.1424 -0.3563 -0.9845
    1SOL    MW4 7368   2.919   1.512   3.124  0.2034  0.0612  0.2601
    1SOL     OW 7369   2.695   1.651   2.997 -0.2950 -0.4239 -0.5271
    1SOL    HW2 7370   2.761   1.599   3.043 -0.0918  0.7541  0.5080
    1SOL    HW3 7371   2.613   1.603   3.010  0.2042 -1.4582 -1.1368
    1SOL    MW4 7372   2.693   1.638   3.005 -0.2022 -0.4050 -0.4711
    1SOL     OW 7373   2.711   1.893   3.116 -0.2536  0.1957 -0.5181
    1SOL    HW2 7374   2.792   1.931   3.083  0.0729 -1.0984 -1.1994
    1SOL    HW3 7375   2.704   1.808   3.073 -1.8957  0.2306 -0.3499
    1SOL    MW4 7376   2.721   1.887   3.106 -0.4270  0.0294 -0.5858
    1SOL     OW 7377   2.943   2.025   3.009  0.4252 -0.0758 -0.1295
    1SOL    HW2 7378   2.917   2.114   3.033  1.7306  0.3764 -0.3664
    1SOL    HW3 7379   2.947   2.025   2.914 -0.5824 -0.6812 -0.1745
    1SOL    MW4 7380   2.940   2.037   3.000  0.4644 -0.0958 -0.1667
    1SOL     OW 7381   2.870   2.299   3.074  0.4273  0.0088 -0.0232
    1SOL    HW2 7382   2.938   2.349   3.029  0.5330 -0.9745 -0.9688
    1SOL    HW3 7383   2.788   2.341   3.047  0.7128  2.3637  2.5677
    1SOL    MW4 7384   2.868   2.311   3.065  0.4792  0.1900  0.1941
    1SOL     OW 7385   2.634   2.411   2.996 -0.0115  0.3114 -0.5388
    1SOL    HW2 7386   2.640   2.496   3.039  1.3223 -0.0002 -0.0767
    1SOL    HW3 7387   2.559   2.369   3.037 -0.8785  1.3743 -0.9965
    1SOL    MW4 7388   2.625   2.417   3.007  0.0501  0.4103 -0.5383
    1SOL     OW 7389   2.672   2.659   3.105 -0.2607 -0.4996  0.0027
    1SOL    HW2 7390   2.691   2.691   3.193 -0.4865 -0.2468 -0.0404
    1SOL    HW3 7391   2.595   2.709   3.077 -0.0650 -0.4367 -0.4188
    1SOL    MW4 7392   2.664   2.670   3.113 -0.2646 -0.4578 -0.0587
    1SOL     OW 7393   2.882   2.781   2.999  0.4067  0.4213  0.5363
    1SOL    HW2 7394   2.962   2.750   3.042  0.1551  1.4039  1.7445
    1SOL    HW3 7395   2.812   2.728   3.039  0.3084  0.5016  0.4707
    1SOL    MW4 7396   2.883   2.770   3.010  0.3607  0.5617  0.6871
    1SOL     OW 7397   2.913   3.052   3.115 -0.2662  0.1726  0.2769
    1SOL    HW2 7398   2.827   3.091   3.102 -0.4823  0.4176  2.3551
    1SOL    HW3 7399   2.903   2.962   3.082 -1.2217  0.2836  0.2384
    1SOL    MW4 7400   2.900   3.045   3.109 -0.4206  0.2196  0.5460
    1SOL     OW 7401   2.718   3.224   3.003  0.4425 -0.0380  0.0580
    1SOL    HW2 7402   2.718   3.311   3.043 -0.0515 -0.0121 -0.0013
    1SOL    HW3 7403   2.715   3.241   2.909  3.3889 -0.0539 -0.0944
    1SOL    MW4 7404   2.718   3.238   2.996  0.7660 -0.0367  0.0303
    1SOL     OW 7405   2.712   3.491   3.111  0.2253  0.8301  0.5666
    1SOL    HW2 7406   2.730   3.482   3.204 -0.8038 -0.1044  0.6802
    1SOL    HW3 7407   2.772   3.560   3.082 -0.3707  2.0661  2.1792
    1SOL    MW4 7408   2.723   3.499   3.119  0.0112  0.8698  0.7942
    1SOL     OW 7409   2.918   3.646   3.000 -0.8236 -0.1561  0.4749
    1SOL    HW2 7410   2.998   3.615   3.042 -1.6247 -1.0835  1.3714
    1SOL    HW3 7411   2.909   3.737   3.029 -0.1676 -0.0916  0.4766
    1SOL    MW4 7412   2.927   3.654   3.010 -0.8426 -0.2699  0.5932
    1SOL     OW 7413   2.901   3.902   3.115  0.1868 -0.3489  0.2992
    1SOL    HW2 7414   2.910   3.888   3.209  0.7830  0.1344  0.3185
    1SOL    HW3 7415   2.811   3.930   3.104  0.2967  0.2316  0.8155
    1SOL    MW4 7416   2.891   3.904   3.126  0.2799 -0.2086  0.3695
    1SOL     OW 7417   2.653   4.042   3.055 -0.1791  0.1641 -0.3511
    1SOL    HW2 7418   2.666   4.131   3.088 -1.4263  0.3578 -0.3811
    1SOL    HW3 7419   2.667   4.049   2.960 -1.6158  0.5873 -0.5312
    1SOL    MW4 7420   2.657   4.054   3.047 -0.5331  0.2460 -0.3788
    1SOL     OW 7421   2.676   4.308   3.133  0.1895 -0.1067  0.2156
    1SOL    HW2 7422   2.681   4.298   3.228 -2.0766 -2.0264  0.1728
    1SOL    HW3 7423   2.593   4.354   3.118 -0.1209 -1.0106 -0.9038
    1SOL    MW4 7424   2.666   4.313   3.143 -0.1507 -0.4792  0.0625
    1SOL     OW 7425   2.928   4.422   3.063  0.8638 -0.1098  0.0255
    1SOL    HW2 7426   2.997   4.357   3.076  0.0236 -1.2197 -0.9025
    1SOL    HW3 7427   2.851   4.384   3.106  0.3463  0.2146 -0.6047
    1SOL    MW4 7428   2.927   4.408   3.070  0.6847 -0.2136 -0.1800
    1SOL     OW 7429   3.323   0.009   3.145  0.1342  0.0907  0.7471
    1SOL    HW2 7430   3.403   0.040   3.101  0.6075  0.0155  1.5490
    1SOL    HW3 7431   3.309  -0.079   3.108  1.4001 -0.5976  1.8583
    1SOL    MW4 7432   3.332   0.001   3.134  0.3636 -0.0100  0.9995
    1SOL     OW 7433   3.094   0.148   3.023 -0.5869 -0.1053 -0.1381
    1SOL    HW2 7434   3.092   0.239   3.054 -0.2377  0.8256 -2.7526
    1SOL    HW3 7435   3.168   0.109   3.070  1.4134  1.9297 -1.4827
    1SOL    MW4 7436   3.104   0.155   3.033 -0.2770  0.2860 -0.6604
    1SOL     OW 7437   3.119   0.397   3.148 -0.1890 -0.3455  0.1402
    1SOL    HW2 7438   3.204   0.432   3.121  0.0638 -0.4672  0.7779
    1SOL    HW3 7439   3.055   0.453   3.103  0.2234 -0.4001 -0.5254
    1SOL    MW4 7440   3.122   0.409   3.138 -0.1013 -0.3688  0.1366
    1SOL     OW 7441   3.353   0.499   3.042  0.1924  0.6075  0.5941
    1SOL    HW2 7442   3.424   0.447   3.080 -0.1284 -0.0119  0.3507
    1SOL    HW3 7443   3.368   0.494   2.947 -1.3335 -1.2007  0.4335
    1SOL    MW4 7444   3.365   0.492   3.034 -0.0515  0.2872  0.5405
    1SOL     OW 7445   3.362   0.777   3.118  0.2143 -0.0211 -0.0055
    1SOL    HW2 7446   3.363   0.773   3.214 -0.4743  1.0482  0.0515
    1SOL    HW3 7447   3.348   0.686   3.091 -3.5228  0.1802  0.9933
    1SOL    MW4 7448   3.360   0.764   3.127 -0.3698  0.1466  0.1340
    1SOL     OW 7449   3.147   0.900   3.001 -0.0493  0.1641 -0.1101
    1SOL    HW2 7450   3.226   0.857   3.033 -0.5723 -0.2081  0.7157
    1SOL    HW3 7451   3.076   0.861   3.052 -0.7354  0.6958 -0.6391
    1SOL    MW4 7452   3.148   0.889   3.012 -0.2089  0.1851 -0.0708
    1SOL     OW 7453   3.137   1.152   3.124  0.1041 -0.2031  0.4654
    1SOL    HW2 7454   3.216   1.193   3.088  0.2384 -0.7663  0.1088
    1SOL    HW3 7455   3.132   1.067   3.080 -0.8580 -0.0560  0.2883
    1SOL    MW4 7456   3.147   1.146   3.114 -0.0055 -0.2580  0.3953
    1SOL     OW 7457   3.365   1.235   3.012 -0.1425 -0.0993 -0.0944
    1SOL    HW2 7458   3.440   1.194   3.054 -0.2977  0.3530  0.6220
    1SOL    HW3 7459   3.368   1.327   3.039 -0.1337  0.2468 -1.2168
    1SOL    MW4 7460   3.375   1.242   3.021 -0.1616  0.0060 -0.1481
    1SOL     OW 7461   3.380   1.503   3.109  0.0113 -0.5822  0.0396
    1SOL    HW2 7462   3.379   1.509   3.205 -0.7666 -1.0080  0.0666
    1SOL    HW3 7463   3.455   1.555   3.082 -0.7032  0.8695  0.8004
    1SOL    MW4 7464   3.390   1.511   3.118 -0.1857 -0.4468  0.1438
    1SOL     OW 7465   3.141   1.626   3.042 -0.3481  0.1195 -0.3618
    1SOL    HW2 7466   3.225   1.584   3.054 -0.0029  1.1723  0.9463
    1SOL    HW3 7467   3.153   1.716   3.073 -1.9418  0.2855 -0.1332
    1SOL    MW4 7468   3.153   1.632   3.047 -0.5131  0.2804 -0.1590
    1SOL     OW 7469   3.167   1.886   3.108 -0.2162 -0.7124  0.7090
    1SOL    HW2 7470   3.172   1.912   3.200 -0.7068 -0.1406  0.5852
    1SOL    HW3 7471   3.092   1.936   3.074  1.1694  0.5869 -0.4783
    1SOL    MW4 7472   3.157   1.896   3.116 -0.0982 -0.4656  0.5357
    1SOL     OW 7473   3.383   2.045   3.000  0.2877 -0.2180 -0.6146
    1SOL    HW2 7474   3.465   2.002   3.023  0.1191  0.5732  1.5895
    1SOL    HW3 7475   3.316   1.996   3.049 -0.3405  0.2439 -1.0111
    1SOL    MW4 7476   3.385   2.033   3.010  0.1824 -0.0525 -0.3762
    1SOL     OW 7477   3.333   2.319   3.074 -0.1897  0.2281 -0.3112
    1SOL    HW2 7478   3.339   2.336   3.168 -0.2711 -1.4467  0.0186
    1SOL    HW3 7479   3.372   2.232   3.063  0.0695  0.5217 -1.8687
    1SOL    MW4 7480   3.339   2.310   3.085 -0.1662  0.0458 -0.4733
    1SOL     OW 7481   3.094   2.432   2.970  0.0235 -0.2784 -0.1177
    1SOL    HW2 7482   3.177   2.388   2.988  0.4347  0.7979  0.6786
    1SOL    HW3 7483   3.100   2.514   3.018 -0.9280  0.4389 -1.1960
    1SOL    MW4 7484   3.106   2.437   2.978 -0.0477 -0.0417 -0.1545
    1SOL     OW 7485   3.108   2.678   3.103  0.2902 -0.0290  0.2244
    1SOL    HW2 7486   3.181   2.731   3.072  0.7305 -1.4360 -1.1412
    1SOL    HW3 7487   3.112   2.686   3.199  2.7512 -0.8068  0.1950
    1SOL    MW4 7488   3.118   2.686   3.112  0.6728 -0.3176  0.0403
    1SOL     OW 7489   3.324   2.842   2.995  0.0251 -0.3229 -0.3200
    1SOL    HW2 7490   3.407   2.813   3.031 -0.5695 -0.0722  1.2784
    1SOL    HW3 7491   3.302   2.921   3.044 -0.7282  0.0942 -1.3205
    1SOL    MW4 7492   3.332   2.848   3.006 -0.1526 -0.2348 -0.2413
    1SOL     OW 7493   3.326   3.107   3.111  0.3356  0.0550 -0.2947
    1SOL    HW2 7494   3.248   3.161   3.100  0.9126  0.8899 -0.3686
    1SOL    HW3 7495   3.339   3.102   3.206  1.0470  1.1741 -0.3272
    1SOL    MW4 7496   3.317   3.113   3.122  0.5054  0.3128 -0.3085
    1SOL     OW 7497   3.101   3.254   3.019  0.6440 -0.2790 -0.0308
    1SOL    HW2 7498   3.034   3.192   3.047  0.1905  0.2065 -0.0401
    1SOL    HW3 7499   3.090   3.261   2.925  0.7712 -0.2658 -0.0453
    1SOL    MW4 7500   3.091   3.246   3.011  0.6008 -0.2134 -0.0341
    1SOL     OW 7501   3.151   3.522   3.115  0.2403  0.0474 -0.3184
    1SOL    HW2 7502   3.236   3.555   3.087 -0.0649  1.1389 -0.0233
    1SOL    HW3 7503   3.139   3.440   3.068  1.4819 -0.1447 -0.3046
    1SOL    MW4 7504   3.161   3.516   3.105  0.3636  0.1659 -0.2775
    1SOL     OW 7505   3.372   3.661   2.993 -0.2030  0.6287 -0.2181
    1SOL    HW2 7506   3.439   3.608   3.036  1.9097  2.1857 -1.5129
    1SOL    HW3 7507   3.357   3.734   3.053 -0.3226  0.5824 -0.1917
    1SOL    MW4 7508   3.379   3.663   3.007  0.0598  0.8280 -0.3853
    1SOL     OW 7509   3.341   3.900   3.136 -0.1891  0.0625 -0.1910
    1SOL    HW2 7510   3.341   3.906   3.232 -1.5069  1.4025 -0.2544
    1SOL    HW3 7511   3.258   3.940   3.110  0.9250  1.2557 -1.9886
    1SOL    MW4 7512   3.330   3.906   3.145 -0.2160  0.3967 -0.4365
    1SOL     OW 7513   3.126   4.022   3.038 -0.0300 -0.2644 -0.5433
    1SOL    HW2 7514   3.037   3.996   3.061 -0.9435  1.9167 -1.4467
    1SOL    HW3 7515   3.128   4.021   2.942  0.8001  0.0519 -0.5410
    1SOL    MW4 7516   3.115   4.019   3.029 -0.0412  0.0653 -0.6621
    1SOL     OW 7517   3.156   4.280   3.150  0.1627 -0.1948  0.5619
    1SOL    HW2 7518   3.160   4.269   3.245  0.9017  0.0301  0.5640
    1SOL    HW3 7519   3.164   4.192   3.115  0.7386 -0.1990  0.6939
    1SOL    MW4 7520   3.157   4.267   3.158  0.3362 -0.1655  0.5796
    1SOL     OW 7521   3.341   4.431   3.026  0.3231 -0.2635  0.0960
    1SOL    HW2 7522   3.413   4.371   3.047 -0.1068 -0.3364  1.4008
    1SOL    HW3 7523   3.264   4.391   3.066  0.1280  1.4322  1.4672
    1SOL    MW4 7524   3.340   4.418   3.034  0.2408 -0.0491  0.4492
    1SOL     OW 7525   3.766   4.650   3.104  0.2017 -0.2395  0.2609
    1SOL    HW2 7526   3.761   4.562   3.067 -2.0311 -0.6091  1.3239
    1SOL    HW3 7527   3.693   4.697   3.062 -0.9526 -0.0100  2.4337
    1SOL    MW4 7528   3.755   4.645   3.094 -0.2451 -0.2580  0.6876
    1SOL     OW 7529   3.557   0.125   3.023 -0.1727 -0.2760 -0.3221
    1SOL    HW2 7530   3.560   0.217   3.051 -1.5203 -0.3314 -0.0052
    1SOL    HW3 7531   3.539   0.129   2.929  0.5010 -0.1998 -0.4507
    1SOL    MW4 7532   3.555   0.138   3.015 -0.2618 -0.2733 -0.2973
    1SOL     OW 7533   3.580   0.388   3.141 -0.5302 -0.0499 -0.5412
    1SOL    HW2 7534   3.609   0.383   3.233  0.6941 -1.5066 -0.9965
    1SOL    HW3 7535   3.661   0.398   3.091 -1.2348  1.3374 -1.4382
    1SOL    MW4 7536   3.595   0.389   3.147 -0.4616 -0.0591 -0.7198
    1SOL     OW 7537   3.801   0.434   2.986 -0.1953 -0.2571 -0.0973
    1SOL    HW2 7538   3.874   0.400   3.038 -0.4342 -0.1628  0.3026
    1SOL    HW3 7539   3.793   0.525   3.014  1.0884  0.4384 -1.8826
    1SOL    MW4 7540   3.810   0.442   2.997 -0.0570 -0.1529 -0.2801
    1SOL     OW 7541   3.807   0.702   3.060 -0.0026 -0.1273 -0.0019
    1SOL    HW2 7542   3.791   0.715   3.153 -0.8999 -0.1787 -0.1459
    1SOL    HW3 7543   3.871   0.769   3.036  0.3936 -0.2521  0.6915
    1SOL    MW4 7544   3.813   0.712   3.069 -0.0689 -0.1506  0.0703
    1SOL     OW 7545   3.600   0.857   2.987 -0.1380  1.0547  0.0916
    1SOL    HW2 7546   3.667   0.792   3.010 -0.2687  0.4662 -1.1648
    1SOL    HW3 7547   3.523   0.830   3.036 -0.0990  0.4507 -0.1778
    1SOL    MW4 7548   3.599   0.845   2.997 -0.1502  0.8974 -0.1097
    1SOL     OW 7549   3.601   1.112   3.120  0.1985 -0.7599 -0.4257
    1SOL    HW2 7550   3.681   1.158   3.096  0.2773 -1.0807 -0.7788
    1SOL    HW3 7551   3.604   1.030   3.071  0.6504 -1.6958  1.1237
    1SOL    MW4 7552   3.612   1.107   3.110  0.2687 -0.9257 -0.2680
    1SOL     OW 7553   3.813   1.244   3.048 -0.0320  0.1213 -0.2662
    1SOL    HW2 7554   3.808   1.333   3.081 -0.7717 -0.2517  0.6673
    1SOL    HW3 7555   3.813   1.253   2.953  1.1910  1.1651 -0.1768
    1SOL    MW4 7556   3.812   1.257   3.040  0.0317  0.2097 -0.1311
    1SOL     OW 7557   3.817   1.511   3.100  0.1869  0.2400  0.1331
    1SOL    HW2 7558   3.811   1.514   3.196 -0.2816 -0.2525  0.1212
    1SOL    HW3 7559   3.737   1.552   3.069  0.4379  0.5935 -0.0506
    1SOL    MW4 7560   3.806   1.516   3.109  0.1583  0.2217  0.1070
    1SOL     OW 7561   3.598   1.653   3.009  0.0626 -0.1527 -0.4587
    1SOL    HW2 7562   3.615   1.737   3.052 -1.7967  0.7303 -1.3978
    1SOL    HW3 7563   3.604   1.672   2.915 -1.2704 -0.8570 -0.6941
    1SOL    MW4 7564   3.601   1.667   3.002 -0.3586 -0.1290 -0.6137
    1SOL     OW 7565   3.623   1.908   3.110 -0.3672 -0.2867 -0.1659
    1SOL    HW2 7566   3.609   1.913   3.205  1.1187 -0.0107  0.0506
    1SOL    HW3 7567   3.702   1.960   3.095 -1.3850  0.8372 -1.7472
    1SOL    MW4 7568   3.631   1.916   3.121 -0.3054 -0.1019 -0.3462
    1SOL     OW 7569   3.819   2.068   3.001  0.2027 -0.0443  0.3138
    1SOL    HW2 7570   3.795   2.153   3.038 -0.3181 -0.5132  1.0719
    1SOL    HW3 7571   3.821   2.083   2.906 -0.5061  0.6511  0.4028
    1SOL    MW4 7572   3.816   2.081   2.993  0.0405 -0.0145  0.4253
    1SOL     OW 7573   3.772   2.311   3.114 -0.1789 -0.2944  0.2937
    1SOL    HW2 7574   3.766   2.313   3.209 -2.2805 -2.3564  0.2386
    1SOL    HW3 7575   3.690   2.350   3.083  0.2636 -0.1042 -0.6751
    1SOL    MW4 7576   3.761   2.317   3.122 -0.3977 -0.5414  0.1585
    1SOL     OW 7577   3.555   2.460   3.023 -0.2436  0.1989  0.3297
    1SOL    HW2 7578   3.551   2.553   3.044 -1.6378  0.1616  0.3019
    1SOL    HW3 7579   3.467   2.427   3.044  0.7493 -1.4704  1.9718
    1SOL    MW4 7580   3.543   2.468   3.029 -0.2964 -0.0260  0.5429
    1SOL     OW 7581   3.548   2.723   3.097  0.3997  0.0836  0.1739
    1SOL    HW2 7582   3.554   2.713   3.192 -1.1645  2.7828  0.5886
    1SOL    HW3 7583   3.634   2.754   3.070  0.0981  1.6959  1.0432
    1SOL    MW4 7584   3.560   2.726   3.106  0.1535  0.6523  0.3433
    1SOL     OW 7585   3.800   2.779   2.998  0.3620 -0.4199 -0.1122
    1SOL    HW2 7586   3.815   2.871   3.021  0.9515 -0.7124  0.6559
    1SOL    HW3 7587   3.789   2.780   2.902 -1.0691  0.6421  0.0400
    1SOL    MW4 7588   3.800   2.791   2.988  0.2511 -0.3183  0.0093
    1SOL     OW 7589   3.809   3.039   3.079  0.2310 -0.1906 -0.3552
    1SOL    HW2 7590   3.883   3.096   3.059  1.0357 -1.3008 -0.5874
    1SOL    HW3 7591   3.732   3.094   3.065  0.9115  0.2458 -2.5751
    1SOL    MW4 7592   3.809   3.054   3.074  0.4270 -0.2794 -0.6790
    1SOL     OW 7593   3.577   3.239   3.007 -0.1620 -0.3814  0.2048
    1SOL    HW2 7594   3.493   3.199   3.029 -1.5349  2.0600 -0.3806
    1SOL    HW3 7595   3.579   3.239   2.911  0.1006  0.3823  0.2090
    1SOL    MW4 7596   3.566   3.234   2.997 -0.3088  0.0415  0.1280
    1SOL     OW 7597   3.562   3.508   3.099 -0.2140  0.0179 -0.1764
    1SOL    HW2 7598   3.645   3.554   3.089 -0.5456  1.1100  1.8592
    1SOL    HW3 7599   3.580   3.419   3.069  1.3741  0.5311 -0.8231
    1SOL    MW4 7600   3.575   3.503   3.094 -0.0484  0.2296  0.0067
    1SOL     OW 7601   3.818   3.647   3.047 -0.1050 -0.1627 -0.5089
    1SOL    HW2 7602   3.811   3.742   3.059  0.3057 -0.1816 -0.1191
    1SOL    HW3 7603   3.814   3.635   2.952  0.7189  0.3149 -0.6072
    1SOL    MW4 7604   3.816   3.658   3.036  0.0582 -0.1023 -0.4706
    1SOL     OW 7605   3.827   3.912   3.105  0.3083  0.0267  0.4692
    1SOL    HW2 7606   3.811   3.908   3.200 -0.7177 -1.0341  0.2662
    1SOL    HW3 7607   3.751   3.959   3.070 -0.3200 -1.3418 -0.0401
    1SOL    MW4 7608   3.814   3.918   3.113  0.0901 -0.2942  0.3753
    1SOL     OW 7609   3.581   3.993   3.003 -0.3563  0.0264  0.2076
    1SOL    HW2 7610   3.498   3.957   3.036 -0.6473  1.4842  1.1039
    1SOL    HW3 7611   3.576   3.981   2.908 -1.2591 -0.5823  0.3203
    1SOL    MW4 7612   3.569   3.986   2.995 -0.5138  0.1385  0.3409
    1SOL     OW 7613   3.535   4.247   3.103  0.0885 -0.0156 -0.0317
    1SOL    HW2 7614   3.623   4.277   3.080  0.4775 -0.6988  0.5627
    1SOL    HW3 7615   3.530   4.158   3.068 -0.5379  0.1907 -0.4781
    1SOL    MW4 7616   3.546   4.239   3.095  0.0575 -0.0782 -0.0122
    1SOL     OW 7617   3.766   4.375   3.021  0.1508 -0.0673  0.2666
    1SOL    HW2 7618   3.852   4.338   3.042  0.1064 -0.9648 -1.0614
    1SOL    HW3 7619   3.768   4.390   2.927  0.2057  3.5110  0.7675
    1SOL    MW4 7620   3.777   4.372   3.012  0.1523  0.2856  0.1576
    1SOL     OW 7621   4.265   4.647   3.134 -0.4603  0.1395  0.2716
    1SOL    HW2 7622   4.285   4.645   3.227 -0.3019  0.2273  0.2400
    1SOL    HW3 7623   4.271   4.555   3.106 -0.2122  0.1487  0.2871
    1SOL    MW4 7624   4.269   4.634   3.142 -0.4067  0.1526  0.2692
    1SOL     OW 7625   4.018   0.057   3.015  0.3905  0.2569 -0.6331
    1SOL    HW2 7626   4.086   0.002   3.055  0.5734  0.4906 -0.6204
    1SOL    HW3 7627   3.936   0.022   3.050  0.5429  0.3950 -0.1273
    1SOL    MW4 7628   4.017   0.045   3.025  0.4349  0.3060 -0.5646
    1SOL     OW 7629   4.015   0.310   3.142 -0.5556 -0.0301  0.4356
    1SOL    HW2 7630   4.084   0.367   3.106  0.0459  0.4184  2.2499
    1SOL    HW3 7631   4.012   0.236   3.082  1.8505 -0.2826  0.5687
    1SOL    MW4 7632   4.024   0.308   3.129 -0.1588 -0.0043  0.6926
    1SOL     OW 7633   4.217   0.496   3.048  0.2590 -0.0505 -0.3451
    1SOL    HW2 7634   4.206   0.587   3.077  1.0330  0.1503 -0.6620
    1SOL    HW3 7635   4.223   0.502   2.953 -0.3643 -0.5099 -0.4119
    1SOL    MW4 7636   4.217   0.509   3.039  0.2785 -0.0846 -0.3958
    1SOL     OW 7637   4.217   0.764   3.146  0.6268 -0.1659  0.2067
    1SOL    HW2 7638   4.155   0.801   3.082 -0.2837 -0.0873  1.1325
    1SOL    HW3 7639   4.303   0.784   3.109  0.1090  0.0896 -0.8888
    1SOL    MW4 7640   4.220   0.772   3.132  0.4387 -0.1218  0.1845
    1SOL     OW 7641   4.026   0.871   2.996  0.2214  0.0694 -0.2608
    1SOL    HW2 7642   4.026   0.963   3.023 -0.1481 -0.2235  0.7695
    1SOL    HW3 7643   4.022   0.874   2.900 -0.9107  1.1223 -0.1980
    1SOL    MW4 7644   4.025   0.883   2.987  0.0234  0.1697 -0.1163
    1SOL     OW 7645   4.049   1.131   3.084 -0.5202 -0.6204  0.1772
    1SOL    HW2 7646   4.066   1.128   3.178  0.6873  0.2529  0.0075
    1SOL    HW3 7647   3.961   1.167   3.076 -0.0304  0.7792  0.9448
    1SOL    MW4 7648   4.040   1.136   3.095 -0.2961 -0.3204  0.2563
    1SOL     OW 7649   4.286   1.248   2.977 -0.2646  0.2733  0.1079
    1SOL    HW2 7650   4.203   1.211   3.010  0.2218 -1.1591 -0.2140
    1SOL    HW3 7651   4.274   1.249   2.882  0.2645 -0.4043  0.0301
    1SOL    MW4 7652   4.273   1.243   2.968 -0.1307 -0.0051  0.0548
    1SOL     OW 7653   4.250   1.512   3.093 -0.2063  0.0198  0.4839
    1SOL    HW2 7654   4.164   1.548   3.076 -0.5193 -0.7796  0.3377
    1SOL    HW3 7655   4.250   1.427   3.049  1.9040  1.5054 -2.6202
    1SOL    MW4 7656   4.239   1.505   3.085  0.0305  0.1104  0.0548
    1SOL     OW 7657   4.033   1.647   3.004 -0.1612  0.1685  0.1639
    1SOL    HW2 7658   4.036   1.733   3.045 -0.9921  0.3512 -0.1516
    1SOL    HW3 7659   3.956   1.605   3.042 -0.6861  0.1758 -0.8666
    1SOL    MW4 7660   4.023   1.653   3.014 -0.3400  0.1937 -0.0136
    1SOL     OW 7661   4.052   1.904   3.087 -0.1280  0.0325  0.2625
    1SOL    HW2 7662   4.121   1.951   3.040 -0.7184 -0.8751 -1.5227
    1SOL    HW3 7663   3.971   1.950   3.064 -0.4091 -0.3567  0.4681
    1SOL    MW4 7664   4.050   1.917   3.078 -0.2432 -0.1388  0.0539
    1SOL     OW 7665   4.281   2.037   2.974  0.1175  0.1035  0.1654
    1SOL    HW2 7666   4.274   2.130   2.993 -1.2102  0.1600 -0.5557
    1SOL    HW3 7667   4.261   2.029   2.881  0.3435 -0.8923  0.1905
    1SOL    MW4 7668   4.278   2.048   2.964 -0.0277 -0.0200  0.0737
    1SOL     OW 7669   4.276   2.304   3.073  0.5242  0.4493  0.6498
    1SOL    HW2 7670   4.197   2.327   3.025 -0.6943 -0.8510  2.0037
    1SOL    HW3 7671   4.346   2.353   3.029 -1.1606  2.3619  0.0412
    1SOL    MW4 7672   4.275   2.313   3.061  0.1416  0.5300  0.7484
    1SOL     OW 7673   4.005   2.398   2.975 -0.1608  0.2834 -0.4853
    1SOL    HW2 7674   4.029   2.485   3.008 -0.8654  0.1391  0.4250
    1SOL    HW3 7675   3.927   2.375   3.025 -0.5354 -0.4613 -1.4150
    1SOL    MW4 7676   3.998   2.407   2.986 -0.3033  0.1659 -0.4876
    1SOL     OW 7677   4.013   2.649   3.068 -0.0494  0.4335 -0.2759
    1SOL    HW2 7678   4.020   2.655   3.164 -0.2598  0.5906 -0.2692
    1SOL    HW3 7679   3.934   2.700   3.047  0.9140  1.7978 -0.6725
    1SOL    MW4 7680   4.003   2.657   3.078  0.0501  0.6342 -0.3273
    1SOL     OW 7681   4.211   2.839   3.008 -0.2171  0.7066  0.8564
    1SOL    HW2 7682   4.137   2.783   3.030 -0.9234  2.0973  2.1443
    1SOL    HW3 7683   4.287   2.792   3.041 -0.4427 -1.0242 -1.0271
    1SOL    MW4 7684   4.211   2.825   3.015 -0.3400  0.6616  0.7777
    1SOL     OW 7685   4.244   3.097   3.132  0.4170 -0.0835 -0.0632
    1SOL    HW2 7686   4.162   3.139   3.107 -0.2788 -0.3813  1.6346
    1SOL    HW3 7687   4.245   3.014   3.085 -0.1973 -0.0218 -0.1832
    1SOL    MW4 7688   4.234   3.092   3.123  0.2441 -0.1147  0.1454
    1SOL     OW 7689   4.023   3.220   3.032 -0.0119 -0.0013  0.3078
    1SOL    HW2 7690   4.030   3.311   3.060 -1.9322 -0.2692  1.7587
    1SOL    HW3 7691   4.044   3.221   2.939 -0.6128  2.0033  0.1872
    1SOL    MW4 7692   4.027   3.232   3.024 -0.3443  0.2279  0.4835
    1SOL     OW 7693   4.039   3.501   3.131  0.3754 -0.0161  0.0024
    1SOL    HW2 7694   4.041   3.484   3.225  1.3466  0.8002  0.1406
    1SOL    HW3 7695   3.957   3.547   3.116  0.5357  0.4617  0.5669
    1SOL    MW4 7696   4.029   3.504   3.141  0.5245  0.1547  0.0951
    1SOL     OW 7697   4.270   3.621   3.031 -0.4999 -0.2573  0.2444
    1SOL    HW2 7698   4.272   3.708   3.072  0.4403 -0.5054  0.7602
    1SOL    HW3 7699   4.190   3.581   3.063 -0.6018  0.1757  0.5377
    1SOL    MW4 7700   4.260   3.627   3.040 -0.3891 -0.2327  0.3514
    1SOL     OW 7701   4.286   3.884   3.138 -0.5185 -0.0405  0.4256
    1SOL    HW2 7702   4.212   3.935   3.106 -0.4483 -1.2798 -1.8011
    1SOL    HW3 7703   4.362   3.921   3.093 -0.2349 -0.9383  0.1459
    1SOL    MW4 7704   4.286   3.896   3.128 -0.4721 -0.3223  0.0947
    1SOL     OW 7705   4.076   4.016   3.027 -0.2286 -0.1601  0.0111
    1SOL    HW2 7706   4.055   4.106   3.051  0.9934  0.3972 -0.9321
    1SOL    HW3 7707   3.998   3.966   3.050 -1.2205  1.2672 -0.1683
    1SOL    MW4 7708   4.063   4.021   3.033 -0.1984  0.1016 -0.1371
    1SOL     OW 7709   4.014   4.273   3.106  0.1570  0.1585  0.0576
    1SOL    HW2 7710   4.014   4.269   3.202  0.2598  2.4875  0.1729
    1SOL    HW3 7711   4.102   4.303   3.083 -0.0576  0.1787 -0.7509
    1SOL    MW4 7712   4.025   4.276   3.116  0.1426  0.4683 -0.0339
    1SOL     OW 7713   4.251   4.395   3.045  0.0733 -0.3208  0.0775
    1SOL    HW2 7714   4.314   4.334   3.084  1.7472  0.3111 -1.5589
    1SOL    HW3 7715   4.264   4.386   2.950 -0.3774  1.8062 -0.2169
    1SOL    MW4 7716   4.261   4.386   3.037  0.2351  0.0434 -0.1771
    1SOL     OW 7717   0.223   0.005   3.399  0.0823  0.0584 -0.3843
    1SOL    HW2 7718   0.305   0.052   3.412  0.6015 -0.8638 -0.3105
    1SOL    HW3 7719   0.237  -0.080   3.441 -0.4960 -0.5486 -1.3947
    1SOL    MW4 7720   0.235  -0.000   3.407  0.0745 -0.1435 -0.5078
    1SOL     OW 7721   4.479   0.089   3.533  0.0106  0.2774 -0.3017
    1SOL    HW2 7722   4.465   0.179   3.503  1.3022  0.3886 -0.5841
    1SOL    HW3 7723   4.556   0.060   3.485  0.9432 -0.2168  1.4624
    1SOL    MW4 7724   4.487   0.097   3.522  0.3042  0.2268 -0.1061
    1SOL     OW 7725   4.459   0.327   3.430 -0.2886 -0.0343 -0.2814
    1SOL    HW2 7726   4.384   0.377   3.463 -0.4431 -0.1769 -0.4142
    1SOL    HW3 7727   4.535   0.380   3.453 -0.3292 -0.5049  1.0097
    1SOL    MW4 7728   4.459   0.341   3.437 -0.3147 -0.1152 -0.1287
    1SOL     OW 7729   0.177   0.500   3.484  0.3574  0.0648 -0.2378
    1SOL    HW2 7730   0.253   0.472   3.433  0.3269  1.4614 -1.0705
    1SOL    HW3 7731   0.155   0.587   3.450 -1.8215 -0.4542 -0.2329
    1SOL    MW4 7732   0.184   0.508   3.473  0.0659  0.1806 -0.3471
    1SOL     OW 7733   0.165   0.749   3.362 -0.2582 -0.0609  0.2441
    1SOL    HW2 7734   0.236   0.784   3.416 -0.4350  0.5460  0.0803
    1SOL    HW3 7735   0.086   0.788   3.399 -0.4045  0.1587 -0.2963
    1SOL    MW4 7736   0.164   0.759   3.374 -0.3008  0.0481  0.1514
    1SOL     OW 7737   4.450   0.875   3.507  0.5459 -0.5864  0.5463
    1SOL    HW2 7738   4.448   0.897   3.600  0.9710 -0.7170  0.5903
    1SOL    HW3 7739   4.451   0.960   3.463 -1.7627 -0.5170  0.5890
    1SOL    MW4 7740   4.450   0.889   3.513  0.2971 -0.5946  0.5577
    1SOL     OW 7741   4.471   1.125   3.361 -0.0907 -0.2275  0.2825
    1SOL    HW2 7742   4.547   1.175   3.392  0.0321  1.0088 -1.9205
    1SOL    HW3 7743   4.476   1.129   3.266 -2.0750 -1.4634  0.0809
    1SOL    MW4 7744   4.482   1.132   3.353 -0.3362 -0.2275 -0.0346
    1SOL     OW 7745   0.217   1.265   3.467  0.2356 -0.0253  0.3546
    1SOL    HW2 7746   0.206   1.269   3.562 -1.2645 -0.5659  0.2221
    1SOL    HW3 7747   0.215   1.356   3.438 -1.0421  0.0536  0.6718
    1SOL    MW4 7748   0.215   1.278   3.476 -0.1309 -0.0862  0.3791
    1SOL     OW 7749   0.218   1.522   3.384  0.5055  0.5640  0.2518
    1SOL    HW2 7750   0.302   1.561   3.406  0.0319  1.2401  0.8972
    1SOL    HW3 7751   0.212   1.530   3.289  1.0221  0.8023  0.2367
    1SOL    MW4 7752   0.228   1.528   3.374  0.5112  0.6846  0.3347
    1SOL     OW 7753   4.479   1.633   3.477 -0.0143  0.2282  0.2802
    1SOL    HW2 7754   4.406   1.580   3.445  0.5085 -0.6898  0.5688
    1SOL    HW3 7755   4.557   1.589   3.442  0.3950  1.3509 -0.2576
    1SOL    MW4 7756   4.480   1.620   3.468  0.1082  0.2552  0.2472
    1SOL     OW 7757   4.469   1.894   3.379  0.4161  0.4841 -0.5437
    1SOL    HW2 7758   4.480   1.803   3.406 -0.7161  0.5995  0.3449
    1SOL    HW3 7759   4.469   1.892   3.284 -0.9069 -0.6036 -0.5248
    1SOL    MW4 7760   4.470   1.882   3.370  0.0920  0.3558 -0.4239
    1SOL     OW 7761   0.221   2.034   3.469  0.0607  0.4676 -0.1004
    1SOL    HW2 7762   0.152   1.972   3.447  2.0041 -1.6606 -0.3350
    1SOL    HW3 7763   0.202   2.060   3.559 -0.9568 -0.1886 -0.1186
    1SOL    MW4 7764   0.209   2.029   3.478  0.1829  0.1001 -0.1338
    1SOL     OW 7765   0.223   2.297   3.387 -0.0173 -0.3835  0.1927
    1SOL    HW2 7766   0.147   2.336   3.430 -0.5536 -0.4750 -0.6564
    1SOL    HW3 7767   0.211   2.202   3.399 -0.0442 -0.3981  0.0517
    1SOL    MW4 7768   0.211   2.289   3.394 -0.0916 -0.3972  0.0622
    1SOL     OW 7769   4.483   2.426   3.451 -0.4020  0.0625 -0.2818
    1SOL    HW2 7770   4.464   2.412   3.544  1.1078 -1.2275 -0.1413
    1SOL    HW3 7771   4.406   2.392   3.405 -1.0571  0.5056  0.4894
    1SOL    MW4 7772   4.471   2.419   3.457 -0.2890 -0.0494 -0.1616
    1SOL     OW 7773   4.445   2.695   3.390 -0.3657 -0.5551  0.3467
    1SOL    HW2 7774   4.526   2.740   3.415 -1.0268  0.8314  0.0256
    1SOL    HW3 7775   4.456   2.606   3.425  1.3039 -0.3969  0.2855
    1SOL    MW4 7776   4.457   2.689   3.398 -0.2322 -0.3514  0.2964
    1SOL     OW 7777   0.216   2.802   3.467  0.1951  0.0872 -0.2274
    1SOL    HW2 7778   0.296   2.758   3.440  0.7690  0.3410  1.0190
    1SOL    HW3 7779   0.232   2.895   3.452 -0.1830  0.0705 -0.7594
    1SOL    MW4 7780   0.228   2.808   3.461  0.2209  0.1187 -0.1333
    1SOL     OW 7781   0.250   3.066   3.411 -0.3056  0.3121 -0.1337
    1SOL    HW2 7782   0.173   3.106   3.452 -2.2425 -2.3605 -1.0382
    1SOL    HW3 7783   0.236   3.077   3.317  0.2861 -0.4032 -0.3132
    1SOL    MW4 7784   0.238   3.073   3.404 -0.4831 -0.1349 -0.2766
    1SOL     OW 7785   0.020   3.175   3.505  0.4620  0.1359 -0.5812
    1SOL    HW2 7786  -0.069   3.155   3.476  0.5386 -0.5567 -0.3433
    1SOL    HW3 7787   0.031   3.268   3.485  0.2732 -0.1571 -2.1619
    1SOL    MW4 7788   0.010   3.185   3.498  0.4473  0.0057 -0.7586
    1SOL     OW 7789   0.015   3.461   3.430  0.0592  0.2731 -0.2824
    1SOL    HW2 7790  -0.061   3.497   3.475  0.7781  0.0329  1.1445
    1SOL    HW3 7791   0.001   3.483   3.338 -1.9967 -0.2260 -0.1231
    1SOL    MW4 7792   0.003   3.468   3.424 -0.1172  0.1752 -0.0732
    1SOL     OW 7793   0.255   3.590   3.513 -0.5660  0.0495  0.1106
    1SOL    HW2 7794   0.265   3.572   3.606 -0.7388 -0.7582 -0.0241
    1SOL    HW3 7795   0.167   3.558   3.492  0.1912 -1.5260 -0.7429
    1SOL    MW4 7796   0.245   3.583   3.522 -0.4889 -0.2649 -0.0198
    1SOL     OW 7797   0.212   3.835   3.401  0.4373 -0.4854  0.1753
    1SOL    HW2 7798   0.124   3.864   3.426  0.4143  0.4097 -0.9309
    1SOL    HW3 7799   0.220   3.748   3.441 -0.9036 -0.5311  0.3826
    1SOL    MW4 7800   0.202   3.827   3.410  0.2574 -0.3731  0.0567
    1SOL     OW 7801   4.480   3.978   3.527 -0.4835 -0.0765  0.0418
    1SOL    HW2 7802   4.490   3.983   3.622  2.5640 -1.9198 -0.1034
    1SOL    HW3 7803   4.504   4.065   3.495  2.0928 -0.4917  0.7461
    1SOL    MW4 7804   4.485   3.990   3.535  0.2580 -0.3746  0.1156
    1SOL     OW 7805   0.030   4.230   3.418 -0.0943  0.3593  0.2895
    1SOL    HW2 7806  -0.046   4.272   3.459  0.0322 -0.3448  1.2435
    1SOL    HW3 7807   0.103   4.287   3.441 -0.5951  2.1132 -2.2574
    1SOL    MW4 7808   0.029   4.243   3.426 -0.1436  0.4973  0.0792
    1SOL     OW 7809   0.234   4.403   3.506  0.1570 -0.2223  0.1520
    1SOL    HW2 7810   0.196   4.389   3.592 -0.3367  1.2650  0.1928
    1SOL    HW3 7811   0.283   4.323   3.488 -0.3404 -0.8429  1.4883
    1SOL    MW4 7812   0.235   4.390   3.515  0.0262 -0.1078  0.3335
    1SOL     OW 7813   0.658   4.665   3.388  0.1712  0.3618  0.2959
    1SOL    HW2 7814   0.743   4.702   3.414  0.7578 -0.6274 -0.2076
    1SOL    HW3 7815   0.648   4.691   3.296 -0.7330  1.6761  0.7425
    1SOL    MW4 7816   0.668   4.674   3.379  0.1293  0.4048  0.2885
    1SOL     OW 7817   0.453   0.157   3.475  0.8517 -0.2482  0.0277
    1SOL    HW2 7818   0.430   0.149   3.567  1.5333 -1.5013  0.0909
    1SOL    HW3 7819   0.530   0.101   3.463  0.9852  0.1695 -1.2187
    1SOL    MW4 7820   0.460   0.148   3.485  0.9592 -0.3584 -0.1285
    1SOL     OW 7821   0.419   0.423   3.380 -0.1805 -0.1074 -0.5710
    1SOL    HW2 7822   0.504   0.459   3.404 -0.0722  0.6093 -2.0422
    1SOL    HW3 7823   0.425   0.330   3.403  0.6020  0.1698  0.3630
    1SOL    MW4 7824   0.431   0.415   3.387 -0.0630  0.0238 -0.6418
    1SOL     OW 7825   0.666   0.507   3.464 -0.0827 -0.7761  0.1996
    1SOL    HW2 7826   0.654   0.503   3.559  1.3479  2.5941  0.6066
    1SOL    HW3 7827   0.746   0.457   3.447  1.4977  1.3119  1.2452
    1SOL    MW4 7828   0.675   0.500   3.474  0.3146 -0.0560  0.3912
    1SOL     OW 7829   0.618   0.769   3.397 -0.2622 -0.3420  0.3176
    1SOL    HW2 7830   0.538   0.802   3.437 -0.8444 -0.4901 -0.6917
    1SOL    HW3 7831   0.623   0.677   3.425 -0.4038 -0.3046  0.4606
    1SOL    MW4 7832   0.608   0.761   3.406 -0.3577 -0.3566  0.2034
    1SOL     OW 7833   0.379   0.886   3.500 -0.0523  0.3039  0.0716
    1SOL    HW2 7834   0.399   0.897   3.594 -0.0290 -1.4857  0.2879
    1SOL    HW3 7835   0.400   0.971   3.462  1.5163  0.5702  1.4297
    1SOL    MW4 7836   0.385   0.899   3.508  0.1577  0.1030  0.2792
    1SOL     OW 7837   0.436   1.116   3.353 -0.0543  0.0723 -0.1829
    1SOL    HW2 7838   0.363   1.177   3.360  0.5809  0.9263 -0.8249
    1SOL    HW3 7839   0.473   1.132   3.266  2.0358  0.9636  0.8195
    1SOL    MW4 7840   0.432   1.126   3.342  0.3053  0.3026 -0.1354
    1SOL     OW 7841   0.639   1.216   3.519 -0.2801  0.1667 -0.6527
    1SOL    HW2 7842   0.566   1.174   3.473  0.5459 -0.6487 -1.2223
    1SOL    HW3 7843   0.654   1.298   3.472  0.0621 -0.3068 -1.3739
    1SOL    MW4 7844   0.631   1.221   3.507 -0.1260 -0.0035 -0.8230
    1SOL     OW 7845   0.679   1.456   3.393 -0.4058 -0.0016 -0.0416
    1SOL    HW2 7846   0.745   1.502   3.444 -0.0941 -0.5432  0.0528
    1SOL    HW3 7847   0.598   1.503   3.410 -0.0147  0.7728 -0.2887
    1SOL    MW4 7848   0.677   1.468   3.402 -0.3131  0.0292 -0.0618
    1SOL     OW 7849   0.468   1.631   3.451 -0.1206 -0.6847 -0.4545
    1SOL    HW2 7850   0.448   1.637   3.545 -0.0123 -3.4924 -0.2135
    1SOL    HW3 7851   0.493   1.720   3.426  0.0093  0.0701  2.2151
    1SOL    MW4 7852   0.469   1.644   3.460 -0.0891 -0.9555 -0.0708
    1SOL     OW 7853   0.475   1.920   3.399  0.1502  0.1830  0.4375
    1SOL    HW2 7854   0.394   1.946   3.443  0.2731 -0.2571  0.9179
    1SOL    HW3 7855   0.452   1.921   3.306 -0.2721  0.5289  0.5400
    1SOL    MW4 7856   0.461   1.924   3.392  0.1107  0.1707  0.5145
    1SOL     OW 7857   0.719   2.011   3.466 -0.4248 -0.2347 -0.2536
    1SOL    HW2 7858   0.702   2.018   3.560 -0.0256  0.5666 -0.2406
    1SOL    HW3 7859   0.638   1.975   3.430 -0.3396 -1.1920  0.4831
    1SOL    MW4 7860   0.706   2.007   3.474 -0.3608 -0.2551 -0.1545
    1SOL     OW 7861   0.682   2.280   3.404 -0.5612  0.6272  0.4632
    1SOL    HW2 7862   0.763   2.322   3.434  0.0388  0.8770 -1.4322
    1SOL    HW3 7863   0.698   2.186   3.414  0.3647  0.6298 -0.8301
    1SOL    MW4 7864   0.695   2.273   3.409 -0.3598  0.6607  0.0424
    1SOL     OW 7865   0.449   2.431   3.448 -0.3495 -0.2151 -0.1691
    1SOL    HW2 7866   0.520   2.367   3.442 -0.4142 -0.4558  1.6016
    1SOL    HW3 7867   0.369   2.378   3.442 -0.3981 -0.2335  0.6474
    1SOL    MW4 7868   0.448   2.415   3.446 -0.3644 -0.2494  0.1721
    1SOL     OW 7869   0.460   2.702   3.387  0.4276  0.0994  0.3216
    1SOL    HW2 7870   0.457   2.609   3.406 -2.1170  0.0445 -0.1672
    1SOL    HW3 7871   0.475   2.707   3.293 -0.5656  0.1491  0.1596
    1SOL    MW4 7872   0.461   2.691   3.377 -0.0392  0.0987  0.2356
    1SOL     OW 7873   0.679   2.824   3.503 -0.0695  0.6706 -0.3693
    1SOL    HW2 7874   0.751   2.784   3.454  1.2115  1.3440  0.9321
    1SOL    HW3 7875   0.602   2.772   3.479  1.2848 -1.6513  0.1567
    1SOL    MW4 7876   0.678   2.812   3.493  0.2781  0.4530 -0.1283
    1SOL     OW 7877   0.667   3.102   3.385 -0.0131 -0.0534  0.4206
    1SOL    HW2 7878   0.591   3.148   3.420  0.2824  0.3377  0.5500
    1SOL    HW3 7879   0.661   3.013   3.421 -0.7256 -0.1911 -0.0414
    1SOL    MW4 7880   0.656   3.096   3.394 -0.0681 -0.0198  0.3767
    1SOL     OW 7881   0.460   3.234   3.504 -0.2662 -0.0418 -0.0034
    1SOL    HW2 7882   0.452   3.233   3.600 -1.3130  0.0940 -0.0832
    1SOL    HW3 7883   0.392   3.175   3.474 -0.1299  0.1435 -0.6846
    1SOL    MW4 7884   0.450   3.226   3.513 -0.3863  0.0005 -0.1040
    1SOL     OW 7885   0.472   3.484   3.402 -0.5521 -0.1739  0.5849
    1SOL    HW2 7886   0.465   3.392   3.427 -1.4161 -0.9201 -2.1370
    1SOL    HW3 7887   0.397   3.526   3.444 -2.3127 -1.5008 -1.0906
    1SOL    MW4 7888   0.461   3.477   3.411 -0.8984 -0.4473  0.0048
    1SOL     OW 7889   0.718   3.640   3.494 -0.6328  0.4084  0.1237
    1SOL    HW2 7890   0.794   3.581   3.492  0.3960  1.7410 -0.8638
    1SOL    HW3 7891   0.647   3.588   3.457  0.3968 -0.0275 -1.2663
    1SOL    MW4 7892   0.719   3.625   3.489 -0.3612  0.5267 -0.1898
    1SOL     OW 7893   0.669   3.885   3.377 -0.2041 -0.1148 -0.8231
    1SOL    HW2 7894   0.597   3.923   3.427  0.1373 -0.2075 -0.2527
    1SOL    HW3 7895   0.679   3.797   3.413  0.1393 -0.1299 -0.9549
    1SOL    MW4 7896   0.661   3.879   3.388 -0.1137 -0.1290 -0.7651
    1SOL     OW 7897   0.456   3.975   3.516  0.4835 -0.3801  0.0173
    1SOL    HW2 7898   0.445   4.064   3.483  0.1023  0.3536  1.9941
    1SOL    HW3 7899   0.379   3.928   3.485  1.2432 -0.3361 -1.9762
    1SOL    MW4 7900   0.444   3.980   3.508  0.5334 -0.2775  0.0153
    1SOL     OW 7901   0.431   4.220   3.427  0.1895  0.1209  0.0955
    1SOL    HW2 7902   0.500   4.283   3.444 -0.0331  0.3043  0.3391
    1SOL    HW3 7903   0.418   4.221   3.332  0.4366  0.1737  0.0646
    1SOL    MW4 7904   0.438   4.228   3.417  0.1928  0.1526  0.1235
    1SOL     OW 7905   0.629   4.396   3.478 -0.1789  0.4758  0.3934
    1SOL    HW2 7906   0.711   4.362   3.442 -1.5333 -0.4888 -1.8765
    1SOL    HW3 7907   0.631   4.489   3.459 -0.3961  0.1524 -1.2629
    1SOL    MW4 7908   0.640   4.403   3.471 -0.3862  0.3057 -0.1249
    1SOL     OW 7909   1.110   4.647   3.410 -0.2566  0.1518  0.1463
    1SOL    HW2 7910   1.183   4.703   3.437 -1.4550  1.7583  0.0911
    1SOL    HW3 7911   1.114   4.646   3.315  0.5282 -0.9100  0.1776
    1SOL    MW4 7912   1.120   4.654   3.401 -0.3111  0.2236  0.1431
    1SOL     OW 7913   0.886   0.106   3.480 -0.2073 -0.2443 -0.2529
    1SOL    HW2 7914   0.875   0.123   3.573  1.9228  1.1030 -0.2224
    1SOL    HW3 7915   0.960   0.046   3.475  0.2699  0.4088 -1.1278
    1SOL    MW4 7916   0.894   0.101   3.491  0.1367  0.0196 -0.3645
    1SOL     OW 7917   0.905   0.359   3.364  0.4683  0.1258  0.0590
    1SOL    HW2 7918   0.994   0.383   3.387  0.2456 -0.3177  1.4101
    1SOL    HW3 7919   0.900   0.265   3.381 -0.5744  0.3484  1.0488
    1SOL    MW4 7920   0.916   0.350   3.369  0.3014  0.0966  0.3679
    1SOL     OW 7921   1.122   0.487   3.474  0.0378  0.2535  0.0364
    1SOL    HW2 7922   1.099   0.474   3.566  1.0548 -0.6810  0.1626
    1SOL    HW3 7923   1.111   0.582   3.460  0.2290  0.4553  1.2185
    1SOL    MW4 7924   1.118   0.498   3.484  0.1973  0.1568  0.2089
    1SOL     OW 7925   1.120   0.753   3.419 -0.3884 -0.0575  0.0668
    1SOL    HW2 7926   1.188   0.816   3.440  1.2163 -1.8316  0.2551
    1SOL    HW3 7927   1.039   0.795   3.448  0.7160  1.6666  0.7205
    1SOL    MW4 7928   1.118   0.767   3.426 -0.0310 -0.0641  0.1779
    1SOL     OW 7929   0.878   0.861   3.504 -0.4266  0.4167 -0.1481
    1SOL    HW2 7930   0.875   0.949   3.466 -1.0045  0.5375  0.1785
    1SOL    HW3 7931   0.789   0.829   3.497 -0.2801 -0.0287  0.0163
    1SOL    MW4 7932   0.866   0.868   3.498 -0.4835  0.3739 -0.0832
    1SOL     OW 7933   0.870   1.122   3.396  0.8214  0.7718  0.0526
    1SOL    HW2 7934   0.939   1.180   3.428  1.1483  0.6021 -0.3412
    1SOL    HW3 7935   0.792   1.148   3.445  0.8794  1.7891 -0.3754
    1SOL    MW4 7936   0.869   1.133   3.407  0.8721  0.8838 -0.0560
    1SOL     OW 7937   1.075   1.261   3.502 -0.4094  0.7554  0.0575
    1SOL    HW2 7938   1.086   1.257   3.597  1.2228 -0.2445 -0.1642
    1SOL    HW3 7939   1.091   1.353   3.480  0.8743  0.6622  0.5613
    1SOL    MW4 7940   1.078   1.273   3.512 -0.0246  0.6113  0.0944
    1SOL     OW 7941   1.139   1.525   3.422  0.1774  0.1202  0.2755
    1SOL    HW2 7942   1.226   1.559   3.443  0.5605 -0.3622 -0.5141
    1SOL    HW3 7943   1.132   1.534   3.327 -0.4724 -0.2375  0.2836
    1SOL    MW4 7944   1.149   1.531   3.412  0.1421  0.0093  0.1724
    1SOL     OW 7945   0.882   1.595   3.504 -0.2382 -0.0831  0.6502
    1SOL    HW2 7946   0.899   1.687   3.482  2.0296 -0.1391  1.9671
    1SOL    HW3 7947   0.962   1.550   3.477 -1.2782 -1.6566  0.1743
    1SOL    MW4 7948   0.895   1.602   3.498 -0.0763 -0.2981  0.7613
    1SOL     OW 7949   0.937   1.849   3.397 -0.1262 -0.2733 -0.1189
    1SOL    HW2 7950   1.011   1.897   3.435  0.1631  0.3636 -1.4642
    1SOL    HW3 7951   0.860   1.898   3.428  0.1324  0.5798 -0.7974
    1SOL    MW4 7952   0.937   1.862   3.406 -0.0539 -0.0768 -0.3858
    1SOL     OW 7953   1.092   2.053   3.508  0.1924  0.1068 -0.4231
    1SOL    HW2 7954   1.178   2.022   3.480  0.3557  0.2576 -0.0849
    1SOL    HW3 7955   1.082   2.137   3.463  0.5442  0.4472  0.1394
    1SOL    MW4 7956   1.102   2.060   3.498  0.2604  0.1717 -0.3042
    1SOL     OW 7957   1.116   2.316   3.402  0.1028 -0.0705  0.6094
    1SOL    HW2 7958   1.201   2.344   3.436  0.6002 -2.2702  1.2875
    1SOL    HW3 7959   1.122   2.332   3.308  1.7349 -1.2915  0.4803
    1SOL    MW4 7960   1.128   2.322   3.394  0.3837 -0.5217  0.6816
    1SOL     OW 7961   0.906   2.447   3.507 -0.4542  0.2147 -0.6169
    1SOL    HW2 7962   0.901   2.442   3.603 -0.5605  3.3100 -0.4155
    1SOL    HW3 7963   0.986   2.400   3.484  0.7708  1.3861  1.1825
    1SOL    MW4 7964   0.916   2.440   3.517 -0.3067  0.7777 -0.3531
    1SOL     OW 7965   0.908   2.705   3.384  0.7649 -0.1989 -0.1320
    1SOL    HW2 7966   0.953   2.753   3.454  0.3111  0.4261 -0.2618
    1SOL    HW3 7967   0.895   2.617   3.419  1.1684 -0.0857  0.3025
    1SOL    MW4 7968   0.912   2.700   3.398  0.7582 -0.1016 -0.0918
    1SOL     OW 7969   1.096   2.820   3.543  0.0292 -0.2272  0.1441
    1SOL    HW2 7970   1.105   2.817   3.638 -0.3355 -1.6710  0.1485
    1SOL    HW3 7971   1.167   2.764   3.511 -1.8743 -2.4773 -0.2790
    1SOL    MW4 7972   1.107   2.812   3.551 -0.2700 -0.7143  0.0887
    1SOL     OW 7973   1.133   3.086   3.453  0.0316  0.3633 -0.6216
    1SOL    HW2 7974   1.132   2.997   3.488 -2.4682  0.4013 -0.4804
    1SOL    HW3 7975   1.143   3.074   3.359 -0.7285 -0.1112 -0.6520
    1SOL    MW4 7976   1.134   3.073   3.446 -0.3984  0.3059 -0.6070
    1SOL     OW 7977   0.899   3.215   3.531 -0.3492  0.1776 -0.0772
    1SOL    HW2 7978   0.982   3.172   3.513 -0.1556  1.3551 -2.0688
    1SOL    HW3 7979   0.839   3.181   3.464 -1.4212 -0.4744  1.1845
    1SOL    MW4 7980   0.902   3.205   3.520 -0.4650  0.2472 -0.1736
    1SOL     OW 7981   0.926   3.474   3.461  0.9044  0.1295 -0.2761
    1SOL    HW2 7982   0.926   3.382   3.490 -1.2062 -0.0927 -0.9127
    1SOL    HW3 7983   0.922   3.469   3.366  0.9608  0.8869 -0.3163
    1SOL    MW4 7984   0.925   3.461   3.452  0.6334  0.2000 -0.3653
    1SOL     OW 7985   1.162   3.616   3.501 -0.3275  0.2480  0.2861
    1SOL    HW2 7986   1.155   3.620   3.597 -1.1360 -0.0142  0.2435
    1SOL    HW3 7987   1.086   3.565   3.474 -0.3964  0.7889 -0.5439
    1SOL    MW4 7988   1.151   3.610   3.510 -0.4432  0.2847  0.1709
    1SOL     OW 7989   1.140   3.890   3.388 -0.4423  0.4051  0.0373
    1SOL    HW2 7990   1.209   3.941   3.429  0.5682 -1.6398  0.9823
    1SOL    HW3 7991   1.142   3.806   3.434 -2.5524 -0.2205 -0.9417
    1SOL    MW4 7992   1.149   3.886   3.399 -0.5872  0.0527  0.0329
    1SOL     OW 7993   0.910   4.024   3.434  0.1431  0.1035 -0.1219
    1SOL    HW2 7994   0.989   3.978   3.407  0.3452  0.6090 -0.4094
    1SOL    HW3 7995   0.838   3.974   3.395  0.4068  0.5135 -1.1624
    1SOL    MW4 7996   0.911   4.011   3.425  0.2044  0.2246 -0.2973
    1SOL     OW 7997   0.871   4.297   3.371 -0.3706 -0.3182  0.0346
    1SOL    HW2 7998   0.869   4.209   3.408  1.1434 -0.6388 -0.5924
    1SOL    HW3 7999   0.868   4.284   3.276 -0.8215  0.3381 -0.0456
    1SOL    MW4 8000   0.871   4.284   3.363 -0.2304 -0.2737 -0.0587
    1SOL     OW 8001   1.103   4.379   3.494  0.0503 -0.1224 -0.4206
    1SOL    HW2 8002   1.018   4.347   3.463 -0.8933  1.6435  0.2969
    1SOL    HW3 8003   1.105   4.471   3.471  0.3740  0.6455  2.4460
    1SOL    MW4 8004   1.092   4.387   3.487 -0.0315  0.2112  0.0525
    1SOL     OW 8005   1.579   4.660   3.388 -0.3455 -0.1003 -0.7937
    1SOL    HW2 8006   1.588   4.578   3.436 -0.8200  0.0386 -0.4559
    1SOL    HW3 8007   1.497   4.697   3.420  0.4088  1.0313 -0.1449
    1SOL    MW4 8008   1.569   4.654   3.398 -0.3085  0.0677 -0.6635
    1SOL     OW 8009   1.345   0.119   3.472 -0.0752  0.1818  0.0187
    1SOL    HW2 8010   1.325   0.118   3.566 -0.1728  0.4291  0.0015
    1SOL    HW3 8011   1.355   0.212   3.451 -0.3147  0.1410 -0.2734
    1SOL    MW4 8012   1.344   0.132   3.482 -0.1197  0.2090 -0.0222
    1SOL     OW 8013   1.350   0.380   3.367  0.5810 -0.2602  0.1087
    1SOL    HW2 8014   1.429   0.427   3.394  1.0104 -1.6027  1.2959
    1SOL    HW3 8015   1.278   0.428   3.407  0.8520  0.5849 -0.4197
    1SOL    MW4 8016   1.351   0.392   3.376  0.6734 -0.3259  0.1955
    1SOL     OW 8017   1.536   0.538   3.497  0.0432  0.2164 -0.0432
    1SOL    HW2 8018   1.526   0.529   3.592  0.8936  0.1605  0.0446
    1SOL    HW3 8019   1.613   0.486   3.476  0.1166  0.5857 -0.7020
    1SOL    MW4 8020   1.545   0.530   3.507  0.1650  0.2577 -0.1187
    1SOL     OW 8021   1.557   0.797   3.383 -0.5500  0.1351 -0.4825
    1SOL    HW2 8022   1.476   0.845   3.397 -0.7592 -0.4039  0.1715
    1SOL    HW3 8023   1.547   0.717   3.435  0.3820  0.0512 -0.4281
    1SOL    MW4 8024   1.545   0.793   3.392 -0.4548  0.0529 -0.3889
    1SOL     OW 8025   1.331   0.911   3.506 -0.1938  0.2182 -0.3493
    1SOL    HW2 8026   1.325   0.928   3.600  1.0747  0.1714 -0.2559
    1SOL    HW3 8027   1.322   0.997   3.465 -1.6452  0.1377 -0.2440
    1SOL    MW4 8028   1.329   0.925   3.513 -0.2179  0.2013 -0.3231
    1SOL     OW 8029   1.320   1.163   3.395  0.3458 -0.3430 -0.4122
    1SOL    HW2 8030   1.385   1.222   3.432  0.7946 -1.1499  0.0916
    1SOL    HW3 8031   1.236   1.200   3.421  0.6287 -0.0843  0.1272
    1SOL    MW4 8032   1.317   1.176   3.403  0.4423 -0.4154 -0.2749
    1SOL     OW 8033   1.547   1.307   3.505  0.0815  0.0279 -0.6157
    1SOL    HW2 8034   1.564   1.290   3.598 -0.3823  1.1429 -0.3129
    1SOL    HW3 8035   1.625   1.275   3.460  0.6935  0.2779  0.2469
    1SOL    MW4 8036   1.559   1.301   3.511  0.1011  0.2079 -0.4621
    1SOL     OW 8037   1.600   1.574   3.417  0.1644 -0.4003  0.1541
    1SOL    HW2 8038   1.596   1.482   3.444  1.7756 -0.8143 -0.9376
    1SOL    HW3 8039   1.593   1.571   3.322 -0.3708  0.6545  0.1604
    1SOL    MW4 8040   1.598   1.562   3.408  0.3064 -0.3157  0.0110
    1SOL     OW 8041   1.352   1.658   3.526  0.0704  0.1793 -0.0617
    1SOL    HW2 8042   1.347   1.635   3.619 -1.4847 -0.4808 -0.2858
    1SOL    HW3 8043   1.436   1.624   3.497  0.5767  0.4145  1.1107
    1SOL    MW4 8044   1.362   1.650   3.534 -0.0679  0.1234  0.0634
    1SOL     OW 8045   1.329   1.917   3.416 -0.2905  0.0043 -0.4082
    1SOL    HW2 8046   1.405   1.964   3.451  0.2280 -0.7328 -0.5260
    1SOL    HW3 8047   1.333   1.831   3.458 -0.6508 -0.2868 -0.9669
    1SOL    MW4 8048   1.340   1.912   3.426 -0.2695 -0.1314 -0.4976
    1SOL     OW 8049   1.555   2.047   3.520 -0.2007 -0.1135  0.2791
    1SOL    HW2 8050   1.640   2.014   3.489 -0.7826 -1.0288 -0.3590
    1SOL    HW3 8051   1.545   2.131   3.474 -0.5040 -0.8978 -1.1202
    1SOL    MW4 8052   1.565   2.054   3.510 -0.3175 -0.3376  0.0103
    1SOL     OW 8053   1.572   2.314   3.416  0.6578  0.1030  0.2077
    1SOL    HW2 8054   1.493   2.358   3.448 -0.1165 -0.8647 -0.3535
    1SOL    HW3 8055   1.562   2.313   3.321  0.0446 -2.4289  0.2734
    1SOL    MW4 8056   1.560   2.320   3.407  0.4747 -0.3588  0.1426
    1SOL     OW 8057   1.350   2.427   3.514 -0.1245  0.5642 -0.3519
    1SOL    HW2 8058   1.336   2.426   3.609  1.3844  0.4304 -0.1296
    1SOL    HW3 8059   1.343   2.520   3.490 -1.8754  0.4558 -0.3300
    1SOL    MW4 8060   1.347   2.439   3.524 -0.1564  0.5322 -0.3195
    1SOL     OW 8061   1.324   2.685   3.444 -0.3204 -0.0967 -0.0301
    1SOL    HW2 8062   1.406   2.727   3.471  0.6092 -1.2960 -0.9136
    1SOL    HW3 8063   1.326   2.689   3.349 -0.9804 -0.7263 -0.0708
    1SOL    MW4 8064   1.335   2.691   3.435 -0.2849 -0.3378 -0.1521
    1SOL     OW 8065   1.573   2.818   3.527  0.6016  0.1994 -0.3317
    1SOL    HW2 8066   1.643   2.759   3.500  0.3008  0.3461 -1.4517
    1SOL    HW3 8067   1.596   2.902   3.488 -0.4881  0.1144 -1.1919
    1SOL    MW4 8068   1.585   2.821   3.518  0.4181  0.2074 -0.5929
    1SOL     OW 8069   1.585   3.060   3.398 -0.1763  0.1487 -0.3304
    1SOL    HW2 8070   1.655   3.114   3.435 -0.7599  1.3477 -0.9368
    1SOL    HW3 8071   1.504   3.103   3.425 -0.7362 -1.8808  1.3353
    1SOL    MW4 8072   1.584   3.073   3.406 -0.3271  0.0391 -0.1907
    1SOL     OW 8073   1.373   3.204   3.487  0.1999 -0.4364 -0.4659
    1SOL    HW2 8074   1.386   3.216   3.581 -0.6664  0.2042 -0.4203
    1SOL    HW3 8075   1.284   3.171   3.479 -0.2825  0.9737 -1.1566
    1SOL    MW4 8076   1.363   3.201   3.499  0.0219 -0.1657 -0.5510
    1SOL     OW 8077   1.369   3.461   3.409 -0.0958 -0.1174  0.0534
    1SOL    HW2 8078   1.377   3.372   3.445 -1.7790 -0.5535 -0.5877
    1SOL    HW3 8079   1.290   3.496   3.451 -0.0159  0.7118 -0.4837
    1SOL    MW4 8080   1.360   3.454   3.420 -0.3073 -0.0656 -0.1020
    1SOL     OW 8081   1.582   3.603   3.496  0.4852 -0.1862  0.1570
    1SOL    HW2 8082   1.572   3.599   3.592  0.9998 -1.1789  0.1795
    1SOL    HW3 8083   1.508   3.552   3.463 -0.7885  1.7573 -0.0492
    1SOL    MW4 8084   1.571   3.596   3.505  0.3849 -0.0608  0.1328
    1SOL     OW 8085   1.566   3.875   3.422  0.1140  0.4260 -0.4624
    1SOL    HW2 8086   1.580   3.786   3.454  0.8697  1.0143  0.9027
    1SOL    HW3 8087   1.573   3.868   3.327 -1.2195 -1.2005 -0.4640
    1SOL    MW4 8088   1.569   3.862   3.413  0.0376  0.2892 -0.2823
    1SOL     OW 8089   1.345   4.015   3.526  0.1418 -0.5109 -0.8206
    1SOL    HW2 8090   1.335   4.099   3.480  0.1345 -0.5815 -0.9485
    1SOL    HW3 8091   1.430   3.981   3.495  0.0594 -0.6367 -0.9073
    1SOL    MW4 8092   1.355   4.022   3.516  0.1299 -0.5364 -0.8490
    1SOL     OW 8093   1.342   4.257   3.392 -0.2236  0.4243 -0.1935
    1SOL    HW2 8094   1.261   4.306   3.406  1.4390  3.2542 -0.0616
    1SOL    HW3 8095   1.361   4.269   3.300  0.1728 -0.0794 -0.1785
    1SOL    MW4 8096   1.334   4.265   3.382  0.0480  0.7315 -0.1740
    1SOL     OW 8097   1.573   4.384   3.494  0.0217  0.3880 -0.3056
    1SOL    HW2 8098   1.645   4.333   3.457  0.1355  0.1979  0.1702
    1SOL    HW3 8099   1.494   4.340   3.465  0.1020  0.4765 -0.6584
    1SOL    MW4 8100   1.572   4.371   3.485  0.0473  0.3748 -0.2890
    1SOL     OW 8101   2.028   0.007   3.401  0.0985  0.6168  0.2083
    1SOL    HW2 8102   2.095   0.064   3.440  0.0012  1.3250 -0.6575
    1SOL    HW3 8103   1.945   0.045   3.429  0.0340  0.0217  0.8685
    1SOL    MW4 8104   2.026   0.019   3.410  0.0770  0.6318  0.1814
    1SOL     OW 8105   1.809   0.127   3.517 -0.0121 -0.0870 -0.1995
    1SOL    HW2 8106   1.808   0.130   3.612  0.6281  1.5491 -0.2313
    1SOL    HW3 8107   1.722   0.097   3.493  0.4060 -2.3264  0.9360
    1SOL    MW4 8108   1.798   0.123   3.526  0.1276 -0.1666 -0.0541
    1SOL     OW 8109   1.770   0.392   3.435 -0.0215  0.4255  0.0446
    1SOL    HW2 8110   1.778   0.309   3.481  0.5568  1.1975  1.3729
    1SOL    HW3 8111   1.773   0.369   3.342  0.6613 -0.9842  0.4062
    1SOL    MW4 8112   1.771   0.378   3.428  0.1447  0.3413  0.2675
    1SOL     OW 8113   2.031   0.463   3.439  0.1611 -0.6547 -0.3330
    1SOL    HW2 8114   2.028   0.558   3.423  0.4580 -0.7637 -1.0696
    1SOL    HW3 8115   1.939   0.436   3.438  0.1632 -0.6493 -1.8875
    1SOL    MW4 8116   2.018   0.472   3.437  0.2005 -0.6684 -0.6354
    1SOL     OW 8117   1.988   0.754   3.393 -0.3064 -0.1357  0.2395
    1SOL    HW2 8118   2.057   0.814   3.421  1.5486 -1.9444 -0.3272
    1SOL    HW3 8119   1.999   0.747   3.298 -1.0440 -0.7407  0.1899
    1SOL    MW4 8120   1.998   0.761   3.384 -0.1590 -0.4541  0.1583
    1SOL     OW 8121   1.785   0.926   3.485  0.0147 -0.0437  0.5225
    1SOL    HW2 8122   1.853   0.872   3.445 -0.3948 -0.3988  0.3064
    1SOL    HW3 8123   1.702   0.889   3.453 -0.2974  0.0454  1.2276
    1SOL    MW4 8124   1.783   0.914   3.475 -0.0805 -0.0787  0.5872
    1SOL     OW 8125   1.785   1.176   3.370 -0.0851  0.3308 -0.0856
    1SOL    HW2 8126   1.867   1.224   3.385  0.0493  0.6031 -1.5492
    1SOL    HW3 8127   1.794   1.096   3.422  1.1441  0.3291 -0.2722
    1SOL    MW4 8128   1.797   1.172   3.378  0.0948  0.3666 -0.3033
    1SOL     OW 8129   2.011   1.307   3.466  0.1601 -0.4118 -0.2985
    1SOL    HW2 8130   2.033   1.302   3.559 -0.0613  0.5859 -0.1875
    1SOL    HW3 8131   2.010   1.401   3.447 -2.1055 -0.5045 -0.7519
    1SOL    MW4 8132   2.014   1.319   3.476 -0.1681 -0.2924 -0.3436
    1SOL     OW 8133   2.019   1.574   3.369 -0.8371  0.1145  0.2323
    1SOL    HW2 8134   2.101   1.604   3.409 -0.8542 -1.0640  1.1749
    1SOL    HW3 8135   1.951   1.624   3.414 -0.6926  0.6779 -0.1550
    1SOL    MW4 8136   2.021   1.585   3.380 -0.8206  0.0334  0.3059
    1SOL     OW 8137   1.829   1.711   3.473  0.3777  0.5173  0.2691
    1SOL    HW2 8138   1.812   1.794   3.427 -0.8583  0.5022  0.6818
    1SOL    HW3 8139   1.752   1.658   3.455  0.3617  0.1168  1.5023
    1SOL    MW4 8140   1.817   1.715   3.464  0.2126  0.4624  0.4864
    1SOL     OW 8141   1.796   1.978   3.395 -0.2888  0.3939  0.0856
    1SOL    HW2 8142   1.873   2.023   3.430  0.9153 -0.8297 -0.9347
    1SOL    HW3 8143   1.798   1.997   3.301 -1.3153  0.4580  0.0697
    1SOL    MW4 8144   1.806   1.986   3.387 -0.2655  0.2408 -0.0513
    1SOL     OW 8145   2.070   2.076   3.510 -0.4269  0.6437  0.1462
    1SOL    HW2 8146   2.145   2.025   3.482 -0.4930  0.5042  0.2247
    1SOL    HW3 8147   2.074   2.156   3.457  0.3915  1.1114  0.9205
    1SOL    MW4 8148   2.080   2.080   3.499 -0.3278  0.6871  0.2584
    1SOL     OW 8149   2.038   2.327   3.356  0.2194  0.2491 -0.0580
    1SOL    HW2 8150   1.956   2.352   3.399 -0.5163 -2.6976  0.3915
    1SOL    HW3 8151   2.017   2.328   3.263 -0.3553 -0.4800  0.0541
    1SOL    MW4 8152   2.024   2.330   3.350  0.0465 -0.2358  0.0162
    1SOL     OW 8153   1.812   2.414   3.516 -0.5409 -0.1147  0.2937
    1SOL    HW2 8154   1.815   2.416   3.612 -0.8142  0.2656  0.2979
    1SOL    HW3 8155   1.722   2.389   3.496 -1.2706  2.5307  0.1297
    1SOL    MW4 8156   1.800   2.411   3.526 -0.6733  0.2847  0.2728
    1SOL     OW 8157   1.810   2.674   3.395 -0.1022 -0.0093  0.0993
    1SOL    HW2 8158   1.887   2.720   3.427 -0.5668  0.8452  0.0035
    1SOL    HW3 8159   1.821   2.584   3.427  1.4362 -0.1532 -0.8002
    1SOL    MW4 8160   1.821   2.668   3.404  0.0393  0.0844 -0.0319
    1SOL     OW 8161   2.029   2.823   3.479  0.0603 -0.0022 -0.0464
    1SOL    HW2 8162   2.026   2.846   3.572  0.2720 -1.5908  0.3570
    1SOL    HW3 8163   2.006   2.905   3.434 -0.2120  0.7355  1.3972
    1SOL    MW4 8164   2.026   2.837   3.485  0.0522 -0.1144  0.1972
    1SOL     OW 8165   1.977   3.083   3.351  0.1354  0.7812 -0.5632
    1SOL    HW2 8166   2.054   3.116   3.398  0.3606 -0.8250  0.2166
    1SOL    HW3 8167   1.903   3.107   3.407  0.2246  0.6879 -0.4042
    1SOL    MW4 8168   1.977   3.091   3.365  0.1769  0.5572 -0.4392
    1SOL     OW 8169   1.800   3.208   3.522 -0.0486  0.4428  0.4775
    1SOL    HW2 8170   1.783   3.223   3.615  2.2770 -0.2331  1.0389
    1SOL    HW3 8171   1.815   3.296   3.486 -0.5287  0.6697  0.8284
    1SOL    MW4 8172   1.800   3.222   3.530  0.1949  0.3836  0.5980
    1SOL     OW 8173   1.806   3.450   3.408  0.2719 -0.4431 -0.3018
    1SOL    HW2 8174   1.723   3.499   3.409  2.5765  3.6657  0.7665
    1SOL    HW3 8175   1.832   3.448   3.316  0.3067  0.6927 -0.3272
    1SOL    MW4 8176   1.798   3.456   3.396  0.5807  0.2489 -0.1645
    1SOL     OW 8177   1.997   3.634   3.525  0.4683 -0.3776  0.3266
    1SOL    HW2 8178   2.078   3.589   3.499  0.4784  0.3423 -0.9213
    1SOL    HW3 8179   1.927   3.576   3.495  0.4926 -0.0064 -0.4403
    1SOL    MW4 8180   1.998   3.620   3.518  0.4727 -0.2337  0.0606
    1SOL     OW 8181   2.036   3.884   3.408 -0.1534 -0.0298 -0.3941
    1SOL    HW2 8182   1.952   3.925   3.431  0.1943 -0.1088  1.0637
    1SOL    HW3 8183   2.029   3.796   3.444 -0.2820 -0.7529 -2.1628
    1SOL    MW4 8184   2.024   3.878   3.416 -0.1245 -0.1359 -0.4351
    1SOL     OW 8185   1.805   3.990   3.517  0.3077  0.1128  0.3581
    1SOL    HW2 8186   1.794   3.986   3.612  1.1847  2.3635  0.5803
    1SOL    HW3 8187   1.722   3.958   3.482 -1.4469  2.8343  1.9177
    1SOL    MW4 8188   1.792   3.985   3.525  0.1919  0.7687  0.5932
    1SOL     OW 8189   1.800   4.252   3.442  0.0976 -0.1787  0.1267
    1SOL    HW2 8190   1.818   4.163   3.474 -0.3918 -0.7299 -1.1023
    1SOL    HW3 8191   1.804   4.245   3.347  0.2268  1.1643  0.0216
    1SOL    MW4 8192   1.803   4.239   3.434  0.0501 -0.0749 -0.0494
    1SOL     OW 8193   2.017   4.409   3.529  0.0736  0.2047  0.6150
    1SOL    HW2 8194   1.934   4.372   3.500  0.6333  0.4644 -1.3696
    1SOL    HW3 8195   2.021   4.495   3.488  1.6001 -0.0618  0.1762
    1SOL    MW4 8196   2.007   4.416   3.520  0.3486  0.2036  0.2954
    1SOL     OW 8197   2.447   4.650   3.441  0.1832  0.6170 -0.3230
    1SOL    HW2 8198   2.447   4.554   3.445  0.6698  0.6352  0.0013
    1SOL    HW3 8199   2.446   4.669   3.347 -1.5575  0.2916 -0.3888
    1SOL    MW4 8200   2.447   4.640   3.429  0.0176  0.5765 -0.2890
    1SOL     OW 8201   2.249   0.126   3.531  0.2099 -0.2844 -0.1888
    1SOL    HW2 8202   2.248   0.204   3.475  0.1814 -0.8137 -0.9247
    1SOL    HW3 8203   2.320   0.073   3.496  1.3167  0.1487  1.3356
    1SOL    MW4 8204   2.259   0.130   3.519  0.3521 -0.2971 -0.0849
    1SOL     OW 8205   2.271   0.342   3.357 -0.2359  0.1090 -0.4312
    1SOL    HW2 8206   2.348   0.375   3.401  0.5506 -1.2730 -0.7413
    1SOL    HW3 8207   2.199   0.396   3.390  0.5141 -0.0919  1.5868
    1SOL    MW4 8208   2.271   0.353   3.367 -0.0331 -0.0998 -0.2058
    1SOL     OW 8209   2.448   0.486   3.528  0.1058 -0.2360 -0.4758
    1SOL    HW2 8210   2.528   0.459   3.483  1.1684  1.2415  0.4608
    1SOL    HW3 8211   2.433   0.576   3.498 -0.3853  0.0027  0.4639
    1SOL    MW4 8212   2.457   0.495   3.518  0.1812 -0.0096 -0.2282
    1SOL     OW 8213   2.449   0.758   3.459 -0.3467 -0.2234 -0.3589
    1SOL    HW2 8214   2.527   0.804   3.488 -1.0125 -0.0051  1.1122
    1SOL    HW3 8215   2.458   0.752   3.364  0.6201  1.3167 -0.3658
    1SOL    MW4 8216   2.460   0.763   3.450 -0.3068  0.0087 -0.1657
    1SOL     OW 8217   2.210   0.895   3.481  0.3628 -0.2946 -0.0837
    1SOL    HW2 8218   2.229   0.975   3.432  0.2457 -0.8718 -1.1074
    1SOL    HW3 8219   2.293   0.848   3.483  0.0695 -0.8615 -0.8570
    1SOL    MW4 8220   2.223   0.899   3.475  0.3083 -0.4455 -0.3209
    1SOL     OW 8221   2.225   1.147   3.383  0.0861  0.1918  0.2166
    1SOL    HW2 8222   2.300   1.180   3.432  0.6784 -0.0307 -0.5201
    1SOL    HW3 8223   2.152   1.202   3.410  0.7076  1.0023  0.2622
    1SOL    MW4 8224   2.226   1.159   3.393  0.2460  0.2694  0.1256
    1SOL     OW 8225   2.462   1.248   3.501 -0.0927  0.1836 -0.2856
    1SOL    HW2 8226   2.468   1.245   3.596  1.3518  0.6928 -0.3420
    1SOL    HW3 8227   2.549   1.224   3.470 -0.9668 -1.5074 -1.5300
    1SOL    MW4 8228   2.474   1.245   3.509 -0.0176  0.0278 -0.4570
    1SOL     OW 8229   2.481   1.537   3.439  0.0942 -0.4467 -0.0032
    1SOL    HW2 8230   2.483   1.446   3.467  0.9749 -0.9359 -1.5885
    1SOL    HW3 8231   2.480   1.533   3.343  1.7885  1.2134 -0.1304
    1SOL    MW4 8232   2.481   1.525   3.430  0.4339 -0.2922 -0.2291
    1SOL     OW 8233   2.255   1.663   3.505 -0.6045 -0.6646  0.1548
    1SOL    HW2 8234   2.260   1.691   3.597  0.2528  0.7847 -0.3221
    1SOL    HW3 8235   2.338   1.619   3.489  0.8269  2.3220 -0.9486
    1SOL    MW4 8236   2.266   1.661   3.515 -0.3023 -0.0794 -0.0536
    1SOL     OW 8237   2.286   1.922   3.388 -0.4767 -0.4596  0.5981
    1SOL    HW2 8238   2.268   1.833   3.417 -1.9885 -0.1045  0.7783
    1SOL    HW3 8239   2.277   1.918   3.293 -1.6285 -0.2651  0.6938
    1SOL    MW4 8240   2.282   1.910   3.379 -0.8283 -0.3871  0.6347
    1SOL     OW 8241   2.511   2.062   3.488  0.0192 -0.3540 -0.1690
    1SOL    HW2 8242   2.429   2.027   3.452 -0.3728  1.0033 -0.6644
    1SOL    HW3 8243   2.513   2.153   3.456  1.1389 -0.0261  0.8172
    1SOL    MW4 8244   2.500   2.070   3.479  0.1149 -0.1314 -0.1044
    1SOL     OW 8245   2.474   2.328   3.396  0.4180  0.4511 -0.0779
    1SOL    HW2 8246   2.395   2.381   3.408 -0.4385 -0.8672  0.1789
    1SOL    HW3 8247   2.546   2.387   3.420 -0.5451  1.3659  0.6137
    1SOL    MW4 8248   2.473   2.343   3.400  0.1779  0.3977  0.0474
    1SOL     OW 8249   2.235   2.486   3.442 -0.1458  0.0034 -0.5809
    1SOL    HW2 8250   2.165   2.440   3.397  0.0512 -0.0210 -0.8621
    1SOL    HW3 8251   2.228   2.577   3.412  0.5005 -0.1745 -1.3061
    1SOL    MW4 8252   2.225   2.492   3.432 -0.0343 -0.0231 -0.7138
    1SOL     OW 8253   2.264   2.754   3.346 -0.1045  0.1261 -0.7456
    1SOL    HW2 8254   2.179   2.783   3.380  0.2722  0.8298 -0.3821
    1SOL    HW3 8255   2.249   2.737   3.253 -1.1002 -1.6163 -0.2854
    1SOL    MW4 8256   2.251   2.756   3.338 -0.1862 -0.0107 -0.6368
    1SOL     OW 8257   2.465   2.882   3.480 -0.2817  0.1279 -0.4420
    1SOL    HW2 8258   2.461   2.974   3.455 -0.7748  0.1980 -0.1027
    1SOL    HW3 8259   2.395   2.840   3.429  0.7198 -0.2821 -1.5216
    1SOL    MW4 8260   2.455   2.888   3.470 -0.2148  0.0830 -0.5400
    1SOL     OW 8261   2.442   3.136   3.391 -0.1796 -0.8156  0.4309
    1SOL    HW2 8262   2.530   3.158   3.422 -0.0863 -0.8817  0.2137
    1SOL    HW3 8263   2.452   3.125   3.297 -0.9160  1.7065  0.0228
    1SOL    MW4 8264   2.455   3.137   3.383 -0.2646 -0.4916  0.3486
    1SOL     OW 8265   2.193   3.194   3.489  0.4522 -0.5471  0.2044
    1SOL    HW2 8266   2.207   3.219   3.580  1.5851 -1.5603  0.3160
    1SOL    HW3 8267   2.280   3.170   3.457 -0.0972 -1.1561 -0.8528
    1SOL    MW4 8268   2.206   3.194   3.497  0.5291 -0.7610  0.0794
    1SOL     OW 8269   2.235   3.480   3.427 -0.3887  0.2154  0.2834
    1SOL    HW2 8270   2.222   3.387   3.446 -0.0602 -0.0294 -0.6305
    1SOL    HW3 8271   2.240   3.484   3.331  0.6920  1.0271  0.3645
    1SOL    MW4 8272   2.234   3.468   3.417 -0.2029  0.2902  0.1733
    1SOL     OW 8273   2.475   3.581   3.523 -0.1507 -0.3403  0.0997
    1SOL    HW2 8274   2.478   3.672   3.495 -3.4297  0.8647  3.2770
    1SOL    HW3 8275   2.397   3.545   3.481  0.2020 -1.1874  0.1692
    1SOL    MW4 8276   2.465   3.588   3.514 -0.5369 -0.2930  0.5281
    1SOL     OW 8277   2.472   3.845   3.432  0.2035 -0.0445 -0.4408
    1SOL    HW2 8278   2.544   3.902   3.460  0.2888 -0.5967  0.4935
    1SOL    HW3 8279   2.393   3.892   3.458  0.2705 -0.2990  0.2233
    1SOL    MW4 8280   2.471   3.859   3.439  0.2236 -0.1509 -0.2301
    1SOL     OW 8281   2.247   3.983   3.538 -0.4046  0.5051  0.3171
    1SOL    HW2 8282   2.250   4.075   3.512  0.4187  0.5621  0.5887
    1SOL    HW3 8283   2.170   3.948   3.494 -0.6352  1.2887  0.0886
    1SOL    MW4 8284   2.238   3.991   3.528 -0.3264  0.6158  0.3226
    1SOL     OW 8285   2.236   4.247   3.470 -0.1354  0.6685 -0.2567
    1SOL    HW2 8286   2.161   4.296   3.502 -0.0691  0.4001  0.3273
    1SOL    HW3 8287   2.229   4.250   3.375 -0.9553  0.5350 -0.2044
    1SOL    MW4 8288   2.225   4.254   3.462 -0.2346  0.6151 -0.1726
    1SOL     OW 8289   2.481   4.387   3.495 -0.1841  0.0532  0.3195
    1SOL    HW2 8290   2.486   4.409   3.588 -1.2252  0.0692  0.3763
    1SOL    HW3 8291   2.401   4.335   3.487 -0.6937  0.9766 -0.7434
    1SOL    MW4 8292   2.471   4.383   3.506 -0.3886  0.1774  0.1867
    1SOL     OW 8293   2.905   4.663   3.410  0.1310 -0.3941  0.4444
    1SOL    HW2 8294   2.836   4.709   3.458  0.2800 -0.2498  0.5184
    1SOL    HW3 8295   2.905   4.704   3.323  0.9519  0.4388  0.8274
    1SOL    MW4 8296   2.896   4.674   3.404  0.2589 -0.2652  0.5050
    1SOL     OW 8297   2.673   0.136   3.518 -0.1601 -0.5308 -0.1542
    1SOL    HW2 8298   2.681   0.137   3.613 -0.6885 -0.6404 -0.1096
    1SOL    HW3 8299   2.588   0.096   3.501 -0.4823  0.3527 -0.6499
    1SOL    MW4 8300   2.663   0.131   3.528 -0.2728 -0.4287 -0.2136
    1SOL     OW 8301   2.675   0.378   3.378  0.2475  0.1186 -0.3440
    1SOL    HW2 8302   2.741   0.438   3.413 -1.5147  1.7181  0.3711
    1SOL    HW3 8303   2.691   0.295   3.422  1.6985  0.5295 -0.0925
    1SOL    MW4 8304   2.686   0.375   3.388  0.2065  0.3839 -0.2165
    1SOL     OW 8305   2.869   0.522   3.519  0.4800  0.0082 -0.7251
    1SOL    HW2 8306   2.875   0.526   3.614  1.3860 -2.0191 -0.6643
    1SOL    HW3 8307   2.911   0.602   3.488  2.4732 -0.5365  0.5179
    1SOL    MW4 8308   2.875   0.533   3.527  0.8624 -0.3312 -0.5531
    1SOL     OW 8309   2.951   0.764   3.409 -0.0386  0.0750 -0.0792
    1SOL    HW2 8310   3.027   0.800   3.453  0.4820 -0.9478 -0.1335
    1SOL    HW3 8311   2.877   0.816   3.443  0.7874  1.8269 -0.8830
    1SOL    MW4 8312   2.951   0.776   3.420  0.1392  0.1712 -0.1924
    1SOL     OW 8313   2.718   0.902   3.508  0.0270 -0.1979 -0.3823
    1SOL    HW2 8314   2.729   0.916   3.602 -0.0297 -1.4161 -0.1830
    1SOL    HW3 8315   2.716   0.990   3.471  0.3518  0.2890  0.7210
    1SOL    MW4 8316   2.720   0.916   3.516  0.0622 -0.2944 -0.2105
    1SOL     OW 8317   2.716   1.144   3.393  0.5054  0.0557  0.0068
    1SOL    HW2 8318   2.788   1.200   3.420  0.5080  0.3341 -0.5685
    1SOL    HW3 8319   2.727   1.135   3.298 -0.5369  0.5689 -0.1722
    1SOL    MW4 8320   2.727   1.150   3.384  0.3684  0.1602 -0.0930
    1SOL     OW 8321   2.926   1.275   3.488  0.0075 -0.4788 -0.4188
    1SOL    HW2 8322   2.907   1.252   3.579  2.3573 -1.1847 -0.0816
    1SOL    HW3 8323   2.984   1.205   3.458  0.1450  0.3528 -2.1200
    1SOL    MW4 8324   2.931   1.262   3.496  0.3357 -0.4622 -0.5987
    1SOL     OW 8325   2.914   1.538   3.387  0.0911 -0.0610 -0.2407
    1SOL    HW2 8326   2.836   1.582   3.421  0.6647 -0.0660  1.0965
    1SOL    HW3 8327   2.916   1.454   3.433  1.5471  0.4332  0.6225
    1SOL    MW4 8328   2.904   1.532   3.397  0.3591  0.0036  0.0496
    1SOL     OW 8329   2.719   1.682   3.517 -0.2143 -0.1928  0.0455
    1SOL    HW2 8330   2.726   1.765   3.469 -0.3879 -0.6014 -0.6835
    1SOL    HW3 8331   2.632   1.648   3.495  0.1419 -0.9293 -0.2496
    1SOL    MW4 8332   2.709   1.688   3.508 -0.1903 -0.3439 -0.0894
    1SOL     OW 8333   2.748   1.926   3.384  0.0013 -0.5931  0.3195
    1SOL    HW2 8334   2.670   1.976   3.407  0.6179  0.2508  0.5764
    1SOL    HW3 8335   2.737   1.907   3.291 -0.3849 -0.2612  0.2946
    1SOL    MW4 8336   2.736   1.930   3.375  0.0315 -0.4380  0.3500
    1SOL     OW 8337   2.961   2.092   3.461  0.8124 -0.4466  0.2506
    1SOL    HW2 8338   2.933   2.110   3.551 -2.8755  3.8965 -1.4983
    1SOL    HW3 8339   2.898   2.027   3.429  0.2377  0.2527 -0.0555
    1SOL    MW4 8340   2.949   2.086   3.468  0.2501  0.2184 -0.0207
    1SOL     OW 8341   2.913   2.340   3.337 -0.2819 -0.3455 -0.7265
    1SOL    HW2 8342   2.926   2.248   3.360 -0.1694 -0.2349 -0.3551
    1SOL    HW3 8343   2.891   2.338   3.244 -1.3081 -0.8396 -0.4817
    1SOL    MW4 8344   2.912   2.328   3.328 -0.4025 -0.3965 -0.6454
    1SOL     OW 8345   2.703   2.467   3.484 -0.2004 -0.8867  0.3168
    1SOL    HW2 8346   2.709   2.444   3.576  1.9862 -1.1343  0.1347
    1SOL    HW3 8347   2.772   2.417   3.442 -0.7767 -0.3120 -1.3756
    1SOL    MW4 8348   2.713   2.457   3.490  0.0122 -0.8435  0.0696
    1SOL     OW 8349   2.692   2.726   3.366 -0.0620 -0.2137 -0.0005
    1SOL    HW2 8350   2.689   2.641   3.410 -0.7181 -0.4414 -0.4806
    1SOL    HW3 8351   2.626   2.779   3.411  0.2430 -0.0033  0.2018
    1SOL    MW4 8352   2.683   2.721   3.378 -0.1085 -0.2160 -0.0372
    1SOL     OW 8353   2.915   2.825   3.471  0.5716  0.6392  0.1657
    1SOL    HW2 8354   2.883   2.825   3.561  2.5881  1.7235  0.9214
    1SOL    HW3 8355   2.844   2.787   3.420 -0.4179 -0.4232  2.2787
    1SOL    MW4 8356   2.901   2.820   3.476  0.7071  0.6423  0.5441
    1SOL     OW 8357   2.940   3.074   3.397 -0.2540 -0.5134  0.3417
    1SOL    HW2 8358   2.939   2.984   3.427  1.9967 -0.4767  0.5910
    1SOL    HW3 8359   2.935   3.067   3.301  0.4599 -0.9155  0.3349
    1SOL    MW4 8360   2.939   3.061   3.388  0.1371 -0.5617  0.3738
    1SOL     OW 8361   2.694   3.205   3.469  0.2076  0.4001  0.6478
    1SOL    HW2 8362   2.696   3.214   3.565 -0.2196 -1.3952  0.8481
    1SOL    HW3 8363   2.770   3.151   3.449 -0.3502 -0.1761  0.0895
    1SOL    MW4 8364   2.704   3.199   3.479  0.0777  0.0875  0.6006
    1SOL     OW 8365   2.708   3.469   3.387 -0.4902  0.1473  0.0256
    1SOL    HW2 8366   2.720   3.380   3.418  0.2995  0.2471  0.0165
    1SOL    HW3 8367   2.623   3.496   3.423  0.5089  0.3532  2.2852
    1SOL    MW4 8368   2.698   3.461   3.396 -0.2542  0.1879  0.3226
    1SOL     OW 8369   2.942   3.585   3.495 -0.2560 -0.0638  0.5424
    1SOL    HW2 8370   2.944   3.673   3.458 -0.1320  0.8205  2.5916
    1SOL    HW3 8371   2.864   3.545   3.458 -0.4806  1.0162 -0.1627
    1SOL    MW4 8372   2.932   3.591   3.485 -0.2692  0.1955  0.7195
    1SOL     OW 8373   2.911   3.851   3.389  0.2894 -0.6709  0.9815
    1SOL    HW2 8374   2.969   3.917   3.428 -0.7396  0.5148  0.5260
    1SOL    HW3 8375   2.824   3.874   3.420  0.0586 -2.5813  1.8311
    1SOL    MW4 8376   2.907   3.862   3.398  0.1230 -0.7665  1.0333
    1SOL     OW 8377   2.692   3.983   3.508  0.5723  0.2905 -0.4577
    1SOL    HW2 8378   2.710   3.984   3.602 -0.2481 -0.0381 -0.2893
    1SOL    HW3 8379   2.684   4.075   3.484 -0.4095  0.3432  0.0386
    1SOL    MW4 8380   2.693   3.995   3.517  0.3347  0.2542 -0.3703
    1SOL     OW 8381   2.710   4.270   3.407  0.1332 -0.2799 -0.0004
    1SOL    HW2 8382   2.774   4.332   3.442  0.2724  0.1856 -1.0568
    1SOL    HW3 8383   2.626   4.305   3.435  0.2252  0.2648 -0.3959
    1SOL    MW4 8384   2.707   4.283   3.415  0.1638 -0.1469 -0.1917
    1SOL     OW 8385   2.917   4.413   3.504 -0.1772 -0.1456  0.0630
    1SOL    HW2 8386   2.936   4.422   3.598 -2.2607 -0.6590  0.5452
    1SOL    HW3 8387   2.912   4.503   3.472  3.8455  0.0502 -0.2868
    1SOL    MW4 8388   2.919   4.426   3.513  0.0787 -0.1874  0.0806
    1SOL     OW 8389   3.377   0.013   3.408  0.2295  0.1066  0.5901
    1SOL    HW2 8390   3.304   0.052   3.455  0.6249 -0.8781  2.0476
    1SOL    HW3 8391   3.345   0.003   3.318 -1.2929  0.0428  1.1220
    1SOL    MW4 8392   3.363   0.017   3.402  0.0811 -0.0317  0.8526
    1SOL     OW 8393   3.154   0.102   3.525  0.4438 -0.7530  0.2460
    1SOL    HW2 8394   3.136   0.194   3.503 -0.2968 -0.4536  2.0019
    1SOL    HW3 8395   3.086   0.053   3.478  1.2878 -0.4737 -1.2859
    1SOL    MW4 8396   3.142   0.108   3.516  0.4575 -0.6767  0.2756
    1SOL     OW 8397   3.111   0.361   3.441  0.8697  0.0076  0.6687
    1SOL    HW2 8398   3.045   0.420   3.478 -0.0517 -1.4297  1.3569
    1SOL    HW3 8399   3.097   0.365   3.347 -0.5181 -0.6543  0.8418
    1SOL    MW4 8400   3.101   0.369   3.433  0.5651 -0.2694  0.7823
    1SOL     OW 8401   3.366   0.480   3.491 -0.0314  0.6983 -0.1598
    1SOL    HW2 8402   3.351   0.483   3.586  0.9135 -0.3619  0.0354
    1SOL    HW3 8403   3.294   0.427   3.458 -0.5435  1.3359 -0.0804
    1SOL    MW4 8404   3.355   0.473   3.499  0.0255  0.6425 -0.1235
    1SOL     OW 8405   3.355   0.738   3.392  0.1109 -0.0715  0.4842
    1SOL    HW2 8406   3.426   0.790   3.429  2.0666 -1.7815 -0.7682
    1SOL    HW3 8407   3.364   0.652   3.432 -1.7404 -0.1108  0.8757
    1SOL    MW4 8408   3.366   0.734   3.402  0.1249 -0.3023  0.3705
    1SOL     OW 8409   3.178   0.867   3.538 -0.5583  0.2672 -0.4423
    1SOL    HW2 8410   3.170   0.946   3.485  1.8186  0.5884 -0.3911
    1SOL    HW3 8411   3.243   0.814   3.492 -1.3088 -1.1656  0.1275
    1SOL    MW4 8412   3.186   0.870   3.525 -0.3438  0.1205 -0.3605
    1SOL     OW 8413   3.114   1.102   3.402  0.0144  0.1520 -0.2581
    1SOL    HW2 8414   3.189   1.145   3.443  0.5100  0.1734 -1.1775
    1SOL    HW3 8415   3.120   1.125   3.309 -0.2212 -1.1478 -0.6161
    1SOL    MW4 8416   3.124   1.111   3.395  0.0486 -0.0166 -0.4268
    1SOL     OW 8417   3.345   1.271   3.458 -0.0110  0.2293  0.1508
    1SOL    HW2 8418   3.426   1.225   3.433 -0.4430 -0.7059  0.4203
    1SOL    HW3 8419   3.352   1.357   3.417  1.0528  0.0973  0.0428
    1SOL    MW4 8420   3.357   1.276   3.449  0.0722  0.0886  0.1721
    1SOL     OW 8421   3.361   1.536   3.385 -0.1721 -0.0092  0.0695
    1SOL    HW2 8422   3.422   1.563   3.454  0.0714 -0.6170  0.0971
    1SOL    HW3 8423   3.280   1.583   3.405  0.3704  1.0179 -0.1271
    1SOL    MW4 8424   3.358   1.545   3.397 -0.0684  0.0460  0.0472
    1SOL     OW 8425   3.142   1.673   3.472  0.7536  0.0150  0.3135
    1SOL    HW2 8426   3.145   1.760   3.433  0.9626  0.9386  2.3552
    1SOL    HW3 8427   3.059   1.636   3.442  0.0108  1.4444  0.5722
    1SOL    MW4 8428   3.132   1.680   3.463  0.6833  0.3254  0.6170
    1SOL     OW 8429   3.174   1.942   3.382  0.2900  0.4152  0.3621
    1SOL    HW2 8430   3.105   2.002   3.411  1.5000  1.8820  0.2352
    1SOL    HW3 8431   3.252   1.971   3.428  1.3318  0.2108 -1.2561
    1SOL    MW4 8432   3.175   1.954   3.392  0.5872  0.5817  0.1321
    1SOL     OW 8433   3.388   2.087   3.500  0.5161  0.0079 -0.2745
    1SOL    HW2 8434   3.369   2.172   3.460  1.6079  0.7347  0.7296
    1SOL    HW3 8435   3.385   2.103   3.594  0.1340 -1.2051 -0.0738
    1SOL    MW4 8436   3.385   2.100   3.507  0.6099 -0.0565 -0.1159
    1SOL     OW 8437   3.357   2.349   3.361 -0.0639  0.2038  0.4944
    1SOL    HW2 8438   3.434   2.382   3.406 -0.3432 -0.9107  1.8127
    1SOL    HW3 8439   3.282   2.387   3.408 -0.4203 -2.9609  2.6787
    1SOL    MW4 8440   3.357   2.358   3.373 -0.1481 -0.3607  0.9565
    1SOL     OW 8441   3.113   2.447   3.505 -0.4761 -0.0251 -0.3919
    1SOL    HW2 8442   3.111   2.538   3.474 -2.7187  0.0865  0.0076
    1SOL    HW3 8443   3.041   2.404   3.458 -0.5509 -1.1565  0.7269
    1SOL    MW4 8444   3.103   2.453   3.495 -0.7818 -0.1595 -0.1915
    1SOL     OW 8445   3.133   2.690   3.368  0.1568 -0.1319 -0.3235
    1SOL    HW2 8446   3.214   2.737   3.388  0.1076  0.1520 -0.7910
    1SOL    HW3 8447   3.066   2.735   3.419  0.3721 -0.6895  0.4744
    1SOL    MW4 8448   3.135   2.702   3.378  0.1786 -0.1678 -0.2797
    1SOL     OW 8449   3.358   2.831   3.472  0.3941  0.0089 -0.0366
    1SOL    HW2 8450   3.340   2.815   3.565 -0.5819  0.5540 -0.1235
    1SOL    HW3 8451   3.357   2.926   3.463 -2.0574 -0.0870 -1.0755
    1SOL    MW4 8452   3.356   2.841   3.483 -0.0582  0.0682 -0.1853
    1SOL     OW 8453   3.370   3.083   3.398 -0.0290 -0.1093 -0.5884
    1SOL    HW2 8454   3.450   3.126   3.431 -0.0017 -0.2816 -0.4274
    1SOL    HW3 8455   3.299   3.139   3.429  0.1392  1.3645 -2.7672
    1SOL    MW4 8456   3.371   3.096   3.407 -0.0033  0.0625 -0.8547
    1SOL     OW 8457   3.154   3.207   3.494  0.1594 -0.5629 -0.0959
    1SOL    HW2 8458   3.136   3.291   3.453  0.7707 -0.3750  0.0114
    1SOL    HW3 8459   3.085   3.149   3.462 -0.1497 -0.0743 -0.3222
    1SOL    MW4 8460   3.143   3.210   3.485  0.1991 -0.4740 -0.1116
    1SOL     OW 8461   3.142   3.455   3.375 -0.4487  0.6223 -0.1415
    1SOL    HW2 8462   3.060   3.486   3.414 -0.5991  0.7242 -0.5322
    1SOL    HW3 8463   3.129   3.468   3.281  0.4315  1.6207 -0.1306
    1SOL    MW4 8464   3.129   3.461   3.367 -0.3526  0.7677 -0.1915
    1SOL     OW 8465   3.372   3.621   3.481 -0.1075 -0.1881  0.3508
    1SOL    HW2 8466   3.349   3.710   3.456 -0.2346  0.1339  1.5918
    1SOL    HW3 8467   3.297   3.569   3.453 -0.7791  0.3447  1.1381
    1SOL    MW4 8468   3.359   3.626   3.474 -0.2131 -0.0753  0.6185
    1SOL     OW 8469   3.337   3.886   3.423 -0.0426  0.9602 -0.2856
    1SOL    HW2 8470   3.407   3.938   3.461 -0.7720  0.5572  1.6740
    1SOL    HW3 8471   3.258   3.916   3.468 -0.5192 -1.5167  0.6233
    1SOL    MW4 8472   3.336   3.896   3.434 -0.2017  0.5801  0.0930
    1SOL     OW 8473   3.096   4.002   3.532 -0.0652  0.1372  0.3602
    1SOL    HW2 8474   3.095   4.016   3.627  0.0552 -0.5764  0.4699
    1SOL    HW3 8475   3.117   4.087   3.496  0.2873  0.3267  0.9973
    1SOL    MW4 8476   3.099   4.015   3.540 -0.0029  0.0682  0.4587
    1SOL     OW 8477   3.126   4.245   3.419  0.2172  0.1044  0.0950
    1SOL    HW2 8478   3.195   4.306   3.445  1.6314 -0.9567 -1.0872
    1SOL    HW3 8479   3.045   4.294   3.432  1.2208  1.6182  0.8432
    1SOL    MW4 8480   3.125   4.260   3.424  0.5362  0.1640  0.0377
    1SOL     OW 8481   3.338   4.397   3.491 -0.0627 -0.4179 -0.1082
    1SOL    HW2 8482   3.350   4.394   3.586  0.3303 -0.5753 -0.1613
    1SOL    HW3 8483   3.348   4.489   3.468  0.5415 -0.4737 -0.0838
    1SOL    MW4 8484   3.341   4.409   3.500  0.0687 -0.4463 -0.1121
    1SOL     OW 8485   3.827   4.606   3.377 -0.3334  0.1401 -0.0299
    1SOL    HW2 8486   3.750   4.629   3.430 -0.0828 -0.2743  0.5121
    1SOL    HW3 8487   3.797   4.617   3.287 -0.8039  0.7215  0.1874
    1SOL    MW4 8488   3.813   4.611   3.372 -0.3624  0.1621  0.0703
    1SOL     OW 8489   3.628   0.087   3.522  0.1876  0.3150 -0.0035
    1SOL    HW2 8490   3.645   0.171   3.478 -0.0639 -0.0328 -0.7728
    1SOL    HW3 8491   3.542   0.060   3.489  0.0576 -0.0133  0.6069
    1SOL    MW4 8492   3.619   0.095   3.512  0.1373  0.2258 -0.0246
    1SOL     OW 8493   3.608   0.355   3.429  0.2859 -0.1540 -0.0725
    1SOL    HW2 8494   3.676   0.410   3.467  0.6050 -0.0790 -0.7394
    1SOL    HW3 8495   3.525   0.394   3.457  0.4743  1.8193 -2.1408
    1SOL    MW4 8496   3.606   0.367   3.437  0.3529  0.1163 -0.4332
    1SOL     OW 8497   3.803   0.545   3.482  0.0247  0.0892  0.0042
    1SOL    HW2 8498   3.798   0.542   3.578 -0.2683 -0.1453 -0.0172
    1SOL    HW3 8499   3.873   0.483   3.460 -1.8436 -2.0390 -0.0867
    1SOL    MW4 8500   3.812   0.536   3.492 -0.2606 -0.2225 -0.0105
    1SOL     OW 8501   3.796   0.780   3.357  0.4324  0.0705  0.3235
    1SOL    HW2 8502   3.868   0.830   3.396  0.1417  0.9978 -0.3267
    1SOL    HW3 8503   3.802   0.694   3.398 -0.7033  1.4094  3.4778
    1SOL    MW4 8504   3.806   0.775   3.368  0.2439  0.3695  0.6540
    1SOL     OW 8505   3.559   0.881   3.483  0.2078 -0.3528 -0.0054
    1SOL    HW2 8506   3.589   0.880   3.574  1.0059 -0.9750 -0.2773
    1SOL    HW3 8507   3.634   0.851   3.432 -0.2919 -0.1682 -0.8577
    1SOL    MW4 8508   3.573   0.877   3.488  0.2472 -0.4104 -0.1535
    1SOL     OW 8509   3.570   1.139   3.379 -0.1245 -0.0278  0.1734
    1SOL    HW2 8510   3.559   1.051   3.416 -2.1630  0.2154  0.2119
    1SOL    HW3 8511   3.579   1.124   3.285  1.6293 -0.4072  0.3862
    1SOL    MW4 8512   3.570   1.125   3.372 -0.1621 -0.0457  0.2062
    1SOL     OW 8513   3.799   1.256   3.486  0.4629 -0.1708  0.1326
    1SOL    HW2 8514   3.786   1.257   3.581  0.3919 -2.5297  0.1694
    1SOL    HW3 8515   3.727   1.203   3.452  0.4025  0.7725 -1.2789
    1SOL    MW4 8516   3.788   1.249   3.494  0.4456 -0.3576 -0.0486
    1SOL     OW 8517   3.771   1.521   3.376 -0.7710  0.3840  0.3126
    1SOL    HW2 8518   3.855   1.557   3.405  0.1405 -1.0536 -0.4689
    1SOL    HW3 8519   3.766   1.434   3.415 -1.5824  0.1871 -0.2012
    1SOL    MW4 8520   3.781   1.514   3.385 -0.7577  0.1683  0.1419
    1SOL     OW 8521   3.578   1.663   3.516  0.2931 -0.1930 -0.3446
    1SOL    HW2 8522   3.567   1.743   3.465  1.9424 -0.1771 -0.7253
    1SOL    HW3 8523   3.655   1.621   3.477 -0.5389 -1.9606 -0.1430
    1SOL    MW4 8524   3.587   1.668   3.504  0.4013 -0.4240 -0.3681
    1SOL     OW 8525   3.585   1.915   3.384  0.6329  0.1116  0.7779
    1SOL    HW2 8526   3.671   1.946   3.414  0.5719 -0.0004  1.0739
    1SOL    HW3 8527   3.522   1.969   3.432  0.5412  1.5803 -0.9335
    1SOL    MW4 8528   3.588   1.926   3.394  0.6127  0.2906  0.5910
    1SOL     OW 8529   3.802   2.037   3.498 -0.3089 -0.1091  0.3455
    1SOL    HW2 8530   3.787   2.025   3.591  0.3131  1.0507  0.6093
    1SOL    HW3 8531   3.881   1.986   3.479  0.4785  0.9199  0.7945
    1SOL    MW4 8532   3.811   2.029   3.507 -0.1228  0.1795  0.4394
    1SOL     OW 8533   3.767   2.299   3.386 -0.0695 -0.4772 -0.1038
    1SOL    HW2 8534   3.862   2.313   3.391 -0.5502  2.4587  1.9821
    1SOL    HW3 8535   3.753   2.219   3.436  1.2385 -0.6564  0.0156
    1SOL    MW4 8536   3.778   2.290   3.393  0.0398 -0.1135  0.1874
    1SOL     OW 8537   3.569   2.444   3.502 -0.2015  0.4603  0.1033
    1SOL    HW2 8538   3.570   2.526   3.452  1.0808  0.5705  0.2895
    1SOL    HW3 8539   3.650   2.400   3.477 -0.3745 -0.2607  0.8043
    1SOL    MW4 8540   3.580   2.449   3.492 -0.0553  0.3798  0.2203
    1SOL     OW 8541   3.570   2.678   3.367  0.3613  0.3326  0.9731
    1SOL    HW2 8542   3.654   2.717   3.389  0.3557 -0.4423  2.4718
    1SOL    HW3 8543   3.505   2.737   3.405  0.2933 -0.0359  1.4380
    1SOL    MW4 8544   3.573   2.691   3.375  0.3517  0.1814  1.2324
    1SOL     OW 8545   3.810   2.797   3.464 -0.0554  0.1303  0.0603
    1SOL    HW2 8546   3.799   2.811   3.558  0.3463  0.1420  0.1096
    1SOL    HW3 8547   3.814   2.885   3.427 -0.4116  0.1223  0.0110
    1SOL    MW4 8548   3.809   2.810   3.472 -0.0494  0.1309  0.0603
    1SOL     OW 8549   3.797   3.055   3.373 -0.1457  0.1289  0.1018
    1SOL    HW2 8550   3.872   3.101   3.410 -0.4932  0.1721  0.7680
    1SOL    HW3 8551   3.809   3.061   3.279  1.0644 -0.4864  0.2034
    1SOL    MW4 8552   3.808   3.062   3.366 -0.0317  0.0532  0.2034
    1SOL     OW 8553   3.578   3.228   3.505 -0.0884  0.2778 -0.1353
    1SOL    HW2 8554   3.589   3.313   3.462 -0.3469 -0.3844 -1.5419
    1SOL    HW3 8555   3.654   3.177   3.478  1.2114  0.7874  2.5044
    1SOL    MW4 8556   3.589   3.232   3.496  0.0491  0.2575  0.0277
    1SOL     OW 8557   3.586   3.476   3.384  0.1977  0.0134 -0.0701
    1SOL    HW2 8558   3.504   3.519   3.409 -1.2173 -2.3078 -0.5730
    1SOL    HW3 8559   3.589   3.483   3.288  0.2456 -0.5017 -0.1080
    1SOL    MW4 8560   3.576   3.483   3.374  0.0176 -0.3610 -0.1414
    1SOL     OW 8561   3.805   3.616   3.494  0.3635  0.0398 -0.4233
    1SOL    HW2 8562   3.806   3.604   3.589  1.6694 -0.7553 -0.5206
    1SOL    HW3 8563   3.734   3.559   3.463  0.1506  0.0495  0.0400
    1SOL    MW4 8564   3.796   3.607   3.502  0.5076 -0.0641 -0.3750
    1SOL     OW 8565   3.829   3.886   3.387  0.1995 -0.0326  0.0726
    1SOL    HW2 8566   3.754   3.937   3.419  0.4770 -0.3538  1.2507
    1SOL    HW3 8567   3.819   3.801   3.428  1.5697  0.1274  0.7646
    1SOL    MW4 8568   3.818   3.882   3.396  0.4168 -0.0541  0.3192
    1SOL     OW 8569   3.584   4.029   3.466  0.5293  0.0268  0.0186
    1SOL    HW2 8570   3.590   4.040   3.561  0.6050  1.0837 -0.0967
    1SOL    HW3 8571   3.573   4.118   3.432 -1.6624 -0.5238 -0.8067
    1SOL    MW4 8572   3.583   4.042   3.474  0.2501  0.0939 -0.1054
    1SOL     OW 8573   3.559   4.291   3.362 -0.7531  0.6512 -0.1692
    1SOL    HW2 8574   3.489   4.335   3.410 -1.5709 -0.9861  0.1664
    1SOL    HW3 8575   3.529   4.290   3.271 -1.4836 -0.6296  0.0757
    1SOL    MW4 8576   3.546   4.297   3.356 -0.9575  0.2666 -0.0923
    1SOL     OW 8577   3.812   4.360   3.499 -0.1714  0.3238 -0.4064
    1SOL    HW2 8578   3.734   4.326   3.454  0.3994  0.0363 -1.1935
    1SOL    HW3 8579   3.843   4.431   3.442 -0.4521  1.1419  0.4331
    1SOL    MW4 8580   3.806   4.365   3.485 -0.1330  0.3939 -0.3996
    1SOL     OW 8581   4.255   4.653   3.435 -0.3602  0.4527  0.6203
    1SOL    HW2 8582   4.265   4.560   3.459 -0.0510  0.3929  0.2560
    1SOL    HW3 8583   4.335   4.694   3.467 -0.7437  0.6966  1.2755
    1SOL    MW4 8584   4.267   4.646   3.443 -0.3705  0.4768  0.6585
    1SOL     OW 8585   4.016   0.088   3.510  0.4256  0.0571 -0.5219
    1SOL    HW2 8586   4.100   0.057   3.476  0.8645  0.0426  0.5452
    1SOL    HW3 8587   3.950   0.041   3.459  1.0679 -0.1597 -1.1564
    1SOL    MW4 8588   4.018   0.077   3.499  0.5684  0.0266 -0.4649
    1SOL     OW 8589   4.006   0.349   3.430 -0.1996 -0.8053 -0.2019
    1SOL    HW2 8590   3.998   0.266   3.478 -1.0103 -0.4465  0.3022
    1SOL    HW3 8591   4.012   0.323   3.338  0.4492 -1.4616  0.0167
    1SOL    MW4 8592   4.005   0.334   3.424 -0.2213 -0.8446 -0.1063
    1SOL     OW 8593   4.252   0.477   3.518  0.2314  0.0888 -0.3519
    1SOL    HW2 8594   4.249   0.563   3.476  1.0870  0.4059  0.2248
    1SOL    HW3 8595   4.170   0.435   3.491 -0.7987  1.5671  0.3870
    1SOL    MW4 8596   4.241   0.483   3.509  0.2079  0.3257 -0.1783
    1SOL     OW 8597   4.216   0.748   3.422 -0.5016  0.5204 -0.2027
    1SOL    HW2 8598   4.296   0.791   3.451  1.3520 -0.9645 -2.8721
    1SOL    HW3 8599   4.220   0.752   3.326 -3.6900  0.4997 -0.4084
    1SOL    MW4 8600   4.227   0.754   3.413 -0.6781  0.3217 -0.5820
    1SOL     OW 8601   3.998   0.904   3.492  0.2160 -0.1125 -0.2091
    1SOL    HW2 8602   4.029   0.983   3.447  2.6466 -0.7870  0.2133
    1SOL    HW3 8603   4.070   0.842   3.483 -0.4266 -1.2439  2.1048
    1SOL    MW4 8604   4.011   0.906   3.485  0.4520 -0.3508  0.1519
    1SOL     OW 8605   4.061   1.149   3.374  0.5196 -0.0824 -0.2958
    1SOL    HW2 8606   4.136   1.181   3.424  0.1698  1.0897 -0.4992
    1SOL    HW3 8607   3.985   1.189   3.417  0.0690 -0.6405 -0.5680
    1SOL    MW4 8608   4.061   1.158   3.387  0.4144 -0.0014 -0.3586
    1SOL     OW 8609   4.274   1.286   3.504  0.3247 -0.0860  0.5239
    1SOL    HW2 8610   4.263   1.371   3.462  3.5276  1.0382  1.8455
    1SOL    HW3 8611   4.345   1.244   3.456  1.2160 -0.4904  2.1497
    1SOL    MW4 8612   4.282   1.292   3.493  0.8650  0.0088  0.9127
    1SOL     OW 8613   4.247   1.520   3.380  0.0583 -0.0242  0.0832
    1SOL    HW2 8614   4.167   1.567   3.404  0.2076 -0.4948  1.5676
    1SOL    HW3 8615   4.241   1.509   3.285 -2.4446 -1.5272  0.3625
    1SOL    MW4 8616   4.235   1.525   3.371 -0.2527 -0.2846  0.3157
    1SOL     OW 8617   4.021   1.639   3.459  0.9372  0.1005 -0.1688
    1SOL    HW2 8618   4.020   1.629   3.555  1.2798  0.3087 -0.1435
    1SOL    HW3 8619   4.037   1.732   3.445 -0.2757  0.2827 -0.4228
    1SOL    MW4 8620   4.023   1.650   3.470  0.8221  0.1518 -0.1988
    1SOL     OW 8621   4.048   1.904   3.403 -0.1470  0.4576 -0.4257
    1SOL    HW2 8622   4.127   1.952   3.425 -0.6305  1.8867 -1.7009
    1SOL    HW3 8623   4.028   1.931   3.313 -1.4861 -0.7009 -0.4967
    1SOL    MW4 8624   4.056   1.914   3.394 -0.3877  0.4933 -0.6032
    1SOL     OW 8625   4.266   2.045   3.497  0.0394  0.0542 -0.0320
    1SOL    HW2 8626   4.276   2.132   3.459 -0.3576  0.5427  0.9738
    1SOL    HW3 8627   4.336   1.993   3.458 -0.4005  0.5199 -1.4990
    1SOL    MW4 8628   4.276   2.049   3.487 -0.0710  0.1802 -0.0927
    1SOL     OW 8629   4.261   2.283   3.357 -0.1888  0.1330  0.2198
    1SOL    HW2 8630   4.177   2.320   3.386  0.2267  1.7586 -0.6244
    1SOL    HW3 8631   4.257   2.286   3.261  0.7719  0.0588  0.1741
    1SOL    MW4 8632   4.249   2.288   3.348 -0.0072  0.3376  0.1025
    1SOL     OW 8633   4.031   2.401   3.464  0.4602  0.3484 -0.5301
    1SOL    HW2 8634   4.023   2.412   3.559  0.7314  0.3479 -0.5051
    1SOL    HW3 8635   4.012   2.487   3.428  0.3978  0.3596 -0.4706
    1SOL    MW4 8636   4.028   2.414   3.472  0.4878  0.3498 -0.5190
    1SOL     OW 8637   4.027   2.649   3.355 -0.2999 -0.0761 -0.1372
    1SOL    HW2 8638   4.101   2.704   3.377 -0.3110  1.0980 -2.7682
    1SOL    HW3 8639   3.951   2.696   3.389 -0.0704  0.1072  0.1263
    1SOL    MW4 8640   4.027   2.662   3.362 -0.2713  0.1028 -0.4494
    1SOL     OW 8641   4.220   2.823   3.486 -0.0509  0.2970  0.1689
    1SOL    HW2 8642   4.236   2.821   3.581 -1.0046 -3.1948  0.3200
    1SOL    HW3 8643   4.297   2.782   3.448 -0.1312  0.7570 -0.4822
    1SOL    MW4 8644   4.232   2.817   3.494 -0.1874 -0.1030  0.1028
    1SOL     OW 8645   4.257   3.094   3.406 -0.1865  0.0966  0.2502
    1SOL    HW2 8646   4.249   3.000   3.423 -0.2006  0.1425  0.4919
    1SOL    HW3 8647   4.264   3.100   3.310  0.7184 -0.2147  0.2927
    1SOL    MW4 8648   4.257   3.083   3.395 -0.0687  0.0615  0.2878
    1SOL     OW 8649   4.017   3.195   3.477 -0.0740  0.6296 -0.1853
    1SOL    HW2 8650   4.015   3.289   3.458 -0.8260  0.3126 -1.7721
    1SOL    HW3 8651   4.102   3.166   3.444 -0.3106  0.5526 -0.7335
    1SOL    MW4 8652   4.028   3.203   3.470 -0.2046  0.5777 -0.4671
    1SOL     OW 8653   4.015   3.461   3.406 -0.1919 -0.4032 -0.1681
    1SOL    HW2 8654   4.086   3.502   3.455 -0.9217  0.3365  0.2911
    1SOL    HW3 8655   3.936   3.506   3.436 -0.7700 -0.6741 -1.2515
    1SOL    MW4 8656   4.014   3.472   3.417 -0.3643 -0.3412 -0.2503
    1SOL     OW 8657   4.237   3.566   3.510  0.1888 -0.2112 -0.3747
    1SOL    HW2 8658   4.260   3.579   3.602  1.3660  0.1258 -0.7034
    1SOL    HW3 8659   4.219   3.654   3.477 -1.0809 -0.4249 -0.2482
    1SOL    MW4 8660   4.238   3.580   3.518  0.1764 -0.1953 -0.4013
    1SOL     OW 8661   4.254   3.845   3.416  0.0707 -0.0783 -0.4214
    1SOL    HW2 8662   4.325   3.889   3.461  0.7108 -1.2614 -0.2574
    1SOL    HW3 8663   4.277   3.851   3.323  0.2753 -0.2693 -0.3832
    1SOL    MW4 8664   4.266   3.851   3.409  0.1822 -0.2594 -0.3951
    1SOL     OW 8665   4.059   4.010   3.492 -0.2350  0.1361  0.1430
    1SOL    HW2 8666   4.126   3.954   3.451  0.1366  0.2832  0.5460
    1SOL    HW3 8667   3.978   3.987   3.447 -0.1754 -1.0826  0.6327
    1SOL    MW4 8668   4.057   3.999   3.481 -0.1783 -0.0055  0.2611
    1SOL     OW 8669   4.036   4.251   3.383 -0.3806  0.3856 -0.3094
    1SOL    HW2 8670   4.046   4.165   3.425 -0.9452 -0.1219 -1.2051
    1SOL    HW3 8671   3.957   4.288   3.423 -0.4437  0.2599 -0.3173
    1SOL    MW4 8672   4.027   4.244   3.394 -0.4635  0.3028 -0.4287
    1SOL     OW 8673   4.277   4.385   3.463 -0.1417  0.3028  0.3980
    1SOL    HW2 8674   4.261   4.382   3.558 -0.6120  0.1459  0.3108
    1SOL    HW3 8675   4.192   4.369   3.423 -0.1868  1.6068 -0.0625
    1SOL    MW4 8676   4.264   4.383   3.471 -0.2098  0.4539  0.3254
    1SOL     OW 8677   0.222   4.663   3.823 -0.0444 -0.1338 -0.3335
    1SOL    HW2 8678   0.230   4.657   3.918  0.4780 -3.2291 -0.5243
    1SOL    HW3 8679   0.129   4.684   3.809  0.1922  1.9064  0.8523
    1SOL    MW4 8680   0.211   4.665   3.834  0.0557 -0.2737 -0.2024
    1SOL     OW 8681   4.458   0.097   3.802 -0.5618  0.5207  0.6250
    1SOL    HW2 8682   4.457   0.188   3.831  2.0811  0.3467  1.4309
    1SOL    HW3 8683   4.463   0.102   3.707 -0.3769  1.2147  0.6694
    1SOL    MW4 8684   4.459   0.109   3.793 -0.1888  0.5893  0.7372
    1SOL     OW 8685   4.486   0.368   3.877 -0.5815  0.3158  0.2433
    1SOL    HW2 8686   4.412   0.420   3.847 -0.3098  0.4691 -0.1649
    1SOL    HW3 8687   4.560   0.397   3.823 -0.1255  0.4743  0.9413
    1SOL    MW4 8688   4.486   0.379   3.866 -0.4855  0.3569  0.2813
    1SOL     OW 8689   0.230   0.456   3.761 -0.3993 -0.2848 -0.4583
    1SOL    HW2 8690   0.223   0.547   3.792 -1.3042 -0.6323  0.3772
    1SOL    HW3 8691   0.223   0.464   3.665 -2.6433  0.3646 -0.2901
    1SOL    MW4 8692   0.228   0.469   3.752 -0.8147 -0.2450 -0.3259
    1SOL     OW 8693   0.208   0.715   3.848  0.0707 -0.4424  0.4035
    1SOL    HW2 8694   0.205   0.724   3.943 -0.5892  0.5166  0.2923
    1SOL    HW3 8695   0.151   0.784   3.815 -0.7001 -1.5645 -0.6559
    1SOL    MW4 8696   0.200   0.726   3.856 -0.1180 -0.4640  0.2487
    1SOL     OW 8697   4.475   0.878   3.774 -0.3316 -0.4375 -0.3963
    1SOL    HW2 8698   4.404   0.831   3.817  1.3445 -1.0936  1.7022
    1SOL    HW3 8699   4.476   0.964   3.816  0.3487 -0.5632 -0.1492
    1SOL    MW4 8700   4.466   0.883   3.785 -0.0205 -0.5406 -0.0870
    1SOL     OW 8701   4.477   1.159   3.855  0.0450 -0.2709 -0.4046
    1SOL    HW2 8702   4.386   1.189   3.852 -0.2440 -0.6985  2.1871
    1SOL    HW3 8703   4.501   1.166   3.948  1.8035 -2.6151 -0.6186
    1SOL    MW4 8704   4.468   1.164   3.867  0.2389 -0.6366 -0.0904
    1SOL     OW 8705   0.198   1.304   3.745 -0.2489 -0.0267  0.1698
    1SOL    HW2 8706   0.209   1.393   3.778  0.1407 -0.6737  1.8312
    1SOL    HW3 8707   0.127   1.267   3.798  2.7306 -2.2504  2.8880
    1SOL    MW4 8708   0.190   1.311   3.757  0.1956 -0.4054  0.7474
    1SOL     OW 8709   0.195   1.556   3.821  0.3579 -0.3783  0.4314
    1SOL    HW2 8710   0.207   1.576   3.914  1.6084  0.6496  0.0673
    1SOL    HW3 8711   0.126   1.616   3.793 -0.0943 -0.7605  0.7107
    1SOL    MW4 8712   0.188   1.567   3.830  0.4632 -0.2931  0.4203
    1SOL     OW 8713   4.462   1.722   3.743  0.0214  0.3213 -0.1511
    1SOL    HW2 8714   4.450   1.815   3.761 -2.1756 -0.0440  0.4066
    1SOL    HW3 8715   4.455   1.714   3.648 -2.1810  0.4325 -0.0230
    1SOL    MW4 8716   4.459   1.733   3.733 -0.5589  0.2879 -0.0606
    1SOL     OW 8717   4.476   1.993   3.833 -0.4044  0.3510 -0.1924
    1SOL    HW2 8718   4.471   1.983   3.928  0.2639  1.4926 -0.0299
    1SOL    HW3 8719   4.386   2.009   3.806 -0.4854  0.8394  0.3490
    1SOL    MW4 8720   4.464   1.994   3.842 -0.3271  0.5661 -0.0999
    1SOL     OW 8721   0.216   2.106   3.743 -0.3986  0.9860 -0.3255
    1SOL    HW2 8722   0.231   2.193   3.782 -0.2873  0.8157  0.0089
    1SOL    HW3 8723   0.132   2.079   3.777 -0.9220  1.4121 -1.2513
    1SOL    MW4 8724   0.207   2.114   3.753 -0.4530  1.0197 -0.4036
    1SOL     OW 8725   0.222   2.373   3.831 -0.6801 -0.1263 -0.7393
    1SOL    HW2 8726   0.207   2.359   3.924 -0.3614  0.8114 -0.5398
    1SOL    HW3 8727   0.137   2.405   3.798 -0.4795  0.6256 -0.5424
    1SOL    MW4 8728   0.209   2.375   3.839 -0.6115  0.0966 -0.6869
    1SOL     OW 8729   4.449   2.417   3.751  0.3827 -0.2977  0.2491
    1SOL    HW2 8730   4.379   2.365   3.792 -0.6164 -0.3954 -1.4988
    1SOL    HW3 8731   4.446   2.502   3.795 -1.3482 -0.0581 -0.2904
    1SOL    MW4 8732   4.439   2.421   3.762  0.0219 -0.2792 -0.0527
    1SOL     OW 8733   4.477   2.682   3.836  0.0340 -0.0067 -0.2010
    1SOL    HW2 8734   4.504   2.678   3.927 -0.2514  1.7772 -0.0048
    1SOL    HW3 8735   4.537   2.746   3.796  1.6805 -2.4954 -1.8433
    1SOL    MW4 8736   4.488   2.690   3.843  0.2131 -0.0997 -0.3922
    1SOL     OW 8737   0.209   2.838   3.758 -0.1413  0.0844 -0.6672
    1SOL    HW2 8738   0.282   2.787   3.793 -2.0509 -2.1912  0.1334
    1SOL    HW3 8739   0.222   2.835   3.663  0.1580 -1.3436 -0.5949
    1SOL    MW4 8740   0.221   2.831   3.750 -0.3537 -0.4044 -0.5522
    1SOL     OW 8741   0.249   3.084   3.867  0.3246 -0.2786  0.1971
    1SOL    HW2 8742   0.235   3.063   3.959 -1.0343 -0.9780 -0.1565
    1SOL    HW3 8743   0.243   3.000   3.822  0.5373  0.1205 -0.5808
    1SOL    MW4 8744   0.246   3.070   3.873  0.1733 -0.3183  0.0477
    1SOL     OW 8745   0.007   3.192   3.779 -0.1468  0.3173 -0.3429
    1SOL    HW2 8746   0.073   3.144   3.830  0.8899  0.1485 -1.7824
    1SOL    HW3 8747   0.029   3.171   3.688 -1.3181  1.4226 -0.8878
    1SOL    MW4 8748   0.019   3.183   3.774 -0.1650  0.4408 -0.6044
    1SOL     OW 8749   0.067   3.457   3.875  0.1719 -0.4981  0.4682
    1SOL    HW2 8750   0.155   3.487   3.852  0.1198 -0.2264  0.6211
    1SOL    HW3 8751   0.056   3.375   3.826  0.5515 -0.5919  0.5392
    1SOL    MW4 8752   0.077   3.450   3.866  0.2152 -0.4749  0.4976
    1SOL     OW 8753   0.297   3.573   3.779 -0.6732 -0.5249 -0.1093
    1SOL    HW2 8754   0.370   3.537   3.828  0.4511 -0.3883 -1.6639
    1SOL    HW3 8755   0.273   3.653   3.827  0.1496 -0.5958  0.4242
    1SOL    MW4 8756   0.303   3.579   3.792 -0.4162 -0.5162 -0.2441
    1SOL     OW 8757   0.234   3.810   3.931 -0.1178  0.5411 -0.0630
    1SOL    HW2 8758   0.315   3.844   3.894  0.7374 -1.0762  0.2663
    1SOL    HW3 8759   0.247   3.816   4.026 -0.2611  0.0625 -0.0072
    1SOL    MW4 8760   0.246   3.815   3.939 -0.0239  0.2646 -0.0122
    1SOL     OW 8761   0.027   3.964   3.798 -0.0481 -0.4659  0.3415
    1SOL    HW2 8762  -0.058   3.928   3.825 -1.2480  2.9769  1.4976
    1SOL    HW3 8763   0.092   3.913   3.846 -1.6558 -1.1389  1.8322
    1SOL    MW4 8764   0.024   3.953   3.808 -0.4185 -0.1004  0.6907
    1SOL     OW 8765   4.453   4.232   3.878 -0.4459 -0.1541  0.1420
    1SOL    HW2 8766   4.529   4.287   3.860 -0.0733 -0.7763 -0.2020
    1SOL    HW3 8767   4.479   4.145   3.848 -0.8355 -0.6349  1.1764
    1SOL    MW4 8768   4.467   4.228   3.872 -0.4482 -0.2999  0.2332
    1SOL     OW 8769   0.163   4.387   3.785 -0.0831 -0.1551  0.2655
    1SOL    HW2 8770   0.241   4.343   3.820  0.0560  0.4113  0.6673
    1SOL    HW3 8771   0.182   4.480   3.795 -1.7243 -0.0182  2.3540
    1SOL    MW4 8772   0.176   4.393   3.791 -0.2813 -0.0625  0.5941
    1SOL     OW 8773   0.635   4.661   3.824 -0.4228 -0.5309 -0.2482
    1SOL    HW2 8774   0.617   4.582   3.773 -2.5279  0.1461 -0.5888
    1SOL    HW3 8775   0.572   4.725   3.792  1.3810  1.3679 -0.1012
    1SOL    MW4 8776   0.624   4.659   3.813 -0.4625 -0.1912 -0.2737
    1SOL     OW 8777   0.423   0.140   3.739 -0.3496  0.1049 -0.2707
    1SOL    HW2 8778   0.430   0.221   3.791 -3.5526  0.8202 -0.7891
    1SOL    HW3 8779   0.343   0.099   3.772  0.4248 -2.0896 -1.0957
    1SOL    MW4 8780   0.413   0.146   3.750 -0.6701 -0.0903 -0.4480
    1SOL     OW 8781   0.472   0.376   3.873  0.0561  0.2899  0.1428
    1SOL    HW2 8782   0.541   0.416   3.819  0.1019 -0.5773 -0.4406
    1SOL    HW3 8783   0.390   0.405   3.833  0.0915 -0.6598 -0.6193
    1SOL    MW4 8784   0.470   0.385   3.861  0.0668  0.0502 -0.0348
    1SOL     OW 8785   0.666   0.525   3.749 -0.1145 -0.1211 -0.0646
    1SOL    HW2 8786   0.739   0.479   3.790  0.3088  0.6600  0.0655
    1SOL    HW3 8787   0.652   0.602   3.804 -0.1377  0.4513 -0.8584
    1SOL    MW4 8788   0.674   0.529   3.762 -0.0617  0.0575 -0.1521
    1SOL     OW 8789   0.651   0.765   3.894 -0.2471  0.7141 -0.2335
    1SOL    HW2 8790   0.721   0.816   3.852 -0.1554  0.6487 -0.1619
    1SOL    HW3 8791   0.570   0.808   3.867 -0.1284  1.5073  0.6302
    1SOL    MW4 8792   0.650   0.777   3.885 -0.2193  0.8102 -0.1101
    1SOL     OW 8793   0.413   0.901   3.772  0.3389 -0.5387 -0.1311
    1SOL    HW2 8794   0.402   0.986   3.814 -0.5464  0.0076 -1.4301
    1SOL    HW3 8795   0.333   0.853   3.795  0.5703 -0.8048  0.1127
    1SOL    MW4 8796   0.401   0.906   3.781  0.2527 -0.5018 -0.2704
    1SOL     OW 8797   0.390   1.154   3.870 -0.2189  0.1448 -0.1820
    1SOL    HW2 8798   0.481   1.177   3.852  0.2180 -0.8600  0.7014
    1SOL    HW3 8799   0.339   1.214   3.816  0.9302  1.8251  0.5578
    1SOL    MW4 8800   0.395   1.165   3.860 -0.0097  0.2338  0.0322
    1SOL     OW 8801   0.648   1.238   3.802 -0.1962 -0.1384 -0.1521
    1SOL    HW2 8802   0.733   1.203   3.826  0.7056  2.3640  0.4841
    1SOL    HW3 8803   0.641   1.222   3.708  0.3624 -1.5870  0.0473
    1SOL    MW4 8804   0.658   1.232   3.793 -0.0035  0.0006 -0.0417
    1SOL     OW 8805   0.638   1.520   3.848 -0.1991 -0.2515 -0.0067
    1SOL    HW2 8806   0.726   1.551   3.824  0.2935 -0.3533  1.6523
    1SOL    HW3 8807   0.638   1.427   3.824  0.0794 -0.2159 -0.1516
    1SOL    MW4 8808   0.649   1.512   3.841 -0.0973 -0.2604  0.1929
    1SOL     OW 8809   0.447   1.672   3.739 -0.3011  0.1628 -0.0975
    1SOL    HW2 8810   0.516   1.621   3.780 -0.2840  0.6459  0.4722
    1SOL    HW3 8811   0.366   1.633   3.770 -0.3007 -0.7804 -1.2259
    1SOL    MW4 8812   0.445   1.660   3.748 -0.2987  0.1020 -0.1714
    1SOL     OW 8813   0.423   1.942   3.845 -0.1800  0.0543 -0.1406
    1SOL    HW2 8814   0.420   1.854   3.807  0.1725  1.0803 -2.6843
    1SOL    HW3 8815   0.346   1.986   3.810  0.7674  1.3919 -0.6206
    1SOL    MW4 8816   0.413   1.936   3.835 -0.0085  0.3662 -0.5395
    1SOL     OW 8817   0.652   2.059   3.737 -0.1102 -0.1853 -0.0282
    1SOL    HW2 8818   0.657   2.149   3.768 -0.2466 -0.2024  0.0425
    1SOL    HW3 8819   0.569   2.026   3.771 -0.4020 -0.1104 -0.6603
    1SOL    MW4 8820   0.642   2.066   3.745 -0.1667 -0.1779 -0.1023
    1SOL     OW 8821   0.654   2.310   3.840 -0.2367 -0.1422  0.1863
    1SOL    HW2 8822   0.741   2.346   3.824  0.1823 -0.4155  1.7633
    1SOL    HW3 8823   0.595   2.367   3.790  0.9397 -0.6573 -1.8059
    1SOL    MW4 8824   0.658   2.323   3.831 -0.0262 -0.2463  0.1318
    1SOL     OW 8825   0.455   2.462   3.716  0.4858 -0.3040 -0.3934
    1SOL    HW2 8826   0.373   2.429   3.752 -0.4684  1.4655 -0.8669
    1SOL    HW3 8827   0.452   2.440   3.623  1.4971 -2.0458 -0.0334
    1SOL    MW4 8828   0.444   2.455   3.709  0.4934 -0.3002 -0.4084
    1SOL     OW 8829   0.439   2.712   3.870  0.3348 -0.0281 -0.1738
    1SOL    HW2 8830   0.506   2.762   3.824  0.7263  1.0935  1.5659
    1SOL    HW3 8831   0.432   2.630   3.821  3.3298 -0.3631 -0.1040
    1SOL    MW4 8832   0.447   2.708   3.858  0.7816  0.0753  0.0648
    1SOL     OW 8833   0.683   2.836   3.783 -0.7325  0.1451  0.6441
    1SOL    HW2 8834   0.755   2.784   3.817 -0.7527 -0.9049 -0.8762
    1SOL    HW3 8835   0.695   2.835   3.688 -2.0494  0.9820  0.4532
    1SOL    MW4 8836   0.694   2.829   3.775 -0.9089  0.1173  0.4182
    1SOL     OW 8837   0.681   3.091   3.906 -0.3112  0.3552 -0.0427
    1SOL    HW2 8838   0.709   3.080   3.997 -0.9585  1.7588  0.3367
    1SOL    HW3 8839   0.695   3.005   3.867  0.9074 -0.0070  1.1220
    1SOL    MW4 8840   0.687   3.078   3.913 -0.2359  0.4923  0.1612
    1SOL     OW 8841   0.462   3.240   3.791 -0.0405 -0.1917  0.0568
    1SOL    HW2 8842   0.541   3.190   3.811 -0.3391 -0.4415  0.6229
    1SOL    HW3 8843   0.391   3.188   3.828 -0.4389  0.2051 -0.1481
    1SOL    MW4 8844   0.463   3.227   3.799 -0.1325 -0.1724  0.1044
    1SOL     OW 8845   0.510   3.465   3.936  0.1470  0.3236 -0.3812
    1SOL    HW2 8846   0.568   3.516   3.879 -0.0995  0.2041 -0.7421
    1SOL    HW3 8847   0.495   3.383   3.888  0.0385  0.1721 -0.0894
    1SOL    MW4 8848   0.515   3.461   3.922  0.1001  0.2878 -0.3903
    1SOL     OW 8849   0.663   3.616   3.761  0.0104 -0.3177  0.3874
    1SOL    HW2 8850   0.670   3.702   3.801 -0.0977 -0.2927  0.3538
    1SOL    HW3 8851   0.695   3.629   3.672 -1.2091 -0.0150 -0.0262
    1SOL    MW4 8852   0.668   3.629   3.754 -0.1647 -0.2747  0.3283
    1SOL     OW 8853   0.693   3.865   3.884  0.3262 -0.4804 -0.5098
    1SOL    HW2 8854   0.732   3.872   3.971  0.4202 -1.4115 -0.4746
    1SOL    HW3 8855   0.755   3.910   3.826  0.3345  0.0084 -0.1259
    1SOL    MW4 8856   0.706   3.872   3.888  0.3396 -0.5386 -0.4542
    1SOL     OW 8857   0.437   3.968   3.798 -0.4222 -0.2027  0.3261
    1SOL    HW2 8858   0.525   3.947   3.830  0.0810  0.3753 -0.6685
    1SOL    HW3 8859   0.442   3.956   3.704 -1.7961 -1.5045  0.3917
    1SOL    MW4 8860   0.449   3.964   3.790 -0.5370 -0.2983  0.2038
    1SOL     OW 8861   0.399   4.247   3.853  0.0934 -0.3064  0.2573
    1SOL    HW2 8862   0.465   4.293   3.802 -1.2632  1.8609  0.4245
    1SOL    HW3 8863   0.405   4.156   3.823  0.8742  0.4904 -2.1271
    1SOL    MW4 8864   0.409   4.241   3.842  0.0174  0.0844 -0.0350
    1SOL     OW 8865   0.614   4.396   3.746  0.7724 -0.4660  0.2400
    1SOL    HW2 8866   0.695   4.350   3.769  1.6445  0.1511 -1.5067
    1SOL    HW3 8867   0.608   4.388   3.651 -0.2459  1.0785  0.1569
    1SOL    MW4 8868   0.624   4.389   3.737  0.7532 -0.1807 -0.0017
    1SOL     OW 8869   1.087   4.643   3.902 -0.1459  0.0578 -0.1182
    1SOL    HW2 8870   1.163   4.688   3.866  0.8755 -1.0093  0.6668
    1SOL    HW3 8871   1.092   4.555   3.865 -0.6016 -0.2318  0.5046
    1SOL    MW4 8872   1.097   4.637   3.892 -0.0712 -0.1211  0.0675
    1SOL     OW 8873   0.881   0.103   3.770 -0.5435  0.0150  0.4775
    1SOL    HW2 8874   0.949   0.057   3.820 -0.0371 -0.8058 -0.9617
    1SOL    HW3 8875   0.799   0.067   3.804 -0.1827 -1.0418  0.2472
    1SOL    MW4 8876   0.879   0.092   3.781 -0.4291 -0.2327  0.2575
    1SOL     OW 8877   0.861   0.354   3.844 -0.0881 -0.4544  0.3455
    1SOL    HW2 8878   0.873   0.364   3.939 -0.0683 -1.3389  0.4406
    1SOL    HW3 8879   0.872   0.260   3.828  1.0524 -0.1614 -0.6929
    1SOL    MW4 8880   0.864   0.343   3.855  0.0650 -0.5324  0.2215
    1SOL     OW 8881   1.078   0.491   3.743 -0.3695 -0.0760  0.0138
    1SOL    HW2 8882   1.143   0.449   3.800 -0.0075  0.6310  0.1198
    1SOL    HW3 8883   0.995   0.448   3.766  0.3819 -2.5215 -1.6570
    1SOL    MW4 8884   1.076   0.479   3.754 -0.2226 -0.3054 -0.1926
    1SOL     OW 8885   1.131   0.738   3.858 -0.0224  0.0010 -0.0111
    1SOL    HW2 8886   1.116   0.725   3.951 -2.5135  0.7331 -0.2526
    1SOL    HW3 8887   1.118   0.652   3.819 -0.5773  0.0036  0.1584
    1SOL    MW4 8888   1.127   0.725   3.865 -0.4244  0.0980 -0.0210
    1SOL     OW 8889   0.894   0.875   3.793 -0.0468  0.2880  0.3937
    1SOL    HW2 8890   0.962   0.810   3.814 -1.7867 -1.4223  0.8464
    1SOL    HW3 8891   0.890   0.876   3.698 -1.0890 -1.4505  0.3971
    1SOL    MW4 8892   0.903   0.866   3.784 -0.4139 -0.1670  0.4537
    1SOL     OW 8893   0.905   1.139   3.885  0.3880 -0.4154 -0.5458
    1SOL    HW2 8894   0.907   1.132   3.981 -0.0648 -0.3110 -0.5275
    1SOL    HW3 8895   0.919   1.049   3.855  0.2354 -0.4981 -0.3766
    1SOL    MW4 8896   0.907   1.126   3.894  0.3081 -0.4126 -0.5212
    1SOL     OW 8897   1.121   1.276   3.771  0.0136 -0.4977  0.2461
    1SOL    HW2 8898   1.121   1.367   3.800 -0.0324  0.4769 -2.6225
    1SOL    HW3 8899   1.048   1.236   3.817 -0.7759  1.2546  0.5640
    1SOL    MW4 8900   1.112   1.283   3.781 -0.0967 -0.1380 -0.0904
    1SOL     OW 8901   1.086   1.531   3.892  0.4258  0.1421 -0.4374
    1SOL    HW2 8902   1.083   1.549   3.986 -0.5948  1.2179 -0.6591
    1SOL    HW3 8903   1.165   1.577   3.861  0.2829  0.5133 -0.2504
    1SOL    MW4 8904   1.096   1.539   3.900  0.2722  0.3331 -0.4418
    1SOL     OW 8905   0.869   1.663   3.764  0.2089  0.5040 -0.5600
    1SOL    HW2 8906   0.927   1.604   3.813 -1.2083 -2.2567 -2.0464
    1SOL    HW3 8907   0.884   1.640   3.672 -3.8426 -0.9764 -0.9444
    1SOL    MW4 8908   0.878   1.652   3.758 -0.5126 -0.0556 -0.8070
    1SOL     OW 8909   0.852   1.925   3.859  0.0045  0.1654 -0.1323
    1SOL    HW2 8910   0.850   1.833   3.833 -0.3455  0.3258 -0.6818
    1SOL    HW3 8911   0.782   1.966   3.807  0.8987  0.9603 -0.7268
    1SOL    MW4 8912   0.843   1.918   3.849  0.0763  0.2915 -0.2832
    1SOL     OW 8913   1.086   2.047   3.788  0.2319 -0.8184 -0.2754
    1SOL    HW2 8914   1.003   2.000   3.794  0.0028 -0.4899 -0.8296
    1SOL    HW3 8915   1.109   2.043   3.695 -0.3131  1.0766 -0.4935
    1SOL    MW4 8916   1.078   2.040   3.777  0.1298 -0.5250 -0.3772
    1SOL     OW 8917   1.117   2.322   3.875 -0.1176  0.0960  0.6144
    1SOL    HW2 8918   1.123   2.318   3.970  0.8647 -1.2904  0.5186
    1SOL    HW3 8919   1.095   2.233   3.849 -0.2079  0.4299 -0.4625
    1SOL    MW4 8920   1.115   2.310   3.884  0.0000 -0.0429  0.4597
    1SOL     OW 8921   0.887   2.438   3.782  0.1306 -0.2031  0.5746
    1SOL    HW2 8922   0.873   2.523   3.824 -0.0287 -0.1732  0.4628
    1SOL    HW3 8923   0.954   2.396   3.835  0.5682  0.1949  0.3380
    1SOL    MW4 8924   0.894   2.444   3.794  0.1673 -0.1469  0.5288
    1SOL     OW 8925   0.883   2.687   3.905 -0.0281 -0.1000  0.3801
    1SOL    HW2 8926   0.901   2.678   3.999  1.7289  3.1972  0.4362
    1SOL    HW3 8927   0.952   2.745   3.873 -1.8535  0.5471 -2.5491
    1SOL    MW4 8928   0.895   2.693   3.914 -0.0372  0.4203  0.0010
    1SOL     OW 8929   1.106   2.851   3.821  0.3081  0.1695 -0.2705
    1SOL    HW2 8930   1.188   2.807   3.842 -0.4088 -0.2528  1.6829
    1SOL    HW3 8931   1.121   2.942   3.847  0.2063  0.1347 -0.0966
    1SOL    MW4 8932   1.119   2.858   3.827  0.1999  0.1090  0.0100
    1SOL     OW 8933   1.117   3.122   3.903  0.0245  0.1606  0.5149
    1SOL    HW2 8934   1.183   3.166   3.849 -0.0210 -0.7784 -0.3203
    1SOL    HW3 8935   1.034   3.161   3.877 -0.0073 -0.3522 -0.1697
    1SOL    MW4 8936   1.115   3.133   3.893  0.0143 -0.0312  0.3145
    1SOL     OW 8937   0.889   3.233   3.800 -0.0925  0.0238 -0.1377
    1SOL    HW2 8938   0.807   3.190   3.825 -0.9892  0.7041 -1.8560
    1SOL    HW3 8939   0.899   3.214   3.707  0.9593  1.1534 -0.2674
    1SOL    MW4 8940   0.880   3.225   3.791 -0.0720  0.2625 -0.3815
    1SOL     OW 8941   0.898   3.508   3.876  0.3395  0.6162 -0.0671
    1SOL    HW2 8942   0.907   3.415   3.856  0.5393  0.5626  0.2726
    1SOL    HW3 8943   0.814   3.533   3.837 -0.4709 -0.0752  1.2119
    1SOL    MW4 8944   0.888   3.499   3.868  0.2589  0.5178  0.1469
    1SOL     OW 8945   1.134   3.609   3.797 -0.2191  0.0230 -0.2670
    1SOL    HW2 8946   1.128   3.704   3.806  0.5177  0.1295 -0.8283
    1SOL    HW3 8947   1.046   3.577   3.817 -0.3661  0.7891  0.3401
    1SOL    MW4 8948   1.122   3.618   3.801 -0.1413  0.1383 -0.2611
    1SOL     OW 8949   1.118   3.875   3.872  0.4778 -0.2896 -0.1783
    1SOL    HW2 8950   1.115   3.848   3.963 -0.3448 -0.8747 -0.3731
    1SOL    HW3 8951   1.190   3.938   3.868  0.8175 -0.6042  0.7747
    1SOL    MW4 8952   1.127   3.880   3.883  0.4140 -0.4084 -0.0784
    1SOL     OW 8953   0.905   3.992   3.715 -0.3139  0.1494  0.0199
    1SOL    HW2 8954   0.988   3.960   3.751 -0.3923 -1.8934 -1.5575
    1SOL    HW3 8955   0.918   3.992   3.620 -2.0997 -0.0985 -0.2316
    1SOL    MW4 8956   0.918   3.988   3.707 -0.5599 -0.1531 -0.2213
    1SOL     OW 8957   0.840   4.244   3.795  0.2329  0.1719  0.2606
    1SOL    HW2 8958   0.848   4.240   3.890  2.4575  0.2795  0.1145
    1SOL    HW3 8959   0.864   4.156   3.765  0.2765  0.3513 -0.2329
    1SOL    MW4 8960   0.844   4.232   3.803  0.5322  0.2098  0.1764
    1SOL     OW 8961   1.081   4.403   3.776  0.6123  0.3068 -0.2999
    1SOL    HW2 8962   1.001   4.354   3.794  2.0861 -1.6325  1.1049
    1SOL    HW3 8963   1.089   4.402   3.681 -1.4345  1.2056 -0.5139
    1SOL    MW4 8964   1.072   4.397   3.766  0.5368  0.1698 -0.1428
    1SOL     OW 8965   1.562   0.002   3.864  0.3206  0.4391  0.5300
    1SOL    HW2 8966   1.563  -0.011   3.959 -0.2481  1.3906  0.6696
    1SOL    HW3 8967   1.558  -0.087   3.828 -3.0762  0.1652  1.4459
    1SOL    MW4 8968   1.562  -0.012   3.872 -0.2024  0.5283  0.6695
    1SOL     OW 8969   1.290   0.117   3.753  0.1375 -0.1526 -0.3109
    1SOL    HW2 8970   1.291   0.204   3.792  0.5196 -0.0638 -0.5076
    1SOL    HW3 8971   1.366   0.073   3.792  0.4709 -0.0914 -0.8771
    1SOL    MW4 8972   1.300   0.123   3.763  0.2320 -0.1328 -0.4115
    1SOL     OW 8973   1.278   0.370   3.890  0.0771 -0.7733  0.4301
    1SOL    HW2 8974   1.292   0.342   3.981  1.5811 -0.9305  0.1630
    1SOL    HW3 8975   1.356   0.421   3.869  0.2945 -1.7464 -1.1730
    1SOL    MW4 8976   1.290   0.373   3.900  0.3041 -0.9224  0.1833
    1SOL     OW 8977   1.531   0.510   3.776  0.3783  0.1238 -0.0585
    1SOL    HW2 8978   1.623   0.495   3.797  0.4623  0.3883 -0.2415
    1SOL    HW3 8979   1.514   0.600   3.803  0.3842  0.3396 -0.7705
    1SOL    MW4 8980   1.541   0.520   3.782  0.3902  0.1873 -0.1769
    1SOL     OW 8981   1.541   0.776   3.880  0.3276 -0.6599 -0.2930
    1SOL    HW2 8982   1.617   0.808   3.832  0.7144 -2.3051 -0.8030
    1SOL    HW3 8983   1.466   0.818   3.838  0.8744  0.2261 -0.3989
    1SOL    MW4 8984   1.541   0.786   3.868  0.4507 -0.7600 -0.3741
    1SOL     OW 8985   1.322   0.915   3.780 -0.1756 -0.1372  0.2386
    1SOL    HW2 8986   1.327   0.982   3.848 -0.0782  1.2128 -1.0837
    1SOL    HW3 8987   1.243   0.865   3.801 -0.3336  0.4897  1.1540
    1SOL    MW4 8988   1.312   0.917   3.792 -0.1836  0.1235  0.1853
    1SOL     OW 8989   1.325   1.177   3.918 -0.0012  0.0643  0.1281
    1SOL    HW2 8990   1.407   1.215   3.887 -0.2739  0.0416 -0.6400
    1SOL    HW3 8991   1.257   1.218   3.864 -0.3644 -0.9885 -0.2452
    1SOL    MW4 8992   1.327   1.187   3.907 -0.0851 -0.0775 -0.0226
    1SOL     OW 8993   1.579   1.265   3.792 -0.3555 -0.1099  0.0285
    1SOL    HW2 8994   1.656   1.213   3.815 -0.4878  0.2189  1.2282
    1SOL    HW3 8995   1.605   1.355   3.811  0.0440  0.3387 -2.4981
    1SOL    MW4 8996   1.593   1.270   3.798 -0.3203 -0.0073 -0.1466
    1SOL     OW 8997   1.585   1.538   3.870  0.3223 -0.0580  0.1246
    1SOL    HW2 8998   1.593   1.530   3.965  1.8140 -0.7783 -0.0531
    1SOL    HW3 8999   1.658   1.595   3.844  0.6460 -0.8535 -0.7246
    1SOL    MW4 9000   1.596   1.545   3.879  0.5618 -0.2578 -0.0107
    1SOL     OW 9001   1.330   1.647   3.824  0.2470  0.1902 -0.1112
    1SOL    HW2 9002   1.337   1.740   3.847 -0.9296 -0.1756  1.7976
    1SOL    HW3 9003   1.418   1.613   3.840  1.0772  1.2506 -2.2025
    1SOL    MW4 9004   1.343   1.655   3.829  0.2012  0.2818 -0.1349
    1SOL     OW 9005   1.346   1.914   3.906  0.5282  0.0351 -0.3395
    1SOL    HW2 9006   1.357   1.913   4.001  1.9794 -0.0418 -0.4960
    1SOL    HW3 9007   1.260   1.954   3.892  0.6365  0.7678  0.9788
    1SOL    MW4 9008   1.336   1.919   3.917  0.7340  0.1217 -0.1862
    1SOL     OW 9009   1.546   2.082   3.797  0.2785 -0.0348 -0.1758
    1SOL    HW2 9010   1.471   2.027   3.819 -0.4786  0.4413 -1.5336
    1SOL    HW3 9011   1.545   2.087   3.701  1.4681  0.7664 -0.1547
    1SOL    MW4 9012   1.536   2.076   3.787  0.3356  0.1340 -0.3521
    1SOL     OW 9013   1.579   2.322   3.917  0.4496  0.2311 -0.3742
    1SOL    HW2 9014   1.594   2.314   4.011 -0.4066 -0.1382 -0.2611
    1SOL    HW3 9015   1.561   2.233   3.888  1.2630  0.2634 -0.9933
    1SOL    MW4 9016   1.578   2.309   3.926  0.4439  0.1867 -0.4408
    1SOL     OW 9017   1.354   2.457   3.806  0.5288  0.5257 -0.7447
    1SOL    HW2 9018   1.429   2.405   3.835  0.2052  0.5744  0.2160
    1SOL    HW3 9019   1.278   2.409   3.839  0.2042  1.3357 -0.2958
    1SOL    MW4 9020   1.354   2.444   3.814  0.4433  0.6392 -0.5589
    1SOL     OW 9021   1.349   2.718   3.872  0.0856 -0.1845  0.9598
    1SOL    HW2 9022   1.345   2.719   3.968  0.4850 -0.5177  0.9802
    1SOL    HW3 9023   1.351   2.626   3.849  0.9591 -0.0997  0.6697
    1SOL    MW4 9024   1.349   2.706   3.882  0.2533 -0.2172  0.9243
    1SOL     OW 9025   1.602   2.799   3.807 -0.6257  0.2969  0.0682
    1SOL    HW2 9026   1.517   2.761   3.828 -0.4171 -0.2374 -0.0267
    1SOL    HW3 9027   1.606   2.798   3.711 -0.3157 -0.1275  0.0849
    1SOL    MW4 9028   1.592   2.794   3.797 -0.5572  0.1707  0.0579
    1SOL     OW 9029   1.557   3.056   3.904 -0.0390 -0.2464 -0.2167
    1SOL    HW2 9030   1.561   3.058   4.000 -0.2031  1.0299 -0.2275
    1SOL    HW3 9031   1.570   2.964   3.882 -0.3072 -0.6017  1.0458
    1SOL    MW4 9032   1.559   3.044   3.914 -0.0958 -0.1247 -0.0520
    1SOL     OW 9033   1.356   3.231   3.767  0.1943  0.0577  0.2375
    1SOL    HW2 9034   1.363   3.317   3.808 -1.0377  0.7686 -1.0038
    1SOL    HW3 9035   1.400   3.172   3.828  2.6616  1.8174  0.2627
    1SOL    MW4 9036   1.363   3.235   3.781  0.3573  0.3836  0.0772
    1SOL     OW 9037   1.362   3.482   3.915  0.3173  0.0602  0.0646
    1SOL    HW2 9038   1.434   3.517   3.862 -0.1355 -0.0106 -0.6019
    1SOL    HW3 9039   1.286   3.535   3.890 -0.0077 -0.3020  0.2768
    1SOL    MW4 9040   1.361   3.494   3.905  0.2147  0.0029  0.0043
    1SOL     OW 9041   1.578   3.588   3.766  0.1982  0.1498  0.0689
    1SOL    HW2 9042   1.656   3.561   3.814  0.4073  1.0302  0.2380
    1SOL    HW3 9043   1.561   3.677   3.797 -0.8468 -0.0244  0.0005
    1SOL    MW4 9044   1.586   3.596   3.776  0.0879  0.2432  0.0820
    1SOL     OW 9045   1.543   3.857   3.884  0.0433  0.2130 -0.2194
    1SOL    HW2 9046   1.533   3.849   3.979 -1.6357 -0.7393 -0.4565
    1SOL    HW3 9047   1.475   3.919   3.858  0.2358  0.1542 -0.8560
    1SOL    MW4 9048   1.532   3.864   3.893 -0.1527  0.0796 -0.3347
    1SOL     OW 9049   1.345   4.036   3.815 -0.1183 -0.2021  0.6089
    1SOL    HW2 9050   1.358   4.125   3.846  0.7651 -0.4721  1.0177
    1SOL    HW3 9051   1.365   4.039   3.722  0.3681 -0.0740  0.7192
    1SOL    MW4 9052   1.349   4.048   3.807  0.0626 -0.2208  0.6773
    1SOL     OW 9053   1.324   4.294   3.888  0.1533 -0.4282  0.1471
    1SOL    HW2 9054   1.406   4.324   3.848 -0.5627 -0.1843 -1.1708
    1SOL    HW3 9055   1.256   4.338   3.838 -0.7763  0.7045  2.3418
    1SOL    MW4 9056   1.326   4.304   3.876 -0.0638 -0.2460  0.2630
    1SOL     OW 9057   1.569   4.391   3.777  0.1989  0.1488 -0.0954
    1SOL    HW2 9058   1.641   4.339   3.812  0.1959  0.7428  0.7870
    1SOL    HW3 9059   1.582   4.388   3.682  1.0966 -0.1558  0.0315
    1SOL    MW4 9060   1.580   4.384   3.769  0.3170  0.1869  0.0379
    1SOL     OW 9061   2.009   0.004   3.925 -0.0200 -0.0389 -0.4105
    1SOL    HW2 9062   2.091   0.037   3.889  0.7583 -0.2655  1.1456
    1SOL    HW3 9063   1.992  -0.077   3.876  1.1241 -0.4472 -0.1366
    1SOL    MW4 9064   2.018  -0.003   3.914  0.2337 -0.1227 -0.1690
    1SOL     OW 9065   1.785   0.142   3.800  0.3266 -0.3749 -0.3439
    1SOL    HW2 9066   1.854   0.097   3.849  0.6427  0.2032 -0.2532
    1SOL    HW3 9067   1.704   0.102   3.832  0.6504 -1.5776 -0.9876
    1SOL    MW4 9068   1.784   0.131   3.811  0.4110 -0.4573 -0.4170
    1SOL     OW 9069   1.769   0.406   3.862  0.3363 -0.2717 -0.3412
    1SOL    HW2 9070   1.781   0.393   3.956 -0.3960  0.5224 -0.1301
    1SOL    HW3 9071   1.780   0.319   3.823  2.3332 -0.3223  0.2912
    1SOL    MW4 9072   1.772   0.393   3.869  0.5032 -0.1736 -0.2301
    1SOL     OW 9073   2.015   0.475   3.740  0.3123  0.7301 -0.1636
    1SOL    HW2 9074   1.941   0.425   3.775 -0.3656  2.2271  0.5724
    1SOL    HW3 9075   2.006   0.467   3.645 -1.2519  1.5323 -0.1005
    1SOL    MW4 9076   2.004   0.467   3.732  0.0165  1.0335 -0.0584
    1SOL     OW 9077   1.997   0.731   3.856 -0.2668 -0.4228 -0.1442
    1SOL    HW2 9078   1.978   0.712   3.948 -1.7725 -1.5820 -0.6618
    1SOL    HW3 9079   2.009   0.645   3.817  0.3044  0.0683 -1.0576
    1SOL    MW4 9080   1.996   0.717   3.863 -0.3901 -0.5109 -0.3326
    1SOL     OW 9081   1.766   0.841   3.756  0.0216 -0.0638 -0.5944
    1SOL    HW2 9082   1.849   0.805   3.787  0.5798  0.8219 -1.0244
    1SOL    HW3 9083   1.780   0.858   3.663  0.1725  2.2748 -0.1800
    1SOL    MW4 9084   1.778   0.839   3.748  0.1150  0.3616 -0.5963
    1SOL     OW 9085   1.824   1.112   3.846  0.3957 -0.7469 -0.2450
    1SOL    HW2 9086   1.821   1.106   3.941  0.0977  0.5296 -0.1692
    1SOL    HW3 9087   1.778   1.033   3.815 -0.2377 -0.7338  0.6654
    1SOL    MW4 9088   1.817   1.101   3.854  0.2728 -0.5767 -0.1149
    1SOL     OW 9089   2.007   1.289   3.752  0.2362  0.4249  0.3318
    1SOL    HW2 9090   2.083   1.262   3.803  1.5664 -0.7510 -2.1752
    1SOL    HW3 9091   1.947   1.215   3.758  0.2773  0.4016  0.4447
    1SOL    MW4 9092   2.009   1.276   3.759  0.4172  0.2667  0.0162
    1SOL     OW 9093   2.042   1.553   3.881  0.2071  0.0293  0.2040
    1SOL    HW2 9094   1.977   1.620   3.861 -1.7876 -1.0433  2.7817
    1SOL    HW3 9095   2.016   1.478   3.829 -1.1783 -0.6819  1.8853
    1SOL    MW4 9096   2.030   1.552   3.871 -0.2389 -0.2061  0.7658
    1SOL     OW 9097   1.803   1.697   3.778  0.2372  0.2719  0.5230
    1SOL    HW2 9098   1.814   1.785   3.813 -1.3579  0.7039 -0.0052
    1SOL    HW3 9099   1.818   1.706   3.684 -3.3298  0.6972 -0.0739
    1SOL    MW4 9100   1.806   1.710   3.770 -0.4439  0.3850  0.3748
    1SOL     OW 9101   1.789   1.967   3.873  0.5691 -0.2163  0.1112
    1SOL    HW2 9102   1.710   2.007   3.836 -0.0265  0.2485  1.8354
    1SOL    HW3 9103   1.861   2.005   3.823 -0.2341  0.2132 -0.7301
    1SOL    MW4 9104   1.788   1.978   3.862  0.3846 -0.0982  0.2277
    1SOL     OW 9105   2.068   2.339   3.913 -0.2641  0.1001 -0.0381
    1SOL    HW2 9106   2.112   2.390   3.846  0.8767  1.0723  1.4142
    1SOL    HW3 9107   2.064   2.398   3.989 -0.9787 -1.1782  0.9380
    1SOL    MW4 9108   2.073   2.354   3.914 -0.2079  0.0598  0.2823
    1SOL     OW 9109   2.225   2.448   3.700  0.4244  0.0828 -0.4005
    1SOL    HW2 9110   2.224   2.458   3.605  2.2730 -2.0270 -0.6607
    1SOL    HW3 9111   2.314   2.423   3.721 -0.1087 -0.0350  1.8562
    1SOL    MW4 9112   2.236   2.446   3.690  0.5977 -0.2110 -0.1373
    1SOL     OW 9113   1.818   2.435   3.812  0.0571  0.5113 -0.2322
    1SOL    HW2 9114   1.893   2.403   3.862 -0.5075 -0.6390 -0.1032
    1SOL    HW3 9115   1.743   2.387   3.847 -0.2808 -0.6926 -2.5013
    1SOL    MW4 9116   1.818   2.425   3.823 -0.0620  0.2007 -0.5145
    1SOL     OW 9117   3.283   2.356   4.480 -0.2233 -0.1909  0.1961
    1SOL    HW2 9118   3.275   2.358   4.575 -0.1962 -0.1257  0.1971
    1SOL    HW3 9119   3.350   2.422   4.460 -0.5737  0.1385  0.0941
    1SOL    MW4 9120   3.291   2.365   4.490 -0.2658 -0.1390  0.1826
    1SOL     OW 9121   2.008   3.116   3.820  0.3343  0.0129  0.1372
    1SOL    HW2 9122   2.084   3.160   3.784  0.4061 -0.4900 -0.3371
    1SOL    HW3 9123   2.010   3.136   3.914  0.7544  0.4249  0.0403
    1SOL    MW4 9124   2.018   3.124   3.828  0.3994  0.0010  0.0620
    1SOL     OW 9125   2.050   2.849   3.754 -0.0226  0.3502  0.5046
    1SOL    HW2 9126   2.039   2.935   3.795 -0.9749 -0.5643  2.2529
    1SOL    HW3 9127   1.981   2.794   3.794  0.2580 -1.0899 -0.9317
    1SOL    MW4 9128   2.039   2.853   3.765 -0.1111  0.0393  0.5455
    1SOL     OW 9129   1.776   3.259   3.813 -0.1004 -0.2531 -0.0489
    1SOL    HW2 9130   1.858   3.211   3.800  0.7458  1.0255  0.4973
    1SOL    HW3 9131   1.715   3.193   3.847  1.0505 -0.9477  0.7113
    1SOL    MW4 9132   1.778   3.244   3.816  0.1631 -0.1762  0.1235
    1SOL     OW 9133   1.785   3.515   3.922 -1.0065 -0.3019 -0.3873
    1SOL    HW2 9134   1.859   3.571   3.899 -0.0164  0.2801  3.8513
    1SOL    HW3 9135   1.801   3.434   3.873  1.6828  0.3008 -0.6160
    1SOL    MW4 9136   1.797   3.511   3.912 -0.5211 -0.1459  0.1419
    1SOL     OW 9137   1.995   3.631   3.813 -0.1060 -0.0811  0.7946
    1SOL    HW2 9138   2.081   3.600   3.838  0.1499  0.3803  0.4984
    1SOL    HW3 9139   2.002   3.648   3.719 -0.8178 -1.0367  0.5540
    1SOL    MW4 9140   2.007   3.629   3.804 -0.1662 -0.1464  0.7238
    1SOL     OW 9141   2.015   3.888   3.919  0.3531  0.1782 -0.3732
    1SOL    HW2 9142   2.092   3.931   3.881  0.9190 -0.8891 -0.4215
    1SOL    HW3 9143   2.015   3.800   3.882 -1.6016  0.5588 -1.3871
    1SOL    MW4 9144   2.025   3.882   3.909  0.1698  0.0875 -0.5133
    1SOL     OW 9145   1.787   3.984   3.804  0.2385  0.1043 -0.3879
    1SOL    HW2 9146   1.859   3.936   3.845  0.4625  1.0462  0.3462
    1SOL    HW3 9147   1.708   3.938   3.833  0.5335 -0.9075 -1.1632
    1SOL    MW4 9148   1.786   3.971   3.813  0.3071  0.0951 -0.3934
    1SOL     OW 9149   1.790   4.266   3.872 -0.1652 -0.0323  0.1109
    1SOL    HW2 9150   1.879   4.301   3.862 -0.4979  0.4337 -1.2837
    1SOL    HW3 9151   1.797   4.174   3.845  0.0489 -0.2071  0.7488
    1SOL    MW4 9152   1.803   4.258   3.867 -0.1808  0.0057  0.0112
    1SOL     OW 9153   2.025   4.422   3.822  0.2325 -0.4288 -0.1087
    1SOL    HW2 9154   2.109   4.379   3.838  0.2681 -0.4971 -0.4897
    1SOL    HW3 9155   2.019   4.430   3.727 -0.2129 -0.4658 -0.0841
    1SOL    MW4 9156   2.035   4.417   3.812  0.1786 -0.4425 -0.1559
    1SOL     OW 9157   2.477   4.657   3.853 -0.4088  0.0553 -0.3311
    1SOL    HW2 9158   2.500   4.642   3.944  0.3633  0.5922 -0.4346
    1SOL    HW3 9159   2.461   4.570   3.817 -2.6931 -0.0347  0.8271
    1SOL    MW4 9160   2.478   4.644   3.860 -0.6084  0.1140 -0.1919
    1SOL     OW 9161   2.228   0.124   3.815 -0.1957  0.1306 -0.4602
    1SOL    HW2 9162   2.317   0.092   3.832 -1.0603 -1.4859  1.1262
    1SOL    HW3 9163   2.225   0.135   3.720  2.0106  1.1360 -0.4493
    1SOL    MW4 9164   2.240   0.121   3.805 -0.0186  0.0500 -0.2494
    1SOL     OW 9165   2.222   0.384   3.907 -0.1515 -0.1990  0.8226
    1SOL    HW2 9166   2.217   0.292   3.881 -1.8323  0.0946  0.0101
    1SOL    HW3 9167   2.150   0.426   3.859  0.5953  1.5326  1.1865
    1SOL    MW4 9168   2.212   0.377   3.897 -0.2747  0.0682  0.7634
    1SOL     OW 9169   2.460   0.516   3.832 -0.6678 -0.1473 -0.1021
    1SOL    HW2 9170   2.385   0.462   3.860 -0.3728 -0.3904  0.2173
    1SOL    HW3 9171   2.467   0.499   3.738 -0.5514 -0.7031  0.0035
    1SOL    MW4 9172   2.451   0.507   3.823 -0.6135 -0.2527 -0.0458
    1SOL     OW 9173   2.458   0.790   3.871  0.1320  0.1487 -0.6797
    1SOL    HW2 9174   2.383   0.824   3.821 -1.3322  0.5138  1.6895
    1SOL    HW3 9175   2.447   0.695   3.866 -0.7489  0.2045  0.0010
    1SOL    MW4 9176   2.446   0.782   3.864 -0.1776  0.2043 -0.2775
    1SOL     OW 9177   2.205   0.873   3.750 -0.0866 -0.2049  0.7325
    1SOL    HW2 9178   2.135   0.827   3.797 -1.8429  1.2626 -0.3753
    1SOL    HW3 9179   2.183   0.862   3.657  0.9221  0.6436  0.3864
    1SOL    MW4 9180   2.193   0.865   3.744 -0.1850  0.1007  0.5407
    1SOL     OW 9181   2.220   1.121   3.869 -0.3709  0.2926 -0.4022
    1SOL    HW2 9182   2.194   1.107   3.960  0.9394 -0.0221 -0.0567
    1SOL    HW3 9183   2.208   1.036   3.827 -0.5276  0.3156 -0.4030
    1SOL    MW4 9184   2.215   1.108   3.875 -0.2189  0.2540 -0.3567
    1SOL     OW 9185   2.459   1.232   3.776  0.1047  0.5055 -0.3639
    1SOL    HW2 9186   2.443   1.324   3.799 -0.2116  0.0296  1.3485
    1SOL    HW3 9187   2.380   1.186   3.802  0.2145 -0.2493 -1.3293
    1SOL    MW4 9188   2.447   1.238   3.783  0.0777  0.3431 -0.2654
    1SOL     OW 9189   2.470   1.505   3.830 -0.1418 -0.0315  0.3551
    1SOL    HW2 9190   2.551   1.552   3.809 -0.4814  0.6528  0.5743
    1SOL    HW3 9191   2.400   1.569   3.817 -0.7487 -0.9022 -0.8153
    1SOL    MW4 9192   2.471   1.520   3.825 -0.2666 -0.0561  0.2294
    1SOL     OW 9193   2.273   1.710   3.802  0.0045  0.0260  0.2776
    1SOL    HW2 9194   2.289   1.785   3.859  0.7152  0.4047 -0.4232
    1SOL    HW3 9195   2.192   1.671   3.836  0.3598  0.3120  1.4831
    1SOL    MW4 9196   2.265   1.715   3.814  0.1452  0.1137  0.3443
    1SOL     OW 9197   2.321   1.980   3.912 -0.0109  0.1229  0.1422
    1SOL    HW2 9198   2.312   2.023   3.998  0.1355  0.8885 -0.2237
    1SOL    HW3 9199   2.255   2.022   3.857 -0.8082 -1.0837  0.1522
    1SOL    MW4 9200   2.311   1.991   3.916 -0.0970  0.0647  0.0951
    1SOL     OW 9201   2.595   2.115   3.745  0.0408  0.0368  0.4381
    1SOL    HW2 9202   2.561   2.079   3.663  2.1917 -0.3260 -0.3119
    1SOL    HW3 9203   2.582   2.044   3.808  0.8242 -0.6827 -0.1925
    1SOL    MW4 9204   2.589   2.101   3.742  0.4280 -0.1059  0.2558
    1SOL     OW 9205   2.270   2.688   3.827 -0.2460 -0.0687 -0.2962
    1SOL    HW2 9206   2.190   2.738   3.811 -1.0626 -1.2918 -0.0581
    1SOL    HW3 9207   2.263   2.612   3.768  0.9847  0.0884 -0.6593
    1SOL    MW4 9208   2.258   2.684   3.817 -0.1915 -0.2093 -0.3128
    1SOL     OW 9209   0.541   2.053   4.533  0.4283  0.0404  0.0409
    1SOL    HW2 9210   0.614   2.102   4.570  0.6169 -0.7983  0.8099
    1SOL    HW3 9211   0.558   2.050   4.439 -0.1975  2.4501 -0.1775
    1SOL    MW4 9212   0.553   2.059   4.526  0.3707  0.2477  0.1135
    1SOL     OW 9213   2.048   2.087   3.779 -0.1056  0.2465 -0.1054
    1SOL    HW2 9214   2.064   2.172   3.819 -0.5750  0.9171 -1.3083
    1SOL    HW3 9215   2.059   2.102   3.685 -1.3926 -0.7286 -0.4402
    1SOL    MW4 9216   2.051   2.100   3.772 -0.3374  0.2065 -0.3083
    1SOL     OW 9217   2.456   2.896   3.753  0.0269 -0.5796  0.4847
    1SOL    HW2 9218   2.380   2.847   3.785 -0.2621 -0.7750 -0.4660
    1SOL    HW3 9219   2.456   2.880   3.659  1.0710 -0.3248  0.4369
    1SOL    MW4 9220   2.446   2.887   3.745  0.1266 -0.5717  0.3531
    1SOL     OW 9221   2.502   3.150   3.872 -0.1460 -0.1005  0.2375
    1SOL    HW2 9222   2.528   3.139   3.963  0.2061 -0.8565  0.0477
    1SOL    HW3 9223   2.473   3.063   3.844 -2.2036  0.5800  0.2301
    1SOL    MW4 9224   2.502   3.137   3.880 -0.3712 -0.1106  0.2115
    1SOL     OW 9225   2.250   3.240   3.761 -0.3300 -0.5368 -0.1076
    1SOL    HW2 9226   2.247   3.328   3.798 -0.3133 -0.7652  0.4424
    1SOL    HW3 9227   2.338   3.209   3.781 -0.7305 -1.1317  0.7612
    1SOL    MW4 9228   2.261   3.248   3.769 -0.3810 -0.6454  0.0792
    1SOL     OW 9229   2.261   3.515   3.854 -0.2878  0.5402 -0.5704
    1SOL    HW2 9230   2.256   3.550   3.943 -1.3806  0.6461 -0.6688
    1SOL    HW3 9231   2.343   3.550   3.819  0.5212 -0.1236  0.6551
    1SOL    MW4 9232   2.271   3.524   3.861 -0.3252  0.4668 -0.4218
    1SOL     OW 9233   2.504   3.639   3.795  0.1873  0.2708  0.1345
    1SOL    HW2 9234   2.586   3.599   3.823  0.6643  0.6379 -0.6951
    1SOL    HW3 9235   2.501   3.623   3.700 -0.4991  0.6108  0.0971
    1SOL    MW4 9236   2.514   3.632   3.786  0.1597  0.3643  0.0200
    1SOL     OW 9237   2.488   3.912   3.896 -0.2568 -0.1510 -0.1010
    1SOL    HW2 9238   2.566   3.952   3.859 -0.5639  1.0101  0.4717
    1SOL    HW3 9239   2.494   3.820   3.872  1.5808 -0.1919  0.4324
    1SOL    MW4 9240   2.499   3.905   3.888 -0.0551 -0.0033  0.0448
    1SOL     OW 9241   2.231   3.999   3.819 -0.3070  0.2541  0.3537
    1SOL    HW2 9242   2.315   3.967   3.850  0.2171  0.2113 -1.0584
    1SOL    HW3 9243   2.242   4.009   3.724 -2.0097 -0.1145  0.0900
    1SOL    MW4 9244   2.243   3.996   3.810 -0.4628  0.2000  0.1326
    1SOL     OW 9245   2.258   4.270   3.865 -0.2358 -0.0530 -0.4706
    1SOL    HW2 9246   2.273   4.264   3.959 -0.5106  2.1500 -0.2675
    1SOL    HW3 9247   2.258   4.179   3.835  1.4669 -0.7001  1.3995
    1SOL    MW4 9248   2.260   4.257   3.873 -0.0474  0.1526 -0.1972
    1SOL     OW 9249   2.477   4.401   3.753 -0.3727  0.4534  0.1134
    1SOL    HW2 9250   2.551   4.351   3.788  0.4932 -0.6658 -3.1379
    1SOL    HW3 9251   2.400   4.357   3.787  0.4292 -0.9751  0.1258
    1SOL    MW4 9252   2.477   4.389   3.762 -0.1528  0.1178 -0.3140
    1SOL     OW 9253   2.885   0.016   3.906 -0.4402  0.2314  0.1068
    1SOL    HW2 9254   2.915   0.005   3.996  0.8742  1.1396 -0.2135
    1SOL    HW3 9255   2.965   0.023   3.854 -1.1854 -0.1859 -1.1253
    1SOL    MW4 9256   2.899   0.016   3.911 -0.3653  0.2962 -0.0982
    1SOL     OW 9257   2.684   0.156   3.789  0.6414  0.1824  0.1053
    1SOL    HW2 9258   2.750   0.102   3.833 -0.1168 -1.1156 -0.3005
    1SOL    HW3 9259   2.606   0.100   3.787 -0.3938  1.6077  0.3608
    1SOL    MW4 9260   2.682   0.141   3.794  0.4051  0.1992  0.0854
    1SOL     OW 9261   2.698   0.401   3.893  0.1696  0.3837 -0.5687
    1SOL    HW2 9262   2.687   0.321   3.841 -0.5211  0.3429 -0.3557
    1SOL    HW3 9263   2.623   0.456   3.870 -0.4505  0.1323  0.8095
    1SOL    MW4 9264   2.687   0.398   3.883 -0.0033  0.3451 -0.3586
    1SOL     OW 9265   2.923   0.500   3.796  0.4287 -0.2759  0.3321
    1SOL    HW2 9266   2.999   0.443   3.811  0.6183 -0.6932 -2.0871
    1SOL    HW3 9267   2.853   0.459   3.847  1.1689 -1.3111  0.5558
    1SOL    MW4 9268   2.924   0.487   3.805  0.5512 -0.4675  0.0424
    1SOL     OW 9269   2.915   0.738   3.922 -0.5516 -0.1983 -0.5756
    1SOL    HW2 9270   2.982   0.795   3.882 -0.0371 -0.6695 -0.3940
    1SOL    HW3 9271   2.923   0.655   3.875 -0.8286 -0.3374 -0.3746
    1SOL    MW4 9272   2.925   0.735   3.910 -0.5202 -0.2788 -0.5250
    1SOL     OW 9273   2.706   0.871   3.782 -0.1145 -0.4688 -0.2145
    1SOL    HW2 9274   2.767   0.810   3.824 -0.4467 -1.4297 -1.0922
    1SOL    HW3 9275   2.620   0.831   3.793 -0.3377 -0.1684 -0.8129
    1SOL    MW4 9276   2.702   0.858   3.789 -0.1879 -0.5559 -0.4094
    1SOL     OW 9277   2.668   1.096   3.941  0.1545  0.2474 -0.0417
    1SOL    HW2 9278   2.687   1.008   3.909  1.2066  0.3116  0.3675
    1SOL    HW3 9279   2.595   1.126   3.887  0.2490 -0.5992 -0.6609
    1SOL    MW4 9280   2.661   1.088   3.930  0.3059  0.1442 -0.0699
    1SOL     OW 9281   2.835   1.249   3.775 -0.2736 -0.4325 -0.0298
    1SOL    HW2 9282   2.833   1.341   3.801  1.2486 -0.2941 -0.3571
    1SOL    HW3 9283   2.769   1.207   3.830  0.2184  0.5393  1.3234
    1SOL    MW4 9284   2.826   1.256   3.785 -0.0079 -0.2859  0.1056
    1SOL     OW 9285   2.861   1.515   3.860 -0.0743  0.4830 -0.4945
    1SOL    HW2 9286   2.863   1.519   3.956  0.9291 -0.6231 -0.4596
    1SOL    HW3 9287   2.944   1.555   3.832  0.7248 -1.3705 -0.8104
    1SOL    MW4 9288   2.872   1.521   3.869  0.1638  0.0925 -0.5314
    1SOL     OW 9289   2.678   1.686   3.798 -0.2694 -0.0252  0.2745
    1SOL    HW2 9290   2.752   1.632   3.826  1.2394  2.0672  0.4520
    1SOL    HW3 9291   2.691   1.697   3.704 -0.1029  0.7053  0.3800
    1SOL    MW4 9292   2.690   1.681   3.789 -0.0484  0.3473  0.3119
    1SOL     OW 9293   2.578   1.918   3.924 -0.0774  0.0932 -0.4498
    1SOL    HW2 9294   2.483   1.920   3.920 -0.1157 -0.3629  0.1415
    1SOL    HW3 9295   2.602   1.833   3.888  0.0459 -0.2434  0.4152
    1SOL    MW4 9296   2.569   1.907   3.919 -0.0663 -0.0114 -0.2577
    1SOL     OW 9297   2.908   2.310   3.926 -0.0007 -0.1190  0.1107
    1SOL    HW2 9298   2.844   2.365   3.881 -0.2978 -0.3356  0.2761
    1SOL    HW3 9299   2.992   2.338   3.889 -0.1659  0.3185  0.0554
    1SOL    MW4 9300   2.911   2.321   3.915 -0.0620 -0.0899  0.1252
    1SOL     OW 9301   3.039   2.402   4.765 -0.5592 -0.0997  0.2313
    1SOL    HW2 9302   3.014   2.385   4.674 -0.8326  0.1525  0.2600
    1SOL    HW3 9303   3.134   2.389   4.766 -0.7749 -1.8040  0.2936
    1SOL    MW4 9304   3.048   2.398   4.753 -0.6235 -0.2913  0.2427
    1SOL     OW 9305   2.713   2.455   3.769 -0.5715  0.4367  0.3896
    1SOL    HW2 9306   2.701   2.548   3.788  0.5791  0.5189  0.7304
    1SOL    HW3 9307   2.626   2.416   3.781 -0.9187  1.3589  0.8405
    1SOL    MW4 9308   2.700   2.462   3.773 -0.4656  0.5691  0.4940
    1SOL     OW 9309   2.659   2.717   3.836  0.5406  0.1651  0.3064
    1SOL    HW2 9310   2.595   2.785   3.817  1.4371  0.6724 -0.9769
    1SOL    HW3 9311   2.666   2.717   3.932  0.6769  2.0472  0.3171
    1SOL    MW4 9312   2.652   2.726   3.846  0.6766  0.4804  0.1385
    1SOL     OW 9313   2.883   2.843   3.737  0.6206  0.5453  0.3834
    1SOL    HW2 9314   2.898   2.931   3.771  0.6144 -0.3025  2.6511
    1SOL    HW3 9315   2.807   2.811   3.785  0.9290 -0.8866 -0.0548
    1SOL    MW4 9316   2.875   2.851   3.748  0.6599  0.2444  0.6249
    1SOL     OW 9317   2.926   3.109   3.858  0.0823  0.1412 -0.4285
    1SOL    HW2 9318   2.996   3.162   3.819 -0.0650  0.3548 -0.4030
    1SOL    HW3 9319   2.845   3.148   3.824 -0.0446  0.2924  0.0552
    1SOL    MW4 9320   2.925   3.121   3.848  0.0463  0.1891 -0.3612
    1SOL     OW 9321   2.720   3.251   3.744  0.0645 -0.2835  0.1756
    1SOL    HW2 9322   2.720   3.343   3.771  0.6221 -0.1069 -0.4044
    1SOL    HW3 9323   2.646   3.212   3.790 -0.6335  0.6285 -0.1802
    1SOL    MW4 9324   2.710   3.258   3.754  0.0460 -0.1397  0.0522
    1SOL     OW 9325   2.736   3.504   3.856  0.1761  0.2717 -0.2036
    1SOL    HW2 9326   2.736   3.484   3.950 -1.2149  1.7092  0.1244
    1SOL    HW3 9327   2.817   3.552   3.842  0.6252 -0.3728  0.1617
    1SOL    MW4 9328   2.747   3.508   3.867  0.0515  0.3762 -0.1121
    1SOL     OW 9329   2.960   3.637   3.796 -0.1458  0.4141 -0.0879
    1SOL    HW2 9330   3.040   3.596   3.828  0.2963  1.4539  0.1586
    1SOL    HW3 9331   2.952   3.606   3.706  0.4203  0.1370 -0.0455
    1SOL    MW4 9332   2.970   3.628   3.788 -0.0124  0.5147 -0.0501
    1SOL     OW 9333   2.946   3.874   3.916  0.1641 -0.0900 -0.0114
    1SOL    HW2 9334   2.948   3.860   4.010  1.7879 -1.1138 -0.1706
    1SOL    HW3 9335   2.957   3.786   3.878 -0.3289  0.3255 -1.1402
    1SOL    MW4 9336   2.948   3.860   3.923  0.3133 -0.1702 -0.1814
    1SOL     OW 9337   2.739   4.002   3.791  0.7118 -0.5457  0.5036
    1SOL    HW2 9338   2.731   4.091   3.826  1.8759 -0.0674 -0.4393
    1SOL    HW3 9339   2.816   3.966   3.834  2.2429  0.0946 -1.6387
    1SOL    MW4 9340   2.748   4.009   3.801  1.0672 -0.3982  0.0966
    1SOL     OW 9341   2.705   4.267   3.905  0.7414  0.2839  0.3711
    1SOL    HW2 9342   2.765   4.333   3.870  1.8204 -1.5012 -1.2536
    1SOL    HW3 9343   2.713   4.276   4.000  3.6118  0.1053  0.1986
    1SOL    MW4 9344   2.714   4.277   3.913  1.2624  0.0243  0.1340
    1SOL     OW 9345   2.893   4.443   3.794 -0.0911 -0.4824  0.3869
    1SOL    HW2 9346   2.961   4.389   3.834 -0.6724 -0.6131  1.2162
    1SOL    HW3 9347   2.906   4.530   3.831  0.7708 -0.0699 -0.8598
    1SOL    MW4 9348   2.904   4.447   3.804 -0.0541 -0.4454  0.3316
    1SOL     OW 9349   3.373   4.655   3.893  0.2517 -0.2526 -0.9816
    1SOL    HW2 9350   3.364   4.678   3.985  3.1968 -0.5480 -0.5896
    1SOL    HW3 9351   3.452   4.702   3.864 -0.2475 -0.7056 -3.1746
    1SOL    MW4 9352   3.382   4.665   3.901  0.5746 -0.3513 -1.2195
    1SOL     OW 9353   3.130   0.061   3.797  0.1018 -0.1804 -0.2539
    1SOL    HW2 9354   3.217   0.036   3.829  0.4553  2.0611  0.6281
    1SOL    HW3 9355   3.145   0.085   3.705 -0.1597 -2.6230 -0.9749
    1SOL    MW4 9356   3.144   0.061   3.789  0.1140 -0.2069 -0.2327
    1SOL     OW 9357   3.143   0.326   3.879  0.2741  0.2178  0.2601
    1SOL    HW2 9358   3.131   0.336   3.973  1.7808  0.0963  0.4759
    1SOL    HW3 9359   3.128   0.232   3.863  1.0665  0.0344  0.5532
    1SOL    MW4 9360   3.139   0.315   3.889  0.5777  0.1776  0.3273
    1SOL     OW 9361   3.352   0.477   3.770  0.1584 -0.1640 -0.3692
    1SOL    HW2 9362   3.435   0.462   3.815  0.9676 -0.4324 -1.9185
    1SOL    HW3 9363   3.290   0.417   3.811  0.7242  0.0300  0.7852
    1SOL    MW4 9364   3.355   0.467   3.781  0.3397 -0.1738 -0.4218
    1SOL     OW 9365   3.341   0.733   3.923  0.3069  0.3094 -0.2240
    1SOL    HW2 9366   3.303   0.722   4.010  1.5757 -1.8538  0.0924
    1SOL    HW3 9367   3.352   0.644   3.890  3.0988  0.9482 -1.1617
    1SOL    MW4 9368   3.338   0.720   3.930  0.8428  0.1083 -0.3059
    1SOL     OW 9369   3.119   0.902   3.813 -0.0633 -0.1819 -0.1753
    1SOL    HW2 9370   3.186   0.853   3.861 -1.6187 -3.3517 -1.0791
    1SOL    HW3 9371   3.144   0.892   3.721  0.2474  1.8101 -0.3315
    1SOL    MW4 9372   3.131   0.894   3.807 -0.2275 -0.3374 -0.3150
    1SOL     OW 9373   3.100   1.180   3.838 -0.3521 -0.2863  0.1734
    1SOL    HW2 9374   3.108   1.085   3.828 -1.3745 -0.2081 -1.8327
    1SOL    HW3 9375   3.007   1.197   3.822  0.2549  1.2877 -1.9575
    1SOL    MW4 9376   3.088   1.169   3.834 -0.4070 -0.0683 -0.3724
    1SOL     OW 9377   3.341   1.275   3.726 -0.1805  0.2051 -0.0764
    1SOL    HW2 9378   3.256   1.238   3.751 -0.6331  0.6945 -0.8621
    1SOL    HW3 9379   3.344   1.266   3.631  1.3907 -1.3725  0.0807
    1SOL    MW4 9380   3.330   1.269   3.717 -0.0329  0.0616 -0.1593
    1SOL     OW 9381   3.317   1.546   3.838  0.2590 -0.5659 -0.4689
    1SOL    HW2 9382   3.237   1.588   3.807  1.2279  0.2540 -1.8862
    1SOL    HW3 9383   3.316   1.459   3.797  0.6378 -0.1497 -1.3727
    1SOL    MW4 9384   3.306   1.540   3.829  0.4370 -0.4029 -0.7751
    1SOL     OW 9385   3.080   1.666   3.735  0.1001 -0.1927 -0.0239
    1SOL    HW2 9386   3.087   1.758   3.760 -1.6747 -0.6384  2.2850
    1SOL    HW3 9387   3.110   1.664   3.644  1.5380  2.4116  0.3404
    1SOL    MW4 9388   3.085   1.678   3.726  0.0558  0.0920  0.3290
    1SOL     OW 9389   3.075   1.951   3.806 -0.3876  0.0052 -0.0973
    1SOL    HW2 9390   3.063   1.950   3.901 -1.4063  0.8214 -0.2140
    1SOL    HW3 9391   3.000   2.000   3.773 -1.2758 -2.2303 -1.4975
    1SOL    MW4 9392   3.063   1.957   3.814 -0.6394 -0.1819 -0.2973
    1SOL     OW 9393   3.335   2.056   3.784  0.3929 -0.1334 -0.3756
    1SOL    HW2 9394   3.248   2.016   3.781 -0.2391  1.1439  0.3511
    1SOL    HW3 9395   3.390   1.993   3.830  0.0422 -1.2849 -1.5095
    1SOL    MW4 9396   3.331   2.043   3.789  0.2630 -0.1168 -0.4292
    1SOL     OW 9397   3.373   2.312   3.851  0.6115 -0.3132 -0.3489
    1SOL    HW2 9398   3.292   2.348   3.814 -0.1465 -1.1424  0.4699
    1SOL    HW3 9399   3.366   2.218   3.836  1.7667 -0.3120 -0.9098
    1SOL    MW4 9400   3.361   2.304   3.844  0.6640 -0.4225 -0.3150
    1SOL     OW 9401   3.130   2.419   3.771  0.5386  0.3963  0.1141
    1SOL    HW2 9402   3.132   2.512   3.795  0.6206  0.5514 -0.4906
    1SOL    HW3 9403   3.114   2.419   3.677 -2.4843 -0.2453  0.5527
    1SOL    MW4 9404   3.128   2.431   3.762  0.1504  0.3319  0.0920
    1SOL     OW 9405   3.122   2.698   3.836 -0.1352  0.3679 -0.4440
    1SOL    HW2 9406   3.108   2.690   3.930  0.2837 -0.6567 -0.4568
    1SOL    HW3 9407   3.045   2.745   3.804  0.5142  2.2213  0.6296
    1SOL    MW4 9408   3.110   2.703   3.844  0.0057  0.4771 -0.3042
    1SOL     OW 9409   3.352   2.825   3.746 -0.0167  0.2620  0.0716
    1SOL    HW2 9410   3.275   2.775   3.773 -0.9161  0.9179 -1.2173
    1SOL    HW3 9411   3.334   2.914   3.775 -0.3578  0.6881 -1.3825
    1SOL    MW4 9412   3.339   2.830   3.753 -0.1802  0.4046 -0.2904
    1SOL     OW 9413   3.362   3.064   3.892  0.0482  0.0308 -0.2723
    1SOL    HW2 9414   3.352   3.067   3.988 -0.1598  0.7692 -0.3180
    1SOL    HW3 9415   3.437   3.120   3.874  0.8501 -1.0791 -0.4395
    1SOL    MW4 9416   3.370   3.072   3.903  0.1268 -0.0181 -0.3002
    1SOL     OW 9417   3.175   3.257   3.780  0.2945 -0.4244  0.1001
    1SOL    HW2 9418   3.220   3.187   3.828 -1.0776 -0.8341  0.7936
    1SOL    HW3 9419   3.194   3.239   3.688  1.2432 -0.8033  0.3655
    1SOL    MW4 9420   3.184   3.246   3.774  0.2389 -0.5283  0.2267
    1SOL     OW 9421   3.200   3.515   3.882 -0.4060 -0.3373  0.0533
    1SOL    HW2 9422   3.271   3.557   3.833 -0.2389 -0.6001  0.0696
    1SOL    HW3 9423   3.199   3.425   3.849  0.0100 -0.6461  0.8627
    1SOL    MW4 9424   3.209   3.509   3.871 -0.3290 -0.4129  0.1621
    1SOL     OW 9425   3.402   3.650   3.768 -0.1385 -0.1574  0.0746
    1SOL    HW2 9426   3.393   3.735   3.810 -0.2605 -0.7507  1.2684
    1SOL    HW3 9427   3.393   3.668   3.674 -2.0592  0.8677  0.4413
    1SOL    MW4 9428   3.400   3.663   3.761 -0.4079 -0.1004  0.2801
    1SOL     OW 9429   3.392   3.902   3.862 -0.1879 -0.0643  0.4231
    1SOL    HW2 9430   3.468   3.940   3.818 -0.3132  0.7558  0.9020
    1SOL    HW3 9431   3.324   3.968   3.854 -0.8779 -0.8208 -0.0530
    1SOL    MW4 9432   3.393   3.916   3.855 -0.2956 -0.0556  0.4234
    1SOL     OW 9433   3.150   4.035   3.813  0.4677 -0.1912  0.1546
    1SOL    HW2 9434   3.125   4.123   3.844  2.3639  0.7707 -0.9277
    1SOL    HW3 9435   3.093   3.976   3.862 -2.0715  1.7266 -0.3610
    1SOL    MW4 9436   3.139   4.039   3.824  0.3829  0.1884 -0.0563
    1SOL     OW 9437   3.125   4.301   3.887 -0.8425 -0.5282  0.0720
    1SOL    HW2 9438   3.139   4.291   3.981  0.3700 -0.9743 -0.1466
    1SOL    HW3 9439   3.209   4.332   3.853 -1.1615 -0.7231 -0.9167
    1SOL    MW4 9440   3.138   4.304   3.895 -0.7243 -0.6127 -0.0873
    1SOL     OW 9441   3.371   4.386   3.766  0.0942 -0.2309 -0.0320
    1SOL    HW2 9442   3.458   4.355   3.791 -0.5129 -0.8643  1.3444
    1SOL    HW3 9443   3.372   4.479   3.787  0.0273 -0.4941  1.1717
    1SOL    MW4 9444   3.383   4.394   3.772  0.0050 -0.3490  0.3085
    1SOL     OW 9445   3.807   4.645   3.896 -0.0209 -0.0430 -0.2176
    1SOL    HW2 9446   3.891   4.672   3.858 -0.2654  0.2862 -0.5307
    1SOL    HW3 9447   3.798   4.553   3.872  1.5629 -0.8897  2.1819
    1SOL    MW4 9448   3.817   4.637   3.888  0.1554 -0.1111  0.0579
    1SOL     OW 9449   3.587   0.129   3.786  0.2750  0.4321  0.0114
    1SOL    HW2 9450   3.661   0.092   3.835 -1.1711 -1.4887  0.8114
    1SOL    HW3 9451   3.604   0.104   3.695 -0.4294 -1.8271  0.4787
    1SOL    MW4 9452   3.599   0.121   3.781 -0.0086 -0.1194  0.1786
    1SOL     OW 9453   3.582   0.373   3.889  0.0252 -0.2556  0.0742
    1SOL    HW2 9454   3.661   0.413   3.851  1.1479 -1.4743  1.0817
    1SOL    HW3 9455   3.576   0.288   3.846  0.0862 -0.7647  1.0661
    1SOL    MW4 9456   3.592   0.367   3.878  0.1814 -0.4835  0.3381
    1SOL     OW 9457   3.796   0.497   3.757 -0.0401 -0.1303  0.2144
    1SOL    HW2 9458   3.866   0.451   3.804  0.4561 -0.2014 -0.5956
    1SOL    HW3 9459   3.786   0.579   3.805 -0.0770 -0.5397  0.9234
    1SOL    MW4 9460   3.804   0.502   3.770  0.0205 -0.1937  0.2007
    1SOL     OW 9461   3.762   0.778   3.860 -0.0347  0.2968  0.3163
    1SOL    HW2 9462   3.843   0.825   3.842 -0.4254  0.2345 -1.6589
    1SOL    HW3 9463   3.692   0.840   3.839 -0.5210 -0.1939  0.4740
    1SOL    MW4 9464   3.764   0.792   3.855 -0.1504  0.2239  0.0763
    1SOL     OW 9465   3.524   0.902   3.785  0.1272 -0.3375  0.0964
    1SOL    HW2 9466   3.523   0.982   3.836 -1.0041  0.8286 -1.7095
    1SOL    HW3 9467   3.464   0.843   3.831  1.2404 -0.3229  1.6282
    1SOL    MW4 9468   3.516   0.905   3.798  0.1247 -0.1817  0.0601
    1SOL     OW 9469   3.539   1.160   3.874  0.5771 -0.5224  0.1399
    1SOL    HW2 9470   3.612   1.191   3.821  0.8967 -0.8615  0.3759
    1SOL    HW3 9471   3.464   1.209   3.843  0.7673 -0.7000 -0.6066
    1SOL    MW4 9472   3.539   1.171   3.863  0.6442 -0.5907  0.0725
    1SOL     OW 9473   3.747   1.269   3.739 -0.1015 -0.0082  0.2866
    1SOL    HW2 9474   3.829   1.230   3.770 -0.7686 -0.9373  0.9434
    1SOL    HW3 9475   3.744   1.355   3.780 -0.4473 -0.8010  1.9771
    1SOL    MW4 9476   3.757   1.275   3.749 -0.2353 -0.2352  0.5965
    1SOL     OW 9477   3.818   1.540   3.848  0.1145  0.3837  0.2634
    1SOL    HW2 9478   3.808   1.534   3.943  0.1268  0.0121  0.2400
    1SOL    HW3 9479   3.750   1.603   3.822  0.5010  0.9403  0.5823
    1SOL    MW4 9480   3.807   1.548   3.857  0.1674  0.4081  0.3028
    1SOL     OW 9481   3.575   1.655   3.795  0.2737  0.2571 -0.6003
    1SOL    HW2 9482   3.494   1.607   3.813  0.5044  0.0695 -0.0599
    1SOL    HW3 9483   3.580   1.657   3.699 -1.1744  1.6379 -0.6599
    1SOL    MW4 9484   3.565   1.649   3.785  0.1130  0.4144 -0.5369
    1SOL     OW 9485   3.555   1.911   3.883 -0.2152 -0.1094 -0.5494
    1SOL    HW2 9486   3.541   1.823   3.848 -0.3750 -0.2561 -0.1148
    1SOL    HW3 9487   3.588   1.897   3.972  0.5462  0.2619 -0.7676
    1SOL    MW4 9488   3.557   1.898   3.890 -0.1359 -0.0796 -0.5207
    1SOL     OW 9489   3.761   2.041   3.773  0.1133 -0.0873 -0.1317
    1SOL    HW2 9490   3.838   1.997   3.809  0.2875 -0.7793 -1.3096
    1SOL    HW3 9491   3.687   1.985   3.799  0.1702 -0.2478 -0.3170
    1SOL    MW4 9492   3.761   2.028   3.781  0.1435 -0.1998 -0.3116
    1SOL     OW 9493   3.753   2.294   3.890 -0.0930  0.1912 -0.0365
    1SOL    HW2 9494   3.739   2.216   3.836 -0.4006 -0.4572  0.9612
    1SOL    HW3 9495   3.692   2.359   3.854  0.0062 -0.0918 -0.7358
    1SOL    MW4 9496   3.743   2.292   3.878 -0.1204  0.0682  0.0029
    1SOL     OW 9497   3.587   2.473   3.772 -0.0626  0.1327  0.1985
    1SOL    HW2 9498   3.506   2.424   3.789 -0.6426  1.0117  0.0290
    1SOL    HW3 9499   3.592   2.480   3.677  0.4998 -0.3930  0.1914
    1SOL    MW4 9500   3.577   2.468   3.762 -0.0651  0.1793  0.1752
    1SOL     OW 9501   3.579   2.728   3.869 -0.5399  0.2058 -0.2501
    1SOL    HW2 9502   3.570   2.640   3.833 -0.0926  0.4441 -0.9571
    1SOL    HW3 9503   3.500   2.774   3.841 -0.2918  0.3291 -0.7409
    1SOL    MW4 9504   3.568   2.722   3.861 -0.4482  0.2537 -0.4082
    1SOL     OW 9505   3.814   2.793   3.731  0.0427  0.6786 -0.1675
    1SOL    HW2 9506   3.890   2.741   3.757  0.3838  0.6852 -1.1096
    1SOL    HW3 9507   3.741   2.757   3.781  0.1874 -1.0164 -1.1385
    1SOL    MW4 9508   3.814   2.781   3.741  0.1066  0.4559 -0.4199
    1SOL     OW 9509   3.808   3.065   3.805 -0.2058  0.3591  0.2397
    1SOL    HW2 9510   3.722   3.105   3.790 -0.0453  0.7367  0.3297
    1SOL    HW3 9511   3.798   2.975   3.772 -0.7218  0.3098  0.5177
    1SOL    MW4 9512   3.795   3.058   3.799 -0.2525  0.4025  0.2880
    1SOL     OW 9513   3.562   3.205   3.777 -0.3433  0.2427  0.4780
    1SOL    HW2 9514   3.562   3.296   3.808 -0.1755  0.2239  0.5311
    1SOL    HW3 9515   3.560   3.213   3.681  0.8651  0.3134  0.4462
    1SOL    MW4 9516   3.562   3.218   3.768 -0.1616  0.2494  0.4807
    1SOL     OW 9517   3.589   3.455   3.868  0.5396  0.2893 -0.3175
    1SOL    HW2 9518   3.585   3.453   3.964  1.0766  1.9773 -0.2402
    1SOL    HW3 9519   3.543   3.536   3.844  2.0950  0.8916 -1.3652
    1SOL    MW4 9520   3.582   3.465   3.878  0.8159  0.5915 -0.4456
    1SOL     OW 9521   3.826   3.591   3.797  0.0214 -0.6375 -0.2616
    1SOL    HW2 9522   3.813   3.680   3.831  0.9003 -0.0252 -1.4509
    1SOL    HW3 9523   3.745   3.545   3.818 -0.9504  0.8118 -0.6823
    1SOL    MW4 9524   3.814   3.597   3.804  0.0091 -0.3655 -0.4737
    1SOL     OW 9525   3.808   3.866   3.871  0.5837  0.1588 -0.0786
    1SOL    HW2 9526   3.803   3.898   3.962  1.1480  1.1974 -0.4052
    1SOL    HW3 9527   3.896   3.891   3.842  0.1129  0.5740 -1.1843
    1SOL    MW4 9528   3.819   3.874   3.879  0.5960  0.3507 -0.2675
    1SOL     OW 9529   3.614   4.015   3.746  0.2616  0.5253  0.1716
    1SOL    HW2 9530   3.607   4.093   3.801 -1.7499  0.1026  0.5654
    1SOL    HW3 9531   3.678   3.959   3.790 -0.8643  0.4650  1.7594
    1SOL    MW4 9532   3.621   4.018   3.759 -0.1523  0.4616  0.4330
    1SOL     OW 9533   3.589   4.259   3.884  0.4519  0.0459 -0.5394
    1SOL    HW2 9534   3.590   4.284   3.977 -0.6185 -0.4305 -0.3871
    1SOL    HW3 9535   3.665   4.303   3.846  1.2827 -0.2918  0.7041
    1SOL    MW4 9536   3.599   4.269   3.891  0.4203 -0.0610 -0.3550
    1SOL     OW 9537   3.798   4.384   3.790 -0.1149 -0.3360  0.0557
    1SOL    HW2 9538   3.869   4.323   3.808  1.6115  1.9337  1.1891
    1SOL    HW3 9539   3.794   4.390   3.695  0.3784 -1.4019 -0.0395
    1SOL    MW4 9540   3.807   4.377   3.780  0.1779 -0.1774  0.1929
    1SOL     OW 9541   4.255   4.592   3.894  0.1532  0.2213  0.3879
    1SOL    HW2 9542   4.253   4.612   3.987 -0.2948  0.8486  0.2424
    1SOL    HW3 9543   4.323   4.648   3.858  0.3436 -0.0375  0.3411
    1SOL    MW4 9544   4.263   4.602   3.901  0.1197  0.2699  0.3624
    1SOL     OW 9545   4.040   0.087   3.790 -0.2959  0.0620 -0.3972
    1SOL    HW2 9546   4.113   0.040   3.831  0.5754  1.2469 -0.5530
    1SOL    HW3 9547   4.058   0.081   3.696  0.3687  1.5595 -0.3736
    1SOL    MW4 9548   4.052   0.080   3.783 -0.0935  0.4159 -0.4146
    1SOL     OW 9549   4.015   0.360   3.849 -0.0811  0.0271 -0.4738
    1SOL    HW2 9550   4.014   0.359   3.945  1.6523  0.9164 -0.4333
    1SOL    HW3 9551   4.027   0.269   3.824 -1.5436 -0.3448  0.1293
    1SOL    MW4 9552   4.016   0.348   3.859 -0.0463  0.0954 -0.3891
    1SOL     OW 9553   4.250   0.489   3.779 -0.4761 -0.5160  0.4734
    1SOL    HW2 9554   4.173   0.441   3.809 -1.1416  0.5754  0.5525
    1SOL    HW3 9555   4.245   0.486   3.684  0.3168 -1.8933  0.4551
    1SOL    MW4 9556   4.239   0.482   3.771 -0.4592 -0.5537  0.4816
    1SOL     OW 9557   4.233   0.771   3.891  0.1502  0.1602  0.0441
    1SOL    HW2 9558   4.168   0.812   3.833  0.3950 -0.4624 -0.6839
    1SOL    HW3 9559   4.239   0.681   3.860  0.8346  0.0223  0.5706
    1SOL    MW4 9560   4.225   0.765   3.879  0.2728  0.0598  0.0176
    1SOL     OW 9561   4.013   0.896   3.765  0.4616  0.3646 -0.6156
    1SOL    HW2 9562   4.008   0.989   3.785 -1.4297  0.3619 -0.9314
    1SOL    HW3 9563   4.010   0.892   3.669  1.3287  0.0041 -0.6348
    1SOL    MW4 9564   4.012   0.908   3.755  0.3257  0.3167 -0.6602
    1SOL     OW 9565   3.983   1.183   3.838  0.5343 -0.3850  0.2152
    1SOL    HW2 9566   3.995   1.180   3.933 -1.1235  0.7366  0.4706
    1SOL    HW3 9567   4.061   1.229   3.806  2.0990 -2.5268  0.8058
    1SOL    MW4 9568   3.995   1.189   3.846  0.5221 -0.5194  0.3269
    1SOL     OW 9569   4.236   1.286   3.785 -0.4873 -0.2536  0.1022
    1SOL    HW2 9570   4.245   1.371   3.828 -0.3363  0.0156 -0.4472
    1SOL    HW3 9571   4.245   1.306   3.692 -1.8293 -0.6772 -0.1302
    1SOL    MW4 9572   4.239   1.300   3.778 -0.6447 -0.2739 -0.0007
    1SOL     OW 9573   4.260   1.548   3.861 -0.2625  0.5888  0.1745
    1SOL    HW2 9574   4.180   1.579   3.820 -0.5729 -0.1883  0.1919
    1SOL    HW3 9575   4.325   1.617   3.842 -1.2684  1.8933  1.3656
    1SOL    MW4 9576   4.258   1.561   3.853 -0.4368  0.6583  0.3340
    1SOL     OW 9577   4.039   1.665   3.751  0.0613 -0.3605  0.0052
    1SOL    HW2 9578   4.008   1.748   3.789  0.2473 -1.1833  1.9807
    1SOL    HW3 9579   3.974   1.601   3.779  0.7555 -1.1727 -0.2552
    1SOL    MW4 9580   4.026   1.668   3.759  0.1769 -0.5760  0.2315
    1SOL     OW 9581   3.978   1.906   3.853  0.0396 -0.7113  0.0240
    1SOL    HW2 9582   3.980   1.912   3.948  0.9298 -0.7803  0.0142
    1SOL    HW3 9583   4.061   1.945   3.825 -1.0613  1.0678 -0.8193
    1SOL    MW4 9584   3.989   1.912   3.862  0.0117 -0.4855 -0.0885
    1SOL     OW 9585   4.204   2.035   3.772 -0.0134 -0.1877  0.0849
    1SOL    HW2 9586   4.193   2.124   3.805 -0.8257 -0.5664  0.8380
    1SOL    HW3 9587   4.233   2.047   3.682  0.1510  0.8418  0.2624
    1SOL    MW4 9588   4.207   2.048   3.765 -0.0987 -0.1018  0.2077
    1SOL     OW 9589   4.211   2.294   3.881  0.3396 -0.2454  0.1309
    1SOL    HW2 9590   4.185   2.262   3.968 -1.2808 -1.3313 -0.7255
    1SOL    HW3 9591   4.134   2.340   3.849  1.8064  2.4200  0.3028
    1SOL    MW4 9592   4.197   2.296   3.888  0.3185 -0.0370  0.0405
    1SOL     OW 9593   3.996   2.412   3.751  0.1887 -0.0125  0.2541
    1SOL    HW2 9594   3.999   2.501   3.786 -0.7459  0.3437 -0.5360
    1SOL    HW3 9595   3.919   2.373   3.792 -0.3290  0.0773 -0.6128
    1SOL    MW4 9596   3.986   2.419   3.761 -0.0029  0.0465  0.0355
    1SOL     OW 9597   4.050   2.677   3.843 -0.1554  0.1330  0.1042
    1SOL    HW2 9598   4.033   2.692   3.936 -1.0558  2.1164 -0.3642
    1SOL    HW3 9599   4.123   2.736   3.822 -0.6953  0.5216 -0.7046
    1SOL    MW4 9600   4.057   2.687   3.852 -0.3452  0.4458 -0.0641
    1SOL     OW 9601   4.250   2.835   3.760 -0.2991 -0.0435 -0.0293
    1SOL    HW2 9602   4.264   2.923   3.795  1.0905  0.4728 -1.7904
    1SOL    HW3 9603   4.318   2.782   3.802 -0.5498 -0.0767  0.3346
    1SOL    MW4 9604   4.261   2.840   3.770 -0.1488  0.0200 -0.2134
    1SOL     OW 9605   4.267   3.098   3.899  0.1224  0.1523  0.0938
    1SOL    HW2 9606   4.192   3.146   3.863  0.2386  0.0892 -0.2302
    1SOL    HW3 9607   4.343   3.137   3.856  0.2982  0.3877  0.6075
    1SOL    MW4 9608   4.267   3.110   3.889  0.1612  0.1750  0.1190
    1SOL     OW 9609   4.049   3.220   3.754  0.2021  0.2439 -0.0406
    1SOL    HW2 9610   3.974   3.163   3.771  0.3961  0.1991  0.6929
    1SOL    HW3 9611   4.060   3.218   3.659 -0.3119 -0.2764 -0.0899
    1SOL    MW4 9612   4.041   3.212   3.744  0.1593  0.1693  0.0496
    1SOL     OW 9613   4.092   3.481   3.841 -0.7186  0.1991 -0.0818
    1SOL    HW2 9614   4.088   3.386   3.830 -0.7563 -0.0889  2.0363
    1SOL    HW3 9615   4.007   3.513   3.812 -0.7009 -0.4132 -0.8164
    1SOL    MW4 9616   4.080   3.473   3.836 -0.7210  0.0799  0.1009
    1SOL     OW 9617   4.326   3.602   3.770  0.3751  0.0385 -0.5475
    1SOL    HW2 9618   4.252   3.563   3.816  0.8596 -0.2440 -0.0057
    1SOL    HW3 9619   4.403   3.562   3.809  0.7876 -0.5557 -1.9368
    1SOL    MW4 9620   4.326   3.592   3.781  0.4930 -0.0772 -0.6592
    1SOL     OW 9621   4.278   3.851   3.868 -0.5141 -0.1753  0.2578
    1SOL    HW2 9622   4.197   3.890   3.836 -0.1164 -0.0686 -0.6329
    1SOL    HW3 9623   4.281   3.765   3.826  1.2868  0.9668 -2.0530
    1SOL    MW4 9624   4.268   3.845   3.858 -0.2241 -0.0107 -0.1645
    1SOL     OW 9625   4.046   3.973   3.764 -0.3736 -0.6351  0.2072
    1SOL    HW2 9626   4.030   4.062   3.795  1.2820 -0.1160 -0.3862
    1SOL    HW3 9627   4.048   3.982   3.668  0.6468 -1.1626  0.1825
    1SOL    MW4 9628   4.044   3.986   3.755 -0.0196 -0.6359  0.1254
    1SOL     OW 9629   4.014   4.234   3.858  0.2834 -0.0034  0.1888
    1SOL    HW2 9630   4.006   4.262   3.949 -1.4654  0.3047 -0.0351
    1SOL    HW3 9631   4.091   4.280   3.825  0.1108  0.9824  1.1156
    1SOL    MW4 9632   4.023   4.244   3.866  0.0300  0.1674  0.2816
    1SOL     OW 9633   4.242   4.351   3.751  0.5965  0.2015 -0.3832
    1SOL    HW2 9634   4.241   4.436   3.794  1.0292  0.1686 -0.3026
    1SOL    HW3 9635   4.312   4.302   3.795  0.2322 -0.2611 -0.3061
    1SOL    MW4 9636   4.251   4.355   3.762  0.6056  0.1359 -0.3626
    1SOL     OW 9637   2.981   1.530   4.494  0.1698 -0.1167  0.1087
    1SOL    HW2 9638   2.956   1.621   4.508 -2.2330 -1.0733  2.4877
    1SOL    HW3 9639   2.938   1.482   4.565  1.2977 -3.1164 -1.1555
    1SOL    MW4 9640   2.972   1.535   4.505  0.0014 -0.6386  0.2556
    1SOL     OW 9641   3.994   4.262   4.127 -0.1816  0.5321 -0.4255
    1SOL    HW2 9642   3.999   4.179   4.173 -0.9305  0.4280 -0.5170
    1SOL    HW3 9643   3.927   4.312   4.175 -0.9447  0.4375 -1.3713
    1SOL    MW4 9644   3.985   4.258   4.139 -0.3810  0.5054 -0.5622
    1SOL     OW 9645   2.034   0.110   4.399 -0.2256 -0.3773 -0.3367
    1SOL    HW2 9646   1.940   0.120   4.413 -0.2716 -0.0475 -0.8541
    1SOL    HW3 9647   2.061   0.044   4.463 -0.6860  0.0099  0.2648
    1SOL    MW4 9648   2.025   0.102   4.409 -0.2923 -0.2827 -0.3257
    1SOL     OW 9649   0.655   0.776   4.179  0.2548 -0.8311  0.4909
    1SOL    HW2 9650   0.739   0.811   4.209  0.5430 -1.4169  0.3761
    1SOL    HW3 9651   0.664   0.770   4.084 -0.3175  0.1314  0.3634
    1SOL    MW4 9652   0.667   0.780   4.170  0.2173 -0.7815  0.4582
    1SOL     OW 9653   4.227   0.819   4.162 -0.1990  0.0418  0.3971
    1SOL    HW2 9654   4.234   0.800   4.068  0.0934 -0.4847  0.5233
    1SOL    HW3 9655   4.298   0.881   4.179  0.0997 -0.2999  0.3868
    1SOL    MW4 9656   4.237   0.825   4.152 -0.1206 -0.0728  0.4125
    1SOL     OW 9657   2.000   2.191   4.403  0.3251  0.3945 -0.0085
    1SOL    HW2 9658   1.983   2.204   4.496 -1.0423  0.1036 -0.2037
    1SOL    HW3 9659   2.089   2.224   4.389  0.6506  0.1365  1.4581
    1SOL    MW4 9660   2.009   2.197   4.413  0.1876  0.3221  0.1588
    1SOL     OW 9661   0.028   1.173   4.128  0.1341  0.2265 -0.0554
    1SOL    HW2 9662  -0.054   1.218   4.148 -0.1337 -0.2920  0.0103
    1SOL    HW3 9663   0.096   1.227   4.170 -0.2791 -0.0074  0.9212
    1SOL    MW4 9664   0.027   1.186   4.136  0.0442  0.1272  0.0820
    1SOL     OW 9665   1.149   2.776   4.307 -0.2282  0.0309  0.2073
    1SOL    HW2 9666   1.158   2.869   4.285 -0.6636 -0.0373 -0.2539
    1SOL    HW3 9667   1.138   2.775   4.402 -0.0765  0.4405  0.2301
    1SOL    MW4 9668   1.149   2.788   4.316 -0.2655  0.0761  0.1497
    1SOL     OW 9669   0.400   3.817   4.424  0.0403 -0.3758  0.0423
    1SOL    HW2 9670   0.492   3.829   4.400 -0.2584  2.6675  0.2032
    1SOL    HW3 9671   0.351   3.856   4.352 -1.0794 -0.3110  0.8260
    1SOL    MW4 9672   0.406   3.823   4.412 -0.1468  0.0343  0.1669
    1SOL     OW 9673   3.484   3.662   4.590 -0.2970 -0.4187  0.3541
    1SOL    HW2 9674   3.495   3.582   4.641  0.9684 -0.7366 -0.3830
    1SOL    HW3 9675   3.533   3.729   4.639 -0.5869 -0.3101  0.4947
    1SOL    MW4 9676   3.492   3.661   4.603 -0.1683 -0.4463  0.2751
    1SOL     OW 9677   0.888   3.185   4.553 -0.0943 -0.0287  0.3323
    1SOL    HW2 9678   0.823   3.256   4.557 -1.3760 -1.1226 -0.6239
    1SOL    HW3 9679   0.963   3.219   4.602 -1.5862  1.0445  1.9518
    1SOL    MW4 9680   0.889   3.199   4.560 -0.4602 -0.0317  0.4201
    1SOL     OW 9681   1.319   3.979   4.198  0.5936  0.3194  0.5884
    1SOL    HW2 9682   1.397   3.928   4.175  1.0911  0.8498  1.0647
    1SOL    HW3 9683   1.303   3.957   4.290  0.1918  0.2192  0.4927
    1SOL    MW4 9684   1.328   3.969   4.207  0.6063  0.3757  0.6390
    1SOL     OW 9685   0.239   2.366   4.120  0.2261 -0.4231  0.1320
    1SOL    HW2 9686   0.249   2.280   4.162  0.4682 -0.0290  0.8863
    1SOL    HW3 9687   0.321   2.411   4.139 -0.2365  0.2860  0.4656
    1SOL    MW4 9688   0.251   2.361   4.128  0.1970 -0.2775  0.2761
    1SOL     OW 9689   1.056   4.363   4.221 -0.2272 -0.7191  0.5089
    1SOL    HW2 9690   1.035   4.370   4.315 -0.3263  0.1531  0.4246
    1SOL    HW3 9691   1.146   4.330   4.219  0.7071  1.6964  0.9581
    1SOL    MW4 9692   1.065   4.360   4.233 -0.1171 -0.2851  0.5569
    1SOL     OW 9693   4.225   4.340   4.293  0.1489 -0.2767  0.1378
    1SOL    HW2 9694   4.221   4.434   4.276 -0.0607 -0.2750  0.1991
    1SOL    HW3 9695   4.168   4.301   4.227 -0.0388 -0.3336  0.3356
    1SOL    MW4 9696   4.217   4.347   4.282  0.0963 -0.2837  0.1717
    1SOL     OW 9697   0.100   2.049   4.663 -0.2165  0.3983 -0.1764
    1SOL    HW2 9698   0.130   1.960   4.681 -0.3154  0.1246 -1.3476
    1SOL    HW3 9699   0.179   2.097   4.639 -0.2547  0.4827 -0.1362
    1SOL    MW4 9700   0.114   2.044   4.662 -0.2346  0.3734 -0.3262
    1SOL     OW 9701   0.229   2.768   4.226 -0.4279  0.3877 -0.5508
    1SOL    HW2 9702   0.228   2.856   4.189  0.4053  0.4903 -0.3298
    1SOL    HW3 9703   0.158   2.722   4.180 -2.4574  1.8501  1.0123
    1SOL    MW4 9704   0.219   2.773   4.215 -0.5857  0.5941 -0.3152
    1SOL     OW 9705   2.013   0.889   4.656 -0.3324 -0.2774  0.1373
    1SOL    HW2 9706   2.097   0.889   4.610 -1.2893 -2.3644 -1.6878
    1SOL    HW3 9707   2.020   0.817   4.719 -0.9148 -0.7726 -0.3555
    1SOL    MW4 9708   2.025   0.879   4.658 -0.5355 -0.6182 -0.1688
    1SOL     OW 9709   4.229   3.084   4.166  0.1175  0.3939  0.0370
    1SOL    HW2 9710   4.309   3.117   4.206  1.1662 -2.0479  0.0904
    1SOL    HW3 9711   4.247   3.084   4.072  1.0545 -2.1274  0.1624
    1SOL    MW4 9712   4.242   3.088   4.159  0.3791 -0.2608  0.0606
    1SOL     OW 9713   3.390   2.800   4.506 -0.3874  0.1091 -0.3408
    1SOL    HW2 9714   3.375   2.789   4.600 -1.2328 -1.6519 -0.6539
    1SOL    HW3 9715   3.477   2.840   4.500  0.3372 -1.1974  1.1437
    1SOL    MW4 9716   3.399   2.804   4.518 -0.4034 -0.2956 -0.1864
    1SOL     OW 9717   1.707   0.651   4.585 -0.3504  0.0206  0.2349
    1SOL    HW2 9718   1.762   0.608   4.518 -0.5346  0.8407 -0.4544
    1SOL    HW3 9719   1.767   0.668   4.657 -0.1094 -0.7445  0.2246
    1SOL    MW4 9720   1.722   0.648   4.585 -0.3430  0.0278  0.1426
    1SOL     OW 9721   1.043   2.022   4.513  0.4003 -0.0744  0.1740
    1SOL    HW2 9722   1.130   2.063   4.513  0.3574  0.0430 -1.3177
    1SOL    HW3 9723   1.058   1.933   4.546  1.4382 -0.7547 -2.0690
    1SOL    MW4 9724   1.057   2.016   4.518  0.5316 -0.1488 -0.3190
    1SOL     OW 9725   0.212   4.372   4.224  0.0146  0.5067 -0.4334
    1SOL    HW2 9726   0.205   4.400   4.315  1.1399 -0.7980  0.0654
    1SOL    HW3 9727   0.123   4.350   4.198 -0.4972  2.0313 -0.0355
    1SOL    MW4 9728   0.199   4.373   4.232  0.0955  0.5355 -0.3152
    1SOL     OW 9729   3.174   1.185   4.102  0.2477  0.0259 -0.0182
    1SOL    HW2 9730   3.133   1.175   4.016  0.3591 -0.5936  0.0025
    1SOL    HW3 9731   3.104   1.221   4.158  0.6397  2.0131 -0.7686
    1SOL    MW4 9732   3.159   1.189   4.098  0.3140  0.2065 -0.1140
    1SOL     OW 9733   1.024   0.792   4.487  0.1311 -0.0323  0.2196
    1SOL    HW2 9734   1.000   0.869   4.539  0.0336 -1.6179  2.6084
    1SOL    HW3 9735   1.118   0.800   4.475  0.1199  0.4731  0.4236
    1SOL    MW4 9736   1.033   0.804   4.492  0.1168 -0.1748  0.5622
    1SOL     OW 9737   0.541   0.019   4.090 -0.0588 -0.6096 -0.0222
    1SOL    HW2 9738   0.588   0.098   4.118  0.9808 -0.6390 -1.6467
    1SOL    HW3 9739   0.582  -0.005   4.007 -0.4916 -2.7627  0.3639
    1SOL    MW4 9740   0.553   0.027   4.083  0.0213 -0.8976 -0.1855
    1SOL     OW 9741   0.567   0.299   4.140  0.2328 -0.2192 -0.2341
    1SOL    HW2 9742   0.612   0.375   4.176 -0.1627  0.3219 -0.8779
    1SOL    HW3 9743   0.524   0.331   4.061 -1.1207 -0.7752  0.2580
    1SOL    MW4 9744   0.567   0.313   4.135  0.0020 -0.2211 -0.2537
    1SOL     OW 9745   0.885   0.886   4.248  0.0335  0.1222  0.0150
    1SOL    HW2 9746   0.905   0.977   4.228  1.3181 -0.4619 -1.4014
    1SOL    HW3 9747   0.919   0.873   4.337  0.6168  0.7715 -0.1096
    1SOL    MW4 9748   0.892   0.896   4.257  0.2800  0.1308 -0.1884
    1SOL     OW 9749   0.076   1.522   4.697 -0.1665  0.2278 -0.1248
    1SOL    HW2 9750  -0.012   1.535   4.661 -0.9344 -0.5435  1.4160
    1SOL    HW3 9751   0.113   1.452   4.644  0.0818  1.5282 -1.7150
    1SOL    MW4 9752   0.069   1.515   4.685 -0.2350  0.2977 -0.1311
    1SOL     OW 9753   2.851   2.246   4.442  0.0915 -0.0782 -0.2831
    1SOL    HW2 9754   2.891   2.333   4.435  0.4898 -0.1786  0.7049
    1SOL    HW3 9755   2.759   2.264   4.462 -0.2188  0.1394 -1.8293
    1SOL    MW4 9756   2.844   2.260   4.444  0.1032 -0.0629 -0.3567
    1SOL     OW 9757   0.669   1.540   4.148  0.4465 -0.2469  0.0791
    1SOL    HW2 9758   0.685   1.452   4.180 -2.5646 -0.3603  1.5119
    1SOL    HW3 9759   0.659   1.530   4.053  0.7408 -1.3618  0.1626
    1SOL    MW4 9760   0.670   1.527   4.139  0.0880 -0.4090  0.2794
    1SOL     OW 9761   0.203   0.726   4.123 -0.4355 -0.4379 -0.2413
    1SOL    HW2 9762   0.200   0.642   4.169  1.4916  1.0015  2.6546
    1SOL    HW3 9763   0.126   0.774   4.155  0.7742  0.4736  1.3438
    1SOL    MW4 9764   0.192   0.722   4.133 -0.0217 -0.1277  0.3500
    1SOL     OW 9765   0.791   2.194   4.588 -0.2953 -0.6219 -0.0560
    1SOL    HW2 9766   0.765   2.270   4.536  0.0043 -0.4162  0.0941
    1SOL    HW3 9767   0.854   2.147   4.534  0.4527 -0.0983  0.3486
    1SOL    MW4 9768   0.796   2.198   4.574 -0.1571 -0.5257  0.0167
    1SOL     OW 9769   4.229   0.862   4.812 -0.2511  0.1401  0.5695
    1SOL    HW2 9770   4.143   0.898   4.836 -0.5478 -1.2402  1.6240
    1SOL    HW3 9771   4.290   0.936   4.823 -1.4392  1.4493 -1.2740
    1SOL    MW4 9772   4.226   0.877   4.816 -0.4468  0.1308  0.4654
    1SOL     OW 9773   0.423   1.921   4.130 -0.2565  0.0247  0.4488
    1SOL    HW2 9774   0.502   1.970   4.155  0.0362 -0.6318  0.8249
    1SOL    HW3 9775   0.422   1.923   4.035 -0.1726  0.6518  0.4624
    1SOL    MW4 9776   0.433   1.928   4.121 -0.2068  0.0209  0.4997
    1SOL     OW 9777   1.879   3.277   4.545  0.2104 -0.1889  0.4503
    1SOL    HW2 9778   1.874   3.192   4.588  1.9154 -1.0568 -1.0210
    1SOL    HW3 9779   1.859   3.259   4.453 -2.8201  1.5476  0.7054
    1SOL    MW4 9780   1.876   3.264   4.539  0.0355 -0.0741  0.2899
    1SOL     OW 9781   0.675   2.318   4.120 -0.7501  0.1725  0.0037
    1SOL    HW2 9782   0.610   2.378   4.156 -0.3326  0.0093  1.0740
    1SOL    HW3 9783   0.657   2.315   4.027 -1.9333  0.5427  0.2175
    1SOL    MW4 9784   0.664   2.326   4.113 -0.8511  0.1998  0.1731
    1SOL     OW 9785   2.216   4.029   4.559  0.3146  0.5879  0.2355
    1SOL    HW2 9786   2.133   4.075   4.570 -0.7764 -1.0246 -0.9018
    1SOL    HW3 9787   2.232   4.032   4.465  1.3746  0.5975  0.4140
    1SOL    MW4 9788   2.207   4.035   4.548  0.3102  0.3762  0.1087
    1SOL     OW 9789   0.724   2.814   4.283 -0.3405  0.4159 -0.7544
    1SOL    HW2 9790   0.785   2.752   4.243 -0.2295  0.4523 -0.6418
    1SOL    HW3 9791   0.637   2.781   4.258 -0.3233 -0.5890  0.4773
    1SOL    MW4 9792   0.721   2.801   4.274 -0.3236  0.2880 -0.5774
    1SOL     OW 9793   1.615   2.808   4.258 -0.1318 -0.0367  0.5879
    1SOL    HW2 9794   1.606   2.833   4.350  0.0982  0.1156  0.5683
    1SOL    HW3 9795   1.701   2.767   4.252 -0.4960 -0.8125  0.6140
    1SOL    MW4 9796   1.625   2.806   4.269 -0.1495 -0.1187  0.5894
    1SOL     OW 9797   0.690   3.084   4.195  0.2613  0.0216  0.0576
    1SOL    HW2 9798   0.697   2.990   4.212  0.6406 -0.0613 -0.5365
    1SOL    HW3 9799   0.596   3.103   4.199  0.1701 -0.4188  0.0050
    1SOL    MW4 9800   0.678   3.074   4.198  0.2992 -0.0474 -0.0277
    1SOL     OW 9801   4.465   3.216   4.221 -0.8928  0.7125  0.0723
    1SOL    HW2 9802   4.470   3.292   4.163 -1.4000  0.1434 -0.7400
    1SOL    HW3 9803   4.482   3.251   4.308 -0.2621  1.6098 -0.4013
    1SOL    MW4 9804   4.468   3.231   4.225 -0.8765  0.7558 -0.0973
    1SOL     OW 9805   1.266   1.075   4.670 -0.0910  0.0539 -0.1465
    1SOL    HW2 9806   1.255   1.136   4.597 -1.5969 -0.1027 -0.0741
    1SOL    HW3 9807   1.338   1.111   4.721 -0.6943  1.5464 -0.3319
    1SOL    MW4 9808   1.274   1.088   4.667 -0.3692  0.2301 -0.1607
    1SOL     OW 9809   3.531   3.411   4.721 -0.4486 -0.6269  0.4600
    1SOL    HW2 9810   3.492   3.327   4.698 -0.6804 -0.1369 -0.9889
    1SOL    HW3 9811   3.618   3.409   4.683 -1.1226  0.5100 -1.1955
    1SOL    MW4 9812   3.537   3.400   4.713 -0.5682 -0.4120  0.0505
    1SOL     OW 9813   0.681   3.552   4.340 -0.2060  0.5364 -0.1079
    1SOL    HW2 9814   0.755   3.546   4.278  0.4334 -0.6701  0.7610
    1SOL    HW3 9815   0.684   3.642   4.371  0.7123  0.5895 -0.3292
    1SOL    MW4 9816   0.692   3.563   4.336 -0.0005  0.3839 -0.0224
    1SOL     OW 9817   2.537   0.846   4.507  0.2694  0.2276  0.2478
    1SOL    HW2 9818   2.582   0.886   4.582  2.0992  0.1547 -0.7795
    1SOL    HW3 9819   2.606   0.836   4.441 -0.9265 -1.3971 -0.7776
    1SOL    MW4 9820   2.552   0.850   4.508  0.3531  0.0036 -0.0229
    1SOL     OW 9821   4.104   0.510   4.494 -0.2967 -0.0239  0.0296
    1SOL    HW2 9822   4.139   0.507   4.405 -0.6203  0.7547 -0.1301
    1SOL    HW3 9823   4.153   0.581   4.536  0.2033 -0.7112  0.6318
    1SOL    MW4 9824   4.115   0.519   4.488 -0.2742 -0.0119  0.0882
    1SOL     OW 9825   0.023   4.241   4.617  0.3114 -0.7218 -0.2042
    1SOL    HW2 9826   0.073   4.309   4.572 -1.0685  0.1517 -0.4202
    1SOL    HW3 9827  -0.024   4.196   4.547 -1.1384  0.0583  0.2569
    1SOL    MW4 9828   0.023   4.244   4.601 -0.0619 -0.5035 -0.1717
    1SOL     OW 9829   1.085   4.643   4.175 -0.3763  0.8008  0.5379
    1SOL    HW2 9830   1.089   4.652   4.079  1.3357  0.7566  0.6029
    1SOL    HW3 9831   1.072   4.549   4.189 -0.2394  0.7528  0.3567
    1SOL    MW4 9832   1.084   4.632   4.164 -0.1324  0.7882  0.5226
    1SOL     OW 9833   0.918   0.147   4.294  0.5919 -0.2877 -0.5214
    1SOL    HW2 9834   0.918   0.220   4.232  0.4968 -0.8607 -1.1862
    1SOL    HW3 9835   0.979   0.084   4.257 -0.3751 -1.1558 -0.6383
    1SOL    MW4 9836   0.926   0.148   4.281  0.4519 -0.4778 -0.6247
    1SOL     OW 9837   1.085   4.124   4.499  0.3055  0.5950  0.1331
    1SOL    HW2 9838   1.017   4.071   4.540  0.3859  0.1508 -0.3079
    1SOL    HW3 9839   1.060   4.214   4.519 -0.3267  0.4265  0.1185
    1SOL    MW4 9840   1.072   4.129   4.507  0.2327  0.5140  0.0734
    1SOL     OW 9841   0.437   1.646   4.255 -0.3255  0.0631  0.1816
    1SOL    HW2 9842   0.525   1.619   4.230 -0.9596 -1.5076 -0.3826
    1SOL    HW3 9843   0.428   1.734   4.217  1.1136  0.3858  0.5543
    1SOL    MW4 9844   0.447   1.654   4.247 -0.2193 -0.1017  0.1564
    1SOL     OW 9845   1.083   0.718   4.133  0.1539  0.3114  0.1533
    1SOL    HW2 9846   1.157   0.776   4.149  0.8154 -0.4330 -0.1965
    1SOL    HW3 9847   1.010   0.759   4.180  0.4299  1.8309 -0.7170
    1SOL    MW4 9848   1.083   0.731   4.141  0.2775  0.4137 -0.0076
    1SOL     OW 9849   1.433   0.585   4.515 -0.1244 -0.0373  0.1283
    1SOL    HW2 9850   1.384   0.667   4.508 -1.3903 -0.7575  0.3669
    1SOL    HW3 9851   1.519   0.612   4.546 -0.7604  1.1368  0.9336
    1SOL    MW4 9852   1.438   0.600   4.518 -0.3753  0.0225  0.2661
    1SOL     OW 9853   0.911   1.156   4.164 -0.4447  0.0652  0.2141
    1SOL    HW2 9854   0.825   1.184   4.197 -0.5411 -1.1698  1.0213
    1SOL    HW3 9855   0.974   1.201   4.221 -0.5984 -1.1282  1.3434
    1SOL    MW4 9856   0.908   1.166   4.176 -0.4777 -0.2553  0.4702
    1SOL     OW 9857   4.465   1.801   4.470 -0.1828  0.5450 -0.2085
    1SOL    HW2 9858   4.538   1.796   4.532 -1.2061 -1.8897  0.8856
    1SOL    HW3 9859   4.420   1.882   4.493 -1.2263 -0.8459  3.1550
    1SOL    MW4 9860   4.469   1.811   4.482 -0.4554  0.0404  0.3796
    1SOL     OW 9861   0.024   3.706   4.498 -0.2012  0.1467  0.1770
    1SOL    HW2 9862  -0.051   3.648   4.498 -0.0660 -0.0472 -1.1148
    1SOL    HW3 9863   0.086   3.665   4.437 -0.2773  1.8257 -1.0756
    1SOL    MW4 9864   0.023   3.693   4.490 -0.1931  0.3426 -0.1588
    1SOL     OW 9865   1.059   3.586   4.562  0.3474  0.1104  0.0852
    1SOL    HW2 9866   1.079   3.582   4.469 -0.0729  2.7232 -0.1441
    1SOL    HW3 9867   1.128   3.640   4.599 -0.5112  0.6159  0.9776
    1SOL    MW4 9868   1.070   3.592   4.555  0.1787  0.5214  0.1726
    1SOL     OW 9869   0.175   1.783   4.664  0.2006  0.2145  0.0077
    1SOL    HW2 9870   0.157   1.696   4.700 -2.0000  0.4080 -0.5459
    1SOL    HW3 9871   0.268   1.781   4.642  0.3957 -1.6686  0.9047
    1SOL    MW4 9872   0.185   1.771   4.666 -0.0640 -0.0086  0.0529
    1SOL     OW 9873   0.850   1.933   4.132 -0.1184  0.0290 -0.6065
    1SOL    HW2 9874   0.938   1.962   4.157  0.0925 -0.3829 -0.8589
    1SOL    HW3 9875   0.853   1.932   4.036 -0.1782 -0.6671 -0.5998
    1SOL    MW4 9876   0.862   1.937   4.122 -0.0984 -0.1171 -0.6390
    1SOL     OW 9877   2.582   2.279   4.512  0.0986  0.5624 -0.4313
    1SOL    HW2 9878   2.550   2.198   4.552 -1.3369  1.2588 -0.1186
    1SOL    HW3 9879   2.502   2.324   4.484  0.9448  1.3758 -1.5597
    1SOL    MW4 9880   2.567   2.274   4.514  0.0207  0.7617 -0.5388
    1SOL     OW 9881   0.436   3.998   4.661 -0.2252 -0.0667  0.2046
    1SOL    HW2 9882   0.417   3.942   4.586 -0.0502 -0.5400  0.5147
    1SOL    HW3 9883   0.351   4.012   4.703 -0.1724 -0.6342  0.5027
    1SOL    MW4 9884   0.422   3.993   4.657 -0.1951 -0.2043  0.2847
    1SOL     OW 9885   0.937   2.674   4.164  0.2733  0.3404  0.0760
    1SOL    HW2 9886   0.937   2.588   4.206 -0.0972  0.2064 -0.2013
    1SOL    HW3 9887   0.994   2.727   4.220  1.8772 -0.5378 -0.6849
    1SOL    MW4 9888   0.945   2.670   4.177  0.4360  0.2067 -0.0610
    1SOL     OW 9889   0.160   4.034   4.777  0.0341  0.0938 -0.4823
    1SOL    HW2 9890   0.123   4.086   4.705 -0.0924 -1.6794 -1.7144
    1SOL    HW3 9891   0.100   4.049   4.850 -1.9563 -1.0237 -1.8347
    1SOL    MW4 9892   0.147   4.043   4.777 -0.2452 -0.2880 -0.8225
    1SOL     OW 9893   1.127   3.030   4.161  0.3686  0.1749 -0.0914
    1SOL    HW2 9894   1.125   3.073   4.076  1.1691  1.2473  0.4202
    1SOL    HW3 9895   1.048   3.060   4.206 -0.8914 -1.6340 -1.0310
    1SOL    MW4 9896   1.117   3.040   4.156  0.3080  0.0780 -0.1473
    1SOL     OW 9897   3.602   0.155   4.279  0.0013  0.0600 -0.0948
    1SOL    HW2 9898   3.684   0.107   4.265 -0.8634 -0.9964 -1.7581
    1SOL    HW3 9899   3.612   0.235   4.227 -0.2353 -0.3425 -0.7710
    1SOL    MW4 9900   3.614   0.159   4.270 -0.1440 -0.1324 -0.4034
    1SOL     OW 9901   0.214   3.612   4.308  0.0155 -0.1013  0.1382
    1SOL    HW2 9902   0.224   3.702   4.276 -0.9143 -0.5523 -1.5238
    1SOL    HW3 9903   0.302   3.574   4.303  0.4253  0.7516  0.9383
    1SOL    MW4 9904   0.227   3.619   4.303 -0.0531 -0.0486  0.0243
    1SOL     OW 9905   4.023   2.705   4.120  0.0774  0.4911 -0.0437
    1SOL    HW2 9906   4.014   2.612   4.138 -0.3779  0.6164  0.4092
    1SOL    HW3 9907   3.936   2.741   4.139 -0.1156  0.7999 -1.4782
    1SOL    MW4 9908   4.010   2.698   4.125 -0.0086  0.5484 -0.1731
    1SOL     OW 9909   2.106   2.887   4.192 -0.0826 -0.0276  0.2649
    1SOL    HW2 9910   2.020   2.846   4.183 -0.4126  0.7923 -0.3874
    1SOL    HW3 9911   2.169   2.818   4.168 -0.6150 -0.2194 -0.6032
    1SOL    MW4 9912   2.103   2.872   4.188 -0.1967  0.0553  0.0644
    1SOL     OW 9913   0.426   3.181   4.228 -0.3132 -0.0383  0.3477
    1SOL    HW2 9914   0.421   3.272   4.200 -0.3332 -0.1751 -0.1086
    1SOL    HW3 9915   0.441   3.185   4.322  0.9298  0.4383  0.1304
    1SOL    MW4 9916   0.427   3.193   4.237 -0.1518  0.0067  0.2589
    1SOL     OW 9917   0.857   4.224   4.088  0.1372 -0.1405  0.2510
    1SOL    HW2 9918   0.784   4.243   4.147 -0.3588 -0.0816 -0.3817
    1SOL    HW3 9919   0.929   4.278   4.122 -0.3674  0.4856  0.3416
    1SOL    MW4 9920   0.857   4.234   4.100  0.0052 -0.0505  0.1798
    1SOL     OW 9921   0.609   4.404   4.713  0.3754 -0.0051 -0.3330
    1SOL    HW2 9922   0.634   4.325   4.760 -0.2956 -0.1078 -0.1331
    1SOL    HW3 9923   0.682   4.464   4.725  0.4668 -0.2494  0.3291
    1SOL    MW4 9924   0.622   4.401   4.721  0.2989 -0.0505 -0.2198
    1SOL     OW 9925   2.733   4.048   4.265  0.1760 -0.4184 -0.5854
    1SOL    HW2 9926   2.741   4.055   4.360  0.4165  1.4039 -0.7317
    1SOL    HW3 9927   2.644   4.017   4.250 -0.4876  1.1111  0.1602
    1SOL    MW4 9928   2.723   4.045   4.275  0.1204  0.0238 -0.5064
    1SOL     OW 9929   1.526   4.652   4.139  0.1585 -0.1764 -0.0916
    1SOL    HW2 9930   1.535   4.569   4.186  0.5985 -0.6678 -1.0152
    1SOL    HW3 9931   1.454   4.697   4.182  0.8823 -0.3849  1.3699
    1SOL    MW4 9932   1.518   4.647   4.151  0.3120 -0.2689 -0.0205
    1SOL     OW 9933   1.299   0.346   4.162 -0.6029  0.2278 -0.0074
    1SOL    HW2 9934   1.371   0.408   4.174 -0.0868 -0.3733 -0.0361
    1SOL    HW3 9935   1.230   0.378   4.221 -0.2612  0.6978  0.1398
    1SOL    MW4 9936   1.299   0.359   4.171 -0.4898  0.2105  0.0076
    1SOL     OW 9937   1.590   3.361   4.575 -0.0859 -0.5355 -0.5634
    1SOL    HW2 9938   1.677   3.340   4.540  0.5319  0.3065  0.4484
    1SOL    HW3 9939   1.590   3.456   4.584 -1.1788 -0.5159 -0.6994
    1SOL    MW4 9940   1.601   3.371   4.571 -0.1487 -0.4220 -0.4482
    1SOL     OW 9941   2.511   2.071   4.686 -0.4121 -0.6888  0.1858
    1SOL    HW2 9942   2.571   2.077   4.762 -1.7561  0.4382  1.1757
    1SOL    HW3 9943   2.428   2.104   4.719 -1.3851 -1.5057 -1.4214
    1SOL    MW4 9944   2.508   2.076   4.701 -0.7176 -0.6480  0.1044
    1SOL     OW 9945   1.776   4.451   4.536  0.3584  0.2278 -0.2996
    1SOL    HW2 9946   1.768   4.541   4.506  0.0702  0.4433  0.4229
    1SOL    HW3 9947   1.687   4.416   4.532  0.5103 -0.1047 -0.8242
    1SOL    MW4 9948   1.764   4.458   4.531  0.3403  0.2127 -0.2732
    1SOL     OW 9949   0.921   3.229   4.265  0.2636  0.4194 -0.3772
    1SOL    HW2 9950   0.917   3.243   4.359  1.3450  0.2762 -0.3090
    1SOL    HW3 9951   0.836   3.193   4.242 -0.0251  0.5289  0.5309
    1SOL    MW4 9952   0.909   3.226   4.274  0.3681  0.4148 -0.2480
    1SOL     OW 9953   1.337   1.170   4.204  0.3509 -0.3641  0.3921
    1SOL    HW2 9954   1.430   1.192   4.214  0.2664  0.8849 -1.4272
    1SOL    HW3 9955   1.317   1.191   4.113 -1.9226  0.1598  0.9903
    1SOL    MW4 9956   1.347   1.176   4.194  0.0398 -0.1302  0.2313
    1SOL     OW 9957   3.039   2.930   4.432 -0.1512 -0.2666 -0.3099
    1SOL    HW2 9958   3.076   2.843   4.447  0.7674  0.3079  0.8464
    1SOL    HW3 9959   2.981   2.919   4.357 -0.4329 -1.9877  0.1427
    1SOL    MW4 9960   3.036   2.917   4.424 -0.0672 -0.4177 -0.0973
    1SOL     OW 9961   3.188   4.486   4.514 -0.0791 -0.2839  0.0376
    1SOL    HW2 9962   3.095   4.507   4.505 -0.0088 -0.7411 -1.9348
    1SOL    HW3 9963   3.223   4.559   4.566 -1.1038  1.0801 -1.1358
    1SOL    MW4 9964   3.180   4.499   4.520 -0.2048 -0.1645 -0.3777
    1SOL     OW 9965   2.829   2.551   4.448  0.0753  0.4720  0.2498
    1SOL    HW2 9966   2.764   2.547   4.377 -0.5632  0.2886  0.8344
    1SOL    HW3 9967   2.779   2.581   4.524  0.8854  1.2566  0.4785
    1SOL    MW4 9968   2.814   2.554   4.448  0.0978  0.5515  0.3572
    1SOL     OW 9969   1.306   0.066   4.322 -0.1907 -0.3757 -0.0298
    1SOL    HW2 9970   1.228   0.057   4.268  0.7402  0.7523 -1.5860
    1SOL    HW3 9971   1.327   0.159   4.320  1.4126 -0.7110  0.0435
    1SOL    MW4 9972   1.299   0.077   4.315  0.1438 -0.2711 -0.2255
    1SOL     OW 9973   2.148   0.528   4.625  0.1409 -0.2917  0.0063
    1SOL    HW2 9974   2.107   0.492   4.546  0.7968 -1.6889  0.2878
    1SOL    HW3 9975   2.242   0.525   4.606  0.2881 -0.4237  0.7732
    1SOL    MW4 9976   2.155   0.523   4.612  0.2468 -0.4934  0.1450
    1SOL     OW 9977   1.851   2.710   3.867 -0.1412  0.4050  0.4536
    1SOL    HW2 9978   1.763   2.746   3.864 -0.1333  0.3949  0.0995
    1SOL    HW3 9979   1.839   2.616   3.855 -0.0417  0.4637 -0.1201
    1SOL    MW4 9980   1.838   2.702   3.865 -0.1270  0.4113  0.3314
    1SOL     OW 9981   3.230   3.709   4.522 -0.5165  0.1053  0.5232
    1SOL    HW2 9982   3.230   3.804   4.523  0.3474  0.1264  2.7159
    1SOL    HW3 9983   3.316   3.684   4.557 -1.0327 -1.4547  0.7534
    1SOL    MW4 9984   3.241   3.718   4.527 -0.4706 -0.0978  0.8430
    1SOL     OW 9985   1.096   1.995   4.242 -0.0110 -0.9562 -0.1908
    1SOL    HW2 9986   1.080   2.004   4.336 -1.1837 -0.5197 -0.4176
    1SOL    HW3 9987   1.187   1.966   4.235  0.7833  1.1356  0.9896
    1SOL    MW4 9988   1.106   1.992   4.254 -0.0609 -0.6226 -0.0648
    1SOL     OW 9989   3.576   4.039   4.282 -0.1269 -0.6516  0.3357
    1SOL    HW2 9990   3.665   4.012   4.260 -0.4212 -1.9944  0.7123
    1SOL    HW3 9991   3.521   3.993   4.219 -0.5797 -0.1545  0.3696
    1SOL    MW4 9992   3.581   4.029   4.271 -0.2253 -0.7629  0.3901
    1SOL     OW 9993   3.159   0.978   4.464  0.0888  0.0407  0.3749
    1SOL    HW2 9994   3.205   0.912   4.516 -0.8732 -1.2564 -0.3794
    1SOL    HW3 9995   3.224   1.007   4.400 -0.0759 -1.6936 -0.6117
    1SOL    MW4 9996   3.174   0.973   4.463 -0.0596 -0.3592  0.1450
    1SOL     OW 9997   3.291   0.097   4.546 -0.2313  0.1696 -0.3327
    1SOL    HW2 9998   3.280   0.162   4.616 -0.5396 -0.0822 -0.1490
    1SOL    HW3 9999   3.244   0.134   4.471  0.8255  0.8524 -0.6790
    1SOL    MW410000   3.284   0.111   4.545 -0.1326  0.2265 -0.3548
    1SOL     OW10001   1.757   0.087   4.235 -0.0218 -0.2907 -0.2176
    1SOL    HW210002   1.821   0.024   4.203  0.4186 -0.1768  0.4157
    1SOL    HW310003   1.672   0.051   4.210  0.0751 -2.3735  2.1975
    1SOL    MW410004   1.754   0.074   4.228  0.0490 -0.5505  0.1850
    1SOL     OW10005   0.799   3.946   4.128 -0.0990 -0.2065  0.2111
    1SOL    HW210006   0.811   4.038   4.105  0.5428 -0.0519  1.1014
    1SOL    HW310007   0.888   3.912   4.136 -0.2600 -0.1607  2.6864
    1SOL    MW410008   0.812   3.954   4.126 -0.0355 -0.1802  0.6542
    1SOL     OW10009   0.668   3.838   4.339 -0.2571  0.5230 -0.0677
    1SOL    HW210010   0.706   3.872   4.259  1.1177 -0.8696 -0.0255
    1SOL    HW310011   0.729   3.864   4.408  0.6226 -1.6562  0.0072
    1SOL    MW410012   0.681   3.846   4.338  0.0404  0.0517 -0.0525
    1SOL     OW10013   1.535   0.482   4.219  0.0820 -0.1008  0.4335
    1SOL    HW210014   1.528   0.514   4.309 -0.6401  0.1900  0.2835
    1SOL    HW310015   1.538   0.561   4.165  1.5786 -0.2662  0.2689
    1SOL    MW410016   1.534   0.497   4.224  0.1841 -0.0842  0.3920
    1SOL     OW10017   1.947   0.640   4.764  0.0617  0.3917  0.2939
    1SOL    HW210018   2.011   0.600   4.704 -1.1188  0.1580 -0.8334
    1SOL    HW310019   1.955   0.589   4.844  0.6711 -0.2049 -0.1393
    1SOL    MW410020   1.956   0.628   4.766 -0.0136  0.2822  0.0877
    1SOL     OW10021   1.991   4.586   4.183  0.0115  0.4807 -0.2931
    1SOL    HW210022   2.029   4.662   4.227 -0.5939  0.8056 -0.3174
    1SOL    HW310023   2.001   4.605   4.090  1.1632 -0.1401 -0.3024
    1SOL    MW410024   1.997   4.599   4.177  0.0837  0.4416 -0.2975
    1SOL     OW10025   1.845   0.528   4.326  0.4795 -0.2787 -0.3727
    1SOL    HW210026   1.932   0.497   4.350  0.2541 -0.3027  0.4140
    1SOL    HW310027   1.815   0.467   4.259  0.5290 -1.0414  0.2984
    1SOL    MW410028   1.853   0.516   4.320  0.4563 -0.3824 -0.1802
    1SOL     OW10029   1.484   4.369   4.534  0.5815  0.1095 -0.4823
    1SOL    HW210030   1.421   4.437   4.560  1.2610  0.9839 -1.0810
    1SOL    HW310031   1.484   4.372   4.438  0.1226 -1.2096 -0.5376
    1SOL    MW410032   1.475   4.379   4.525  0.6107  0.0505 -0.5684
    1SOL     OW10033   1.062   0.279   4.507 -0.3799 -0.0714  0.2039
    1SOL    HW210034   1.013   0.361   4.515  0.1091  0.1422  1.1011
    1SOL    HW310035   1.019   0.232   4.436 -0.4264  1.1369 -0.5744
    1SOL    MW410036   1.050   0.284   4.499 -0.3214  0.1162  0.2198
    1SOL     OW10037   3.767   0.746   4.132  0.4505  0.2090  0.2228
    1SOL    HW210038   3.684   0.789   4.152  0.5603 -0.0741  1.3126
    1SOL    HW310039   3.771   0.746   4.036 -0.5213  0.7585  0.1705
    1SOL    MW410040   3.757   0.752   4.122  0.3366  0.2441  0.3591
    1SOL     OW10041   3.593   0.146   4.562  0.3949  0.0542 -0.3937
    1SOL    HW210042   3.501   0.129   4.579  0.1281  1.4588 -0.3365
    1SOL    HW310043   3.600   0.152   4.467  0.6848 -1.4198 -0.4653
    1SOL    MW410044   3.582   0.145   4.552  0.3979  0.0451 -0.3953
    1SOL     OW10045   1.514   1.252   4.742 -0.1656  0.1404  0.1774
    1SOL    HW210046   1.589   1.294   4.783 -0.3603  1.4717 -0.7840
    1SOL    HW310047   1.548   1.217   4.660 -0.1190 -1.1749  0.7436
    1SOL    MW410048   1.528   1.253   4.737 -0.1850  0.1423  0.1254
    1SOL     OW10049   1.794   1.679   4.264 -0.0867  0.4842  0.0992
    1SOL    HW210050   1.870   1.629   4.232 -1.1493 -1.0059 -0.1495
    1SOL    HW310051   1.801   1.764   4.220  1.3839  0.3243  0.0030
    1SOL    MW410052   1.805   1.683   4.254 -0.0328  0.2666  0.0539
    1SOL     OW10053   1.587   1.248   4.239  0.2657  0.0468  0.2403
    1SOL    HW210054   1.584   1.341   4.220  0.2215 -0.1081 -0.5083
    1SOL    HW310055   1.669   1.217   4.200 -0.2619 -0.4437 -0.4918
    1SOL    MW410056   1.598   1.256   4.231  0.1903 -0.0384  0.0448
    1SOL     OW10057   1.603   1.520   4.156  0.0047 -0.1040 -0.2085
    1SOL    HW210058   1.519   1.562   4.177 -0.2599 -0.9060  0.3501
    1SOL    HW310059   1.669   1.583   4.187 -0.3888 -0.1455  0.7476
    1SOL    MW410060   1.601   1.534   4.163 -0.0821 -0.2153 -0.0086
    1SOL     OW10061   1.071   1.540   4.187  0.2381  0.1124  0.0446
    1SOL    HW210062   1.049   1.459   4.234  1.3363  0.8068  1.8457
    1SOL    HW310063   1.012   1.606   4.223  1.3459  0.7342  0.7899
    1SOL    MW410064   1.060   1.538   4.198  0.5291  0.2861  0.3810
    1SOL     OW10065   1.028   2.291   4.731 -0.3194  0.1367  0.2788
    1SOL    HW210066   1.097   2.228   4.711 -0.7969 -0.6577  1.1101
    1SOL    HW310067   0.950   2.257   4.686 -0.4220  0.4795  0.1952
    1SOL    MW410068   1.027   2.279   4.722 -0.3958  0.0770  0.3777
    1SOL     OW10069   3.524   2.652   4.138  0.1892  0.1915  0.1325
    1SOL    HW210070   3.445   2.705   4.154  0.6580  1.2490 -0.9706
    1SOL    HW310071   3.550   2.675   4.049  0.8867 -1.3034 -0.0594
    1SOL    MW410072   3.517   2.662   4.128  0.3431  0.1338 -0.0381
    1SOL     OW10073   3.518   1.658   4.530  0.1947 -0.2586  0.3935
    1SOL    HW210074   3.516   1.750   4.555  0.3432 -0.4125  0.9715
    1SOL    HW310075   3.426   1.633   4.524  0.1479 -0.6076  2.2319
    1SOL    MW410076   3.506   1.667   4.533  0.2081 -0.3248  0.7129
    1SOL     OW10077   2.313   2.693   4.105 -0.2321  0.2543 -0.0190
    1SOL    HW210078   2.294   2.666   4.015 -0.6531  1.2999 -0.2540
    1SOL    HW310079   2.311   2.611   4.155  0.7920 -0.4433 -1.0757
    1SOL    MW410080   2.310   2.678   4.100 -0.1526  0.2999 -0.1893
    1SOL     OW10081   2.023   1.525   4.168  0.4604 -0.1572  0.1916
    1SOL    HW210082   2.041   1.434   4.193  3.3542  0.3890  0.2518
    1SOL    HW310083   2.037   1.526   4.073 -2.0901 -0.2864 -0.2462
    1SOL    MW410084   2.027   1.513   4.159  0.5057 -0.1022  0.1421
    1SOL     OW10085   2.616   1.884   4.176 -0.2103  0.0417 -0.0457
    1SOL    HW210086   2.614   1.910   4.084  0.8757 -0.1135 -0.1199
    1SOL    HW310087   2.616   1.967   4.224  0.1328  0.1329 -0.2060
    1SOL    MW410088   2.615   1.899   4.170 -0.0217  0.0333 -0.0768
    1SOL     OW10089   1.348   2.671   4.149 -0.2344 -0.1641 -0.3799
    1SOL    HW210090   1.273   2.708   4.197  0.1506 -1.3635  1.1930
    1SOL    HW310091   1.424   2.698   4.200  0.2184 -1.0414 -0.5849
    1SOL    MW410092   1.348   2.679   4.162 -0.1239 -0.4382 -0.1993
    1SOL     OW10093   2.010   3.627   4.324  0.3286 -0.4776 -0.2732
    1SOL    HW210094   1.932   3.592   4.279 -0.9381 -0.3700  1.8092
    1SOL    HW310095   2.010   3.720   4.303 -1.0156 -0.1762  1.0169
    1SOL    MW410096   2.000   3.634   4.315 -0.0157 -0.4237  0.1717
    1SOL     OW10097   1.092   1.756   4.614  0.0375 -0.4120  0.3595
    1SOL    HW210098   1.037   1.689   4.573  0.5640 -0.8829  0.4201
    1SOL    HW310099   1.065   1.756   4.706  1.2353 -1.7653  0.7314
    1SOL    MW410100   1.081   1.747   4.621  0.2651 -0.6527  0.4163
    1SOL     OW10101   2.031   3.882   4.206  0.3008  0.2672 -0.0709
    1SOL    HW210102   2.046   3.871   4.112  0.8125 -0.4723  0.0958
    1SOL    HW310103   1.936   3.897   4.213  0.0722 -0.8273 -0.6027
    1SOL    MW410104   2.020   3.882   4.195  0.3383  0.0253 -0.1192
    1SOL     OW10105   1.336   4.260   4.168 -0.5677 -0.3837  0.4290
    1SOL    HW210106   1.321   4.277   4.075  0.6941 -0.9026  0.1283
    1SOL    HW310107   1.343   4.165   4.175  0.3199 -0.2930  0.8964
    1SOL    MW410108   1.335   4.250   4.157 -0.2840 -0.4401  0.4506
    1SOL     OW10109   1.542   3.840   4.170  0.3464  0.4959 -0.0314
    1SOL    HW210110   1.560   3.763   4.224  0.2955  1.3000  1.1532
    1SOL    HW310111   1.610   3.904   4.195  0.2227  0.9367 -0.7990
    1SOL    MW410112   1.554   3.839   4.180  0.3234  0.6599  0.0234
    1SOL     OW10113   2.491   2.853   4.235 -0.2967 -0.8226  0.1426
    1SOL    HW210114   2.493   2.943   4.202  1.6171 -0.8978 -0.0173
    1SOL    HW310115   2.422   2.810   4.184  0.0428  0.0620 -1.0901
    1SOL    MW410116   2.482   2.859   4.224  0.0010 -0.7157 -0.0410
    1SOL     OW10117   2.538   4.635   4.153  0.5713  0.1269  0.3311
    1SOL    HW210118   2.616   4.676   4.192  0.4283  0.7250 -0.0045
    1SOL    HW310119   2.464   4.678   4.195  0.4176  0.1142  0.0735
    1SOL    MW410120   2.539   4.646   4.164  0.5322  0.2041  0.2532
    1SOL     OW10121   4.033   2.067   4.437  0.3773  0.0250  0.5981
    1SOL    HW210122   3.972   2.090   4.366 -1.7132  0.6381  2.5357
    1SOL    HW310123   4.058   2.151   4.475  0.9233 -0.3363  1.0412
    1SOL    MW410124   4.028   2.081   4.432  0.1736  0.0582  0.9122
    1SOL     OW10125   1.102   0.083   4.692 -0.0897  0.3499  0.2380
    1SOL    HW210126   1.077   0.147   4.626  0.1133 -0.4047 -0.5883
    1SOL    HW310127   1.138   0.134   4.764 -0.9066  1.2206  0.0286
    1SOL    MW410128   1.103   0.098   4.693 -0.1707  0.3652  0.1011
    1SOL     OW10129   2.443   0.791   4.141  0.1054 -0.5619  0.5459
    1SOL    HW210130   2.438   0.792   4.046  0.7502 -1.1709  0.5057
    1SOL    HW310131   2.489   0.872   4.163  0.4270 -0.6808  0.3135
    1SOL    MW410132   2.449   0.802   4.132  0.2329 -0.6579  0.5102
    1SOL     OW10133   3.664   2.917   4.571  0.1192  0.2776  0.4518
    1SOL    HW210134   3.665   2.997   4.519 -0.2478  0.5438  0.8553
    1SOL    HW310135   3.744   2.871   4.545 -0.1562  0.3151 -0.5010
    1SOL    MW410136   3.674   2.921   4.560  0.0343  0.3178  0.3796
    1SOL     OW10137   1.937   0.713   4.149 -0.1577  0.0526  0.2414
    1SOL    HW210138   2.018   0.745   4.188  0.8784 -1.2773 -0.7511
    1SOL    HW310139   1.907   0.643   4.207  0.4264 -0.7133 -0.3574
    1SOL    MW410140   1.944   0.708   4.162  0.0563 -0.2239  0.0315
    1SOL     OW10141   0.470   2.471   4.220  0.4726 -0.3639  0.2276
    1SOL    HW210142   0.439   2.468   4.310  0.2272 -0.5680  0.1387
    1SOL    HW310143   0.473   2.564   4.198 -2.8216 -0.3985 -0.6843
    1SOL    MW410144   0.466   2.483   4.229  0.0056 -0.3953  0.0963
    1SOL     OW10145   0.234   1.323   4.245 -0.0883  0.2564 -0.4736
    1SOL    HW210146   0.233   1.401   4.190  1.2425  0.2579 -0.5208
    1SOL    HW310147   0.317   1.280   4.224  0.0431 -0.1901  0.9046
    1SOL    MW410148   0.245   1.328   4.235  0.1046  0.1976 -0.2975
    1SOL     OW10149   2.577   1.027   4.198  0.1000 -0.0819 -0.0486
    1SOL    HW210150   2.657   0.992   4.239  0.0540 -1.9293 -1.4922
    1SOL    HW310151   2.606   1.063   4.114 -0.7444 -1.8258 -1.1124
    1SOL    MW410152   2.592   1.027   4.193 -0.0176 -0.5558 -0.3791
    1SOL     OW10153   3.099   2.674   4.130  0.6624  0.2930 -0.2314
    1SOL    HW210154   3.027   2.728   4.164 -0.6836 -0.1121 -2.3681
    1SOL    HW310155   3.097   2.595   4.184 -0.8022  0.0921 -0.5477
    1SOL    MW410156   3.089   2.671   4.142  0.2913  0.2129 -0.5550
    1SOL     OW10157   0.378   4.172   4.138  0.0136 -0.0926 -0.5293
    1SOL    HW210158   0.390   4.196   4.046  1.0455  1.7520  0.0490
    1SOL    HW310159   0.325   4.243   4.175 -0.1557 -0.6740  0.3501
    1SOL    MW410160   0.373   4.185   4.131  0.1274  0.0749 -0.3371
    1SOL     OW10161   1.313   2.141   4.498  0.3037 -0.3208 -0.2884
    1SOL    HW210162   1.385   2.126   4.560  0.4052 -0.8938 -0.5324
    1SOL    HW310163   1.320   2.233   4.475 -0.8163  0.3372  1.8913
    1SOL    MW410164   1.323   2.151   4.503  0.1694 -0.3095 -0.0324
    1SOL     OW10165   2.862   1.791   4.508  0.1526  0.3882 -0.0005
    1SOL    HW210166   2.772   1.769   4.530  0.1730 -0.7276 -0.9384
    1SOL    HW310167   2.883   1.866   4.563 -0.7999 -0.3716  1.4464
    1SOL    MW410168   2.853   1.798   4.518  0.0296  0.1408  0.0668
    1SOL     OW10169   2.999   1.325   4.273 -0.0223  0.5560 -0.8597
    1SOL    HW210170   2.926   1.372   4.233 -1.3608  0.7194  1.6837
    1SOL    HW310171   3.028   1.381   4.345 -0.1227 -1.3891  0.7513
    1SOL    MW410172   2.993   1.338   4.277 -0.2120  0.3209 -0.3114
    1SOL     OW10173   2.626   2.421   4.755 -0.5392 -0.0099 -0.0786
    1SOL    HW210174   2.655   2.509   4.731  2.3024 -1.4147 -2.0378
    1SOL    HW310175   2.633   2.370   4.674 -0.5465 -2.4236  1.3925
    1SOL    MW410176   2.631   2.426   4.741 -0.1652 -0.5136 -0.1431
    1SOL     OW10177   4.490   2.386   4.247 -0.1135  0.1417  0.1812
    1SOL    HW210178   4.509   2.412   4.337  0.5792 -3.1257  1.0681
    1SOL    HW310179   4.576   2.368   4.209 -0.4553  0.7576 -0.8869
    1SOL    MW410180   4.504   2.387   4.254 -0.0672 -0.2079  0.1569
    1SOL     OW10181   3.995   3.220   4.197  0.1138  0.4814  0.2824
    1SOL    HW210182   4.077   3.172   4.187 -1.0967 -1.3844 -0.8940
    1SOL    HW310183   4.010   3.302   4.150  1.1940  0.0163 -0.2047
    1SOL    MW410184   4.008   3.225   4.189  0.0968  0.1733  0.0629
    1SOL     OW10185   1.869   2.745   4.136  0.1307 -0.2328  0.3829
    1SOL    HW210186   1.916   2.661   4.139 -0.6581 -0.6892  0.3350
    1SOL    HW310187   1.832   2.748   4.048 -0.8003 -0.3786  0.7650
    1SOL    MW410188   1.870   2.734   4.125 -0.0961 -0.3123  0.4268
    1SOL     OW10189   0.141   2.859   4.467 -0.6358 -0.0334 -0.1565
    1SOL    HW210190   0.210   2.905   4.514 -0.9690  0.3521 -0.0450
    1SOL    HW310191   0.185   2.822   4.390 -0.6252  1.5751 -0.9403
    1SOL    MW410192   0.156   2.860   4.463 -0.6784  0.2294 -0.2456
    1SOL     OW10193   4.479   3.281   4.507 -0.6759  0.3848  0.4193
    1SOL    HW210194   4.559   3.316   4.546 -0.8077  1.0224  0.1310
    1SOL    HW310195   4.454   3.209   4.564  1.2752 -1.2357 -0.6900
    1SOL    MW410196   4.486   3.276   4.520 -0.4359  0.2549  0.2351
    1SOL     OW10197   2.435   3.206   4.608  0.1210 -0.5842  0.3635
    1SOL    HW210198   2.400   3.135   4.663 -0.9601  0.4514  1.0297
    1SOL    HW310199   2.371   3.215   4.537 -1.2772  1.6511  1.8556
    1SOL    MW410200   2.422   3.197   4.606 -0.2062 -0.1526  0.6485
    1SOL     OW10201   2.265   4.027   4.280  0.1120  0.3570 -0.0571
    1SOL    HW210202   2.337   3.971   4.253 -0.1222  0.2973 -0.5728
    1SOL    HW310203   2.187   3.973   4.268 -0.2017  1.0891 -1.4537
    1SOL    MW410204   2.264   4.012   4.275  0.0396  0.4458 -0.3095
    1SOL     OW10205   2.471   4.391   4.284 -0.6839 -0.1824  0.2066
    1SOL    HW210206   2.448   4.412   4.374  1.6468 -1.6104  1.1879
    1SOL    HW310207   2.490   4.475   4.243 -0.7783  0.4039  1.3475
    1SOL    MW410208   2.471   4.405   4.291 -0.3886 -0.2937  0.4864
    1SOL     OW10209   2.356   0.258   4.549  0.0738  0.2675  0.4149
    1SOL    HW210210   2.283   0.284   4.606 -0.8521  1.3321 -1.2254
    1SOL    HW310211   2.414   0.334   4.547  0.9237 -0.3581  1.2276
    1SOL    MW410212   2.354   0.271   4.556  0.0639  0.3254  0.3057
    1SOL     OW10213   2.746   0.095   4.282 -0.4702 -0.3350  0.3950
    1SOL    HW210214   2.745   0.169   4.222 -0.7932 -0.8394 -0.2230
    1SOL    HW310215   2.819   0.041   4.252 -0.6750 -0.6230  0.4109
    1SOL    MW410216   2.756   0.097   4.270 -0.5398 -0.4396  0.3157
    1SOL     OW10217   2.897   3.337   4.533 -0.3609  0.7425  0.1151
    1SOL    HW210218   2.827   3.274   4.549  0.1069  0.6824  1.9899
    1SOL    HW310219   2.976   3.284   4.528 -0.0329  1.1275  1.1780
    1SOL    MW410220   2.898   3.322   4.534 -0.2561  0.7854  0.5031
    1SOL     OW10221   2.684   0.333   4.168  0.0431  0.4935 -0.1200
    1SOL    HW210222   2.625   0.397   4.208 -0.1064  0.9640 -1.0795
    1SOL    HW310223   2.681   0.353   4.074  0.4234 -0.5681 -0.3626
    1SOL    MW410224   2.676   0.344   4.161  0.0737  0.4155 -0.2789
    1SOL     OW10225   0.636   4.260   4.248  0.3174 -0.4660 -0.3626
    1SOL    HW210226   0.557   4.227   4.204  1.0454 -1.0729 -1.2312
    1SOL    HW310227   0.629   4.227   4.338 -0.8212  0.1749 -0.2022
    1SOL    MW410228   0.624   4.251   4.254  0.2632 -0.4616 -0.4563
    1SOL     OW10229   2.951   0.730   4.190 -0.0995 -0.1261  0.3451
    1SOL    HW210230   2.923   0.638   4.199  0.2662 -0.3068 -0.4143
    1SOL    HW310231   2.935   0.751   4.099  0.8833  0.2261  0.2516
    1SOL    MW410232   2.945   0.720   4.179  0.0787 -0.1035  0.2332
    1SOL     OW10233   2.458   2.734   4.481 -0.0246  0.1482 -0.0426
    1SOL    HW210234   2.461   2.787   4.401  0.0299  0.1128 -0.0641
    1SOL    HW310235   2.434   2.646   4.451 -2.0971  0.6123  0.2227
    1SOL    MW410236   2.456   2.729   4.467 -0.2911  0.2046 -0.0100
    1SOL     OW10237   2.753   4.078   4.533  0.3891  0.6155 -0.5679
    1SOL    HW210238   2.662   4.105   4.545  0.6288  1.3479 -0.3296
    1SOL    HW310239   2.752   3.983   4.547 -0.2626  0.6807 -0.1217
    1SOL    MW410240   2.741   4.069   4.536  0.3347  0.7210 -0.4778
    1SOL     OW10241   2.380   3.475   4.667 -0.1390  0.0498 -0.2753
    1SOL    HW210242   2.384   3.379   4.665 -0.5310  0.0067  0.6729
    1SOL    HW310243   2.297   3.496   4.625  0.1691  0.0019 -0.9198
    1SOL    MW410244   2.370   3.465   4.661 -0.1502  0.0379 -0.2351
    1SOL     OW10245   3.336   0.798   4.605 -0.4840  0.5348 -0.2529
    1SOL    HW210246   3.418   0.846   4.588  0.9176 -1.1342  1.4830
    1SOL    HW310247   3.339   0.780   4.699 -2.4950 -0.2481 -0.3243
    1SOL    MW410248   3.347   0.802   4.616 -0.5641  0.2114 -0.0329
    1SOL     OW10249   0.258   3.353   4.619 -0.2561 -0.6592  0.2174
    1SOL    HW210250   0.271   3.445   4.642  0.4394 -0.7588  0.2445
    1SOL    HW310251   0.231   3.311   4.700 -1.3657 -0.3234  0.0206
    1SOL    MW410252   0.256   3.360   4.633 -0.3107 -0.6280  0.1955
    1SOL     OW10253   3.664   3.163   4.432  0.6548  0.2523  0.1133
    1SOL    HW210254   3.702   3.242   4.471  1.0605 -0.3039  0.8514
    1SOL    HW310255   3.642   3.189   4.343  2.1464  0.7871 -0.1209
    1SOL    MW410256   3.666   3.177   4.426  0.9050  0.2499  0.1793
    1SOL     OW10257   2.869   2.108   3.722 -0.2675 -0.3597 -0.2116
    1SOL    HW210258   2.774   2.107   3.717 -0.3003  2.0464 -0.6088
    1SOL    HW310259   2.890   2.183   3.777  1.4213 -0.3522 -0.8234
    1SOL    MW410260   2.859   2.117   3.729 -0.0491 -0.0412 -0.3445
    1SOL     OW10261   0.663   4.136   4.830  0.0968  0.4821 -0.3437
    1SOL    HW210262   0.731   4.089   4.782  0.6083  1.5236 -0.6607
    1SOL    HW310263   0.585   4.081   4.822  0.7300 -0.3830 -0.5596
    1SOL    MW410264   0.662   4.123   4.823  0.2478  0.5054 -0.4139
    1SOL     OW10265   2.069   0.376   4.374 -0.4336  0.3745  0.0619
    1SOL    HW210266   2.067   0.282   4.391 -1.7169  0.5087  0.7100
    1SOL    HW310267   2.133   0.387   4.304  0.2992 -0.8947  0.5187
    1SOL    MW410268   2.077   0.365   4.367 -0.5062  0.2247  0.2074
    1SOL     OW10269   4.187   2.721   4.456  0.1100  0.1331  0.2548
    1SOL    HW210270   4.092   2.725   4.462 -0.0120 -0.7067 -0.8344
    1SOL    HW310271   4.207   2.750   4.367  0.9827  1.6422  0.9214
    1SOL    MW410272   4.177   2.725   4.445  0.2093  0.2215  0.1988
    1SOL     OW10273   2.298   1.374   4.653  0.0599  0.0778 -0.0202
    1SOL    HW210274   2.271   1.457   4.613  1.1898  0.5088  0.0985
    1SOL    HW310275   2.394   1.373   4.645 -0.0394 -1.9018 -1.3943
    1SOL    MW410276   2.307   1.385   4.647  0.1960 -0.1266 -0.1864
    1SOL     OW10277   0.344   2.988   4.619  0.1859  0.1200  0.1593
    1SOL    HW210278   0.309   3.044   4.688 -0.0066  0.3502 -0.1224
    1SOL    HW310279   0.417   2.942   4.660 -0.2009 -0.0730  0.6405
    1SOL    MW410280   0.349   2.989   4.633  0.1094  0.1249  0.1855
    1SOL     OW10281   3.083   2.709   4.754  0.0413  0.3240 -0.4096
    1SOL    HW210282   3.042   2.793   4.774  0.6131  0.3789  0.5561
    1SOL    HW310283   3.029   2.644   4.798  0.4334  0.3183  0.0756
    1SOL    MW410284   3.071   2.712   4.762  0.1686  0.3302 -0.2179
    1SOL     OW10285   2.934   3.636   4.242 -0.0731 -0.5184 -0.1148
    1SOL    HW210286   2.914   3.633   4.336 -2.1873  1.4799 -0.4574
    1SOL    HW310287   2.954   3.728   4.225  2.6832 -1.2650 -1.2042
    1SOL    MW410288   2.934   3.648   4.252  0.0117 -0.3533 -0.3037
    1SOL     OW10289   2.704   3.263   4.271 -0.0066  0.4328  0.0651
    1SOL    HW210290   2.695   3.353   4.240 -0.5743  0.3862  0.0863
    1SOL    HW310291   2.769   3.224   4.213 -0.4725  0.5814 -0.5597
    1SOL    MW410292   2.712   3.270   4.259 -0.1428  0.4463 -0.0148
    1SOL     OW10293   2.969   3.894   4.197 -0.6802 -0.1674  0.0522
    1SOL    HW210294   2.896   3.951   4.222 -1.1213  0.0958 -1.7708
    1SOL    HW310295   3.048   3.946   4.215 -1.0304  0.4351 -0.1328
    1SOL    MW410296   2.970   3.909   4.203 -0.7846 -0.0529 -0.2127
    1SOL     OW10297   2.702   4.301   4.171 -0.0555 -0.0744  0.5116
    1SOL    HW210298   2.613   4.313   4.203 -0.1904 -1.3444  0.6198
    1SOL    HW310299   2.734   4.224   4.217  1.7339  1.3834  1.8249
    1SOL    MW410300   2.695   4.293   4.182  0.1628 -0.0491  0.6990
    1SOL     OW10301   2.500   3.929   4.172  0.0917 -0.2313  0.2505
    1SOL    HW210302   2.496   3.932   4.077  0.4268  0.0645  0.2437
    1SOL    HW310303   2.507   3.836   4.193 -0.6838 -0.3400  0.0181
    1SOL    MW410304   2.501   3.918   4.162  0.0339 -0.2065  0.2193
    1SOL     OW10305   2.923   4.415   4.275  0.0888  0.0792 -0.4381
    1SOL    HW210306   2.848   4.383   4.225 -0.0200 -0.0039 -0.2236
    1SOL    HW310307   2.987   4.344   4.271 -0.7425 -0.8230  1.3207
    1SOL    MW410308   2.922   4.402   4.268 -0.0353 -0.0510 -0.1779
    1SOL     OW10309   3.377   0.032   4.179 -0.3093  0.4482  0.0027
    1SOL    HW210310   3.459   0.068   4.213 -0.6335  0.7286  0.5009
    1SOL    HW310311   3.311   0.061   4.241 -0.5754 -1.0828  0.4601
    1SOL    MW410312   3.379   0.041   4.192 -0.3870  0.2832  0.1287
    1SOL     OW10313   1.368   1.637   4.236  0.3188  0.2434  0.3236
    1SOL    HW210314   1.288   1.590   4.210 -0.4336  1.0711  1.0972
    1SOL    HW310315   1.351   1.664   4.326  1.2488  0.9288  0.2952
    1SOL    MW410316   1.355   1.635   4.244  0.3424  0.4429  0.4215
    1SOL     OW10317   2.900   0.461   4.274 -0.5128 -0.2214 -0.5111
    1SOL    HW210318   2.824   0.415   4.238  0.7125 -2.4430 -0.2731
    1SOL    HW310319   2.917   0.419   4.358 -0.7729  2.1940  0.8206
    1SOL    MW410320   2.892   0.450   4.280 -0.3853 -0.1959 -0.3037
    1SOL     OW10321   3.335   0.486   4.275 -0.1434 -0.3654 -0.1132
    1SOL    HW210322   3.335   0.483   4.371 -0.7004  2.2314 -0.0090
    1SOL    HW310323   3.425   0.462   4.251  0.7502  1.5268  1.1951
    1SOL    MW410324   3.347   0.483   4.284 -0.0992  0.2269  0.0730
    1SOL     OW10325   2.097   4.514   4.508 -0.0103  0.0577  0.1751
    1SOL    HW210326   2.019   4.506   4.562  0.2962  0.6883  0.7163
    1SOL    HW310327   2.090   4.443   4.444 -1.2565  0.3972 -0.0750
    1SOL    MW410328   2.086   4.504   4.507 -0.1342  0.1855  0.2131
    1SOL     OW10329   3.355   0.757   4.896  0.2975  0.1543 -0.5145
    1SOL    HW210330   3.329   0.745   4.987 -0.3975 -0.3930 -0.7817
    1SOL    HW310331   3.431   0.699   4.885  1.0724  1.0501  0.0079
    1SOL    MW410332   3.362   0.747   4.907  0.3080  0.2003 -0.4811
    1SOL     OW10333   3.331   0.993   4.235  0.7022 -0.1979 -0.0846
    1SOL    HW210334   3.282   0.911   4.238  1.4544 -0.6470  0.1281
    1SOL    HW310335   3.271   1.056   4.195 -0.6806 -0.3018  1.7336
    1SOL    MW410336   3.317   0.991   4.230  0.6187 -0.2709  0.1831
    1SOL     OW10337   1.746   0.060   4.511 -0.1181 -0.5372  0.0430
    1SOL    HW210338   1.671   0.067   4.570  1.4557  0.8018  1.9794
    1SOL    HW310339   1.714   0.091   4.427 -1.5553  0.7167  1.0248
    1SOL    MW410340   1.732   0.065   4.508 -0.1000 -0.1951  0.4277
    1SOL     OW10341   2.834   2.904   4.622 -0.0044 -0.1822  0.1982
    1SOL    HW210342   2.911   2.906   4.567  0.7947  0.5788  1.3020
    1SOL    HW310343   2.786   2.984   4.599 -0.2410 -0.4311 -0.1760
    1SOL    MW410344   2.838   2.915   4.612  0.0699 -0.1144  0.2947
    1SOL     OW10345   2.506   1.447   4.110 -0.4915  0.4009 -0.1941
    1SOL    HW210346   2.486   1.528   4.159 -1.2411  0.3199 -0.3581
    1SOL    HW310347   2.487   1.469   4.019 -0.8440 -0.0087 -0.2197
    1SOL    MW410348   2.501   1.461   4.104 -0.6371  0.3363 -0.2193
    1SOL     OW10349   2.986   0.303   4.487  0.6364  0.0843 -0.0685
    1SOL    HW210350   2.912   0.248   4.512  0.3418 -0.4226 -1.9976
    1SOL    HW310351   3.039   0.309   4.567 -1.2857  0.1948  1.2510
    1SOL    MW410352   2.983   0.297   4.501  0.3436  0.0320 -0.1488
    1SOL     OW10353   2.471   2.344   4.095  0.3528 -0.2447 -0.2304
    1SOL    HW210354   2.483   2.267   4.151  0.8565  0.5443  0.7734
    1SOL    HW310355   2.400   2.393   4.136  0.9695  0.5268 -0.0522
    1SOL    MW410356   2.463   2.341   4.108  0.5007 -0.0386 -0.0744
    1SOL     OW10357   3.527   0.987   4.516  0.1502  0.3437  0.1825
    1SOL    HW210358   3.499   1.076   4.535 -0.5469  0.5233 -1.6263
    1SOL    HW310359   3.539   0.985   4.421 -0.2007 -1.5776  0.1541
    1SOL    MW410360   3.525   0.999   4.506  0.0119  0.1140 -0.0601
    1SOL     OW10361   3.244   1.689   4.457  0.0366  0.2678 -0.3441
    1SOL    HW210362   3.250   1.740   4.376 -0.9396  1.0943  0.1022
    1SOL    HW310363   3.157   1.648   4.453 -0.0868  0.4657  0.3856
    1SOL    MW410364   3.233   1.690   4.446 -0.1085  0.4029 -0.1893
    1SOL     OW10365   3.368   2.313   4.128  0.0279  0.3084 -0.0754
    1SOL    HW210366   3.285   2.359   4.141 -0.2488 -0.4136  0.8455
    1SOL    HW310367   3.376   2.304   4.033 -0.3337  1.4759 -0.2269
    1SOL    MW410368   3.358   2.318   4.117 -0.0563  0.3672  0.0257
    1SOL     OW10369   2.263   4.264   4.152  0.7937  0.1775  0.3923
    1SOL    HW210370   2.269   4.178   4.193  0.2960  0.4847  1.1168
    1SOL    HW310371   2.330   4.316   4.196  0.5385  0.3912  0.5323
    1SOL    MW410372   2.273   4.260   4.163  0.6943  0.2465  0.5064
    1SOL     OW10373   3.319   3.089   4.173  0.3207 -0.0472 -0.0806
    1SOL    HW210374   3.252   3.138   4.221  0.6357 -0.1863  0.5113
    1SOL    HW310375   3.313   3.000   4.208  0.3306 -0.2310 -0.5419
    1SOL    MW410376   3.309   3.084   4.184  0.3633 -0.0896 -0.0634
    1SOL     OW10377   2.496   3.119   4.145 -0.0887  0.0472 -0.5968
    1SOL    HW210378   2.564   3.163   4.196  0.1081 -0.4739 -0.4050
    1SOL    HW310379   2.417   3.170   4.161  0.3285  0.8561 -1.0947
    1SOL    MW410380   2.495   3.131   4.154 -0.0076  0.0851 -0.6375
    1SOL     OW10381   3.372   3.604   4.285  0.4868 -0.4740 -0.1961
    1SOL    HW210382   3.300   3.550   4.254  0.3127 -0.4200  0.1128
    1SOL    HW310383   3.335   3.655   4.357  0.9735 -0.8316  0.3115
    1SOL    MW410384   3.358   3.604   4.290  0.5281 -0.5140 -0.0887
    1SOL     OW10385   3.601   3.498   4.165 -0.2790 -0.2825  0.1858
    1SOL    HW210386   3.592   3.406   4.191 -0.0822  0.0935  1.6075
    1SOL    HW310387   3.527   3.542   4.207 -0.2172  0.2705 -0.2696
    1SOL    MW410388   3.590   3.492   4.174 -0.2446 -0.1600  0.3128
    1SOL     OW10389   3.403   3.855   4.117 -0.6966 -0.1366 -0.2501
    1SOL    HW210390   3.392   3.760   4.122  0.7484 -0.3383 -0.4816
    1SOL    HW310391   3.406   3.874   4.023  0.7216 -0.0930 -0.2060
    1SOL    MW410392   3.402   3.845   4.105 -0.3190 -0.1574 -0.2747
    1SOL     OW10393   0.011   2.641   4.106 -0.3803  0.1471 -0.1333
    1SOL    HW210394  -0.068   2.690   4.130 -0.4865  0.1253 -0.4381
    1SOL    HW310395  -0.002   2.554   4.142 -0.5704  0.0944 -0.3310
    1SOL    MW410396  -0.001   2.636   4.114 -0.4196  0.1373 -0.2003
    1SOL     OW10397   0.002   0.918   4.195 -0.1856 -0.5815 -1.0349
    1SOL    HW210398  -0.015   0.910   4.289 -1.3642  0.3936 -1.1516
    1SOL    HW310399   0.024   1.010   4.182 -0.6962 -0.5604 -1.8050
    1SOL    MW410400   0.002   0.929   4.206 -0.4086 -0.4501 -1.1520
    1SOL     OW10401   3.558   4.302   4.195 -0.0150 -0.0375 -0.1092
    1SOL    HW210402   3.479   4.340   4.233  1.0347  0.7894  1.2820
    1SOL    HW310403   3.560   4.212   4.230  0.1086  0.2137  0.5425
    1SOL    MW410404   3.548   4.295   4.205  0.1400  0.1049  0.1597
    1SOL     OW10405   3.849   0.024   4.188 -0.0382  0.4114 -0.5660
    1SOL    HW210406   3.842  -0.063   4.227  2.2390  0.1253 -0.7364
    1SOL    HW310407   3.832   0.009   4.095  1.0610  0.0071 -0.7132
    1SOL    MW410408   3.846   0.010   4.181  0.4075  0.3200 -0.6075
    1SOL     OW10409   2.535   2.137   4.268  0.4919  0.1908  0.6280
    1SOL    HW210410   2.450   2.116   4.307  0.4075  0.5571  0.6416
    1SOL    HW310411   2.569   2.208   4.322  0.1889  0.9926 -0.2251
    1SOL    MW410412   2.529   2.143   4.280  0.4408  0.3448  0.5174
    1SOL     OW10413   3.586   0.410   4.165  0.7413 -0.0846  0.1000
    1SOL    HW210414   3.672   0.448   4.182  0.4068 -0.0065  1.6449
    1SOL    HW310415   3.578   0.411   4.069  2.0736  0.7434 -0.0127
    1SOL    MW410416   3.596   0.415   4.154  0.8726  0.0350  0.2894
    1SOL     OW10417   4.062   0.389   4.128 -0.5499 -0.4166  0.0603
    1SOL    HW210418   4.063   0.296   4.148  0.0777 -0.4559 -0.1309
    1SOL    HW310419   3.981   0.422   4.167 -1.1530 -1.1859 -0.5464
    1SOL    MW410420   4.052   0.381   4.136 -0.5465 -0.5233 -0.0453
    1SOL     OW10421   1.476   3.889   4.808 -0.0846 -0.1690 -0.0955
    1SOL    HW210422   1.506   3.918   4.894  0.6368 -1.9282  0.2614
    1SOL    HW310423   1.502   3.959   4.749  0.4416  0.5218  0.9390
    1SOL    MW410424   1.483   3.902   4.812  0.0800 -0.3099  0.0877
    1SOL     OW10425   2.513   0.011   4.624  0.2241  0.4156 -0.1480
    1SOL    HW210426   2.468   0.094   4.606  0.4497  0.7516  0.8027
    1SOL    HW310427   2.603   0.037   4.646  0.1331 -0.0275  0.7838
    1SOL    MW410428   2.519   0.026   4.624  0.2420  0.4015  0.1001
    1SOL     OW10429   2.207   2.187   4.104  0.1760  0.2512  0.9238
    1SOL    HW210430   2.232   2.257   4.164  0.6535  0.7623  0.1452
    1SOL    HW310431   2.171   2.233   4.028  1.4437 -0.2925 -0.0260
    1SOL    MW410432   2.206   2.202   4.102  0.4065  0.2470  0.6957
    1SOL     OW10433   0.082   2.555   4.492 -0.0887 -0.1738  0.2788
    1SOL    HW210434   0.177   2.549   4.496 -0.0613  0.8641  1.2187
    1SOL    HW310435   0.064   2.646   4.468 -0.8014 -0.9095 -2.1227
    1SOL    MW410436   0.092   2.566   4.489 -0.1791 -0.1340  0.0858
    1SOL     OW10437   4.082   2.191   4.119 -1.1093  0.0182  0.2588
    1SOL    HW210438   4.162   2.174   4.167  0.1814 -0.6925 -2.0738
    1SOL    HW310439   4.033   2.109   4.121 -0.7630 -0.2000 -0.1594
    1SOL    MW410440   4.086   2.178   4.125 -0.8936 -0.1042 -0.1040
    1SOL     OW10441   3.370   1.574   4.101  0.3570  0.1231  0.4576
    1SOL    HW210442   3.317   1.649   4.130  1.0946  0.3464  1.2405
    1SOL    HW310443   3.337   1.555   4.013  2.6360  3.7406 -1.3101
    1SOL    MW410444   3.358   1.582   4.093  0.7551  0.6298  0.3276
    1SOL     OW10445   3.665   1.909   4.127  0.0436  0.1505  0.0774
    1SOL    HW210446   3.657   1.830   4.179  0.9406 -0.8469 -1.2561
    1SOL    HW310447   3.593   1.965   4.157 -1.0221 -1.4430  0.5660
    1SOL    MW410448   3.654   1.906   4.137  0.0215 -0.1913 -0.0339
    1SOL     OW10449   1.754   1.553   4.509  0.2414  0.4849  0.2661
    1SOL    HW210450   1.761   1.611   4.432 -0.7186  0.3603  0.0766
    1SOL    HW310451   1.786   1.468   4.478  1.7506  0.9375  0.5732
    1SOL    MW410452   1.759   1.550   4.494  0.3136  0.5281  0.2818
    1SOL     OW10453   0.865   4.564   4.695  0.1457 -0.2999  0.5839
    1SOL    HW210454   0.938   4.615   4.730 -0.0302 -0.7947  1.6872
    1SOL    HW310455   0.829   4.618   4.625  1.9422 -0.2996 -0.3748
    1SOL    MW410456   0.870   4.578   4.690  0.3595 -0.3648  0.6032
    1SOL     OW10457   3.464   2.542   4.399 -0.5395 -0.3504  0.0115
    1SOL    HW210458   3.500   2.559   4.312  0.1249  0.1522  0.3800
    1SOL    HW310459   3.437   2.628   4.432 -1.2099 -0.5976  0.1246
    1SOL    MW410460   3.465   2.555   4.392 -0.5405 -0.3169  0.0749
    1SOL     OW10461   3.730   2.171   4.321  0.0732  0.0505  0.3631
    1SOL    HW210462   3.720   2.227   4.398  0.4944 -0.8360  1.0603
    1SOL    HW310463   3.718   2.231   4.247 -2.5833  0.4903  1.1058
    1SOL    MW410464   3.727   2.186   4.321 -0.2217 -0.0081  0.5527
    1SOL     OW10465   1.798   3.983   4.527  1.1617 -0.1753 -0.3740
    1SOL    HW210466   1.852   4.059   4.546  2.1228 -1.3686  1.9629
    1SOL    HW310467   1.855   3.908   4.545 -0.7660 -1.4584  0.6941
    1SOL    MW410468   1.812   3.983   4.532  1.0343 -0.5021  0.0749
    1SOL     OW10469   3.793   3.058   4.079  0.4718 -0.4911  0.3075
    1SOL    HW210470   3.851   3.126   4.113 -1.1584  1.1128 -0.0360
    1SOL    HW310471   3.800   3.066   3.984 -1.2745  0.6025  0.2467
    1SOL    MW410472   3.801   3.068   4.071  0.0262 -0.1352  0.2546
    1SOL     OW10473   3.805   4.421   4.272 -0.0079  0.2254 -0.1708
    1SOL    HW210474   3.714   4.393   4.257 -0.1286  1.1254 -1.1528
    1SOL    HW310475   3.816   4.415   4.367 -1.1733  0.3395 -0.0174
    1SOL    MW410476   3.794   4.417   4.282 -0.1776  0.3591 -0.2799
    1SOL     OW10477   3.573   3.226   4.187  0.1907 -0.5788 -0.0665
    1SOL    HW210478   3.485   3.196   4.165  0.0983 -0.3788  0.0268
    1SOL    HW310479   3.632   3.166   4.141  0.0088 -0.9880  0.2356
    1SOL    MW410480   3.569   3.214   4.178  0.1545 -0.6065 -0.0143
    1SOL     OW10481   1.290   2.442   4.472 -0.1471  0.2590 -0.4261
    1SOL    HW210482   1.373   2.444   4.519 -0.4721  0.2394  0.1511
    1SOL    HW310483   1.315   2.438   4.379  0.4901 -0.2467 -0.2353
    1SOL    MW410484   1.304   2.442   4.466 -0.1059  0.1895 -0.3247
    1SOL     OW10485   4.079   3.034   4.602  0.1854 -0.0097 -0.3538
    1SOL    HW210486   4.167   3.004   4.579 -0.2011 -2.0835  0.7686
    1SOL    HW310487   4.021   2.965   4.570 -0.9228  0.6034  0.3017
    1SOL    MW410488   4.083   3.021   4.595 -0.0114 -0.2027 -0.1192
    1SOL     OW10489   1.369   3.479   4.193  0.1931  0.1786 -0.5472
    1SOL    HW210490   1.377   3.476   4.098 -1.0704  0.0495 -0.6465
    1SOL    HW310491   1.350   3.388   4.218  0.3142  0.2503 -0.1854
    1SOL    MW410492   1.368   3.466   4.184  0.0424  0.1712 -0.5121
    1SOL     OW10493   3.131   4.278   4.160 -0.4090  0.3954  0.0305
    1SOL    HW210494   3.166   4.190   4.173  0.5954  0.5362 -1.6633
    1SOL    HW310495   3.202   4.336   4.186  0.7925  0.6820 -3.6058
    1SOL    MW410496   3.145   4.274   4.165 -0.1180  0.4516 -0.6733
    1SOL     OW10497   0.130   1.032   4.601 -0.1133  0.1496 -0.2117
    1SOL    HW210498   0.070   0.986   4.542  0.4729  0.9653 -1.4709
    1SOL    HW310499   0.086   1.031   4.685 -1.1976 -0.6164 -0.7721
    1SOL    MW410500   0.116   1.025   4.604 -0.1790  0.1562 -0.4511
    1SOL     OW10501   4.272   0.000   4.616  0.1264 -0.1624 -0.5835
    1SOL    HW210502   4.271  -0.085   4.659  0.5530  0.1297  0.0240
    1SOL    HW310503   4.361   0.008   4.580  0.3696  0.3759  0.1045
    1SOL    MW410504   4.284  -0.010   4.617  0.2146 -0.0529 -0.4125
    1SOL     OW10505   4.347   2.142   4.228 -0.5635 -0.0890  0.2428
    1SOL    HW210506   4.324   2.094   4.308 -0.8418  1.3865  1.0870
    1SOL    HW310507   4.400   2.216   4.259 -0.1567  0.1571 -1.0078
    1SOL    MW410508   4.351   2.146   4.243 -0.5465  0.1380  0.1893
    1SOL     OW10509   3.608   0.586   4.873 -0.0610  0.2087  0.4557
    1SOL    HW210510   3.669   0.649   4.835 -1.2290  0.9923 -0.1667
    1SOL    HW310511   3.605   0.514   4.810  0.6965 -0.1289  0.7978
    1SOL    MW410512   3.616   0.585   4.860 -0.1149  0.2676  0.4187
    1SOL     OW10513   0.979   1.046   4.580  0.2732 -0.5654 -0.1123
    1SOL    HW210514   1.049   1.072   4.640  0.4304 -0.7078 -0.2360
    1SOL    HW310515   0.933   1.128   4.561  0.3188 -0.4943  0.0794
    1SOL    MW410516   0.982   1.061   4.586  0.2999 -0.5748 -0.1035
    1SOL     OW10517   0.291   0.124   4.547 -0.4181 -0.2428 -0.1484
    1SOL    HW210518   0.342   0.044   4.555  0.8415  0.6449  1.1349
    1SOL    HW310519   0.285   0.141   4.453 -1.5268 -2.3348 -0.4753
    1SOL    MW410520   0.297   0.116   4.536 -0.3982 -0.4017 -0.0219
    1SOL     OW10521   4.306   4.404   4.702 -0.5832 -0.3284 -0.2472
    1SOL    HW210522   4.380   4.346   4.688 -0.1434 -0.0755  1.0296
    1SOL    HW310523   4.230   4.354   4.670 -0.0318 -1.0661 -0.4049
    1SOL    MW410524   4.305   4.390   4.696 -0.4525 -0.3924 -0.0992
    1SOL     OW10525   4.047   1.181   4.103  0.2941  0.1575  0.4815
    1SOL    HW210526   3.981   1.241   4.137  0.1722 -0.1274  0.7504
    1SOL    HW310527   4.016   1.094   4.128 -0.2440 -0.1303 -1.1239
    1SOL    MW410528   4.035   1.178   4.111  0.2069  0.0820  0.3047
    1SOL     OW10529   2.910   1.115   4.423 -0.4694  0.2473 -0.0125
    1SOL    HW210530   2.994   1.071   4.437 -0.9149 -0.0157  1.9197
    1SOL    HW310531   2.931   1.186   4.361  1.1969  0.2540  0.5250
    1SOL    MW410532   2.924   1.118   4.416 -0.3083  0.2134  0.3138
    1SOL     OW10533   1.794   1.389   4.802 -0.1174  0.1440 -0.2010
    1SOL    HW210534   1.829   1.475   4.779 -0.0427  0.8888  2.5044
    1SOL    HW310535   1.871   1.332   4.804  0.0968  0.4306 -0.1883
    1SOL    MW410536   1.809   1.393   4.800 -0.0792  0.2800  0.1578
    1SOL     OW10537   1.495   0.108   4.642 -0.1862 -0.2287  0.2078
    1SOL    HW210538   1.451   0.028   4.672 -2.4541  0.6056 -0.8469
    1SOL    HW310539   1.426   0.160   4.602  1.6059  1.5137 -0.6804
    1SOL    MW410540   1.480   0.104   4.641 -0.2490  0.1112 -0.0486
    1SOL     OW10541   1.034   4.405   4.500  0.3133 -0.0624  0.5146
    1SOL    HW210542   1.114   4.455   4.518  0.1420 -0.3639  2.2398
    1SOL    HW310543   0.966   4.449   4.551 -0.2039 -0.9984  0.6528
    1SOL    MW410544   1.036   4.417   4.509  0.2224 -0.2255  0.7596
    1SOL     OW10545   3.840   0.499   4.253  0.2427 -0.6162 -0.2272
    1SOL    HW210546   3.822   0.588   4.223  1.1715 -0.3265  0.0474
    1SOL    HW310547   3.837   0.506   4.348  1.6774 -0.5710 -0.1731
    1SOL    MW410548   3.837   0.512   4.261  0.5546 -0.5720 -0.1836
    1SOL     OW10549   3.702   2.376   4.139 -0.3363  0.3604  0.0245
    1SOL    HW210550   3.727   2.323   4.064  0.4495 -1.2204  1.3671
    1SOL    HW310551   3.630   2.430   4.107 -0.6673 -0.9915 -1.5787
    1SOL    MW410552   3.696   2.377   4.125 -0.2763 -0.0265 -0.0095
    1SOL     OW10553   4.018   3.487   4.133 -0.1187 -0.3245 -0.2256
    1SOL    HW210554   4.031   3.502   4.040  0.6593 -1.6004 -0.3394
    1SOL    HW310555   4.100   3.516   4.174 -0.0544 -0.7509 -0.0521
    1SOL    MW410556   4.031   3.493   4.126 -0.0076 -0.5491 -0.2179
    1SOL     OW10557   3.989   2.439   4.167 -0.9619  0.2835 -0.0447
    1SOL    HW210558   3.894   2.431   4.154 -1.2166 -0.3144  1.9359
    1SOL    HW310559   4.023   2.351   4.148 -0.8271  0.4579 -0.6053
    1SOL    MW410560   3.981   2.426   4.163 -0.9778  0.2277  0.1421
    1SOL     OW10561   1.362   3.216   4.509 -0.1468 -0.0601  0.5424
    1SOL    HW210562   1.287   3.261   4.548  0.5737  1.6546 -0.0043
    1SOL    HW310563   1.439   3.255   4.552  0.5181 -0.2944 -0.4102
    1SOL    MW410564   1.363   3.227   4.520  0.0361  0.1354  0.3443
    1SOL     OW10565   3.607   0.413   4.649 -0.1462  0.4895  0.0738
    1SOL    HW210566   3.616   0.323   4.617  0.6398  0.8933 -0.8722
    1SOL    HW310567   3.681   0.460   4.610 -0.0651  1.3624  1.2326
    1SOL    MW410568   3.618   0.407   4.640 -0.0317  0.6579  0.1020
    1SOL     OW10569   3.803   3.666   4.207  0.5375  0.2379 -0.3177
    1SOL    HW210570   3.734   3.603   4.188  0.1308  0.3004  0.9085
    1SOL    HW310571   3.884   3.615   4.207  0.3984  0.0081 -0.8634
    1SOL    MW410572   3.805   3.651   4.204  0.4656  0.2160 -0.2279
    1SOL     OW10573   2.306   1.182   4.454 -0.5154 -0.4245 -0.8467
    1SOL    HW210574   2.390   1.197   4.412 -0.9247 -0.0664 -1.5521
    1SOL    HW310575   2.307   1.238   4.532  0.3026 -1.2006 -0.2796
    1SOL    MW410576   2.317   1.191   4.459 -0.4616 -0.4796 -0.8655
    1SOL     OW10577   4.277   3.582   4.260  0.1688  0.5390 -0.6386
    1SOL    HW210578   4.356   3.543   4.221 -1.4731 -2.0175 -1.5622
    1SOL    HW310579   4.283   3.559   4.352  0.0768 -0.4477 -0.8681
    1SOL    MW410580   4.289   3.573   4.267 -0.0606  0.0715 -0.7911
    1SOL     OW10581   0.338   3.625   4.621  0.7270 -0.0090  0.5195
    1SOL    HW210582   0.282   3.681   4.674  0.8649  0.8102 -0.1959
    1SOL    HW310583   0.370   3.682   4.551  0.0355 -1.2174 -0.8084
    1SOL    MW410584   0.335   3.640   4.618  0.6539 -0.0601  0.2499
    1SOL     OW10585   2.854   4.290   4.677 -0.4332 -0.0003  0.2925
    1SOL    HW210586   2.792   4.233   4.631  0.7322 -0.1347 -1.1659
    1SOL    HW310587   2.837   4.274   4.770 -2.3561 -0.2613 -0.0864
    1SOL    MW410588   2.844   4.280   4.683 -0.5333 -0.0525  0.0501
    1SOL     OW10589   3.797   3.936   4.149 -0.1584  0.0834 -0.7154
    1SOL    HW210590   3.868   3.972   4.201  0.5281 -0.1349 -1.4864
    1SOL    HW310591   3.796   3.843   4.170 -1.1650  0.3323  0.3842
    1SOL    MW410592   3.806   3.928   4.158 -0.2007  0.0873 -0.6723
    1SOL     OW10593   2.799   0.114   4.552 -0.2846  0.1067  0.0706
    1SOL    HW210594   2.848   0.032   4.558 -1.8333 -0.7720  0.9241
    1SOL    HW310595   2.761   0.113   4.464 -1.2115 -0.6245  0.4733
    1SOL    MW410596   2.800   0.103   4.541 -0.6113 -0.1057  0.2360
    1SOL     OW10597   3.883   2.774   4.474 -0.3350  0.2568 -0.1246
    1SOL    HW210598   3.852   2.787   4.384  3.0696  0.0274 -1.4026
    1SOL    HW310599   3.889   2.679   4.484  0.9990  0.3122 -0.3007
    1SOL    MW410600   3.880   2.763   4.464  0.2899  0.2337 -0.3166
    1SOL     OW10601   2.383   1.861   4.596 -0.5388 -0.4072  0.0063
    1SOL    HW210602   2.439   1.929   4.635 -0.4608 -0.9816  0.9053
    1SOL    HW310603   2.328   1.908   4.533 -0.6813  0.5365  0.8300
    1SOL    MW410604   2.383   1.876   4.593 -0.5472 -0.3585  0.2337
    1SOL     OW10605   4.306   2.030   4.485 -0.0177 -0.0496 -0.9138
    1SOL    HW210606   4.332   2.097   4.548  1.5889  0.6994 -2.3386
    1SOL    HW310607   4.211   2.025   4.494 -0.2257  2.7202 -1.0571
    1SOL    MW410608   4.297   2.038   4.494  0.1669  0.4141 -1.1210
    1SOL     OW10609   4.094   0.130   4.210  0.2868 -0.6302 -0.5229
    1SOL    HW210610   4.096   0.147   4.304 -0.4665  1.2857 -0.8397
    1SOL    HW310611   4.020   0.071   4.197 -0.1745 -0.1596 -0.0311
    1SOL    MW410612   4.085   0.124   4.221  0.1264 -0.3153 -0.5002
    1SOL     OW10613   1.094   2.811   4.610 -0.0784  0.0025  0.6454
    1SOL    HW210614   1.081   2.721   4.640 -1.3408  0.3113  1.0645
    1SOL    HW310615   1.006   2.842   4.588  0.4286  0.9148 -0.1302
    1SOL    MW410616   1.081   2.803   4.611 -0.1781  0.1636  0.5984
    1SOL     OW10617   1.648   1.159   4.491 -0.0328 -0.0886  0.0887
    1SOL    HW210618   1.689   1.073   4.488 -0.6155 -0.3810  0.4405
    1SOL    HW310619   1.618   1.175   4.401 -2.2658 -1.4048  0.5525
    1SOL    MW410620   1.649   1.150   4.479 -0.4044 -0.3009  0.1965
    1SOL     OW10621   1.815   3.003   4.622 -0.1033  0.0117 -0.0305
    1SOL    HW210622   1.823   2.934   4.689  0.9573  1.0594  0.9475
    1SOL    HW310623   1.886   2.983   4.560 -0.1311 -0.0889 -0.0306
    1SOL    MW410624   1.826   2.991   4.623  0.0330  0.1366  0.0987
    1SOL     OW10625   0.196   1.576   4.118  0.6813  0.1605 -0.0123
    1SOL    HW210626   0.138   1.644   4.151 -0.6256 -1.2351  0.6208
    1SOL    HW310627   0.283   1.601   4.149 -0.0050  0.7640  1.4296
    1SOL    MW410628   0.200   1.588   4.126  0.4183  0.0559  0.2613
    1SOL     OW10629   4.102   4.013   4.542 -0.4066  0.1203 -0.0899
    1SOL    HW210630   4.185   3.967   4.555  0.2962  1.0648 -1.0920
    1SOL    HW310631   4.122   4.105   4.562 -1.0456  0.4536 -0.9427
    1SOL    MW410632   4.115   4.019   4.546 -0.3982  0.2885 -0.3343
    1SOL     OW10633   0.409   0.979   4.507  0.0699  0.0957  0.1062
    1SOL    HW210634   0.321   0.984   4.546  0.1162 -2.5736  0.6041
    1SOL    HW310635   0.395   0.941   4.421  0.7166 -0.0542  0.0677
    1SOL    MW410636   0.395   0.975   4.501  0.1613 -0.2763  0.1669
    1SOL     OW10637   0.611   1.192   4.498 -0.1178  0.5682  0.4876
    1SOL    HW210638   0.550   1.263   4.517 -1.0385 -0.0572 -0.0724
    1SOL    HW310639   0.555   1.115   4.488  0.8073 -0.0979  0.3907
    1SOL    MW410640   0.595   1.191   4.499 -0.1172  0.3978  0.4015
    1SOL     OW10641   0.040   1.983   4.114 -0.2254 -0.4553 -0.1949
    1SOL    HW210642   0.033   1.893   4.148  1.4406 -0.9634 -1.1528
    1SOL    HW310643  -0.038   2.027   4.149 -1.0299 -2.2383  0.3658
    1SOL    MW410644   0.029   1.977   4.123 -0.1117 -0.7576 -0.2475
    1SOL     OW10645   2.073   3.501   4.578 -0.1518  0.1538 -0.1719
    1SOL    HW210646   1.996   3.446   4.590  0.2839 -0.2490  0.7536
    1SOL    HW310647   2.055   3.549   4.496 -1.6950  0.5955  0.4070
    1SOL    MW410648   2.060   3.500   4.569 -0.2978  0.1588  0.0267
    1SOL     OW10649   4.365   1.303   4.466 -0.6059 -0.0507 -0.1033
    1SOL    HW210650   4.460   1.305   4.478 -0.5805 -0.4660 -0.2381
    1SOL    HW310651   4.334   1.383   4.508 -0.3321 -0.5717  1.1129
    1SOL    MW410652   4.373   1.314   4.473 -0.5660 -0.1743  0.0386
    1SOL     OW10653   0.443   3.472   4.191 -0.5094  0.6011 -0.0503
    1SOL    HW210654   0.521   3.500   4.238 -0.4929  0.4422  0.0183
    1SOL    HW310655   0.469   3.470   4.099 -0.2214 -0.1582  0.0458
    1SOL    MW410656   0.457   3.475   4.185 -0.4692  0.4802 -0.0286
    1SOL     OW10657   3.151   1.191   4.644  0.0017 -0.2913 -0.3452
    1SOL    HW210658   3.062   1.226   4.644 -0.3193 -1.0794 -1.4968
    1SOL    HW310659   3.148   1.117   4.584  1.3211 -0.6392 -0.0078
    1SOL    MW410660   3.139   1.186   4.636  0.1333 -0.4413 -0.4525
    1SOL     OW10661   0.033   0.030   4.514  0.2570  0.2045 -0.2917
    1SOL    HW210662   0.117   0.065   4.544  0.9345 -1.8448  0.2809
    1SOL    HW310663   0.018   0.073   4.430  0.8798  2.1154  0.5524
    1SOL    MW410664   0.042   0.040   4.507  0.4286  0.1863 -0.1040
    1SOL     OW10665   3.777   0.791   4.624  0.5089 -0.2340  0.0981
    1SOL    HW210666   3.708   0.834   4.573  1.3798 -0.3836 -1.2302
    1SOL    HW310667   3.858   0.829   4.591  1.2112 -1.8912 -0.1236
    1SOL    MW410668   3.779   0.801   4.613  0.7162 -0.4724 -0.1059
    1SOL     OW10669   0.630   1.626   4.642  0.1752 -0.3526 -0.0288
    1SOL    HW210670   0.565   1.691   4.614  0.1433 -0.4981 -0.3004
    1SOL    HW310671   0.586   1.542   4.628  0.5235 -0.4613 -0.4747
    1SOL    MW410672   0.616   1.624   4.636  0.2168 -0.3862 -0.1235
    1SOL     OW10673   0.247   3.896   4.214 -0.4638  0.2865 -0.2015
    1SOL    HW210674   0.290   3.977   4.188  0.5310  0.0849  0.7929
    1SOL    HW310675   0.161   3.923   4.247 -0.9638  0.7250 -1.7976
    1SOL    MW410676   0.241   3.910   4.215 -0.3985  0.3178 -0.2804
    1SOL     OW10677   2.176   0.819   4.259  0.4123 -0.1106  0.0106
    1SOL    HW210678   2.260   0.819   4.212  0.0353  0.8369 -0.6569
    1SOL    HW310679   2.200   0.834   4.351  0.9108  0.8949 -0.2820
    1SOL    MW410680   2.190   0.821   4.265  0.4282  0.1470 -0.1154
    1SOL     OW10681   1.295   3.960   4.460  0.1447  0.1112 -0.2230
    1SOL    HW210682   1.221   4.015   4.482  0.1562  0.0481 -0.0252
    1SOL    HW310683   1.371   4.006   4.496  0.5229  1.5590 -2.8130
    1SOL    MW410684   1.296   3.973   4.468  0.1962  0.2937 -0.5383
    1SOL     OW10685   4.283   3.487   4.518  0.1748  0.1484  0.4185
    1SOL    HW210686   4.347   3.418   4.537 -0.5363 -0.4975  0.4793
    1SOL    HW310687   4.198   3.448   4.538 -0.2766  0.8628 -0.0663
    1SOL    MW410688   4.280   3.473   4.523  0.0215  0.1574  0.3624
    1SOL     OW10689   0.561   0.241   4.581  0.4069 -0.2858  0.3412
    1SOL    HW210690   0.619   0.166   4.573  0.2424 -0.5845  1.7612
    1SOL    HW310691   0.483   0.207   4.624 -0.1771  0.4375 -0.1308
    1SOL    MW410692   0.558   0.227   4.586  0.3081 -0.2298  0.4663
    1SOL     OW10693   0.177   1.313   4.530  0.3835 -0.2317  0.0361
    1SOL    HW210694   0.188   1.310   4.435 -0.9921 -2.0153 -0.0938
    1SOL    HW310695   0.172   1.222   4.557  0.8428  0.2584  1.8462
    1SOL    MW410696   0.177   1.301   4.521  0.2626 -0.4025  0.2575
    1SOL     OW10697   4.245   1.599   4.137 -0.5800 -0.2840  0.0398
    1SOL    HW210698   4.256   1.514   4.178  0.6842  0.0712  0.4488
    1SOL    HW310699   4.233   1.579   4.044 -0.1173 -0.8955  0.1074
    1SOL    MW410700   4.245   1.585   4.130 -0.3524 -0.3178  0.1025
    1SOL     OW10701   2.781   1.478   4.156  0.2765  0.5566  0.5519
    1SOL    HW210702   2.686   1.467   4.159  0.3129 -0.0890 -0.2499
    1SOL    HW310703   2.796   1.569   4.180 -0.6230  0.9489 -0.3496
    1SOL    MW410704   2.770   1.488   4.159  0.1626  0.5231  0.3276
    1SOL     OW10705   3.774   2.807   4.207 -0.5533  0.2433 -0.0745
    1SOL    HW210706   3.788   2.893   4.168 -0.8265 -0.0952 -0.9092
    1SOL    HW310707   3.684   2.785   4.186 -0.1965 -0.6658 -0.6852
    1SOL    MW410708   3.764   2.815   4.199 -0.5426  0.0789 -0.2656
    1SOL     OW10709   3.674   2.368   4.510 -0.3528 -0.5505  0.3591
    1SOL    HW210710   3.605   2.426   4.478 -0.3266 -0.4214  0.5360
    1SOL    HW310711   3.640   2.333   4.592  0.4536  0.7563  1.2626
    1SOL    MW410712   3.660   2.371   4.517 -0.2427 -0.3612  0.5016
    1SOL     OW10713   4.325   1.563   4.545  0.3532 -0.0102  0.3454
    1SOL    HW210714   4.234   1.592   4.554  0.1497 -0.3034 -0.6253
    1SOL    HW310715   4.370   1.638   4.506  0.4116 -0.0499  0.3359
    1SOL    MW410716   4.319   1.577   4.541  0.3338 -0.0541  0.2160
    1SOL     OW10717   2.044   4.326   4.288 -0.3792  0.1516 -0.1904
    1SOL    HW210718   2.021   4.414   4.258  0.1196  0.8429  1.3809
    1SOL    HW310719   2.116   4.298   4.233 -0.6668  0.6481 -0.8156
    1SOL    MW410720   2.050   4.334   4.277 -0.3514  0.3076 -0.0653
    1SOL     OW10721   2.925   4.524   4.535  0.0852  0.0558  0.0410
    1SOL    HW210722   2.897   4.485   4.452  1.6210 -0.0660 -0.4266
    1SOL    HW310723   2.895   4.462   4.602 -1.6023  0.4069 -0.3781
    1SOL    MW410724   2.917   4.510   4.533  0.0651  0.0858 -0.0763
    1SOL     OW10725   2.828   2.312   4.935 -0.1265 -0.4286  0.0852
    1SOL    HW210726   2.747   2.350   4.900 -0.4913  0.1212  1.5128
    1SOL    HW310727   2.898   2.358   4.889 -0.5737  1.6657  1.4370
    1SOL    MW410728   2.827   2.323   4.924 -0.2334 -0.0796  0.4520
    1SOL     OW10729   1.090   0.493   4.287 -0.3933 -0.2576 -0.4326
    1SOL    HW210730   1.016   0.514   4.345 -0.6707  0.0377 -0.8896
    1SOL    HW310731   1.106   0.575   4.239  0.8189 -0.0466  0.3199
    1SOL    MW410732   1.082   0.507   4.288 -0.2699 -0.1909 -0.3934
    1SOL     OW10733   0.434   0.725   4.589  0.0865 -0.5425  0.4080
    1SOL    HW210734   0.432   0.820   4.581  0.7391 -0.5282  0.3184
    1SOL    HW310735   0.351   0.695   4.553  0.2343 -0.0584 -0.3452
    1SOL    MW410736   0.423   0.733   4.583  0.1921 -0.4768  0.2971
    1SOL     OW10737   0.696   0.518   4.243  0.2611 -0.0350 -0.2889
    1SOL    HW210738   0.694   0.505   4.337 -0.7834 -1.0726 -0.4416
    1SOL    HW310739   0.680   0.612   4.231  1.3664  0.2793  0.5900
    1SOL    MW410740   0.694   0.529   4.254  0.2691 -0.1304 -0.1931
    1SOL     OW10741   0.807   2.457   4.507  0.4891  0.1551 -0.2043
    1SOL    HW210742   0.891   2.476   4.548  1.0445  0.8734 -1.6600
    1SOL    HW310743   0.825   2.458   4.413 -1.1280  0.2156 -0.5290
    1SOL    MW410744   0.820   2.459   4.500  0.3490  0.2580 -0.4392
    1SOL     OW10745   1.124   3.604   4.282 -0.0274 -0.3934  0.1367
    1SOL    HW210746   1.207   3.567   4.253  0.2430 -0.5758  1.1426
    1SOL    HW310747   1.058   3.563   4.224  0.2333 -2.6049  1.3520
    1SOL    MW410748   1.126   3.594   4.270  0.0427 -0.7091  0.4296
    1SOL     OW10749   3.100   3.239   4.251  0.1976  0.1235 -0.5484
    1SOL    HW210750   3.122   3.328   4.225 -0.8976  1.1702  1.9339
    1SOL    HW310751   3.106   3.240   4.347 -0.0588 -2.4043 -0.4778
    1SOL    MW410752   3.104   3.251   4.260  0.0193 -0.0720 -0.2112
    1SOL     OW10753   3.555   2.248   4.747  0.2487 -0.1115 -0.1454
    1SOL    HW210754   3.515   2.186   4.686 -1.3711  1.3706 -0.6178
    1SOL    HW310755   3.641   2.210   4.767 -0.7126 -2.5073 -0.4081
    1SOL    MW410756   3.561   2.234   4.742 -0.0918 -0.2320 -0.2427
    1SOL     OW10757   0.685   1.282   4.245  0.4870  0.2531  0.0663
    1SOL    HW210758   0.677   1.270   4.340  0.2930 -1.5123 -0.1571
    1SOL    HW310759   0.608   1.238   4.208 -0.0413  1.9162 -0.8595
    1SOL    MW410760   0.674   1.275   4.253  0.3916  0.2396 -0.0849
    1SOL     OW10761   1.591   2.019   4.289 -0.5288  0.7244 -0.3166
    1SOL    HW210762   1.673   1.993   4.246 -0.5761  1.0785 -0.6251
    1SOL    HW310763   1.592   1.973   4.372  0.0583  0.8429 -0.2551
    1SOL    MW410764   1.602   2.010   4.294 -0.4576  0.7868 -0.3490
    1SOL     OW10765   1.348   2.952   4.636 -0.1642 -0.2069 -0.2280
    1SOL    HW210766   1.343   3.041   4.601  0.4728 -0.6546 -1.5269
    1SOL    HW310767   1.258   2.919   4.631 -0.4772  0.5106  0.6664
    1SOL    MW410768   1.335   2.959   4.630 -0.1215 -0.1714 -0.2813
    1SOL     OW10769   0.838   4.035   4.635  0.1934  0.4239 -0.1161
    1SOL    HW210770   0.775   4.084   4.582 -1.2351 -1.2229 -0.0214
    1SOL    HW310771   0.817   3.943   4.617  0.6146 -0.1515  2.2139
    1SOL    MW410772   0.827   4.029   4.626  0.0604  0.1307  0.2041
    1SOL     OW10773   0.024   3.491   4.143 -0.1625 -0.5904 -0.4600
    1SOL    HW210774   0.100   3.538   4.177 -1.7924  1.4777  0.4396
    1SOL    HW310775   0.044   3.476   4.050  1.0583  0.4617 -0.3750
    1SOL    MW410776   0.037   3.495   4.135 -0.2164 -0.1788 -0.3304
    1SOL     OW10777   3.397   2.107   4.561  0.2170  0.4028  0.2977
    1SOL    HW210778   3.357   2.181   4.516 -0.5018 -0.3338 -0.2826
    1SOL    HW310779   3.323   2.059   4.598  0.7591  0.6513  1.7338
    1SOL    MW410780   3.382   2.111   4.560  0.1936  0.3386  0.4106
    1SOL     OW10781   4.092   4.287   4.569  0.3973 -0.0174 -0.5221
    1SOL    HW210782   4.124   4.322   4.486  1.5688  1.5226  0.5482
    1SOL    HW310783   4.002   4.320   4.575  0.3997  0.0992 -1.0488
    1SOL    MW410784   4.084   4.296   4.559  0.5522  0.2007 -0.4506
    1SOL     OW10785   2.693   3.138   4.538 -0.4157 -0.9740  0.2564
    1SOL    HW210786   2.606   3.153   4.575  0.3294  1.7253  1.0894
    1SOL    HW310787   2.686   3.172   4.448  0.1547  0.6438  0.8065
    1SOL    MW410788   2.680   3.145   4.531 -0.2420 -0.4044  0.4387
    1SOL     OW10789   4.470   0.852   4.470  0.1093  0.0015  0.3734
    1SOL    HW210790   4.528   0.777   4.483  0.0899  0.1377  1.3368
    1SOL    HW310791   4.384   0.822   4.501 -0.0774  0.1608  0.0175
    1SOL    MW410792   4.466   0.838   4.476  0.0815  0.0405  0.4535
    1SOL     OW10793   2.600   1.680   4.546  0.3447 -0.7575 -0.0849
    1SOL    HW210794   2.571   1.651   4.460  0.7714  0.3707 -0.6136
    1SOL    HW310795   2.532   1.741   4.575  0.4743 -0.7239  0.1440
    1SOL    MW410796   2.587   1.684   4.539  0.4182 -0.6042 -0.1245
    1SOL     OW10797   1.586   3.618   4.322 -0.0250  0.0871  0.0070
    1SOL    HW210798   1.507   3.568   4.300  0.0041  0.4416 -0.9137
    1SOL    HW310799   1.577   3.636   4.416  0.6533 -2.8691  0.6909
    1SOL    MW410800   1.574   3.614   4.332  0.0683 -0.2561 -0.0238
    1SOL     OW10801   3.226   4.019   4.236  0.5503 -0.2900  0.1590
    1SOL    HW210802   3.290   3.967   4.186  1.0331  0.0735  0.3994
    1SOL    HW310803   3.248   4.002   4.327 -0.0359 -0.5801  0.2469
    1SOL    MW410804   3.238   4.010   4.241  0.5364 -0.2804  0.2022
    1SOL     OW10805   0.236   2.115   4.247 -0.3249  0.3589  0.0315
    1SOL    HW210806   0.168   2.077   4.192  0.3999 -1.8219  0.5685
    1SOL    HW310807   0.318   2.080   4.211  0.3646  1.3555  0.6174
    1SOL    MW410808   0.238   2.105   4.235 -0.1383  0.2027  0.1793
    1SOL     OW10809   2.229   1.634   4.533  0.2772 -0.1458  0.2490
    1SOL    HW210810   2.216   1.662   4.443 -0.5028  2.0913  1.0213
    1SOL    HW310811   2.287   1.700   4.571  0.9192 -1.2766  1.2790
    1SOL    MW410812   2.235   1.646   4.526  0.2589  0.0002  0.4864
    1SOL     OW10813   2.943   3.631   4.519  0.1080 -0.1473 -0.5735
    1SOL    HW210814   3.033   3.660   4.506  0.0346 -0.0457 -0.8545
    1SOL    HW310815   2.951   3.538   4.540  0.4585  0.3869  1.8417
    1SOL    MW410816   2.956   3.622   4.520  0.1442 -0.0632 -0.2909
    1SOL     OW10817   0.682   3.369   4.553 -0.0919 -0.1828 -0.2346
    1SOL    HW210818   0.686   3.436   4.485  2.3961 -0.2770 -0.2324
    1SOL    HW310819   0.612   3.309   4.524  0.4600  0.1611 -2.3383
    1SOL    MW410820   0.673   3.370   4.541  0.3092 -0.1497 -0.5116
    1SOL     OW10821   1.822   3.207   4.263 -0.4078 -0.1943 -0.3498
    1SOL    HW210822   1.744   3.160   4.235 -0.0539 -1.0374  0.0762
    1SOL    HW310823   1.815   3.292   4.220 -1.2702 -0.4720 -0.7692
    1SOL    MW410824   1.811   3.212   4.254 -0.4749 -0.3421 -0.3490
    1SOL     OW10825   2.972   2.193   4.194 -0.5687 -0.5927 -0.1199
    1SOL    HW210826   2.925   2.219   4.273 -0.1930 -1.3349  0.3460
    1SOL    HW310827   2.919   2.228   4.122 -0.8987  0.1010  0.4578
    1SOL    MW410828   2.959   2.201   4.195 -0.5629 -0.5989  0.0181
    1SOL     OW10829   2.570   3.591   4.505  0.3406 -0.5694 -0.0993
    1SOL    HW210830   2.514   3.554   4.573  0.4590 -0.7251 -0.0859
    1SOL    HW310831   2.652   3.543   4.513  0.8483  0.4133  0.5940
    1SOL    MW410832   2.573   3.580   4.515  0.4232 -0.4601 -0.0057
    1SOL     OW10833   1.267   4.572   4.539  0.2754  0.5218 -0.0030
    1SOL    HW210834   1.221   4.635   4.595  0.4520  0.8363 -0.2160
    1SOL    HW310835   1.283   4.619   4.458 -0.3557 -0.0765 -0.4769
    1SOL    MW410836   1.263   4.587   4.536  0.2153  0.4845 -0.0939
    1SOL     OW10837   4.052   2.312   4.571  0.1176  0.3767  0.5165
    1SOL    HW210838   4.010   2.385   4.525  1.1853  0.2756 -0.6618
    1SOL    HW310839   4.134   2.349   4.604  0.1623 -0.0167  0.8480
    1SOL    MW410840   4.057   2.326   4.569  0.2642  0.3114  0.4039
    1SOL     OW10841   3.502   2.973   4.771 -0.2513  0.1467 -0.2971
    1SOL    HW210842   3.556   2.976   4.850 -1.2005 -0.8547  0.4102
    1SOL    HW310843   3.561   2.938   4.704  1.1471  2.8582 -0.5588
    1SOL    MW410844   3.517   2.968   4.773 -0.1919  0.3724 -0.2379
    1SOL     OW10845   2.189   1.727   4.261 -0.3462 -0.3040  0.0101
    1SOL    HW210846   2.128   1.656   4.242  0.5497 -0.9577 -0.4464
    1SOL    HW310847   2.134   1.805   4.265 -1.2392 -0.9147 -0.1891
    1SOL    MW410848   2.173   1.728   4.259 -0.3457 -0.4709 -0.0768
    1SOL     OW10849   1.831   1.143   4.125 -0.3682  0.7526  0.0005
    1SOL    HW210850   1.809   1.057   4.161  0.6767  1.4330  2.3540
    1SOL    HW310851   1.927   1.144   4.122 -0.3996  1.2085 -1.6768
    1SOL    MW410852   1.841   1.132   4.129 -0.2345  0.9025  0.0896
    1SOL     OW10853   3.787   3.391   4.575 -0.3884 -0.0301 -0.3823
    1SOL    HW210854   3.791   3.483   4.546 -0.7589 -0.3413 -1.4467
    1SOL    HW310855   3.875   3.358   4.558 -0.1311  0.2455  0.4047
    1SOL    MW410856   3.799   3.399   4.569 -0.4034 -0.0346 -0.4191
    1SOL     OW10857   0.928   0.524   4.488  0.4699 -0.0753  0.0862
    1SOL    HW210858   0.842   0.517   4.530 -0.5288  0.7283 -1.7791
    1SOL    HW310859   0.955   0.614   4.504  0.9770 -0.3221  0.6571
    1SOL    MW410860   0.921   0.535   4.496  0.4051 -0.0018 -0.0839
    1SOL     OW10861   2.299   2.910   4.599 -0.1649 -0.2137  0.0278
    1SOL    HW210862   2.247   2.854   4.658  0.1105 -1.6455 -1.0394
    1SOL    HW310863   2.371   2.854   4.571  0.6419  1.0024 -0.3516
    1SOL    MW410864   2.302   2.895   4.603 -0.0219 -0.2422 -0.1631
    1SOL     OW10865   3.605   1.929   4.454  0.3552  0.3302  0.1655
    1SOL    HW210866   3.644   2.002   4.406 -1.5471  0.5804 -1.0186
    1SOL    HW310867   3.541   1.970   4.513 -0.5345 -0.3446 -0.3168
    1SOL    MW410868   3.602   1.944   4.456 -0.0131  0.2742 -0.0539
    1SOL     OW10869   1.620   2.278   4.180  0.1650  0.0083 -0.1463
    1SOL    HW210870   1.688   2.317   4.234  0.5271  0.1311 -0.6825
    1SOL    HW310871   1.605   2.191   4.218  0.0576  0.2867  0.4487
    1SOL    MW410872   1.627   2.272   4.192  0.1986  0.0613 -0.1388
    1SOL     OW10873   1.342   1.730   4.487 -0.0537 -0.0561  0.3116
    1SOL    HW210874   1.373   1.643   4.510  1.2483  0.4238  0.4428
    1SOL    HW310875   1.259   1.740   4.534  0.4648 -0.7105  1.3860
    1SOL    MW410876   1.335   1.720   4.496  0.1864 -0.0790  0.4706
    1SOL     OW10877   4.094   0.190   4.485  0.4643  0.2560 -0.3367
    1SOL    HW210878   4.149   0.132   4.539  0.1339 -0.7960 -1.1111
    1SOL    HW310879   4.133   0.277   4.496  0.1457  0.1510  1.9344
    1SOL    MW410880   4.107   0.194   4.494  0.3781  0.1033 -0.1397
    1SOL     OW10881   2.056   3.023   4.453 -0.0159 -0.0742  0.0887
    1SOL    HW210882   2.067   2.986   4.366  0.8292 -0.7285  0.4595
    1SOL    HW310883   2.133   2.992   4.502 -0.9677 -0.5296  1.3318
    1SOL    MW410884   2.068   3.014   4.448 -0.0303 -0.2205  0.3014
    1SOL     OW10885   4.222   3.863   4.146  0.6392  0.5571  0.3318
    1SOL    HW210886   4.245   3.778   4.184 -0.3893  0.6870  1.2805
    1SOL    HW310887   4.224   3.848   4.051 -2.3427 -1.3227  0.4919
    1SOL    MW410888   4.225   3.850   4.138  0.1097  0.3262  0.4778
    1SOL     OW10889   1.068   2.538   4.596 -0.3579  0.0213  0.1737
    1SOL    HW210890   1.144   2.518   4.543  0.5437  2.5269  0.4642
    1SOL    HW310891   1.065   2.468   4.662  1.3268 -0.4224 -0.2150
    1SOL    MW410892   1.077   2.526   4.598 -0.0168  0.2935  0.1602
    1SOL     OW10893   1.792   0.915   4.485  0.1237  0.0552 -0.4312
    1SOL    HW210894   1.861   0.903   4.550 -0.3984  0.1927  0.1512
    1SOL    HW310895   1.724   0.853   4.512  0.6311 -1.1808 -1.8607
    1SOL    MW410896   1.792   0.905   4.497  0.1217 -0.0896 -0.5431
    1SOL     OW10897   4.274   2.788   4.190  0.1012  0.0430 -0.5226
    1SOL    HW210898   4.265   2.883   4.197 -0.2066 -0.1324  1.8602
    1SOL    HW310899   4.191   2.758   4.153  0.2307  0.6859 -1.3584
    1SOL    MW410900   4.262   2.797   4.186  0.0777  0.1047 -0.3190
    1SOL     OW10901   0.263   4.641   4.092  0.2281  0.3820 -0.0665
    1SOL    HW210902   0.357   4.658   4.084  0.3251 -0.0786  0.0734
    1SOL    HW310903   0.258   4.556   4.136 -0.2561 -0.0992 -1.0616
    1SOL    MW410904   0.275   4.632   4.097  0.1771  0.2580 -0.1793
    1SOL     OW10905   3.327   2.431   4.768 -0.3822 -0.0499  0.1622
    1SOL    HW210906   3.400   2.371   4.785 -0.2427  0.1862  0.4102
    1SOL    HW310907   3.361   2.517   4.793 -0.4137  0.2051 -0.6487
    1SOL    MW410908   3.341   2.434   4.774 -0.3681  0.0150  0.0877
    1SOL     OW10909   0.450   1.157   4.148 -0.1678 -0.2362  0.0076
    1SOL    HW210910   0.437   1.069   4.183  2.2781 -0.0857  1.3966
    1SOL    HW310911   0.426   1.150   4.056  1.0670 -2.6528 -0.1774
    1SOL    MW410912   0.445   1.145   4.141  0.3179 -0.5351  0.1664
    1SOL     OW10913   2.258   3.259   4.166  0.5126  0.1051  0.3059
    1SOL    HW210914   2.178   3.236   4.119  0.4366  0.8536  0.0559
    1SOL    HW310915   2.232   3.260   4.258 -0.2644  2.2686  0.0866
    1SOL    MW410916   2.244   3.256   4.172  0.4001  0.4895  0.2441
    1SOL     OW10917   0.033   0.076   4.228  0.2703 -0.1551  0.1543
    1SOL    HW210918   0.113   0.051   4.181  0.4517 -0.8230  0.8041
    1SOL    HW310919   0.006   0.158   4.188 -0.2861 -1.3362 -1.9730
    1SOL    MW410920   0.040   0.083   4.216  0.2208 -0.3991 -0.0401
    1SOL     OW10921   1.304   3.746   4.627 -0.1973  0.5607  0.7735
    1SOL    HW210922   1.343   3.785   4.705  1.3965 -1.0510  0.8222
    1SOL    HW310923   1.292   3.819   4.567  0.3521  1.5177  1.8049
    1SOL    MW410924   1.308   3.761   4.629  0.0854  0.4742  0.9160
    1SOL     OW10925   0.822   3.744   4.592  0.4804 -0.1723 -0.4041
    1SOL    HW210926   0.908   3.704   4.594  1.7218  2.3891 -0.3035
    1SOL    HW310927   0.770   3.693   4.655  2.4453 -0.5824  0.9251
    1SOL    MW410928   0.826   3.732   4.601  0.9034  0.1116 -0.2155
    1SOL     OW10929   2.711   2.076   4.889  0.2147 -0.0444  0.1008
    1SOL    HW210930   2.754   2.160   4.903 -0.1607 -0.0621  1.4866
    1SOL    HW310931   2.741   2.021   4.962 -0.1970 -0.8330 -0.3182
    1SOL    MW410932   2.720   2.079   4.901  0.1109 -0.1507  0.2289
    1SOL     OW10933   2.856   1.296   4.628  0.4372 -0.5172 -0.0604
    1SOL    HW210934   2.859   1.235   4.554 -0.1979  0.3074 -0.7708
    1SOL    HW310935   2.767   1.329   4.628  0.7414  0.2997  0.4151
    1SOL    MW410936   2.845   1.292   4.618  0.3936 -0.3005 -0.0916
    1SOL     OW10937   1.298   0.899   4.217 -0.4645  0.3497 -0.1509
    1SOL    HW210938   1.376   0.845   4.202 -1.4837 -1.3141  0.3601
    1SOL    HW310939   1.329   0.989   4.208  1.0701 -0.3320 -1.9988
    1SOL    MW410940   1.312   0.903   4.214 -0.3965  0.0403 -0.3276
    1SOL     OW10941   3.991   0.906   4.507  0.0647  0.4550  0.0798
    1SOL    HW210942   4.027   0.991   4.533 -1.6799  1.3466 -0.3766
    1SOL    HW310943   3.949   0.923   4.423  0.1956 -1.0032 -0.2845
    1SOL    MW410944   3.990   0.920   4.500 -0.1483  0.3802 -0.0286
    1SOL     OW10945   2.256   0.912   4.523  0.1865  0.5997  1.0802
    1SOL    HW210946   2.342   0.873   4.508 -0.2922  0.5564 -1.7342
    1SOL    HW310947   2.268   1.005   4.507 -0.0802  0.7465  1.6983
    1SOL    MW410948   2.269   0.919   4.519  0.0882  0.6134  0.7906
    1SOL     OW10949   1.360   3.200   4.216 -0.0893 -0.1370 -0.3601
    1SOL    HW210950   1.356   3.215   4.311  1.5490 -0.9383 -0.1503
    1SOL    HW310951   1.279   3.153   4.196 -1.0458  1.1567  0.4257
    1SOL    MW410952   1.349   3.196   4.226  0.0006 -0.0722 -0.2289
    1SOL     OW10953   1.123   2.252   4.144  0.1728  0.3279 -0.1488
    1SOL    HW210954   1.207   2.281   4.179 -0.0934  0.3490  0.4665
    1SOL    HW310955   1.119   2.159   4.164 -1.2286  0.9108  2.4018
    1SOL    MW410956   1.134   2.243   4.151 -0.0472  0.4075  0.2689
    1SOL     OW10957   4.395   1.084   4.784 -0.0392  0.1252 -0.0898
    1SOL    HW210958   4.423   1.164   4.828  0.2834  0.1973 -0.4229
    1SOL    HW310959   4.327   1.112   4.724 -0.3175  0.0624  0.1938
    1SOL    MW410960   4.390   1.098   4.782 -0.0334  0.1265 -0.0968
    1SOL     OW10961   3.849   0.014   4.562 -0.2457  0.0822 -0.0151
    1SOL    HW210962   3.776   0.074   4.579  0.4829  0.8915  0.3330
    1SOL    HW310963   3.926   0.071   4.558  0.3115 -0.7173 -0.7855
    1SOL    MW410964   3.850   0.029   4.564 -0.0761  0.0834 -0.0710
    1SOL     OW10965   4.124   1.153   4.566  0.1677 -0.4586  0.1234
    1SOL    HW210966   4.063   1.222   4.542 -0.2964 -1.9042 -3.2107
    1SOL    HW310967   4.210   1.186   4.540  0.1852 -0.3712  0.2930
    1SOL    MW410968   4.127   1.166   4.559  0.1087 -0.6378 -0.2937
    1SOL     OW10969   3.536   4.034   4.560 -0.1557  0.3403 -0.3645
    1SOL    HW210970   3.550   4.061   4.469 -1.2463  1.1076 -0.3205
    1SOL    HW310971   3.624   4.023   4.596  0.2849  0.4173 -1.3951
    1SOL    MW410972   3.549   4.036   4.552 -0.2410  0.4520 -0.4950
    1SOL     OW10973   0.741   0.020   4.478 -0.3252 -0.1160 -0.2430
    1SOL    HW210974   0.784   0.083   4.419 -0.6267  1.4691  1.1847
    1SOL    HW310975   0.699  -0.042   4.419 -0.5903  1.4167 -1.7214
    1SOL    MW410976   0.741   0.020   4.462 -0.4000  0.2954 -0.2499
    1SOL     OW10977   0.344   2.485   4.478  0.0681 -0.3960 -0.3290
    1SOL    HW210978   0.332   2.396   4.512  0.7083 -0.3811 -0.0476
    1SOL    HW310979   0.419   2.520   4.528 -0.7139  0.6043  0.1744
    1SOL    MW410980   0.352   2.478   4.489  0.0494 -0.2623 -0.2255
    1SOL     OW10981   2.064   1.226   4.714  0.0498  0.2708 -0.0826
    1SOL    HW210982   2.082   1.135   4.739  0.8460 -0.0609 -1.8527
    1SOL    HW310983   2.149   1.269   4.718 -0.1206  0.6459 -0.5124
    1SOL    MW410984   2.078   1.220   4.718  0.1321  0.2766 -0.3729
    1SOL     OW10985   4.282   4.601   4.183 -0.2473 -0.5777 -0.0654
    1SOL    HW210986   4.223   4.674   4.198  0.6991  0.1336  0.2783
    1SOL    HW310987   4.364   4.627   4.226 -0.2186 -2.2692  0.9407
    1SOL    MW410988   4.285   4.614   4.191 -0.1187 -0.7071  0.1125
    1SOL     OW10989   2.688   2.687   4.649  0.5659  0.3244  0.1882
    1SOL    HW210990   2.614   2.707   4.593 -0.2877  1.3972  1.6526
    1SOL    HW310991   2.746   2.762   4.641  1.1800 -0.2003 -0.4108
    1SOL    MW410992   2.686   2.699   4.641  0.5343  0.3970  0.3023
    1SOL     OW10993   1.977   4.194   4.556 -0.0810  0.0888  0.4071
    1SOL    HW210994   1.987   4.234   4.469  0.2857  1.9544  1.2761
    1SOL    HW310995   1.928   4.259   4.606 -0.1580 -0.9176  1.6497
    1SOL    MW410996   1.972   4.208   4.551 -0.0428  0.2017  0.6857
    1SOL     OW10997   3.130   4.217   4.561 -0.0709  0.1500 -0.0207
    1SOL    HW210998   3.035   4.220   4.574  0.0779 -1.5138  1.7790
    1SOL    HW310999   3.156   4.308   4.551 -1.9158  0.5870 -0.9621
    1SOL    MW411000   3.121   4.229   4.562 -0.2944 -0.0119  0.0930
    1SOL     OW11001   3.587   4.292   4.685  0.1709  0.1460  0.2884
    1SOL    HW211002   3.556   4.209   4.647  3.5452 -1.7884  1.5254
    1SOL    HW311003   3.517   4.320   4.743 -1.3571 -1.4292 -0.7461
    1SOL    MW411004   3.574   4.284   4.687  0.4146 -0.3176  0.3152
    1SOL     OW11005   3.202   1.925   4.649 -0.4872  0.4650 -0.4496
    1SOL    HW211006   3.196   1.845   4.596 -0.2164  0.8563 -1.0780
    1SOL    HW311007   3.111   1.945   4.671 -0.5274 -0.2179  0.0146
    1SOL    MW411008   3.189   1.917   4.645 -0.4566  0.4265 -0.4716
    1SOL     OW11009   1.805   4.230   4.158 -0.3794  0.1090 -0.6766
    1SOL    HW211010   1.807   4.236   4.063  0.6436 -1.4659 -0.7766
    1SOL    HW311011   1.887   4.269   4.187 -0.6194  0.4467 -0.4393
    1SOL    MW411012   1.816   4.236   4.149 -0.2761 -0.0539 -0.6590
    1SOL     OW11013   2.105   1.056   4.130 -0.0374 -0.0077  0.3646
    1SOL    HW211014   2.131   0.975   4.174  0.7383 -0.0763 -0.2262
    1SOL    HW311015   2.112   1.123   4.198 -0.0093 -0.3166  0.6693
    1SOL    MW411016   2.109   1.054   4.145  0.0684 -0.0575  0.3276
    1SOL     OW11017   0.623   4.181   4.528 -0.1741 -0.1229  0.0034
    1SOL    HW211018   0.619   4.259   4.584 -0.9483 -0.2337  0.1161
    1SOL    HW311019   0.545   4.130   4.553 -1.1495  0.3604 -1.9553
    1SOL    MW411020   0.612   4.184   4.539 -0.4050 -0.0739 -0.2403
    1SOL     OW11021   3.191   0.318   4.677  0.1510 -0.0081  0.4085
    1SOL    HW211022   3.188   0.336   4.771 -0.3481  0.1811  0.3564
    1SOL    HW311023   3.242   0.389   4.640  0.5752 -0.2270  0.5724
    1SOL    MW411024   3.197   0.329   4.685  0.1411 -0.0120  0.4234
    1SOL     OW11025   4.020   1.703   4.263 -0.1601 -0.6590  0.5949
    1SOL    HW211026   4.097   1.665   4.220  0.4946  0.6200  0.6066
    1SOL    HW311027   4.037   1.693   4.357 -0.5778 -1.4745  0.5878
    1SOL    MW411028   4.032   1.697   4.270 -0.1287 -0.5978  0.5956
    1SOL     OW11029   1.817   1.861   4.671 -0.0899  0.2378  0.2519
    1SOL    HW211030   1.863   1.779   4.689  2.2874  1.6985  0.8906
    1SOL    HW311031   1.736   1.833   4.627 -0.0396 -2.5366  1.7951
    1SOL    MW411032   1.812   1.846   4.667  0.2303  0.0644  0.5393
    1SOL     OW11033   0.298   2.200   4.524  0.1714 -0.1337 -0.1339
    1SOL    HW211034   0.390   2.175   4.517 -0.3781 -2.5323  0.6194
    1SOL    HW311035   0.262   2.180   4.437  0.0701 -0.4568 -0.0164
    1SOL    MW411036   0.305   2.194   4.511  0.0856 -0.4926 -0.0186
    1SOL     OW11037   2.873   2.833   4.240  0.2704 -0.0436 -0.4406
    1SOL    HW211038   2.839   2.919   4.215 -1.7123  0.1213  2.4692
    1SOL    HW311039   2.808   2.771   4.206  0.5983 -0.2224 -0.7351
    1SOL    MW411040   2.860   2.836   4.232  0.0520 -0.0455 -0.0954
    1SOL     OW11041   1.510   0.757   4.149 -0.0369  0.1444 -0.2648
    1SOL    HW211042   1.593   0.788   4.183 -0.0611  0.6206 -0.6459
    1SOL    HW311043   1.512   0.778   4.056 -0.7017  0.4221 -0.2220
    1SOL    MW411044   1.521   0.764   4.142 -0.1278  0.2438 -0.3095
    1SOL     OW11045   4.360   2.199   4.700 -0.5105  0.4072 -0.5774
    1SOL    HW211046   4.442   2.151   4.711 -0.5825  0.5826  0.9181
    1SOL    HW311047   4.387   2.291   4.692 -0.5358  0.4393 -0.3194
    1SOL    MW411048   4.374   2.205   4.701 -0.5236  0.4344 -0.3457
    1SOL     OW11049   4.023   4.027   4.270  0.1321 -0.2245  0.4030
    1SOL    HW211050   4.092   3.980   4.223  0.0577  0.5097 -0.4719
    1SOL    HW311051   4.054   4.033   4.360  1.2863  0.2309 -0.0161
    1SOL    MW411052   4.036   4.022   4.275  0.2751 -0.0677  0.2322
    1SOL     OW11053   3.283   3.985   4.514  0.1255  0.0796  0.3170
    1SOL    HW211054   3.376   3.996   4.533 -0.1852 -0.3511  2.1916
    1SOL    HW311055   3.242   4.063   4.550 -0.4639 -0.7081  1.4051
    1SOL    MW411056   3.290   3.997   4.521  0.0069 -0.0813  0.7071
    1SOL     OW11057   0.369   0.284   4.339  0.4508  0.1893 -0.0721
    1SOL    HW211058   0.417   0.278   4.421  0.0846  1.6084  0.2650
    1SOL    HW311059   0.436   0.284   4.271  0.8660  0.7841  0.3273
    1SOL    MW411060   0.384   0.283   4.341  0.4573  0.4551  0.0257
    1SOL     OW11061   0.816   2.920   4.577  0.0046 -0.2605 -0.3061
    1SOL    HW211062   0.757   2.896   4.506 -2.0836  0.0736  1.2889
    1SOL    HW311063   0.838   3.012   4.561 -2.4080  0.5359  0.7946
    1SOL    MW411064   0.811   2.929   4.566 -0.5893 -0.1111  0.0491
    1SOL     OW11065   0.169   3.139   4.798  0.0243  0.3309  0.0568
    1SOL    HW211066   0.076   3.141   4.779 -0.1629  1.5747  1.0241
    1SOL    HW311067   0.175   3.096   4.883  0.4423 -0.8271 -0.5457
    1SOL    MW411068   0.158   3.134   4.807  0.0547  0.3421  0.1049
    1SOL     OW11069   1.952   1.628   4.677  0.2340  0.2166 -0.2889
    1SOL    HW211070   2.033   1.620   4.627  0.2801  0.3077 -0.2283
    1SOL    HW311071   1.885   1.590   4.620  0.2691  0.4197 -0.4661
    1SOL    MW411072   1.954   1.622   4.663  0.2447  0.2553 -0.3047
    1SOL     OW11073   0.401   0.891   4.229 -0.2114  0.1635  0.7182
    1SOL    HW211074   0.488   0.852   4.217 -0.7044 -0.9718  0.7560
    1SOL    HW311075   0.343   0.835   4.177 -1.0235  0.5043  1.2577
    1SOL    MW411076   0.405   0.878   4.221 -0.3836  0.0587  0.7944
    1SOL     OW11077   2.474   1.659   4.268  0.0977 -0.1692 -0.1811
    1SOL    HW211078   2.512   1.741   4.238  0.7138 -1.0106 -1.7353
    1SOL    HW311079   2.380   1.675   4.270  0.3584  1.2956  1.7849
    1SOL    MW411080   2.467   1.672   4.265  0.2131 -0.0870 -0.1264
    1SOL     OW11081   3.822   2.157   4.652  0.0295 -0.4026 -0.0192
    1SOL    HW211082   3.901   2.210   4.644  0.0873 -0.1083  2.3049
    1SOL    HW311083   3.853   2.067   4.649  0.4397 -0.2877  0.6941
    1SOL    MW411084   3.836   2.153   4.651  0.0911 -0.3486  0.3815
    1SOL     OW11085   2.350   2.492   4.700 -0.1936  0.2513  0.4366
    1SOL    HW211086   2.359   2.479   4.605  0.3822 -0.5621  0.5989
    1SOL    HW311087   2.439   2.488   4.733 -0.4851 -0.4812  1.1417
    1SOL    MW411088   2.363   2.490   4.692 -0.1562  0.0474  0.5512
    1SOL     OW11089   1.050   1.322   4.341 -0.3963  0.1942 -0.4189
    1SOL    HW211090   1.136   1.306   4.381 -0.4774 -0.2392 -0.4142
    1SOL    HW311091   0.987   1.308   4.411 -0.6405 -2.0890 -1.0523
    1SOL    MW411092   1.053   1.318   4.355 -0.4392 -0.1643 -0.5016
    1SOL     OW11093   3.401   1.270   4.525  0.5428 -0.2716 -0.6728
    1SOL    HW211094   3.382   1.289   4.433  1.5614 -0.2016 -0.8763
    1SOL    HW311095   3.315   1.262   4.566  0.0819  1.7290 -1.2014
    1SOL    MW411096   3.387   1.271   4.519  0.6161  0.0015 -0.7691
    1SOL     OW11097   1.777   3.964   4.236 -0.3481  0.2945 -0.4298
    1SOL    HW211098   1.778   4.056   4.210  0.3663  0.2911 -0.4269
    1SOL    HW311099   1.780   3.966   4.332 -1.2606  0.2766 -0.3905
    1SOL    MW411100   1.777   3.976   4.245 -0.3743  0.2918 -0.4239
    1SOL     OW11101   3.977   0.935   4.194 -0.0258 -0.1596  0.2130
    1SOL    HW211102   3.912   0.868   4.173  1.1228 -1.7688  1.6057
    1SOL    HW311103   4.060   0.887   4.199  0.3841  0.7955  4.2580
    1SOL    MW411104   3.980   0.920   4.192  0.1800 -0.2459  0.9308
    1SOL     OW11105   0.173   0.470   4.279  0.1574 -0.0755  0.2218
    1SOL    HW211106   0.099   0.429   4.235  0.3738  0.2653 -0.4697
    1SOL    HW311107   0.229   0.397   4.306  0.6868 -0.2361 -1.2614
    1SOL    MW411108   0.171   0.455   4.277  0.2558 -0.0517 -0.0653
    1SOL     OW11109   1.113   3.328   4.649  0.8757 -0.3399  0.0137
    1SOL    HW211110   1.119   3.345   4.743  0.1021 -0.5351  0.1021
    1SOL    HW311111   1.087   3.411   4.611 -1.1307 -0.8439  0.2432
    1SOL    MW411112   1.110   3.341   4.657  0.5089 -0.4320  0.0563
    1SOL     OW11113   1.964   3.775   4.673 -0.0770  0.3803  0.5993
    1SOL    HW211114   2.004   3.690   4.690 -0.2255  0.2473  0.2886
    1SOL    HW311115   2.035   3.838   4.687  0.3376  0.1153 -0.3150
    1SOL    MW411116   1.979   3.772   4.677 -0.0418  0.3278  0.4377
    1SOL     OW11117   4.452   3.991   4.229  0.2070 -0.0437  0.0684
    1SOL    HW211118   4.369   3.953   4.198 -0.0508 -0.1597  0.8997
    1SOL    HW311119   4.448   4.083   4.202 -0.3944  0.0617  0.4958
    1SOL    MW411120   4.441   3.998   4.221  0.0939 -0.0451  0.2346
    1SOL     OW11121   0.585   4.523   4.328 -0.2414  0.1924  0.3149
    1SOL    HW211122   0.607   4.434   4.300 -0.9347  0.2374 -0.3847
    1SOL    HW311123   0.573   4.572   4.246  0.5304  1.0336  0.6919
    1SOL    MW411124   0.586   4.518   4.313 -0.2310  0.3090  0.2723
    1SOL     OW11125   0.574   2.562   4.614 -0.0121  0.4146  0.2736
    1SOL    HW211126   0.663   2.536   4.593 -0.6514 -1.3826 -0.3512
    1SOL    HW311127   0.556   2.518   4.698  0.5396  2.8351  1.7064
    1SOL    MW411128   0.583   2.553   4.623 -0.0237  0.4971  0.3800
    1SOL     OW11129   4.455   0.333   4.159  0.2482  0.4551  0.0763
    1SOL    HW211130   4.470   0.359   4.068 -1.1618 -0.6457 -0.4769
    1SOL    HW311131   4.397   0.401   4.194  0.1647  0.4589 -0.0697
    1SOL    MW411132   4.450   0.345   4.151  0.0510  0.3104 -0.0167
    1SOL     OW11133   1.354   1.920   4.169  0.4142  0.0409 -0.1689
    1SOL    HW211134   1.431   1.961   4.210 -0.2708  0.6370  0.5277
    1SOL    HW311135   1.363   1.827   4.189  0.5522  0.2071  0.5649
    1SOL    MW411136   1.366   1.913   4.177  0.3420  0.1415  0.0200
    1SOL     OW11137   1.605   3.069   4.173 -0.3479 -0.2569 -0.4229
    1SOL    HW211138   1.522   3.113   4.189 -0.1245 -0.4769  1.3880
    1SOL    HW311139   1.596   2.984   4.217  0.4211 -0.7368 -1.1657
    1SOL    MW411140   1.593   3.063   4.181 -0.2171 -0.3495 -0.2823
    1SOL     OW11141   2.482   3.661   4.254 -0.3319  0.2091 -0.3803
    1SOL    HW211142   2.410   3.605   4.226 -0.3581 -0.3560  0.8258
    1SOL    HW311143   2.494   3.642   4.347 -0.9769  2.9039  0.3098
    1SOL    MW411144   2.474   3.651   4.262 -0.4203  0.4902 -0.1302
    1SOL     OW11145   2.624   2.493   4.253 -0.0828  0.0582  0.3350
    1SOL    HW211146   2.563   2.498   4.327 -1.1341 -1.2075 -0.4337
    1SOL    HW311147   2.579   2.440   4.188  1.8835 -0.9503 -0.2312
    1SOL    MW411148   2.610   2.487   4.254  0.0377 -0.2415  0.1593
    1SOL     OW11149   4.391   3.945   4.507 -0.1879 -0.0920  0.2223
    1SOL    HW211150   4.417   3.986   4.424 -1.8186  0.4558 -0.0244
    1SOL    HW311151   4.435   3.860   4.506 -0.7409 -0.3789 -1.5396
    1SOL    MW411152   4.400   3.939   4.496 -0.4759 -0.0577 -0.0429
    1SOL     OW11153   0.902   2.413   4.247 -0.1957 -0.0731 -0.2514
    1SOL    HW211154   0.822   2.379   4.207  0.8381  0.3567 -2.8579
    1SOL    HW311155   0.967   2.344   4.232  0.0957 -0.1121  1.1793
    1SOL    MW411156   0.900   2.399   4.239 -0.0208 -0.0215 -0.4063
    1SOL     OW11157   2.068   1.966   4.231  0.4371  0.0226  0.2544
    1SOL    HW211158   2.030   2.031   4.291  1.2722  0.3113  0.4826
    1SOL    HW311159   2.116   2.019   4.166  0.8294 -0.3521  0.2390
    1SOL    MW411160   2.070   1.982   4.230  0.5989  0.0111  0.2823
    1SOL     OW11161   2.371   4.440   4.547  0.2019  0.4964 -0.3776
    1SOL    HW211162   2.290   4.487   4.530  0.7313  1.3975 -0.4357
    1SOL    HW311163   2.433   4.507   4.575  1.3002  0.0165 -1.5706
    1SOL    MW411164   2.369   4.455   4.548  0.4168  0.5517 -0.5426
    1SOL     OW11165   4.050   1.625   4.538  0.4252  0.0078  0.5177
    1SOL    HW211166   3.986   1.690   4.566 -0.6663 -0.8096 -0.0530
    1SOL    HW311167   4.006   1.541   4.551  1.2982 -0.5535 -0.0952
    1SOL    MW411168   4.036   1.622   4.543  0.3963 -0.1742  0.3614
    1SOL     OW11169   3.844   1.594   4.103  0.1414  0.6561 -0.1349
    1SOL    HW211170   3.759   1.609   4.146 -0.0440 -1.9422  0.4499
    1SOL    HW311171   3.907   1.641   4.159 -0.5626  0.3532  0.9278
    1SOL    MW411172   3.841   1.602   4.116  0.0241  0.2733  0.0825
    1SOL     OW11173   4.290   1.308   4.188 -0.0758  0.0928  0.1486
    1SOL    HW211174   4.212   1.260   4.159 -1.2024  2.0813 -0.1713
    1SOL    HW311175   4.304   1.279   4.278 -1.1786 -0.3034  0.1962
    1SOL    MW411176   4.281   1.298   4.196 -0.3705  0.3028  0.1125
    1SOL     OW11177   2.332   0.135   4.288  0.2151  0.4504 -0.1151
    1SOL    HW211178   2.360   0.166   4.374  2.3894  0.1823 -0.7012
    1SOL    HW311179   2.240   0.113   4.299  0.1709  1.5397  1.8384
    1SOL    MW411180   2.324   0.136   4.301  0.4961  0.5587  0.0658
    1SOL     OW11181   0.882   1.579   4.519 -0.1573 -0.4337  0.3528
    1SOL    HW211182   0.808   1.598   4.576  0.3581  0.2794  0.7870
    1SOL    HW311183   0.863   1.629   4.439 -0.1226 -0.2014  0.4873
    1SOL    MW411184   0.870   1.588   4.516 -0.0847 -0.3090  0.4282
    1SOL     OW11185   1.307   0.821   4.492 -0.2644 -0.0264  0.1541
    1SOL    HW211186   1.312   0.861   4.405 -0.3045 -1.1519 -0.3761
    1SOL    HW311187   1.302   0.895   4.552 -0.5282  0.7657 -0.8236
    1SOL    MW411188   1.307   0.836   4.488 -0.3045 -0.0704 -0.0439
    1SOL     OW11189   3.371   1.335   4.245  0.4803 -0.2385  0.2426
    1SOL    HW211190   3.370   1.428   4.222 -0.0577 -0.1864  0.4496
    1SOL    HW311191   3.300   1.297   4.193  0.4153 -0.4504  0.4828
    1SOL    MW411192   3.361   1.342   4.235  0.4008 -0.2596  0.3014
    1SOL     OW11193   1.745   0.885   4.216  0.2714 -0.3061  0.3312
    1SOL    HW211194   1.813   0.824   4.188  0.0359 -0.7976  0.8218
    1SOL    HW311195   1.765   0.905   4.307 -0.1235 -0.2981  0.4196
    1SOL    MW411196   1.757   0.879   4.224  0.1884 -0.3699  0.4077
    1SOL     OW11197   1.805   1.936   4.154 -0.2827 -0.1300 -0.2605
    1SOL    HW211198   1.897   1.948   4.176 -0.3447  1.0102 -0.5649
    1SOL    HW311199   1.798   1.963   4.062 -0.9899  0.1977 -0.1163
    1SOL    MW411200   1.816   1.941   4.145 -0.3843  0.0637 -0.2818
    1SOL     OW11201   2.292   2.016   4.392  0.2243 -0.2786 -0.3328
    1SOL    HW211202   2.283   2.111   4.398  0.3673 -0.3760  1.7382
    1SOL    HW311203   2.222   1.989   4.333 -0.5336  1.0114 -0.0496
    1SOL    MW411204   2.282   2.025   4.385  0.1433 -0.1214 -0.0219
    1SOL     OW11205   3.024   1.940   4.081  0.1421 -0.0596 -0.2477
    1SOL    HW211206   2.963   1.882   4.126 -1.4276  1.2134 -0.6787
    1SOL    HW311207   3.009   2.026   4.120  2.2310  0.1150  0.1888
    1SOL    MW411208   3.014   1.944   4.092  0.2105  0.1315 -0.2465
    1SOL     OW11209   2.196   3.276   4.443 -0.4599 -0.5930  0.7388
    1SOL    HW211210   2.118   3.221   4.452 -1.3525  0.5868  0.3701
    1SOL    HW311211   2.167   3.363   4.473 -0.5893  0.9648 -3.5319
    1SOL    MW411212   2.182   3.280   4.449 -0.5949 -0.2317  0.1273
    1SOL     OW11213   1.835   2.399   4.340 -0.2446 -0.2713 -0.0337
    1SOL    HW211214   1.909   2.343   4.363  1.5123  1.2942 -1.6636
    1SOL    HW311215   1.838   2.470   4.404  0.2664  0.2935 -0.6727
    1SOL    MW411216   1.845   2.401   4.351  0.0547  0.0100 -0.3333
    1SOL     OW11217   3.924   1.381   4.491 -0.4785  0.0788  0.3338
    1SOL    HW211218   3.924   1.378   4.395 -2.9743 -0.4400  0.3067
    1SOL    HW311219   3.831   1.389   4.514 -0.0751 -1.7183  2.7624
    1SOL    MW411220   3.912   1.382   4.481 -0.7544 -0.2267  0.6504
    1SOL     OW11221   0.132   3.763   4.766  0.3469 -0.4293  0.3508
    1SOL    HW211222   0.081   3.751   4.686  2.8485 -0.9370 -1.2143
    1SOL    HW311223   0.145   3.857   4.773  0.5691 -0.4260 -0.1242
    1SOL    MW411224   0.127   3.774   4.757  0.7062 -0.4959  0.0811
    1SOL     OW11225   3.081   2.672   4.472  0.2411 -0.4326 -0.4136
    1SOL    HW211226   2.997   2.633   4.450 -0.1752  0.3562 -0.2292
    1SOL    HW311227   3.095   2.649   4.564  0.3189 -0.7225 -0.4965
    1SOL    MW411228   3.072   2.664   4.481  0.1967 -0.3669 -0.4001
    1SOL     OW11229   2.893   3.105   4.149 -0.1129 -0.2946 -0.2902
    1SOL    HW211230   2.920   3.091   4.058  0.4646 -0.2341 -0.1322
    1SOL    HW311231   2.970   3.144   4.191 -0.8887  1.0987 -0.1402
    1SOL    MW411232   2.907   3.108   4.143 -0.1395 -0.1028 -0.2494
    1SOL     OW11233   1.580   2.869   4.511  0.2432  0.0266  0.5417
    1SOL    HW211234   1.643   2.935   4.541 -0.6940  1.3237 -0.2733
    1SOL    HW311235   1.498   2.893   4.554 -0.9911  1.6031 -2.5019
    1SOL    MW411236   1.577   2.881   4.521 -0.0433  0.4055  0.0324
    1SOL     OW11237   1.336   0.300   4.510 -0.3770  0.2510  0.2284
    1SOL    HW211238   1.377   0.386   4.518  0.5564 -0.1245 -0.4040
    1SOL    HW311239   1.242   0.317   4.514 -0.1729  1.2278  0.7591
    1SOL    MW411240   1.329   0.313   4.511 -0.2269  0.3304  0.2151
    1SOL     OW11241   1.289   1.261   4.463  0.3946  0.3905  0.0057
    1SOL    HW211242   1.352   1.331   4.482  0.6636  0.4226 -0.9866
    1SOL    HW311243   1.316   1.227   4.378  0.4067 -1.0776  0.5805
    1SOL    MW411244   1.301   1.265   4.454  0.4317  0.2011 -0.0491
    1SOL     OW11245   4.351   2.951   4.546  0.2534  0.5195  0.0019
    1SOL    HW211246   4.439   2.937   4.510  0.0361  1.3161 -0.8562
    1SOL    HW311247   4.304   2.870   4.526  0.2678  0.7761 -1.1411
    1SOL    MW411248   4.356   2.938   4.538  0.2270  0.6583 -0.2623
    1SOL     OW11249   3.425   2.055   4.230  0.2056 -0.0354 -0.5150
    1SOL    HW211250   3.395   2.138   4.191  0.1394  0.2268  0.0848
    1SOL    HW311251   3.462   2.081   4.314 -0.0602 -0.6550 -0.2095
    1SOL    MW411252   3.426   2.070   4.236  0.1616 -0.0825 -0.3953
    1SOL     OW11253   3.815   3.936   4.568  0.4539  0.1194 -0.5719
    1SOL    HW211254   3.909   3.952   4.570  0.6068 -0.8353  1.2516
    1SOL    HW311255   3.805   3.850   4.528  0.4435 -0.2139  0.1296
    1SOL    MW411256   3.826   3.927   4.563  0.4723 -0.0508 -0.2389
    1SOL     OW11257   3.413   3.182   4.608 -0.3385  0.0699 -0.1226
    1SOL    HW211258   3.440   3.126   4.680 -0.2578 -1.9536 -1.6716
    1SOL    HW311259   3.474   3.161   4.537  0.0049  2.4946 -0.6092
    1SOL    MW411260   3.425   3.172   4.608 -0.2823  0.1228 -0.3915
    1SOL     OW11261   0.592   3.592   4.741 -0.1087 -0.0451  0.6635
    1SOL    HW211262   0.610   3.505   4.704  1.4563  1.1528 -1.5285
    1SOL    HW311263   0.505   3.613   4.709  0.1907 -0.1104 -0.2149
    1SOL    MW411264   0.583   3.583   4.732  0.1373  0.1042  0.2584
    1SOL     OW11265   3.111   0.366   4.144  0.4146 -0.0385 -0.0466
    1SOL    HW211266   3.036   0.409   4.185  0.4520  1.0312 -1.0614
    1SOL    HW311267   3.187   0.417   4.173  0.5521  0.0306 -0.5185
    1SOL    MW411268   3.112   0.378   4.153  0.4377  0.1117 -0.2432
    1SOL     OW11269   0.198   3.042   4.146  0.1922  0.4017  0.0323
    1SOL    HW211270   0.278   3.085   4.174  0.1130  0.7868 -0.3136
    1SOL    HW311271   0.128   3.089   4.192  0.1955 -0.1828  0.6269
    1SOL    MW411272   0.199   3.054   4.156  0.1822  0.3753  0.0653
    1SOL     OW11273   1.898   1.287   4.496 -0.2878 -0.5374  0.0856
    1SOL    HW211274   1.949   1.279   4.577 -0.7068  0.3500  0.4433
    1SOL    HW311275   1.816   1.241   4.515 -0.8353  0.6133  0.5563
    1SOL    MW411276   1.894   1.280   4.509 -0.4153 -0.2685  0.1955
    1SOL     OW11277   2.238   3.547   4.142 -0.1394  0.1540  0.2699
    1SOL    HW211278   2.247   3.452   4.152 -0.2997  0.2101  0.9658
    1SOL    HW311279   2.167   3.570   4.202 -0.9238  0.5446 -0.7733
    1SOL    MW411280   2.230   3.537   4.151 -0.2642  0.2131  0.2241
    1SOL     OW11281   3.821   0.532   4.528 -0.4193  0.0962  0.0710
    1SOL    HW211282   3.812   0.623   4.559  0.2285 -0.0988  0.8438
    1SOL    HW311283   3.916   0.518   4.522 -0.5158 -0.6303  0.2410
    1SOL    MW411284   3.833   0.543   4.531 -0.3462 -0.0254  0.1955
    1SOL     OW11285   2.417   0.551   4.542  0.1259 -0.3701  0.1120
    1SOL    HW211286   2.471   0.624   4.570 -0.3563 -0.5774  1.6183
    1SOL    HW311287   2.434   0.543   4.448  2.4730 -0.2689  0.5127
    1SOL    MW411288   2.426   0.559   4.533  0.3719 -0.3842  0.3638
    1SOL     OW11289   4.396   3.133   4.744  0.2316  0.3811 -0.6368
    1SOL    HW211290   4.307   3.166   4.757  0.9060  1.8272  0.3805
    1SOL    HW311291   4.385   3.057   4.686 -1.5849  0.9752 -1.1002
    1SOL    MW411292   4.383   3.127   4.738  0.0811  0.6502 -0.5636
    1SOL     OW11293   2.281   0.398   4.180  0.4484 -0.5850  0.4313
    1SOL    HW211294   2.261   0.390   4.086 -2.1364 -1.6196  1.0193
    1SOL    HW311295   2.298   0.308   4.208  2.9549 -0.0753  0.6346
    1SOL    MW411296   2.280   0.385   4.171  0.4382 -0.6542  0.5364
    1SOL     OW11297   3.603   0.941   4.233 -0.2690 -0.4528  0.0808
    1SOL    HW211298   3.510   0.956   4.218  0.0777 -0.7408 -2.4880
    1SOL    HW311299   3.644   1.026   4.217  0.5213 -1.5617 -4.5348
    1SOL    MW411300   3.596   0.954   4.229 -0.1190 -0.6371 -0.8674
    1SOL     OW11301   0.582   2.821   4.688  0.1422  0.1534  0.1890
    1SOL    HW211302   0.587   2.731   4.656 -0.6172 -0.0859  0.7378
    1SOL    HW311303   0.674   2.846   4.703  0.3507 -0.5435  0.0906
    1SOL    MW411304   0.595   2.813   4.686  0.0696  0.0300  0.2484
    1SOL     OW11305   2.596   1.391   4.579 -0.4634 -0.1830  0.0045
    1SOL    HW211306   2.587   1.371   4.486  0.0891  1.0411 -0.3227
    1SOL    HW311307   2.621   1.484   4.581  1.6166 -0.7441  1.2982
    1SOL    MW411308   2.598   1.401   4.567 -0.1161 -0.0955  0.1321
    1SOL     OW11309   0.858   1.691   4.266 -0.4256 -0.4028  0.4250
    1SOL    HW211310   0.792   1.638   4.220 -0.6475 -0.4128  0.7512
    1SOL    HW311311   0.855   1.776   4.223  0.3967 -0.8521 -0.5387
    1SOL    MW411312   0.849   1.695   4.255 -0.3465 -0.4635  0.3405
    1SOL     OW11313   3.611   1.635   4.257 -0.4667 -0.4788 -0.2202
    1SOL    HW211314   3.589   1.641   4.350  0.2067 -1.0731 -0.0217
    1SOL    HW311315   3.536   1.589   4.218 -0.6078 -0.5019  0.0773
    1SOL    MW411316   3.598   1.629   4.264 -0.3965 -0.5603 -0.1550
    1SOL     OW11317   3.316   2.813   4.234  0.1483  0.4590  0.2349
    1SOL    HW211318   3.233   2.774   4.208  0.1124  0.7701 -0.1370
    1SOL    HW311319   3.322   2.799   4.328 -0.5940  0.9377  0.3520
    1SOL    MW411320   3.306   2.806   4.243  0.0455  0.5631  0.2017
    1SOL     OW11321   3.919   2.497   4.444  0.1209  0.3655 -0.2205
    1SOL    HW211322   3.945   2.481   4.353  0.9865 -1.5196  0.3248
    1SOL    HW311323   3.840   2.444   4.456  1.2835 -1.2259  0.7341
    1SOL    MW411324   3.912   2.488   4.433  0.3886 -0.0932 -0.0224
    1SOL     OW11325   0.421   4.533   4.575  0.0748 -0.1355 -0.0291
    1SOL    HW211326   0.483   4.498   4.639 -0.8383 -1.0059  0.3967
    1SOL    HW311327   0.469   4.534   4.492  0.1525 -2.4274 -0.0597
    1SOL    MW411328   0.435   4.528   4.572 -0.0354 -0.5527  0.0229
    1SOL     OW11329   1.562   4.398   4.239 -0.0974  0.1942  0.3615
    1SOL    HW211330   1.635   4.342   4.214  0.7462  1.2345  0.4809
    1SOL    HW311331   1.484   4.344   4.222  0.6479 -0.6353 -0.5060
    1SOL    MW411332   1.561   4.383   4.233  0.1122  0.2217  0.2632
    1SOL     OW11333   2.918   2.031   4.662  0.3025 -0.1567 -0.0508
    1SOL    HW211334   2.864   2.047   4.739  0.3235  1.5945 -0.3735
    1SOL    HW311335   2.877   2.083   4.593  0.4633 -1.4584 -1.1490
    1SOL    MW411336   2.906   2.040   4.663  0.3264 -0.0973 -0.2384
    1SOL     OW11337   3.623   1.235   4.135  0.4706  0.0035 -0.0136
    1SOL    HW211338   3.606   1.203   4.046  0.9508 -1.2143  0.3183
    1SOL    HW311339   3.538   1.262   4.167 -0.1445 -1.8688  0.0260
    1SOL    MW411340   3.610   1.234   4.127  0.4530 -0.4042  0.0358
    1SOL     OW11341   1.776   0.335   4.129  0.1725 -0.3277 -0.2255
    1SOL    HW211342   1.689   0.365   4.154  1.2839  0.8215  2.4571
    1SOL    HW311343   1.785   0.249   4.170  0.9097  0.2715  0.8777
    1SOL    MW411344   1.766   0.327   4.138  0.4164 -0.0970  0.2747
    1SOL     OW11345   3.320   4.419   4.278 -0.1634 -0.1075  0.4270
    1SOL    HW211346   3.281   4.441   4.362  1.2296 -0.2431  1.1247
    1SOL    HW311347   3.343   4.503   4.239 -0.2841 -0.0701  0.4381
    1SOL    MW411348   3.318   4.433   4.284  0.0043 -0.1206  0.5207
    1SOL     OW11349   2.496   0.545   4.246 -0.1347 -0.2828  0.2342
    1SOL    HW211350   2.472   0.636   4.229 -1.3116 -0.7150 -0.4962
    1SOL    HW311351   2.422   0.494   4.211  1.0482 -1.5681 -0.4545
    1SOL    MW411352   2.483   0.550   4.239 -0.1342 -0.5094  0.0467
    1SOL     OW11353   2.691   2.712   4.101 -0.1128 -0.1372  0.3061
    1SOL    HW211354   2.622   2.772   4.130  0.5789  0.8131  0.0451
    1SOL    HW311355   2.677   2.632   4.151  0.0858  0.9093  2.0954
    1SOL    MW411356   2.680   2.710   4.112  0.0050  0.1261  0.5074
    1SOL     OW11357   2.539   1.280   4.335  0.0169  0.3100  0.1049
    1SOL    HW211358   2.560   1.193   4.300  0.6098  0.6798 -0.4910
    1SOL    HW311359   2.499   1.325   4.261 -0.7084  0.3926  0.5508
    1SOL    MW411360   2.537   1.274   4.320 -0.0005  0.3697  0.0849
    1SOL     OW11361   3.168   3.482   4.142  0.6426 -0.3555  0.0647
    1SOL    HW211362   3.177   3.483   4.047  0.5748 -1.2316  0.0471
    1SOL    HW311363   3.085   3.528   4.159  0.9051  0.2458 -0.2641
    1SOL    MW411364   3.158   3.488   4.132  0.6683 -0.3917  0.0186
    1SOL     OW11365   3.777   3.661   4.474 -0.3543 -0.0070 -0.3198
    1SOL    HW211366   3.776   3.660   4.378  0.8063 -0.8537 -0.3413
    1SOL    HW311367   3.689   3.687   4.499 -1.9251 -3.7814 -1.5986
    1SOL    MW411368   3.766   3.664   4.465 -0.4084 -0.6170 -0.4916
    1SOL     OW11369   3.864   1.359   4.223  0.3358 -0.0339  0.2894
    1SOL    HW211370   3.860   1.443   4.177 -0.3867 -0.3939 -0.3226
    1SOL    HW311371   3.778   1.319   4.206 -0.2748  0.1914  2.6702
    1SOL    MW411372   3.852   1.365   4.215  0.1600 -0.0516  0.5231
    1SOL     OW11373   3.245   1.817   4.188  0.2864  0.1962  0.0238
    1SOL    HW211374   3.166   1.865   4.162 -0.1732  0.1721  1.3524
    1SOL    HW311375   3.311   1.885   4.201  0.2229  0.2929 -0.1602
    1SOL    MW411376   3.243   1.833   4.186  0.2174  0.2056  0.1750
    1SOL     OW11377   3.805   4.405   4.552 -0.1790  0.3607  0.1625
    1SOL    HW211378   3.809   4.497   4.578 -0.5570  0.7823 -1.2132
    1SOL    HW311379   3.728   4.370   4.596 -0.3188  0.8341  0.2910
    1SOL    MW411380   3.795   4.413   4.561 -0.2472  0.4787 -0.0019
    1SOL     OW11381   2.861   1.758   4.223 -0.2100  0.0092 -0.2611
    1SOL    HW211382   2.772   1.790   4.210 -0.5786 -0.9198 -0.0473
    1SOL    HW311383   2.877   1.769   4.317  1.2146  3.5076 -0.8095
    1SOL    MW411384   2.851   1.764   4.234 -0.0706  0.3482 -0.3057
    1SOL     OW11385   4.262   0.523   4.255  0.3225  0.1030  0.0668
    1SOL    HW211386   4.255   0.614   4.226  0.8774  0.0517 -0.2399
    1SOL    HW311387   4.201   0.475   4.198 -1.0167  0.4832  1.1616
    1SOL    MW411388   4.253   0.529   4.243  0.2189  0.1464  0.1707
    1SOL     OW11389   4.215   0.753   4.561  0.3036  0.6848  0.0351
    1SOL    HW211390   4.151   0.813   4.522 -0.1235  0.7774  0.8555
    1SOL    HW311391   4.214   0.775   4.654  0.0860 -0.6641  0.3504
    1SOL    MW411392   4.207   0.764   4.568  0.2189  0.5191  0.1845
    1SOL     OW11393   2.019   3.146   4.074  0.2139 -0.1127 -0.0197
    1SOL    HW211394   2.070   3.066   4.086  0.9598  0.3723  0.1112
    1SOL    HW311395   1.960   3.149   4.150  0.1698 -0.5454 -0.0368
    1SOL    MW411396   2.018   3.136   4.086  0.3064 -0.1061 -0.0052
    1SOL     OW11397   0.869   1.300   4.554 -0.3736 -0.1398 -0.4439
    1SOL    HW211398   0.781   1.265   4.565 -0.4836  0.4073  0.4536
    1SOL    HW311399   0.859   1.395   4.559  0.2012 -0.0544 -0.8244
    1SOL    MW411400   0.856   1.308   4.556 -0.3123 -0.0564 -0.3757
    1SOL     OW11401   0.424   1.794   4.534 -0.2186  0.3738  0.5343
    1SOL    HW211402   0.418   1.770   4.441  1.4673 -0.2214  0.5500
    1SOL    HW311403   0.449   1.886   4.534 -2.1858  0.9259  0.4307
    1SOL    MW411404   0.427   1.803   4.522 -0.2557  0.3680  0.5226
    1SOL     OW11405   3.355   0.524   4.578  0.1088  0.0864 -0.2640
    1SOL    HW211406   3.357   0.619   4.582  2.0186  0.1023 -0.9494
    1SOL    HW311407   3.441   0.497   4.611 -1.4914 -1.5423  2.8296
    1SOL    MW411408   3.367   0.533   4.583  0.1495 -0.1264  0.0539
    1SOL     OW11409   3.229   0.731   4.172  0.7760 -0.3469  0.5216
    1SOL    HW211410   3.264   0.650   4.209  0.2513 -1.1752 -0.7787
    1SOL    HW311411   3.135   0.726   4.188  0.5715 -0.6113 -0.7199
    1SOL    MW411412   3.221   0.720   4.179  0.6800 -0.4911  0.1864
    1SOL     OW11413   0.474   1.432   4.516  0.4577  0.2443 -0.0397
    1SOL    HW211414   0.447   1.489   4.444 -0.0985 -1.3046 -1.1051
    1SOL    HW311415   0.393   1.410   4.562  0.5283 -0.4497 -0.2327
    1SOL    MW411416   0.460   1.436   4.512  0.3937 -0.0516 -0.2065
    1SOL     OW11417   2.464   2.342   3.808 -0.1863 -0.5578 -0.4711
    1SOL    HW211418   2.472   2.349   3.903 -0.7066 -2.6406 -0.2502
    1SOL    HW311419   2.511   2.261   3.786  0.9426  0.5182 -2.1268
    1SOL    MW411420   2.472   2.332   3.818 -0.1061 -0.6905 -0.6602
    1SOL     OW11421   2.468   4.177   4.581 -0.1997  0.1298 -0.4081
    1SOL    HW211422   2.444   4.269   4.576  0.5220  0.3096 -0.5456
    1SOL    HW311423   2.386   4.132   4.606 -0.4056  0.8699  0.2581
    1SOL    MW411424   2.454   4.183   4.584 -0.1318  0.2513 -0.3386
    1SOL     OW11425   3.647   1.397   4.547 -0.4572  0.0850  0.2387
    1SOL    HW211426   3.563   1.350   4.550  0.0493 -0.7806  0.9741
    1SOL    HW311427   3.623   1.488   4.561 -1.1085 -0.3757  2.4182
    1SOL    MW411428   3.633   1.403   4.549 -0.4761 -0.0899  0.6232
    1SOL     OW11429   3.137   0.153   4.324  0.3469  0.5797  0.0121
    1SOL    HW211430   3.141   0.225   4.261  0.1117  0.7768  0.2234
    1SOL    HW311431   3.084   0.186   4.396  1.9439  0.9344  1.0542
    1SOL    MW411432   3.131   0.167   4.325  0.5267  0.6525  0.1774
    1SOL     OW11433   2.696   3.509   4.158 -0.1860  0.1318  0.2825
    1SOL    HW211434   2.772   3.563   4.181  0.2258 -0.2821 -0.0893
    1SOL    HW311435   2.620   3.562   4.183  0.1355  2.1939 -2.8131
    1SOL    MW411436   2.696   3.523   4.164 -0.0892  0.3490 -0.1750
    1SOL     OW11437   1.065   3.840   4.155  0.3681 -0.1013  0.3318
    1SOL    HW211438   1.134   3.904   4.176  0.3533  0.0180  0.0212
    1SOL    HW311439   1.084   3.765   4.212  0.9845 -0.2214 -0.0236
    1SOL    MW411440   1.077   3.839   4.165  0.4474 -0.1013  0.2437
    1SOL     OW11441   0.179   0.610   4.515  0.0571  0.2749 -0.3708
    1SOL    HW211442   0.191   0.545   4.584  0.0157  1.2197  0.5366
    1SOL    HW311443   0.164   0.559   4.436  2.0474 -0.8505 -0.0475
    1SOL    MW411444   0.179   0.595   4.514  0.3143  0.2511 -0.2093
    1SOL     OW11445   0.644   2.087   4.251 -0.4429  0.5885  0.0408
    1SOL    HW211446   0.717   2.036   4.216  0.3431  0.7831  1.3759
    1SOL    HW311447   0.651   2.172   4.206 -0.3179  0.3403 -0.4085
    1SOL    MW411448   0.655   2.092   4.240 -0.3227  0.5815  0.1578
    1SOL     OW11449   0.487   2.729   4.146 -0.2876 -0.5975  0.1073
    1SOL    HW211450   0.486   2.732   4.050  1.3260 -2.7673 -0.0147
    1SOL    HW311451   0.397   2.747   4.171 -1.0654 -1.5463 -1.8864
    1SOL    MW411452   0.475   2.732   4.136 -0.1773 -1.0090 -0.1717
    1SOL     OW11453   1.362   2.409   4.206 -0.0661  0.2045  0.1630
    1SOL    HW211454   1.456   2.392   4.199  0.1728  0.7005  1.9230
    1SOL    HW311455   1.353   2.503   4.187 -0.2159  0.1575 -0.0073
    1SOL    MW411456   1.373   2.419   4.203 -0.0542  0.2637  0.3729
    1SOL     OW11457   3.357   2.727   4.781  0.2455 -0.5932  0.6558
    1SOL    HW211458   3.376   2.816   4.811 -1.2043  0.1881 -0.6448
    1SOL    HW311459   3.262   2.720   4.785  0.3769 -2.2375  1.1452
    1SOL    MW411460   3.347   2.738   4.785  0.0715 -0.7071  0.5488
    1SOL     OW11461   2.768   0.859   4.343  0.3587 -0.0990 -0.0285
    1SOL    HW211462   2.829   0.815   4.284  0.9941  1.8308 -0.8873
    1SOL    HW311463   2.821   0.928   4.384 -0.0898 -1.3959  2.8047
    1SOL    MW411464   2.783   0.863   4.341  0.3834 -0.0155  0.2313
    1SOL     OW11465   0.167   4.432   4.484 -0.0300 -0.1263  0.1968
    1SOL    HW211466   0.115   4.510   4.508  0.0330 -0.6602  2.1319
    1SOL    HW311467   0.254   4.449   4.521 -0.0889 -1.2182  0.8591
    1SOL    MW411468   0.171   4.445   4.492 -0.0295 -0.3409  0.5398
    1SOL     OW11469   0.460   3.203   4.493  0.0859  0.3367  0.4060
    1SOL    HW211470   0.395   3.270   4.514  1.0179  0.9816  1.2924
    1SOL    HW311471   0.433   3.126   4.544 -0.3445  0.3972  0.2698
    1SOL    MW411472   0.448   3.202   4.503  0.1521  0.4296  0.5050
    1SOL     OW11473   3.128   3.205   4.517  0.1062  0.1025  0.4325
    1SOL    HW211474   3.107   3.111   4.509  1.5787 -0.1396 -0.6971
    1SOL    HW311475   3.221   3.207   4.537 -0.3851  1.2698  2.8891
    1SOL    MW411476   3.137   3.193   4.519  0.2358  0.2246  0.6084
    1SOL     OW11477   1.457   1.469   4.547 -1.0901 -0.2932  0.5600
    1SOL    HW211478   1.474   1.416   4.624  1.2520 -0.8553 -0.3224
    1SOL    HW311479   1.543   1.499   4.518 -1.9788  0.3494 -1.5163
    1SOL    MW411480   1.470   1.466   4.553 -0.8984 -0.2826  0.1693
    1SOL     OW11481   2.098   1.279   4.303  0.2172  0.1749  0.0447
    1SOL    HW211482   2.021   1.283   4.359  0.1284  0.5849 -0.1028
    1SOL    HW311483   2.172   1.271   4.364  0.0753  0.0264  0.1960
    1SOL    MW411484   2.098   1.279   4.318  0.1869  0.2095  0.0458
    1SOL     OW11485   3.942   1.951   4.141 -0.1460  0.0815  0.2671
    1SOL    HW211486   3.847   1.944   4.132  0.1490 -1.9215 -1.6880
    1SOL    HW311487   3.968   1.869   4.184  0.9706 -0.5567 -1.5944
    1SOL    MW411488   3.933   1.939   4.146  0.0403 -0.2670 -0.2365
    1SOL     OW11489   2.987   4.656   4.174 -0.6883  0.0491  0.3769
    1SOL    HW211490   3.049   4.701   4.232  0.6456  0.3621 -1.2273
    1SOL    HW311491   2.973   4.571   4.215 -0.3885  0.5692  1.5739
    1SOL    MW411492   2.994   4.650   4.187 -0.4728  0.1588  0.3233
    1SOL     OW11493   0.642   0.514   4.528  0.1174 -0.6954 -0.6890
    1SOL    HW211494   0.582   0.579   4.564  1.8316  0.3020  0.4637
    1SOL    HW311495   0.599   0.430   4.543 -1.4177  0.0573 -0.7910
    1SOL    MW411496   0.628   0.512   4.535  0.1410 -0.4645 -0.5507
    1SOL     OW11497   1.521   4.075   4.588  0.3595  0.0019 -0.1868
    1SOL    HW211498   1.513   4.170   4.593  0.4415  0.0787 -1.5488
    1SOL    HW311499   1.614   4.059   4.570  0.1127 -0.2890 -1.2080
    1SOL    MW411500   1.532   4.085   4.587  0.3378 -0.0262 -0.5016
    1SOL     OW11501   3.873   1.852   4.539  0.5033  0.1580  0.1698
    1SOL    HW211502   3.919   1.928   4.502 -0.9312  0.6616 -0.5887
    1SOL    HW311503   3.782   1.863   4.511 -0.1111 -0.7779  1.7759
    1SOL    MW411504   3.867   1.864   4.530  0.2329  0.1010  0.2818
    1SOL     OW11505   4.312   2.499   4.574  0.4622 -0.0194  0.0823
    1SOL    HW211506   4.403   2.530   4.568  0.1616  0.6554 -1.0551
    1SOL    HW311507   4.263   2.556   4.515 -0.5923 -0.8289  0.1620
    1SOL    MW411508   4.318   2.511   4.565  0.2832 -0.0372 -0.0572
    1SOL     OW11509   2.743   3.818   4.553  0.2033  0.0155 -0.1481
    1SOL    HW211510   2.813   3.755   4.569  0.6923  0.4051 -0.7336
    1SOL    HW311511   2.665   3.765   4.542  0.7980 -0.5707 -1.7243
    1SOL    MW411512   2.742   3.803   4.554  0.3462 -0.0103 -0.4339
    1SOL     OW11513   1.557   3.658   4.608 -0.0016  0.0619  0.0431
    1SOL    HW211514   1.612   3.732   4.634 -0.4906  0.9129 -1.2917
    1SOL    HW311515   1.468   3.685   4.629  0.0217 -1.2186  1.9769
    1SOL    MW411516   1.553   3.671   4.614 -0.0631  0.0055  0.1225
    1SOL     OW11517   1.801   3.473   4.202  0.0641 -0.4182  0.4225
    1SOL    HW211518   1.802   3.502   4.110 -0.0687 -0.7314  0.3191
    1SOL    HW311519   1.712   3.492   4.232  0.4563  0.7862  0.8528
    1SOL    MW411520   1.789   3.479   4.193  0.0982 -0.3006  0.4659
    1SOL     OW11521   1.585   1.855   4.525 -0.0732 -0.0677  0.0220
    1SOL    HW211522   1.560   1.933   4.575 -1.9580  0.8662 -2.2688
    1SOL    HW311523   1.502   1.814   4.502  0.7430 -0.4310 -2.3734
    1SOL    MW411524   1.571   1.860   4.529 -0.2142  0.0076 -0.5960
    1SOL     OW11525   2.263   2.226   4.677  0.0803 -0.8760  0.1120
    1SOL    HW211526   2.257   2.237   4.582 -0.8800 -1.3917  0.1011
    1SOL    HW311527   2.296   2.310   4.709 -0.5584 -0.3466 -0.5858
    1SOL    MW411528   2.266   2.239   4.668 -0.1309 -0.8740  0.0181
    1SOL     OW11529   0.897   3.488   4.164 -0.1534 -0.4466  0.2468
    1SOL    HW211530   0.907   3.393   4.178  1.6256 -0.2338  0.5075
    1SOL    HW311531   0.900   3.497   4.069 -2.0833 -0.8234  0.1340
    1SOL    MW411532   0.899   3.476   4.153 -0.1733 -0.4680  0.2666
    1SOL     OW11533   4.477   1.721   4.210  0.1220  0.2240 -0.4362
    1SOL    HW211534   4.455   1.751   4.298  0.0668  2.0712 -1.0468
    1SOL    HW311535   4.399   1.675   4.180  0.0771 -0.2587  0.4038
    1SOL    MW411536   4.464   1.719   4.218  0.1087  0.4040 -0.4058
    1SOL     OW11537   4.042   3.279   4.470  0.2197  0.3055  0.0586
    1SOL    HW211538   4.034   3.270   4.376  0.3267 -1.0207  0.1637
    1SOL    HW311539   4.055   3.189   4.502 -0.1398  0.7004  1.3566
    1SOL    MW411540   4.043   3.266   4.462  0.1860  0.1826  0.2437
    1SOL     OW11541   3.134   2.415   4.254  0.5044 -0.1402  0.1471
    1SOL    HW211542   3.179   2.405   4.338  1.8514 -1.8298 -0.7398
    1SOL    HW311543   3.091   2.331   4.239 -1.0775  0.6929 -0.1025
    1SOL    MW411544   3.135   2.402   4.263  0.4735 -0.2532 -0.0024
    1SOL     OW11545   4.444   4.249   4.160  0.6702 -0.0489 -0.1838
    1SOL    HW211546   4.363   4.284   4.196  1.4606  0.4298  1.1850
    1SOL    HW311547   4.431   4.249   4.066 -0.7798  0.3478  0.0066
    1SOL    MW411548   4.432   4.253   4.153  0.5832  0.0663  0.0224
    1SOL     OW11549   2.019   2.486   4.144 -0.1814  0.5335  0.3478
    1SOL    HW211550   1.953   2.468   4.212  0.3894 -2.4195  0.1750
    1SOL    HW311551   2.102   2.484   4.191  0.0553  0.8719 -0.0519
    1SOL    MW411552   2.021   2.484   4.159 -0.0751  0.1886  0.2718
    1SOL     OW11553   0.899   0.372   4.121 -0.1068 -0.0062  0.5478
    1SOL    HW211554   0.983   0.405   4.155 -0.0259 -1.5898  1.9556
    1SOL    HW311555   0.835   0.438   4.149  0.6153  1.0916 -0.3262
    1SOL    MW411556   0.902   0.385   4.129 -0.0009 -0.0703  0.6180
    1NA      NA11557   3.105   4.034   0.567 -0.1547  0.3084 -0.0872
    1NA      NA11558   0.895   2.450   0.690  0.2821 -0.0568 -0.1229
   4.49070   4.66690  10.00000
