Great Red Owns Many ACres of Sand 
  149
    1U      O5'    1   0.025   0.112   0.050
    1U      H5T    2   0.002   0.173  -0.026
    1U      C5'    3   0.156   0.143   0.099
    1U     H5'1    4   0.156   0.238   0.129
    1U     H5'2    5   0.220   0.132   0.023
    1U      C4'    6   0.194   0.052   0.214
    1U      H4'    7   0.291   0.033   0.202
    1U      O4'    8   0.164   0.121   0.339
    1U      C1'    9   0.062   0.052   0.409
    1U      H1'   10   0.100   0.002   0.486
    1U       N1   11  -0.030   0.151   0.467
    1U       C6   12  -0.073   0.259   0.393
    1U       H6   13  -0.041   0.269   0.299
    1U       C5   14  -0.156   0.350   0.443
    1U       H5   15  -0.185   0.427   0.386
    1U       C4   16  -0.204   0.338   0.578
    1U       O4   17  -0.280   0.416   0.635
    1U       N3   18  -0.157   0.228   0.645
    1U       H3   19  -0.189   0.216   0.739
    1U       C2   20  -0.071   0.132   0.597
    1U       O2   21  -0.036   0.038   0.665
    1U      C3'   22   0.117  -0.079   0.222
    1U      H3'   23   0.093  -0.120   0.134
    1U      C2'   24  -0.003  -0.043   0.309
    1U     H2'1   25  -0.084  -0.011   0.259
    1U      O2'   26  -0.053  -0.156   0.379
    1U     HO'2   27  -0.096  -0.219   0.314
    1U      O3'   28   0.197  -0.183   0.279
    2U        P   29   0.154  -0.337   0.262
    2U      O1P   30   0.027  -0.341   0.185
    2U      O2P   31   0.162  -0.402   0.394
    2U      O5'   32   0.269  -0.398   0.169
    2U      C5'   33   0.402  -0.415   0.218
    2U     H5'1   34   0.402  -0.493   0.281
    2U     H5'2   35   0.428  -0.332   0.267
    2U      C4'   36   0.497  -0.440   0.104
    2U      H4'   37   0.587  -0.449   0.146
    2U      O4'   38   0.454  -0.560   0.033
    2U      C1'   39   0.410  -0.526  -0.097
    2U      H1'   40   0.477  -0.556  -0.165
    2U       N1   41   0.286  -0.600  -0.125
    2U       C6   42   0.187  -0.612  -0.030
    2U       H6   43   0.201  -0.569   0.059
    2U       C5   44   0.073  -0.679  -0.053
    2U       H5   45   0.003  -0.685   0.018
    2U       C4   46   0.052  -0.742  -0.179
    2U       O4   47  -0.048  -0.807  -0.212
    2U       N3   48   0.155  -0.727  -0.269
    2U       H3   49   0.143  -0.770  -0.358
    2U       C2   50   0.272  -0.659  -0.249
    2U       O2   51   0.358  -0.651  -0.336
    2U      C3'   52   0.501  -0.331  -0.002
    2U      H3'   53   0.491  -0.238   0.033
    2U      C2'   54   0.393  -0.374  -0.100
    2U     H2'1   55   0.302  -0.336  -0.082
    2U      O2'   56   0.420  -0.328  -0.231
    2U     HO'2   57   0.409  -0.229  -0.234
    2U      O3'   58   0.629  -0.322  -0.064
    3U        P   59   0.742  -0.226  -0.002
    3U      O1P   60   0.862  -0.236  -0.088
    3U      O2P   61   0.754  -0.255   0.144
    3U      O5'   62   0.681  -0.080  -0.018
    3U      C5'   63   0.620  -0.039  -0.140
    3U     H5'1   64   0.534  -0.088  -0.149
    3U     H5'2   65   0.681  -0.064  -0.215
    3U      C4'   66   0.596   0.111  -0.139
    3U      H4'   67   0.586   0.137  -0.235
    3U      O4'   68   0.477   0.139  -0.061
    3U      C1'   69   0.495   0.259   0.011
    3U      H1'   70   0.421   0.322  -0.012
    3U       N1   71   0.483   0.230   0.155
    3U       C6   72   0.545   0.121   0.211
    3U       H6   73   0.599   0.061   0.152
    3U       C5   74   0.536   0.092   0.341
    3U       H5   75   0.584   0.012   0.378
    3U       C4   76   0.458   0.175   0.427
    3U       O4   77   0.443   0.160   0.548
    3U       N3   78   0.398   0.282   0.365
    3U       H3   79   0.343   0.342   0.423
    3U       C2   80   0.406   0.315   0.232
    3U       O2   81   0.349   0.412   0.186
    3U      C3'   82   0.706   0.194  -0.074
    3U      H3'   83   0.758   0.148  -0.002
    3U      C2'   84   0.631   0.318  -0.028
    3U     H2'1   85   0.679   0.373   0.040
    3U      O2'   86   0.611   0.408  -0.136
    3U     HO'2   87   0.699   0.448  -0.163
    3U      O3'   88   0.810   0.224  -0.166
    4U        P   89   0.960   0.175  -0.135
    4U      O1P   90   0.962   0.027  -0.146
    4U      O2P   91   1.005   0.240  -0.009
    4U      O5'   92   1.046   0.234  -0.255
    4U      C5'   93   1.033   0.371  -0.295
    4U     H5'1   94   1.054   0.429  -0.216
    4U     H5'2   95   0.939   0.386  -0.324
    4U      C4'   96   1.128   0.401  -0.408
    4U      H4'   97   1.095   0.487  -0.448
    4U      O4'   98   1.263   0.412  -0.354
    4U      C1'   99   1.345   0.311  -0.410
    4U      H1'  100   1.406   0.349  -0.480
    4U       N1  101   1.433   0.259  -0.305
    4U       C6  102   1.383   0.221  -0.182
    4U       H6  103   1.285   0.230  -0.165
    4U       C5  104   1.462   0.173  -0.085
    4U       H5  105   1.422   0.146   0.003
    4U       C4  106   1.602   0.160  -0.106
    4U       O4  107   1.684   0.117  -0.025
    4U       N3  108   1.645   0.200  -0.231
    4U       H3  109   1.743   0.192  -0.249
    4U       C2  110   1.568   0.250  -0.333
    4U       O2  111   1.616   0.283  -0.439
    4U      C3'  112   1.136   0.295  -0.517
    4U      H3'  113   1.051   0.246  -0.535
    4U      C2'  114   1.251   0.207  -0.470
    4U     H2'1  115   1.224   0.130  -0.413
    4U      O2'  116   1.317   0.144  -0.579
    4U     HO'2  117   1.257   0.075  -0.619
    4U      O3'  118   1.161   0.353  -0.645
    5U        P  119   1.081   0.301  -0.774
    5U      O1P  120   0.938   0.291  -0.738
    5U      O2P  121   1.152   0.181  -0.827
    5U      O5'  122   1.097   0.419  -0.880
    5U      C5'  123   1.069   0.554  -0.845
    5U     H5'1  124   1.126   0.578  -0.766
    5U     H5'2  125   0.973   0.560  -0.819
    5U      C4'  126   1.098   0.646  -0.961
    5U      H4'  127   1.031   0.720  -0.953
    5U      O4'  128   1.235   0.693  -0.951
    5U      C1'  129   1.296   0.693  -1.079
    5U      H1'  130   1.340   0.781  -1.097
    5U       N1  131   1.404   0.594  -1.079
    5U       C6  132   1.397   0.481  -1.001
    5U       H6  133   1.317   0.467  -0.943
    5U       C5  134   1.494   0.389  -1.000
    5U       H5  135   1.485   0.308  -0.943
    5U       C4  136   1.610   0.407  -1.081
    5U       O4  137   1.706   0.329  -1.088
    5U       N3  138   1.611   0.522  -1.156
    5U       H3  139   1.691   0.537  -1.214
    5U       C2  140   1.513   0.618  -1.160
    5U       O2  141   1.523   0.717  -1.230
    5U      C3'  142   1.089   0.581  -1.099
    5U      H3'  143   1.106   0.483  -1.101
    5U      C2'  144   1.186   0.665  -1.181
    5U     H2'1  145   1.214   0.625  -1.268
    5U      O2'  146   1.127   0.788  -1.220
    5U     HO'2  147   1.055   0.771  -1.287
    5U      O3'  148   0.956   0.584  -1.152
    5U      H3T  149   0.955   0.541  -1.242
   2.02298   1.59500   2.02600
