Great Red Owns Many ACres of Sand in water
11630
    1U      O5'    1   1.826   1.272   5.085  0.1905 -0.2051  0.4499
    1U      H5T    2   1.912   1.233   5.068  0.2869  0.4553 -0.6048
    1U      C5'    3   1.730   1.182   5.130  0.0617 -0.4096  0.4351
    1U     H5'1    4   1.708   1.208   5.234 -1.5602  2.2593 -0.5318
    1U     H5'2    5   1.780   1.086   5.115 -0.8409 -0.8894  0.5185
    1U      C4'    6   1.600   1.179   5.045  0.3451  0.1305  0.2664
    1U      H4'    7   1.545   1.091   5.079  1.0727 -0.6969 -0.6884
    1U      O4'    8   1.517   1.294   5.083 -0.0358 -1.0590  0.0045
    1U      C1'    9   1.451   1.336   4.959  0.4603 -0.4433  0.0945
    1U      H1'   10   1.342   1.337   4.969  0.5673  1.5155  1.2586
    1U       N1   11   1.503   1.465   4.905  0.4820  0.5595 -0.2407
    1U       C6   12   1.629   1.509   4.939 -0.6955 -0.3444 -0.3798
    1U       H6   13   1.684   1.452   5.012  0.2565 -0.8917 -1.5110
    1U       C5   14   1.666   1.637   4.899  0.1472  0.5980 -0.0761
    1U       H5   15   1.764   1.669   4.929 -0.6513  1.5559  1.5696
    1U       C4   16   1.577   1.722   4.823 -0.2797 -0.2994  0.0054
    1U       O4   17   1.604   1.835   4.785  0.0956 -0.2327 -0.1406
    1U       N3   18   1.459   1.665   4.788  0.1029  0.8852  0.2415
    1U       H3   19   1.393   1.729   4.746 -0.1383  0.7384  0.4001
    1U       C2   20   1.414   1.543   4.830 -0.2818  0.2929 -0.3361
    1U       O2   21   1.303   1.509   4.796 -0.5483 -0.2577 -0.5871
    1U      C3'   22   1.616   1.186   4.893  0.6115  0.5060 -0.2304
    1U      H3'   23   1.686   1.265   4.865  1.6375 -0.5828 -0.7815
    1U      C2'   24   1.473   1.225   4.855  0.0666  0.4789 -0.3413
    1U     H2'1   25   1.468   1.261   4.752  0.5487  1.0036 -0.1826
    1U      O2'   26   1.379   1.126   4.872 -0.3154  0.4940  0.0955
    1U     HO'2   27   1.406   1.045   4.828  0.7044  0.8815 -0.0093
    1U      O3'   28   1.659   1.066   4.839  0.2256  0.5202 -0.0128
    2U        P   29   1.724   1.049   4.691  0.3287  0.0573 -0.2977
    2U      O1P   30   1.624   1.093   4.594  0.6171  0.3320 -0.3393
    2U      O2P   31   1.778   0.909   4.690 -0.0427 -0.2264 -0.1204
    2U      O5'   32   1.844   1.148   4.690 -0.3419  0.2100  0.2764
    2U      C5'   33   1.944   1.140   4.590  0.0679  0.1381  0.1453
    2U     H5'1   34   1.897   1.100   4.500  0.3246 -0.4377  0.2655
    2U     H5'2   35   2.022   1.069   4.615 -0.7093 -1.1164 -0.9006
    2U      C4'   36   2.003   1.283   4.569  0.4902 -0.1277 -0.2883
    2U      H4'   37   2.089   1.263   4.505 -1.3531 -1.5689 -2.4012
    2U      O4'   38   1.920   1.376   4.505  0.0746  0.2217  0.5622
    2U      C1'   39   1.942   1.503   4.555  0.2411 -0.0763  0.3450
    2U      H1'   40   2.036   1.535   4.511 -0.6709  0.9292 -0.9199
    2U       N1   41   1.837   1.598   4.519  0.0860  0.4822  0.0050
    2U       C6   42   1.710   1.548   4.509  0.0220 -0.6997  0.2041
    2U       H6   43   1.695   1.441   4.514 -0.9141 -0.5231  1.1741
    2U       C5   44   1.608   1.634   4.483 -0.2064 -0.1729  0.1211
    2U       H5   45   1.506   1.600   4.479 -0.8442  1.7221 -0.8513
    2U       C4   46   1.631   1.772   4.475 -0.5534  0.1892 -0.6926
    2U       O4   47   1.545   1.857   4.468  0.2512 -0.4995 -0.2011
    2U       N3   48   1.765   1.809   4.466  0.0488 -0.3392  0.4917
    2U       H3   49   1.782   1.909   4.472 -0.8806 -0.1921  0.7383
    2U       C2   50   1.869   1.727   4.485  0.4373  0.2603  0.4906
    2U       O2   51   1.986   1.770   4.487 -0.5244  0.0388  0.4762
    2U      C3'   52   2.053   1.346   4.703  0.3388 -0.6964  0.3411
    2U      H3'   53   2.024   1.284   4.788  0.2546  1.1098  1.6442
    2U      C2'   54   1.962   1.469   4.705 -0.0368 -0.6199 -0.2544
    2U     H2'1   55   1.866   1.434   4.744  0.2168  0.0824  1.0554
    2U      O2'   56   2.018   1.582   4.777 -0.0612  0.3522  0.4229
    2U     HO'2   57   2.112   1.565   4.781 -0.2004 -0.3976  0.5762
    2U      O3'   58   2.190   1.376   4.705 -0.3127  0.4938 -0.1746
    3U        P   59   2.300   1.260   4.713 -0.4128 -0.0285 -0.1506
    3U      O1P   60   2.332   1.216   4.576 -0.0722  0.0340 -0.0249
    3U      O2P   61   2.263   1.168   4.826  0.0988  0.0873 -0.4541
    3U      O5'   62   2.416   1.352   4.762 -0.0379  0.6371 -0.1366
    3U      C5'   63   2.546   1.322   4.721 -0.6395 -0.5350  0.3160
    3U     H5'1   64   2.602   1.416   4.726 -1.3614  0.1064 -2.8082
    3U     H5'2   65   2.558   1.300   4.615  0.3713  1.0264  0.0881
    3U      C4'   66   2.628   1.224   4.810 -0.6376  0.1687 -0.1687
    3U      H4'   67   2.632   1.273   4.907 -1.3420 -0.3214  0.1079
    3U      O4'   68   2.578   1.092   4.818 -0.2924  0.3763 -0.2511
    3U      C1'   69   2.688   0.999   4.814  0.3127 -0.2549 -0.2876
    3U      H1'   70   2.686   0.945   4.909  0.1593  0.3730  0.0673
    3U       N1   71   2.660   0.893   4.709  0.1142 -0.3351  0.1813
    3U       C6   72   2.555   0.903   4.623 -0.2084 -0.3415  0.4791
    3U       H6   73   2.497   0.995   4.620  1.2826  0.5742 -0.9193
    3U       C5   74   2.522   0.805   4.539  0.4594 -0.3666  0.2843
    3U       H5   75   2.442   0.810   4.467  2.7132  1.8798 -2.1777
    3U       C4   76   2.598   0.682   4.527  0.2980  0.2992 -0.1698
    3U       O4   77   2.574   0.589   4.445  0.0368 -0.7406 -0.3101
    3U       N3   78   2.702   0.672   4.617 -0.5377 -0.0046  0.4319
    3U       H3   79   2.766   0.596   4.607 -1.4655 -0.5937 -1.1549
    3U       C2   80   2.729   0.771   4.712 -0.5065  0.2620  0.5440
    3U       O2   81   2.825   0.748   4.792 -0.1058  0.3792 -0.0826
    3U      C3'   82   2.772   1.217   4.760 -0.3512 -0.2005  0.3382
    3U      H3'   83   2.777   1.221   4.651  1.0860  0.3064  0.4146
    3U      C2'   84   2.822   1.080   4.801  0.4287  0.3480 -0.1156
    3U     H2'1   85   2.890   1.035   4.728 -0.7904  0.9180 -1.6313
    3U      O2'   86   2.888   1.083   4.930 -0.2481 -0.3093  0.0842
    3U     HO'2   87   2.902   1.178   4.935  0.8345 -0.4402 -0.3169
    3U      O3'   88   2.850   1.323   4.807  0.3532 -0.2959 -0.2596
    4U        P   89   2.942   1.416   4.713  0.0704  0.2071 -0.4029
    4U      O1P   90   2.867   1.454   4.592 -0.1687  0.1571  0.2557
    4U      O2P   91   3.070   1.338   4.694  0.3433 -0.4162  0.4706
    4U      O5'   92   2.984   1.544   4.796  0.1877  0.5969 -0.1549
    4U      C5'   93   2.881   1.623   4.863  0.2196  0.1541  0.4207
    4U     H5'1   94   2.891   1.588   4.966  1.5511  2.0054  0.9516
    4U     H5'2   95   2.781   1.606   4.826 -0.1499  1.6920  0.6610
    4U      C4'   96   2.907   1.775   4.869 -0.0564  0.2848 -0.5369
    4U      H4'   97   2.830   1.823   4.929 -1.4813 -1.0843 -1.2429
    4U      O4'   98   3.038   1.795   4.924 -0.0570 -0.4625  0.4334
    4U      C1'   99   3.123   1.866   4.833 -0.4672 -0.2417  0.2025
    4U      H1'  100   3.116   1.972   4.856  2.1370 -0.0151  0.0782
    4U       N1  101   3.262   1.818   4.825 -0.3727 -0.2188  0.0639
    4U       C6  102   3.292   1.688   4.850 -0.1865 -0.4186  0.1530
    4U       H6  103   3.213   1.626   4.890 -0.3363  0.2971  0.9683
    4U       C5  104   3.418   1.639   4.836  0.4475  0.6744 -0.2615
    4U       H5  105   3.441   1.537   4.863 -0.1634  0.3124 -1.0796
    4U       C4  106   3.522   1.727   4.792  0.0347  0.2334 -0.5294
    4U       O4  107   3.640   1.700   4.779  0.3191  0.0788 -0.5916
    4U       N3  108   3.487   1.857   4.774  0.6862  0.3863 -0.3513
    4U       H3  109   3.562   1.925   4.771  1.2631 -0.1955  0.6666
    4U       C2  110   3.361   1.910   4.791 -0.1993 -0.1437  0.1062
    4U       O2  111   3.346   2.028   4.766 -0.6805  0.0647  0.1375
    4U      C3'  112   2.901   1.846   4.730 -0.3438 -0.2776  0.2339
    4U      H3'  113   2.849   1.796   4.648 -0.7957  2.2066 -1.0243
    4U      C2'  114   3.053   1.851   4.699  0.4506 -0.4159 -0.2886
    4U     H2'1  115   3.075   1.753   4.658 -1.5310 -1.5449  1.2836
    4U      O2'  116   3.085   1.947   4.599 -0.1243 -0.0649  0.0764
    4U     HO'2  117   3.002   1.993   4.582 -0.0229 -0.4479 -1.5126
    4U      O3'  118   2.850   1.981   4.739 -0.2692  0.2491 -0.1547
    5U        P  119   2.751   2.042   4.628  0.0150 -0.0663  0.0544
    5U      O1P  120   2.620   1.974   4.634 -0.5487  0.3398 -0.4720
    5U      O2P  121   2.828   2.050   4.506 -0.1948 -0.0947 -0.2659
    5U      O5'  122   2.735   2.193   4.668  0.2660 -0.5120  0.2180
    5U      C5'  123   2.661   2.232   4.781 -0.0250  0.3278 -0.1706
    5U     H5'1  124   2.718   2.207   4.870  0.4272  1.1964 -0.2104
    5U     H5'2  125   2.564   2.183   4.788  0.2826 -0.0405  1.7993
    5U      C4'  126   2.640   2.383   4.767 -0.1655 -0.7054 -0.6029
    5U      H4'  127   2.553   2.408   4.827  0.2978 -0.0358 -0.2114
    5U      O4'  128   2.756   2.459   4.803 -0.3565 -0.1375 -0.1103
    5U      C1'  129   2.797   2.536   4.687 -0.2676  0.0672  0.7482
    5U      H1'  130   2.761   2.639   4.699 -0.0127  0.1519  0.7840
    5U       N1  131   2.946   2.538   4.686  0.1449 -0.1131 -0.5923
    5U       C6  132   3.024   2.423   4.700  0.0178  0.0030 -0.5964
    5U       H6  133   2.976   2.330   4.724 -0.3605  0.3670  0.0760
    5U       C5  134   3.157   2.429   4.692 -0.4898 -0.9040 -0.4043
    5U       H5  135   3.210   2.337   4.711 -1.2779 -1.4175 -0.6962
    5U       C4  136   3.229   2.553   4.655  0.0625  0.5192  0.1819
    5U       O4  137   3.350   2.576   4.644 -0.5022  0.0394  0.4850
    5U       N3  138   3.138   2.655   4.631 -0.2450 -0.0177 -0.1421
    5U       H3  139   3.185   2.739   4.600 -0.4450 -0.0105 -0.4304
    5U       C2  140   3.005   2.650   4.633  0.9038 -0.5538 -0.0601
    5U       O2  141   2.939   2.753   4.604  0.2048  0.2636 -0.1587
    5U      C3'  142   2.596   2.419   4.625 -0.1495 -0.0466 -0.3168
    5U      H3'  143   2.551   2.338   4.569  1.0409  0.4482 -2.0114
    5U      C2'  144   2.726   2.474   4.563 -0.0693  0.2769  0.5300
    5U     H2'1  145   2.788   2.390   4.532 -0.1435 -0.1823  1.6089
    5U      O2'  146   2.694   2.561   4.457  0.1729 -0.0395 -0.4383
    5U     HO'2  147   2.636   2.624   4.500 -0.5181 -1.4600  0.7836
    5U      O3'  148   2.494   2.517   4.625  0.0992  0.1296  0.0590
    5U      H3T  149   2.419   2.462   4.650 -2.7262  2.0171 -3.7507
   11SOL     OW  150   0.408   4.621   0.448  0.1087 -0.3157 -0.5392
   11SOL    HW2  151   0.489   4.594   0.404  0.2812 -0.0369 -0.3914
   11SOL    HW3  152   0.384   4.703   0.404  0.2698 -0.0486 -0.1289
   11SOL    MW4  153   0.416   4.628   0.436  0.1527 -0.2437 -0.4656
   12SOL     OW  154   3.972   0.358   0.402 -0.0435 -0.3396  0.1149
   12SOL    HW2  155   4.047   0.384   0.350 -0.7026 -0.2607 -0.8020
   12SOL    HW3  156   3.985   0.264   0.418  0.6567 -0.1557  0.6508
   12SOL    MW4  157   3.984   0.349   0.398 -0.0381 -0.3050  0.0646
   13SOL     OW  158   4.019   0.101   0.454 -0.2331  0.3450 -0.1227
   13SOL    HW2  159   3.973   0.025   0.418 -0.1139 -0.1328  0.7001
   13SOL    HW3  160   4.110   0.090   0.425 -0.1502 -0.0033  0.2600
   13SOL    MW4  161   4.025   0.089   0.445 -0.2060  0.2360  0.0363
   14SOL     OW  162   0.102   1.938   0.490 -0.4626  0.8012 -0.1404
   14SOL    HW2  163   0.088   1.888   0.570 -0.9144  0.6617 -0.3025
   14SOL    HW3  164   0.069   1.881   0.420  1.3305  0.2806 -0.5828
   14SOL    MW4  165   0.096   1.924   0.491 -0.2856  0.7139 -0.2201
   15SOL     OW  166   1.090   0.918   0.364  0.1758 -0.7100 -0.1151
   15SOL    HW2  167   1.051   0.870   0.438 -0.7039  0.0599 -0.0758
   15SOL    HW3  168   1.020   0.975   0.333  1.0761  0.1913 -0.4851
   15SOL    MW4  169   1.076   0.919   0.370  0.1783 -0.4895 -0.1587
   16SOL     OW  170   0.184   0.477   0.494  0.3849  0.1101 -0.3660
   16SOL    HW2  171   0.196   0.485   0.589  0.2034  0.8448 -0.4019
   16SOL    HW3  172   0.247   0.411   0.467  0.6320  0.1034  0.2298
   16SOL    MW4  173   0.194   0.470   0.503  0.3935  0.2062 -0.2922
   17SOL     OW  174   0.384   0.942   0.456  0.6499  0.0398 -0.3082
   17SOL    HW2  175   0.388   0.940   0.552  0.0236  0.5798 -0.2695
   17SOL    HW3  176   0.390   0.851   0.430 -0.9891 -0.2624  0.3174
   17SOL    MW4  177   0.386   0.930   0.465  0.3510  0.0711 -0.2205
   18SOL     OW  178   0.999   0.763   0.576  0.3529 -0.3575  0.2676
   18SOL    HW2  179   1.058   0.736   0.646  0.8564  0.9893  0.3806
   18SOL    HW3  180   0.930   0.813   0.621  0.5267  0.2729 -0.1591
   18SOL    MW4  181   0.997   0.766   0.591  0.4423 -0.0966  0.2262
   19SOL     OW  182   0.655   0.897   0.426 -0.1869 -0.2497 -0.4151
   19SOL    HW2  183   0.566   0.922   0.452  0.8485  1.0003  2.1424
   19SOL    HW3  184   0.660   0.804   0.445 -0.2504  0.1441  1.7093
   19SOL    MW4  185   0.644   0.888   0.432 -0.0586 -0.0328  0.2026
   20SOL     OW  186   4.282   1.707   0.602  0.1591 -0.3282  0.1319
   20SOL    HW2  187   4.235   1.661   0.672  0.0601 -1.6640 -0.8160
   20SOL    HW3  188   4.221   1.775   0.573 -0.6493 -1.1681 -0.1445
   20SOL    MW4  189   4.268   1.710   0.608  0.0396 -0.6154 -0.0296
   21SOL     OW  190   4.333   1.551   0.368 -0.3568  0.1813 -0.0201
   21SOL    HW2  191   4.313   1.586   0.455  0.4497  2.5375 -0.7361
   21SOL    HW3  192   4.397   1.481   0.384  0.8708  1.5500  1.1766
   21SOL    MW4  193   4.339   1.546   0.381 -0.0887  0.6728  0.0433
   22SOL     OW  194   0.321   2.127   0.526  0.6701 -0.0411  0.1432
   22SOL    HW2  195   0.406   2.089   0.502  0.0138 -0.5471 -1.4254
   22SOL    HW3  196   0.257   2.064   0.493 -0.3232  0.4300  1.1693
   22SOL    MW4  197   0.324   2.113   0.519  0.4525 -0.0460  0.0716
   23SOL     OW  198   0.432   2.593   0.586 -0.4323 -0.0504  0.0938
   23SOL    HW2  199   0.517   2.601   0.544 -0.6208 -0.3357 -0.3372
   23SOL    HW3  200   0.383   2.670   0.559  0.0503  0.6525  1.1783
   23SOL    MW4  201   0.437   2.604   0.577 -0.3935  0.0045  0.1801
   24SOL     OW  202   4.334   2.760   0.420 -0.4785  0.0651 -0.3469
   24SOL    HW2  203   4.368   2.838   0.375 -2.3075  2.0131  1.4911
   24SOL    HW3  204   4.407   2.699   0.420  1.3036  2.1085 -1.1438
   24SOL    MW4  205   4.348   2.762   0.414 -0.4845  0.5915 -0.2095
   25SOL     OW  206   4.298   3.438   0.184  0.2305 -0.3374 -0.2003
   25SOL    HW2  207   4.273   3.371   0.247  1.3702 -1.1319 -0.5831
   25SOL    HW3  208   4.306   3.392   0.100  1.5713  0.1486 -0.3570
   25SOL    MW4  209   4.296   3.423   0.181  0.5584 -0.3781 -0.2714
   26SOL     OW  210   0.424   3.289   0.485  0.0650 -0.6557 -0.0011
   26SOL    HW2  211   0.427   3.269   0.579 -1.4641 -1.5130 -0.1279
   26SOL    HW3  212   0.374   3.370   0.479 -0.6817 -1.1320 -0.1643
   26SOL    MW4  213   0.418   3.297   0.497 -0.2353 -0.8316 -0.0394
   27SOL     OW  214   0.684   3.371   0.410  0.0372 -0.5555 -0.2197
   27SOL    HW2  215   0.688   3.466   0.418  1.1735 -0.6662  0.5918
   27SOL    HW3  216   0.598   3.348   0.448 -0.0934  0.1120 -0.1050
   27SOL    MW4  217   0.673   3.381   0.416  0.1699 -0.4821 -0.0975
   28SOL     OW  218   1.220   3.683   0.367  0.0613 -0.2499 -0.1405
   28SOL    HW2  219   1.252   3.707   0.280  0.7969  1.5038  0.5918
   28SOL    HW3  220   1.136   3.728   0.375  1.0033  1.3649  0.8738
   28SOL    MW4  221   1.213   3.692   0.356  0.2826  0.1945  0.0899
   29SOL     OW  222   3.851   3.432   0.332  0.4838 -0.2659  0.3726
   29SOL    HW2  223   3.853   3.517   0.377  2.0400 -0.5598  0.8673
   29SOL    HW3  224   3.883   3.370   0.397  2.0910 -0.8131 -0.9205
   29SOL    MW4  225   3.855   3.435   0.347  0.9012 -0.3769  0.2672
   30SOL     OW  226   4.473   4.010   0.485 -0.0283 -0.4066  0.0673
   30SOL    HW2  227   4.413   4.083   0.473 -0.8336 -0.9505  0.7042
   30SOL    HW3  228   4.502   4.017   0.576 -1.0464 -1.5476  0.5102
   30SOL    MW4  229   4.469   4.020   0.496 -0.2689 -0.6280  0.2097
   31SOL     OW  230   0.171   4.486   0.467 -0.4045 -0.0014  0.2936
   31SOL    HW2  231   0.256   4.528   0.456 -0.0177 -0.7348  0.4048
   31SOL    HW3  232   0.184   4.397   0.433 -0.6119 -0.6895  1.9410
   31SOL    MW4  233   0.184   4.480   0.461 -0.3808 -0.1884  0.5256
   32SOL     OW  234   0.194   4.221   0.374 -0.1605  0.1086  0.0177
   32SOL    HW2  235   0.198   4.215   0.279  0.2692  1.2135 -0.0429
   32SOL    HW3  236   0.131   4.154   0.400 -0.5532  0.0471 -1.0734
   32SOL    MW4  237   0.186   4.211   0.365 -0.1556  0.2456 -0.1343
   33SOL     OW  238   0.267   3.527   0.489  0.5666  0.1817  0.6692
   33SOL    HW2  239   0.179   3.536   0.452 -0.0505  2.6348  2.5594
   33SOL    HW3  240   0.306   3.614   0.480  2.6965 -0.7830  0.2007
   33SOL    MW4  241   0.260   3.540   0.483  0.7662  0.3781  0.8568
   34SOL     OW  242   0.341   3.802   0.508 -0.3395  0.3406 -0.3909
   34SOL    HW2  243   0.333   3.867   0.578  0.1001  0.8554 -0.8185
   34SOL    HW3  244   0.430   3.814   0.475 -0.0032 -0.9671  0.0156
   34SOL    MW4  245   0.352   3.812   0.513 -0.2371  0.2363 -0.3937
   35SOL     OW  246   0.671   4.559   0.364 -0.6651 -0.8784  0.2902
   35SOL    HW2  247   0.706   4.639   0.405 -0.2401 -0.0367 -1.6854
   35SOL    HW3  248   0.738   4.532   0.302 -1.7191 -1.5830 -0.5633
   35SOL    MW4  249   0.684   4.566   0.361 -0.7481 -0.8597 -0.0830
   36SOL     OW  250   0.316   0.227   0.438 -0.4705 -0.0940 -0.0982
   36SOL    HW2  251   0.351   0.219   0.527 -0.3101 -0.5464 -0.2041
   36SOL    HW3  252   0.225   0.200   0.446 -0.7308  0.8177  0.1224
   36SOL    MW4  253   0.309   0.223   0.451 -0.4836 -0.0335 -0.0831
   37SOL     OW  254   4.389   0.542   0.459 -0.2672 -0.6593 -0.5847
   37SOL    HW2  255   4.482   0.519   0.451 -0.4773 -1.2307 -1.4803
   37SOL    HW3  256   4.381   0.625   0.411 -0.3579 -0.9796 -1.1237
   37SOL    MW4  257   4.400   0.550   0.452 -0.3071 -0.7770 -0.7740
   38SOL     OW  258   1.014   4.422   0.501 -0.2269 -0.0577 -0.3233
   38SOL    HW2  259   0.921   4.401   0.508 -0.1278 -0.3196  0.2743
   38SOL    HW3  260   1.045   4.422   0.592  0.5223 -0.7377 -0.5736
   38SOL    MW4  261   1.006   4.419   0.514 -0.1150 -0.1822 -0.2775
   39SOL     OW  262   0.859   1.064   0.317 -0.6021  0.5525 -0.3017
   39SOL    HW2  263   0.790   1.007   0.351 -0.0607 -0.1260 -0.3177
   39SOL    HW3  264   0.845   1.065   0.223 -0.3506  0.0832 -0.3478
   39SOL    MW4  265   0.848   1.057   0.309 -0.4975  0.4011 -0.3099
   40SOL     OW  266   0.982   0.529   0.429  0.1458  0.1613  0.1904
   40SOL    HW2  267   0.988   0.612   0.476  0.1972 -0.0965  0.6418
   40SOL    HW3  268   1.044   0.471   0.474  1.5853  0.4731 -1.3666
   40SOL    MW4  269   0.991   0.532   0.441  0.3425  0.1684  0.0446
   41SOL     OW  270   0.193   1.142   0.473 -0.2081 -0.6578 -0.1186
   41SOL    HW2  271   0.112   1.092   0.467 -0.3535 -0.4648  0.2126
   41SOL    HW3  272   0.262   1.079   0.455 -0.4366 -0.8093 -0.4664
   41SOL    MW4  273   0.191   1.127   0.470 -0.2574 -0.6523 -0.1208
   42SOL     OW  274   0.454   1.716   0.495 -0.0266  0.2214  0.2873
   42SOL    HW2  275   0.529   1.657   0.489 -0.8866 -0.8625  0.0041
   42SOL    HW3  276   0.389   1.678   0.436 -0.6562  1.3720  0.2227
   42SOL    MW4  277   0.455   1.703   0.486 -0.2232  0.2302  0.2414
   43SOL     OW  278   0.211   1.605   0.365 -0.0114  0.4642  0.3180
   43SOL    HW2  279   0.149   1.558   0.420  0.6852 -1.4613 -0.5030
   43SOL    HW3  280   0.157   1.662   0.311 -0.8723  0.5547  1.2686
   43SOL    MW4  281   0.196   1.607   0.365 -0.0330  0.2221  0.3351
   44SOL     OW  282   0.260   2.804   0.476  0.1014 -0.0414  0.0310
   44SOL    HW2  283   0.325   2.818   0.406  0.6869  0.5521  0.6852
   44SOL    HW3  284   0.198   2.742   0.438  1.2554 -0.9097 -0.4760
   44SOL    MW4  285   0.261   2.798   0.462  0.3309 -0.0780  0.0504
   45SOL     OW  286   4.435   3.006   0.329 -0.0955 -0.0987  0.2861
   45SOL    HW2  287   4.513   3.058   0.350 -0.6928  0.4300  1.2543
   45SOL    HW3  288   4.361   3.064   0.347 -0.7281 -0.7122 -0.2831
   45SOL    MW4  289   4.435   3.020   0.334 -0.2575 -0.1097  0.3387
   46SOL     OW  290   3.719   2.314   0.494 -0.3204 -0.4100  0.3888
   46SOL    HW2  291   3.692   2.336   0.584 -0.8918 -1.0588  0.3826
   46SOL    HW3  292   3.663   2.240   0.470  0.2045 -0.5850 -0.3099
   46SOL    MW4  293   3.708   2.307   0.503 -0.3262 -0.5188  0.2958
   47SOL     OW  294   0.669   2.667   0.436  0.4095 -0.3439  0.2085
   47SOL    HW2  295   0.691   2.755   0.467 -0.0858 -0.4909  1.0000
   47SOL    HW3  296   0.753   2.629   0.411  0.8166 -0.1800  1.2777
   47SOL    MW4  297   0.683   2.674   0.437  0.3979 -0.3421  0.4540
   48SOL     OW  298   0.470   2.811   0.299 -0.5407 -0.2043  0.2738
   48SOL    HW2  299   0.546   2.758   0.324 -0.1814 -0.3226 -1.0281
   48SOL    HW3  300   0.505   2.900   0.290 -0.3636 -0.4018 -1.1420
   48SOL    MW4  301   0.485   2.816   0.301 -0.4700 -0.2463 -0.0848
   49SOL     OW  302   4.257   3.260   0.404  0.3368  0.3849  0.2060
   49SOL    HW2  303   4.332   3.271   0.461  0.9889 -1.2604 -0.3011
   49SOL    HW3  304   4.182   3.251   0.463  0.9225 -0.6880  0.7815
   49SOL    MW4  305   4.257   3.260   0.419  0.4997  0.0262  0.2150
   50SOL     OW  306   0.200   3.122   0.436  0.0226  0.4033  0.4435
   50SOL    HW2  307   0.283   3.170   0.427 -0.6860  1.4221 -0.8298
   50SOL    HW3  308   0.226   3.029   0.434  1.0435  0.6965 -1.0344
   50SOL    MW4  309   0.214   3.116   0.435  0.0638  0.5765  0.0806
   51SOL     OW  310   0.896   4.461   0.249 -0.6301  0.3034  0.0739
   51SOL    HW2  311   0.894   4.393   0.181 -0.6282 -0.7851  1.1380
   51SOL    HW3  312   0.950   4.423   0.319  0.7364  2.0523  0.0170
   51SOL    MW4  313   0.903   4.447   0.249 -0.4495  0.3905  0.2068
   52SOL     OW  314   4.485   3.304   0.540 -0.2341 -0.2496 -0.3924
   52SOL    HW2  315   4.503   3.387   0.496 -0.8543 -0.6390 -1.3955
   52SOL    HW3  316   4.561   3.250   0.520 -0.5647 -0.4627 -1.0770
   52SOL    MW4  317   4.498   3.308   0.532 -0.3596 -0.3290 -0.6151
   53SOL     OW  318   0.721   3.626   0.491  0.2851  0.5964  0.4882
   53SOL    HW2  319   0.669   3.705   0.478  1.0252  1.3683  2.1158
   53SOL    HW3  320   0.726   3.615   0.586  1.7257 -0.3600  0.3173
   53SOL    MW4  321   0.715   3.635   0.502  0.5728  0.5720  0.6804
   54SOL     OW  322   1.172   3.425   0.481  0.0941 -0.1764 -0.1651
   54SOL    HW2  323   1.187   3.493   0.415  0.0379  0.3900  0.4090
   54SOL    HW3  324   1.088   3.387   0.456 -0.3258  0.5936  0.0596
   54SOL    MW4  325   1.163   3.429   0.469  0.0314  0.0000 -0.0597
   55SOL     OW  326   0.459   4.102   0.494  0.0037  0.5979  0.0976
   55SOL    HW2  327   0.431   4.064   0.577 -0.9577 -1.0075 -0.9290
   55SOL    HW3  328   0.389   4.162   0.469  0.1977  0.9271  0.3410
   55SOL    MW4  329   0.446   4.105   0.501 -0.0975  0.4296 -0.0058
   56SOL     OW  330   0.967   3.789   0.407  0.1305 -0.1845  0.0431
   56SOL    HW2  331   0.947   3.869   0.454 -0.3306  0.8470 -1.8462
   56SOL    HW3  332   0.904   3.725   0.440 -1.0753  0.8899 -0.1317
   56SOL    MW4  333   0.956   3.791   0.418 -0.0895  0.0935 -0.2292
   57SOL     OW  334   0.763   4.349   0.537  0.1054 -0.4001  0.2046
   57SOL    HW2  335   0.713   4.410   0.483  0.2051  0.3985  0.9966
   57SOL    HW3  336   0.736   4.369   0.627  1.3783 -0.3933  0.5922
   57SOL    MW4  337   0.752   4.360   0.542  0.2865 -0.2937  0.3602
   58SOL     OW  338   0.718   0.391   0.446  0.3492 -0.0796  0.2119
   58SOL    HW2  339   0.790   0.434   0.398  1.2326 -0.0111  1.5678
   58SOL    HW3  340   0.734   0.297   0.433  0.8549 -0.0692  0.7597
   58SOL    MW4  341   0.730   0.384   0.438  0.5325 -0.0692  0.4631
   59SOL     OW  342   0.570   0.636   0.485  0.1691  0.4357 -0.2880
   59SOL    HW2  343   0.602   0.548   0.467  1.0341  1.0026 -1.6823
   59SOL    HW3  344   0.494   0.646   0.428  0.4461  0.7996 -0.6002
   59SOL    MW4  345   0.564   0.626   0.475  0.3197  0.5585 -0.5131
   60SOL     OW  346   0.307   0.690   0.380 -0.4801  0.1194  0.8027
   60SOL    HW2  347   0.261   0.617   0.421  0.2491 -0.0884  1.2692
   60SOL    HW3  348   0.239   0.741   0.338 -0.9537 -0.9984  0.2135
   60SOL    MW4  349   0.292   0.687   0.380 -0.4464 -0.0555  0.7865
   61SOL     OW  350   1.446   0.655   0.358  0.3191 -0.1533 -0.1409
   61SOL    HW2  351   1.355   0.653   0.328  0.2898 -0.9306 -0.0188
   61SOL    HW3  352   1.491   0.593   0.300  0.5762 -0.4849  0.4140
   61SOL    MW4  353   1.440   0.647   0.346  0.3492 -0.2996 -0.0516
   62SOL     OW  354   1.565   0.891   0.430 -0.1259  0.0937 -0.2384
   62SOL    HW2  355   1.520   0.810   0.404 -0.8686  0.4526 -0.0869
   62SOL    HW3  356   1.495   0.956   0.436  0.2828  0.4207  0.9756
   62SOL    MW4  357   1.550   0.889   0.427 -0.1699  0.1842 -0.0582
   63SOL     OW  358   1.178   0.660   0.271 -0.2401  0.2693 -0.2299
   63SOL    HW2  359   1.154   0.747   0.303 -1.0395  0.6188 -1.7559
   63SOL    HW3  360   1.111   0.602   0.309 -0.8074  0.5926 -0.7199
   63SOL    MW4  361   1.166   0.663   0.280 -0.4205  0.3580 -0.4959
   64SOL     OW  362   0.691   1.581   0.452 -0.3253 -0.7034  0.1473
   64SOL    HW2  363   0.707   1.489   0.429 -0.6107 -0.5187 -0.8104
   64SOL    HW3  364   0.766   1.628   0.416 -1.8209 -0.1362 -2.3391
   64SOL    MW4  365   0.703   1.575   0.444 -0.5603 -0.6042 -0.3071
   65SOL     OW  366   0.790   1.318   0.420 -0.0145 -0.1038  0.2944
   65SOL    HW2  367   0.792   1.237   0.369 -0.7439 -0.8427  1.3978
   65SOL    HW3  368   0.879   1.352   0.415  0.4400 -1.2666  0.2479
   65SOL    MW4  369   0.802   1.311   0.413 -0.0508 -0.3546  0.4339
   66SOL     OW  370   1.839   1.469   0.255 -0.1448  0.0826 -0.3916
   66SOL    HW2  371   1.849   1.519   0.336 -1.8163 -0.3940  0.1205
   66SOL    HW3  372   1.886   1.521   0.189  1.3914  0.3696  0.9074
   66SOL    MW4  373   1.847   1.482   0.257 -0.1626  0.0576 -0.1526
   67SOL     OW  374   1.054   1.419   0.438  0.0183 -0.0027 -0.1010
   67SOL    HW2  375   1.131   1.430   0.383 -0.3266  0.0269 -0.5727
   67SOL    HW3  376   1.024   1.508   0.454  1.7991  0.2073  2.5280
   67SOL    MW4  377   1.061   1.432   0.433  0.2078  0.0290  0.1836
   68SOL     OW  378   0.989   1.710   0.473 -0.2506 -0.5796  0.1735
   68SOL    HW2  379   1.084   1.721   0.471 -0.3645  0.2421 -0.6420
   68SOL    HW3  380   0.969   1.699   0.566  0.3285  2.1101  0.6704
   68SOL    MW4  381   0.999   1.710   0.485 -0.1892 -0.1162  0.1314
   69SOL     OW  382   0.558   1.981   0.488  0.1684 -0.1858  0.2076
   69SOL    HW2  383   0.529   1.890   0.496 -0.6067  0.0867  0.5659
   69SOL    HW3  384   0.645   1.975   0.450 -0.4314 -1.0156 -1.0789
   69SOL    MW4  385   0.565   1.969   0.484 -0.0129 -0.2592  0.0851
   70SOL     OW  386   1.025   2.149   0.431 -0.3656 -0.0219  0.1657
   70SOL    HW2  387   1.100   2.091   0.445 -0.3161 -0.0177 -0.0808
   70SOL    HW3  388   1.018   2.198   0.513  0.6452  0.8190 -0.2409
   70SOL    MW4  389   1.034   2.148   0.444 -0.2258  0.0894  0.0795
   71SOL     OW  390   0.950   2.567   0.433 -0.0197  0.3881  0.5117
   71SOL    HW2  391   1.001   2.507   0.379 -2.3207 -0.8023 -0.3997
   71SOL    HW3  392   0.962   2.534   0.523 -0.1479 -0.6161  0.1701
   71SOL    MW4  393   0.958   2.555   0.438 -0.3403  0.0987  0.3464
   72SOL     OW  394   0.843   1.934   0.454  0.2940 -0.2002  0.1469
   72SOL    HW2  395   0.905   2.007   0.448  0.4253 -0.4223 -1.7005
   72SOL    HW3  396   0.897   1.858   0.474  0.3560 -0.0383  0.5884
   72SOL    MW4  397   0.859   1.934   0.456  0.3195 -0.2080 -0.0387
   73SOL     OW  398   1.109   2.797   0.426  0.5337 -0.1285  0.4503
   73SOL    HW2  399   1.044   2.726   0.423  1.0255 -0.6226  1.2334
   73SOL    HW3  400   1.059   2.876   0.406  0.1734 -0.8146 -1.4743
   73SOL    MW4  401   1.093   2.798   0.423  0.5510 -0.2844  0.2997
   74SOL     OW  402   0.093   2.602   0.393  0.1225 -0.4831  0.1274
   74SOL    HW2  403   0.155   2.539   0.431 -0.0036 -0.1569  0.8914
   74SOL    HW3  404   0.103   2.592   0.299 -0.9730 -2.7062  0.2230
   74SOL    MW4  405   0.103   2.592   0.386 -0.0386 -0.7331  0.2408
   75SOL     OW  406   0.727   2.932   0.516  0.1096  0.2089  0.0341
   75SOL    HW2  407   0.708   2.924   0.609  1.5739 -0.8259  0.2542
   75SOL    HW3  408   0.670   3.004   0.486 -0.4994  0.4265  1.6667
   75SOL    MW4  409   0.717   2.941   0.524  0.2224  0.1011  0.2785
   76SOL     OW  410   0.950   3.267   0.469 -0.3153 -0.1614 -0.0913
   76SOL    HW2  411   0.943   3.263   0.565  0.4040 -0.2332 -0.0404
   76SOL    HW3  412   0.867   3.306   0.441 -0.5847 -0.2526  0.5503
   76SOL    MW4  413   0.938   3.271   0.478 -0.2559 -0.1829  0.0000
   77SOL     OW  414   1.532   3.818   0.349  0.0636 -0.3507 -0.1708
   77SOL    HW2  415   1.521   3.785   0.260 -0.2660 -0.7106  0.0024
   77SOL    HW3  416   1.511   3.744   0.405  2.0874 -0.6862  0.1930
   77SOL    MW4  417   1.528   3.804   0.345  0.2871 -0.4427 -0.0999
   78SOL     OW  418   1.134   4.166   0.398 -0.3806  0.5054  0.2243
   78SOL    HW2  419   1.122   4.256   0.430  1.5407 -0.1038  2.8504
   78SOL    HW3  420   1.058   4.118   0.433  0.5253  0.3364  2.0124
   78SOL    MW4  421   1.122   4.171   0.407 -0.0076  0.4029  0.8067
   79SOL     OW  422   0.618   3.888   0.424  0.1270  0.2787 -0.0013
   79SOL    HW2  423   0.688   3.914   0.364 -0.1459 -0.2238 -0.5331
   79SOL    HW3  424   0.569   3.969   0.440  1.3514  0.8288  1.0754
   79SOL    MW4  425   0.620   3.902   0.418  0.2525  0.2849  0.0706
   80SOL     OW  426   1.018   0.011   0.389 -0.7400 -0.1823 -0.2304
   80SOL    HW2  427   0.971  -0.016   0.310 -0.4074 -1.7602  0.1049
   80SOL    HW3  428   1.018  -0.066   0.445  0.7780  0.3033  0.4692
   80SOL    MW4  429   1.012  -0.003   0.386 -0.4958 -0.3262 -0.0938
   81SOL     OW  430   1.161   0.378   0.568  0.5542  0.7714 -0.0075
   81SOL    HW2  431   1.180   0.285   0.554  2.0827  0.9345  0.9006
   81SOL    HW3  432   1.243   0.423   0.550 -0.1101  1.9356 -0.2117
   81SOL    MW4  433   1.174   0.372   0.564  0.6682  0.9466  0.0854
   82SOL     OW  434   0.790   0.112   0.487  0.7162  0.0823 -0.1781
   82SOL    HW2  435   0.870   0.074   0.452  0.1626 -0.5011 -0.8229
   82SOL    HW3  436   0.799   0.105   0.582  2.2448  1.6972 -0.1810
   82SOL    MW4  437   0.802   0.106   0.495  0.8448  0.2184 -0.2635
   83SOL     OW  438   1.444   0.447   0.546 -0.1144 -0.3332  0.3477
   83SOL    HW2  439   1.491   0.480   0.622 -0.3791 -0.0545  0.3936
   83SOL    HW3  440   1.455   0.516   0.480 -0.0786 -0.4702  0.2115
   83SOL    MW4  441   1.451   0.461   0.547 -0.1446 -0.3145  0.3358
   84SOL     OW  442   1.788   0.691   0.389  0.3559  0.0003 -0.2270
   84SOL    HW2  443   1.841   0.612   0.402 -0.2247 -0.0185  2.4187
   84SOL    HW3  444   1.741   0.676   0.308  2.0357 -1.3543 -0.9757
   84SOL    MW4  445   1.789   0.679   0.380  0.5008 -0.1810  0.0233
   85SOL     OW  446   1.249   0.125   0.492  0.3839 -0.7757 -0.4303
   85SOL    HW2  447   1.178   0.082   0.444  1.1992 -0.8571 -1.5872
   85SOL    HW3  448   1.328   0.102   0.443  0.8217  2.3158 -1.3004
   85SOL    MW4  449   1.250   0.116   0.479  0.5492 -0.3786 -0.6977
   86SOL     OW  450   2.043   0.071   0.417 -0.0159 -0.2047  0.1941
   86SOL    HW2  451   1.991   0.008   0.367 -0.2228  0.0029  0.1459
   86SOL    HW3  452   2.130   0.031   0.422  0.4143  0.4291 -1.5974
   86SOL    MW4  453   2.048   0.057   0.411  0.0136 -0.0937 -0.0487
   87SOL     OW  454   2.183   0.331   0.379 -0.0194 -0.3465 -0.2159
   87SOL    HW2  455   2.154   0.240   0.389 -2.0368  0.3138  0.3572
   87SOL    HW3  456   2.272   0.332   0.414  0.2618 -2.2188 -0.7962
   87SOL    MW4  457   2.191   0.319   0.385 -0.2487 -0.5064 -0.2169
   88SOL     OW  458   1.335   1.053   0.480 -0.7488  0.1037 -0.5050
   88SOL    HW2  459   1.309   1.031   0.569 -0.9016  0.6033 -0.4243
   88SOL    HW3  460   1.270   1.009   0.425  0.0227 -1.1615 -0.4155
   88SOL    MW4  461   1.323   1.044   0.484 -0.6672  0.0027 -0.4825
   89SOL     OW  462   1.484   1.294   0.443  0.3561  0.0863  0.0485
   89SOL    HW2  463   1.420   1.223   0.445 -0.1927  0.5829  0.2636
   89SOL    HW3  464   1.568   1.251   0.425  0.5116 -1.0081  3.0710
   89SOL    MW4  465   1.487   1.279   0.441  0.3043  0.0074  0.4756
   90SOL     OW  466   1.355   1.508   0.300  0.0402 -0.0303 -0.4349
   90SOL    HW2  467   1.405   1.529   0.221 -0.9869 -1.1796 -1.4093
   90SOL    HW3  468   1.410   1.445   0.347  1.4118  1.8823  0.6374
   90SOL    MW4  469   1.369   1.502   0.296  0.0856  0.0703 -0.4220
   91SOL     OW  470   1.266   1.730   0.489  0.1882 -0.1936  0.3085
   91SOL    HW2  471   1.296   1.705   0.577  0.3788  0.0969  0.3250
   91SOL    HW3  472   1.298   1.660   0.432  0.7904  0.0537  0.3446
   91SOL    MW4  473   1.274   1.717   0.493  0.2929 -0.1225  0.3154
   92SOL     OW  474   1.094   2.365   0.270  0.4431 -0.2160 -0.4365
   92SOL    HW2  475   1.082   2.277   0.306  1.4899 -0.5096 -0.7932
   92SOL    HW3  476   1.185   2.387   0.288  0.4685  0.3846 -1.2340
   92SOL    MW4  477   1.104   2.356   0.277  0.5846 -0.1752 -0.5888
   93SOL     OW  478   1.336   2.725   0.296  0.3834 -0.1568 -0.1023
   93SOL    HW2  479   1.261   2.753   0.348  0.3052  1.5373 -1.0960
   93SOL    HW3  480   1.412   2.759   0.344  0.4128 -0.2555 -0.0795
   93SOL    MW4  481   1.336   2.733   0.309  0.3771  0.0539 -0.2304
   94SOL     OW  482   2.037   2.009   0.451 -0.1066  0.0961  0.1896
   94SOL    HW2  483   2.054   2.012   0.545  2.0059  1.4458 -0.1959
   94SOL    HW3  484   2.123   1.995   0.411 -1.0374 -0.8811 -1.5273
   94SOL    MW4  485   2.051   2.008   0.458  0.0494  0.1452 -0.0878
   95SOL     OW  486   1.562   2.046   0.433  0.6012 -0.2717 -0.4237
   95SOL    HW2  487   1.588   2.134   0.407  1.7656 -0.1119  1.2148
   95SOL    HW3  488   1.466   2.047   0.430  0.6349  0.8402 -1.0734
   95SOL    MW4  489   1.553   2.057   0.429  0.7594 -0.1042 -0.2933
   96SOL     OW  490   0.270   2.396   0.482 -0.2524 -0.0901  0.4918
   96SOL    HW2  491   0.291   2.303   0.483 -1.8203 -0.4860 -0.6401
   96SOL    HW3  492   0.347   2.439   0.519  0.7525 -1.7797  0.4055
   96SOL    MW4  493   0.283   2.390   0.487 -0.3267 -0.3653  0.3311
   97SOL     OW  494   0.960   3.012   0.356 -0.2843  0.2826 -0.0349
   97SOL    HW2  495   0.876   2.976   0.385 -0.3942  0.4729 -0.1144
   97SOL    HW3  496   0.961   3.101   0.392 -1.1276  1.0963 -1.9456
   97SOL    MW4  497   0.949   3.019   0.365 -0.4100  0.4148 -0.2975
   98SOL     OW  498   1.966   2.260   0.387 -0.6587 -0.2133 -0.6406
   98SOL    HW2  499   2.049   2.304   0.367  0.0737 -0.6178  1.4255
   98SOL    HW3  500   1.991   2.171   0.410 -1.5419 -0.0468  1.0538
   98SOL    MW4  501   1.980   2.254   0.387 -0.6787 -0.2446 -0.1444
   99SOL     OW  502   1.591   4.216   0.337 -0.5386 -0.1063 -0.2859
   99SOL    HW2  503   1.520   4.179   0.390  0.5027  0.5969  1.6429
   99SOL    HW3  504   1.666   4.160   0.356  0.4829  1.6129  0.9646
   99SOL    MW4  505   1.592   4.204   0.347 -0.2663  0.2136  0.1336
  100SOL     OW  506   1.395   4.062   0.479 -0.2700  0.2567  0.0613
  100SOL    HW2  507   1.428   3.989   0.427 -2.5440 -1.7374  1.2658
  100SOL    HW3  508   1.312   4.085   0.437 -1.0403  0.1041  1.4689
  100SOL    MW4  509   1.388   4.055   0.467 -0.6716 -0.0267  0.4060
  101SOL     OW  510   1.790   2.639   0.362  0.1133  0.2120  0.4505
  101SOL    HW2  511   1.865   2.697   0.372 -0.2230  0.7833 -0.2332
  101SOL    HW3  512   1.716   2.699   0.345 -0.7873 -0.2294  2.6319
  101SOL    MW4  513   1.790   2.655   0.361 -0.0499  0.2291  0.6481
  102SOL     OW  514   1.537   3.434   0.194  0.3272  0.5034  0.0305
  102SOL    HW2  515   1.606   3.429   0.259 -0.8570 -0.5666  1.2323
  102SOL    HW3  516   1.482   3.357   0.210 -0.9538  1.1500 -1.0901
  102SOL    MW4  517   1.539   3.423   0.205  0.0020  0.4475  0.0412
  103SOL     OW  518   1.351   3.268   0.326 -0.5598  0.3594 -0.3819
  103SOL    HW2  519   1.306   3.188   0.299  0.2746  0.4198 -1.9591
  103SOL    HW3  520   1.301   3.298   0.403 -1.1901 -1.3738 -0.0893
  103SOL    MW4  521   1.338   3.262   0.333 -0.5329  0.1388 -0.5514
  104SOL     OW  522   1.472   3.542   0.461 -0.0936  0.2667 -0.3271
  104SOL    HW2  523   1.388   3.586   0.445 -0.1721 -0.0664 -0.8576
  104SOL    HW3  524   1.475   3.472   0.395  0.7461  0.4760 -0.5135
  104SOL    MW4  525   1.461   3.538   0.450  0.0068  0.2503 -0.4216
  105SOL     OW  526   0.886   4.086   0.511  0.1225 -0.2422  0.5104
  105SOL    HW2  527   0.892   4.062   0.603  0.4758 -1.0810  0.2720
  105SOL    HW3  528   0.845   4.173   0.511 -0.8478 -0.6947  1.3980
  105SOL    MW4  529   0.881   4.095   0.523  0.0411 -0.4125  0.5961
  106SOL     OW  530   2.823   0.261   0.277  0.6732 -0.1667 -0.0482
  106SOL    HW2  531   2.785   0.347   0.263  0.2788 -0.3770 -0.2897
  106SOL    HW3  532   2.873   0.243   0.197  0.3853 -0.3499 -0.1901
  106SOL    MW4  533   2.824   0.270   0.264  0.5829 -0.2186 -0.0988
  107SOL     OW  534   2.052   4.378   0.477  0.3778  0.1714 -0.5725
  107SOL    HW2  535   1.992   4.432   0.426 -0.8816 -0.7908 -0.1431
  107SOL    HW3  536   2.033   4.288   0.448  0.2785 -0.2984  0.9234
  107SOL    MW4  537   2.041   4.373   0.466  0.1986 -0.0176 -0.3185
  108SOL     OW  538   1.810   0.216   0.555  0.0824 -0.0202  0.1939
  108SOL    HW2  539   1.811   0.206   0.651 -1.1502 -1.4954  0.0769
  108SOL    HW3  540   1.888   0.168   0.526 -0.3483 -0.8521  0.3727
  108SOL    MW4  541   1.821   0.208   0.564 -0.1370 -0.3246  0.2021
  109SOL     OW  542   1.603   0.278   0.386 -0.1502 -0.7880 -0.0647
  109SOL    HW2  543   1.544   0.327   0.443 -0.7029  1.1026 -2.1888
  109SOL    HW3  544   1.683   0.267   0.437  0.4044  3.3921  0.0748
  109SOL    MW4  545   1.606   0.283   0.400 -0.1500  0.0129 -0.3265
  110SOL     OW  546   1.963   0.462   0.492  0.3560 -0.0163 -0.4761
  110SOL    HW2  547   1.913   0.382   0.512 -0.5892  0.2388 -1.7565
  110SOL    HW3  548   2.045   0.430   0.455  0.6201 -0.4173  0.4344
  110SOL    MW4  549   1.967   0.447   0.490  0.2662 -0.0356 -0.5249
  111SOL     OW  550   2.150   1.403   0.477 -0.6703 -0.0746  0.2761
  111SOL    HW2  551   2.236   1.367   0.456 -0.8809 -0.5428  0.2025
  111SOL    HW3  552   2.155   1.494   0.450 -0.5348 -0.3617 -0.7032
  111SOL    MW4  553   2.162   1.410   0.470 -0.6800 -0.1743  0.1372
  112SOL     OW  554   1.993   0.956   0.385 -0.4631  0.3476  0.3614
  112SOL    HW2  555   2.008   1.047   0.361 -0.9002  0.2558 -0.2901
  112SOL    HW3  556   2.075   0.912   0.364 -0.1799  0.6294  0.8767
  112SOL    MW4  557   2.006   0.962   0.379 -0.4833  0.3727  0.3434
  113SOL     OW  558   1.745   1.142   0.490  0.3095  0.4234 -0.0691
  113SOL    HW2  559   1.818   1.200   0.472  0.5919 -0.0621 -0.4914
  113SOL    HW3  560   1.715   1.168   0.578 -0.1365  1.7854 -0.6078
  113SOL    MW4  561   1.750   1.153   0.499  0.2878  0.5392 -0.1958
  114SOL     OW  562   2.426   1.370   0.430 -0.8268 -0.2097 -0.3771
  114SOL    HW2  563   2.470   1.453   0.446 -1.4971  0.1622 -0.4641
  114SOL    HW3  564   2.493   1.316   0.388 -0.5477  0.4555 -0.7997
  114SOL    MW4  565   2.441   1.374   0.427 -0.8786 -0.0727 -0.4443
  115SOL     OW  566   2.132   1.680   0.487 -0.2216 -0.3198  0.7873
  115SOL    HW2  567   2.173   1.758   0.448 -0.9527 -1.4749 -2.5245
  115SOL    HW3  568   2.038   1.700   0.484 -0.3462 -0.8896  0.9041
  115SOL    MW4  569   2.125   1.693   0.481 -0.3345 -0.5475  0.3657
  116SOL     OW  570   1.783   1.902   0.376 -0.1679 -0.7183 -0.2557
  116SOL    HW2  571   1.853   1.961   0.403  0.2676 -1.5077  0.3196
  116SOL    HW3  572   1.702   1.950   0.397  0.1854 -0.3738  0.3087
  116SOL    MW4  573   1.781   1.916   0.382 -0.0639 -0.7771 -0.1053
  117SOL     OW  574   2.215   2.368   0.311 -0.3429 -0.1101  0.2591
  117SOL    HW2  575   2.197   2.399   0.222  0.1691 -1.6187 -0.3866
  117SOL    HW3  576   2.219   2.448   0.364 -2.0649  0.7156 -0.8075
  117SOL    MW4  577   2.213   2.383   0.307 -0.5028 -0.2000  0.0332
  118SOL     OW  578   1.791   3.168   0.458 -0.4659 -0.3814  0.0060
  118SOL    HW2  579   1.871   3.130   0.422  0.3188 -0.5670  1.8684
  118SOL    HW3  580   1.799   3.262   0.442  0.3778 -0.3405  0.6104
  118SOL    MW4  581   1.803   3.175   0.451 -0.2512 -0.4003  0.3315
  119SOL     OW  582   1.571   2.823   0.432 -0.4353  0.1438 -0.2922
  119SOL    HW2  583   1.544   2.908   0.468 -2.4190 -0.3634 -0.5369
  119SOL    HW3  584   1.589   2.769   0.509 -0.0168  0.5171 -0.1263
  119SOL    MW4  585   1.570   2.828   0.447 -0.6419  0.1261 -0.3026
  120SOL     OW  586   1.243   3.019   0.231  0.0742  0.3791  0.2931
  120SOL    HW2  587   1.155   2.992   0.256 -0.1322 -1.1591 -1.9878
  120SOL    HW3  588   1.298   2.942   0.247  0.8813  1.0698  0.9401
  120SOL    MW4  589   1.239   3.006   0.236  0.1534  0.2673  0.0775
  121SOL     OW  590   1.265   2.020   0.483  0.1226  0.5783 -0.2339
  121SOL    HW2  591   1.226   2.030   0.569 -0.0384 -0.8591 -0.1149
  121SOL    HW3  592   1.259   1.926   0.465  1.7005  0.6215 -1.0814
  121SOL    MW4  593   1.259   2.009   0.492  0.3095  0.3946 -0.3300
  122SOL     OW  594   3.530   2.096   0.490 -0.3848  0.0814 -0.0225
  122SOL    HW2  595   3.504   2.067   0.578  0.3185  2.6533  1.0942
  122SOL    HW3  596   3.447   2.116   0.446 -0.7669 -1.7294 -0.1613
  122SOL    MW4  597   3.516   2.095   0.496 -0.3424  0.1819  0.1065
  123SOL     OW  598   1.788   2.433   0.530  0.2488 -0.2521  0.0409
  123SOL    HW2  599   1.797   2.498   0.460  0.2499  0.1041  0.3662
  123SOL    HW3  600   1.858   2.370   0.513 -0.1938 -0.5555 -0.6855
  123SOL    MW4  601   1.798   2.434   0.518  0.1905 -0.2453 -0.0120
  124SOL     OW  602   1.359   2.471   0.425 -0.1021  0.4849  0.0007
  124SOL    HW2  603   1.437   2.428   0.389 -0.5014  0.4724 -0.8633
  124SOL    HW3  604   1.354   2.554   0.379  0.8694  1.6406  1.9331
  124SOL    MW4  605   1.369   2.476   0.414 -0.0266  0.6356  0.1417
  125SOL     OW  606   1.493   3.114   0.499  0.0754 -0.0660  0.1354
  125SOL    HW2  607   1.445   3.160   0.429  1.1626  0.6001 -0.1785
  125SOL    HW3  608   1.585   3.136   0.484  0.4252 -0.8013  1.1371
  125SOL    MW4  609   1.499   3.123   0.488  0.2650 -0.0751  0.2262
  126SOL     OW  610   2.025   2.812   0.447 -0.1772  0.3017 -0.1643
  126SOL    HW2  611   2.100   2.754   0.439  1.1200  1.9016  0.2353
  126SOL    HW3  612   2.024   2.837   0.540 -0.8101  0.8131 -0.3052
  126SOL    MW4  613   2.035   2.808   0.458 -0.0896  0.5805 -0.1301
  127SOL     OW  614   1.762   3.978   0.427  0.0560  0.5557 -0.4696
  127SOL    HW2  615   1.684   3.929   0.400 -0.2241  1.5455 -1.4605
  127SOL    HW3  616   1.836   3.929   0.391 -0.1464  0.1145 -0.2895
  127SOL    MW4  617   1.761   3.965   0.419 -0.0076  0.6280 -0.5766
  128SOL     OW  618   1.637   4.479   0.455  0.5600 -0.1352 -0.0737
  128SOL    HW2  619   1.593   4.405   0.414 -0.4404  0.9758 -1.0561
  128SOL    HW3  620   1.617   4.471   0.548 -1.0982 -0.0612 -0.4184
  128SOL    MW4  621   1.629   4.468   0.462  0.2093  0.0210 -0.2488
  129SOL     OW  622   1.874   4.526   0.312  0.1480  0.3432 -0.1833
  129SOL    HW2  623   1.847   4.469   0.240 -0.7508  0.8128 -0.2218
  129SOL    HW3  624   1.794   4.539   0.364  0.5756  0.7678  0.3751
  129SOL    MW4  625   1.860   4.520   0.310  0.0859  0.4621 -0.1147
  130SOL     OW  626   1.500   0.030   0.360  0.1007  0.5497  0.3152
  130SOL    HW2  627   1.546   0.114   0.363  0.2116  0.6592 -2.7723
  130SOL    HW3  628   1.554  -0.029   0.413  1.0996  1.9343  0.8529
  130SOL    MW4  629   1.513   0.033   0.367  0.2471  0.7468 -0.0212
  131SOL     OW  630   2.426   0.387   0.490  0.1230 -0.5787 -0.0891
  131SOL    HW2  631   2.451   0.450   0.422 -0.7363 -0.8682 -0.6774
  131SOL    HW3  632   2.483   0.312   0.476 -0.4764 -0.8903 -0.8890
  131SOL    MW4  633   2.436   0.386   0.479 -0.0694 -0.6581 -0.2723
  132SOL     OW  634   2.330   0.039   0.435  0.0454  0.1197  0.2738
  132SOL    HW2  635   2.408   0.088   0.409 -1.3702  1.5626 -1.4090
  132SOL    HW3  636   2.359  -0.051   0.445  2.3529  0.9946  1.7300
  132SOL    MW4  637   2.344   0.034   0.433  0.1631  0.4255  0.2439
  133SOL     OW  638   2.500   0.883   0.329 -0.0325  0.1104 -0.0344
  133SOL    HW2  639   2.593   0.894   0.348 -0.0954  0.8111 -0.1049
  133SOL    HW3  640   2.484   0.939   0.253 -0.0215 -1.8180 -1.4691
  133SOL    MW4  641   2.510   0.892   0.322 -0.0393 -0.0515 -0.2330
  134SOL     OW  642   2.241   0.821   0.397 -0.5743  0.2221 -0.2669
  134SOL    HW2  643   2.246   0.744   0.339 -0.3724  0.8769 -1.1250
  134SOL    HW3  644   2.328   0.861   0.391 -0.8499  0.8196 -0.2254
  134SOL    MW4  645   2.253   0.816   0.389 -0.5839  0.3873 -0.3746
  135SOL     OW  646   3.234   0.679   0.203  0.1474  0.3081 -0.2918
  135SOL    HW2  647   3.256   0.586   0.204 -1.3963 -0.0657  1.6620
  135SOL    HW3  648   3.296   0.719   0.265  0.2083  0.4405 -0.4377
  135SOL    MW4  649   3.245   0.672   0.211 -0.0482  0.2763 -0.0533
  136SOL     OW  650   2.626   1.184   0.401  0.1300  0.4013  0.0335
  136SOL    HW2  651   2.603   1.112   0.460 -0.9558  0.6008 -0.1382
  136SOL    HW3  652   2.721   1.188   0.405  0.1829 -0.8655  0.2615
  136SOL    MW4  653   2.635   1.175   0.410 -0.0064  0.2604  0.0409
  137SOL     OW  654   2.958   0.688   0.315  0.1590 -0.3556 -0.7846
  137SOL    HW2  655   3.045   0.705   0.279  0.4021 -2.1017 -1.0535
  137SOL    HW3  656   2.969   0.610   0.368 -0.9654  0.2066  0.2960
  137SOL    MW4  657   2.971   0.680   0.317  0.0429 -0.5118 -0.6775
  138SOL     OW  658   2.503   1.646   0.464 -0.0378  0.5145 -0.0007
  138SOL    HW2  659   2.534   1.671   0.551  0.0274  0.3317  0.0283
  138SOL    HW3  660   2.556   1.700   0.404 -0.3491  0.9174  0.0858
  138SOL    MW4  661   2.514   1.657   0.467 -0.0703  0.5435  0.0145
  139SOL     OW  662   2.515   0.582   0.288 -0.1801  0.3862 -0.0767
  139SOL    HW2  663   2.501   0.677   0.281 -0.3537  0.2975 -1.0569
  139SOL    HW3  664   2.601   0.567   0.249  0.0561  0.1982  0.5170
  139SOL    MW4  665   2.524   0.593   0.282 -0.1719  0.3497 -0.1276
  140SOL     OW  666   2.310   1.911   0.422  0.3401  0.1329 -0.1365
  140SOL    HW2  667   2.366   1.845   0.464 -1.1949  0.6310  2.8708
  140SOL    HW3  668   2.358   1.993   0.433  0.2361  0.1645  0.0914
  140SOL    MW4  669   2.324   1.913   0.429  0.1237  0.2028  0.2904
  141SOL     OW  670   1.849   1.656   0.473  0.2312  0.2348 -0.4182
  141SOL    HW2  671   1.819   1.667   0.563  0.8504  0.4486 -0.2368
  141SOL    HW3  672   1.812   1.731   0.426 -0.3062 -0.0181 -0.3967
  141SOL    MW4  673   1.840   1.667   0.479  0.2419  0.2296 -0.3914
  142SOL     OW  674   2.408   2.209   0.447  0.4268 -0.3833 -0.4413
  142SOL    HW2  675   2.356   2.266   0.389  0.1818  0.7101  0.8238
  142SOL    HW3  676   2.498   2.237   0.432  0.3284  0.1829  0.0026
  142SOL    MW4  677   2.413   2.220   0.437  0.3815 -0.1643 -0.2159
  143SOL     OW  678   2.672   2.255   0.411 -0.0621  0.3250 -0.2634
  143SOL    HW2  679   2.677   2.346   0.440  1.0912  0.0125  0.5955
  143SOL    HW3  680   2.738   2.210   0.464 -0.5690 -0.9952 -0.7327
  143SOL    MW4  681   2.682   2.261   0.422  0.0231  0.1094 -0.2121
  144SOL     OW  682   2.493   2.752   0.461 -0.1292 -0.1301  0.1233
  144SOL    HW2  683   2.472   2.833   0.413 -2.3793 -1.0307 -0.4725
  144SOL    HW3  684   2.497   2.778   0.553  2.0119  1.1881 -0.3065
  144SOL    MW4  685   2.491   2.766   0.467 -0.1435 -0.0749 -0.0120
  145SOL     OW  686   1.598   2.337   0.356 -0.4215 -0.2476 -0.0144
  145SOL    HW2  687   1.641   2.370   0.277 -2.0263 -0.4197 -0.9901
  145SOL    HW3  688   1.653   2.367   0.428  0.8345  0.2827 -1.1776
  145SOL    MW4  689   1.611   2.346   0.355 -0.4675 -0.2003 -0.2966
  146SOL     OW  690   2.022   3.109   0.344  0.1194 -0.3478  0.5760
  146SOL    HW2  691   2.027   3.014   0.357  0.2690 -0.2328  1.3599
  146SOL    HW3  692   2.107   3.142   0.373 -0.1154  0.0841  0.7736
  146SOL    MW4  693   2.034   3.101   0.349  0.1082 -0.2756  0.7055
  147SOL     OW  694   1.984   3.566   0.443  0.2831 -0.2846 -0.5535
  147SOL    HW2  695   2.075   3.546   0.421  0.0354 -1.1274 -0.8323
  147SOL    HW3  696   1.988   3.596   0.534  0.8729 -0.0943 -0.6414
  147SOL    MW4  697   1.997   3.567   0.452  0.3283 -0.3705 -0.6019
  148SOL     OW  698   2.256   3.938   0.426 -0.1907  0.0784 -0.0339
  148SOL    HW2  699   2.314   3.863   0.419  1.2361  1.0924  0.5644
  148SOL    HW3  700   2.305   4.010   0.388 -0.6491  1.1762  1.3745
  148SOL    MW4  701   2.270   3.938   0.420 -0.0632  0.3572  0.2308
  149SOL     OW  702   1.436   3.686   0.117 -0.2523  0.4022  0.2767
  149SOL    HW2  703   1.476   3.604   0.144 -1.0101 -0.2480 -0.5306
  149SOL    HW3  704   1.439   3.684   0.021 -0.9520  0.9734  0.2389
  149SOL    MW4  705   1.442   3.675   0.108 -0.4448  0.3920  0.1652
  150SOL     OW  706   1.764   3.412   0.368 -0.0993 -0.2690  0.2645
  150SOL    HW2  707   1.809   3.369   0.295  0.8214  0.3063  0.4779
  150SOL    HW3  708   1.832   3.463   0.411 -1.1087  1.1562  0.2036
  150SOL    MW4  709   1.779   3.413   0.364 -0.1111 -0.0050  0.2846
  151SOL     OW  710   2.346   4.439   0.458  0.1521 -0.0817  0.0798
  151SOL    HW2  711   2.413   4.414   0.522 -0.1710  1.0592  0.8928
  151SOL    HW3  712   2.264   4.412   0.498 -0.0586  0.7034  0.1887
  151SOL    MW4  713   2.344   4.432   0.472  0.0813  0.1726  0.2014
  152SOL     OW  714   2.031   4.110   0.429 -0.0693 -0.4590 -0.1139
  152SOL    HW2  715   2.099   4.043   0.439  1.4799  0.7380 -2.2656
  152SOL    HW3  716   1.951   4.068   0.462  1.5793 -2.0553  2.0335
  152SOL    MW4  717   2.029   4.095   0.435  0.3526 -0.5112 -0.1145
  153SOL     OW  718   2.418   4.159   0.324 -0.0618 -0.3253  0.2083
  153SOL    HW2  719   2.406   4.254   0.331 -0.2685 -0.3679  0.4529
  153SOL    HW3  720   2.511   4.145   0.342 -0.1255 -0.2141  0.6231
  153SOL    MW4  721   2.429   4.170   0.328 -0.0975 -0.3166  0.2953
  154SOL     OW  722   1.952   3.814   0.307  0.0179 -0.0751 -0.4049
  154SOL    HW2  723   1.951   3.728   0.348 -0.0854 -0.0126 -0.2759
  154SOL    HW3  724   2.043   3.843   0.313 -0.1359  0.2580  0.4612
  154SOL    MW4  725   1.964   3.806   0.313 -0.0160 -0.0229 -0.2736
  155SOL     OW  726   2.686   3.798   0.450  0.2722 -0.0373  0.0077
  155SOL    HW2  727   2.606   3.746   0.442  0.2731 -0.1259  0.5924
  155SOL    HW3  728   2.663   3.882   0.411  0.0704 -0.2513 -0.3414
  155SOL    MW4  729   2.672   3.802   0.444  0.2458 -0.0772  0.0388
  156SOL     OW  730   2.235   0.596   0.228 -0.0849 -0.0305  0.0330
  156SOL    HW2  731   2.324   0.562   0.238  0.1694  0.3651 -0.8575
  156SOL    HW3  732   2.178   0.525   0.258  0.4889 -0.7128 -0.4800
  156SOL    MW4  733   2.239   0.582   0.234  0.0246 -0.0684 -0.1522
  157SOL     OW  734   1.642   0.493   0.206 -0.6697 -0.0351  0.3171
  157SOL    HW2  735   1.631   0.463   0.115 -0.3559  0.8229 -0.0074
  157SOL    HW3  736   1.648   0.413   0.257  1.8427 -0.5567 -0.7397
  157SOL    MW4  737   1.641   0.479   0.201 -0.2968  0.0093  0.1348
  158SOL     OW  738   3.206   0.402   0.344  0.1219 -0.4663 -0.2323
  158SOL    HW2  739   3.277   0.438   0.398 -0.5660 -0.1389  0.4561
  158SOL    HW3  740   3.225   0.308   0.338  0.5757 -0.3886  0.0043
  158SOL    MW4  741   3.218   0.394   0.350  0.0908 -0.4129 -0.1102
  159SOL     OW  742   1.964   1.252   0.355  0.3097  0.2112 -0.3480
  159SOL    HW2  743   2.033   1.308   0.390  0.5271  0.1446 -0.6691
  159SOL    HW3  744   1.911   1.310   0.300  0.5151  0.1082 -0.6537
  159SOL    MW4  745   1.966   1.267   0.353  0.3655  0.1888 -0.4307
  160SOL     OW  746   3.398   0.772   0.383 -0.1036  0.0682 -0.1290
  160SOL    HW2  747   3.477   0.825   0.368  0.1418 -0.1944  0.2184
  160SOL    HW3  748   3.339   0.830   0.431  0.2346 -0.0265  0.4082
  160SOL    MW4  749   3.401   0.787   0.388 -0.0267  0.0211 -0.0123
  161SOL     OW  750   3.120   1.347   0.392 -0.0060 -0.1132 -0.1136
  161SOL    HW2  751   3.130   1.442   0.399 -0.1489 -0.1344  0.4593
  161SOL    HW3  752   3.206   1.315   0.367 -0.1144  0.2263 -0.9200
  161SOL    MW4  753   3.132   1.355   0.390 -0.0391 -0.0712 -0.1444
  162SOL     OW  754   3.197   0.958   0.469 -0.5146 -0.1776 -0.4077
  162SOL    HW2  755   3.175   0.917   0.552 -0.8327 -2.0309 -1.3799
  162SOL    HW3  756   3.115   0.997   0.438 -0.4602  0.2640 -0.0103
  162SOL    MW4  757   3.184   0.958   0.476 -0.5496 -0.3639 -0.4835
  163SOL     OW  758   3.205   1.618   0.435 -0.6417 -0.4761 -0.2607
  163SOL    HW2  759   3.178   1.701   0.395 -0.0971 -0.1736 -0.0160
  163SOL    HW3  760   3.301   1.619   0.427 -0.4853 -0.1722  1.5068
  163SOL    MW4  761   3.214   1.629   0.428 -0.5496 -0.3960  0.0048
  164SOL     OW  762   2.678   0.099   0.707  0.3419  0.0817 -0.2978
  164SOL    HW2  763   2.609   0.052   0.753 -0.7990  0.4592 -1.5898
  164SOL    HW3  764   2.672   0.189   0.739 -0.7208  0.4370 -1.4530
  164SOL    MW4  765   2.668   0.105   0.717  0.0510  0.1784 -0.6207
  165SOL     OW  766   3.115   2.017   0.558  0.5938 -0.0078 -0.3212
  165SOL    HW2  767   3.027   2.048   0.579  2.1244  3.9175  0.6592
  165SOL    HW3  768   3.142   1.965   0.634 -1.1782 -2.0719 -1.0496
  165SOL    MW4  769   3.107   2.014   0.571  0.5617  0.2375 -0.2880
  166SOL     OW  770   2.678   2.535   0.483 -0.5574 -0.0049  0.0239
  166SOL    HW2  771   2.767   2.555   0.455 -0.0036 -0.0823  1.7047
  166SOL    HW3  772   2.632   2.619   0.480 -0.1956  0.1935 -0.0062
  166SOL    MW4  773   2.684   2.549   0.479 -0.4365  0.0110  0.2416
  167SOL     OW  774   2.911   1.164   0.438  0.1470  0.0826  0.3654
  167SOL    HW2  775   2.968   1.231   0.401  0.6200  0.3432  1.5426
  167SOL    HW3  776   2.899   1.191   0.529 -2.0933  0.1901  0.0669
  167SOL    MW4  777   2.917   1.177   0.445 -0.0861  0.1311  0.4813
  168SOL     OW  778   2.235   2.615   0.477  0.1710 -0.1637 -0.1509
  168SOL    HW2  779   2.218   2.568   0.559 -1.4829  0.4676 -0.1238
  168SOL    HW3  780   2.318   2.660   0.492  0.1858 -0.5395  0.9600
  168SOL    MW4  781   2.244   2.614   0.490 -0.0451 -0.1302 -0.0008
  169SOL     OW  782   2.750   3.119   0.482  0.4973 -0.4803 -0.1541
  169SOL    HW2  783   2.804   3.185   0.439  1.2995 -0.1487  1.3505
  169SOL    HW3  784   2.753   3.142   0.575 -0.6529 -1.6016  0.1714
  169SOL    MW4  785   2.757   3.131   0.488  0.4511 -0.5841  0.0874
  170SOL     OW  786   2.885   3.322   0.377  0.4053 -0.1872  0.1433
  170SOL    HW2  787   2.980   3.315   0.383  0.4352  0.2393  0.2069
  170SOL    HW3  788   2.867   3.416   0.385 -0.0552 -0.3099  0.6446
  170SOL    MW4  789   2.895   3.333   0.379  0.3486 -0.1469  0.2179
  171SOL     OW  790   3.167   3.279   0.420 -0.5229  0.2847 -0.3301
  171SOL    HW2  791   3.174   3.185   0.404  0.3820  0.3719 -0.5073
  171SOL    HW3  792   3.148   3.287   0.513  0.1915 -0.0551 -0.1508
  171SOL    MW4  793   3.166   3.268   0.430 -0.3092  0.2513 -0.3298
  172SOL     OW  794   2.258   3.221   0.437 -0.1549  0.0662 -0.4125
  172SOL    HW2  795   2.325   3.160   0.407 -0.8114 -0.1603 -1.4649
  172SOL    HW3  796   2.258   3.212   0.532  0.0994 -1.2169 -0.5221
  172SOL    MW4  797   2.267   3.212   0.446 -0.2081 -0.1330 -0.5658
  173SOL     OW  798   1.923   3.288   0.163 -0.2880  0.1843 -0.1901
  173SOL    HW2  799   1.959   3.220   0.220  0.7140  0.6831 -0.2117
  173SOL    HW3  800   1.888   3.240   0.088 -1.2662 -0.4472  0.6540
  173SOL    MW4  801   1.923   3.272   0.161 -0.2849  0.1667 -0.0816
  174SOL     OW  802   3.512   3.692   0.205  0.0064 -0.0246 -0.2596
  174SOL    HW2  803   3.524   3.680   0.111 -1.4644 -1.1520 -0.3228
  174SOL    HW3  804   3.473   3.610   0.235 -2.1081  1.3205  0.8358
  174SOL    MW4  805   3.508   3.680   0.197 -0.4668  0.0045 -0.1234
  175SOL     OW  806   2.421   3.672   0.446  0.3726 -0.1617 -0.1363
  175SOL    HW2  807   2.429   3.657   0.540 -2.9447 -0.4980  0.1436
  175SOL    HW3  808   2.358   3.606   0.417 -0.2298  1.2803 -2.2126
  175SOL    MW4  809   2.414   3.661   0.455 -0.1445 -0.0160 -0.3733
  176SOL     OW  810   2.237   3.487   0.372  0.0395  0.0717  0.1112
  176SOL    HW2  811   2.214   3.501   0.281  1.4420 -1.1721 -0.4612
  176SOL    HW3  812   2.232   3.392   0.383 -1.4476  0.3029  1.7045
  176SOL    MW4  813   2.233   3.476   0.362  0.0286 -0.0618  0.2459
  177SOL     OW  814   3.600   4.077   0.481 -0.0421  0.1366 -0.0328
  177SOL    HW2  815   3.520   4.107   0.437 -0.5074 -1.2030 -0.1421
  177SOL    HW3  816   3.607   3.985   0.456  0.7711 -0.1196  1.1084
  177SOL    MW4  817   3.590   4.069   0.472  0.0038 -0.0739  0.1033
  178SOL     OW  818   2.937   4.224   0.411  0.1862  0.1144 -0.5412
  178SOL    HW2  819   2.924   4.286   0.483 -0.6626 -0.8167  0.1278
  178SOL    HW3  820   3.017   4.177   0.434  1.4821  1.7320 -1.6326
  178SOL    MW4  821   2.945   4.226   0.424  0.2453  0.2055 -0.5969
  179SOL     OW  822   3.423   4.408   0.494  0.1460  0.2740 -0.6281
  179SOL    HW2  823   3.508   4.451   0.486  0.8889 -1.0991 -0.1631
  179SOL    HW3  824   3.424   4.340   0.427 -0.2530 -0.2965 -0.0521
  179SOL    MW4  825   3.434   4.405   0.484  0.1912  0.0176 -0.4908
  180SOL     OW  826   3.170   4.330   0.248 -0.2093 -0.1311  0.1216
  180SOL    HW2  827   3.170   4.418   0.285  1.1326  0.4733 -1.2593
  180SOL    HW3  828   3.085   4.293   0.274 -0.4469  1.2672  1.3893
  180SOL    MW4  829   3.158   4.337   0.256 -0.0637  0.1340  0.1067
  181SOL     OW  830   2.698   4.087   0.348 -0.0820 -0.0978  0.0894
  181SOL    HW2  831   2.772   4.130   0.391 -0.0603  0.3009 -0.3442
  181SOL    HW3  832   2.717   4.095   0.254 -0.1688 -0.8938  0.0019
  181SOL    MW4  833   2.710   4.094   0.341 -0.0904 -0.1502  0.0206
  182SOL     OW  834   2.806   0.912   0.351  0.8907  0.1016 -0.2541
  182SOL    HW2  835   2.879   0.852   0.334  0.7619 -0.0840 -0.1460
  182SOL    HW3  836   2.847   0.998   0.361  1.1073 -0.0299 -0.0368
  182SOL    MW4  837   2.821   0.916   0.350  0.9024  0.0597 -0.2112
  183SOL     OW  838   3.436   0.501   0.479  0.1944 -0.3063 -0.0399
  183SOL    HW2  839   3.528   0.474   0.481  0.5442  0.9080  0.3095
  183SOL    HW3  840   3.437   0.590   0.446 -0.8530 -0.2374  0.0933
  183SOL    MW4  841   3.448   0.509   0.475  0.1023 -0.1370  0.0238
  184SOL     OW  842   2.947   0.447   0.455  0.0176 -0.3208  0.1751
  184SOL    HW2  843   2.895   0.374   0.423 -0.8528  0.7316 -0.8692
  184SOL    HW3  844   3.037   0.427   0.428 -0.0964 -1.3572  0.5556
  184SOL    MW4  845   2.952   0.435   0.447 -0.1125 -0.3187  0.0875
  185SOL     OW  846   3.698   0.410   0.500 -0.0883  0.0283  0.5849
  185SOL    HW2  847   3.733   0.431   0.586  1.0397  0.5881  0.0153
  185SOL    HW3  848   3.775   0.383   0.449 -0.3982  1.6531 -0.8145
  185SOL    MW4  849   3.713   0.409   0.504  0.0196  0.3165  0.3251
  186SOL     OW  850   2.760   0.525   0.160  0.3636 -0.2139 -0.1944
  186SOL    HW2  851   2.784   0.525   0.067  1.2176  1.4999  0.0131
  186SOL    HW3  852   2.819   0.587   0.200 -1.3277  0.5557  1.1635
  186SOL    MW4  853   2.771   0.533   0.153  0.2530  0.1137  0.0121
  187SOL     OW  854   3.488   1.610   0.496  0.1089  0.0511  0.2454
  187SOL    HW2  855   3.495   1.609   0.591  0.6225 -0.5185  0.2080
  187SOL    HW3  856   3.529   1.692   0.469  0.5760 -0.1041  0.4764
  187SOL    MW4  857   3.494   1.620   0.505  0.2382 -0.0446  0.2710
  188SOL     OW  858   3.123   1.852   0.328  0.7947  0.1990  0.2789
  188SOL    HW2  859   3.120   1.909   0.405  0.0997 -0.0337  0.4265
  188SOL    HW3  860   3.100   1.911   0.255  1.7314  0.4827  0.2061
  188SOL    MW4  861   3.120   1.867   0.329  0.8268  0.2058  0.2888
  189SOL     OW  862   3.594   0.959   0.435  0.1339  0.6028  0.2235
  189SOL    HW2  863   3.566   1.050   0.437 -1.6203  0.0796  1.7550
  189SOL    HW3  864   3.601   0.934   0.528  0.6422 -0.7999 -0.1742
  189SOL    MW4  865   3.591   0.968   0.448 -0.0308  0.3486  0.3731
  190SOL     OW  866   3.624   1.846   0.396  0.2745  0.2611  0.1886
  190SOL    HW2  867   3.604   1.938   0.417 -1.5030  0.1554 -0.9233
  190SOL    HW3  868   3.619   1.843   0.300 -0.5824 -1.1818  0.2684
  190SOL    MW4  869   3.620   1.858   0.386 -0.0730  0.0567  0.0525
  191SOL     OW  870   3.275   2.182   0.404 -0.8559  0.3914  0.3925
  191SOL    HW2  871   3.221   2.120   0.453 -0.2218  0.3652  1.0524
  191SOL    HW3  872   3.229   2.266   0.414 -0.5889  0.4390  1.2514
  191SOL    MW4  873   3.262   2.185   0.412 -0.7372  0.3943  0.5929
  192SOL     OW  874   3.423   2.826   0.507  0.2397 -0.3264  0.3638
  192SOL    HW2  875   3.433   2.735   0.479 -0.5162 -0.5566  0.8231
  192SOL    HW3  876   3.333   2.848   0.484  0.7884  0.7112 -0.8905
  192SOL    MW4  877   3.412   2.817   0.500  0.2124 -0.2201  0.2590
  193SOL     OW  878   2.142   3.477   0.105  0.3681 -0.0270 -0.3904
  193SOL    HW2  879   2.058   3.433   0.114  1.5751 -2.3689 -0.1633
  193SOL    HW3  880   2.185   3.432   0.032  1.8131  0.4706  0.1337
  193SOL    MW4  881   2.137   3.465   0.097  0.7181 -0.2704 -0.2913
  194SOL     OW  882   2.935   2.608   0.394  0.0736 -0.2558 -0.2627
  194SOL    HW2  883   2.934   2.564   0.309  1.2451  1.0578 -0.9717
  194SOL    HW3  884   3.021   2.586   0.432  0.1753  0.4282 -0.0930
  194SOL    MW4  885   2.946   2.599   0.388  0.2418  0.0079 -0.3339
  195SOL     OW  886   2.928   2.816   0.746 -0.0535 -0.1412  0.2595
  195SOL    HW2  887   2.919   2.836   0.653 -1.8768 -0.4666  0.3487
  195SOL    HW3  888   3.019   2.788   0.756  0.2745  0.3336 -1.3395
  195SOL    MW4  889   2.939   2.815   0.735 -0.2508 -0.1214  0.0603
  196SOL     OW  890   3.202   4.565   0.441 -0.0219 -0.2737  0.2572
  196SOL    HW2  891   3.170   4.590   0.528  1.5249  0.6742  0.5796
  196SOL    HW3  892   3.276   4.507   0.459  1.0165  0.8177 -0.3863
  196SOL    MW4  893   3.208   4.561   0.455  0.3192 -0.0048  0.2148
  197SOL     OW  894   3.147   3.773   0.391  0.5198  0.4857 -0.1825
  197SOL    HW2  895   3.226   3.754   0.440 -0.6309 -2.1690  0.7561
  197SOL    HW3  896   3.124   3.862   0.416  1.2578  0.0161  2.3176
  197SOL    MW4  897   3.154   3.782   0.401  0.4654  0.0734  0.2712
  198SOL     OW  898   3.615   3.798   0.442 -0.3076  0.3433 -0.3848
  198SOL    HW2  899   3.600   3.771   0.351 -3.0702  1.8597 -0.4240
  198SOL    HW3  900   3.542   3.759   0.491  1.2107 -0.5423  1.2243
  198SOL    MW4  901   3.603   3.789   0.437 -0.4718  0.4265 -0.1776
  199SOL     OW  902   3.633   3.311   0.480 -0.1582 -0.0628 -0.1803
  199SOL    HW2  903   3.686   3.351   0.412  0.0508 -0.1979 -0.0978
  199SOL    HW3  904   3.617   3.222   0.449  1.7200 -0.8091  0.9204
  199SOL    MW4  905   3.638   3.305   0.467  0.1175 -0.1791 -0.0242
  200SOL     OW  906   3.427   3.448   0.337  0.1969 -0.1064 -0.1659
  200SOL    HW2  907   3.360   3.383   0.321 -0.3591  0.4983 -0.3222
  200SOL    HW3  908   3.494   3.402   0.388  0.0660 -0.9370 -0.7332
  200SOL    MW4  909   3.427   3.434   0.342  0.1061 -0.1364 -0.2614
  201SOL     OW  910   3.328   3.922   0.229  0.5484  0.2242 -0.2545
  201SOL    HW2  911   3.395   3.853   0.233 -0.3113 -0.7363 -2.0839
  201SOL    HW3  912   3.248   3.880   0.261  0.3555  0.7822 -0.0042
  201SOL    MW4  913   3.327   3.907   0.234  0.4096  0.1712 -0.4628
  202SOL     OW  914   2.508   3.059   0.364 -0.3436  0.0160 -0.2693
  202SOL    HW2  915   2.527   3.088   0.274 -0.7345  0.1021 -0.3237
  202SOL    HW3  916   2.587   3.083   0.413 -0.1382 -0.0036 -0.5813
  202SOL    MW4  917   2.521   3.066   0.359 -0.3681  0.0246 -0.3176
  203SOL     OW  918   4.295   0.106   0.361 -0.3137 -0.0182  0.6183
  203SOL    HW2  919   4.386   0.124   0.387 -0.4814  0.3618  0.9418
  203SOL    HW3  920   4.298   0.019   0.322  0.3253  0.2846 -0.0318
  203SOL    MW4  921   4.308   0.097   0.359 -0.2513  0.0718  0.5752
  204SOL     OW  922   3.673   4.544   0.483  0.0534 -0.2452  0.3609
  204SOL    HW2  923   3.667   4.639   0.472 -0.1919 -0.3911 -0.7833
  204SOL    HW3  924   3.761   4.522   0.452 -0.4173 -0.5739 -0.7644
  204SOL    MW4  925   3.684   4.554   0.478 -0.0410 -0.3076  0.0615
  205SOL     OW  926   3.570   0.144   0.477 -0.2158 -0.0519 -0.0909
  205SOL    HW2  927   3.490   0.150   0.424 -0.9178 -2.0063  0.6954
  205SOL    HW3  928   3.613   0.229   0.466 -2.7040  1.2536 -0.0524
  205SOL    MW4  929   3.565   0.156   0.469 -0.6366 -0.1375  0.0179
  206SOL     OW  930   3.989   0.602   0.545 -0.2949 -0.6090 -0.0817
  206SOL    HW2  931   3.923   0.573   0.607 -1.0771 -0.4168 -0.8157
  206SOL    HW3  932   4.001   0.527   0.486  0.3632 -0.7536  0.2307
  206SOL    MW4  933   3.982   0.588   0.545 -0.3114 -0.6027 -0.1373
  207SOL     OW  934   4.275   0.643   0.128 -0.0456 -0.4353  0.5429
  207SOL    HW2  935   4.207   0.667   0.065 -0.0142  0.6099  0.8865
  207SOL    HW3  936   4.251   0.555   0.157 -1.0835 -0.2004  0.4196
  207SOL    MW4  937   4.263   0.634   0.124 -0.1779 -0.2664  0.5720
  208SOL     OW  938   4.341   0.808   0.346  0.3049  0.4695 -0.0878
  208SOL    HW2  939   4.260   0.834   0.390  0.9014 -0.9469  1.9105
  208SOL    HW3  940   4.311   0.765   0.266 -0.9630 -0.4023  0.8294
  208SOL    MW4  941   4.326   0.806   0.341  0.2160  0.1677  0.2969
  209SOL     OW  942   3.878   1.018   0.390 -0.0801  0.2515 -0.0702
  209SOL    HW2  943   3.880   1.113   0.382 -0.4680  0.3387  0.8267
  209SOL    HW3  944   3.786   0.995   0.384  0.0342 -0.0995 -0.5362
  209SOL    MW4  945   3.866   1.027   0.388 -0.1161  0.2168 -0.0134
  210SOL     OW  946   4.046   1.503   0.428 -0.1038 -0.2659 -0.1398
  210SOL    HW2  947   3.988   1.577   0.410  1.6594  1.3396  0.5830
  210SOL    HW3  948   4.125   1.522   0.378 -0.1077 -2.3570 -0.9994
  210SOL    MW4  949   4.048   1.516   0.419  0.1283 -0.3299 -0.1579
  211SOL     OW  950   3.860   1.304   0.437  0.3970  0.3966 -0.0929
  211SOL    HW2  951   3.912   1.383   0.423  0.4454  0.5262  0.8174
  211SOL    HW3  952   3.773   1.326   0.401  0.4934  0.7582 -0.1094
  211SOL    MW4  953   3.855   1.317   0.430  0.4160  0.4615  0.0251
  212SOL     OW  954   3.411   1.179   0.458  0.5766  0.5815 -0.8638
  212SOL    HW2  955   3.414   1.224   0.542  1.1031 -1.4428  0.2465
  212SOL    HW3  956   3.352   1.105   0.472 -0.7189  1.1759 -2.8036
  212SOL    MW4  957   3.403   1.175   0.471  0.4752  0.3928 -0.9732
  213SOL     OW  958   3.603   1.393   0.359 -0.5709  0.2146  0.1056
  213SOL    HW2  959   3.533   1.329   0.375 -0.5372  0.2608  0.4354
  213SOL    HW3  960   3.570   1.473   0.399 -0.4535  0.3122  0.0056
  213SOL    MW4  961   3.589   1.395   0.366 -0.5512  0.2335  0.1359
  214SOL     OW  962   3.187   2.445   0.404 -0.2496 -0.0231  0.0842
  214SOL    HW2  963   3.274   2.471   0.374  0.1950 -1.8375 -0.2353
  214SOL    HW3  964   3.191   2.452   0.500 -0.0052  0.6437  0.0268
  214SOL    MW4  965   3.199   2.449   0.413 -0.1588 -0.1745  0.0344
  215SOL     OW  966   3.822   2.758   0.482 -0.2497  0.7731  0.4574
  215SOL    HW2  967   3.760   2.701   0.437 -0.0966  2.8459 -2.5280
  215SOL    HW3  968   3.907   2.718   0.467 -0.5155 -0.3843  1.8984
  215SOL    MW4  969   3.825   2.745   0.474 -0.2644  0.8938  0.2536
  216SOL     OW  970   3.446   2.553   0.462 -0.0238 -0.3514 -0.6932
  216SOL    HW2  971   3.477   2.537   0.551 -0.0270 -1.5995 -0.9052
  216SOL    HW3  972   3.513   2.513   0.406 -0.6154 -0.6243 -1.2111
  216SOL    MW4  973   3.459   2.545   0.467 -0.1023 -0.5522 -0.7895
  217SOL     OW  974   2.912   3.616   0.468 -0.0324  0.1700 -0.0532
  217SOL    HW2  975   2.986   3.674   0.454 -0.1820 -0.0282 -1.7081
  217SOL    HW3  976   2.835   3.672   0.459 -0.1155  0.2210  0.9087
  217SOL    MW4  977   2.912   3.631   0.465 -0.0632  0.1504 -0.1447
  218SOL     OW  978   3.196   2.996   0.485  0.1217 -0.3624  0.9239
  218SOL    HW2  979   3.113   2.954   0.465  0.5212 -1.0765  0.7293
  218SOL    HW3  980   3.181   3.040   0.568 -1.1045  1.3758 -0.1916
  218SOL    MW4  981   3.183   2.996   0.493  0.0129 -0.2270  0.7511
  219SOL     OW  982   4.079   2.638   0.431 -0.5722  0.4334  0.0305
  219SOL    HW2  983   4.163   2.680   0.415 -0.7113  0.0408 -1.7465
  219SOL    HW3  984   4.100   2.545   0.443 -0.8719  0.1618 -1.5271
  219SOL    MW4  985   4.093   2.631   0.431 -0.6304  0.3459 -0.4095
  220SOL     OW  986   3.579   3.046   0.405  0.1821 -0.2539  0.2662
  220SOL    HW2  987   3.662   3.019   0.444 -0.0425  1.3598  1.9204
  220SOL    HW3  988   3.515   2.983   0.437  0.1929  0.4413  1.7001
  220SOL    MW4  989   3.582   3.034   0.414  0.1538  0.0505  0.6736
  221SOL     OW  990   4.015   3.814   0.365 -0.2547 -0.3099 -0.4363
  221SOL    HW2  991   3.958   3.757   0.417  0.0530 -0.3321 -0.1155
  221SOL    HW3  992   4.010   3.780   0.276 -2.5716  1.1245 -0.8779
  221SOL    MW4  993   4.007   3.802   0.360 -0.5202 -0.1235 -0.4522
  222SOL     OW  994   3.701   2.539   0.323 -0.2654 -0.0122  0.3358
  222SOL    HW2  995   3.738   2.514   0.238 -0.9684  0.2249 -0.0460
  222SOL    HW3  996   3.730   2.470   0.383 -0.6307 -0.7452 -0.3206
  222SOL    MW4  997   3.710   2.526   0.320 -0.4063 -0.0777  0.1989
  223SOL     OW  998   3.369   3.658   0.505 -0.0495 -0.0486  0.1737
  223SOL    HW2  999   3.386   3.573   0.464  4.1035 -0.1596  1.8604
  223SOL    HW3 1000   3.352   3.637   0.597 -0.6923  0.8079  0.2547
  223SOL    MW4 1001   3.369   3.644   0.512  0.4134  0.0498  0.4069
  224SOL     OW 1002   4.323   3.756   0.485  0.2703  0.0968 -0.2960
  224SOL    HW2 1003   4.366   3.840   0.475 -1.0104  0.8099  0.1070
  224SOL    HW3 1004   4.233   3.771   0.454 -0.3631 -0.7441  1.0750
  224SOL    MW4 1005   4.317   3.769   0.480  0.0167  0.0801 -0.0620
  225SOL     OW 1006   3.134   4.049   0.494  0.1228 -0.3290 -0.3302
  225SOL    HW2 1007   3.219   4.085   0.470  0.8553 -2.2117 -0.6731
  225SOL    HW3 1008   3.136   4.041   0.589  0.7797 -1.4461 -0.4353
  225SOL    MW4 1009   3.145   4.053   0.503  0.3059 -0.7248 -0.3893
  226SOL     OW 1010   3.956   4.466   0.410 -0.2117  0.3976 -0.3517
  226SOL    HW2 1011   4.035   4.462   0.356 -0.3928  0.0778 -0.5926
  226SOL    HW3 1012   3.937   4.375   0.431 -0.1130  0.5225  0.2960
  226SOL    MW4 1013   3.964   4.454   0.406 -0.2229  0.3715 -0.2981
  227SOL     OW 1014   0.070   0.113   0.440  0.2866  0.1550  0.2594
  227SOL    HW2 1015   0.076   0.019   0.421  0.3650  0.2179 -0.0302
  227SOL    HW3 1016   0.026   0.117   0.525 -0.5521 -0.1171 -0.1493
  227SOL    MW4 1017   0.065   0.101   0.448  0.1863  0.1274  0.1673
  228SOL     OW 1018   4.089   0.854   0.475 -0.0824  0.3761  0.0729
  228SOL    HW2 1019   4.026   0.906   0.424 -0.5608  1.2976  1.5628
  228SOL    HW3 1020   4.045   0.770   0.489 -0.2131  0.3509 -0.4767
  228SOL    MW4 1021   4.075   0.850   0.470 -0.1626  0.4944  0.1970
  229SOL     OW 1022   4.483   1.790   0.247  0.2642  0.0816 -0.2965
  229SOL    HW2 1023   4.432   1.724   0.294  1.6881 -1.3168 -0.6773
  229SOL    HW3 1024   4.464   1.774   0.155 -0.8015  1.3874 -0.3050
  229SOL    MW4 1025   4.474   1.779   0.241  0.3114  0.0695 -0.3478
  230SOL     OW 1026   4.232   0.408   0.266 -0.0564  0.4762  0.0480
  230SOL    HW2 1027   4.239   0.314   0.281 -0.2712  0.2283 -1.3337
  230SOL    HW3 1028   4.282   0.448   0.337  2.0428 -0.7564 -0.7293
  230SOL    MW4 1029   4.239   0.401   0.277  0.1922  0.2809 -0.2369
  231SOL     OW 1030   4.427   1.054   0.436  0.1692  0.1973 -0.2622
  231SOL    HW2 1031   4.351   1.107   0.461  0.8175  1.5805 -1.1564
  231SOL    HW3 1032   4.389   0.974   0.399 -0.8208  0.0232  1.0814
  231SOL    MW4 1033   4.412   1.051   0.434  0.1245  0.3568 -0.2029
  232SOL     OW 1034   3.334   0.143   0.344 -0.2572 -0.0942  0.0954
  232SOL    HW2 1035   3.293   0.068   0.386  0.5083 -0.8197 -0.4489
  232SOL    HW3 1036   3.326   0.126   0.251 -0.3862  0.6707 -0.0364
  232SOL    MW4 1037   3.327   0.131   0.338 -0.1731 -0.0890  0.0062
  233SOL     OW 1038   4.177   1.172   0.529  0.0486  0.0267 -0.2615
  233SOL    HW2 1039   4.125   1.149   0.606 -0.2805  0.4972 -0.3354
  233SOL    HW3 1040   4.114   1.216   0.471 -0.1827 -2.1167 -1.6670
  233SOL    MW4 1041   4.162   1.175   0.531 -0.0253 -0.1940 -0.4568
  234SOL     OW 1042   0.051   1.403   0.461  0.0267 -0.4060  0.0063
  234SOL    HW2 1043   0.010   1.392   0.547  0.0230 -0.0126  0.0582
  234SOL    HW3 1044   0.108   1.327   0.451  1.1494  0.2772  0.9891
  234SOL    MW4 1045   0.053   1.392   0.471  0.1744 -0.2640  0.1428
  235SOL     OW 1046   3.950   2.162   0.503  0.2502  0.6417  0.3111
  235SOL    HW2 1047   3.875   2.220   0.496  0.1414  0.2853 -1.8927
  235SOL    HW3 1048   4.026   2.220   0.499  0.1138  0.8132  0.2330
  235SOL    MW4 1049   3.950   2.177   0.501  0.2179  0.6173  0.0100
  236SOL     OW 1050   3.889   1.735   0.425  0.2527 -0.1589  0.1291
  236SOL    HW2 1051   3.809   1.787   0.426 -0.2596 -0.9298  1.0870
  236SOL    HW3 1052   3.960   1.799   0.423 -0.3834  0.5330 -0.6179
  236SOL    MW4 1053   3.887   1.750   0.425  0.1011 -0.1692  0.1570
  237SOL     OW 1054   4.355   2.087   0.463  0.2727  0.0767 -0.4359
  237SOL    HW2 1055   4.374   2.181   0.469  1.5674 -0.2319  0.4491
  237SOL    HW3 1056   4.439   2.045   0.480 -0.4246 -1.2599 -0.2839
  237SOL    MW4 1057   4.368   2.094   0.466  0.3510 -0.1407 -0.2991
  238SOL     OW 1058   4.105   1.922   0.474  0.2815  0.1689  0.1836
  238SOL    HW2 1059   4.036   1.989   0.470 -0.1997 -0.4280 -2.1690
  238SOL    HW3 1060   4.183   1.966   0.442  0.5096  0.2304  0.8084
  238SOL    MW4 1061   4.106   1.937   0.469  0.2484  0.0982 -0.0443
  239SOL     OW 1062   4.413   2.359   0.499 -0.5336 -0.0226  0.2009
  239SOL    HW2 1063   4.466   2.405   0.433  0.8831 -1.1435  0.5147
  239SOL    HW3 1064   4.440   2.399   0.582 -1.5288  0.6497  0.2061
  239SOL    MW4 1065   4.424   2.370   0.501 -0.4783 -0.0818  0.2429
  240SOL     OW 1066   3.878   2.993   0.340 -0.0131 -0.1070 -0.0039
  240SOL    HW2 1067   3.829   2.995   0.258  0.2650  1.9410 -0.1529
  240SOL    HW3 1068   3.868   2.904   0.373  0.8203 -1.3016 -2.8490
  240SOL    MW4 1069   3.870   2.982   0.333  0.1335  0.0057 -0.3989
  241SOL     OW 1070   4.132   2.380   0.494  0.1158 -0.3054 -0.3601
  241SOL    HW2 1071   4.100   2.398   0.582 -0.1638  1.4383 -0.8051
  241SOL    HW3 1072   4.227   2.368   0.505 -0.0083 -0.7611  0.2574
  241SOL    MW4 1073   4.140   2.381   0.507  0.0625 -0.1354 -0.3374
  242SOL     OW 1074   0.009   3.557   0.385 -0.5733 -0.2976 -0.0054
  242SOL    HW2 1075  -0.021   3.639   0.425  0.5765  1.0873 -1.9194
  242SOL    HW3 1076  -0.062   3.532   0.326 -0.3511  0.0312 -0.4132
  242SOL    MW4 1077  -0.004   3.564   0.383 -0.3920 -0.0715 -0.3117
  243SOL     OW 1078   4.026   3.579   0.170 -0.3277 -0.6558 -0.1773
  243SOL    HW2 1079   4.109   3.533   0.182  0.3045  0.3789 -0.4427
  243SOL    HW3 1080   3.960   3.522   0.209  0.8256 -0.3664  2.2985
  243SOL    MW4 1081   4.029   3.566   0.177 -0.0925 -0.4814  0.1144
  244SOL     OW 1082   0.572   3.105   0.344  0.1050 -0.1061  0.2029
  244SOL    HW2 1083   0.643   3.162   0.313  0.0994  0.5661  1.4148
  244SOL    HW3 1084   0.505   3.166   0.374 -0.7665 -0.7501 -0.4307
  244SOL    MW4 1085   0.573   3.121   0.344 -0.0107 -0.1023  0.2792
  245SOL     OW 1086   3.841   3.657   0.489 -0.3492 -0.0535 -0.1665
  245SOL    HW2 1087   3.764   3.711   0.471 -1.2228 -1.5541 -1.0294
  245SOL    HW3 1088   3.825   3.620   0.576 -0.7261 -0.5246 -0.4275
  245SOL    MW4 1089   3.829   3.659   0.498 -0.5140 -0.3133 -0.3148
  246SOL     OW 1090   3.990   3.224   0.498  0.2664 -0.3903  0.4867
  246SOL    HW2 1091   4.006   3.196   0.588 -0.4788 -0.2416  0.6696
  246SOL    HW3 1092   3.977   3.142   0.450  0.5646 -0.4659  0.5320
  246SOL    MW4 1093   3.990   3.209   0.504  0.2074 -0.3805  0.5168
  247SOL     OW 1094   4.285   4.211   0.482  0.4033  0.0929  0.1299
  247SOL    HW2 1095   4.206   4.157   0.483  0.8447 -0.5616  0.0676
  247SOL    HW3 1096   4.276   4.266   0.559 -1.0047  1.3420 -0.8914
  247SOL    MW4 1097   4.273   4.211   0.492  0.2761  0.1707 -0.0131
  248SOL     OW 1098   4.060   4.056   0.473 -0.0511  0.0677 -0.5913
  248SOL    HW2 1099   4.041   3.973   0.429  0.3656 -0.5397  0.3515
  248SOL    HW3 1100   3.984   4.111   0.455 -1.9494 -1.7362  1.6784
  248SOL    MW4 1101   4.047   4.052   0.465 -0.2465 -0.2503 -0.1674
  249SOL     OW 1102   3.857   4.212   0.487  0.1184  0.3189  0.1183
  249SOL    HW2 1103   3.773   4.183   0.452 -0.2227  1.2252  0.1946
  249SOL    HW3 1104   3.839   4.235   0.578  0.4065  0.6942  0.0814
  249SOL    MW4 1105   3.844   4.211   0.494  0.1111  0.4878  0.1234
  250SOL     OW 1106   4.226   4.472   0.291 -0.2187  0.4948  0.0554
  250SOL    HW2 1107   4.267   4.438   0.371 -2.6773 -2.0678  0.3047
  250SOL    HW3 1108   4.234   4.401   0.227  0.4672  1.9933 -1.5616
  250SOL    MW4 1109   4.233   4.458   0.293 -0.4530  0.3543 -0.1251
  251SOL     OW 1110   0.183   0.018   0.827  0.3565 -0.3873  0.3038
  251SOL    HW2 1111   0.174  -0.073   0.799 -1.5701 -0.3059  0.6216
  251SOL    HW3 1112   0.114   0.065   0.781  1.0884  0.8515  0.4407
  251SOL    MW4 1113   0.173   0.012   0.818  0.1989 -0.2131  0.3638
  252SOL     OW 1114   4.452   0.137   0.703  0.5950  0.3186  0.2653
  252SOL    HW2 1115   4.395   0.077   0.750  0.8497 -0.3452 -0.2682
  252SOL    HW3 1116   4.446   0.219   0.752  0.1232 -0.0924  0.9028
  252SOL    MW4 1117   4.444   0.140   0.715  0.5670  0.1768  0.2790
  253SOL     OW 1118   4.453   0.372   0.842 -0.0816  0.2317  0.1028
  253SOL    HW2 1119   4.456   0.357   0.937  0.5641  2.0789  0.3952
  253SOL    HW3 1120   4.536   0.415   0.823 -0.2371 -0.0823 -1.3136
  253SOL    MW4 1121   4.464   0.375   0.852 -0.0172  0.4340 -0.0455
  254SOL     OW 1122   0.210   0.502   0.765  0.5072 -0.3485 -0.0622
  254SOL    HW2 1123   0.291   0.464   0.799  1.7382  0.9207 -1.5027
  254SOL    HW3 1124   0.216   0.595   0.787 -0.6832 -0.2794  0.0216
  254SOL    MW4 1125   0.221   0.509   0.772  0.5125 -0.1719 -0.2411
  255SOL     OW 1126   0.207   0.783   0.816 -0.3644  0.0653  0.4241
  255SOL    HW2 1127   0.176   0.767   0.905  0.1059 -2.4535  0.1899
  255SOL    HW3 1128   0.133   0.823   0.771 -0.6563  1.2181  1.8968
  255SOL    MW4 1129   0.193   0.786   0.822 -0.3408 -0.1149  0.5875
  256SOL     OW 1130   0.005   0.923   0.688  0.4297 -0.0375  0.1510
  256SOL    HW2 1131  -0.076   0.886   0.725  0.5079 -0.3411  0.0142
  256SOL    HW3 1132  -0.022   0.956   0.602  0.8957 -1.9538 -0.7497
  256SOL    MW4 1133  -0.009   0.922   0.681  0.5016 -0.3304  0.0141
  257SOL     OW 1134   0.009   1.150   0.840 -0.1930  0.0382  0.4130
  257SOL    HW2 1135   0.023   1.125   0.931  0.2202  0.2953  0.4246
  257SOL    HW3 1136   0.011   1.068   0.791  0.8788  0.0147  0.4797
  257SOL    MW4 1137   0.011   1.136   0.845  0.0029  0.0689  0.4234
  258SOL     OW 1138   0.245   1.268   0.719 -0.3099 -0.4747  0.3406
  258SOL    HW2 1139   0.177   1.221   0.767 -0.8132 -0.3764 -0.2665
  258SOL    HW3 1140   0.242   1.231   0.630  0.0140 -0.0436  0.1468
  258SOL    MW4 1141   0.236   1.257   0.713 -0.3336 -0.4048  0.2350
  259SOL     OW 1142   0.180   1.522   0.806 -0.4879  0.0567  0.1616
  259SOL    HW2 1143   0.256   1.580   0.801  0.0263 -0.5362  1.1268
  259SOL    HW3 1144   0.211   1.438   0.773 -1.0300  0.1144 -0.5068
  259SOL    MW4 1145   0.194   1.519   0.801 -0.4915 -0.0139  0.2008
  260SOL     OW 1146   0.054   1.741   0.675  0.1821 -0.1430 -0.0630
  260SOL    HW2 1147  -0.036   1.720   0.650  0.0194  0.9660 -0.4269
  260SOL    HW3 1148   0.095   1.656   0.691 -0.1938 -0.8014 -2.4084
  260SOL    MW4 1149   0.048   1.727   0.674  0.1111 -0.0836 -0.4204
  261SOL     OW 1150   4.478   1.965   0.837  0.4022 -0.2609  0.0831
  261SOL    HW2 1151   4.553   2.016   0.805 -0.4749  0.1622 -1.3502
  261SOL    HW3 1152   4.496   1.876   0.806  0.9472 -0.4218  0.8556
  261SOL    MW4 1153   4.490   1.960   0.828  0.3581 -0.2264 -0.0040
  262SOL     OW 1154   0.220   2.109   0.782 -0.5810  0.2774  0.3411
  262SOL    HW2 1155   0.215   2.204   0.792 -0.3224  0.6506 -2.5349
  262SOL    HW3 1156   0.247   2.097   0.691  0.6255 -2.5456  1.0563
  262SOL    MW4 1157   0.223   2.120   0.771 -0.3877 -0.0458  0.0559
  263SOL     OW 1158   0.193   2.366   0.852  0.1463 -0.1793 -0.2626
  263SOL    HW2 1159   0.197   2.328   0.941 -1.0765  1.0693  0.3376
  263SOL    HW3 1160   0.285   2.382   0.829  0.5117 -1.0182  0.5497
  263SOL    MW4 1161   0.206   2.363   0.861  0.0332 -0.1252 -0.0762
  264SOL     OW 1162   4.466   2.474   0.732 -0.0369  0.3125  0.6225
  264SOL    HW2 1163   4.401   2.415   0.771 -0.5498 -0.1922 -0.9804
  264SOL    HW3 1164   4.550   2.432   0.751 -0.4236 -1.2564 -0.9830
  264SOL    MW4 1165   4.468   2.460   0.740 -0.1554  0.0391  0.1992
  265SOL     OW 1166   0.012   2.736   0.845  0.2525 -0.1463 -0.1233
  265SOL    HW2 1167   0.027   2.751   0.938  0.9605  0.5937 -0.3509
  265SOL    HW3 1168  -0.004   2.642   0.838  1.0508 -0.3471  0.6313
  265SOL    MW4 1169   0.012   2.726   0.856  0.4512 -0.0751 -0.0538
  266SOL     OW 1170   0.232   2.883   0.759  0.3339 -0.1424 -0.4612
  266SOL    HW2 1171   0.154   2.839   0.792 -0.6560  0.2186 -2.2877
  266SOL    HW3 1172   0.228   2.873   0.664  1.9686  0.7799 -0.6498
  266SOL    MW4 1173   0.221   2.876   0.751  0.4190  0.0267 -0.7272
  267SOL     OW 1174   0.253   3.146   0.862 -0.0208 -0.1566 -0.1663
  267SOL    HW2 1175   0.272   3.135   0.956 -0.7253  0.8786  0.1052
  267SOL    HW3 1176   0.247   3.057   0.829 -0.0967 -0.5418  0.8451
  267SOL    MW4 1177   0.255   3.133   0.870 -0.1238 -0.0710  0.0030
  268SOL     OW 1178   4.485   3.233   0.807 -0.1942  0.3236  0.0938
  268SOL    HW2 1179   4.572   3.199   0.828  0.4284  2.6723  1.4417
  268SOL    HW3 1180   4.492   3.263   0.716 -0.0443 -0.8729 -0.2930
  268SOL    MW4 1181   4.497   3.232   0.798 -0.0920  0.4756  0.2206
  269SOL     OW 1182   4.475   3.513   0.897  0.3889  0.5128 -0.3956
  269SOL    HW2 1183   4.417   3.562   0.839 -0.1210  1.4976  0.9324
  269SOL    HW3 1184   4.471   3.423   0.864 -0.4677  0.9180 -1.4291
  269SOL    MW4 1185   4.467   3.508   0.885  0.2089  0.6962 -0.3567
  270SOL     OW 1186   0.241   3.550   0.781 -0.4299 -0.0191  0.0642
  270SOL    HW2 1187   0.150   3.530   0.807 -0.4846 -0.1934 -0.2686
  270SOL    HW3 1188   0.244   3.530   0.688 -0.4966  1.5516 -0.2831
  270SOL    MW4 1189   0.229   3.545   0.772 -0.4459  0.1650 -0.0255
  271SOL     OW 1190   0.220   3.827   0.829 -0.4426  0.3892 -0.1489
  271SOL    HW2 1191   0.229   3.831   0.925 -0.3239  0.4631 -0.1636
  271SOL    HW3 1192   0.248   3.739   0.806 -0.6858  0.2948 -0.0921
  271SOL    MW4 1193   0.225   3.816   0.839 -0.4590  0.3865 -0.1434
  272SOL     OW 1194   0.015   4.024   0.763  0.0280 -0.1639  0.0560
  272SOL    HW2 1195  -0.064   3.988   0.804  0.6095 -0.9315  0.5110
  272SOL    HW3 1196   0.084   3.960   0.783  0.9387  0.8900  0.3365
  272SOL    MW4 1197   0.014   4.011   0.771  0.2249 -0.1254  0.1531
  273SOL     OW 1198   0.014   4.282   0.855 -0.0203 -0.7046 -0.1592
  273SOL    HW2 1199  -0.016   4.275   0.946  0.6746  1.2143  0.2499
  273SOL    HW3 1200   0.023   4.192   0.825 -0.1862 -1.3561  1.7068
  273SOL    MW4 1201   0.011   4.269   0.863  0.0496 -0.5379  0.1409
  274SOL     OW 1202   0.215   4.428   0.741  0.3175  0.6996 -0.2114
  274SOL    HW2 1203   0.143   4.383   0.785  0.7688  1.6577  1.5644
  274SOL    HW3 1204   0.184   4.443   0.652 -0.9754 -0.4608  0.0301
  274SOL    MW4 1205   0.202   4.424   0.735  0.2064  0.6733  0.0548
  275SOL     OW 1206   0.623   4.656   0.863  0.2420 -0.8041 -0.6671
  275SOL    HW2 1207   0.620   4.640   0.957 -0.9408  0.7675 -0.4123
  275SOL    HW3 1208   0.537   4.693   0.843  1.4508  1.4345 -1.8755
  275SOL    MW4 1209   0.611   4.659   0.873  0.2455 -0.3014 -0.7930
  276SOL     OW 1210   0.400   0.123   0.705  0.2911 -0.2715 -0.2638
  276SOL    HW2 1211   0.326   0.090   0.756  0.2943 -0.2683 -0.2570
  276SOL    HW3 1212   0.419   0.052   0.642  0.4085 -0.3534 -0.1349
  276SOL    MW4 1213   0.393   0.109   0.703  0.3070 -0.2819 -0.2459
  277SOL     OW 1214   0.451   0.354   0.840  0.1012  0.3872 -0.2994
  277SOL    HW2 1215   0.533   0.391   0.807 -0.0322  0.8555 -0.1018
  277SOL    HW3 1216   0.442   0.271   0.793  0.0692  0.9080 -1.2450
  277SOL    MW4 1217   0.460   0.348   0.829  0.0794  0.5177 -0.3981
  278SOL     OW 1218   0.704   0.483   0.723 -0.0111 -0.5437 -0.0056
  278SOL    HW2 1219   0.764   0.420   0.762  0.6590 -0.0605 -0.2493
  278SOL    HW3 1220   0.700   0.457   0.631  2.9127  1.7849 -0.8610
  278SOL    MW4 1221   0.711   0.471   0.716  0.4630 -0.1727 -0.1506
  279SOL     OW 1222   0.642   0.742   0.813 -0.2822  0.4501  0.0126
  279SOL    HW2 1223   0.564   0.755   0.760 -1.5531 -0.6819  1.5785
  279SOL    HW3 1224   0.679   0.659   0.781  0.9324  1.5438 -1.4942
  279SOL    MW4 1225   0.637   0.733   0.802 -0.2896  0.4450  0.0203
  280SOL     OW 1226   0.432   0.930   0.712  0.2108  0.1096 -0.0785
  280SOL    HW2 1227   0.458   1.011   0.756  1.3124  0.5662 -1.5721
  280SOL    HW3 1228   0.360   0.896   0.766 -0.1324  1.9751  0.6658
  280SOL    MW4 1229   0.426   0.936   0.725  0.3109  0.4160 -0.1774
  281SOL     OW 1230   0.495   1.174   0.811  0.0369  0.1502  0.4205
  281SOL    HW2 1231   0.561   1.231   0.772 -0.3641  0.0722 -0.4011
  281SOL    HW3 1232   0.411   1.215   0.787 -0.2079  0.2071  1.3829
  281SOL    MW4 1233   0.492   1.187   0.802 -0.0484  0.1475  0.4390
  282SOL     OW 1234   0.702   1.337   0.712  0.4966  0.1126  0.3705
  282SOL    HW2 1235   0.700   1.419   0.760 -0.0980  0.2415  0.1302
  282SOL    HW3 1236   0.695   1.363   0.620  0.0078 -0.2235  0.3102
  282SOL    MW4 1237   0.701   1.351   0.706  0.3537  0.0852  0.3308
  283SOL     OW 1238   0.647   1.579   0.834  0.1066 -0.5308  0.2584
  283SOL    HW2 1239   0.649   1.572   0.929  0.4515  0.1125  0.3070
  283SOL    HW3 1240   0.559   1.610   0.814  0.4656  0.6550  0.4776
  283SOL    MW4 1241   0.636   1.582   0.844  0.1996 -0.2894  0.2937
  284SOL     OW 1242   0.417   1.707   0.766  0.2443  0.1903 -0.5649
  284SOL    HW2 1243   0.423   1.795   0.804 -1.9137  0.1639 -0.1179
  284SOL    HW3 1244   0.422   1.721   0.672 -0.0224  0.7816 -0.4902
  284SOL    MW4 1245   0.419   1.720   0.759 -0.0756  0.2649 -0.4960
  285SOL     OW 1246   0.440   1.966   0.878  0.2139  0.6311 -0.0282
  285SOL    HW2 1247   0.443   1.952   0.973 -0.1416 -1.2706 -0.2722
  285SOL    HW3 1248   0.359   2.016   0.864 -0.5313 -0.3864  0.5369
  285SOL    MW4 1249   0.430   1.971   0.889  0.0687  0.2459  0.0141
  286SOL     OW 1250   0.653   2.086   0.744  0.2311  0.4486  0.0924
  286SOL    HW2 1251   0.583   2.040   0.790  0.7886  0.4361  0.9375
  286SOL    HW3 1252   0.642   2.061   0.652 -0.4061 -0.1452  0.3249
  286SOL    MW4 1253   0.642   2.077   0.738  0.2206  0.3686  0.2345
  287SOL     OW 1254   0.708   2.353   0.837 -0.2265 -0.0460 -0.4465
  287SOL    HW2 1255   0.736   2.349   0.928 -0.7867  1.3475 -0.2009
  287SOL    HW3 1256   0.671   2.267   0.819 -0.0519 -0.3477  0.6180
  287SOL    MW4 1257   0.707   2.341   0.847 -0.2774  0.0982 -0.2736
  288SOL     OW 1258   0.450   2.465   0.839  0.0644 -0.0621 -0.3705
  288SOL    HW2 1259   0.536   2.428   0.859 -0.9814 -2.0451  0.5762
  288SOL    HW3 1260   0.459   2.500   0.751  1.7088 -0.6743 -0.4636
  288SOL    MW4 1261   0.462   2.465   0.830  0.1433 -0.4046 -0.2580
  289SOL     OW 1262   0.436   2.754   0.888 -0.1342 -0.1654 -0.0139
  289SOL    HW2 1263   0.424   2.661   0.868  0.1416  0.2938 -2.4614
  289SOL    HW3 1264   0.354   2.795   0.860  1.2390  0.8644 -2.6873
  289SOL    MW4 1265   0.424   2.747   0.882  0.0833  0.0310 -0.6895
  290SOL     OW 1266   0.682   2.868   0.778 -0.2360 -0.0183 -0.0308
  290SOL    HW2 1267   0.762   2.819   0.794 -0.0748  0.8114  1.7441
  290SOL    HW3 1268   0.615   2.823   0.830 -0.5177  0.4116 -0.0123
  290SOL    MW4 1269   0.683   2.856   0.787 -0.2519  0.1478  0.2059
  291SOL     OW 1270   0.702   3.113   0.891 -0.3570 -0.2897  0.2060
  291SOL    HW2 1271   0.631   3.149   0.837  0.5800 -1.1988 -1.6972
  291SOL    HW3 1272   0.718   3.027   0.853  3.0623  0.6645 -0.6260
  291SOL    MW4 1273   0.695   3.106   0.879  0.2178 -0.2837 -0.1549
  292SOL     OW 1274   0.486   3.249   0.754 -0.1048 -0.1758  0.3322
  292SOL    HW2 1275   0.506   3.321   0.814 -0.5005 -0.2914  0.6081
  292SOL    HW3 1276   0.398   3.220   0.780  0.0550 -0.7610  0.2281
  292SOL    MW4 1277   0.477   3.255   0.766 -0.1359 -0.2682  0.3549
  293SOL     OW 1278   0.526   3.482   0.899  0.4999 -0.2499 -0.0295
  293SOL    HW2 1279   0.523   3.481   0.995  0.5237 -0.0215 -0.0259
  293SOL    HW3 1280   0.441   3.517   0.872  0.2572 -0.8974 -0.1085
  293SOL    MW4 1281   0.515   3.487   0.908  0.4710 -0.3052 -0.0394
  294SOL     OW 1282   0.763   3.601   0.760 -0.3473  0.0285  0.4849
  294SOL    HW2 1283   0.704   3.545   0.811  0.2648  0.4678  1.6909
  294SOL    HW3 1284   0.757   3.687   0.801  0.6716  0.2207  0.2525
  294SOL    MW4 1285   0.754   3.605   0.772 -0.1321  0.1118  0.6133
  295SOL     OW 1286   0.680   3.864   0.844  0.0266 -0.6028  0.3056
  295SOL    HW2 1287   0.756   3.910   0.808 -0.2236 -0.2736  0.2004
  295SOL    HW3 1288   0.605   3.899   0.796 -0.5939  1.5402  2.7065
  295SOL    MW4 1289   0.680   3.874   0.833 -0.0883 -0.2766  0.6085
  296SOL     OW 1290   0.421   3.986   0.743  0.1706  0.1396 -0.2299
  296SOL    HW2 1291   0.404   4.072   0.782 -0.6343  0.3908 -1.1082
  296SOL    HW3 1292   0.378   3.924   0.802 -0.7770  0.4898 -0.5422
  296SOL    MW4 1293   0.413   3.989   0.756 -0.0606  0.2189 -0.3870
  297SOL     OW 1294   0.416   4.225   0.857 -0.0455 -0.6985 -0.4034
  297SOL    HW2 1295   0.425   4.244   0.951  1.6066 -1.0142 -0.4702
  297SOL    HW3 1296   0.352   4.288   0.826 -0.7223 -0.6822  0.9766
  297SOL    MW4 1297   0.409   4.236   0.865  0.0832 -0.7381 -0.2301
  298SOL     OW 1298   0.674   4.364   0.811  0.0912 -0.1616 -0.5266
  298SOL    HW2 1299   0.593   4.315   0.830  0.5687 -0.3914  0.9957
  298SOL    HW3 1300   0.650   4.456   0.823  0.2303 -0.2702  0.6785
  298SOL    MW4 1301   0.660   4.369   0.815  0.1725 -0.2060 -0.1667
  299SOL     OW 1302   1.092   4.645   0.883  0.1579  0.7138  0.4886
  299SOL    HW2 1303   1.158   4.702   0.842  1.3696 -0.2508  1.0695
  299SOL    HW3 1304   1.009   4.674   0.845  0.9244  1.8636 -0.3586
  299SOL    MW4 1305   1.090   4.656   0.873  0.4189  0.7381  0.4535
  300SOL     OW 1306   0.856   0.062   0.777  0.2166  0.2579  0.0024
  300SOL    HW2 1307   0.862   0.156   0.796  1.4273 -0.0791  1.3006
  300SOL    HW3 1308   0.773   0.035   0.817 -0.2276  0.7939 -0.5349
  300SOL    MW4 1309   0.846   0.071   0.785  0.3178  0.2841  0.1028
  301SOL     OW 1310   0.876   0.320   0.869 -0.0612  0.3261 -0.0342
  301SOL    HW2 1311   0.860   0.320   0.963  0.7727 -0.4810  0.1264
  301SOL    HW3 1312   0.945   0.385   0.856 -1.1243  1.4035 -0.2689
  301SOL    MW4 1313   0.883   0.328   0.879 -0.0914  0.3617 -0.0440
  302SOL     OW 1314   1.101   0.489   0.818  0.0881 -0.0190 -0.1629
  302SOL    HW2 1315   1.175   0.441   0.855  0.7297 -0.7518 -2.3456
  302SOL    HW3 1316   1.099   0.463   0.726 -2.6392  0.2937 -0.2398
  302SOL    MW4 1317   1.110   0.479   0.811 -0.1870 -0.0744 -0.4611
  303SOL     OW 1318   1.155   0.767   0.840  0.4752  0.1178 -0.2188
  303SOL    HW2 1319   1.151   0.770   0.936 -0.5878 -0.4573 -0.2432
  303SOL    HW3 1320   1.160   0.674   0.820  0.5615  0.2353 -0.7284
  303SOL    MW4 1321   1.155   0.755   0.850  0.3464  0.0574 -0.2893
  304SOL     OW 1322   0.770   0.932   0.681 -0.5170  0.1444  0.2154
  304SOL    HW2 1323   0.713   0.876   0.734  1.9461 -2.1855  0.5215
  304SOL    HW3 1324   0.730   0.932   0.594 -0.9361 -1.5989  0.3788
  304SOL    MW4 1325   0.757   0.925   0.677 -0.2473 -0.3930  0.2774
  305SOL     OW 1326   0.922   1.167   0.767 -0.3375 -0.2229  0.2905
  305SOL    HW2 1327   0.882   1.084   0.739 -0.5588 -0.4455  1.2545
  305SOL    HW3 1328   0.854   1.233   0.752 -1.3334 -0.6937  2.5235
  305SOL    MW4 1329   0.908   1.165   0.761 -0.4981 -0.3142  0.7122
  306SOL     OW 1330   1.126   1.317   0.681 -0.0464  0.4871  0.5080
  306SOL    HW2 1331   1.059   1.254   0.705 -0.5048  0.8146  0.1074
  306SOL    HW3 1332   1.107   1.339   0.590 -1.5553  3.2160  1.4152
  306SOL    MW4 1333   1.115   1.312   0.672 -0.3060  0.8903  0.5749
  307SOL     OW 1334   1.085   1.517   0.854  0.6544  0.2361  0.0820
  307SOL    HW2 1335   1.021   1.568   0.805  0.6697  1.1934  1.0555
  307SOL    HW3 1336   1.105   1.443   0.797  0.3124  1.0833 -1.1556
  307SOL    MW4 1337   1.079   1.514   0.840  0.6113  0.4743  0.0471
  308SOL     OW 1338   0.901   1.683   0.739 -0.0011 -0.6133  0.5316
  308SOL    HW2 1339   0.892   1.773   0.769 -0.6780 -0.3878 -0.3358
  308SOL    HW3 1340   0.812   1.649   0.736  0.3169 -1.5408  1.5506
  308SOL    MW4 1341   0.888   1.690   0.742 -0.0485 -0.7060  0.5516
  309SOL     OW 1342   0.894   1.944   0.826  0.0922 -0.1083 -0.0376
  309SOL    HW2 1343   0.888   1.942   0.921  0.0944 -1.0130 -0.0487
  309SOL    HW3 1344   0.818   1.994   0.798 -1.1479 -1.7268  0.3499
  309SOL    MW4 1345   0.883   1.950   0.834 -0.0712 -0.4411  0.0122
  310SOL     OW 1346   1.121   2.050   0.712 -0.3431 -0.2528 -0.5761
  310SOL    HW2 1347   1.134   2.134   0.756  0.2002 -0.0878 -1.0517
  310SOL    HW3 1348   1.044   2.012   0.755 -0.1313  0.1427  0.1519
  310SOL    MW4 1349   1.112   2.056   0.724 -0.2434 -0.1788 -0.5428
  311SOL     OW 1350   1.138   2.299   0.825  0.2722 -0.0477  0.0137
  311SOL    HW2 1351   1.128   2.322   0.918 -0.1191 -0.6986  0.1377
  311SOL    HW3 1352   1.218   2.344   0.797  0.4095  0.1238  0.6788
  311SOL    MW4 1353   1.147   2.308   0.834  0.2387 -0.1111  0.1178
  312SOL     OW 1354   0.936   2.464   0.705 -0.0467 -0.2680 -0.3820
  312SOL    HW2 1355   1.008   2.411   0.739 -0.4671 -0.2312  0.5973
  312SOL    HW3 1356   0.857   2.420   0.737 -0.4144  0.5531 -0.1349
  312SOL    MW4 1357   0.935   2.452   0.714 -0.1507 -0.1547 -0.2202
  313SOL     OW 1358   0.935   2.731   0.791 -0.1488  0.0985 -0.5665
  313SOL    HW2 1359   0.948   2.721   0.885 -0.7488  0.8080 -0.4058
  313SOL    HW3 1360   0.938   2.642   0.757 -0.1874 -0.1832  0.1586
  313SOL    MW4 1361   0.937   2.718   0.799 -0.2331  0.1550 -0.4495
  314SOL     OW 1362   1.150   2.858   0.702  0.1515  0.2427 -0.4554
  314SOL    HW2 1363   1.080   2.809   0.745  1.3846 -0.6862  0.5693
  314SOL    HW3 1364   1.139   2.839   0.609  0.5135 -1.9384 -0.0950
  314SOL    MW4 1365   1.140   2.849   0.695  0.3620 -0.1674 -0.2727
  315SOL     OW 1366   1.158   3.120   0.811  0.2282 -0.0310 -0.1871
  315SOL    HW2 1367   1.071   3.151   0.785  0.2285  0.1991  0.0855
  315SOL    HW3 1368   1.162   3.030   0.778 -0.3919 -0.2931  0.4385
  315SOL    MW4 1369   1.147   3.112   0.803  0.1464 -0.0353 -0.0687
  316SOL     OW 1370   0.913   3.240   0.752 -0.5659 -0.2040  0.5174
  316SOL    HW2 1371   0.925   3.331   0.781  0.6235 -0.3801  0.6047
  316SOL    HW3 1372   0.843   3.206   0.807  0.6792 -0.0966  2.2264
  316SOL    MW4 1373   0.906   3.248   0.763 -0.2448 -0.2129  0.7544
  317SOL     OW 1374   0.991   3.488   0.883  0.2548  0.0069  0.1682
  317SOL    HW2 1375   1.071   3.495   0.832  0.1385  0.3421  0.0302
  317SOL    HW3 1376   0.924   3.530   0.829 -0.1743 -0.9821 -0.0707
  317SOL    MW4 1377   0.993   3.495   0.869  0.1829 -0.0792  0.1185
  318SOL     OW 1378   1.187   3.600   0.698  0.0233  0.4254  0.2515
  318SOL    HW2 1379   1.254   3.553   0.747 -0.7779 -0.6188  0.3679
  318SOL    HW3 1380   1.176   3.550   0.618 -1.1478  0.1630  0.5643
  318SOL    MW4 1381   1.194   3.587   0.694 -0.2369  0.2530  0.3081
  319SOL     OW 1382   1.153   3.873   0.806  0.3662  0.2644 -0.5119
  319SOL    HW2 1383   1.170   3.885   0.899  1.4141  0.5693 -0.7344
  319SOL    HW3 1384   1.171   3.780   0.790 -0.2844  0.1062 -0.3110
  319SOL    MW4 1385   1.158   3.862   0.816  0.4187  0.2837 -0.5147
  320SOL     OW 1386   0.893   4.016   0.795  0.1992 -0.0052 -0.0573
  320SOL    HW2 1387   0.891   4.085   0.861  1.4630  1.2791 -1.3429
  320SOL    HW3 1388   0.981   3.980   0.800 -0.2603 -1.1230  0.1835
  320SOL    MW4 1389   0.904   4.020   0.804  0.3054  0.0167 -0.1951
  321SOL     OW 1390   0.890   4.264   0.942 -0.4852  0.0767  0.1856
  321SOL    HW2 1391   0.961   4.302   0.890 -0.0664  0.5976  1.1257
  321SOL    HW3 1392   0.810   4.303   0.906 -0.1711  0.6881  0.1359
  321SOL    MW4 1393   0.889   4.274   0.931 -0.3884  0.2260  0.3031
  322SOL     OW 1394   1.097   4.386   0.766 -0.2599  0.7264 -0.0189
  322SOL    HW2 1395   1.180   4.339   0.765 -1.0806 -0.7715  0.8532
  322SOL    HW3 1396   1.117   4.470   0.806  0.5605 -0.1745  1.5006
  322SOL    MW4 1397   1.110   4.391   0.771 -0.2599  0.4091  0.2967
  323SOL     OW 1398   1.554   0.029   0.847 -0.6173  0.2115 -0.4969
  323SOL    HW2 1399   1.545  -0.000   0.938 -0.6995  0.0809 -0.5479
  323SOL    HW3 1400   1.469   0.069   0.826 -0.1314  1.5191 -0.0551
  323SOL    MW4 1401   1.542   0.031   0.856 -0.5640  0.3667 -0.4454
  324SOL     OW 1402   1.304   0.121   0.762 -0.0037  0.2429 -0.0584
  324SOL    HW2 1403   1.322   0.209   0.796  1.3893  0.4903 -1.3467
  324SOL    HW3 1404   1.298   0.134   0.667 -0.1833 -0.9932 -0.2207
  324SOL    MW4 1405   1.306   0.134   0.754  0.1564  0.1125 -0.2498
  325SOL     OW 1406   1.345   0.373   0.893  0.2179  0.3589  0.1390
  325SOL    HW2 1407   1.350   0.359   0.988 -0.1097  1.5040  0.3275
  325SOL    HW3 1408   1.421   0.426   0.872  0.5334 -0.2647 -0.3190
  325SOL    MW4 1409   1.356   0.378   0.903  0.2162  0.4277  0.1035
  326SOL     OW 1410   1.552   0.528   0.806 -0.0037  0.1301 -0.2191
  326SOL    HW2 1411   1.524   0.619   0.820  0.1904  0.3150 -0.9891
  326SOL    HW3 1412   1.647   0.531   0.819 -0.2872 -0.4490  2.1581
  326SOL    MW4 1413   1.561   0.541   0.810 -0.0156  0.0781 -0.0072
  327SOL     OW 1414   1.556   0.814   0.826  0.2805 -0.5086  0.0701
  327SOL    HW2 1415   1.635   0.841   0.781  1.7287 -0.5450  2.4832
  327SOL    HW3 1416   1.487   0.872   0.794  1.7955  1.0978 -0.2779
  327SOL    MW4 1417   1.557   0.825   0.816  0.6714 -0.3014  0.3425
  328SOL     OW 1418   1.334   0.975   0.764 -0.3127 -0.6822 -0.1412
  328SOL    HW2 1419   1.318   1.057   0.811 -0.1116 -1.1658  0.7829
  328SOL    HW3 1420   1.256   0.922   0.781 -0.1751 -0.9173 -0.2389
  328SOL    MW4 1421   1.322   0.979   0.772 -0.2681 -0.7771 -0.0321
  329SOL     OW 1422   1.323   1.214   0.890  0.2964 -0.2791  0.0115
  329SOL    HW2 1423   1.409   1.223   0.849  0.0441 -2.7472 -1.1554
  329SOL    HW3 1424   1.264   1.263   0.833  0.3808 -1.4552 -1.0966
  329SOL    MW4 1425   1.327   1.222   0.877  0.2743 -0.7598 -0.2887
  330SOL     OW 1426   1.558   1.253   0.705 -0.1206 -0.3058 -0.1892
  330SOL    HW2 1427   1.559   1.338   0.749  0.2065  0.6447 -1.9651
  330SOL    HW3 1428   1.526   1.272   0.617  1.9007 -1.6770 -1.2680
  330SOL    MW4 1429   1.554   1.267   0.699  0.1893 -0.3613 -0.5658
  331SOL     OW 1430   1.581   1.507   0.828  0.1955 -0.3607 -0.2189
  331SOL    HW2 1431   1.590   1.541   0.917 -0.3599 -1.1343  0.1386
  331SOL    HW3 1432   1.506   1.554   0.792 -0.7305 -1.3698  0.3617
  331SOL    MW4 1433   1.572   1.518   0.835  0.0000 -0.5958 -0.0951
  332SOL     OW 1434   1.340   1.650   0.756 -0.0816  0.2641  0.5387
  332SOL    HW2 1435   1.349   1.733   0.803  1.8774  0.7074 -0.5503
  332SOL    HW3 1436   1.257   1.614   0.785 -0.1403  1.8028  2.3143
  332SOL    MW4 1437   1.330   1.656   0.766  0.1692  0.5257  0.6292
  333SOL     OW 1438   1.317   1.916   0.846 -0.2791  0.2100 -0.0923
  333SOL    HW2 1439   1.314   1.937   0.939 -1.6541 -2.1735  0.4369
  333SOL    HW3 1440   1.245   1.966   0.808 -1.7826 -1.2938  0.6960
  333SOL    MW4 1441   1.308   1.925   0.853 -0.6589 -0.3029  0.0815
  334SOL     OW 1442   1.533   2.051   0.764  0.2366 -0.4034  0.0249
  334SOL    HW2 1443   1.466   1.994   0.802  0.8028 -1.3750 -0.4265
  334SOL    HW3 1444   1.525   2.039   0.669  0.7358 -0.1750 -0.0513
  334SOL    MW4 1445   1.523   2.042   0.757  0.3772 -0.5014 -0.0446
  335SOL     OW 1446   1.530   2.315   0.872  0.1802 -0.2019  0.4444
  335SOL    HW2 1447   1.474   2.360   0.809  1.3240  0.3260 -0.2133
  335SOL    HW3 1448   1.525   2.223   0.847 -1.5147 -0.3473  1.2811
  335SOL    MW4 1449   1.522   2.309   0.861  0.1074 -0.1516  0.4680
  336SOL     OW 1450   1.360   2.454   0.706 -0.2598  0.8651 -0.0489
  336SOL    HW2 1451   1.351   2.544   0.738  0.6530  0.4292  1.4812
  336SOL    HW3 1452   1.363   2.463   0.611  0.9701  2.5698  0.1274
  336SOL    MW4 1453   1.359   2.467   0.698  0.0229  1.0326  0.1762
  337SOL     OW 1454   1.348   2.704   0.813 -0.0849 -0.0123 -0.5154
  337SOL    HW2 1455   1.336   2.704   0.908 -0.1354  0.1228 -0.5201
  337SOL    HW3 1456   1.284   2.769   0.782 -0.2352 -0.2327 -0.6624
  337SOL    MW4 1457   1.338   2.713   0.822 -0.1115 -0.0236 -0.5354
  338SOL     OW 1458   1.592   2.794   0.734 -0.3034  0.4535 -0.3848
  338SOL    HW2 1459   1.597   2.882   0.773  1.4941 -0.1742  0.8652
  338SOL    HW3 1460   1.505   2.762   0.757  0.1824  0.6861  1.8687
  338SOL    MW4 1461   1.581   2.802   0.742 -0.0021  0.4013  0.0774
  339SOL     OW 1462   1.645   3.057   0.818 -0.3345 -0.0867  0.1168
  339SOL    HW2 1463   1.636   3.062   0.913  0.6827 -0.6848  0.2488
  339SOL    HW3 1464   1.580   3.119   0.784 -0.9616 -0.1633  1.1891
  339SOL    MW4 1465   1.635   3.066   0.826 -0.2831 -0.1760  0.2757
  340SOL     OW 1466   1.415   3.212   0.753  0.0812  0.0796 -0.1887
  340SOL    HW2 1467   1.333   3.173   0.784 -0.3859  0.9809 -0.2757
  340SOL    HW3 1468   1.421   3.186   0.661  0.5042 -0.9919  0.1318
  340SOL    MW4 1469   1.405   3.204   0.745  0.0753  0.0572 -0.1578
  341SOL     OW 1470   1.395   3.494   0.847  0.0393 -0.1900 -0.0894
  341SOL    HW2 1471   1.463   3.548   0.806 -0.0974 -0.6725 -0.9650
  341SOL    HW3 1472   1.414   3.405   0.817 -0.3935 -0.4711  0.4578
  341SOL    MW4 1473   1.407   3.490   0.838 -0.0359 -0.2906 -0.1327
  342SOL     OW 1474   1.591   3.625   0.698  0.1016  0.2930 -0.2216
  342SOL    HW2 1475   1.657   3.563   0.730  0.0076 -0.0859 -0.7334
  342SOL    HW3 1476   1.563   3.587   0.614 -0.5284  0.6214 -0.1595
  342SOL    MW4 1477   1.596   3.612   0.691  0.0061  0.2863 -0.2809
  343SOL     OW 1478   1.598   3.881   0.832 -0.6246 -0.1536  0.1005
  343SOL    HW2 1479   1.526   3.924   0.787 -0.2226 -0.3092 -0.7151
  343SOL    HW3 1480   1.602   3.794   0.793 -0.5112 -0.4221  0.7089
  343SOL    MW4 1481   1.589   3.875   0.821 -0.5566 -0.2096  0.0733
  344SOL     OW 1482   1.389   4.022   0.744 -0.1521  0.3585  0.5357
  344SOL    HW2 1483   1.302   3.984   0.756 -0.0910  0.1271  0.2518
  344SOL    HW3 1484   1.393   4.045   0.652  0.4408 -0.5356  0.3266
  344SOL    MW4 1485   1.378   4.020   0.734 -0.0658  0.2098  0.4706
  345SOL     OW 1486   1.359   4.298   0.865 -0.2680  0.1622  0.1125
  345SOL    HW2 1487   1.425   4.350   0.817 -0.6227  1.3953  0.9400
  345SOL    HW3 1488   1.372   4.209   0.833  2.2979  0.2493  0.7817
  345SOL    MW4 1489   1.370   4.293   0.854  0.0237  0.3362  0.3099
  346SOL     OW 1490   1.575   4.435   0.724 -0.2195 -0.0721 -0.2077
  346SOL    HW2 1491   1.651   4.391   0.761  0.5558  0.4346 -1.1737
  346SOL    HW3 1492   1.574   4.521   0.766  0.6189  0.4765 -1.2943
  346SOL    MW4 1493   1.585   4.440   0.734 -0.0066  0.0668 -0.4786
  347SOL     OW 1494   2.013   4.656   0.858 -0.5417 -0.3380  0.1198
  347SOL    HW2 1495   2.090   4.706   0.829  1.2421 -2.2536  1.4242
  347SOL    HW3 1496   2.022   4.571   0.814 -2.2714 -0.3877 -0.1930
  347SOL    MW4 1497   2.024   4.651   0.848 -0.5345 -0.5973  0.2506
  348SOL     OW 1498   1.799   0.162   0.831  0.0146  0.2224  0.4347
  348SOL    HW2 1499   1.867   0.095   0.841  1.1059  1.1567 -0.5517
  348SOL    HW3 1500   1.717   0.113   0.825  0.7865 -1.0202 -0.1359
  348SOL    MW4 1501   1.797   0.147   0.831  0.2605  0.1817  0.2293
  349SOL     OW 1502   1.798   0.446   0.874  0.0416 -0.1314  0.2713
  349SOL    HW2 1503   1.798   0.354   0.847  0.1121 -0.3673  1.0604
  349SOL    HW3 1504   1.882   0.480   0.845 -0.4162 -0.0307 -0.9667
  349SOL    MW4 1505   1.809   0.439   0.867 -0.0095 -0.1493  0.2121
  350SOL     OW 1506   2.046   0.505   0.755 -0.0238 -0.1476  0.0025
  350SOL    HW2 1507   2.116   0.442   0.771 -2.5618 -2.8522  0.9209
  350SOL    HW3 1508   2.013   0.484   0.668  0.6201  1.4655 -0.6536
  350SOL    MW4 1509   2.051   0.494   0.746 -0.2742 -0.2916  0.0370
  351SOL     OW 1510   2.023   0.766   0.858 -0.2886 -0.4159  0.3830
  351SOL    HW2 1511   2.084   0.816   0.803 -0.4913 -1.2455 -0.6106
  351SOL    HW3 1512   2.038   0.675   0.833 -0.4560 -0.7977  1.6419
  351SOL    MW4 1513   2.033   0.761   0.847 -0.3374 -0.5757  0.4179
  352SOL     OW 1514   1.801   0.899   0.716 -0.0708  0.0324  0.0820
  352SOL    HW2 1515   1.809   0.978   0.771  2.1161  0.3809 -0.6598
  352SOL    HW3 1516   1.858   0.835   0.759 -1.0658 -0.8426  0.1190
  352SOL    MW4 1517   1.810   0.901   0.729  0.0864 -0.0371 -0.0110
  353SOL     OW 1518   1.811   1.161   0.819 -0.1191 -0.1867  0.1840
  353SOL    HW2 1519   1.879   1.221   0.788  0.2697 -0.4950  0.4339
  353SOL    HW3 1520   1.729   1.198   0.785  0.0759  0.7082  0.6676
  353SOL    MW4 1521   1.809   1.174   0.810 -0.0421 -0.1094  0.2808
  354SOL     OW 1522   2.024   1.315   0.724 -0.4349 -0.1209  0.0201
  354SOL    HW2 1523   2.094   1.253   0.745 -0.1721  0.6554  1.5152
  354SOL    HW3 1524   2.054   1.359   0.644  1.4533  1.1648  1.3933
  354SOL    MW4 1525   2.037   1.312   0.716 -0.1514  0.1512  0.3985
  355SOL     OW 1526   2.048   1.552   0.847 -0.3185  0.3022 -0.3385
  355SOL    HW2 1527   2.119   1.596   0.801 -0.0736 -0.0972 -0.3400
  355SOL    HW3 1528   2.050   1.462   0.815 -1.8591  0.6758 -1.5651
  355SOL    MW4 1529   2.057   1.546   0.837 -0.4897  0.2989 -0.5006
  356SOL     OW 1530   1.794   1.678   0.763  0.1665 -0.2404  0.4126
  356SOL    HW2 1531   1.871   1.624   0.781 -0.5860 -1.3378  0.3162
  356SOL    HW3 1532   1.720   1.627   0.795 -0.7953 -0.4102 -1.9739
  356SOL    MW4 1533   1.794   1.664   0.769 -0.0597 -0.4076  0.0851
  357SOL     OW 1534   1.806   1.962   0.842  0.0135 -0.0913  0.3408
  357SOL    HW2 1535   1.789   1.879   0.797 -0.5801 -0.0992  0.5799
  357SOL    HW3 1536   1.730   2.017   0.821 -0.3866 -0.1762  1.5252
  357SOL    MW4 1537   1.794   1.958   0.833 -0.1177 -0.1036  0.5286
  358SOL     OW 1538   2.037   2.069   0.734 -0.0522  0.2545 -0.3407
  358SOL    HW2 1539   2.028   2.160   0.762 -1.5872  0.2784 -0.9182
  358SOL    HW3 1540   1.962   2.024   0.772  0.7080 -0.7930 -0.0448
  358SOL    MW4 1541   2.026   2.075   0.743 -0.1543  0.1192 -0.3778
  359SOL     OW 1542   2.025   2.331   0.831  0.2337  0.2819  0.1261
  359SOL    HW2 1543   2.035   2.330   0.926  0.9257 -0.2288  0.0464
  359SOL    HW3 1544   1.935   2.362   0.817 -0.1856 -0.5121  0.9700
  359SOL    MW4 1545   2.014   2.335   0.842  0.2697  0.1097  0.2270
  360SOL     OW 1546   1.783   2.439   0.803  0.3606  0.0977 -0.2592
  360SOL    HW2 1547   1.694   2.416   0.830  0.1820  1.1330  0.0320
  360SOL    HW3 1548   1.780   2.435   0.707  0.3634 -1.2033 -0.2110
  360SOL    MW4 1549   1.771   2.435   0.794  0.3375  0.0627 -0.2145
  361SOL     OW 1550   1.830   2.712   0.892 -0.0643 -0.6504 -0.1142
  361SOL    HW2 1551   1.841   2.618   0.874 -1.4918 -0.9315  0.4141
  361SOL    HW3 1552   1.756   2.739   0.838 -0.6445 -0.1847  0.8953
  361SOL    MW4 1553   1.822   2.703   0.882 -0.3293 -0.6258  0.0887
  362SOL     OW 1554   2.033   2.828   0.733  0.1971 -0.5315  0.0181
  362SOL    HW2 1555   2.114   2.801   0.776  1.4997  1.2606 -1.2308
  362SOL    HW3 1556   1.963   2.783   0.781  1.5924  1.1882  3.8244
  362SOL    MW4 1557   2.034   2.818   0.745  0.5531 -0.0682  0.3555
  363SOL     OW 1558   2.048   3.072   0.867  0.1711 -0.1706  0.0123
  363SOL    HW2 1559   1.984   3.116   0.812  1.3076  0.2337 -1.0287
  363SOL    HW3 1560   2.046   2.981   0.838 -0.1937 -0.2343  0.2381
  363SOL    MW4 1561   2.040   3.066   0.856  0.2730 -0.1259 -0.0952
  364SOL     OW 1562   1.859   3.221   0.719  0.4925 -0.2142  0.2098
  364SOL    HW2 1563   1.797   3.161   0.760  0.9372 -0.8039  0.0179
  364SOL    HW3 1564   1.869   3.189   0.630  0.7219  0.1538  0.1007
  364SOL    MW4 1565   1.852   3.209   0.713  0.5814 -0.2434  0.1701
  365SOL     OW 1566   1.802   3.482   0.829 -0.3404  0.2408 -0.6331
  365SOL    HW2 1567   1.799   3.476   0.925  0.4263 -1.2342 -0.6889
  365SOL    HW3 1568   1.820   3.393   0.800  2.8629  1.2447 -1.9742
  365SOL    MW4 1569   1.804   3.469   0.838  0.1835  0.1788 -0.8175
  366SOL     OW 1570   2.028   3.597   0.714 -0.4808 -0.2116 -0.0570
  366SOL    HW2 1571   2.024   3.688   0.742 -0.3602 -0.5268  0.9965
  366SOL    HW3 1572   1.950   3.557   0.751 -0.4696 -0.5651 -0.4125
  366SOL    MW4 1573   2.018   3.604   0.722 -0.4637 -0.2997  0.0351
  367SOL     OW 1574   2.021   3.864   0.775 -0.2503 -0.0881  0.1151
  367SOL    HW2 1575   2.018   3.868   0.870 -0.1250  0.1863  0.1090
  367SOL    HW3 1576   1.943   3.910   0.746  0.7259  1.6087  0.0583
  367SOL    MW4 1577   2.011   3.871   0.784 -0.1049  0.1721  0.1068
  368SOL     OW 1578   1.807   4.034   0.703 -0.2593 -0.2073 -0.0492
  368SOL    HW2 1579   1.741   3.984   0.750  0.5238 -2.0075 -0.7942
  368SOL    HW3 1580   1.783   4.025   0.610  0.2143  0.3244 -0.2262
  368SOL    MW4 1581   1.795   4.026   0.697 -0.0935 -0.3748 -0.1708
  369SOL     OW 1582   1.819   4.287   0.803 -0.6482 -0.1295 -0.2595
  369SOL    HW2 1583   1.832   4.268   0.896 -0.9383  0.8883  0.0054
  369SOL    HW3 1584   1.809   4.202   0.761  0.3285 -0.6322  0.5165
  369SOL    MW4 1585   1.819   4.273   0.810 -0.5575 -0.0615 -0.1222
  370SOL     OW 1586   2.061   4.397   0.743  0.6036 -0.2967  0.1051
  370SOL    HW2 1587   1.974   4.364   0.761  0.1567  0.6833 -0.2170
  370SOL    HW3 1588   2.075   4.380   0.650 -0.1936  1.6645 -0.3978
  370SOL    MW4 1589   2.052   4.390   0.733  0.4394  0.0916 -0.0038
  371SOL     OW 1590   2.494   4.623   0.844  0.8469  0.5131 -0.2124
  371SOL    HW2 1591   2.477   4.615   0.938  1.5422  0.0636 -0.1266
  371SOL    HW3 1592   2.513   4.534   0.815  0.8216  0.6810 -0.7413
  371SOL    MW4 1593   2.494   4.611   0.853  0.9351  0.4759 -0.2709
  372SOL     OW 1594   2.268   0.105   0.758 -0.2884  0.2968  0.0872
  372SOL    HW2 1595   2.339   0.049   0.789 -1.4090 -1.2950 -0.1151
  372SOL    HW3 1596   2.250   0.074   0.669 -1.3987  0.4885  0.2318
  372SOL    MW4 1597   2.275   0.093   0.750 -0.5825  0.1121  0.0795
  373SOL     OW 1598   2.263   0.364   0.833  0.1847 -0.2544 -0.4066
  373SOL    HW2 1599   2.342   0.408   0.800  0.0812  0.0939 -0.1974
  373SOL    HW3 1600   2.272   0.273   0.805  0.1424  0.0172 -1.3299
  373SOL    MW4 1601   2.274   0.358   0.825  0.1655 -0.1726 -0.5008
  374SOL     OW 1602   2.477   0.511   0.719  0.0828  0.1083 -0.4200
  374SOL    HW2 1603   2.558   0.466   0.742  0.1698  0.0905 -0.7580
  374SOL    HW3 1604   2.457   0.481   0.630  0.7377  1.5951 -1.0816
  374SOL    MW4 1605   2.485   0.501   0.710  0.1805  0.3021 -0.5518
  375SOL     OW 1606   2.437   0.784   0.774  0.6216 -0.2079 -0.4310
  375SOL    HW2 1607   2.519   0.825   0.745  1.5519 -1.3611  0.5099
  375SOL    HW3 1608   2.454   0.690   0.768  0.0262 -0.4639  1.5602
  375SOL    MW4 1609   2.450   0.777   0.769  0.6659 -0.3938 -0.0440
  376SOL     OW 1610   2.201   0.901   0.686 -0.4175  0.2377 -0.1387
  376SOL    HW2 1611   2.284   0.860   0.709  0.3674  1.0568 -1.4734
  376SOL    HW3 1612   2.187   0.875   0.595 -0.1114  2.6039 -0.8760
  376SOL    MW4 1613   2.210   0.892   0.677 -0.2735  0.6580 -0.4120
  377SOL     OW 1614   2.226   1.142   0.793  0.3917 -0.2743 -0.0923
  377SOL    HW2 1615   2.218   1.118   0.885 -1.9389  0.9026  0.0610
  377SOL    HW3 1616   2.211   1.060   0.745 -1.1061 -0.3857  0.5395
  377SOL    MW4 1617   2.223   1.128   0.799 -0.1132 -0.1338  0.0113
  378SOL     OW 1618   2.461   1.244   0.708 -0.2929  0.1238  0.0332
  378SOL    HW2 1619   2.392   1.183   0.735  0.2563 -1.1907 -1.4363
  378SOL    HW3 1620   2.439   1.268   0.618  0.1528  1.1429  0.1915
  378SOL    MW4 1621   2.449   1.239   0.700 -0.1616  0.0849 -0.1399
  379SOL     OW 1622   2.493   1.505   0.830  0.0045  0.3419  0.1823
  379SOL    HW2 1623   2.563   1.558   0.793  1.2702 -0.9308  0.7053
  379SOL    HW3 1624   2.494   1.424   0.780 -0.2342 -0.1927  1.0197
  379SOL    MW4 1625   2.502   1.501   0.819  0.1397  0.1034  0.3618
  380SOL     OW 1626   2.283   1.692   0.734 -0.3323  0.3533 -0.2808
  380SOL    HW2 1627   2.348   1.627   0.759 -0.2055  0.1905 -1.0266
  380SOL    HW3 1628   2.259   1.669   0.644 -0.3460  1.2828 -0.5185
  380SOL    MW4 1629   2.288   1.681   0.726 -0.3171  0.4545 -0.4106
  381SOL     OW 1630   2.293   1.951   0.851  0.7633  0.1606 -0.0350
  381SOL    HW2 1631   2.301   1.867   0.805 -1.2128 -0.1051  0.0753
  381SOL    HW3 1632   2.207   1.984   0.825  0.6771  1.1886  1.5284
  381SOL    MW4 1633   2.283   1.944   0.841  0.4909  0.2612  0.1858
  382SOL     OW 1634   2.473   2.102   0.698  0.1467  0.2744  0.4245
  382SOL    HW2 1635   2.406   2.043   0.733  0.9947 -0.6102  0.5872
  382SOL    HW3 1636   2.435   2.134   0.616 -0.4848 -0.1969  0.5207
  382SOL    MW4 1637   2.459   2.099   0.692  0.1755  0.0954  0.4587
  383SOL     OW 1638   2.463   2.331   0.852 -0.1563 -0.5075 -0.1404
  383SOL    HW2 1639   2.550   2.369   0.837 -0.6306  0.7382  0.2396
  383SOL    HW3 1640   2.467   2.245   0.809  0.6386  0.3357 -1.7884
  383SOL    MW4 1641   2.475   2.324   0.844 -0.1137 -0.2320 -0.3077
  384SOL     OW 1642   2.237   2.491   0.735 -0.3627 -0.4420 -0.1494
  384SOL    HW2 1643   2.311   2.438   0.765 -1.3230 -1.7029  0.0542
  384SOL    HW3 1644   2.160   2.436   0.750 -1.2041  0.2290 -1.8111
  384SOL    MW4 1645   2.237   2.477   0.741 -0.6006 -0.5198 -0.3417
  385SOL     OW 1646   2.252   2.739   0.857  0.2800  0.3857  0.3481
  385SOL    HW2 1647   2.241   2.749   0.952 -1.8462  0.7844  0.0839
  385SOL    HW3 1648   2.246   2.644   0.843  0.5112  0.3316  0.6050
  385SOL    MW4 1649   2.250   2.728   0.868  0.0300  0.4315  0.3471
  386SOL     OW 1650   2.487   2.841   0.730 -0.1317  0.6813  0.0610
  386SOL    HW2 1651   2.554   2.796   0.781 -0.3602  0.0743 -0.1640
  386SOL    HW3 1652   2.404   2.816   0.772 -0.3284  0.1230 -0.6296
  386SOL    MW4 1653   2.485   2.832   0.742 -0.1876  0.5276 -0.0598
  387SOL     OW 1654   2.478   3.124   0.819  0.2214  0.5920  0.3351
  387SOL    HW2 1655   2.452   3.105   0.909 -0.0757  1.3252  0.4147
  387SOL    HW3 1656   2.495   3.039   0.779  0.6268  0.2823  1.1684
  387SOL    MW4 1657   2.476   3.110   0.825  0.2353  0.6475  0.4555
  388SOL     OW 1658   2.237   3.233   0.703 -0.9108  0.1059  0.0930
  388SOL    HW2 1659   2.169   3.192   0.756 -0.6268 -1.4843 -0.7655
  388SOL    HW3 1660   2.319   3.198   0.738 -0.6005  0.8844  0.1532
  388SOL    MW4 1661   2.239   3.223   0.715 -0.8326 -0.0012 -0.0123
  389SOL     OW 1662   2.259   3.476   0.828  0.2878  0.4380  0.0472
  389SOL    HW2 1663   2.258   3.393   0.781  1.5711  0.6238 -0.3158
  389SOL    HW3 1664   2.173   3.515   0.810  0.0377 -0.3770 -0.5431
  389SOL    MW4 1665   2.248   3.470   0.820  0.4241  0.3552 -0.0785
  390SOL     OW 1666   2.479   3.603   0.719  0.6415  0.1525  0.1988
  390SOL    HW2 1667   2.556   3.566   0.761  1.1142  0.9706  0.0670
  390SOL    HW3 1668   2.405   3.562   0.764  1.1483 -0.5289  0.4211
  390SOL    MW4 1669   2.479   3.593   0.731  0.7706  0.1705  0.2108
  391SOL     OW 1670   2.482   3.852   0.838  0.3165 -0.1504 -0.4488
  391SOL    HW2 1671   2.413   3.890   0.784  2.0046  1.2569 -1.6577
  391SOL    HW3 1672   2.483   3.759   0.814 -1.8251 -0.4277  0.3601
  391SOL    MW4 1673   2.473   3.845   0.828  0.2568 -0.0014 -0.5016
  392SOL     OW 1674   2.253   3.994   0.698 -0.2657  0.4663 -0.0203
  392SOL    HW2 1675   2.172   3.946   0.716  0.2487 -0.1634  0.6681
  392SOL    HW3 1676   2.263   3.991   0.603  0.3701 -1.8149  0.0950
  392SOL    MW4 1677   2.244   3.987   0.688 -0.1142  0.0823  0.0858
  393SOL     OW 1678   2.259   4.242   0.843  0.3253  0.3342 -0.1286
  393SOL    HW2 1679   2.245   4.152   0.815  0.4463  0.7220 -1.4321
  393SOL    HW3 1680   2.183   4.290   0.810  0.7485  0.8989 -0.2856
  393SOL    MW4 1681   2.247   4.236   0.835  0.3972  0.4592 -0.3213
  394SOL     OW 1682   2.485   4.365   0.718  0.2601  0.1282  0.1241
  394SOL    HW2 1683   2.564   4.310   0.724  0.1106 -0.1065 -0.0788
  394SOL    HW3 1684   2.422   4.322   0.775 -0.0997 -0.3193 -0.6084
  394SOL    MW4 1685   2.487   4.352   0.726  0.1929  0.0381  0.0007
  395SOL     OW 1686   2.897   4.640   0.791  0.2717 -0.2726  0.0789
  395SOL    HW2 1687   2.903   4.569   0.727  0.6830 -0.4207  0.2803
  395SOL    HW3 1688   2.815   4.686   0.768  1.0658  0.4738 -1.3731
  395SOL    MW4 1689   2.887   4.637   0.779  0.4306 -0.1931 -0.0861
  396SOL     OW 1690   2.590   0.170   0.449  0.3711  0.0209  0.5957
  396SOL    HW2 1691   2.665   0.154   0.392  1.6283  1.2449  1.8495
  396SOL    HW3 1692   2.612   0.125   0.531 -0.8851 -0.7558  0.5193
  396SOL    MW4 1693   2.603   0.162   0.452  0.3715  0.0799  0.7510
  397SOL     OW 1694   2.698   0.356   0.791  0.1102  0.4056  0.2805
  397SOL    HW2 1695   2.682   0.336   0.883  0.2235 -1.0488 -0.0019
  397SOL    HW3 1696   2.789   0.385   0.788  0.3725 -0.3851  0.5046
  397SOL    MW4 1697   2.707   0.358   0.802  0.1597  0.1094  0.2728
  398SOL     OW 1698   2.962   0.460   0.752  0.2720  0.5661 -0.0212
  398SOL    HW2 1699   3.035   0.401   0.772 -0.4863  0.1280  1.5362
  398SOL    HW3 1700   2.958   0.461   0.656  0.6250 -1.5239 -0.0934
  398SOL    MW4 1701   2.971   0.452   0.742  0.2186  0.2326  0.1748
  399SOL     OW 1702   2.909   0.736   0.810 -0.1084  0.0576 -0.3708
  399SOL    HW2 1703   2.905   0.750   0.905  1.3318  1.8960 -0.5700
  399SOL    HW3 1704   2.933   0.643   0.801  3.6419  0.7858  1.1387
  399SOL    MW4 1705   2.912   0.725   0.822  0.5765  0.3963 -0.1979
  400SOL     OW 1706   2.720   0.890   0.655  0.3105 -0.0495  0.2742
  400SOL    HW2 1707   2.786   0.844   0.708  0.2018  0.0504  0.4950
  400SOL    HW3 1708   2.732   0.855   0.566 -0.1585 -0.9339  0.5542
  400SOL    MW4 1709   2.731   0.879   0.650  0.2341 -0.1529  0.3402
  401SOL     OW 1710   2.684   1.108   0.801 -0.2410  0.0216  0.2886
  401SOL    HW2 1711   2.682   1.029   0.748 -1.2571  1.6011 -2.0845
  401SOL    HW3 1712   2.610   1.160   0.770  1.1361  2.4499  0.9392
  401SOL    MW4 1713   2.674   1.104   0.790 -0.1934  0.5504  0.0613
  402SOL     OW 1714   2.891   1.259   0.709 -0.1235  0.8915 -0.0833
  402SOL    HW2 1715   2.967   1.201   0.717 -0.2423  0.6678 -0.5262
  402SOL    HW3 1716   2.816   1.202   0.727 -0.2039  1.0432  0.0564
  402SOL    MW4 1717   2.891   1.244   0.712 -0.1497  0.8819 -0.1232
  403SOL     OW 1718   2.907   1.545   0.767 -0.2144  0.0420 -0.1618
  403SOL    HW2 1719   2.983   1.592   0.734  0.4033  0.2096  1.4721
  403SOL    HW3 1720   2.918   1.455   0.734 -0.1583  0.4411 -1.2631
  403SOL    MW4 1721   2.918   1.539   0.758 -0.1256  0.1166 -0.0916
  404SOL     OW 1722   2.652   1.683   0.715 -0.0502  0.3798 -0.0254
  404SOL    HW2 1723   2.657   1.771   0.753 -1.5633  0.6624 -0.4354
  404SOL    HW3 1724   2.739   1.646   0.729 -0.0670  1.0724  2.2443
  404SOL    MW4 1725   2.664   1.690   0.722 -0.2520  0.5084  0.2199
  405SOL     OW 1726   2.685   1.951   0.789 -0.0273 -0.1431 -0.1452
  405SOL    HW2 1727   2.674   1.940   0.884 -1.1212 -2.9299 -0.5547
  405SOL    HW3 1728   2.608   2.001   0.762 -0.6767 -0.9692  0.1662
  405SOL    MW4 1729   2.673   1.956   0.798 -0.2573 -0.6199 -0.1582
  406SOL     OW 1730   2.842   2.110   0.609 -0.1333  0.0187 -0.3809
  406SOL    HW2 1731   2.880   2.184   0.656 -0.0545 -0.4229  0.2512
  406SOL    HW3 1732   2.803   2.055   0.677  2.5102 -2.1262 -0.5159
  406SOL    MW4 1733   2.842   2.112   0.624  0.2255 -0.3226 -0.3154
  407SOL     OW 1734   2.932   2.296   0.800  0.4107 -0.4800 -0.1633
  407SOL    HW2 1735   2.931   2.288   0.896 -0.2060  0.4047 -0.0990
  407SOL    HW3 1736   2.857   2.351   0.779 -0.8918 -2.6279 -1.3407
  407SOL    MW4 1737   2.922   2.302   0.810  0.1574 -0.6466 -0.3102
  408SOL     OW 1738   2.694   2.455   0.768 -0.0163  0.1423 -0.1382
  408SOL    HW2 1739   2.665   2.463   0.677 -2.8027  0.7570  0.7548
  408SOL    HW3 1740   2.702   2.545   0.799 -0.0426 -0.0761  0.5093
  408SOL    MW4 1741   2.692   2.468   0.760 -0.3872  0.1948  0.0651
  409SOL     OW 1742   2.704   2.711   0.855 -0.0219 -0.6365 -0.0281
  409SOL    HW2 1743   2.714   2.699   0.950 -0.2449  0.0208  0.0784
  409SOL    HW3 1744   2.791   2.740   0.826  0.2005 -1.3749 -0.1122
  409SOL    MW4 1745   2.717   2.713   0.864 -0.0219 -0.6473 -0.0252
  410SOL     OW 1746   2.921   2.892   0.466 -0.1797 -0.3901 -0.1736
  410SOL    HW2 1747   2.859   2.962   0.443  0.9736  0.4542 -0.7345
  410SOL    HW3 1748   2.882   2.813   0.427 -0.7599  0.1849 -0.7833
  410SOL    MW4 1749   2.907   2.891   0.458 -0.1040 -0.2027 -0.3281
  411SOL     OW 1750   2.956   3.075   0.859  0.0516  0.3106  0.2404
  411SOL    HW2 1751   2.875   3.115   0.827 -0.0043  0.4721  0.5813
  411SOL    HW3 1752   2.949   2.983   0.836  0.6128  0.6667 -1.4443
  411SOL    MW4 1753   2.945   3.068   0.852  0.1185  0.3788  0.0631
  412SOL     OW 1754   2.723   3.196   0.761 -0.2116 -0.3680 -0.1695
  412SOL    HW2 1755   2.722   3.285   0.795 -1.3882 -0.5868  0.3536
  412SOL    HW3 1756   2.638   3.160   0.784  0.8915 -2.2003  1.1239
  412SOL    MW4 1757   2.712   3.203   0.768 -0.2210 -0.6387  0.0701
  413SOL     OW 1758   2.721   3.460   0.812  0.1557  0.0645 -0.5454
  413SOL    HW2 1759   2.720   3.471   0.907  0.5490 -2.2382 -0.2357
  413SOL    HW3 1760   2.805   3.498   0.784 -0.3102  1.4568 -0.0877
  413SOL    MW4 1761   2.732   3.466   0.821  0.1462 -0.0556 -0.4442
  414SOL     OW 1762   2.955   3.565   0.744 -0.0240  0.0006 -0.1597
  414SOL    HW2 1763   2.956   3.656   0.776  0.3668 -0.1962  0.3892
  414SOL    HW3 1764   2.934   3.573   0.651 -0.7244  0.6048  0.0500
  414SOL    MW4 1765   2.952   3.578   0.736 -0.0651  0.0544 -0.0595
  415SOL     OW 1766   2.956   3.831   0.844  0.0732  0.2277 -0.3244
  415SOL    HW2 1767   2.930   3.818   0.935 -0.5434  0.8879 -0.4017
  415SOL    HW3 1768   2.874   3.852   0.798  0.2242 -1.0334 -1.2128
  415SOL    MW4 1769   2.941   3.832   0.850  0.0117  0.1483 -0.4519
  416SOL     OW 1770   2.708   3.931   0.702  0.1946 -0.2762 -0.1674
  416SOL    HW2 1771   2.631   3.912   0.756  0.6019 -1.2311  0.0981
  416SOL    HW3 1772   2.693   3.882   0.621 -0.2778  0.9222 -0.8160
  416SOL    MW4 1773   2.696   3.922   0.699  0.1862 -0.2437 -0.2179
  417SOL     OW 1774   2.707   4.206   0.770  0.1087  0.0262  0.2945
  417SOL    HW2 1775   2.745   4.201   0.857  0.9378 -0.3493 -0.0785
  417SOL    HW3 1776   2.717   4.118   0.734 -2.0809 -0.3657  0.5625
  417SOL    MW4 1777   2.713   4.194   0.776 -0.0706 -0.0753  0.2806
  418SOL     OW 1778   2.917   4.400   0.649  0.2559 -0.1406 -0.5745
  418SOL    HW2 1779   2.985   4.363   0.705  0.9774  1.4891 -0.3716
  418SOL    HW3 1780   2.835   4.370   0.690  0.8106 -1.0240 -0.0771
  418SOL    MW4 1781   2.915   4.391   0.662  0.4241 -0.0424 -0.4821
  419SOL     OW 1782   3.365   4.626   0.818  0.3646  0.3774 -0.1089
  419SOL    HW2 1783   3.339   4.620   0.910  1.7798 -0.0621  0.2781
  419SOL    HW3 1784   3.291   4.669   0.775 -0.6094 -0.0472  1.1023
  419SOL    MW4 1785   3.352   4.631   0.825  0.4227  0.2632  0.1020
  420SOL     OW 1786   3.136   0.060   0.692 -0.1171 -0.1362  0.1416
  420SOL    HW2 1787   3.145   0.149   0.726  1.1465 -0.1687 -0.1032
  420SOL    HW3 1788   3.045   0.037   0.710 -0.4973  1.2692  0.0526
  420SOL    MW4 1789   3.125   0.069   0.699 -0.0005  0.0449  0.0975
  421SOL     OW 1790   3.155   0.290   0.831  0.0583  0.3151 -0.3259
  421SOL    HW2 1791   3.140   0.317   0.922 -0.3449 -0.2082 -0.2400
  421SOL    HW3 1792   3.237   0.334   0.807 -0.0093  0.7243  0.1801
  421SOL    MW4 1793   3.164   0.299   0.840 -0.0041  0.3000 -0.2478
  422SOL     OW 1794   3.352   0.463   0.769  0.4721  0.4896  0.1452
  422SOL    HW2 1795   3.434   0.424   0.800 -0.9368 -1.7328  1.1736
  422SOL    HW3 1796   3.372   0.489   0.679  1.9465 -1.2131 -0.0731
  422SOL    MW4 1797   3.366   0.461   0.761  0.4809 -0.0283  0.2521
  423SOL     OW 1798   3.354   0.757   0.843  0.2092  0.1264 -0.1917
  423SOL    HW2 1799   3.275   0.800   0.811  0.6178  1.6697  0.8352
  423SOL    HW3 1800   3.345   0.666   0.814 -1.9582  0.2721 -0.0696
  423SOL    MW4 1801   3.343   0.750   0.835 -0.0229  0.3493 -0.0401
  424SOL     OW 1802   3.131   0.876   0.717  0.2544 -0.3189 -0.1447
  424SOL    HW2 1803   3.133   0.968   0.742 -3.4482  0.4470 -2.1932
  424SOL    HW3 1804   3.049   0.843   0.756  1.3141 -2.6536  0.1953
  424SOL    MW4 1805   3.120   0.884   0.726 -0.0947 -0.5259 -0.3701
  425SOL     OW 1806   3.151   1.130   0.793 -0.2339  0.0090 -0.0505
  425SOL    HW2 1807   3.159   1.123   0.888 -0.6105  1.3200  0.0810
  425SOL    HW3 1808   3.228   1.181   0.766 -0.6647  0.5244 -0.3263
  425SOL    MW4 1809   3.162   1.136   0.802 -0.3405  0.2500 -0.0696
  426SOL     OW 1810   3.394   1.270   0.729 -0.3083 -0.2618  0.2784
  426SOL    HW2 1811   3.468   1.231   0.775  2.1272  1.6017 -1.8906
  426SOL    HW3 1812   3.386   1.358   0.768 -0.5699 -0.0058 -0.3509
  426SOL    MW4 1813   3.403   1.277   0.740 -0.0215  0.0178 -0.0908
  427SOL     OW 1814   3.362   1.518   0.854  0.0482 -0.2569 -0.1123
  427SOL    HW2 1815   3.374   1.519   0.949 -0.3820  0.2573 -0.0640
  427SOL    HW3 1816   3.436   1.569   0.820 -1.1535  1.6760  0.1004
  427SOL    MW4 1817   3.373   1.525   0.862 -0.1671  0.0659 -0.0779
  428SOL     OW 1818   3.169   1.640   0.697 -0.6341 -0.1487  0.0352
  428SOL    HW2 1819   3.242   1.603   0.746 -1.7542 -2.8134 -0.2132
  428SOL    HW3 1820   3.194   1.631   0.605 -1.8779 -2.4753 -0.1062
  428SOL    MW4 1821   3.182   1.634   0.691 -0.9458 -0.8072 -0.0162
  429SOL     OW 1822   3.199   1.897   0.806 -0.2577  0.1147 -0.3508
  429SOL    HW2 1823   3.187   1.890   0.901  0.4926  1.3333 -0.1608
  429SOL    HW3 1824   3.170   1.812   0.772 -0.2936 -0.4180  0.9859
  429SOL    MW4 1825   3.193   1.885   0.814 -0.1633  0.2050 -0.1494
  430SOL     OW 1826   3.432   2.071   0.761 -0.1646 -0.1587 -0.7310
  430SOL    HW2 1827   3.405   2.162   0.767 -1.6327 -0.6480  0.2954
  430SOL    HW3 1828   3.351   2.021   0.768  0.5560 -1.5347 -1.8383
  430SOL    MW4 1829   3.418   2.076   0.763 -0.2630 -0.4046 -0.7416
  431SOL     OW 1830   3.381   2.340   0.784 -0.1170 -0.5449 -0.4214
  431SOL    HW2 1831   3.373   2.329   0.878 -0.7998  2.9593  0.0223
  431SOL    HW3 1832   3.475   2.351   0.769 -0.2139  1.6442  0.2941
  431SOL    MW4 1833   3.392   2.340   0.794 -0.2201  0.2065 -0.2685
  432SOL     OW 1834   3.133   2.447   0.690  0.4414 -0.1151 -0.0873
  432SOL    HW2 1835   3.204   2.400   0.734  0.9719  1.1450  0.4409
  432SOL    HW3 1836   3.053   2.409   0.727  0.8715  0.3065  1.3319
  432SOL    MW4 1837   3.132   2.436   0.701  0.5679  0.1066  0.1696
  433SOL     OW 1838   3.166   2.706   0.829  0.1152  0.0294  0.1589
  433SOL    HW2 1839   3.168   2.624   0.781  0.5527 -0.6279  1.2625
  433SOL    HW3 1840   3.248   2.749   0.806  0.0011  0.0446 -0.2239
  433SOL    MW4 1841   3.177   2.701   0.820  0.1578 -0.0553  0.2540
  434SOL     OW 1842   3.462   2.817   0.773  0.1544 -0.2654  0.3890
  434SOL    HW2 1843   3.468   2.808   0.678 -1.5856  1.4804  0.0876
  434SOL    HW3 1844   3.536   2.766   0.806  0.0037 -2.0033 -1.8177
  434SOL    MW4 1845   3.473   2.809   0.765 -0.0951 -0.2644  0.0581
  435SOL     OW 1846   3.384   3.085   0.850 -0.0746 -0.1352 -0.4819
  435SOL    HW2 1847   3.384   3.076   0.946  1.1949 -0.9191 -0.5352
  435SOL    HW3 1848   3.425   3.004   0.819 -1.3526 -0.3077 -1.7447
  435SOL    MW4 1849   3.390   3.073   0.859 -0.0756 -0.2613 -0.6555
  436SOL     OW 1850   3.157   3.196   0.704  0.0685 -0.2607  0.0889
  436SOL    HW2 1851   3.236   3.179   0.754 -0.2285 -2.3911 -0.1126
  436SOL    HW3 1852   3.088   3.152   0.754 -0.7378  0.2713 -0.5514
  436SOL    MW4 1853   3.158   3.188   0.717 -0.0770 -0.4716 -0.0222
  437SOL     OW 1854   3.174   3.434   0.845 -0.3195 -0.3239  0.5679
  437SOL    HW2 1855   3.173   3.352   0.794 -0.0704 -0.4074  0.6980
  437SOL    HW3 1856   3.094   3.480   0.817 -0.7766 -0.8864  0.9442
  437SOL    MW4 1857   3.163   3.429   0.834 -0.3471 -0.4096  0.6347
  438SOL     OW 1858   3.390   3.583   0.773  0.2540 -0.5299 -0.3454
  438SOL    HW2 1859   3.367   3.669   0.808 -1.4976 -0.8038 -0.8003
  438SOL    HW3 1860   3.325   3.524   0.811  0.9447 -1.5241 -0.6950
  438SOL    MW4 1861   3.378   3.586   0.783  0.1142 -0.6969 -0.4516
  439SOL     OW 1862   3.351   3.860   0.827 -0.3153 -0.2350 -0.2392
  439SOL    HW2 1863   3.346   3.871   0.922 -0.4171 -0.5989 -0.2042
  439SOL    HW3 1864   3.433   3.904   0.803 -1.2543  1.5401 -0.2334
  439SOL    MW4 1865   3.361   3.867   0.836 -0.4528 -0.0489 -0.2338
  440SOL     OW 1866   3.144   4.026   0.755  0.0433 -0.2911  0.2121
  440SOL    HW2 1867   3.229   3.985   0.770  0.1289  0.2771  1.3569
  440SOL    HW3 1868   3.080   3.959   0.780  0.1534 -0.6264 -0.3979
  440SOL    MW4 1869   3.146   4.012   0.760  0.0694 -0.2604  0.2826
  441SOL     OW 1870   3.104   4.289   0.811 -0.0772 -0.1531 -0.1188
  441SOL    HW2 1871   3.196   4.314   0.815 -0.5690  1.4525  2.2127
  441SOL    HW3 1872   3.105   4.201   0.774  2.1621  0.8673 -2.7009
  441SOL    MW4 1873   3.116   4.281   0.807  0.1533  0.1931 -0.1519
  442SOL     OW 1874   3.366   4.353   0.770  0.3820 -0.5041 -0.1579
  442SOL    HW2 1875   3.383   4.444   0.796 -1.0462 -0.2778  0.0076
  442SOL    HW3 1876   3.387   4.350   0.677  0.7548 -0.0905 -0.0877
  442SOL    MW4 1877   3.371   4.364   0.761  0.2429 -0.4201 -0.1269
  443SOL     OW 1878   3.816   4.597   0.789 -0.6078  0.0316 -0.0103
  443SOL    HW2 1879   3.890   4.654   0.767 -0.6938  0.9246  1.9741
  443SOL    HW3 1880   3.738   4.649   0.767 -0.6734  0.3181  0.8777
  443SOL    MW4 1881   3.815   4.612   0.783 -0.6278  0.1879  0.3685
  444SOL     OW 1882   3.592   0.126   0.766  0.2888 -0.0034 -0.4389
  444SOL    HW2 1883   3.530   0.061   0.799  0.7562  0.7935  2.0697
  444SOL    HW3 1884   3.567   0.139   0.674 -0.5652 -2.8142 -0.6418
  444SOL    MW4 1885   3.581   0.119   0.758  0.2377 -0.2691 -0.1347
  445SOL     OW 1886   3.585   0.367   0.870 -0.5417 -0.0021 -0.3416
  445SOL    HW2 1887   3.597   0.361   0.965  0.8132 -1.4259 -0.6003
  445SOL    HW3 1888   3.590   0.277   0.839  0.9610  0.6217 -1.9935
  445SOL    MW4 1889   3.587   0.355   0.878 -0.1645 -0.1076 -0.5936
  446SOL     OW 1890   3.798   0.484   0.752 -0.2699  0.3220  0.3193
  446SOL    HW2 1891   3.787   0.571   0.791  0.2684 -0.4176  2.1725
  446SOL    HW3 1892   3.732   0.430   0.796 -0.6122 -0.2165 -0.8370
  446SOL    MW4 1893   3.788   0.489   0.763 -0.2439  0.1534  0.4113
  447SOL     OW 1894   3.776   0.742   0.829 -0.2755 -0.0079 -0.5224
  447SOL    HW2 1895   3.771   0.753   0.924 -1.3116  1.5101 -0.7346
  447SOL    HW3 1896   3.858   0.786   0.805 -0.5751  0.6030 -0.4509
  447SOL    MW4 1897   3.786   0.750   0.838 -0.4520  0.2730 -0.5410
  448SOL     OW 1898   3.578   0.877   0.720  0.5877  0.4369 -0.1634
  448SOL    HW2 1899   3.651   0.826   0.756  0.4785  1.2017  1.1613
  448SOL    HW3 1900   3.500   0.830   0.750  0.5236 -0.2963 -1.4559
  448SOL    MW4 1901   3.578   0.864   0.729  0.5651  0.4411 -0.1591
  449SOL     OW 1902   3.608   1.129   0.817  0.5406  0.2042 -0.5921
  449SOL    HW2 1903   3.617   1.119   0.912 -1.7441 -2.0626 -0.5478
  449SOL    HW3 1904   3.594   1.040   0.785  0.9592  0.9888 -3.0325
  449SOL    MW4 1905   3.607   1.116   0.825  0.2942  0.0086 -0.9083
  450SOL     OW 1906   3.865   1.267   0.730 -0.1065  0.1347  0.1040
  450SOL    HW2 1907   3.783   1.233   0.764 -0.8699  1.8413  0.0024
  450SOL    HW3 1908   3.854   1.267   0.635  0.0834  0.2120  0.0811
  450SOL    MW4 1909   3.853   1.262   0.722 -0.1822  0.3700  0.0876
  451SOL     OW 1910   3.783   1.515   0.816  0.2528 -0.4656 -0.2973
  451SOL    HW2 1911   3.843   1.578   0.777  0.5337 -0.7042 -0.2526
  451SOL    HW3 1912   3.811   1.430   0.782  1.1979 -0.7967  1.2728
  451SOL    MW4 1913   3.794   1.512   0.807  0.4146 -0.5409 -0.0842
  452SOL     OW 1914   3.565   1.664   0.747  0.6425  0.0482  0.1955
  452SOL    HW2 1915   3.592   1.752   0.774  1.2132 -0.0225 -0.1483
  452SOL    HW3 1916   3.636   1.607   0.776  0.2679 -0.3028  0.4229
  452SOL    MW4 1917   3.578   1.668   0.754  0.6685 -0.0074  0.1801
  453SOL     OW 1918   3.645   1.923   0.848 -0.1289 -0.2776  0.1728
  453SOL    HW2 1919   3.725   1.970   0.825  0.5292 -2.0317 -1.2090
  453SOL    HW3 1920   3.577   1.965   0.795  0.2814 -0.2437 -0.3326
  453SOL    MW4 1921   3.647   1.935   0.838  0.0119 -0.5046 -0.0763
  454SOL     OW 1922   3.873   2.081   0.774  0.1433 -0.3085 -0.0406
  454SOL    HW2 1923   3.934   2.016   0.809 -0.9092 -1.5203 -0.3940
  454SOL    HW3 1924   3.906   2.100   0.686  2.0780  1.8034  1.1079
  454SOL    MW4 1925   3.885   2.075   0.767  0.2596 -0.1898  0.0643
  455SOL     OW 1926   3.854   2.328   0.884  0.3625  0.1350  0.2644
  455SOL    HW2 1927   3.844   2.305   0.976 -0.6867 -1.2774 -0.1811
  455SOL    HW3 1928   3.868   2.244   0.840  0.8398  0.7995 -0.8712
  455SOL    MW4 1929   3.855   2.314   0.890  0.2871  0.0362  0.0557
  456SOL     OW 1930   3.643   2.409   0.729 -0.3854  0.0193  0.3017
  456SOL    HW2 1931   3.631   2.492   0.775 -0.4024  0.3351 -0.2601
  456SOL    HW3 1932   3.709   2.362   0.779 -0.2634  0.4403  0.5332
  456SOL    MW4 1933   3.650   2.414   0.742 -0.3715  0.1166  0.2581
  457SOL     OW 1934   3.659   2.649   0.864  0.3904 -0.2071 -0.2932
  457SOL    HW2 1935   3.646   2.670   0.956  0.6543 -2.2226  0.2380
  457SOL    HW3 1936   3.733   2.704   0.837  0.9197 -0.2761  0.9692
  457SOL    MW4 1937   3.667   2.659   0.872  0.4952 -0.4821 -0.0566
  458SOL     OW 1938   3.858   2.809   0.747  0.3020  0.5166 -0.0035
  458SOL    HW2 1939   3.843   2.797   0.653 -3.9083 -1.8825  0.8202
  458SOL    HW3 1940   3.839   2.901   0.763 -0.0415  0.6918 -1.3326
  458SOL    MW4 1941   3.853   2.819   0.737 -0.2990  0.2232 -0.0702
  459SOL     OW 1942   3.815   3.073   0.821  0.2442 -0.2062 -0.5552
  459SOL    HW2 1943   3.895   3.123   0.807 -0.7131  0.7600 -2.7085
  459SOL    HW3 1944   3.745   3.131   0.792 -1.3375 -0.7294  2.0315
  459SOL    MW4 1945   3.817   3.087   0.815 -0.0908 -0.1478 -0.4981
  460SOL     OW 1946   3.606   3.228   0.740  0.1906  0.0901  0.0445
  460SOL    HW2 1947   3.523   3.192   0.770  0.6059 -0.1968  0.8699
  460SOL    HW3 1948   3.589   3.257   0.651 -0.6483 -0.4637  0.0205
  460SOL    MW4 1949   3.593   3.227   0.732  0.1349 -0.0207  0.1503
  461SOL     OW 1950   3.605   3.454   0.886  0.2182 -0.3893  0.3399
  461SOL    HW2 1951   3.603   3.373   0.836 -0.6519 -1.4866  2.1120
  461SOL    HW3 1952   3.531   3.505   0.852  0.7702 -0.3149 -0.7759
  461SOL    MW4 1953   3.595   3.450   0.875  0.1767 -0.5243  0.4265
  462SOL     OW 1954   3.805   3.581   0.754  0.4094 -0.1065  0.1240
  462SOL    HW2 1955   3.882   3.529   0.777  1.0862  0.1353 -1.5064
  462SOL    HW3 1956   3.735   3.548   0.811  1.4850 -0.9915  0.9363
  462SOL    MW4 1957   3.806   3.570   0.764  0.6409 -0.1915  0.0160
  463SOL     OW 1958   3.808   3.852   0.832 -0.3133  0.1433  0.2086
  463SOL    HW2 1959   3.731   3.891   0.792  0.4039  0.0188 -1.3494
  463SOL    HW3 1960   3.806   3.760   0.805  1.0802  0.4422 -0.9817
  463SOL    MW4 1961   3.798   3.845   0.823 -0.0348  0.1662 -0.1540
  464SOL     OW 1962   3.589   3.991   0.745  0.6256 -0.4631  0.0628
  464SOL    HW2 1963   3.593   4.070   0.799  0.2017 -1.7156  1.9608
  464SOL    HW3 1964   3.587   4.024   0.655 -1.4220  1.7674  0.8726
  464SOL    MW4 1965   3.589   4.006   0.740  0.2995 -0.3338  0.4201
  465SOL     OW 1966   3.586   4.237   0.885  0.1370  0.1226 -0.3162
  465SOL    HW2 1967   3.664   4.269   0.840 -0.0787 -0.0963 -0.8558
  465SOL    HW3 1968   3.520   4.305   0.870 -0.5898 -0.9559 -2.2370
  465SOL    MW4 1969   3.588   4.250   0.877  0.0129 -0.0482 -0.6409
  466SOL     OW 1970   3.799   4.326   0.731  0.2040 -0.3129  0.5972
  466SOL    HW2 1971   3.882   4.303   0.773 -0.5838 -1.4052  1.5840
  466SOL    HW3 1972   3.786   4.419   0.751  1.4272 -0.0052 -0.0007
  466SOL    MW4 1973   3.808   4.335   0.739  0.2615 -0.4158  0.6485
  467SOL     OW 1974   4.257   4.630   0.812  0.3849 -0.1245  0.2908
  467SOL    HW2 1975   4.265   4.620   0.907 -0.6537  0.0804  0.4004
  467SOL    HW3 1976   4.170   4.667   0.798  0.3816 -0.4981 -0.7687
  467SOL    MW4 1977   4.247   4.634   0.823  0.2475 -0.1469  0.1655
  468SOL     OW 1978   4.030   0.090   0.741  0.3280 -0.1428  0.1542
  468SOL    HW2 1979   4.036   0.177   0.780  0.3557 -0.2076  0.2972
  468SOL    HW3 1980   4.041   0.104   0.647 -0.4427  0.0935  0.0987
  468SOL    MW4 1981   4.032   0.103   0.734  0.2303 -0.1201  0.1658
  469SOL     OW 1982   4.047   0.356   0.819  0.4748  0.0591 -0.1484
  469SOL    HW2 1983   4.117   0.394   0.765  0.2970 -0.2533 -0.6045
  469SOL    HW3 1984   3.968   0.403   0.792  0.4480  0.1606  0.1078
  469SOL    MW4 1985   4.046   0.367   0.808  0.4482  0.0313 -0.1747
  470SOL     OW 1986   4.248   0.504   0.715 -0.5510 -0.2394 -0.9999
  470SOL    HW2 1987   4.322   0.479   0.769 -0.4935  1.3243 -0.3223
  470SOL    HW3 1988   4.284   0.509   0.626  0.3315  1.1783 -0.5797
  470SOL    MW4 1989   4.262   0.501   0.711 -0.4272  0.1540 -0.8550
  471SOL     OW 1990   4.301   0.772   0.786 -0.1532  0.7568  0.1290
  471SOL    HW2 1991   4.212   0.804   0.774  0.9616  2.7210 -4.2328
  471SOL    HW3 1992   4.299   0.683   0.751 -0.5420  0.5862  0.5856
  471SOL    MW4 1993   4.289   0.764   0.780 -0.0577  0.9934 -0.3863
  472SOL     OW 1994   4.003   0.866   0.751  0.2231  0.1338  0.0841
  472SOL    HW2 1995   4.025   0.954   0.780  1.7967 -0.1467 -0.2419
  472SOL    HW3 1996   4.022   0.866   0.658  1.1508 -0.8336  0.2650
  472SOL    MW4 1997   4.008   0.877   0.743  0.5527 -0.0309  0.0650
  473SOL     OW 1998   4.087   1.131   0.821 -0.2421  0.4032  1.2802
  473SOL    HW2 1999   4.083   1.147   0.915 -1.9968  1.1615  1.0996
  473SOL    HW3 2000   4.020   1.189   0.784  0.6160  0.3115 -0.4613
  473SOL    MW4 2001   4.078   1.141   0.829 -0.3605  0.4911  1.0266
  474SOL     OW 2002   4.362   1.343   0.668 -0.0948 -0.1673 -0.3831
  474SOL    HW2 2003   4.297   1.276   0.643  0.7702 -1.1918  0.0831
  474SOL    HW3 2004   4.407   1.306   0.743  0.9280  0.6195 -0.5922
  474SOL    MW4 2005   4.359   1.329   0.675  0.1540 -0.1986 -0.3492
  475SOL     OW 2006   4.167   1.515   0.779  0.0443 -0.2958 -0.5096
  475SOL    HW2 2007   4.183   1.505   0.873 -0.2361  1.3898 -0.2684
  475SOL    HW3 2008   4.233   1.460   0.737  2.2053  1.4023  0.6161
  475SOL    MW4 2009   4.177   1.506   0.786  0.2923  0.1507 -0.3293
  476SOL     OW 2010   3.956   1.688   0.694  0.1215 -0.0173 -0.1478
  476SOL    HW2 2011   4.025   1.621   0.696  0.3715  0.2319 -0.2509
  476SOL    HW3 2012   3.940   1.703   0.601 -1.1429 -1.1559 -0.1079
  476SOL    MW4 2013   3.963   1.681   0.682 -0.0122 -0.1346 -0.1560
  477SOL     OW 2014   4.053   1.902   0.860  0.5853  0.0893 -0.1042
  477SOL    HW2 2015   4.131   1.925   0.810 -0.2546  1.6523 -0.7457
  477SOL    HW3 2016   4.014   1.830   0.812 -0.1912  1.5498 -1.7387
  477SOL    MW4 2017   4.058   1.896   0.847  0.3719  0.4882 -0.4045
  478SOL     OW 2018   4.239   2.037   0.729 -0.1909 -0.3345  0.7176
  478SOL    HW2 2019   4.331   2.028   0.752 -0.0763  0.6993  0.6691
  478SOL    HW3 2020   4.239   2.046   0.633 -0.2244  1.0951  0.8421
  478SOL    MW4 2021   4.251   2.037   0.719 -0.1802 -0.0095  0.7277
  479SOL     OW 2022   4.270   2.300   0.848 -0.3963 -0.0381  0.0598
  479SOL    HW2 2023   4.181   2.333   0.841 -1.0081 -1.1065  2.2679
  479SOL    HW3 2024   4.267   2.213   0.808 -0.2846  0.0234 -0.0829
  479SOL    MW4 2025   4.258   2.292   0.842 -0.4621 -0.1709  0.3324
  480SOL     OW 2026   4.059   2.463   0.753  0.1819  0.1847 -0.1392
  480SOL    HW2 2027   4.067   2.554   0.781  0.7597 -0.2898  1.3066
  480SOL    HW3 2028   3.977   2.433   0.794 -0.3292  0.2134 -1.1116
  480SOL    MW4 2029   4.049   2.471   0.762  0.1912  0.1259 -0.0768
  481SOL     OW 2030   4.103   2.739   0.868  0.2501 -0.3680 -0.4351
  481SOL    HW2 2031   4.171   2.748   0.801 -0.2858 -1.3547 -1.1280
  481SOL    HW3 2032   4.025   2.777   0.828  0.4251  0.9453  0.4345
  481SOL    MW4 2033   4.102   2.745   0.854  0.2022 -0.3247 -0.4117
  482SOL     OW 2034   4.300   2.816   0.679 -0.1821  0.5630  0.1991
  482SOL    HW2 2035   4.381   2.781   0.716  0.2825  0.3214 -1.0171
  482SOL    HW3 2036   4.304   2.792   0.586 -1.3342  1.1324 -0.0062
  482SOL    MW4 2037   4.311   2.808   0.672 -0.2732  0.6061  0.0116
  483SOL     OW 2038   4.268   3.047   0.860  0.4467 -0.4791 -0.0905
  483SOL    HW2 2039   4.295   2.965   0.819  1.2395  0.7291 -2.0238
  483SOL    HW3 2040   4.340   3.108   0.843  0.1863  0.4293  1.9411
  483SOL    MW4 2041   4.281   3.044   0.852  0.5169 -0.2000 -0.0775
  484SOL     OW 2042   4.045   3.203   0.778 -0.2286  0.0685 -0.1019
  484SOL    HW2 2043   4.066   3.291   0.809 -0.4013  0.6514 -1.5577
  484SOL    HW3 2044   4.114   3.147   0.814  0.6248  1.0230 -0.2286
  484SOL    MW4 2045   4.057   3.207   0.787 -0.1388  0.2713 -0.3108
  485SOL     OW 2046   4.051   3.482   0.825  0.4740  0.3856 -0.5348
  485SOL    HW2 2047   4.049   3.482   0.921 -0.2412 -0.6546 -0.5456
  485SOL    HW3 2048   4.129   3.532   0.803  0.9360  0.1718  0.5965
  485SOL    MW4 2049   4.061   3.489   0.835  0.4406  0.2198 -0.3870
  486SOL     OW 2050   4.302   3.640   0.734 -0.1965 -0.2416  0.5142
  486SOL    HW2 2051   4.293   3.713   0.796 -0.4777 -0.3270  0.5734
  486SOL    HW3 2052   4.306   3.682   0.648 -1.2346 -0.2041  0.4786
  486SOL    MW4 2053   4.301   3.656   0.731 -0.3705 -0.2480  0.5172
  487SOL     OW 2054   4.278   3.894   0.848 -0.4844  0.2644 -0.2416
  487SOL    HW2 2055   4.265   3.900   0.942  0.5957 -0.6250 -0.0236
  487SOL    HW3 2056   4.205   3.944   0.810 -1.2186  0.1798  1.0400
  487SOL    MW4 2057   4.267   3.901   0.855 -0.4387  0.1364 -0.0438
  488SOL     OW 2058   4.047   4.017   0.744  0.1828  0.1998  0.5094
  488SOL    HW2 2059   3.969   3.967   0.769 -0.0853 -0.9173 -2.3776
  488SOL    HW3 2060   4.048   4.014   0.648  2.1071  2.7956  0.3893
  488SOL    MW4 2061   4.037   4.010   0.735  0.4015  0.3948  0.1126
  489SOL     OW 2062   4.051   4.280   0.841 -0.1530 -0.2330  0.0373
  489SOL    HW2 2063   4.129   4.319   0.803 -0.4996 -0.8718 -1.3255
  489SOL    HW3 2064   4.053   4.188   0.815 -1.4794 -0.2099 -0.2203
  489SOL    MW4 2065   4.061   4.273   0.833 -0.3734 -0.3147 -0.1765
  490SOL     OW 2066   4.285   4.371   0.717 -0.1952 -0.2609  0.1589
  490SOL    HW2 2067   4.265   4.462   0.735 -0.5656 -0.3795  0.3654
  490SOL    HW3 2068   4.366   4.354   0.766 -0.6050 -0.2823  0.8285
  490SOL    MW4 2069   4.293   4.380   0.726 -0.2980 -0.2789  0.2744
  491SOL     OW 2070   0.180   4.615   1.104 -0.1032 -0.1053 -0.0428
  491SOL    HW2 2071   0.256   4.658   1.144 -0.4053  0.5530 -0.1818
  491SOL    HW3 2072   0.180   4.647   1.014 -0.3661 -0.3568 -0.1322
  491SOL    MW4 2073   0.190   4.625   1.097 -0.1777 -0.0515 -0.0730
  492SOL     OW 2074   4.479   0.084   1.204  0.8289  0.0652  1.0651
  492SOL    HW2 2075   4.406   0.032   1.169 -0.7745  2.2814  1.0345
  492SOL    HW3 2076   4.557   0.047   1.163 -0.6848  0.4538 -2.2877
  492SOL    MW4 2077   4.480   0.072   1.194  0.4172  0.4088  0.6187
  493SOL     OW 2078   4.451   0.360   1.137  0.4166 -0.0026 -0.3431
  493SOL    HW2 2079   4.367   0.404   1.151  0.4886 -0.1390  0.5275
  493SOL    HW3 2080   4.437   0.271   1.171  0.9022 -0.0336 -0.2176
  493SOL    MW4 2081   4.438   0.354   1.143  0.4902 -0.0247 -0.2117
  494SOL     OW 2082   0.223   0.444   1.210 -0.4087 -0.2871  0.1047
  494SOL    HW2 2083   0.203   0.525   1.164 -0.3607  0.3257  1.1424
  494SOL    HW3 2084   0.143   0.393   1.205  0.1150 -0.9081 -2.0558
  494SOL    MW4 2085   0.210   0.448   1.204 -0.3333 -0.2882 -0.0434
  495SOL     OW 2086   0.184   0.712   1.093 -0.0418  0.4267  0.0261
  495SOL    HW2 2087   0.254   0.768   1.126 -0.7378  0.9527  0.6071
  495SOL    HW3 2088   0.103   0.749   1.129 -0.7111  0.3226 -1.3050
  495SOL    MW4 2089   0.182   0.724   1.102 -0.2219  0.4824 -0.0728
  496SOL     OW 2090   4.465   0.877   1.194  0.5988 -0.2067  0.3461
  496SOL    HW2 2091   4.454   0.878   1.289 -0.4604  3.7424  0.2857
  496SOL    HW3 2092   4.380   0.850   1.160 -0.1954  2.0144  0.4911
  496SOL    MW4 2093   4.452   0.873   1.202  0.3538  0.6074  0.3573
  497SOL     OW 2094   0.034   1.145   1.107 -0.0149  0.1895  0.1923
  497SOL    HW2 2095  -0.047   1.191   1.128 -0.9764 -0.9898 -0.8590
  497SOL    HW3 2096   0.017   1.054   1.132  0.0713 -0.5550 -2.2851
  497SOL    MW4 2097   0.021   1.139   1.113 -0.1304 -0.0643 -0.2732
  498SOL     OW 2098   0.293   1.285   1.189 -0.1376  0.4328 -0.3645
  498SOL    HW2 2099   0.365   1.226   1.167  0.2242  0.9689 -0.6334
  498SOL    HW3 2100   0.214   1.233   1.177  0.2463 -0.4366  0.8155
  498SOL    MW4 2101   0.292   1.271   1.184 -0.0392  0.3889 -0.2443
  499SOL     OW 2102   0.212   1.530   1.091 -0.2306  0.3179 -0.0302
  499SOL    HW2 2103   0.236   1.445   1.129  0.8863  0.6324 -0.0203
  499SOL    HW3 2104   0.204   1.512   0.997  0.3577  0.2767 -0.0735
  499SOL    MW4 2105   0.214   1.516   1.084 -0.0056  0.3539 -0.0346
  500SOL     OW 2106   4.467   1.646   1.164 -0.5530  0.2406  0.0143
  500SOL    HW2 2107   4.473   1.741   1.161 -1.0820  0.3081  1.0736
  500SOL    HW3 2108   4.552   1.616   1.130  0.5382  1.1164  1.8915
  500SOL    MW4 2109   4.479   1.655   1.159 -0.4787  0.3649  0.4019
  501SOL     OW 2110   4.458   1.914   1.128 -0.2446 -0.1355 -0.1866
  501SOL    HW2 2111   4.396   1.981   1.158 -1.8066 -0.8495 -1.7675
  501SOL    HW3 2112   4.468   1.931   1.034 -0.1370 -1.6982 -0.4712
  501SOL    MW4 2113   4.451   1.925   1.120 -0.4363 -0.4359 -0.4327
  502SOL     OW 2114   0.201   2.045   1.217  0.3657  0.5115 -0.2893
  502SOL    HW2 2115   0.179   2.134   1.189 -0.5048  0.1973 -0.5943
  502SOL    HW3 2116   0.131   1.990   1.183  1.2638 -0.4047 -0.7069
  502SOL    MW4 2117   0.189   2.049   1.209  0.3694  0.3493 -0.3847
  503SOL     OW 2118   0.210   2.301   1.119  0.4144  0.2134 -0.1690
  503SOL    HW2 2119   0.294   2.326   1.159  0.3647 -1.8747  1.3483
  503SOL    HW3 2120   0.145   2.352   1.167  0.6483  0.1484  0.2271
  503SOL    MW4 2121   0.212   2.311   1.131  0.4387 -0.0708  0.0833
  504SOL     OW 2122   0.003   2.489   1.237  0.3877 -0.0551  0.1695
  504SOL    HW2 2123  -0.022   2.490   1.329  1.3717  0.1162  0.4416
  504SOL    HW3 2124  -0.069   2.444   1.193 -0.6930  0.9930  0.8409
  504SOL    MW4 2125  -0.010   2.483   1.243  0.3748  0.1061  0.2939
  505SOL     OW 2126   0.040   2.741   1.114  0.1221  0.5535  0.5515
  505SOL    HW2 2127  -0.044   2.778   1.143 -0.5696 -0.6054  0.0710
  505SOL    HW3 2128   0.034   2.648   1.135  1.1709  0.4085  0.2347
  505SOL    MW4 2129   0.028   2.734   1.121  0.1692  0.3812  0.4463
  506SOL     OW 2130   0.235   2.856   1.268 -0.1275  0.1187  0.0589
  506SOL    HW2 2131   0.213   2.870   1.361  0.3728  1.3095  0.0138
  506SOL    HW3 2132   0.155   2.821   1.230 -0.7373  0.7920  0.6962
  506SOL    MW4 2133   0.221   2.853   1.275 -0.1419  0.3648  0.1370
  507SOL     OW 2134   0.238   3.113   1.136 -0.2439 -0.1699  0.3333
  507SOL    HW2 2135   0.320   3.148   1.172 -0.1879  0.4132 -0.3623
  507SOL    HW3 2136   0.222   3.034   1.188  0.1678  0.3207  1.2181
  507SOL    MW4 2137   0.247   3.107   1.148 -0.1822 -0.0284  0.3581
  508SOL     OW 2138   0.009   3.257   1.248  0.0363 -0.2333  0.6358
  508SOL    HW2 2139  -0.069   3.221   1.205 -0.5467  1.9968 -0.2174
  508SOL    HW3 2140   0.082   3.216   1.201 -0.6106  0.2232 -0.8096
  508SOL    MW4 2141   0.008   3.247   1.236 -0.1260  0.1209  0.3324
  509SOL     OW 2142   0.018   3.530   1.179  0.2834  0.5852 -0.1507
  509SOL    HW2 2143   0.017   3.437   1.204 -1.1407  0.5762 -0.2430
  509SOL    HW3 2144   0.010   3.529   1.084  0.6977  0.7967 -0.1889
  509SOL    MW4 2145   0.017   3.517   1.170  0.1501  0.6118 -0.1678
  510SOL     OW 2146   0.263   3.640   1.282  0.5670 -0.2325  0.5318
  510SOL    HW2 2147   0.252   3.646   1.377 -1.1445 -0.1271  0.3462
  510SOL    HW3 2148   0.179   3.606   1.250  1.8738 -2.4102 -0.7432
  510SOL    MW4 2149   0.251   3.636   1.290  0.5136 -0.5059  0.3392
  511SOL     OW 2150   0.247   3.864   1.120  0.3390  0.0690 -0.1632
  511SOL    HW2 2151   0.163   3.902   1.148 -0.2117 -0.6395 -0.8208
  511SOL    HW3 2152   0.265   3.797   1.186  1.0897  1.1489  0.7496
  511SOL    MW4 2153   0.238   3.860   1.133  0.3654  0.1183 -0.1296
  512SOL     OW 2154   0.007   3.985   1.225  0.4264  0.1611 -0.4650
  512SOL    HW2 2155  -0.001   3.978   1.320 -0.5239  1.2379 -0.4549
  512SOL    HW3 2156  -0.069   3.937   1.191  0.8751 -0.3950 -0.6908
  512SOL    MW4 2157  -0.004   3.978   1.233  0.3600  0.2298 -0.4935
  513SOL     OW 2158   4.487   4.255   1.151 -0.2281  0.5297  0.3645
  513SOL    HW2 2159   4.573   4.294   1.167 -0.4591  1.3598 -0.3722
  513SOL    HW3 2160   4.497   4.163   1.176  0.3876  1.0005  1.9589
  513SOL    MW4 2161   4.500   4.248   1.157 -0.1774  0.7014  0.4776
  514SOL     OW 2162   0.232   4.371   1.211  0.3687 -0.0174 -0.3845
  514SOL    HW2 2163   0.216   4.385   1.305  1.1450  0.6291 -0.3435
  514SOL    HW3 2164   0.210   4.455   1.170 -1.7251 -0.8426 -1.0236
  514SOL    MW4 2165   0.227   4.384   1.218  0.1949 -0.0410 -0.4634
  515SOL     OW 2166   0.648   4.606   1.146 -0.0547  0.6316  0.0937
  515SOL    HW2 2167   0.724   4.658   1.173  1.8188 -1.0841 -1.7103
  515SOL    HW3 2168   0.665   4.519   1.182 -0.5723 -0.0772 -1.3489
  515SOL    MW4 2169   0.660   4.602   1.154  0.1242  0.3114 -0.3347
  516SOL     OW 2170   0.421   0.079   1.205 -0.1759 -0.3463 -0.5042
  516SOL    HW2 2171   0.443   0.168   1.175 -3.5935  0.0559 -2.1421
  516SOL    HW3 2172   0.502   0.029   1.193  1.4772  2.2581 -0.6833
  516SOL    MW4 2173   0.435   0.084   1.199 -0.4087  0.0504 -0.7439
  517SOL     OW 2174   0.458   0.326   1.107 -0.1512  0.0773 -0.4541
  517SOL    HW2 2175   0.378   0.368   1.140  0.7859  1.2902  0.3450
  517SOL    HW3 2176   0.456   0.342   1.013 -1.2373 -0.5860 -0.5535
  517SOL    MW4 2177   0.447   0.334   1.099 -0.1708  0.1498 -0.3618
  518SOL     OW 2178   0.627   0.510   1.225 -0.1287 -0.3429 -0.1182
  518SOL    HW2 2179   0.614   0.592   1.178  1.3662  0.0513  0.1350
  518SOL    HW3 2180   0.571   0.447   1.181  0.3882  0.2957 -1.7015
  518SOL    MW4 2181   0.618   0.512   1.213  0.1367 -0.2066 -0.2937
  519SOL     OW 2182   0.637   0.797   1.104 -0.3007  0.6836  0.0128
  519SOL    HW2 2183   0.549   0.832   1.113  0.1340  1.8009 -0.0752
  519SOL    HW3 2184   0.642   0.768   1.012 -0.1356  1.8214 -0.3369
  519SOL    MW4 2185   0.626   0.798   1.093 -0.2216  0.9812 -0.0449
  520SOL     OW 2186   0.376   0.883   1.193  0.0755 -0.3955  0.3108
  520SOL    HW2 2187   0.388   0.872   1.287  0.9547 -0.4839  0.1926
  520SOL    HW3 2188   0.403   0.974   1.176 -1.7607  0.1916  0.4104
  520SOL    MW4 2189   0.381   0.894   1.203 -0.0508 -0.3297  0.3083
  521SOL     OW 2190   0.482   1.105   1.099  0.2844  0.2307  0.2998
  521SOL    HW2 2191   0.561   1.149   1.131  0.3517 -0.0918  0.5763
  521SOL    HW3 2192   0.485   1.117   1.004  1.2044 -0.6582  0.2110
  521SOL    MW4 2193   0.493   1.112   1.090  0.4147  0.0709  0.3246
  522SOL     OW 2194   0.716   1.238   1.202  0.1810  0.2114 -0.0705
  522SOL    HW2 2195   0.790   1.211   1.147 -0.0006  0.6497 -0.5348
  522SOL    HW3 2196   0.701   1.330   1.179 -0.8106 -0.0049 -0.3258
  522SOL    MW4 2197   0.724   1.246   1.192  0.0262  0.2408 -0.1655
  523SOL     OW 2198   0.646   1.500   1.117 -0.7521 -0.4933 -0.4192
  523SOL    HW2 2199   0.723   1.546   1.150 -0.9750  0.6115 -1.3945
  523SOL    HW3 2200   0.572   1.552   1.147 -0.9452  0.8573 -3.0100
  523SOL    MW4 2201   0.647   1.513   1.125 -0.8071 -0.1694 -0.8897
  524SOL     OW 2202   0.438   1.636   1.209  0.2473 -0.0256  0.7112
  524SOL    HW2 2203   0.428   1.635   1.304 -0.5845 -0.4878  0.6215
  524SOL    HW3 2204   0.355   1.602   1.176  0.6607 -0.1750 -0.1723
  524SOL    MW4 2205   0.425   1.632   1.217  0.1921 -0.1062  0.5828
  525SOL     OW 2206   0.453   1.902   1.130 -0.1367  0.4787 -0.2507
  525SOL    HW2 2207   0.456   1.809   1.153 -0.5774  0.3081 -0.8641
  525SOL    HW3 2208   0.382   1.938   1.183 -0.8873  0.1686 -1.0208
  525SOL    MW4 2209   0.444   1.895   1.140 -0.2939  0.4153 -0.4333
  526SOL     OW 2210   0.676   2.033   1.196  0.0442  0.4653 -0.4694
  526SOL    HW2 2211   0.676   2.044   1.292  1.3053 -1.8765 -0.1755
  526SOL    HW3 2212   0.591   1.996   1.176  0.0765  0.2242 -0.1628
  526SOL    MW4 2213   0.665   2.030   1.206  0.2149  0.1245 -0.3902
  527SOL     OW 2214   0.707   2.307   1.140  0.0571  0.2364  0.0328
  527SOL    HW2 2215   0.620   2.327   1.176 -0.1575 -0.4965 -0.0717
  527SOL    HW3 2216   0.710   2.212   1.138  1.1018  0.2499  0.6117
  527SOL    MW4 2217   0.696   2.297   1.145  0.1667  0.1414  0.0955
  528SOL     OW 2218   0.455   2.405   1.226  0.2611  0.1046  0.1952
  528SOL    HW2 2219   0.461   2.415   1.321 -0.8480  0.6475  0.2207
  528SOL    HW3 2220   0.447   2.494   1.193  0.9080 -0.0661 -0.4310
  528SOL    MW4 2221   0.455   2.418   1.235  0.2001  0.1540  0.1161
  529SOL     OW 2222   0.428   2.684   1.168 -0.2015 -0.1887  0.5316
  529SOL    HW2 2223   0.359   2.740   1.205 -1.9385 -0.9046 -1.4873
  529SOL    HW3 2224   0.429   2.706   1.074  2.3439 -0.1969  0.5262
  529SOL    MW4 2225   0.419   2.694   1.160 -0.0948 -0.2840  0.2644
  530SOL     OW 2226   0.686   2.798   1.251  0.5120  0.6703 -0.2776
  530SOL    HW2 2227   0.686   2.891   1.229 -0.9865  0.7514  0.0056
  530SOL    HW3 2228   0.596   2.769   1.235  0.5374 -0.3429  1.2747
  530SOL    MW4 2229   0.674   2.806   1.246  0.3178  0.5472 -0.0355
  531SOL     OW 2230   0.703   3.068   1.169 -0.0509  0.2260  0.1842
  531SOL    HW2 2231   0.772   3.124   1.204  1.1667 -0.6555 -0.7380
  531SOL    HW3 2232   0.709   3.079   1.074 -2.4458  1.5900  0.1509
  531SOL    MW4 2233   0.713   3.076   1.161 -0.2063  0.2897  0.0581
  532SOL     OW 2234   0.463   3.232   1.228  0.2051 -0.4427 -0.1774
  532SOL    HW2 2235   0.485   3.324   1.212 -0.5780 -0.1632  0.3037
  532SOL    HW3 2236   0.544   3.185   1.211  0.5939  0.3309 -0.5083
  532SOL    MW4 2237   0.477   3.238   1.224  0.1531 -0.3037 -0.1576
  533SOL     OW 2238   0.506   3.497   1.172  0.2294 -0.0679 -0.1020
  533SOL    HW2 2239   0.588   3.530   1.208  0.0244 -0.0968  0.3861
  533SOL    HW3 2240   0.437   3.544   1.220 -0.0337  1.0924 -1.5714
  533SOL    MW4 2241   0.507   3.508   1.183  0.1677  0.0815 -0.2315
  534SOL     OW 2242   0.742   3.640   1.248 -0.8096 -0.2082  0.0829
  534SOL    HW2 2243   0.709   3.654   1.337  1.3627  0.3874  0.8257
  534SOL    HW3 2244   0.712   3.717   1.200 -1.8532 -0.4496  0.3331
  534SOL    MW4 2245   0.733   3.652   1.254 -0.6606 -0.1616  0.2140
  535SOL     OW 2246   0.659   3.882   1.124 -0.4996  0.2442 -0.1108
  535SOL    HW2 2247   0.598   3.949   1.153 -0.5554  0.8015 -1.4865
  535SOL    HW3 2248   0.656   3.886   1.029  0.0938 -1.1692 -0.2047
  535SOL    MW4 2249   0.651   3.891   1.115 -0.4287  0.1314 -0.3048
  536SOL     OW 2250   0.434   4.001   1.253  0.0826 -0.1775 -0.2731
  536SOL    HW2 2251   0.454   4.083   1.208  0.6182 -0.5072 -0.6448
  536SOL    HW3 2252   0.375   3.955   1.194  0.3832 -0.3882 -0.4123
  536SOL    MW4 2253   0.429   4.006   1.239  0.1929 -0.2489 -0.3405
  537SOL     OW 2254   0.455   4.244   1.136  0.0667  0.0685  0.6036
  537SOL    HW2 2255   0.524   4.289   1.186  0.0147  0.1552  0.5978
  537SOL    HW3 2256   0.373   4.279   1.171  0.0257 -0.0274  0.6037
  537SOL    MW4 2257   0.453   4.255   1.147  0.0544  0.0672  0.6030
  538SOL     OW 2258   0.679   4.358   1.259  0.1770  0.0905  0.0475
  538SOL    HW2 2259   0.680   4.366   1.355 -0.9761  2.3377 -0.1068
  538SOL    HW3 2260   0.765   4.320   1.238  0.1760 -1.0932  2.0096
  538SOL    MW4 2261   0.691   4.354   1.269  0.0247  0.2308  0.2860
  539SOL     OW 2262   1.106   4.633   1.168  0.3749 -0.3436  0.3803
  539SOL    HW2 2263   1.117   4.547   1.207 -0.9884 -0.6683  0.0774
  539SOL    HW3 2264   1.099   4.617   1.074 -0.9784 -0.0378  0.4072
  539SOL    MW4 2265   1.106   4.620   1.161  0.0165 -0.3457  0.3438
  540SOL     OW 2266   0.862   0.080   1.249 -0.3559 -0.2105 -0.2801
  540SOL    HW2 2267   0.854   0.081   1.344 -1.7007 -1.7028 -0.3546
  540SOL    HW3 2268   0.949   0.044   1.232  0.0420  0.4337  0.3814
  540SOL    MW4 2269   0.872   0.076   1.259 -0.4808 -0.3224 -0.2025
  541SOL     OW 2270   0.893   0.349   1.176 -0.0463  0.0009 -0.4417
  541SOL    HW2 2271   0.876   0.261   1.210 -0.6155  0.1229 -0.3992
  541SOL    HW3 2272   0.818   0.401   1.206  0.5575  0.6274  0.0041
  541SOL    MW4 2273   0.881   0.344   1.185 -0.0417  0.0997 -0.3773
  542SOL     OW 2274   1.137   0.485   1.220  0.0394 -0.2911 -0.0385
  542SOL    HW2 2275   1.133   0.510   1.312  0.5571 -1.1001  0.2063
  542SOL    HW3 2276   1.060   0.428   1.208  0.3961 -0.8069  0.0899
  542SOL    MW4 2277   1.126   0.480   1.231  0.1547 -0.4659  0.0107
  543SOL     OW 2278   1.113   0.744   1.128  0.1951  0.1505 -0.0948
  543SOL    HW2 2279   1.037   0.799   1.144  0.0934  0.0730 -0.3104
  543SOL    HW3 2280   1.092   0.661   1.170 -0.6652 -0.5262 -1.7919
  543SOL    MW4 2281   1.100   0.740   1.136  0.0682  0.0510 -0.3471
  544SOL     OW 2282   0.869   0.911   1.188 -0.5115 -0.3918  0.1734
  544SOL    HW2 2283   0.887   0.988   1.134  1.5047  0.2154  1.6842
  544SOL    HW3 2284   0.780   0.885   1.162 -0.6365  1.5087 -1.4620
  544SOL    MW4 2285   0.859   0.918   1.178 -0.2620 -0.0610  0.1570
  545SOL     OW 2286   0.947   1.142   1.058 -0.8638  0.2519  0.2808
  545SOL    HW2 2287   1.015   1.195   1.101 -1.1383  0.3040  0.6446
  545SOL    HW3 2288   0.947   1.174   0.968  0.3246 -0.4667  0.0137
  545SOL    MW4 2289   0.956   1.153   1.052 -0.7432  0.1640  0.2936
  546SOL     OW 2290   1.134   1.284   1.221 -0.2679  0.0512  0.0639
  546SOL    HW2 2291   1.114   1.289   1.314  0.4240  0.8148  0.1744
  546SOL    HW3 2292   1.223   1.250   1.217  1.0186  3.3471 -0.1875
  546SOL    MW4 2293   1.143   1.280   1.233 -0.0068  0.5867  0.0454
  547SOL     OW 2294   1.113   1.534   1.121  0.4296  0.3736  0.3047
  547SOL    HW2 2295   1.108   1.445   1.157  0.3975  0.9557  1.7847
  547SOL    HW3 2296   1.106   1.522   1.027 -1.2145 -1.0832  0.5744
  547SOL    MW4 2297   1.111   1.520   1.114  0.2086  0.2582  0.5355
  548SOL     OW 2298   0.876   1.643   1.181  0.3844 -0.1127  0.4456
  548SOL    HW2 2299   0.896   1.733   1.155 -0.2831 -0.5176 -1.5036
  548SOL    HW3 2300   0.958   1.596   1.167  0.5940  0.0870  0.9945
  548SOL    MW4 2301   0.889   1.649   1.176  0.3240 -0.1397  0.2608
  549SOL     OW 2302   0.899   1.906   1.099 -0.1608  0.2964 -0.1316
  549SOL    HW2 2303   0.965   1.964   1.138 -0.0062  0.2005 -0.2473
  549SOL    HW3 2304   0.816   1.937   1.134  0.0854 -0.6210  1.3127
  549SOL    MW4 2305   0.897   1.918   1.108 -0.1079  0.1628  0.0436
  550SOL     OW 2306   1.126   2.094   1.255 -0.3596 -0.2059 -0.2157
  550SOL    HW2 2307   1.100   2.088   1.347 -1.0453 -2.1445 -0.5130
  550SOL    HW3 2308   1.092   2.179   1.226 -1.2427 -0.1325  0.9893
  550SOL    MW4 2309   1.118   2.105   1.263 -0.5665 -0.4520 -0.0958
  551SOL     OW 2310   1.143   2.335   1.097  0.3485  0.0725  0.2297
  551SOL    HW2 2311   1.228   2.362   1.130  0.5793  0.7935 -0.9266
  551SOL    HW3 2312   1.080   2.385   1.149  0.7325  1.7557 -0.8941
  551SOL    MW4 2313   1.146   2.345   1.108  0.4295  0.3898 -0.0712
  552SOL     OW 2314   0.929   2.460   1.214 -0.0724 -0.2007 -0.2371
  552SOL    HW2 2315   0.921   2.479   1.307  0.7272 -2.1008  0.2425
  552SOL    HW3 2316   0.846   2.420   1.190  0.0578 -0.5243 -0.1430
  552SOL    MW4 2317   0.917   2.458   1.223  0.0502 -0.4942 -0.1614
  553SOL     OW 2318   0.914   2.692   1.080 -0.0424  0.1183 -0.6266
  553SOL    HW2 2319   0.918   2.606   1.123 -1.4809 -0.7371 -2.1389
  553SOL    HW3 2320   0.830   2.729   1.107  0.2488  0.7455 -0.5670
  553SOL    MW4 2321   0.903   2.685   1.089 -0.1938  0.0882 -0.8183
  554SOL     OW 2322   1.132   2.848   1.174  0.2345 -0.7311  0.3670
  554SOL    HW2 2323   1.121   2.836   1.268 -2.3946 -0.1418  0.1670
  554SOL    HW3 2324   1.057   2.804   1.135  0.7506 -0.0894 -1.4103
  554SOL    MW4 2325   1.121   2.840   1.181 -0.0442 -0.5686  0.1061
  555SOL     OW 2326   1.131   3.116   1.074  0.5768 -0.2204  0.2436
  555SOL    HW2 2327   1.133   3.024   1.099 -0.1975 -0.5513 -0.8751
  555SOL    HW3 2328   1.143   3.115   0.979  0.0905  0.8041  0.1637
  555SOL    MW4 2329   1.133   3.104   1.064  0.4106 -0.1290  0.0855
  556SOL     OW 2330   0.918   3.236   1.191 -0.3956  0.0174 -0.0736
  556SOL    HW2 2331   0.934   3.328   1.169  1.2160 -0.0583  0.7344
  556SOL    HW3 2332   0.991   3.188   1.151 -0.1680 -0.6859  1.1597
  556SOL    MW4 2333   0.930   3.242   1.182 -0.1529 -0.0854  0.1956
  557SOL     OW 2334   0.973   3.507   1.159  0.3248 -0.7396  0.1757
  557SOL    HW2 2335   0.891   3.556   1.169 -0.5465 -2.1835  0.4418
  557SOL    HW3 2336   0.984   3.499   1.065 -0.2274 -1.1260  0.1365
  557SOL    MW4 2337   0.963   3.512   1.148  0.1370 -0.9811  0.2056
  558SOL     OW 2338   1.173   3.644   1.262 -0.0775  0.5119  0.0160
  558SOL    HW2 2339   1.237   3.587   1.221  0.5114  0.9775  0.2820
  558SOL    HW3 2340   1.088   3.608   1.236  0.2888  0.3558 -0.9692
  558SOL    MW4 2341   1.170   3.632   1.253  0.0485  0.5527 -0.0788
  559SOL     OW 2342   1.150   3.893   1.097  0.1389  0.2241  0.0900
  559SOL    HW2 2343   1.063   3.920   1.127 -0.7344 -0.4288 -1.7552
  559SOL    HW3 2344   1.171   3.817   1.151 -0.1761  0.7476  0.9547
  559SOL    MW4 2345   1.141   3.886   1.108 -0.0181  0.2072 -0.0393
  560SOL     OW 2346   0.910   3.910   1.243  0.2497 -0.2280  0.0721
  560SOL    HW2 2347   0.907   3.930   1.336 -2.0125  2.5712 -0.5126
  560SOL    HW3 2348   0.820   3.886   1.220  0.6665 -0.4108 -1.4796
  560SOL    MW4 2349   0.898   3.910   1.252  0.0062  0.1173 -0.2097
  561SOL     OW 2350   0.910   4.181   1.192  0.1431 -0.1685 -0.1653
  561SOL    HW2 2351   0.917   4.086   1.202  3.2411  0.0941  0.7766
  561SOL    HW3 2352   0.910   4.196   1.098 -1.1610 -1.1373 -0.3278
  561SOL    MW4 2353   0.911   4.171   1.181  0.3799 -0.2618 -0.0626
  562SOL     OW 2354   1.113   4.379   1.260 -0.2958  0.0376  0.2139
  562SOL    HW2 2355   1.126   4.376   1.354 -0.0846  0.8124  0.2072
  562SOL    HW3 2356   1.054   4.305   1.242 -0.3172 -0.1269  0.9430
  562SOL    MW4 2357   1.107   4.369   1.270 -0.2707  0.1178  0.3093
  563SOL     OW 2358   1.564   4.641   1.136  0.0987  0.4517  0.8748
  563SOL    HW2 2359   1.640   4.691   1.166 -0.6547  1.8688  0.4675
  563SOL    HW3 2360   1.580   4.552   1.167  1.0196  1.1418  2.4232
  563SOL    MW4 2361   1.576   4.636   1.144  0.1208  0.7296  1.0254
  564SOL     OW 2362   1.347   0.100   1.245  0.1021  0.2556  0.3737
  564SOL    HW2 2363   1.419   0.059   1.196  0.1448 -0.2434  0.8495
  564SOL    HW3 2364   1.269   0.055   1.212 -0.0284  1.0266 -0.3814
  564SOL    MW4 2365   1.346   0.088   1.234  0.0906  0.2915  0.3370
  565SOL     OW 2366   1.376   0.372   1.183 -0.1690 -0.0468 -0.2045
  565SOL    HW2 2367   1.369   0.280   1.206  0.3102 -0.3271 -1.1854
  565SOL    HW3 2368   1.287   0.406   1.194 -0.6598 -0.9544 -1.2615
  565SOL    MW4 2369   1.364   0.365   1.188 -0.1706 -0.2035 -0.4734
  566SOL     OW 2370   1.589   0.523   1.240 -0.6639 -0.2526  0.1569
  566SOL    HW2 2371   1.577   0.608   1.198 -0.7453 -0.1629  0.3584
  566SOL    HW3 2372   1.516   0.471   1.209  0.1613 -0.6904 -1.0605
  566SOL    MW4 2373   1.578   0.528   1.231 -0.5656 -0.2986  0.0228
  567SOL     OW 2374   1.535   0.772   1.110  0.1685 -0.1645 -0.0195
  567SOL    HW2 2375   1.614   0.818   1.139  1.1402 -2.0638  0.4370
  567SOL    HW3 2376   1.541   0.771   1.015  0.7317 -0.3189  0.0134
  567SOL    MW4 2377   1.546   0.778   1.101  0.3711 -0.4355  0.0449
  568SOL     OW 2378   1.315   0.885   1.231  0.0419  0.0545  0.7184
  568SOL    HW2 2379   1.391   0.851   1.184  0.3397  2.8494 -0.9380
  568SOL    HW3 2380   1.243   0.827   1.206  0.6951  0.1034 -1.3451
  568SOL    MW4 2381   1.316   0.873   1.221  0.1674  0.4298  0.2276
  569SOL     OW 2382   1.377   1.151   1.158  0.1001  0.5886  0.3399
  569SOL    HW2 2383   1.352   1.060   1.172 -0.4290  0.7913  0.7571
  569SOL    HW3 2384   1.349   1.171   1.069 -2.5331  1.2267  1.2732
  569SOL    MW4 2385   1.370   1.142   1.148 -0.3171  0.6996  0.5181
  570SOL     OW 2386   1.583   1.329   1.240 -0.3755 -0.0423  0.0959
  570SOL    HW2 2387   1.658   1.285   1.199 -0.7053 -1.3598  0.8824
  570SOL    HW3 2388   1.506   1.281   1.207 -0.9551  1.8183 -1.3670
  570SOL    MW4 2389   1.582   1.317   1.230 -0.4956  0.0293  0.0066
  571SOL     OW 2390   1.583   1.576   1.102  0.2169 -0.0897 -0.1728
  571SOL    HW2 2391   1.657   1.634   1.119 -0.9554  1.3009  0.3076
  571SOL    HW3 2392   1.594   1.504   1.165  0.4476  0.7655  0.7639
  571SOL    MW4 2393   1.594   1.574   1.113  0.0927  0.2067  0.0142
  572SOL     OW 2394   1.343   1.698   1.181  0.6961 -0.0701  0.0218
  572SOL    HW2 2395   1.423   1.652   1.156  0.1669 -2.3445  2.2940
  572SOL    HW3 2396   1.273   1.638   1.155 -0.0427 -0.1370  2.1016
  572SOL    MW4 2397   1.344   1.684   1.174  0.5287 -0.3790  0.5958
  573SOL     OW 2398   1.357   1.988   1.122 -0.1774 -0.0544  0.3691
  573SOL    HW2 2399   1.347   1.897   1.150 -1.3754  0.1027  0.4529
  573SOL    HW3 2400   1.280   2.033   1.158 -0.0801  0.7991 -0.4802
  573SOL    MW4 2401   1.346   1.982   1.131 -0.3227  0.0790  0.2680
  574SOL     OW 2402   1.606   2.065   1.193 -0.4478 -0.0765  0.3123
  574SOL    HW2 2403   1.601   2.159   1.175 -0.4310 -0.3525 -1.1814
  574SOL    HW3 2404   1.518   2.033   1.178 -0.3948 -0.3478  0.5789
  574SOL    MW4 2405   1.594   2.074   1.189 -0.4386 -0.1488  0.1504
  575SOL     OW 2406   1.632   2.327   1.144 -0.2715  0.3002 -0.2559
  575SOL    HW2 2407   1.555   2.363   1.188 -0.3221  0.1370 -0.2070
  575SOL    HW3 2408   1.616   2.341   1.051  0.1506  1.2633 -0.1895
  575SOL    MW4 2409   1.620   2.333   1.138 -0.2224  0.4055 -0.2407
  576SOL     OW 2410   1.390   2.428   1.214 -0.0857 -0.0346 -0.0537
  576SOL    HW2 2411   1.368   2.448   1.306  0.9890 -1.1964  0.4718
  576SOL    HW3 2412   1.369   2.509   1.167 -1.6474  0.2382  1.0441
  576SOL    MW4 2413   1.384   2.442   1.220 -0.1500 -0.1516  0.1605
  577SOL     OW 2414   1.333   2.682   1.087  0.6293  0.0942 -0.8086
  577SOL    HW2 2415   1.410   2.729   1.118 -0.6441  1.0811  0.9856
  577SOL    HW3 2416   1.260   2.726   1.129 -0.9475 -0.6325 -2.7346
  577SOL    MW4 2417   1.334   2.694   1.097  0.2533  0.1285 -0.8260
  578SOL     OW 2418   1.523   2.827   1.200 -0.1850  0.7240  0.0216
  578SOL    HW2 2419   1.604   2.781   1.180  0.0864  1.0169  0.4332
  578SOL    HW3 2420   1.534   2.913   1.158 -0.6385  0.4607 -0.6451
  578SOL    MW4 2421   1.535   2.833   1.192 -0.2090  0.7279 -0.0119
  579SOL     OW 2422   1.560   3.079   1.098 -0.8056  0.0802 -0.2218
  579SOL    HW2 2423   1.632   3.120   1.146 -1.2792  1.5221 -0.7136
  579SOL    HW3 2424   1.482   3.126   1.127 -1.4519 -0.9337 -0.2966
  579SOL    MW4 2425   1.559   3.090   1.108 -0.9533  0.1366 -0.2966
  580SOL     OW 2426   1.322   3.230   1.231 -0.1056 -0.0974 -0.0323
  580SOL    HW2 2427   1.333   3.214   1.325  0.2036 -0.6653 -0.1582
  580SOL    HW3 2428   1.232   3.204   1.212  0.2998 -1.4561 -0.1764
  580SOL    MW4 2429   1.312   3.224   1.241 -0.0112 -0.3517 -0.0678
  581SOL     OW 2430   1.360   3.491   1.131 -0.0266  0.2691 -0.5748
  581SOL    HW2 2431   1.359   3.400   1.158  0.4955  0.0059 -1.3891
  581SOL    HW3 2432   1.363   3.487   1.035  1.3467  1.1145 -0.5797
  581SOL    MW4 2433   1.360   3.478   1.122  0.2235  0.3455 -0.6829
  582SOL     OW 2434   1.584   3.634   1.216  0.2454  0.0783 -0.2456
  582SOL    HW2 2435   1.582   3.720   1.175 -0.3964 -0.6883 -1.8893
  582SOL    HW3 2436   1.498   3.596   1.195  0.1097 -0.5321  1.3960
  582SOL    MW4 2437   1.572   3.640   1.208  0.1429 -0.1032 -0.2459
  583SOL     OW 2438   1.588   3.884   1.119 -0.0752  0.0619  0.0869
  583SOL    HW2 2439   1.514   3.928   1.160 -1.0628 -0.0613 -1.5044
  583SOL    HW3 2440   1.568   3.887   1.025  1.2928 -1.1502 -0.2574
  583SOL    MW4 2441   1.576   3.891   1.112 -0.0249 -0.1142 -0.1686
  584SOL     OW 2442   1.377   4.026   1.203 -0.2371 -0.2840 -0.4421
  584SOL    HW2 2443   1.368   4.118   1.179  0.0849 -0.3306 -0.7375
  584SOL    HW3 2444   1.302   3.983   1.162 -0.4983 -0.1233 -0.1373
  584SOL    MW4 2445   1.366   4.032   1.194 -0.2290 -0.2694 -0.4408
  585SOL     OW 2446   1.340   4.281   1.127  0.3707 -0.2812  0.2182
  585SOL    HW2 2447   1.268   4.334   1.161  2.5746  1.3027  2.6917
  585SOL    HW3 2448   1.343   4.299   1.034 -1.1515  1.2234  0.4554
  585SOL    MW4 2449   1.331   4.290   1.119  0.4606  0.1264  0.5759
  586SOL     OW 2450   1.589   4.374   1.210  0.6669 -0.0005 -0.7111
  586SOL    HW2 2451   1.595   4.367   1.305  0.6810  0.5808 -0.6662
  586SOL    HW3 2452   1.505   4.335   1.188  0.9730 -0.7634 -0.5275
  586SOL    MW4 2453   1.579   4.368   1.220  0.7092 -0.0243 -0.6809
  587SOL     OW 2454   2.022   4.643   1.141  0.0349 -0.2166  0.3148
  587SOL    HW2 2455   2.041   4.555   1.174 -0.4327 -0.3890  0.1317
  587SOL    HW3 2456   2.022   4.634   1.046 -0.3187 -0.0876  0.3008
  587SOL    MW4 2457   2.025   4.630   1.133 -0.0734 -0.2227  0.2890
  588SOL     OW 2458   1.787   0.119   1.194 -0.5322 -0.0286 -0.4850
  588SOL    HW2 2459   1.790   0.209   1.161  0.4885 -0.4727 -1.6573
  588SOL    HW3 2460   1.873   0.083   1.172 -0.4839 -0.9138  1.0922
  588SOL    MW4 2461   1.799   0.126   1.186 -0.3912 -0.2040 -0.4314
  589SOL     OW 2462   1.803   0.390   1.137  0.4602  0.0528 -0.1629
  589SOL    HW2 2463   1.747   0.453   1.183  0.1558  0.2850 -0.8512
  589SOL    HW3 2464   1.787   0.407   1.044  0.9941 -0.4911 -0.3548
  589SOL    MW4 2465   1.794   0.401   1.131  0.4905  0.0117 -0.2791
  590SOL     OW 2466   2.071   0.493   1.210  0.5200  0.5260 -0.6547
  590SOL    HW2 2467   2.069   0.481   1.305  1.1031  1.4882 -0.5137
  590SOL    HW3 2468   1.995   0.444   1.179  1.0518 -0.8719  0.1720
  590SOL    MW4 2469   2.061   0.485   1.219  0.6671  0.4685 -0.5270
  591SOL     OW 2470   2.010   0.765   1.122  0.1179  0.2423 -0.5083
  591SOL    HW2 2471   2.015   0.677   1.160  2.4102 -0.0961 -1.5290
  591SOL    HW3 2472   2.033   0.752   1.030  1.8933  2.0981 -0.3542
  591SOL    MW4 2473   2.014   0.751   1.115  0.6542  0.4426 -0.6226
  592SOL     OW 2474   1.772   0.915   1.213 -0.2815  0.1947 -0.3520
  592SOL    HW2 2475   1.771   0.906   1.308 -1.1039  0.0505 -0.3744
  592SOL    HW3 2476   1.856   0.875   1.186 -0.3379 -0.3427  0.2506
  592SOL    MW4 2477   1.783   0.908   1.222 -0.3974  0.1049 -0.2754
  593SOL     OW 2478   1.777   1.179   1.104 -0.0631 -0.0439 -0.2909
  593SOL    HW2 2479   1.770   1.091   1.140  0.7688  0.0473  0.1180
  593SOL    HW3 2480   1.797   1.165   1.011 -1.0557 -0.2805 -0.4736
  593SOL    MW4 2481   1.779   1.165   1.096 -0.0844 -0.0632 -0.2611
  594SOL     OW 2482   2.014   1.266   1.198  0.2773  0.5066  0.0210
  594SOL    HW2 2483   2.075   1.213   1.148  0.1050  1.5063 -1.2962
  594SOL    HW3 2484   1.928   1.227   1.181  0.1757  1.0462 -0.7859
  594SOL    MW4 2485   2.010   1.254   1.189  0.2408  0.7095 -0.2594
  595SOL     OW 2486   2.002   1.547   1.127  0.1437 -0.6460 -0.5860
  595SOL    HW2 2487   1.990   1.454   1.147 -2.4787 -0.2688 -0.2166
  595SOL    HW3 2488   1.989   1.554   1.032  0.9138 -0.7363 -0.6993
  595SOL    MW4 2489   1.998   1.536   1.117 -0.1009 -0.6082 -0.5522
  596SOL     OW 2490   1.813   1.700   1.242  0.0903  0.3542  0.3473
  596SOL    HW2 2491   1.808   1.786   1.200  0.0881 -0.3559 -1.1179
  596SOL    HW3 2492   1.883   1.655   1.195 -0.7591 -0.9046  0.2785
  596SOL    MW4 2493   1.822   1.706   1.230 -0.0222  0.0944  0.1450
  597SOL     OW 2494   1.849   1.947   1.111 -0.1235  0.3542 -0.1488
  597SOL    HW2 2495   1.773   1.999   1.139 -0.2995  0.9520 -1.6898
  597SOL    HW3 2496   1.829   1.922   1.021  0.1329 -2.1150  0.4567
  597SOL    MW4 2497   1.836   1.951   1.103 -0.1128  0.1072 -0.2722
  598SOL     OW 2498   2.041   2.109   1.226 -0.7422  0.2833 -0.2257
  598SOL    HW2 2499   2.034   2.102   1.321  0.2634 -0.6639 -0.2170
  598SOL    HW3 2500   1.964   2.063   1.193 -0.5421 -0.2966  0.1116
  598SOL    MW4 2501   2.030   2.102   1.234 -0.5832  0.0818 -0.1801
  599SOL     OW 2502   2.025   2.355   1.102  0.0123 -0.1146 -0.4503
  599SOL    HW2 2503   2.106   2.389   1.142 -1.5930  2.1460  1.0151
  599SOL    HW3 2504   2.013   2.269   1.142  1.4675 -0.2975 -0.3726
  599SOL    MW4 2505   2.034   2.348   1.113 -0.0074  0.1595 -0.2465
  600SOL     OW 2506   1.835   2.477   1.241  0.2315  0.1338 -0.2444
  600SOL    HW2 2507   1.909   2.445   1.190  0.7263  0.1695  0.4551
  600SOL    HW3 2508   1.759   2.434   1.202  0.6132  0.1273 -0.9863
  600SOL    MW4 2509   1.835   2.467   1.229  0.3470  0.1378 -0.2500
  601SOL     OW 2510   1.766   2.728   1.154  0.6514  0.0393 -0.3900
  601SOL    HW2 2511   1.781   2.641   1.190  1.4015  0.2214 -0.2454
  601SOL    HW3 2512   1.799   2.723   1.064  0.0678 -0.0186 -0.6022
  601SOL    MW4 2513   1.772   2.716   1.147  0.6734  0.0558 -0.3989
  602SOL     OW 2514   2.006   2.835   1.271 -0.1368 -0.4790  0.3567
  602SOL    HW2 2515   2.014   2.927   1.247  1.0491 -0.9136 -1.0050
  602SOL    HW3 2516   1.926   2.806   1.226  0.4136 -0.5248 -0.6096
  602SOL    MW4 2517   1.997   2.843   1.262  0.0923 -0.5424  0.0496
  603SOL     OW 2518   2.014   3.074   1.156 -0.0593 -0.0063  0.1648
  603SOL    HW2 2519   1.936   3.123   1.181  0.8849  1.5630  0.0966
  603SOL    HW3 2520   2.014   3.075   1.060  0.0868  0.0372  0.1656
  603SOL    MW4 2521   2.004   3.080   1.147  0.0844  0.2062  0.1559
  604SOL     OW 2522   1.784   3.218   1.197 -0.4444 -0.0766  0.0281
  604SOL    HW2 2523   1.768   3.227   1.291  1.4942  0.8668  0.2972
  604SOL    HW3 2524   1.764   3.304   1.161 -1.4253 -0.5083 -0.4706
  604SOL    MW4 2525   1.779   3.231   1.205 -0.3181 -0.0091 -0.0023
  605SOL     OW 2526   1.794   3.494   1.106  0.1217 -0.0916  0.5355
  605SOL    HW2 2527   1.881   3.524   1.132  0.3975 -2.2404  2.2030
  605SOL    HW3 2528   1.734   3.535   1.168  0.2695 -1.0654  1.3357
  605SOL    MW4 2529   1.797   3.503   1.118  0.1776 -0.5035  0.8612
  606SOL     OW 2530   2.025   3.629   1.169 -0.5101  0.0534 -0.3341
  606SOL    HW2 2531   2.027   3.632   1.264 -1.3918 -0.0005 -0.3076
  606SOL    HW3 2532   2.101   3.576   1.145  0.3021  0.9101  0.2856
  606SOL    MW4 2533   2.035   3.623   1.178 -0.5193  0.1593 -0.2489
  607SOL     OW 2534   2.047   3.873   1.045  0.0964 -0.0611  0.4330
  607SOL    HW2 2535   1.974   3.915   1.090  0.6150 -0.6897  1.8815
  607SOL    HW3 2536   2.053   3.786   1.085  2.6359  0.5415  1.4820
  607SOL    MW4 2537   2.038   3.867   1.056  0.5000 -0.0648  0.7625
  608SOL     OW 2538   1.842   3.997   1.172 -0.1914 -1.0308 -0.0969
  608SOL    HW2 2539   1.848   3.979   1.265 -0.2650  1.1203  0.3503
  608SOL    HW3 2540   1.756   3.963   1.146 -0.4376 -1.0692  0.7593
  608SOL    MW4 2541   1.831   3.990   1.181 -0.2338 -0.7522  0.0750
  609SOL     OW 2542   1.832   4.292   1.097 -0.2683  0.3796 -0.2136
  609SOL    HW2 2543   1.831   4.199   1.119  0.6694  0.3752 -0.1702
  609SOL    HW3 2544   1.743   4.323   1.116 -0.2664 -0.2570  0.8503
  609SOL    MW4 2545   1.820   4.284   1.103 -0.1444  0.2952 -0.0675
  610SOL     OW 2546   2.060   4.379   1.220  0.5899 -0.3176 -0.3778
  610SOL    HW2 2547   2.034   4.381   1.312  1.1357  1.2606 -0.2355
  610SOL    HW3 2548   1.983   4.344   1.175 -0.0986 -0.0546  0.5559
  610SOL    MW4 2549   2.046   4.375   1.226  0.5710 -0.0744 -0.2358
  611SOL     OW 2550   2.447   4.627   1.133 -0.8046  0.4921 -0.1926
  611SOL    HW2 2551   2.514   4.683   1.172  0.2237  0.2901 -1.6329
  611SOL    HW3 2552   2.364   4.670   1.155 -0.1376  1.4871  0.4305
  611SOL    MW4 2553   2.444   4.640   1.141 -0.5808  0.5965 -0.3003
  612SOL     OW 2554   2.234   0.100   1.238  0.0240  0.3251  0.1288
  612SOL    HW2 2555   2.248   0.188   1.203 -0.0780  0.1566 -0.3346
  612SOL    HW3 2556   2.150   0.073   1.201  0.0306  0.0501  0.3128
  612SOL    MW4 2557   2.225   0.108   1.229  0.0114  0.2666  0.0919
  613SOL     OW 2558   2.270   0.339   1.106 -0.1410 -0.2546 -0.0411
  613SOL    HW2 2559   2.202   0.391   1.149 -1.4538 -1.5719 -0.5049
  613SOL    HW3 2560   2.254   0.351   1.012 -0.0226 -0.9356 -0.1513
  613SOL    MW4 2561   2.259   0.348   1.099 -0.2987 -0.5182 -0.1168
  614SOL     OW 2562   2.477   0.500   1.173 -0.3773 -0.3135  0.0361
  614SOL    HW2 2563   2.491   0.494   1.267 -2.6588  0.3839  0.4691
  614SOL    HW3 2564   2.408   0.437   1.155 -0.1629 -0.2292 -1.1107
  614SOL    MW4 2565   2.470   0.491   1.183 -0.6499 -0.2104 -0.0581
  615SOL     OW 2566   2.440   0.742   1.071  0.4363 -0.1332 -0.2583
  615SOL    HW2 2567   2.441   0.652   1.103  0.5431 -0.5128 -1.2993
  615SOL    HW3 2568   2.424   0.733   0.977  0.2806  0.9442 -0.3345
  615SOL    MW4 2569   2.438   0.729   1.063  0.4301 -0.0411 -0.4057
  616SOL     OW 2570   2.251   0.894   1.186 -0.2270 -0.0589  0.2155
  616SOL    HW2 2571   2.319   0.855   1.131 -0.7678  0.2165 -0.6551
  616SOL    HW3 2572   2.169   0.854   1.156 -0.7649  1.5748 -0.5493
  616SOL    MW4 2573   2.249   0.883   1.175 -0.3693  0.1930 -0.0004
  617SOL     OW 2574   2.220   1.146   1.078  0.0737 -0.1079  0.0009
  617SOL    HW2 2575   2.279   1.209   1.120 -0.7770  0.5681  0.2148
  617SOL    HW3 2576   2.239   1.063   1.122  0.8129  0.1173  0.1149
  617SOL    MW4 2577   2.230   1.144   1.090  0.0591  0.0108  0.0443
  618SOL     OW 2578   2.463   1.244   1.214  0.2898  0.2894 -0.1197
  618SOL    HW2 2579   2.545   1.199   1.192  1.3580  1.1320  2.0749
  618SOL    HW3 2580   2.475   1.333   1.180 -0.1831  0.1081 -0.7829
  618SOL    MW4 2581   2.475   1.250   1.206  0.3684  0.3766  0.0824
  619SOL     OW 2582   2.486   1.511   1.105 -0.2128  0.0257  0.0743
  619SOL    HW2 2583   2.404   1.553   1.131 -0.2134 -0.2308  0.4850
  619SOL    HW3 2584   2.483   1.512   1.009  0.4650  2.2710  0.0651
  619SOL    MW4 2585   2.475   1.517   1.096 -0.1235  0.2881  0.1274
  620SOL     OW 2586   2.255   1.631   1.215 -0.6674  0.4260 -0.0286
  620SOL    HW2 2587   2.258   1.710   1.161  0.4623  0.2227 -0.2936
  620SOL    HW3 2588   2.166   1.598   1.204 -0.6008  0.6483 -1.3920
  620SOL    MW4 2589   2.244   1.637   1.206 -0.5095  0.4284 -0.2434
  621SOL     OW 2590   2.233   1.902   1.133 -0.2625 -0.1688  0.2242
  621SOL    HW2 2591   2.154   1.943   1.169 -1.0377 -0.7680 -0.7670
  621SOL    HW3 2592   2.233   1.926   1.041  0.2680 -0.8754  0.0354
  621SOL    MW4 2593   2.223   1.911   1.126 -0.2947 -0.3412  0.0684
  622SOL     OW 2594   2.443   2.048   1.200 -0.6219 -0.0811 -0.2943
  622SOL    HW2 2595   2.511   2.010   1.144 -0.2263 -0.1636  0.2408
  622SOL    HW3 2596   2.369   1.987   1.193 -0.5248 -0.1595 -0.6246
  622SOL    MW4 2597   2.442   2.035   1.192 -0.5569 -0.1023 -0.2674
  623SOL     OW 2598   2.467   2.322   1.127 -0.2590 -0.3833  0.0530
  623SOL    HW2 2599   2.449   2.232   1.154 -1.0471 -0.7763 -1.7697
  623SOL    HW3 2600   2.453   2.323   1.033  0.1626  1.5555 -0.0139
  623SOL    MW4 2601   2.463   2.310   1.118 -0.3071 -0.1791 -0.1963
  624SOL     OW 2602   2.259   2.475   1.219 -0.2621 -0.4314 -0.3102
  624SOL    HW2 2603   2.271   2.493   1.312 -1.1803  0.2786 -0.3218
  624SOL    HW3 2604   2.332   2.417   1.196  0.0580 -0.4828  0.8088
  624SOL    MW4 2605   2.271   2.469   1.228 -0.3409 -0.3445 -0.1642
  625SOL     OW 2606   2.220   2.732   1.144 -0.0622 -0.2431  0.2535
  625SOL    HW2 2607   2.224   2.640   1.171 -0.7030 -0.7773 -1.3920
  625SOL    HW3 2608   2.155   2.771   1.202  0.1770 -0.8308  0.9346
  625SOL    MW4 2609   2.212   2.725   1.155 -0.1154 -0.3912  0.1262
  626SOL     OW 2610   2.468   2.828   1.174 -0.3407 -0.6762 -0.1644
  626SOL    HW2 2611   2.478   2.835   1.269 -0.0451  0.1983 -0.2628
  626SOL    HW3 2612   2.385   2.782   1.163 -0.8958  0.1525  0.4992
  626SOL    MW4 2613   2.459   2.823   1.185 -0.3750 -0.4516 -0.0898
  627SOL     OW 2614   2.433   3.084   1.101 -0.6337  0.2842 -0.0794
  627SOL    HW2 2615   2.352   3.114   1.141 -0.6408 -0.5256  0.5393
  627SOL    HW3 2616   2.452   3.001   1.144  0.2894  0.2437 -0.5332
  627SOL    MW4 2617   2.425   3.077   1.112 -0.5128  0.1721 -0.0577
  628SOL     OW 2618   2.223   3.221   1.241 -0.1242 -0.4334  0.1831
  628SOL    HW2 2619   2.238   3.305   1.199  1.9188  0.0674  1.8485
  628SOL    HW3 2620   2.148   3.184   1.194  0.9003  0.9069 -2.6305
  628SOL    MW4 2621   2.215   3.227   1.229  0.2801 -0.1910  0.0316
  629SOL     OW 2622   2.253   3.470   1.112 -0.2616  0.0781 -0.1668
  629SOL    HW2 2623   2.339   3.506   1.135 -0.1949  0.9022 -1.6506
  629SOL    HW3 2624   2.252   3.470   1.016 -1.1946 -1.6778 -0.1722
  629SOL    MW4 2625   2.264   3.475   1.103 -0.3757 -0.0448 -0.3633
  630SOL     OW 2626   2.481   3.594   1.197 -0.7582  0.1212 -0.3800
  630SOL    HW2 2627   2.474   3.610   1.291 -1.7125 -0.5799 -0.3204
  630SOL    HW3 2628   2.490   3.681   1.159  1.2828  0.3115  0.4706
  630SOL    MW4 2629   2.481   3.607   1.205 -0.6149  0.0539 -0.2598
  631SOL     OW 2630   2.500   3.859   1.120 -0.2580  0.1133 -0.1920
  631SOL    HW2 2631   2.422   3.909   1.146 -0.6646  0.0492 -1.2948
  631SOL    HW3 2632   2.504   3.868   1.025  0.9950 -0.0200 -0.1566
  631SOL    MW4 2633   2.490   3.867   1.111 -0.1462  0.0873 -0.3330
  632SOL     OW 2634   2.249   3.976   1.173  0.2336  0.3572 -0.4488
  632SOL    HW2 2635   2.245   4.070   1.153 -2.3258  0.4897  0.5662
  632SOL    HW3 2636   2.178   3.937   1.123  0.9160 -0.9648 -0.4139
  632SOL    MW4 2637   2.239   3.984   1.164 -0.0138  0.2003 -0.3102
  633SOL     OW 2638   2.285   4.247   1.127  0.0677  0.0019 -0.0280
  633SOL    HW2 2639   2.225   4.307   1.172  0.3231 -0.9033  1.5838
  633SOL    HW3 2640   2.271   4.263   1.034 -0.8761  1.5617  0.3669
  633SOL    MW4 2641   2.275   4.257   1.121 -0.0231  0.0887  0.2366
  634SOL     OW 2642   2.541   4.359   1.180  0.0124  0.4652  0.0949
  634SOL    HW2 2643   2.467   4.298   1.171 -0.3588  0.7945  0.9031
  634SOL    HW3 2644   2.503   4.445   1.164  0.6033  0.4705 -1.3795
  634SOL    MW4 2645   2.526   4.362   1.177  0.0412  0.5088  0.0070
  635SOL     OW 2646   2.884   4.635   1.083 -0.3477 -0.1040 -0.4689
  635SOL    HW2 2647   2.873   4.544   1.111 -1.8086 -0.0379 -0.7468
  635SOL    HW3 2648   2.886   4.630   0.987  0.2656  0.0886 -0.4656
  635SOL    MW4 2649   2.883   4.622   1.074 -0.4597 -0.0701 -0.5052
  636SOL     OW 2650   2.668   0.126   1.204  0.1061 -0.0811  0.5890
  636SOL    HW2 2651   2.675   0.121   1.299 -0.0993  1.2929  0.6878
  636SOL    HW3 2652   2.734   0.065   1.172  0.8204  0.1371  1.6114
  636SOL    MW4 2653   2.678   0.117   1.212  0.1731  0.1290  0.7371
  637SOL     OW 2654   2.691   0.363   1.071 -0.4253  0.5174  0.0165
  637SOL    HW2 2655   2.693   0.285   1.126  0.0006  0.7893  0.3986
  637SOL    HW3 2656   2.616   0.413   1.104 -0.7604  0.2266 -0.2962
  637SOL    MW4 2657   2.681   0.360   1.083 -0.4134  0.5149  0.0256
  638SOL     OW 2658   2.908   0.490   1.201 -0.2324 -0.0616 -0.1919
  638SOL    HW2 2659   2.909   0.583   1.178 -0.6622  0.3090  1.2248
  638SOL    HW3 2660   2.832   0.455   1.154 -1.4073  0.7906  1.0198
  638SOL    MW4 2661   2.898   0.498   1.192 -0.4442  0.0997  0.1550
  639SOL     OW 2662   2.912   0.761   1.111 -0.0086 -0.8865  0.5093
  639SOL    HW2 2663   2.971   0.821   1.155  0.3847 -1.5207  0.8531
  639SOL    HW3 2664   2.824   0.792   1.135  0.0914  1.5502 -1.9895
  639SOL    MW4 2665   2.908   0.773   1.120  0.0567 -0.6487  0.2249
  640SOL     OW 2666   2.675   0.870   1.163 -0.6478  0.2298  0.4158
  640SOL    HW2 2667   2.676   0.962   1.134 -2.3189  0.7275  1.8601
  640SOL    HW3 2668   2.599   0.832   1.119 -0.5187 -0.1975  0.5633
  640SOL    MW4 2669   2.665   0.877   1.153 -0.8512  0.2391  0.6256
  641SOL     OW 2670   2.706   1.129   1.076  0.0742 -0.0222  0.5697
  641SOL    HW2 2671   2.796   1.161   1.089  1.1034 -1.5815 -2.1799
  641SOL    HW3 2672   2.700   1.113   0.982 -2.6420 -1.3027  0.9112
  641SOL    MW4 2673   2.717   1.131   1.066 -0.1485 -0.3968  0.2520
  642SOL     OW 2674   2.945   1.243   1.157 -0.2741  0.2670 -0.0537
  642SOL    HW2 2675   2.955   1.271   1.248 -0.8891 -0.5117  0.2564
  642SOL    HW3 2676   2.921   1.323   1.110 -0.2603  0.6114  0.5174
  642SOL    MW4 2677   2.943   1.258   1.163 -0.3533  0.2097  0.0627
  643SOL     OW 2678   2.910   1.496   1.061  0.2591 -0.0915 -0.7119
  643SOL    HW2 2679   2.987   1.536   1.102  0.9698 -1.6599 -0.4620
  643SOL    HW3 2680   2.910   1.531   0.971  0.0512  1.5240 -0.0920
  643SOL    MW4 2681   2.920   1.506   1.054  0.3252 -0.0852 -0.5971
  644SOL     OW 2682   2.712   1.661   1.171 -0.4530  0.5677 -0.1385
  644SOL    HW2 2683   2.785   1.613   1.132 -0.1088  1.3171 -0.4325
  644SOL    HW3 2684   2.635   1.608   1.153 -0.2804  0.8361 -1.7157
  644SOL    MW4 2685   2.711   1.648   1.163 -0.3850  0.7020 -0.3853
  645SOL     OW 2686   2.676   1.901   1.051 -0.3409  0.2651 -0.1509
  645SOL    HW2 2687   2.750   1.945   1.092 -0.8976  0.3482  0.7696
  645SOL    HW3 2688   2.677   1.812   1.087 -0.0436 -0.0682 -0.9628
  645SOL    MW4 2689   2.686   1.895   1.061 -0.3750  0.2321 -0.1365
  646SOL     OW 2690   2.920   1.999   1.158 -0.4472  0.7326 -0.0384
  646SOL    HW2 2691   2.901   1.996   1.252  0.0893  0.9851  0.0812
  646SOL    HW3 2692   2.935   2.091   1.140 -2.8424  0.9978 -0.8446
  646SOL    MW4 2693   2.919   2.011   1.168 -0.6924  0.8008 -0.1290
  647SOL     OW 2694   2.925   2.287   1.101 -0.3678  0.0008  0.0943
  647SOL    HW2 2695   2.997   2.325   1.152 -0.4999  0.0645  0.2300
  647SOL    HW3 2696   2.847   2.332   1.131 -0.1992  1.4345 -1.5523
  647SOL    MW4 2697   2.924   2.298   1.111 -0.3631  0.1984 -0.1051
  648SOL     OW 2698   2.719   2.427   1.190 -0.6448 -0.0766 -0.2407
  648SOL    HW2 2699   2.718   2.436   1.286  0.8952 -1.5223 -0.0710
  648SOL    HW3 2700   2.631   2.397   1.168 -1.1673  0.7482  0.6568
  648SOL    MW4 2701   2.707   2.425   1.200 -0.5105 -0.1588 -0.0999
  649SOL     OW 2702   2.712   2.701   1.140 -0.3554 -0.2168 -0.6501
  649SOL    HW2 2703   2.706   2.606   1.144 -0.0799 -0.2813 -1.6761
  649SOL    HW3 2704   2.622   2.732   1.150 -0.5868 -0.6261 -1.5421
  649SOL    MW4 2705   2.699   2.693   1.142 -0.3495 -0.2797 -0.9031
  650SOL     OW 2706   2.941   2.810   1.255  0.3546  0.3226 -0.0151
  650SOL    HW2 2707   2.933   2.797   1.350  1.8069 -1.1309 -0.0724
  650SOL    HW3 2708   2.857   2.779   1.220  0.1003  0.1555  0.7326
  650SOL    MW4 2709   2.929   2.804   1.263  0.5128  0.1090  0.0759
  651SOL     OW 2710   2.938   3.078   1.154 -0.5760  0.0910  0.4474
  651SOL    HW2 2711   2.944   2.986   1.181  4.1545  0.1869  0.1911
  651SOL    HW3 2712   2.943   3.075   1.058  2.7932  0.6429  0.5266
  651SOL    MW4 2713   2.940   3.065   1.145  0.4926  0.1767  0.4241
  652SOL     OW 2714   2.658   3.195   1.222 -0.3417  0.0471  0.1833
  652SOL    HW2 2715   2.728   3.137   1.192  0.9711  0.8200  1.6506
  652SOL    HW3 2716   2.579   3.161   1.180  0.4185 -2.6605  0.8208
  652SOL    MW4 2717   2.657   3.183   1.212 -0.0682 -0.2084  0.4611
  653SOL     OW 2718   2.709   3.457   1.117 -0.1339 -0.2432 -0.0762
  653SOL    HW2 2719   2.697   3.370   1.155  1.4474  0.1496  1.3688
  653SOL    HW3 2720   2.635   3.508   1.150 -0.6785 -0.8350 -0.3611
  653SOL    MW4 2721   2.698   3.452   1.126  0.0029 -0.2697  0.0769
  654SOL     OW 2722   2.925   3.552   1.262  0.3529  0.2951 -0.0173
  654SOL    HW2 2723   3.001   3.519   1.214  0.1871 -1.5645  0.9575
  654SOL    HW3 2724   2.850   3.519   1.214  0.1716  0.4191  0.1811
  654SOL    MW4 2725   2.925   3.544   1.249  0.3073  0.0663  0.1374
  655SOL     OW 2726   2.915   3.811   1.142  0.1236  0.1247  0.2753
  655SOL    HW2 2727   2.998   3.857   1.157  0.4599 -0.4399  0.1708
  655SOL    HW3 2728   2.924   3.730   1.193  0.0085 -0.3654 -0.4866
  655SOL    MW4 2729   2.927   3.806   1.151  0.1528 -0.0148  0.1611
  656SOL     OW 2730   2.708   3.987   1.234  0.4345  0.1124 -0.2788
  656SOL    HW2 2731   2.775   3.923   1.209 -0.9496 -1.8830  0.9178
  656SOL    HW3 2732   2.627   3.953   1.196  0.2154  3.0294 -2.5583
  656SOL    MW4 2733   2.706   3.974   1.226  0.2229  0.2341 -0.4216
  657SOL     OW 2734   2.743   4.185   1.048 -0.0050  0.3424 -0.1380
  657SOL    HW2 2735   2.751   4.112   1.109  0.9749  0.8131  0.3192
  657SOL    HW3 2736   2.675   4.240   1.086 -0.1112  0.1191 -0.0040
  657SOL    MW4 2737   2.735   4.183   1.061  0.1101  0.3748 -0.0598
  658SOL     OW 2738   2.899   4.368   1.182 -0.0718  0.5398  0.0267
  658SOL    HW2 2739   2.983   4.324   1.170  0.3860  1.7001 -1.1997
  658SOL    HW3 2740   2.837   4.315   1.133 -0.2158 -0.7565  1.5812
  658SOL    MW4 2741   2.902   4.355   1.173 -0.0303  0.5221  0.0701
  659SOL     OW 2742   3.353   4.620   1.088  0.0707 -0.0151 -0.0128
  659SOL    HW2 2743   3.439   4.657   1.110  0.2151  0.6492 -1.5565
  659SOL    HW3 2744   3.290   4.677   1.132  0.3938  0.1994  0.1741
  659SOL    MW4 2745   3.356   4.632   1.096  0.1323  0.1006 -0.1918
  660SOL     OW 2746   3.128   0.102   1.171 -0.6434  0.2659 -0.1727
  660SOL    HW2 2747   3.130   0.087   1.265  0.8037  0.5081 -0.1567
  660SOL    HW3 2748   3.041   0.073   1.144 -0.5180 -1.2332  0.9975
  660SOL    MW4 2749   3.116   0.097   1.180 -0.4358  0.1001 -0.0162
  661SOL     OW 2750   3.147   0.367   1.121  0.6206  0.0967  0.0268
  661SOL    HW2 2751   3.141   0.274   1.144 -0.3403  0.0195 -0.5078
  661SOL    HW3 2752   3.061   0.402   1.142  0.5750  0.5893 -0.9864
  661SOL    MW4 2753   3.135   0.359   1.127  0.4878  0.1515 -0.1773
  662SOL     OW 2754   3.370   0.483   1.237 -0.1090 -0.2285  0.1354
  662SOL    HW2 2755   3.372   0.576   1.214 -0.0197  0.0410  1.1894
  662SOL    HW3 2756   3.292   0.449   1.193 -0.4074  0.4485  0.1382
  662SOL    MW4 2757   3.360   0.491   1.228 -0.1364 -0.1036  0.2748
  663SOL     OW 2758   3.332   0.749   1.130 -0.3364 -0.3119 -0.1980
  663SOL    HW2 2759   3.257   0.797   1.167 -0.1870 -0.6558  0.5783
  663SOL    HW3 2760   3.318   0.751   1.036 -0.6076  0.8008 -0.1351
  663SOL    MW4 2761   3.320   0.756   1.123 -0.3524 -0.2104 -0.0871
  664SOL     OW 2762   3.121   0.901   1.211  0.0804  0.0707  0.0181
  664SOL    HW2 2763   3.125   0.909   1.306  2.1535 -0.5400  0.0040
  664SOL    HW3 2764   3.161   0.981   1.178 -0.2229  0.0746 -0.3521
  664SOL    MW4 2765   3.127   0.913   1.219  0.3138 -0.0094 -0.0328
  665SOL     OW 2766   3.184   1.133   1.083  0.4351 -0.0601 -0.9558
  665SOL    HW2 2767   3.248   1.194   1.121  0.1293  0.2190 -0.8838
  665SOL    HW3 2768   3.099   1.172   1.105  0.2546 -0.0942 -1.6004
  665SOL    MW4 2769   3.181   1.146   1.091  0.3710 -0.0279 -1.0313
  666SOL     OW 2770   3.407   1.280   1.203  0.5210 -0.2143  0.1755
  666SOL    HW2 2771   3.391   1.269   1.297  1.8503  1.3416  0.6128
  666SOL    HW3 2772   3.385   1.372   1.186  2.0282  0.0073 -0.6587
  666SOL    MW4 2773   3.402   1.291   1.213  0.8955  0.0201  0.1233
  667SOL     OW 2774   3.376   1.548   1.130 -0.3838  0.0935 -0.3797
  667SOL    HW2 2775   3.430   1.614   1.174  0.8057 -0.1996 -1.3679
  667SOL    HW3 2776   3.287   1.565   1.160  0.0840  1.4057  0.2734
  667SOL    MW4 2777   3.371   1.559   1.140 -0.1650  0.2278 -0.4239
  668SOL     OW 2778   3.112   1.615   1.216 -0.0235  0.0287 -0.1293
  668SOL    HW2 2779   3.124   1.633   1.309 -1.9755  0.3580  0.0839
  668SOL    HW3 2780   3.124   1.700   1.173 -0.4504  0.1447 -0.0267
  668SOL    MW4 2781   3.115   1.629   1.222 -0.3374  0.0874 -0.0877
  669SOL     OW 2782   3.146   1.873   1.106 -0.3105  0.0076  0.0327
  669SOL    HW2 2783   3.215   1.929   1.143 -0.2432  0.0010 -0.0809
  669SOL    HW3 2784   3.066   1.923   1.118 -0.2125  0.2453 -0.3114
  669SOL    MW4 2785   3.145   1.887   1.113 -0.2887  0.0380 -0.0278
  670SOL     OW 2786   3.352   2.044   1.184  0.0747 -0.3870  0.3476
  670SOL    HW2 2787   3.437   2.007   1.162  0.4095  0.4597  0.1713
  670SOL    HW3 2788   3.346   2.123   1.130 -0.3170  0.1893  1.2202
  670SOL    MW4 2789   3.362   2.050   1.174  0.0675 -0.1991  0.4395
  671SOL     OW 2790   3.338   2.292   1.050  0.0601  0.0333  0.2497
  671SOL    HW2 2791   3.401   2.330   1.112 -0.3715 -0.2734  0.8862
  671SOL    HW3 2792   3.254   2.331   1.075 -0.1834 -0.4076  0.1252
  671SOL    MW4 2793   3.335   2.302   1.061 -0.0288 -0.0653  0.3173
  672SOL     OW 2794   3.146   2.428   1.192  0.3061 -0.2846  0.3995
  672SOL    HW2 2795   3.150   2.422   1.287  2.1713  0.7707  0.4111
  672SOL    HW3 2796   3.170   2.518   1.172 -0.2658 -0.4355 -1.0669
  672SOL    MW4 2797   3.149   2.439   1.202  0.4766 -0.1652  0.2077
  673SOL     OW 2798   3.166   2.687   1.115 -0.1567 -0.3806  0.0501
  673SOL    HW2 2799   3.087   2.708   1.165 -0.4517 -0.8669 -0.2009
  673SOL    HW3 2800   3.140   2.699   1.024  0.3560  0.4233  0.0092
  673SOL    MW4 2801   3.152   2.691   1.110 -0.1278 -0.3388  0.0116
  674SOL     OW 2802   3.374   2.826   1.261 -0.2074  0.0768 -0.6280
  674SOL    HW2 2803   3.381   2.910   1.215 -0.7511 -0.5463 -1.8749
  674SOL    HW3 2804   3.304   2.779   1.214 -0.0432 -0.9864  0.1807
  674SOL    MW4 2805   3.366   2.831   1.248 -0.2575 -0.1457 -0.6858
  675SOL     OW 2806   3.384   3.071   1.124  0.3893  0.2541  0.0630
  675SOL    HW2 2807   3.469   3.109   1.148  0.2174  0.5763  0.1743
  675SOL    HW3 2808   3.320   3.124   1.172  0.0514  0.8101 -0.9824
  675SOL    MW4 2809   3.387   3.083   1.134  0.3221  0.3700 -0.0603
  676SOL     OW 2810   3.161   3.220   1.244 -0.8427 -0.3990 -0.2890
  676SOL    HW2 2811   3.170   3.307   1.205 -1.0613 -0.2231  0.0450
  676SOL    HW3 2812   3.074   3.190   1.217 -1.6598  0.3998  1.3764
  676SOL    MW4 2813   3.151   3.228   1.235 -0.9794 -0.2701 -0.0253
  677SOL     OW 2814   3.148   3.467   1.111 -0.4146 -0.4691  0.0386
  677SOL    HW2 2815   3.222   3.520   1.142 -0.2126 -1.0234  0.5023
  677SOL    HW3 2816   3.161   3.462   1.016 -0.3084  0.1193  0.0198
  677SOL    MW4 2817   3.160   3.474   1.102 -0.3741 -0.4647  0.0974
  678SOL     OW 2818   3.378   3.595   1.220  0.0676 -0.4062 -0.1609
  678SOL    HW2 2819   3.366   3.595   1.315 -2.0240  0.2734 -0.4002
  678SOL    HW3 2820   3.467   3.563   1.207  0.3201 -0.6564  2.0205
  678SOL    MW4 2821   3.389   3.591   1.231 -0.1750 -0.3493  0.0954
  679SOL     OW 2822   3.344   3.845   1.091  0.2921 -0.1841 -0.0791
  679SOL    HW2 2823   3.276   3.890   1.142  0.6371 -1.6938  1.7945
  679SOL    HW3 2824   3.353   3.760   1.134  2.3639 -0.5530 -1.1833
  679SOL    MW4 2825   3.336   3.840   1.104  0.6111 -0.4320  0.0223
  680SOL     OW 2826   3.137   3.970   1.207 -0.0096 -0.5362  0.4220
  680SOL    HW2 2827   3.144   3.979   1.302  2.9969  0.2763  0.1669
  680SOL    HW3 2828   3.135   4.060   1.175 -0.5451 -0.8089 -0.3143
  680SOL    MW4 2829   3.138   3.983   1.215  0.3161 -0.4649  0.2912
  681SOL     OW 2830   3.136   4.207   1.079  0.0440 -0.3946 -0.0146
  681SOL    HW2 2831   3.180   4.285   1.112 -0.4996  0.3069 -0.9059
  681SOL    HW3 2832   3.125   4.224   0.985 -1.3268 -0.9481  0.0364
  681SOL    MW4 2833   3.141   4.219   1.071 -0.2086 -0.3748 -0.1255
  682SOL     OW 2834   3.319   4.370   1.198  0.2378  0.0730  0.0592
  682SOL    HW2 2835   3.403   4.332   1.171  0.3141  0.8400 -0.8063
  682SOL    HW3 2836   3.315   4.455   1.155 -0.7239  0.3026  0.5686
  682SOL    MW4 2837   3.329   4.376   1.189  0.1211  0.2050  0.0123
  683SOL     OW 2838   3.845   4.602   1.079  0.1609 -0.4967  0.5093
  683SOL    HW2 2839   3.830   4.512   1.107 -1.7031 -0.6086 -0.7251
  683SOL    HW3 2840   3.843   4.598   0.983  1.0384  0.7075  0.4259
  683SOL    MW4 2841   3.842   4.590   1.070  0.0308 -0.3529  0.3353
  684SOL     OW 2842   3.614   0.054   1.199 -0.0097 -0.0144 -0.6033
  684SOL    HW2 2843   3.610   0.142   1.162  0.5730  0.4906  0.5043
  684SOL    HW3 2844   3.691   0.014   1.157  1.2616  0.9122  0.7768
  684SOL    MW4 2845   3.624   0.060   1.188  0.2348  0.1745 -0.2751
  685SOL     OW 2846   3.573   0.319   1.139 -0.0646  0.1448 -0.2307
  685SOL    HW2 2847   3.644   0.373   1.174 -0.1695  0.9716 -1.2673
  685SOL    HW3 2848   3.493   0.362   1.170 -0.1372 -0.2082  0.0847
  685SOL    MW4 2849   3.572   0.332   1.148 -0.0880  0.2073 -0.3258
  686SOL     OW 2850   3.781   0.477   1.239  0.4463 -0.3222  0.1920
  686SOL    HW2 2851   3.863   0.433   1.216 -0.1783 -1.6420  0.4415
  686SOL    HW3 2852   3.781   0.557   1.187  0.8363 -1.4183 -1.5240
  686SOL    MW4 2853   3.792   0.482   1.229  0.4153 -0.6409 -0.0015
  687SOL     OW 2854   3.767   0.719   1.112  0.3488 -0.1459  0.5029
  687SOL    HW2 2855   3.839   0.777   1.138  1.2468 -1.3357  0.7261
  687SOL    HW3 2856   3.688   0.765   1.139  1.0281  1.2090  0.1973
  687SOL    MW4 2857   3.766   0.733   1.119  0.5569 -0.1242  0.4920
  688SOL     OW 2858   3.558   0.866   1.225 -0.4533  0.8346 -0.1559
  688SOL    HW2 2859   3.566   0.948   1.175 -1.5979 -0.1338 -1.9897
  688SOL    HW3 2860   3.479   0.824   1.190 -0.8114 -0.2922  1.9160
  688SOL    MW4 2861   3.549   0.871   1.214 -0.6518  0.5582 -0.1246
  689SOL     OW 2862   3.617   1.114   1.101  0.0900 -0.0813 -0.1588
  689SOL    HW2 2863   3.703   1.147   1.126  0.1221 -0.5440  0.3702
  689SOL    HW3 2864   3.556   1.182   1.131  0.1693 -0.4028  0.7538
  689SOL    MW4 2865   3.620   1.127   1.109  0.1047 -0.1848  0.0315
  690SOL     OW 2866   3.840   1.297   1.188  0.0758  0.6245  0.2859
  690SOL    HW2 2867   3.833   1.291   1.284  0.2082 -0.1420  0.2522
  690SOL    HW3 2868   3.823   1.389   1.169  1.7246  1.1544  1.2047
  690SOL    MW4 2869   3.837   1.308   1.198  0.3107  0.5933  0.4027
  691SOL     OW 2870   3.795   1.557   1.088 -0.4221  0.0000  0.2895
  691SOL    HW2 2871   3.883   1.595   1.100 -0.2727 -0.2805  0.0849
  691SOL    HW3 2872   3.787   1.546   0.993  0.0407 -1.6740  0.4304
  691SOL    MW4 2873   3.806   1.560   1.077 -0.3414 -0.2580  0.2811
  692SOL     OW 2874   3.574   1.697   1.241 -0.1680  0.1697 -0.1445
  692SOL    HW2 2875   3.598   1.786   1.216 -1.4224  0.4569 -0.3447
  692SOL    HW3 2876   3.650   1.644   1.216 -0.2998  0.8490 -2.1021
  692SOL    MW4 2877   3.588   1.701   1.234 -0.3510  0.2972 -0.4292
  693SOL     OW 2878   3.595   1.936   1.125  0.1459 -0.5429 -0.0521
  693SOL    HW2 2879   3.669   1.972   1.174  1.0539 -0.8569 -1.1709
  693SOL    HW3 2880   3.622   1.941   1.033 -1.9475  0.9959 -0.6198
  693SOL    MW4 2881   3.608   1.941   1.119 -0.0105 -0.3812 -0.2747
  694SOL     OW 2882   3.837   2.035   1.247  0.3422  0.0112 -0.0541
  694SOL    HW2 2883   3.838   2.049   1.342  0.6139  0.0972 -0.0689
  694SOL    HW3 2884   3.919   1.988   1.230 -0.3423 -1.2046 -0.0612
  694SOL    MW4 2885   3.848   2.030   1.257  0.2878 -0.1378 -0.0570
  695SOL     OW 2886   3.799   2.280   1.153  0.2088  0.2217 -0.2407
  695SOL    HW2 2887   3.869   2.331   1.193  0.0241 -0.3450  0.8028
  695SOL    HW3 2888   3.809   2.192   1.189 -0.1011 -0.2376 -1.2569
  695SOL    MW4 2889   3.809   2.275   1.163  0.1435  0.0865 -0.2370
  696SOL     OW 2890   3.542   2.413   1.197  0.2254  0.2993 -0.3408
  696SOL    HW2 2891   3.560   2.429   1.290 -0.6896  3.1494 -0.6208
  696SOL    HW3 2892   3.627   2.389   1.160  0.4582 -1.6272  1.3609
  696SOL    MW4 2893   3.555   2.412   1.205  0.1354  0.4210 -0.1533
  697SOL     OW 2894   3.593   2.700   1.127  0.0472  0.4392 -0.0689
  697SOL    HW2 2895   3.578   2.606   1.141  0.9268  0.3788  0.4963
  697SOL    HW3 2896   3.518   2.743   1.167  0.2636  0.0349  0.7864
  697SOL    MW4 2897   3.581   2.693   1.134  0.1917  0.3781  0.1186
  698SOL     OW 2898   3.827   2.818   1.214  0.1526 -0.4772 -0.2502
  698SOL    HW2 2899   3.817   2.823   1.309 -0.4895 -0.7916 -0.3014
  698SOL    HW3 2900   3.751   2.768   1.184  0.9900 -1.4356 -0.8155
  698SOL    MW4 2901   3.815   2.812   1.222  0.1783 -0.6452 -0.3316
  699SOL     OW 2902   3.843   3.082   1.091  0.3369  0.1821 -0.0295
  699SOL    HW2 2903   3.846   2.989   1.115  3.1560 -0.1328 -1.2721
  699SOL    HW3 2904   3.827   3.081   0.996 -0.9820  1.0138  0.1826
  699SOL    MW4 2905   3.841   3.069   1.081  0.5348  0.2503 -0.1656
  700SOL     OW 2906   3.625   3.209   1.225  0.1622 -0.1322  0.3213
  700SOL    HW2 2907   3.623   3.303   1.209  0.7661  0.1576  1.8795
  700SOL    HW3 2908   3.704   3.179   1.181  0.0938  0.1255  0.0234
  700SOL    MW4 2909   3.635   3.218   1.217  0.2332 -0.0601  0.4876
  701SOL     OW 2910   3.639   3.481   1.173  0.6714 -0.1493  0.1223
  701SOL    HW2 2911   3.710   3.543   1.187 -0.0157  0.5284  0.6630
  701SOL    HW3 2912   3.634   3.470   1.078  1.3167  0.0044  0.0734
  701SOL    MW4 2913   3.648   3.487   1.163  0.6659 -0.0396  0.1873
  702SOL     OW 2914   3.861   3.650   1.230 -0.3033  0.0330  0.0455
  702SOL    HW2 2915   3.839   3.652   1.323  0.9873  0.1076  0.3618
  702SOL    HW3 2916   3.855   3.742   1.202 -1.9486 -0.1509 -0.2664
  702SOL    MW4 2917   3.857   3.663   1.239 -0.3500  0.0186  0.0461
  703SOL     OW 2918   3.849   3.897   1.098  0.3059  0.1111 -0.1515
  703SOL    HW2 2919   3.761   3.920   1.127  1.0156  1.4472  0.9606
  703SOL    HW3 2920   3.841   3.889   1.002 -1.1453 -0.3914 -0.0014
  703SOL    MW4 2921   3.836   3.899   1.089  0.2079  0.2210  0.0150
  704SOL     OW 2922   3.590   3.958   1.223  0.0547  0.5155  0.0167
  704SOL    HW2 2923   3.578   3.953   1.318 -2.4544 -0.1161 -0.2952
  704SOL    HW3 2924   3.513   3.915   1.187  0.0605  2.3823 -2.3407
  704SOL    MW4 2925   3.579   3.952   1.231 -0.2754  0.6785 -0.3355
  705SOL     OW 2926   3.551   4.231   1.157 -0.4311 -0.3381  0.0519
  705SOL    HW2 2927   3.559   4.142   1.191 -0.6994 -0.1359  0.6615
  705SOL    HW3 2928   3.564   4.222   1.063 -1.6527 -1.2022 -0.0537
  705SOL    MW4 2929   3.554   4.218   1.149 -0.6278 -0.4253  0.1184
  706SOL     OW 2930   3.791   4.364   1.208  0.2200  0.3205  0.7320
  706SOL    HW2 2931   3.817   4.366   1.300 -0.0528 -0.8332  0.8370
  706SOL    HW3 2932   3.706   4.320   1.208  0.7324 -0.7078 -0.1868
  706SOL    MW4 2933   3.783   4.358   1.220  0.2518  0.0324  0.6247
  707SOL     OW 2934   4.273   4.607   1.089  0.2197 -0.2720 -0.0923
  707SOL    HW2 2935   4.280   4.523   1.134 -0.4654  0.5974  1.6976
  707SOL    HW3 2936   4.195   4.648   1.126 -0.1496  0.6468 -1.8268
  707SOL    MW4 2937   4.264   4.602   1.100  0.0806 -0.0358 -0.0851
  708SOL     OW 2938   4.055   0.080   1.185  0.1846  0.6755  0.4223
  708SOL    HW2 2939   4.041   0.065   1.279  0.1620  2.8527  0.7815
  708SOL    HW3 2940   3.980   0.038   1.143  0.2244 -0.3657  1.3705
  708SOL    MW4 2941   4.043   0.072   1.192  0.1869  0.8254  0.5947
  709SOL     OW 2942   3.991   0.335   1.111  0.3711 -0.3784 -0.3814
  709SOL    HW2 2943   4.028   0.248   1.131  0.0253 -0.8157 -1.6330
  709SOL    HW3 2944   3.993   0.341   1.016 -1.8225  0.0121 -0.4314
  709SOL    MW4 2945   3.996   0.324   1.101  0.0362 -0.3846 -0.5531
  710SOL     OW 2946   4.210   0.505   1.180  0.1422  0.0937  0.1872
  710SOL    HW2 2947   4.224   0.524   1.272  0.9062 -1.5204  0.4183
  710SOL    HW3 2948   4.128   0.457   1.177 -0.7462  1.5973 -0.1746
  710SOL    MW4 2949   4.201   0.501   1.191  0.1259  0.0791  0.1700
  711SOL     OW 2950   4.230   0.759   1.054  0.0870 -0.1052 -0.0640
  711SOL    HW2 2951   4.236   0.665   1.073  0.2878 -0.4712 -1.8166
  711SOL    HW3 2952   4.274   0.768   0.969  0.5239  1.6567  0.3435
  711SOL    MW4 2953   4.237   0.747   1.045  0.1707  0.0790 -0.2414
  712SOL     OW 2954   3.987   0.869   1.174 -0.1646 -0.0974 -0.4189
  712SOL    HW2 2955   3.997   0.864   1.269  0.4263 -0.4006 -0.4899
  712SOL    HW3 2956   4.063   0.821   1.140  0.6644  1.6649 -1.0753
  712SOL    MW4 2957   3.999   0.862   1.182  0.0229  0.0951 -0.5149
  713SOL     OW 2958   4.046   1.122   1.094  0.2185 -0.1081 -0.9093
  713SOL    HW2 2959   4.016   1.036   1.122  1.9596 -0.3439  0.2786
  713SOL    HW3 2960   3.977   1.182   1.125  0.4152 -0.7563  0.8358
  713SOL    MW4 2961   4.033   1.119   1.102  0.4745 -0.2247 -0.5223
  714SOL     OW 2962   4.275   1.250   1.191 -0.5569  0.2925 -0.1643
  714SOL    HW2 2963   4.273   1.245   1.286 -1.4292 -1.8164 -0.2562
  714SOL    HW3 2964   4.197   1.202   1.163  0.6072 -0.6108 -1.9825
  714SOL    MW4 2965   4.264   1.243   1.200 -0.5183 -0.1049 -0.4163
  715SOL     OW 2966   4.245   1.493   1.052 -0.0735 -0.2573  0.0252
  715SOL    HW2 2967   4.252   1.417   1.110  0.2988 -1.2704 -1.3270
  715SOL    HW3 2968   4.328   1.538   1.061  0.6667 -1.3811 -1.0311
  715SOL    MW4 2969   4.257   1.489   1.061  0.0725 -0.5393 -0.2924
  716SOL     OW 2970   4.041   1.645   1.157 -0.0074  0.2631  0.6689
  716SOL    HW2 2971   4.039   1.651   1.253  1.1030 -1.6894  0.8558
  716SOL    HW3 2972   4.117   1.590   1.139 -0.6898 -0.0608 -1.2958
  716SOL    MW4 2973   4.051   1.638   1.167  0.0491 -0.0372  0.4344
  717SOL     OW 2974   4.081   1.913   1.131 -0.0431 -0.2430 -0.5267
  717SOL    HW2 2975   4.076   1.820   1.150 -0.7100  0.3294  2.2222
  717SOL    HW3 2976   4.078   1.918   1.035  2.4983 -3.1559 -0.8370
  717SOL    MW4 2977   4.080   1.902   1.121  0.2046 -0.5518 -0.2048
  718SOL     OW 2978   4.278   2.071   1.253  0.0135 -0.1470 -0.3717
  718SOL    HW2 2979   4.267   2.163   1.228 -1.3880 -0.0378  0.6303
  718SOL    HW3 2980   4.199   2.028   1.222  0.2806 -0.8612 -0.0709
  718SOL    MW4 2981   4.266   2.078   1.245 -0.1364 -0.2270 -0.1998
  719SOL     OW 2982   4.283   2.325   1.123 -0.3482 -0.1600 -0.3893
  719SOL    HW2 2983   4.196   2.357   1.149 -0.8536 -1.2813 -0.6756
  719SOL    HW3 2984   4.275   2.310   1.029  0.4493  0.6402 -0.5868
  719SOL    MW4 2985   4.270   2.328   1.114 -0.3099 -0.2027 -0.4531
  720SOL     OW 2986   4.054   2.436   1.222 -0.4913  0.2933  0.9193
  720SOL    HW2 2987   4.050   2.422   1.316  0.5765 -0.9946  0.7803
  720SOL    HW3 2988   4.080   2.528   1.212 -0.7992  0.4900  1.8619
  720SOL    MW4 2989   4.057   2.446   1.233 -0.3915  0.1493  1.0253
  721SOL     OW 2990   4.092   2.707   1.140  0.2823 -0.1686 -0.0929
  721SOL    HW2 2991   4.001   2.736   1.149  0.4647  0.1722  0.7360
  721SOL    HW3 2992   4.107   2.706   1.046 -0.5013  0.0204 -0.2288
  721SOL    MW4 2993   4.082   2.711   1.129  0.2031 -0.0987 -0.0014
  722SOL     OW 2994   4.305   2.860   1.241 -0.0932  0.2610  0.1085
  722SOL    HW2 2995   4.298   2.950   1.209 -0.5034  0.4996  0.8395
  722SOL    HW3 2996   4.228   2.815   1.205 -1.5461  0.9951  2.1914
  722SOL    MW4 2997   4.294   2.866   1.232 -0.3395  0.3893  0.4798
  723SOL     OW 2998   4.259   3.122   1.134  0.1138  0.2434 -0.9567
  723SOL    HW2 2999   4.175   3.151   1.169  0.5047  0.0204  0.1898
  723SOL    HW3 3000   4.241   3.100   1.043 -1.1181  0.0153 -0.6644
  723SOL    MW4 3001   4.246   3.123   1.127  0.0024  0.1841 -0.7670
  724SOL     OW 3002   4.013   3.260   1.204  0.4526 -0.1711 -0.2367
  724SOL    HW2 3003   3.997   3.245   1.297  2.7387 -0.3381  0.1577
  724SOL    HW3 3004   3.952   3.202   1.159 -0.9795  0.2305  1.1270
  724SOL    MW4 3005   4.003   3.251   1.210  0.5651 -0.1402 -0.0049
  725SOL     OW 3006   4.060   3.510   1.105 -0.3764  0.2043  0.0048
  725SOL    HW2 3007   4.037   3.419   1.126 -0.7874  0.2763 -0.1176
  725SOL    HW3 3008   3.995   3.562   1.153 -1.2398  0.3728 -1.3256
  725SOL    MW4 3009   4.048   3.505   1.114 -0.5450  0.2358 -0.1868
  726SOL     OW 3010   4.268   3.647   1.208  0.3769  0.7231 -0.0287
  726SOL    HW2 3011   4.208   3.587   1.164  1.9294  0.1677 -1.4383
  726SOL    HW3 3012   4.354   3.607   1.196  1.0239  1.4181  2.1188
  726SOL    MW4 3013   4.271   3.634   1.201  0.6671  0.7412  0.0688
  727SOL     OW 3014   4.256   3.907   1.120  0.4384 -0.4895  0.2866
  727SOL    HW2 3015   4.182   3.955   1.157 -0.2703 -1.4791  0.1942
  727SOL    HW3 3016   4.248   3.819   1.157 -0.8909 -1.8262 -2.8762
  727SOL    MW4 3017   4.245   3.902   1.130  0.1693 -0.7966 -0.1429
  728SOL     OW 3018   4.039   4.019   1.258  0.9173  0.0197  0.3697
  728SOL    HW2 3019   4.060   4.104   1.219 -0.5292  0.9607  1.6028
  728SOL    HW3 3020   3.964   3.987   1.207  0.1597  0.4350  1.2048
  728SOL    MW4 3021   4.032   4.026   1.246  0.6266  0.1988  0.6427
  729SOL     OW 3022   4.025   4.268   1.111 -0.3050 -0.4712  0.3016
  729SOL    HW2 3023   3.939   4.303   1.134 -0.8544 -1.4892 -0.1632
  729SOL    HW3 3024   4.026   4.268   1.015  0.0806 -0.7708  0.3045
  729SOL    MW4 3025   4.014   4.272   1.101 -0.3262 -0.6452  0.2408
  730SOL     OW 3026   4.243   4.378   1.237  0.1397  0.3468 -0.4695
  730SOL    HW2 3027   4.174   4.325   1.197 -0.2694 -1.9597  3.0098
  730SOL    HW3 3028   4.324   4.340   1.205 -0.1889  0.8093 -1.8526
  730SOL    MW4 3029   4.244   4.366   1.228  0.0424  0.1040 -0.1929
  731SOL     OW 3030   0.211   4.652   1.617  0.1943  0.0134 -0.3905
  731SOL    HW2 3031   0.283   4.686   1.564  0.2689 -0.5250 -0.6408
  731SOL    HW3 3032   0.132   4.683   1.572  0.2616  0.7504 -0.0188
  731SOL    MW4 3033   0.210   4.661   1.604  0.2131  0.0396 -0.3744
  732SOL     OW 3034   4.481   0.086   1.477 -0.3014 -0.2187  0.4496
  732SOL    HW2 3035   4.400   0.045   1.508  0.9132 -3.1513 -0.0825
  732SOL    HW3 3036   4.479   0.071   1.382  0.3787  0.6025  0.3066
  732SOL    MW4 3037   4.470   0.078   1.468 -0.0515 -0.4973  0.3604
  733SOL     OW 3038   4.455   0.348   1.541  0.3425 -0.0805 -0.0932
  733SOL    HW2 3039   4.468   0.351   1.636  0.1928  1.7538 -0.1058
  733SOL    HW3 3040   4.466   0.256   1.518  1.0371 -0.4438  1.6107
  733SOL    MW4 3041   4.458   0.336   1.551  0.4144  0.1135  0.1299
  734SOL     OW 3042   0.224   0.483   1.491  0.6429  0.2630 -0.2220
  734SOL    HW2 3043   0.147   0.427   1.504  2.3187 -2.2404 -0.6440
  734SOL    HW3 3044   0.234   0.487   1.396  1.6922 -0.3842 -0.1426
  734SOL    MW4 3045   0.215   0.476   1.480  1.0024 -0.1526 -0.2673
  735SOL     OW 3046   0.189   0.744   1.582  0.5690  0.0898 -0.1249
  735SOL    HW2 3047   0.266   0.791   1.549  0.1576  0.1086 -1.0693
  735SOL    HW3 3048   0.204   0.653   1.557 -0.1949  0.2587 -1.2028
  735SOL    MW4 3049   0.201   0.738   1.575  0.4139  0.1146 -0.3917
  736SOL     OW 3050   4.478   0.880   1.465  0.1020  0.1759  0.2716
  736SOL    HW2 3051   4.490   0.967   1.503 -0.3020 -0.2906  1.4827
  736SOL    HW3 3052   4.556   0.831   1.492  0.2383  0.1008 -0.2527
  736SOL    MW4 3053   4.490   0.885   1.473  0.0663  0.1044  0.3623
  737SOL     OW 3054   4.485   1.154   1.574  0.1884  0.0912  0.1751
  737SOL    HW2 3055   4.495   1.161   1.669  0.9573 -2.3307  0.3054
  737SOL    HW3 3056   4.566   1.189   1.538  0.5175 -0.3802  0.4620
  737SOL    MW4 3057   4.497   1.160   1.582  0.3333 -0.2906  0.2301
  738SOL     OW 3058   0.239   1.265   1.461 -0.3291 -0.2434  0.0230
  738SOL    HW2 3059   0.226   1.356   1.485 -0.6520 -0.4885  0.8142
  738SOL    HW3 3060   0.256   1.266   1.367 -0.5672  0.6062 -0.0101
  738SOL    MW4 3061   0.239   1.277   1.452 -0.4031 -0.1636  0.1228
  739SOL     OW 3062   0.201   1.514   1.557 -0.2496 -0.0299 -0.2736
  739SOL    HW2 3063   0.190   1.519   1.652  1.6267  2.2300 -0.1248
  739SOL    HW3 3064   0.136   1.575   1.522  0.2336  0.4439 -0.3451
  739SOL    MW4 3065   0.191   1.523   1.565  0.0617  0.3308 -0.2635
  740SOL     OW 3066   4.476   1.632   1.451 -0.9446 -0.1077 -0.1355
  740SOL    HW2 3067   4.470   1.725   1.474 -1.4895 -0.3379  0.7008
  740SOL    HW3 3068   4.456   1.629   1.358 -1.2466  0.5869 -0.0975
  740SOL    MW4 3069   4.472   1.644   1.442 -1.0564 -0.0464 -0.0201
  741SOL     OW 3070   4.487   1.892   1.550  0.3056 -0.1594 -0.1534
  741SOL    HW2 3071   4.502   1.886   1.645 -1.9633  0.2632  0.2535
  741SOL    HW3 3072   4.409   1.946   1.541  0.2282 -0.5778 -2.2610
  741SOL    MW4 3073   4.479   1.898   1.561 -0.0038 -0.1588 -0.3779
  742SOL     OW 3074   0.207   2.066   1.478  0.5764 -0.0804  0.4744
  742SOL    HW2 3075   0.141   1.998   1.491  1.9033 -1.3086  0.8953
  742SOL    HW3 3076   0.211   2.077   1.383 -0.4964  0.2777  0.4598
  742SOL    MW4 3077   0.199   2.059   1.468  0.6099 -0.1955  0.5280
  743SOL     OW 3078   0.215   2.326   1.576 -0.2714 -0.2888  0.0525
  743SOL    HW2 3079   0.222   2.325   1.672 -0.2502 -1.1829  0.0467
  743SOL    HW3 3080   0.209   2.234   1.552 -0.6618 -0.0479 -0.7840
  743SOL    MW4 3081   0.215   2.314   1.586 -0.3201 -0.3750 -0.0587
  744SOL     OW 3082   4.471   2.462   1.529 -0.5394 -0.0223 -0.2833
  744SOL    HW2 3083   4.418   2.403   1.582  0.3212 -1.2669 -0.7860
  744SOL    HW3 3084   4.560   2.426   1.534  0.4443  2.4406  1.1492
  744SOL    MW4 3085   4.476   2.449   1.537 -0.2960  0.1383 -0.1607
  745SOL     OW 3086   4.490   2.727   1.636  0.5050  0.4859 -0.3905
  745SOL    HW2 3087   4.400   2.758   1.619 -0.3324 -0.4700  2.0369
  745SOL    HW3 3088   4.493   2.640   1.597 -0.1897 -0.1724  0.9963
  745SOL    MW4 3089   4.478   2.720   1.628  0.3028  0.2730  0.1127
  746SOL     OW 3090   0.212   2.877   1.542 -0.2868  0.5366  0.0837
  746SOL    HW2 3091   0.289   2.827   1.571 -0.0650  0.4450 -0.6583
  746SOL    HW3 3092   0.138   2.836   1.586 -0.0248 -0.0203  0.0058
  746SOL    MW4 3093   0.213   2.865   1.552 -0.2230  0.4511 -0.0246
  747SOL     OW 3094   0.226   3.137   1.629 -0.1669  0.0583  0.5237
  747SOL    HW2 3095   0.145   3.165   1.586 -0.5142 -0.3658  0.9057
  747SOL    HW3 3096   0.235   3.044   1.606  1.0344  0.4931 -0.8220
  747SOL    MW4 3097   0.216   3.128   1.620 -0.0542  0.0594  0.3966
  748SOL     OW 3098   4.462   3.244   1.534  0.0752 -0.1167  0.2108
  748SOL    HW2 3099   4.474   3.335   1.560 -1.0848  0.1843 -0.3181
  748SOL    HW3 3100   4.477   3.243   1.440 -0.3919 -0.3936  0.1384
  748SOL    MW4 3101   4.466   3.256   1.525 -0.1392 -0.1135  0.1315
  749SOL     OW 3102   0.001   3.505   1.644 -0.4415  0.6123  0.3228
  749SOL    HW2 3103  -0.028   3.508   1.735 -1.3947 -0.6254  0.0868
  749SOL    HW3 3104  -0.080   3.516   1.593  0.1138  1.4764 -0.3612
  749SOL    MW4 3105  -0.014   3.507   1.649 -0.4940  0.5629  0.2013
  750SOL     OW 3106   0.230   3.643   1.549 -0.2098  0.7853  0.1049
  750SOL    HW2 3107   0.225   3.732   1.583  1.7924  1.3498 -1.0263
  750SOL    HW3 3108   0.159   3.596   1.594 -1.7195  3.0918  0.1869
  750SOL    MW4 3109   0.220   3.648   1.560 -0.1448  1.1637 -0.0335
  751SOL     OW 3110   0.213   3.908   1.614  0.2924  0.2960  0.6257
  751SOL    HW2 3111   0.224   3.919   1.708  1.1187 -1.2845  0.7262
  751SOL    HW3 3112   0.292   3.947   1.576  0.1040  0.6537  0.5959
  751SOL    MW4 3113   0.225   3.915   1.621  0.3766  0.1347  0.6349
  752SOL     OW 3114   4.477   3.977   1.495  0.2911 -0.5997  0.2165
  752SOL    HW2 3115   4.474   4.072   1.507 -0.9692 -0.2736 -2.4027
  752SOL    HW3 3116   4.558   3.950   1.539  1.3699  1.8748 -0.1837
  752SOL    MW4 3117   4.488   3.986   1.502  0.2675 -0.2301 -0.1819
  753SOL     OW 3118   0.044   4.242   1.598 -0.2599  0.1998 -0.4293
  753SOL    HW2 3119   0.039   4.243   1.693  0.9631 -0.4023 -0.3434
  753SOL    HW3 3120  -0.031   4.294   1.569 -0.5295  0.5436  0.8577
  753SOL    MW4 3121   0.033   4.249   1.606 -0.1340  0.1650 -0.2482
  754SOL     OW 3122   0.225   4.402   1.484  0.0138  0.4474  0.3484
  754SOL    HW2 3123   0.155   4.355   1.531  1.1822 -2.0536 -0.3012
  754SOL    HW3 3124   0.231   4.486   1.528 -0.8421 -0.7549  2.8923
  754SOL    MW4 3125   0.217   4.407   1.496  0.0550 -0.0415  0.5984
  755SOL     OW 3126   0.644   4.633   1.624  0.2811  0.2741  0.0745
  755SOL    HW2 3127   0.714   4.683   1.583  0.4312  1.0418  1.2269
  755SOL    HW3 3128   0.564   4.663   1.581  0.5973 -0.1323 -0.7929
  755SOL    MW4 3129   0.642   4.643   1.613  0.3425  0.3223  0.1121
  756SOL     OW 3130   0.437   0.080   1.484  0.3825 -0.0672  0.1120
  756SOL    HW2 3131   0.441   0.171   1.514  0.8644  0.2590 -0.8983
  756SOL    HW3 3132   0.424   0.087   1.389 -0.7931 -1.0672  0.1920
  756SOL    MW4 3133   0.436   0.093   1.475  0.2910 -0.1561 -0.0107
  757SOL     OW 3134   0.448   0.328   1.571  0.4105  0.1003  0.6328
  757SOL    HW2 3135   0.521   0.385   1.551  0.2870 -0.6082 -1.9947
  757SOL    HW3 3136   0.371   0.376   1.540  0.0925 -0.5066  0.4701
  757SOL    MW4 3137   0.447   0.341   1.564  0.3522 -0.0733  0.2646
  758SOL     OW 3138   0.631   0.519   1.507 -0.4537 -0.4720 -0.3827
  758SOL    HW2 3139   0.629   0.608   1.543 -1.8139 -1.0380  1.0110
  758SOL    HW3 3140   0.628   0.532   1.412  0.7775  0.9969 -0.2374
  758SOL    MW4 3141   0.630   0.533   1.499 -0.4707 -0.3529 -0.1795
  759SOL     OW 3142   0.640   0.788   1.564 -0.5922  0.3112 -0.0864
  759SOL    HW2 3143   0.655   0.791   1.659  0.9838  1.1645 -0.3447
  759SOL    HW3 3144   0.716   0.833   1.526 -0.3723 -1.4306 -1.8289
  759SOL    MW4 3145   0.652   0.794   1.571 -0.3551  0.1939 -0.3505
  760SOL     OW 3146   0.395   0.874   1.485  0.1810 -0.5509 -0.5617
  760SOL    HW2 3147   0.389   0.951   1.541 -0.7409 -1.9106  1.2562
  760SOL    HW3 3148   0.482   0.837   1.504  0.9522  0.4338 -2.0184
  760SOL    MW4 3149   0.406   0.879   1.495  0.1611 -0.6004 -0.5141
  761SOL     OW 3150   0.410   1.120   1.604  0.0131 -0.3155 -0.2405
  761SOL    HW2 3151   0.490   1.156   1.566  0.0928 -0.3314 -0.0860
  761SOL    HW3 3152   0.340   1.168   1.560  0.1293  0.3179  0.2607
  761SOL    MW4 3153   0.411   1.131   1.593  0.0390 -0.2340 -0.1539
  762SOL     OW 3154   0.637   1.272   1.492  0.1472 -0.2768 -0.4564
  762SOL    HW2 3155   0.635   1.368   1.496 -1.6904 -0.2524 -1.0932
  762SOL    HW3 3156   0.644   1.252   1.398  4.6488 -0.8045 -0.1044
  762SOL    MW4 3157   0.637   1.282   1.480  0.4987 -0.3432 -0.4940
  763SOL     OW 3158   0.676   1.530   1.573 -0.0201 -0.8426  0.3612
  763SOL    HW2 3159   0.737   1.586   1.526  0.0327 -1.7105 -0.6181
  763SOL    HW3 3160   0.590   1.567   1.553 -0.0291 -1.4541 -0.7713
  763SOL    MW4 3161   0.672   1.542   1.564 -0.0144 -1.0378  0.0826
  764SOL     OW 3162   0.442   1.638   1.494 -0.3696  0.4061 -0.0835
  764SOL    HW2 3163   0.429   1.731   1.512  0.6431  0.9698 -2.1514
  764SOL    HW3 3164   0.363   1.596   1.529 -0.4880  1.9308  1.5405
  764SOL    MW4 3165   0.430   1.645   1.501 -0.2517  0.6816 -0.1421
  765SOL     OW 3166   0.436   1.911   1.539  0.4531 -0.0463  0.1318
  765SOL    HW2 3167   0.435   1.918   1.635 -1.1053 -1.3170  0.2321
  765SOL    HW3 3168   0.349   1.943   1.513  1.4173  1.7219 -0.9768
  765SOL    MW4 3169   0.424   1.916   1.548  0.3746  0.0192 -0.0012
  766SOL     OW 3170   0.686   2.082   1.466 -0.3271 -0.1512 -0.4903
  766SOL    HW2 3171   0.735   2.022   1.521 -0.4930 -0.5680 -0.7937
  766SOL    HW3 3172   0.595   2.055   1.476 -0.3512 -0.2840 -1.0293
  766SOL    MW4 3173   0.680   2.070   1.474 -0.3522 -0.2234 -0.6015
  767SOL     OW 3174   0.709   2.329   1.585  0.3227  0.1515 -0.1585
  767SOL    HW2 3175   0.628   2.358   1.542 -0.1893  0.6918  1.1671
  767SOL    HW3 3176   0.711   2.234   1.570 -0.1667  0.2409 -0.8303
  767SOL    MW4 3177   0.698   2.320   1.577  0.1906  0.2346 -0.0722
  768SOL     OW 3178   0.460   2.450   1.527 -0.4935  0.2840  0.0153
  768SOL    HW2 3179   0.467   2.534   1.571  0.9007  0.2153 -0.0515
  768SOL    HW3 3180   0.372   2.419   1.547 -1.2179  2.0226 -0.4327
  768SOL    MW4 3181   0.450   2.457   1.535 -0.4052  0.5043 -0.0526
  769SOL     OW 3182   0.439   2.708   1.623 -0.3212 -0.0491 -0.1180
  769SOL    HW2 3183   0.440   2.703   1.718 -0.2397 -0.0764 -0.1198
  769SOL    HW3 3184   0.524   2.746   1.600 -1.0089  1.5169 -0.1009
  769SOL    MW4 3185   0.450   2.712   1.632 -0.4011  0.1538 -0.1160
  770SOL     OW 3186   0.668   2.829   1.516  0.0532  0.0698 -0.0518
  770SOL    HW2 3187   0.678   2.923   1.533 -1.0556  0.1835  0.0127
  770SOL    HW3 3188   0.678   2.821   1.421 -0.2196  0.3096 -0.1036
  770SOL    MW4 3189   0.671   2.840   1.506 -0.1291  0.1163 -0.0501
  771SOL     OW 3190   0.677   3.108   1.590  0.1226  0.2364 -0.1210
  771SOL    HW2 3191   0.741   3.141   1.528 -0.2725 -0.4927 -0.9222
  771SOL    HW3 3192   0.601   3.165   1.580  0.0679  0.1334 -0.2805
  771SOL    MW4 3193   0.675   3.120   1.581  0.0633  0.1266 -0.2476
  772SOL     OW 3194   0.445   3.268   1.497  0.1865  0.0906  0.4268
  772SOL    HW2 3195   0.360   3.232   1.524  0.1400 -0.1428 -0.0250
  772SOL    HW3 3196   0.448   3.254   1.402  0.1802  1.2692  0.2535
  772SOL    MW4 3197   0.434   3.261   1.488  0.1795  0.2151  0.3444
  773SOL     OW 3198   0.453   3.521   1.660 -0.5691 -0.4889 -0.1396
  773SOL    HW2 3199   0.457   3.438   1.613 -1.8193  0.3872 -1.8330
  773SOL    HW3 3200   0.374   3.564   1.627 -0.2774  1.1035  1.1723
  773SOL    MW4 3201   0.443   3.516   1.650 -0.6956 -0.1631 -0.1900
  774SOL     OW 3202   0.660   3.616   1.498  0.1194 -0.0008  0.1062
  774SOL    HW2 3203   0.733   3.561   1.525  0.0362 -0.1752 -0.0246
  774SOL    HW3 3204   0.587   3.588   1.553 -0.0866 -0.4507 -0.3957
  774SOL    MW4 3205   0.660   3.605   1.509  0.0812 -0.0832  0.0229
  775SOL     OW 3206   0.665   3.856   1.627  0.2833 -0.0557  0.2631
  775SOL    HW2 3207   0.745   3.891   1.588  0.6231 -1.5130 -0.3661
  775SOL    HW3 3208   0.653   3.771   1.586  0.1122 -1.2116  2.6085
  775SOL    MW4 3209   0.674   3.849   1.617  0.3056 -0.4005  0.4896
  776SOL     OW 3210   0.450   4.014   1.525 -0.3485  0.2855 -0.1995
  776SOL    HW2 3211   0.530   3.967   1.548 -0.5312  0.0922  0.0417
  776SOL    HW3 3212   0.440   4.001   1.431  1.5459  2.8215 -0.8127
  776SOL    MW4 3213   0.459   4.006   1.516 -0.1226  0.5946 -0.2487
  777SOL     OW 3214   0.426   4.255   1.656 -0.1655 -0.0692  0.1092
  777SOL    HW2 3215   0.433   4.170   1.612  0.7214 -0.3762  0.8408
  777SOL    HW3 3216   0.358   4.302   1.606 -0.7356 -1.2390 -0.2318
  777SOL    MW4 3217   0.418   4.250   1.643 -0.1237 -0.2632  0.1607
  778SOL     OW 3218   0.650   4.364   1.539 -0.1587  0.7127 -0.1289
  778SOL    HW2 3219   0.567   4.330   1.572 -0.3392  0.3469 -0.9672
  778SOL    HW3 3220   0.658   4.451   1.580 -1.1942  0.9641 -0.4375
  778SOL    MW4 3221   0.640   4.371   1.549 -0.3191  0.6976 -0.2803
  779SOL     OW 3222   1.093   4.621   1.628  0.0148 -0.0828 -0.3753
  779SOL    HW2 3223   1.102   4.639   1.722  0.4013  0.5089 -0.5199
  779SOL    HW3 3224   1.150   4.685   1.586  0.3350 -0.7579 -0.9862
  779SOL    MW4 3225   1.102   4.632   1.635  0.1081 -0.0939 -0.4749
  780SOL     OW 3226   0.865   0.114   1.512  0.6932 -0.2181 -0.0567
  780SOL    HW2 3227   0.868   0.201   1.551  1.3207 -0.4459  0.4155
  780SOL    HW3 3228   0.926   0.062   1.565 -0.8873 -1.3617  0.6787
  780SOL    MW4 3229   0.874   0.119   1.524  0.5674 -0.3990  0.1026
  781SOL     OW 3230   0.876   0.403   1.585 -0.0272  0.1702 -0.3041
  781SOL    HW2 3231   0.881   0.418   1.679  0.0353  0.4861 -0.3558
  781SOL    HW3 3232   0.802   0.457   1.556 -1.1065 -1.2076 -0.1890
  781SOL    MW4 3233   0.867   0.412   1.593 -0.1613  0.0300 -0.2956
  782SOL     OW 3234   1.110   0.537   1.514  0.4253 -0.2823  0.0675
  782SOL    HW2 3235   1.120   0.630   1.536  0.1278 -0.3793  0.6232
  782SOL    HW3 3236   1.024   0.514   1.548 -0.6192 -0.1010 -2.3638
  782SOL    MW4 3237   1.100   0.546   1.522  0.2483 -0.2711 -0.1800
  783SOL     OW 3238   1.116   0.807   1.590 -0.2102  0.4000  0.2619
  783SOL    HW2 3239   1.133   0.802   1.684 -0.7726 -0.8007  0.3129
  783SOL    HW3 3240   1.198   0.838   1.552  0.0478  0.8091  1.1339
  783SOL    MW4 3241   1.129   0.810   1.597 -0.2502  0.2955  0.3836
  784SOL     OW 3242   0.881   0.893   1.462 -0.1639 -0.3748  0.4693
  784SOL    HW2 3243   0.958   0.848   1.498  0.4291 -0.4771 -0.9169
  784SOL    HW3 3244   0.887   0.880   1.368 -2.5880 -1.4870  0.4322
  784SOL    MW4 3245   0.892   0.885   1.454 -0.4055 -0.5351  0.2816
  785SOL     OW 3246   0.875   1.157   1.587  0.0323  0.0995  0.4129
  785SOL    HW2 3247   0.898   1.080   1.535  1.1559  0.6575  0.0582
  785SOL    HW3 3248   0.790   1.184   1.554 -0.1681 -0.7355  0.2427
  785SOL    MW4 3249   0.867   1.151   1.576  0.1541  0.0631  0.3437
  786SOL     OW 3250   1.113   1.319   1.489 -0.0186  0.0706 -0.1064
  786SOL    HW2 3251   1.197   1.285   1.521 -0.6338 -0.6766  0.7298
  786SOL    HW3 3252   1.048   1.286   1.552 -0.9611  0.4979 -0.8473
  786SOL    MW4 3253   1.116   1.310   1.502 -0.2242  0.0285 -0.0937
  787SOL     OW 3254   1.108   1.577   1.590  0.0148  0.4928 -0.6045
  787SOL    HW2 3255   1.182   1.620   1.547  0.4926 -0.1930 -0.4709
  787SOL    HW3 3256   1.107   1.489   1.553 -1.3839  0.8257 -1.3887
  787SOL    MW4 3257   1.117   1.571   1.580 -0.1067  0.4462 -0.6902
  788SOL     OW 3258   0.880   1.696   1.473 -0.1619  0.1456  0.2230
  788SOL    HW2 3259   0.954   1.653   1.514 -0.6539  0.2605  1.2400
  788SOL    HW3 3260   0.891   1.679   1.379  0.6201 -0.6472  0.4573
  788SOL    MW4 3261   0.891   1.688   1.466 -0.1236  0.0564  0.3881
  789SOL     OW 3262   0.854   1.933   1.619  0.4893 -0.1520 -0.0018
  789SOL    HW2 3263   0.936   1.974   1.591  0.2833  0.3106  0.0667
  789SOL    HW3 3264   0.860   1.843   1.586  1.4804 -0.4308  0.9125
  789SOL    MW4 3265   0.866   1.927   1.611  0.5929 -0.1278  0.1278
  790SOL     OW 3266   1.089   2.043   1.535  0.3382  0.2540  0.2892
  790SOL    HW2 3267   1.179   2.011   1.542  0.8109  0.8873 -2.3511
  790SOL    HW3 3268   1.095   2.136   1.560  0.2897  0.1290  0.7696
  790SOL    MW4 3269   1.102   2.051   1.540  0.3941  0.3209  0.0042
  791SOL     OW 3270   1.122   2.312   1.598  0.0896 -0.0147 -0.3868
  791SOL    HW2 3271   1.206   2.353   1.577 -0.0522  0.2800 -0.3672
  791SOL    HW3 3272   1.056   2.372   1.564 -0.1205 -0.0677 -0.0713
  791SOL    MW4 3273   1.125   2.325   1.591  0.0432  0.0169 -0.3426
  792SOL     OW 3274   0.922   2.476   1.491  0.3127 -0.5044  0.2462
  792SOL    HW2 3275   0.921   2.555   1.545 -1.8221 -0.2768 -0.0512
  792SOL    HW3 3276   0.850   2.423   1.525  0.3284 -1.3294 -0.9630
  792SOL    MW4 3277   0.912   2.480   1.503  0.0331 -0.5834  0.0474
  793SOL     OW 3278   0.929   2.726   1.590  0.4361  0.3543 -0.6756
  793SOL    HW2 3279   0.930   2.739   1.685  0.2058 -0.1805 -0.5967
  793SOL    HW3 3280   0.848   2.767   1.561 -0.3166 -0.9171 -0.4205
  793SOL    MW4 3281   0.918   2.733   1.599  0.3064  0.1161 -0.6317
  794SOL     OW 3282   1.141   2.842   1.469  0.2180  0.2370 -0.1771
  794SOL    HW2 3283   1.139   2.934   1.497  0.6364  0.2437 -0.1661
  794SOL    HW3 3284   1.064   2.803   1.511  0.4453  0.4109  0.4035
  794SOL    MW4 3285   1.130   2.849   1.478  0.3031  0.2611 -0.0989
  795SOL     OW 3286   1.121   3.096   1.569  0.1323  0.6243 -0.4200
  795SOL    HW2 3287   1.124   3.069   1.661 -1.0432 -0.0787 -0.5719
  795SOL    HW3 3288   1.209   3.128   1.550  0.5144  0.3282  0.8167
  795SOL    MW4 3289   1.133   3.097   1.579  0.0277  0.4923 -0.2768
  796SOL     OW 3290   0.895   3.209   1.458  0.0076  0.0778  0.0170
  796SOL    HW2 3291   0.972   3.164   1.494 -0.7043 -1.5693 -0.4579
  796SOL    HW3 3292   0.912   3.213   1.364 -0.4121 -0.1457 -0.0676
  796SOL    MW4 3293   0.908   3.204   1.451 -0.1416 -0.1690 -0.0570
  797SOL     OW 3294   0.886   3.473   1.598  0.2369  0.1556  0.0689
  797SOL    HW2 3295   0.970   3.507   1.566  0.8844 -0.9812  0.5305
  797SOL    HW3 3296   0.885   3.382   1.570 -0.0299 -0.3410  1.6328
  797SOL    MW4 3297   0.897   3.465   1.590  0.2871 -0.0598  0.3361
  798SOL     OW 3298   1.141   3.597   1.523  0.1893 -0.3420 -0.2485
  798SOL    HW2 3299   1.228   3.570   1.551  0.0205 -0.9116 -0.2709
  798SOL    HW3 3300   1.144   3.596   1.428  0.8239  1.7921 -0.2778
  798SOL    MW4 3301   1.153   3.593   1.515  0.2508 -0.1357 -0.2555
  799SOL     OW 3302   1.143   3.860   1.584  0.1614  0.4824 -0.5588
  799SOL    HW2 3303   1.232   3.882   1.555 -0.6000  2.3830 -1.5929
  799SOL    HW3 3304   1.128   3.772   1.551  1.3692  0.4612 -1.0926
  799SOL    MW4 3305   1.153   3.851   1.576  0.2203  0.7305 -0.7657
  800SOL     OW 3306   0.895   3.972   1.509  0.0055  0.4756  0.7686
  800SOL    HW2 3307   0.898   4.063   1.538  1.6684  0.7590 -0.2257
  800SOL    HW3 3308   0.976   3.934   1.542 -0.1656 -0.3448  0.2437
  800SOL    MW4 3309   0.906   3.979   1.517  0.2023  0.4046  0.5682
  801SOL     OW 3310   0.894   4.236   1.617 -0.6126 -0.3094 -0.2032
  801SOL    HW2 3311   0.905   4.225   1.712  0.2461  0.9592 -0.1348
  801SOL    HW3 3312   0.811   4.282   1.607 -0.0230  0.8156  0.0271
  801SOL    MW4 3313   0.885   4.240   1.628 -0.4215  0.0062 -0.1638
  802SOL     OW 3314   1.122   4.362   1.526 -0.1690  0.5386 -0.1232
  802SOL    HW2 3315   1.054   4.311   1.571  0.5316  0.9535  1.4570
  802SOL    HW3 3316   1.112   4.450   1.560  1.0402  0.6385 -0.0181
  802SOL    MW4 3317   1.112   4.367   1.537  0.0831  0.6075  0.0992
  803SOL     OW 3318   1.542   4.634   1.599  0.3881 -0.2936  0.0877
  803SOL    HW2 3319   1.544   4.654   1.693  0.6365  3.0136 -0.5685
  803SOL    HW3 3320   1.459   4.669   1.568  0.0989 -1.7718 -0.8843
  803SOL    MW4 3321   1.531   4.641   1.607  0.3828 -0.0525 -0.1271
  804SOL     OW 3322   1.326   0.114   1.527  0.3195  0.2564  0.1250
  804SOL    HW2 3323   1.325   0.199   1.571 -0.1598  0.4888 -0.3326
  804SOL    HW3 3324   1.320   0.134   1.434  0.6433 -0.2646 -0.0176
  804SOL    MW4 3325   1.325   0.128   1.520  0.2990  0.2183  0.0457
  805SOL     OW 3326   1.350   0.387   1.619 -0.5799 -0.3314  0.2768
  805SOL    HW2 3327   1.423   0.446   1.599 -0.5188 -0.2523  0.7202
  805SOL    HW3 3328   1.273   0.431   1.584 -0.6788  0.5174  1.5393
  805SOL    MW4 3329   1.349   0.401   1.612 -0.5850 -0.2090  0.5019
  806SOL     OW 3330   1.585   0.523   1.524 -0.1498 -0.3421 -0.4791
  806SOL    HW2 3331   1.666   0.480   1.550 -0.3154 -0.9713 -1.0001
  806SOL    HW3 3332   1.575   0.501   1.431 -0.9509 -0.3186 -0.4003
  806SOL    MW4 3333   1.594   0.515   1.515 -0.2773 -0.4221 -0.5375
  807SOL     OW 3334   1.581   0.797   1.607 -0.2856  0.2207 -0.4706
  807SOL    HW2 3335   1.577   0.797   1.702 -0.8370 -0.2760 -0.4887
  807SOL    HW3 3336   1.598   0.705   1.584 -1.8233  0.0251 -0.9022
  807SOL    MW4 3337   1.583   0.785   1.616 -0.5611  0.1295 -0.5299
  808SOL     OW 3338   1.362   0.917   1.503  0.9876 -0.3156 -0.5175
  808SOL    HW2 3339   1.447   0.878   1.522  1.3607  0.3972 -0.7086
  808SOL    HW3 3340   1.353   0.911   1.408  0.9047 -0.2281 -0.5153
  808SOL    MW4 3341   1.372   0.911   1.493  1.0259 -0.2101 -0.5425
  809SOL     OW 3342   1.345   1.191   1.591 -0.1980  0.2573  0.0915
  809SOL    HW2 3343   1.344   1.185   1.686  1.2573 -0.4951  0.0696
  809SOL    HW3 3344   1.347   1.101   1.560 -0.6710  0.4921 -0.6559
  809SOL    MW4 3345   1.345   1.179   1.599 -0.0682  0.1889 -0.0100
  810SOL     OW 3346   1.593   1.278   1.511  0.0020  0.5261  0.4175
  810SOL    HW2 3347   1.516   1.232   1.543  0.0359  0.6024  0.6099
  810SOL    HW3 3348   1.582   1.281   1.416  1.1683 -1.9694  0.1668
  810SOL    MW4 3349   1.581   1.272   1.502  0.1605  0.2069  0.4098
  811SOL     OW 3350   1.543   1.546   1.566  0.0697 -0.0662 -0.1325
  811SOL    HW2 3351   1.557   1.553   1.661 -1.2457  1.2793 -0.0265
  811SOL    HW3 3352   1.556   1.453   1.547 -2.3742 -0.8533  1.8127
  811SOL    MW4 3353   1.547   1.534   1.576 -0.4263  0.0075  0.1382
  812SOL     OW 3354   1.319   1.689   1.459  0.0971  0.4083  0.2924
  812SOL    HW2 3355   1.383   1.636   1.507 -0.7397 -0.9705 -0.0826
  812SOL    HW3 3356   1.327   1.661   1.368 -0.5108  0.7642  0.1243
  812SOL    MW4 3357   1.328   1.678   1.454 -0.0935  0.2733  0.2208
  813SOL     OW 3358   1.360   1.944   1.550  0.3368 -0.2216 -0.5364
  813SOL    HW2 3359   1.335   1.948   1.643  1.3826 -0.2117 -0.2427
  813SOL    HW3 3360   1.347   1.852   1.527 -0.3448 -0.1357 -0.5014
  813SOL    MW4 3361   1.355   1.932   1.559  0.3848 -0.2090 -0.4929
  814SOL     OW 3362   1.587   2.076   1.470 -0.0541 -0.0663 -0.1230
  814SOL    HW2 3363   1.503   2.045   1.505  0.7066 -1.0231  0.8950
  814SOL    HW3 3364   1.576   2.073   1.375 -1.1519 -0.2435  0.0004
  814SOL    MW4 3365   1.575   2.072   1.462 -0.0986 -0.2160  0.0275
  815SOL     OW 3366   1.605   2.333   1.571  0.1822  0.0162 -0.6651
  815SOL    HW2 3367   1.694   2.366   1.558  0.7317 -1.0393  0.3030
  815SOL    HW3 3368   1.608   2.244   1.536 -0.6591  0.1901 -1.1717
  815SOL    MW4 3369   1.617   2.326   1.565  0.1436 -0.1001 -0.6040
  816SOL     OW 3370   1.351   2.441   1.512 -0.0705  0.1524 -0.0413
  816SOL    HW2 3371   1.342   2.532   1.540  0.5713  0.3192 -0.3808
  816SOL    HW3 3372   1.440   2.417   1.538 -0.0780 -0.2321 -0.3825
  816SOL    MW4 3373   1.361   2.450   1.519  0.0134  0.1235 -0.1310
  817SOL     OW 3374   1.362   2.725   1.602  0.7075 -0.0110 -0.0070
  817SOL    HW2 3375   1.435   2.777   1.567  1.1373 -0.1154  0.7303
  817SOL    HW3 3376   1.284   2.771   1.571  1.0791 -0.2573 -1.3333
  817SOL    MW4 3377   1.362   2.738   1.593  0.8131 -0.0575 -0.0846
  818SOL     OW 3378   1.558   2.881   1.476 -0.1435 -0.2777 -0.3305
  818SOL    HW2 3379   1.621   2.812   1.496  1.3437  0.5329 -2.0684
  818SOL    HW3 3380   1.536   2.867   1.384 -1.6315  0.1477 -0.0424
  818SOL    MW4 3381   1.563   2.870   1.467 -0.1435 -0.1147 -0.5218
  819SOL     OW 3382   1.569   3.103   1.629 -0.0441  0.1213 -0.1621
  819SOL    HW2 3383   1.638   3.153   1.586 -0.8523  0.3765 -1.1902
  819SOL    HW3 3384   1.571   3.018   1.585 -0.3854  0.1269 -0.1861
  819SOL    MW4 3385   1.579   3.098   1.617 -0.1959  0.1557 -0.3009
  820SOL     OW 3386   1.355   3.207   1.509 -0.1985  0.4154  0.2120
  820SOL    HW2 3387   1.348   3.297   1.542  0.3373  1.0760 -1.3844
  820SOL    HW3 3388   1.441   3.178   1.537 -0.5431  0.2529  1.0955
  820SOL    MW4 3389   1.365   3.215   1.517 -0.1732  0.4809  0.1180
  821SOL     OW 3390   1.342   3.454   1.626 -0.5282 -0.2420 -0.1007
  821SOL    HW2 3391   1.335   3.456   1.722 -2.2396 -1.1877 -0.1800
  821SOL    HW3 3392   1.416   3.511   1.606 -0.9296  0.9573  1.7098
  821SOL    MW4 3393   1.351   3.461   1.636 -0.8069 -0.2084  0.1278
  822SOL     OW 3394   1.536   3.620   1.489  0.0667  0.0641 -0.5006
  822SOL    HW2 3395   1.555   3.705   1.530  1.2094  0.1391 -1.1530
  822SOL    HW3 3396   1.561   3.632   1.397 -0.7369 -0.6721 -0.8183
  822SOL    MW4 3397   1.542   3.633   1.482  0.1113 -0.0229 -0.6286
  823SOL     OW 3398   1.600   3.864   1.610  0.0659  0.3082 -0.4128
  823SOL    HW2 3399   1.599   3.866   1.706 -2.2857 -2.4703 -0.3082
  823SOL    HW3 3400   1.520   3.909   1.584  0.4776  0.6779 -1.0516
  823SOL    MW4 3401   1.589   3.870   1.619 -0.1900 -0.0098 -0.4833
  824SOL     OW 3402   1.376   3.989   1.492  0.2164 -0.2135 -0.1886
  824SOL    HW2 3403   1.352   4.075   1.528  1.1960 -0.1819  0.4019
  824SOL    HW3 3404   1.383   4.003   1.398  1.8169  0.7174  0.0492
  824SOL    MW4 3405   1.374   4.002   1.485  0.5567 -0.0863 -0.0794
  825SOL     OW 3406   1.354   4.227   1.630 -0.0089 -0.0838  0.2742
  825SOL    HW2 3407   1.429   4.265   1.583  0.2994 -0.6336  0.3177
  825SOL    HW3 3408   1.279   4.280   1.603 -0.2196 -1.7710 -2.5534
  825SOL    MW4 3409   1.354   4.239   1.621  0.0041 -0.3786 -0.0931
  826SOL     OW 3410   1.559   4.369   1.516 -0.5951 -0.0225 -0.4376
  826SOL    HW2 3411   1.628   4.323   1.564  0.0275  0.3565 -0.9696
  826SOL    HW3 3412   1.555   4.455   1.557 -0.7599 -0.0484 -0.4003
  826SOL    MW4 3413   1.568   4.374   1.528 -0.5347  0.0243 -0.5028
  827SOL     OW 3414   1.990   4.651   1.596  0.1227  0.4947  0.0308
  827SOL    HW2 3415   1.992   4.665   1.691 -1.0928 -2.4246  0.5381
  827SOL    HW3 3416   1.907   4.689   1.568  0.6127  1.6151  0.0729
  827SOL    MW4 3417   1.979   4.658   1.605  0.0271  0.2575  0.1034
  828SOL     OW 3418   1.741   0.135   1.479  0.1444  0.3757  0.3264
  828SOL    HW2 3419   1.656   0.095   1.499 -0.0461  0.6498  0.0749
  828SOL    HW3 3420   1.748   0.131   1.384  0.2078  0.7674  0.3132
  828SOL    MW4 3421   1.731   0.129   1.469  0.1277  0.4636  0.2915
  829SOL     OW 3422   1.817   0.379   1.607  0.0380  0.4416  0.1171
  829SOL    HW2 3423   1.896   0.409   1.561  0.3249  0.1127  0.3987
  829SOL    HW3 3424   1.794   0.297   1.565  0.3732  0.0762  0.6423
  829SOL    MW4 3425   1.825   0.372   1.596  0.1200  0.3499  0.2235
  830SOL     OW 3426   2.070   0.498   1.499  0.2643 -0.2222 -0.4589
  830SOL    HW2 3427   2.146   0.459   1.542  0.7080  0.2610 -0.8043
  830SOL    HW3 3428   2.063   0.586   1.536 -0.3851 -0.4136 -0.1156
  830SOL    MW4 3429   2.079   0.504   1.509  0.2372 -0.1837 -0.4592
  831SOL     OW 3430   2.030   0.751   1.572  0.5320  0.0811 -0.2529
  831SOL    HW2 3431   2.105   0.779   1.520  0.1844  0.6869 -0.4439
  831SOL    HW3 3432   1.955   0.795   1.530 -0.0096 -1.0263 -0.4595
  831SOL    MW4 3433   2.030   0.761   1.559  0.4148  0.0150 -0.3052
  832SOL     OW 3434   1.808   0.884   1.484 -0.1185  0.2606 -0.0583
  832SOL    HW2 3435   1.836   0.949   1.548 -0.4605 -0.4333  0.8119
  832SOL    HW3 3436   1.729   0.845   1.523  1.8530 -2.8967  0.9783
  832SOL    MW4 3437   1.801   0.887   1.498  0.0963 -0.2475  0.1932
  833SOL     OW 3438   1.796   1.159   1.617 -0.4703 -0.2534  0.5231
  833SOL    HW2 3439   1.860   1.202   1.561  0.7017 -1.2758  1.0731
  833SOL    HW3 3440   1.712   1.195   1.589  0.3444  1.1400 -0.1555
  833SOL    MW4 3441   1.793   1.169   1.606 -0.2083 -0.2043  0.5062
  834SOL     OW 3442   2.016   1.245   1.476 -0.0334 -0.1889 -0.1391
  834SOL    HW2 3443   2.003   1.336   1.503 -4.1229 -0.9755  0.9707
  834SOL    HW3 3444   2.030   1.250   1.381  1.1335  1.6758  0.1147
  834SOL    MW4 3445   2.016   1.257   1.467 -0.4194 -0.0467  0.0409
  835SOL     OW 3446   2.002   1.500   1.584 -0.3085  0.0120 -0.3283
  835SOL    HW2 3447   2.085   1.535   1.551 -0.4540 -0.0513 -0.7636
  835SOL    HW3 3448   1.935   1.555   1.543 -0.5160 -0.4583 -0.6190
  835SOL    MW4 3449   2.004   1.512   1.574 -0.3550 -0.0584 -0.4241
  836SOL     OW 3450   1.781   1.664   1.518 -0.4164 -0.3685 -0.1023
  836SOL    HW2 3451   1.694   1.625   1.528 -0.3656 -0.4844 -0.1162
  836SOL    HW3 3452   1.793   1.672   1.424  0.0539 -1.3908 -0.1325
  836SOL    MW4 3453   1.771   1.660   1.507 -0.3477 -0.5189 -0.1082
  837SOL     OW 3454   1.773   1.922   1.595  0.5137  0.0409 -0.1379
  837SOL    HW2 3455   1.783   1.832   1.564  0.8754 -0.4269  1.3132
  837SOL    HW3 3456   1.704   1.959   1.539  0.0076 -1.2905 -0.4117
  837SOL    MW4 3457   1.765   1.915   1.584  0.4946 -0.1965  0.0174
  838SOL     OW 3458   2.011   2.054   1.506 -0.3303  0.4849  0.2683
  838SOL    HW2 3459   2.090   2.009   1.536  0.3551  0.5786 -1.3237
  838SOL    HW3 3460   1.939   2.001   1.540  0.4481 -2.1310 -1.8837
  838SOL    MW4 3461   2.012   2.041   1.514 -0.1369  0.1523 -0.2257
  839SOL     OW 3462   2.043   2.305   1.597  0.0298 -0.5072 -0.2708
  839SOL    HW2 3463   2.061   2.312   1.690  1.0754 -0.4089 -0.4745
  839SOL    HW3 3464   2.014   2.215   1.585  1.7463 -1.1049 -0.1425
  839SOL    MW4 3465   2.042   2.294   1.607  0.3943 -0.5732 -0.2807
  840SOL     OW 3466   1.835   2.463   1.519 -0.3927  0.3634  0.1404
  840SOL    HW2 3467   1.903   2.402   1.546 -0.7708  0.1171  0.5513
  840SOL    HW3 3468   1.843   2.468   1.424 -1.0049 -1.0853  0.0046
  840SOL    MW4 3469   1.845   2.456   1.510 -0.5233  0.1397  0.1768
  841SOL     OW 3470   1.764   2.721   1.590 -0.0859  0.0672  0.6078
  841SOL    HW2 3471   1.850   2.762   1.580 -0.2305 -0.0263 -1.2499
  841SOL    HW3 3472   1.778   2.630   1.566 -0.2446 -0.4916  2.5321
  841SOL    MW4 3473   1.777   2.715   1.585 -0.1260 -0.0188  0.6167
  842SOL     OW 3474   2.008   2.834   1.537  0.3540 -0.0641 -0.3966
  842SOL    HW2 3475   2.012   2.924   1.567  1.1110 -0.6155  1.2233
  842SOL    HW3 3476   2.005   2.840   1.441  0.2659  1.6668 -0.2906
  842SOL    MW4 3477   2.008   2.847   1.528  0.4423  0.0913 -0.1690
  843SOL     OW 3478   1.994   3.110   1.600 -0.0027  0.2113  0.4266
  843SOL    HW2 3479   2.005   3.110   1.695  0.5883  0.9954  0.3605
  843SOL    HW3 3480   2.078   3.140   1.566  0.8893 -3.0066 -0.4751
  843SOL    MW4 3481   2.007   3.114   1.608  0.1929 -0.1099  0.2989
  844SOL     OW 3482   1.778   3.222   1.471  0.1140  0.5619  0.2244
  844SOL    HW2 3483   1.784   3.314   1.497 -1.2756  0.5293  0.6980
  844SOL    HW3 3484   1.856   3.181   1.509  1.2116  1.7071 -0.7416
  844SOL    MW4 3485   1.789   3.229   1.480  0.0756  0.7083  0.1594
  845SOL     OW 3486   1.791   3.483   1.552  0.8012  0.0860 -0.1684
  845SOL    HW2 3487   1.798   3.484   1.647 -1.4437 -0.8127  0.0268
  845SOL    HW3 3488   1.706   3.523   1.533  1.8463  1.5669 -1.8857
  845SOL    MW4 3489   1.781   3.488   1.562  0.6427  0.1628 -0.3692
  846SOL     OW 3490   2.038   3.628   1.473  0.2969 -0.2427  0.0800
  846SOL    HW2 3491   2.105   3.578   1.520 -0.9978 -1.5423  0.5630
  846SOL    HW3 3492   1.956   3.584   1.494 -0.5871  0.6386 -1.4423
  846SOL    MW4 3493   2.036   3.616   1.482  0.0093 -0.2980 -0.0571
  847SOL     OW 3494   2.030   3.866   1.584 -0.3327  0.2506  0.1025
  847SOL    HW2 3495   2.100   3.916   1.541 -0.8793  1.8818  1.0493
  847SOL    HW3 3496   2.031   3.781   1.540  2.3841  0.1517  0.2551
  847SOL    MW4 3497   2.039   3.862   1.573 -0.0463  0.4528  0.2477
  848SOL     OW 3498   1.809   3.955   1.443 -0.0205 -0.0079 -0.5086
  848SOL    HW2 3499   1.877   3.936   1.509 -0.3223 -0.3873 -0.3029
  848SOL    HW3 3500   1.728   3.926   1.484 -0.3740  0.8784 -0.5740
  848SOL    MW4 3501   1.808   3.948   1.457 -0.1069  0.0589 -0.4902
  849SOL     OW 3502   1.792   4.201   1.568  0.7015 -0.2903 -0.3543
  849SOL    HW2 3503   1.854   4.265   1.534 -0.6993  0.6315 -1.2141
  849SOL    HW3 3504   1.804   4.123   1.513  0.6351  0.1135 -0.9417
  849SOL    MW4 3505   1.801   4.199   1.556  0.5080 -0.1149 -0.5454
  850SOL     OW 3506   1.989   4.386   1.497  0.3779 -0.2130  0.0261
  850SOL    HW2 3507   2.063   4.346   1.543  1.4643  2.3652  0.6078
  850SOL    HW3 3508   1.981   4.473   1.536 -1.8112  0.2134 -1.3059
  850SOL    MW4 3509   1.998   4.392   1.509  0.2325  0.1836 -0.0728
  851SOL     OW 3510   2.490   4.620   1.582 -0.3994  0.3779 -0.0981
  851SOL    HW2 3511   2.492   4.620   1.677 -0.4317  1.1766 -0.0958
  851SOL    HW3 3512   2.419   4.680   1.559 -0.1616  0.4648 -0.6293
  851SOL    MW4 3513   2.481   4.628   1.591 -0.3719  0.4950 -0.1678
  852SOL     OW 3514   2.238   0.108   1.518  0.5534 -0.0205 -0.0244
  852SOL    HW2 3515   2.163   0.055   1.545 -0.2718 -0.1097 -2.4243
  852SOL    HW3 3516   2.245   0.095   1.424  2.7599  1.0727 -0.0456
  852SOL    MW4 3517   2.229   0.100   1.509  0.7360  0.1119 -0.3438
  853SOL     OW 3518   2.272   0.360   1.612  0.0040  0.1252  0.1107
  853SOL    HW2 3519   2.251   0.370   1.704  1.5601  1.0224  0.3965
  853SOL    HW3 3520   2.251   0.269   1.591  0.1418 -0.2280  1.4836
  853SOL    MW4 3521   2.267   0.349   1.621  0.2277  0.1969  0.3295
  854SOL     OW 3522   2.484   0.461   1.451  0.0835  0.3851 -0.1494
  854SOL    HW2 3523   2.560   0.420   1.492 -0.7932 -0.8706  0.2525
  854SOL    HW3 3524   2.410   0.436   1.507 -0.5699  2.0126 -0.2468
  854SOL    MW4 3525   2.484   0.452   1.464 -0.1183  0.4342 -0.1092
  855SOL     OW 3526   2.489   0.738   1.563 -0.4182 -0.2393 -0.4946
  855SOL    HW2 3527   2.408   0.769   1.522 -0.4203 -0.2941 -0.5311
  855SOL    HW3 3528   2.491   0.644   1.545 -0.7785 -0.3950  0.2323
  855SOL    MW4 3529   2.478   0.730   1.555 -0.4661 -0.2671 -0.4035
  856SOL     OW 3530   2.264   0.832   1.450 -0.4866 -0.5025 -0.3134
  856SOL    HW2 3531   2.258   0.915   1.496  2.8775 -0.6606  0.5957
  856SOL    HW3 3532   2.264   0.855   1.357 -0.1857  0.4661 -0.0802
  856SOL    MW4 3533   2.263   0.846   1.444 -0.0033 -0.3955 -0.1626
  857SOL     OW 3534   2.243   1.075   1.573 -0.0608  0.2774  0.3189
  857SOL    HW2 3535   2.243   1.079   1.668  0.3346  1.6560  0.2646
  857SOL    HW3 3536   2.172   1.134   1.547 -0.0496  0.0427 -0.2584
  857SOL    MW4 3537   2.233   1.083   1.582 -0.0067  0.4283  0.2354
  858SOL     OW 3538   2.457   1.221   1.492 -0.2907  0.0060  0.6303
  858SOL    HW2 3539   2.394   1.152   1.514  1.3168 -1.8832 -0.4494
  858SOL    HW3 3540   2.449   1.231   1.397 -1.4185  2.2618  0.9274
  858SOL    MW4 3541   2.448   1.213   1.482 -0.2277  0.0544  0.5271
  859SOL     OW 3542   2.490   1.502   1.545 -0.1475 -0.2354  0.0882
  859SOL    HW2 3543   2.566   1.543   1.504  0.6167 -0.7154  1.0009
  859SOL    HW3 3544   2.492   1.412   1.515 -0.1882 -0.3225  0.3433
  859SOL    MW4 3545   2.500   1.496   1.536 -0.0520 -0.3103  0.2424
  860SOL     OW 3546   2.230   1.617   1.480 -0.0630 -0.3733  0.7047
  860SOL    HW2 3547   2.318   1.588   1.503  0.0556 -1.3122 -0.8842
  860SOL    HW3 3548   2.237   1.643   1.388 -1.6894 -1.4628  0.2666
  860SOL    MW4 3549   2.243   1.617   1.471 -0.2618 -0.6410  0.4373
  861SOL     OW 3550   2.233   1.889   1.564  0.2566 -0.3743  0.0347
  861SOL    HW2 3551   2.229   1.891   1.659  1.4960  0.0460  0.0847
  861SOL    HW3 3552   2.237   1.796   1.542 -0.3406 -0.4836  0.3690
  861SOL    MW4 3553   2.233   1.877   1.574  0.3417 -0.3333  0.0854
  862SOL     OW 3554   2.482   2.040   1.480  0.0614 -0.0863 -0.3320
  862SOL    HW2 3555   2.400   2.003   1.511 -0.3212  0.1515 -1.0499
  862SOL    HW3 3556   2.471   2.046   1.385  0.3014  1.4016 -0.2731
  862SOL    MW4 3557   2.470   2.036   1.471  0.0427  0.1414 -0.4190
  863SOL     OW 3558   2.483   2.302   1.576  0.3428  0.3862  0.4594
  863SOL    HW2 3559   2.478   2.306   1.672  1.1735 -0.5614  0.5502
  863SOL    HW3 3560   2.459   2.212   1.555 -2.6992  1.3403 -0.4365
  863SOL    MW4 3561   2.479   2.290   1.586  0.0510  0.3872  0.3531
  864SOL     OW 3562   2.267   2.464   1.503 -0.0555  0.0391  0.4796
  864SOL    HW2 3563   2.337   2.409   1.538 -0.0541 -0.7677 -0.7734
  864SOL    HW3 3564   2.187   2.416   1.525 -0.1696  0.5092  1.1034
  864SOL    MW4 3565   2.266   2.450   1.511 -0.0703 -0.0052  0.3965
  865SOL     OW 3566   2.242   2.731   1.604 -0.0351  0.5488 -0.2870
  865SOL    HW2 3567   2.242   2.640   1.574 -0.6994  0.0832  1.1146
  865SOL    HW3 3568   2.152   2.760   1.593 -0.1252  0.6002  0.5508
  865SOL    MW4 3569   2.230   2.723   1.599 -0.1347  0.4940  0.0083
  866SOL     OW 3570   2.454   2.851   1.451  0.2575  0.1043  0.3187
  866SOL    HW2 3571   2.480   2.927   1.502 -1.9493  0.7261  0.6030
  866SOL    HW3 3572   2.376   2.818   1.496 -1.2224  0.1470 -2.0989
  866SOL    MW4 3573   2.447   2.857   1.464 -0.2289  0.1922  0.0373
  867SOL     OW 3574   2.504   3.087   1.583  0.4086  0.0593  0.0708
  867SOL    HW2 3575   2.567   3.154   1.557 -1.3060  1.6607  0.0122
  867SOL    HW3 3576   2.419   3.122   1.559 -0.6569 -1.4253  1.5453
  867SOL    MW4 3577   2.501   3.100   1.576  0.0417  0.0751  0.2576
  868SOL     OW 3578   2.249   3.188   1.514 -0.0380  0.1079 -0.2999
  868SOL    HW2 3579   2.246   3.277   1.550  0.5993 -0.1788  0.4757
  868SOL    HW3 3580   2.221   3.198   1.423 -0.7721  0.9772  0.0164
  868SOL    MW4 3581   2.245   3.201   1.507 -0.0510  0.1848 -0.1558
  869SOL     OW 3582   2.231   3.461   1.582 -0.2950 -0.2717 -0.0148
  869SOL    HW2 3583   2.232   3.450   1.677  0.0682 -0.7184 -0.0670
  869SOL    HW3 3584   2.311   3.509   1.562 -1.3941  1.6618  0.1101
  869SOL    MW4 3585   2.242   3.466   1.592 -0.3922 -0.0756 -0.0052
  870SOL     OW 3586   2.464   3.613   1.488 -0.3297  0.2952 -0.0581
  870SOL    HW2 3587   2.540   3.580   1.537 -2.0069  0.2110  2.5678
  870SOL    HW3 3588   2.456   3.704   1.514 -0.7545  0.4830 -0.8277
  870SOL    MW4 3589   2.473   3.621   1.497 -0.6070  0.3090  0.1868
  871SOL     OW 3590   2.458   3.879   1.553  0.0149 -0.2980  0.0645
  871SOL    HW2 3591   2.447   3.859   1.646 -1.7019  0.3551  0.0256
  871SOL    HW3 3592   2.544   3.920   1.547  0.6843 -1.5059  1.1587
  871SOL    MW4 3593   2.467   3.882   1.564 -0.1230 -0.3715  0.2038
  872SOL     OW 3594   2.220   4.035   1.453 -0.4774  0.5500  0.1700
  872SOL    HW2 3595   2.291   3.980   1.486 -0.8904  0.5347  1.0546
  872SOL    HW3 3596   2.218   4.018   1.359 -1.2788 -1.7469  0.5596
  872SOL    MW4 3597   2.229   4.025   1.445 -0.6375  0.2456  0.3381
  873SOL     OW 3598   2.213   4.268   1.603 -0.1193  0.3145  0.0013
  873SOL    HW2 3599   2.288   4.319   1.574 -0.4367  0.3848 -0.7144
  873SOL    HW3 3600   2.225   4.182   1.561  0.1228 -0.0213  0.7490
  873SOL    MW4 3601   2.224   4.263   1.593 -0.1292  0.2799  0.0056
  874SOL     OW 3602   2.451   4.351   1.491 -0.4035  0.1093 -0.0150
  874SOL    HW2 3603   2.460   4.442   1.517  0.0203 -0.2990  1.2893
  874SOL    HW3 3604   2.466   4.351   1.396 -0.1571  1.3492  0.0229
  874SOL    MW4 3605   2.454   4.363   1.482 -0.3152  0.2189  0.1621
  875SOL     OW 3606   2.897   4.635   1.557  0.4957 -0.0732  0.1992
  875SOL    HW2 3607   2.904   4.654   1.651  0.7484  2.4348 -0.2919
  875SOL    HW3 3608   2.829   4.695   1.526  1.4052  0.0992 -1.4870
  875SOL    MW4 3609   2.889   4.645   1.566  0.6490  0.2809 -0.0881
  876SOL     OW 3610   2.669   0.122   1.470 -0.6254  0.1724 -0.0652
  876SOL    HW2 3611   2.686   0.199   1.524 -0.1576 -0.1083  0.1900
  876SOL    HW3 3612   2.603   0.072   1.519 -0.1230 -0.1354  0.3012
  876SOL    MW4 3613   2.663   0.125   1.484 -0.4973  0.0948  0.0169
  877SOL     OW 3614   2.725   0.358   1.590  0.1867  0.2995 -0.1840
  877SOL    HW2 3615   2.712   0.359   1.684 -1.7186  1.1319 -0.4300
  877SOL    HW3 3616   2.802   0.413   1.575  0.9539 -0.4700  0.9394
  877SOL    MW4 3617   2.733   0.365   1.600  0.0367  0.3077 -0.0683
  878SOL     OW 3618   2.946   0.508   1.467 -0.2089 -0.4689 -0.1532
  878SOL    HW2 3619   2.927   0.600   1.481 -1.8405 -0.5527 -1.6948
  878SOL    HW3 3620   2.925   0.492   1.375  0.8235 -2.1892 -0.1225
  878SOL    MW4 3621   2.941   0.518   1.457 -0.2880 -0.7070 -0.3525
  879SOL     OW 3622   2.876   0.761   1.532  0.3303  0.1373  0.0073
  879SOL    HW2 3623   2.866   0.767   1.627 -0.7336 -0.9369 -0.0163
  879SOL    HW3 3624   2.808   0.819   1.497  0.7958  0.6197 -0.1012
  879SOL    MW4 3625   2.866   0.769   1.540  0.2513  0.0592 -0.0101
  880SOL     OW 3626   2.680   0.914   1.431 -0.2670  0.4482 -0.2353
  880SOL    HW2 3627   2.621   0.848   1.466  0.0592 -0.1621 -0.8320
  880SOL    HW3 3628   2.668   0.909   1.336 -0.8464  1.8074 -0.2489
  880SOL    MW4 3629   2.670   0.905   1.423 -0.3006  0.5471 -0.3160
  881SOL     OW 3630   2.716   1.176   1.554  0.4936  0.3034 -0.4458
  881SOL    HW2 3631   2.728   1.092   1.509  0.4705 -0.0713  0.2353
  881SOL    HW3 3632   2.626   1.200   1.536  0.1853 -0.3397  0.2242
  881SOL    MW4 3633   2.706   1.168   1.546  0.4497  0.1690 -0.2676
  882SOL     OW 3634   2.959   1.281   1.431  0.0412  0.5549  1.0180
  882SOL    HW2 3635   3.041   1.237   1.452  0.2146 -0.5257 -1.7322
  882SOL    HW3 3636   2.894   1.240   1.487  0.8198 -0.8920  0.8859
  882SOL    MW4 3637   2.961   1.270   1.441  0.1669  0.2214  0.6378
  883SOL     OW 3638   2.943   1.546   1.566 -0.1138 -0.4261  0.4044
  883SOL    HW2 3639   2.867   1.576   1.518  1.1966 -0.1336 -1.5490
  883SOL    HW3 3640   2.957   1.456   1.536  0.6359 -0.2943  0.3345
  883SOL    MW4 3641   2.935   1.538   1.556  0.1581 -0.3701  0.1374
  884SOL     OW 3642   2.712   1.632   1.446 -0.4208 -0.6717  0.0723
  884SOL    HW2 3643   2.696   1.713   1.495 -1.1005 -1.6291  1.4702
  884SOL    HW3 3644   2.721   1.661   1.355  2.3593  1.3036  0.9163
  884SOL    MW4 3645   2.711   1.647   1.441 -0.1438 -0.5376  0.3680
  885SOL     OW 3646   2.699   1.883   1.551 -0.6822  0.3691 -0.4901
  885SOL    HW2 3647   2.704   1.876   1.647 -0.7240  1.1185 -0.4334
  885SOL    HW3 3648   2.622   1.937   1.535  0.6310  2.1774 -0.8613
  885SOL    MW4 3649   2.690   1.889   1.562 -0.5145  0.7066 -0.5318
  886SOL     OW 3650   2.894   2.048   1.448  0.6352  0.0487 -0.1741
  886SOL    HW2 3651   2.905   2.124   1.505  0.0737 -0.9548  1.3312
  886SOL    HW3 3652   2.840   1.988   1.500  0.4979 -1.0837 -1.6040
  886SOL    MW4 3653   2.888   2.050   1.462  0.5431 -0.2329 -0.1643
  887SOL     OW 3654   2.945   2.279   1.567 -0.4888 -0.0671 -0.1609
  887SOL    HW2 3655   2.941   2.287   1.663 -0.0911  0.8278 -0.2151
  887SOL    HW3 3656   2.859   2.306   1.537 -1.0035 -1.4492  0.0026
  887SOL    MW4 3657   2.933   2.284   1.576 -0.5043 -0.1314 -0.1465
  888SOL     OW 3658   2.701   2.437   1.479  0.1564 -0.5335 -0.2196
  888SOL    HW2 3659   2.690   2.520   1.525  0.3664  0.1634 -1.4279
  888SOL    HW3 3660   2.624   2.385   1.505  0.2039 -0.0923  0.7987
  888SOL    MW4 3661   2.689   2.441   1.489  0.1903 -0.3834 -0.2447
  889SOL     OW 3662   2.654   2.696   1.598 -0.0630  0.4781  0.0385
  889SOL    HW2 3663   2.744   2.724   1.579  0.3871 -0.4707  0.7273
  889SOL    HW3 3664   2.600   2.745   1.536  1.2507 -1.6352 -2.8747
  889SOL    MW4 3665   2.659   2.706   1.587  0.1698  0.0739 -0.2549
  890SOL     OW 3666   2.906   2.777   1.536  0.5116 -0.2256  0.0382
  890SOL    HW2 3667   2.980   2.728   1.571  1.0277  1.3586  1.2186
  890SOL    HW3 3668   2.921   2.867   1.564 -0.8465  0.4746 -1.3840
  890SOL    MW4 3669   2.918   2.782   1.545  0.4005  0.0761  0.0063
  891SOL     OW 3670   2.923   3.057   1.572  0.0492 -0.0330  0.4506
  891SOL    HW2 3671   2.918   3.065   1.668 -2.4176  1.7849  0.2222
  891SOL    HW3 3672   3.008   3.093   1.550 -0.0091  1.0408  1.8562
  891SOL    MW4 3673   2.933   3.063   1.582 -0.2840  0.3483  0.6059
  892SOL     OW 3674   2.721   3.247   1.494 -0.1071  0.1676  0.4182
  892SOL    HW2 3675   2.790   3.185   1.515 -0.9552 -0.5582  1.1246
  892SOL    HW3 3676   2.695   3.224   1.404 -0.4512 -0.5537  0.6910
  892SOL    MW4 3677   2.726   3.236   1.485 -0.2646 -0.0231  0.5473
  893SOL     OW 3678   2.680   3.498   1.609 -0.1691 -0.0286  0.0193
  893SOL    HW2 3679   2.671   3.478   1.702 -1.7491 -1.1819 -0.3632
  893SOL    HW3 3680   2.707   3.415   1.569 -0.0849  0.3108 -0.6414
  893SOL    MW4 3681   2.683   3.484   1.616 -0.3664 -0.1359 -0.1184
  894SOL     OW 3682   2.916   3.626   1.527 -0.0140  0.2013 -0.2406
  894SOL    HW2 3683   2.831   3.595   1.557 -0.1409  0.6837 -0.1038
  894SOL    HW3 3684   2.929   3.583   1.443  0.2273 -0.9537  0.3704
  894SOL    MW4 3685   2.906   3.616   1.520  0.0014  0.1128 -0.1417
  895SOL     OW 3686   2.966   3.876   1.573  0.2411  0.2615 -0.6226
  895SOL    HW2 3687   2.885   3.920   1.546  0.4140 -0.1722 -1.8754
  895SOL    HW3 3688   2.952   3.784   1.548  0.0491 -0.3373  1.5803
  895SOL    MW4 3689   2.953   3.870   1.566  0.2387  0.1252 -0.4973
  896SOL     OW 3690   2.727   3.963   1.510 -0.1209  0.1800 -0.2735
  896SOL    HW2 3691   2.719   4.050   1.548 -0.1434 -0.0556  0.2690
  896SOL    HW3 3692   2.713   3.976   1.416 -0.7881  0.6562 -0.1108
  896SOL    MW4 3693   2.724   3.976   1.503 -0.2120  0.2117 -0.1805
  897SOL     OW 3694   2.693   4.228   1.593  0.1901 -0.4337  0.0311
  897SOL    HW2 3695   2.760   4.282   1.551 -0.2088  1.2402  1.5124
  897SOL    HW3 3696   2.611   4.269   1.569 -0.1588 -0.7637  0.6619
  897SOL    MW4 3697   2.691   4.240   1.584  0.0916 -0.2565  0.3098
  898SOL     OW 3698   2.913   4.377   1.457 -0.4779 -0.0813 -0.2019
  898SOL    HW2 3699   2.905   4.468   1.486 -2.3404 -0.0395 -0.7993
  898SOL    HW3 3700   2.900   4.380   1.363 -1.4087 -1.0721 -0.1107
  898SOL    MW4 3701   2.911   4.389   1.448 -0.8464 -0.2074 -0.2687
  899SOL     OW 3702   3.330   4.647   1.578  0.2316 -0.0590  0.1656
  899SOL    HW2 3703   3.413   4.683   1.547 -0.0660  0.6231  0.1407
  899SOL    HW3 3704   3.330   4.557   1.547  0.9933 -0.0828  0.2257
  899SOL    MW4 3705   3.341   4.640   1.569  0.2928  0.0281  0.1702
  900SOL     OW 3706   3.112   0.107   1.464 -0.4649  0.5314 -0.1563
  900SOL    HW2 3707   3.192   0.070   1.499 -0.1539  0.6953 -0.6904
  900SOL    HW3 3708   3.042   0.049   1.495  0.0383 -0.6489 -1.1956
  900SOL    MW4 3709   3.113   0.095   1.473 -0.3574  0.3973 -0.3639
  901SOL     OW 3710   3.153   0.349   1.585  0.0443 -0.7551  0.1226
  901SOL    HW2 3711   3.137   0.266   1.540 -0.8383  0.3607 -1.6802
  901SOL    HW3 3712   3.081   0.406   1.557  0.6462  0.6320  1.3236
  901SOL    MW4 3713   3.141   0.346   1.575  0.0074 -0.4248  0.0432
  902SOL     OW 3714   3.357   0.509   1.506  0.0053  0.2240 -0.2948
  902SOL    HW2 3715   3.292   0.447   1.538  1.1482  0.4113  2.4979
  902SOL    HW3 3716   3.354   0.499   1.411 -1.8709 -2.0188 -0.0534
  902SOL    MW4 3717   3.348   0.499   1.498 -0.0916 -0.0472  0.1054
  903SOL     OW 3718   3.334   0.798   1.584 -0.1216 -0.0384 -0.1075
  903SOL    HW2 3719   3.349   0.813   1.677  0.1023  0.3058 -0.1987
  903SOL    HW3 3720   3.328   0.703   1.575 -3.1604  0.0388  0.7148
  903SOL    MW4 3721   3.335   0.788   1.595 -0.4928  0.0172 -0.0111
  904SOL     OW 3722   3.111   0.924   1.477 -0.2575  0.0349 -0.1810
  904SOL    HW2 3723   3.184   0.874   1.515  0.6372  1.0564 -0.5266
  904SOL    HW3 3724   3.034   0.871   1.496  0.5193 -0.8582  0.5746
  904SOL    MW4 3725   3.111   0.910   1.485 -0.0372  0.0519 -0.1268
  905SOL     OW 3726   3.171   1.165   1.571  0.0481 -0.0283  0.8052
  905SOL    HW2 3727   3.169   1.158   1.667  1.0020 -1.2446  0.7496
  905SOL    HW3 3728   3.146   1.078   1.540 -1.0752  0.5904 -0.0709
  905SOL    MW4 3729   3.167   1.153   1.580  0.0260 -0.1070  0.6824
  906SOL     OW 3730   3.403   1.293   1.506  0.0003 -0.2999  0.0546
  906SOL    HW2 3731   3.475   1.234   1.527  0.1538 -0.6213 -1.3473
  906SOL    HW3 3732   3.325   1.247   1.537  0.3847  0.1289  1.7379
  906SOL    MW4 3733   3.402   1.279   1.513  0.0713 -0.2859  0.0917
  907SOL     OW 3734   3.375   1.538   1.615 -0.0898  0.3996 -0.2899
  907SOL    HW2 3735   3.374   1.519   1.709  1.9165 -0.0007 -0.3231
  907SOL    HW3 3736   3.377   1.451   1.574 -0.4463  0.5824 -0.6891
  907SOL    MW4 3737   3.376   1.524   1.622  0.1278  0.3709 -0.3470
  908SOL     OW 3738   3.166   1.689   1.475 -0.1992  0.2072  0.3513
  908SOL    HW2 3739   3.247   1.664   1.519  0.1415 -0.7567 -0.8146
  908SOL    HW3 3740   3.098   1.635   1.515  0.3892 -2.0045 -1.5174
  908SOL    MW4 3741   3.167   1.679   1.486 -0.0765 -0.2117 -0.0490
  909SOL     OW 3742   3.128   1.954   1.564  0.1692  0.2388 -0.5688
  909SOL    HW2 3743   3.125   1.863   1.532 -0.1826  0.2578 -0.5902
  909SOL    HW3 3744   3.049   1.994   1.528 -0.5470  0.0996  0.8470
  909SOL    MW4 3745   3.118   1.947   1.555  0.0284  0.2229 -0.3848
  910SOL     OW 3746   3.383   2.038   1.459 -0.0978 -0.3338  0.2399
  910SOL    HW2 3747   3.295   2.007   1.481 -0.1384  0.3066  0.9772
  910SOL    HW3 3748   3.385   2.036   1.363 -0.3126 -2.0204  0.2535
  910SOL    MW4 3749   3.372   2.034   1.449 -0.1314 -0.4716  0.3390
  911SOL     OW 3750   3.397   2.321   1.594  0.1208  0.1704  0.3340
  911SOL    HW2 3751   3.463   2.378   1.553 -0.0185  0.8532  1.0560
  911SOL    HW3 3752   3.403   2.239   1.545  1.1752  0.3918  0.0760
  911SOL    MW4 3753   3.407   2.317   1.582  0.2418  0.2897  0.3952
  912SOL     OW 3754   3.170   2.401   1.464 -0.6175 -0.0226  0.1539
  912SOL    HW2 3755   3.252   2.370   1.503 -0.6885 -0.9783 -0.4177
  912SOL    HW3 3756   3.102   2.353   1.511 -0.6347 -2.2594 -2.0521
  912SOL    MW4 3757   3.172   2.390   1.475 -0.6289 -0.4439 -0.2124
  913SOL     OW 3758   3.141   2.666   1.624 -0.0536  0.5423  0.4081
  913SOL    HW2 3759   3.205   2.735   1.605 -0.1534  0.5894  0.2364
  913SOL    HW3 3760   3.169   2.593   1.569 -0.8573  0.9774 -0.6037
  913SOL    MW4 3761   3.153   2.666   1.614 -0.1726  0.6061  0.2520
  914SOL     OW 3762   3.317   2.836   1.534 -0.0094  0.1573 -0.8595
  914SOL    HW2 3763   3.342   2.913   1.585  2.4190 -1.4395  0.4523
  914SOL    HW3 3764   3.346   2.856   1.445 -1.3944  1.6539 -0.9862
  914SOL    MW4 3765   3.324   2.849   1.529  0.1283  0.1440 -0.7030
  915SOL     OW 3766   3.401   3.087   1.617  0.5342  0.5690  0.0518
  915SOL    HW2 3767   3.414   3.079   1.712  0.8104 -2.4706 -0.2021
  915SOL    HW3 3768   3.485   3.118   1.584  0.5783  1.2008  0.7482
  915SOL    MW4 3769   3.414   3.090   1.625  0.5763  0.2513  0.1103
  916SOL     OW 3770   3.158   3.196   1.544 -0.2189  0.2958  0.8002
  916SOL    HW2 3771   3.244   3.166   1.574 -1.1132 -2.1081  1.0686
  916SOL    HW3 3772   3.164   3.195   1.449 -0.3431 -1.2311  0.7826
  916SOL    MW4 3773   3.170   3.192   1.536 -0.3533 -0.2227  0.8334
  917SOL     OW 3774   3.124   3.448   1.649  0.5418  0.0478 -0.3932
  917SOL    HW2 3775   3.117   3.359   1.615  1.3501 -0.4056  0.6011
  917SOL    HW3 3776   3.050   3.494   1.610 -0.4195 -1.3000 -0.1850
  917SOL    MW4 3777   3.113   3.443   1.639  0.5214 -0.1898 -0.2346
  918SOL     OW 3778   3.350   3.571   1.491 -0.2269 -0.6850 -0.5272
  918SOL    HW2 3779   3.428   3.531   1.529 -1.4576 -2.1689  0.4551
  918SOL    HW3 3780   3.276   3.532   1.537 -1.5252  2.0891 -0.0952
  918SOL    MW4 3781   3.350   3.561   1.502 -0.5608 -0.5147 -0.3406
  919SOL     OW 3782   3.362   3.845   1.592  0.3411  0.2102 -0.1783
  919SOL    HW2 3783   3.296   3.908   1.562 -0.5717 -0.7640 -0.2261
  919SOL    HW3 3784   3.348   3.768   1.537  1.2525 -0.1606  0.0988
  919SOL    MW4 3785   3.351   3.843   1.581  0.3407  0.0327 -0.1481
  920SOL     OW 3786   3.181   4.002   1.488 -0.1837  0.2788 -0.0438
  920SOL    HW2 3787   3.159   4.086   1.529 -0.6038  0.0115  0.2853
  920SOL    HW3 3788   3.106   3.946   1.509 -0.8086  0.3924 -1.8938
  920SOL    MW4 3789   3.168   4.006   1.496 -0.3216  0.2584 -0.2445
  921SOL     OW 3790   3.139   4.261   1.571  0.1881 -0.2341  0.3469
  921SOL    HW2 3791   3.129   4.260   1.666  2.4463  0.0944  0.6125
  921SOL    HW3 3792   3.064   4.312   1.539 -0.4728 -0.1779  1.9430
  921SOL    MW4 3793   3.128   4.268   1.579  0.3989 -0.1831  0.5925
  922SOL     OW 3794   3.362   4.384   1.468  0.0182  0.0798 -0.5564
  922SOL    HW2 3795   3.298   4.324   1.508 -0.8835  2.1106  1.1643
  922SOL    HW3 3796   3.356   4.367   1.375 -1.1972 -1.5695 -0.1992
  922SOL    MW4 3797   3.352   4.374   1.461 -0.2611  0.1307 -0.2822
  923SOL     OW 3798   3.771   4.637   1.607  0.1612  0.3738 -0.2237
  923SOL    HW2 3799   3.765   4.653   1.701  0.5939 -0.1193 -0.1088
  923SOL    HW3 3800   3.850   4.683   1.579  1.4311 -1.5419  0.1174
  923SOL    MW4 3801   3.780   4.645   1.616  0.3858  0.0563 -0.1636
  924SOL     OW 3802   3.567   0.093   1.481  0.0694 -0.1373 -0.1778
  924SOL    HW2 3803   3.637   0.040   1.520  0.5899 -0.0279 -0.9506
  924SOL    HW3 3804   3.576   0.079   1.387  0.0341  1.0918 -0.3730
  924SOL    MW4 3805   3.577   0.084   1.474  0.1335  0.0393 -0.3055
  925SOL     OW 3806   3.585   0.363   1.605 -0.0554  0.4332  0.0275
  925SOL    HW2 3807   3.575   0.276   1.567 -0.2090  0.4118  0.1153
  925SOL    HW3 3808   3.516   0.415   1.563 -0.0885  0.4626  0.1188
  925SOL    MW4 3809   3.575   0.358   1.594 -0.0799  0.4342  0.0511
  926SOL     OW 3810   3.802   0.488   1.510 -0.2456 -0.1617  0.0778
  926SOL    HW2 3811   3.719   0.454   1.544 -0.9363  1.9898  0.6435
  926SOL    HW3 3812   3.794   0.481   1.415 -1.5421  0.9902  0.0769
  926SOL    MW4 3813   3.790   0.483   1.502 -0.5081  0.2741  0.1522
  927SOL     OW 3814   3.844   0.746   1.591 -0.1730 -0.7718  0.4664
  927SOL    HW2 3815   3.763   0.784   1.557 -0.4913 -1.8811 -0.0444
  927SOL    HW3 3816   3.841   0.655   1.562  0.4841 -1.2355  1.8487
  927SOL    MW4 3817   3.833   0.739   1.583 -0.1283 -0.9793  0.5814
  928SOL     OW 3818   3.586   0.868   1.496  0.3731  0.1296  0.0027
  928SOL    HW2 3819   3.500   0.835   1.521 -0.3216  1.9845  0.1274
  928SOL    HW3 3820   3.586   0.866   1.400 -0.8862  2.7110 -0.0934
  928SOL    MW4 3821   3.575   0.863   1.486  0.1156  0.7150  0.0064
  929SOL     OW 3822   3.613   1.129   1.582  0.3707  0.2178  0.0030
  929SOL    HW2 3823   3.687   1.165   1.534  0.4449  1.7606  1.2404
  929SOL    HW3 3824   3.599   1.042   1.544  1.7682  0.5717 -1.3361
  929SOL    MW4 3825   3.621   1.122   1.571  0.5651  0.4681 -0.0105
  930SOL     OW 3826   3.820   1.270   1.463  0.3255  0.0686  0.1976
  930SOL    HW2 3827   3.897   1.221   1.494 -0.0259  0.6444  2.0042
  930SOL    HW3 3828   3.840   1.361   1.484 -0.8638  0.2198  0.6602
  930SOL    MW4 3829   3.833   1.276   1.470  0.1221  0.1646  0.4971
  931SOL     OW 3830   3.821   1.523   1.552  0.0688  0.3000 -0.4010
  931SOL    HW2 3831   3.823   1.512   1.647  0.4332  0.0081 -0.4407
  931SOL    HW3 3832   3.738   1.568   1.535 -0.2331 -0.0939  0.0089
  931SOL    MW4 3833   3.811   1.528   1.562  0.0772  0.2096 -0.3523
  932SOL     OW 3834   3.592   1.677   1.521 -0.0225 -0.0152  1.0325
  932SOL    HW2 3835   3.516   1.631   1.556 -0.0134 -0.8294  0.0156
  932SOL    HW3 3836   3.568   1.697   1.430  0.8404  0.0313  0.8057
  932SOL    MW4 3837   3.579   1.674   1.513  0.0923 -0.1165  0.8684
  933SOL     OW 3838   3.598   1.956   1.604 -0.3694 -0.1414  0.6761
  933SOL    HW2 3839   3.604   1.865   1.575  0.2593 -0.1832  0.9158
  933SOL    HW3 3840   3.515   1.988   1.569 -0.3938 -0.6839  0.2383
  933SOL    MW4 3841   3.588   1.948   1.596 -0.2894 -0.2187  0.6499
  934SOL     OW 3842   3.845   2.061   1.521 -0.0188 -0.3522  0.1189
  934SOL    HW2 3843   3.845   2.153   1.548 -0.8512 -0.0353 -0.9522
  934SOL    HW3 3844   3.768   2.024   1.564 -0.2872 -0.2939 -0.3132
  934SOL    MW4 3845   3.835   2.069   1.530 -0.1640 -0.3028 -0.0794
  935SOL     OW 3846   3.807   2.333   1.610 -0.1963 -0.1411 -0.2126
  935SOL    HW2 3847   3.793   2.326   1.704 -0.5932  2.5034 -0.0431
  935SOL    HW3 3848   3.896   2.369   1.601  0.3236 -1.5650 -0.8869
  935SOL    MW4 3849   3.817   2.337   1.621 -0.1802  0.0198 -0.2792
  936SOL     OW 3850   3.597   2.477   1.466  0.1525  0.0125  0.1105
  936SOL    HW2 3851   3.589   2.562   1.510 -1.9529  0.6152 -1.3876
  936SOL    HW3 3852   3.670   2.434   1.512  1.5629  2.7860  0.5941
  936SOL    MW4 3853   3.606   2.483   1.478  0.0608  0.4578 -0.0234
  937SOL     OW 3854   3.595   2.721   1.615 -0.1371  0.1760  0.3252
  937SOL    HW2 3855   3.600   2.700   1.709 -1.3981  1.8059  0.8037
  937SOL    HW3 3856   3.501   2.735   1.599  0.0628 -0.1593 -1.1980
  937SOL    MW4 3857   3.583   2.720   1.626 -0.2773  0.3469  0.1873
  938SOL     OW 3858   3.815   2.835   1.490 -0.1558  0.3551  0.0772
  938SOL    HW2 3859   3.890   2.787   1.527 -0.2515 -1.7805 -2.3799
  938SOL    HW3 3860   3.739   2.798   1.535  0.0829  1.1391  1.1519
  938SOL    MW4 3861   3.815   2.823   1.501 -0.1369  0.1769 -0.1053
  939SOL     OW 3862   3.830   3.086   1.613 -0.0802 -0.0046  0.1774
  939SOL    HW2 3863   3.907   3.120   1.568  0.4159 -0.3682  0.7507
  939SOL    HW3 3864   3.818   2.998   1.577 -0.1661  0.0138  0.1616
  939SOL    MW4 3865   3.838   3.079   1.602 -0.0257 -0.0501  0.2508
  940SOL     OW 3866   3.616   3.211   1.508 -0.0171 -0.3966  0.0948
  940SOL    HW2 3867   3.692   3.161   1.536  0.8787  0.3910 -0.8532
  940SOL    HW3 3868   3.631   3.227   1.414 -0.2032  1.7271  0.3916
  940SOL    MW4 3869   3.628   3.207   1.499  0.0768 -0.0122  0.0089
  941SOL     OW 3870   3.592   3.470   1.616  0.5200 -0.1036 -0.2956
  941SOL    HW2 3871   3.659   3.515   1.566  0.9894 -2.2126 -1.6408
  941SOL    HW3 3872   3.599   3.378   1.588 -1.3900 -0.7492  1.2312
  941SOL    MW4 3873   3.602   3.464   1.606  0.3297 -0.4671 -0.2717
  942SOL     OW 3874   3.795   3.620   1.501 -0.9248 -0.4207  0.1567
  942SOL    HW2 3875   3.863   3.573   1.549 -0.2891  0.4294  0.1149
  942SOL    HW3 3876   3.790   3.706   1.544 -1.3678 -0.1766 -0.3742
  942SOL    MW4 3877   3.804   3.625   1.513 -0.8996 -0.2763  0.0811
  943SOL     OW 3878   3.819   3.866   1.626 -0.0561 -0.2279  0.1340
  943SOL    HW2 3879   3.902   3.910   1.606 -0.3661  0.4401  0.2941
  943SOL    HW3 3880   3.752   3.932   1.609 -0.3837  0.1017  2.4909
  943SOL    MW4 3881   3.821   3.880   1.621 -0.1402 -0.0963  0.4660
  944SOL     OW 3882   3.598   4.001   1.531 -0.4788 -0.1588 -0.4273
  944SOL    HW2 3883   3.600   4.095   1.549  0.2166 -0.1989 -0.3007
  944SOL    HW3 3884   3.505   3.977   1.540 -0.6520  0.5093 -0.4391
  944SOL    MW4 3885   3.586   4.010   1.535 -0.4096 -0.0753 -0.4121
  945SOL     OW 3886   3.594   4.268   1.587  0.2960  0.2696 -0.1803
  945SOL    HW2 3887   3.602   4.278   1.682  0.6740 -2.7955  0.1584
  945SOL    HW3 3888   3.506   4.300   1.567 -0.0155  0.3677  1.2959
  945SOL    MW4 3889   3.583   4.274   1.597  0.3047 -0.1216  0.0591
  946SOL     OW 3890   3.806   4.395   1.489  0.6158  0.6394 -0.2427
  946SOL    HW2 3891   3.726   4.352   1.520  0.3124  0.5940 -1.0717
  946SOL    HW3 3892   3.795   4.487   1.512  0.2282  0.6676 -0.5308
  946SOL    MW4 3893   3.794   4.401   1.496  0.5245  0.6366 -0.3902
  947SOL     OW 3894   4.247   4.644   1.589  0.3218 -0.5640  0.0532
  947SOL    HW2 3895   4.216   4.646   1.680 -2.2853 -0.6193 -0.8011
  947SOL    HW3 3896   4.254   4.551   1.568  1.6668 -0.5590  0.4086
  947SOL    MW4 3897   4.244   4.632   1.598  0.1554 -0.5703 -0.0128
  948SOL     OW 3898   4.022   0.079   1.458 -0.0261 -0.3079  0.5104
  948SOL    HW2 3899   4.025   0.173   1.476 -1.0550 -0.2519  0.4007
  948SOL    HW3 3900   4.099   0.044   1.502  0.6650  0.6672  0.0899
  948SOL    MW4 3901   4.032   0.087   1.466 -0.0701 -0.1719  0.4405
  949SOL     OW 3902   4.030   0.361   1.585 -0.0926  0.3614  0.0684
  949SOL    HW2 3903   4.034   0.346   1.680  0.0494 -1.4256 -0.2022
  949SOL    HW3 3904   3.954   0.419   1.574  1.6467  3.0198  1.5291
  949SOL    MW4 3905   4.020   0.367   1.596  0.1554  0.4764  0.2254
  950SOL     OW 3906   4.225   0.513   1.460  0.4067 -0.1681 -0.3017
  950SOL    HW2 3907   4.153   0.465   1.502 -0.5580  0.4420 -1.2490
  950SOL    HW3 3908   4.302   0.457   1.474 -0.1899 -0.7111  0.9191
  950SOL    MW4 3909   4.226   0.499   1.468  0.2007 -0.1592 -0.2656
  951SOL     OW 3910   4.270   0.758   1.607 -0.3968  0.0684  0.0685
  951SOL    HW2 3911   4.268   0.678   1.554 -0.1448  0.0337  0.1099
  951SOL    HW3 3912   4.348   0.804   1.576  0.1259 -0.2679  0.8736
  951SOL    MW4 3913   4.280   0.753   1.596 -0.2947  0.0194  0.1800
  952SOL     OW 3914   4.051   0.875   1.457  0.3624 -0.1218 -0.2229
  952SOL    HW2 3915   4.131   0.848   1.503  1.0803 -0.7493 -1.8252
  952SOL    HW3 3916   3.980   0.835   1.508  1.0426  0.4931  1.2509
  952SOL    MW4 3917   4.052   0.866   1.470  0.5465 -0.1235 -0.2397
  953SOL     OW 3918   4.054   1.132   1.584  0.0473  0.3855  0.1530
  953SOL    HW2 3919   4.061   1.128   1.679  1.2076 -0.1014  0.0486
  953SOL    HW3 3920   4.046   1.041   1.556  0.2068  0.4972 -0.2601
  953SOL    MW4 3921   4.054   1.119   1.593  0.2213  0.3359  0.0848
  954SOL     OW 3922   4.264   1.263   1.460 -0.3881 -1.1349  0.3146
  954SOL    HW2 3923   4.190   1.234   1.512 -0.1774 -0.4489  1.0170
  954SOL    HW3 3924   4.338   1.210   1.491 -0.3718 -1.0924  0.3490
  954SOL    MW4 3925   4.264   1.252   1.471 -0.3586 -1.0388  0.4117
  955SOL     OW 3926   4.259   1.529   1.571 -0.3749 -0.1902 -0.1185
  955SOL    HW2 3927   4.259   1.442   1.532 -0.4508  0.3856 -1.4513
  955SOL    HW3 3928   4.339   1.570   1.537 -0.2343  0.1913  0.6589
  955SOL    MW4 3929   4.270   1.523   1.561 -0.3667 -0.0638 -0.1918
  956SOL     OW 3930   4.052   1.650   1.435  0.5308 -0.2488  0.1640
  956SOL    HW2 3931   4.122   1.614   1.490 -0.6464  0.3372  2.1107
  956SOL    HW3 3932   3.972   1.611   1.470 -0.1520 -0.8652 -1.9958
  956SOL    MW4 3933   4.051   1.640   1.447  0.2851 -0.2530  0.1359
  957SOL     OW 3934   4.068   1.906   1.568 -0.1741 -0.1605  0.3868
  957SOL    HW2 3935   4.058   1.818   1.530 -0.0043 -0.0613  0.1147
  957SOL    HW3 3936   3.986   1.950   1.546  0.0567  0.0044 -0.1481
  957SOL    MW4 3937   4.056   1.900   1.560 -0.1211 -0.1256  0.2804
  958SOL     OW 3938   4.292   2.074   1.520  0.4892  0.1029  0.1605
  958SOL    HW2 3939   4.223   2.015   1.549  0.3995  1.0225  1.9069
  958SOL    HW3 3940   4.287   2.073   1.424 -0.2109 -1.8482  0.2113
  958SOL    MW4 3941   4.282   2.066   1.511  0.3843 -0.0334  0.3977
  959SOL     OW 3942   4.276   2.306   1.668 -0.1862  0.0716  0.5712
  959SOL    HW2 3943   4.277   2.301   1.763 -2.6635  0.1695  0.6365
  959SOL    HW3 3944   4.262   2.216   1.639  0.0719  0.1129  0.3198
  959SOL    MW4 3945   4.275   2.294   1.677 -0.4792  0.0899  0.5466
  960SOL     OW 3946   4.068   2.403   1.520 -0.3050  0.2191 -0.4140
  960SOL    HW2 3947   4.072   2.497   1.535  0.8806  0.1140 -0.0375
  960SOL    HW3 3948   4.148   2.368   1.560  0.2814 -0.7120 -2.3246
  960SOL    MW4 3949   4.079   2.411   1.528 -0.0706  0.0825 -0.6164
  961SOL     OW 3950   4.026   2.665   1.582 -0.0362  0.6536 -0.4180
  961SOL    HW2 3951   4.014   2.670   1.676  0.1910  0.7218 -0.3940
  961SOL    HW3 3952   4.109   2.709   1.565 -0.6792  1.7290 -0.7885
  961SOL    MW4 3953   4.035   2.671   1.592 -0.0911  0.8044 -0.4637
  962SOL     OW 3954   4.244   2.826   1.527 -0.1411 -0.2158 -0.1870
  962SOL    HW2 3955   4.229   2.918   1.549 -0.5488 -0.4627  0.5895
  962SOL    HW3 3956   4.286   2.828   1.441  1.9614  0.7898  0.8383
  962SOL    MW4 3957   4.247   2.838   1.519  0.0825 -0.1156  0.0505
  963SOL     OW 3958   4.245   3.099   1.615 -0.2054 -0.3824 -0.7341
  963SOL    HW2 3959   4.247   3.117   1.709 -0.2683  0.2734 -0.8593
  963SOL    HW3 3960   4.331   3.126   1.583  0.6626 -2.7045 -0.4912
  963SOL    MW4 3961   4.257   3.105   1.623 -0.0992 -0.6022 -0.7187
  964SOL     OW 3962   4.039   3.221   1.478  0.5706 -0.0378 -0.5482
  964SOL    HW2 3963   4.026   3.309   1.515  0.1563 -1.2959  2.4453
  964SOL    HW3 3964   4.115   3.186   1.525  0.0255 -1.7040 -0.8643
  964SOL    MW4 3965   4.047   3.228   1.489  0.4439 -0.4239 -0.1950
  965SOL     OW 3966   4.014   3.472   1.588  0.1548 -0.0573  0.2593
  965SOL    HW2 3967   4.023   3.487   1.682 -0.8732  1.3234  0.1563
  965SOL    HW3 3968   4.097   3.499   1.551  0.0184  0.8977  0.6168
  965SOL    MW4 3969   4.026   3.478   1.596  0.0010  0.2508  0.2930
  966SOL     OW 3970   4.269   3.557   1.493  0.3426 -0.3992  0.2799
  966SOL    HW2 3971   4.265   3.645   1.530  1.1691 -0.2178 -0.0401
  966SOL    HW3 3972   4.276   3.572   1.398 -1.4517 -0.8479  0.0656
  966SOL    MW4 3973   4.269   3.571   1.485  0.2146 -0.4344  0.2095
  967SOL     OW 3974   4.267   3.831   1.620 -0.3493 -0.4083  0.2038
  967SOL    HW2 3975   4.189   3.880   1.595  0.0619  0.0617 -0.1546
  967SOL    HW3 3976   4.341   3.888   1.598  0.0524 -0.3147  1.7625
  967SOL    MW4 3977   4.267   3.845   1.614 -0.2422 -0.3340  0.3622
  968SOL     OW 3978   4.060   3.983   1.535  0.1896 -0.4289  0.4564
  968SOL    HW2 3979   4.071   4.075   1.556 -1.5863  0.0618 -0.6885
  968SOL    HW3 3980   4.081   3.977   1.442 -0.8822 -0.9710  0.2447
  968SOL    MW4 3981   4.065   3.994   1.525 -0.1869 -0.4356  0.2775
  969SOL     OW 3982   4.050   4.258   1.614 -0.0755 -0.3119  0.1957
  969SOL    HW2 3983   4.016   4.247   1.703  0.6915  1.7754  0.7665
  969SOL    HW3 3984   3.986   4.315   1.571 -0.9939 -2.1426 -0.9446
  969SOL    MW4 3985   4.037   4.264   1.620 -0.0949 -0.2785  0.1206
  970SOL     OW 3986   4.312   4.368   1.512 -0.1450 -0.0799 -0.3952
  970SOL    HW2 3987   4.231   4.326   1.541  0.7553 -1.9151 -0.4156
  970SOL    HW3 3988   4.302   4.378   1.418  0.1762 -1.5582 -0.6036
  970SOL    MW4 3989   4.300   4.364   1.504  0.0167 -0.5174 -0.4253
  971SOL     OW 3990   0.196   4.611   1.886  0.0800 -0.1775 -0.0575
  971SOL    HW2 3991   0.266   4.664   1.926 -1.0729  1.1966  0.1619
  971SOL    HW3 3992   0.209   4.622   1.792  1.0728 -1.1485 -0.0495
  971SOL    MW4 3993   0.207   4.620   1.879  0.0589 -0.1245 -0.0274
  972SOL     OW 3994   4.466   0.103   1.974 -0.1895  0.0689  0.6390
  972SOL    HW2 3995   4.487   0.184   1.928 -0.2169  0.1994  0.8536
  972SOL    HW3 3996   4.537   0.043   1.951 -2.0626 -1.0716 -2.5076
  972SOL    MW4 3997   4.478   0.106   1.965 -0.4396 -0.0644  0.2521
  973SOL     OW 3998   4.471   0.342   1.825  0.0343 -0.3860  0.3029
  973SOL    HW2 3999   4.398   0.388   1.867 -0.3360 -1.1437  0.4885
  973SOL    HW3 4000   4.547   0.366   1.877  0.0010  0.7754 -0.1637
  973SOL    MW4 4001   4.471   0.352   1.837 -0.0190 -0.3327  0.2658
  974SOL     OW 4002   0.195   0.466   1.958 -0.1388 -0.4286 -0.2452
  974SOL    HW2 4003   0.266   0.417   1.916  0.4660 -0.8607  1.2379
  974SOL    HW3 4004   0.204   0.555   1.924  1.9860 -0.1456  0.9303
  974SOL    MW4 4005   0.206   0.471   1.948  0.2214 -0.4483  0.1055
  975SOL     OW 4006   0.234   0.721   1.861 -0.1393 -0.2392 -0.2988
  975SOL    HW2 4007   0.310   0.773   1.887 -0.0010 -0.7102  0.2426
  975SOL    HW3 4008   0.227   0.735   1.767 -0.0914  0.7431 -0.1654
  975SOL    MW4 4009   0.243   0.730   1.852 -0.1147 -0.1718 -0.2099
  976SOL     OW 4010   0.023   0.856   1.956 -0.1379 -0.0043  0.1291
  976SOL    HW2 4011  -0.054   0.804   1.935  0.5123 -1.4403  1.2113
  976SOL    HW3 4012   0.096   0.806   1.919  0.3429  1.0519 -0.3805
  976SOL    MW4 4013   0.023   0.842   1.948  0.0114 -0.0544  0.2046
  977SOL     OW 4014   0.033   1.116   1.836 -0.0591  0.4609  0.0486
  977SOL    HW2 4015  -0.047   1.163   1.858  0.4687  1.2215  0.3512
  977SOL    HW3 4016   0.032   1.039   1.893  0.6665  1.7661  1.8465
  977SOL    MW4 4017   0.023   1.112   1.846  0.1063  0.7335  0.3257
  978SOL     OW 4018   0.226   1.250   1.972  0.1194  0.2319 -0.1775
  978SOL    HW2 4019   0.231   1.339   1.940  0.6858  0.1939 -0.1984
  978SOL    HW3 4020   0.151   1.212   1.926  0.0401  0.6136 -0.3637
  978SOL    MW4 4021   0.217   1.256   1.962  0.1837  0.2774 -0.2049
  979SOL     OW 4022   0.205   1.495   1.840 -0.1795  0.2643  0.0457
  979SOL    HW2 4023   0.278   1.551   1.864 -0.7288  0.2706  1.7958
  979SOL    HW3 4024   0.129   1.535   1.881 -0.8533 -0.8190 -0.1011
  979SOL    MW4 4025   0.205   1.507   1.849 -0.3409  0.1223  0.2571
  980SOL     OW 4026   0.011   1.611   1.981 -0.1002 -0.1276 -0.1175
  980SOL    HW2 4027   0.001   1.658   2.065  0.9038  0.9115 -0.5562
  980SOL    HW3 4028  -0.078   1.587   1.956 -0.5944  1.1676  0.3536
  980SOL    MW4 4029  -0.002   1.614   1.989 -0.0329  0.1802 -0.1132
  981SOL     OW 4030   0.027   1.863   1.833 -0.1649  0.8290 -0.0973
  981SOL    HW2 4031  -0.047   1.903   1.880 -0.2147  0.7533 -0.1117
  981SOL    HW3 4032   0.031   1.774   1.868  0.9188  1.3145  1.0614
  981SOL    MW4 4033   0.017   1.857   1.844 -0.0286  0.8831  0.0539
  982SOL     OW 4034   0.228   2.046   1.941  0.2290  0.3518  0.1443
  982SOL    HW2 4035   0.206   2.132   1.905  1.1570  0.0892 -1.0958
  982SOL    HW3 4036   0.164   1.986   1.902  1.6306 -0.0372 -1.6347
  982SOL    MW4 4037   0.217   2.049   1.931  0.5364  0.2661 -0.2540
  983SOL     OW 4038   0.190   2.303   1.871 -0.0730 -0.4837  0.3689
  983SOL    HW2 4039   0.270   2.333   1.914  0.6172  0.1607 -1.3247
  983SOL    HW3 4040   0.119   2.347   1.918  0.6519  0.0947  0.9283
  983SOL    MW4 4041   0.191   2.313   1.883  0.1137 -0.3226  0.2191
  984SOL     OW 4042   4.473   2.458   2.012  0.6055  0.6135 -0.2213
  984SOL    HW2 4043   4.471   2.460   2.107 -3.0270  0.0020 -0.2323
  984SOL    HW3 4044   4.469   2.550   1.986  0.7277  0.7380  0.1970
  984SOL    MW4 4045   4.472   2.471   2.021  0.1426  0.5491 -0.1676
  985SOL     OW 4046   4.472   2.714   1.923 -0.8908  0.2703  0.2360
  985SOL    HW2 4047   4.384   2.751   1.932 -1.4655 -1.2565  1.3007
  985SOL    HW3 4048   4.489   2.714   1.829 -0.8824  3.0988  0.1948
  985SOL    MW4 4049   4.462   2.719   1.912 -0.9661  0.4423  0.3711
  986SOL     OW 4050   0.213   2.841   2.000  0.1072  0.2575 -0.5473
  986SOL    HW2 4051   0.220   2.929   1.963 -0.8672  2.0012  3.2169
  986SOL    HW3 4052   0.128   2.810   1.969 -0.0752  1.0994 -0.9193
  986SOL    MW4 4053   0.202   2.849   1.991 -0.0454  0.5987 -0.0999
  987SOL     OW 4054   0.203   3.100   1.904  0.1872 -0.4094 -0.1382
  987SOL    HW2 4055   0.282   3.137   1.945  1.0553 -2.7110  0.3681
  987SOL    HW3 4056   0.207   3.128   1.813  0.4156  1.3571  0.4107
  987SOL    MW4 4057   0.214   3.108   1.898  0.3319 -0.4797  0.0010
  988SOL     OW 4058   4.465   3.258   1.996  0.8235 -0.0214  0.2645
  988SOL    HW2 4059   4.391   3.207   1.962 -0.0465  1.2753  0.1950
  988SOL    HW3 4060   4.543   3.210   1.967  0.0043 -1.9835  1.2315
  988SOL    MW4 4061   4.466   3.245   1.988  0.6003 -0.1092  0.3828
  989SOL     OW 4062   4.457   3.523   1.914  0.1018 -0.1395 -0.0656
  989SOL    HW2 4063   4.525   3.571   1.960 -1.8912  0.8204  1.9310
  989SOL    HW3 4064   4.455   3.437   1.956 -0.1392 -0.0564  0.0941
  989SOL    MW4 4065   4.466   3.518   1.925 -0.1931 -0.0019  0.2189
  990SOL     OW 4066   0.193   3.660   1.995 -0.4493  0.3296 -0.1745
  990SOL    HW2 4067   0.190   3.655   2.090 -0.8937  1.0713 -0.1503
  990SOL    HW3 4068   0.252   3.588   1.969  2.0262  1.9414  0.8107
  990SOL    MW4 4069   0.200   3.650   2.004 -0.1813  0.6399 -0.0415
  991SOL     OW 4070   0.235   3.907   1.884 -0.2822 -0.2834  0.2662
  991SOL    HW2 4071   0.290   3.963   1.940 -1.4606  1.6345 -0.4432
  991SOL    HW3 4072   0.239   3.821   1.926  0.8549  0.5247  1.9075
  991SOL    MW4 4073   0.243   3.903   1.897 -0.2877  0.0763  0.3891
  992SOL     OW 4074   4.474   4.000   1.990  0.2900 -0.3469 -0.1327
  992SOL    HW2 4075   4.466   4.084   1.945  0.2235 -0.3672 -0.1582
  992SOL    HW3 4076   4.547   3.956   1.945  0.0144 -0.5008 -0.4279
  992SOL    MW4 4077   4.483   4.006   1.978  0.2446 -0.3695 -0.1749
  993SOL     OW 4078   4.466   4.247   1.866  0.4377 -0.2798 -0.2779
  993SOL    HW2 4079   4.379   4.285   1.881 -0.1295 -1.7836  0.3431
  993SOL    HW3 4080   4.521   4.284   1.935 -0.6013 -2.1323  1.6073
  993SOL    MW4 4081   4.462   4.257   1.877  0.2255 -0.7224  0.0527
  994SOL     OW 4082   0.182   4.360   2.004 -0.2334  0.2694 -0.1915
  994SOL    HW2 4083   0.197   4.383   2.095 -0.5436  0.2922 -0.1472
  994SOL    HW3 4084   0.195   4.442   1.956 -0.8154  0.4179 -0.0893
  994SOL    MW4 4085   0.186   4.374   2.009 -0.3511  0.2923 -0.1721
  995SOL     OW 4086   0.681   0.027   1.897  0.7723  0.5722 -0.2874
  995SOL    HW2 4087   0.690  -0.066   1.918 -0.9980  0.3887 -0.2749
  995SOL    HW3 4088   0.664   0.029   1.803 -0.8610  0.7742  0.0075
  995SOL    MW4 4089   0.680   0.015   1.887  0.3233  0.5751 -0.2469
  996SOL     OW 4090   0.420   0.099   2.013  0.4393  0.2511 -0.2885
  996SOL    HW2 4091   0.424   0.163   1.942 -0.0865 -0.7109 -1.1987
  996SOL    HW3 4092   0.489   0.036   1.992 -0.9278 -1.0411 -0.9289
  996SOL    MW4 4093   0.430   0.099   2.001  0.1895 -0.0463 -0.4930
  997SOL     OW 4094   0.427   0.334   1.846 -0.0225 -0.0607  0.1180
  997SOL    HW2 4095   0.494   0.399   1.869  1.3618 -1.3703 -0.0776
  997SOL    HW3 4096   0.428   0.332   1.750 -2.3572  1.9343  0.0375
  997SOL    MW4 4097   0.436   0.342   1.837 -0.1479  0.0297  0.0815
  998SOL     OW 4098   0.635   0.498   1.949  0.0325 -0.2980 -0.0502
  998SOL    HW2 4099   0.641   0.510   2.044  1.1906 -0.7658 -0.0624
  998SOL    HW3 4100   0.720   0.462   1.923 -0.2678 -0.1626 -1.2703
  998SOL    MW4 4101   0.647   0.495   1.958  0.1457 -0.3418 -0.2127
  999SOL     OW 4102   0.692   0.738   1.825  0.1631 -0.2287 -0.6963
  999SOL    HW2 4103   0.765   0.784   1.867 -0.5317  1.6896 -1.5290
  999SOL    HW3 4104   0.680   0.658   1.877  1.3156  0.6023  0.8680
  999SOL    MW4 4105   0.700   0.733   1.838  0.2236  0.1339 -0.5997
 1000SOL     OW 4106   0.468   0.859   1.938  0.0064  0.1701 -0.0760
 1000SOL    HW2 4107   0.482   0.948   1.904  1.3979 -0.0747 -0.2061
 1000SOL    HW3 4108   0.544   0.809   1.905  0.2273 -0.6090  1.5604
 1000SOL    MW4 4109   0.480   0.864   1.929  0.2191  0.0350  0.1228
 1001SOL     OW 4110   0.468   1.126   1.876 -0.2985 -0.3024 -0.2901
 1001SOL    HW2 4111   0.389   1.168   1.909  0.1189  0.5068 -0.3050
 1001SOL    HW3 4112   0.463   1.135   1.781 -0.4708 -0.7789 -0.3316
 1001SOL    MW4 4113   0.457   1.132   1.868 -0.2662 -0.2584 -0.2975
 1002SOL     OW 4114   0.684   1.275   1.971  0.3124  0.2948  0.7103
 1002SOL    HW2 4115   0.671   1.287   2.065 -0.6622 -0.5968  0.6909
 1002SOL    HW3 4116   0.610   1.222   1.943  0.8235  0.2066 -0.4911
 1002SOL    MW4 4117   0.673   1.270   1.980  0.2513  0.1655  0.5491
 1003SOL     OW 4118   0.660   1.548   1.856  0.1209 -0.5042 -0.0406
 1003SOL    HW2 4119   0.655   1.458   1.888 -1.3260 -0.8782 -1.2372
 1003SOL    HW3 4120   0.675   1.538   1.761  2.1158  0.5380  0.1385
 1003SOL    MW4 4121   0.662   1.535   1.847  0.1931 -0.4160 -0.1749
 1004SOL     OW 4122   0.418   1.669   1.920  0.1798  0.2649  0.4984
 1004SOL    HW2 4123   0.421   1.688   2.014 -0.2834 -1.3836  0.8540
 1004SOL    HW3 4124   0.504   1.634   1.899 -0.3298 -1.1603  0.7157
 1004SOL    MW4 4125   0.429   1.667   1.930  0.0515 -0.1407  0.5740
 1005SOL     OW 4126   0.440   1.909   1.812  0.3233  0.2468  0.2170
 1005SOL    HW2 4127   0.431   1.818   1.839 -0.5731  0.9294  2.2605
 1005SOL    HW3 4128   0.378   1.957   1.866  0.4563  2.0310 -1.1550
 1005SOL    MW4 4129   0.430   1.903   1.823  0.2225  0.5722  0.3057
 1006SOL     OW 4130   0.616   2.101   1.932  0.3478  0.1902 -0.1292
 1006SOL    HW2 4131   0.631   2.081   2.025 -2.8115  0.8713  0.5799
 1006SOL    HW3 4132   0.549   2.038   1.905 -0.3407  1.4420 -1.3573
 1006SOL    MW4 4133   0.609   2.090   1.941 -0.1598  0.4451 -0.1978
 1007SOL     OW 4134   0.667   2.375   1.870  0.1966  0.3047  0.2268
 1007SOL    HW2 4135   0.658   2.286   1.905 -1.3955  1.1384  1.9493
 1007SOL    HW3 4136   0.667   2.363   1.775 -1.0375 -1.4548  0.4272
 1007SOL    MW4 4137   0.666   2.362   1.862 -0.1763  0.1826  0.4805
 1008SOL     OW 4138   0.407   2.444   1.959 -0.2687  0.1574  0.0137
 1008SOL    HW2 4139   0.413   2.470   2.051 -1.1559  0.7402 -0.0873
 1008SOL    HW3 4140   0.497   2.424   1.933  0.2130  1.6560  0.5222
 1008SOL    MW4 4141   0.419   2.444   1.968 -0.3222  0.4323  0.0675
 1009SOL     OW 4142   0.431   2.722   1.897  0.0667  0.3455 -0.5323
 1009SOL    HW2 4143   0.424   2.632   1.929  0.6141 -0.2270 -2.0021
 1009SOL    HW3 4144   0.347   2.761   1.918 -0.1708 -0.5043  0.1402
 1009SOL    MW4 4145   0.419   2.715   1.904  0.1076  0.1578 -0.6375
 1010SOL     OW 4146   0.667   2.848   1.979  0.1158 -0.6474  0.4591
 1010SOL    HW2 4147   0.667   2.868   2.072 -1.3509  0.6060  0.2056
 1010SOL    HW3 4148   0.592   2.789   1.967  0.6622 -1.2922  0.1641
 1010SOL    MW4 4149   0.657   2.843   1.990 -0.0055 -0.5670  0.3867
 1011SOL     OW 4150   0.639   3.090   1.876 -0.6914  0.1934 -0.4473
 1011SOL    HW2 4151   0.654   2.999   1.903 -0.3176 -0.2842 -2.2401
 1011SOL    HW3 4152   0.662   3.092   1.783 -2.4985  1.6983 -0.8930
 1011SOL    MW4 4153   0.644   3.078   1.867 -0.8805  0.3288 -0.7426
 1012SOL     OW 4154   0.421   3.218   2.026  0.3274 -0.2786  0.2823
 1012SOL    HW2 4155   0.396   3.302   1.987 -0.1696  0.2609  1.7571
 1012SOL    HW3 4156   0.499   3.192   1.976  0.0158  0.6604 -0.7221
 1012SOL    MW4 4157   0.428   3.226   2.014  0.2207 -0.0839  0.3443
 1013SOL     OW 4158   0.389   3.481   1.920 -0.0892  0.6403  0.4328
 1013SOL    HW2 4159   0.467   3.511   1.967 -0.1575  0.3237  0.7465
 1013SOL    HW3 4160   0.406   3.504   1.828 -0.2932  1.9450  0.7213
 1013SOL    MW4 4161   0.402   3.488   1.914 -0.1252  0.7706  0.5122
 1014SOL     OW 4162   0.630   3.615   1.999 -0.8140 -0.0251 -0.4203
 1014SOL    HW2 4163   0.709   3.578   1.960  0.1804  0.9082  0.6457
 1014SOL    HW3 4164   0.630   3.707   1.970 -1.3573  0.0531 -0.1805
 1014SOL    MW4 4165   0.641   3.623   1.990 -0.7545  0.1082 -0.2480
 1015SOL     OW 4166   0.634   3.872   1.903  0.0400  0.5369 -0.3391
 1015SOL    HW2 4167   0.718   3.907   1.930 -0.0042  1.1221 -0.9364
 1015SOL    HW3 4168   0.639   3.868   1.807 -0.5812  0.5019 -0.3749
 1015SOL    MW4 4169   0.646   3.876   1.894 -0.0479  0.6094 -0.4225
 1016SOL     OW 4170   0.459   4.045   2.016 -0.4162  0.1031 -0.0970
 1016SOL    HW2 4171   0.471   4.128   1.970  0.2489  0.2081  0.2615
 1016SOL    HW3 4172   0.526   3.987   1.979 -0.2222  0.0305  0.3629
 1016SOL    MW4 4173   0.470   4.048   2.005 -0.3028  0.1073  0.0107
 1017SOL     OW 4174   0.446   4.324   1.926 -0.5814 -0.1651 -0.0559
 1017SOL    HW2 4175   0.356   4.344   1.952 -0.8851  0.6952 -1.7066
 1017SOL    HW3 4176   0.439   4.291   1.837  0.4891 -2.6003  0.6924
 1017SOL    MW4 4177   0.433   4.322   1.918 -0.4802 -0.3729 -0.1749
 1018SOL     OW 4178   0.687   4.435   1.990  0.6496  0.0131 -0.3217
 1018SOL    HW2 4179   0.758   4.377   1.962  0.6357 -0.6379  0.9842
 1018SOL    HW3 4180   0.608   4.392   1.957  0.6527 -0.6200  0.4906
 1018SOL    MW4 4181   0.686   4.422   1.982  0.6481 -0.1559 -0.0423
 1019SOL     OW 4182   1.106   4.643   1.899  0.0170 -0.2794 -0.8080
 1019SOL    HW2 4183   1.167   4.689   1.956 -2.2192  0.7961  0.7883
 1019SOL    HW3 4184   1.101   4.554   1.936 -0.8331  0.1880  0.2173
 1019SOL    MW4 4185   1.113   4.637   1.911 -0.3903 -0.0758 -0.4621
 1020SOL     OW 4186   0.909   0.171   1.942  0.4776 -0.2946  0.1695
 1020SOL    HW2 4187   0.972   0.104   1.914  0.7874 -0.1019  0.3947
 1020SOL    HW3 4188   0.828   0.123   1.957  0.9333 -0.7626  1.1877
 1020SOL    MW4 4189   0.907   0.156   1.940  0.5785 -0.3309  0.3337
 1021SOL     OW 4190   0.875   0.437   1.861  0.1558  0.7140 -0.1951
 1021SOL    HW2 4191   0.944   0.477   1.913 -0.5420  0.0155  1.3239
 1021SOL    HW3 4192   0.882   0.343   1.879 -0.6505  0.5504 -0.6755
 1021SOL    MW4 4193   0.885   0.430   1.871 -0.0426  0.6002 -0.0582
 1022SOL     OW 4194   1.099   0.520   2.000 -0.0033  0.3061 -0.4134
 1022SOL    HW2 4195   1.175   0.475   1.964 -0.8187 -0.3925 -1.2892
 1022SOL    HW3 4196   1.102   0.607   1.961  1.4399  0.9661  1.0954
 1022SOL    MW4 4197   1.109   0.526   1.991  0.0794  0.3009 -0.3300
 1023SOL     OW 4198   1.107   0.765   1.868 -0.7202  0.2997  0.4768
 1023SOL    HW2 4199   1.183   0.808   1.907 -0.5087  0.2122  0.1600
 1023SOL    HW3 4200   1.032   0.806   1.911 -0.5118  0.7705  0.3952
 1023SOL    MW4 4201   1.107   0.776   1.879 -0.6647  0.3503  0.4241
 1024SOL     OW 4202   0.878   0.880   1.973 -0.5943 -0.2418 -0.3578
 1024SOL    HW2 4203   0.876   0.885   2.068 -0.1459  1.0240 -0.4019
 1024SOL    HW3 4204   0.892   0.971   1.945  0.2913 -0.7601 -1.5937
 1024SOL    MW4 4205   0.879   0.893   1.982 -0.4182 -0.1432 -0.5267
 1025SOL     OW 4206   0.909   1.137   1.865 -0.8003  0.1670  0.3790
 1025SOL    HW2 4207   0.828   1.162   1.910 -1.2029  1.1961 -0.8997
 1025SOL    HW3 4208   0.886   1.135   1.772  0.5878  0.2743  0.0150
 1025SOL    MW4 4209   0.895   1.140   1.859 -0.6703  0.3170  0.1622
 1026SOL     OW 4210   1.129   1.288   1.956 -0.2165  0.0223 -0.0222
 1026SOL    HW2 4211   1.109   1.372   1.913  1.3995  0.2971 -0.2645
 1026SOL    HW3 4212   1.056   1.231   1.932 -1.5012  1.4448  0.3911
 1026SOL    MW4 4213   1.117   1.292   1.947 -0.1726  0.2463  0.0004
 1027SOL     OW 4214   1.132   1.551   1.864 -0.2990 -0.2415  0.4091
 1027SOL    HW2 4215   1.050   1.592   1.890 -0.8309 -0.4153 -0.9536
 1027SOL    HW3 4216   1.130   1.553   1.768  1.6786  0.5531  0.3683
 1027SOL    MW4 4217   1.121   1.557   1.854 -0.1082 -0.1596  0.2240
 1028SOL     OW 4218   0.894   1.675   1.964 -0.3179  0.0452  0.4537
 1028SOL    HW2 4219   0.877   1.767   1.945 -0.8919  0.5889  3.3748
 1028SOL    HW3 4220   0.819   1.628   1.928  0.3372  0.6027 -1.7158
 1028SOL    MW4 4221   0.882   1.681   1.957 -0.3071  0.1905  0.5529
 1029SOL     OW 4222   0.867   1.942   1.892 -0.0475  0.5505 -0.4395
 1029SOL    HW2 4223   0.787   1.988   1.918  0.5325  0.6276  1.2646
 1029SOL    HW3 4224   0.861   1.935   1.797 -2.3037  0.1276 -0.2820
 1029SOL    MW4 4225   0.856   1.947   1.883 -0.2686  0.5049 -0.1940
 1030SOL     OW 4226   1.122   2.063   1.961 -0.2997 -0.4663  0.0406
 1030SOL    HW2 4227   1.118   2.156   1.937  0.6166 -0.4549 -0.0908
 1030SOL    HW3 4228   1.038   2.027   1.933  0.2595 -0.1879 -2.1015
 1030SOL    MW4 4229   1.110   2.071   1.954 -0.1050 -0.4282 -0.2593
 1031SOL     OW 4230   1.109   2.335   1.866 -0.0907  0.1537 -0.1064
 1031SOL    HW2 4231   1.189   2.379   1.893  0.2518  0.5159 -1.6324
 1031SOL    HW3 4232   1.111   2.339   1.770 -1.9596  0.2226 -0.1570
 1031SOL    MW4 4233   1.120   2.341   1.857 -0.2921  0.2105 -0.3144
 1032SOL     OW 4234   0.907   2.473   1.977  0.3182  0.4077  0.0617
 1032SOL    HW2 4235   0.982   2.423   1.945 -0.3991  0.6028 -1.9789
 1032SOL    HW3 4236   0.830   2.429   1.939 -0.5057  1.1410  0.8479
 1032SOL    MW4 4237   0.906   2.460   1.968  0.1148  0.5305 -0.1037
 1033SOL     OW 4238   0.917   2.733   1.882 -0.4142 -0.0948  0.1290
 1033SOL    HW2 4239   0.909   2.639   1.894 -0.0638 -0.1164  0.1741
 1033SOL    HW3 4240   0.840   2.769   1.927 -0.2047 -0.3153  0.6657
 1033SOL    MW4 4241   0.906   2.726   1.890 -0.3403 -0.1266  0.2058
 1034SOL     OW 4242   1.153   2.824   2.016  0.1182  0.5137 -0.1352
 1034SOL    HW2 4243   1.143   2.809   2.110 -1.0997 -2.0346 -0.6240
 1034SOL    HW3 4244   1.076   2.781   1.977  0.3200  2.0073 -2.2563
 1034SOL    MW4 4245   1.141   2.817   2.023 -0.0159  0.3743 -0.4797
 1035SOL     OW 4246   1.095   3.045   1.867  0.2297  0.3790 -0.0164
 1035SOL    HW2 4247   1.026   3.095   1.911  1.4436  1.4279  0.7437
 1035SOL    HW3 4248   1.120   2.978   1.930 -0.3570 -0.2349 -0.4392
 1035SOL    MW4 4249   1.089   3.043   1.881  0.3124  0.4363  0.0281
 1036SOL     OW 4250   0.891   3.199   1.959  0.0030  0.6021  0.2034
 1036SOL    HW2 4251   0.889   3.207   2.055 -0.0674  1.8247  0.1182
 1036SOL    HW3 4252   0.809   3.155   1.937 -0.4095  1.1215  0.6569
 1036SOL    MW4 4253   0.880   3.195   1.969 -0.0607  0.8318  0.2520
 1037SOL     OW 4254   0.850   3.482   1.890  0.1403  1.0100  0.0332
 1037SOL    HW2 4255   0.861   3.394   1.924 -0.4076  1.0351  0.2707
 1037SOL    HW3 4256   0.846   3.471   1.795 -0.3708  0.7369  0.0875
 1037SOL    MW4 4257   0.851   3.469   1.882  0.0006  0.9773  0.0716
 1038SOL     OW 4258   1.083   3.621   1.929  0.3735 -0.1829  0.9420
 1038SOL    HW2 4259   1.089   3.649   2.020  1.0860 -0.7069  1.0577
 1038SOL    HW3 4260   1.002   3.569   1.926  0.8070 -0.8984  1.4739
 1038SOL    MW4 4261   1.073   3.617   1.941  0.5246 -0.3464  1.0276
 1039SOL     OW 4262   1.071   3.884   1.874  0.1245 -0.0017 -0.1146
 1039SOL    HW2 4263   1.072   3.789   1.882 -1.9055  0.0037  0.3035
 1039SOL    HW3 4264   1.110   3.901   1.788  0.3735 -1.1937 -0.2516
 1039SOL    MW4 4265   1.077   3.874   1.864 -0.1105 -0.1581 -0.0775
 1040SOL     OW 4266   0.856   3.997   2.007 -0.6538  0.0622  0.6480
 1040SOL    HW2 4267   0.871   4.005   2.101  0.2241  1.7386  0.3827
 1040SOL    HW3 4268   0.926   3.941   1.976  0.5371  1.5475  0.6171
 1040SOL    MW4 4269   0.867   3.991   2.016 -0.3808  0.4795  0.6089
 1041SOL     OW 4270   0.895   4.248   1.881  0.0766  0.5128  0.3835
 1041SOL    HW2 4271   0.968   4.296   1.920 -0.6068  0.9531  1.1261
 1041SOL    HW3 4272   0.875   4.178   1.943  1.2609 -0.9301 -0.8375
 1041SOL    MW4 4273   0.902   4.245   1.894  0.1428  0.3810  0.3202
 1042SOL     OW 4274   1.095   4.373   2.000  0.4946  0.7716 -0.6340
 1042SOL    HW2 4275   1.094   4.389   2.094 -0.5073 -0.8413 -0.3405
 1042SOL    HW3 4276   1.179   4.330   1.984 -0.5179 -1.5612  0.0329
 1042SOL    MW4 4277   1.106   4.369   2.010  0.2288  0.2513 -0.5074
 1043SOL     OW 4278   1.546   4.650   1.872 -0.3772  0.3962 -0.6563
 1043SOL    HW2 4279   1.614   4.703   1.913 -0.5417 -0.3028  0.5489
 1043SOL    HW3 4280   1.559   4.563   1.907 -0.6466 -0.1900 -1.9758
 1043SOL    MW4 4281   1.556   4.646   1.882 -0.4344  0.2260 -0.6714
 1044SOL     OW 4282   1.328   0.099   2.015 -0.6769 -0.0919  0.2586
 1044SOL    HW2 4283   1.345   0.095   2.109  0.6094  0.1598  0.0413
 1044SOL    HW3 4284   1.394   0.042   1.976  0.0671  1.3611 -0.6423
 1044SOL    MW4 4285   1.339   0.091   2.023 -0.4089  0.1330  0.1113
 1045SOL     OW 4286   1.356   0.384   1.911  0.4606  0.4610 -0.7027
 1045SOL    HW2 4287   1.340   0.296   1.947  0.0182  0.7627 -0.1599
 1045SOL    HW3 4288   1.346   0.373   1.816  0.2741 -0.0467 -0.6255
 1045SOL    MW4 4289   1.353   0.371   1.903  0.3777  0.4338 -0.6210
 1046SOL     OW 4290   1.576   0.538   2.001 -0.0333 -0.3028 -0.2838
 1046SOL    HW2 4291   1.657   0.502   1.965  0.5613 -0.6059  1.3088
 1046SOL    HW3 4292   1.506   0.487   1.959  0.6884 -1.5427  0.0014
 1046SOL    MW4 4293   1.577   0.526   1.991  0.1404 -0.5063 -0.0359
 1047SOL     OW 4294   1.565   0.777   1.877  0.0145  0.2271 -0.2421
 1047SOL    HW2 4295   1.615   0.840   1.927 -2.9246  0.8211  2.1088
 1047SOL    HW3 4296   1.568   0.697   1.930  1.7967 -0.9542 -2.0689
 1047SOL    MW4 4297   1.572   0.774   1.891 -0.1380  0.1496 -0.1730
 1048SOL     OW 4298   1.335   0.908   1.977  0.0750  0.1466 -0.0246
 1048SOL    HW2 4299   1.335   0.902   2.072  0.3529  0.1521 -0.0228
 1048SOL    HW3 4300   1.393   0.838   1.948 -0.0528  0.1096 -0.1914
 1048SOL    MW4 4301   1.343   0.898   1.986  0.0948  0.1425 -0.0464
 1049SOL     OW 4302   1.373   1.166   1.864 -0.2811 -0.1941 -0.4146
 1049SOL    HW2 4303   1.383   1.077   1.898  1.5590 -0.5255 -1.7059
 1049SOL    HW3 4304   1.285   1.193   1.889  0.0814 -1.4096  2.2605
 1049SOL    MW4 4305   1.363   1.158   1.872  0.0095 -0.3983 -0.2320
 1050SOL     OW 4306   1.587   1.308   1.956  0.2387  0.2574  0.3440
 1050SOL    HW2 4307   1.577   1.397   1.921  0.8993  0.0879 -0.2673
 1050SOL    HW3 4308   1.506   1.263   1.932  0.7401  0.1058 -1.0582
 1050SOL    MW4 4309   1.575   1.314   1.948  0.3920  0.2152  0.0782
 1051SOL     OW 4310   1.583   1.562   1.836  0.2466  0.0796 -0.4256
 1051SOL    HW2 4311   1.657   1.609   1.873  1.3774 -0.9469 -1.3254
 1051SOL    HW3 4312   1.507   1.613   1.862  1.1283  0.3087  1.8295
 1051SOL    MW4 4313   1.583   1.575   1.844  0.5121 -0.0256 -0.2468
 1052SOL     OW 4314   1.352   1.707   1.939 -0.1927 -0.1214 -0.0928
 1052SOL    HW2 4315   1.359   1.695   2.034 -0.5566  3.0099  0.3751
 1052SOL    HW3 4316   1.271   1.660   1.916 -0.3834 -0.4657  1.2113
 1052SOL    MW4 4317   1.342   1.699   1.949 -0.2658  0.2462  0.1410
 1053SOL     OW 4318   1.321   1.943   1.824  0.3463  0.0673  0.0054
 1053SOL    HW2 4319   1.316   1.858   1.868 -0.0521  0.8814  1.5752
 1053SOL    HW3 4320   1.255   1.996   1.867  2.3352  1.9447  0.8129
 1053SOL    MW4 4321   1.312   1.939   1.836  0.5561  0.4224  0.3190
 1054SOL     OW 4322   1.551   2.058   1.935  0.1120  0.1024 -0.3327
 1054SOL    HW2 4323   1.558   2.151   1.912  0.9089 -0.1993 -1.3260
 1054SOL    HW3 4324   1.473   2.028   1.889 -0.1736  0.2910  0.0277
 1054SOL    MW4 4325   1.542   2.067   1.926  0.1794  0.0875 -0.4163
 1055SOL     OW 4326   1.597   2.318   1.852 -0.2564 -0.1879  0.2645
 1055SOL    HW2 4327   1.686   2.348   1.871 -0.3063 -0.0420  0.2720
 1055SOL    HW3 4328   1.590   2.324   1.756 -0.6675  0.9832  0.3570
 1055SOL    MW4 4329   1.608   2.323   1.842 -0.3172 -0.0143  0.2776
 1056SOL     OW 4330   1.349   2.436   1.957 -0.1683  0.0429 -0.1539
 1056SOL    HW2 4331   1.366   2.521   1.916  1.4549  1.2414  2.8928
 1056SOL    HW3 4332   1.409   2.376   1.912 -0.9481  0.5730 -1.9599
 1056SOL    MW4 4333   1.359   2.439   1.945 -0.0571  0.2713  0.0098
 1057SOL     OW 4334   1.375   2.720   1.879  0.9201 -0.0936 -0.2286
 1057SOL    HW2 4335   1.294   2.749   1.921  1.1047  0.7882 -0.4672
 1057SOL    HW3 4336   1.352   2.712   1.786  1.0569 -0.0122 -0.2700
 1057SOL    MW4 4337   1.362   2.723   1.872  0.9626  0.0336 -0.2655
 1058SOL     OW 4338   1.601   2.848   1.971 -0.2540 -0.0186  0.0945
 1058SOL    HW2 4339   1.671   2.791   1.940 -1.1201 -1.8043  1.2584
 1058SOL    HW3 4340   1.521   2.806   1.939 -0.8632  1.0572  0.2037
 1058SOL    MW4 4341   1.599   2.835   1.963 -0.4486 -0.1125  0.2624
 1059SOL     OW 4342   1.554   3.109   1.914  0.0610  0.0033  0.1594
 1059SOL    HW2 4343   1.579   3.020   1.940  0.6202  0.1906  0.2853
 1059SOL    HW3 4344   1.539   3.103   1.820  3.5783  0.5092 -0.5031
 1059SOL    MW4 4345   1.556   3.096   1.905  0.5989  0.0949  0.0886
 1060SOL     OW 4346   1.300   3.212   1.973 -0.1305 -0.0343 -0.0690
 1060SOL    HW2 4347   1.389   3.179   1.963  0.5597  1.7140  0.0803
 1060SOL    HW3 4348   1.245   3.148   1.928  1.3426 -0.4236 -1.3516
 1060SOL    MW4 4349   1.304   3.199   1.965  0.1549  0.1452 -0.2183
 1061SOL     OW 4350   1.328   3.474   1.910  0.5062  0.1579  0.1455
 1061SOL    HW2 4351   1.315   3.387   1.948  0.7445 -0.0784 -0.3052
 1061SOL    HW3 4352   1.242   3.515   1.915 -0.0818 -0.8388 -1.4220
 1061SOL    MW4 4353   1.315   3.468   1.916  0.4599 -0.0045 -0.1209
 1062SOL     OW 4354   1.598   3.579   1.979  0.3849  0.4009 -0.1517
 1062SOL    HW2 4355   1.604   3.585   2.075 -1.1178 -0.0726 -0.0179
 1062SOL    HW3 4356   1.511   3.542   1.963  0.4856  0.8335 -1.7186
 1062SOL    MW4 4357   1.588   3.575   1.990  0.2000  0.3955 -0.3409
 1063SOL     OW 4358   1.571   3.849   1.897  0.3634 -0.3058  0.1246
 1063SOL    HW2 4359   1.657   3.890   1.906  0.2445 -0.2402  1.0159
 1063SOL    HW3 4360   1.584   3.758   1.923  0.0811 -0.1972  0.6553
 1063SOL    MW4 4361   1.584   3.843   1.902  0.3105 -0.2828  0.3123
 1064SOL     OW 4362   1.339   3.971   1.995  0.0880 -0.2241  0.4131
 1064SOL    HW2 4363   1.415   3.930   1.954 -0.3769  0.6098 -1.3573
 1064SOL    HW3 4364   1.264   3.936   1.947 -0.3798  1.8989 -0.4992
 1064SOL    MW4 4365   1.339   3.961   1.983 -0.0350  0.1659  0.0591
 1065SOL     OW 4366   1.329   4.235   1.911 -0.4682  0.2663 -0.3883
 1065SOL    HW2 4367   1.340   4.144   1.941 -0.4768 -0.0580 -1.3729
 1065SOL    HW3 4368   1.336   4.230   1.816 -0.3265  1.3235 -0.4354
 1065SOL    MW4 4369   1.331   4.222   1.903 -0.4507  0.3624 -0.5244
 1066SOL     OW 4370   1.570   4.392   1.933 -0.0261 -0.0808 -0.2176
 1066SOL    HW2 4371   1.569   4.410   2.027 -0.9302  0.7249 -0.3598
 1066SOL    HW3 4372   1.492   4.338   1.918  0.0481 -0.1069 -0.5197
 1066SOL    MW4 4373   1.559   4.387   1.943 -0.1357  0.0219 -0.2762
 1067SOL     OW 4374   1.996   0.003   1.900  0.2557 -0.1473  0.0521
 1067SOL    HW2 4375   2.079   0.038   1.932 -0.2318 -0.7162  1.9857
 1067SOL    HW3 4376   1.993  -0.087   1.933 -1.6580  0.2505  1.0330
 1067SOL    MW4 4377   2.006  -0.004   1.908 -0.0613 -0.1698  0.4367
 1068SOL     OW 4378   1.756   0.138   1.970 -0.2917  0.3643  0.4422
 1068SOL    HW2 4379   1.759   0.132   2.066 -1.1336  0.9343  0.5095
 1068SOL    HW3 4380   1.824   0.078   1.940  0.4032  0.6532  1.4151
 1068SOL    MW4 4381   1.765   0.130   1.979 -0.3110  0.4776  0.5796
 1069SOL     OW 4382   1.780   0.413   1.876 -0.2096 -0.1746 -0.4042
 1069SOL    HW2 4383   1.771   0.320   1.896  1.2937 -0.1522  0.4736
 1069SOL    HW3 4384   1.789   0.416   1.781  1.8618 -1.1326 -0.2705
 1069SOL    MW4 4385   1.780   0.401   1.866  0.2620 -0.2981 -0.2707
 1070SOL     OW 4386   2.009   0.543   2.016  0.1915  0.3462 -0.2614
 1070SOL    HW2 4387   1.983   0.621   1.968  1.0293 -0.0127 -1.3027
 1070SOL    HW3 4388   1.946   0.476   1.988  0.1481  0.3567 -0.1908
 1070SOL    MW4 4389   1.997   0.544   2.006  0.2964  0.3002 -0.3893
 1071SOL     OW 4390   1.952   0.768   1.872 -0.3062  0.3790  0.0631
 1071SOL    HW2 4391   2.033   0.809   1.904  0.1675 -0.6012  0.1544
 1071SOL    HW3 4392   1.956   0.778   1.777  0.1663 -0.0698  0.0269
 1071SOL    MW4 4393   1.963   0.774   1.863 -0.1813  0.1904  0.0702
 1072SOL     OW 4394   1.775   0.916   2.015  0.6458  0.0102  0.5403
 1072SOL    HW2 4395   1.777   1.001   1.970 -0.0143 -0.4950 -0.4668
 1072SOL    HW3 4396   1.837   0.862   1.967  0.1868 -0.4335  0.4427
 1072SOL    MW4 4397   1.784   0.920   2.003  0.4983 -0.1150  0.3946
 1073SOL     OW 4398   1.804   1.160   1.894  0.1382  0.3777 -0.0518
 1073SOL    HW2 4399   1.728   1.215   1.908  1.0086  1.8234 -0.8566
 1073SOL    HW3 4400   1.811   1.152   1.799  1.4737  0.9672 -0.0170
 1073SOL    MW4 4401   1.795   1.166   1.883  0.4292  0.6461 -0.1532
 1074SOL     OW 4402   2.052   1.311   1.977  0.0038 -0.0519 -0.1013
 1074SOL    HW2 4403   2.118   1.256   1.935 -1.5855 -0.6928 -1.8045
 1074SOL    HW3 4404   1.969   1.272   1.954 -1.0266  0.9445  1.7626
 1074SOL    MW4 4405   2.050   1.299   1.969 -0.3417 -0.0050 -0.0800
 1075SOL     OW 4406   2.016   1.542   1.847  0.2638 -0.0691 -0.0994
 1075SOL    HW2 4407   2.041   1.455   1.877 -0.6637  0.0234  1.0274
 1075SOL    HW3 4408   2.008   1.535   1.752  1.7485 -0.7923 -0.1787
 1075SOL    MW4 4409   2.018   1.530   1.839  0.3374 -0.1525  0.0389
 1076SOL     OW 4410   1.805   1.667   1.957  0.4350  0.0370  0.0204
 1076SOL    HW2 4411   1.820   1.756   1.925  1.8227  0.4711  1.7973
 1076SOL    HW3 4412   1.878   1.616   1.920  1.3026  0.2670  1.4007
 1076SOL    MW4 4413   1.817   1.672   1.948  0.7324  0.1246  0.4369
 1077SOL     OW 4414   1.808   1.939   1.882  0.1928 -0.5869 -0.1160
 1077SOL    HW2 4415   1.721   1.977   1.898  1.2081  1.2154  1.3112
 1077SOL    HW3 4416   1.808   1.917   1.789 -0.9978  1.5220 -0.6426
 1077SOL    MW4 4417   1.796   1.941   1.872  0.1696 -0.0708  0.0029
 1078SOL     OW 4418   2.049   2.073   1.988  0.0444 -0.2994 -0.0130
 1078SOL    HW2 4419   2.107   2.018   1.936  0.5102 -1.4177  1.6531
 1078SOL    HW3 4420   1.961   2.050   1.959  0.3142 -0.5477 -0.6482
 1078SOL    MW4 4421   2.045   2.063   1.978  0.1416 -0.4795  0.1230
 1079SOL     OW 4422   2.058   2.315   1.878 -0.2642 -0.2222  0.2020
 1079SOL    HW2 4423   2.127   2.358   1.928  0.1128 -0.2402 -0.2913
 1079SOL    HW3 4424   2.056   2.226   1.911  0.3445 -0.3789 -0.1805
 1079SOL    MW4 4425   2.067   2.309   1.889 -0.1342 -0.2453  0.0864
 1080SOL     OW 4426   1.824   2.451   1.931 -0.2151 -0.7103  0.2292
 1080SOL    HW2 4427   1.805   2.439   2.024  0.2343 -1.4646  0.2321
 1080SOL    HW3 4428   1.900   2.395   1.915 -0.0298 -0.2600 -0.5004
 1080SOL    MW4 4429   1.832   2.442   1.941 -0.1312 -0.7505  0.1333
 1081SOL     OW 4430   1.836   2.713   1.860 -0.2376  0.4365  0.5252
 1081SOL    HW2 4431   1.825   2.620   1.879 -0.8485  0.4275  0.1614
 1081SOL    HW3 4432   1.816   2.721   1.766 -2.1999  1.2399  0.9926
 1081SOL    MW4 4433   1.832   2.702   1.850 -0.5771  0.5414  0.5388
 1082SOL     OW 4434   2.024   2.857   2.035 -0.0018 -0.0649  0.1465
 1082SOL    HW2 4435   2.004   2.858   2.129  1.0015  1.8111  0.3924
 1082SOL    HW3 4436   1.950   2.814   1.994 -0.1792 -1.4412  1.8690
 1082SOL    MW4 4437   2.012   2.852   2.042  0.1073  0.0010  0.4060
 1083SOL     OW 4438   2.044   3.082   1.878  0.2319 -0.0272  0.0407
 1083SOL    HW2 4439   1.975   3.134   1.919 -0.5308 -0.5045 -0.6469
 1083SOL    HW3 4440   2.044   3.000   1.927 -0.6248 -0.5663 -0.8590
 1083SOL    MW4 4441   2.035   3.078   1.890  0.0181 -0.1612 -0.1687
 1084SOL     OW 4442   1.827   3.203   1.970  0.1291  0.3543 -0.1731
 1084SOL    HW2 4443   1.818   3.212   2.065  0.9685  0.4314 -0.0958
 1084SOL    HW3 4444   1.753   3.149   1.944 -0.1397  0.3811  0.5181
 1084SOL    MW4 4445   1.816   3.197   1.979  0.2044  0.3679 -0.0718
 1085SOL     OW 4446   1.779   3.441   1.849 -0.2107  0.4112  0.7520
 1085SOL    HW2 4447   1.787   3.354   1.887 -1.4808  0.1624  0.4739
 1085SOL    HW3 4448   1.710   3.484   1.901 -0.0261  1.0255  0.4960
 1085SOL    MW4 4449   1.771   3.435   1.861 -0.3539  0.4597  0.6814
 1086SOL     OW 4450   1.994   3.589   1.972  0.1408 -0.5843 -0.0480
 1086SOL    HW2 4451   1.998   3.682   1.950  0.3252 -0.4989  0.3299
 1086SOL    HW3 4452   1.921   3.555   1.921 -0.2910 -0.1109  0.2475
 1086SOL    MW4 4453   1.985   3.597   1.963  0.1081 -0.5105  0.0409
 1087SOL     OW 4454   2.015   3.858   1.858 -0.1652  0.4840 -0.0941
 1087SOL    HW2 4455   2.102   3.881   1.890 -0.3198  0.5993  0.2440
 1087SOL    HW3 4456   2.025   3.851   1.763  0.3646 -0.1555  0.0072
 1087SOL    MW4 4457   2.027   3.860   1.850 -0.1156  0.4146 -0.0360
 1088SOL     OW 4458   1.805   4.011   1.945  0.2590 -0.3796  0.1019
 1088SOL    HW2 4459   1.822   4.104   1.929 -0.9415 -0.2270 -0.3488
 1088SOL    HW3 4460   1.881   3.966   1.908 -0.3880  0.2566 -2.1201
 1088SOL    MW4 4461   1.817   4.017   1.938  0.0154 -0.2751 -0.2507
 1089SOL     OW 4462   1.808   4.275   1.876  0.1809  0.0332 -0.2319
 1089SOL    HW2 4463   1.723   4.314   1.897  0.0456 -0.8439  0.9077
 1089SOL    HW3 4464   1.796   4.237   1.789 -0.8632 -0.8238  0.2658
 1089SOL    MW4 4465   1.795   4.275   1.867  0.0255 -0.1955 -0.0160
 1090SOL     OW 4466   2.014   4.414   1.967 -0.0959 -0.6714  0.0114
 1090SOL    HW2 4467   2.088   4.356   1.953  0.2328 -0.2263 -0.0912
 1090SOL    HW3 4468   1.939   4.368   1.929  0.3101 -0.6721 -0.7790
 1090SOL    MW4 4469   2.014   4.401   1.960  0.0012 -0.6127 -0.1065
 1091SOL     OW 4470   2.443   4.624   1.869 -0.0128 -0.3647  0.6361
 1091SOL    HW2 4471   2.522   4.662   1.908  0.0145 -0.9819  1.1837
 1091SOL    HW3 4472   2.450   4.530   1.886 -1.2303 -0.3313  1.3632
 1091SOL    MW4 4473   2.455   4.617   1.877 -0.1698 -0.4411  0.8042
 1092SOL     OW 4474   2.235   0.130   1.996  0.1362  0.1476 -0.0171
 1092SOL    HW2 4475   2.245   0.114   2.090  0.6254 -2.1577 -0.4258
 1092SOL    HW3 4476   2.304   0.077   1.955 -1.5208 -0.7293 -1.7863
 1092SOL    MW4 4477   2.246   0.121   2.003 -0.0179 -0.2722 -0.3045
 1093SOL     OW 4478   2.196   0.400   1.878  0.2652  0.4963 -0.3255
 1093SOL    HW2 4479   2.181   0.316   1.920 -1.8036  0.2187 -1.5357
 1093SOL    HW3 4480   2.136   0.460   1.923  1.2514  1.1929  0.0852
 1093SOL    MW4 4481   2.186   0.397   1.890  0.1225  0.5516 -0.4309
 1094SOL     OW 4482   2.482   0.500   1.932 -0.3049  0.4125 -0.5357
 1094SOL    HW2 4483   2.547   0.435   1.906  0.2495  0.5329  0.5355
 1094SOL    HW3 4484   2.398   0.457   1.916  0.0584 -1.1017  1.4387
 1094SOL    MW4 4485   2.479   0.485   1.927 -0.1838  0.2286 -0.1339
 1095SOL     OW 4486   2.457   0.779   1.835  0.2459  0.4721 -0.1073
 1095SOL    HW2 4487   2.463   0.684   1.851 -0.2976  0.3708 -0.5041
 1095SOL    HW3 4488   2.451   0.787   1.740  0.7406  0.9336 -0.0976
 1095SOL    MW4 4489   2.457   0.767   1.825  0.2396  0.5196 -0.1582
 1096SOL     OW 4490   2.204   0.866   1.935  0.6273  0.2667  0.0695
 1096SOL    HW2 4491   2.198   0.862   2.030 -1.2320 -0.9761 -0.0675
 1096SOL    HW3 4492   2.290   0.829   1.914  0.4343 -0.8219  1.1860
 1096SOL    MW4 4493   2.214   0.860   1.945  0.3564 -0.0409  0.1987
 1097SOL     OW 4494   2.228   1.129   1.850 -0.0024  0.1283  0.1039
 1097SOL    HW2 4495   2.321   1.139   1.867  0.1065 -0.2667 -0.2717
 1097SOL    HW3 4496   2.205   1.045   1.890 -0.3004  0.4562  0.6271
 1097SOL    MW4 4497   2.237   1.119   1.857 -0.0274  0.1194  0.1234
 1098SOL     OW 4498   2.478   1.226   1.925 -0.0135 -0.2745  0.1529
 1098SOL    HW2 4499   2.482   1.228   2.020 -1.0541 -1.4756  0.2304
 1098SOL    HW3 4500   2.493   1.317   1.898 -0.2478  0.1624  1.4798
 1098SOL    MW4 4501   2.480   1.238   1.934 -0.1817 -0.3754  0.3381
 1099SOL     OW 4502   2.493   1.514   1.845 -0.0472  0.0001 -0.5687
 1099SOL    HW2 4503   2.416   1.559   1.881 -0.9288 -1.3682 -0.6877
 1099SOL    HW3 4504   2.471   1.500   1.753 -0.1456 -1.4033 -0.3364
 1099SOL    MW4 4505   2.480   1.518   1.838 -0.1762 -0.3655 -0.5537
 1100SOL     OW 4506   2.274   1.671   1.923  0.6720 -0.4908  0.0845
 1100SOL    HW2 4507   2.274   1.672   2.019 -1.2165  1.6003  0.1077
 1100SOL    HW3 4508   2.188   1.635   1.900  0.4012  0.7249 -0.8197
 1100SOL    MW4 4509   2.262   1.666   1.933  0.3872 -0.0544 -0.0317
 1101SOL     OW 4510   2.238   1.936   1.864 -0.2448 -0.0223 -0.0349
 1101SOL    HW2 4511   2.321   1.977   1.886 -1.7059  2.1871  1.5041
 1101SOL    HW3 4512   2.244   1.848   1.902  0.5647  0.8620  1.9097
 1101SOL    MW4 4513   2.250   1.930   1.872 -0.3307  0.3859  0.4246
 1102SOL     OW 4514   2.490   2.053   1.945  0.5659  0.1394  0.7705
 1102SOL    HW2 4515   2.569   2.011   1.911  0.0034 -0.9036  0.7069
 1102SOL    HW3 4516   2.494   2.142   1.912  1.2010 -0.1983 -0.0984
 1102SOL    MW4 4517   2.501   2.059   1.936  0.5755 -0.0427  0.6475
 1103SOL     OW 4518   2.460   2.315   1.850 -0.0933 -0.2583 -0.3644
 1103SOL    HW2 4519   2.541   2.353   1.884 -0.9431  0.3131  1.0897
 1103SOL    HW3 4520   2.391   2.362   1.896 -1.2164 -2.4541  0.2541
 1103SOL    MW4 4521   2.462   2.326   1.860 -0.3536 -0.4725 -0.0910
 1104SOL     OW 4522   2.277   2.446   1.984  0.4906 -0.8551  0.4610
 1104SOL    HW2 4523   2.290   2.445   2.078  0.4831 -0.8821  0.4619
 1104SOL    HW3 4524   2.255   2.537   1.963 -0.2729 -1.0064  0.5901
 1104SOL    MW4 4525   2.276   2.458   1.993  0.3889 -0.8786  0.4783
 1105SOL     OW 4526   2.219   2.698   1.893 -0.0969 -0.0672  0.2707
 1105SOL    HW2 4527   2.142   2.749   1.917 -0.0930 -1.1340  2.6617
 1105SOL    HW3 4528   2.224   2.705   1.798 -2.1243  1.4551  0.2542
 1105SOL    MW4 4529   2.209   2.706   1.884 -0.3638 -0.0072  0.5839
 1106SOL     OW 4530   2.471   2.792   2.004 -0.6332 -0.3750  0.3543
 1106SOL    HW2 4531   2.487   2.865   1.945 -1.8117  0.6278  1.2392
 1106SOL    HW3 4532   2.396   2.746   1.966 -0.2287 -0.8030  0.0801
 1106SOL    MW4 4533   2.463   2.795   1.992 -0.7353 -0.2992  0.4349
 1107SOL     OW 4534   2.508   3.018   1.848  0.3808  0.4997  0.1038
 1107SOL    HW2 4535   2.446   3.072   1.896 -0.2035  0.3350 -0.4596
 1107SOL    HW3 4536   2.496   3.043   1.756  1.9835  1.3267  0.0964
 1107SOL    MW4 4537   2.498   3.028   1.842  0.5152  0.5870  0.0285
 1108SOL     OW 4538   2.307   3.183   1.958 -0.1040 -0.1241  0.0723
 1108SOL    HW2 4539   2.291   3.179   2.052 -1.2850  0.8568 -0.0651
 1108SOL    HW3 4540   2.223   3.157   1.919 -0.1656  1.2276 -0.6999
 1108SOL    MW4 4541   2.294   3.179   1.965 -0.2680  0.1836 -0.0477
 1109SOL     OW 4542   2.260   3.456   1.857 -0.4310  0.0213 -0.2245
 1109SOL    HW2 4543   2.268   3.378   1.912  0.2598  0.6948  0.6472
 1109SOL    HW3 4544   2.187   3.504   1.895 -0.1229  0.3535 -0.0393
 1109SOL    MW4 4545   2.252   3.452   1.869 -0.2995  0.1540 -0.0850
 1110SOL     OW 4546   2.481   3.625   1.954 -0.0540  0.0034  0.1970
 1110SOL    HW2 4547   2.489   3.612   2.049 -1.0711 -0.8698  0.1798
 1110SOL    HW3 4548   2.406   3.570   1.929 -0.7015  1.3461 -0.8871
 1110SOL    MW4 4549   2.472   3.616   1.963 -0.2735  0.0651  0.0517
 1111SOL     OW 4550   2.457   3.858   1.824  0.0908  0.3617  0.0676
 1111SOL    HW2 4551   2.391   3.909   1.869  0.3043  0.4470  0.2871
 1111SOL    HW3 4552   2.467   3.779   1.877  0.2066  0.3754  0.0675
 1111SOL    MW4 4553   2.450   3.854   1.837  0.1340  0.3748  0.0966
 1112SOL     OW 4554   2.235   3.960   1.960 -0.2931  0.2284 -0.2081
 1112SOL    HW2 4555   2.225   3.966   2.055 -1.7204 -0.7002 -0.2668
 1112SOL    HW3 4556   2.203   4.044   1.927 -3.4625 -0.8551 -0.0630
 1112SOL    MW4 4557   2.229   3.972   1.968 -0.8996 -0.0372 -0.1966
 1113SOL     OW 4558   2.223   4.221   1.877 -0.0068  0.1758 -0.1447
 1113SOL    HW2 4559   2.308   4.261   1.896  0.5679 -0.4299 -1.3665
 1113SOL    HW3 4560   2.213   4.230   1.782 -0.9350 -0.4819 -0.1170
 1113SOL    MW4 4561   2.233   4.227   1.867 -0.0534  0.0091 -0.3022
 1114SOL     OW 4562   2.480   4.360   1.956  0.2929  0.2063  0.2210
 1114SOL    HW2 4563   2.483   4.375   2.051 -0.4451 -2.3756  0.6813
 1114SOL    HW3 4564   2.571   4.342   1.932  0.0522 -2.2035  1.0034
 1114SOL    MW4 4565   2.492   4.360   1.965  0.1638 -0.4525  0.3850
 1115SOL     OW 4566   2.917   0.003   1.842  0.0507 -0.0260 -0.2085
 1115SOL    HW2 4567   2.988   0.054   1.882 -1.0468  0.9301  0.5771
 1115SOL    HW3 4568   2.919  -0.081   1.887  1.6171 -0.5275 -1.2137
 1115SOL    MW4 4569   2.927  -0.001   1.853  0.1128  0.0339 -0.2377
 1116SOL     OW 4570   2.671   0.079   1.964 -0.3251  0.1749  0.3899
 1116SOL    HW2 4571   2.694   0.090   2.056 -1.1633 -0.0079  0.6254
 1116SOL    HW3 4572   2.752   0.052   1.921  0.2385  0.9828  0.9454
 1116SOL    MW4 4573   2.685   0.077   1.970 -0.3612  0.2574  0.4944
 1117SOL     OW 4574   2.682   0.344   1.872  0.2846  0.0399  0.0874
 1117SOL    HW2 4575   2.766   0.384   1.895  1.3565 -1.2734 -1.4851
 1117SOL    HW3 4576   2.680   0.263   1.924 -0.3436  0.4239  0.6677
 1117SOL    MW4 4577   2.693   0.339   1.882  0.3433 -0.0827 -0.0434
 1118SOL     OW 4578   2.916   0.482   1.916  0.6680 -0.0775 -0.5469
 1118SOL    HW2 4579   2.997   0.440   1.885  0.7858  0.5628 -1.1267
 1118SOL    HW3 4580   2.918   0.569   1.876 -0.4072 -0.1291 -0.7208
 1118SOL    MW4 4581   2.927   0.487   1.907  0.5419  0.0002 -0.6465
 1119SOL     OW 4582   2.930   0.746   1.810  0.1657  0.0278 -0.2838
 1119SOL    HW2 4583   3.005   0.795   1.844  0.3164 -0.0608 -0.4868
 1119SOL    HW3 4584   2.854   0.792   1.845  0.3221 -0.6695  1.0040
 1119SOL    MW4 4585   2.930   0.759   1.819  0.2062 -0.0759 -0.1407
 1120SOL     OW 4586   2.695   0.866   1.913  0.0286 -0.1972  0.2070
 1120SOL    HW2 4587   2.697   0.960   1.895  0.7319 -0.1846  0.3371
 1120SOL    HW3 4588   2.604   0.840   1.895 -0.2842  0.5900  0.6209
 1120SOL    MW4 4589   2.683   0.875   1.908  0.0803 -0.0917  0.2787
 1121SOL     OW 4590   2.736   1.137   1.823 -0.1552 -0.1828  0.1825
 1121SOL    HW2 4591   2.661   1.168   1.873 -1.4504 -1.8244 -0.6652
 1121SOL    HW3 4592   2.725   1.176   1.736  1.8113  2.2595  1.0032
 1121SOL    MW4 4593   2.724   1.146   1.818 -0.0663 -0.0772  0.1791
 1122SOL     OW 4594   2.936   1.290   1.949  0.5995 -0.4022  0.1772
 1122SOL    HW2 4595   2.924   1.380   1.918  0.7778 -0.7451 -0.9046
 1122SOL    HW3 4596   2.864   1.241   1.909  1.1935 -0.9776 -0.2066
 1122SOL    MW4 4597   2.925   1.295   1.940  0.7014 -0.5233 -0.0162
 1123SOL     OW 4598   2.942   1.545   1.840 -0.0445  0.6185 -0.0917
 1123SOL    HW2 4599   3.028   1.580   1.864  0.2450 -0.0387 -0.1676
 1123SOL    HW3 4600   2.942   1.545   1.744  0.9347 -1.9263 -0.1363
 1123SOL    MW4 4601   2.953   1.550   1.830  0.1228  0.1960 -0.1076
 1124SOL     OW 4602   2.713   1.650   1.961  0.3623  0.4209  0.0966
 1124SOL    HW2 4603   2.796   1.621   1.922  0.1641  0.7300 -0.5664
 1124SOL    HW3 4604   2.647   1.594   1.919  0.1595  0.6803  0.0742
 1124SOL    MW4 4605   2.715   1.639   1.950  0.3092  0.4959  0.0063
 1125SOL     OW 4606   2.680   1.895   1.829  0.2429  0.4501 -0.0834
 1125SOL    HW2 4607   2.758   1.941   1.860  0.4729 -0.6213  0.9717
 1125SOL    HW3 4608   2.681   1.812   1.876 -1.8774  0.6773  0.3997
 1125SOL    MW4 4609   2.690   1.890   1.839 -0.0064  0.3387  0.1196
 1126SOL     OW 4610   2.920   2.034   1.938 -0.2555 -0.4145 -0.0030
 1126SOL    HW2 4611   2.942   2.059   2.028 -0.6746  0.1547 -0.0528
 1126SOL    HW3 4612   2.998   1.990   1.905 -0.1964 -0.8508  0.7285
 1126SOL    MW4 4613   2.933   2.032   1.946 -0.3030 -0.3967  0.0870
 1127SOL     OW 4614   2.941   2.288   1.851  0.1529 -0.9564  0.0655
 1127SOL    HW2 4615   3.015   2.327   1.898 -0.5171 -0.6634  0.8932
 1127SOL    HW3 4616   2.933   2.200   1.888 -1.1519 -0.2973  1.4155
 1127SOL    MW4 4617   2.950   2.281   1.862 -0.1078 -0.8309  0.3527
 1128SOL     OW 4618   2.710   2.404   1.944  0.1765 -0.0529 -0.1146
 1128SOL    HW2 4619   2.710   2.497   1.922  1.3777 -0.1430 -0.5778
 1128SOL    HW3 4620   2.794   2.372   1.910 -0.4668 -1.4173 -0.4298
 1128SOL    MW4 4621   2.721   2.412   1.937  0.2501 -0.2449 -0.2171
 1129SOL     OW 4622   2.700   2.675   1.875 -0.1347  0.4178 -0.0434
 1129SOL    HW2 4623   2.620   2.704   1.920 -0.3566  1.4386 -1.0835
 1129SOL    HW3 4624   2.678   2.682   1.782  1.1042  0.4861 -0.3282
 1129SOL    MW4 4625   2.686   2.679   1.869 -0.0007  0.5612 -0.2183
 1130SOL     OW 4626   2.936   2.814   2.013 -0.1851  0.2871  0.1347
 1130SOL    HW2 4627   2.939   2.890   1.954  1.3732 -0.3861 -0.6881
 1130SOL    HW3 4628   2.863   2.761   1.981  0.0603  0.3974 -0.6064
 1130SOL    MW4 4629   2.927   2.817   2.001  0.0529  0.2129 -0.0713
 1131SOL     OW 4630   2.914   3.060   1.851  0.1335 -0.0289  0.3164
 1131SOL    HW2 4631   2.981   3.090   1.913 -0.5367  0.2930  0.8926
 1131SOL    HW3 4632   2.833   3.100   1.883 -0.1486  0.4653 -1.0055
 1131SOL    MW4 4633   2.912   3.070   1.864  0.0079  0.0789  0.2180
 1132SOL     OW 4634   2.707   3.179   1.975  0.5572  0.1125 -0.1434
 1132SOL    HW2 4635   2.705   3.264   1.931  1.0592  0.5800  0.7159
 1132SOL    HW3 4636   2.628   3.134   1.945 -0.1555  1.2275  0.0440
 1132SOL    MW4 4637   2.696   3.184   1.965  0.5295  0.3214 -0.0054
 1133SOL     OW 4638   2.671   3.442   1.866  0.0587  0.2779 -0.0824
 1133SOL    HW2 4639   2.745   3.486   1.908 -0.2755 -0.0455  0.8679
 1133SOL    HW3 4640   2.594   3.484   1.905 -0.2543  0.5923 -1.0433
 1133SOL    MW4 4641   2.671   3.453   1.877 -0.0267  0.2770 -0.0838
 1134SOL     OW 4642   2.886   3.549   1.981  0.2914  0.0567  0.0059
 1134SOL    HW2 4643   2.883   3.555   2.076 -3.2712 -0.9877  0.0359
 1134SOL    HW3 4644   2.970   3.507   1.962  0.4550 -0.9761  2.7577
 1134SOL    MW4 4645   2.896   3.544   1.991 -0.1571 -0.2172  0.3729
 1135SOL     OW 4646   2.925   3.833   1.849 -0.1808 -0.2248  0.3952
 1135SOL    HW2 4647   2.905   3.743   1.875  0.7693 -0.6800 -0.4494
 1135SOL    HW3 4648   2.939   3.829   1.755 -0.3379  0.8500  0.3176
 1135SOL    MW4 4649   2.924   3.821   1.840 -0.0761 -0.1431  0.2736
 1136SOL     OW 4650   2.707   3.968   1.938 -0.0709  0.0526  0.0489
 1136SOL    HW2 4651   2.790   3.936   1.902 -1.2217 -1.0449 -1.7368
 1136SOL    HW3 4652   2.640   3.919   1.890 -1.7260 -0.5664  2.9197
 1136SOL    MW4 4653   2.709   3.957   1.927 -0.4411 -0.1736  0.1920
 1137SOL     OW 4654   2.749   4.240   1.893 -0.1481  0.5639 -0.6930
 1137SOL    HW2 4655   2.724   4.152   1.922 -0.7261  1.1227  0.5501
 1137SOL    HW3 4656   2.733   4.240   1.798  1.6358 -1.2452 -1.0087
 1137SOL    MW4 4657   2.744   4.229   1.884  0.0112  0.3996 -0.5707
 1138SOL     OW 4658   2.933   4.436   1.992  0.0027 -0.1055  0.3512
 1138SOL    HW2 4659   2.949   4.439   2.086 -0.1705  0.9523  0.3559
 1138SOL    HW3 4660   2.862   4.373   1.981 -1.4546  1.3695  1.1478
 1138SOL    MW4 4661   2.926   4.428   2.003 -0.2124  0.2284  0.4570
 1139SOL     OW 4662   3.370   0.005   1.899 -0.2494  0.3550  0.3772
 1139SOL    HW2 4663   3.361  -0.084   1.934  1.5755 -0.2284 -0.5704
 1139SOL    HW3 4664   3.369  -0.007   1.804 -0.2230  1.3936  0.2423
 1139SOL    MW4 4665   3.368  -0.008   1.891 -0.0052  0.4148  0.2344
 1140SOL     OW 4666   3.143   0.146   1.970  0.2173 -0.4044 -0.4554
 1140SOL    HW2 4667   3.148   0.125   2.063 -0.2565  0.4192 -0.2396
 1140SOL    HW3 4668   3.214   0.095   1.930  0.4551 -0.7203  0.3584
 1140SOL    MW4 4669   3.153   0.136   1.977  0.1864 -0.3374 -0.3195
 1141SOL     OW 4670   3.161   0.390   1.846 -0.1514  0.2720 -0.2556
 1141SOL    HW2 4671   3.157   0.304   1.889 -0.8651 -0.2674 -1.3998
 1141SOL    HW3 4672   3.173   0.370   1.753 -0.9297  1.4053 -0.5998
 1141SOL    MW4 4673   3.162   0.376   1.840 -0.3486  0.3504 -0.4519
 1142SOL     OW 4674   3.356   0.526   1.964 -0.1059  0.3641  0.2049
 1142SOL    HW2 4675   3.433   0.479   1.931 -0.0174  0.3959  0.3637
 1142SOL    HW3 4676   3.282   0.486   1.919 -0.0829 -0.3158  0.7639
 1142SOL    MW4 4677   3.356   0.515   1.954 -0.0911  0.2786  0.2997
 1143SOL     OW 4678   3.374   0.791   1.858  0.3562  0.2395  0.2046
 1143SOL    HW2 4679   3.292   0.833   1.887  0.1308  0.2007 -0.3742
 1143SOL    HW3 4680   3.374   0.706   1.902 -0.2356 -0.0288 -0.3038
 1143SOL    MW4 4681   3.363   0.785   1.868  0.2484  0.1990  0.0612
 1144SOL     OW 4682   3.157   0.904   1.926 -0.4744  0.2853  0.6203
 1144SOL    HW2 4683   3.158   0.900   2.022  3.2216  0.4156  0.6536
 1144SOL    HW3 4684   3.165   0.997   1.906 -0.6435  0.2057  0.1857
 1144SOL    MW4 4685   3.158   0.916   1.936 -0.0091  0.2919  0.5673
 1145SOL     OW 4686   3.173   1.170   1.855  0.3982 -0.2489 -0.0990
 1145SOL    HW2 4687   3.241   1.195   1.917 -0.4542 -1.3708  1.3277
 1145SOL    HW3 4688   3.093   1.211   1.889  0.2683  0.7070 -1.5190
 1145SOL    MW4 4689   3.171   1.179   1.867  0.2685 -0.2707 -0.0981
 1146SOL     OW 4690   3.387   1.236   1.997 -0.0772 -0.2012  0.1516
 1146SOL    HW2 4691   3.383   1.246   2.092 -2.5424 -0.3499  0.0907
 1146SOL    HW3 4692   3.387   1.326   1.964  2.1141 -0.1257  0.3154
 1146SOL    MW4 4693   3.386   1.249   2.005 -0.1130 -0.2109  0.1655
 1147SOL     OW 4694   3.396   1.501   1.906 -0.2398  0.4998 -0.2574
 1147SOL    HW2 4695   3.463   1.557   1.946  0.4083 -0.0525 -0.5498
 1147SOL    HW3 4696   3.314   1.546   1.924  0.1292  0.7580  0.8535
 1147SOL    MW4 4697   3.394   1.514   1.914 -0.1056  0.4611 -0.1495
 1148SOL     OW 4698   3.159   1.649   1.969 -0.2667  0.2795  0.0241
 1148SOL    HW2 4699   3.144   1.662   2.062  0.3786  1.2663  0.0067
 1148SOL    HW3 4700   3.153   1.738   1.932 -1.0491 -0.1701 -0.9453
 1148SOL    MW4 4701   3.156   1.663   1.976 -0.2849  0.3504 -0.1061
 1149SOL     OW 4702   3.172   1.918   1.843 -0.7516  0.2900 -0.3043
 1149SOL    HW2 4703   3.251   1.957   1.880 -1.4271  1.5586 -0.1547
 1149SOL    HW3 4704   3.170   1.949   1.752  0.0570 -1.5051 -0.9444
 1149SOL    MW4 4705   3.182   1.927   1.836 -0.7339  0.2205 -0.3691
 1150SOL     OW 4706   3.369   2.015   2.025 -0.1884  0.4210  0.0955
 1150SOL    HW2 4707   3.442   1.966   1.987  0.3347  0.3811  1.1231
 1150SOL    HW3 4708   3.374   2.102   1.986 -1.1261 -0.3287 -1.7573
 1150SOL    MW4 4709   3.379   2.020   2.015 -0.2429  0.3169 -0.0134
 1151SOL     OW 4710   3.396   2.266   1.872 -0.1009 -0.5892  0.1728
 1151SOL    HW2 4711   3.320   2.321   1.891  0.0911 -0.4772  0.6337
 1151SOL    HW3 4712   3.407   2.272   1.777 -0.2291 -0.0223  0.1917
 1151SOL    MW4 4713   3.388   2.274   1.862 -0.0925 -0.4995  0.2360
 1152SOL     OW 4714   3.190   2.412   1.970 -0.1422  0.6057 -0.4493
 1152SOL    HW2 4715   3.196   2.421   2.065 -1.4167  1.3306 -0.4341
 1152SOL    HW3 4716   3.191   2.502   1.937 -2.8766  0.4977 -0.9127
 1152SOL    MW4 4717   3.191   2.425   1.978 -0.6711  0.6874 -0.5084
 1153SOL     OW 4718   3.176   2.674   1.893  0.2754  0.0977 -0.0619
 1153SOL    HW2 4719   3.092   2.704   1.927  0.4072 -0.0711  0.4271
 1153SOL    HW3 4720   3.164   2.668   1.798 -0.0579  0.7139 -0.0563
 1153SOL    MW4 4721   3.163   2.677   1.885  0.2487  0.1566  0.0033
 1154SOL     OW 4722   3.404   2.787   2.027  0.0124  0.1157 -0.2251
 1154SOL    HW2 4723   3.403   2.782   2.122 -1.0548 -1.2378 -0.3005
 1154SOL    HW3 4724   3.318   2.755   2.000 -0.5626  2.6799 -1.5486
 1154SOL    MW4 4725   3.392   2.782   2.036 -0.2041  0.2754 -0.4098
 1155SOL     OW 4726   3.364   3.060   1.893 -0.1042  0.0532  0.5270
 1155SOL    HW2 4727   3.425   3.120   1.937 -0.2440  0.7785 -0.2333
 1155SOL    HW3 4728   3.364   2.981   1.946  2.1074 -0.2451  0.1343
 1155SOL    MW4 4729   3.372   3.058   1.906  0.1690  0.1097  0.3749
 1156SOL     OW 4730   3.109   3.185   1.999  0.5385 -0.7821 -0.3951
 1156SOL    HW2 4731   3.111   3.275   1.967 -0.1629 -0.9155 -0.8159
 1156SOL    HW3 4732   3.193   3.147   1.971  0.6904 -0.3630 -0.5033
 1156SOL    MW4 4733   3.121   3.191   1.991  0.4661 -0.7443 -0.4649
 1157SOL     OW 4734   3.125   3.446   1.918 -0.1710  0.4026  0.1475
 1157SOL    HW2 4735   3.192   3.511   1.937 -0.4181  0.5401  0.5519
 1157SOL    HW3 4736   3.134   3.428   1.824 -0.3751  1.3155 -0.0462
 1157SOL    MW4 4737   3.135   3.452   1.908 -0.2306  0.5410  0.1755
 1158SOL     OW 4738   3.348   3.590   1.972  0.2031 -0.3696 -0.1383
 1158SOL    HW2 4739   3.427   3.549   1.936  0.8322 -0.8753  1.7184
 1158SOL    HW3 4740   3.349   3.680   1.939  1.1144 -0.6236 -0.8004
 1158SOL    MW4 4741   3.359   3.596   1.963  0.4063 -0.4697  0.0193
 1159SOL     OW 4742   3.352   3.856   1.881 -0.0151  0.4053 -0.4278
 1159SOL    HW2 4743   3.273   3.906   1.902  0.7652  1.1994  0.6749
 1159SOL    HW3 4744   3.357   3.859   1.786 -1.5252  0.0187 -0.5280
 1159SOL    MW4 4745   3.342   3.863   1.871 -0.1116  0.4590 -0.2955
 1160SOL     OW 4746   3.133   3.997   1.945  0.4719 -0.1483 -0.5128
 1160SOL    HW2 4747   3.151   3.982   2.038 -0.4720  1.0357 -0.1392
 1160SOL    HW3 4748   3.064   3.935   1.923  1.2455 -0.9836 -0.6358
 1160SOL    MW4 4749   3.126   3.987   1.954  0.4492 -0.1023 -0.4798
 1161SOL     OW 4750   3.116   4.278   1.856  0.3286 -0.0864  0.3166
 1161SOL    HW2 4751   3.106   4.192   1.896 -0.9221 -1.0025 -1.8879
 1161SOL    HW3 4752   3.050   4.332   1.899 -1.8623 -1.3909 -1.3225
 1161SOL    MW4 4753   3.106   4.274   1.867 -0.1254 -0.3800 -0.1904
 1162SOL     OW 4754   3.339   4.406   1.977 -0.0947 -0.1524 -0.2622
 1162SOL    HW2 4755   3.414   4.364   1.934  0.0998  1.7097 -1.7892
 1162SOL    HW3 4756   3.262   4.364   1.939  0.1376 -1.3227  0.5312
 1162SOL    MW4 4757   3.339   4.395   1.967 -0.0384 -0.0610 -0.3589
 1163SOL     OW 4758   3.768   0.006   1.885 -0.7585  0.2014 -0.1303
 1163SOL    HW2 4759   3.754  -0.079   1.926 -0.7029  0.3168  0.1316
 1163SOL    HW3 4760   3.699   0.062   1.923  1.6162  1.3187  2.7194
 1163SOL    MW4 4761   3.757   0.002   1.896 -0.4377  0.3638  0.2801
 1164SOL     OW 4762   3.570   0.162   2.010  0.0866  0.5177 -0.5209
 1164SOL    HW2 4763   3.579   0.137   2.102  0.9618 -0.9842 -0.9987
 1164SOL    HW3 4764   3.496   0.111   1.978 -1.2674  2.2578 -0.2600
 1164SOL    MW4 4765   3.562   0.152   2.018  0.0231  0.5491 -0.5496
 1165SOL     OW 4766   3.576   0.400   1.878  0.5730  0.1529  0.5808
 1165SOL    HW2 4767   3.566   0.311   1.914  0.5072 -0.5725 -1.1508
 1165SOL    HW3 4768   3.596   0.385   1.785  0.5820  1.9612  0.2893
 1165SOL    MW4 4769   3.577   0.386   1.870  0.5653  0.2958  0.3139
 1166SOL     OW 4770   3.837   0.513   1.997 -0.1850 -0.6421 -0.7614
 1166SOL    HW2 4771   3.847   0.593   1.946 -0.0110 -0.0668  0.1586
 1166SOL    HW3 4772   3.747   0.486   1.980 -0.3702 -0.0356 -0.7842
 1166SOL    MW4 4773   3.826   0.520   1.988 -0.1867 -0.4862 -0.6429
 1167SOL     OW 4774   3.848   0.755   1.854 -0.1511 -0.0671  0.1381
 1167SOL    HW2 4775   3.764   0.796   1.878  0.6547  1.5184  0.3293
 1167SOL    HW3 4776   3.848   0.753   1.759 -0.3414  0.0662  0.1355
 1167SOL    MW4 4777   3.837   0.760   1.845 -0.0699  0.1596  0.1630
 1168SOL     OW 4778   3.616   0.879   1.943  0.1456 -0.5462 -0.3512
 1168SOL    HW2 4779   3.614   0.970   1.912  1.0593  0.0487  1.2569
 1168SOL    HW3 4780   3.525   0.850   1.939 -0.5651  1.2807  1.4863
 1168SOL    MW4 4781   3.604   0.887   1.938  0.1724 -0.2267  0.1035
 1169SOL     OW 4782   3.623   1.150   1.863 -0.2989  0.5062 -0.0344
 1169SOL    HW2 4783   3.535   1.154   1.899 -0.3311 -0.5656  0.0144
 1169SOL    HW3 4784   3.610   1.138   1.769 -0.2181 -1.3045  0.1671
 1169SOL    MW4 4785   3.610   1.149   1.856 -0.2925  0.1260 -0.0013
 1170SOL     OW 4786   3.846   1.281   1.920 -0.2678  0.2847 -0.6765
 1170SOL    HW2 4787   3.839   1.288   2.015  0.7374  1.7144 -0.6873
 1170SOL    HW3 4788   3.762   1.245   1.892 -0.5054 -0.3078  0.7673
 1170SOL    MW4 4789   3.834   1.277   1.928 -0.1669  0.3953 -0.4873
 1171SOL     OW 4790   3.834   1.541   1.839  0.5071  0.1511  0.4999
 1171SOL    HW2 4791   3.904   1.586   1.885  0.0464 -0.9666  2.3418
 1171SOL    HW3 4792   3.839   1.450   1.870 -1.4173 -0.0645  0.2739
 1171SOL    MW4 4793   3.844   1.535   1.849  0.1926 -0.0249  0.7132
 1172SOL     OW 4794   3.630   1.644   1.983 -0.5198 -0.0267  0.7125
 1172SOL    HW2 4795   3.610   1.725   1.938 -1.1343 -0.4453  0.2302
 1172SOL    HW3 4796   3.706   1.609   1.937 -1.0430 -0.3691  0.1030
 1172SOL    MW4 4797   3.638   1.650   1.971 -0.6697 -0.1271  0.5685
 1173SOL     OW 4798   3.569   1.888   1.875  0.3672  0.0895  0.3983
 1173SOL    HW2 4799   3.653   1.908   1.916  1.1120 -0.0579 -1.0361
 1173SOL    HW3 4800   3.580   1.914   1.783 -2.2366  3.1999  0.8557
 1173SOL    MW4 4801   3.581   1.894   1.868  0.1221  0.4805  0.2695
 1174SOL     OW 4802   3.797   1.979   1.996  0.0766 -0.3552 -0.3721
 1174SOL    HW2 4803   3.782   1.999   2.088  2.4228  0.1683 -0.0729
 1174SOL    HW3 4804   3.814   2.065   1.956  1.2014 -0.7868 -0.8484
 1174SOL    MW4 4805   3.797   1.993   2.003  0.5345 -0.3430 -0.3955
 1175SOL     OW 4806   3.811   2.279   1.880  0.2786 -0.3523 -0.0185
 1175SOL    HW2 4807   3.895   2.318   1.901  0.9682 -1.9632  0.3341
 1175SOL    HW3 4808   3.752   2.309   1.950  1.1445 -1.0582  1.0376
 1175SOL    MW4 4809   3.814   2.288   1.892  0.4838 -0.6583  0.1673
 1176SOL     OW 4810   3.589   2.394   2.012 -0.5522  0.2667 -0.0601
 1176SOL    HW2 4811   3.587   2.481   1.973  1.8924  0.5154  0.3183
 1176SOL    HW3 4812   3.530   2.342   1.957  0.5275  1.3261 -2.2847
 1176SOL    MW4 4813   3.581   2.399   2.000 -0.0873  0.4394 -0.3037
 1177SOL     OW 4814   3.609   2.659   1.894  0.0809  0.1957 -0.0442
 1177SOL    HW2 4815   3.688   2.709   1.918  0.2257 -0.8879  1.8377
 1177SOL    HW3 4816   3.538   2.705   1.938 -0.2118  0.5396 -0.8629
 1177SOL    MW4 4817   3.610   2.672   1.903  0.0615  0.0978  0.0961
 1178SOL     OW 4818   3.817   2.836   1.978  0.1847  0.7736 -0.2396
 1178SOL    HW2 4819   3.815   2.827   2.073 -0.8071  0.8089 -0.2528
 1178SOL    HW3 4820   3.831   2.929   1.962  0.5307  0.7404 -0.1258
 1178SOL    MW4 4821   3.819   2.847   1.988  0.0994  0.7739 -0.2264
 1179SOL     OW 4822   3.852   3.096   1.896 -0.3035 -0.1077 -0.1718
 1179SOL    HW2 4823   3.765   3.105   1.934  0.2386  0.4246  0.9785
 1179SOL    HW3 4824   3.839   3.106   1.802 -1.5004 -0.2085 -0.0245
 1179SOL    MW4 4825   3.839   3.098   1.888 -0.3898 -0.0508 -0.0006
 1180SOL     OW 4826   3.601   3.179   1.992  0.0336 -0.1812 -0.1189
 1180SOL    HW2 4827   3.582   3.190   2.086  1.6561  0.2426  0.1837
 1180SOL    HW3 4828   3.585   3.266   1.955 -0.8583 -0.4141 -0.2839
 1180SOL    MW4 4829   3.597   3.192   2.000  0.1302 -0.1559 -0.1006
 1181SOL     OW 4830   3.573   3.425   1.891 -0.1348  0.4977 -0.2802
 1181SOL    HW2 4831   3.651   3.470   1.925 -0.6091  0.3092  1.0763
 1181SOL    HW3 4832   3.570   3.449   1.799  1.0563  1.1989 -0.1462
 1181SOL    MW4 4833   3.583   3.434   1.883 -0.0403  0.5653 -0.0836
 1182SOL     OW 4834   3.778   3.579   2.003  0.0511  0.1893 -0.4881
 1182SOL    HW2 4835   3.862   3.550   1.965 -0.6423 -0.9516 -1.1698
 1182SOL    HW3 4836   3.767   3.668   1.970  0.7600  0.1636 -0.8033
 1182SOL    MW4 4837   3.788   3.587   1.993  0.0532  0.0353 -0.6195
 1183SOL     OW 4838   3.749   3.829   1.902  0.1772  0.7964  0.3718
 1183SOL    HW2 4839   3.680   3.891   1.923  1.7736  2.1653  1.6872
 1183SOL    HW3 4840   3.758   3.834   1.807 -0.1230  2.1024  0.4140
 1183SOL    MW4 4841   3.741   3.838   1.892  0.3481  1.1497  0.5510
 1184SOL     OW 4842   3.544   4.036   1.987  0.2331  0.0525 -0.1420
 1184SOL    HW2 4843   3.544   4.036   2.083 -1.4721 -0.9450 -0.1392
 1184SOL    HW3 4844   3.478   3.972   1.962  0.3190  0.6507 -1.9960
 1184SOL    MW4 4845   3.536   4.028   1.996  0.0193 -0.0005 -0.3862
 1185SOL     OW 4846   3.549   4.275   1.863  0.0129  0.0857 -0.0544
 1185SOL    HW2 4847   3.619   4.324   1.907 -1.0282  2.2959 -0.7596
 1185SOL    HW3 4848   3.550   4.189   1.904  0.7155  1.2959  2.5796
 1185SOL    MW4 4849   3.558   4.270   1.875 -0.0317  0.5374  0.2003
 1186SOL     OW 4850   3.774   4.410   1.996  0.1996 -0.1960  0.0550
 1186SOL    HW2 4851   3.793   4.404   2.090  0.5468  2.2206  0.1877
 1186SOL    HW3 4852   3.838   4.353   1.954  1.7313  0.6682  1.1445
 1186SOL    MW4 4853   3.785   4.402   2.003  0.4473  0.2365  0.2162
 1187SOL     OW 4854   4.227   4.627   1.876 -0.0119 -0.0062 -0.1816
 1187SOL    HW2 4855   4.163   4.674   1.930 -0.5543  0.0412 -0.8610
 1187SOL    HW3 4856   4.311   4.666   1.901 -0.4402  1.2479 -0.6387
 1187SOL    MW4 4857   4.230   4.639   1.886 -0.1402  0.1655 -0.3316
 1188SOL     OW 4858   4.024   0.098   1.988 -0.2580 -0.0434 -0.1942
 1188SOL    HW2 4859   4.032   0.104   2.083 -0.0413 -0.7014 -0.1716
 1188SOL    HW3 4860   3.935   0.065   1.973 -0.7394  1.2463 -0.2627
 1188SOL    MW4 4861   4.013   0.095   1.999 -0.2928  0.0400 -0.2005
 1189SOL     OW 4862   4.041   0.346   1.874 -0.4125 -0.2179  0.1680
 1189SOL    HW2 4863   4.038   0.267   1.927 -0.2065  0.3914  1.1072
 1189SOL    HW3 4864   3.962   0.394   1.897 -0.4831 -0.0971 -0.3141
 1189SOL    MW4 4865   4.030   0.342   1.884 -0.3948 -0.1216  0.2283
 1190SOL     OW 4866   4.276   0.485   1.953 -0.0063  0.1345 -0.4558
 1190SOL    HW2 4867   4.268   0.470   2.047 -0.8271  0.9709 -0.3822
 1190SOL    HW3 4868   4.196   0.447   1.916  0.2184 -0.0102 -0.7884
 1190SOL    MW4 4869   4.264   0.478   1.960 -0.0849  0.2258 -0.4900
 1191SOL     OW 4870   4.268   0.741   1.882 -0.2728  0.4999 -0.3981
 1191SOL    HW2 4871   4.265   0.649   1.908  1.8836  0.3680 -0.5811
 1191SOL    HW3 4872   4.256   0.740   1.787  1.9967  0.2174 -0.7027
 1191SOL    MW4 4873   4.266   0.729   1.873  0.3109  0.4452 -0.4623
 1192SOL     OW 4874   4.049   0.858   2.004 -0.2943  0.0607 -0.2760
 1192SOL    HW2 4875   4.127   0.812   1.973  0.9177  1.1242  1.1580
 1192SOL    HW3 4876   3.979   0.829   1.945  1.1428 -1.0233 -1.4703
 1192SOL    MW4 4877   4.050   0.848   1.992  0.0558  0.0580 -0.2443
 1193SOL     OW 4878   4.043   1.104   1.865 -0.0449 -0.3565 -0.1823
 1193SOL    HW2 4879   4.040   1.024   1.918  0.2860 -0.9860 -1.0995
 1193SOL    HW3 4880   3.975   1.159   1.902 -0.7067 -1.3182  0.0677
 1193SOL    MW4 4881   4.034   1.100   1.877 -0.0887 -0.5665 -0.2704
 1194SOL     OW 4882   4.283   1.255   1.888 -0.1844  0.0374  0.0696
 1194SOL    HW2 4883   4.281   1.263   1.983 -1.9210  0.0074  0.0639
 1194SOL    HW3 4884   4.220   1.186   1.869 -0.8031  0.9192 -1.1643
 1194SOL    MW4 4885   4.274   1.247   1.898 -0.4954  0.1497 -0.0939
 1195SOL     OW 4886   4.270   1.523   1.839 -0.4116  0.5773 -0.3857
 1195SOL    HW2 4887   4.265   1.428   1.850 -0.5927  0.6339  0.0288
 1195SOL    HW3 4888   4.258   1.537   1.745 -1.8408  0.2872 -0.2549
 1195SOL    MW4 4889   4.268   1.512   1.828 -0.6237  0.5466 -0.3136
 1196SOL     OW 4890   4.043   1.683   1.956 -0.2008 -0.1645  0.2311
 1196SOL    HW2 4891   4.035   1.656   2.048  0.2723 -0.1322  0.2813
 1196SOL    HW3 4892   4.130   1.655   1.930 -0.7408 -1.1409 -0.5352
 1196SOL    MW4 4893   4.053   1.676   1.965 -0.2098 -0.2891  0.1366
 1197SOL     OW 4894   4.108   1.916   1.838  0.8090 -0.1984  0.4514
 1197SOL    HW2 4895   4.077   1.843   1.891  0.4442 -0.1798  0.2647
 1197SOL    HW3 4896   4.077   1.897   1.750  0.2706  0.4260  0.4941
 1197SOL    MW4 4897   4.099   1.904   1.834  0.6895 -0.1136  0.4323
 1198SOL     OW 4898   4.331   2.009   1.979  0.1244 -0.0630 -0.2737
 1198SOL    HW2 4899   4.320   2.013   2.074 -0.0005 -0.6018 -0.2615
 1198SOL    HW3 4900   4.244   1.986   1.946  0.4334 -1.0384 -0.4272
 1198SOL    MW4 4901   4.318   2.006   1.987  0.1483 -0.2630 -0.2923
 1199SOL     OW 4902   4.286   2.292   1.931  0.4752  0.3150 -0.4264
 1199SOL    HW2 4903   4.300   2.199   1.943 -0.9108  0.3716  1.8113
 1199SOL    HW3 4904   4.367   2.333   1.963  0.1055  0.0094  0.9145
 1199SOL    MW4 4905   4.299   2.285   1.937  0.2437  0.2823  0.0458
 1200SOL     OW 4906   4.036   2.434   1.973  0.3231 -0.2956  0.4784
 1200SOL    HW2 4907   4.022   2.435   2.068 -0.5090 -0.6592  0.3595
 1200SOL    HW3 4908   4.119   2.387   1.962  0.5630 -0.0143  1.0401
 1200SOL    MW4 4909   4.045   2.428   1.984  0.2456 -0.3066  0.5368
 1201SOL     OW 4910   4.035   2.699   1.863 -0.0962  0.1134  0.1619
 1201SOL    HW2 4911   4.024   2.609   1.894  1.7925 -0.0457  0.4762
 1201SOL    HW3 4912   3.968   2.749   1.908 -0.1891 -0.8891  1.1647
 1201SOL    MW4 4913   4.025   2.694   1.873  0.1402 -0.0401  0.3357
 1202SOL     OW 4914   4.234   2.846   1.999  0.8194  0.2298 -0.3639
 1202SOL    HW2 4915   4.229   2.835   2.094  0.6509 -0.2407 -0.4240
 1202SOL    HW3 4916   4.168   2.786   1.965  1.6488 -0.4211 -0.8277
 1202SOL    MW4 4917   4.224   2.837   2.007  0.9069  0.0820 -0.4330
 1203SOL     OW 4918   4.242   3.122   1.900 -0.5058 -0.1666 -0.0071
 1203SOL    HW2 4919   4.166   3.173   1.929 -0.0833  0.1146  0.6195
 1203SOL    HW3 4920   4.227   3.034   1.934  0.0422  0.1879  1.1969
 1203SOL    MW4 4921   4.230   3.117   1.908 -0.3777 -0.0827  0.2346
 1204SOL     OW 4922   4.034   3.280   2.002  0.0483 -0.5433 -0.2549
 1204SOL    HW2 4923   4.026   3.273   2.097 -0.9306  0.7679 -0.2343
 1204SOL    HW3 4924   3.973   3.215   1.968  0.7785 -1.3773  0.0064
 1204SOL    MW4 4925   4.025   3.270   2.010  0.0157 -0.4807 -0.2177
 1205SOL     OW 4926   4.031   3.529   1.889  0.4849 -0.3821 -0.5469
 1205SOL    HW2 4927   4.106   3.568   1.933 -0.0555 -1.8624  1.8048
 1205SOL    HW3 4928   4.029   3.439   1.921 -2.3355 -0.3548 -0.4936
 1205SOL    MW4 4929   4.041   3.522   1.899  0.0415 -0.5739 -0.2296
 1206SOL     OW 4930   4.228   3.665   2.010  0.1375 -0.5354 -0.2277
 1206SOL    HW2 4931   4.223   3.756   1.980  1.0753 -0.1047  0.8968
 1206SOL    HW3 4932   4.299   3.627   1.958 -0.5926 -0.7656 -1.0583
 1206SOL    MW4 4933   4.237   3.672   1.999  0.1650 -0.5090 -0.1889
 1207SOL     OW 4934   4.228   3.912   1.876 -0.3861  0.0689  0.1903
 1207SOL    HW2 4935   4.307   3.945   1.920 -0.1572 -1.0430  0.6115
 1207SOL    HW3 4936   4.259   3.885   1.790 -0.5628  0.8542 -0.1313
 1207SOL    MW4 4937   4.243   3.913   1.871 -0.3786  0.0257  0.2035
 1208SOL     OW 4938   3.971   4.015   1.967  0.0086  0.0166  0.3668
 1208SOL    HW2 4939   4.054   3.983   1.930 -0.5793  1.5491 -2.4873
 1208SOL    HW3 4940   3.908   3.945   1.948 -0.0058  0.2261 -0.3923
 1208SOL    MW4 4941   3.974   4.001   1.959 -0.0708  0.2470 -0.1098
 1209SOL     OW 4942   3.969   4.263   1.875  0.5838 -0.3286 -0.3446
 1209SOL    HW2 4943   4.045   4.307   1.913  0.3573 -0.8181  0.6676
 1209SOL    HW3 4944   3.973   4.174   1.909 -0.8693 -0.1444  0.3168
 1209SOL    MW4 4945   3.980   4.257   1.884  0.3622 -0.3686 -0.1236
 1210SOL     OW 4946   4.215   4.365   1.964  0.1764 -0.7304 -0.2509
 1210SOL    HW2 4947   4.228   4.390   2.055  0.3738 -1.1946 -0.1513
 1210SOL    HW3 4948   4.206   4.448   1.917  0.5541 -0.4773  0.1199
 1210SOL    MW4 4949   4.216   4.379   1.970  0.2518 -0.7586 -0.1888
 1211SOL     OW 4950   0.156   0.031   2.382  0.4612 -0.0565 -0.1024
 1211SOL    HW2 4951   0.179   0.027   2.475 -0.8464 -1.1893  0.1913
 1211SOL    HW3 4952   0.233   0.070   2.340  0.7222  1.2836  1.5606
 1211SOL    MW4 4953   0.169   0.035   2.389  0.3231 -0.0291  0.1557
 1212SOL     OW 4954   4.459   0.152   2.238 -0.1535  0.2705 -0.0389
 1212SOL    HW2 4955   4.528   0.102   2.284  1.6139  2.6172 -0.0369
 1212SOL    HW3 4956   4.463   0.120   2.148  0.4779 -0.0940  0.1093
 1212SOL    MW4 4957   4.469   0.141   2.232  0.1636  0.5320 -0.0191
 1213SOL     OW 4958   0.009   0.391   2.347 -0.2584  0.2300 -0.1940
 1213SOL    HW2 4959   0.091   0.430   2.318 -0.6536  0.5506 -0.8920
 1213SOL    HW3 4960   0.008   0.304   2.308 -0.5344  0.4552 -0.6883
 1213SOL    MW4 4961   0.019   0.384   2.338 -0.3470  0.3020 -0.3512
 1214SOL     OW 4962   0.257   0.492   2.254 -0.1349  0.3409 -0.0267
 1214SOL    HW2 4963   0.346   0.466   2.281 -0.3803 -0.2237  0.2478
 1214SOL    HW3 4964   0.258   0.484   2.159  0.2865  0.8936 -0.0672
 1214SOL    MW4 4965   0.269   0.487   2.245 -0.1117  0.3393  0.0043
 1215SOL     OW 4966   0.239   0.774   2.309 -0.1761  0.1267  0.1149
 1215SOL    HW2 4967   0.248   0.786   2.404 -0.7888 -1.0851  0.3352
 1215SOL    HW3 4968   0.256   0.680   2.295  0.6274  0.4346 -1.0642
 1215SOL    MW4 4969   0.242   0.763   2.320 -0.1509  0.0073 -0.0119
 1216SOL     OW 4970   4.488   0.893   2.226  0.0432 -0.1086 -0.1494
 1216SOL    HW2 4971   4.566   0.848   2.260 -0.0155  0.2399  0.4536
 1216SOL    HW3 4972   4.502   0.895   2.131 -0.4249 -2.2495 -0.2784
 1216SOL    MW4 4973   4.500   0.887   2.218 -0.0263 -0.3451 -0.0868
 1217SOL     OW 4974   0.019   1.167   2.306  0.1414  0.4832  0.0866
 1217SOL    HW2 4975   0.000   1.173   2.400  1.2429  0.0412  0.3498
 1217SOL    HW3 4976   0.030   1.073   2.290  0.4234  0.5940 -0.3843
 1217SOL    MW4 4977   0.018   1.156   2.316  0.3239  0.4395  0.0594
 1218SOL     OW 4978   0.245   1.307   2.237  0.2741 -0.0795  0.4187
 1218SOL    HW2 4979   0.174   1.258   2.279  1.9453 -2.8506  0.0719
 1218SOL    HW3 4980   0.237   1.286   2.144  0.4330  1.0989  0.1257
 1218SOL    MW4 4981   0.235   1.298   2.230  0.5155 -0.2896  0.3345
 1219SOL     OW 4982   0.222   1.571   2.340 -0.1236 -0.0298 -0.0801
 1219SOL    HW2 4983   0.215   1.543   2.431 -0.7980  0.2250 -0.0513
 1219SOL    HW3 4984   0.230   1.490   2.290  0.8159 -0.1422  0.2585
 1219SOL    MW4 4985   0.222   1.557   2.345 -0.0886 -0.0111 -0.0317
 1220SOL     OW 4986   0.007   1.717   2.254  0.1316 -0.0080  0.2983
 1220SOL    HW2 4987   0.007   1.798   2.305  0.5213  1.0297 -1.3140
 1220SOL    HW3 4988   0.072   1.662   2.297  0.1049  0.6647  1.2126
 1220SOL    MW4 4989   0.016   1.721   2.267  0.1793  0.2176  0.2062
 1221SOL     OW 4990   0.041   1.954   2.402 -0.1580  0.4069 -0.2103
 1221SOL    HW2 4991  -0.044   1.990   2.375 -1.1949 -1.8801 -0.0553
 1221SOL    HW3 4992   0.103   1.991   2.340 -1.7453 -0.5285 -2.3954
 1221SOL    MW4 4993   0.038   1.964   2.390 -0.5042 -0.0184 -0.4783
 1222SOL     OW 4994   0.214   2.097   2.223  0.0086  0.0866  0.2316
 1222SOL    HW2 4995   0.296   2.062   2.260  1.5399  1.3651 -1.8798
 1222SOL    HW3 4996   0.219   2.077   2.130 -1.5463  1.2643 -0.1239
 1222SOL    MW4 4997   0.225   2.090   2.216  0.0055  0.4106 -0.0939
 1223SOL     OW 4998   0.221   2.351   2.366  0.0659  0.2153  0.1491
 1223SOL    HW2 4999   0.232   2.337   2.460  0.4170  0.8042  0.1984
 1223SOL    HW3 5000   0.204   2.264   2.330 -1.0846  0.1318  0.8936
 1223SOL    MW4 5001   0.220   2.338   2.373 -0.0396  0.2820  0.2539
 1224SOL     OW 5002   4.467   2.466   2.279  0.0835  0.1843 -0.5915
 1224SOL    HW2 5003   4.463   2.556   2.310  0.3090  0.3643 -1.0873
 1224SOL    HW3 5004   4.554   2.436   2.306  0.1599  0.2424 -0.7712
 1224SOL    MW4 5005   4.478   2.474   2.287  0.1235  0.2158 -0.6807
 1225SOL     OW 5006   4.490   2.718   2.406  0.0556  0.1351 -0.4178
 1225SOL    HW2 5007   4.493   2.724   2.502 -1.9689  0.3397 -0.3489
 1225SOL    HW3 5008   4.568   2.764   2.377 -0.0614  1.3319  1.0994
 1225SOL    MW4 5009   4.501   2.725   2.415 -0.2265  0.3202 -0.2089
 1226SOL     OW 5010   0.227   2.836   2.277  0.1868  0.1674 -0.5582
 1226SOL    HW2 5011   0.309   2.793   2.299  1.2057  2.2651 -0.1445
 1226SOL    HW3 5012   0.217   2.823   2.182  0.3358 -1.1742 -0.3966
 1226SOL    MW4 5013   0.237   2.828   2.267  0.3409  0.2673 -0.4823
 1227SOL     OW 5014   0.221   3.081   2.390 -0.1336 -0.1909  0.4457
 1227SOL    HW2 5015   0.154   3.127   2.340 -0.2001 -0.1882  0.5359
 1227SOL    HW3 5016   0.225   2.994   2.351  1.1385  0.3978 -0.7821
 1227SOL    MW4 5017   0.213   3.075   2.378  0.0254 -0.1130  0.2954
 1228SOL     OW 5018   4.482   3.212   2.274  0.0367 -0.2558  0.0293
 1228SOL    HW2 5019   4.488   3.304   2.300 -1.0330 -0.0920 -0.2425
 1228SOL    HW3 5020   4.459   3.216   2.181 -0.4695 -0.7848  0.1274
 1228SOL    MW4 5021   4.480   3.225   2.265 -0.1712 -0.3042  0.0067
 1229SOL     OW 5022   4.465   3.494   2.344  0.3490  0.7814  0.2849
 1229SOL    HW2 5023   4.482   3.485   2.438 -0.2352  0.3837  0.3525
 1229SOL    HW3 5024   4.387   3.549   2.339 -0.1187  0.0947  0.0517
 1229SOL    MW4 5025   4.457   3.500   2.356  0.2103  0.6382  0.2630
 1230SOL     OW 5026   0.198   3.638   2.258  0.1760  0.1829  0.3682
 1230SOL    HW2 5027   0.278   3.598   2.292 -0.0628 -0.3302  0.3303
 1230SOL    HW3 5028   0.127   3.589   2.301 -0.1417 -1.0456 -1.4969
 1230SOL    MW4 5029   0.199   3.626   2.268  0.1026 -0.0467  0.1171
 1231SOL     OW 5030   0.209   3.901   2.352 -0.1084 -0.6117 -0.0071
 1231SOL    HW2 5031   0.130   3.935   2.310  0.7375 -0.1085 -1.2409
 1231SOL    HW3 5032   0.207   3.807   2.334 -0.3323 -0.5716 -0.2077
 1231SOL    MW4 5033   0.198   3.893   2.344 -0.0263 -0.5400 -0.1962
 1232SOL     OW 5034   4.463   4.028   2.271  0.1698 -0.1035 -0.0188
 1232SOL    HW2 5035   4.467   4.117   2.307  1.3184 -0.1537 -0.0145
 1232SOL    HW3 5036   4.475   4.039   2.177  1.1102 -0.3235  0.0731
 1232SOL    MW4 5037   4.465   4.041   2.264  0.4458 -0.1392 -0.0060
 1233SOL     OW 5038   4.477   4.303   2.367  0.6052  0.1047 -0.6633
 1233SOL    HW2 5039   4.483   4.325   2.460  1.3526 -2.5193 -0.0416
 1233SOL    HW3 5040   4.558   4.336   2.329  1.3188 -0.7558  0.0805
 1233SOL    MW4 5041   4.488   4.310   2.374  0.7982 -0.3548 -0.4830
 1234SOL     OW 5042   0.212   4.437   2.272 -0.1450  0.0657  0.1500
 1234SOL    HW2 5043   0.283   4.385   2.309 -1.2056 -0.9489  0.7631
 1234SOL    HW3 5044   0.207   4.514   2.328  0.8738  0.4511 -0.2679
 1234SOL    MW4 5045   0.221   4.440   2.284 -0.1505 -0.0172  0.1757
 1235SOL     OW 5046   0.650   4.657   2.385  0.2945 -0.3524 -0.1050
 1235SOL    HW2 5047   0.672   4.682   2.474 -0.4096  1.6945 -0.4625
 1235SOL    HW3 5048   0.719   4.697   2.331  0.5448 -1.3086 -0.5018
 1235SOL    MW4 5049   0.662   4.666   2.389  0.2347 -0.2085 -0.2048
 1236SOL     OW 5050   0.415   0.143   2.287 -0.1041  0.0233 -0.2664
 1236SOL    HW2 5051   0.483   0.084   2.319 -1.4726 -1.4247  0.0547
 1236SOL    HW3 5052   0.426   0.142   2.192  1.2906  1.0174 -0.1314
 1236SOL    MW4 5053   0.426   0.135   2.279 -0.1006 -0.0366 -0.2062
 1237SOL     OW 5054   0.494   0.394   2.375 -0.0558 -0.1317  0.2047
 1237SOL    HW2 5055   0.460   0.397   2.464 -0.3064  0.3188  0.0974
 1237SOL    HW3 5056   0.465   0.309   2.341 -2.8339  1.0447 -0.5527
 1237SOL    MW4 5057   0.485   0.383   2.382 -0.4553  0.0829  0.0908
 1238SOL     OW 5058   0.665   0.543   2.212  0.5616  0.8510  0.1186
 1238SOL    HW2 5059   0.688   0.627   2.251 -0.5508  0.4693  1.6264
 1238SOL    HW3 5060   0.607   0.502   2.276 -0.8381 -0.0306 -1.6830
 1238SOL    MW4 5061   0.661   0.549   2.226  0.2301  0.6844  0.0799
 1239SOL     OW 5062   0.709   0.778   2.346 -0.8231  0.3844 -0.3776
 1239SOL    HW2 5063   0.704   0.771   2.442 -1.7048  1.0063 -0.3695
 1239SOL    HW3 5064   0.637   0.836   2.323 -0.1344  0.8615 -1.3561
 1239SOL    MW4 5065   0.699   0.785   2.356 -0.8486  0.5294 -0.5054
 1240SOL     OW 5066   0.478   0.875   2.226  0.4556 -0.5902  0.6578
 1240SOL    HW2 5067   0.393   0.839   2.250  0.7340 -0.1168  2.4197
 1240SOL    HW3 5068   0.471   0.892   2.132 -0.9347 -1.7724  0.5307
 1240SOL    MW4 5069   0.466   0.873   2.217  0.3089 -0.6837  0.8736
 1241SOL     OW 5070   0.451   1.158   2.347 -0.4466 -0.6492 -0.0344
 1241SOL    HW2 5071   0.435   1.072   2.308  0.1858  1.1411 -4.6352
 1241SOL    HW3 5072   0.378   1.212   2.317  0.6513  1.1216  0.3795
 1241SOL    MW4 5073   0.439   1.154   2.338 -0.2183 -0.1793 -0.5867
 1242SOL     OW 5074   0.680   1.333   2.249  0.2541  0.1125 -0.0094
 1242SOL    HW2 5075   0.671   1.426   2.266 -0.0896 -0.0115  0.5001
 1242SOL    HW3 5076   0.606   1.292   2.294 -0.4857 -0.2630 -1.5547
 1242SOL    MW4 5077   0.669   1.340   2.258  0.1112  0.0467 -0.1462
 1243SOL     OW 5078   0.638   1.586   2.298 -0.4789  0.4250 -0.4500
 1243SOL    HW2 5079   0.637   1.574   2.393 -1.1074 -1.9326 -0.7022
 1243SOL    HW3 5080   0.724   1.622   2.279 -0.0606  0.2062  0.9498
 1243SOL    MW4 5081   0.649   1.589   2.308 -0.5067  0.0850 -0.2983
 1244SOL     OW 5082   0.417   1.726   2.183  0.2345  0.2006 -0.1708
 1244SOL    HW2 5083   0.492   1.676   2.215  0.0492 -0.1328 -0.2488
 1244SOL    HW3 5084   0.342   1.689   2.230 -0.0324 -0.2535 -0.9310
 1244SOL    MW4 5085   0.417   1.714   2.193  0.1748  0.0966 -0.2813
 1245SOL     OW 5086   0.439   1.963   2.323  0.1794  0.0501 -0.1544
 1245SOL    HW2 5087   0.514   2.012   2.290  0.5638  0.4446  1.2524
 1245SOL    HW3 5088   0.445   1.877   2.281 -0.3469  1.0928 -2.4331
 1245SOL    MW4 5089   0.449   1.958   2.313  0.1606  0.2398 -0.2694
 1246SOL     OW 5090   0.667   2.099   2.197 -0.4093  0.4372  0.1998
 1246SOL    HW2 5091   0.724   2.044   2.251 -0.4357  0.7975  0.6067
 1246SOL    HW3 5092   0.660   2.181   2.247  1.8973  1.8646 -1.6914
 1246SOL    MW4 5093   0.674   2.103   2.211 -0.1085  0.6731  0.0038
 1247SOL     OW 5094   0.656   2.316   2.354 -0.0617  0.2121  0.5004
 1247SOL    HW2 5095   0.667   2.314   2.449  1.2811  1.9514  0.4120
 1247SOL    HW3 5096   0.739   2.353   2.321 -0.5749 -0.2187 -1.3249
 1247SOL    MW4 5097   0.669   2.321   2.362  0.0477  0.3846  0.2480
 1248SOL     OW 5098   0.437   2.478   2.243 -0.3031  0.3365  0.4696
 1248SOL    HW2 5099   0.515   2.431   2.273 -1.2964 -1.8890 -0.3173
 1248SOL    HW3 5100   0.364   2.434   2.287 -1.3063  0.8075 -0.6878
 1248SOL    MW4 5101   0.438   2.466   2.253 -0.5665  0.1049  0.2129
 1249SOL     OW 5102   0.455   2.710   2.379 -0.3331  0.4597 -0.4066
 1249SOL    HW2 5103   0.439   2.693   2.472 -1.9314  0.1391 -0.7092
 1249SOL    HW3 5104   0.448   2.624   2.338 -1.3993  0.8378 -1.0432
 1249SOL    MW4 5105   0.452   2.696   2.386 -0.6846  0.4675 -0.5305
 1250SOL     OW 5106   0.662   2.846   2.255 -0.4817 -0.1526 -0.0582
 1250SOL    HW2 5107   0.741   2.801   2.287 -0.1004  0.6951  0.2082
 1250SOL    HW3 5108   0.590   2.800   2.298 -0.2164 -1.7049 -1.2325
 1250SOL    MW4 5109   0.663   2.834   2.265 -0.3964 -0.2458 -0.1779
 1251SOL     OW 5110   0.661   3.096   2.403 -0.3042 -0.2699  0.5167
 1251SOL    HW2 5111   0.581   3.134   2.367 -0.6589 -0.4465  1.1077
 1251SOL    HW3 5112   0.662   3.007   2.368  0.2347  0.0993 -0.4157
 1251SOL    MW4 5113   0.650   3.089   2.394 -0.2799 -0.2449  0.4716
 1252SOL     OW 5114   0.438   3.229   2.293 -0.5422 -0.1619 -0.2832
 1252SOL    HW2 5115   0.366   3.172   2.320 -1.0910  0.1163 -1.1597
 1252SOL    HW3 5116   0.434   3.230   2.197  0.6429 -0.1660 -0.3439
 1252SOL    MW4 5117   0.428   3.222   2.284 -0.4582 -0.1256 -0.4067
 1253SOL     OW 5118   0.399   3.495   2.362 -0.4423  0.3802 -0.3144
 1253SOL    HW2 5119   0.485   3.536   2.358 -1.3445  2.3209 -0.0727
 1253SOL    HW3 5120   0.416   3.402   2.345  1.5225  0.9519 -1.6046
 1253SOL    MW4 5121   0.413   3.488   2.359 -0.3021  0.7117 -0.4528
 1254SOL     OW 5122   0.633   3.645   2.290 -0.0002 -0.0546  0.1215
 1254SOL    HW2 5123   0.648   3.736   2.315 -2.2797  0.6342 -0.9207
 1254SOL    HW3 5124   0.651   3.642   2.196  0.4771 -0.7756  0.2323
 1254SOL    MW4 5125   0.637   3.657   2.281 -0.2380 -0.0589 -0.0014
 1255SOL     OW 5126   0.653   3.897   2.371 -0.3992  0.5143  0.0866
 1255SOL    HW2 5127   0.654   3.915   2.465 -1.7795 -1.4517  0.5191
 1255SOL    HW3 5128   0.578   3.945   2.338 -0.3662  0.5986  0.1343
 1255SOL    MW4 5129   0.643   3.906   2.379 -0.5770  0.2663  0.1500
 1256SOL     OW 5130   0.441   4.051   2.290  0.3968 -0.4554 -0.0122
 1256SOL    HW2 5131   0.353   4.016   2.303 -0.6774  1.3874 -2.0928
 1256SOL    HW3 5132   0.451   4.057   2.195  2.0259  1.1646  0.2322
 1256SOL    MW4 5133   0.431   4.047   2.279  0.4700  0.0014 -0.2544
 1257SOL     OW 5134   0.431   4.310   2.379  0.3422  0.3144  0.1095
 1257SOL    HW2 5135   0.517   4.349   2.363  1.6648 -1.6536  2.1263
 1257SOL    HW3 5136   0.445   4.216   2.371 -1.6008 -0.0460  0.6031
 1257SOL    MW4 5137   0.444   4.303   2.376  0.2604  0.0072  0.4408
 1258SOL     OW 5138   0.666   4.402   2.277 -0.2988 -0.0170  0.0425
 1258SOL    HW2 5139   0.660   4.493   2.307  0.8904  0.0508  0.1247
 1258SOL    HW3 5140   0.664   4.408   2.182 -1.4456 -0.0119  0.0630
 1258SOL    MW4 5141   0.665   4.415   2.269 -0.2932 -0.0072  0.0560
 1259SOL     OW 5142   1.115   0.012   2.347  0.2183  0.0275 -0.4035
 1259SOL    HW2 5143   1.114   0.009   2.443  1.1534 -0.9575 -0.4215
 1259SOL    HW3 5144   1.032   0.054   2.324  0.5452  1.4178  0.8698
 1259SOL    MW4 5145   1.104   0.017   2.357  0.3848  0.0806 -0.2377
 1260SOL     OW 5146   0.875   0.131   2.260 -0.2090 -0.3144  0.0151
 1260SOL    HW2 5147   0.865   0.221   2.290 -0.4725 -0.1482 -0.5728
 1260SOL    HW3 5148   0.886   0.137   2.165  1.0274 -0.8146  0.1137
 1260SOL    MW4 5149   0.875   0.144   2.252 -0.0806 -0.3584 -0.0496
 1261SOL     OW 5150   0.866   0.399   2.340  0.5056 -0.0331 -0.3946
 1261SOL    HW2 5151   0.947   0.442   2.312  0.2598  1.0245  0.5273
 1261SOL    HW3 5152   0.797   0.443   2.291  0.3770 -0.2473 -0.4080
 1261SOL    MW4 5153   0.868   0.410   2.330  0.4562  0.0782 -0.2744
 1262SOL     OW 5154   1.115   0.530   2.313 -0.0934  0.6885 -0.2202
 1262SOL    HW2 5155   1.184   0.465   2.327 -1.5260 -0.9391 -0.4345
 1262SOL    HW3 5156   1.120   0.551   2.220 -0.1633  0.2322 -0.3288
 1262SOL    MW4 5157   1.125   0.524   2.302 -0.2916  0.4135 -0.2627
 1263SOL     OW 5158   1.147   0.794   2.358 -0.4411 -0.0701  0.2369
 1263SOL    HW2 5159   1.064   0.830   2.325  0.5579  0.6556 -1.5615
 1263SOL    HW3 5160   1.140   0.700   2.342  0.2723  0.3367 -2.6897
 1263SOL    MW4 5161   1.135   0.786   2.351 -0.2151  0.0793 -0.3865
 1264SOL     OW 5162   0.912   0.912   2.244  0.2455  0.1075 -0.1393
 1264SOL    HW2 5163   0.906   1.004   2.270  0.5124 -0.7809  3.2911
 1264SOL    HW3 5164   0.834   0.871   2.282  1.0822 -1.4394 -0.0518
 1264SOL    MW4 5165   0.901   0.919   2.252  0.3911 -0.2137  0.3247
 1265SOL     OW 5166   0.919   1.178   2.273  0.3115 -0.0074 -0.5413
 1265SOL    HW2 5167   0.999   1.229   2.268 -0.3858  1.2744  0.9631
 1265SOL    HW3 5168   0.848   1.242   2.260 -0.4995 -0.9295 -0.7436
 1265SOL    MW4 5169   0.920   1.193   2.271  0.1125  0.0401 -0.3693
 1266SOL     OW 5170   1.163   1.293   2.231  0.6817 -0.1516  0.0433
 1266SOL    HW2 5171   1.235   1.233   2.250  0.1192 -0.3407  1.6661
 1266SOL    HW3 5172   1.166   1.305   2.136  1.9001 -1.3487 -0.0832
 1266SOL    MW4 5173   1.173   1.287   2.221  0.7684 -0.3345  0.2406
 1267SOL     OW 5174   1.156   1.549   2.340  0.0134  0.1516  0.1393
 1267SOL    HW2 5175   1.067   1.573   2.316 -0.6717 -1.0714  1.3929
 1267SOL    HW3 5176   1.168   1.460   2.306  1.2115  0.7784 -1.1369
 1267SOL    MW4 5177   1.146   1.541   2.332  0.0813  0.0728  0.1364
 1268SOL     OW 5178   0.904   1.663   2.244 -0.2354  0.5535 -1.0080
 1268SOL    HW2 5179   0.903   1.750   2.284 -1.8452 -0.0269  0.2402
 1268SOL    HW3 5180   0.894   1.680   2.150 -3.3639  1.5960 -0.5271
 1268SOL    MW4 5181   0.903   1.677   2.237 -0.8606  0.6145 -0.7799
 1269SOL     OW 5182   0.858   1.926   2.335 -0.4034  0.4466 -0.6942
 1269SOL    HW2 5183   0.873   1.938   2.429 -1.0691  1.5134 -0.7187
 1269SOL    HW3 5184   0.920   1.985   2.293  0.2308 -0.3894 -0.9374
 1269SOL    MW4 5185   0.868   1.936   2.342 -0.4075  0.4772 -0.7293
 1270SOL     OW 5186   1.114   2.059   2.234  0.1897 -0.3707 -0.2477
 1270SOL    HW2 5187   1.193   2.011   2.262  0.3477  0.3533  0.5702
 1270SOL    HW3 5188   1.123   2.065   2.139  0.4532 -1.4681 -0.3022
 1270SOL    MW4 5189   1.126   2.054   2.225  0.2452 -0.4196 -0.1471
 1271SOL     OW 5190   1.145   2.318   2.318 -0.0477 -0.4995  0.1959
 1271SOL    HW2 5191   1.221   2.364   2.281  1.5737 -1.8860  1.7066
 1271SOL    HW3 5192   1.148   2.232   2.276 -0.6512 -0.6382  0.4434
 1271SOL    MW4 5193   1.156   2.313   2.307  0.0865 -0.7007  0.4280
 1272SOL     OW 5194   0.902   2.403   2.254 -0.4539 -0.2902  0.5687
 1272SOL    HW2 5195   0.986   2.369   2.284 -0.6677 -0.6324  0.7762
 1272SOL    HW3 5196   0.920   2.433   2.165 -0.6384 -2.4256 -0.2201
 1272SOL    MW4 5197   0.916   2.402   2.246 -0.5065 -0.6173  0.4921
 1273SOL     OW 5198   0.895   2.680   2.353  0.1910 -0.2829 -0.4010
 1273SOL    HW2 5199   0.878   2.671   2.447  4.6566  0.6816  0.6018
 1273SOL    HW3 5200   0.891   2.590   2.320 -0.1291 -0.7798  0.9440
 1273SOL    MW4 5201   0.892   2.667   2.361  0.7380 -0.2215 -0.0913
 1274SOL     OW 5202   1.101   2.828   2.303 -0.0622 -0.4122 -0.3455
 1274SOL    HW2 5203   1.179   2.779   2.330  0.2574 -0.2740 -0.9975
 1274SOL    HW3 5204   1.028   2.770   2.324  0.1770 -0.2805  0.8515
 1274SOL    MW4 5205   1.102   2.814   2.309  0.0117 -0.3767 -0.2735
 1275SOL     OW 5206   1.098   3.103   2.352  0.1739 -0.2922  0.4679
 1275SOL    HW2 5207   1.013   3.123   2.313  0.2304 -0.6066  0.1775
 1275SOL    HW3 5208   1.106   3.008   2.344  1.1525 -0.1158 -0.7789
 1275SOL    MW4 5209   1.088   3.093   2.346  0.3104 -0.3102  0.2654
 1276SOL     OW 5210   0.867   3.224   2.264 -0.3429  0.4492 -0.0286
 1276SOL    HW2 5211   0.885   3.310   2.303  1.3069  0.1776 -0.1686
 1276SOL    HW3 5212   0.785   3.196   2.305  0.5381  0.8814  2.0814
 1276SOL    MW4 5213   0.858   3.232   2.275 -0.0090  0.4704  0.2313
 1277SOL     OW 5214   0.872   3.529   2.322 -0.3746  0.0584  0.2664
 1277SOL    HW2 5215   0.884   3.532   2.417 -1.7799  2.6171  0.4169
 1277SOL    HW3 5216   0.783   3.562   2.308 -0.0997 -0.0578 -1.9442
 1277SOL    MW4 5217   0.862   3.534   2.332 -0.5237  0.3805 -0.0052
 1278SOL     OW 5218   1.121   3.631   2.198 -0.2892 -0.6445  0.1061
 1278SOL    HW2 5219   1.202   3.588   2.223 -0.1558 -0.0322  0.7291
 1278SOL    HW3 5220   1.054   3.592   2.254 -0.2925 -0.5962  0.1361
 1278SOL    MW4 5221   1.123   3.620   2.208 -0.2722 -0.5572  0.1922
 1279SOL     OW 5222   1.131   3.871   2.344 -0.5889 -0.5121 -0.0670
 1279SOL    HW2 5223   1.216   3.905   2.315 -1.2808  0.7709 -0.5930
 1279SOL    HW3 5224   1.121   3.788   2.297 -0.6647  0.4440 -1.7712
 1279SOL    MW4 5225   1.141   3.864   2.334 -0.6902 -0.2170 -0.3612
 1280SOL     OW 5226   0.896   4.035   2.278  0.4896  0.1816  0.2752
 1280SOL    HW2 5227   0.975   3.983   2.292  0.5833  0.0538 -0.6689
 1280SOL    HW3 5228   0.825   3.979   2.307  0.6271 -0.3267 -0.3447
 1280SOL    MW4 5229   0.897   4.021   2.283  0.5201  0.0973  0.0691
 1281SOL     OW 5230   0.903   4.292   2.381 -0.0552  0.1306  0.6013
 1281SOL    HW2 5231   0.897   4.204   2.343 -0.9635  0.0378  0.9444
 1281SOL    HW3 5232   0.827   4.338   2.346  0.9013  1.0633 -0.2843
 1281SOL    MW4 5233   0.892   4.286   2.371 -0.0488  0.2418  0.5295
 1282SOL     OW 5234   1.129   4.409   2.273 -0.5824  0.4928  0.0419
 1282SOL    HW2 5235   1.060   4.365   2.323  0.9193 -0.7936  1.0323
 1282SOL    HW3 5236   1.141   4.493   2.316 -1.8472  0.9243 -0.4265
 1282SOL    MW4 5237   1.121   4.414   2.285 -0.5511  0.3800  0.1106
 1283SOL     OW 5238   1.598   4.627   2.369  0.6121  0.6160 -0.2763
 1283SOL    HW2 5239   1.664   4.692   2.345  0.5155  0.5922 -0.6059
 1283SOL    HW3 5240   1.516   4.662   2.334  0.7583 -0.2827 -1.5385
 1283SOL    MW4 5241   1.596   4.640   2.361  0.6187  0.4950 -0.4864
 1284SOL     OW 5242   1.360   0.093   2.275 -0.1140 -0.4171 -0.1056
 1284SOL    HW2 5243   1.357   0.187   2.293  2.0094 -0.3442 -0.0682
 1284SOL    HW3 5244   1.273   0.061   2.301 -0.2603  1.2380  1.5241
 1284SOL    MW4 5245   1.348   0.101   2.281  0.1470 -0.1891  0.1144
 1285SOL     OW 5246   1.346   0.365   2.337  0.1627 -0.1822  0.3222
 1285SOL    HW2 5247   1.350   0.372   2.432 -0.2985  0.2020  0.3177
 1285SOL    HW3 5248   1.418   0.419   2.305 -2.2277  3.1398  0.3442
 1285SOL    MW4 5249   1.356   0.373   2.345 -0.2135  0.3068  0.3245
 1286SOL     OW 5250   1.581   0.500   2.262 -0.0647  0.3417  0.1158
 1286SOL    HW2 5251   1.663   0.455   2.280  1.0089  2.3195  0.4048
 1286SOL    HW3 5252   1.581   0.511   2.167 -0.1272  0.0768  0.0862
 1286SOL    MW4 5253   1.592   0.496   2.251  0.0688  0.5678  0.1500
 1287SOL     OW 5254   1.571   0.741   2.391  0.0967  0.3943 -1.2372
 1287SOL    HW2 5255   1.651   0.789   2.368  1.4091 -1.1049  0.0736
 1287SOL    HW3 5256   1.586   0.652   2.357 -1.0023  0.0937 -0.9488
 1287SOL    MW4 5257   1.584   0.735   2.383  0.1248  0.1568 -1.0262
 1288SOL     OW 5258   1.380   0.876   2.247 -0.3797 -0.2748 -0.0164
 1288SOL    HW2 5259   1.436   0.814   2.294 -0.6739 -0.5585 -0.0396
 1288SOL    HW3 5260   1.292   0.859   2.281 -0.7635 -1.2218 -1.4511
 1288SOL    MW4 5261   1.376   0.866   2.258 -0.4693 -0.4371 -0.2086
 1289SOL     OW 5262   1.381   1.136   2.334 -0.1749 -0.1671 -0.0122
 1289SOL    HW2 5263   1.369   1.129   2.428  0.5609 -0.2741  0.0783
 1289SOL    HW3 5264   1.375   1.046   2.302 -0.0212 -0.1783 -0.0126
 1289SOL    MW4 5265   1.379   1.123   2.342 -0.0573 -0.1825  0.0000
 1290SOL     OW 5266   1.613   1.266   2.247  0.1354 -0.6151  0.2465
 1290SOL    HW2 5267   1.530   1.221   2.263 -1.1249  1.3275 -0.5427
 1290SOL    HW3 5268   1.613   1.284   2.153  0.8938  0.4089  0.4309
 1290SOL    MW4 5269   1.602   1.263   2.237  0.0691 -0.2236  0.1667
 1291SOL     OW 5270   1.582   1.542   2.342  0.0750 -0.1854  0.2028
 1291SOL    HW2 5271   1.671   1.567   2.316 -0.2565  1.5826  0.7099
 1291SOL    HW3 5272   1.574   1.451   2.313  1.9870 -0.3221 -0.0097
 1291SOL    MW4 5273   1.593   1.533   2.335  0.2835  0.0298  0.2415
 1292SOL     OW 5274   1.370   1.671   2.224 -0.3134  0.2940 -0.1223
 1292SOL    HW2 5275   1.450   1.635   2.263 -0.3423  1.7530  1.3784
 1292SOL    HW3 5276   1.300   1.632   2.275 -0.4941  0.0411 -0.5656
 1292SOL    MW4 5277   1.372   1.661   2.236 -0.3412  0.4530  0.0174
 1293SOL     OW 5278   1.369   1.941   2.325  0.1493 -0.2041  0.5029
 1293SOL    HW2 5279   1.442   1.984   2.279  0.9885 -1.5506  0.5688
 1293SOL    HW3 5280   1.370   1.851   2.294 -1.2132 -0.3512  0.8517
 1293SOL    MW4 5281   1.379   1.935   2.315  0.0803 -0.4010  0.5579
 1294SOL     OW 5282   1.573   2.072   2.202  0.1114  0.3773  0.2386
 1294SOL    HW2 5283   1.649   2.018   2.224 -0.4971 -0.8685 -0.6572
 1294SOL    HW3 5284   1.567   2.067   2.107 -0.0400  1.9290  0.1524
 1294SOL    MW4 5285   1.583   2.064   2.193  0.0108  0.4175  0.1092
 1295SOL     OW 5286   1.558   2.304   2.360  0.0992 -0.0563  0.3840
 1295SOL    HW2 5287   1.561   2.274   2.451 -0.6436  1.6514  0.9797
 1295SOL    HW3 5288   1.549   2.223   2.309  0.7478 -1.0526  1.7929
 1295SOL    MW4 5289   1.557   2.289   2.366  0.0869  0.0377  0.6485
 1296SOL     OW 5290   1.357   2.462   2.256  0.0120  0.5851 -0.2336
 1296SOL    HW2 5291   1.434   2.411   2.283  0.7258  1.3757 -0.7702
 1296SOL    HW3 5292   1.348   2.445   2.163 -1.7436 -1.1856  0.2262
 1296SOL    MW4 5293   1.366   2.453   2.247 -0.1254  0.4559 -0.2437
 1297SOL     OW 5294   1.350   2.719   2.357  0.2373  0.2911  0.1101
 1297SOL    HW2 5295   1.419   2.770   2.315 -0.8041  1.6985  0.0768
 1297SOL    HW3 5296   1.357   2.632   2.318  2.1484  0.3372  0.2935
 1297SOL    MW4 5297   1.360   2.714   2.347  0.3520  0.4830  0.1297
 1298SOL     OW 5298   1.579   2.840   2.250 -0.2179 -0.1194  0.3335
 1298SOL    HW2 5299   1.583   2.931   2.281 -2.8332  0.8815 -2.1249
 1298SOL    HW3 5300   1.590   2.847   2.155  0.7640 -2.5237  0.2423
 1298SOL    MW4 5301   1.581   2.853   2.242 -0.4334 -0.3047 -0.0029
 1299SOL     OW 5302   1.549   3.108   2.340 -0.0136  0.0641  0.8734
 1299SOL    HW2 5303   1.547   3.099   2.436  1.6402  1.4265  1.0589
 1299SOL    HW3 5304   1.468   3.154   2.319 -0.0076  0.4603  1.7053
 1299SOL    MW4 5305   1.538   3.113   2.350  0.2053  0.2961  1.0078
 1300SOL     OW 5306   1.314   3.254   2.253  0.0884  0.2134 -0.7207
 1300SOL    HW2 5307   1.244   3.214   2.306  0.8466  0.3315  0.3899
 1300SOL    HW3 5308   1.296   3.224   2.164 -1.7506  0.7717 -0.5568
 1300SOL    MW4 5309   1.303   3.245   2.248 -0.0541  0.3026 -0.5529
 1301SOL     OW 5310   1.336   3.509   2.340  0.7270  0.3101 -0.0031
 1301SOL    HW2 5311   1.337   3.513   2.436  1.6988 -0.5004  0.0244
 1301SOL    HW3 5312   1.331   3.416   2.320  1.4022  0.4321 -0.7503
 1301SOL    MW4 5313   1.336   3.497   2.350  0.9441  0.2193 -0.0982
 1302SOL     OW 5314   1.583   3.608   2.278 -0.5098 -0.3101  0.1294
 1302SOL    HW2 5315   1.584   3.703   2.291 -0.3172 -0.2309 -0.4547
 1302SOL    HW3 5316   1.497   3.581   2.310 -0.3955  0.0038  0.7010
 1302SOL    MW4 5317   1.571   3.617   2.284 -0.4693 -0.2582  0.1280
 1303SOL     OW 5318   1.578   3.887   2.380 -0.1093 -0.5777 -0.1299
 1303SOL    HW2 5319   1.603   3.884   2.473 -0.9216  0.8031  0.1444
 1303SOL    HW3 5320   1.657   3.917   2.335 -0.2284  0.4291  0.3231
 1303SOL    MW4 5321   1.592   3.891   2.386 -0.2322 -0.2625 -0.0341
 1304SOL     OW 5322   1.365   4.024   2.290 -0.3675 -0.0120  0.4506
 1304SOL    HW2 5323   1.440   3.970   2.315 -0.7864 -0.4253  0.8124
 1304SOL    HW3 5324   1.359   4.015   2.195 -0.6885 -0.9354  0.5530
 1304SOL    MW4 5325   1.374   4.016   2.281 -0.4652 -0.1879  0.5119
 1305SOL     OW 5326   1.385   4.280   2.368  0.2129 -0.5221 -0.0735
 1305SOL    HW2 5327   1.362   4.188   2.354 -0.4431 -0.4206  0.3690
 1305SOL    HW3 5328   1.303   4.328   2.360  0.1532 -0.2302  2.0323
 1305SOL    MW4 5329   1.371   4.274   2.365  0.1185 -0.4706  0.2630
 1306SOL     OW 5330   1.551   4.412   2.211  0.0604 -0.0864  0.7392
 1306SOL    HW2 5331   1.499   4.354   2.266 -2.0263  1.2110  0.1944
 1306SOL    HW3 5332   1.576   4.485   2.268  2.0380 -1.0982  1.2207
 1306SOL    MW4 5333   1.548   4.414   2.226  0.0461 -0.0486  0.7308
 1307SOL     OW 5334   2.024   4.628   2.355  0.7150 -0.1594  0.1407
 1307SOL    HW2 5335   2.100   4.671   2.316  0.5654 -0.8068 -0.8816
 1307SOL    HW3 5336   2.033   4.536   2.331  0.1333 -0.4152  0.8716
 1307SOL    MW4 5337   2.035   4.622   2.347  0.6185 -0.2780  0.1023
 1308SOL     OW 5338   1.813   0.115   2.246 -0.0110  0.4684  0.0361
 1308SOL    HW2 5339   1.803   0.198   2.293  0.7597  0.7200 -0.2337
 1308SOL    HW3 5340   1.886   0.071   2.291 -0.7616 -0.3063  0.5215
 1308SOL    MW4 5341   1.822   0.120   2.258 -0.0085  0.3994  0.0646
 1309SOL     OW 5342   1.805   0.361   2.361  0.0411 -0.3466  0.1615
 1309SOL    HW2 5343   1.792   0.372   2.455 -0.3766 -2.9176  0.4453
 1309SOL    HW3 5344   1.888   0.405   2.342 -0.3943  1.0915  1.5211
 1309SOL    MW4 5345   1.814   0.369   2.371 -0.0715 -0.4961  0.3784
 1310SOL     OW 5346   2.032   0.506   2.292  0.2714  0.0449  0.0366
 1310SOL    HW2 5347   2.023   0.591   2.334  1.1457 -0.8042  1.9682
 1310SOL    HW3 5348   2.036   0.526   2.198 -1.8148  1.9320  0.3137
 1310SOL    MW4 5349   2.032   0.520   2.285  0.1113  0.1819  0.3283
 1311SOL     OW 5350   2.033   0.766   2.374 -0.2242 -0.2881  0.0383
 1311SOL    HW2 5351   2.088   0.803   2.305 -0.3662 -0.8928 -0.4054
 1311SOL    HW3 5352   1.947   0.805   2.361  0.0304  0.4443  0.5585
 1311SOL    MW4 5353   2.029   0.776   2.363 -0.2096 -0.2713  0.0486
 1312SOL     OW 5354   1.785   0.872   2.306  0.1372 -0.2631 -0.0251
 1312SOL    HW2 5355   1.806   0.961   2.332 -0.1024  0.1045 -1.0477
 1312SOL    HW3 5356   1.772   0.877   2.211  2.0118 -1.7380 -0.3933
 1312SOL    MW4 5357   1.786   0.884   2.297  0.3531 -0.4091 -0.2084
 1313SOL     OW 5358   1.849   1.149   2.362 -0.4892 -0.2865 -0.7596
 1313SOL    HW2 5359   1.914   1.217   2.344  0.7598 -1.5673 -1.1761
 1313SOL    HW3 5360   1.768   1.183   2.324 -0.5560  2.1880  1.4432
 1313SOL    MW4 5361   1.847   1.162   2.354 -0.3332 -0.1291 -0.5238
 1314SOL     OW 5362   2.031   1.337   2.266 -0.6319 -0.1760 -0.1371
 1314SOL    HW2 5363   2.047   1.429   2.285  0.7545 -0.2755 -0.8269
 1314SOL    HW3 5364   2.037   1.330   2.171 -2.3461 -0.6867 -0.2297
 1314SOL    MW4 5365   2.034   1.348   2.256 -0.6750 -0.2565 -0.2403
 1315SOL     OW 5366   2.061   1.596   2.331  0.0998 -0.4458 -0.0225
 1315SOL    HW2 5367   2.041   1.605   2.424 -0.6739  0.1716 -0.2453
 1315SOL    HW3 5368   1.979   1.617   2.286  0.5143 -0.5644 -0.8505
 1315SOL    MW4 5369   2.047   1.600   2.337  0.0525 -0.3799 -0.1609
 1316SOL     OW 5370   1.810   1.684   2.237 -0.2802 -0.1791  0.0895
 1316SOL    HW2 5371   1.806   1.778   2.254 -0.9168 -0.0777 -0.5786
 1316SOL    HW3 5372   1.811   1.676   2.142 -1.1841 -0.8731  0.1239
 1316SOL    MW4 5373   1.809   1.695   2.227 -0.4835 -0.2573  0.0060
 1317SOL     OW 5374   1.813   1.950   2.301  0.5752  0.8515  0.0995
 1317SOL    HW2 5375   1.817   1.942   2.396  0.6527  0.6619  0.0800
 1317SOL    HW3 5376   1.902   1.975   2.275  1.1150 -1.2902 -0.1324
 1317SOL    MW4 5377   1.825   1.953   2.310  0.6566  0.5440  0.0665
 1318SOL     OW 5378   2.073   2.047   2.254  0.6415 -0.5186 -0.3033
 1318SOL    HW2 5379   2.156   1.999   2.263  1.4888  1.0155  0.4046
 1318SOL    HW3 5380   2.067   2.069   2.161  1.5424  0.2303 -0.1909
 1318SOL    MW4 5381   2.083   2.044   2.243  0.8721 -0.2172 -0.1950
 1319SOL     OW 5382   2.039   2.321   2.327  0.2789  0.6256 -0.2674
 1319SOL    HW2 5383   2.131   2.340   2.312  0.3950 -0.6948 -1.2877
 1319SOL    HW3 5384   2.030   2.227   2.310 -1.5901  1.0506 -1.8797
 1319SOL    MW4 5385   2.050   2.311   2.323  0.0477  0.5076 -0.6149
 1320SOL     OW 5386   1.792   2.416   2.215  0.5229 -0.1000  0.0889
 1320SOL    HW2 5387   1.876   2.391   2.252  1.0507 -0.4748 -1.3061
 1320SOL    HW3 5388   1.728   2.366   2.264  1.2516 -1.0506  0.0821
 1320SOL    MW4 5389   1.795   2.406   2.226  0.6888 -0.2751 -0.0956
 1321SOL     OW 5390   1.782   2.672   2.336  0.6315 -0.2672  0.0809
 1321SOL    HW2 5391   1.779   2.593   2.281 -1.7614 -0.9541  1.1796
 1321SOL    HW3 5392   1.700   2.718   2.318  1.5012  1.4255  0.3002
 1321SOL    MW4 5393   1.771   2.668   2.326  0.4303 -0.1345  0.2549
 1322SOL     OW 5394   1.992   2.854   2.307 -0.4322  0.3376 -0.2188
 1322SOL    HW2 5395   2.070   2.804   2.335  0.8473  2.0871 -0.6067
 1322SOL    HW3 5396   1.919   2.794   2.322  0.9248 -1.1089  0.7661
 1322SOL    MW4 5397   1.993   2.839   2.313 -0.0844  0.3777 -0.1400
 1323SOL     OW 5398   1.995   3.140   2.354  0.2008 -0.1200  0.4924
 1323SOL    HW2 5399   2.077   3.164   2.312  0.6248 -0.7018  0.9797
 1323SOL    HW3 5400   1.991   3.044   2.345 -0.3279 -0.1136  0.6387
 1323SOL    MW4 5401   2.005   3.130   2.347  0.1869 -0.1960  0.5763
 1324SOL     OW 5402   1.777   3.243   2.260 -0.4119 -0.0847  0.1006
 1324SOL    HW2 5403   1.851   3.200   2.302  0.2656 -0.0799 -1.0764
 1324SOL    HW3 5404   1.700   3.196   2.294  0.0911  0.1210  1.5551
 1324SOL    MW4 5405   1.776   3.231   2.270 -0.2562 -0.0570  0.1371
 1325SOL     OW 5406   1.817   3.478   2.373 -0.2389 -0.1729 -0.3480
 1325SOL    HW2 5407   1.821   3.391   2.333  0.6259  0.3615 -1.4509
 1325SOL    HW3 5408   1.733   3.513   2.344 -0.6958 -0.7361  0.2948
 1325SOL    MW4 5409   1.806   3.471   2.364 -0.1851 -0.1769 -0.4086
 1326SOL     OW 5410   2.041   3.592   2.251  0.1138  0.1924  0.0640
 1326SOL    HW2 5411   1.966   3.552   2.294  0.5611 -1.2686 -0.4677
 1326SOL    HW3 5412   2.032   3.567   2.159  1.8499 -1.0028  0.1790
 1326SOL    MW4 5413   2.030   3.583   2.244  0.4017 -0.1583  0.0091
 1327SOL     OW 5414   2.024   3.880   2.312 -0.1282 -0.6099  0.3080
 1327SOL    HW2 5415   2.019   3.880   2.408 -0.4208  1.5612  0.3028
 1327SOL    HW3 5416   2.011   3.788   2.288 -0.1864 -1.1609  2.3381
 1327SOL    MW4 5417   2.022   3.867   2.321 -0.1745 -0.3963  0.5751
 1328SOL     OW 5418   1.783   3.990   2.220 -0.1035 -0.5555  0.0592
 1328SOL    HW2 5419   1.871   3.973   2.253 -0.4552 -1.5380  0.5061
 1328SOL    HW3 5420   1.793   3.988   2.125  0.2224 -1.4701  0.0986
 1328SOL    MW4 5421   1.796   3.987   2.212 -0.1070 -0.8059  0.1233
 1329SOL     OW 5422   1.777   4.249   2.305  0.1489  0.6615  0.1680
 1329SOL    HW2 5423   1.772   4.163   2.262 -0.5373  0.1251  1.2805
 1329SOL    HW3 5424   1.714   4.303   2.258  0.2239  0.4109 -0.2199
 1329SOL    MW4 5425   1.768   4.245   2.293  0.0682  0.5574  0.2637
 1330SOL     OW 5426   2.019   4.383   2.249 -0.3918  0.6109 -0.1050
 1330SOL    HW2 5427   1.948   4.323   2.273  0.0312 -0.0891 -0.5780
 1330SOL    HW3 5428   1.995   4.413   2.161 -0.3568  0.7585 -0.0631
 1330SOL    MW4 5429   2.006   4.379   2.240 -0.3312  0.5379 -0.1619
 1331SOL     OW 5430   2.501   4.632   2.340  0.1948 -0.1001 -0.0552
 1331SOL    HW2 5431   2.577   4.665   2.293 -1.1271 -0.6166 -2.6389
 1331SOL    HW3 5432   2.497   4.539   2.318 -0.7749 -0.2360  0.6465
 1331SOL    MW4 5433   2.510   4.624   2.331 -0.1073 -0.1860 -0.3033
 1332SOL     OW 5434   2.262   0.055   2.239  0.0700  0.0949 -0.0560
 1332SOL    HW2 5435   2.276   0.147   2.265  1.5345 -0.3015  0.6467
 1332SOL    HW3 5436   2.337   0.009   2.276 -0.6892 -1.4054 -0.3673
 1332SOL    MW4 5437   2.274   0.061   2.248  0.1631 -0.1554 -0.0045
 1333SOL     OW 5438   2.245   0.337   2.309  0.3921  0.3037  0.1640
 1333SOL    HW2 5439   2.322   0.393   2.298  0.3894  0.0998 -0.9214
 1333SOL    HW3 5440   2.171   0.399   2.311  0.4551  0.3918 -0.2697
 1333SOL    MW4 5441   2.245   0.353   2.308  0.4003  0.2884 -0.0362
 1334SOL     OW 5442   2.471   0.498   2.215 -0.0937 -0.4942  0.2998
 1334SOL    HW2 5443   2.543   0.445   2.247 -0.7077 -0.5902  1.5726
 1334SOL    HW3 5444   2.491   0.514   2.123  1.0860 -1.2659  0.4176
 1334SOL    MW4 5445   2.483   0.493   2.207 -0.0191 -0.6087  0.4835
 1335SOL     OW 5446   2.452   0.748   2.303  0.4218 -0.1222  0.2035
 1335SOL    HW2 5447   2.529   0.800   2.283 -1.2373  1.0761 -3.2682
 1335SOL    HW3 5448   2.469   0.663   2.262  0.2918 -0.1899  0.2875
 1335SOL    MW4 5449   2.464   0.743   2.295  0.1857  0.0270 -0.2437
 1336SOL     OW 5450   2.225   0.873   2.198  0.2042  0.1690 -0.3760
 1336SOL    HW2 5451   2.243   0.958   2.240 -1.0923 -0.7978  2.2589
 1336SOL    HW3 5452   2.294   0.815   2.231 -0.1722 -0.3264 -0.4519
 1336SOL    MW4 5453   2.236   0.877   2.208 -0.0162 -0.0240 -0.0384
 1337SOL     OW 5454   2.247   1.153   2.294  0.4325  0.4780  0.2477
 1337SOL    HW2 5455   2.330   1.197   2.273  0.3206 -0.3376 -2.1135
 1337SOL    HW3 5456   2.180   1.212   2.260  0.0715  0.8104  1.5408
 1337SOL    MW4 5457   2.249   1.167   2.287  0.3703  0.4143  0.1066
 1338SOL     OW 5458   2.481   1.256   2.200 -0.3369  0.8349 -0.1431
 1338SOL    HW2 5459   2.563   1.211   2.221  0.2707  2.1527  0.4192
 1338SOL    HW3 5460   2.482   1.334   2.256 -1.4238  1.4679 -0.9836
 1338SOL    MW4 5461   2.492   1.261   2.210 -0.4001  1.0922 -0.1800
 1339SOL     OW 5462   2.516   1.498   2.330  0.1218  0.2589  0.2899
 1339SOL    HW2 5463   2.514   1.504   2.426  0.7585  0.4092  0.2976
 1339SOL    HW3 5464   2.587   1.557   2.304  0.3602 -0.2561 -0.2294
 1339SOL    MW4 5465   2.525   1.506   2.339  0.2375  0.2108  0.2224
 1340SOL     OW 5466   2.317   1.644   2.205  0.0958 -0.0433  0.6814
 1340SOL    HW2 5467   2.392   1.597   2.243  0.0667 -0.1742  0.5794
 1340SOL    HW3 5468   2.242   1.616   2.257 -0.2011 -1.4601 -0.4696
 1340SOL    MW4 5469   2.317   1.634   2.217  0.0527 -0.2475  0.5162
 1341SOL     OW 5470   2.307   1.919   2.301  0.3819  0.1841  0.0683
 1341SOL    HW2 5471   2.389   1.961   2.274  0.1586  0.3796 -0.3062
 1341SOL    HW3 5472   2.327   1.825   2.300  0.6808  0.2457  0.2479
 1341SOL    MW4 5473   2.321   1.912   2.297  0.3917  0.2180  0.0427
 1342SOL     OW 5474   2.518   2.098   2.234 -0.3962  0.0609  0.1988
 1342SOL    HW2 5475   2.591   2.057   2.280 -0.7731 -1.5274 -0.5898
 1342SOL    HW3 5476   2.527   2.068   2.143 -2.2084 -0.4336  0.1631
 1342SOL    MW4 5477   2.528   2.088   2.228 -0.6850 -0.2136  0.0904
 1343SOL     OW 5478   2.508   2.354   2.335 -0.0498  0.6755 -0.1890
 1343SOL    HW2 5479   2.586   2.390   2.293  0.0607  0.4266 -0.1997
 1343SOL    HW3 5480   2.500   2.266   2.299 -0.4258  0.7588 -0.3034
 1343SOL    MW4 5481   2.517   2.347   2.325 -0.0849  0.6535 -0.2053
 1344SOL     OW 5482   2.280   2.470   2.259  0.2363 -0.1839  0.0625
 1344SOL    HW2 5483   2.259   2.556   2.295  0.6191 -0.2689  0.4845
 1344SOL    HW3 5484   2.358   2.441   2.307 -0.9960 -1.6085  1.2952
 1344SOL    MW4 5485   2.287   2.477   2.270  0.1240 -0.3834  0.2809
 1345SOL     OW 5486   2.194   2.706   2.379  0.3688 -0.2848  0.0441
 1345SOL    HW2 5487   2.214   2.727   2.470 -0.3665  0.3459  0.0681
 1345SOL    HW3 5488   2.269   2.740   2.329 -0.4479  1.7408  0.1594
 1345SOL    MW4 5489   2.207   2.713   2.384  0.1640  0.0658  0.0622
 1346SOL     OW 5490   2.423   2.810   2.267 -0.0426  0.1248  0.4206
 1346SOL    HW2 5491   2.495   2.766   2.313  0.4313  0.5418  0.0815
 1346SOL    HW3 5492   2.447   2.805   2.175 -0.4142  0.3325  0.3108
 1346SOL    MW4 5493   2.436   2.803   2.261 -0.0291  0.2072  0.3612
 1347SOL     OW 5494   2.460   3.055   2.366 -0.1810  0.2192 -0.0500
 1347SOL    HW2 5495   2.543   3.088   2.333 -0.1284  0.3626  0.2248
 1347SOL    HW3 5496   2.445   2.974   2.317  0.7962 -0.5248  0.8920
 1347SOL    MW4 5497   2.469   3.049   2.355 -0.0451  0.1397  0.1106
 1348SOL     OW 5498   2.242   3.194   2.247  0.1672 -0.0642 -0.0188
 1348SOL    HW2 5499   2.246   3.284   2.279  0.1558  0.0483 -0.3272
 1348SOL    HW3 5500   2.313   3.149   2.292  1.1931  0.4935 -1.0698
 1348SOL    MW4 5501   2.252   3.200   2.257  0.3009  0.0243 -0.1981
 1349SOL     OW 5502   2.266   3.463   2.335  0.0064  0.2585  0.3255
 1349SOL    HW2 5503   2.262   3.460   2.430 -3.0825 -0.6582  0.2042
 1349SOL    HW3 5504   2.187   3.511   2.309  0.2134 -0.5037 -1.8107
 1349SOL    MW4 5505   2.255   3.469   2.344 -0.3741  0.0367  0.0277
 1350SOL     OW 5506   2.496   3.578   2.217 -0.0918 -0.1352 -0.0066
 1350SOL    HW2 5507   2.501   3.669   2.246  0.2176 -0.3292  0.5500
 1350SOL    HW3 5508   2.420   3.542   2.263 -0.1764 -0.1741 -0.1775
 1350SOL    MW4 5509   2.487   3.585   2.227 -0.0622 -0.1662  0.0441
 1351SOL     OW 5510   2.492   3.822   2.342  0.0849  0.2652  0.2617
 1351SOL    HW2 5511   2.486   3.831   2.437  0.1475  0.7480  0.2258
 1351SOL    HW3 5512   2.417   3.873   2.309 -0.2751 -0.3838  0.0727
 1351SOL    MW4 5513   2.481   3.830   2.350  0.0458  0.2434  0.2320
 1352SOL     OW 5514   2.271   3.975   2.238  0.0474 -0.2692  0.0222
 1352SOL    HW2 5515   2.279   4.067   2.262  0.3636 -0.3796  0.3417
 1352SOL    HW3 5516   2.186   3.949   2.274 -0.3069  0.0507 -0.5766
 1352SOL    MW4 5517   2.261   3.984   2.246  0.0424 -0.2418 -0.0148
 1353SOL     OW 5518   2.244   4.248   2.336  0.2785  0.0620  0.2222
 1353SOL    HW2 5519   2.245   4.240   2.431  0.1764  0.2739  0.2431
 1353SOL    HW3 5520   2.163   4.297   2.317  1.2228  1.6268  0.1685
 1353SOL    MW4 5521   2.233   4.254   2.346  0.3898  0.2966  0.2182
 1354SOL     OW 5522   2.468   4.395   2.230  0.2643  0.1354  0.4145
 1354SOL    HW2 5523   2.544   4.353   2.270  0.4526  1.4905  1.5122
 1354SOL    HW3 5524   2.393   4.354   2.273  0.4264  0.3153  0.8731
 1354SOL    MW4 5525   2.469   4.384   2.241  0.3104  0.3381  0.6199
 1355SOL     OW 5526   2.939   4.648   2.356  0.3968 -0.3594 -0.7357
 1355SOL    HW2 5527   3.012   4.690   2.311  0.7583 -0.7368 -0.5013
 1355SOL    HW3 5528   2.952   4.555   2.341 -0.1794 -0.4151 -0.9095
 1355SOL    MW4 5529   2.950   4.642   2.348  0.3684 -0.4168 -0.7277
 1356SOL     OW 5530   2.728   0.094   2.226  0.4025  0.3550 -0.3626
 1356SOL    HW2 5531   2.727   0.185   2.254  1.0426 -0.0786  1.1144
 1356SOL    HW3 5532   2.806   0.056   2.266 -0.5033 -1.1435  0.0502
 1356SOL    MW4 5533   2.738   0.101   2.235  0.3672  0.1001 -0.1132
 1357SOL     OW 5534   2.703   0.349   2.318 -1.1816  0.5613 -0.3682
 1357SOL    HW2 5535   2.699   0.368   2.412  0.8029  0.0689 -0.1620
 1357SOL    HW3 5536   2.781   0.395   2.288 -1.1332 -0.2757 -1.5418
 1357SOL    MW4 5537   2.713   0.358   2.327 -0.9134  0.3859 -0.4961
 1358SOL     OW 5538   2.903   0.477   2.193 -0.1517  0.2724 -0.2870
 1358SOL    HW2 5539   2.903   0.569   2.220 -1.8053  0.0796  0.4131
 1358SOL    HW3 5540   2.913   0.479   2.098  0.5724  1.1500 -0.1920
 1358SOL    MW4 5541   2.904   0.489   2.184 -0.2747  0.3628 -0.1824
 1359SOL     OW 5542   2.908   0.734   2.282 -0.2569  0.3688 -0.4524
 1359SOL    HW2 5543   2.898   0.720   2.376 -2.4431 -0.4162 -0.7649
 1359SOL    HW3 5544   2.823   0.769   2.254  0.0767 -0.2060 -2.2616
 1359SOL    MW4 5545   2.895   0.737   2.291 -0.5012  0.1894 -0.7324
 1360SOL     OW 5546   2.680   0.873   2.194 -0.3291 -0.3323  0.4273
 1360SOL    HW2 5547   2.696   0.962   2.223  0.4929 -0.5020  0.5034
 1360SOL    HW3 5548   2.687   0.877   2.099 -3.1240  0.2445  0.2127
 1360SOL    MW4 5549   2.683   0.885   2.185 -0.5896 -0.2785  0.4089
 1361SOL     OW 5550   2.686   1.132   2.299 -0.2985 -0.4599 -0.0649
 1361SOL    HW2 5551   2.668   1.134   2.393 -1.0007  0.5488 -0.2099
 1361SOL    HW3 5552   2.773   1.173   2.291 -1.3609  1.8680 -0.0832
 1361SOL    MW4 5553   2.695   1.138   2.311 -0.5314 -0.0199 -0.0865
 1362SOL     OW 5554   2.920   1.263   2.246  0.2139 -0.1067  0.3987
 1362SOL    HW2 5555   2.989   1.212   2.289  1.7784  1.4540 -0.2032
 1362SOL    HW3 5556   2.944   1.262   2.153  0.3958  1.8982  0.4075
 1362SOL    MW4 5557   2.933   1.256   2.239  0.4442  0.3638  0.3204
 1363SOL     OW 5558   2.899   1.523   2.337 -0.4722 -0.1427  0.5167
 1363SOL    HW2 5559   2.910   1.518   2.432  0.0956  0.4559  0.4856
 1363SOL    HW3 5560   2.916   1.434   2.307  1.7156  0.1556  0.7421
 1363SOL    MW4 5561   2.903   1.510   2.346 -0.1087 -0.0244  0.5426
 1364SOL     OW 5562   2.695   1.674   2.243  0.0965 -0.0005  0.1941
 1364SOL    HW2 5563   2.769   1.615   2.256 -0.5356 -0.7285  0.4487
 1364SOL    HW3 5564   2.685   1.679   2.148 -0.5661 -1.1920  0.1942
 1364SOL    MW4 5565   2.704   1.667   2.232 -0.0741 -0.2537  0.2277
 1365SOL     OW 5566   2.731   1.935   2.315  0.2109 -0.3900  0.1569
 1365SOL    HW2 5567   2.741   1.936   2.410  1.0556 -1.2181  0.0820
 1365SOL    HW3 5568   2.725   1.842   2.293  0.9871 -0.2361 -0.7027
 1365SOL    MW4 5569   2.731   1.923   2.325  0.4246 -0.4791  0.0339
 1366SOL     OW 5570   2.951   2.060   2.214 -0.4151  0.3572  0.5812
 1366SOL    HW2 5571   3.025   2.025   2.262  0.8710  0.6399 -1.1567
 1366SOL    HW3 5572   2.878   2.001   2.236  1.1029 -1.9343 -0.3240
 1366SOL    MW4 5573   2.951   2.047   2.223 -0.0451  0.0923  0.2325
 1367SOL     OW 5574   2.920   2.312   2.332 -0.1719  0.1797 -0.1412
 1367SOL    HW2 5575   2.909   2.307   2.427 -0.5125  0.3941 -0.1685
 1367SOL    HW3 5576   2.913   2.222   2.302  1.3114 -0.0685  0.1824
 1367SOL    MW4 5577   2.918   2.300   2.341 -0.0212  0.1752 -0.1023
 1368SOL     OW 5578   2.738   2.482   2.210  0.5395  0.2807 -0.3249
 1368SOL    HW2 5579   2.809   2.430   2.249 -0.3175 -1.3386 -0.8820
 1368SOL    HW3 5580   2.725   2.443   2.124 -0.2876  1.2925 -0.6630
 1368SOL    MW4 5581   2.746   2.470   2.204  0.3173  0.2005 -0.4432
 1369SOL     OW 5582   2.703   2.712   2.353 -0.8390 -0.7002  0.0551
 1369SOL    HW2 5583   2.783   2.764   2.342 -1.7427  0.3902 -1.7187
 1369SOL    HW3 5584   2.715   2.637   2.295 -1.0187 -0.6052 -0.1090
 1369SOL    MW4 5585   2.715   2.709   2.344 -0.9820 -0.5441 -0.2003
 1370SOL     OW 5586   2.959   2.810   2.293  0.1024  0.0550  0.2278
 1370SOL    HW2 5587   2.954   2.898   2.331 -1.1720  0.3564 -0.5973
 1370SOL    HW3 5588   2.960   2.825   2.199  0.8563 -0.7763  0.1065
 1370SOL    MW4 5589   2.958   2.824   2.286  0.0336 -0.0148  0.1028
 1371SOL     OW 5590   2.899   3.055   2.388  0.5395 -0.1999 -0.4630
 1371SOL    HW2 5591   2.974   3.106   2.358  0.4672 -0.4619 -1.1014
 1371SOL    HW3 5592   2.826   3.084   2.333 -0.0429  0.7216  0.7732
 1371SOL    MW4 5593   2.899   3.065   2.377  0.4532 -0.1128 -0.3843
 1372SOL     OW 5594   2.690   3.171   2.254  0.1131 -0.2501  0.2365
 1372SOL    HW2 5595   2.699   3.263   2.281 -1.8367 -0.1227  0.4756
 1372SOL    HW3 5596   2.702   3.173   2.159 -1.4414  0.4695  0.0430
 1372SOL    MW4 5597   2.693   3.184   2.245 -0.3493 -0.1385  0.2425
 1373SOL     OW 5598   2.693   3.426   2.365 -0.5027  0.5199 -0.1189
 1373SOL    HW2 5599   2.779   3.461   2.345  0.1158  0.3733  2.1334
 1373SOL    HW3 5600   2.632   3.487   2.324  0.6606  0.8625 -1.3555
 1373SOL    MW4 5601   2.696   3.439   2.357 -0.2673  0.5457  0.0153
 1374SOL     OW 5602   2.916   3.570   2.259  0.2937 -0.2769  0.3387
 1374SOL    HW2 5603   3.007   3.555   2.285  0.3105 -0.0937  0.3913
 1374SOL    HW3 5604   2.897   3.658   2.292  0.8284  0.6330 -1.7285
 1374SOL    MW4 5605   2.926   3.580   2.267  0.3664 -0.1328  0.0727
 1375SOL     OW 5606   2.914   3.831   2.346 -0.0284  0.2237  0.3122
 1375SOL    HW2 5607   2.923   3.852   2.439 -0.9225  0.1621  0.4166
 1375SOL    HW3 5608   2.837   3.881   2.318 -0.0128 -0.0922 -0.2997
 1375SOL    MW4 5609   2.905   3.841   2.354 -0.1445  0.1740  0.2453
 1376SOL     OW 5610   2.684   3.976   2.237  0.1913 -0.6805  0.2987
 1376SOL    HW2 5611   2.611   3.923   2.270 -0.9270  0.0139 -1.0144
 1376SOL    HW3 5612   2.674   3.975   2.142  1.2078  0.4187  0.1636
 1376SOL    MW4 5613   2.673   3.969   2.229  0.1779 -0.4439  0.1075
 1377SOL     OW 5614   2.711   4.273   2.313 -0.1976  0.1805  0.2825
 1377SOL    HW2 5615   2.720   4.280   2.408 -0.9653  0.0047  0.3783
 1377SOL    HW3 5616   2.672   4.186   2.299  0.8508 -0.2027 -0.2636
 1377SOL    MW4 5617   2.707   4.262   2.324 -0.1607  0.1068  0.2229
 1378SOL     OW 5618   2.952   4.386   2.252  0.1356  0.3158 -0.2346
 1378SOL    HW2 5619   3.014   4.316   2.275 -0.9311 -0.4222  0.4088
 1378SOL    HW3 5620   2.866   4.350   2.274 -0.4035  1.9322  0.3659
 1378SOL    MW4 5621   2.949   4.372   2.258 -0.0763  0.4311 -0.0703
 1379SOL     OW 5622   3.347   4.625   2.362  0.0555 -0.5705 -0.3179
 1379SOL    HW2 5623   3.336   4.634   2.457  0.8406 -2.8916  0.0292
 1379SOL    HW3 5624   3.434   4.661   2.345 -1.3729  2.8663 -0.6779
 1379SOL    MW4 5625   3.357   4.631   2.372 -0.0293 -0.4234 -0.3195
 1380SOL     OW 5626   3.151   0.135   2.241  0.7925  0.3889 -0.2991
 1380SOL    HW2 5627   3.145   0.217   2.290 -0.3337 -0.1721  0.5204
 1380SOL    HW3 5628   3.221   0.086   2.284 -0.0329 -0.0029  0.6084
 1380SOL    MW4 5629   3.160   0.139   2.253  0.5352  0.2632 -0.0715
 1381SOL     OW 5630   3.136   0.394   2.337 -0.4399  0.5595  0.1297
 1381SOL    HW2 5631   3.211   0.445   2.304 -0.4828 -0.1132 -1.0192
 1381SOL    HW3 5632   3.062   0.422   2.283 -0.6943  0.0934  0.2375
 1381SOL    MW4 5633   3.136   0.405   2.325 -0.4790  0.4092 -0.0079
 1382SOL     OW 5634   3.377   0.514   2.256  0.0765  0.8980 -0.1458
 1382SOL    HW2 5635   3.461   0.471   2.274 -0.4887  0.2496  0.9711
 1382SOL    HW3 5636   3.369   0.510   2.160  0.3483 -0.8866 -0.1212
 1382SOL    MW4 5637   3.387   0.508   2.245  0.0377  0.5770  0.0050
 1383SOL     OW 5638   3.380   0.797   2.326 -0.2738  0.4308 -0.0274
 1383SOL    HW2 5639   3.454   0.854   2.306 -0.3394  1.0551  1.4252
 1383SOL    HW3 5640   3.414   0.708   2.313  0.6597  0.7197  0.3843
 1383SOL    MW4 5641   3.395   0.793   2.322 -0.1593  0.5513  0.2184
 1384SOL     OW 5642   3.146   0.860   2.193 -0.1694  0.1339  0.4942
 1384SOL    HW2 5643   3.212   0.831   2.256 -1.1818  0.6493  1.8144
 1384SOL    HW3 5644   3.064   0.823   2.225 -0.3173 -1.7977 -2.0022
 1384SOL    MW4 5645   3.144   0.851   2.206 -0.3226 -0.0529  0.3390
 1385SOL     OW 5646   3.140   1.132   2.325  0.2186  0.0644 -0.0560
 1385SOL    HW2 5647   3.226   1.174   2.315 -0.2955  0.9969 -0.6749
 1385SOL    HW3 5648   3.152   1.044   2.290  0.9848  0.1153  0.0618
 1385SOL    MW4 5649   3.153   1.126   2.319  0.2522  0.1942 -0.1223
 1386SOL     OW 5650   3.363   1.262   2.256  0.0442 -0.5338 -0.1780
 1386SOL    HW2 5651   3.450   1.234   2.285 -0.9448 -2.4492  1.0606
 1386SOL    HW3 5652   3.359   1.355   2.280  1.5267 -0.5679  0.2921
 1386SOL    MW4 5653   3.374   1.271   2.263  0.1094 -0.7910  0.0474
 1387SOL     OW 5654   3.349   1.515   2.340 -0.7483 -0.4632  0.3723
 1387SOL    HW2 5655   3.349   1.497   2.434 -1.6098  0.7964  0.6236
 1387SOL    HW3 5656   3.270   1.567   2.325 -0.1822  0.0573 -0.9001
 1387SOL    MW4 5657   3.339   1.520   2.350 -0.7873 -0.2283  0.2377
 1388SOL     OW 5658   3.127   1.676   2.265  0.0854 -0.3382 -0.0470
 1388SOL    HW2 5659   3.113   1.771   2.270 -1.9398 -0.4717 -2.1214
 1388SOL    HW3 5660   3.045   1.638   2.294  0.3025 -1.4301 -0.8505
 1388SOL    MW4 5661   3.114   1.684   2.269 -0.1531 -0.5000 -0.4268
 1389SOL     OW 5662   3.156   1.932   2.359 -0.3665  0.1420 -0.0823
 1389SOL    HW2 5663   3.161   1.939   2.454 -0.3418  0.0633 -0.0778
 1389SOL    HW3 5664   3.233   1.978   2.327 -0.8884  1.0217 -0.0961
 1389SOL    MW4 5665   3.167   1.939   2.368 -0.4323  0.2476 -0.0832
 1390SOL     OW 5666   3.374   2.069   2.297  0.5368  0.1744 -0.3235
 1390SOL    HW2 5667   3.435   2.002   2.329  0.7007 -0.6600 -2.2967
 1390SOL    HW3 5668   3.382   2.065   2.202 -0.4830  2.0626 -0.5199
 1390SOL    MW4 5669   3.383   2.060   2.289  0.4239  0.3135 -0.6096
 1391SOL     OW 5670   3.443   2.323   2.361 -0.1769  0.0180  0.7960
 1391SOL    HW2 5671   3.360   2.354   2.324 -0.1855 -0.2212  0.6117
 1391SOL    HW3 5672   3.444   2.229   2.343 -0.7186 -0.3149  2.4385
 1391SOL    MW4 5673   3.432   2.314   2.354 -0.2494 -0.0575  0.9885
 1392SOL     OW 5674   3.164   2.418   2.248  0.4291  0.2501 -0.0590
 1392SOL    HW2 5675   3.152   2.503   2.289  2.0462  0.7153 -0.5343
 1392SOL    HW3 5676   3.088   2.367   2.276  0.2418  1.3560  1.4661
 1392SOL    MW4 5677   3.152   2.422   2.257  0.6177  0.4573  0.0794
 1393SOL     OW 5678   3.152   2.664   2.398 -0.3070  0.1334 -0.4324
 1393SOL    HW2 5679   3.151   2.668   2.494 -1.0656 -0.2284 -0.4215
 1393SOL    HW3 5680   3.081   2.722   2.371  0.4309  0.8755 -0.8085
 1393SOL    MW4 5681   3.143   2.672   2.407 -0.3099  0.1836 -0.4804
 1394SOL     OW 5682   3.381   2.795   2.296  0.1024 -0.0211  0.2635
 1394SOL    HW2 5683   3.357   2.884   2.322 -0.9444  0.0547 -0.9097
 1394SOL    HW3 5684   3.308   2.741   2.327  0.2931 -0.3454  0.1531
 1394SOL    MW4 5685   3.368   2.800   2.303 -0.0110 -0.0539  0.0942
 1395SOL     OW 5686   3.319   3.047   2.362  0.0624 -0.1372 -0.2128
 1395SOL    HW2 5687   3.396   3.086   2.321  0.6696 -0.3156  0.7344
 1395SOL    HW3 5688   3.247   3.105   2.339  0.5216  0.1569 -0.9209
 1395SOL    MW4 5689   3.320   3.060   2.354  0.2034 -0.1218 -0.1812
 1396SOL     OW 5690   3.099   3.215   2.289  0.1173 -0.1491 -0.0938
 1396SOL    HW2 5691   3.116   3.306   2.314  0.0001  0.1769 -1.1955
 1396SOL    HW3 5692   3.081   3.218   2.195 -1.0130 -1.1677  0.0787
 1396SOL    MW4 5693   3.099   3.227   2.280 -0.0472 -0.2403 -0.2162
 1397SOL     OW 5694   3.175   3.481   2.349 -0.0790  0.0293 -0.0128
 1397SOL    HW2 5695   3.186   3.485   2.444  0.5494  0.2904 -0.0970
 1397SOL    HW3 5696   3.249   3.530   2.314 -0.0892 -0.4060 -0.6496
 1397SOL    MW4 5697   3.186   3.488   2.357  0.0029  0.0062 -0.1082
 1398SOL     OW 5698   3.390   3.646   2.242  0.1308 -0.1175  0.3881
 1398SOL    HW2 5699   3.445   3.579   2.281  0.8957 -0.0709 -0.5913
 1398SOL    HW3 5700   3.387   3.623   2.149  0.0566  0.9712  0.1147
 1398SOL    MW4 5701   3.397   3.634   2.235  0.2220  0.0322  0.2224
 1399SOL     OW 5702   3.368   3.886   2.361 -0.2281  0.5523 -0.4285
 1399SOL    HW2 5703   3.446   3.933   2.331  0.9661 -1.2664 -0.2615
 1399SOL    HW3 5704   3.370   3.803   2.313 -2.5041  0.7831 -1.0032
 1399SOL    MW4 5705   3.378   3.882   2.351 -0.3707  0.3428 -0.4823
 1400SOL     OW 5706   3.133   3.960   2.238  0.3145 -0.0015 -0.0781
 1400SOL    HW2 5707   3.211   3.928   2.284 -1.3009 -0.1383  2.7058
 1400SOL    HW3 5708   3.060   3.914   2.281 -1.5430  2.5192 -0.4449
 1400SOL    MW4 5709   3.133   3.950   2.250 -0.1435  0.3130  0.2408
 1401SOL     OW 5710   3.146   4.216   2.353  0.2946 -0.1532 -0.5954
 1401SOL    HW2 5711   3.226   4.260   2.324  0.7946 -0.8694 -0.3177
 1401SOL    HW3 5712   3.152   4.128   2.315  0.2493 -0.6229  0.4566
 1401SOL    MW4 5713   3.157   4.210   2.344  0.3545 -0.3095 -0.4201
 1402SOL     OW 5714   3.355   4.367   2.254  0.2388  0.0844  0.1574
 1402SOL    HW2 5715   3.354   4.458   2.282 -0.2515 -0.0319  0.5273
 1402SOL    HW3 5716   3.332   4.370   2.161  0.7704  0.3813  0.0391
 1402SOL    MW4 5717   3.352   4.379   2.245  0.2444  0.1078  0.1907
 1403SOL     OW 5718   3.797   4.661   2.374  0.4412 -0.1786 -0.5461
 1403SOL    HW2 5719   3.812   4.646   2.467 -0.0494  0.9979 -0.2684
 1403SOL    HW3 5720   3.868   4.720   2.348 -1.1937  2.0070 -0.1903
 1403SOL    MW4 5721   3.808   4.667   2.383  0.1609  0.2650 -0.4630
 1404SOL     OW 5722   3.568   0.119   2.283  0.5205 -0.0943 -0.0873
 1404SOL    HW2 5723   3.579   0.213   2.296 -0.5085 -0.0714  0.6531
 1404SOL    HW3 5724   3.647   0.080   2.322  0.9516  0.4522 -0.4047
 1404SOL    MW4 5725   3.580   0.126   2.290  0.4418 -0.0191 -0.0315
 1405SOL     OW 5726   3.595   0.385   2.343  0.3217 -1.0964  0.5229
 1405SOL    HW2 5727   3.565   0.388   2.434  0.8891 -1.0590  0.7069
 1405SOL    HW3 5728   3.675   0.436   2.342 -0.8855  0.8415 -0.4725
 1405SOL    MW4 5729   3.601   0.392   2.355  0.2372 -0.8357  0.4158
 1406SOL     OW 5730   3.837   0.538   2.290  0.3258 -0.1663  0.2496
 1406SOL    HW2 5731   3.830   0.629   2.316 -1.3829  0.1039 -0.9943
 1406SOL    HW3 5732   3.863   0.541   2.197 -0.5020 -0.9099 -0.0184
 1406SOL    MW4 5733   3.839   0.550   2.281 -0.0086 -0.2288  0.0501
 1407SOL     OW 5734   3.784   0.802   2.374  0.2646  0.0043 -0.1938
 1407SOL    HW2 5735   3.790   0.784   2.468 -0.3085  0.4196 -0.0728
 1407SOL    HW3 5736   3.869   0.838   2.350  0.4537 -0.2209  0.1416
 1407SOL    MW4 5737   3.796   0.804   2.383  0.2139  0.0294 -0.1338
 1408SOL     OW 5738   3.587   0.948   2.228  0.0531 -0.0754  0.4276
 1408SOL    HW2 5739   3.665   0.914   2.272 -1.0865 -2.5509  0.6101
 1408SOL    HW3 5740   3.605   0.938   2.135  0.1909 -0.0787  0.4548
 1408SOL    MW4 5741   3.599   0.942   2.222 -0.0789 -0.4025  0.4554
 1409SOL     OW 5742   3.629   1.200   2.313 -0.2428 -0.3594  0.2900
 1409SOL    HW2 5743   3.626   1.176   2.405  0.7156 -0.4884  0.2922
 1409SOL    HW3 5744   3.618   1.117   2.266  1.8263 -0.6653  0.2983
 1409SOL    MW4 5745   3.627   1.186   2.319  0.1569 -0.4168  0.2911
 1410SOL     OW 5746   3.868   1.314   2.201  0.1058  0.0297  0.0657
 1410SOL    HW2 5747   3.874   1.390   2.259 -0.0329 -0.2666  0.4666
 1410SOL    HW3 5748   3.786   1.271   2.225  0.9454 -1.1327  0.9342
 1410SOL    MW4 5749   3.858   1.318   2.212  0.1984 -0.1630  0.2332
 1411SOL     OW 5750   3.843   1.545   2.355 -0.0518 -0.0811  0.2954
 1411SOL    HW2 5751   3.834   1.537   2.450  0.4177 -2.0582  0.1997
 1411SOL    HW3 5752   3.763   1.589   2.328 -0.6053 -0.2923  1.5222
 1411SOL    MW4 5753   3.831   1.550   2.364 -0.0627 -0.3698  0.4449
 1412SOL     OW 5754   3.587   1.642   2.261 -0.6243  0.6502 -0.6829
 1412SOL    HW2 5755   3.501   1.600   2.263 -1.1661  1.7429 -0.6229
 1412SOL    HW3 5756   3.613   1.640   2.169 -0.5737  0.0311 -0.6538
 1412SOL    MW4 5757   3.579   1.637   2.249 -0.6893  0.7126 -0.6714
 1413SOL     OW 5758   3.555   1.904   2.390  0.0718 -0.2264 -0.2348
 1413SOL    HW2 5759   3.554   1.898   2.485  1.2763  0.4778 -0.1627
 1413SOL    HW3 5760   3.558   1.813   2.359  1.7768 -0.4242  0.4537
 1413SOL    MW4 5761   3.556   1.891   2.398  0.4556 -0.1596 -0.1342
 1414SOL     OW 5762   3.773   2.029   2.280 -0.3373  0.2837  0.2258
 1414SOL    HW2 5763   3.845   1.969   2.300 -1.3045 -1.6052 -1.8088
 1414SOL    HW3 5764   3.696   1.987   2.317 -1.0017  0.3225 -1.0983
 1414SOL    MW4 5765   3.773   2.016   2.288 -0.5522  0.0398 -0.2177
 1415SOL     OW 5766   3.831   2.310   2.363  0.1657  0.1628 -0.1680
 1415SOL    HW2 5767   3.740   2.341   2.357 -0.3962 -1.3298  0.3054
 1415SOL    HW3 5768   3.824   2.215   2.350  1.4274 -0.2124  1.8146
 1415SOL    MW4 5769   3.818   2.302   2.360  0.2580 -0.0837  0.1559
 1416SOL     OW 5770   3.632   2.483   2.265  0.0047 -0.1169  0.3319
 1416SOL    HW2 5771   3.559   2.431   2.298 -1.3142  0.8470 -1.0233
 1416SOL    HW3 5772   3.642   2.456   2.174  0.3242  0.8512  0.0712
 1416SOL    MW4 5773   3.624   2.473   2.258 -0.1271  0.1380  0.1187
 1417SOL     OW 5774   3.607   2.709   2.424  0.4525  0.6980  0.0665
 1417SOL    HW2 5775   3.630   2.626   2.383 -0.9121 -0.0653  0.8174
 1417SOL    HW3 5776   3.527   2.737   2.380  0.0879  0.8769  0.8255
 1417SOL    MW4 5777   3.600   2.702   2.413  0.2246  0.6211  0.2658
 1418SOL     OW 5778   3.795   2.809   2.255 -0.1793  0.1846 -0.1602
 1418SOL    HW2 5779   3.794   2.902   2.276  0.0059  0.2485 -0.4293
 1418SOL    HW3 5780   3.716   2.774   2.297 -0.6216  0.5942 -0.6387
 1418SOL    MW4 5781   3.785   2.816   2.263 -0.2134  0.2468 -0.2587
 1419SOL     OW 5782   3.782   3.084   2.325 -0.0145 -0.0977 -0.2257
 1419SOL    HW2 5783   3.776   3.086   2.421 -0.8088  0.9250 -0.2886
 1419SOL    HW3 5784   3.856   3.141   2.304 -1.5237  1.8955 -0.3323
 1419SOL    MW4 5785   3.791   3.092   2.335 -0.3188  0.3002 -0.2480
 1420SOL     OW 5786   3.540   3.189   2.251  1.0238  0.5141 -0.4637
 1420SOL    HW2 5787   3.550   3.279   2.280  1.4292  0.8424 -1.5779
 1420SOL    HW3 5788   3.619   3.144   2.282  1.2645  0.7633 -0.7202
 1420SOL    MW4 5789   3.551   3.195   2.259  1.1089  0.5906 -0.6444
 1421SOL     OW 5790   3.552   3.460   2.358 -0.1272 -0.0007 -0.3203
 1421SOL    HW2 5791   3.543   3.468   2.453 -1.1345 -1.3893 -0.2792
 1421SOL    HW3 5792   3.636   3.501   2.338 -0.1369  0.7422  1.1101
 1421SOL    MW4 5793   3.562   3.466   2.368 -0.2611 -0.0858 -0.1261
 1422SOL     OW 5794   3.791   3.584   2.290  0.4644  0.0926 -0.3099
 1422SOL    HW2 5795   3.775   3.676   2.314 -0.0842 -0.3851  1.2087
 1422SOL    HW3 5796   3.788   3.584   2.194 -2.2858  1.1785 -0.2842
 1422SOL    MW4 5797   3.789   3.596   2.281  0.0293  0.1726 -0.1063
 1423SOL     OW 5798   3.782   3.855   2.374  0.1493  0.0583  0.3843
 1423SOL    HW2 5799   3.792   3.852   2.469  1.4072 -0.9220  0.2296
 1423SOL    HW3 5800   3.856   3.906   2.343 -0.4989  0.7550 -0.0548
 1423SOL    MW4 5801   3.793   3.861   2.382  0.2298  0.0210  0.3059
 1424SOL     OW 5802   3.586   4.016   2.260  0.1863 -0.1962 -0.3096
 1424SOL    HW2 5803   3.589   4.096   2.312  1.9295 -0.2620 -0.2585
 1424SOL    HW3 5804   3.658   3.963   2.295 -0.4192 -1.4260 -0.9062
 1424SOL    MW4 5805   3.596   4.019   2.271  0.3362 -0.3672 -0.3815
 1425SOL     OW 5806   3.574   4.250   2.408 -0.0567  0.2183 -0.1148
 1425SOL    HW2 5807   3.658   4.289   2.382 -0.6578  1.5157 -0.1169
 1425SOL    HW3 5808   3.510   4.286   2.347 -0.2206 -2.9079 -1.9139
 1425SOL    MW4 5809   3.577   4.260   2.396 -0.1576 -0.0234 -0.3526
 1426SOL     OW 5810   3.786   4.393   2.300  0.4561 -0.4549 -0.3705
 1426SOL    HW2 5811   3.860   4.362   2.353 -0.1436 -0.9601  0.1809
 1426SOL    HW3 5812   3.789   4.488   2.308 -0.5040 -0.5855  1.7835
 1426SOL    MW4 5813   3.797   4.401   2.308  0.2503 -0.5393 -0.0136
 1427SOL     OW 5814   4.249   0.016   2.379  0.0257  0.0351 -0.2038
 1427SOL    HW2 5815   4.250   0.008   2.474  1.2709 -0.9082 -0.2864
 1427SOL    HW3 5816   4.326   0.068   2.358  0.2249 -0.4751 -0.7534
 1427SOL    MW4 5817   4.259   0.022   2.389  0.2165 -0.1569 -0.2871
 1428SOL     OW 5818   4.021   0.113   2.258 -0.7262 -0.0791 -0.0185
 1428SOL    HW2 5819   4.020   0.208   2.270  1.3061  0.0987 -1.1627
 1428SOL    HW3 5820   4.098   0.083   2.306 -1.0983 -1.1103 -0.0497
 1428SOL    MW4 5821   4.031   0.121   2.266 -0.5074 -0.1917 -0.1736
 1429SOL     OW 5822   4.031   0.375   2.347  0.1304 -0.4771 -0.1311
 1429SOL    HW2 5823   4.107   0.425   2.318  0.2849 -0.6085  0.0500
 1429SOL    HW3 5824   3.957   0.435   2.337  0.4178  0.0361  0.8052
 1429SOL    MW4 5825   4.031   0.389   2.342  0.1884 -0.4267  0.0162
 1430SOL     OW 5826   4.269   0.493   2.235 -0.1433 -0.5350 -0.5398
 1430SOL    HW2 5827   4.278   0.583   2.265 -0.5463 -0.5840 -0.2712
 1430SOL    HW3 5828   4.343   0.447   2.274 -0.8400 -0.6660  0.6468
 1430SOL    MW4 5829   4.280   0.498   2.244 -0.2890 -0.5587 -0.3479
 1431SOL     OW 5830   4.278   0.753   2.342 -0.4203 -0.1640 -0.5194
 1431SOL    HW2 5831   4.193   0.795   2.328  0.6785  2.5423  0.4456
 1431SOL    HW3 5832   4.340   0.809   2.295  1.0980 -0.7526  0.7399
 1431SOL    MW4 5833   4.275   0.766   2.334 -0.0753  0.1155 -0.2258
 1432SOL     OW 5834   4.025   0.892   2.272 -0.0162  0.0657 -0.2159
 1432SOL    HW2 5835   4.028   0.987   2.287  2.0510 -0.1071  0.6622
 1432SOL    HW3 5836   4.031   0.884   2.177 -0.3089  0.8276 -0.3065
 1432SOL    MW4 5837   4.027   0.904   2.261  0.2179  0.1434 -0.1118
 1433SOL     OW 5838   4.091   1.163   2.301  0.4144 -0.0007  0.1864
 1433SOL    HW2 5839   4.106   1.179   2.394  1.3170  0.3061 -0.0001
 1433SOL    HW3 5840   4.022   1.225   2.277 -0.8781 -1.1232  0.9761
 1433SOL    MW4 5841   4.084   1.173   2.310  0.3629 -0.1084  0.2656
 1434SOL     OW 5842   4.299   1.265   2.160  0.1199  0.0382 -0.1700
 1434SOL    HW2 5843   4.223   1.228   2.204  0.6461 -0.4413  0.3444
 1434SOL    HW3 5844   4.373   1.214   2.193  0.6424  0.3724 -0.8087
 1434SOL    MW4 5845   4.299   1.253   2.170  0.2580  0.0191 -0.1864
 1435SOL     OW 5846   4.325   1.494   2.314  0.1835  0.3275 -0.4423
 1435SOL    HW2 5847   4.334   1.423   2.250 -0.7745  0.1348 -0.3705
 1435SOL    HW3 5848   4.393   1.557   2.290  0.8206 -0.4522 -0.7185
 1435SOL    MW4 5849   4.335   1.493   2.303  0.1411  0.1991 -0.4692
 1436SOL     OW 5850   4.068   1.614   2.229  0.5173  0.3936  0.0460
 1436SOL    HW2 5851   4.136   1.555   2.262  0.6787  0.4079 -0.2570
 1436SOL    HW3 5852   3.986   1.576   2.261  0.5612 -0.4466 -0.8285
 1436SOL    MW4 5853   4.066   1.601   2.238  0.5445  0.2847 -0.1094
 1437SOL     OW 5854   4.034   1.878   2.330 -0.3690  0.1780 -0.1451
 1437SOL    HW2 5855   4.037   1.867   2.425  0.1615  0.7844 -0.0931
 1437SOL    HW3 5856   4.055   1.791   2.296  0.4027  0.1907  0.2919
 1437SOL    MW4 5857   4.037   1.865   2.338 -0.1969  0.2596 -0.0806
 1438SOL     OW 5858   4.286   2.054   2.305  0.1162 -0.5220 -0.7998
 1438SOL    HW2 5859   4.262   2.128   2.361  0.2674 -0.1378 -1.2407
 1438SOL    HW3 5860   4.206   2.002   2.298  0.7878 -2.1150  2.0889
 1438SOL    MW4 5861   4.272   2.057   2.312  0.2246 -0.6816 -0.4768
 1439SOL     OW 5862   4.254   2.332   2.394  0.1446 -0.2978  0.2213
 1439SOL    HW2 5863   4.189   2.378   2.340  0.2113  2.0326  2.0825
 1439SOL    HW3 5864   4.338   2.366   2.365  0.2609  0.0247  0.9343
 1439SOL    MW4 5865   4.256   2.342   2.383  0.1688  0.0522  0.5608
 1440SOL     OW 5866   4.038   2.443   2.242 -0.3738  0.3889  0.2072
 1440SOL    HW2 5867   4.040   2.530   2.282 -2.5145  0.7883 -0.4954
 1440SOL    HW3 5868   3.969   2.396   2.289  0.0276 -0.5706 -0.1459
 1440SOL    MW4 5869   4.030   2.448   2.254 -0.6032  0.3150  0.0682
 1441SOL     OW 5870   4.020   2.698   2.370 -0.2116 -0.2039  0.1523
 1441SOL    HW2 5871   4.026   2.716   2.464  1.1827  2.3443 -0.3888
 1441SOL    HW3 5872   3.942   2.746   2.342  0.0440  0.0106 -0.1925
 1441SOL    MW4 5873   4.011   2.707   2.379  0.0067  0.1607  0.0353
 1442SOL     OW 5874   4.251   2.819   2.271 -0.0800 -0.4743 -0.6304
 1442SOL    HW2 5875   4.169   2.786   2.307 -0.2637 -0.4115 -1.0005
 1442SOL    HW3 5876   4.318   2.778   2.326 -0.3058 -1.4598 -1.0816
 1442SOL    MW4 5877   4.249   2.809   2.283 -0.1335 -0.5958 -0.7386
 1443SOL     OW 5878   4.251   3.070   2.369  0.6241 -0.0450 -0.3954
 1443SOL    HW2 5879   4.241   2.981   2.335  3.1109 -0.3808 -0.3017
 1443SOL    HW3 5880   4.341   3.095   2.348  0.2554  2.1153  0.3852
 1443SOL    MW4 5881   4.261   3.062   2.362  0.9036  0.1960 -0.2804
 1444SOL     OW 5882   4.010   3.220   2.274 -0.5579 -0.1604  0.4522
 1444SOL    HW2 5883   4.018   3.305   2.317  1.7006 -0.0416 -0.1741
 1444SOL    HW3 5884   4.084   3.169   2.307 -0.9132 -1.3063 -0.5014
 1444SOL    MW4 5885   4.021   3.224   2.284 -0.3066 -0.2959  0.2437
 1445SOL     OW 5886   4.037   3.492   2.380 -0.5566 -0.4008 -0.1119
 1445SOL    HW2 5887   4.107   3.547   2.346 -0.4692 -0.5239 -0.1340
 1445SOL    HW3 5888   3.957   3.542   2.365 -0.6698 -1.0659 -1.8184
 1445SOL    MW4 5889   4.036   3.506   2.374 -0.5603 -0.5050 -0.3400
 1446SOL     OW 5890   4.240   3.658   2.280  0.3326 -0.1371 -0.5648
 1446SOL    HW2 5891   4.241   3.751   2.304  1.8820  0.3121 -2.2795
 1446SOL    HW3 5892   4.230   3.658   2.185 -1.4682 -1.7964 -0.4169
 1446SOL    MW4 5893   4.239   3.670   2.271  0.2995 -0.2968 -0.7713
 1447SOL     OW 5894   4.223   3.933   2.351 -0.4262 -0.1955 -0.1967
 1447SOL    HW2 5895   4.235   3.916   2.444 -0.7872  1.2681  0.1253
 1447SOL    HW3 5896   4.308   3.967   2.321 -0.2728 -0.7801 -0.4294
 1447SOL    MW4 5897   4.236   3.935   2.359 -0.4539 -0.0799 -0.1853
 1448SOL     OW 5898   3.985   4.026   2.250 -0.0334  0.1633 -0.1914
 1448SOL    HW2 5899   4.070   3.986   2.270 -0.1198 -0.1604 -0.4734
 1448SOL    HW3 5900   3.978   4.021   2.155 -1.3096 -1.7322 -0.0198
 1448SOL    MW4 5901   3.995   4.020   2.240 -0.2134 -0.1287 -0.2060
 1449SOL     OW 5902   4.011   4.270   2.383  0.3209  0.0202 -0.0689
 1449SOL    HW2 5903   4.081   4.320   2.340  1.5749 -1.4523  0.2222
 1449SOL    HW3 5904   4.007   4.188   2.334  1.0445 -1.2517  1.9444
 1449SOL    MW4 5905   4.020   4.265   2.371  0.5817 -0.3419  0.2351
 1450SOL     OW 5906   4.266   4.442   2.236  0.3549  0.6034 -0.2775
 1450SOL    HW2 5907   4.281   4.529   2.273  1.3283  0.1957  0.2918
 1450SOL    HW3 5908   4.326   4.384   2.283 -1.0182 -0.5695  0.0886
 1450SOL    MW4 5909   4.276   4.445   2.247  0.3023  0.3953 -0.1543
 1451SOL     OW 5910   0.246   0.035   2.647  0.0911 -0.1536  0.2995
 1451SOL    HW2 5911   0.243  -0.056   2.678 -2.3808 -1.1570 -2.6147
 1451SOL    HW3 5912   0.167   0.075   2.683 -0.2663  0.0370 -0.6800
 1451SOL    MW4 5913   0.235   0.028   2.656 -0.2822 -0.2608 -0.2141
 1452SOL     OW 5914   4.489   0.139   2.739 -0.1753  0.6404 -0.0995
 1452SOL    HW2 5915   4.480   0.126   2.833 -0.1728  0.6468 -0.0985
 1452SOL    HW3 5916   4.470   0.232   2.725  1.1912  0.9533  0.0553
 1452SOL    MW4 5917   4.485   0.150   2.750  0.0052  0.6826 -0.0787
 1453SOL     OW 5918   4.451   0.394   2.621  0.2077 -0.2324  0.3558
 1453SOL    HW2 5919   4.532   0.431   2.656  0.6574 -0.0733 -0.8062
 1453SOL    HW3 5920   4.469   0.384   2.527 -1.6063  1.1026 -0.1608
 1453SOL    MW4 5921   4.464   0.398   2.613  0.0277 -0.0353  0.1345
 1454SOL     OW 5922   0.189   0.518   2.710  0.2457 -0.4652  0.9316
 1454SOL    HW2 5923   0.192   0.533   2.804  0.3092 -1.3866  1.0887
 1454SOL    HW3 5924   0.276   0.484   2.688  0.0971 -0.6544  0.6181
 1454SOL    MW4 5925   0.201   0.515   2.719  0.2345 -0.6118  0.9108
 1455SOL     OW 5926   0.231   0.767   2.589 -0.6978 -0.2821  0.2233
 1455SOL    HW2 5927   0.301   0.812   2.636 -0.5301  0.0162 -0.3108
 1455SOL    HW3 5928   0.223   0.683   2.633 -0.8110  0.1432  1.0408
 1455SOL    MW4 5929   0.239   0.762   2.601 -0.6906 -0.1867  0.2611
 1456SOL     OW 5930   0.027   0.906   2.718  0.2550  0.6311  0.0011
 1456SOL    HW2 5931  -0.053   0.878   2.673  0.6520 -0.9795  0.2704
 1456SOL    HW3 5932   0.097   0.854   2.679  0.7528 -0.0428  1.7313
 1456SOL    MW4 5933   0.025   0.896   2.707  0.3730  0.3297  0.2646
 1457SOL     OW 5934   4.480   1.172   2.622  0.3785  0.1537 -0.0564
 1457SOL    HW2 5935   4.566   1.208   2.644  1.7370 -2.0749 -1.6070
 1457SOL    HW3 5936   4.483   1.082   2.653 -0.9449 -0.3075 -1.2526
 1457SOL    MW4 5937   4.492   1.165   2.629  0.3829 -0.2012 -0.4187
 1458SOL     OW 5938   0.224   1.290   2.727  0.1775  0.2872  0.1754
 1458SOL    HW2 5939   0.304   1.249   2.697  0.4874  1.3326 -0.4625
 1458SOL    HW3 5940   0.221   1.374   2.680 -1.5366  0.0386 -0.2096
 1458SOL    MW4 5941   0.234   1.296   2.717 -0.0077  0.3923  0.0403
 1459SOL     OW 5942   0.197   1.538   2.615  0.2865  0.0607  0.1246
 1459SOL    HW2 5943   0.262   1.602   2.642  0.8535 -0.2656 -0.4469
 1459SOL    HW3 5944   0.116   1.567   2.657 -0.0230  2.5374 -2.0965
 1459SOL    MW4 5945   0.195   1.550   2.624  0.3204  0.3445 -0.2441
 1460SOL     OW 5946   4.479   1.659   2.753  0.3137  0.2422  0.0891
 1460SOL    HW2 5947   4.481   1.654   2.849  0.4571  1.8842  0.1874
 1460SOL    HW3 5948   4.477   1.753   2.734  0.7258 -0.0599 -1.5299
 1460SOL    MW4 5949   4.479   1.671   2.763  0.3870  0.4189 -0.1116
 1461SOL     OW 5950   0.019   1.918   2.692  0.0969  0.2159  0.0567
 1461SOL    HW2 5951   0.075   1.987   2.728  0.6273 -0.1916  0.0114
 1461SOL    HW3 5952   0.038   1.918   2.598 -0.0249  0.1207  0.0316
 1461SOL    MW4 5953   0.029   1.927   2.684  0.1508  0.1496  0.0474
 1462SOL     OW 5954   0.242   2.081   2.747 -0.9100  0.1487  0.2362
 1462SOL    HW2 5955   0.310   2.030   2.702 -1.3505 -0.3623  0.1451
 1462SOL    HW3 5956   0.254   2.171   2.715 -0.7785 -0.0856 -0.3699
 1462SOL    MW4 5957   0.253   2.086   2.737 -0.9508  0.0503  0.1442
 1463SOL     OW 5958   0.228   2.338   2.655 -0.1394 -0.1002  0.4666
 1463SOL    HW2 5959   0.306   2.372   2.699  0.0566 -0.0779  0.1038
 1463SOL    HW3 5960   0.156   2.388   2.691  0.2713  1.5663 -0.9624
 1463SOL    MW4 5961   0.229   2.349   2.665 -0.0594  0.1228  0.2301
 1464SOL     OW 5962   0.004   2.465   2.754  0.0333  0.0164 -0.2835
 1464SOL    HW2 5963  -0.004   2.492   2.845 -0.4252  0.7849 -0.5491
 1464SOL    HW3 5964  -0.070   2.406   2.739  0.4004 -0.5150 -0.0172
 1464SOL    MW4 5965  -0.007   2.460   2.764  0.0210  0.0477 -0.2832
 1465SOL     OW 5966   4.481   2.737   2.687 -0.0863 -0.3132  0.1380
 1465SOL    HW2 5967   4.404   2.774   2.732  0.0096 -0.7710  0.6824
 1465SOL    HW3 5968   4.490   2.649   2.723 -0.5741 -1.0453 -1.4688
 1465SOL    MW4 5969   4.472   2.730   2.698 -0.1378 -0.4702 -0.0021
 1466SOL     OW 5970   0.251   2.852   2.765 -0.0132  0.2870 -0.1514
 1466SOL    HW2 5971   0.246   2.937   2.722 -1.0423 -0.0836 -0.7882
 1466SOL    HW3 5972   0.164   2.813   2.751  0.2473 -0.5998  0.6720
 1466SOL    MW4 5973   0.239   2.858   2.757 -0.1146  0.1211 -0.1268
 1467SOL     OW 5974   0.222   3.117   2.672 -0.2050  0.0939  0.4321
 1467SOL    HW2 5975   0.312   3.149   2.680  0.4462 -1.9386  1.5910
 1467SOL    HW3 5976   0.213   3.096   2.579  0.4162  0.5775  0.2541
 1467SOL    MW4 5977   0.233   3.118   2.661 -0.0371 -0.1104  0.5617
 1468SOL     OW 5978   4.461   3.224   2.743  0.0184 -0.0496  0.1818
 1468SOL    HW2 5979   4.391   3.178   2.696  0.8552 -1.3468  0.1723
 1468SOL    HW3 5980   4.541   3.182   2.712  0.8868  2.1337 -0.6222
 1468SOL    MW4 5981   4.462   3.212   2.732  0.2432  0.0672  0.0744
 1469SOL     OW 5982   0.031   3.455   2.612  0.4143  0.0120 -0.5595
 1469SOL    HW2 5983   0.080   3.513   2.669 -0.7779  0.4305  0.0497
 1469SOL    HW3 5984   0.019   3.375   2.663  0.2193  0.0126 -0.6042
 1469SOL    MW4 5985   0.036   3.452   2.626  0.2312  0.0672 -0.4849
 1470SOL     OW 5986   0.217   3.629   2.744 -0.2002  0.1162 -0.3757
 1470SOL    HW2 5987   0.224   3.618   2.838 -0.9948 -0.2729 -0.3571
 1470SOL    HW3 5988   0.294   3.585   2.708 -0.2075 -0.2456  0.0588
 1470SOL    MW4 5989   0.228   3.622   2.751 -0.3060  0.0172 -0.3161
 1471SOL     OW 5990   0.203   3.887   2.623 -0.4030 -0.1904 -0.3901
 1471SOL    HW2 5991   0.236   3.803   2.654 -0.4050 -0.2417 -0.5277
 1471SOL    HW3 5992   0.206   3.881   2.527  2.1078  0.9374 -0.4344
 1471SOL    MW4 5993   0.208   3.875   2.614 -0.0720 -0.0482 -0.4139
 1472SOL     OW 5994   0.004   4.020   2.752  0.6537 -0.2969 -0.0701
 1472SOL    HW2 5995   0.008   4.112   2.726 -0.4169  0.1247  1.1956
 1472SOL    HW3 5996   0.084   3.981   2.716  1.3323  1.2251 -0.2368
 1472SOL    MW4 5997   0.015   4.027   2.744  0.6018 -0.0401  0.0749
 1473SOL     OW 5998   0.019   4.295   2.658 -0.5741  0.2291 -0.1237
 1473SOL    HW2 5999  -0.059   4.323   2.704 -0.1795  0.6625  0.2809
 1473SOL    HW3 6000   0.087   4.358   2.683 -0.1522 -0.0016 -0.6546
 1473SOL    MW4 6001   0.018   4.307   2.667 -0.4664  0.2561 -0.1404
 1474SOL     OW 6002   0.228   4.449   2.739  0.2260  0.2205  0.0195
 1474SOL    HW2 6003   0.231   4.451   2.835 -0.2180 -0.2042  0.0450
 1474SOL    HW3 6004   0.305   4.398   2.714 -0.1919 -0.4995  0.1898
 1474SOL    MW4 6005   0.239   4.442   2.748  0.1123  0.0696  0.0453
 1475SOL     OW 6006   0.688   0.007   2.651 -0.3732 -0.1122  0.1545
 1475SOL    HW2 6007   0.759   0.057   2.691 -0.1405 -0.3439  0.0358
 1475SOL    HW3 6008   0.609   0.041   2.690 -0.1745 -0.0409  0.4932
 1475SOL    MW4 6009   0.687   0.018   2.661 -0.3163 -0.1334  0.1833
 1476SOL     OW 6010   0.486   0.144   2.745 -0.3033 -0.1676 -0.3705
 1476SOL    HW2 6011   0.487   0.133   2.840 -0.2652 -0.1684 -0.3708
 1476SOL    HW3 6012   0.402   0.109   2.717 -0.1560 -0.5148 -0.3780
 1476SOL    MW4 6013   0.475   0.138   2.754 -0.2788 -0.2135 -0.3715
 1477SOL     OW 6014   0.429   0.409   2.667 -0.1530  0.4549  0.2959
 1477SOL    HW2 6015   0.506   0.449   2.708  1.8773 -2.6465 -0.3597
 1477SOL    HW3 6016   0.431   0.318   2.697 -1.4853 -0.5919 -2.6558
 1477SOL    MW4 6017   0.439   0.402   2.677 -0.0609 -0.0924 -0.1800
 1478SOL     OW 6018   0.688   0.524   2.723 -0.0542 -0.4057 -0.1698
 1478SOL    HW2 6019   0.684   0.522   2.819 -0.6085 -0.8025 -0.2045
 1478SOL    HW3 6020   0.761   0.467   2.701  1.3166  1.2017  0.1052
 1478SOL    MW4 6021   0.697   0.516   2.733  0.0535 -0.2460 -0.1380
 1479SOL     OW 6022   0.665   0.793   2.639 -0.3247  0.1202  0.4255
 1479SOL    HW2 6023   0.732   0.846   2.684 -0.6570 -0.3719  1.5115
 1479SOL    HW3 6024   0.684   0.703   2.666 -1.3909 -0.0240  0.6964
 1479SOL    MW4 6025   0.676   0.788   2.649 -0.5093  0.0362  0.6046
 1480SOL     OW 6026   0.425   0.873   2.746 -0.3917  0.2959 -0.3062
 1480SOL    HW2 6027   0.431   0.965   2.722 -0.4413  0.4651  0.3430
 1480SOL    HW3 6028   0.509   0.836   2.718 -0.2243  0.6136 -0.2235
 1480SOL    MW4 6029   0.437   0.880   2.739 -0.3761  0.3601 -0.2096
 1481SOL     OW 6030   0.463   1.164   2.654 -0.3132  0.5525 -0.0104
 1481SOL    HW2 6031   0.536   1.225   2.666  1.0152 -1.0580  0.2359
 1481SOL    HW3 6032   0.450   1.160   2.559 -0.2765  1.0692 -0.0375
 1481SOL    MW4 6033   0.471   1.172   2.643 -0.1330  0.4081  0.0186
 1482SOL     OW 6034   0.680   1.322   2.679 -0.1999  0.0453 -0.3393
 1482SOL    HW2 6035   0.703   1.342   2.770  0.4228 -1.8410 -0.0705
 1482SOL    HW3 6036   0.753   1.270   2.647 -1.3864 -1.0515 -1.2959
 1482SOL    MW4 6037   0.693   1.318   2.687 -0.2742 -0.3483 -0.4303
 1483SOL     OW 6038   0.669   1.579   2.570 -0.2350  0.1287  0.2987
 1483SOL    HW2 6039   0.589   1.603   2.617  1.6309  2.0740  2.6231
 1483SOL    HW3 6040   0.683   1.487   2.593 -1.7754 -0.2219 -0.0996
 1483SOL    MW4 6041   0.660   1.570   2.580 -0.1921  0.3390  0.5529
 1484SOL     OW 6042   0.408   1.678   2.697 -0.1591 -0.1292 -0.1537
 1484SOL    HW2 6043   0.428   1.688   2.790 -1.1758  0.5500  0.0023
 1484SOL    HW3 6044   0.412   1.768   2.663  1.0147 -0.4660 -0.9405
 1484SOL    MW4 6045   0.411   1.691   2.705 -0.1384 -0.0839 -0.2372
 1485SOL     OW 6046   0.418   1.938   2.589  0.2117 -0.7169 -0.2025
 1485SOL    HW2 6047   0.509   1.948   2.617 -0.0645  1.3267  0.0302
 1485SOL    HW3 6048   0.423   1.939   2.493  0.3855 -0.1429 -0.1888
 1485SOL    MW4 6049   0.431   1.939   2.580  0.1982 -0.3716 -0.1698
 1486SOL     OW 6050   0.646   1.995   2.741 -0.2664  0.3099  0.1695
 1486SOL    HW2 6051   0.654   1.981   2.836  0.1316  0.0073  0.0918
 1486SOL    HW3 6052   0.732   1.974   2.706 -0.7679 -0.8812 -0.4121
 1486SOL    MW4 6053   0.658   1.990   2.749 -0.2801  0.1129  0.0823
 1487SOL     OW 6054   0.668   2.281   2.626  0.2329 -0.3416 -0.2277
 1487SOL    HW2 6055   0.759   2.304   2.646 -0.4308  1.4093  0.7907
 1487SOL    HW3 6056   0.665   2.186   2.638  1.7821 -0.3399  0.3334
 1487SOL    MW4 6057   0.680   2.271   2.630  0.3497 -0.1104 -0.0193
 1488SOL     OW 6058   0.470   2.411   2.757  0.1628  0.0758 -0.0854
 1488SOL    HW2 6059   0.470   2.497   2.714  0.9947  0.2751  0.2891
 1488SOL    HW3 6060   0.549   2.368   2.723 -0.2062 -0.5012 -0.2050
 1488SOL    MW4 6061   0.481   2.417   2.747  0.2239  0.0260 -0.0517
 1489SOL     OW 6062   0.421   2.660   2.636 -0.1525 -0.5906  0.0216
 1489SOL    HW2 6063   0.492   2.696   2.689 -0.5452 -1.7734  1.3909
 1489SOL    HW3 6064   0.342   2.699   2.673 -0.2916 -0.0370 -0.8618
 1489SOL    MW4 6065   0.420   2.670   2.648 -0.2227 -0.6738  0.0856
 1490SOL     OW 6066   0.649   2.781   2.754  0.6225  0.2061 -0.2430
 1490SOL    HW2 6067   0.657   2.792   2.848  0.1808 -1.1124 -0.0380
 1490SOL    HW3 6068   0.673   2.866   2.717 -0.1404  1.0232  1.1012
 1490SOL    MW4 6069   0.653   2.794   2.761  0.4635  0.1400 -0.0389
 1491SOL     OW 6070   0.696   3.040   2.661 -0.1264 -0.4483 -0.1523
 1491SOL    HW2 6071   0.759   3.096   2.707 -1.0667 -0.5035  1.2054
 1491SOL    HW3 6072   0.704   3.067   2.569  0.3026  1.0824  0.3165
 1491SOL    MW4 6073   0.706   3.051   2.655 -0.1938 -0.2534  0.0889
 1492SOL     OW 6074   0.467   3.235   2.735  0.2818  0.0980 -0.6295
 1492SOL    HW2 6075   0.448   3.214   2.827 -0.5554  1.7300 -0.4236
 1492SOL    HW3 6076   0.537   3.174   2.711 -0.0967 -0.9277  0.8345
 1492SOL    MW4 6077   0.474   3.224   2.744  0.1214  0.1779 -0.4094
 1493SOL     OW 6078   0.427   3.499   2.631 -0.0762  0.1974 -0.4739
 1493SOL    HW2 6079   0.425   3.411   2.669 -1.0987  0.6031  0.4277
 1493SOL    HW3 6080   0.418   3.484   2.537 -1.0298 -0.6319 -0.2655
 1493SOL    MW4 6081   0.425   3.485   2.624 -0.3370  0.1414 -0.3276
 1494SOL     OW 6082   0.667   3.634   2.725 -0.0747  0.0129 -0.3562
 1494SOL    HW2 6083   0.670   3.634   2.821 -0.1594 -1.6894 -0.3349
 1494SOL    HW3 6084   0.582   3.597   2.703  0.9570 -2.0739 -1.0619
 1494SOL    MW4 6085   0.656   3.629   2.735  0.0502 -0.4871 -0.4468
 1495SOL     OW 6086   0.657   3.913   2.657  0.2918  0.2773  0.4404
 1495SOL    HW2 6087   0.574   3.948   2.690  0.1602  0.3002  0.0866
 1495SOL    HW3 6088   0.657   3.821   2.683 -0.5023 -0.0970 -0.8046
 1495SOL    MW4 6089   0.646   3.906   2.665  0.1697  0.2310  0.2296
 1496SOL     OW 6090   0.413   4.029   2.741 -0.2267 -0.0036 -0.6017
 1496SOL    HW2 6091   0.424   4.115   2.699 -0.2331 -0.3280 -1.2827
 1496SOL    HW3 6092   0.336   3.992   2.698  0.0131 -0.5129 -0.5942
 1496SOL    MW4 6093   0.404   4.035   2.730 -0.1959 -0.1130 -0.6907
 1497SOL     OW 6094   0.440   4.284   2.652  0.2067  0.1956 -0.2735
 1497SOL    HW2 6095   0.513   4.326   2.696  0.7893 -0.1360 -0.9092
 1497SOL    HW3 6096   0.449   4.310   2.560 -0.0702 -0.4015 -0.4755
 1497SOL    MW4 6097   0.451   4.293   2.646  0.2470  0.0734 -0.3839
 1498SOL     OW 6098   0.671   4.417   2.732 -0.4558 -0.5323  0.1803
 1498SOL    HW2 6099   0.751   4.370   2.710 -0.9966 -1.4190  0.0719
 1498SOL    HW3 6100   0.679   4.501   2.686 -0.5013 -1.4285 -1.5130
 1498SOL    MW4 6101   0.683   4.422   2.723 -0.5332 -0.7677 -0.0572
 1499SOL     OW 6102   1.137   4.643   2.618 -0.0403  0.0891 -0.1092
 1499SOL    HW2 6103   1.216   4.687   2.651 -0.2159  0.3614 -0.0510
 1499SOL    HW3 6104   1.141   4.556   2.657  1.3460 -0.6313 -1.8014
 1499SOL    MW4 6105   1.148   4.638   2.628  0.1196  0.0300 -0.3247
 1500SOL     OW 6106   0.916   0.138   2.736  0.4457 -0.4048 -0.0303
 1500SOL    HW2 6107   0.918   0.144   2.831  0.9102 -0.6566 -0.0242
 1500SOL    HW3 6108   0.994   0.087   2.713  0.3453 -0.3310 -0.5446
 1500SOL    MW4 6109   0.927   0.132   2.745  0.4937 -0.4283 -0.0970
 1501SOL     OW 6110   0.907   0.397   2.630 -0.2916  0.1265  0.1707
 1501SOL    HW2 6111   0.910   0.304   2.651  0.4505 -0.2202 -1.3669
 1501SOL    HW3 6112   0.905   0.400   2.534  0.5827  1.7129  0.1810
 1501SOL    MW4 6113   0.907   0.385   2.620 -0.0784  0.2900 -0.0308
 1502SOL     OW 6114   1.123   0.541   2.721 -0.1210  0.0043  0.4401
 1502SOL    HW2 6115   1.114   0.631   2.690  0.0274  0.1268  0.7583
 1502SOL    HW3 6116   1.046   0.496   2.686 -0.0712  0.1964  0.0768
 1502SOL    MW4 6117   1.112   0.547   2.712 -0.0948  0.0458  0.4344
 1503SOL     OW 6118   1.093   0.807   2.636  0.0438  0.2266  0.5921
 1503SOL    HW2 6119   1.178   0.832   2.673  0.7737  0.9644 -1.5383
 1503SOL    HW3 6120   1.111   0.788   2.544 -1.9862 -0.2980  0.2710
 1503SOL    MW4 6121   1.107   0.808   2.629 -0.1277  0.2548  0.2687
 1504SOL     OW 6122   0.877   0.944   2.754 -0.1606 -0.4037  0.7069
 1504SOL    HW2 6123   0.881   0.964   2.847  0.3156 -0.1865  0.6443
 1504SOL    HW3 6124   0.946   0.880   2.740 -1.8494 -2.3007  0.9418
 1504SOL    MW4 6125   0.887   0.938   2.764 -0.3206 -0.6253  0.7298
 1505SOL     OW 6126   0.881   1.165   2.586  0.0382 -0.2830  0.0135
 1505SOL    HW2 6127   0.865   1.080   2.627 -1.0339 -0.3207 -0.4657
 1505SOL    HW3 6128   0.874   1.148   2.492  2.1509 -0.1309 -0.2000
 1505SOL    MW4 6129   0.878   1.151   2.579  0.1755 -0.2681 -0.0777
 1506SOL     OW 6130   1.118   1.261   2.715  0.2473  0.1577  0.0537
 1506SOL    HW2 6131   1.103   1.352   2.686 -0.4840 -0.2804 -0.9786
 1506SOL    HW3 6132   1.047   1.212   2.674 -0.4844 -0.5858  2.1521
 1506SOL    MW4 6133   1.106   1.267   2.706  0.0542  0.0018  0.1941
 1507SOL     OW 6134   1.119   1.518   2.616  0.0343 -0.5385  0.2933
 1507SOL    HW2 6135   1.035   1.563   2.629  0.2742  0.3422 -1.1411
 1507SOL    HW3 6136   1.137   1.527   2.522  1.2598 -1.5639  0.4228
 1507SOL    MW4 6137   1.110   1.525   2.605  0.2277 -0.5575  0.1206
 1508SOL     OW 6138   0.898   1.669   2.678  0.2681  0.1225  0.5047
 1508SOL    HW2 6139   0.882   1.656   2.771 -0.4256  1.7774  0.6357
 1508SOL    HW3 6140   0.815   1.646   2.636  0.0114  1.0686  0.4710
 1508SOL    MW4 6141   0.885   1.664   2.685  0.1428  0.4656  0.5174
 1509SOL     OW 6142   0.894   1.938   2.623  0.0647 -0.6902  0.0770
 1509SOL    HW2 6143   0.978   1.981   2.640 -0.3073 -0.4281  1.2735
 1509SOL    HW3 6144   0.908   1.847   2.649 -0.0745 -0.6125  0.4177
 1509SOL    MW4 6145   0.907   1.932   2.629 -0.0027 -0.6454  0.2799
 1510SOL     OW 6146   1.136   2.056   2.678  0.2205 -0.3782  0.2290
 1510SOL    HW2 6147   1.217   2.029   2.635  0.5256  0.3453  0.3276
 1510SOL    HW3 6148   1.119   2.144   2.642 -0.8886 -0.7990 -0.3079
 1510SOL    MW4 6149   1.144   2.064   2.667  0.1144 -0.3383  0.1712
 1511SOL     OW 6150   1.123   2.313   2.589 -0.2822  0.6323  0.4934
 1511SOL    HW2 6151   1.183   2.372   2.634  0.4772 -0.3060  0.7327
 1511SOL    HW3 6152   1.142   2.325   2.496  0.8996 -0.2848  0.5979
 1511SOL    MW4 6153   1.133   2.322   2.583 -0.0261  0.3877  0.5383
 1512SOL     OW 6154   0.904   2.409   2.709  0.0000  0.0000 -0.1820
 1512SOL    HW2 6155   0.902   2.499   2.678  0.0000  0.0000 -0.1701
 1512SOL    HW3 6156   0.979   2.370   2.663  0.0000  0.0000 -0.2060
 1512SOL    MW4 6157   0.914   2.416   2.699  0.0000  0.0000 -0.1838
 1513SOL     OW 6158   0.874   2.673   2.618  0.0000  0.0000  0.4631
 1513SOL    HW2 6159   0.947   2.714   2.663  0.0000  0.0000  0.5148
 1513SOL    HW3 6160   0.796   2.710   2.660  0.0000  0.0000  0.4127
 1513SOL    MW4 6161   0.873   2.683   2.629  0.0000  0.0000  0.4630
 1514SOL     OW 6162   1.083   2.832   2.720  0.0000  0.0000  0.4039
 1514SOL    HW2 6163   1.106   2.825   2.813  0.0000  0.0000  0.4054
 1514SOL    HW3 6164   1.159   2.795   2.674  0.0000  0.0000  0.4094
 1514SOL    MW4 6165   1.096   2.826   2.726  0.0000  0.0000  0.4048
 1515SOL     OW 6166   1.148   3.096   2.642  0.0000  0.0000  0.2953
 1515SOL    HW2 6167   1.122   3.007   2.665  0.0000  0.0000  0.2927
 1515SOL    HW3 6168   1.136   3.101   2.547  0.0000  0.0000  0.2954
 1515SOL    MW4 6169   1.143   3.085   2.633  0.0000  0.0000  0.2949
 1516SOL     OW 6170   0.919   3.208   2.754  0.0000  0.0000 -0.3375
 1516SOL    HW2 6171   0.903   3.287   2.702  0.0000  0.0000 -0.3503
 1516SOL    HW3 6172   1.006   3.179   2.727  0.0000  0.0000 -0.3440
 1516SOL    MW4 6173   0.928   3.215   2.744  0.0000  0.0000 -0.3400
 1517SOL     OW 6174   0.887   3.462   2.620  0.0000  0.0000 -0.0096
 1517SOL    HW2 6175   0.961   3.509   2.661  0.0000  0.0000 -0.0165
 1517SOL    HW3 6176   0.810   3.512   2.648  0.0000  0.0000 -0.0191
 1517SOL    MW4 6177   0.887   3.475   2.629  0.0000  0.0000 -0.0117
 1518SOL     OW 6178   1.102   3.599   2.740  0.0000  0.0000  0.1388
 1518SOL    HW2 6179   1.101   3.626   2.832  0.0000  0.0000  0.1392
 1518SOL    HW3 6180   1.100   3.681   2.692  0.0000  0.0000  0.1403
 1518SOL    MW4 6181   1.102   3.613   2.746  0.0000  0.0000  0.1390
 1519SOL     OW 6182   1.098   3.851   2.623  0.0000  0.0000 -0.2719
 1519SOL    HW2 6183   1.178   3.889   2.661  0.0000  0.0000 -0.2715
 1519SOL    HW3 6184   1.110   3.859   2.529  0.0000  0.0000 -0.2721
 1519SOL    MW4 6185   1.110   3.857   2.616  0.0000  0.0000 -0.2720
 1520SOL     OW 6186   0.893   4.008   2.734  0.0000  0.0000 -0.3051
 1520SOL    HW2 6187   0.957   3.963   2.680  0.0000  0.0000 -0.3120
 1520SOL    HW3 6188   0.809   3.969   2.709  0.0000  0.0000 -0.2968
 1520SOL    MW4 6189   0.890   3.997   2.724  0.0000  0.0000 -0.3052
 1521SOL     OW 6190   0.894   4.268   2.659  0.3435 -0.0825 -0.4348
 1521SOL    HW2 6191   0.896   4.175   2.681  2.3428  0.0360  0.0033
 1521SOL    HW3 6192   0.922   4.272   2.568  0.5035  0.0940 -0.3805
 1521SOL    MW4 6193   0.898   4.257   2.650  0.6285 -0.0434 -0.3700
 1522SOL     OW 6194   1.144   4.389   2.730 -0.3775 -0.0778  0.4277
 1522SOL    HW2 6195   1.153   4.391   2.825  0.8116 -0.2757  0.3293
 1522SOL    HW3 6196   1.059   4.347   2.714 -0.1677 -0.8592  1.3761
 1522SOL    MW4 6197   1.134   4.384   2.740 -0.1928 -0.2074  0.5395
 1523SOL     OW 6198   1.537   4.651   2.637 -0.4067 -0.0827  0.7304
 1523SOL    HW2 6199   1.532   4.559   2.664  2.7345 -0.8358 -0.9521
 1523SOL    HW3 6200   1.561   4.647   2.544  1.0056  2.4374  0.9468
 1523SOL    MW4 6201   1.539   4.638   2.628  0.1942  0.1507  0.5369
 1524SOL     OW 6202   1.333   0.125   2.761  0.1939 -0.0040  0.6970
 1524SOL    HW2 6203   1.338   0.211   2.719 -2.0883 -0.1074  0.1230
 1524SOL    HW3 6204   1.413   0.080   2.733  0.0362  0.9153 -1.3537
 1524SOL    MW4 6205   1.344   0.131   2.752 -0.1280  0.1037  0.3505
 1525SOL     OW 6206   1.317   0.377   2.598 -0.0318  0.1984  0.1394
 1525SOL    HW2 6207   1.395   0.412   2.640  0.4050  3.0629 -2.8695
 1525SOL    HW3 6208   1.247   0.437   2.623 -0.4767 -0.1538 -0.2461
 1525SOL    MW4 6209   1.318   0.390   2.606 -0.0330  0.5299 -0.3083
 1526SOL     OW 6210   1.532   0.488   2.753  0.3298 -0.1369 -0.3876
 1526SOL    HW2 6211   1.617   0.449   2.729  1.1300  0.6325  1.1464
 1526SOL    HW3 6212   1.535   0.576   2.717  0.3012 -0.0125 -0.0871
 1526SOL    MW4 6213   1.544   0.494   2.745  0.4317 -0.0190 -0.1457
 1527SOL     OW 6214   1.581   0.763   2.663  0.3095 -0.2168 -0.0652
 1527SOL    HW2 6215   1.491   0.788   2.682 -0.2682 -1.6962 -0.7518
 1527SOL    HW3 6216   1.588   0.768   2.568 -0.0223 -3.1766 -0.2894
 1527SOL    MW4 6217   1.570   0.767   2.653  0.1894 -0.8025 -0.1853
 1528SOL     OW 6218   1.338   0.864   2.732  0.7033 -0.4649 -0.2614
 1528SOL    HW2 6219   1.369   0.880   2.821  2.2480 -0.4797 -0.7704
 1528SOL    HW3 6220   1.336   0.950   2.691 -0.7455 -0.3601 -0.0016
 1528SOL    MW4 6221   1.342   0.877   2.738  0.7160 -0.4531 -0.2942
 1529SOL     OW 6222   1.354   1.110   2.605  0.1262  0.1876 -0.3304
 1529SOL    HW2 6223   1.433   1.144   2.648  0.1488  0.1267 -0.3244
 1529SOL    HW3 6224   1.282   1.155   2.649 -0.0791 -2.6262  2.3281
 1529SOL    MW4 6225   1.355   1.121   2.616  0.1020 -0.1917  0.0212
 1530SOL     OW 6226   1.551   1.237   2.736  0.2910 -0.2010 -0.2668
 1530SOL    HW2 6227   1.540   1.244   2.831  0.4387  1.3347 -0.3558
 1530SOL    HW3 6228   1.640   1.205   2.725  1.3236  2.4489  0.0596
 1530SOL    MW4 6229   1.561   1.234   2.747  0.4467  0.3512 -0.2356
 1531SOL     OW 6230   1.563   1.518   2.626  0.2967  0.1691 -0.3926
 1531SOL    HW2 6231   1.568   1.428   2.658  2.1284  0.1217 -0.7371
 1531SOL    HW3 6232   1.550   1.509   2.532  1.6540  0.2405 -0.5959
 1531SOL    MW4 6233   1.562   1.505   2.618  0.7174  0.1723 -0.4647
 1532SOL     OW 6234   1.350   1.661   2.690  0.1492  0.1204  0.2714
 1532SOL    HW2 6235   1.423   1.605   2.663  0.2804 -0.3126  1.4699
 1532SOL    HW3 6236   1.272   1.614   2.660  0.2939 -0.3642  0.6265
 1532SOL    MW4 6237   1.349   1.647   2.683  0.1856 -0.0007  0.4764
 1533SOL     OW 6238   1.385   1.943   2.598  0.3689 -0.1601  0.0068
 1533SOL    HW2 6239   1.370   1.859   2.640 -0.3817 -0.0912 -0.1139
 1533SOL    HW3 6240   1.390   1.922   2.504 -0.5717  0.0337 -0.0822
 1533SOL    MW4 6241   1.384   1.929   2.591  0.1458 -0.1255 -0.0210
 1534SOL     OW 6242   1.601   2.055   2.700  0.4611 -0.0479 -0.3864
 1534SOL    HW2 6243   1.669   2.005   2.655  1.4813  0.3250  0.6858
 1534SOL    HW3 6244   1.518   2.020   2.667  1.1480 -2.2223  0.0942
 1534SOL    MW4 6245   1.599   2.044   2.690  0.6864 -0.2854 -0.1814
 1535SOL     OW 6246   1.534   2.321   2.648 -0.5505  0.7504  0.2459
 1535SOL    HW2 6247   1.613   2.369   2.672 -0.1409 -0.2805  1.0118
 1535SOL    HW3 6248   1.553   2.230   2.671 -1.0402  0.0912 -1.8268
 1535SOL    MW4 6249   1.547   2.315   2.654 -0.5610  0.5276  0.0737
 1536SOL     OW 6250   1.311   2.485   2.710  0.0679  0.1811 -0.0710
 1536SOL    HW2 6251   1.327   2.575   2.682  0.4856 -0.0709 -0.6549
 1536SOL    HW3 6252   1.393   2.439   2.690 -0.4530 -0.5334 -0.6026
 1536SOL    MW4 6253   1.324   2.491   2.704  0.0542  0.0534 -0.2182
 1537SOL     OW 6254   1.320   2.766   2.631  0.1771  0.3178  0.4761
 1537SOL    HW2 6255   1.409   2.799   2.642 -0.0135  1.2344 -0.7063
 1537SOL    HW3 6256   1.316   2.739   2.539 -0.7392  0.1668  0.5620
 1537SOL    MW4 6257   1.332   2.767   2.620  0.0310  0.4187  0.3316
 1538SOL     OW 6258   1.594   2.848   2.725 -0.2240 -0.3375 -0.4271
 1538SOL    HW2 6259   1.589   2.829   2.819 -0.0865  0.7278 -0.1998
 1538SOL    HW3 6260   1.671   2.800   2.695 -0.1978 -0.5820  0.0237
 1538SOL    MW4 6261   1.603   2.839   2.734 -0.2025 -0.2291 -0.3374
 1539SOL     OW 6262   1.554   3.104   2.619 -0.2912 -0.1747  0.1395
 1539SOL    HW2 6263   1.633   3.148   2.651 -0.7733  0.4312  0.5112
 1539SOL    HW3 6264   1.558   3.016   2.656  0.3598 -0.2434 -0.0846
 1539SOL    MW4 6265   1.565   3.098   2.628 -0.2688 -0.1037  0.1590
 1540SOL     OW 6266   1.363   3.236   2.757 -0.1422 -0.0856  0.0367
 1540SOL    HW2 6267   1.439   3.190   2.722 -0.4425 -0.4814 -0.0912
 1540SOL    HW3 6268   1.288   3.192   2.719 -0.4958 -0.9924  1.7100
 1540SOL    MW4 6269   1.363   3.224   2.748 -0.2284 -0.2575  0.2408
 1541SOL     OW 6270   1.332   3.495   2.613  0.6054 -0.3617  0.1036
 1541SOL    HW2 6271   1.347   3.409   2.653 -0.9576 -0.4540  0.5056
 1541SOL    HW3 6272   1.261   3.534   2.664 -1.5060 -0.5164 -2.5865
 1541SOL    MW4 6273   1.325   3.489   2.625  0.1206 -0.3941 -0.1984
 1542SOL     OW 6274   1.571   3.594   2.722  0.2352 -0.0142 -0.3491
 1542SOL    HW2 6275   1.653   3.547   2.705 -0.1814 -0.7632 -0.3018
 1542SOL    HW3 6276   1.507   3.553   2.664 -0.7427 -1.2726  1.5644
 1542SOL    MW4 6277   1.573   3.582   2.713  0.0513 -0.2789 -0.0906
 1543SOL     OW 6278   1.592   3.876   2.665 -0.6388  0.4026  0.0708
 1543SOL    HW2 6279   1.508   3.912   2.693 -0.8523 -0.3243  0.3560
 1543SOL    HW3 6280   1.589   3.784   2.689  0.7318  0.6421  1.2420
 1543SOL    MW4 6281   1.581   3.869   2.672 -0.4861  0.3386  0.2630
 1544SOL     OW 6282   1.331   3.952   2.753  0.0462  0.2781 -0.3115
 1544SOL    HW2 6283   1.336   3.962   2.849  0.3747  0.7519 -0.3719
 1544SOL    HW3 6284   1.335   4.042   2.720  3.1038 -0.0390 -0.9033
 1544SOL    MW4 6285   1.332   3.965   2.762  0.4929  0.2990 -0.3974
 1545SOL     OW 6286   1.344   4.211   2.659  0.9202  0.0150  0.1754
 1545SOL    HW2 6287   1.270   4.267   2.678  0.3181 -0.5275 -0.5373
 1545SOL    HW3 6288   1.371   4.236   2.570 -0.1705 -1.7049 -0.6593
 1545SOL    MW4 6289   1.338   4.221   2.650  0.6969 -0.2832 -0.0288
 1546SOL     OW 6290   1.548   4.387   2.729 -0.0723  0.5433 -0.1339
 1546SOL    HW2 6291   1.550   4.413   2.821  0.5734 -0.8829  0.2725
 1546SOL    HW3 6292   1.473   4.328   2.722 -0.1111  0.6360 -0.5170
 1546SOL    MW4 6293   1.538   4.383   2.740  0.0077  0.3672 -0.1307
 1547SOL     OW 6294   1.974   4.626   2.645 -0.0479 -0.2020 -0.0913
 1547SOL    HW2 6295   2.053   4.655   2.691 -1.4513  2.4001  0.7791
 1547SOL    HW3 6296   2.000   4.620   2.553  1.1680  0.5662  0.1927
 1547SOL    MW4 6297   1.988   4.629   2.639 -0.0726  0.2427  0.0610
 1548SOL     OW 6298   1.755   0.105   2.748 -0.6258 -0.1821  0.6194
 1548SOL    HW2 6299   1.828   0.050   2.720  0.2861  0.6398  1.3780
 1548SOL    HW3 6300   1.678   0.061   2.712  0.2472 -0.9131 -0.4150
 1548SOL    MW4 6301   1.754   0.092   2.739 -0.3904 -0.1701  0.5832
 1549SOL     OW 6302   1.769   0.373   2.651  0.1969 -0.3226 -0.0330
 1549SOL    HW2 6303   1.853   0.408   2.681 -1.3091  0.4597  3.5365
 1549SOL    HW3 6304   1.761   0.288   2.695 -1.1482 -0.1039  0.1717
 1549SOL    MW4 6305   1.779   0.367   2.661 -0.1792 -0.1905  0.4652
 1550SOL     OW 6306   2.021   0.470   2.726  0.1760  0.0772 -0.1198
 1550SOL    HW2 6307   2.096   0.427   2.685  0.7507  0.9150  0.0222
 1550SOL    HW3 6308   2.034   0.563   2.708 -0.2659  0.3337  0.8256
 1550SOL    MW4 6309   2.033   0.477   2.718  0.1936  0.2216  0.0238
 1551SOL     OW 6310   2.054   0.733   2.647  0.0538 -0.0773 -0.2441
 1551SOL    HW2 6311   1.981   0.787   2.679 -0.7879 -0.8971 -0.7256
 1551SOL    HW3 6312   2.049   0.742   2.552 -0.2376 -1.1837 -0.3340
 1551SOL    MW4 6313   2.043   0.741   2.639 -0.0958 -0.3314 -0.3197
 1552SOL     OW 6314   1.828   0.876   2.755 -0.5144  0.1695 -0.2344
 1552SOL    HW2 6315   1.832   0.967   2.726 -0.3837  0.0052 -0.7289
 1552SOL    HW3 6316   1.742   0.845   2.725  0.0707 -0.3249 -1.4006
 1552SOL    MW4 6317   1.817   0.884   2.747 -0.4200  0.0826 -0.4537
 1553SOL     OW 6318   1.813   1.143   2.646  0.1708  0.2947 -0.1549
 1553SOL    HW2 6319   1.864   1.221   2.666 -0.2938  0.8085 -0.9523
 1553SOL    HW3 6320   1.822   1.132   2.552 -0.0104 -0.4406 -0.0859
 1553SOL    MW4 6321   1.821   1.152   2.637  0.0856  0.2655 -0.2513
 1554SOL     OW 6322   2.003   1.327   2.707  0.1116  0.2462 -0.1024
 1554SOL    HW2 6323   2.019   1.307   2.799  0.8316 -0.0397 -0.2921
 1554SOL    HW3 6324   2.067   1.275   2.658  0.2865  1.0246 -0.7229
 1554SOL    MW4 6325   2.013   1.318   2.712  0.2296  0.3111 -0.2091
 1555SOL     OW 6326   2.040   1.593   2.627 -0.4171 -0.2823 -0.1930
 1555SOL    HW2 6327   1.957   1.630   2.657 -0.4434 -0.2374 -0.3228
 1555SOL    HW3 6328   2.040   1.504   2.661  0.8116  0.6459  2.3927
 1555SOL    MW4 6329   2.029   1.586   2.636 -0.2584 -0.1538  0.1309
 1556SOL     OW 6330   1.781   1.673   2.718  0.1434 -0.2575 -0.1450
 1556SOL    HW2 6331   1.801   1.647   2.808  1.4707  1.2244  0.0058
 1556SOL    HW3 6332   1.699   1.629   2.698 -0.3341 -0.3380  1.9141
 1556SOL    MW4 6333   1.773   1.664   2.728  0.2555 -0.0725  0.1466
 1557SOL     OW 6334   1.818   1.925   2.582  0.1069 -0.6069  0.0598
 1557SOL    HW2 6335   1.891   1.953   2.638 -0.8298 -2.2813  2.1872
 1557SOL    HW3 6336   1.797   1.837   2.613 -1.3047 -1.0531 -2.0873
 1557SOL    MW4 6337   1.825   1.917   2.594 -0.2029 -0.8866  0.0572
 1558SOL     OW 6338   2.022   2.080   2.684 -0.3270 -0.0080 -0.0872
 1558SOL    HW2 6339   2.021   2.071   2.780  1.5309 -0.2860 -0.0724
 1558SOL    HW3 6340   2.004   2.173   2.669 -2.5567 -0.3210  0.4361
 1558SOL    MW4 6341   2.019   2.091   2.695 -0.3762 -0.0858 -0.0165
 1559SOL     OW 6342   1.983   2.353   2.588 -0.3271  0.3542 -0.2177
 1559SOL    HW2 6343   2.064   2.390   2.623 -0.8576  1.4218 -0.0888
 1559SOL    HW3 6344   2.000   2.342   2.495  0.7363 -1.5255  0.1821
 1559SOL    MW4 6345   1.996   2.357   2.580 -0.2568  0.2472 -0.1478
 1560SOL     OW 6346   1.761   2.458   2.718  0.1886  0.1032 -0.2697
 1560SOL    HW2 6347   1.782   2.452   2.812  0.9016 -1.8190 -0.5302
 1560SOL    HW3 6348   1.834   2.413   2.675  0.0498  1.2930 -1.7872
 1560SOL    MW4 6349   1.774   2.451   2.725  0.2643  0.0064 -0.5040
 1561SOL     OW 6350   1.806   2.701   2.621 -0.1008 -0.3559 -0.0172
 1561SOL    HW2 6351   1.798   2.614   2.659  0.7595 -0.8750 -1.0188
 1561SOL    HW3 6352   1.800   2.687   2.527  0.9418  0.5600 -0.2304
 1561SOL    MW4 6353   1.804   2.688   2.614  0.1504 -0.3037 -0.1774
 1562SOL     OW 6354   2.014   2.862   2.699 -0.3178  0.3204  0.0671
 1562SOL    HW2 6355   2.097   2.819   2.681  0.0597  1.3059 -0.5514
 1562SOL    HW3 6356   1.948   2.800   2.667  0.1102 -0.9810  1.5957
 1562SOL    MW4 6357   2.016   2.848   2.692 -0.2115  0.2787  0.1872
 1563SOL     OW 6358   1.993   3.126   2.660 -0.0639 -0.4043  0.1170
 1563SOL    HW2 6359   2.015   3.033   2.667  0.0891 -0.4633 -0.9825
 1563SOL    HW3 6360   2.002   3.146   2.567  0.5839  0.8819  0.4319
 1563SOL    MW4 6361   1.997   3.117   2.649  0.0418 -0.2422  0.0134
 1564SOL     OW 6362   1.765   3.227   2.766 -0.0450  0.0851 -0.0920
 1564SOL    HW2 6363   1.785   3.317   2.741 -0.6903  0.0835 -0.6244
 1564SOL    HW3 6364   1.835   3.175   2.727 -0.5556  0.1829 -1.1767
 1564SOL    MW4 6365   1.777   3.232   2.757 -0.1975  0.0978 -0.3049
 1565SOL     OW 6366   1.835   3.478   2.646  0.2867 -0.2997 -0.2679
 1565SOL    HW2 6367   1.913   3.525   2.674 -0.0951  0.0081  0.2851
 1565SOL    HW3 6368   1.840   3.479   2.550  0.3155  0.8162 -0.2635
 1565SOL    MW4 6369   1.846   3.484   2.637  0.2401 -0.1118 -0.1943
 1566SOL     OW 6370   2.026   3.650   2.703 -0.2123 -0.3637 -0.5133
 1566SOL    HW2 6371   2.057   3.647   2.794  0.5556  1.5871 -0.6986
 1566SOL    HW3 6372   2.094   3.602   2.654  1.1418  1.5236 -0.5256
 1566SOL    MW4 6373   2.039   3.643   2.708  0.0677  0.1431 -0.5395
 1567SOL     OW 6374   1.986   3.900   2.595 -0.1981 -0.1924  0.2026
 1567SOL    HW2 6375   1.919   3.938   2.653 -0.6994  0.4024 -0.7601
 1567SOL    HW3 6376   1.993   3.809   2.624 -0.2073  0.1741  1.4172
 1567SOL    MW4 6377   1.978   3.893   2.607 -0.2655 -0.0656  0.2360
 1568SOL     OW 6378   1.804   4.008   2.756  0.1041 -0.2560 -0.4483
 1568SOL    HW2 6379   1.790   4.098   2.725  1.0150  0.1038  0.1595
 1568SOL    HW3 6380   1.724   3.962   2.733 -0.1692  0.5915 -1.2303
 1568SOL    MW4 6381   1.792   4.014   2.749  0.1882 -0.0968 -0.4714
 1569SOL     OW 6382   1.761   4.258   2.608 -0.2166 -0.1618 -0.7643
 1569SOL    HW2 6383   1.700   4.314   2.656 -0.3932 -0.2914 -0.8344
 1569SOL    HW3 6384   1.731   4.262   2.517  0.3213  0.3444 -0.9184
 1569SOL    MW4 6385   1.749   4.266   2.602 -0.1689 -0.1125 -0.7939
 1570SOL     OW 6386   2.027   4.351   2.660 -0.2981 -0.0338  0.4881
 1570SOL    HW2 6387   1.952   4.307   2.619  0.7681 -0.2591 -1.2729
 1570SOL    HW3 6388   2.011   4.444   2.644 -0.9944  0.0304  1.5111
 1570SOL    MW4 6389   2.015   4.358   2.652 -0.2491 -0.0548  0.3908
 1571SOL     OW 6390   2.500   4.641   2.617  0.6965 -0.1576  0.7744
 1571SOL    HW2 6391   2.579   4.681   2.652  0.3105 -0.3656  1.8866
 1571SOL    HW3 6392   2.507   4.653   2.522  2.2380 -0.5068  0.8302
 1571SOL    MW4 6393   2.512   4.647   2.609  0.8490 -0.2317  0.9286
 1572SOL     OW 6394   2.242   0.049   2.705  0.1932 -0.3232 -0.2596
 1572SOL    HW2 6395   2.243   0.068   2.799  0.9324  0.2525 -0.3846
 1572SOL    HW3 6396   2.331   0.020   2.685  0.0954 -0.2371 -0.8290
 1572SOL    MW4 6397   2.254   0.047   2.715  0.2780 -0.2359 -0.3512
 1573SOL     OW 6398   2.231   0.318   2.593 -0.3829  0.0983 -0.1376
 1573SOL    HW2 6399   2.252   0.229   2.622  1.6195  0.7729  0.5610
 1573SOL    HW3 6400   2.242   0.315   2.498  0.3010 -0.2565 -0.0570
 1573SOL    MW4 6401   2.235   0.306   2.585 -0.0286  0.1405 -0.0350
 1574SOL     OW 6402   2.432   0.468   2.687 -0.4045 -0.1764 -0.2207
 1574SOL    HW2 6403   2.425   0.556   2.651  0.4700 -0.1494 -0.3141
 1574SOL    HW3 6404   2.362   0.419   2.643 -1.3394  0.6283  0.3303
 1574SOL    MW4 6405   2.422   0.473   2.677 -0.4125 -0.0667 -0.1602
 1575SOL     OW 6406   2.473   0.721   2.584  0.1286 -0.3805  0.0607
 1575SOL    HW2 6407   2.395   0.770   2.610 -0.9322 -2.0229  0.0765
 1575SOL    HW3 6408   2.470   0.719   2.489 -0.1930 -0.9791  0.0825
 1575SOL    MW4 6409   2.463   0.727   2.575 -0.0539 -0.6762  0.0658
 1576SOL     OW 6410   2.272   0.875   2.685 -0.0538  0.0760  0.4089
 1576SOL    HW2 6411   2.289   0.885   2.779  1.0830  0.8148  0.1373
 1576SOL    HW3 6412   2.194   0.820   2.680 -0.5608  0.6447  1.7998
 1576SOL    MW4 6413   2.264   0.869   2.697  0.0293  0.2486  0.5567
 1577SOL     OW 6414   2.242   1.136   2.569  0.5061  0.2317  0.2524
 1577SOL    HW2 6415   2.240   1.042   2.584 -2.2620  0.2925  0.6085
 1577SOL    HW3 6416   2.245   1.146   2.474  0.2338 -0.2143  0.1982
 1577SOL    MW4 6417   2.242   1.125   2.559  0.1049  0.1808  0.2923
 1578SOL     OW 6418   2.470   1.268   2.649  0.0249 -0.0122  0.5838
 1578SOL    HW2 6419   2.544   1.212   2.622  0.3768  0.8317 -0.2561
 1578SOL    HW3 6420   2.392   1.219   2.622  0.3428  0.1560 -0.6848
 1578SOL    MW4 6421   2.470   1.254   2.642  0.1130  0.1214  0.3057
 1579SOL     OW 6422   2.497   1.542   2.609 -0.7768  0.0090  0.0795
 1579SOL    HW2 6423   2.422   1.584   2.650 -1.2304 -0.9793  0.2718
 1579SOL    HW3 6424   2.491   1.450   2.636  0.4689 -0.0881  0.0598
 1579SOL    MW4 6425   2.487   1.535   2.618 -0.6723 -0.1342  0.1023
 1580SOL     OW 6426   2.277   1.661   2.749 -0.1021  0.3436  0.3780
 1580SOL    HW2 6427   2.282   1.754   2.729 -0.6924  0.0796 -1.0812
 1580SOL    HW3 6428   2.197   1.631   2.706  0.5116 -0.9917  0.1248
 1580SOL    MW4 6429   2.267   1.669   2.741 -0.0989  0.1327  0.1523
 1581SOL     OW 6430   2.236   1.916   2.601 -0.5166 -0.2430 -0.1710
 1581SOL    HW2 6431   2.158   1.969   2.620  0.2314  1.2424 -1.1000
 1581SOL    HW3 6432   2.244   1.918   2.506  0.6330 -0.3823 -0.0885
 1581SOL    MW4 6433   2.227   1.923   2.591 -0.2661 -0.0653 -0.2828
 1582SOL     OW 6434   2.472   2.060   2.692 -0.4072 -0.1562 -0.3934
 1582SOL    HW2 6435   2.447   2.150   2.670 -0.1680  0.0578  0.2017
 1582SOL    HW3 6436   2.398   2.007   2.662 -0.8386  0.3039 -0.1629
 1582SOL    MW4 6437   2.459   2.065   2.685 -0.4325 -0.0670 -0.2847
 1583SOL     OW 6438   2.457   2.339   2.614  0.0236  0.4296  0.2149
 1583SOL    HW2 6439   2.532   2.364   2.667  0.8967  0.9321 -1.2324
 1583SOL    HW3 6440   2.488   2.345   2.524 -0.5495 -3.2530 -0.2836
 1583SOL    MW4 6441   2.471   2.343   2.609  0.0632  0.0100 -0.0417
 1584SOL     OW 6442   2.220   2.454   2.728 -0.0452 -0.2129 -0.2410
 1584SOL    HW2 6443   2.220   2.446   2.823  0.9688  1.4454 -0.0812
 1584SOL    HW3 6444   2.297   2.406   2.699  0.4902  0.5256 -0.0800
 1584SOL    MW4 6445   2.230   2.447   2.736  0.1593  0.1032 -0.1986
 1585SOL     OW 6446   2.237   2.710   2.641  0.4033  0.0690  0.2337
 1585SOL    HW2 6447   2.315   2.741   2.688 -1.0256  0.0620  2.6610
 1585SOL    HW3 6448   2.226   2.620   2.671 -1.8433  0.7936  1.6922
 1585SOL    MW4 6449   2.246   2.703   2.651 -0.0815  0.1636  0.7465
 1586SOL     OW 6450   2.437   2.850   2.748 -0.7659  0.2974  0.2384
 1586SOL    HW2 6451   2.513   2.802   2.716 -1.9070 -0.8836 -0.7131
 1586SOL    HW3 6452   2.457   2.942   2.729  0.5581  0.0208  0.2872
 1586SOL    MW4 6453   2.450   2.856   2.741 -0.7415  0.1051  0.1190
 1587SOL     OW 6454   2.500   3.093   2.640 -0.3348  0.4729 -0.3221
 1587SOL    HW2 6455   2.424   3.142   2.673 -0.5824 -0.3902  0.4229
 1587SOL    HW3 6456   2.475   3.066   2.552  0.1487  2.4247 -1.0648
 1587SOL    MW4 6457   2.487   3.096   2.633 -0.3040  0.6166 -0.3219
 1588SOL     OW 6458   2.271   3.214   2.728 -0.4846 -0.0535 -0.3074
 1588SOL    HW2 6459   2.282   3.210   2.823  2.2159  1.3607 -0.4976
 1588SOL    HW3 6460   2.178   3.194   2.713 -0.5902 -1.9184  2.4734
 1588SOL    MW4 6461   2.260   3.211   2.738 -0.1421 -0.1130  0.0346
 1589SOL     OW 6462   2.222   3.452   2.617  0.2193 -0.0071 -0.1374
 1589SOL    HW2 6463   2.292   3.513   2.642  0.4133 -0.2404 -0.1170
 1589SOL    HW3 6464   2.243   3.371   2.663  1.2780 -0.8489 -2.0635
 1589SOL    MW4 6465   2.234   3.450   2.627  0.3846 -0.1490 -0.3889
 1590SOL     OW 6466   2.441   3.615   2.696  0.2630  0.3193 -0.3942
 1590SOL    HW2 6467   2.440   3.601   2.791 -3.1175  0.0517 -0.4119
 1590SOL    HW3 6468   2.451   3.710   2.687 -0.0208  0.4126  0.2260
 1590SOL    MW4 6469   2.443   3.626   2.707 -0.2205  0.2964 -0.3147
 1591SOL     OW 6470   2.447   3.875   2.612  0.3290 -1.0624  0.5299
 1591SOL    HW2 6471   2.521   3.918   2.655 -0.1496  0.9929 -0.6385
 1591SOL    HW3 6472   2.372   3.930   2.634 -0.3632 -1.5274 -0.6510
 1591SOL    MW4 6473   2.447   3.888   2.621  0.1745 -0.8526  0.2201
 1592SOL     OW 6474   2.223   3.993   2.693 -0.5681  0.2744 -0.1737
 1592SOL    HW2 6475   2.213   3.973   2.787  0.6368 -2.0716 -0.5004
 1592SOL    HW3 6476   2.138   3.973   2.655 -0.9280  0.8026  0.3431
 1592SOL    MW4 6477   2.210   3.988   2.701 -0.4568  0.0348 -0.1488
 1593SOL     OW 6478   2.280   4.250   2.641  0.0579  0.1308  0.3371
 1593SOL    HW2 6479   2.264   4.157   2.656 -0.3153  0.3024  1.0316
 1593SOL    HW3 6480   2.196   4.292   2.657 -0.0111  0.4842 -0.9267
 1593SOL    MW4 6481   2.267   4.243   2.645 -0.0007  0.2003  0.2620
 1594SOL     OW 6482   2.516   4.376   2.718  0.0479  0.1058  0.4704
 1594SOL    HW2 6483   2.439   4.326   2.692  1.2511 -1.2848 -0.5273
 1594SOL    HW3 6484   2.504   4.462   2.678  0.0255 -0.7905 -1.5072
 1594SOL    MW4 6485   2.505   4.381   2.709  0.2038 -0.1960  0.0780
 1595SOL     OW 6486   2.925   4.665   2.653  0.3357 -0.1999 -0.0990
 1595SOL    HW2 6487   2.997   4.721   2.679  1.7249 -1.7789 -0.4324
 1595SOL    HW3 6488   2.925   4.668   2.557 -0.4793  0.3411 -0.0817
 1595SOL    MW4 6489   2.934   4.673   2.644  0.4113 -0.3366 -0.1409
 1596SOL     OW 6490   2.691   0.141   2.708 -0.1264  0.1372  0.4319
 1596SOL    HW2 6491   2.666   0.119   2.798 -0.2830  0.9678  0.5977
 1596SOL    HW3 6492   2.773   0.093   2.694  0.0327  0.1993  1.1134
 1596SOL    MW4 6493   2.699   0.132   2.718 -0.1261  0.2549  0.5436
 1597SOL     OW 6494   2.664   0.376   2.574  0.2979 -0.1005  0.2038
 1597SOL    HW2 6495   2.683   0.291   2.614  2.7820  0.4931  0.4119
 1597SOL    HW3 6496   2.579   0.401   2.609  0.0665 -1.9850  1.0435
 1597SOL    MW4 6497   2.655   0.368   2.584  0.5953 -0.2708  0.3419
 1598SOL     OW 6498   2.885   0.504   2.713 -0.2946  0.1128  0.2082
 1598SOL    HW2 6499   2.919   0.575   2.659 -1.0737  0.3747  0.0482
 1598SOL    HW3 6500   2.806   0.475   2.668 -1.1609  0.5845  1.3964
 1598SOL    MW4 6501   2.879   0.509   2.700 -0.5119  0.2096  0.3438
 1599SOL     OW 6502   2.933   0.708   2.548 -0.3846 -0.3993  0.6886
 1599SOL    HW2 6503   3.017   0.739   2.581 -0.4502 -0.6954  1.1294
 1599SOL    HW3 6504   2.868   0.764   2.590 -0.4585 -0.6802  0.9465
 1599SOL    MW4 6505   2.935   0.719   2.558 -0.4029 -0.4753  0.7808
 1600SOL     OW 6506   2.716   0.829   2.699  0.4187  0.2778  0.4674
 1600SOL    HW2 6507   2.721   0.836   2.794  0.8960 -3.3128  0.7927
 1600SOL    HW3 6508   2.634   0.782   2.683 -1.1112  3.3598 -1.1042
 1600SOL    MW4 6509   2.706   0.824   2.709  0.2799  0.2107  0.3028
 1601SOL     OW 6510   2.684   1.080   2.570 -0.0416  0.5161 -0.0976
 1601SOL    HW2 6511   2.759   1.130   2.601  1.1773 -1.7693  0.7647
 1601SOL    HW3 6512   2.681   1.003   2.626 -1.7791 -0.4763 -1.4702
 1601SOL    MW4 6513   2.693   1.076   2.581 -0.1101  0.0834 -0.1647
 1602SOL     OW 6514   2.875   1.280   2.705 -0.3334  0.0039 -0.1632
 1602SOL    HW2 6515   2.874   1.286   2.800 -1.0842  0.6952 -0.2079
 1602SOL    HW3 6516   2.953   1.229   2.685 -0.8988 -1.3238  0.8903
 1602SOL    MW4 6517   2.885   1.274   2.715 -0.5069 -0.0801 -0.0300
 1603SOL     OW 6518   2.929   1.533   2.633 -0.2717  0.2407  0.2317
 1603SOL    HW2 6519   2.865   1.578   2.687 -0.6781  0.0617 -0.1035
 1603SOL    HW3 6520   2.915   1.440   2.652 -0.6453  0.1603 -0.4416
 1603SOL    MW4 6521   2.919   1.527   2.643 -0.3748  0.2066  0.0985
 1604SOL     OW 6522   2.704   1.688   2.718 -0.0704 -0.2382 -0.1258
 1604SOL    HW2 6523   2.696   1.685   2.814  0.3810  0.8492 -0.0400
 1604SOL    HW3 6524   2.634   1.631   2.686 -1.1574  0.5422  0.8262
 1604SOL    MW4 6525   2.694   1.680   2.727 -0.1543  0.0082  0.0112
 1605SOL     OW 6526   2.735   1.946   2.601  0.3575  0.1376 -0.2084
 1605SOL    HW2 6527   2.721   1.860   2.641  0.2561 -0.1755 -0.8995
 1605SOL    HW3 6528   2.657   1.996   2.623  1.1931  0.6589  1.7153
 1605SOL    MW4 6529   2.723   1.941   2.609  0.4544  0.1651 -0.0458
 1606SOL     OW 6530   2.934   2.069   2.774  0.4080 -0.3102  0.1214
 1606SOL    HW2 6531   2.932   2.159   2.741  0.4803 -1.1391 -2.2677
 1606SOL    HW3 6532   2.867   2.024   2.722  2.2230 -2.2384 -0.6101
 1606SOL    MW4 6533   2.925   2.075   2.762  0.6568 -0.6738 -0.2902
 1607SOL     OW 6534   2.898   2.313   2.623 -0.7632  0.2203 -0.5013
 1607SOL    HW2 6535   2.971   2.368   2.650  0.0219 -1.1377  0.2212
 1607SOL    HW3 6536   2.821   2.355   2.661  0.0002 -0.0006  1.3418
 1607SOL    MW4 6537   2.897   2.326   2.632 -0.5589  0.0119 -0.1628
 1608SOL     OW 6538   2.695   2.441   2.727  0.2450  0.4880 -0.4330
 1608SOL    HW2 6539   2.704   2.444   2.823 -2.1588 -0.2750 -0.1513
 1608SOL    HW3 6540   2.690   2.533   2.701  2.2212  0.7411  0.0139
 1608SOL    MW4 6541   2.695   2.454   2.737  0.1884  0.4208 -0.3371
 1609SOL     OW 6542   2.656   2.701   2.626 -0.0015  0.1266  0.3184
 1609SOL    HW2 6543   2.726   2.749   2.670  1.6855 -0.4629 -1.6231
 1609SOL    HW3 6544   2.682   2.700   2.534 -1.5973 -1.7907 -0.1475
 1609SOL    MW4 6545   2.668   2.707   2.620  0.0107 -0.2041  0.0007
 1610SOL     OW 6546   2.881   2.819   2.744 -0.3154  0.1305 -0.3728
 1610SOL    HW2 6547   2.869   2.815   2.839  2.7522 -2.4271  0.0307
 1610SOL    HW3 6548   2.905   2.910   2.727  1.4419  0.1129  1.6887
 1610SOL    MW4 6549   2.883   2.830   2.755  0.3211 -0.2091 -0.0477
 1611SOL     OW 6550   2.951   3.090   2.661  0.2186  0.7707 -0.4753
 1611SOL    HW2 6551   2.874   3.144   2.678  0.0266 -0.1615  1.8017
 1611SOL    HW3 6552   2.943   3.063   2.570 -1.4611  1.7362 -0.6275
 1611SOL    MW4 6553   2.940   3.094   2.651 -0.0281  0.7753 -0.1950
 1612SOL     OW 6554   2.722   3.231   2.751 -0.4736  0.3412  0.3583
 1612SOL    HW2 6555   2.711   3.318   2.713 -0.5408 -0.7644 -2.2537
 1612SOL    HW3 6556   2.650   3.180   2.715  0.2177 -1.0939  0.9694
 1612SOL    MW4 6557   2.711   3.236   2.742 -0.3912  0.0060  0.0947
 1613SOL     OW 6558   2.683   3.493   2.632  0.0524 -0.2465  0.2570
 1613SOL    HW2 6559   2.607   3.552   2.635  0.8672  0.8481 -0.2446
 1613SOL    HW3 6560   2.674   3.449   2.548  0.2957  0.3385 -0.0824
 1613SOL    MW4 6561   2.672   3.495   2.621  0.1919 -0.0248  0.1459
 1614SOL     OW 6562   2.923   3.627   2.687  0.2975 -0.2596  0.1841
 1614SOL    HW2 6563   2.920   3.635   2.782 -0.3528 -1.7216  0.2973
 1614SOL    HW3 6564   2.842   3.582   2.664  0.7956 -0.5771 -0.9963
 1614SOL    MW4 6565   2.912   3.622   2.696  0.2778 -0.4942  0.0434
 1615SOL     OW 6566   2.927   3.896   2.631  0.4890 -0.0016  0.2542
 1615SOL    HW2 6567   2.999   3.950   2.663  1.9135 -1.7881  0.1536
 1615SOL    HW3 6568   2.944   3.809   2.668 -1.3970 -0.5524 -0.1143
 1615SOL    MW4 6569   2.939   3.892   2.640  0.4284 -0.3099  0.1922
 1616SOL     OW 6570   2.681   4.001   2.717 -0.5565  0.1716 -0.4359
 1616SOL    HW2 6571   2.694   4.091   2.688 -0.8361  0.2692 -0.2682
 1616SOL    HW3 6572   2.756   3.953   2.683 -1.4194  0.0641 -2.2212
 1616SOL    MW4 6573   2.692   4.006   2.709 -0.7071  0.1702 -0.6495
 1617SOL     OW 6574   2.725   4.243   2.580  0.0562 -0.1715  0.1730
 1617SOL    HW2 6575   2.793   4.301   2.615 -0.6084  0.9087 -0.3103
 1617SOL    HW3 6576   2.643   4.277   2.616 -0.3871 -0.5181 -0.4899
 1617SOL    MW4 6577   2.723   4.255   2.589 -0.0899 -0.0749  0.0215
 1618SOL     OW 6578   2.921   4.391   2.697  0.3606  0.2097 -0.1717
 1618SOL    HW2 6579   2.913   4.374   2.791 -1.4446 -0.6853 -0.4697
 1618SOL    HW3 6580   2.920   4.487   2.690  0.5183  0.2841  0.7184
 1618SOL    MW4 6581   2.920   4.401   2.708  0.1433  0.1016 -0.0935
 1619SOL     OW 6582   3.356   4.648   2.639  0.1232 -0.0016 -0.5194
 1619SOL    HW2 6583   3.359   4.573   2.698  1.5825  1.8694  1.9034
 1619SOL    HW3 6584   3.280   4.699   2.669 -0.1536  0.1007 -1.3710
 1619SOL    MW4 6585   3.346   4.645   2.651  0.2792  0.2589 -0.3119
 1620SOL     OW 6586   3.154   0.129   2.738 -0.0256  0.1033  0.3010
 1620SOL    HW2 6587   3.154   0.144   2.832  0.2192 -1.1180  0.5000
 1620SOL    HW3 6588   3.165   0.216   2.700  1.6325  0.4124  1.4351
 1620SOL    MW4 6589   3.155   0.142   2.745  0.2255 -0.0170  0.4768
 1621SOL     OW 6590   3.114   0.370   2.614  0.6249  0.6570  0.3713
 1621SOL    HW2 6591   3.029   0.403   2.645  0.3870  1.5796 -1.2073
 1621SOL    HW3 6592   3.111   0.383   2.519  2.4207  0.4080  0.2726
 1621SOL    MW4 6593   3.102   0.376   2.605  0.8304  0.7459  0.1500
 1622SOL     OW 6594   3.339   0.505   2.721  0.0261 -0.2116 -0.2647
 1622SOL    HW2 6595   3.346   0.583   2.665 -0.2161  0.2020  0.2712
 1622SOL    HW3 6596   3.255   0.466   2.698 -0.9095  0.9430  1.0292
 1622SOL    MW4 6597   3.329   0.510   2.711 -0.1292 -0.0048 -0.0234
 1623SOL     OW 6598   3.395   0.755   2.586  0.2910  0.6872 -0.3822
 1623SOL    HW2 6599   3.463   0.808   2.628 -0.2905  1.4326 -0.3605
 1623SOL    HW3 6600   3.402   0.777   2.493 -0.8083  1.8221 -0.2174
 1623SOL    MW4 6601   3.405   0.765   2.579  0.0694  0.9353 -0.3579
 1624SOL     OW 6602   3.157   0.860   2.662 -0.2796  0.2173  0.0458
 1624SOL    HW2 6603   3.157   0.852   2.757 -1.3012 -0.0168  0.0274
 1624SOL    HW3 6604   3.242   0.825   2.635 -0.4676 -0.8170  0.7822
 1624SOL    MW4 6605   3.168   0.854   2.671 -0.4389  0.0499  0.1407
 1625SOL     OW 6606   3.128   1.132   2.626 -0.6214  0.1257  0.7775
 1625SOL    HW2 6607   3.140   1.041   2.655  0.2503 -0.2961 -0.8401
 1625SOL    HW3 6608   3.122   1.126   2.531 -1.7911  1.6565  0.7340
 1625SOL    MW4 6609   3.129   1.119   2.618 -0.6607  0.2720  0.5584
 1626SOL     OW 6610   3.376   1.226   2.695 -0.6699  0.5713 -0.2783
 1626SOL    HW2 6611   3.378   1.252   2.787 -0.4576 -0.4221  0.0043
 1626SOL    HW3 6612   3.290   1.187   2.683 -0.8334  1.0286 -0.5934
 1626SOL    MW4 6613   3.365   1.225   2.705 -0.6635  0.5006 -0.2825
 1627SOL     OW 6614   3.366   1.502   2.618 -0.2837  0.2162  0.0469
 1627SOL    HW2 6615   3.293   1.550   2.658 -0.7288  0.9353 -1.5821
 1627SOL    HW3 6616   3.352   1.411   2.643 -1.2588  0.4740  0.4520
 1627SOL    MW4 6617   3.355   1.497   2.627 -0.4714  0.3449 -0.1144
 1628SOL     OW 6618   3.156   1.669   2.668 -0.1828 -0.5821  0.0445
 1628SOL    HW2 6619   3.145   1.762   2.648 -0.2511 -0.9812 -1.7966
 1628SOL    HW3 6620   3.072   1.629   2.647  0.6514 -1.4780 -1.6344
 1628SOL    MW4 6621   3.144   1.676   2.663 -0.0820 -0.7529 -0.4201
 1629SOL     OW 6622   3.136   1.945   2.642 -0.1717 -0.4475  0.0756
 1629SOL    HW2 6623   3.216   1.989   2.671 -0.7460  0.7428 -0.1054
 1629SOL    HW3 6624   3.065   1.993   2.685 -1.0194  1.1525 -2.9518
 1629SOL    MW4 6625   3.137   1.958   2.651 -0.3591 -0.0795 -0.3476
 1630SOL     OW 6626   3.380   2.063   2.734 -0.3151 -0.2954 -0.3541
 1630SOL    HW2 6627   3.358   2.068   2.827  1.1680  1.7692 -0.0553
 1630SOL    HW3 6628   3.353   2.148   2.699 -0.0968 -0.7412 -1.6189
 1630SOL    MW4 6629   3.373   2.075   2.742 -0.0911 -0.0818 -0.4816
 1631SOL     OW 6630   3.369   2.328   2.621  0.2612  0.0227 -0.2363
 1631SOL    HW2 6631   3.438   2.374   2.669 -0.3108 -0.5581  1.1509
 1631SOL    HW3 6632   3.396   2.334   2.530  2.3981 -0.6271  0.3261
 1631SOL    MW4 6633   3.382   2.335   2.615  0.4675 -0.1397  0.0212
 1632SOL     OW 6634   3.141   2.401   2.752 -0.0295 -0.0064 -0.3453
 1632SOL    HW2 6635   3.143   2.497   2.751 -0.7201  0.0093 -0.4465
 1632SOL    HW3 6636   3.212   2.375   2.694  0.6467  0.4367  0.2720
 1632SOL    MW4 6637   3.151   2.410   2.744 -0.0310  0.0544 -0.2770
 1633SOL     OW 6638   3.135   2.672   2.683  0.6748  0.4147  0.1872
 1633SOL    HW2 6639   3.208   2.725   2.716  0.1266  1.0647  0.3538
 1633SOL    HW3 6640   3.058   2.727   2.696  0.1996 -0.1353 -0.3170
 1633SOL    MW4 6641   3.135   2.686   2.689  0.5395  0.4280  0.1426
 1634SOL     OW 6642   3.368   2.808   2.805 -0.3559 -0.4277  0.0074
 1634SOL    HW2 6643   3.355   2.773   2.893 -1.2443 -2.1167 -0.7747
 1634SOL    HW3 6644   3.449   2.768   2.775  0.1781  0.4906  0.2125
 1634SOL    MW4 6645   3.377   2.798   2.813 -0.4027 -0.5293 -0.0689
 1635SOL     OW 6646   3.374   3.072   2.664 -0.1184  0.5761 -0.4142
 1635SOL    HW2 6647   3.372   2.985   2.703 -0.0358  0.3980 -0.8032
 1635SOL    HW3 6648   3.353   3.058   2.572 -3.5165  1.3423  0.1746
 1635SOL    MW4 6649   3.371   3.059   2.657 -0.5558  0.6537 -0.3879
 1636SOL     OW 6650   3.165   3.251   2.736  0.0091 -0.3607 -0.2432
 1636SOL    HW2 6651   3.241   3.199   2.713  0.8965  0.3993  0.9138
 1636SOL    HW3 6652   3.090   3.196   2.713  0.8765 -0.7596 -2.1963
 1636SOL    MW4 6653   3.165   3.237   2.730  0.2408 -0.3130 -0.3483
 1637SOL     OW 6654   3.176   3.496   2.630 -0.0196 -0.0290  0.0167
 1637SOL    HW2 6655   3.168   3.407   2.663  0.1385  0.0255  0.2023
 1637SOL    HW3 6656   3.090   3.536   2.644  0.7197  0.7775  2.6351
 1637SOL    MW4 6657   3.164   3.490   2.636  0.0987  0.0846  0.3865
 1638SOL     OW 6658   3.355   3.648   2.756 -0.1447  0.5755 -0.1606
 1638SOL    HW2 6659   3.357   3.631   2.850  2.3353  0.3903 -0.2014
 1638SOL    HW3 6660   3.275   3.606   2.725 -0.4521 -0.2548  1.7055
 1638SOL    MW4 6661   3.345   3.640   2.764  0.1421  0.4416  0.0801
 1639SOL     OW 6662   3.376   3.897   2.639  0.5687  0.1803 -0.3859
 1639SOL    HW2 6663   3.386   3.813   2.684 -1.1298  0.4271  0.4716
 1639SOL    HW3 6664   3.392   3.876   2.547  2.1921 -0.6815  0.0651
 1639SOL    MW4 6665   3.380   3.883   2.633  0.5586  0.0992 -0.2131
 1640SOL     OW 6666   3.142   4.028   2.739 -0.0330  0.3919 -0.1189
 1640SOL    HW2 6667   3.147   4.118   2.706 -2.2900  0.1376 -1.2267
 1640SOL    HW3 6668   3.220   3.985   2.704  0.6875  1.7065 -0.1635
 1640SOL    MW4 6669   3.153   4.034   2.730 -0.2358  0.5317 -0.2708
 1641SOL     OW 6670   3.166   4.282   2.643  0.1544 -0.2986  0.1559
 1641SOL    HW2 6671   3.079   4.320   2.651  0.5625  1.0223 -1.4943
 1641SOL    HW3 6672   3.171   4.250   2.553  1.2403 -0.6869  0.3451
 1641SOL    MW4 6673   3.155   4.283   2.633  0.3514 -0.1760 -0.0370
 1642SOL     OW 6674   3.359   4.419   2.791 -0.0526 -0.1532 -0.0784
 1642SOL    HW2 6675   3.339   4.427   2.884 -0.4006  0.5344 -0.2099
 1642SOL    HW3 6676   3.288   4.366   2.755 -1.8031  2.4399 -0.5809
 1642SOL    MW4 6677   3.347   4.413   2.798 -0.3293  0.2799 -0.1621
 1643SOL     OW 6678   3.831   4.632   2.651 -0.2576 -0.1139  0.0859
 1643SOL    HW2 6679   3.838   4.552   2.704 -0.7577 -0.1485  0.1003
 1643SOL    HW3 6680   3.751   4.674   2.682 -0.9070 -0.4626 -1.0866
 1643SOL    MW4 6681   3.822   4.627   2.662 -0.4091 -0.1640 -0.0670
 1644SOL     OW 6682   3.580   0.109   2.740  0.0150 -0.1097  0.2283
 1644SOL    HW2 6683   3.571   0.194   2.698  0.3990  0.7748  1.9073
 1644SOL    HW3 6684   3.500   0.062   2.716 -0.5024  0.9629 -0.1809
 1644SOL    MW4 6685   3.568   0.114   2.731 -0.0024  0.1485  0.3958
 1645SOL     OW 6686   3.557   0.374   2.614  0.2593  0.5975  0.2897
 1645SOL    HW2 6687   3.634   0.417   2.649  1.0825 -0.3146 -0.3721
 1645SOL    HW3 6688   3.483   0.422   2.652  1.1391  2.6799 -0.5395
 1645SOL    MW4 6689   3.557   0.386   2.623  0.4845  0.7519  0.0930
 1646SOL     OW 6690   3.788   0.493   2.718 -0.7764 -0.0549 -0.5015
 1646SOL    HW2 6691   3.794   0.479   2.813 -3.1758 -0.0921 -0.3353
 1646SOL    HW3 6692   3.867   0.451   2.684  0.4562  0.5157  1.5272
 1646SOL    MW4 6693   3.800   0.485   2.726 -0.9303  0.0155 -0.2120
 1647SOL     OW 6694   3.848   0.760   2.639  0.1618 -0.8805  0.5974
 1647SOL    HW2 6695   3.766   0.799   2.671  0.2188 -0.2948  0.0434
 1647SOL    HW3 6696   3.852   0.674   2.681 -0.5534 -0.7578  0.9206
 1647SOL    MW4 6697   3.837   0.754   2.649  0.0751 -0.7870  0.5672
 1648SOL     OW 6698   3.619   0.889   2.714 -0.6414 -0.0663  0.2517
 1648SOL    HW2 6699   3.595   0.909   2.804 -0.0975  0.1007  0.3631
 1648SOL    HW3 6700   3.622   0.975   2.671 -0.4626 -0.1054  0.1858
 1648SOL    MW4 6701   3.617   0.903   2.720 -0.5462 -0.0495  0.2580
 1649SOL     OW 6702   3.622   1.132   2.578 -0.0748  0.0115 -0.1412
 1649SOL    HW2 6703   3.695   1.160   2.633 -0.4840  0.0116  0.4113
 1649SOL    HW3 6704   3.545   1.170   2.621 -0.5062 -0.8844 -0.1130
 1649SOL    MW4 6705   3.621   1.141   2.591 -0.1855 -0.1067 -0.0646
 1650SOL     OW 6706   3.834   1.245   2.731 -0.1288 -0.0912  0.2043
 1650SOL    HW2 6707   3.905   1.201   2.685 -0.4333  0.3135 -0.6703
 1650SOL    HW3 6708   3.833   1.334   2.694 -0.6582  0.1035  0.6817
 1650SOL    MW4 6709   3.843   1.251   2.720 -0.2387 -0.0120  0.1516
 1651SOL     OW 6710   3.850   1.490   2.615 -0.2683 -0.0692  0.0080
 1651SOL    HW2 6711   3.923   1.536   2.656  0.1023  0.7075 -1.4523
 1651SOL    HW3 6712   3.772   1.533   2.651  0.0283  0.0355  0.5294
 1651SOL    MW4 6713   3.849   1.502   2.625 -0.1805  0.0471 -0.1161
 1652SOL     OW 6714   3.605   1.642   2.701  0.1803 -0.0273  0.0601
 1652SOL    HW2 6715   3.601   1.645   2.796 -0.5516  0.0176  0.0238
 1652SOL    HW3 6716   3.522   1.604   2.674 -0.2419  1.3688 -0.6458
 1652SOL    MW4 6717   3.594   1.637   2.710  0.0279  0.1627 -0.0381
 1653SOL     OW 6718   3.593   1.897   2.651  0.1105 -0.1602  0.3990
 1653SOL    HW2 6719   3.519   1.939   2.696  1.1190  0.8269  1.1746
 1653SOL    HW3 6720   3.586   1.805   2.675 -0.5012  0.0319  0.9894
 1653SOL    MW4 6721   3.582   1.890   2.660  0.1631 -0.0045  0.5791
 1654SOL     OW 6722   3.839   2.003   2.732  0.2689 -0.1701 -0.1003
 1654SOL    HW2 6723   3.911   1.961   2.686 -0.2870 -1.6613  0.3857
 1654SOL    HW3 6724   3.760   1.966   2.693 -0.2436  1.0370 -0.2431
 1654SOL    MW4 6725   3.838   1.993   2.721  0.1280 -0.2078 -0.0548
 1655SOL     OW 6726   3.818   2.294   2.656  0.1771  0.1698 -0.1695
 1655SOL    HW2 6727   3.827   2.201   2.677 -0.7474  0.0773 -0.1771
 1655SOL    HW3 6728   3.809   2.296   2.560  0.0055  0.2477 -0.1519
 1655SOL    MW4 6729   3.818   2.282   2.646  0.0324  0.1678 -0.1681
 1656SOL     OW 6730   3.609   2.449   2.745 -0.4477  0.0208  0.3050
 1656SOL    HW2 6731   3.600   2.439   2.840 -1.9247 -1.3245  0.0550
 1656SOL    HW3 6732   3.684   2.395   2.722  0.2574  0.7901  0.7702
 1656SOL    MW4 6733   3.617   2.440   2.755 -0.5496 -0.0556  0.3333
 1657SOL     OW 6734   3.621   2.717   2.694  0.0905  0.0306  0.2885
 1657SOL    HW2 6735   3.609   2.624   2.711 -0.4412  0.2575  1.1848
 1657SOL    HW3 6736   3.638   2.722   2.600  1.6359 -1.1070  0.4902
 1657SOL    MW4 6737   3.622   2.705   2.684  0.2244 -0.0896  0.4334
 1658SOL     OW 6738   3.840   2.858   2.767 -0.1253  0.3528  0.1801
 1658SOL    HW2 6739   3.899   2.791   2.732  0.0745  0.1108  0.9756
 1658SOL    HW3 6740   3.753   2.821   2.754  0.0252 -0.4386  1.3963
 1658SOL    MW4 6741   3.836   2.844   2.761 -0.0789  0.2167  0.4454
 1659SOL     OW 6742   3.801   3.084   2.607 -0.5349 -0.3924 -0.3932
 1659SOL    HW2 6743   3.726   3.133   2.641 -0.2410 -0.8030  0.8665
 1659SOL    HW3 6744   3.812   3.011   2.668  0.2971 -0.8737 -1.1083
 1659SOL    MW4 6745   3.792   3.081   2.619 -0.3862 -0.5102 -0.3214
 1660SOL     OW 6746   3.594   3.216   2.717  0.3306  0.0218 -0.1153
 1660SOL    HW2 6747   3.570   3.298   2.673 -0.1324 -0.2905 -0.4605
 1660SOL    HW3 6748   3.518   3.159   2.702  0.5423 -0.3787  0.3491
 1660SOL    MW4 6749   3.581   3.219   2.709  0.2975 -0.0722 -0.0999
 1661SOL     OW 6750   3.532   3.485   2.629 -0.0687 -0.0588  0.0225
 1661SOL    HW2 6751   3.614   3.524   2.661 -0.1358 -0.1290  0.2844
 1661SOL    HW3 6752   3.464   3.547   2.657 -0.2202 -0.5833  0.8270
 1661SOL    MW4 6753   3.534   3.498   2.637 -0.0975 -0.1373  0.1631
 1662SOL     OW 6754   3.781   3.590   2.716  0.4145 -0.2924 -0.0186
 1662SOL    HW2 6755   3.863   3.552   2.687  1.5448  0.6699  1.8543
 1662SOL    HW3 6756   3.789   3.684   2.696 -0.5925 -0.3175 -0.6199
 1662SOL    MW4 6757   3.793   3.598   2.709  0.4311 -0.1688  0.1490
 1663SOL     OW 6758   3.820   3.856   2.639  0.1287  0.0011 -0.0169
 1663SOL    HW2 6759   3.907   3.893   2.653  0.2621 -0.8473  1.4414
 1663SOL    HW3 6760   3.760   3.920   2.675  0.2386 -0.1758  0.4791
 1663SOL    MW4 6761   3.824   3.869   2.646  0.1609 -0.1345  0.2406
 1664SOL     OW 6762   3.604   4.012   2.751  0.3282  0.2494  0.3154
 1664SOL    HW2 6763   3.598   4.100   2.713 -0.6630  1.0043  2.1537
 1664SOL    HW3 6764   3.519   3.973   2.732  0.2669  0.1977  0.6987
 1664SOL    MW4 6765   3.592   4.019   2.743  0.1895  0.3419  0.6084
 1665SOL     OW 6766   3.603   4.285   2.678  0.0162  0.3108 -0.1275
 1665SOL    HW2 6767   3.532   4.336   2.717 -0.9516 -0.2133 -1.1757
 1665SOL    HW3 6768   3.584   4.285   2.585  1.7675  0.7056 -0.4984
 1665SOL    MW4 6769   3.591   4.292   2.671  0.1194  0.2937 -0.3147
 1666SOL     OW 6770   3.839   4.397   2.798 -0.1380  0.0857  0.3359
 1666SOL    HW2 6771   3.911   4.349   2.756 -1.1429 -1.0688 -0.0698
 1666SOL    HW3 6772   3.760   4.357   2.764 -0.9899  0.6018  1.6692
 1666SOL    MW4 6773   3.838   4.386   2.788 -0.3827  0.0014  0.4582
 1667SOL     OW 6774   4.275   4.645   2.661  0.4290  0.4601 -0.1509
 1667SOL    HW2 6775   4.197   4.696   2.684 -0.1117 -1.0831  1.5434
 1667SOL    HW3 6776   4.348   4.701   2.689 -0.1608  0.3322  1.7481
 1667SOL    MW4 6777   4.274   4.659   2.668  0.2799  0.2394  0.3233
 1668SOL     OW 6778   4.047   0.131   2.717  0.1956 -0.1219 -0.0239
 1668SOL    HW2 6779   4.033   0.142   2.811 -2.1858  1.8043 -0.5693
 1668SOL    HW3 6780   3.971   0.082   2.686  0.6953 -0.2788 -1.0391
 1668SOL    MW4 6781   4.035   0.126   2.725 -0.0525  0.1115 -0.2296
 1669SOL     OW 6782   4.033   0.390   2.630 -0.2493  0.3131 -0.0977
 1669SOL    HW2 6783   4.043   0.304   2.669  0.1246  0.6909  0.6468
 1669SOL    HW3 6784   4.025   0.373   2.536 -3.1064 -0.7406  0.2903
 1669SOL    MW4 6785   4.033   0.377   2.622 -0.5765  0.2239  0.0520
 1670SOL     OW 6786   4.243   0.537   2.720 -0.2996  0.5377  0.0374
 1670SOL    HW2 6787   4.163   0.493   2.691 -0.2808  0.5587 -0.0447
 1670SOL    HW3 6788   4.313   0.493   2.672 -0.1513 -0.2476  0.9557
 1670SOL    MW4 6789   4.241   0.525   2.710 -0.2775  0.4369  0.1481
 1671SOL     OW 6790   4.284   0.790   2.619 -0.0029 -0.0084  0.1206
 1671SOL    HW2 6791   4.272   0.699   2.647  2.0893 -0.0355  1.0675
 1671SOL    HW3 6792   4.292   0.785   2.524  1.7338 -1.0538  0.2894
 1671SOL    MW4 6793   4.284   0.777   2.610  0.5026 -0.1499  0.2680
 1672SOL     OW 6794   4.057   0.922   2.730 -0.4551 -0.1398  0.2050
 1672SOL    HW2 6795   4.143   0.891   2.703 -0.3237 -0.2419  0.7266
 1672SOL    HW3 6796   3.996   0.861   2.689 -0.2821 -0.0554 -0.1827
 1672SOL    MW4 6797   4.060   0.910   2.721 -0.4148 -0.1422  0.2224
 1673SOL     OW 6798   4.053   1.156   2.596 -0.2175  0.7079 -0.1809
 1673SOL    HW2 6799   4.124   1.210   2.628  1.6706 -2.0661  0.5059
 1673SOL    HW3 6800   4.060   1.074   2.646 -1.1677 -1.2972 -3.1284
 1673SOL    MW4 6801   4.063   1.152   2.607 -0.0935  0.0774 -0.4792
 1674SOL     OW 6802   4.257   1.301   2.717  0.0240 -0.0605 -0.5179
 1674SOL    HW2 6803   4.268   1.390   2.683  1.0234  0.5753  1.4002
 1674SOL    HW3 6804   4.330   1.252   2.680  0.1772  0.2153 -0.5810
 1674SOL    MW4 6805   4.268   1.306   2.708  0.1760  0.0596 -0.2732
 1675SOL     OW 6806   4.278   1.564   2.587 -0.2317 -0.0197 -0.1857
 1675SOL    HW2 6807   4.353   1.607   2.629 -0.2455  0.6318 -0.8137
 1675SOL    HW3 6808   4.298   1.568   2.493 -0.2664 -1.3441 -0.2586
 1675SOL    MW4 6809   4.291   1.570   2.580 -0.2384 -0.1086 -0.2782
 1676SOL     OW 6810   4.039   1.648   2.728 -0.1699  0.1138  0.4148
 1676SOL    HW2 6811   4.054   1.653   2.822  0.9130  0.1460  0.2548
 1676SOL    HW3 6812   4.119   1.608   2.694 -0.9496 -0.7785 -0.3853
 1676SOL    MW4 6813   4.052   1.643   2.736 -0.1302  0.0002  0.2880
 1677SOL     OW 6814   4.055   1.889   2.610  0.0736 -0.1956 -0.1715
 1677SOL    HW2 6815   4.128   1.929   2.657  0.3695 -0.6672 -0.2290
 1677SOL    HW3 6816   4.051   1.799   2.643 -0.7725 -0.0446  0.1701
 1677SOL    MW4 6817   4.064   1.882   2.621  0.0014 -0.2379 -0.1340
 1678SOL     OW 6818   4.252   2.034   2.737 -0.0961 -0.2463 -0.3442
 1678SOL    HW2 6819   4.241   2.123   2.705  0.0643  0.0661  0.4476
 1678SOL    HW3 6820   4.344   2.013   2.720 -0.2190 -0.3888 -0.8407
 1678SOL    MW4 6821   4.262   2.043   2.731 -0.0911 -0.2241 -0.3054
 1679SOL     OW 6822   4.270   2.311   2.659  0.7923 -0.3228 -0.0320
 1679SOL    HW2 6823   4.197   2.360   2.698  0.8977  0.4047 -0.7494
 1679SOL    HW3 6824   4.259   2.321   2.565  1.0302 -1.3774 -0.1787
 1679SOL    MW4 6825   4.259   2.319   2.652  0.8373 -0.3660 -0.1459
 1680SOL     OW 6826   4.051   2.440   2.744  0.7181 -0.1144  0.3892
 1680SOL    HW2 6827   4.036   2.443   2.839 -0.9497  0.5716  0.1095
 1680SOL    HW3 6828   3.983   2.382   2.710  0.5667  0.5843 -0.5254
 1680SOL    MW4 6829   4.040   2.433   2.752  0.4778  0.0682  0.2315
 1681SOL     OW 6830   4.054   2.712   2.657  0.2724 -0.0343  0.4911
 1681SOL    HW2 6831   4.129   2.760   2.692 -0.8602  1.3577  1.0737
 1681SOL    HW3 6832   4.066   2.622   2.689  2.1426 -0.0271 -0.1802
 1681SOL    MW4 6833   4.065   2.706   2.666  0.3695  0.1502  0.4795
 1682SOL     OW 6834   4.256   2.853   2.778 -0.1182  0.0751  0.1513
 1682SOL    HW2 6835   4.235   2.862   2.871  0.7063  0.2408  0.3335
 1682SOL    HW3 6836   4.259   2.943   2.746 -2.0037 -0.0642 -0.4120
 1682SOL    MW4 6837   4.254   2.866   2.786 -0.2584  0.0784  0.1011
 1683SOL     OW 6838   4.236   3.097   2.641  0.0306  0.1274  0.0821
 1683SOL    HW2 6839   4.160   3.155   2.656 -0.5285 -0.4472 -0.5079
 1683SOL    HW3 6840   4.233   3.078   2.547  1.3762  0.7383 -0.0916
 1683SOL    MW4 6841   4.225   3.102   2.631  0.1345  0.1326 -0.0186
 1684SOL     OW 6842   4.002   3.237   2.729  0.1688  0.2223  0.3868
 1684SOL    HW2 6843   3.992   3.326   2.697  1.0992 -0.3119 -1.4276
 1684SOL    HW3 6844   3.931   3.188   2.687  0.7794 -0.2715 -0.0764
 1684SOL    MW4 6845   3.991   3.242   2.720  0.3724  0.0868  0.0863
 1685SOL     OW 6846   4.039   3.503   2.646 -0.1679  0.3039  0.0252
 1685SOL    HW2 6847   4.119   3.536   2.687 -0.3294  0.7721 -0.0300
 1685SOL    HW3 6848   4.059   3.499   2.553  0.0730 -0.3988  0.1044
 1685SOL    MW4 6849   4.052   3.507   2.639 -0.1578  0.2732  0.0281
 1686SOL     OW 6850   4.300   3.621   2.710 -0.0784  0.1089 -0.3601
 1686SOL    HW2 6851   4.295   3.618   2.805 -0.6475  0.8794 -0.3668
 1686SOL    HW3 6852   4.370   3.560   2.688 -0.6767 -0.8955  0.4860
 1686SOL    MW4 6853   4.309   3.613   2.719 -0.2322  0.0780 -0.2489
 1687SOL     OW 6854   4.308   3.881   2.616  0.2196  0.0507 -0.2781
 1687SOL    HW2 6855   4.310   3.792   2.649 -0.6304  0.8394  1.9971
 1687SOL    HW3 6856   4.382   3.924   2.659 -1.7447  1.4673  1.7656
 1687SOL    MW4 6857   4.318   3.875   2.626 -0.1512  0.3417  0.2918
 1688SOL     OW 6858   4.063   3.990   2.709  0.3643 -0.2158 -0.1811
 1688SOL    HW2 6859   4.052   3.984   2.804  0.5336 -0.4121 -0.1743
 1688SOL    HW3 6860   4.145   3.945   2.691  1.2780  1.4301 -0.2150
 1688SOL    MW4 6861   4.072   3.983   2.719  0.5074 -0.0248 -0.1848
 1689SOL     OW 6862   4.058   4.266   2.661 -0.0096 -0.3107 -0.1720
 1689SOL    HW2 6863   4.074   4.174   2.682  2.3739  0.0251 -0.3571
 1689SOL    HW3 6864   4.036   4.266   2.567  1.2342 -0.5693 -0.4686
 1689SOL    MW4 6865   4.057   4.254   2.651  0.4692 -0.3004 -0.2356
 1690SOL     OW 6866   4.281   4.403   2.756  0.2115 -0.1651  0.0859
 1690SOL    HW2 6867   4.199   4.360   2.730  0.1855  0.0459 -0.1871
 1690SOL    HW3 6868   4.275   4.490   2.717  0.6120 -0.1852 -0.0192
 1690SOL    MW4 6869   4.269   4.409   2.748  0.2604 -0.1397  0.0360
 1691SOL     OW 6870   0.205   0.007   3.114 -0.0388  0.7946  0.2223
 1691SOL    HW2 6871   0.180  -0.007   3.206 -1.9494 -1.2098 -0.5603
 1691SOL    HW3 6872   0.123   0.032   3.071  0.1771 -1.3806 -1.5258
 1691SOL    MW4 6873   0.191   0.009   3.121 -0.2624  0.2432 -0.1116
 1692SOL     OW 6874   4.463   0.137   3.026 -0.0404 -0.7431  0.1835
 1692SOL    HW2 6875   4.402   0.085   3.078 -0.1293  0.6559  1.4872
 1692SOL    HW3 6876   4.467   0.222   3.070  0.8306  0.0533 -1.3876
 1692SOL    MW4 6877   4.455   0.141   3.038  0.0629 -0.4535  0.1483
 1693SOL     OW 6878   4.482   0.393   3.121  0.0993  0.6444 -0.2142
 1693SOL    HW2 6879   4.465   0.389   3.215  0.9611  0.9867 -0.0334
 1693SOL    HW3 6880   4.400   0.425   3.083 -1.0921 -1.8940  0.1303
 1693SOL    MW4 6881   4.469   0.397   3.128  0.0553  0.3546 -0.1447
 1694SOL     OW 6882   0.187   0.526   2.971  0.6522  0.0488  0.5498
 1694SOL    HW2 6883   0.261   0.475   3.003  0.0040  0.5486  2.9232
 1694SOL    HW3 6884   0.110   0.482   3.007 -0.3531 -1.2679 -2.9959
 1694SOL    MW4 6885   0.187   0.513   2.980  0.4340 -0.0590  0.3951
 1695SOL     OW 6886   0.242   0.767   3.093  0.0625 -0.1439 -0.1072
 1695SOL    HW2 6887   0.235   0.744   3.185 -1.4823  0.0588 -0.1704
 1695SOL    HW3 6888   0.216   0.688   3.046 -0.7019  0.2489 -0.3527
 1695SOL    MW4 6889   0.238   0.754   3.099 -0.2422 -0.0653 -0.1476
 1696SOL     OW 6890   0.002   0.895   3.005 -0.0192  0.2601  0.4417
 1696SOL    HW2 6891   0.088   0.857   3.025  0.1003 -0.1323 -0.7834
 1696SOL    HW3 6892  -0.008   0.883   2.911 -2.0076 -0.8729  0.7778
 1696SOL    MW4 6893   0.012   0.888   2.995 -0.2658  0.0589  0.3245
 1697SOL     OW 6894   0.010   1.153   3.113  0.2511 -0.0763  0.1052
 1697SOL    HW2 6895  -0.057   1.195   3.059 -0.1496 -0.0799  0.6000
 1697SOL    HW3 6896   0.005   1.060   3.090 -1.0711 -0.3241  1.3831
 1697SOL    MW4 6897   0.001   1.146   3.103  0.0238 -0.1094  0.3393
 1698SOL     OW 6898   0.223   1.274   3.005 -0.0018 -0.3425  0.3510
 1698SOL    HW2 6899   0.152   1.217   3.034 -0.0297  0.1599  1.2900
 1698SOL    HW3 6900   0.217   1.274   2.910 -1.8926  0.5233  0.4688
 1698SOL    MW4 6901   0.213   1.266   2.997 -0.2549 -0.1620  0.4904
 1699SOL     OW 6902   0.257   1.545   3.115 -0.3900  0.0576 -0.4444
 1699SOL    HW2 6903   0.183   1.591   3.075 -1.1658  0.0460  0.9363
 1699SOL    HW3 6904   0.248   1.455   3.082 -0.4136  0.2769 -1.0540
 1699SOL    MW4 6905   0.246   1.539   3.105 -0.4955  0.0849 -0.3428
 1700SOL     OW 6906   0.030   1.680   3.011  0.2655  0.0587  0.0062
 1700SOL    HW2 6907  -0.049   1.646   3.053 -0.6997  0.2640 -1.6204
 1700SOL    HW3 6908   0.032   1.772   3.035  1.7993 -0.6052  2.7366
 1700SOL    MW4 6909   0.020   1.687   3.020  0.3406 -0.0018  0.1516
 1701SOL     OW 6910   0.033   1.928   3.126 -0.0391 -0.2273 -0.5109
 1701SOL    HW2 6911  -0.050   1.966   3.098  0.0442  0.0128 -0.4374
 1701SOL    HW3 6912   0.099   1.990   3.094  0.1497 -0.7335 -1.1096
 1701SOL    MW4 6913   0.031   1.941   3.118 -0.0033 -0.2624 -0.5803
 1702SOL     OW 6914   0.238   2.093   3.036 -0.2495 -0.2368 -0.1728
 1702SOL    HW2 6915   0.230   2.187   3.047 -2.5025 -0.3861 -0.3908
 1702SOL    HW3 6916   0.247   2.081   2.941  0.3939 -0.2352 -0.1174
 1702SOL    MW4 6917   0.238   2.104   3.025 -0.4619 -0.2561 -0.1941
 1703SOL     OW 6918   0.186   2.372   3.103 -0.3389 -0.4659  0.0001
 1703SOL    HW2 6919   0.190   2.358   3.198  0.1033 -1.2884 -0.1328
 1703SOL    HW3 6920   0.275   2.400   3.080 -0.3236 -0.7047 -0.2310
 1703SOL    MW4 6921   0.199   2.373   3.113 -0.2785 -0.6058 -0.0477
 1704SOL     OW 6922   4.446   2.485   3.035 -0.1231 -0.3336  0.3324
 1704SOL    HW2 6923   4.432   2.568   3.081  1.0174  0.6943 -1.1416
 1704SOL    HW3 6924   4.531   2.454   3.066 -0.7235 -1.1977  1.1864
 1704SOL    MW4 6925   4.455   2.492   3.045 -0.0515 -0.3119  0.2506
 1705SOL     OW 6926   4.445   2.729   3.181  0.5997  0.3036 -0.3128
 1705SOL    HW2 6927   4.459   2.739   3.275  0.1852 -0.0377 -0.2161
 1705SOL    HW3 6928   4.526   2.763   3.141  1.7772 -1.7514  0.2507
 1705SOL    MW4 6929   4.458   2.735   3.188  0.7000 -0.0126 -0.2258
 1706SOL     OW 6930   0.187   2.848   3.034  0.2833  0.0223 -0.3481
 1706SOL    HW2 6931   0.261   2.795   3.065 -0.0714  0.3716  1.1515
 1706SOL    HW3 6932   0.211   2.872   2.944  2.0346  0.1881  0.1294
 1706SOL    MW4 6933   0.200   2.844   3.026  0.4675  0.0901 -0.0873
 1707SOL     OW 6934   0.195   3.107   3.127 -0.2904  0.2897  0.3941
 1707SOL    HW2 6935   0.127   3.142   3.069  0.4973  0.2151 -0.5890
 1707SOL    HW3 6936   0.200   3.014   3.104  0.7180  0.4644 -0.1242
 1707SOL    MW4 6937   0.186   3.099   3.116 -0.0534  0.3028  0.1960
 1708SOL     OW 6938   4.466   3.233   3.028 -0.2776  0.8347  0.0873
 1708SOL    HW2 6939   4.391   3.197   3.075 -0.8709  1.4564 -0.3682
 1708SOL    HW3 6940   4.449   3.213   2.936 -0.0110  1.1989 -0.0454
 1708SOL    MW4 6941   4.454   3.226   3.022 -0.3209  0.9649  0.0095
 1709SOL     OW 6942   4.455   3.496   3.097  0.7360 -0.0777 -0.1585
 1709SOL    HW2 6943   4.370   3.521   3.063  1.3910  0.9493 -1.0555
 1709SOL    HW3 6944   4.465   3.404   3.072  0.0713 -0.0898 -0.3833
 1709SOL    MW4 6945   4.445   3.487   3.089  0.7348  0.0560 -0.3064
 1710SOL     OW 6946   0.215   3.602   3.024 -0.1932 -0.0264 -0.3525
 1710SOL    HW2 6947   0.214   3.696   3.046  0.5098 -0.1938  0.4286
 1710SOL    HW3 6948   0.131   3.569   3.057 -0.2669  0.2490 -0.2587
 1710SOL    MW4 6949   0.204   3.610   3.031 -0.1102 -0.0124 -0.2372
 1711SOL     OW 6950   0.213   3.868   3.111 -0.6429  0.4565 -0.1358
 1711SOL    HW2 6951   0.225   3.866   3.206 -0.9650  1.2868 -0.0689
 1711SOL    HW3 6952   0.290   3.916   3.078  0.5625 -1.6536 -0.5033
 1711SOL    MW4 6953   0.225   3.874   3.119 -0.5263  0.2875 -0.1755
 1712SOL     OW 6954   4.463   4.002   3.028 -0.1278  0.0757 -0.2122
 1712SOL    HW2 6955   4.537   3.945   3.051 -1.3114 -1.6202 -0.4848
 1712SOL    HW3 6956   4.462   4.001   2.932 -0.9324 -0.5074 -0.2050
 1712SOL    MW4 6957   4.473   3.994   3.019 -0.3901 -0.2251 -0.2472
 1713SOL     OW 6958   0.010   4.266   3.103  0.4785 -0.2549  0.3160
 1713SOL    HW2 6959  -0.002   4.276   3.197  1.9717 -1.8204  0.6952
 1713SOL    HW3 6960   0.002   4.172   3.087  1.1364 -0.1061 -0.9906
 1713SOL    MW4 6961   0.007   4.255   3.113  0.7625 -0.4416  0.1936
 1714SOL     OW 6962   0.238   4.418   3.022  0.2745  0.2342  0.2791
 1714SOL    HW2 6963   0.162   4.369   3.055  0.5242  0.3060  0.9733
 1714SOL    HW3 6964   0.232   4.503   3.065 -0.6004  1.1182 -1.5338
 1714SOL    MW4 6965   0.227   4.423   3.032  0.1920  0.3605  0.1318
 1715SOL     OW 6966   0.667   0.011   3.124  0.1035 -0.2369  0.6803
 1715SOL    HW2 6967   0.677  -0.074   3.081  0.1321 -0.1269  0.4705
 1715SOL    HW3 6968   0.587   0.047   3.087  0.3792  0.0641  0.3682
 1715SOL    MW4 6969   0.658   0.004   3.113  0.1436 -0.1827  0.6113
 1716SOL     OW 6970   0.430   0.129   3.009  0.5699 -0.1087  0.0700
 1716SOL    HW2 6971   0.422   0.222   3.033 -1.0237 -0.2132 -0.0138
 1716SOL    HW3 6972   0.353   0.088   3.048  0.3906 -1.1108 -1.3223
 1716SOL    MW4 6973   0.419   0.136   3.017  0.3359 -0.2547 -0.1245
 1717SOL     OW 6974   0.411   0.398   3.077  0.5264 -0.1089 -0.2841
 1717SOL    HW2 6975   0.419   0.384   3.171  0.1803 -0.1046 -0.2526
 1717SOL    HW3 6976   0.496   0.433   3.050  0.2741  0.8852  0.2049
 1717SOL    MW4 6977   0.423   0.401   3.086  0.4475  0.0229 -0.2158
 1718SOL     OW 6978   0.664   0.490   3.015 -0.1509  0.3313  0.2086
 1718SOL    HW2 6979   0.731   0.443   3.065 -0.2260 -0.6905 -0.6348
 1718SOL    HW3 6980   0.679   0.582   3.036 -0.5695 -0.0972  2.5971
 1718SOL    MW4 6981   0.675   0.496   3.024 -0.2160  0.1400  0.4122
 1719SOL     OW 6982   0.712   0.758   3.093  0.4954  0.1509  0.3371
 1719SOL    HW2 6983   0.702   0.750   3.188 -0.3065 -1.0861  0.1562
 1719SOL    HW3 6984   0.635   0.808   3.065 -0.2963 -1.2022  0.0963
 1719SOL    MW4 6985   0.700   0.764   3.102  0.2851 -0.1909  0.2816
 1720SOL     OW 6986   0.481   0.898   3.012 -0.3727 -0.3373 -0.2181
 1720SOL    HW2 6987   0.406   0.863   3.061  0.2519 -0.6081  0.5582
 1720SOL    HW3 6988   0.455   0.892   2.920 -1.8177  0.7725  0.0989
 1720SOL    MW4 6989   0.468   0.893   3.007 -0.4809 -0.2266 -0.0739
 1721SOL     OW 6990   0.470   1.187   3.065  0.1188  0.1271  0.0765
 1721SOL    HW2 6991   0.469   1.091   3.062 -0.4201  0.0518  1.8041
 1721SOL    HW3 6992   0.379   1.212   3.049  0.2244  0.3502 -0.1810
 1721SOL    MW4 6993   0.458   1.178   3.063  0.0616  0.1464  0.2704
 1722SOL     OW 6994   0.709   1.341   2.958  0.3267 -0.0861  0.3900
 1722SOL    HW2 6995   0.771   1.282   3.000  0.2265 -0.0331  0.6116
 1722SOL    HW3 6996   0.623   1.312   2.988  0.2704  0.0955  0.4060
 1722SOL    MW4 6997   0.706   1.330   2.967  0.3060 -0.0552  0.4213
 1723SOL     OW 6998   0.708   1.579   3.099  0.1137  0.3279  0.0592
 1723SOL    HW2 6999   0.706   1.573   3.194 -0.0393 -1.7897 -0.0667
 1723SOL    HW3 7000   0.716   1.489   3.069 -0.2465  0.9423 -1.9537
 1723SOL    MW4 7001   0.709   1.566   3.108  0.0460  0.1296 -0.2232
 1724SOL     OW 7002   0.474   1.658   2.961  0.3989  0.2402 -0.0514
 1724SOL    HW2 7003   0.555   1.639   3.007  0.3966  1.2770  0.3889
 1724SOL    HW3 7004   0.407   1.605   3.007  0.6786  0.0031  0.0841
 1724SOL    MW4 7005   0.476   1.648   2.973  0.4354  0.3456  0.0246
 1725SOL     OW 7006   0.447   1.925   3.137  0.5450 -0.3654 -0.1908
 1725SOL    HW2 7007   0.426   1.844   3.090 -0.1239 -0.3861  0.1348
 1725SOL    HW3 7008   0.380   1.987   3.109  0.3351 -0.2837  0.4806
 1725SOL    MW4 7009   0.436   1.922   3.127  0.4290 -0.3573 -0.0594
 1726SOL     OW 7010   0.664   2.018   3.002  0.2590 -0.3500  0.0650
 1726SOL    HW2 7011   0.744   1.974   3.031 -0.9015 -1.1244  2.1759
 1726SOL    HW3 7012   0.594   1.978   3.053 -1.2187  1.8888 -0.1157
 1726SOL    MW4 7013   0.665   2.007   3.012 -0.0891 -0.1564  0.3197
 1727SOL     OW 7014   0.677   2.281   3.083 -0.5598  0.3505  0.1823
 1727SOL    HW2 7015   0.682   2.270   3.178  0.1545  0.9712  0.2198
 1727SOL    HW3 7016   0.673   2.191   3.049  0.8121  0.0711  0.7203
 1727SOL    MW4 7017   0.677   2.268   3.091 -0.2846  0.3955  0.2582
 1728SOL     OW 7018   0.448   2.432   3.032 -0.2479 -0.1943  0.5083
 1728SOL    HW2 7019   0.522   2.380   3.062  1.0971  1.9587  1.0869
 1728SOL    HW3 7020   0.447   2.421   2.937 -0.2465 -1.5846  0.6655
 1728SOL    MW4 7021   0.458   2.424   3.023 -0.0702 -0.0939  0.6053
 1729SOL     OW 7022   0.429   2.698   3.084  0.0132  0.3039  0.2389
 1729SOL    HW2 7023   0.518   2.732   3.069  0.5441 -0.5371  1.4424
 1729SOL    HW3 7024   0.432   2.608   3.051 -0.2134  0.0649  0.8719
 1729SOL    MW4 7025   0.441   2.691   3.078  0.0534  0.1612  0.4811
 1730SOL     OW 7026   0.671   2.778   3.031 -0.2091 -0.0648 -0.1452
 1730SOL    HW2 7027   0.754   2.732   3.036  0.0314  0.4127  0.3084
 1730SOL    HW3 7028   0.690   2.865   3.067 -0.4377  0.6782 -1.7592
 1730SOL    MW4 7029   0.685   2.784   3.036 -0.2075  0.0963 -0.2983
 1731SOL     OW 7030   0.661   3.056   3.113  0.7530  0.3408 -0.5913
 1731SOL    HW2 7031   0.653   3.060   3.208  1.3820  2.5668 -0.6224
 1731SOL    HW3 7032   0.589   3.110   3.080  1.2845  0.5980 -1.3490
 1731SOL    MW4 7033   0.650   3.063   3.121  0.9062  0.6685 -0.6952
 1732SOL     OW 7034   0.438   3.200   3.014  0.1711 -0.1457 -0.0986
 1732SOL    HW2 7035   0.454   3.288   3.048 -0.2632  0.4072 -1.2811
 1732SOL    HW3 7036   0.356   3.173   3.055  0.0573  0.2004 -0.0916
 1732SOL    MW4 7037   0.429   3.208   3.024  0.0988 -0.0272 -0.2537
 1733SOL     OW 7038   0.436   3.469   3.105  0.2425 -0.6514  0.7800
 1733SOL    HW2 7039   0.434   3.493   3.197  0.1551 -0.0136  0.6174
 1733SOL    HW3 7040   0.353   3.502   3.070  0.6170 -0.1891  0.3072
 1733SOL    MW4 7041   0.425   3.476   3.112  0.2804 -0.5062  0.6962
 1734SOL     OW 7042   0.628   3.662   3.005  0.1003  0.1646 -0.3251
 1734SOL    HW2 7043   0.709   3.625   3.041  0.0933  1.3213  0.9125
 1734SOL    HW3 7044   0.563   3.593   3.018  0.2377  0.3337  1.3301
 1734SOL    MW4 7045   0.630   3.648   3.011  0.1175  0.3395  0.0565
 1735SOL     OW 7046   0.643   3.924   3.095  0.1308  0.1937  0.2596
 1735SOL    HW2 7047   0.664   3.925   3.188 -0.2910 -0.6978  0.3729
 1735SOL    HW3 7048   0.637   3.831   3.073  0.6452  0.3990 -0.7539
 1735SOL    MW4 7049   0.645   3.911   3.104  0.1431  0.1032  0.1407
 1736SOL     OW 7050   0.406   4.028   3.028  0.1379  0.0536 -0.2890
 1736SOL    HW2 7051   0.491   3.999   3.061  0.6810  1.0500 -0.8012
 1736SOL    HW3 7052   0.415   4.025   2.932  0.2292  1.9496 -0.3595
 1736SOL    MW4 7053   0.418   4.024   3.020  0.2216  0.4354 -0.3660
 1737SOL     OW 7054   0.469   4.288   3.072 -0.2003 -0.1199 -0.2304
 1737SOL    HW2 7055   0.458   4.193   3.063 -0.3938 -0.3054  1.6728
 1737SOL    HW3 7056   0.386   4.325   3.044 -0.4653 -0.5917 -0.0817
 1737SOL    MW4 7057   0.457   4.280   3.067 -0.2608 -0.2065  0.0403
 1738SOL     OW 7058   0.695   4.424   3.010 -0.6797 -0.3483  0.4407
 1738SOL    HW2 7059   0.614   4.383   3.040 -0.7431 -1.4960 -1.2037
 1738SOL    HW3 7060   0.685   4.428   2.914  0.5577  0.8859  0.3476
 1738SOL    MW4 7061   0.683   4.419   3.001 -0.5248 -0.3376  0.2115
 1739SOL     OW 7062   1.084   4.628   3.137  0.2773 -0.4015 -0.1098
 1739SOL    HW2 7063   1.154   4.685   3.105 -0.3150  0.4917  0.1645
 1739SOL    HW3 7064   1.006   4.657   3.090 -0.5177  0.6306  1.8066
 1739SOL    MW4 7065   1.083   4.639   3.127  0.0941 -0.1473  0.1795
 1740SOL     OW 7066   0.889   0.114   3.007 -0.1361  0.1129 -0.5282
 1740SOL    HW2 7067   0.909   0.194   3.055  0.5491 -0.0129 -0.6014
 1740SOL    HW3 7068   0.801   0.089   3.036  0.1620  0.1976  0.4379
 1740SOL    MW4 7069   0.880   0.121   3.017 -0.0064  0.1074 -0.4103
 1741SOL     OW 7070   0.905   0.346   3.143 -0.4469 -0.2899  0.0111
 1741SOL    HW2 7071   0.892   0.357   3.237 -0.4015 -1.1206  0.1193
 1741SOL    HW3 7072   0.951   0.425   3.115 -0.6390  0.0499  0.6483
 1741SOL    MW4 7073   0.909   0.358   3.151 -0.4663 -0.3546  0.1097
 1742SOL     OW 7074   1.074   0.525   3.002 -0.1661  0.2714  0.1722
 1742SOL    HW2 7075   1.152   0.488   3.042  0.5144  2.9149  1.3899
 1742SOL    HW3 7076   1.093   0.524   2.908  0.4339 -1.0927  0.3030
 1742SOL    MW4 7077   1.087   0.520   2.995  0.0029  0.4402  0.3502
 1743SOL     OW 7078   1.120   0.773   3.095 -0.7014 -0.0952 -0.0273
 1743SOL    HW2 7079   1.134   0.764   3.189  2.3580 -0.4565 -0.4589
 1743SOL    HW3 7080   1.100   0.684   3.064  1.7713 -0.6273 -0.1939
 1743SOL    MW4 7081   1.119   0.760   3.103  0.0285 -0.2131 -0.1063
 1744SOL     OW 7082   0.906   0.952   3.036 -0.1687 -0.3900  0.0245
 1744SOL    HW2 7083   0.986   0.901   3.052  0.3216 -0.3315 -2.1181
 1744SOL    HW3 7084   0.835   0.890   3.050  0.1751 -0.2753  2.6340
 1744SOL    MW4 7085   0.907   0.937   3.040 -0.0587 -0.3672  0.0861
 1745SOL     OW 7086   0.919   1.220   3.071  0.2333 -0.2171  0.3682
 1745SOL    HW2 7087   1.003   1.261   3.051  1.3903 -2.3240  0.7704
 1745SOL    HW3 7088   0.937   1.126   3.068 -2.2979 -0.7188 -0.3405
 1745SOL    MW4 7089   0.932   1.213   3.068  0.0520 -0.5612  0.3281
 1746SOL     OW 7090   1.161   1.307   2.992  0.2052  0.1488  0.0480
 1746SOL    HW2 7091   1.235   1.251   3.017 -0.9444 -0.5287  2.0875
 1746SOL    HW3 7092   1.148   1.291   2.899  0.0801 -2.8207  0.5234
 1746SOL    MW4 7093   1.169   1.297   2.983  0.0370 -0.3325  0.3796
 1747SOL     OW 7094   1.150   1.548   3.109  0.2607  0.0827  0.1972
 1747SOL    HW2 7095   1.218   1.597   3.063  0.6348  0.5367  1.2094
 1747SOL    HW3 7096   1.161   1.457   3.079  1.2497  0.1729  0.2611
 1747SOL    MW4 7097   1.160   1.542   3.099  0.4406  0.1546  0.3393
 1748SOL     OW 7098   0.932   1.640   2.955  0.6019  0.4671  0.2513
 1748SOL    HW2 7099   1.012   1.624   3.005  0.3559 -0.4972  0.3538
 1748SOL    HW3 7100   0.861   1.618   3.016  0.3049 -1.1082 -0.6316
 1748SOL    MW4 7101   0.933   1.635   2.970  0.5302  0.1320  0.1485
 1749SOL     OW 7102   0.913   1.911   3.064 -0.2175 -0.7468  0.6328
 1749SOL    HW2 7103   0.920   1.915   3.160  1.7186  0.9928  0.4598
 1749SOL    HW3 7104   0.908   1.817   3.045 -0.4064 -1.1292  2.4217
 1749SOL    MW4 7105   0.913   1.899   3.074  0.0130 -0.5677  0.8461
 1750SOL     OW 7106   1.138   2.050   2.984 -0.2644  0.3084  0.1521
 1750SOL    HW2 7107   1.058   2.001   3.003 -0.1673 -0.0411 -0.3513
 1750SOL    HW3 7108   1.134   2.067   2.890  0.6269 -0.3530  0.0021
 1750SOL    MW4 7109   1.127   2.046   2.974 -0.1340  0.1750  0.0658
 1751SOL     OW 7110   1.154   2.301   3.092  0.2503  0.3719  0.2599
 1751SOL    HW2 7111   1.080   2.348   3.052  0.2162  0.2783  0.2134
 1751SOL    HW3 7112   1.146   2.212   3.058  1.3048  0.7362 -0.9990
 1751SOL    MW4 7113   1.143   2.296   3.082  0.3849  0.4075  0.0880
 1752SOL     OW 7114   0.907   2.377   2.988  0.5853 -0.0587  0.1261
 1752SOL    HW2 7115   0.825   2.355   3.032  0.2439  1.6227  0.3552
 1752SOL    HW3 7116   0.886   2.375   2.895  0.3275  0.1638  0.1774
 1752SOL    MW4 7117   0.894   2.374   2.982  0.5062  0.1924  0.1631
 1753SOL     OW 7118   0.920   2.648   3.060  0.3662  0.1833  0.0931
 1753SOL    HW2 7119   0.922   2.643   3.156  2.2686 -0.4866  0.0519
 1753SOL    HW3 7120   0.923   2.557   3.031  2.0405  0.4226 -0.5837
 1753SOL    MW4 7121   0.921   2.636   3.069  0.8381  0.1268 -0.0017
 1754SOL     OW 7122   1.129   2.812   3.007 -0.3070 -0.2781 -0.2309
 1754SOL    HW2 7123   1.128   2.887   3.068 -0.5090 -1.0296  0.7069
 1754SOL    HW3 7124   1.047   2.766   3.026 -0.4463 -0.4330 -1.1998
 1754SOL    MW4 7125   1.118   2.816   3.018 -0.3521 -0.3979 -0.2348
 1755SOL     OW 7126   1.159   3.082   3.132 -0.6346 -0.4158  0.3216
 1755SOL    HW2 7127   1.225   3.144   3.101 -0.8186 -0.4250 -0.0995
 1755SOL    HW3 7128   1.076   3.127   3.114 -0.8363 -1.4377 -1.4598
 1755SOL    MW4 7129   1.157   3.096   3.125 -0.6855 -0.5519  0.0310
 1756SOL     OW 7130   0.919   3.200   3.039 -0.1033 -0.2935  0.2046
 1756SOL    HW2 7131   0.840   3.154   3.069 -1.0031  0.0391 -1.6081
 1756SOL    HW3 7132   0.904   3.215   2.946  1.3020  1.4229  0.2378
 1756SOL    MW4 7133   0.906   3.196   3.031 -0.0365 -0.0234 -0.0303
 1757SOL     OW 7134   0.861   3.501   3.071 -0.0927 -0.3233  0.3391
 1757SOL    HW2 7135   0.943   3.542   3.043  0.0274  0.0242  1.1814
 1757SOL    HW3 7136   0.873   3.408   3.050 -0.3444  0.0512 -1.5061
 1757SOL    MW4 7137   0.874   3.494   3.064 -0.1101 -0.2279  0.2067
 1758SOL     OW 7138   1.110   3.644   3.016  0.1292  0.4047  0.5250
 1758SOL    HW2 7139   1.183   3.600   3.060 -1.0375 -0.7947  1.2798
 1758SOL    HW3 7140   1.100   3.727   3.064  0.8239  0.4503  0.5922
 1758SOL    MW4 7141   1.118   3.649   3.028  0.0669  0.2525  0.6335
 1759SOL     OW 7142   1.118   3.880   3.169 -0.1256 -0.2670  0.0893
 1759SOL    HW2 7143   1.104   3.882   3.263  1.4771 -2.3043  0.4048
 1759SOL    HW3 7144   1.046   3.932   3.132 -0.9592  0.2446  2.3908
 1759SOL    MW4 7145   1.107   3.888   3.176 -0.0242 -0.4680  0.4344
 1760SOL     OW 7146   0.905   3.986   3.011 -0.3045 -0.1421 -0.0135
 1760SOL    HW2 7147   0.814   3.965   3.034 -0.7576  0.3521 -1.3090
 1760SOL    HW3 7148   0.904   3.994   2.915  0.9779  0.4845  0.0222
 1760SOL    MW4 7149   0.893   3.984   3.001 -0.1950  0.0060 -0.1798
 1761SOL     OW 7150   0.929   4.245   3.084  0.3773 -0.8616  0.3306
 1761SOL    HW2 7151   0.925   4.158   3.045 -0.2049 -0.5651 -0.2784
 1761SOL    HW3 7152   0.859   4.294   3.042  2.6633  0.8536 -1.6683
 1761SOL    MW4 7153   0.920   4.240   3.073  0.6021 -0.5960 -0.0136
 1762SOL     OW 7154   1.159   4.402   3.020  0.2372 -0.1823  0.5938
 1762SOL    HW2 7155   1.081   4.347   3.024 -0.0488  0.2536  1.1174
 1762SOL    HW3 7156   1.133   4.483   3.065  0.6807  0.3379 -0.0692
 1762SOL    MW4 7157   1.145   4.406   3.026  0.2577 -0.0567  0.5753
 1763SOL     OW 7158   1.515   0.012   3.130 -0.0753 -0.3825  0.0955
 1763SOL    HW2 7159   1.520   0.007   3.226  2.0660 -0.3994  0.0140
 1763SOL    HW3 7160   1.444   0.074   3.113 -2.3545 -2.4862  1.6282
 1763SOL    MW4 7161   1.506   0.019   3.140 -0.0933 -0.6623  0.2866
 1764SOL     OW 7162   1.266   0.140   3.027 -0.1988  0.1668 -0.6809
 1764SOL    HW2 7163   1.279   0.231   3.053 -0.0597  0.3893 -1.5015
 1764SOL    HW3 7164   1.283   0.140   2.932  0.5223 -0.8510 -0.5580
 1764SOL    MW4 7165   1.270   0.152   3.018 -0.0854  0.0619 -0.7730
 1765SOL     OW 7166   1.321   0.392   3.116 -0.5990 -0.0335  0.0087
 1765SOL    HW2 7167   1.324   0.383   3.211 -2.2605 -1.7645 -0.0742
 1765SOL    HW3 7168   1.396   0.447   3.095 -0.1175  0.2463  2.3010
 1765SOL    MW4 7169   1.331   0.398   3.126 -0.7547 -0.2249  0.2999
 1766SOL     OW 7170   1.550   0.518   3.020 -0.0543 -0.4260 -0.0318
 1766SOL    HW2 7171   1.576   0.599   3.063 -1.1913  0.1686 -0.4463
 1766SOL    HW3 7172   1.559   0.537   2.926  1.5493 -1.4205 -0.0974
 1766SOL    MW4 7173   1.555   0.531   3.013  0.0070 -0.4788 -0.0954
 1767SOL     OW 7174   1.626   0.753   3.120 -0.1523  0.0684 -0.1071
 1767SOL    HW2 7175   1.609   0.733   3.212 -0.5532  0.9813  0.0224
 1767SOL    HW3 7176   1.542   0.785   3.087  0.0153 -0.1721 -0.7650
 1767SOL    MW4 7177   1.613   0.755   3.128 -0.1832  0.1571 -0.1767
 1768SOL     OW 7178   1.407   0.859   2.993  0.0207 -0.5063  0.3590
 1768SOL    HW2 7179   1.391   0.942   3.038 -0.6149  0.0184 -0.7969
 1768SOL    HW3 7180   1.331   0.805   3.016  0.4182 -0.7652  1.0843
 1768SOL    MW4 7181   1.395   0.863   3.002 -0.0108 -0.4712  0.3018
 1769SOL     OW 7182   1.344   1.110   3.098  0.8794 -0.3259 -0.4919
 1769SOL    HW2 7183   1.338   1.124   3.192  0.3005 -0.3102 -0.5294
 1769SOL    HW3 7184   1.425   1.153   3.072 -0.0921  1.6066 -0.3678
 1769SOL    MW4 7185   1.353   1.117   3.107  0.6750 -0.0688 -0.4804
 1770SOL     OW 7186   1.569   1.253   3.018 -0.2161 -0.2594  0.4205
 1770SOL    HW2 7187   1.655   1.213   3.037 -0.1603 -0.7082 -0.7321
 1770SOL    HW3 7188   1.578   1.343   3.049  0.8632 -0.1447 -0.1840
 1770SOL    MW4 7189   1.582   1.259   3.025 -0.0663 -0.3035  0.1886
 1771SOL     OW 7190   1.561   1.524   3.095  0.0224  0.0053  0.2417
 1771SOL    HW2 7191   1.637   1.573   3.062 -0.0156 -0.6416 -0.8251
 1771SOL    HW3 7192   1.486   1.564   3.052  0.0676 -1.5347 -1.3097
 1771SOL    MW4 7193   1.561   1.536   3.085  0.0232 -0.2832 -0.1037
 1772SOL     OW 7194   1.358   1.654   2.975 -0.7092 -0.0915  0.2196
 1772SOL    HW2 7195   1.358   1.745   3.005  1.8480 -0.0851  0.3092
 1772SOL    HW3 7196   1.358   1.661   2.880  0.0650  0.0043  0.2277
 1772SOL    MW4 7197   1.358   1.667   2.967 -0.2697 -0.0780  0.2325
 1773SOL     OW 7198   1.365   1.899   3.081  0.3046  0.1578 -0.0575
 1773SOL    HW2 7199   1.361   1.899   3.176  0.5349 -1.9871 -0.0118
 1773SOL    HW3 7200   1.280   1.933   3.053  0.1120  0.4790  0.9137
 1773SOL    MW4 7201   1.353   1.903   3.090  0.3096 -0.0827  0.0768
 1774SOL     OW 7202   1.587   2.049   2.994  0.0335 -0.1716  0.0737
 1774SOL    HW2 7203   1.505   2.013   3.027 -0.2311 -0.0006 -0.3942
 1774SOL    HW3 7204   1.582   2.039   2.899  0.4136  0.1339  0.0169
 1774SOL    MW4 7205   1.576   2.043   2.986  0.0486 -0.1087  0.0045
 1775SOL     OW 7206   1.608   2.301   3.094  0.2524 -0.0904 -0.3491
 1775SOL    HW2 7207   1.536   2.342   3.045  0.2206  0.1465 -0.1047
 1775SOL    HW3 7208   1.608   2.210   3.064 -1.1491 -0.4775  0.7901
 1775SOL    MW4 7209   1.599   2.294   3.084  0.0632 -0.1101 -0.1667
 1776SOL     OW 7210   1.368   2.430   2.984  0.3910  0.2254 -0.1126
 1776SOL    HW2 7211   1.290   2.384   3.014  1.4270 -0.3164  1.8073
 1776SOL    HW3 7212   1.345   2.461   2.896 -1.1113 -2.0305 -0.5662
 1776SOL    MW4 7213   1.355   2.428   2.976  0.3295 -0.1438  0.0808
 1777SOL     OW 7214   1.353   2.690   3.132 -0.2187  0.0704  0.0497
 1777SOL    HW2 7215   1.344   2.601   3.098  1.2807 -0.4317  0.8835
 1777SOL    HW3 7216   1.294   2.743   3.078 -1.3441 -1.4685 -0.2638
 1777SOL    MW4 7217   1.344   2.685   3.121 -0.1693 -0.1988  0.1183
 1778SOL     OW 7218   1.563   2.817   2.996 -0.4416 -0.0953  0.1962
 1778SOL    HW2 7219   1.635   2.773   3.040  0.2956  0.0100 -0.8741
 1778SOL    HW3 7220   1.485   2.792   3.045  0.0339 -2.1492 -0.0660
 1778SOL    MW4 7221   1.562   2.808   3.008 -0.2816 -0.3524  0.0205
 1779SOL     OW 7222   1.566   3.069   3.112 -0.1423 -0.0561 -0.1557
 1779SOL    HW2 7223   1.582   3.048   3.204  0.5896  0.7705 -0.0908
 1779SOL    HW3 7224   1.574   2.986   3.067 -1.9054 -0.7279  0.7026
 1779SOL    MW4 7225   1.569   3.056   3.118 -0.2784 -0.0355 -0.0339
 1780SOL     OW 7226   1.364   3.230   3.031  0.1292 -0.3499  0.2724
 1780SOL    HW2 7227   1.442   3.179   3.053 -0.1924 -1.0396 -0.1740
 1780SOL    HW3 7228   1.362   3.230   2.935 -0.9833 -1.2182  0.2876
 1780SOL    MW4 7229   1.374   3.223   3.021 -0.0601 -0.5553  0.2158
 1781SOL     OW 7230   1.337   3.506   3.137 -0.8396  0.3351 -0.1050
 1781SOL    HW2 7231   1.311   3.496   3.229 -0.4179 -0.6868 -0.0963
 1781SOL    HW3 7232   1.350   3.417   3.106  2.3634  0.7676 -0.2013
 1781SOL    MW4 7233   1.335   3.493   3.145 -0.3614  0.2573 -0.1166
 1782SOL     OW 7234   1.581   3.593   3.016  0.0468 -0.1303  0.0009
 1782SOL    HW2 7235   1.505   3.552   3.057 -0.6220  1.8881  0.8325
 1782SOL    HW3 7236   1.564   3.588   2.922 -1.7221  1.4191  0.2104
 1782SOL    MW4 7237   1.569   3.587   3.009 -0.2748  0.3402  0.1383
 1783SOL     OW 7238   1.579   3.859   3.111  0.1737 -0.0790 -0.0327
 1783SOL    HW2 7239   1.653   3.908   3.075  0.0022  0.4134  0.2672
 1783SOL    HW3 7240   1.583   3.774   3.069 -0.2043  0.5888 -1.4622
 1783SOL    MW4 7241   1.589   3.854   3.101  0.1011  0.0741 -0.1819
 1784SOL     OW 7242   1.351   4.019   3.024 -0.2007  0.1371 -0.2956
 1784SOL    HW2 7243   1.425   3.968   3.058 -0.8480 -1.0899 -0.7014
 1784SOL    HW3 7244   1.275   3.987   3.073 -0.6480  0.5118 -0.7382
 1784SOL    MW4 7245   1.351   4.008   3.035 -0.3450  0.0238 -0.4075
 1785SOL     OW 7246   1.353   4.256   3.144  0.3046 -0.4054  0.1934
 1785SOL    HW2 7247   1.361   4.168   3.108 -0.2011 -0.2645 -0.2695
 1785SOL    HW3 7248   1.274   4.291   3.104  0.1271  0.0108  0.9029
 1785SOL    MW4 7249   1.344   4.249   3.134  0.2146 -0.3319  0.2258
 1786SOL     OW 7250   1.554   4.415   3.018 -0.5246 -0.2253 -0.3120
 1786SOL    HW2 7251   1.490   4.358   3.060  0.8878 -0.9402  0.9388
 1786SOL    HW3 7252   1.548   4.498   3.066 -2.0128  0.4507 -1.6108
 1786SOL    MW4 7253   1.545   4.419   3.030 -0.5345 -0.2303 -0.3178
 1787SOL     OW 7254   1.964   4.621   3.045  0.4800 -0.2981 -0.2528
 1787SOL    HW2 7255   1.985   4.607   3.138  0.5120 -0.1201 -0.2320
 1787SOL    HW3 7256   1.880   4.667   3.046  0.6108 -0.0580 -0.3034
 1787SOL    MW4 7257   1.956   4.625   3.057  0.5015 -0.2427 -0.2565
 1788SOL     OW 7258   1.740   0.100   3.017 -0.0117 -0.0001 -0.2174
 1788SOL    HW2 7259   1.659   0.063   3.051 -1.0340  1.9796 -0.4580
 1788SOL    HW3 7260   1.736   0.085   2.922 -0.4562  0.7685 -0.3229
 1788SOL    MW4 7261   1.729   0.093   3.009 -0.2053  0.3625 -0.2632
 1789SOL     OW 7262   1.775   0.356   3.123 -0.1274  0.1997  0.5847
 1789SOL    HW2 7263   1.766   0.267   3.089 -0.9364  0.2524  0.6565
 1789SOL    HW3 7264   1.696   0.402   3.094 -1.1650  0.0675  3.0582
 1789SOL    MW4 7265   1.763   0.351   3.115 -0.3711  0.1892  0.9203
 1790SOL     OW 7266   1.998   0.506   3.022 -0.0698  0.1733 -0.0125
 1790SOL    HW2 7267   1.924   0.450   3.047  0.6134 -1.0008 -0.5626
 1790SOL    HW3 7268   2.002   0.499   2.926  1.7481 -1.0966  0.1291
 1790SOL    MW4 7269   1.989   0.497   3.013  0.2602 -0.1491 -0.0663
 1791SOL     OW 7270   2.058   0.782   3.121 -0.0068  0.0091 -0.1291
 1791SOL    HW2 7271   1.986   0.834   3.085  1.3086  0.8292 -1.6462
 1791SOL    HW3 7272   2.036   0.692   3.098 -0.2912  0.3048 -1.0539
 1791SOL    MW4 7273   2.045   0.777   3.113  0.1292  0.1562 -0.4513
 1792SOL     OW 7274   1.821   0.895   3.022  0.0319 -0.3820 -0.2907
 1792SOL    HW2 7275   1.739   0.857   3.054 -0.4526 -0.0939 -1.1791
 1792SOL    HW3 7276   1.822   0.877   2.928  1.0784 -0.5474 -0.2575
 1792SOL    MW4 7277   1.810   0.888   3.014  0.1061 -0.3657 -0.4036
 1793SOL     OW 7278   1.819   1.156   3.090  0.4199 -0.2214  0.1390
 1793SOL    HW2 7279   1.818   1.152   3.186  0.3954 -2.0883  0.0852
 1793SOL    HW3 7280   1.817   1.064   3.062 -0.9192  0.3202 -1.6661
 1793SOL    MW4 7281   1.819   1.143   3.099  0.2401 -0.3964 -0.1063
 1794SOL     OW 7282   2.029   1.266   2.975 -0.0096  0.1085  0.0004
 1794SOL    HW2 7283   2.105   1.218   3.009  0.1268  0.4240  0.1332
 1794SOL    HW3 7284   1.954   1.225   3.018  0.0887 -0.1568 -0.0771
 1794SOL    MW4 7285   2.029   1.254   2.985  0.0212  0.1150  0.0079
 1795SOL     OW 7286   2.040   1.520   3.104  0.0060 -0.1062 -0.4464
 1795SOL    HW2 7287   2.036   1.505   3.198  2.2336 -0.8072 -0.4151
 1795SOL    HW3 7288   2.040   1.432   3.066  0.8557  0.1109 -0.9802
 1795SOL    MW4 7289   2.040   1.506   3.111  0.4120 -0.1699 -0.5128
 1796SOL     OW 7290   1.813   1.632   3.005 -0.0397 -0.2589 -0.2775
 1796SOL    HW2 7291   1.799   1.724   3.027 -0.3270 -0.1783 -0.8134
 1796SOL    HW3 7292   1.887   1.606   3.060  0.7861  0.6050 -0.9607
 1796SOL    MW4 7293   1.821   1.640   3.015  0.0314 -0.1345 -0.4385
 1797SOL     OW 7294   1.797   1.910   3.102 -0.2115  0.1051  0.5525
 1797SOL    HW2 7295   1.870   1.953   3.056 -1.4680  0.9092 -0.7316
 1797SOL    HW3 7296   1.719   1.957   3.073 -1.3372 -1.2832  1.2589
 1797SOL    MW4 7297   1.797   1.922   3.092 -0.5258  0.0280  0.4761
 1798SOL     OW 7298   2.016   2.070   2.970 -0.3310 -0.7541 -0.2772
 1798SOL    HW2 7299   2.088   2.028   3.018 -0.9235 -0.6502  0.6996
 1798SOL    HW3 7300   2.009   2.157   3.009 -1.3982 -0.9835  0.0475
 1798SOL    MW4 7301   2.025   2.076   2.981 -0.5498 -0.7706 -0.1054
 1799SOL     OW 7302   2.022   2.301   3.109 -0.2664  0.0736 -0.3054
 1799SOL    HW2 7303   2.101   2.352   3.087 -0.1944 -0.1698 -0.6189
 1799SOL    HW3 7304   1.949   2.357   3.082 -0.1955  0.2029 -0.2297
 1799SOL    MW4 7305   2.023   2.316   3.102 -0.2480  0.0584 -0.3369
 1800SOL     OW 7306   1.816   2.431   2.981 -0.1325  0.4426 -0.0141
 1800SOL    HW2 7307   1.820   2.524   3.004 -0.5393  0.7293 -1.0959
 1800SOL    HW3 7308   1.740   2.398   3.028 -0.6030  0.8926 -0.4517
 1800SOL    MW4 7309   1.807   2.439   2.991 -0.2483  0.5398 -0.2146
 1801SOL     OW 7310   1.786   2.693   3.098  0.2850 -0.5082  0.0895
 1801SOL    HW2 7311   1.794   2.685   3.193 -0.5181  1.7524  0.3905
 1801SOL    HW3 7312   1.864   2.741   3.071 -0.7163  1.1478 -0.0043
 1801SOL    MW4 7313   1.797   2.698   3.107  0.0470  0.0086  0.1171
 1802SOL     OW 7314   2.010   2.835   2.995  0.0604 -0.4587  0.2255
 1802SOL    HW2 7315   2.022   2.923   3.030  1.0916 -0.7391  0.5971
 1802SOL    HW3 7316   2.002   2.849   2.900  0.7772 -0.0137  0.2252
 1802SOL    MW4 7317   2.011   2.849   2.987  0.2911 -0.4373  0.2747
 1803SOL     OW 7318   2.041   3.099   3.086  0.7290  0.2080  0.5238
 1803SOL    HW2 7319   2.041   3.074   3.179 -1.6421 -0.0292  0.4784
 1803SOL    HW3 7320   1.955   3.137   3.071  0.6671 -0.7785 -1.8526
 1803SOL    MW4 7321   2.030   3.100   3.096  0.4082  0.0465  0.2041
 1804SOL     OW 7322   1.785   3.214   3.046 -0.1226  0.3563 -0.2182
 1804SOL    HW2 7323   1.710   3.169   3.085 -0.4894  1.8405  0.8642
 1804SOL    HW3 7324   1.768   3.213   2.952 -1.3219  0.3207 -0.0100
 1804SOL    MW4 7325   1.773   3.208   3.039 -0.3293  0.5474 -0.0477
 1805SOL     OW 7326   1.822   3.493   3.155 -0.4651  0.1362  0.3200
 1805SOL    HW2 7327   1.813   3.401   3.131 -0.1026 -0.0101  0.7611
 1805SOL    HW3 7328   1.749   3.536   3.110 -0.2492 -0.2637 -0.4130
 1805SOL    MW4 7329   1.811   3.487   3.146 -0.3887  0.0641  0.2816
 1806SOL     OW 7330   2.036   3.612   3.037  0.3874  0.1946 -0.4351
 1806SOL    HW2 7331   2.019   3.704   3.057  1.4047 -0.0691  1.9401
 1806SOL    HW3 7332   1.975   3.564   3.093  0.7268 -0.5606 -0.7097
 1806SOL    MW4 7333   2.026   3.618   3.047  0.5665  0.0603 -0.1581
 1807SOL     OW 7334   2.037   3.878   3.119  0.2650 -0.6604 -0.4725
 1807SOL    HW2 7335   2.041   3.872   3.215 -0.5508  1.5915 -0.2670
 1807SOL    HW3 7336   1.947   3.903   3.100  0.0327 -2.4823 -1.9540
 1807SOL    MW4 7337   2.025   3.881   3.129  0.1266 -0.6039 -0.6413
 1808SOL     OW 7338   1.807   3.990   3.035 -0.6338  0.1479  0.2086
 1808SOL    HW2 7339   1.794   4.078   3.069  0.0080  0.4146 -0.2281
 1808SOL    HW3 7340   1.827   4.002   2.942 -1.1687 -0.4962  0.0074
 1808SOL    MW4 7341   1.808   4.003   3.028 -0.6196  0.0982  0.1247
 1809SOL     OW 7342   1.772   4.255   3.115  0.4124  0.0729 -0.2161
 1809SOL    HW2 7343   1.843   4.299   3.068 -0.6886  0.9993 -1.0496
 1809SOL    HW3 7344   1.694   4.305   3.091 -0.5835 -1.2078  0.3354
 1809SOL    MW4 7345   1.771   4.267   3.106  0.1357  0.0262 -0.2532
 1810SOL     OW 7346   1.971   4.368   2.925  0.1664 -0.0381 -0.1998
 1810SOL    HW2 7347   1.966   4.458   2.957  0.4442  0.1512 -0.6750
 1810SOL    HW3 7348   1.980   4.377   2.830 -0.2619 -0.5787 -0.2935
 1810SOL    MW4 7349   1.972   4.381   2.917  0.1466 -0.0844 -0.2747
 1811SOL     OW 7350   2.469   4.645   3.091  0.2072 -0.5290 -0.1122
 1811SOL    HW2 7351   2.470   4.559   3.048  1.1026 -0.0555 -1.0692
 1811SOL    HW3 7352   2.388   4.686   3.061  0.8309 -0.2009 -1.3805
 1811SOL    MW4 7353   2.458   4.639   3.081  0.4075 -0.4230 -0.4060
 1812SOL     OW 7354   2.205   0.071   2.980 -0.0618  0.5938  0.1231
 1812SOL    HW2 7355   2.196   0.163   3.007 -1.4945  0.0807  1.4445
 1812SOL    HW3 7356   2.117   0.035   2.990  0.4537 -0.8840 -0.5943
 1812SOL    MW4 7357   2.192   0.079   2.985 -0.1829  0.3311  0.2027
 1813SOL     OW 7358   2.219   0.334   3.069 -0.2849 -0.3758  0.5385
 1813SOL    HW2 7359   2.230   0.334   3.164  0.8400  3.4356  0.4801
 1813SOL    HW3 7360   2.142   0.389   3.054  0.5797  0.4918 -0.8295
 1813SOL    MW4 7361   2.210   0.341   3.080 -0.0224  0.2416  0.3502
 1814SOL     OW 7362   2.445   0.472   2.974  0.1527 -0.4556 -0.0527
 1814SOL    HW2 7363   2.374   0.422   3.016 -0.5191 -0.3017 -0.9812
 1814SOL    HW3 7364   2.429   0.461   2.880 -0.4695  2.1583 -0.2886
 1814SOL    MW4 7365   2.433   0.464   2.967 -0.0179 -0.0904 -0.2062
 1815SOL     OW 7366   2.492   0.731   3.045  0.1410  0.2640 -0.2742
 1815SOL    HW2 7367   2.578   0.762   3.015 -1.3267  1.0517 -3.8781
 1815SOL    HW3 7368   2.488   0.640   3.018 -0.0138  0.0923  0.3069
 1815SOL    MW4 7369   2.503   0.723   3.038 -0.0730  0.3452 -0.6733
 1816SOL     OW 7370   2.278   0.866   2.964 -0.4441 -0.1099  0.0042
 1816SOL    HW2 7371   2.355   0.815   2.992 -0.6750 -1.0199 -0.9687
 1816SOL    HW3 7372   2.206   0.831   3.016 -0.5940 -0.7561 -0.6300
 1816SOL    MW4 7373   2.279   0.854   2.974 -0.4945 -0.3152 -0.2079
 1817SOL     OW 7374   2.272   1.129   3.073 -0.2782 -0.2878 -0.0380
 1817SOL    HW2 7375   2.280   1.110   3.166 -1.7574  0.2847  0.2160
 1817SOL    HW3 7376   2.271   1.043   3.030 -0.1266 -0.5663  0.5163
 1817SOL    MW4 7377   2.273   1.115   3.080 -0.4532 -0.2490  0.0689
 1818SOL     OW 7378   2.462   1.289   2.955  0.1331  0.0027  0.3344
 1818SOL    HW2 7379   2.388   1.236   2.986  1.0446 -0.9515  0.9261
 1818SOL    HW3 7380   2.458   1.283   2.860 -0.2047 -0.5447  0.3804
 1818SOL    MW4 7381   2.452   1.281   2.947  0.2086 -0.1954  0.4184
 1819SOL     OW 7382   2.484   1.517   3.116  0.2265  0.4290 -0.0057
 1819SOL    HW2 7383   2.420   1.575   3.074  1.0831  1.9535  0.7372
 1819SOL    HW3 7384   2.494   1.444   3.055 -0.7373  1.1651 -1.0676
 1819SOL    MW4 7385   2.477   1.515   3.102  0.2122  0.7274 -0.0479
 1820SOL     OW 7386   2.266   1.673   3.041 -0.1523  0.4191  0.2313
 1820SOL    HW2 7387   2.182   1.631   3.063  0.6400 -1.3008  0.0580
 1820SOL    HW3 7388   2.265   1.680   2.946  0.3632 -0.5922  0.1518
 1820SOL    MW4 7389   2.255   1.668   3.031  0.0200  0.0587  0.1981
 1821SOL     OW 7390   2.240   1.937   3.098  0.2556 -0.0363  0.4523
 1821SOL    HW2 7391   2.309   1.983   3.050  0.3302 -0.0315  0.5631
 1821SOL    HW3 7392   2.257   1.844   3.081 -0.3496  0.0041 -0.3890
 1821SOL    MW4 7393   2.251   1.931   3.090  0.1855 -0.0303  0.3557
 1822SOL     OW 7394   2.454   2.035   2.966 -0.5154  0.7334  0.1794
 1822SOL    HW2 7395   2.537   1.996   2.992 -0.3910  0.7430 -0.2014
 1822SOL    HW3 7396   2.463   2.050   2.872 -1.3031 -0.1399 -0.0368
 1822SOL    MW4 7397   2.466   2.032   2.957 -0.6030  0.6196  0.1004
 1823SOL     OW 7398   2.468   2.292   3.078 -0.1540 -0.0374  0.1144
 1823SOL    HW2 7399   2.465   2.276   3.172 -1.6031 -0.1733  0.0466
 1823SOL    HW3 7400   2.466   2.205   3.038  0.2866  0.0275 -0.0625
 1823SOL    MW4 7401   2.468   2.279   3.085 -0.2871 -0.0465  0.0823
 1824SOL     OW 7402   2.244   2.444   3.000  0.4100  0.1978  0.0566
 1824SOL    HW2 7403   2.239   2.530   3.043  0.2678 -0.0965  0.6285
 1824SOL    HW3 7404   2.327   2.407   3.030  0.2874 -0.0292  0.1143
 1824SOL    MW4 7405   2.254   2.451   3.010  0.3750  0.1290  0.1397
 1825SOL     OW 7406   2.221   2.701   3.114 -0.3547 -0.3191  0.4080
 1825SOL    HW2 7407   2.299   2.743   3.077 -0.1744 -2.6544 -1.9344
 1825SOL    HW3 7408   2.148   2.758   3.089  0.2172  0.1378 -0.2092
 1825SOL    MW4 7409   2.222   2.714   3.106 -0.2556 -0.5667  0.0174
 1826SOL     OW 7410   2.452   2.824   3.025  0.3303 -0.1587 -0.0569
 1826SOL    HW2 7411   2.467   2.913   3.059 -0.1013  0.3420 -1.1634
 1826SOL    HW3 7412   2.452   2.834   2.930  0.4516 -1.3831 -0.1915
 1826SOL    MW4 7413   2.454   2.837   3.017  0.2894 -0.2539 -0.2205
 1827SOL     OW 7414   2.532   3.068   3.114  0.2549 -0.0142 -0.0227
 1827SOL    HW2 7415   2.608   3.107   3.071 -0.0948 -0.4229 -1.0380
 1827SOL    HW3 7416   2.456   3.115   3.078 -0.0778 -0.7071 -0.2369
 1827SOL    MW4 7417   2.532   3.079   3.104  0.1650 -0.1595 -0.1848
 1828SOL     OW 7418   2.294   3.192   3.001  0.3736 -0.1157 -0.1550
 1828SOL    HW2 7419   2.278   3.278   3.039  0.2538  0.5546 -1.6905
 1828SOL    HW3 7420   2.214   3.143   3.018  0.5474 -0.0210  0.9697
 1828SOL    MW4 7421   2.281   3.197   3.009  0.3812 -0.0150 -0.2091
 1829SOL     OW 7422   2.260   3.460   3.074 -0.6511 -0.1386  0.0724
 1829SOL    HW2 7423   2.334   3.519   3.063 -0.8827  0.2548  0.5849
 1829SOL    HW3 7424   2.183   3.513   3.054 -0.8668 -0.2308  0.6323
 1829SOL    MW4 7425   2.260   3.475   3.070 -0.7100 -0.0989  0.2136
 1830SOL     OW 7426   2.474   3.607   2.974  0.2845  0.1943  0.2896
 1830SOL    HW2 7427   2.560   3.567   2.992  0.5618  0.6964  0.0959
 1830SOL    HW3 7428   2.481   3.695   3.011 -0.5346 -0.1397  1.2407
 1830SOL    MW4 7429   2.486   3.613   2.982  0.2129  0.2165  0.3896
 1831SOL     OW 7430   2.500   3.855   3.107  0.2733  0.0107  0.5891
 1831SOL    HW2 7431   2.498   3.871   3.201  0.7861  0.0459  0.5937
 1831SOL    HW3 7432   2.580   3.897   3.076 -0.9660  1.8546 -0.2104
 1831SOL    MW4 7433   2.510   3.862   3.115  0.1779  0.2584  0.4842
 1832SOL     OW 7434   2.249   3.954   2.969 -0.3848  0.4925 -0.2822
 1832SOL    HW2 7435   2.325   3.924   3.019 -0.7601  2.1002  1.3403
 1832SOL    HW3 7436   2.174   3.933   3.025 -0.9664  0.7271 -0.9628
 1832SOL    MW4 7437   2.249   3.947   2.983 -0.5114  0.7358 -0.1578
 1833SOL     OW 7438   2.221   4.241   3.051  0.2012  0.4193  0.1596
 1833SOL    HW2 7439   2.227   4.157   3.006  0.6193  1.7834 -2.4132
 1833SOL    HW3 7440   2.143   4.283   3.015 -0.3181  0.9247  1.8221
 1833SOL    MW4 7441   2.212   4.236   3.040  0.1876  0.6661  0.0393
 1834SOL     OW 7442   2.445   4.376   2.978  0.2969 -0.0884  0.1074
 1834SOL    HW2 7443   2.360   4.336   2.994  1.0159 -2.0362 -0.7475
 1834SOL    HW3 7444   2.449   4.388   2.883  0.2586  1.6900  0.3125
 1834SOL    MW4 7445   2.434   4.372   2.967  0.3867 -0.1111  0.0219
 1835SOL     OW 7446   2.945   4.648   3.111 -0.3864 -0.6714 -0.0816
 1835SOL    HW2 7447   3.006   4.699   3.059  1.3083 -2.5063  0.0460
 1835SOL    HW3 7448   2.928   4.570   3.059 -2.7497 -0.1330 -0.1721
 1835SOL    MW4 7449   2.951   4.644   3.098 -0.4747 -0.8425 -0.0768
 1836SOL     OW 7450   2.711   0.078   3.000 -0.2199 -0.4253 -0.0504
 1836SOL    HW2 7451   2.789   0.059   3.052 -0.1864 -1.8828 -0.5970
 1836SOL    HW3 7452   2.638   0.043   3.051 -0.4240  0.0982  0.0234
 1836SOL    MW4 7453   2.712   0.071   3.013 -0.2422 -0.5485 -0.1125
 1837SOL     OW 7454   2.682   0.351   3.057  0.5380  0.1315 -0.3781
 1837SOL    HW2 7455   2.678   0.255   3.052  0.6219  0.0615  0.7586
 1837SOL    HW3 7456   2.593   0.380   3.035  0.1227 -0.2834  0.7214
 1837SOL    MW4 7457   2.669   0.342   3.054  0.4945  0.0675 -0.0832
 1838SOL     OW 7458   2.916   0.479   2.993  0.1144  0.1271  0.2084
 1838SOL    HW2 7459   2.833   0.447   3.026  0.5528 -0.7372  0.4924
 1838SOL    HW3 7460   2.903   0.487   2.899  0.1281 -1.2989  0.0785
 1838SOL    MW4 7461   2.904   0.476   2.985  0.1743 -0.1751  0.2289
 1839SOL     OW 7462   2.980   0.726   3.080 -0.1739  0.5977  0.0937
 1839SOL    HW2 7463   2.975   0.728   3.176  0.1864  0.8131  0.1100
 1839SOL    HW3 7464   2.971   0.633   3.058 -0.4795  0.5726  0.3243
 1839SOL    MW4 7465   2.978   0.714   3.090 -0.1667  0.6228  0.1264
 1840SOL     OW 7466   2.720   0.858   2.981 -0.3579 -0.6831  0.0692
 1840SOL    HW2 7467   2.700   0.929   3.041  1.0080 -1.6090  1.6312
 1840SOL    HW3 7468   2.801   0.820   3.014 -0.5839 -2.3861 -1.2780
 1840SOL    MW4 7469   2.728   0.863   2.993 -0.2077 -1.0300  0.0978
 1841SOL     OW 7470   2.658   1.118   3.083  0.1171 -0.5018  0.0158
 1841SOL    HW2 7471   2.739   1.154   3.047 -0.2202 -0.4561 -0.6971
 1841SOL    HW3 7472   2.589   1.176   3.051 -0.3986 -1.6323 -0.9301
 1841SOL    MW4 7473   2.660   1.130   3.074  0.0048 -0.6449 -0.2029
 1842SOL     OW 7474   2.890   1.274   2.979  0.1422  0.2651 -0.1564
 1842SOL    HW2 7475   2.977   1.248   3.010  0.5282  1.6379 -0.0477
 1842SOL    HW3 7476   2.880   1.364   3.010 -1.2912  0.1490 -0.2461
 1842SOL    MW4 7477   2.900   1.283   2.987  0.0041  0.4309 -0.1538
 1843SOL     OW 7478   2.889   1.512   3.089  0.0745 -0.0532 -0.2296
 1843SOL    HW2 7479   2.893   1.516   3.184  1.1581  2.8988 -0.3665
 1843SOL    HW3 7480   2.970   1.553   3.059 -0.5632 -0.3040 -2.4495
 1843SOL    MW4 7481   2.900   1.518   3.097  0.1333  0.3031 -0.5405
 1844SOL     OW 7482   2.685   1.671   3.007 -0.4064 -0.2479 -0.4946
 1844SOL    HW2 7483   2.772   1.637   3.030 -0.1374  0.0537 -1.0489
 1844SOL    HW3 7484   2.624   1.616   3.057  0.1581  0.5098  1.0503
 1844SOL    MW4 7485   2.689   1.659   3.016 -0.2966 -0.1080 -0.3641
 1845SOL     OW 7486   2.682   1.929   3.079 -0.0352 -0.0674 -0.1208
 1845SOL    HW2 7487   2.775   1.954   3.078 -0.1294  0.2597 -0.8892
 1845SOL    HW3 7488   2.683   1.834   3.064  0.2259 -0.2341  0.9113
 1845SOL    MW4 7489   2.695   1.920   3.077 -0.0131 -0.0463 -0.0861
 1846SOL     OW 7490   2.940   2.022   3.041  0.0240  0.0215  0.1341
 1846SOL    HW2 7491   2.934   2.112   3.073 -0.4916 -0.3970  1.2378
 1846SOL    HW3 7492   2.938   2.030   2.945  0.2758  1.1949  0.2213
 1846SOL    MW4 7493   2.939   2.035   3.032 -0.0105  0.1209  0.2911
 1847SOL     OW 7494   2.933   2.295   3.123 -0.4183  0.0279 -0.4486
 1847SOL    HW2 7495   3.001   2.353   3.088 -0.9311  0.9137  0.0102
 1847SOL    HW3 7496   2.854   2.321   3.076 -0.7597  0.0511  0.1462
 1847SOL    MW4 7497   2.932   2.306   3.112 -0.5307  0.1478 -0.3095
 1848SOL     OW 7498   2.715   2.416   2.988 -0.0338 -0.4014  0.3430
 1848SOL    HW2 7499   2.697   2.500   3.031  0.1578 -0.4699  0.5526
 1848SOL    HW3 7500   2.631   2.370   2.991 -0.3290  0.0808 -0.4259
 1848SOL    MW4 7501   2.701   2.421   2.994 -0.0474 -0.3467  0.2689
 1849SOL     OW 7502   2.655   2.646   3.135  0.0004  0.0823 -0.1728
 1849SOL    HW2 7503   2.656   2.636   3.230 -0.9788  0.0135 -0.1635
 1849SOL    HW3 7504   2.586   2.710   3.118 -1.8860 -2.1157 -1.0315
 1849SOL    MW4 7505   2.646   2.653   3.145 -0.3777 -0.2167 -0.2851
 1850SOL     OW 7506   2.862   2.806   3.017  0.0464  0.2755  0.4816
 1850SOL    HW2 7507   2.943   2.771   3.054  0.9285  0.3856 -1.3045
 1850SOL    HW3 7508   2.792   2.763   3.066  1.1530 -1.2505  0.7305
 1850SOL    MW4 7509   2.863   2.796   3.028  0.3088  0.0887  0.2787
 1851SOL     OW 7510   2.970   3.057   3.125  0.0758  0.2437  0.1636
 1851SOL    HW2 7511   2.906   3.116   3.084  0.4110  0.4328 -0.0965
 1851SOL    HW3 7512   2.940   2.970   3.101  0.6458  0.3753 -1.0728
 1851SOL    MW4 7513   2.957   3.054   3.116  0.1955  0.2861 -0.0339
 1852SOL     OW 7514   2.755   3.216   3.016 -0.2547 -0.2293 -0.0438
 1852SOL    HW2 7515   2.740   3.306   3.044  1.4751 -0.2344  0.9814
 1852SOL    HW3 7516   2.750   3.219   2.921 -0.3563  0.9200 -0.0104
 1852SOL    MW4 7517   2.752   3.228   3.007 -0.0398 -0.0784  0.0958
 1853SOL     OW 7518   2.714   3.494   3.058 -0.7548  0.1917  0.0951
 1853SOL    HW2 7519   2.734   3.492   3.151 -0.3012 -0.0794 -0.0081
 1853SOL    HW3 7520   2.790   3.534   3.017 -0.3889 -0.8805 -0.2984
 1853SOL    MW4 7521   2.727   3.499   3.065 -0.6464  0.0143  0.0293
 1854SOL     OW 7522   2.938   3.632   2.971  0.0376  0.1545  0.5235
 1854SOL    HW2 7523   3.014   3.579   2.993 -0.8368 -0.8958  1.0272
 1854SOL    HW3 7524   2.948   3.711   3.025  2.0781  1.1883 -1.2702
 1854SOL    MW4 7525   2.949   3.636   2.981  0.1915  0.1523  0.3533
 1855SOL     OW 7526   2.949   3.871   3.087 -0.1684 -0.1831 -0.4985
 1855SOL    HW2 7527   2.940   3.858   3.181 -0.0147 -0.2374 -0.4914
 1855SOL    HW3 7528   2.864   3.904   3.059 -0.7944 -1.9243 -0.6522
 1855SOL    MW4 7529   2.937   3.874   3.096 -0.2306 -0.4201 -0.5181
 1856SOL     OW 7530   2.717   3.979   2.982  0.1265 -0.1673 -0.0856
 1856SOL    HW2 7531   2.715   4.069   3.014 -3.5887 -0.0691 -0.2960
 1856SOL    HW3 7532   2.704   3.987   2.887  0.6214 -0.9013 -0.2237
 1856SOL    MW4 7533   2.715   3.992   2.973 -0.2983 -0.2511 -0.1316
 1857SOL     OW 7534   2.678   4.266   3.044 -0.0222  0.6525 -0.1266
 1857SOL    HW2 7535   2.664   4.251   3.137 -1.7233 -0.8814 -0.5905
 1857SOL    HW3 7536   2.592   4.294   3.011  0.5147  1.0178 -1.2407
 1857SOL    MW4 7537   2.664   4.268   3.052 -0.1760  0.4983 -0.3347
 1858SOL     OW 7538   2.902   4.425   2.954 -0.2081  0.0242 -0.0519
 1858SOL    HW2 7539   2.973   4.385   3.004 -0.3204 -2.1139 -1.4963
 1858SOL    HW3 7540   2.823   4.384   2.989 -0.5402  0.8416  0.1456
 1858SOL    MW4 7541   2.901   4.414   2.965 -0.2668 -0.1497 -0.2165
 1859SOL     OW 7542   3.377   0.029   3.138  0.6813 -0.1362  0.2868
 1859SOL    HW2 7543   3.462   0.048   3.100  0.1527 -0.2879 -1.0168
 1859SOL    HW3 7544   3.358  -0.061   3.111 -0.5675  0.4192 -0.7860
 1859SOL    MW4 7545   3.385   0.019   3.129  0.4466 -0.0829 -0.0267
 1860SOL     OW 7546   3.157   0.148   3.008  0.0134 -0.4969 -0.4078
 1860SOL    HW2 7547   3.147   0.237   3.042 -0.1647 -0.5824 -0.2346
 1860SOL    HW3 7548   3.225   0.109   3.062 -0.2528 -0.6248 -0.1591
 1860SOL    MW4 7549   3.164   0.154   3.019 -0.0451 -0.5250 -0.3521
 1861SOL     OW 7550   3.138   0.398   3.128  0.2032 -0.0186  0.1346
 1861SOL    HW2 7551   3.212   0.436   3.082  0.7244 -1.2155 -0.0535
 1861SOL    HW3 7552   3.062   0.421   3.075  0.7728 -1.2027 -1.2304
 1861SOL    MW4 7553   3.138   0.406   3.115  0.3469 -0.3328 -0.0706
 1862SOL     OW 7554   3.366   0.515   2.998  0.1458 -0.2741 -0.0788
 1862SOL    HW2 7555   3.443   0.460   3.009 -0.6548 -1.5858 -0.8087
 1862SOL    HW3 7556   3.361   0.532   2.904 -0.0985  0.3273  0.0403
 1862SOL    MW4 7557   3.375   0.510   2.987  0.0079 -0.3678 -0.1595
 1863SOL     OW 7558   3.385   0.767   3.120  0.6279  0.3024  0.2133
 1863SOL    HW2 7559   3.362   0.757   3.212 -0.9794  2.1671  0.0605
 1863SOL    HW3 7560   3.389   0.678   3.086 -0.2996 -0.3452  1.7364
 1863SOL    MW4 7561   3.382   0.754   3.128  0.2937  0.4629  0.3941
 1864SOL     OW 7562   3.184   0.863   2.953  0.6589 -0.7307 -0.6582
 1864SOL    HW2 7563   3.249   0.824   3.012 -0.0387 -0.3215  0.4024
 1864SOL    HW3 7564   3.100   0.832   2.988  0.1039  1.5654  0.0778
 1864SOL    MW4 7565   3.181   0.854   2.965  0.4935 -0.3737 -0.4210
 1865SOL     OW 7566   3.121   1.137   3.061 -0.0299 -0.2595  0.2942
 1865SOL    HW2 7567   3.108   1.115   3.153 -0.5971 -0.6113  0.1362
 1865SOL    HW3 7568   3.142   1.053   3.020 -0.7854 -0.2758 -0.0680
 1865SOL    MW4 7569   3.122   1.123   3.068 -0.2043 -0.3080  0.2255
 1866SOL     OW 7570   3.353   1.288   2.959 -0.1261  0.0479 -0.4412
 1866SOL    HW2 7571   3.422   1.253   3.015 -0.6857  0.1627  0.3222
 1866SOL    HW3 7572   3.280   1.227   2.969 -0.4688  0.4417 -0.5062
 1866SOL    MW4 7573   3.352   1.275   2.967 -0.2451  0.1149 -0.3493
 1867SOL     OW 7574   3.337   1.525   3.070  0.0717 -0.0429  0.0561
 1867SOL    HW2 7575   3.327   1.509   3.164 -1.2052  0.5739  0.0320
 1867SOL    HW3 7576   3.328   1.439   3.030 -0.2297 -0.1939  0.4433
 1867SOL    MW4 7577   3.335   1.512   3.077 -0.1366  0.0185  0.1040
 1868SOL     OW 7578   3.113   1.625   2.949 -0.3732  0.3945 -0.0257
 1868SOL    HW2 7579   3.194   1.596   2.991 -1.1260 -2.6111 -0.5764
 1868SOL    HW3 7580   3.138   1.640   2.858 -0.3963 -0.4498 -0.1760
 1868SOL    MW4 7581   3.127   1.623   2.942 -0.4759 -0.1135 -0.1180
 1869SOL     OW 7582   3.159   1.875   3.090  0.6983  0.1186 -0.0307
 1869SOL    HW2 7583   3.142   1.789   3.052  0.9085  0.7133 -1.4916
 1869SOL    HW3 7584   3.081   1.926   3.068  1.3130  0.7968 -0.6269
 1869SOL    MW4 7585   3.146   1.870   3.082  0.8073  0.2866 -0.3021
 1870SOL     OW 7586   3.343   2.059   3.006  0.0966  0.0030 -0.6056
 1870SOL    HW2 7587   3.427   2.013   3.002 -0.1273 -0.3329 -1.5325
 1870SOL    HW3 7588   3.284   1.997   3.049  0.7155  0.8589  1.5264
 1870SOL    MW4 7589   3.346   2.045   3.011  0.1488  0.0718 -0.4466
 1871SOL     OW 7590   3.361   2.295   3.151  0.1963  0.0119 -0.3864
 1871SOL    HW2 7591   3.376   2.297   3.245 -0.5235  0.3229 -0.2798
 1871SOL    HW3 7592   3.369   2.203   3.127  1.0320  0.0170 -0.1276
 1871SOL    MW4 7593   3.364   2.283   3.160  0.2117  0.0539 -0.3381
 1872SOL     OW 7594   3.147   2.444   3.047  0.3102  0.0366 -0.0878
 1872SOL    HW2 7595   3.226   2.408   3.086  0.7731  0.3983 -0.6910
 1872SOL    HW3 7596   3.141   2.402   2.961 -0.4887 -0.4551  0.1954
 1872SOL    MW4 7597   3.156   2.434   3.041  0.2658  0.0193 -0.1304
 1873SOL     OW 7598   3.078   2.687   3.134  0.0675  0.0567 -0.1555
 1873SOL    HW2 7599   3.098   2.686   3.228  0.9938 -0.6940 -0.3632
 1873SOL    HW3 7600   3.100   2.600   3.103  0.1557  0.4279 -1.1638
 1873SOL    MW4 7601   3.083   2.676   3.142  0.2012  0.0069 -0.3159
 1874SOL     OW 7602   3.337   2.779   3.075  0.1612 -0.0788  0.3134
 1874SOL    HW2 7603   3.345   2.874   3.083  1.5760 -0.3547  2.5928
 1874SOL    HW3 7604   3.250   2.760   3.110  0.5485  0.2261  1.4629
 1874SOL    MW4 7605   3.326   2.789   3.081  0.3994 -0.0751  0.7660
 1875SOL     OW 7606   3.391   3.043   3.094  0.1337  0.3660 -0.4636
 1875SOL    HW2 7607   3.392   3.068   3.187  0.7311  0.9763 -0.6269
 1875SOL    HW3 7608   3.326   3.100   3.054  0.5683  0.7768 -0.5941
 1875SOL    MW4 7609   3.383   3.054   3.101  0.2699  0.5004 -0.5021
 1876SOL     OW 7610   3.186   3.193   2.995 -0.1373  0.2310 -0.2248
 1876SOL    HW2 7611   3.111   3.140   3.022  0.0784 -0.5811 -1.1986
 1876SOL    HW3 7612   3.168   3.217   2.904  1.3938 -1.0726 -0.8958
 1876SOL    MW4 7613   3.174   3.189   2.987  0.0930 -0.0479 -0.4416
 1877SOL     OW 7614   3.120   3.479   3.076 -0.6603  0.1689  0.1393
 1877SOL    HW2 7615   3.202   3.516   3.043 -1.1181  0.2639 -0.8983
 1877SOL    HW3 7616   3.129   3.385   3.062  0.0124 -0.0134  1.6908
 1877SOL    MW4 7617   3.132   3.472   3.070 -0.6320  0.1574  0.2074
 1878SOL     OW 7618   3.354   3.605   3.016 -0.2494 -0.1638 -0.0602
 1878SOL    HW2 7619   3.430   3.560   3.052 -0.7154 -0.0125  1.1237
 1878SOL    HW3 7620   3.361   3.695   3.049 -0.7507 -0.0598 -0.2242
 1878SOL    MW4 7621   3.365   3.611   3.025 -0.3767 -0.1299  0.0741
 1879SOL     OW 7622   3.369   3.857   3.102  0.0943 -0.0184 -0.2656
 1879SOL    HW2 7623   3.370   3.849   3.198  2.1973  0.5141 -0.2009
 1879SOL    HW3 7624   3.290   3.907   3.082 -0.3590 -0.1261  1.2016
 1879SOL    MW4 7625   3.359   3.862   3.112  0.3119  0.0374 -0.0634
 1880SOL     OW 7626   3.151   4.036   3.018  0.1847  0.1557  0.3938
 1880SOL    HW2 7627   3.079   3.982   3.050  0.4350 -0.9329 -0.8293
 1880SOL    HW3 7628   3.149   4.024   2.923  3.0086 -1.1846  0.4683
 1880SOL    MW4 7629   3.142   4.027   3.009  0.5903 -0.1645  0.2422
 1881SOL     OW 7630   3.107   4.302   3.120 -0.8481 -0.2101 -0.4679
 1881SOL    HW2 7631   3.072   4.291   3.209  0.2775  0.4015  0.0525
 1881SOL    HW3 7632   3.135   4.215   3.094 -0.0005 -0.1535  0.2685
 1881SOL    MW4 7633   3.106   4.289   3.128 -0.5877 -0.1221 -0.3021
 1882SOL     OW 7634   3.352   4.437   3.064 -0.2246  0.1829  0.0017
 1882SOL    HW2 7635   3.423   4.376   3.082 -0.4912 -0.0001  0.4400
 1882SOL    HW3 7636   3.272   4.387   3.081 -0.4661  0.3252 -0.6812
 1882SOL    MW4 7637   3.351   4.423   3.069 -0.2918  0.1769 -0.0305
 1883SOL     OW 7638   3.823   0.014   3.130 -0.5801  0.0215 -0.1965
 1883SOL    HW2 7639   3.829  -0.077   3.101 -1.4735 -0.1507  0.1637
 1883SOL    HW3 7640   3.740   0.046   3.095 -0.7110  0.4136  0.4631
 1883SOL    MW4 7641   3.813   0.006   3.122 -0.7150  0.0505 -0.0620
 1884SOL     OW 7642   3.605   0.121   3.015  0.0035  0.4693 -0.1091
 1884SOL    HW2 7643   3.597   0.213   3.037  1.7851  0.8546 -0.9865
 1884SOL    HW3 7644   3.604   0.118   2.920 -1.6512 -0.5992 -0.0813
 1884SOL    MW4 7645   3.604   0.132   3.006  0.0200  0.3792 -0.2210
 1885SOL     OW 7646   3.585   0.395   3.081  0.2714 -0.1338 -0.3218
 1885SOL    HW2 7647   3.574   0.392   3.176  0.7948 -1.2607 -0.2968
 1885SOL    HW3 7648   3.663   0.449   3.068  1.1383 -1.3038 -0.0414
 1885SOL    MW4 7649   3.593   0.402   3.092  0.4549 -0.4368 -0.2816
 1886SOL     OW 7650   3.827   0.506   3.010 -0.1602  0.2106 -0.0152
 1886SOL    HW2 7651   3.901   0.477   3.062  0.4673  2.0105  0.1532
 1886SOL    HW3 7652   3.819   0.600   3.030 -1.9993  0.2072 -0.6066
 1886SOL    MW4 7653   3.836   0.515   3.019 -0.3202  0.4477 -0.0710
 1887SOL     OW 7654   3.834   0.783   3.046 -0.6817 -0.5127 -0.1080
 1887SOL    HW2 7655   3.826   0.791   3.141  0.5261 -1.3426  0.0770
 1887SOL    HW3 7656   3.908   0.839   3.023 -1.2288  0.0151 -0.6292
 1887SOL    MW4 7657   3.843   0.792   3.055 -0.5946 -0.5525 -0.1521
 1888SOL     OW 7658   3.580   0.922   2.987  0.3491  0.1836 -0.2163
 1888SOL    HW2 7659   3.663   0.877   3.002  0.3503  0.3639  0.3332
 1888SOL    HW3 7660   3.516   0.868   3.033  0.1809  0.1166 -0.5300
 1888SOL    MW4 7661   3.583   0.909   2.995  0.3271  0.1986 -0.1850
 1889SOL     OW 7662   3.587   1.159   3.106 -0.5875 -0.0539 -0.0210
 1889SOL    HW2 7663   3.675   1.195   3.090 -0.2507  0.1614  2.2045
 1889SOL    HW3 7664   3.590   1.071   3.067  0.3162  0.3061 -0.7791
 1889SOL    MW4 7665   3.599   1.152   3.098 -0.4241  0.0219  0.1724
 1890SOL     OW 7666   3.837   1.267   3.016 -0.1714 -0.1122  0.0558
 1890SOL    HW2 7667   3.821   1.359   3.037  1.5439  0.1165  0.4740
 1890SOL    HW3 7668   3.812   1.258   2.924 -1.2569  0.5270  0.2787
 1890SOL    MW4 7669   3.832   1.278   3.007 -0.0882  0.0024  0.1404
 1891SOL     OW 7670   3.813   1.541   3.083  0.4886  0.4942  0.3516
 1891SOL    HW2 7671   3.803   1.534   3.178  0.4636  0.7164  0.3639
 1891SOL    HW3 7672   3.726   1.565   3.051  0.6667  1.1431  0.3412
 1891SOL    MW4 7673   3.801   1.543   3.092  0.5090  0.6092  0.3517
 1892SOL     OW 7674   3.584   1.633   2.999  0.1886  0.4388 -0.3360
 1892SOL    HW2 7675   3.588   1.726   3.020 -3.1684  0.5707  0.0294
 1892SOL    HW3 7676   3.499   1.605   3.032  0.6008 -2.4681 -1.6041
 1892SOL    MW4 7677   3.573   1.642   3.006 -0.2000  0.0727 -0.4551
 1893SOL     OW 7678   3.603   1.919   3.067  0.2841  0.3110 -0.4692
 1893SOL    HW2 7679   3.591   1.928   3.162  0.4493  1.1198 -0.5170
 1893SOL    HW3 7680   3.696   1.939   3.053  0.2707  0.1499 -0.7964
 1893SOL    MW4 7681   3.614   1.923   3.078  0.3042  0.3965 -0.5188
 1894SOL     OW 7682   3.845   2.015   3.003  0.0638 -0.1134  0.4753
 1894SOL    HW2 7683   3.820   2.106   3.019 -0.8125 -0.3840  0.6590
 1894SOL    HW3 7684   3.838   2.005   2.908  0.4962  0.1062  0.4191
 1894SOL    MW4 7685   3.841   2.025   2.992  0.0052 -0.1202  0.4921
 1895SOL     OW 7686   3.824   2.262   3.104 -0.2854 -0.2107 -0.2260
 1895SOL    HW2 7687   3.832   2.281   3.197  0.3086 -1.0320 -0.0978
 1895SOL    HW3 7688   3.748   2.312   3.075  0.5063  1.3839  0.3375
 1895SOL    MW4 7689   3.815   2.271   3.112 -0.1025 -0.1085 -0.1347
 1896SOL     OW 7690   3.587   2.422   3.024 -0.1997 -0.0376  0.3498
 1896SOL    HW2 7691   3.596   2.509   3.063 -2.4425 -0.2928  1.5423
 1896SOL    HW3 7692   3.507   2.386   3.063  0.4605 -2.4810 -0.4331
 1896SOL    MW4 7693   3.577   2.429   3.034 -0.4084 -0.3936  0.4039
 1897SOL     OW 7694   3.609   2.676   3.127  0.3303 -0.4755 -0.2584
 1897SOL    HW2 7695   3.670   2.747   3.105  0.8696 -0.7734  0.2523
 1897SOL    HW3 7696   3.523   2.717   3.128  0.3289 -0.3521 -2.4929
 1897SOL    MW4 7697   3.606   2.691   3.124  0.4013 -0.4983 -0.4859
 1898SOL     OW 7698   3.823   2.842   3.045 -0.1520 -0.0514  0.0993
 1898SOL    HW2 7699   3.817   2.933   3.075  1.0481 -0.3930  1.4615
 1898SOL    HW3 7700   3.855   2.849   2.955 -1.4473  0.9227 -0.2954
 1898SOL    MW4 7701   3.826   2.855   3.037 -0.1645  0.0322  0.2270
 1899SOL     OW 7702   3.808   3.094   3.152  0.0591 -0.2070 -0.0488
 1899SOL    HW2 7703   3.875   3.151   3.113  1.0194 -1.5935 -0.4468
 1899SOL    HW3 7704   3.729   3.111   3.101  0.4484  0.4557 -0.4377
 1899SOL    MW4 7705   3.807   3.104   3.140  0.2370 -0.3026 -0.1526
 1900SOL     OW 7706   3.596   3.208   2.998  0.6041  0.0378  0.3574
 1900SOL    HW2 7707   3.514   3.166   3.022  2.0542 -2.4401  1.2409
 1900SOL    HW3 7708   3.588   3.225   2.904 -1.7322  1.8244  0.8514
 1900SOL    MW4 7709   3.584   3.205   2.989  0.4871 -0.0536  0.5393
 1901SOL     OW 7710   3.569   3.454   3.133 -0.1558 -0.1448 -0.0806
 1901SOL    HW2 7711   3.643   3.513   3.119 -0.4125  0.1009 -0.3776
 1901SOL    HW3 7712   3.592   3.376   3.083  0.3941 -0.4770  0.6734
 1901SOL    MW4 7713   3.582   3.451   3.125 -0.1173 -0.1562 -0.0203
 1902SOL     OW 7714   3.780   3.612   3.013  0.2819 -0.0336 -0.1228
 1902SOL    HW2 7715   3.811   3.699   3.040  0.4849  0.6637 -2.4847
 1902SOL    HW3 7716   3.789   3.612   2.917  0.3363 -2.6917 -0.1427
 1902SOL    MW4 7717   3.785   3.624   3.004  0.3159 -0.2923 -0.4370
 1903SOL     OW 7718   3.838   3.855   3.132 -0.1372  0.1482 -0.3047
 1903SOL    HW2 7719   3.830   3.833   3.225 -0.7963 -0.1410 -0.4214
 1903SOL    HW3 7720   3.757   3.903   3.112 -0.6018 -0.8978 -1.0213
 1903SOL    MW4 7721   3.826   3.858   3.141 -0.2856 -0.0281 -0.4148
 1904SOL     OW 7722   3.600   3.998   3.027  0.2042 -0.4756  0.7423
 1904SOL    HW2 7723   3.518   3.952   3.042  0.3078 -0.4329  1.4430
 1904SOL    HW3 7724   3.609   4.000   2.932 -0.9483  0.1305  0.6458
 1904SOL    MW4 7725   3.590   3.992   3.016  0.0658 -0.3903  0.8218
 1905SOL     OW 7726   3.569   4.266   3.099  0.4774 -0.1857 -0.2890
 1905SOL    HW2 7727   3.655   4.307   3.089  0.6550 -0.9317 -2.0315
 1905SOL    HW3 7728   3.584   4.174   3.075 -0.0080 -1.2229  3.0801
 1905SOL    MW4 7729   3.582   4.259   3.095  0.4370 -0.4210 -0.0744
 1906SOL     OW 7730   3.829   4.407   3.064  0.0578 -0.2295  0.0161
 1906SOL    HW2 7731   3.904   4.367   3.109 -0.0251  0.2102  0.5400
 1906SOL    HW3 7732   3.845   4.388   2.972  0.4438 -0.7714  0.1854
 1906SOL    MW4 7733   3.841   4.399   3.058  0.0978 -0.2432  0.1075
 1907SOL     OW 7734   4.242   4.662   3.130 -0.4050  0.0294  0.1928
 1907SOL    HW2 7735   4.242   4.650   3.225  0.0559  0.5495  0.2598
 1907SOL    HW3 7736   4.246   4.573   3.094  1.1082 -0.1102  0.6670
 1907SOL    MW4 7737   4.242   4.649   3.138 -0.1445  0.0792  0.2642
 1908SOL     OW 7738   4.038   0.122   2.986  0.1197  0.0855 -0.3391
 1908SOL    HW2 7739   4.113   0.081   3.029  0.1362  1.2644  0.7792
 1908SOL    HW3 7740   3.962   0.078   3.025  0.1760  0.2095 -0.0870
 1908SOL    MW4 7741   4.038   0.111   2.997  0.1287  0.2574 -0.1583
 1909SOL     OW 7742   4.040   0.384   3.125 -0.4431 -0.3396  0.3580
 1909SOL    HW2 7743   4.104   0.433   3.073  0.4781 -0.3880  1.4285
 1909SOL    HW3 7744   4.036   0.298   3.084  2.0412 -1.1675  1.7179
 1909SOL    MW4 7745   4.048   0.379   3.113  0.0067 -0.4552  0.6785
 1910SOL     OW 7746   4.271   0.517   2.997  0.2762 -0.2878  0.3661
 1910SOL    HW2 7747   4.284   0.599   3.044  2.1121 -0.9647  1.1121
 1910SOL    HW3 7748   4.250   0.544   2.907  0.3940  0.9918  0.7130
 1910SOL    MW4 7749   4.270   0.531   2.991  0.5341 -0.2083  0.5102
 1911SOL     OW 7750   4.270   0.779   3.110 -0.6062 -0.7021  0.0037
 1911SOL    HW2 7751   4.195   0.828   3.077 -0.4237  0.0969  0.7451
 1911SOL    HW3 7752   4.347   0.825   3.074 -0.4789 -1.8214 -1.1686
 1911SOL    MW4 7753   4.271   0.792   3.101 -0.5655 -0.7444 -0.0529
 1912SOL     OW 7754   4.071   0.934   2.995  0.1329  0.1374 -0.2649
 1912SOL    HW2 7755   4.083   1.024   3.025 -1.1541 -0.0066  0.6944
 1912SOL    HW3 7756   4.054   0.942   2.901 -4.0879  1.2537  0.5039
 1912SOL    MW4 7757   4.071   0.947   2.986 -0.5941  0.2657 -0.0370
 1913SOL     OW 7758   4.081   1.206   3.088  0.1117 -0.4012  0.2249
 1913SOL    HW2 7759   4.067   1.186   3.180 -0.2912 -0.2617  0.1935
 1913SOL    HW3 7760   4.002   1.253   3.061  0.9697  1.1040  0.2646
 1913SOL    MW4 7761   4.069   1.210   3.096  0.1717 -0.1843  0.2258
 1914SOL     OW 7762   4.305   1.299   2.979 -0.4168 -0.7320 -0.5302
 1914SOL    HW2 7763   4.224   1.268   3.020  0.2927 -1.2717  0.4765
 1914SOL    HW3 7764   4.281   1.314   2.887 -1.8587 -0.0963 -0.0641
 1914SOL    MW4 7765   4.291   1.297   2.972 -0.5131 -0.7194 -0.3359
 1915SOL     OW 7766   4.288   1.553   3.102 -0.3341  0.4727  0.3550
 1915SOL    HW2 7767   4.213   1.595   3.061 -1.4152 -1.0256  0.7678
 1915SOL    HW3 7768   4.289   1.465   3.065  0.0944 -0.1325  1.7832
 1915SOL    MW4 7769   4.279   1.547   3.092 -0.4201  0.1951  0.5977
 1916SOL     OW 7770   4.053   1.677   2.995  0.5662  0.1842  0.3063
 1916SOL    HW2 7771   4.052   1.766   3.031 -0.4437  0.2010  0.2475
 1916SOL    HW3 7772   3.990   1.629   3.048  1.7628 -0.7458  0.9227
 1916SOL    MW4 7773   4.045   1.683   3.007  0.5913  0.0637  0.3796
 1917SOL     OW 7774   4.072   1.912   3.122 -0.4858  0.6115 -0.3328
 1917SOL    HW2 7775   4.153   1.954   3.091 -0.0459 -0.1045 -0.1647
 1917SOL    HW3 7776   4.003   1.972   3.096  0.0300  0.8231 -1.2331
 1917SOL    MW4 7777   4.074   1.925   3.115 -0.3595  0.5450 -0.4296
 1918SOL     OW 7778   4.294   2.045   3.025  0.2705 -0.0181  0.5903
 1918SOL    HW2 7779   4.280   2.131   3.065 -1.0541 -0.8469  1.9549
 1918SOL    HW3 7780   4.275   2.058   2.932 -1.2770  0.8608  1.0168
 1918SOL    MW4 7781   4.290   2.058   3.018 -0.1082 -0.0117  0.8266
 1919SOL     OW 7782   4.268   2.297   3.137 -0.0818 -0.0763 -0.0017
 1919SOL    HW2 7783   4.191   2.319   3.085 -0.1680 -0.6340 -0.1189
 1919SOL    HW3 7784   4.331   2.367   3.118 -0.4961  0.2823 -0.0429
 1919SOL    MW4 7785   4.266   2.309   3.127 -0.1478 -0.1025 -0.0226
 1920SOL     OW 7786   4.052   2.404   3.019 -0.1587  0.0093 -0.6237
 1920SOL    HW2 7787   4.045   2.486   3.068  1.7869 -1.0351  1.5427
 1920SOL    HW3 7788   3.979   2.351   3.051  0.0038  0.0174 -0.2386
 1920SOL    MW4 7789   4.041   2.408   3.030  0.1202 -0.1273 -0.2868
 1921SOL     OW 7790   4.019   2.663   3.130 -0.0987  0.2251  1.3390
 1921SOL    HW2 7791   4.044   2.665   3.223 -0.6337  0.6224  1.4761
 1921SOL    HW3 7792   3.960   2.737   3.119  0.2739  0.4143  0.5852
 1921SOL    MW4 7793   4.015   2.673   3.141 -0.1197  0.3026  1.2577
 1922SOL     OW 7794   4.218   2.836   3.060 -0.8346 -0.2883 -0.3659
 1922SOL    HW2 7795   4.139   2.782   3.066 -1.0413  0.1379  0.9679
 1922SOL    HW3 7796   4.282   2.791   3.115 -0.8179  0.5051  0.2663
 1922SOL    MW4 7797   4.216   2.823   3.068 -0.8593 -0.1273 -0.1066
 1923SOL     OW 7798   4.241   3.099   3.126 -0.1499 -0.2561  0.0338
 1923SOL    HW2 7799   4.153   3.132   3.109 -0.3077 -0.7685 -0.1670
 1923SOL    HW3 7800   4.235   3.005   3.107 -0.3033 -0.8425  2.7541
 1923SOL    MW4 7801   4.228   3.091   3.121 -0.1903 -0.4013  0.3660
 1924SOL     OW 7802   4.019   3.219   3.015 -0.2487  1.0688 -0.3101
 1924SOL    HW2 7803   4.023   3.312   3.039 -0.3409  1.3059 -1.1930
 1924SOL    HW3 7804   4.020   3.220   2.919  1.4683  0.0961 -0.3249
 1924SOL    MW4 7805   4.020   3.232   3.005 -0.0339  0.9716 -0.4282
 1925SOL     OW 7806   4.023   3.486   3.086  0.0032 -0.3140  0.1931
 1925SOL    HW2 7807   4.025   3.482   3.182 -0.3164 -1.3321  0.1681
 1925SOL    HW3 7808   3.938   3.524   3.065  0.0316 -0.1849  0.3163
 1925SOL    MW4 7809   4.012   3.490   3.096 -0.0358 -0.4313  0.2060
 1926SOL     OW 7810   4.227   3.638   2.992 -0.3087  0.0869 -0.1229
 1926SOL    HW2 7811   4.228   3.725   3.033  0.3495 -0.8121  1.8148
 1926SOL    HW3 7812   4.149   3.595   3.029  0.9306 -1.1441  1.0999
 1926SOL    MW4 7813   4.217   3.644   3.003 -0.0587 -0.1941  0.2942
 1927SOL     OW 7814   4.254   3.870   3.129 -0.3610  0.1987  0.2449
 1927SOL    HW2 7815   4.176   3.908   3.089 -0.4746  0.1543  0.4226
 1927SOL    HW3 7816   4.327   3.918   3.090 -0.3572 -1.2407 -1.5645
 1927SOL    MW4 7817   4.253   3.882   3.119 -0.3757  0.0029  0.0296
 1928SOL     OW 7818   4.034   3.987   2.981  0.1220 -0.1230 -0.5426
 1928SOL    HW2 7819   4.039   4.069   3.031  1.3991  0.0842 -1.0063
 1928SOL    HW3 7820   3.966   3.936   3.026  0.9163  0.2519  1.1419
 1928SOL    MW4 7821   4.026   3.991   2.994  0.3948 -0.0460 -0.3815
 1929SOL     OW 7822   4.051   4.243   3.114 -0.0048  0.2431 -0.0287
 1929SOL    HW2 7823   4.067   4.239   3.209  0.6339  0.1306 -0.1436
 1929SOL    HW3 7824   4.119   4.300   3.080 -0.3692  0.4639 -0.3959
 1929SOL    MW4 7825   4.062   4.250   3.122  0.0310  0.2570 -0.0925
 1930SOL     OW 7826   4.262   4.410   3.040  0.6426 -0.1469  0.2804
 1930SOL    HW2 7827   4.338   4.359   3.068  0.7065  0.1317  0.6214
 1930SOL    HW3 7828   4.268   4.412   2.945  1.8611  1.0929  0.3629
 1930SOL    MW4 7829   4.273   4.404   3.031  0.8116  0.0534  0.3362
 1931SOL     OW 7830   0.191   4.647   3.411 -0.2811 -0.0544  0.0650
 1931SOL    HW2 7831   0.272   4.696   3.425 -0.8522  0.7955  0.4228
 1931SOL    HW3 7832   0.206   4.563   3.455 -0.4324  0.9351  2.0563
 1931SOL    MW4 7833   0.204   4.642   3.418 -0.3764  0.1888  0.3750
 1932SOL     OW 7834   4.473   0.095   3.542 -0.3971  0.4660  0.2309
 1932SOL    HW2 7835   4.475   0.188   3.521  0.1331  0.3758 -0.1090
 1932SOL    HW3 7836   4.551   0.059   3.500 -0.1724  0.0147  1.0265
 1932SOL    MW4 7837   4.483   0.103   3.534 -0.2975  0.3946  0.2909
 1933SOL     OW 7838   4.470   0.365   3.379 -0.8671  0.1288 -0.0256
 1933SOL    HW2 7839   4.392   0.418   3.401 -0.6574  1.4888 -2.4202
 1933SOL    HW3 7840   4.542   0.412   3.421 -0.8268  1.1427 -1.2139
 1933SOL    MW4 7841   4.469   0.379   3.388 -0.8342  0.4421 -0.4983
 1934SOL     OW 7842   0.197   0.488   3.481 -0.7356  0.3630 -0.1620
 1934SOL    HW2 7843   0.278   0.453   3.444 -1.3790  0.5687 -1.7832
 1934SOL    HW3 7844   0.189   0.576   3.445 -0.9686  0.8710  1.0962
 1934SOL    MW4 7845   0.206   0.495   3.472 -0.8512  0.4572 -0.2098
 1935SOL     OW 7846   0.230   0.738   3.375  0.4969 -0.1438 -0.3267
 1935SOL    HW2 7847   0.304   0.795   3.393  0.1523 -0.0569  0.9042
 1935SOL    HW3 7848   0.154   0.786   3.409 -0.1254 -0.2097 -1.6168
 1935SOL    MW4 7849   0.230   0.752   3.382  0.3693 -0.1410 -0.3345
 1936SOL     OW 7850   0.019   0.900   3.489 -1.0683  0.2471 -0.2542
 1936SOL    HW2 7851   0.017   0.886   3.584  0.8321  1.4499 -0.0112
 1936SOL    HW3 7852  -0.008   0.991   3.478 -0.2151  0.4346 -0.7827
 1936SOL    MW4 7853   0.015   0.910   3.500 -0.7050  0.4305 -0.2918
 1937SOL     OW 7854   4.447   1.169   3.378  0.1021 -0.2648  0.1286
 1937SOL    HW2 7855   4.528   1.213   3.406  0.1950  1.0427 -2.1001
 1937SOL    HW3 7856   4.459   1.153   3.285 -1.9833 -0.6193 -0.1008
 1937SOL    MW4 7857   4.459   1.173   3.370 -0.1612 -0.1389 -0.1960
 1938SOL     OW 7858   0.193   1.282   3.477 -0.1562 -0.5427 -0.2198
 1938SOL    HW2 7859   0.263   1.240   3.426 -0.4105 -0.2991 -0.7733
 1938SOL    HW3 7860   0.192   1.373   3.447  0.1703 -0.2211  0.7414
 1938SOL    MW4 7861   0.202   1.288   3.466 -0.1466 -0.4680 -0.1664
 1939SOL     OW 7862   0.203   1.547   3.386 -0.3431 -0.1304  0.0653
 1939SOL    HW2 7863   0.279   1.587   3.428 -1.5995  2.7798 -0.3403
 1939SOL    HW3 7864   0.228   1.539   3.294 -0.2831  0.2503  0.0463
 1939SOL    MW4 7865   0.216   1.551   3.380 -0.5009  0.3039  0.0093
 1940SOL     OW 7866   4.454   1.659   3.502 -0.3198 -0.0666 -0.1873
 1940SOL    HW2 7867   4.375   1.615   3.471 -0.6313 -0.5243  1.2385
 1940SOL    HW3 7868   4.526   1.614   3.458 -0.7723 -0.4417 -0.5442
 1940SOL    MW4 7869   4.453   1.647   3.492 -0.4206 -0.1765 -0.0465
 1941SOL     OW 7870   0.007   1.905   3.400  0.2863 -0.1032 -0.1561
 1941SOL    HW2 7871  -0.013   1.814   3.423 -1.6892  0.1211 -0.8743
 1941SOL    HW3 7872   0.018   1.904   3.305 -0.7853  0.5703 -0.2979
 1941SOL    MW4 7873   0.006   1.893   3.390 -0.1157  0.0151 -0.2694
 1942SOL     OW 7874   0.227   2.068   3.484  0.3095 -0.0882 -0.1371
 1942SOL    HW2 7875   0.215   2.068   3.578  2.1846 -2.5276  0.1784
 1942SOL    HW3 7876   0.149   2.025   3.449 -0.5790  1.1939  0.2359
 1942SOL    MW4 7877   0.215   2.062   3.491  0.4397 -0.2408 -0.0460
 1943SOL     OW 7878   0.192   2.318   3.369 -0.5371 -0.0428  0.1634
 1943SOL    HW2 7879   0.125   2.349   3.429  0.1081  0.3578  0.6754
 1943SOL    HW3 7880   0.204   2.226   3.392  0.5781  0.4164  1.4610
 1943SOL    MW4 7881   0.185   2.310   3.380 -0.3049  0.0706  0.4022
 1944SOL     OW 7882   4.461   2.450   3.501 -0.2284 -0.0668 -0.0547
 1944SOL    HW2 7883   4.453   2.443   3.596  0.8337 -1.1042 -0.0191
 1944SOL    HW3 7884   4.399   2.385   3.466 -0.3465  0.0498 -0.0623
 1944SOL    MW4 7885   4.452   2.440   3.509 -0.1039 -0.1884 -0.0510
 1945SOL     OW 7886   4.483   2.735   3.455 -0.7020 -0.1423  0.0749
 1945SOL    HW2 7887   4.571   2.760   3.484 -0.4021 -0.3413 -0.6543
 1945SOL    HW3 7888   4.479   2.641   3.470 -0.9788 -0.0449  0.6010
 1945SOL    MW4 7889   4.494   2.726   3.461 -0.6989 -0.1557  0.0479
 1946SOL     OW 7890   0.257   2.826   3.527 -0.0664 -0.8048 -0.1001
 1946SOL    HW2 7891   0.315   2.792   3.459 -1.1796 -0.6266 -1.1526
 1946SOL    HW3 7892   0.233   2.913   3.497 -3.0690 -1.9080 -1.0725
 1946SOL    MW4 7893   0.261   2.833   3.514 -0.6095 -0.9270 -0.3669
 1947SOL     OW 7894   0.170   3.061   3.414  0.0963  0.0024 -0.0722
 1947SOL    HW2 7895   0.101   3.121   3.442  1.4681  1.3860  0.4582
 1947SOL    HW3 7896   0.171   3.069   3.318 -0.1665  0.3361 -0.0471
 1947SOL    MW4 7897   0.161   3.070   3.405  0.2426  0.2289  0.0010
 1948SOL     OW 7898   4.484   3.241   3.502 -0.2697 -0.0670 -0.7517
 1948SOL    HW2 7899   4.399   3.207   3.474  0.0700 -0.0412 -1.8706
 1948SOL    HW3 7900   4.493   3.324   3.454  0.1782  0.1552 -0.2815
 1948SOL    MW4 7901   4.474   3.248   3.492 -0.1659 -0.0343 -0.8371
 1949SOL     OW 7902   4.482   3.475   3.371 -0.4047 -0.5505  0.0468
 1949SOL    HW2 7903   4.397   3.506   3.404 -0.8873 -2.0442  0.2517
 1949SOL    HW3 7904   4.477   3.489   3.277 -0.1495  1.0799  0.2717
 1949SOL    MW4 7905   4.470   3.481   3.363 -0.4354 -0.5324  0.1037
 1950SOL     OW 7906   0.197   3.616   3.475 -0.2140 -0.0827 -0.3436
 1950SOL    HW2 7907   0.193   3.629   3.570  1.4204 -0.8337 -0.1622
 1950SOL    HW3 7908   0.118   3.567   3.454 -0.5179 -0.0258  0.6537
 1950SOL    MW4 7909   0.186   3.611   3.485 -0.0384 -0.1745 -0.1881
 1951SOL     OW 7910   0.214   3.870   3.379  0.2578 -0.4743 -0.2996
 1951SOL    HW2 7911   0.137   3.923   3.396  1.7584  1.4807  0.5806
 1951SOL    HW3 7912   0.195   3.786   3.421 -1.1326  0.1882  0.4205
 1951SOL    MW4 7913   0.202   3.866   3.387  0.2723 -0.1290 -0.0887
 1952SOL     OW 7914   0.004   4.011   3.485  0.5844 -0.3501 -0.5207
 1952SOL    HW2 7915   0.013   4.008   3.580 -0.6397 -1.5737 -0.4344
 1952SOL    HW3 7916   0.000   4.105   3.464  0.4599 -0.0859  0.6673
 1952SOL    MW4 7917   0.005   4.023   3.495  0.4058 -0.4768 -0.3526
 1953SOL     OW 7918   4.473   4.266   3.378  0.2001  0.0717 -0.1142
 1953SOL    HW2 7919   4.398   4.314   3.413  0.5832  0.9444 -0.4903
 1953SOL    HW3 7920   4.549   4.307   3.420  0.6561  0.9927 -1.7979
 1953SOL    MW4 7921   4.473   4.278   3.388  0.3104  0.3090 -0.3858
 1954SOL     OW 7922   0.206   4.391   3.486  0.2823 -0.1443 -0.0170
 1954SOL    HW2 7923   0.209   4.374   3.580 -0.7929 -0.5540 -0.0561
 1954SOL    HW3 7924   0.281   4.344   3.451 -0.5240 -1.7372  0.3654
 1954SOL    MW4 7925   0.216   4.383   3.494  0.0341 -0.4086  0.0286
 1955SOL     OW 7926   0.644   4.651   3.392 -0.1448  0.5363 -0.0536
 1955SOL    HW2 7927   0.716   4.697   3.434 -0.2712  0.3280  0.3933
 1955SOL    HW3 7928   0.654   4.671   3.299  1.3451 -0.6873 -0.1684
 1955SOL    MW4 7929   0.654   4.660   3.385  0.0351  0.3476 -0.0100
 1956SOL     OW 7930   0.412   0.112   3.477 -0.3149  0.3610 -0.4566
 1956SOL    HW2 7931   0.386   0.118   3.568 -0.9622 -0.1171 -0.6087
 1956SOL    HW3 7932   0.492   0.059   3.478 -0.1461  0.6201 -0.1404
 1956SOL    MW4 7933   0.419   0.106   3.489 -0.3780  0.3321 -0.4349
 1957SOL     OW 7934   0.436   0.361   3.356  0.1510 -0.2309 -0.1383
 1957SOL    HW2 7935   0.504   0.407   3.406 -1.0251  1.0245  0.3254
 1957SOL    HW3 7936   0.442   0.271   3.387  0.2865  0.2726  1.3502
 1957SOL    MW4 7937   0.446   0.355   3.367  0.0137  0.0012  0.1194
 1958SOL     OW 7938   0.644   0.508   3.484 -0.2220  0.1496 -0.4515
 1958SOL    HW2 7939   0.641   0.511   3.580 -0.1084  0.7678 -0.4663
 1958SOL    HW3 7940   0.727   0.466   3.464 -0.0963  0.3149 -0.2802
 1958SOL    MW4 7941   0.654   0.503   3.494 -0.1904  0.2530 -0.4308
 1959SOL     OW 7942   0.680   0.777   3.361 -0.1852 -0.2136  0.5900
 1959SOL    HW2 7943   0.590   0.799   3.383 -0.4001 -0.0831 -0.4023
 1959SOL    HW3 7944   0.694   0.690   3.398 -1.2513 -0.9471 -0.6852
 1959SOL    MW4 7945   0.670   0.769   3.369 -0.3541 -0.2931  0.2911
 1960SOL     OW 7946   0.453   0.889   3.451  0.1562 -0.2825  0.6523
 1960SOL    HW2 7947   0.461   0.916   3.543 -2.1229  1.1347  0.4782
 1960SOL    HW3 7948   0.455   0.971   3.402 -0.9055 -0.8663 -0.3834
 1960SOL    MW4 7949   0.454   0.904   3.457 -0.2846 -0.1726  0.4926
 1961SOL     OW 7950   0.435   1.163   3.358  0.3614 -0.6273 -0.1292
 1961SOL    HW2 7951   0.502   1.195   3.418 -1.5327 -0.7393  2.1314
 1961SOL    HW3 7952   0.473   1.173   3.271  3.2143 -0.5363  1.0853
 1961SOL    MW4 7953   0.449   1.168   3.355  0.4879 -0.6300  0.3293
 1962SOL     OW 7954   0.667   1.277   3.473  0.0785 -0.0159  0.4612
 1962SOL    HW2 7955   0.735   1.222   3.433  0.8111  0.3314  1.2164
 1962SOL    HW3 7956   0.690   1.366   3.447  0.9542  0.2904  2.1698
 1962SOL    MW4 7957   0.679   1.281   3.464  0.2907  0.0703  0.7858
 1963SOL     OW 7958   0.681   1.559   3.383  0.1414  0.3334 -0.2787
 1963SOL    HW2 7959   0.748   1.599   3.437  0.5050 -2.1449  1.1969
 1963SOL    HW3 7960   0.598   1.589   3.421  0.4079 -0.0652  0.6250
 1963SOL    MW4 7961   0.679   1.568   3.395  0.2245 -0.0460  0.0350
 1964SOL     OW 7962   0.446   1.645   3.494 -0.1671 -0.3490 -0.1579
 1964SOL    HW2 7963   0.436   1.654   3.589 -0.2185  1.1772 -0.2843
 1964SOL    HW3 7964   0.452   1.736   3.463  0.2300 -0.8544 -1.5688
 1964SOL    MW4 7965   0.445   1.658   3.502 -0.1215 -0.2143 -0.3605
 1965SOL     OW 7966   0.447   1.913   3.415 -0.3037 -0.3185  0.2049
 1965SOL    HW2 7967   0.366   1.959   3.438 -0.7241 -1.3199  0.7519
 1965SOL    HW3 7968   0.454   1.925   3.320 -0.9322  0.0324  0.1959
 1965SOL    MW4 7969   0.437   1.920   3.405 -0.4421 -0.4044  0.2759
 1966SOL     OW 7970   0.696   2.029   3.488  0.0423  0.5626  0.4266
 1966SOL    HW2 7971   0.706   2.053   3.580 -0.6916  0.1137  0.6297
 1966SOL    HW3 7972   0.606   1.996   3.482  0.3828 -0.2484 -0.2583
 1966SOL    MW4 7973   0.685   2.028   3.500 -0.0095  0.3965  0.3629
 1967SOL     OW 7974   0.658   2.279   3.376 -0.4175  0.2838  0.4025
 1967SOL    HW2 7975   0.725   2.319   3.431 -1.1588 -0.0947  1.5993
 1967SOL    HW3 7976   0.656   2.187   3.403 -0.4897 -0.0068 -0.5659
 1967SOL    MW4 7977   0.666   2.272   3.387 -0.5249  0.1960  0.4325
 1968SOL     OW 7978   0.464   2.426   3.486 -0.0245  0.1251  0.0141
 1968SOL    HW2 7979   0.523   2.374   3.432  0.1687 -0.0976  0.4367
 1968SOL    HW3 7980   0.378   2.386   3.473  0.1659 -0.4747  0.5405
 1968SOL    MW4 7981   0.460   2.414   3.477  0.0262  0.0165  0.1390
 1969SOL     OW 7982   0.471   2.688   3.376  0.0660  0.4291  0.1094
 1969SOL    HW2 7983   0.477   2.601   3.418  2.3218  0.8582  0.7599
 1969SOL    HW3 7984   0.456   2.669   3.284  0.0191 -0.6597  0.3338
 1969SOL    MW4 7985   0.470   2.674   3.369  0.3574  0.3424  0.2248
 1970SOL     OW 7986   0.690   2.836   3.448  0.0027  0.0264 -0.0426
 1970SOL    HW2 7987   0.760   2.782   3.410 -0.0807  0.5223 -0.9081
 1970SOL    HW3 7988   0.609   2.793   3.421 -0.0443  0.0352  0.0845
 1970SOL    MW4 7989   0.688   2.823   3.440 -0.0145  0.0930 -0.1400
 1971SOL     OW 7990   0.662   3.101   3.386 -0.4226  0.4917 -0.4025
 1971SOL    HW2 7991   0.576   3.138   3.407  0.0052  0.5920  1.2886
 1971SOL    HW3 7992   0.656   3.009   3.411 -0.2829  0.3066 -1.0374
 1971SOL    MW4 7993   0.650   3.094   3.392 -0.3477  0.4809 -0.2632
 1972SOL     OW 7994   0.404   3.221   3.479  0.0075 -0.0739 -0.1142
 1972SOL    HW2 7995   0.414   3.230   3.574 -1.5285  0.7740 -0.0254
 1972SOL    HW3 7996   0.324   3.170   3.468 -0.1324  0.3175 -0.9570
 1972SOL    MW4 7997   0.395   3.216   3.490 -0.2136  0.0894 -0.2136
 1973SOL     OW 7998   0.406   3.492   3.366 -0.4372 -0.0077 -0.1343
 1973SOL    HW2 7999   0.379   3.401   3.382  0.9933 -0.1199  1.8439
 1973SOL    HW3 8000   0.344   3.544   3.415  0.3303 -0.0687  0.9292
 1973SOL    MW4 8001   0.395   3.487   3.375 -0.1472 -0.0305  0.2668
 1974SOL     OW 8002   0.639   3.618   3.447 -0.3226  0.8725  0.7923
 1974SOL    HW2 8003   0.717   3.573   3.417  0.0036  0.8729  1.6057
 1974SOL    HW3 8004   0.566   3.564   3.418 -0.0595  1.2607 -0.6228
 1974SOL    MW4 8005   0.639   3.605   3.440 -0.2448  0.9236  0.7131
 1975SOL     OW 8006   0.661   3.903   3.376 -0.1489 -0.2587  0.2475
 1975SOL    HW2 8007   0.589   3.952   3.415  0.1101 -0.7837  1.4053
 1975SOL    HW3 8008   0.644   3.812   3.398 -0.0910 -0.5927 -1.0357
 1975SOL    MW4 8009   0.649   3.897   3.384 -0.1070 -0.3719  0.2310
 1976SOL     OW 8010   0.432   4.005   3.478 -0.7243 -0.2481 -0.1018
 1976SOL    HW2 8011   0.417   4.089   3.434  0.2167 -0.4782 -0.8879
 1976SOL    HW3 8012   0.370   3.945   3.437  1.4044 -0.9108 -2.4842
 1976SOL    MW4 8013   0.422   4.008   3.467 -0.3192 -0.3653 -0.5200
 1977SOL     OW 8014   0.435   4.283   3.347  0.0621 -0.0198  0.9341
 1977SOL    HW2 8015   0.515   4.312   3.389  1.3324 -1.1940 -0.5856
 1977SOL    HW3 8016   0.443   4.312   3.256 -0.3613 -1.7389  0.3161
 1977SOL    MW4 8017   0.446   4.291   3.341  0.1738 -0.4015  0.6521
 1978SOL     OW 8018   0.641   4.384   3.481 -0.1524 -0.7339 -0.3075
 1978SOL    HW2 8019   0.725   4.350   3.450 -0.0673 -0.8656  0.0633
 1978SOL    HW3 8020   0.639   4.475   3.452  0.3895 -0.5511  0.2191
 1978SOL    MW4 8021   0.652   4.391   3.473 -0.0696 -0.7277 -0.1891
 1979SOL     OW 8022   1.052   4.627   3.409  0.5026  0.4054  0.2334
 1979SOL    HW2 8023   1.120   4.687   3.439  1.8160 -1.2447  0.5839
 1979SOL    HW3 8024   1.066   4.619   3.314  0.7285  0.1456  0.2891
 1979SOL    MW4 8025   1.063   4.634   3.400  0.7056  0.1531  0.2868
 1980SOL     OW 8026   0.870   0.152   3.466  0.4316 -0.3186 -0.1359
 1980SOL    HW2 8027   0.866   0.140   3.560  0.7385  0.0708 -0.0731
 1980SOL    HW3 8028   0.922   0.078   3.435 -0.2985 -0.8562 -0.0809
 1980SOL    MW4 8029   0.877   0.141   3.474  0.3758 -0.3382 -0.1204
 1981SOL     OW 8030   0.888   0.416   3.412  0.5123 -0.4774 -0.3627
 1981SOL    HW2 8031   0.971   0.445   3.450  0.7334 -0.3480 -0.9462
 1981SOL    HW3 8032   0.872   0.330   3.452  1.2166 -0.7604 -0.6749
 1981SOL    MW4 8033   0.896   0.408   3.422  0.6344 -0.4976 -0.4809
 1982SOL     OW 8034   1.132   0.493   3.534  0.2839  0.1726 -0.1252
 1982SOL    HW2 8035   1.133   0.499   3.630 -1.0548  1.1501 -0.1645
 1982SOL    HW3 8036   1.132   0.584   3.505  0.2172 -0.1246 -1.0590
 1982SOL    MW4 8037   1.132   0.506   3.543  0.0985  0.2623 -0.2537
 1983SOL     OW 8038   1.131   0.749   3.384  0.4544  0.1355  0.3862
 1983SOL    HW2 8039   1.203   0.801   3.420  0.9331 -0.3392  0.1187
 1983SOL    HW3 8040   1.053   0.800   3.403  0.8880  0.7826  0.4417
 1983SOL    MW4 8041   1.131   0.762   3.391  0.5748  0.1583  0.3581
 1984SOL     OW 8042   0.914   0.902   3.450  0.3321 -0.0252  0.1598
 1984SOL    HW2 8043   0.913   0.969   3.381 -0.7489 -2.0799 -1.9144
 1984SOL    HW3 8044   0.828   0.860   3.443  1.3656 -2.3076  0.6910
 1984SOL    MW4 8045   0.903   0.905   3.440  0.3258 -0.5974 -0.0441
 1985SOL     OW 8046   0.881   1.148   3.320 -0.1207 -0.6520 -0.1160
 1985SOL    HW2 8047   0.960   1.182   3.363 -0.6397 -0.4393  0.6800
 1985SOL    HW3 8048   0.886   1.183   3.231 -0.3918  1.1137  0.5411
 1985SOL    MW4 8049   0.892   1.157   3.314 -0.2249 -0.3910  0.0761
 1986SOL     OW 8050   1.110   1.283   3.459 -0.1131 -0.1224 -0.1970
 1986SOL    HW2 8051   1.124   1.274   3.553  2.2607 -1.7529 -0.6546
 1986SOL    HW3 8052   1.122   1.376   3.441  0.5205  0.0283  0.9762
 1986SOL    MW4 8053   1.114   1.294   3.469  0.2837 -0.3177 -0.1025
 1987SOL     OW 8054   1.138   1.572   3.402  0.1939  0.0234 -0.4158
 1987SOL    HW2 8055   1.228   1.594   3.427  0.5943 -0.8873 -1.0093
 1987SOL    HW3 8056   1.140   1.570   3.306 -0.7665  1.2202 -0.4777
 1987SOL    MW4 8057   1.150   1.574   3.392  0.1200  0.0610 -0.5021
 1988SOL     OW 8058   0.914   1.703   3.477  0.5881  0.3317  0.2135
 1988SOL    HW2 8059   0.924   1.783   3.425 -0.9470 -0.4896 -1.3971
 1988SOL    HW3 8060   0.990   1.650   3.453  1.5723  1.2450  1.2273
 1988SOL    MW4 8061   0.925   1.707   3.467  0.5154  0.3439  0.1347
 1989SOL     OW 8062   0.902   1.936   3.338 -0.2182 -0.6496  0.2787
 1989SOL    HW2 8063   0.975   1.974   3.387  0.7470 -0.5075 -1.2240
 1989SOL    HW3 8064   0.823   1.965   3.385  0.6547 -0.2384  1.5241
 1989SOL    MW4 8065   0.901   1.945   3.351  0.0243 -0.5766  0.2449
 1990SOL     OW 8066   1.126   2.012   3.491  0.2523 -0.5115  0.7526
 1990SOL    HW2 8067   1.193   1.966   3.440  1.7674  1.1032  1.2155
 1990SOL    HW3 8068   1.135   2.103   3.463 -0.2185  0.0795  2.4872
 1990SOL    MW4 8069   1.136   2.018   3.480  0.3902 -0.2203  1.0426
 1991SOL     OW 8070   1.104   2.274   3.381  0.0268  0.2386  0.1759
 1991SOL    HW2 8071   1.178   2.332   3.397  0.0236  0.5524 -0.9435
 1991SOL    HW3 8072   1.098   2.267   3.286 -1.6975  0.6314  0.2341
 1991SOL    MW4 8073   1.113   2.280   3.371 -0.2012  0.3316  0.0358
 1992SOL     OW 8074   0.875   2.413   3.481  0.0763  0.3044 -0.7571
 1992SOL    HW2 8075   0.898   2.423   3.574  0.4745 -1.1581 -0.6789
 1992SOL    HW3 8076   0.947   2.361   3.445 -0.4766  0.1956 -1.7093
 1992SOL    MW4 8077   0.888   2.407   3.489  0.0559  0.0970 -0.8724
 1993SOL     OW 8078   0.902   2.655   3.345 -0.4839 -0.2228 -0.2790
 1993SOL    HW2 8079   0.961   2.695   3.409 -1.2880 -0.8663  0.8902
 1993SOL    HW3 8080   0.889   2.566   3.378 -0.6356 -0.6751 -1.5419
 1993SOL    MW4 8081   0.908   2.649   3.358 -0.6099 -0.3674 -0.2916
 1994SOL     OW 8082   1.114   2.791   3.499  0.2681  0.3733  0.1503
 1994SOL    HW2 8083   1.129   2.792   3.593 -0.0978 -2.1604  0.2499
 1994SOL    HW3 8084   1.189   2.745   3.462 -1.1075 -1.4408 -0.4715
 1994SOL    MW4 8085   1.126   2.785   3.506  0.0384 -0.2003  0.0815
 1995SOL     OW 8086   1.096   3.064   3.443 -0.6260  0.2396  0.1194
 1995SOL    HW2 8087   1.118   2.972   3.456 -0.3783  0.1675 -0.7729
 1995SOL    HW3 8088   1.104   3.077   3.349  2.0824  1.8727  0.5245
 1995SOL    MW4 8089   1.100   3.053   3.433 -0.2358  0.4456  0.0551
 1996SOL     OW 8090   0.878   3.234   3.476 -0.2024 -0.4341 -0.4864
 1996SOL    HW2 8091   0.947   3.170   3.459 -0.1606 -1.2305  2.4306
 1996SOL    HW3 8092   0.798   3.192   3.446  0.3105 -0.3503 -1.9811
 1996SOL    MW4 8093   0.876   3.220   3.470 -0.1292 -0.5276 -0.2987
 1997SOL     OW 8094   0.863   3.496   3.356 -0.1984  0.1031  0.0581
 1997SOL    HW2 8095   0.873   3.407   3.391  3.8826  0.6582  0.5951
 1997SOL    HW3 8096   0.875   3.486   3.261 -0.1684  0.0234  0.0701
 1997SOL    MW4 8097   0.866   3.483   3.348  0.3440  0.1657  0.1304
 1998SOL     OW 8098   1.084   3.611   3.480 -0.3532 -0.5851  0.1400
 1998SOL    HW2 8099   1.076   3.622   3.575 -2.2316 -0.6523  0.0196
 1998SOL    HW3 8100   1.008   3.558   3.456  0.5897 -1.3246 -1.2925
 1998SOL    MW4 8101   1.073   3.606   3.489 -0.4767 -0.6917 -0.0648
 1999SOL     OW 8102   1.107   3.899   3.463  0.0040  0.0937 -0.3358
 1999SOL    HW2 8103   1.199   3.925   3.472  0.3534 -1.0901 -0.4421
 1999SOL    HW3 8104   1.109   3.804   3.460 -1.3875 -0.0395  1.6915
 1999SOL    MW4 8105   1.120   3.890   3.464 -0.1334 -0.0801 -0.0825
 2000SOL     OW 8106   0.879   4.043   3.520  0.2049 -0.3106 -0.0366
 2000SOL    HW2 8107   0.962   3.996   3.507  0.6832  0.4203  0.3728
 2000SOL    HW3 8108   0.814   3.989   3.475  0.7503 -1.3771  0.4202
 2000SOL    MW4 8109   0.881   4.030   3.513  0.3399 -0.3552  0.0780
 2001SOL     OW 8110   0.885   4.278   3.376  0.0910  0.0423  0.4517
 2001SOL    HW2 8111   0.891   4.190   3.413  2.3129  0.5572  1.3746
 2001SOL    HW3 8112   0.889   4.265   3.281 -0.4111 -0.9011  0.5547
 2001SOL    MW4 8113   0.886   4.265   3.369  0.3179 -0.0148  0.5872
 2002SOL     OW 8114   1.093   4.376   3.527 -0.1054  0.0525  0.2643
 2002SOL    HW2 8115   1.012   4.339   3.491  0.7821 -0.0540 -1.7189
 2002SOL    HW3 8116   1.095   4.466   3.494  0.0370  0.4187  1.2456
 2002SOL    MW4 8117   1.083   4.383   3.518  0.0305  0.0868  0.1321
 2003SOL     OW 8118   1.492   4.659   3.411 -0.4548  0.0887  0.3518
 2003SOL    HW2 8119   1.504   4.574   3.453 -0.7282  0.0298  0.3175
 2003SOL    HW3 8120   1.412   4.694   3.451 -0.9749 -0.1722 -0.4464
 2003SOL    MW4 8121   1.483   4.653   3.422 -0.5596  0.0465  0.2418
 2004SOL     OW 8122   1.261   0.114   3.501  0.2473  0.2750 -0.1607
 2004SOL    HW2 8123   1.278   0.119   3.595  1.4228 -0.1676 -0.3315
 2004SOL    HW3 8124   1.288   0.199   3.467  1.2962 -0.1004 -0.2996
 2004SOL    MW4 8125   1.267   0.126   3.509  0.5406  0.1671 -0.2015
 2005SOL     OW 8126   1.335   0.353   3.394  0.0393 -0.1812  0.6101
 2005SOL    HW2 8127   1.420   0.381   3.428  0.2151 -0.8441  0.7245
 2005SOL    HW3 8128   1.272   0.411   3.438  0.3387 -0.4449  1.4050
 2005SOL    MW4 8129   1.337   0.365   3.404  0.1020 -0.3034  0.7300
 2006SOL     OW 8130   1.551   0.477   3.523 -0.2043 -0.1791  0.3268
 2006SOL    HW2 8131   1.557   0.480   3.618  0.0013  0.1446  0.3038
 2006SOL    HW3 8132   1.639   0.455   3.493  0.2266  1.7269  0.1252
 2006SOL    MW4 8133   1.563   0.475   3.531 -0.1204  0.1151  0.2971
 2007SOL     OW 8134   1.575   0.722   3.404  0.4216 -0.4037  0.0195
 2007SOL    HW2 8135   1.505   0.785   3.424 -1.8356 -1.9476 -2.6970
 2007SOL    HW3 8136   1.550   0.644   3.453  2.3947  0.2496  2.1486
 2007SOL    MW4 8137   1.562   0.720   3.413  0.3841 -0.5212 -0.0582
 2008SOL     OW 8138   1.355   0.884   3.477  0.7577 -0.4587 -0.1544
 2008SOL    HW2 8139   1.346   0.897   3.571 -1.3513 -0.4748 -0.3373
 2008SOL    HW3 8140   1.357   0.973   3.441 -0.6303 -0.4628 -0.2694
 2008SOL    MW4 8141   1.354   0.898   3.484  0.2964 -0.4614 -0.1934
 2009SOL     OW 8142   1.334   1.137   3.368  0.6478  0.1345 -0.1190
 2009SOL    HW2 8143   1.409   1.190   3.393 -0.7880  1.7107  0.9505
 2009SOL    HW3 8144   1.258   1.184   3.403 -0.6357 -2.8952  1.4631
 2009SOL    MW4 8145   1.334   1.150   3.376  0.2890 -0.0572  0.2308
 2010SOL     OW 8146   1.557   1.288   3.463 -0.3891  0.4812 -0.6244
 2010SOL    HW2 8147   1.557   1.283   3.559  0.6888 -0.3823 -0.6658
 2010SOL    HW3 8148   1.644   1.257   3.437 -0.4079  1.4211 -1.8504
 2010SOL    MW4 8149   1.568   1.284   3.472 -0.2494  0.4911 -0.7913
 2011SOL     OW 8150   1.623   1.529   3.359  0.1126 -0.1365 -0.3612
 2011SOL    HW2 8151   1.598   1.445   3.397  3.5166 -1.6740 -1.3053
 2011SOL    HW3 8152   1.601   1.522   3.267  1.0412 -0.2729 -0.5773
 2011SOL    MW4 8153   1.617   1.517   3.352  0.6843 -0.3573 -0.5145
 2012SOL     OW 8154   1.396   1.647   3.452  0.0793 -0.0212 -0.5755
 2012SOL    HW2 8155   1.407   1.627   3.545 -1.1966  1.0737 -0.1807
 2012SOL    HW3 8156   1.474   1.610   3.411  1.5450  1.0536  1.1659
 2012SOL    MW4 8157   1.408   1.639   3.459  0.1044  0.2650 -0.2935
 2013SOL     OW 8158   1.347   1.908   3.351 -0.1150 -0.2886  0.0469
 2013SOL    HW2 8159   1.409   1.969   3.390 -1.4737  1.0463  0.1934
 2013SOL    HW3 8160   1.367   1.824   3.392  1.6305  0.0928  0.0224
 2013SOL    MW4 8161   1.358   1.905   3.361 -0.0639 -0.0621  0.0632
 2014SOL     OW 8162   1.580   2.030   3.488  0.2200  0.2654 -0.0517
 2014SOL    HW2 8163   1.656   1.978   3.462  0.8869  0.7715  0.8545
 2014SOL    HW3 8164   1.588   2.112   3.439  0.5903  0.5584  0.4889
 2014SOL    MW4 8165   1.591   2.034   3.478  0.3570  0.3707  0.1390
 2015SOL     OW 8166   1.554   2.300   3.364  0.2377  0.1638  0.4308
 2015SOL    HW2 8167   1.467   2.337   3.383  0.2277 -0.3142  1.3422
 2015SOL    HW3 8168   1.564   2.310   3.270 -0.5724  0.7471  0.4008
 2015SOL    MW4 8169   1.544   2.306   3.354  0.1296  0.1776  0.5469
 2016SOL     OW 8170   1.330   2.417   3.455  0.4651 -0.1781 -0.3608
 2016SOL    HW2 8171   1.333   2.421   3.551  1.4085 -1.0343 -0.3458
 2016SOL    HW3 8172   1.331   2.509   3.428 -1.0733  0.1026  0.4707
 2016SOL    MW4 8173   1.331   2.430   3.464  0.3866 -0.2539 -0.2491
 2017SOL     OW 8174   1.359   2.696   3.407  0.1059  0.2791 -0.1121
 2017SOL    HW2 8175   1.443   2.730   3.438 -0.7426  1.1694  1.2847
 2017SOL    HW3 8176   1.370   2.688   3.312  1.5051  1.1140 -0.0450
 2017SOL    MW4 8177   1.372   2.699   3.399  0.1785  0.5066  0.0808
 2018SOL     OW 8178   1.599   2.794   3.484 -0.4146 -0.0492 -0.2150
 2018SOL    HW2 8179   1.678   2.752   3.450 -1.3611 -0.9860 -1.3254
 2018SOL    HW3 8180   1.598   2.880   3.442 -0.8314 -0.6603 -1.4896
 2018SOL    MW4 8181   1.609   2.800   3.474 -0.5944 -0.2537 -0.5298
 2019SOL     OW 8182   1.589   3.041   3.379  0.0709 -0.0601 -0.4534
 2019SOL    HW2 8183   1.666   3.073   3.426  0.0890 -0.1890 -0.3930
 2019SOL    HW3 8184   1.515   3.089   3.416 -0.1403 -1.4664  0.9850
 2019SOL    MW4 8185   1.589   3.052   3.390  0.0454 -0.2625 -0.2558
 2020SOL     OW 8186   1.345   3.206   3.511 -0.0762  0.0460 -0.0042
 2020SOL    HW2 8187   1.351   3.221   3.606  0.3050 -1.6795  0.2575
 2020SOL    HW3 8188   1.259   3.165   3.498 -0.9720  2.0532 -0.6743
 2020SOL    MW4 8189   1.334   3.203   3.522 -0.1440  0.0834 -0.0582
 2021SOL     OW 8190   1.326   3.458   3.402 -0.2627 -0.6448 -0.3395
 2021SOL    HW2 8191   1.334   3.369   3.437  0.3501 -0.3171  0.3615
 2021SOL    HW3 8192   1.237   3.485   3.426  0.1690 -0.3968  1.0634
 2021SOL    MW4 8193   1.315   3.450   3.410 -0.1248 -0.5689 -0.0620
 2022SOL     OW 8194   1.553   3.608   3.496  0.3236  0.6989  0.0247
 2022SOL    HW2 8195   1.548   3.604   3.591  0.2556  0.8097  0.0258
 2022SOL    HW3 8196   1.471   3.570   3.466  0.9507 -0.6857 -0.0162
 2022SOL    MW4 8197   1.542   3.602   3.505  0.3973  0.5307  0.0191
 2023SOL     OW 8198   1.546   3.855   3.389 -0.2318  0.6857 -0.0207
 2023SOL    HW2 8199   1.557   3.764   3.418  0.8362  0.8410  0.0608
 2023SOL    HW3 8200   1.560   3.850   3.294 -2.1058  0.4504 -0.3075
 2023SOL    MW4 8201   1.549   3.842   3.380 -0.3382  0.6750 -0.0477
 2024SOL     OW 8202   1.349   4.011   3.521 -0.3219 -0.2477 -0.4100
 2024SOL    HW2 8203   1.372   4.092   3.476  0.3726 -0.0765  0.2323
 2024SOL    HW3 8204   1.422   3.952   3.502 -0.1056 -0.2273  0.3552
 2024SOL    MW4 8205   1.362   4.014   3.512 -0.2017 -0.2232 -0.2244
 2025SOL     OW 8206   1.344   4.257   3.424 -0.3571 -0.5852 -0.2449
 2025SOL    HW2 8207   1.264   4.293   3.463  0.2473 -0.6357  1.0647
 2025SOL    HW3 8208   1.328   4.261   3.329 -2.9227 -2.9635  0.0347
 2025SOL    MW4 8209   1.331   4.263   3.416 -0.6158 -0.9060 -0.0353
 2026SOL     OW 8210   1.564   4.401   3.503  0.4088 -0.2155 -0.2621
 2026SOL    HW2 8211   1.631   4.339   3.472  0.5306  0.2849 -1.0263
 2026SOL    HW3 8212   1.481   4.354   3.490  0.6517 -1.0976  1.3285
 2026SOL    MW4 8213   1.562   4.386   3.497  0.4569 -0.2661 -0.1531
 2027SOL     OW 8214   1.968   4.626   3.327  0.7018  0.5357 -0.4399
 2027SOL    HW2 8215   2.042   4.679   3.358 -0.0003  1.4261 -0.2714
 2027SOL    HW3 8216   1.895   4.650   3.384  0.3550 -0.5806 -0.3999
 2027SOL    MW4 8217   1.968   4.636   3.338  0.5634  0.5059 -0.4125
 2028SOL     OW 8218   1.752   0.097   3.473  0.1192  0.1392  0.1663
 2028SOL    HW2 8219   1.745   0.085   3.567 -0.7031 -2.4254 -0.1923
 2028SOL    HW3 8220   1.668   0.066   3.439 -0.4024  2.9088 -1.2846
 2028SOL    MW4 8221   1.740   0.092   3.481 -0.0581  0.1662 -0.0722
 2029SOL     OW 8222   1.812   0.370   3.413  0.0948  0.4992  0.1096
 2029SOL    HW2 8223   1.786   0.285   3.448 -1.6817  0.7031 -0.6319
 2029SOL    HW3 8224   1.792   0.365   3.320  1.7900  1.0685 -0.3031
 2029SOL    MW4 8225   1.806   0.358   3.406  0.0840  0.6012 -0.0427
 2030SOL     OW 8226   2.044   0.502   3.485 -0.4702 -0.1007 -0.0688
 2030SOL    HW2 8227   2.030   0.589   3.447 -0.1209 -0.2822 -0.6158
 2030SOL    HW3 8228   1.966   0.452   3.459 -0.3594 -0.1450 -0.3181
 2030SOL    MW4 8229   2.032   0.507   3.476 -0.4094 -0.1305 -0.1740
 2031SOL     OW 8230   2.040   0.764   3.397  0.1735  0.1201 -0.5331
 2031SOL    HW2 8231   2.116   0.809   3.435  0.4328 -0.7712  0.0327
 2031SOL    HW3 8232   2.055   0.766   3.303 -0.6264  2.6460 -0.6283
 2031SOL    MW4 8233   2.052   0.770   3.390  0.1020  0.3358 -0.4709
 2032SOL     OW 8234   1.798   0.882   3.461  0.2069 -0.0003 -0.1450
 2032SOL    HW2 8235   1.880   0.835   3.447  0.3137  0.1800 -0.1281
 2032SOL    HW3 8236   1.730   0.815   3.450  0.4040 -0.3934  0.9442
 2032SOL    MW4 8237   1.800   0.867   3.458  0.2470 -0.0284  0.0012
 2033SOL     OW 8238   1.782   1.135   3.372 -0.2727 -0.1354  0.1604
 2033SOL    HW2 8239   1.876   1.139   3.392 -0.2039 -1.6741  0.1840
 2033SOL    HW3 8240   1.757   1.046   3.393 -1.6047  0.0742 -0.5050
 2033SOL    MW4 8241   1.791   1.124   3.377 -0.4394 -0.3108  0.0756
 2034SOL     OW 8242   2.056   1.219   3.439  0.4779  0.2355 -0.4792
 2034SOL    HW2 8243   2.051   1.212   3.535 -0.1145 -1.0693 -0.6063
 2034SOL    HW3 8244   2.066   1.313   3.423  0.2590  0.4965  0.8514
 2034SOL    MW4 8245   2.057   1.231   3.450  0.3712  0.0978 -0.3204
 2035SOL     OW 8246   2.037   1.502   3.377  0.2567  0.1199  0.2109
 2035SOL    HW2 8247   2.112   1.553   3.409 -0.0062  1.0896 -0.6783
 2035SOL    HW3 8248   1.961   1.549   3.412  0.0116  0.3696 -0.6398
 2035SOL    MW4 8249   2.037   1.515   3.386  0.1898  0.2809 -0.0186
 2036SOL     OW 8250   1.820   1.660   3.495  0.0372  0.2506 -0.4845
 2036SOL    HW2 8251   1.823   1.751   3.465 -0.4034  0.8264  1.1861
 2036SOL    HW3 8252   1.759   1.617   3.435 -0.2563  1.2089 -0.8756
 2036SOL    MW4 8253   1.812   1.666   3.483 -0.0596  0.4530 -0.3159
 2037SOL     OW 8254   1.810   1.911   3.399 -0.2024 -0.0729  0.0434
 2037SOL    HW2 8255   1.886   1.954   3.437 -0.0682 -2.4052  2.5915
 2037SOL    HW3 8256   1.825   1.914   3.304  2.6359  0.2238  0.4659
 2037SOL    MW4 8257   1.822   1.917   3.391  0.1897 -0.3415  0.4354
 2038SOL     OW 8258   2.020   2.046   3.507  0.3909  0.2497 -0.3478
 2038SOL    HW2 8259   2.103   2.012   3.474  1.8251  2.5304  0.7928
 2038SOL    HW3 8260   2.015   2.135   3.474 -1.4689  0.2438 -0.1410
 2038SOL    MW4 8261   2.030   2.053   3.498  0.3345  0.5498 -0.1700
 2039SOL     OW 8262   2.005   2.288   3.400 -0.2585  0.0940 -0.3954
 2039SOL    HW2 8263   2.093   2.320   3.422 -0.1520 -0.4111 -0.0734
 2039SOL    HW3 8264   2.009   2.271   3.306  0.4019 -1.1951 -0.1411
 2039SOL    MW4 8265   2.017   2.290   3.390 -0.1574 -0.1431 -0.3195
 2040SOL     OW 8266   1.767   2.402   3.519 -0.0320 -0.1173 -0.3636
 2040SOL    HW2 8267   1.847   2.361   3.487  0.1377  0.7863 -1.1378
 2040SOL    HW3 8268   1.697   2.348   3.484  0.2169 -0.3745 -0.4674
 2040SOL    MW4 8269   1.768   2.389   3.510  0.0232 -0.0319 -0.4792
 2041SOL     OW 8270   1.819   2.661   3.421  0.2291 -0.2247 -0.0953
 2041SOL    HW2 8271   1.892   2.695   3.472  0.5937 -0.8156 -0.2077
 2041SOL    HW3 8272   1.806   2.572   3.454  1.9600 -1.4489 -2.5651
 2041SOL    MW4 8273   1.827   2.653   3.432  0.5056 -0.4640 -0.4363
 2042SOL     OW 8274   2.062   2.790   3.505  0.0194  0.0282 -0.2176
 2042SOL    HW2 8275   2.058   2.808   3.599 -1.8587 -0.8027 -0.1014
 2042SOL    HW3 8276   2.057   2.876   3.463 -0.4626  0.3148  0.4311
 2042SOL    MW4 8277   2.061   2.803   3.512 -0.2918 -0.0436 -0.1168
 2043SOL     OW 8278   2.041   3.016   3.341 -0.1327  0.2578  0.4835
 2043SOL    HW2 8279   2.113   3.073   3.367 -0.7147  0.8675  0.7691
 2043SOL    HW3 8280   1.962   3.059   3.375 -0.6669 -0.2294 -0.1149
 2043SOL    MW4 8281   2.040   3.029   3.349 -0.2801  0.2737  0.4423
 2044SOL     OW 8282   1.824   3.140   3.472 -0.3401  0.6237  0.5485
 2044SOL    HW2 8283   1.858   3.147   3.561  0.7350  1.9136  0.0618
 2044SOL    HW3 8284   1.807   3.230   3.446  0.4684  0.3597 -0.9545
 2044SOL    MW4 8285   1.827   3.153   3.480 -0.0916  0.7589  0.2859
 2045SOL     OW 8286   1.762   3.430   3.422 -0.4115 -0.1096  0.4118
 2045SOL    HW2 8287   1.693   3.489   3.453  0.0998  0.2500  0.8639
 2045SOL    HW3 8288   1.767   3.448   3.328 -2.2825 -1.5389  0.0023
 2045SOL    MW4 8289   1.753   3.440   3.413 -0.5909 -0.2506  0.4175
 2046SOL     OW 8290   1.988   3.575   3.509  0.4599  0.2658 -0.0980
 2046SOL    HW2 8291   2.047   3.531   3.448 -0.5228 -0.9738 -0.1758
 2046SOL    HW3 8292   1.908   3.523   3.506 -0.1928  1.1999  0.9533
 2046SOL    MW4 8293   1.986   3.562   3.501  0.2440  0.2255  0.0305
 2047SOL     OW 8294   2.028   3.831   3.399  0.6115 -0.1434  0.3533
 2047SOL    HW2 8295   1.946   3.875   3.419  1.0044 -0.1920  2.1610
 2047SOL    HW3 8296   2.016   3.742   3.432  1.0375 -0.4302 -0.2564
 2047SOL    MW4 8297   2.016   3.825   3.406  0.7198 -0.1879  0.5116
 2048SOL     OW 8298   1.778   3.972   3.487  0.1895 -0.0184  0.0073
 2048SOL    HW2 8299   1.765   3.978   3.581  2.5126 -1.6418  0.4869
 2048SOL    HW3 8300   1.701   3.927   3.454 -0.2132 -0.2403  1.2482
 2048SOL    MW4 8301   1.766   3.967   3.495  0.4429 -0.2620  0.2341
 2049SOL     OW 8302   1.775   4.246   3.409  0.2612  0.4026  0.0413
 2049SOL    HW2 8303   1.767   4.157   3.443 -0.7728  0.2314 -0.6322
 2049SOL    HW3 8304   1.760   4.238   3.315  1.3306  1.1238 -0.2011
 2049SOL    MW4 8305   1.772   4.233   3.401  0.2661  0.4749 -0.0794
 2050SOL     OW 8306   2.043   4.381   3.451  0.4781  0.5659  0.3252
 2050SOL    HW2 8307   1.961   4.337   3.429  0.9222 -0.2273  0.2236
 2050SOL    HW3 8308   2.037   4.467   3.409 -0.5451  0.7395  0.8126
 2050SOL    MW4 8309   2.031   4.387   3.443  0.4015  0.4845  0.3760
 2051SOL     OW 8310   2.473   4.652   3.370 -0.0701 -0.4182 -0.3264
 2051SOL    HW2 8311   2.468   4.557   3.378  0.7766 -0.5034 -0.7238
 2051SOL    HW3 8312   2.480   4.668   3.276 -0.1814  0.0288 -0.2581
 2051SOL    MW4 8313   2.474   4.642   3.359  0.0269 -0.3700 -0.3698
 2052SOL     OW 8314   2.219   0.104   3.416  0.1437 -0.1571 -0.2291
 2052SOL    HW2 8315   2.222   0.197   3.393  1.2685 -0.1136  0.0973
 2052SOL    HW3 8316   2.306   0.070   3.393 -0.2127 -1.1021 -0.2209
 2052SOL    MW4 8317   2.231   0.112   3.410  0.2453 -0.2761 -0.1850
 2053SOL     OW 8318   2.265   0.372   3.356  0.2114 -0.1984  0.6970
 2053SOL    HW2 8319   2.342   0.421   3.385  0.0890  0.4678 -0.0937
 2053SOL    HW3 8320   2.193   0.405   3.409  0.0602  0.7426 -0.0815
 2053SOL    MW4 8321   2.266   0.382   3.367  0.1752  0.0136  0.4900
 2054SOL     OW 8322   2.501   0.465   3.479  0.1816 -0.5642  0.1640
 2054SOL    HW2 8323   2.567   0.426   3.422 -0.3443 -1.6937  0.3269
 2054SOL    HW3 8324   2.495   0.556   3.449  2.1877 -0.2888  0.4883
 2054SOL    MW4 8325   2.509   0.472   3.468  0.3767 -0.6769  0.2282
 2055SOL     OW 8326   2.504   0.711   3.339 -0.1924  0.0090 -0.3982
 2055SOL    HW2 8327   2.582   0.763   3.354 -0.1235 -0.3083  0.3887
 2055SOL    HW3 8328   2.499   0.701   3.244  0.9737 -0.3505 -0.4288
 2055SOL    MW4 8329   2.514   0.717   3.328 -0.0293 -0.0803 -0.2985
 2056SOL     OW 8330   2.286   0.867   3.464  0.1624  0.1327  0.0853
 2056SOL    HW2 8331   2.285   0.954   3.425  1.8037  0.0786 -0.1217
 2056SOL    HW3 8332   2.362   0.824   3.425  0.3368 -0.8063  1.4301
 2056SOL    MW4 8333   2.296   0.873   3.454  0.4020  0.0017  0.2353
 2057SOL     OW 8334   2.294   1.121   3.351  0.1739 -0.2133 -0.3081
 2057SOL    HW2 8335   2.353   1.172   3.405  0.4077 -0.6629 -0.1347
 2057SOL    HW3 8336   2.206   1.145   3.383  0.3075 -0.4416  0.2410
 2057SOL    MW4 8337   2.290   1.131   3.363  0.2222 -0.3028 -0.2127
 2058SOL     OW 8338   2.491   1.257   3.519 -0.0123  0.0005  0.4561
 2058SOL    HW2 8339   2.503   1.247   3.613  1.6257  1.0947  0.3912
 2058SOL    HW3 8340   2.558   1.201   3.479 -0.5575 -0.2972 -0.0526
 2058SOL    MW4 8341   2.502   1.248   3.526  0.1321  0.1056  0.3803
 2059SOL     OW 8342   2.485   1.514   3.382  0.6016 -0.5064  0.0655
 2059SOL    HW2 8343   2.491   1.423   3.410 -1.2511 -1.3010 -1.9435
 2059SOL    HW3 8344   2.476   1.509   3.287  0.1409  1.7574 -0.0315
 2059SOL    MW4 8345   2.485   1.501   3.373  0.2966 -0.3124 -0.2124
 2060SOL     OW 8346   2.249   1.660   3.462 -0.1928 -0.1668  0.1733
 2060SOL    HW2 8347   2.257   1.653   3.557  1.9793  1.2333  0.1177
 2060SOL    HW3 8348   2.330   1.624   3.428 -0.2278  0.8784 -1.0712
 2060SOL    MW4 8349   2.260   1.655   3.470  0.0894  0.1558  0.0019
 2061SOL     OW 8350   2.226   1.917   3.382 -0.3518 -0.4638 -0.2111
 2061SOL    HW2 8351   2.230   1.825   3.408  0.8181 -0.6507 -1.0209
 2061SOL    HW3 8352   2.232   1.915   3.286 -0.1597  0.4623 -0.2240
 2061SOL    MW4 8353   2.227   1.904   3.372 -0.1721 -0.3662 -0.3197
 2062SOL     OW 8354   2.459   2.042   3.467 -0.0775  0.0131 -0.5215
 2062SOL    HW2 8355   2.475   2.030   3.560  0.9428 -0.0750 -0.7044
 2062SOL    HW3 8356   2.376   1.996   3.451  0.3936 -1.0715  0.0920
 2062SOL    MW4 8357   2.450   2.034   3.477  0.1192 -0.1419 -0.4644
 2063SOL     OW 8358   2.488   2.287   3.345  0.2733  0.0693 -0.2009
 2063SOL    HW2 8359   2.558   2.325   3.398  1.4140 -2.2699 -0.0011
 2063SOL    HW3 8360   2.488   2.194   3.366 -3.0652  0.0353 -0.0387
 2063SOL    MW4 8361   2.497   2.280   3.354 -0.0167 -0.2439 -0.1531
 2064SOL     OW 8362   2.268   2.386   3.489 -0.1337  0.0178 -0.0447
 2064SOL    HW2 8363   2.271   2.476   3.456  0.6371 -0.1470 -0.4417
 2064SOL    HW3 8364   2.350   2.347   3.459 -0.0968 -0.5786  0.8199
 2064SOL    MW4 8365   2.279   2.392   3.480 -0.0269 -0.0825  0.0167
 2065SOL     OW 8366   2.275   2.660   3.403 -0.0271  0.0818  0.0839
 2065SOL    HW2 8367   2.193   2.677   3.449 -0.4465  0.8451 -0.9283
 2065SOL    HW3 8368   2.255   2.675   3.311  0.7772 -1.5334 -0.3822
 2065SOL    MW4 8369   2.261   2.664   3.397  0.0236 -0.0308 -0.1111
 2066SOL     OW 8370   2.456   2.782   3.560  0.1406 -0.2110 -0.0150
 2066SOL    HW2 8371   2.454   2.871   3.524 -0.6554 -0.0029  0.5273
 2066SOL    HW3 8372   2.387   2.735   3.513 -1.1965  0.1818  1.5324
 2066SOL    MW4 8373   2.447   2.787   3.549 -0.1409 -0.1316  0.2606
 2067SOL     OW 8374   2.470   3.026   3.385  0.2336  0.7892 -0.6679
 2067SOL    HW2 8375   2.532   3.092   3.418  0.5971  0.3877 -0.5290
 2067SOL    HW3 8376   2.486   3.022   3.291  0.6089  0.4966 -0.5935
 2067SOL    MW4 8377   2.481   3.034   3.377  0.3309  0.6979 -0.6394
 2068SOL     OW 8378   2.238   3.193   3.429  0.2905 -0.2081 -0.6777
 2068SOL    HW2 8379   2.252   3.202   3.523  0.2410  0.9309 -0.7774
 2068SOL    HW3 8380   2.318   3.152   3.397 -0.6632 -2.8932  0.2067
 2068SOL    MW4 8381   2.250   3.189   3.437  0.1581 -0.4122 -0.5744
 2069SOL     OW 8382   2.178   3.458   3.341  0.5081  0.7444 -0.1414
 2069SOL    HW2 8383   2.199   3.367   3.365  0.1950  1.1747  1.8187
 2069SOL    HW3 8384   2.194   3.461   3.247  0.7583 -1.2870 -0.2025
 2069SOL    MW4 8385   2.183   3.446   3.332  0.5000  0.5333  0.1092
 2070SOL     OW 8386   2.452   3.568   3.437  0.2667  0.2184  0.2983
 2070SOL    HW2 8387   2.452   3.661   3.415 -1.0099  0.1435 -0.0306
 2070SOL    HW3 8388   2.364   3.538   3.416  0.0802 -0.6498  2.2174
 2070SOL    MW4 8389   2.441   3.576   3.431  0.0737  0.0942  0.5081
 2071SOL     OW 8390   2.457   3.848   3.406  0.1020 -0.0432 -0.5299
 2071SOL    HW2 8391   2.524   3.905   3.445  0.2777 -0.3043 -0.4507
 2071SOL    HW3 8392   2.376   3.899   3.412  0.1978  0.0671 -0.1546
 2071SOL    MW4 8393   2.455   3.862   3.412  0.1378 -0.0629 -0.4699
 2072SOL     OW 8394   2.232   3.988   3.492 -0.1900  0.1594  0.2217
 2072SOL    HW2 8395   2.210   4.064   3.438  1.4616 -0.7833 -1.8628
 2072SOL    HW3 8396   2.170   3.921   3.465  0.2021 -0.1045 -0.0315
 2072SOL    MW4 8397   2.221   3.989   3.481  0.0796  0.0002 -0.0865
 2073SOL     OW 8398   2.218   4.202   3.322  0.1196 -0.2306  0.0792
 2073SOL    HW2 8399   2.161   4.267   3.363 -0.9698 -1.3854  0.4448
 2073SOL    HW3 8400   2.225   4.229   3.231  0.8486  1.1939  0.5521
 2073SOL    MW4 8401   2.211   4.214   3.316  0.0720 -0.1945  0.1895
 2074SOL     OW 8402   2.431   4.348   3.425 -0.1764  0.4523  0.0379
 2074SOL    HW2 8403   2.424   4.362   3.520 -0.2415 -0.0092  0.1028
 2074SOL    HW3 8404   2.360   4.287   3.405  0.7599 -0.5894 -0.0714
 2074SOL    MW4 8405   2.420   4.342   3.435 -0.0613  0.2542  0.0322
 2075SOL     OW 8406   2.967   4.623   3.384  0.1791  0.0074  0.1933
 2075SOL    HW2 8407   2.890   4.673   3.409  0.5996 -0.1884  1.9254
 2075SOL    HW3 8408   2.980   4.644   3.291 -1.2965  0.8860  0.1700
 2075SOL    MW4 8409   2.959   4.632   3.375  0.0398  0.0978  0.4187
 2076SOL     OW 8410   2.730   0.062   3.459 -0.0959 -0.3118  0.4643
 2076SOL    HW2 8411   2.716   0.154   3.436  1.4828 -0.2957 -0.5667
 2076SOL    HW3 8412   2.643   0.022   3.455 -0.3904  0.5009 -2.1056
 2076SOL    MW4 8413   2.717   0.069   3.455  0.0734 -0.2024 -0.0105
 2077SOL     OW 8414   2.681   0.326   3.339  0.0657  0.0492  0.0630
 2077SOL    HW2 8415   2.765   0.365   3.364  0.5628 -0.9598 -0.0357
 2077SOL    HW3 8416   2.681   0.328   3.243  0.7207 -1.5237  0.0251
 2077SOL    MW4 8417   2.692   0.332   3.330  0.2177 -0.2915  0.0451
 2078SOL     OW 8418   2.892   0.475   3.459  0.2224 -0.3819  0.2022
 2078SOL    HW2 8419   2.884   0.470   3.554 -2.5839 -2.2152 -0.0643
 2078SOL    HW3 8420   2.881   0.568   3.438 -1.1473 -0.2302  1.5346
 2078SOL    MW4 8421   2.890   0.486   3.469 -0.3285 -0.6038  0.3431
 2079SOL     OW 8422   2.953   0.719   3.348  0.3813  0.4739  0.2683
 2079SOL    HW2 8423   3.029   0.768   3.380  0.2596  0.3104  0.8192
 2079SOL    HW3 8424   2.878   0.774   3.371  0.2648  0.1643  0.6252
 2079SOL    MW4 8425   2.953   0.733   3.355  0.3502  0.4115  0.3879
 2080SOL     OW 8426   2.739   0.865   3.440  0.1559  0.1805 -0.2417
 2080SOL    HW2 8427   2.769   0.879   3.530 -1.6086 -0.2298  0.4214
 2080SOL    HW3 8428   2.717   0.953   3.408 -1.2392  0.0964  0.4609
 2080SOL    MW4 8429   2.740   0.879   3.447 -0.2611  0.1153 -0.0615
 2081SOL     OW 8430   2.669   1.131   3.353 -0.4243 -0.1513  0.5573
 2081SOL    HW2 8431   2.738   1.188   3.387  0.0635 -0.9016  0.8356
 2081SOL    HW3 8432   2.678   1.137   3.258 -1.1546  1.1779  0.5636
 2081SOL    MW4 8433   2.679   1.139   3.345 -0.4561 -0.0750  0.5946
 2082SOL     OW 8434   2.875   1.269   3.451 -0.3785 -0.0349  0.1295
 2082SOL    HW2 8435   2.903   1.278   3.542 -1.2348 -2.2871  0.6337
 2082SOL    HW3 8436   2.946   1.220   3.409 -0.5017  0.0351 -0.1629
 2082SOL    MW4 8437   2.888   1.264   3.457 -0.5078 -0.3228  0.1576
 2083SOL     OW 8438   2.894   1.537   3.373 -0.2687  0.2705  0.3901
 2083SOL    HW2 8439   2.817   1.578   3.414  0.9789  1.5206  1.5164
 2083SOL    HW3 8440   2.896   1.448   3.409 -0.1495  0.8221  1.7739
 2083SOL    MW4 8441   2.884   1.531   3.383 -0.0882  0.5083  0.7212
 2084SOL     OW 8442   2.697   1.667   3.492  0.3723 -0.1006 -0.7008
 2084SOL    HW2 8443   2.694   1.756   3.457 -0.1406  0.4565  0.6909
 2084SOL    HW3 8444   2.616   1.627   3.463  1.0054 -0.4231 -2.0774
 2084SOL    MW4 8445   2.686   1.674   3.484  0.3884 -0.0696 -0.6986
 2085SOL     OW 8446   2.685   1.913   3.377 -0.1341  0.3068  0.3691
 2085SOL    HW2 8447   2.603   1.954   3.404  0.7157  1.9264  0.5467
 2085SOL    HW3 8448   2.688   1.925   3.282 -0.1326  0.2144  0.3579
 2085SOL    MW4 8449   2.674   1.920   3.368 -0.0217  0.5082  0.3910
 2086SOL     OW 8450   2.933   1.998   3.492 -0.2073  0.0644 -0.1426
 2086SOL    HW2 8451   2.931   2.020   3.585  1.0103  0.2729 -0.1694
 2086SOL    HW3 8452   2.840   1.994   3.467 -0.5930 -1.2861  1.3774
 2086SOL    MW4 8453   2.920   2.000   3.501 -0.0978 -0.0861  0.0544
 2087SOL     OW 8454   2.925   2.269   3.405 -0.6443  0.3760  0.2935
 2087SOL    HW2 8455   2.934   2.175   3.418  0.1346  0.4259  0.1460
 2087SOL    HW3 8456   2.910   2.279   3.311  0.7085  0.4899  0.0775
 2087SOL    MW4 8457   2.924   2.258   3.394 -0.3631  0.3974  0.2458
 2088SOL     OW 8458   2.698   2.419   3.503 -0.0074 -0.0287  0.1431
 2088SOL    HW2 8459   2.707   2.435   3.597  2.5056 -0.1345 -0.0557
 2088SOL    HW3 8460   2.774   2.364   3.481 -0.1800  0.6005 -2.0869
 2088SOL    MW4 8461   2.709   2.414   3.513  0.3014  0.0403 -0.1771
 2089SOL     OW 8462   2.672   2.674   3.418  0.1720  0.1288 -0.3864
 2089SOL    HW2 8463   2.678   2.585   3.450  1.5860 -0.4035 -2.0398
 2089SOL    HW3 8464   2.601   2.713   3.468  1.3306 -1.0832  2.2779
 2089SOL    MW4 8465   2.664   2.668   3.429  0.5116 -0.1016 -0.2530
 2090SOL     OW 8466   2.901   2.827   3.478 -0.1594  0.2079 -0.2453
 2090SOL    HW2 8467   2.904   2.803   3.570 -0.0139  1.5021  0.0922
 2090SOL    HW3 8468   2.823   2.782   3.444 -0.5659  0.2311  0.6500
 2090SOL    MW4 8469   2.891   2.818   3.486 -0.1936  0.3815 -0.0827
 2091SOL     OW 8470   2.922   3.087   3.406  0.4060 -1.0183  0.2673
 2091SOL    HW2 8471   2.920   2.997   3.440  1.3663 -1.0233  0.3292
 2091SOL    HW3 8472   2.944   3.076   3.313  1.8416 -0.7862  0.5656
 2091SOL    MW4 8473   2.925   3.074   3.398  0.7222 -0.9882  0.3150
 2092SOL     OW 8474   2.672   3.195   3.469  0.3770 -0.1733 -0.3622
 2092SOL    HW2 8475   2.679   3.201   3.564  1.3679  2.2777 -0.5553
 2092SOL    HW3 8476   2.751   3.150   3.441 -0.4276 -1.8658  0.0421
 2092SOL    MW4 8477   2.683   3.190   3.478  0.4015 -0.0734 -0.3343
 2093SOL     OW 8478   2.684   3.454   3.333 -0.3613  0.2402 -0.2346
 2093SOL    HW2 8479   2.687   3.368   3.375 -0.1377 -0.3769 -1.4631
 2093SOL    HW3 8480   2.602   3.493   3.362 -0.6846 -0.5856 -0.0240
 2093SOL    MW4 8481   2.674   3.448   3.342 -0.3743  0.0498 -0.3688
 2094SOL     OW 8482   2.873   3.612   3.492 -0.0683  0.2786  0.0580
 2094SOL    HW2 8483   2.873   3.698   3.449 -0.1039  0.0181 -0.4566
 2094SOL    HW3 8484   2.804   3.563   3.448  0.2084 -0.1446  0.0968
 2094SOL    MW4 8485   2.864   3.617   3.481 -0.0367  0.1884 -0.0048
 2095SOL     OW 8486   2.890   3.860   3.359 -0.0652 -0.4592  0.0626
 2095SOL    HW2 8487   2.975   3.881   3.397 -0.6705  0.0526  1.1476
 2095SOL    HW3 8488   2.826   3.901   3.418 -1.0377 -0.2128 -1.1271
 2095SOL    MW4 8489   2.893   3.868   3.372 -0.2735 -0.3593  0.0489
 2096SOL     OW 8490   2.672   3.989   3.481 -0.2983  0.0732 -0.2240
 2096SOL    HW2 8491   2.674   4.020   3.571  0.7955  1.8596 -0.8371
 2096SOL    HW3 8492   2.664   4.068   3.428 -1.3150 -0.9751 -1.6963
 2096SOL    MW4 8493   2.671   4.003   3.486 -0.2878  0.1702 -0.4992
 2097SOL     OW 8494   2.671   4.240   3.344 -0.0363 -0.0179 -0.5824
 2097SOL    HW2 8495   2.737   4.302   3.376  0.9617 -0.8647 -0.9829
 2097SOL    HW3 8496   2.588   4.280   3.369  0.6653  0.0081  1.8735
 2097SOL    MW4 8497   2.669   4.253   3.351  0.1879 -0.1264 -0.3114
 2098SOL     OW 8498   2.880   4.377   3.474 -0.0709  0.4424  0.1369
 2098SOL    HW2 8499   2.889   4.371   3.569 -2.4032  1.1263  0.4380
 2098SOL    HW3 8500   2.918   4.461   3.451  2.2203 -0.5370  0.1909
 2098SOL    MW4 8501   2.886   4.387   3.484 -0.0763  0.4034  0.1836
 2099SOL     OW 8502   3.389   0.010   3.424 -0.6097  0.3000 -0.4846
 2099SOL    HW2 8503   3.313   0.058   3.457 -0.6569 -0.3892  0.4277
 2099SOL    HW3 8504   3.385   0.021   3.329 -1.1451  1.3140 -0.3574
 2099SOL    MW4 8505   3.379   0.018   3.416 -0.6864  0.3438 -0.3476
 2100SOL     OW 8506   3.155   0.114   3.508 -0.1723 -0.0236 -0.3056
 2100SOL    HW2 8507   3.150   0.199   3.465  0.3398 -0.0199 -0.3609
 2100SOL    HW3 8508   3.088   0.061   3.465  0.1693  0.0528 -0.9405
 2100SOL    MW4 8509   3.145   0.118   3.497 -0.0596 -0.0131 -0.3967
 2101SOL     OW 8510   3.134   0.358   3.406  0.4698 -0.1664 -0.3619
 2101SOL    HW2 8511   3.053   0.399   3.435  2.2704  2.6433  0.9409
 2101SOL    HW3 8512   3.135   0.370   3.311 -0.2706  0.4393 -0.2976
 2101SOL    MW4 8513   3.123   0.365   3.397  0.6096  0.2842 -0.1814
 2102SOL     OW 8514   3.378   0.478   3.492 -0.3189 -0.3321  0.6322
 2102SOL    HW2 8515   3.367   0.474   3.587 -1.3028  0.9835  0.5820
 2102SOL    HW3 8516   3.298   0.440   3.457 -0.1374 -0.4378  0.3368
 2102SOL    MW4 8517   3.366   0.473   3.500 -0.4246 -0.1725  0.5865
 2103SOL     OW 8518   3.348   0.748   3.393 -0.0057  0.1136  0.2455
 2103SOL    HW2 8519   3.420   0.804   3.422 -0.7882  1.0352  0.3919
 2103SOL    HW3 8520   3.357   0.669   3.447  0.3777  0.5787  0.8701
 2103SOL    MW4 8521   3.359   0.745   3.404 -0.0584  0.2966  0.3471
 2104SOL     OW 8522   3.143   0.902   3.469  0.2343 -0.1141  0.7914
 2104SOL    HW2 8523   3.218   0.844   3.455 -0.9504 -1.5347  0.2160
 2104SOL    HW3 8524   3.126   0.896   3.563  2.0642  1.8029  1.3116
 2104SOL    MW4 8525   3.151   0.894   3.480  0.3197 -0.0486  0.7839
 2105SOL     OW 8526   3.094   1.147   3.347 -0.6573 -0.4147  0.3400
 2105SOL    HW2 8527   3.171   1.196   3.376 -0.6070 -0.2632 -0.0526
 2105SOL    HW3 8528   3.107   1.059   3.383  0.4458 -0.8088 -0.9717
 2105SOL    MW4 8529   3.106   1.142   3.356 -0.5052 -0.4467  0.1152
 2106SOL     OW 8530   3.318   1.273   3.488  0.1073 -0.2250  0.5362
 2106SOL    HW2 8531   3.390   1.218   3.458 -0.3580 -1.0569  0.9294
 2106SOL    HW3 8532   3.335   1.359   3.447  1.0195 -0.5554  0.1997
 2106SOL    MW4 8533   3.330   1.277   3.479  0.1664 -0.3784  0.5438
 2107SOL     OW 8534   3.335   1.524   3.347  0.5409  0.1784  0.0840
 2107SOL    HW2 8535   3.409   1.569   3.387  0.0175 -0.2456  1.5763
 2107SOL    HW3 8536   3.258   1.562   3.390 -0.0037 -0.6432 -0.1511
 2107SOL    MW4 8537   3.334   1.535   3.358  0.3996  0.0141  0.2501
 2108SOL     OW 8538   3.124   1.665   3.475  0.0449  0.5002  0.1609
 2108SOL    HW2 8539   3.133   1.755   3.445  0.1230 -0.0533 -1.4933
 2108SOL    HW3 8540   3.041   1.636   3.439 -0.8483  0.4522  2.1626
 2108SOL    MW4 8541   3.114   1.673   3.466 -0.0627  0.4208  0.2067
 2109SOL     OW 8542   3.175   1.920   3.374  0.0188  0.0950 -0.3166
 2109SOL    HW2 8543   3.085   1.932   3.404 -0.5453 -1.8987 -1.1024
 2109SOL    HW3 8544   3.167   1.907   3.280  0.9204 -1.8704 -0.1540
 2109SOL    MW4 8545   3.162   1.920   3.366  0.0632 -0.4274 -0.3989
 2110SOL     OW 8546   3.385   2.033   3.493 -0.1654  0.3426  0.4440
 2110SOL    HW2 8547   3.393   2.121   3.457  0.4147  0.4182  0.7514
 2110SOL    HW3 8548   3.297   2.004   3.467  0.3436  0.2730 -1.2809
 2110SOL    MW4 8549   3.374   2.040   3.485 -0.0217  0.3436  0.2573
 2111SOL     OW 8550   3.388   2.314   3.425 -0.4921 -0.1948 -0.0447
 2111SOL    HW2 8551   3.466   2.357   3.462 -0.6221  1.1743 -1.3083
 2111SOL    HW3 8552   3.316   2.375   3.443 -0.8185 -0.2345 -1.1905
 2111SOL    MW4 8553   3.389   2.328   3.432 -0.5522 -0.0193 -0.3626
 2112SOL     OW 8554   3.139   2.423   3.500 -0.3212 -0.1603 -0.1289
 2112SOL    HW2 8555   3.114   2.512   3.475 -0.1719  0.0760  0.5390
 2112SOL    HW3 8556   3.066   2.369   3.472 -1.4155  0.4716  1.4100
 2112SOL    MW4 8557   3.126   2.428   3.493 -0.4461 -0.0458  0.1624
 2113SOL     OW 8558   3.125   2.693   3.411 -0.5130 -0.2345  0.2072
 2113SOL    HW2 8559   3.202   2.732   3.452 -0.8757  0.0513  0.6238
 2113SOL    HW3 8560   3.054   2.753   3.433 -1.0338 -1.0127  0.6528
 2113SOL    MW4 8561   3.126   2.706   3.420 -0.6297 -0.2997  0.3209
 2114SOL     OW 8562   3.369   2.808   3.468  0.0087 -0.0302  0.1516
 2114SOL    HW2 8563   3.455   2.772   3.446 -0.3635 -0.8026 -0.0255
 2114SOL    HW3 8564   3.371   2.897   3.431  0.0867 -0.6518 -1.3858
 2114SOL    MW4 8565   3.381   2.815   3.460 -0.0303 -0.2141 -0.0749
 2115SOL     OW 8566   3.341   3.079   3.377  0.0045 -0.0767  0.0024
 2115SOL    HW2 8567   3.415   3.130   3.409 -0.3441  0.6566 -0.3383
 2115SOL    HW3 8568   3.267   3.108   3.430 -0.2340 -0.0755 -0.3294
 2115SOL    MW4 8569   3.341   3.090   3.388 -0.0730  0.0203 -0.0863
 2116SOL     OW 8570   3.143   3.204   3.511  0.4836  0.0236 -0.0454
 2116SOL    HW2 8571   3.154   3.293   3.479 -1.3113 -0.0932 -1.0286
 2116SOL    HW3 8572   3.053   3.181   3.488 -0.0310 -0.9926  2.8471
 2116SOL    MW4 8573   3.133   3.212   3.504  0.1786 -0.1259  0.2065
 2117SOL     OW 8574   3.108   3.477   3.422 -0.3575 -0.1091  0.0923
 2117SOL    HW2 8575   3.033   3.507   3.473 -0.9601 -1.3149 -0.0565
 2117SOL    HW3 8576   3.081   3.485   3.331  0.0285  0.3071  0.0159
 2117SOL    MW4 8577   3.095   3.482   3.417 -0.3860 -0.2131  0.0627
 2118SOL     OW 8578   3.345   3.580   3.512 -0.0842 -0.3063  0.0991
 2118SOL    HW2 8579   3.355   3.665   3.470 -1.2108 -0.0489  0.3447
 2118SOL    HW3 8580   3.269   3.540   3.469 -0.3524 -0.6427  0.8770
 2118SOL    MW4 8581   3.337   3.586   3.501 -0.2682 -0.3164  0.2341
 2119SOL     OW 8582   3.374   3.820   3.376 -0.0983  0.7146 -0.3996
 2119SOL    HW2 8583   3.445   3.871   3.415 -0.3749 -0.2502  1.3980
 2119SOL    HW3 8584   3.294   3.861   3.410 -0.3449 -0.0799 -0.0259
 2119SOL    MW4 8585   3.373   3.832   3.386 -0.1671  0.4828 -0.1128
 2120SOL     OW 8586   3.139   3.936   3.476  0.3276  0.0182  0.6617
 2120SOL    HW2 8587   3.110   3.942   3.567 -0.6848 -1.0121  0.4191
 2120SOL    HW3 8588   3.132   4.026   3.443 -0.4889  0.1742  1.2390
 2120SOL    MW4 8589   3.135   3.949   3.484  0.0863 -0.0970  0.7057
 2121SOL     OW 8590   3.120   4.201   3.417  0.5404 -0.3201 -0.3636
 2121SOL    HW2 8591   3.191   4.265   3.410 -0.5907  0.7684 -2.6926
 2121SOL    HW3 8592   3.044   4.253   3.443  0.0226 -1.0261 -0.4544
 2121SOL    MW4 8593   3.119   4.216   3.420  0.3231 -0.2704 -0.6828
 2122SOL     OW 8594   3.332   4.402   3.464 -0.0277 -0.0523  0.2177
 2122SOL    HW2 8595   3.320   4.399   3.559  2.1734  0.2141  0.5335
 2122SOL    HW3 8596   3.334   4.496   3.444  1.1024 -0.0884  0.1404
 2122SOL    MW4 8597   3.330   4.414   3.474  0.4117 -0.0219  0.2491
 2123SOL     OW 8598   3.809   4.653   3.415 -0.0746 -0.7755 -0.0918
 2123SOL    HW2 8599   3.743   4.713   3.451  0.4906 -1.0747  1.4756
 2123SOL    HW3 8600   3.813   4.676   3.322  0.0538  1.5599  0.4554
 2123SOL    MW4 8601   3.801   4.664   3.407  0.0169 -0.5069  0.1872
 2124SOL     OW 8602   3.622   0.154   3.531  0.3472 -0.3130 -0.5171
 2124SOL    HW2 8603   3.618   0.226   3.468 -1.3258 -0.5121 -0.6696
 2124SOL    HW3 8604   3.540   0.106   3.518  0.5872 -1.1445  0.8860
 2124SOL    MW4 8605   3.610   0.157   3.521  0.1581 -0.4490 -0.3521
 2125SOL     OW 8606   3.582   0.376   3.351 -0.3175  0.3405  0.3062
 2125SOL    HW2 8607   3.660   0.418   3.386  0.5779  0.2657 -1.5589
 2125SOL    HW3 8608   3.510   0.415   3.400  0.7336  1.7860  0.7441
 2125SOL    MW4 8609   3.583   0.386   3.362 -0.0606  0.5214  0.1178
 2126SOL     OW 8610   3.787   0.513   3.490 -0.0200 -0.0605  0.0252
 2126SOL    HW2 8611   3.774   0.516   3.585  0.5789 -0.7776  0.1397
 2126SOL    HW3 8612   3.847   0.440   3.477 -0.8362 -0.5603 -0.9940
 2126SOL    MW4 8613   3.793   0.504   3.501 -0.0489 -0.2211 -0.0944
 2127SOL     OW 8614   3.820   0.748   3.338 -0.1400 -0.3993  0.2548
 2127SOL    HW2 8615   3.888   0.790   3.392 -1.5528  2.0939  0.1751
 2127SOL    HW3 8616   3.807   0.662   3.379  1.9201 -0.2785  1.2257
 2127SOL    MW4 8617   3.827   0.742   3.351 -0.0546 -0.0545  0.3722
 2128SOL     OW 8618   3.587   0.858   3.464  0.4664 -0.2002 -0.1434
 2128SOL    HW2 8619   3.591   0.867   3.560 -0.0253 -2.3678  0.0969
 2128SOL    HW3 8620   3.667   0.811   3.441 -0.2009 -1.1020 -0.6146
 2128SOL    MW4 8621   3.598   0.853   3.474  0.3135 -0.6052 -0.1740
 2129SOL     OW 8622   3.551   1.119   3.397 -0.2832 -0.2703  0.2464
 2129SOL    HW2 8623   3.568   1.025   3.410 -0.4421 -0.4424 -0.7517
 2129SOL    HW3 8624   3.562   1.132   3.303  0.1024  0.7926  0.4344
 2129SOL    MW4 8625   3.555   1.108   3.386 -0.2537 -0.1527  0.1392
 2130SOL     OW 8626   3.780   1.258   3.434 -0.1963  0.0393  0.3567
 2130SOL    HW2 8627   3.796   1.255   3.529  0.1616 -0.2666  0.2881
 2130SOL    HW3 8628   3.699   1.209   3.422 -0.1427 -0.0804  0.4822
 2130SOL    MW4 8629   3.771   1.251   3.445 -0.1419 -0.0168  0.3641
 2131SOL     OW 8630   3.794   1.537   3.370  0.2969  0.2163  0.0022
 2131SOL    HW2 8631   3.867   1.571   3.422  0.8747  0.1098 -0.7247
 2131SOL    HW3 8632   3.795   1.443   3.386  0.9237  0.0838 -0.7304
 2131SOL    MW4 8633   3.804   1.529   3.379  0.4559  0.1847 -0.1903
 2132SOL     OW 8634   3.547   1.677   3.437 -0.2605  0.2900 -0.1942
 2132SOL    HW2 8635   3.562   1.760   3.392 -0.4111 -0.0683 -0.9077
 2132SOL    HW3 8636   3.621   1.622   3.412 -0.5711 -0.0583 -0.3592
 2132SOL    MW4 8637   3.558   1.680   3.428 -0.3214  0.1969 -0.3102
 2133SOL     OW 8638   3.594   1.929   3.347 -0.3479 -0.3687  0.4257
 2133SOL    HW2 8639   3.667   1.943   3.408 -0.8899 -1.5790  1.3721
 2133SOL    HW3 8640   3.517   1.963   3.393 -0.1452  2.5587 -1.2991
 2133SOL    MW4 8641   3.594   1.935   3.361 -0.3927 -0.1422  0.3231
 2134SOL     OW 8642   3.833   2.033   3.512  0.0616 -0.0179 -0.2761
 2134SOL    HW2 8643   3.840   2.039   3.608 -1.3737  0.5038 -0.1947
 2134SOL    HW3 8644   3.917   1.995   3.485  0.6327  0.1621  1.1521
 2134SOL    MW4 8645   3.845   2.029   3.521 -0.0525  0.0746 -0.0770
 2135SOL     OW 8646   3.811   2.284   3.379  0.2501  0.2618  0.2142
 2135SOL    HW2 8647   3.878   2.328   3.431  0.5113  0.4856 -0.3113
 2135SOL    HW3 8648   3.807   2.195   3.414  2.0605 -0.2875 -0.9102
 2135SOL    MW4 8649   3.819   2.278   3.390  0.5236  0.2189 -0.0036
 2136SOL     OW 8650   3.619   2.429   3.506 -0.3569  0.5003  0.4377
 2136SOL    HW2 8651   3.612   2.513   3.459 -0.9444  0.6543  0.7998
 2136SOL    HW3 8652   3.673   2.375   3.448 -0.4135  0.9527 -0.0520
 2136SOL    MW4 8653   3.626   2.433   3.492 -0.4418  0.5805  0.4208
 2137SOL     OW 8654   3.605   2.682   3.411 -0.3065  0.1178 -0.4958
 2137SOL    HW2 8655   3.684   2.729   3.440 -0.0169 -0.3983 -0.4464
 2137SOL    HW3 8656   3.609   2.686   3.316 -0.3973  0.3823 -0.4903
 2137SOL    MW4 8657   3.616   2.689   3.402 -0.2804  0.0846 -0.4888
 2138SOL     OW 8658   3.842   2.805   3.472 -0.6165 -0.3397 -0.4736
 2138SOL    HW2 8659   3.843   2.798   3.568  2.7049 -1.7215 -0.5445
 2138SOL    HW3 8660   3.839   2.899   3.456  0.9124  0.0016  1.0469
 2138SOL    MW4 8661   3.842   2.817   3.482  0.0234 -0.4773 -0.2820
 2139SOL     OW 8662   3.786   3.075   3.425 -0.3864 -0.4423  0.2053
 2139SOL    HW2 8663   3.852   3.136   3.459 -1.1960  0.4889  0.1391
 2139SOL    HW3 8664   3.789   3.088   3.330 -1.4465  0.4371  0.2797
 2139SOL    MW4 8665   3.795   3.085   3.417 -0.6328 -0.2034  0.2067
 2140SOL     OW 8666   3.554   3.200   3.531  0.0034  0.4210  0.1978
 2140SOL    HW2 8667   3.582   3.290   3.515  1.0152  0.1411  0.3887
 2140SOL    HW3 8668   3.624   3.146   3.495  0.0522 -0.2773  1.3107
 2140SOL    MW4 8669   3.567   3.205   3.524  0.1433  0.2921  0.3700
 2141SOL     OW 8670   3.561   3.457   3.419 -0.0929 -0.6654  0.0239
 2141SOL    HW2 8671   3.484   3.503   3.453 -0.0883 -1.0061  0.4995
 2141SOL    HW3 8672   3.546   3.454   3.324 -1.3050 -1.8574  0.2371
 2141SOL    MW4 8673   3.549   3.463   3.411 -0.2522 -0.8676  0.1144
 2142SOL     OW 8674   3.798   3.592   3.504 -0.1620  0.5101 -0.2222
 2142SOL    HW2 8675   3.812   3.584   3.599  0.3680 -1.6718 -0.4420
 2142SOL    HW3 8676   3.714   3.549   3.489  0.3402 -0.2595 -0.8864
 2142SOL    MW4 8677   3.789   3.585   3.515 -0.0257  0.1206 -0.3388
 2143SOL     OW 8678   3.827   3.849   3.392  0.6775 -0.5850 -0.0239
 2143SOL    HW2 8679   3.754   3.909   3.406  0.0623 -1.0916 -1.0540
 2143SOL    HW3 8680   3.796   3.765   3.426  0.8496 -0.7589 -0.2949
 2143SOL    MW4 8681   3.814   3.846   3.399  0.6189 -0.6747 -0.1957
 2144SOL     OW 8682   3.599   3.978   3.459 -1.0253  0.6100 -0.2892
 2144SOL    HW2 8683   3.576   3.991   3.551 -1.0603  1.0209 -0.3553
 2144SOL    HW3 8684   3.584   4.063   3.418 -0.9924  0.4335 -0.6723
 2144SOL    MW4 8685   3.594   3.991   3.465 -1.0254  0.6409 -0.3486
 2145SOL     OW 8686   3.551   4.243   3.397 -0.1589  0.2883 -0.4373
 2145SOL    HW2 8687   3.471   4.291   3.420 -1.0590 -1.6310  0.5127
 2145SOL    HW3 8688   3.548   4.237   3.302 -1.1276  0.2447 -0.4066
 2145SOL    MW4 8689   3.540   4.249   3.387 -0.4053  0.0296 -0.3078
 2146SOL     OW 8690   3.803   4.371   3.460 -0.1206  0.4792 -0.2776
 2146SOL    HW2 8691   3.722   4.329   3.431  0.2312 -0.0934 -0.4475
 2146SOL    HW3 8692   3.787   4.464   3.448 -1.1150  0.4383  0.6314
 2146SOL    MW4 8693   3.790   4.377   3.455 -0.2055  0.3982 -0.1802
 2147SOL     OW 8694   4.272   4.637   3.409 -0.0488  0.0214  0.0079
 2147SOL    HW2 8695   4.280   4.551   3.450 -0.1335 -0.1340 -0.3072
 2147SOL    HW3 8696   4.343   4.689   3.449  0.3382 -0.3455 -0.1963
 2147SOL    MW4 8697   4.283   4.633   3.420 -0.0091 -0.0467 -0.0606
 2148SOL     OW 8698   4.039   0.088   3.492 -0.4869 -0.4140 -0.2612
 2148SOL    HW2 8699   4.119   0.040   3.471 -1.1847 -1.6175 -0.1558
 2148SOL    HW3 8700   3.968   0.035   3.457 -1.4330 -0.6523  1.9439
 2148SOL    MW4 8701   4.040   0.075   3.485 -0.7038 -0.6042  0.0439
 2149SOL     OW 8702   4.024   0.356   3.394  0.2403  0.3543 -0.5512
 2149SOL    HW2 8703   4.041   0.264   3.413 -0.2367  0.3687 -0.0446
 2149SOL    HW3 8704   4.037   0.363   3.299  0.5339 -0.1746 -0.5544
 2149SOL    MW4 8705   4.028   0.345   3.384  0.2165  0.2864 -0.4849
 2150SOL     OW 8706   4.233   0.519   3.462 -0.2661 -0.3408 -0.0245
 2150SOL    HW2 8707   4.226   0.612   3.441  0.9954 -0.7104 -2.2688
 2150SOL    HW3 8708   4.152   0.480   3.429 -0.5017 -0.1507  0.3255
 2150SOL    MW4 8709   4.222   0.526   3.455 -0.1307 -0.3644 -0.2742
 2151SOL     OW 8710   4.253   0.779   3.381  0.4383  0.2280 -0.1999
 2151SOL    HW2 8711   4.329   0.815   3.428  0.2541  1.0246 -0.5091
 2151SOL    HW3 8712   4.284   0.768   3.291  0.5609 -0.6061 -0.0617
 2151SOL    MW4 8713   4.267   0.782   3.375  0.4301  0.2230 -0.2227
 2152SOL     OW 8714   4.012   0.896   3.471 -0.0445 -0.4461  0.2182
 2152SOL    HW2 8715   4.006   0.976   3.419  1.6648  0.5654  1.5127
 2152SOL    HW3 8716   4.100   0.862   3.451 -0.9474 -2.2831 -0.7051
 2152SOL    MW4 8717   4.023   0.902   3.461  0.0620 -0.5550  0.2670
 2153SOL     OW 8718   4.021   1.144   3.377  0.3945  0.0690  0.6494
 2153SOL    HW2 8719   4.087   1.188   3.430  0.9842  0.2433 -0.2188
 2153SOL    HW3 8720   3.940   1.192   3.395  1.1484  1.9880 -0.8047
 2153SOL    MW4 8721   4.019   1.156   3.386  0.5717  0.3451  0.3431
 2154SOL     OW 8722   4.222   1.282   3.523  0.2735  0.6467 -0.1787
 2154SOL    HW2 8723   4.192   1.357   3.473 -1.0083 -0.8058 -1.6598
 2154SOL    HW3 8724   4.310   1.263   3.489 -1.1183 -1.1900 -2.9912
 2154SOL    MW4 8725   4.230   1.289   3.512 -0.0792  0.2127 -0.7455
 2155SOL     OW 8726   4.227   1.510   3.373 -0.4941  0.2765 -0.4903
 2155SOL    HW2 8727   4.144   1.550   3.400  0.1698  1.7347 -0.5841
 2155SOL    HW3 8728   4.244   1.547   3.286  1.3642  1.6994  0.4486
 2155SOL    MW4 8729   4.218   1.520   3.365 -0.1616  0.6566 -0.3788
 2156SOL     OW 8730   4.016   1.648   3.501 -0.0418 -0.0132  0.2009
 2156SOL    HW2 8731   4.019   1.643   3.597  0.3024 -0.1607  0.1851
 2156SOL    HW3 8732   4.036   1.739   3.481 -1.5766  0.3513  0.3238
 2156SOL    MW4 8733   4.019   1.659   3.511 -0.1988  0.0154  0.2151
 2157SOL     OW 8734   4.061   1.910   3.416 -0.2386  0.0351  0.2069
 2157SOL    HW2 8735   4.143   1.954   3.438  0.9947 -2.6692  1.2172
 2157SOL    HW3 8736   4.068   1.890   3.323  0.7728 -1.2432  0.5548
 2157SOL    MW4 8737   4.073   1.913   3.406  0.0577 -0.4903  0.3865
 2158SOL     OW 8738   4.291   2.037   3.510 -0.3878  0.0092  0.0918
 2158SOL    HW2 8739   4.296   2.121   3.465 -0.6002  0.0312  0.1118
 2158SOL    HW3 8740   4.363   1.986   3.473  1.2777  1.0464  1.7931
 2158SOL    MW4 8741   4.302   2.042   3.499 -0.1960  0.1488  0.3190
 2159SOL     OW 8742   4.238   2.288   3.405  0.1803  0.1289 -0.4199
 2159SOL    HW2 8743   4.163   2.330   3.447 -0.1005 -2.6582  2.0232
 2159SOL    HW3 8744   4.218   2.291   3.312 -2.4351  0.4598  0.1086
 2159SOL    MW4 8745   4.226   2.294   3.399 -0.2017 -0.1953 -0.0281
 2160SOL     OW 8746   4.023   2.424   3.513 -0.3723 -0.2665 -0.0230
 2160SOL    HW2 8747   4.025   2.448   3.606  1.5965 -1.3919  0.2522
 2160SOL    HW3 8748   4.034   2.508   3.467 -1.1879  0.2757  0.7424
 2160SOL    MW4 8749   4.025   2.439   3.519 -0.2203 -0.3436  0.1147
 2161SOL     OW 8750   4.076   2.665   3.411 -0.3366 -0.1218 -0.3483
 2161SOL    HW2 8751   4.140   2.714   3.463 -1.6079 -0.3782  1.4968
 2161SOL    HW3 8752   3.994   2.712   3.424 -1.1946 -1.7119 -0.0037
 2161SOL    MW4 8753   4.074   2.678   3.420 -0.6166 -0.3655 -0.0596
 2162SOL     OW 8754   4.242   2.846   3.535  0.4529 -0.1428 -0.1440
 2162SOL    HW2 8755   4.241   2.836   3.630  0.9997  0.2690 -0.0871
 2162SOL    HW3 8756   4.326   2.808   3.507  0.8523  0.8300 -0.3187
 2162SOL    MW4 8757   4.253   2.840   3.544  0.5779  0.0403 -0.1595
 2163SOL     OW 8758   4.255   3.134   3.426  0.3752 -0.2463 -0.2671
 2163SOL    HW2 8759   4.251   3.049   3.469 -1.5802 -0.8445 -1.5562
 2163SOL    HW3 8760   4.274   3.115   3.334  0.3093  0.7209 -0.4917
 2163SOL    MW4 8761   4.257   3.121   3.420  0.1082 -0.1974 -0.4668
 2164SOL     OW 8762   3.996   3.248   3.493 -0.3103 -0.3051 -0.1318
 2164SOL    HW2 8763   3.977   3.331   3.450  0.3224  1.0243  2.0614
 2164SOL    HW3 8764   4.077   3.217   3.451  0.9470  1.5527  0.8709
 2164SOL    MW4 8765   4.004   3.255   3.482 -0.0610  0.1154  0.2899
 2165SOL     OW 8766   4.015   3.490   3.349 -0.0557  0.2707 -0.0031
 2165SOL    HW2 8767   4.102   3.522   3.372 -0.1660  1.3872 -1.0487
 2165SOL    HW3 8768   3.956   3.541   3.405 -0.0665 -0.0937  0.3161
 2165SOL    MW4 8769   4.019   3.501   3.360 -0.0715  0.3700 -0.0989
 2166SOL     OW 8770   4.253   3.604   3.461 -0.3426 -0.1908  0.1456
 2166SOL    HW2 8771   4.254   3.606   3.557  0.9066  0.5009  0.1245
 2166SOL    HW3 8772   4.264   3.695   3.435 -0.9490 -0.3419 -0.6665
 2166SOL    MW4 8773   4.255   3.616   3.470 -0.2575 -0.1197  0.0355
 2167SOL     OW 8774   4.259   3.895   3.389 -0.1852 -0.4262  0.0325
 2167SOL    HW2 8775   4.331   3.954   3.410 -0.4197 -0.2997  0.4963
 2167SOL    HW3 8776   4.266   3.879   3.295 -0.0677  0.2682 -0.0720
 2167SOL    MW4 8777   4.269   3.900   3.379 -0.2007 -0.3181  0.0801
 2168SOL     OW 8778   4.041   3.997   3.513  0.1312  0.0427 -0.1844
 2168SOL    HW2 8779   4.122   3.953   3.487  0.3722  0.6178 -0.4194
 2168SOL    HW3 8780   3.972   3.953   3.464  0.2700 -0.6367  0.2335
 2168SOL    MW4 8781   4.043   3.986   3.503  0.1817  0.0291 -0.1600
 2169SOL     OW 8782   4.027   4.258   3.388 -0.2055  0.2446  0.2911
 2169SOL    HW2 8783   4.021   4.171   3.429  0.6645  0.3407  0.6231
 2169SOL    HW3 8784   3.942   4.298   3.406 -0.0040  0.0992  1.6095
 2169SOL    MW4 8785   4.015   4.252   3.396 -0.0639  0.2379  0.5085
 2170SOL     OW 8786   4.258   4.391   3.519  0.4245 -0.7117  0.0129
 2170SOL    HW2 8787   4.251   4.399   3.614  1.2995  0.4275 -0.0174
 2170SOL    HW3 8788   4.178   4.345   3.494 -0.9088  0.9412  1.0665
 2170SOL    MW4 8789   4.246   4.386   3.528  0.3638 -0.3438  0.1478
 2171SOL     OW 8790   0.199   4.631   3.892 -0.0149 -0.1448 -0.1669
 2171SOL    HW2 8791   0.209   4.624   3.987  0.4312  2.6586  0.0387
 2171SOL    HW3 8792   0.115   4.677   3.880 -0.1958 -0.7168 -1.1276
 2171SOL    MW4 8793   0.189   4.637   3.903  0.0201  0.1502 -0.2668
 2172SOL     OW 8794   4.459   0.100   3.818  0.3556 -0.0553 -0.4687
 2172SOL    HW2 8795   4.469   0.188   3.854  0.6145 -0.2643 -0.0283
 2172SOL    HW3 8796   4.473   0.111   3.724 -1.4291  0.6788 -0.6725
 2172SOL    MW4 8797   4.462   0.113   3.810  0.1545  0.0140 -0.4375
 2173SOL     OW 8798   0.009   0.367   3.878 -0.0229 -0.0183 -0.3091
 2173SOL    HW2 8799  -0.072   0.391   3.833  0.1365 -0.5834 -0.9037
 2173SOL    HW3 8800   0.063   0.446   3.872 -0.2140  0.0904 -0.6268
 2173SOL    MW4 8801   0.006   0.381   3.871 -0.0271 -0.0785 -0.4296
 2174SOL     OW 8802   0.215   0.529   3.756  0.5898  0.2935  0.3448
 2174SOL    HW2 8803   0.224   0.624   3.769  0.8263  0.3432 -0.1325
 2174SOL    HW3 8804   0.209   0.520   3.661  1.0930 -0.2148  0.3599
 2174SOL    MW4 8805   0.216   0.541   3.745  0.6874  0.2330  0.2837
 2175SOL     OW 8806   0.264   0.790   3.824  0.0008 -0.3213 -0.1415
 2175SOL    HW2 8807   0.264   0.776   3.918 -0.8775  0.0301 -0.0830
 2175SOL    HW3 8808   0.181   0.834   3.806  0.6752  0.6608 -0.9237
 2175SOL    MW4 8809   0.253   0.794   3.834 -0.0261 -0.1454 -0.2370
 2176SOL     OW 8810   4.485   0.886   3.759 -0.0736 -0.2210 -0.7783
 2176SOL    HW2 8811   4.402   0.839   3.769  0.4361 -1.0986 -0.5572
 2176SOL    HW3 8812   4.485   0.951   3.830  1.1819 -2.9020  1.8147
 2176SOL    MW4 8813   4.474   0.888   3.770  0.1593 -0.6905 -0.4070
 2177SOL     OW 8814   4.486   1.141   3.892 -0.8124 -0.3171 -0.1449
 2177SOL    HW2 8815   4.406   1.189   3.870 -0.3517  0.7479  0.4679
 2177SOL    HW3 8816   4.557   1.190   3.851 -0.3661 -0.6499  0.2096
 2177SOL    MW4 8817   4.485   1.154   3.884 -0.6928 -0.2205 -0.0174
 2178SOL     OW 8818   0.211   1.266   3.766  0.2632 -0.0612  0.2448
 2178SOL    HW2 8819   0.209   1.354   3.805 -2.1984 -0.4871  1.1688
 2178SOL    HW3 8820   0.221   1.282   3.672  2.9430  1.0832  0.6946
 2178SOL    MW4 8821   0.212   1.280   3.759  0.2920  0.0336  0.4261
 2179SOL     OW 8822   0.219   1.543   3.828 -0.2128 -0.0621 -0.4078
 2179SOL    HW2 8823   0.209   1.557   3.922  0.2645 -0.3007 -0.3234
 2179SOL    HW3 8824   0.145   1.591   3.789  0.4284  1.2794 -0.0039
 2179SOL    MW4 8825   0.208   1.551   3.835 -0.0653  0.0834 -0.3438
 2180SOL     OW 8826   4.485   1.712   3.773  0.8349  0.1193 -0.0945
 2180SOL    HW2 8827   4.522   1.799   3.791  1.0811 -0.0035 -0.0080
 2180SOL    HW3 8828   4.483   1.707   3.677 -0.5749  0.8113 -0.1216
 2180SOL    MW4 8829   4.490   1.723   3.763  0.6814  0.1943 -0.0868
 2181SOL     OW 8830   0.024   1.955   3.908 -0.1212 -0.2936 -0.3566
 2181SOL    HW2 8831   0.015   1.951   4.003 -1.5014 -2.4669 -0.5250
 2181SOL    HW3 8832  -0.064   1.977   3.877  0.0410 -0.7463 -1.1659
 2181SOL    MW4 8833   0.011   1.957   3.917 -0.2819 -0.6403 -0.4857
 2182SOL     OW 8834   0.193   2.087   3.762  0.1297 -0.2515  0.2919
 2182SOL    HW2 8835   0.201   2.181   3.776 -0.6453 -0.0634 -0.4502
 2182SOL    HW3 8836   0.127   2.058   3.825 -0.8102 -0.0111 -0.5692
 2182SOL    MW4 8837   0.186   2.095   3.772 -0.0966 -0.1950  0.0806
 2183SOL     OW 8838   0.223   2.363   3.843  0.5726  0.0269 -0.1005
 2183SOL    HW2 8839   0.215   2.342   3.936  0.4054  0.2290 -0.0691
 2183SOL    HW3 8840   0.141   2.407   3.822  0.4482 -0.3591 -0.4353
 2183SOL    MW4 8841   0.211   2.366   3.853  0.5341  0.0026 -0.1407
 2184SOL     OW 8842   4.466   2.469   3.771 -0.4637 -0.0443 -0.6032
 2184SOL    HW2 8843   4.391   2.416   3.801 -0.8629 -0.0897 -1.6554
 2184SOL    HW3 8844   4.462   2.548   3.825 -0.3039 -0.7498  0.4663
 2184SOL    MW4 8845   4.455   2.473   3.782 -0.4950 -0.1433 -0.6008
 2185SOL     OW 8846   4.484   2.712   3.904 -0.7690 -0.7795  0.2059
 2185SOL    HW2 8847   4.499   2.721   3.998 -1.8100 -1.4711  0.4532
 2185SOL    HW3 8848   4.565   2.741   3.864 -0.5025  0.0226  1.3009
 2185SOL    MW4 8849   4.497   2.717   3.911 -0.8712 -0.7648  0.3829
 2186SOL     OW 8850   0.229   2.799   3.797  0.3400 -0.0831 -0.0511
 2186SOL    HW2 8851   0.319   2.782   3.823  0.5837 -1.0349 -1.4484
 2186SOL    HW3 8852   0.228   2.787   3.702 -1.0959  0.6351 -0.1472
 2186SOL    MW4 8853   0.241   2.795   3.788  0.1827 -0.1142 -0.2480
 2187SOL     OW 8854   0.179   3.055   3.855  0.0220 -0.1593 -0.3405
 2187SOL    HW2 8855   0.191   3.060   3.950 -0.1892 -0.4098 -0.2968
 2187SOL    HW3 8856   0.192   2.962   3.835 -0.7294 -0.2472 -0.4400
 2187SOL    MW4 8857   0.182   3.043   3.865 -0.1050 -0.2038 -0.3479
 2188SOL     OW 8858   4.485   3.262   3.797 -0.4164 -0.5932 -0.3729
 2188SOL    HW2 8859   4.538   3.184   3.816  0.1464  0.0266  0.6557
 2188SOL    HW3 8860   4.484   3.267   3.702  2.6714  0.2272 -0.4261
 2188SOL    MW4 8861   4.492   3.252   3.787  0.0648 -0.4032 -0.2444
 2189SOL     OW 8862   4.468   3.525   3.865 -0.0072 -0.0016 -0.0393
 2189SOL    HW2 8863   4.554   3.557   3.837  0.1794 -0.8880 -0.5130
 2189SOL    HW3 8864   4.472   3.430   3.850 -0.7757 -0.1565  0.7112
 2189SOL    MW4 8865   4.480   3.517   3.859 -0.0839 -0.1392 -0.0029
 2190SOL     OW 8866   0.205   3.611   3.744 -0.1097  0.1482  0.3809
 2190SOL    HW2 8867   0.285   3.565   3.769  0.9672  0.3833 -2.4554
 2190SOL    HW3 8868   0.213   3.696   3.787  0.4392 -0.3904  1.3593
 2190SOL    MW4 8869   0.217   3.616   3.753  0.1048  0.1082  0.1359
 2191SOL     OW 8870   0.203   3.846   3.892 -0.1987 -0.0994  0.0832
 2191SOL    HW2 8871   0.197   3.863   3.986  1.0615 -1.5177  0.4348
 2191SOL    HW3 8872   0.278   3.898   3.863  0.7923 -1.3967  0.2917
 2191SOL    MW4 8873   0.212   3.856   3.901  0.0983 -0.4575  0.1571
 2192SOL     OW 8874   4.486   3.989   3.775 -0.0477  0.0348 -0.0053
 2192SOL    HW2 8875   4.407   3.941   3.800  0.6212 -0.5548  1.0059
 2192SOL    HW3 8876   4.554   3.954   3.833  1.4165 -0.9706 -2.2829
 2192SOL    MW4 8877   4.484   3.978   3.786  0.2337 -0.1755 -0.1724
 2193SOL     OW 8878   4.457   4.260   3.916 -0.2581 -0.0295  0.0645
 2193SOL    HW2 8879   4.522   4.308   3.865 -0.4793  1.8127  1.4650
 2193SOL    HW3 8880   4.457   4.172   3.878  2.9907 -0.0544 -0.0042
 2193SOL    MW4 8881   4.466   4.255   3.904  0.1407  0.2103  0.2401
 2194SOL     OW 8882   0.176   4.385   3.781 -0.2906 -0.1880 -0.3047
 2194SOL    HW2 8883   0.257   4.340   3.803 -0.5504 -0.6316 -0.2280
 2194SOL    HW3 8884   0.184   4.471   3.821  0.1248 -0.2434 -0.2661
 2194SOL    MW4 8885   0.187   4.390   3.789 -0.2701 -0.2537 -0.2897
 2195SOL     OW 8886   0.643   4.656   3.846 -0.1699 -0.0052  0.3498
 2195SOL    HW2 8887   0.631   4.562   3.840 -1.0696  0.0773  0.8677
 2195SOL    HW3 8888   0.555   4.693   3.837  0.1558  0.7815  0.2759
 2195SOL    MW4 8889   0.630   4.649   3.844 -0.2456  0.1097  0.4084
 2196SOL     OW 8890   0.401   0.117   3.749  0.8142  0.2793  0.0614
 2196SOL    HW2 8891   0.401   0.206   3.786  0.4137  1.1104 -1.8556
 2196SOL    HW3 8892   0.323   0.076   3.786  0.1271  1.2720 -0.2400
 2196SOL    MW4 8893   0.391   0.124   3.758  0.6706  0.5199 -0.2310
 2197SOL     OW 8894   0.418   0.377   3.838  0.0743 -0.3932 -0.0988
 2197SOL    HW2 8895   0.499   0.414   3.804  1.0006  0.4732  2.8857
 2197SOL    HW3 8896   0.350   0.437   3.807  1.0249  1.0178  0.4614
 2197SOL    MW4 8897   0.420   0.390   3.830  0.3220 -0.0928  0.3691
 2198SOL     OW 8898   0.653   0.503   3.758 -0.2388  0.3432  0.3890
 2198SOL    HW2 8899   0.730   0.454   3.788 -0.5833  0.3284  1.2438
 2198SOL    HW3 8900   0.672   0.593   3.782 -0.4485  0.3527  0.5138
 2198SOL    MW4 8901   0.666   0.508   3.765 -0.3120  0.3425  0.5183
 2199SOL     OW 8902   0.713   0.773   3.782 -0.7916 -0.0793  0.0917
 2199SOL    HW2 8903   0.792   0.825   3.767 -0.6460 -0.7118 -1.3807
 2199SOL    HW3 8904   0.642   0.823   3.742 -0.8560 -0.3577 -0.1467
 2199SOL    MW4 8905   0.714   0.786   3.775 -0.7809 -0.1995 -0.1342
 2200SOL     OW 8906   0.479   0.939   3.718  0.0705 -0.1687 -0.3833
 2200SOL    HW2 8907   0.462   1.018   3.770  1.2692 -0.3370  0.2681
 2200SOL    HW3 8908   0.409   0.879   3.743 -0.3362  0.3581 -0.2274
 2200SOL    MW4 8909   0.467   0.942   3.728  0.1750 -0.1214 -0.2766
 2201SOL     OW 8910   0.461   1.173   3.874  0.4269 -0.4479  0.0253
 2201SOL    HW2 8911   0.531   1.219   3.828  1.0428 -1.4928 -0.0775
 2201SOL    HW3 8912   0.382   1.194   3.824  1.0523 -1.3885 -1.3798
 2201SOL    MW4 8913   0.460   1.182   3.861  0.5907 -0.7098 -0.1736
 2202SOL     OW 8914   0.685   1.332   3.746 -0.4277  0.4468 -0.1072
 2202SOL    HW2 8915   0.765   1.288   3.777 -0.0517  1.5537  0.5261
 2202SOL    HW3 8916   0.680   1.309   3.653  0.8506  0.6690 -0.2455
 2202SOL    MW4 8917   0.695   1.323   3.738 -0.2094  0.6222 -0.0420
 2203SOL     OW 8918   0.690   1.594   3.808 -0.4084  0.2745 -0.1211
 2203SOL    HW2 8919   0.779   1.621   3.787  0.3580 -1.3413  0.9409
 2203SOL    HW3 8920   0.691   1.499   3.798 -1.9161  0.2054  0.2658
 2203SOL    MW4 8921   0.702   1.585   3.804 -0.5062  0.0523  0.0701
 2204SOL     OW 8922   0.430   1.699   3.762 -0.1551 -0.0961  0.1067
 2204SOL    HW2 8923   0.512   1.658   3.789 -0.1486 -0.8013 -0.9399
 2204SOL    HW3 8924   0.362   1.642   3.799 -0.1465 -1.2731 -1.5841
 2204SOL    MW4 8925   0.432   1.686   3.770 -0.1531 -0.3445 -0.2546
 2205SOL     OW 8926   0.441   1.967   3.829  0.1332 -0.2619 -0.0182
 2205SOL    HW2 8927   0.440   1.876   3.801  1.5466 -0.6950  1.2676
 2205SOL    HW3 8928   0.353   1.999   3.811 -0.5721 -2.0830  0.1385
 2205SOL    MW4 8929   0.429   1.960   3.823  0.2266 -0.5593  0.1724
 2206SOL     OW 8930   0.680   2.073   3.769  0.3797 -0.0478  0.3586
 2206SOL    HW2 8931   0.668   2.159   3.809  0.2652 -0.2742  0.8136
 2206SOL    HW3 8932   0.597   2.028   3.782  0.5049 -0.3000  0.2997
 2206SOL    MW4 8933   0.668   2.078   3.776  0.3811 -0.1109  0.4113
 2207SOL     OW 8934   0.666   2.315   3.886  0.1547  0.0269  0.0065
 2207SOL    HW2 8935   0.746   2.350   3.846  0.4590 -1.8290 -1.0631
 2207SOL    HW3 8936   0.595   2.367   3.847  0.6980  0.4863 -0.3799
 2207SOL    MW4 8937   0.667   2.327   3.876  0.2664 -0.1574 -0.1857
 2208SOL     OW 8938   0.467   2.470   3.775  0.0538  0.2666  0.1455
 2208SOL    HW2 8939   0.378   2.457   3.808 -0.5650  3.0185 -0.3119
 2208SOL    HW3 8940   0.460   2.454   3.680  0.4079 -1.1252  0.3488
 2208SOL    MW4 8941   0.454   2.466   3.767  0.0189  0.4461  0.1118
 2209SOL     OW 8942   0.509   2.731   3.849  0.4214 -0.0054 -0.4598
 2209SOL    HW2 8943   0.586   2.768   3.806 -0.3665  0.2520 -1.6717
 2209SOL    HW3 8944   0.503   2.641   3.815 -0.1652  0.1769 -0.8445
 2209SOL    MW4 8945   0.518   2.724   3.839  0.2400  0.0527 -0.6702
 2210SOL     OW 8946   0.723   2.838   3.725 -0.1092  0.1467 -0.0886
 2210SOL    HW2 8947   0.795   2.778   3.747 -1.4067 -0.6476  2.1232
 2210SOL    HW3 8948   0.703   2.817   3.633  2.2004  0.1284 -0.6340
 2210SOL    MW4 8949   0.730   2.827   3.716  0.0244  0.0398  0.1311
 2211SOL     OW 8950   0.657   3.105   3.811  0.3970 -0.0417 -0.1149
 2211SOL    HW2 8951   0.674   3.098   3.905  1.4689 -0.2505 -0.3199
 2211SOL    HW3 8952   0.695   3.025   3.774  0.5225  0.3350 -0.8029
 2211SOL    MW4 8953   0.664   3.093   3.819  0.5549 -0.0198 -0.2329
 2212SOL     OW 8954   0.389   3.197   3.765 -0.1335 -0.0854  0.2182
 2212SOL    HW2 8955   0.472   3.160   3.796 -0.3273 -0.7868 -0.0972
 2212SOL    HW3 8956   0.322   3.151   3.814 -0.3698 -0.0159 -0.0407
 2212SOL    MW4 8957   0.391   3.186   3.775 -0.1903 -0.1686  0.1428
 2213SOL     OW 8958   0.412   3.452   3.857 -0.4292 -0.3070  0.0454
 2213SOL    HW2 8959   0.498   3.482   3.828 -0.1058  0.2890  1.6149
 2213SOL    HW3 8960   0.403   3.365   3.817  1.6990 -1.1760  1.3455
 2213SOL    MW4 8961   0.422   3.444   3.848 -0.1057 -0.3431  0.4239
 2214SOL     OW 8962   0.630   3.587   3.726 -0.4018  0.0845 -0.4831
 2214SOL    HW2 8963   0.614   3.668   3.775  0.2421  0.3627 -0.7280
 2214SOL    HW3 8964   0.635   3.615   3.635  0.8945 -0.0800 -0.4700
 2214SOL    MW4 8965   0.628   3.601   3.720 -0.1459  0.0994 -0.5138
 2215SOL     OW 8966   0.658   3.834   3.860  0.6176 -0.1373 -0.4027
 2215SOL    HW2 8967   0.659   3.848   3.955 -0.1296  1.0631 -0.5603
 2215SOL    HW3 8968   0.739   3.875   3.830  0.4310  0.2466 -0.3834
 2215SOL    MW4 8969   0.669   3.841   3.868  0.4944  0.0718 -0.4208
 2216SOL     OW 8970   0.418   3.973   3.767  0.3229  0.2567 -0.5704
 2216SOL    HW2 8971   0.501   3.934   3.795 -0.0120  0.8629  1.2826
 2216SOL    HW3 8972   0.425   3.977   3.671  2.2549 -0.0867 -0.4622
 2216SOL    MW4 8973   0.430   3.968   3.758  0.5336  0.2913 -0.3114
 2217SOL     OW 8974   0.404   4.229   3.859  0.1986  0.2908  0.1695
 2217SOL    HW2 8975   0.481   4.268   3.818 -0.0107 -1.2418 -1.7472
 2217SOL    HW3 8976   0.397   4.142   3.821 -2.5820  0.4574  0.1686
 2217SOL    MW4 8977   0.413   4.223   3.849 -0.1959  0.1106 -0.0834
 2218SOL     OW 8978   0.623   4.399   3.781 -0.0870 -0.1841 -0.4102
 2218SOL    HW2 8979   0.704   4.361   3.813  0.1677 -0.6257 -1.5308
 2218SOL    HW3 8980   0.631   4.396   3.685 -1.4519 -0.3197 -0.5394
 2218SOL    MW4 8981   0.635   4.394   3.772 -0.2335 -0.2599 -0.5751
 2219SOL     OW 8982   1.086   4.647   3.913 -0.5110 -0.4819 -0.0257
 2219SOL    HW2 8983   1.179   4.659   3.894 -0.1382 -1.1477  1.3185
 2219SOL    HW3 8984   1.063   4.566   3.867 -0.7864  0.4228 -1.5174
 2219SOL    MW4 8985   1.095   4.638   3.904 -0.4981 -0.4497 -0.0451
 2220SOL     OW 8986   0.882   0.104   3.747  0.1940 -0.5815 -0.2718
 2220SOL    HW2 8987   0.952   0.088   3.810  0.3643  2.7652  0.4489
 2220SOL    HW3 8988   0.805   0.060   3.784  0.6868 -0.0127  1.4411
 2220SOL    MW4 8989   0.881   0.096   3.760  0.2815 -0.0649  0.0494
 2221SOL     OW 8990   0.875   0.363   3.846 -0.2366  0.1704 -0.2285
 2221SOL    HW2 8991   0.868   0.359   3.941  0.1783 -0.4060 -0.2210
 2221SOL    HW3 8992   0.877   0.272   3.817 -2.1469  0.3310 -0.9363
 2221SOL    MW4 8993   0.875   0.351   3.855 -0.4339  0.1155 -0.3209
 2222SOL     OW 8994   1.138   0.495   3.811 -0.0089 -0.6415 -0.3061
 2222SOL    HW2 8995   1.211   0.444   3.847 -1.6722 -1.6872  1.7017
 2222SOL    HW3 8996   1.060   0.444   3.832 -1.3232  0.2070 -2.8437
 2222SOL    MW4 8997   1.137   0.482   3.818 -0.4016 -0.6675 -0.3757
 2223SOL     OW 8998   1.099   0.771   3.845  0.3076  0.1958 -0.3038
 2223SOL    HW2 8999   1.103   0.778   3.940  1.1181  0.1277 -0.3309
 2223SOL    HW3 9000   1.089   0.677   3.828  0.4991  0.1760 -0.3012
 2223SOL    MW4 9001   1.098   0.760   3.855  0.4396  0.1842 -0.3071
 2224SOL     OW 9002   0.920   0.956   3.720 -0.1372 -0.0512 -0.2915
 2224SOL    HW2 9003   0.977   0.886   3.751 -0.3289  0.4047  1.1205
 2224SOL    HW3 9004   0.930   0.955   3.625  1.0744 -0.9537 -0.1623
 2224SOL    MW4 9005   0.929   0.947   3.712 -0.0026 -0.1101 -0.0882
 2225SOL     OW 9006   0.897   1.189   3.859 -0.0686 -0.0508 -0.0116
 2225SOL    HW2 9007   0.914   1.190   3.953  0.0217  0.4689 -0.0369
 2225SOL    HW3 9008   0.898   1.096   3.836 -0.4695 -0.2034  0.5707
 2225SOL    MW4 9009   0.899   1.177   3.868 -0.1096 -0.0024  0.0620
 2226SOL     OW 9010   1.138   1.303   3.737 -0.0848  0.3057 -0.3023
 2226SOL    HW2 9011   1.120   1.396   3.751 -0.1224  0.4403 -1.2021
 2226SOL    HW3 9012   1.058   1.259   3.765 -0.9662  0.7289 -2.0513
 2226SOL    MW4 9013   1.125   1.309   3.743 -0.2060  0.3793 -0.6518
 2227SOL     OW 9014   1.153   1.571   3.816  0.1217 -0.5468 -0.2929
 2227SOL    HW2 9015   1.158   1.562   3.911  0.5278  0.4088 -0.2111
 2227SOL    HW3 9016   1.242   1.596   3.789 -0.2151  0.1291 -0.8063
 2227SOL    MW4 9017   1.166   1.573   3.825  0.1308 -0.3315 -0.3500
 2228SOL     OW 9018   0.937   1.721   3.749 -0.2017  0.4435 -0.1673
 2228SOL    HW2 9019   1.015   1.674   3.777 -0.6226  0.2050  0.6374
 2228SOL    HW3 9020   0.940   1.720   3.653  1.1278  1.0310 -0.1379
 2228SOL    MW4 9021   0.947   1.715   3.740 -0.0818  0.4896 -0.0572
 2229SOL     OW 9022   0.907   1.963   3.891  0.2274 -0.0801  0.0192
 2229SOL    HW2 9023   0.923   1.879   3.848  1.1290  0.3869 -0.5570
 2229SOL    HW3 9024   0.826   1.995   3.850 -0.5086 -0.9770  0.7353
 2229SOL    MW4 9025   0.898   1.956   3.880  0.2493 -0.1367  0.0377
 2230SOL     OW 9026   1.152   2.024   3.773 -0.2278 -0.2186  0.0538
 2230SOL    HW2 9027   1.062   2.014   3.805 -0.8564 -0.5204 -1.7440
 2230SOL    HW3 9028   1.146   2.007   3.679  1.8988 -1.3002  0.0860
 2230SOL    MW4 9029   1.139   2.020   3.765 -0.0302 -0.4010 -0.1793
 2231SOL     OW 9030   1.174   2.288   3.866 -0.2165 -0.0736  0.1976
 2231SOL    HW2 9031   1.194   2.280   3.959  2.2491  1.5243 -0.1690
 2231SOL    HW3 9032   1.170   2.197   3.835 -0.5463 -0.5976  1.7308
 2231SOL    MW4 9033   1.176   2.275   3.874  0.0653  0.0679  0.3517
 2232SOL     OW 9034   0.913   2.397   3.762 -0.1795  0.2227 -0.3440
 2232SOL    HW2 9035   0.942   2.483   3.791 -1.5083  0.6379 -0.1785
 2232SOL    HW3 9036   0.986   2.338   3.782  0.6956  1.2890 -0.3626
 2232SOL    MW4 9037   0.926   2.401   3.768 -0.2394  0.4179 -0.3242
 2233SOL     OW 9038   0.911   2.670   3.811 -0.2000 -0.3431  0.0952
 2233SOL    HW2 9039   0.878   2.666   3.901 -0.5889  1.8589  0.0845
 2233SOL    HW3 9040   0.996   2.712   3.818 -0.4187  0.2322 -0.5875
 2233SOL    MW4 9041   0.918   2.675   3.824 -0.2801  0.0234  0.0036
 2234SOL     OW 9042   1.146   2.833   3.774 -0.2936 -0.5694 -0.3103
 2234SOL    HW2 9043   1.226   2.789   3.802 -0.7473 -0.7971  0.6833
 2234SOL    HW3 9044   1.151   2.920   3.813  0.0280 -0.1753 -1.2415
 2234SOL    MW4 9045   1.157   2.839   3.783 -0.3110 -0.5474 -0.3021
 2235SOL     OW 9046   1.151   3.094   3.876 -0.0526  0.1753 -0.3218
 2235SOL    HW2 9047   1.217   3.129   3.816  0.7699 -0.1518  0.3846
 2235SOL    HW3 9048   1.069   3.135   3.849  0.5110  0.8670 -0.9704
 2235SOL    MW4 9049   1.149   3.104   3.865  0.1303  0.2234 -0.3142
 2236SOL     OW 9050   0.914   3.208   3.762 -0.1072  0.1129 -0.1745
 2236SOL    HW2 9051   0.832   3.167   3.789  0.8242 -1.1094  0.8741
 2236SOL    HW3 9052   0.905   3.221   3.668 -0.9497 -1.2890 -0.2988
 2236SOL    MW4 9053   0.902   3.204   3.753 -0.0954 -0.2334 -0.0527
 2237SOL     OW 9054   0.880   3.489   3.841  0.4127  0.0262  0.0158
 2237SOL    HW2 9055   0.893   3.399   3.813  1.3193  0.8238 -2.2073
 2237SOL    HW3 9056   0.793   3.512   3.809  0.3439  0.0762  0.2352
 2237SOL    MW4 9057   0.870   3.480   3.833  0.5232  0.1380 -0.2484
 2238SOL     OW 9058   1.068   3.647   3.746 -0.2990 -0.1782  0.5020
 2238SOL    HW2 9059   1.082   3.714   3.813 -0.2872 -0.6460  0.9772
 2238SOL    HW3 9060   1.000   3.591   3.783 -1.3644  0.4179 -0.5325
 2238SOL    MW4 9061   1.061   3.648   3.760 -0.4380 -0.1614  0.4280
 2239SOL     OW 9062   1.110   3.850   3.899  0.3779 -0.0314 -0.0212
 2239SOL    HW2 9063   1.119   3.834   3.993  0.2525 -0.8511 -0.1422
 2239SOL    HW3 9064   1.192   3.892   3.873  0.4293  0.1528  0.4486
 2239SOL    MW4 9065   1.122   3.853   3.908  0.3682 -0.1152  0.0248
 2240SOL     OW 9066   0.878   3.969   3.781 -0.1018  0.6065  0.1566
 2240SOL    HW2 9067   0.950   3.914   3.812 -1.1016 -0.7127  0.2149
 2240SOL    HW3 9068   0.897   3.983   3.688 -1.1427 -2.0365 -0.5162
 2240SOL    MW4 9069   0.890   3.963   3.773 -0.3711  0.0837  0.0751
 2241SOL     OW 9070   0.850   4.249   3.835 -0.2242 -0.2792 -0.6537
 2241SOL    HW2 9071   0.827   4.242   3.927 -2.5856  0.1964 -1.1731
 2241SOL    HW3 9072   0.857   4.158   3.805 -3.0174 -0.4911 -0.8157
 2241SOL    MW4 9073   0.848   4.236   3.843 -0.9044 -0.2441 -0.7436
 2242SOL     OW 9074   1.099   4.376   3.803  0.2619 -0.0056  0.5282
 2242SOL    HW2 9075   1.021   4.322   3.817 -0.7666  0.7576 -1.8378
 2242SOL    HW3 9076   1.104   4.385   3.708  2.3827  1.2371  0.7331
 2242SOL    MW4 9077   1.089   4.370   3.792  0.4060  0.2589  0.2432
 2243SOL     OW 9078   1.577   4.626   3.895 -0.1154 -0.1903 -0.9088
 2243SOL    HW2 9079   1.555   4.620   3.988  0.9394 -0.6528 -0.6798
 2243SOL    HW3 9080   1.569   4.536   3.863  1.9273 -0.4719 -0.6944
 2243SOL    MW4 9081   1.573   4.613   3.903  0.2931 -0.2885 -0.8504
 2244SOL     OW 9082   1.340   0.100   3.807  0.4239  0.2076 -0.2002
 2244SOL    HW2 9083   1.343   0.182   3.855  2.3311  0.1728 -0.2366
 2244SOL    HW3 9084   1.413   0.049   3.842 -0.5984 -1.3856 -0.3347
 2244SOL    MW4 9085   1.350   0.104   3.818  0.5407 -0.0072 -0.2229
 2245SOL     OW 9086   1.347   0.345   3.927 -0.2523  0.2250 -0.2373
 2245SOL    HW2 9087   1.340   0.350   4.022 -0.0701  0.2522 -0.2254
 2245SOL    HW3 9088   1.415   0.408   3.905 -0.2223  0.1431 -0.3771
 2245SOL    MW4 9089   1.355   0.354   3.937 -0.2242  0.2178 -0.2546
 2246SOL     OW 9090   1.558   0.471   3.806  0.0951  0.2853  0.4877
 2246SOL    HW2 9091   1.637   0.419   3.821  1.0927  1.6983  0.2409
 2246SOL    HW3 9092   1.582   0.559   3.835 -1.2679  0.8134  0.0298
 2246SOL    MW4 9093   1.572   0.476   3.812  0.0468  0.5414  0.3948
 2247SOL     OW 9094   1.563   0.753   3.834 -0.9711 -0.1134  0.4743
 2247SOL    HW2 9095   1.631   0.803   3.789 -0.3009 -0.5045  1.0475
 2247SOL    HW3 9096   1.482   0.800   3.815 -0.3145  1.3373  1.2209
 2247SOL    MW4 9097   1.561   0.766   3.826 -0.7961  0.0264  0.6485
 2248SOL     OW 9098   1.326   0.891   3.747  0.4331 -0.3477  0.1395
 2248SOL    HW2 9099   1.309   0.981   3.776 -2.5141 -0.1072 -2.1213
 2248SOL    HW3 9100   1.257   0.839   3.787  0.9382 -1.2754 -0.1730
 2248SOL    MW4 9101   1.315   0.896   3.756  0.1109 -0.4383 -0.2000
 2249SOL     OW 9102   1.336   1.143   3.840 -0.1930 -0.3850 -0.1604
 2249SOL    HW2 9103   1.422   1.171   3.810  0.2330 -1.0488  0.4155
 2249SOL    HW3 9104   1.275   1.207   3.804  0.5279  0.0014 -0.6936
 2249SOL    MW4 9105   1.339   1.155   3.831 -0.0416 -0.4216 -0.1547
 2250SOL     OW 9106   1.570   1.254   3.740  0.0115 -0.4701  0.0444
 2250SOL    HW2 9107   1.638   1.209   3.789  0.8236 -0.2258 -0.8380
 2250SOL    HW3 9108   1.574   1.345   3.771  0.8795 -0.1979 -0.8265
 2250SOL    MW4 9109   1.579   1.260   3.750  0.2332 -0.4020 -0.1867
 2251SOL     OW 9110   1.629   1.550   3.858  0.4546  0.0680 -0.0224
 2251SOL    HW2 9111   1.645   1.559   3.952  0.7940  0.9352 -0.1595
 2251SOL    HW3 9112   1.710   1.581   3.817  0.2389 -0.1389 -0.6059
 2251SOL    MW4 9113   1.642   1.556   3.865  0.4710  0.1551 -0.1173
 2252SOL     OW 9114   1.399   1.641   3.748 -0.5173 -0.1580  0.1103
 2252SOL    HW2 9115   1.404   1.726   3.792 -1.1573 -1.0101  1.8636
 2252SOL    HW3 9116   1.476   1.593   3.778 -0.8875 -0.6990  0.2087
 2252SOL    MW4 9117   1.410   1.646   3.757 -0.6506 -0.3417  0.3543
 2253SOL     OW 9118   1.377   1.894   3.870  0.2639  0.1963  0.1191
 2253SOL    HW2 9119   1.375   1.888   3.965  0.0836 -0.3008  0.0869
 2253SOL    HW3 9120   1.290   1.925   3.846  0.5045  0.9193  0.1495
 2253SOL    MW4 9121   1.365   1.897   3.879  0.2719  0.2261  0.1190
 2254SOL     OW 9122   1.574   2.057   3.757 -0.1783  0.2511  0.0884
 2254SOL    HW2 9123   1.497   2.012   3.791  0.4849 -0.3885  0.7719
 2254SOL    HW3 9124   1.573   2.041   3.662 -0.7566  0.0545  0.1318
 2254SOL    MW4 9125   1.564   2.049   3.749 -0.1670  0.1407  0.1845
 2255SOL     OW 9126   1.595   2.321   3.856  0.5740 -0.2148 -0.1020
 2255SOL    HW2 9127   1.683   2.359   3.860 -0.0023  1.1512 -0.3042
 2255SOL    HW3 9128   1.610   2.231   3.827  2.1829 -1.0156  3.0126
 2255SOL    MW4 9129   1.609   2.314   3.853  0.7104 -0.1402  0.2825
 2256SOL     OW 9130   1.374   2.440   3.729 -0.2623 -0.2981 -0.4910
 2256SOL    HW2 9131   1.461   2.408   3.753 -0.6676 -2.0604 -1.3019
 2256SOL    HW3 9132   1.314   2.382   3.775 -1.0113 -0.8109 -2.0883
 2256SOL    MW4 9133   1.378   2.428   3.738 -0.4147 -0.5984 -0.8087
 2257SOL     OW 9134   1.362   2.691   3.844 -0.1286 -0.2366 -0.1633
 2257SOL    HW2 9135   1.345   2.688   3.938  1.0760 -0.7491  0.0437
 2257SOL    HW3 9136   1.368   2.599   3.818 -1.1790 -0.1126 -0.8836
 2257SOL    MW4 9137   1.361   2.679   3.853 -0.1082 -0.2878 -0.2310
 2258SOL     OW 9138   1.604   2.822   3.788  0.1296  0.3440  0.1604
 2258SOL    HW2 9139   1.524   2.779   3.817 -0.1341  1.2028  0.7094
 2258SOL    HW3 9140   1.609   2.802   3.694 -0.4980 -0.0570  0.2096
 2258SOL    MW4 9141   1.594   2.813   3.779  0.0120  0.4044  0.2394
 2259SOL     OW 9142   1.628   3.090   3.878 -0.4445 -0.3653 -0.1677
 2259SOL    HW2 9143   1.591   3.094   3.967 -0.1186 -1.2052  0.0072
 2259SOL    HW3 9144   1.609   3.001   3.849 -0.0701 -0.2561 -0.7383
 2259SOL    MW4 9145   1.620   3.079   3.886 -0.3521 -0.4618 -0.2201
 2260SOL     OW 9146   1.397   3.251   3.773  0.6026 -0.1413  0.1612
 2260SOL    HW2 9147   1.375   3.325   3.830 -0.0255  0.4211 -0.7986
 2260SOL    HW3 9148   1.472   3.210   3.816 -0.5202 -0.3728  1.9678
 2260SOL    MW4 9149   1.404   3.255   3.786  0.3716 -0.0978  0.2730
 2261SOL     OW 9150   1.275   3.515   3.898 -0.1664 -0.3617  0.0878
 2261SOL    HW2 9151   1.359   3.545   3.864  0.1355 -0.3533  0.8257
 2261SOL    HW3 9152   1.210   3.563   3.846  0.2996  0.5902  0.3558
 2261SOL    MW4 9153   1.277   3.526   3.887 -0.0651 -0.2346  0.2205
 2262SOL     OW 9154   1.534   3.579   3.777 -0.3457 -0.2402 -0.2277
 2262SOL    HW2 9155   1.600   3.514   3.802  0.7512 -0.7872 -4.2260
 2262SOL    HW3 9156   1.558   3.658   3.826  1.6344 -1.2333  0.4659
 2262SOL    MW4 9157   1.546   3.581   3.787  0.0602 -0.4432 -0.6635
 2263SOL     OW 9158   1.544   3.837   3.889 -0.2601  0.6027  0.5178
 2263SOL    HW2 9159   1.539   3.860   3.982  1.4453  0.0427  0.7722
 2263SOL    HW3 9160   1.487   3.900   3.846  0.7777  2.4200  1.7009
 2263SOL    MW4 9161   1.536   3.849   3.896  0.1019  0.7684  0.7074
 2264SOL     OW 9162   1.345   3.998   3.805 -0.0429  0.1157  0.1634
 2264SOL    HW2 9163   1.355   4.083   3.848 -1.2754  0.2170  0.2624
 2264SOL    HW3 9164   1.328   4.019   3.713  1.5343 -0.0788 -0.1929
 2264SOL    MW4 9165   1.345   4.012   3.799  0.0024  0.1035  0.1295
 2265SOL     OW 9166   1.337   4.255   3.890 -0.0505 -0.0618  0.3327
 2265SOL    HW2 9167   1.406   4.301   3.841  0.8806  0.2844  1.9351
 2265SOL    HW3 9168   1.256   4.300   3.866  0.3617 -0.0232 -1.0347
 2265SOL    MW4 9169   1.336   4.267   3.880  0.1267 -0.0110  0.3636
 2266SOL     OW 9170   1.555   4.369   3.766 -0.3251  0.0766  0.7317
 2266SOL    HW2 9171   1.628   4.313   3.794  0.2829  0.6504  0.3217
 2266SOL    HW3 9172   1.564   4.373   3.670 -1.8183 -1.1039  0.5222
 2266SOL    MW4 9173   1.566   4.362   3.757 -0.4418 -0.0038  0.6499
 2267SOL     OW 9174   2.006   4.619   3.859  0.1387 -0.1309  0.0677
 2267SOL    HW2 9175   2.078   4.653   3.806 -0.8700  0.4533 -0.9614
 2267SOL    HW3 9176   1.998   4.528   3.832  1.3012 -0.5555  1.1047
 2267SOL    MW4 9177   2.015   4.612   3.848  0.1590 -0.1101  0.0684
 2268SOL     OW 9178   1.794   0.084   3.743 -0.2902 -0.6139  0.2876
 2268SOL    HW2 9179   1.878   0.050   3.772  0.5428  0.0211 -1.2965
 2268SOL    HW3 9180   1.729   0.031   3.789  0.9752 -2.2528  0.2213
 2268SOL    MW4 9181   1.796   0.073   3.753 -0.0132 -0.7463  0.0701
 2269SOL     OW 9182   1.804   0.343   3.833 -0.2048 -0.3487  0.2257
 2269SOL    HW2 9183   1.818   0.345   3.928  0.5338 -1.9166  0.1716
 2269SOL    HW3 9184   1.791   0.250   3.813 -1.8873  0.1156 -1.0079
 2269SOL    MW4 9185   1.804   0.331   3.843 -0.3294 -0.4943  0.0556
 2270SOL     OW 9186   2.039   0.502   3.780  0.1275 -0.4414  0.1842
 2270SOL    HW2 9187   1.963   0.450   3.808 -0.8058  0.5763 -0.3997
 2270SOL    HW3 9188   2.027   0.510   3.685  0.7863  0.0295  0.1444
 2270SOL    MW4 9189   2.027   0.496   3.771  0.0911 -0.2450  0.1018
 2271SOL     OW 9190   2.044   0.770   3.872 -0.5816  0.3149  0.3783
 2271SOL    HW2 9191   2.035   0.787   3.965 -0.9666 -0.3907  0.4769
 2271SOL    HW3 9192   2.046   0.674   3.865 -0.9059  0.3530 -0.3614
 2271SOL    MW4 9193   2.043   0.760   3.883 -0.6754  0.2269  0.2940
 2272SOL     OW 9194   1.796   0.883   3.746  0.2220 -0.1188 -0.0690
 2272SOL    HW2 9195   1.875   0.852   3.790  0.9613  1.7666 -0.0379
 2272SOL    HW3 9196   1.823   0.898   3.655 -0.0615  0.6111 -0.0417
 2272SOL    MW4 9197   1.810   0.881   3.740  0.2823  0.2263 -0.0613
 2273SOL     OW 9198   1.742   1.114   3.891 -0.0653 -0.1027 -0.1328
 2273SOL    HW2 9199   1.699   1.092   3.973 -1.1169  1.2902 -0.2871
 2273SOL    HW3 9200   1.758   1.029   3.849  0.5420 -0.8179  1.5291
 2273SOL    MW4 9201   1.738   1.100   3.896 -0.1240 -0.0134  0.0665
 2274SOL     OW 9202   2.055   1.233   3.714  0.3431  0.6190  0.2731
 2274SOL    HW2 9203   2.126   1.190   3.762 -0.0609  1.3780  1.5816
 2274SOL    HW3 9204   1.995   1.263   3.783 -1.5930 -0.5983 -0.8389
 2274SOL    MW4 9205   2.057   1.231   3.730  0.0343  0.5585  0.2990
 2275SOL     OW 9206   2.072   1.551   3.897  0.2319  0.1444  0.4149
 2275SOL    HW2 9207   2.003   1.592   3.846  0.3218 -0.9090 -0.5939
 2275SOL    HW3 9208   2.047   1.458   3.901  0.6900  0.0637  1.5214
 2275SOL    MW4 9209   2.060   1.544   3.890  0.3042 -0.0052  0.4280
 2276SOL     OW 9210   1.859   1.658   3.758 -0.4788  0.1121  0.0358
 2276SOL    HW2 9211   1.837   1.742   3.798 -0.8741 -0.0408  0.1391
 2276SOL    HW3 9212   1.842   1.669   3.665 -0.9272  0.0170  0.1052
 2276SOL    MW4 9213   1.854   1.670   3.751 -0.5901  0.0794  0.0584
 2277SOL     OW 9214   1.782   1.932   3.877 -0.0320  0.0963  0.3831
 2277SOL    HW2 9215   1.794   1.965   3.966  0.6183 -0.1137  0.3791
 2277SOL    HW3 9216   1.702   1.974   3.845  0.3890  1.0987  0.6402
 2277SOL    MW4 9217   1.773   1.942   3.884  0.1093  0.2010  0.4165
 2278SOL     OW 9218   2.023   2.011   3.772 -0.5284 -0.4928  0.3250
 2278SOL    HW2 9219   1.933   1.992   3.798 -0.9001  2.0830  1.0568
 2278SOL    HW3 9220   2.017   2.036   3.680 -0.5863 -0.2224  0.4012
 2278SOL    MW4 9221   2.010   2.012   3.764 -0.5851 -0.1171  0.4318
 2279SOL     OW 9222   2.094   2.276   3.874 -0.0367 -0.1594  0.0333
 2279SOL    HW2 9223   2.011   2.313   3.844  0.6119 -0.1893 -1.8492
 2279SOL    HW3 9224   2.102   2.193   3.827  0.9864 -0.2374  0.3285
 2279SOL    MW4 9225   2.084   2.270   3.864  0.1841 -0.1738 -0.1762
 2280SOL     OW 9226   1.859   2.408   3.792 -0.1282  0.2829 -0.3936
 2280SOL    HW2 9227   1.854   2.494   3.836 -0.0062 -0.2088  0.6002
 2280SOL    HW3 9228   1.818   2.423   3.707 -0.8765  1.1262  0.0993
 2280SOL    MW4 9229   1.853   2.422   3.787 -0.2109  0.3295 -0.1976
 2281SOL     OW 9230   1.829   2.651   3.906  0.0655  0.1031  0.2233
 2281SOL    HW2 9231   1.854   2.655   3.999  0.2781 -0.3859  0.1884
 2281SOL    HW3 9232   1.756   2.713   3.899 -0.4318 -0.4030  0.8727
 2281SOL    MW4 9233   1.822   2.660   3.918  0.0280 -0.0281  0.3045
 2282SOL     OW 9234   2.044   2.797   3.776 -0.1995  0.0451  0.3993
 2282SOL    HW2 9235   2.118   2.766   3.828 -0.6412  0.3133  1.1893
 2282SOL    HW3 9236   1.970   2.743   3.804 -0.7578  1.1480  1.0791
 2282SOL    MW4 9237   2.044   2.786   3.786 -0.3314  0.2255  0.5932
 2283SOL     OW 9238   2.074   3.085   3.835 -0.1384  0.2971  0.0818
 2283SOL    HW2 9239   2.152   3.121   3.792 -0.3278  0.0562 -0.4702
 2283SOL    HW3 9240   2.085   2.990   3.829  0.3070  0.2572  1.4407
 2283SOL    MW4 9241   2.086   3.077   3.828 -0.1047  0.2601  0.1881
 2284SOL     OW 9242   1.842   3.207   3.755 -0.1726  0.3569  0.2360
 2284SOL    HW2 9243   1.912   3.155   3.796  0.8859  1.9786  0.5491
 2284SOL    HW3 9244   1.761   3.168   3.787  0.5888 -1.5515 -0.1246
 2284SOL    MW4 9245   1.841   3.195   3.765  0.0676  0.3190  0.2296
 2285SOL     OW 9246   1.781   3.466   3.851 -0.1301 -0.1055 -0.1129
 2285SOL    HW2 9247   1.858   3.522   3.844 -0.6360  0.4467 -1.4622
 2285SOL    HW3 9248   1.806   3.384   3.809 -0.4707  0.2969 -1.1203
 2285SOL    MW4 9249   1.794   3.463   3.845 -0.2418  0.0205 -0.4237
 2286SOL     OW 9250   2.035   3.585   3.805  0.2129  0.6781 -0.2433
 2286SOL    HW2 9251   2.103   3.523   3.832 -0.7038 -0.2261  0.0156
 2286SOL    HW3 9252   2.021   3.567   3.713 -0.9563 -0.3772  0.1345
 2286SOL    MW4 9253   2.042   3.575   3.797 -0.0622  0.4196 -0.1590
 2287SOL     OW 9254   2.013   3.858   3.874  0.0468  0.7682  0.2791
 2287SOL    HW2 9255   2.087   3.903   3.833  0.7154 -0.5332  0.0377
 2287SOL    HW3 9256   2.022   3.767   3.845 -1.2804  0.4783  0.7752
 2287SOL    MW4 9257   2.024   3.852   3.864 -0.0401  0.5584  0.3123
 2288SOL     OW 9258   1.778   3.960   3.768  0.2458 -0.3421  0.0978
 2288SOL    HW2 9259   1.855   3.918   3.807  0.0215 -1.0580 -0.2270
 2288SOL    HW3 9260   1.704   3.915   3.809  0.0012 -1.2203 -1.2651
 2288SOL    MW4 9261   1.778   3.948   3.779  0.1841 -0.5524 -0.1249
 2289SOL     OW 9262   1.765   4.228   3.853 -0.0020 -0.4984 -0.2247
 2289SOL    HW2 9263   1.842   4.268   3.812  0.6432 -0.4862  0.9881
 2289SOL    HW3 9264   1.775   4.134   3.834  0.5826 -0.5596  0.3606
 2289SOL    MW4 9265   1.777   4.221   3.845  0.1603 -0.5050  0.0124
 2290SOL     OW 9266   1.997   4.372   3.744  0.0095  0.3748 -0.0937
 2290SOL    HW2 9267   2.074   4.320   3.768 -0.7161 -1.0445 -0.7798
 2290SOL    HW3 9268   2.014   4.399   3.654 -0.8502 -1.0056 -0.6820
 2290SOL    MW4 9269   2.010   4.369   3.736 -0.1998  0.0048 -0.2620
 2291SOL     OW 9270   2.451   4.643   3.807  0.1186  0.1830  0.2864
 2291SOL    HW2 9271   2.433   4.661   3.899  0.6013 -0.1912  0.4499
 2291SOL    HW3 9272   2.527   4.697   3.786 -1.7111  2.5135 -0.6661
 2291SOL    MW4 9273   2.458   4.653   3.816 -0.0594  0.4406  0.1822
 2292SOL     OW 9274   2.211   0.058   3.715  0.4757 -0.0553  0.1643
 2292SOL    HW2 9275   2.301   0.043   3.741  0.5435 -1.3837 -0.7994
 2292SOL    HW3 9276   2.216   0.083   3.622 -0.0882  0.5917  0.2997
 2292SOL    MW4 9277   2.223   0.059   3.706  0.4101 -0.1452  0.0548
 2293SOL     OW 9278   2.267   0.331   3.781  0.0686 -0.0107 -0.1719
 2293SOL    HW2 9279   2.237   0.242   3.765 -0.4195 -0.1988  1.6883
 2293SOL    HW3 9280   2.189   0.386   3.773 -0.1470 -0.0848  1.2782
 2293SOL    MW4 9281   2.253   0.327   3.778 -0.0243 -0.0453  0.2649
 2294SOL     OW 9282   2.512   0.467   3.740 -0.3262 -0.1661  0.6907
 2294SOL    HW2 9283   2.432   0.415   3.750 -0.7572  0.6114  1.3991
 2294SOL    HW3 9284   2.531   0.464   3.647  0.1844 -2.3500  0.8225
 2294SOL    MW4 9285   2.504   0.460   3.729 -0.3157 -0.3516  0.8016
 2295SOL     OW 9286   2.510   0.745   3.806  0.2965  0.0684  0.0753
 2295SOL    HW2 9287   2.423   0.780   3.785  0.8744  2.1359  0.9394
 2295SOL    HW3 9288   2.504   0.652   3.787 -2.2795  0.0875  0.5886
 2295SOL    MW4 9289   2.498   0.737   3.801  0.0331  0.3436  0.2570
 2296SOL     OW 9290   2.276   0.872   3.745 -0.2189  0.7105  0.1625
 2296SOL    HW2 9291   2.187   0.843   3.766  0.4827 -2.0858 -0.5252
 2296SOL    HW3 9292   2.280   0.873   3.649  1.0158 -0.9556  0.1761
 2296SOL    MW4 9293   2.265   0.868   3.735  0.0365  0.1218  0.0737
 2297SOL     OW 9294   2.270   1.127   3.886  0.2136 -0.3785  0.2147
 2297SOL    HW2 9295   2.265   1.127   3.982 -0.2913 -0.2972  0.1865
 2297SOL    HW3 9296   2.259   1.035   3.862 -2.4359 -0.0497  0.0844
 2297SOL    MW4 9297   2.268   1.115   3.896 -0.2027 -0.3245  0.1936
 2298SOL     OW 9298   2.521   1.235   3.785  0.3417  0.3518 -0.0415
 2298SOL    HW2 9299   2.512   1.331   3.786  0.1914  0.3544 -1.0687
 2298SOL    HW3 9300   2.443   1.204   3.831  0.3046  0.7225  0.1526
 2298SOL    MW4 9301   2.509   1.244   3.791  0.3171  0.4011 -0.1516
 2299SOL     OW 9302   2.531   1.517   3.824  0.7528  0.1470 -0.1954
 2299SOL    HW2 9303   2.599   1.583   3.811 -0.8237  2.3229  1.9724
 2299SOL    HW3 9304   2.452   1.557   3.788 -0.1804 -0.5945  0.9811
 2299SOL    MW4 9305   2.529   1.531   3.818  0.4215  0.3363  0.2458
 2300SOL     OW 9306   2.296   1.631   3.742 -0.0736 -0.1183 -0.1224
 2300SOL    HW2 9307   2.286   1.716   3.784 -1.4710  0.7456 -2.1003
 2300SOL    HW3 9308   2.234   1.574   3.787  0.1847  0.1649  0.5894
 2300SOL    MW4 9309   2.287   1.635   3.753 -0.2236  0.0330 -0.2892
 2301SOL     OW 9310   2.258   1.880   3.887 -0.3731 -0.1144  0.5102
 2301SOL    HW2 9311   2.318   1.939   3.842  0.0882 -0.1865  1.0103
 2301SOL    HW3 9312   2.171   1.912   3.865 -0.1626 -0.2309 -0.5270
 2301SOL    MW4 9313   2.254   1.892   3.878 -0.2844 -0.1392  0.4394
 2302SOL     OW 9314   2.476   1.985   3.738  0.0770 -0.4867 -0.6192
 2302SOL    HW2 9315   2.483   2.073   3.774  0.2167  0.1342 -2.1326
 2302SOL    HW3 9316   2.543   1.935   3.785  1.1026  0.6067 -0.8848
 2302SOL    MW4 9317   2.486   1.990   3.749  0.2306 -0.2606 -0.8538
 2303SOL     OW 9318   2.473   2.269   3.806  0.3961  0.4181  0.3688
 2303SOL    HW2 9319   2.552   2.323   3.799  0.6682 -0.2264 -1.8705
 2303SOL    HW3 9320   2.401   2.329   3.785  0.6313  0.1309 -1.3224
 2303SOL    MW4 9321   2.474   2.284   3.802  0.4632  0.2952 -0.1495
 2304SOL     OW 9322   2.272   2.450   3.761  0.0314  0.2245 -0.0321
 2304SOL    HW2 9323   2.207   2.397   3.806  0.6737  0.1354  0.8162
 2304SOL    HW3 9324   2.266   2.423   3.669 -1.2099  0.3231  0.0129
 2304SOL    MW4 9325   2.263   2.439   3.755 -0.0477  0.2258  0.0858
 2305SOL     OW 9326   2.244   2.669   3.919 -0.3704  0.1103  0.3109
 2305SOL    HW2 9327   2.270   2.628   4.001  0.2542 -0.4631 -0.1647
 2305SOL    HW3 9328   2.274   2.608   3.851  1.0368  1.5807 -0.4388
 2305SOL    MW4 9329   2.252   2.655   3.921 -0.1025  0.2286  0.1493
 2306SOL     OW 9330   2.486   2.781   3.838  0.1215 -0.0846 -0.2376
 2306SOL    HW2 9331   2.403   2.742   3.867 -0.0627 -0.4052 -1.1877
 2306SOL    HW3 9332   2.481   2.782   3.742  0.3453  1.8152 -0.2568
 2306SOL    MW4 9333   2.475   2.776   3.829  0.1266  0.1240 -0.3657
 2307SOL     OW 9334   2.488   3.082   3.872 -0.4673 -0.1353  0.5290
 2307SOL    HW2 9335   2.480   3.088   3.967 -0.8687 -0.3253  0.5062
 2307SOL    HW3 9336   2.484   2.989   3.853  0.5001 -0.1569  0.4020
 2307SOL    MW4 9337   2.486   3.071   3.882 -0.3929 -0.1633  0.5093
 2308SOL     OW 9338   2.305   3.199   3.708 -0.1526  0.0635  0.7335
 2308SOL    HW2 9339   2.286   3.282   3.752  0.0873  0.8273 -0.5920
 2308SOL    HW3 9340   2.379   3.162   3.757  0.8549  1.4565  0.2677
 2308SOL    MW4 9341   2.312   3.205   3.721  0.0119  0.3479  0.4973
 2309SOL     OW 9342   2.275   3.454   3.825 -0.5931 -1.2729 -0.0968
 2309SOL    HW2 9343   2.265   3.440   3.919 -2.6086 -0.0245 -0.1016
 2309SOL    HW3 9344   2.341   3.523   3.818  0.9462 -2.6415  0.2892
 2309SOL    MW4 9345   2.283   3.461   3.836 -0.6559 -1.2887 -0.0467
 2310SOL     OW 9346   2.469   3.645   3.727  0.7299 -0.5510  0.0090
 2310SOL    HW2 9347   2.546   3.588   3.733  0.9554 -0.2803 -0.2355
 2310SOL    HW3 9348   2.437   3.632   3.638  0.0015 -1.2823  0.3756
 2310SOL    MW4 9349   2.475   3.636   3.716  0.6638 -0.6115  0.0250
 2311SOL     OW 9350   2.474   3.882   3.861  0.0527  0.0087 -0.2649
 2311SOL    HW2 9351   2.533   3.940   3.812  0.6414 -0.0991  0.3070
 2311SOL    HW3 9352   2.476   3.800   3.811  0.0058  0.1577 -0.5168
 2311SOL    MW4 9353   2.482   3.879   3.848  0.1242  0.0141 -0.2224
 2312SOL     OW 9354   2.233   3.982   3.767 -0.3015 -0.7225 -0.3347
 2312SOL    HW2 9355   2.316   3.940   3.792 -0.0671 -0.2981 -0.3883
 2312SOL    HW3 9356   2.238   3.988   3.672  0.5320  1.1957 -0.1854
 2312SOL    MW4 9357   2.245   3.977   3.758 -0.1607 -0.4132 -0.3219
 2313SOL     OW 9358   2.237   4.252   3.820  0.2735  0.3760 -0.3543
 2313SOL    HW2 9359   2.252   4.252   3.915  1.7103  0.6581 -0.5674
 2313SOL    HW3 9360   2.241   4.160   3.795  0.6205  0.3614 -0.2488
 2313SOL    MW4 9361   2.240   4.240   3.829  0.5090  0.4110 -0.3684
 2314SOL     OW 9362   2.445   4.378   3.704  0.3869  0.0192  0.6545
 2314SOL    HW2 9363   2.358   4.348   3.732  1.1327 -1.3145  1.6348
 2314SOL    HW3 9364   2.452   4.466   3.740 -0.5972  0.1618  0.5093
 2314SOL    MW4 9365   2.434   4.385   3.713  0.3552 -0.1383  0.7644
 2315SOL     OW 9366   2.883   4.651   3.878 -0.1306 -0.1498 -0.3967
 2315SOL    HW2 9367   2.868   4.656   3.973 -0.5433 -1.9192 -0.3594
 2315SOL    HW3 9368   2.969   4.692   3.866  0.2581 -0.5523  0.8473
 2315SOL    MW4 9369   2.893   4.657   3.889 -0.1338 -0.4368 -0.2277
 2316SOL     OW 9370   2.692   0.104   3.721  0.0742  0.2292  0.0185
 2316SOL    HW2 9371   2.754   0.057   3.776  0.1669 -0.3473 -0.5762
 2316SOL    HW3 9372   2.724   0.091   3.632 -0.3284  0.7830 -0.2104
 2316SOL    MW4 9373   2.704   0.096   3.717  0.0334  0.2262 -0.0901
 2317SOL     OW 9374   2.714   0.336   3.869  0.0542 -0.4605 -0.3272
 2317SOL    HW2 9375   2.703   0.243   3.852 -1.7218  0.1904 -2.9376
 2317SOL    HW3 9376   2.634   0.377   3.836  2.0173  2.2903 -1.9038
 2317SOL    MW4 9377   2.702   0.329   3.862  0.0787 -0.0117 -0.8798
 2318SOL     OW 9378   2.900   0.486   3.739 -0.2523  0.0835  0.0857
 2318SOL    HW2 9379   2.840   0.433   3.791 -0.6571 -0.4353 -0.8958
 2318SOL    HW3 9380   2.987   0.464   3.773 -0.4617 -0.7504  0.0909
 2318SOL    MW4 9381   2.904   0.476   3.751 -0.3331 -0.0950 -0.0429
 2319SOL     OW 9382   2.919   0.724   3.866 -0.2337 -0.3120 -0.0334
 2319SOL    HW2 9383   2.855   0.778   3.820  0.5788 -0.2459 -1.1027
 2319SOL    HW3 9384   2.912   0.638   3.825  0.2165 -0.3545 -0.0221
 2319SOL    MW4 9385   2.909   0.720   3.855 -0.0670 -0.3089 -0.1729
 2320SOL     OW 9386   2.741   0.888   3.718  0.0070 -0.1585 -0.5963
 2320SOL    HW2 9387   2.741   0.974   3.759  0.2037 -0.2182 -0.4725
 2320SOL    HW3 9388   2.657   0.849   3.744  0.1253 -0.1919 -0.2636
 2320SOL    MW4 9389   2.730   0.894   3.727  0.0489 -0.1708 -0.5362
 2321SOL     OW 9390   2.766   1.148   3.808  0.3439  0.1686 -0.8045
 2321SOL    HW2 9391   2.676   1.177   3.790  0.1592 -0.6378 -1.1752
 2321SOL    HW3 9392   2.776   1.159   3.903 -0.6780 -1.2106 -0.5196
 2321SOL    MW4 9393   2.755   1.153   3.818  0.1848 -0.1197 -0.8159
 2322SOL     OW 9394   2.979   1.319   3.727  0.3579 -0.1721  0.2537
 2322SOL    HW2 9395   2.965   1.403   3.772  0.1884 -0.6647  1.1365
 2322SOL    HW3 9396   2.902   1.267   3.751  1.3202 -1.2035  1.1585
 2322SOL    MW4 9397   2.967   1.324   3.736  0.4625 -0.3730  0.4895
 2323SOL     OW 9398   2.981   1.554   3.877  0.4002 -0.0173 -0.2845
 2323SOL    HW2 9399   2.980   1.543   3.972 -0.4467  0.7560 -0.1954
 2323SOL    HW3 9400   3.067   1.593   3.859  0.0864  0.9732  0.3058
 2323SOL    MW4 9401   2.992   1.558   3.887  0.2472  0.2153 -0.1948
 2324SOL     OW 9402   2.752   1.692   3.785 -0.1613 -0.1428 -0.2125
 2324SOL    HW2 9403   2.826   1.646   3.825 -0.7683  0.5966  1.8174
 2324SOL    HW3 9404   2.758   1.671   3.691  2.2499 -0.5587  0.0159
 2324SOL    MW4 9405   2.762   1.683   3.778  0.0768 -0.1000  0.0856
 2325SOL     OW 9406   2.706   1.944   3.901 -0.8818 -0.8033  0.1278
 2325SOL    HW2 9407   2.717   1.851   3.881 -1.2915 -1.2163  1.7621
 2325SOL    HW3 9408   2.663   1.946   3.986 -1.4205  0.8902 -0.1604
 2325SOL    MW4 9409   2.702   1.932   3.910 -1.0071 -0.6344  0.3054
 2326SOL     OW 9410   2.921   2.082   3.757 -0.4368 -0.0566  0.3019
 2326SOL    HW2 9411   2.914   2.172   3.789 -0.2653  0.8059 -2.0051
 2326SOL    HW3 9412   2.843   2.037   3.791 -0.5204  0.9641  1.4569
 2326SOL    MW4 9413   2.910   2.088   3.766 -0.4251  0.1922  0.1497
 2327SOL     OW 9414   2.955   2.333   3.899  0.4373 -0.2688 -0.6896
 2327SOL    HW2 9415   2.948   2.362   3.990  0.4868 -1.4201 -0.3101
 2327SOL    HW3 9416   3.041   2.364   3.871  1.3206 -1.7414  0.3304
 2327SOL    MW4 9417   2.965   2.341   3.908  0.5608 -0.6149 -0.5050
 2328SOL     OW 9418   2.723   2.441   3.774 -0.2215 -0.0084  0.6151
 2328SOL    HW2 9419   2.691   2.515   3.826 -0.7135 -1.3733  2.2945
 2328SOL    HW3 9420   2.800   2.410   3.822 -0.0459 -0.6303 -0.0643
 2328SOL    MW4 9421   2.729   2.447   3.787 -0.2632 -0.2706  0.7470
 2329SOL     OW 9422   2.745   2.675   3.924 -0.2977 -0.1055 -0.0527
 2329SOL    HW2 9423   2.779   2.707   4.007  0.0226 -0.5582 -0.0109
 2329SOL    HW3 9424   2.664   2.726   3.910  0.4894  1.1139 -0.2591
 2329SOL    MW4 9425   2.739   2.686   3.933 -0.1516 -0.0045 -0.0744
 2330SOL     OW 9426   2.951   2.787   3.751 -0.0640  0.4401 -0.0498
 2330SOL    HW2 9427   2.938   2.877   3.780 -0.1667  0.0095  1.2706
 2330SOL    HW3 9428   2.881   2.738   3.793  1.4264 -0.6600  1.2223
 2330SOL    MW4 9429   2.940   2.792   3.760  0.1192  0.2382  0.2923
 2331SOL     OW 9430   2.903   3.050   3.811  0.4817 -0.6453  0.5288
 2331SOL    HW2 9431   2.985   3.099   3.800  1.7342 -3.1450 -1.9118
 2331SOL    HW3 9432   2.835   3.109   3.779  1.7343  0.3049 -0.4440
 2331SOL    MW4 9433   2.905   3.064   3.805  0.8123 -0.8497  0.0784
 2332SOL     OW 9434   2.700   3.215   3.739 -0.3036 -0.3580  0.4628
 2332SOL    HW2 9435   2.710   3.309   3.756  1.0154 -0.5408  0.7838
 2332SOL    HW3 9436   2.627   3.188   3.795 -1.2753  0.6389 -0.3037
 2332SOL    MW4 9437   2.692   3.224   3.749 -0.2575 -0.2506  0.4036
 2333SOL     OW 9438   2.676   3.470   3.819 -0.3031  0.2485 -0.2625
 2333SOL    HW2 9439   2.668   3.456   3.913 -3.4734  2.0537 -0.1831
 2333SOL    HW3 9440   2.756   3.521   3.808  0.3889 -0.4812  1.3929
 2333SOL    MW4 9441   2.685   3.475   3.830 -0.6301  0.3905 -0.0336
 2334SOL     OW 9442   2.908   3.625   3.771  0.0910  0.1004  0.0651
 2334SOL    HW2 9443   2.984   3.575   3.801  0.6808  0.7578 -0.3291
 2334SOL    HW3 9444   2.911   3.618   3.676 -1.3084 -1.2876  0.0874
 2334SOL    MW4 9445   2.918   3.617   3.763 -0.0160  0.0041  0.0162
 2335SOL     OW 9446   2.856   3.880   3.868 -0.1610  0.1890  0.5074
 2335SOL    HW2 9447   2.858   3.884   3.964 -1.6255  0.8564  0.5233
 2335SOL    HW3 9448   2.880   3.789   3.847  0.4225  0.1082  1.4849
 2335SOL    MW4 9449   2.860   3.868   3.878 -0.2773  0.2661  0.6385
 2336SOL     OW 9450   2.672   4.049   3.752 -0.5505 -0.3518 -0.1929
 2336SOL    HW2 9451   2.669   4.121   3.816 -2.7028 -0.4691 -0.1371
 2336SOL    HW3 9452   2.741   3.991   3.785 -0.3387  0.5431  0.9843
 2336SOL    MW4 9453   2.681   4.051   3.765 -0.8066 -0.2489 -0.0303
 2337SOL     OW 9454   2.647   4.281   3.869  0.6909  0.2639  0.6544
 2337SOL    HW2 9455   2.725   4.307   3.820  0.7777 -1.0348  0.0602
 2337SOL    HW3 9456   2.574   4.303   3.810  0.8326 -1.9397 -0.4031
 2337SOL    MW4 9457   2.647   4.287   3.854  0.7207 -0.1984  0.4363
 2338SOL     OW 9458   2.886   4.369   3.753  0.2084 -0.1232  0.6580
 2338SOL    HW2 9459   2.963   4.325   3.788  0.9212 -0.8341 -1.7232
 2338SOL    HW3 9460   2.886   4.455   3.796  0.9356 -1.0161  2.4897
 2338SOL    MW4 9461   2.896   4.375   3.763  0.3984 -0.3347  0.5853
 2339SOL     OW 9462   3.353   4.657   3.892 -0.3517 -0.3137 -0.2750
 2339SOL    HW2 9463   3.341   4.656   3.987  0.8451 -0.7624 -0.1236
 2339SOL    HW3 9464   3.423   4.721   3.877 -0.3762 -0.4151 -0.8371
 2339SOL    MW4 9465   3.360   4.665   3.903 -0.1972 -0.3862 -0.3293
 2340SOL     OW 9466   3.106   0.120   3.801 -0.0600  0.4223  0.1963
 2340SOL    HW2 9467   3.183   0.071   3.827 -0.0975  0.2537 -0.0064
 2340SOL    HW3 9468   3.114   0.128   3.706 -0.9354 -0.7040  0.0161
 2340SOL    MW4 9469   3.117   0.115   3.792 -0.1802  0.2514  0.1462
 2341SOL     OW 9470   3.144   0.424   3.882  0.1438  0.5298  0.4878
 2341SOL    HW2 9471   3.133   0.426   3.978  0.9714  0.5093  0.5836
 2341SOL    HW3 9472   3.136   0.331   3.860  0.8162  0.4372  0.6380
 2341SOL    MW4 9473   3.142   0.412   3.892  0.3419  0.5149  0.5202
 2342SOL     OW 9474   3.359   0.505   3.758  0.6459 -0.1333 -0.1368
 2342SOL    HW2 9475   3.428   0.459   3.807 -0.3135 -0.4609  0.9293
 2342SOL    HW3 9476   3.278   0.478   3.800 -0.0990  0.7306 -0.9995
 2342SOL    MW4 9477   3.358   0.495   3.770  0.4210 -0.0625 -0.1097
 2343SOL     OW 9478   3.366   0.754   3.867  0.0619  0.0670  0.1462
 2343SOL    HW2 9479   3.365   0.745   3.963 -0.1213 -0.3413  0.1081
 2343SOL    HW3 9480   3.356   0.664   3.835 -0.0406  0.2228 -0.2549
 2343SOL    MW4 9481   3.364   0.741   3.876  0.0243  0.0337  0.0882
 2344SOL     OW 9482   3.134   0.866   3.756 -0.2749  0.0065  0.2306
 2344SOL    HW2 9483   3.217   0.839   3.795  0.1805  0.4671 -0.4075
 2344SOL    HW3 9484   3.069   0.808   3.796  0.5511 -1.3812 -0.3985
 2344SOL    MW4 9485   3.137   0.855   3.767 -0.1059 -0.1158  0.0634
 2345SOL     OW 9486   3.157   1.135   3.845 -0.2323  0.2547 -0.0929
 2345SOL    HW2 9487   3.145   1.048   3.807  0.8548  0.1344 -0.1749
 2345SOL    HW3 9488   3.096   1.191   3.798 -1.4938 -0.6113  0.4824
 2345SOL    MW4 9489   3.147   1.130   3.834 -0.2551  0.1245 -0.0279
 2346SOL     OW 9490   3.369   1.285   3.751  0.1483 -0.8277  0.1498
 2346SOL    HW2 9491   3.288   1.252   3.788 -0.8803  1.2235 -0.2093
 2346SOL    HW3 9492   3.357   1.279   3.656  1.0828 -2.0592  0.0944
 2346SOL    MW4 9493   3.357   1.280   3.743  0.1357 -0.7194  0.0949
 2347SOL     OW 9494   3.396   1.550   3.831 -0.0888 -0.0321  0.2189
 2347SOL    HW2 9495   3.319   1.597   3.800  1.7630  1.1985 -2.7720
 2347SOL    HW3 9496   3.378   1.458   3.812 -1.2362  0.1361  0.4848
 2347SOL    MW4 9497   3.384   1.544   3.824  0.0041  0.1523 -0.1407
 2348SOL     OW 9498   3.193   1.700   3.741 -0.5089  0.1168 -0.3727
 2348SOL    HW2 9499   3.167   1.791   3.755 -1.3360 -0.2045  0.2082
 2348SOL    HW3 9500   3.147   1.674   3.661 -1.2320 -0.1573  0.1273
 2348SOL    MW4 9501   3.183   1.708   3.732 -0.7136  0.0383 -0.2298
 2349SOL     OW 9502   3.153   1.955   3.824  0.5486  0.1159 -0.0623
 2349SOL    HW2 9503   3.167   1.919   3.912 -0.3028  2.0610  0.9201
 2349SOL    HW3 9504   3.073   2.008   3.832 -0.1799 -0.5860 -2.3095
 2349SOL    MW4 9505   3.144   1.957   3.837  0.3402  0.2799 -0.2291
 2350SOL     OW 9506   3.416   2.051   3.778 -0.0147  0.2039  0.0153
 2350SOL    HW2 9507   3.327   2.020   3.795 -0.2206  1.0135  0.4656
 2350SOL    HW3 9508   3.419   2.062   3.683 -1.1017  2.1792  0.1768
 2350SOL    MW4 9509   3.405   2.049   3.768 -0.1855  0.5713  0.0961
 2351SOL     OW 9510   3.402   2.278   3.926  0.5355  0.1014 -0.2444
 2351SOL    HW2 9511   3.337   2.326   3.875 -2.0950 -1.5579  1.4376
 2351SOL    HW3 9512   3.403   2.190   3.886  1.7798  0.1266 -0.2755
 2351SOL    MW4 9513   3.394   2.273   3.914  0.3524 -0.1140 -0.0265
 2352SOL     OW 9514   3.214   2.418   3.778  0.4669 -0.1244  0.3153
 2352SOL    HW2 9515   3.215   2.507   3.813  0.0289  0.1034 -0.2429
 2352SOL    HW3 9516   3.197   2.429   3.685  0.2367 -0.8079  0.2717
 2352SOL    MW4 9517   3.212   2.431   3.770  0.3786 -0.1845  0.2358
 2353SOL     OW 9518   3.180   2.689   3.867  0.5011  0.1569 -0.6201
 2353SOL    HW2 9519   3.177   2.678   3.962  0.8897 -0.2668 -0.6593
 2353SOL    HW3 9520   3.095   2.728   3.846  0.2749 -0.0622 -0.1401
 2353SOL    MW4 9521   3.168   2.693   3.877  0.5226  0.0722 -0.5620
 2354SOL     OW 9522   3.383   2.833   3.740  0.1401 -0.6246 -0.1657
 2354SOL    HW2 9523   3.307   2.789   3.778  0.2275 -0.2391  0.4568
 2354SOL    HW3 9524   3.374   2.818   3.646 -0.9406 -0.2276 -0.1382
 2354SOL    MW4 9525   3.372   2.826   3.733  0.0091 -0.5214 -0.0799
 2355SOL     OW 9526   3.368   3.067   3.901 -0.0683 -0.2190  0.4134
 2355SOL    HW2 9527   3.452   3.097   3.866 -0.4176  0.3985  0.1018
 2355SOL    HW3 9528   3.356   2.980   3.862  0.2819 -0.1833  0.2237
 2355SOL    MW4 9529   3.378   3.059   3.891 -0.0679 -0.1328  0.3474
 2356SOL     OW 9530   3.143   3.203   3.798  0.5491  0.3043 -0.4762
 2356SOL    HW2 9531   3.228   3.167   3.826  0.7502  0.1129 -1.3047
 2356SOL    HW3 9532   3.151   3.211   3.703 -0.2857  0.4970 -0.5335
 2356SOL    MW4 9533   3.156   3.199   3.789  0.4659  0.3045 -0.5932
 2357SOL     OW 9534   3.117   3.465   3.897  0.0411 -0.2664  0.1291
 2357SOL    HW2 9535   3.206   3.500   3.888  0.3469 -0.2785  2.6460
 2357SOL    HW3 9536   3.125   3.372   3.874  0.1057  0.3041 -2.2854
 2357SOL    MW4 9537   3.130   3.457   3.893  0.0899 -0.1926  0.1428
 2358SOL     OW 9538   3.342   3.584   3.804 -0.5929 -0.2876 -0.2785
 2358SOL    HW2 9539   3.326   3.675   3.828  1.9987  0.1723 -0.1851
 2358SOL    HW3 9540   3.330   3.583   3.709  0.8874  0.5083 -0.4888
 2358SOL    MW4 9541   3.338   3.596   3.794 -0.0558 -0.1221 -0.2940
 2359SOL     OW 9542   3.322   3.859   3.850 -0.0760  0.4181  0.2151
 2359SOL    HW2 9543   3.392   3.906   3.804 -0.1219  1.1865  0.9219
 2359SOL    HW3 9544   3.243   3.906   3.826 -0.6019 -1.5185 -2.0154
 2359SOL    MW4 9545   3.321   3.871   3.840 -0.1516  0.2637  0.0141
 2360SOL     OW 9546   3.092   3.963   3.739 -0.3195 -0.1212  0.3405
 2360SOL    HW2 9547   3.101   4.058   3.750  0.4608 -0.2443  0.8065
 2360SOL    HW3 9548   3.011   3.941   3.784 -0.5820  0.3540  0.0979
 2360SOL    MW4 9549   3.083   3.973   3.746 -0.2513 -0.0749  0.3698
 2361SOL     OW 9550   3.116   4.236   3.823 -0.0056  0.1567 -0.2116
 2361SOL    HW2 9551   3.132   4.216   3.915  0.1042 -0.1066 -0.2873
 2361SOL    HW3 9552   3.182   4.303   3.801  0.6698 -0.5526 -0.3828
 2361SOL    MW4 9553   3.127   4.242   3.832  0.0978  0.0286 -0.2444
 2362SOL     OW 9554   3.311   4.416   3.734  0.3863 -0.2711 -0.2096
 2362SOL    HW2 9555   3.391   4.372   3.763 -0.0562 -0.0425  1.3643
 2362SOL    HW3 9556   3.318   4.504   3.771 -0.7726 -0.3648  0.2357
 2362SOL    MW4 9557   3.323   4.422   3.742  0.1750 -0.2532  0.0567
 2363SOL     OW 9558   3.781   4.617   3.871  0.0183  0.4891  0.2106
 2363SOL    HW2 9559   3.874   4.632   3.850 -0.4738  2.1545 -0.8942
 2363SOL    HW3 9560   3.759   4.536   3.825  0.5487  0.8943 -0.7839
 2363SOL    MW4 9561   3.791   4.608   3.862  0.0231  0.7620 -0.0665
 2364SOL     OW 9562   3.568   0.145   3.814 -0.0391 -0.2188 -0.0956
 2364SOL    HW2 9563   3.642   0.092   3.842  1.5571  1.9831 -0.0008
 2364SOL    HW3 9564   3.574   0.146   3.718  2.3283  2.9800  0.0061
 2364SOL    MW4 9565   3.578   0.138   3.805  0.4838  0.4938 -0.0699
 2365SOL     OW 9566   3.589   0.409   3.907 -0.2298  0.1469  0.5014
 2365SOL    HW2 9567   3.659   0.450   3.857  0.3954  0.2088  1.4187
 2365SOL    HW3 9568   3.594   0.317   3.884 -0.3269  0.2664 -0.0045
 2365SOL    MW4 9569   3.599   0.402   3.898 -0.1602  0.1708  0.5558
 2366SOL     OW 9570   3.781   0.517   3.766 -0.3354  0.1058 -0.2066
 2366SOL    HW2 9571   3.857   0.471   3.802 -0.7128 -0.5778 -0.2765
 2366SOL    HW3 9572   3.789   0.607   3.800 -0.2139 -0.3059  0.8590
 2366SOL    MW4 9573   3.792   0.523   3.775 -0.3691 -0.0387 -0.0751
 2367SOL     OW 9574   3.782   0.764   3.880  0.4435 -0.3373 -0.2762
 2367SOL    HW2 9575   3.861   0.792   3.833  0.3077  0.0213 -0.2936
 2367SOL    HW3 9576   3.710   0.807   3.834  0.3004 -0.0674  0.1920
 2367SOL    MW4 9577   3.783   0.773   3.868  0.4065 -0.2543 -0.2167
 2368SOL     OW 9578   3.583   0.869   3.728 -0.4596 -0.1466 -0.3564
 2368SOL    HW2 9579   3.579   0.957   3.767  1.5522 -0.8258  1.5434
 2368SOL    HW3 9580   3.505   0.824   3.760 -1.4844  0.9271 -1.3171
 2368SOL    MW4 9581   3.573   0.875   3.737 -0.3295 -0.0945 -0.2325
 2369SOL     OW 9582   3.574   1.122   3.846  0.0432  0.3098 -0.2695
 2369SOL    HW2 9583   3.654   1.151   3.802  0.9454 -0.5363  0.8144
 2369SOL    HW3 9584   3.510   1.190   3.825  0.7541  0.4950 -1.9694
 2369SOL    MW4 9585   3.576   1.135   3.837  0.2561  0.2227 -0.3507
 2370SOL     OW 9586   3.796   1.250   3.707 -0.2798 -0.0298  0.0189
 2370SOL    HW2 9587   3.884   1.219   3.726  0.4882  0.7694 -2.1577
 2370SOL    HW3 9588   3.788   1.331   3.756 -0.2204 -0.6718  1.1076
 2370SOL    MW4 9589   3.806   1.256   3.716 -0.1705 -0.0091 -0.1249
 2371SOL     OW 9590   3.809   1.519   3.790  0.9144 -0.1403  0.2046
 2371SOL    HW2 9591   3.793   1.516   3.884 -0.5186 -0.3457 -0.0414
 2371SOL    HW3 9592   3.739   1.574   3.755  1.1974 -0.4006 -0.7874
 2371SOL    MW4 9593   3.798   1.526   3.798  0.7627 -0.2017  0.0410
 2372SOL     OW 9594   3.599   1.683   3.721  0.2687  0.8494  0.4817
 2372SOL    HW2 9595   3.526   1.639   3.765 -0.9831  2.0154 -0.4052
 2372SOL    HW3 9596   3.576   1.680   3.628  2.0178  0.0283  0.0664
 2372SOL    MW4 9597   3.586   1.677   3.715  0.3343  0.8948  0.3099
 2373SOL     OW 9598   3.620   1.907   3.896  0.4133  0.0385 -0.0822
 2373SOL    HW2 9599   3.628   1.828   3.843  0.1534 -0.3174  0.4096
 2373SOL    HW3 9600   3.545   1.953   3.860 -0.3673 -0.6886  0.6104
 2373SOL    MW4 9601   3.611   1.903   3.884  0.2761 -0.1044  0.0741
 2374SOL     OW 9602   3.838   2.021   3.787 -0.4513 -0.5816  0.6531
 2374SOL    HW2 9603   3.909   1.995   3.846 -0.4342 -0.8315  0.5228
 2374SOL    HW3 9604   3.759   1.989   3.830 -0.4448 -0.7054  0.5722
 2374SOL    MW4 9605   3.837   2.013   3.800 -0.4482 -0.6311  0.6251
 2375SOL     OW 9606   3.838   2.288   3.888  0.1421  0.0208 -0.1047
 2375SOL    HW2 9607   3.757   2.326   3.851  0.0799  0.7610  0.7796
 2375SOL    HW3 9608   3.841   2.199   3.852  0.0446  0.6963 -1.8405
 2375SOL    MW4 9609   3.827   2.281   3.878  0.1211  0.2077 -0.2172
 2376SOL     OW 9610   3.592   2.441   3.800  0.3650  0.1310 -0.2905
 2376SOL    HW2 9611   3.521   2.405   3.853 -0.2064  1.6741  0.0056
 2376SOL    HW3 9612   3.570   2.416   3.711  0.1619 -0.5717 -0.0462
 2376SOL    MW4 9613   3.580   2.433   3.795  0.2632  0.2420 -0.2191
 2377SOL     OW 9614   3.622   2.726   3.847 -0.6376  0.1082 -0.3252
 2377SOL    HW2 9615   3.625   2.633   3.824 -1.5782  0.0893 -0.3757
 2377SOL    HW3 9616   3.539   2.758   3.810 -0.4118  0.9208 -0.1441
 2377SOL    MW4 9617   3.611   2.718   3.839 -0.7319  0.2129 -0.3080
 2378SOL     OW 9618   3.846   2.838   3.744 -0.3253 -0.0378 -0.2253
 2378SOL    HW2 9619   3.914   2.797   3.799  0.9190 -0.5474 -2.1129
 2378SOL    HW3 9620   3.764   2.807   3.782  0.5432 -1.5228  0.5050
 2378SOL    MW4 9621   3.844   2.828   3.757 -0.0465 -0.3009 -0.3781
 2379SOL     OW 9622   3.847   3.080   3.871 -0.4012 -0.1141  0.0052
 2379SOL    HW2 9623   3.769   3.124   3.837 -0.6563 -0.4972  0.0914
 2379SOL    HW3 9624   3.854   3.001   3.818 -0.6719 -0.6024  0.6876
 2379SOL    MW4 9625   3.837   3.076   3.860 -0.4706 -0.2291  0.1066
 2380SOL     OW 9626   3.608   3.191   3.795 -0.3174  0.1575  0.5980
 2380SOL    HW2 9627   3.594   3.285   3.804  1.8976  0.7536 -1.7039
 2380SOL    HW3 9628   3.590   3.172   3.703  0.7945 -1.3699  0.6764
 2380SOL    MW4 9629   3.604   3.201   3.784  0.1214  0.0348  0.3047
 2381SOL     OW 9630   3.577   3.469   3.842  0.3705  0.2997 -0.2288
 2381SOL    HW2 9631   3.588   3.457   3.937 -0.2145 -1.2332 -0.3473
 2381SOL    HW3 9632   3.493   3.513   3.834  0.2079  0.0226 -0.0597
 2381SOL    MW4 9633   3.567   3.473   3.854  0.2718  0.0610 -0.2220
 2382SOL     OW 9634   3.811   3.617   3.778  0.5977 -0.0194  0.3018
 2382SOL    HW2 9635   3.792   3.706   3.807  1.5633  0.9480 -1.8887
 2382SOL    HW3 9636   3.736   3.566   3.807 -0.3965  1.6902  0.8190
 2382SOL    MW4 9637   3.799   3.622   3.785  0.5939  0.3338  0.0813
 2383SOL     OW 9638   3.761   3.878   3.874  0.1775 -0.3453  0.3919
 2383SOL    HW2 9639   3.773   3.876   3.969 -0.2688  2.5749  0.5679
 2383SOL    HW3 9640   3.843   3.914   3.840 -0.8251  1.6776  0.0023
 2383SOL    MW4 9641   3.773   3.883   3.882 -0.0136  0.3071  0.3638
 2384SOL     OW 9642   3.542   3.996   3.735 -0.4493 -0.4137  0.1959
 2384SOL    HW2 9643   3.541   4.085   3.771 -0.2810 -0.8184  1.2367
 2384SOL    HW3 9644   3.621   3.956   3.771  0.0233 -0.6631 -1.0980
 2384SOL    MW4 9645   3.552   4.002   3.745 -0.3648 -0.5002  0.1626
 2385SOL     OW 9646   3.533   4.250   3.837 -0.3823 -0.8236 -0.1204
 2385SOL    HW2 9647   3.526   4.253   3.932 -0.9513 -1.6222 -0.1299
 2385SOL    HW3 9648   3.618   4.291   3.817 -0.4480 -0.2899  0.6952
 2385SOL    MW4 9649   3.544   4.256   3.847 -0.4663 -0.8583 -0.0138
 2386SOL     OW 9650   3.768   4.366   3.732 -0.5917  0.3805  0.1913
 2386SOL    HW2 9651   3.849   4.334   3.772 -0.1440  0.0308 -0.9760
 2386SOL    HW3 9652   3.790   4.378   3.640 -1.7068  0.8607 -0.0204
 2386SOL    MW4 9653   3.782   4.363   3.725 -0.6797  0.3977  0.0091
 2387SOL     OW 9654   4.212   4.644   3.892  0.3694  0.3718 -0.3530
 2387SOL    HW2 9655   4.226   4.657   3.986 -0.2632 -1.9743  0.0927
 2387SOL    HW3 9656   4.293   4.676   3.851  2.0758 -1.7461  1.2623
 2387SOL    MW4 9657   4.225   4.650   3.899  0.5107 -0.2174 -0.0808
 2388SOL     OW 9658   4.001   0.106   3.760  0.0004  0.0670  0.1277
 2388SOL    HW2 9659   4.087   0.079   3.794 -0.5108 -2.7225 -0.6858
 2388SOL    HW3 9660   4.013   0.112   3.665 -0.9062 -1.2652 -0.0921
 2388SOL    MW4 9661   4.014   0.103   3.752 -0.1869 -0.4768 -0.0086
 2389SOL     OW 9662   4.028   0.358   3.830 -0.1636  0.1053 -0.1515
 2389SOL    HW2 9663   4.033   0.358   3.926  0.3274  0.5286 -0.1762
 2389SOL    HW3 9664   4.002   0.268   3.808  0.5449 -0.2201  0.3351
 2389SOL    MW4 9665   4.025   0.346   3.840 -0.0057  0.1182 -0.0904
 2390SOL     OW 9666   4.271   0.446   3.727  0.0107  1.2155  0.0444
 2390SOL    HW2 9667   4.185   0.415   3.756 -0.0249  0.5992 -0.6859
 2390SOL    HW3 9668   4.256   0.471   3.635  0.8865 -0.0634 -0.4664
 2390SOL    MW4 9669   4.258   0.445   3.719  0.1216  0.9654 -0.1192
 2391SOL     OW 9670   4.258   0.744   3.825 -0.1075 -0.7050 -0.4372
 2391SOL    HW2 9671   4.181   0.788   3.790 -0.4851 -1.2008 -0.2234
 2391SOL    HW3 9672   4.238   0.650   3.818 -0.2234 -0.8129  1.1840
 2391SOL    MW4 9673   4.245   0.737   3.819 -0.1726 -0.7846 -0.1953
 2392SOL     OW 9674   4.009   0.872   3.751 -0.1643  0.2293  0.3891
 2392SOL    HW2 9675   4.028   0.956   3.792  0.7061 -0.0366  0.5392
 2392SOL    HW3 9676   3.984   0.894   3.661 -0.1129  0.6602  0.4830
 2392SOL    MW4 9677   4.009   0.886   3.744 -0.0429  0.2510  0.4213
 2393SOL     OW 9678   4.034   1.168   3.827  0.1671 -0.2164  0.0163
 2393SOL    HW2 9679   4.028   1.152   3.922 -1.4822  0.1364 -0.0142
 2393SOL    HW3 9680   4.116   1.215   3.816  0.1869  0.0846  1.3388
 2393SOL    MW4 9681   4.044   1.172   3.838 -0.0486 -0.1301  0.1867
 2394SOL     OW 9682   4.283   1.305   3.796  0.4973 -0.3376  0.3036
 2394SOL    HW2 9683   4.280   1.394   3.832  3.0306 -0.1926  0.2837
 2394SOL    HW3 9684   4.268   1.316   3.703 -1.6230 -0.2231  0.6332
 2394SOL    MW4 9685   4.281   1.318   3.789  0.5517 -0.3035  0.3448
 2395SOL     OW 9686   4.272   1.565   3.866 -0.1761  0.1039 -0.2125
 2395SOL    HW2 9687   4.192   1.603   3.831 -0.6630 -1.7773 -1.2039
 2395SOL    HW3 9688   4.340   1.630   3.849 -1.5156  1.8061  0.8398
 2395SOL    MW4 9689   4.271   1.578   3.859 -0.4172  0.0803 -0.2043
 2396SOL     OW 9690   4.038   1.675   3.786  0.1967  0.3092 -0.0433
 2396SOL    HW2 9691   4.028   1.759   3.831  3.7303  0.3769  0.7610
 2396SOL    HW3 9692   3.953   1.632   3.796 -0.2831  1.9223  3.4137
 2396SOL    MW4 9693   4.026   1.681   3.793  0.5999  0.5308  0.5190
 2397SOL     OW 9694   4.058   1.904   3.944 -0.2872 -0.4238 -0.3199
 2397SOL    HW2 9695   4.070   1.921   4.037 -2.2153  0.0328 -0.1229
 2397SOL    HW3 9696   4.139   1.934   3.903 -0.1086  0.9528  1.0178
 2397SOL    MW4 9697   4.070   1.910   3.951 -0.5178 -0.1818 -0.1173
 2398SOL     OW 9698   4.256   2.027   3.793  0.5984  0.1745 -0.0438
 2398SOL    HW2 9699   4.241   2.121   3.803 -1.8010 -0.1357 -0.5203
 2398SOL    HW3 9700   4.258   2.013   3.699  1.4371 -0.2097  0.0226
 2398SOL    MW4 9701   4.254   2.038   3.782  0.3924  0.0827 -0.0980
 2399SOL     OW 9702   4.248   2.309   3.841 -0.2335  0.1506 -0.1657
 2399SOL    HW2 9703   4.255   2.300   3.936 -0.1529 -0.5353 -0.2323
 2399SOL    HW3 9704   4.161   2.346   3.828 -1.0978 -1.7336  0.0769
 2399SOL    MW4 9705   4.237   2.313   3.852 -0.3376 -0.1886 -0.1426
 2400SOL     OW 9706   4.029   2.455   3.785  0.3199  0.4100  0.2096
 2400SOL    HW2 9707   4.019   2.544   3.818  0.6405  0.2989  0.6126
 2400SOL    HW3 9708   3.954   2.408   3.821  0.1256  0.5254 -0.0408
 2400SOL    MW4 9709   4.018   2.460   3.794  0.3371  0.4108  0.2298
 2401SOL     OW 9710   4.023   2.698   3.914  0.1276 -0.4322 -0.3612
 2401SOL    HW2 9711   4.011   2.701   4.009 -1.2998  1.4733 -0.5669
 2401SOL    HW3 9712   4.110   2.737   3.900 -0.2721  0.6398  0.0744
 2401SOL    MW4 9713   4.033   2.704   3.925 -0.1135 -0.0396 -0.3312
 2402SOL     OW 9714   4.252   2.855   3.822  0.0561  0.0731  0.1408
 2402SOL    HW2 9715   4.254   2.947   3.849  0.5667 -0.0796  0.6167
 2402SOL    HW3 9716   4.335   2.819   3.853  0.4482 -0.2203 -1.2135
 2402SOL    MW4 9717   4.263   2.862   3.830  0.1755  0.0145  0.0250
 2403SOL     OW 9718   4.277   3.145   3.912  0.6267 -0.3983  0.1738
 2403SOL    HW2 9719   4.198   3.178   3.868  0.0129  0.8482  2.1791
 2403SOL    HW3 9720   4.349   3.196   3.874  0.3425 -0.7691 -0.8682
 2403SOL    MW4 9721   4.276   3.156   3.901  0.5083 -0.2830  0.3009
 2404SOL     OW 9722   4.052   3.231   3.772  0.0113  0.4886  0.3358
 2404SOL    HW2 9723   3.975   3.179   3.797 -0.1953  0.5005 -0.2816
 2404SOL    HW3 9724   4.045   3.241   3.677  0.5052  0.9244  0.3430
 2404SOL    MW4 9725   4.041   3.225   3.763  0.0486  0.5476  0.2551
 2405SOL     OW 9726   4.049   3.503   3.883  0.4112  0.0028 -0.2825
 2405SOL    HW2 9727   4.035   3.417   3.843  0.9573 -0.7525  1.1308
 2405SOL    HW3 9728   3.972   3.553   3.859 -0.2673 -1.1235 -0.4798
 2405SOL    MW4 9729   4.037   3.498   3.874  0.3939 -0.2453 -0.1221
 2406SOL     OW 9730   4.256   3.639   3.725  0.1594 -0.4781  0.0642
 2406SOL    HW2 9731   4.191   3.582   3.765  0.0501 -0.1200  0.3997
 2406SOL    HW3 9732   4.339   3.613   3.767 -0.1923  1.0000  1.7317
 2406SOL    MW4 9733   4.259   3.628   3.736  0.0987 -0.2358  0.3288
 2407SOL     OW 9734   4.237   3.888   3.872  0.5709  0.7613  0.4213
 2407SOL    HW2 9735   4.160   3.926   3.831 -0.7745 -1.9357  0.3541
 2407SOL    HW3 9736   4.246   3.802   3.831  2.0667 -0.0223  2.3125
 2407SOL    MW4 9737   4.228   3.882   3.861  0.5913  0.3018  0.6618
 2408SOL     OW 9738   3.995   3.993   3.786 -0.4578 -0.1643  0.0546
 2408SOL    HW2 9739   3.999   4.084   3.818 -0.5615 -0.7983  1.9590
 2408SOL    HW3 9740   4.003   4.001   3.691 -0.4907  1.8464  0.1824
 2408SOL    MW4 9741   3.996   4.006   3.778 -0.4759  0.0172  0.3226
 2409SOL     OW 9742   3.992   4.265   3.871 -0.0048  0.3419 -0.1303
 2409SOL    HW2 9743   3.996   4.261   3.966  1.5344 -1.4541 -0.2348
 2409SOL    HW3 9744   4.073   4.307   3.845  0.3482 -0.6743 -0.7092
 2409SOL    MW4 9745   4.003   4.270   3.880  0.2451 -0.0291 -0.2203
 2410SOL     OW 9746   4.236   4.380   3.799 -0.2159  0.3466  0.1641
 2410SOL    HW2 9747   4.223   4.461   3.849  1.3280  0.9620 -0.3980
 2410SOL    HW3 9748   4.311   4.338   3.841 -0.2893 -0.2142 -0.2640
 2410SOL    MW4 9749   4.244   4.385   3.811 -0.0219  0.3543  0.0334
 2411SOL     OW 9750   0.219   4.639   4.159 -0.1730 -0.2495  0.5081
 2411SOL    HW2 9751   0.299   4.684   4.183 -0.9050  0.5568  1.4739
 2411SOL    HW3 9752   0.221   4.558   4.209  0.3160 -0.5043  0.0795
 2411SOL    MW4 9753   0.230   4.634   4.168 -0.2051 -0.1769  0.5784
 2412SOL     OW 9754   4.489   0.115   4.236 -0.1032  0.0163 -0.0008
 2412SOL    HW2 9755   4.510   0.124   4.329 -1.5513  0.0750  0.3238
 2412SOL    HW3 9756   4.557   0.056   4.203 -0.0673 -0.6917  1.2740
 2412SOL    MW4 9757   4.501   0.108   4.244 -0.2895 -0.0694  0.2108
 2413SOL     OW 9758   4.432   0.383   4.143  0.0384  0.1372  0.0244
 2413SOL    HW2 9759   4.455   0.294   4.171  0.5918  0.8614  1.9738
 2413SOL    HW3 9760   4.453   0.385   4.050  1.1493 -1.4122  0.2172
 2413SOL    MW4 9761   4.438   0.371   4.134  0.2580  0.0284  0.3071
 2414SOL     OW 9762   0.185   0.506   4.193  0.3354 -0.2123  0.2113
 2414SOL    HW2 9763   0.260   0.447   4.182  1.1349  0.9772 -0.7955
 2414SOL    HW3 9764   0.109   0.454   4.164  1.1288 -0.4874 -1.4155
 2414SOL    MW4 9765   0.185   0.491   4.188  0.5456 -0.0916 -0.1364
 2415SOL     OW 9766   0.246   0.764   4.118 -0.0950  0.5668  0.0045
 2415SOL    HW2 9767   0.176   0.820   4.152 -0.4493  0.4616 -0.5607
 2415SOL    HW3 9768   0.227   0.677   4.153 -0.3839  0.4860 -0.3618
 2415SOL    MW4 9769   0.234   0.760   4.127 -0.1798  0.5423 -0.1178
 2416SOL     OW 9770   0.017   0.885   4.213 -0.1921 -0.0090  0.0004
 2416SOL    HW2 9771  -0.055   0.832   4.177  2.1325 -1.3532 -2.8917
 2416SOL    HW3 9772  -0.010   0.975   4.196 -1.9065 -0.4205  0.3904
 2416SOL    MW4 9773   0.004   0.890   4.206 -0.1116 -0.2406 -0.3295
 2417SOL     OW 9774   4.460   1.156   4.162  0.0903  0.0773  0.1440
 2417SOL    HW2 9775   4.536   1.205   4.195 -0.5753  1.0950  0.1900
 2417SOL    HW3 9776   4.481   1.139   4.070  1.3480 -1.5844  0.7250
 2417SOL    MW4 9777   4.473   1.161   4.154  0.1684 -0.0077  0.2275
 2418SOL     OW 9778   0.201   1.284   4.244 -0.0432 -0.0009  0.6905
 2418SOL    HW2 9779   0.219   1.285   4.338  1.4316 -0.6051  0.4363
 2418SOL    HW3 9780   0.280   1.247   4.205 -0.1097  1.4969 -0.9131
 2418SOL    MW4 9781   0.214   1.279   4.251  0.1426  0.1169  0.4458
 2419SOL     OW 9782   4.462   0.985   4.601  0.2230 -0.1034 -0.3598
 2419SOL    HW2 9783   4.412   0.952   4.675 -1.1594  0.8313 -0.8686
 2419SOL    HW3 9784   4.516   1.055   4.637 -0.6276  0.5134 -0.2908
 2419SOL    MW4 9785   4.462   0.990   4.615 -0.0720  0.1013 -0.4182
 2420SOL     OW 9786   4.470   1.650   4.256  0.4233 -0.4765  0.3816
 2420SOL    HW2 9787   4.391   1.615   4.217  0.4718  0.0589 -0.2026
 2420SOL    HW3 9788   4.482   1.736   4.214  1.0527 -0.3542  0.7984
 2420SOL    MW4 9789   4.461   1.657   4.246  0.5131 -0.3897  0.3595
 2421SOL     OW 9790   0.252   2.030   4.226 -0.1965 -0.1544  0.1816
 2421SOL    HW2 9791   0.280   2.038   4.317 -0.0513  0.4254  0.0873
 2421SOL    HW3 9792   0.329   2.000   4.179 -0.0094  0.4472  0.0961
 2421SOL    MW4 9793   0.266   2.027   4.232 -0.1526  0.0014  0.1574
 2422SOL     OW 9794   0.405   1.842   4.618 -0.6171  0.3713  0.1134
 2422SOL    HW2 9795   0.315   1.848   4.650 -0.1534  0.9506  1.3369
 2422SOL    HW3 9796   0.412   1.754   4.582 -1.3686 -0.0315  0.9514
 2422SOL    MW4 9797   0.394   1.832   4.617 -0.6551  0.3946  0.3853
 2423SOL     OW 9798   0.238   2.309   4.145  0.1181 -0.2051 -0.3611
 2423SOL    HW2 9799   0.317   2.347   4.182 -0.2051  0.2338 -0.1256
 2423SOL    HW3 9800   0.240   2.217   4.173  0.0043  0.0605  0.5245
 2423SOL    MW4 9801   0.249   2.302   4.153  0.0605 -0.1125 -0.2131
 2424SOL     OW 9802   4.482   2.455   4.259  0.2693 -0.1613  0.2260
 2424SOL    HW2 9803   4.421   2.403   4.208 -1.2674  0.6235  1.2336
 2424SOL    HW3 9804   4.564   2.405   4.257 -0.2805 -1.0183 -1.4642
 2424SOL    MW4 9805   4.485   2.441   4.252 -0.0067 -0.1709  0.1364
 2425SOL     OW 9806   4.463   2.724   4.195  0.2181  0.2389  0.0211
 2425SOL    HW2 9807   4.551   2.744   4.225  1.6571 -1.2289 -3.0513
 2425SOL    HW3 9808   4.453   2.630   4.211 -0.3675  0.1799 -0.6622
 2425SOL    MW4 9809   4.473   2.714   4.201  0.3304  0.0374 -0.4745
 2426SOL     OW 9810   0.230   2.808   4.271  0.2182  0.1383 -0.1100
 2426SOL    HW2 9811   0.315   2.767   4.254 -1.2948 -1.8311 -3.3802
 2426SOL    HW3 9812   0.237   2.895   4.233  0.7420 -0.0354 -0.4165
 2426SOL    MW4 9813   0.242   2.814   4.264  0.0876 -0.1442 -0.5817
 2427SOL     OW 9814   0.220   3.103   4.113 -0.5064  0.4370 -0.6050
 2427SOL    HW2 9815   0.302   3.122   4.159 -1.5328 -2.0236  2.4625
 2427SOL    HW3 9816   0.155   3.156   4.159 -1.2327 -0.5796 -0.4410
 2427SOL    MW4 9817   0.222   3.112   4.125 -0.7376 -0.0217 -0.1788
 2428SOL     OW 9818   0.045   3.232   4.282 -0.0070 -0.3460 -0.2388
 2428SOL    HW2 9819  -0.037   3.184   4.269 -0.2866  0.1059 -0.1341
 2428SOL    HW3 9820   0.034   3.314   4.234  0.2088 -0.0887  0.1455
 2428SOL    MW4 9821   0.033   3.236   4.274 -0.0154 -0.2525 -0.1740
 2429SOL     OW 9822   4.463   3.454   4.122  0.2883 -0.2549 -0.2044
 2429SOL    HW2 9823   4.402   3.504   4.177 -0.3527 -0.9301 -0.3030
 2429SOL    HW3 9824   4.452   3.491   4.034  2.2209  1.6797  0.3342
 2429SOL    MW4 9825   4.454   3.466   4.118  0.4582 -0.0887 -0.1464
 2430SOL     OW 9826   0.170   3.582   4.276 -0.3230 -0.4306 -0.1182
 2430SOL    HW2 9827   0.246   3.527   4.262  0.4973  0.8027 -0.5835
 2430SOL    HW3 9828   0.106   3.554   4.210  0.6429  0.1805 -1.3192
 2430SOL    MW4 9829   0.171   3.571   4.266 -0.0873 -0.1874 -0.3376
 2431SOL     OW 9830   0.213   3.846   4.180 -0.3643 -0.1340  0.2136
 2431SOL    HW2 9831   0.141   3.892   4.224  0.4429 -0.2917  1.7329
 2431SOL    HW3 9832   0.219   3.763   4.226  0.3221 -0.4304 -0.4059
 2431SOL    MW4 9833   0.204   3.841   4.192 -0.1673 -0.1938  0.3324
 2432SOL     OW 9834   4.488   3.984   4.295  0.1863 -0.1918 -0.0795
 2432SOL    HW2 9835   4.464   4.003   4.386  1.5042  0.1863  0.1970
 2432SOL    HW3 9836   4.411   3.940   4.259 -1.1567  1.5044  0.6157
 2432SOL    MW4 9837   4.475   3.981   4.302  0.1826  0.0815  0.0486
 2433SOL     OW 9838   0.014   4.270   4.208 -0.4045 -0.0756 -0.4749
 2433SOL    HW2 9839   0.016   4.179   4.237  0.9935  0.2533  0.4996
 2433SOL    HW3 9840   0.013   4.265   4.112  2.0685 -1.1050 -0.4660
 2433SOL    MW4 9841   0.014   4.258   4.199  0.1063 -0.1678 -0.3452
 2434SOL     OW 9842   0.245   4.401   4.305  0.4991  0.4112 -0.4593
 2434SOL    HW2 9843   0.244   4.434   4.395  0.2745  1.0200 -0.6781
 2434SOL    HW3 9844   0.167   4.346   4.298 -0.3887  1.6750 -0.7512
 2434SOL    MW4 9845   0.235   4.398   4.316  0.3523  0.6580 -0.5269
 2435SOL     OW 9846   0.675   4.655   4.127  0.1391  0.0016 -0.4389
 2435SOL    HW2 9847   0.590   4.693   4.148  0.9010  1.0882  0.7269
 2435SOL    HW3 9848   0.680   4.658   4.031 -0.9041  0.4200 -0.4842
 2435SOL    MW4 9849   0.664   4.660   4.117  0.1020  0.2007 -0.2909
 2436SOL     OW 9850   0.450   0.100   4.230  0.6369  0.2257 -0.0092
 2436SOL    HW2 9851   0.482   0.103   4.320 -1.8416  0.1292  0.9221
 2436SOL    HW3 9852   0.422   0.190   4.211 -1.0512 -0.2335  0.1922
 2436SOL    MW4 9853   0.450   0.112   4.239  0.0872  0.1524  0.1402
 2437SOL     OW 9854   0.414   0.373   4.114 -0.0464  0.3632  0.0193
 2437SOL    HW2 9855   0.502   0.403   4.137  0.5057 -0.6863 -0.6547
 2437SOL    HW3 9856   0.415   0.368   4.018 -0.3844 -0.9483  0.0682
 2437SOL    MW4 9857   0.426   0.376   4.104 -0.0181  0.0517 -0.0634
 2438SOL     OW 9858   0.649   0.501   4.197 -0.4485 -0.1827 -0.0813
 2438SOL    HW2 9859   0.718   0.451   4.152 -0.2220 -0.0631  0.1359
 2438SOL    HW3 9860   0.664   0.592   4.169  1.5194  0.3540  2.5385
 2438SOL    MW4 9861   0.660   0.506   4.187 -0.1589 -0.0961  0.2928
 2439SOL     OW 9862   0.707   0.763   4.070  0.3497 -0.0483  0.0284
 2439SOL    HW2 9863   0.632   0.815   4.099 -0.4432 -0.7678 -0.7077
 2439SOL    HW3 9864   0.707   0.773   3.975  0.9186 -0.4272 -0.0110
 2439SOL    MW4 9865   0.697   0.771   4.061  0.3201 -0.1931 -0.0734
 2440SOL     OW 9866   0.485   0.894   4.171 -0.0576 -0.3828  0.5146
 2440SOL    HW2 9867   0.462   0.987   4.172  0.1412 -0.3263  0.0968
 2440SOL    HW3 9868   0.402   0.849   4.155 -0.2264 -0.3018  1.1654
 2440SOL    MW4 9869   0.471   0.900   4.169 -0.0536 -0.3647  0.5450
 2441SOL     OW 9870   0.436   1.171   4.163  0.3656  0.1598  0.4031
 2441SOL    HW2 9871   0.513   1.209   4.206 -0.8440  1.2084  1.6765
 2441SOL    HW3 9872   0.452   1.185   4.069  1.3698  1.0616  0.6951
 2441SOL    MW4 9873   0.449   1.178   4.156  0.3385  0.4170  0.6094
 2442SOL     OW 9874   0.684   1.313   4.223  0.1838 -0.1316  0.6212
 2442SOL    HW2 9875   0.707   1.314   4.315 -0.4779 -1.3636  0.8180
 2442SOL    HW3 9876   0.680   1.405   4.197  3.7880  0.1896  0.9271
 2442SOL    MW4 9877   0.686   1.325   4.232  0.5720 -0.2519  0.6876
 2443SOL     OW 9878   0.679   1.567   4.088 -0.2721  0.0291  0.1828
 2443SOL    HW2 9879   0.755   1.605   4.133 -0.3315  0.1923  0.1443
 2443SOL    HW3 9880   0.699   1.579   3.995 -0.2176 -0.1749  0.1686
 2443SOL    MW4 9881   0.692   1.574   4.081 -0.2727  0.0237  0.1760
 2444SOL     OW 9882   0.190   1.549   4.105  0.4687 -0.1007  0.4113
 2444SOL    HW2 9883   0.196   1.460   4.139  1.7040  0.0284  0.5435
 2444SOL    HW3 9884   0.125   1.591   4.161 -2.5177 -1.7984 -1.6543
 2444SOL    MW4 9885   0.182   1.543   4.117  0.2377 -0.3077  0.1564
 2445SOL     OW 9886   0.480   1.939   4.093 -0.0876  0.3263 -0.2685
 2445SOL    HW2 9887   0.462   1.853   4.132 -0.4982 -0.2593 -1.6989
 2445SOL    HW3 9888   0.463   1.927   3.999 -0.6795  2.1160 -0.4131
 2445SOL    MW4 9889   0.475   1.926   4.086 -0.2199  0.4853 -0.4768
 2446SOL     OW 9890   0.694   2.063   4.244 -0.2616  0.3331 -0.2553
 2446SOL    HW2 9891   0.662   2.036   4.330  0.9257  0.4963  0.2372
 2446SOL    HW3 9892   0.636   2.018   4.182  0.9954 -2.5416  0.5666
 2446SOL    MW4 9893   0.682   2.054   4.247  0.0609 -0.0243 -0.0820
 2447SOL     OW 9894   0.681   2.324   4.155 -0.0466 -0.1616  0.3012
 2447SOL    HW2 9895   0.689   2.235   4.190  1.0741 -0.0706  0.2951
 2447SOL    HW3 9896   0.668   2.312   4.061 -0.4310 -0.3269  0.3724
 2447SOL    MW4 9897   0.680   2.310   4.147  0.0506 -0.1709  0.3099
 2448SOL     OW 9898   0.459   2.459   4.229  0.3126 -0.8156  0.6502
 2448SOL    HW2 9899   0.463   2.552   4.208  1.1072 -0.5997  1.7038
 2448SOL    HW3 9900   0.543   2.424   4.200 -0.5077 -1.4771 -0.9660
 2448SOL    MW4 9901   0.471   2.467   4.222  0.3092 -0.8743  0.5760
 2449SOL     OW 9902   0.485   2.738   4.148  0.6815 -0.2254 -0.1172
 2449SOL    HW2 9903   0.561   2.785   4.181 -0.2122  0.8099  0.4591
 2449SOL    HW3 9904   0.501   2.730   4.054  1.0814  0.7697 -0.1381
 2449SOL    MW4 9905   0.497   2.743   4.140  0.6163  0.0427 -0.0434
 2450SOL     OW 9906   0.724   2.871   4.236 -0.2517 -0.0844  0.1515
 2450SOL    HW2 9907   0.721   2.902   4.326  1.6091 -1.1854  0.6209
 2450SOL    HW3 9908   0.747   2.948   4.184 -0.3943  0.3369  0.7188
 2450SOL    MW4 9909   0.727   2.885   4.241 -0.0250 -0.1740  0.2880
 2451SOL     OW 9910   0.711   3.119   4.079 -0.0942  0.1262  0.3792
 2451SOL    HW2 9911   0.791   3.167   4.101 -0.5390  1.3134 -0.5538
 2451SOL    HW3 9912   0.643   3.160   4.134 -0.0687 -0.8564  1.1460
 2451SOL    MW4 9913   0.712   3.131   4.089 -0.1495  0.1531  0.3572
 2452SOL     OW 9914   0.462   3.199   4.213 -0.2820  0.4187  0.0641
 2452SOL    HW2 9915   0.490   3.211   4.304 -0.3877  0.2714  0.1146
 2452SOL    HW3 9916   0.425   3.284   4.188  0.5338  0.7378 -0.1153
 2452SOL    MW4 9917   0.461   3.212   4.221 -0.1883  0.4413  0.0477
 2453SOL     OW 9918   0.404   3.448   4.172 -0.0358 -0.1306 -0.2745
 2453SOL    HW2 9919   0.475   3.510   4.191 -1.0018  0.9502 -0.1584
 2453SOL    HW3 9920   0.402   3.443   4.076  0.3261 -0.3167 -0.2728
 2453SOL    MW4 9921   0.413   3.455   4.162 -0.1155 -0.0126 -0.2589
 2454SOL     OW 9922   0.642   3.606   4.260 -0.0017  0.5113  0.4315
 2454SOL    HW2 9923   0.658   3.570   4.347  0.8180  0.9700  0.4787
 2454SOL    HW3 9924   0.715   3.573   4.207 -1.3574 -1.0954 -0.4884
 2454SOL    MW4 9925   0.654   3.597   4.264 -0.0724  0.3595  0.3166
 2455SOL     OW 9926   0.641   3.856   4.151 -0.0020  0.1878  0.8294
 2455SOL    HW2 9927   0.574   3.906   4.198 -0.7050 -0.1604  0.1989
 2455SOL    HW3 9928   0.638   3.769   4.192 -0.0845  0.1064  0.6477
 2455SOL    MW4 9929   0.631   3.851   4.163 -0.1057  0.1311  0.7229
 2456SOL     OW 9930   0.437   4.018   4.283  0.1978  0.4514 -0.3141
 2456SOL    HW2 9931   0.435   4.098   4.230  0.0710  0.6429 -0.0170
 2456SOL    HW3 9932   0.354   3.975   4.265  0.7572 -0.2153 -1.4020
 2456SOL    MW4 9933   0.426   4.023   4.274  0.2549  0.3881 -0.4182
 2457SOL     OW 9934   0.413   4.255   4.141 -0.6975 -0.5924 -0.5249
 2457SOL    HW2 9935   0.344   4.315   4.170 -0.7635 -1.2946  0.8467
 2457SOL    HW3 9936   0.407   4.255   4.046 -0.1209  2.2395 -0.6100
 2457SOL    MW4 9937   0.403   4.263   4.133 -0.6301 -0.3119 -0.3552
 2458SOL     OW 9938   0.647   4.400   4.214 -0.1238  0.1422 -0.6962
 2458SOL    HW2 9939   0.566   4.358   4.187 -0.8172  0.8520  0.2779
 2458SOL    HW3 9940   0.634   4.492   4.194  0.1060  0.3856  0.2775
 2458SOL    MW4 9941   0.635   4.406   4.208 -0.1850  0.2680 -0.4392
 2459SOL     OW 9942   1.086   4.652   4.191  0.0855 -0.1222 -0.6605
 2459SOL    HW2 9943   1.077   4.558   4.205 -2.8250  0.2159  0.0445
 2459SOL    HW3 9944   1.091   4.661   4.096  2.6063 -1.1238 -0.6597
 2459SOL    MW4 9945   1.085   4.641   4.180  0.0340 -0.2097 -0.5679
 2460SOL     OW 9946   0.879   0.121   4.274  0.0486 -0.2533  0.6885
 2460SOL    HW2 9947   0.963   0.075   4.267 -0.3336 -1.0280  1.1376
 2460SOL    HW3 9948   0.819   0.069   4.219  0.3954  1.5862 -1.5163
 2460SOL    MW4 9949   0.882   0.108   4.266  0.0440 -0.1129  0.4568
 2461SOL     OW 9950   0.881   0.350   4.126 -0.5234  0.2192  0.2786
 2461SOL    HW2 9951   0.960   0.402   4.137  0.2668 -0.5494 -1.4577
 2461SOL    HW3 9952   0.894   0.273   4.182 -0.2867  0.3583  0.4124
 2461SOL    MW4 9953   0.893   0.347   4.134 -0.3878  0.1361  0.0672
 2462SOL     OW 9954   1.093   0.494   4.214  0.4069 -0.4479 -0.0416
 2462SOL    HW2 9955   1.063   0.492   4.305 -1.3173 -1.2474 -0.6086
 2462SOL    HW3 9956   1.176   0.446   4.215 -1.0132 -2.9929  0.6311
 2462SOL    MW4 9957   1.100   0.488   4.226 -0.0079 -0.8891 -0.0277
 2463SOL     OW 9958   1.125   0.760   4.128  0.0020  0.0856  0.5195
 2463SOL    HW2 9959   1.212   0.773   4.165  0.6864 -2.4096 -0.1210
 2463SOL    HW3 9960   1.100   0.671   4.154 -0.1978 -1.1274 -3.4946
 2463SOL    MW4 9961   1.133   0.750   4.136  0.0658 -0.4036 -0.0949
 2464SOL     OW 9962   0.905   0.912   4.201  0.1622  0.2559  0.3103
 2464SOL    HW2 9963   0.985   0.860   4.192 -0.2569 -0.2286 -0.6156
 2464SOL    HW3 9964   0.841   0.868   4.145 -0.9915  0.1846  1.6471
 2464SOL    MW4 9965   0.907   0.899   4.193 -0.0453  0.1826  0.3643
 2465SOL     OW 9966   0.930   1.181   4.140 -0.2502 -0.1280 -0.1672
 2465SOL    HW2 9967   0.906   1.091   4.163 -1.6335  0.3399  0.2408
 2465SOL    HW3 9968   0.851   1.232   4.158  0.0435  0.9307 -1.8355
 2465SOL    MW4 9969   0.916   1.176   4.146 -0.3939  0.0734 -0.3338
 2466SOL     OW 9970   1.164   1.293   4.208  0.1512 -0.1992  0.2320
 2466SOL    HW2 9971   1.157   1.307   4.302  0.6395  2.7689 -0.1239
 2466SOL    HW3 9972   1.079   1.257   4.183 -0.7624  1.0117  1.5075
 2466SOL    MW4 9973   1.152   1.290   4.217  0.0951  0.3521  0.3533
 2467SOL     OW 9974   1.174   1.537   4.104  0.0991 -0.6555  0.6213
 2467SOL    HW2 9975   1.094   1.572   4.143  0.7243 -0.2202  1.5333
 2467SOL    HW3 9976   1.180   1.447   4.137 -0.3866 -0.9267 -0.0205
 2467SOL    MW4 9977   1.164   1.530   4.113  0.1175 -0.6338  0.6571
 2468SOL     OW 9978   0.917   1.654   4.201 -0.0137 -0.3161  0.1456
 2468SOL    HW2 9979   0.913   1.667   4.296 -0.5241 -0.7797  0.1916
 2468SOL    HW3 9980   0.902   1.741   4.164  2.4138  0.2904  0.5010
 2468SOL    MW4 9981   0.915   1.667   4.209  0.2393 -0.2972  0.1979
 2469SOL     OW 9982   0.922   1.924   4.163  0.1743 -0.0479 -0.0260
 2469SOL    HW2 9983   0.858   1.976   4.211  0.0776 -0.4782  0.3248
 2469SOL    HW3 9984   0.904   1.942   4.071 -0.3961 -0.0986  0.0730
 2469SOL    MW4 9985   0.911   1.933   4.157  0.0862 -0.1115  0.0334
 2470SOL     OW 9986   1.134   2.046   4.282 -0.4039 -0.3755  0.5922
 2470SOL    HW2 9987   1.085   2.045   4.364 -0.4831  0.4919  0.5684
 2470SOL    HW3 9988   1.075   2.005   4.219 -0.0557 -1.6867  1.1206
 2470SOL    MW4 9989   1.120   2.041   4.284 -0.3686 -0.4339  0.6590
 2471SOL     OW 9990   1.185   2.270   4.137 -0.3914  0.0374  0.3023
 2471SOL    HW2 9991   1.230   2.332   4.195 -1.3460  0.5730  0.4932
 2471SOL    HW3 9992   1.167   2.194   4.193  2.1635 -1.0673 -0.3471
 2471SOL    MW4 9993   1.188   2.268   4.152 -0.1801 -0.0374  0.2422
 2472SOL     OW 9994   0.923   2.446   4.228  0.0874  0.0055  0.7530
 2472SOL    HW2 9995   1.010   2.409   4.214  0.3014  0.4750  0.8608
 2472SOL    HW3 9996   0.865   2.391   4.174  0.3686 -0.6651  1.1271
 2472SOL    MW4 9997   0.927   2.434   4.219  0.1528 -0.0210  0.8163
 2473SOL     OW 9998   0.831   2.664   4.063 -0.2041  0.0083  0.1404
 2473SOL    HW2 9999   0.865   2.605   4.130 -0.9506 -0.0004  0.5114
 2473SOL    HW310000   0.781   2.729   4.111  1.1646  1.3391 -0.2086
 2473SOL    MW410001   0.829   2.665   4.078 -0.1220  0.1829  0.1435
 2474SOL     OW10002   1.085   2.777   4.127  0.4839 -0.2836  0.4365
 2474SOL    HW210003   1.094   2.872   4.129 -0.6241 -0.1769  1.0773
 2474SOL    HW310004   0.996   2.762   4.093  0.4976 -1.0698  0.7349
 2474SOL    MW410005   1.074   2.788   4.123  0.3396 -0.3731  0.5598
 2475SOL     OW10006   1.108   3.039   4.145  0.5020  0.6692  0.5718
 2475SOL    HW210007   1.172   3.086   4.198  0.3035  1.2037  0.3409
 2475SOL    HW310008   1.125   3.068   4.055  1.2202 -0.6641  0.2602
 2475SOL    MW410009   1.119   3.049   4.140  0.5705  0.5639  0.5007
 2476SOL     OW10010   0.939   3.239   4.197 -0.2581  0.3368  0.1918
 2476SOL    HW210011   0.931   3.229   4.291  0.1866  0.7980  0.2854
 2476SOL    HW310012   0.989   3.163   4.168 -2.4266 -1.0527 -0.0075
 2476SOL    MW410013   0.944   3.228   4.205 -0.4856  0.2143  0.1779
 2477SOL     OW10014   0.865   3.496   4.129 -0.2448 -0.3876  0.1984
 2477SOL    HW210015   0.888   3.406   4.154 -0.0719  0.1177  1.8896
 2477SOL    HW310016   0.891   3.502   4.037 -3.0302 -3.0095 -0.8658
 2477SOL    MW410017   0.871   3.485   4.120 -0.5894 -0.6669  0.2813
 2478SOL     OW10018   1.067   3.586   4.303  0.6084 -1.1768  0.1267
 2478SOL    HW210019   1.082   3.670   4.260 -1.3120 -0.4764  0.7805
 2478SOL    HW310020   0.996   3.546   4.252 -1.2504 -0.6242  2.2455
 2478SOL    MW410021   1.059   3.592   4.290  0.1097 -1.0114  0.4926
 2479SOL     OW10022   1.081   3.838   4.189 -0.3220  0.0457  0.6255
 2479SOL    HW210023   1.161   3.878   4.222 -0.7171  2.4877 -1.2198
 2479SOL    HW310024   1.012   3.901   4.210 -1.0331  0.1986 -1.9830
 2479SOL    MW410025   1.082   3.852   4.196 -0.4679  0.3881  0.0381
 2480SOL     OW10026   0.876   3.989   4.246  0.0175  0.3445 -0.2496
 2480SOL    HW210027   0.885   4.075   4.204  0.8589  0.3813 -0.0135
 2480SOL    HW310028   0.791   3.956   4.217 -0.3816  1.3264 -0.2172
 2480SOL    MW410029   0.866   3.996   4.237  0.0759  0.4790 -0.2141
 2481SOL     OW10030   0.857   4.236   4.125 -0.5932 -0.3846 -0.1164
 2481SOL    HW210031   0.939   4.273   4.156 -1.0661 -0.0550  0.7586
 2481SOL    HW310032   0.790   4.299   4.152 -0.9902  0.0884 -2.1086
 2481SOL    MW410033   0.859   4.249   4.133 -0.7080 -0.2780 -0.2637
 2482SOL     OW10034   1.067   4.382   4.218  0.3401 -0.1899  0.0896
 2482SOL    HW210035   1.043   4.367   4.310  0.2332  1.8834  0.4047
 2482SOL    HW310036   1.149   4.333   4.207 -0.9193 -2.5129  0.5766
 2482SOL    MW410037   1.075   4.373   4.229  0.1597 -0.2232  0.1955
 2483SOL     OW10038   1.521   4.611   4.167 -0.2196 -0.0556  0.2287
 2483SOL    HW210039   1.605   4.653   4.185 -1.3174  2.6630 -0.7100
 2483SOL    HW310040   1.458   4.659   4.221 -1.4766 -0.6156 -0.7061
 2483SOL    MW410041   1.524   4.623   4.176 -0.5304  0.2294 -0.0181
 2484SOL     OW10042   1.321   0.104   4.278  0.3273 -0.1885 -0.0478
 2484SOL    HW210043   1.290   0.119   4.367 -1.8020 -1.0149 -0.6037
 2484SOL    HW310044   1.259   0.040   4.242  0.9442  0.3870 -2.2175
 2484SOL    MW410045   1.308   0.097   4.285  0.1278 -0.2216 -0.4082
 2485SOL     OW10046   1.336   0.360   4.210 -0.4014 -0.6550 -0.8141
 2485SOL    HW210047   1.425   0.394   4.220 -0.2163 -0.5970 -2.4785
 2485SOL    HW310048   1.344   0.267   4.234 -0.5305  0.0075  1.9382
 2485SOL    MW410049   1.349   0.352   4.214 -0.3940 -0.5600 -0.6704
 2486SOL     OW10050   1.647   0.402   4.322  0.0514  0.2723 -0.0911
 2486SOL    HW210051   1.596   0.344   4.379 -2.1232  1.3152 -0.9154
 2486SOL    HW310052   1.648   0.486   4.368 -0.2506  0.6603 -0.7896
 2486SOL    MW410053   1.641   0.406   4.335 -0.2754  0.4611 -0.2923
 2487SOL     OW10054   1.581   0.718   4.108  0.2270  0.5220  0.0216
 2487SOL    HW210055   1.674   0.696   4.114  0.5037  1.2507 -1.3443
 2487SOL    HW310056   1.568   0.740   4.016 -1.1921  0.9126  0.3110
 2487SOL    MW410057   1.592   0.718   4.097  0.0764  0.6697 -0.1206
 2488SOL     OW10058   1.365   0.837   4.253  0.3930 -0.3083  0.2979
 2488SOL    HW210059   1.365   0.916   4.199  1.4578 -0.6475 -0.1948
 2488SOL    HW310060   1.439   0.786   4.222  1.0417 -0.4980  2.0971
 2488SOL    MW410061   1.375   0.841   4.242  0.6192 -0.3781  0.4706
 2489SOL     OW10062   1.317   1.079   4.115 -0.5901 -0.4174 -0.2661
 2489SOL    HW210063   1.265   1.153   4.146  1.8711  1.6116 -0.7414
 2489SOL    HW310064   1.330   1.096   4.022  0.5010 -1.1047 -0.2571
 2489SOL    MW410065   1.312   1.091   4.107 -0.1216 -0.2403 -0.3281
 2490SOL     OW10066   1.467   1.329   4.514  0.2570  0.0921  0.4053
 2490SOL    HW210067   1.489   1.242   4.548 -0.1983 -0.3439 -0.3900
 2490SOL    HW310068   1.371   1.330   4.509  0.2202  0.9275  1.1369
 2490SOL    MW410069   1.457   1.318   4.518  0.1920  0.1448  0.3972
 2491SOL     OW10070   1.662   1.566   4.136  0.4457 -0.3645  0.4224
 2491SOL    HW210071   1.576   1.598   4.163 -0.6546 -1.5380 -1.5389
 2491SOL    HW310072   1.684   1.499   4.200 -1.2337 -1.7602 -0.4241
 2491SOL    MW410073   1.654   1.562   4.148  0.0789 -0.7035  0.0520
 2492SOL     OW10074   1.412   1.637   4.226  0.2651 -0.0368 -0.1068
 2492SOL    HW210075   1.382   1.728   4.224  1.9798  0.5353 -0.3162
 2492SOL    HW310076   1.356   1.592   4.163  0.0999  1.1008 -0.7781
 2492SOL    MW410077   1.401   1.643   4.217  0.4696  0.1888 -0.2232
 2493SOL     OW10078   1.347   1.915   4.176  0.1559  0.3369  0.5771
 2493SOL    HW210079   1.427   1.957   4.208 -0.0834  0.9963  0.3238
 2493SOL    HW310080   1.276   1.963   4.220 -0.1074 -0.0672  0.5935
 2493SOL    MW410081   1.348   1.927   4.186  0.0896  0.3707  0.5460
 2494SOL     OW10082   1.552   2.097   4.720 -0.0269 -0.3686  0.0388
 2494SOL    HW210083   1.575   2.152   4.795  1.8403 -0.0389 -0.7687
 2494SOL    HW310084   1.550   2.008   4.755  2.0310 -0.3508  0.2235
 2494SOL    MW410085   1.554   2.093   4.735  0.4910 -0.3228 -0.0439
 2495SOL     OW10086   1.559   2.323   4.140 -0.2039 -0.5558  0.4033
 2495SOL    HW210087   1.651   2.340   4.160 -0.3093  0.4805  0.0576
 2495SOL    HW310088   1.555   2.317   4.045 -1.1839  4.1360 -0.0136
 2495SOL    MW410089   1.571   2.325   4.130 -0.3471  0.2003  0.3028
 2496SOL     OW10090   1.335   2.450   4.280  0.0711  0.0103 -0.2619
 2496SOL    HW210091   1.350   2.529   4.227 -2.3059  0.3437 -0.4817
 2496SOL    HW310092   1.417   2.402   4.273  0.6514  1.2012 -2.3011
 2496SOL    MW410093   1.348   2.454   4.272 -0.1658  0.2117 -0.5598
 2497SOL     OW10094   1.360   2.700   4.153  0.1393 -0.3552  0.5505
 2497SOL    HW210095   1.420   2.759   4.198 -0.4054  1.2064 -0.6732
 2497SOL    HW310096   1.273   2.740   4.166 -0.3445 -1.3456  0.4024
 2497SOL    MW410097   1.356   2.713   4.160  0.0036 -0.2799  0.3691
 2498SOL     OW10098   1.535   2.867   4.280  0.6975  0.5739  0.7643
 2498SOL    HW210099   1.611   2.812   4.300 -0.3351 -0.8364  0.8938
 2498SOL    HW310100   1.513   2.909   4.363  0.7540  0.2306  0.9543
 2498SOL    MW410101   1.542   2.865   4.294  0.5686  0.3424  0.8063
 2499SOL     OW10102   1.535   3.108   4.139 -0.4521 -0.0035 -0.4513
 2499SOL    HW210103   1.614   3.151   4.170 -0.1704  0.0734 -1.2578
 2499SOL    HW310104   1.534   3.024   4.184  0.3652 -0.2235 -0.8364
 2499SOL    MW410105   1.545   3.103   4.149 -0.3072 -0.0224 -0.6084
 2500SOL     OW10106   1.302   3.189   4.267 -0.0422 -0.3625 -0.2469
 2500SOL    HW210107   1.394   3.164   4.260 -0.0078 -0.6337  1.0027
 2500SOL    HW310108   1.298   3.277   4.230  0.4024 -0.9983 -1.8425
 2500SOL    MW410109   1.313   3.197   4.261  0.0210 -0.4823 -0.2928
 2501SOL     OW10110   1.284   3.454   4.172 -0.2355 -0.2728  0.1628
 2501SOL    HW210111   1.221   3.506   4.221 -0.0689 -0.3973  0.5090
 2501SOL    HW310112   1.274   3.483   4.081  1.1550  1.6920  0.5891
 2501SOL    MW410113   1.275   3.465   4.166 -0.0300 -0.0298  0.2651
 2502SOL     OW10114   1.551   3.588   4.211 -0.1070  0.3358 -0.1585
 2502SOL    HW210115   1.553   3.588   4.306 -2.3177  1.0311 -0.0824
 2502SOL    HW310116   1.474   3.536   4.188  0.0752  0.6554 -1.5414
 2502SOL    MW410117   1.541   3.581   4.220 -0.3747  0.4694 -0.3309
 2503SOL     OW10118   1.528   3.860   4.165 -0.3260 -0.3485 -0.0329
 2503SOL    HW210119   1.454   3.890   4.217  0.5492 -0.3030  1.2041
 2503SOL    HW310120   1.540   3.768   4.191 -0.5785 -0.6473 -0.9662
 2503SOL    MW410121   1.520   3.852   4.175 -0.2440 -0.3819  0.0072
 2504SOL     OW10122   1.300   3.965   4.281  0.3824 -0.2943  0.1601
 2504SOL    HW210123   1.291   3.961   4.376 -1.0720 -1.4985 -0.0043
 2504SOL    HW310124   1.298   4.058   4.260  1.5210  0.0120  1.3719
 2504SOL    MW410125   1.298   3.976   4.291  0.3408 -0.4127  0.2985
 2505SOL     OW10126   1.299   4.224   4.172 -0.1846 -0.0698  0.3156
 2505SOL    HW210127   1.374   4.277   4.197 -0.7788  0.9437 -0.0004
 2505SOL    HW310128   1.301   4.224   4.076 -1.0636  0.6800  0.2866
 2505SOL    MW410129   1.309   4.231   4.162 -0.3791  0.1631  0.2694
 2506SOL     OW10130   1.534   4.346   4.249 -0.1422  0.2518 -0.5534
 2506SOL    HW210131   1.538   4.434   4.212  0.5190  0.7323  0.6333
 2506SOL    HW310132   1.617   4.305   4.224 -0.3179  0.0693 -0.8416
 2506SOL    MW410133   1.545   4.352   4.241 -0.0782  0.2909 -0.4349
 2507SOL     OW10134   2.029   0.007   4.133 -0.1180 -0.2223 -0.3829
 2507SOL    HW210135   1.945   0.046   4.156 -1.1370 -2.8642  0.5633
 2507SOL    HW310136   2.031   0.008   4.038 -0.4377  1.4339 -0.3842
 2507SOL    MW410137   2.018   0.012   4.124 -0.2947 -0.3524 -0.2584
 2508SOL     OW10138   1.769   0.085   4.194  0.2249  0.3618 -0.1836
 2508SOL    HW210139   1.764   0.092   4.290 -0.3754  1.0570 -0.2569
 2508SOL    HW310140   1.780   0.175   4.164  0.5132  0.1349 -0.7656
 2508SOL    MW410141   1.770   0.098   4.203  0.1838  0.4236 -0.2704
 2509SOL     OW10142   1.812   0.350   4.113  0.1576 -0.3419 -0.3007
 2509SOL    HW210143   1.897   0.385   4.138 -0.6490  0.1156  1.9193
 2509SOL    HW310144   1.751   0.386   4.178 -1.7575 -0.5280 -1.9408
 2509SOL    MW410145   1.815   0.360   4.125 -0.2013 -0.3061 -0.2236
 2510SOL     OW10146   2.033   0.517   4.163 -0.0713  0.3190  0.1182
 2510SOL    HW210147   2.046   0.517   4.258 -1.7988 -1.3950  0.4035
 2510SOL    HW310148   2.111   0.474   4.128  0.0826 -0.0191  0.8663
 2510SOL    MW410149   2.045   0.511   4.171 -0.2787  0.0482  0.2542
 2511SOL     OW10150   1.886   0.732   4.103  0.1939 -0.1358 -0.0146
 2511SOL    HW210151   1.908   0.800   4.167  1.0245  0.4969 -0.9786
 2511SOL    HW310152   1.939   0.657   4.129 -0.5452 -0.3672  0.9028
 2511SOL    MW410153   1.896   0.731   4.115  0.2059 -0.0828 -0.0205
 2512SOL     OW10154   1.642   0.680   4.452 -0.2435 -0.3656 -0.0809
 2512SOL    HW210155   1.638   0.762   4.404 -1.5038 -0.4865 -0.2182
 2512SOL    HW310156   1.729   0.678   4.492  0.2385  0.4591 -1.0788
 2512SOL    MW410157   1.653   0.690   4.451 -0.3463 -0.2728 -0.2303
 2513SOL     OW10158   1.613   1.102   4.150  0.0351 -0.0868  0.2315
 2513SOL    HW210159   1.625   1.038   4.219  0.1314 -1.8345 -1.3763
 2513SOL    HW310160   1.520   1.097   4.127  0.0869  0.1883 -0.0503
 2513SOL    MW410161   1.602   1.093   4.156  0.0547 -0.2812 -0.0176
 2514SOL     OW10162   1.696   1.339   4.292  0.0391 -0.0117  0.1864
 2514SOL    HW210163   1.618   1.338   4.347  1.3368  0.1114  2.0879
 2514SOL    HW310164   1.682   1.268   4.230 -0.6800 -1.3489  1.8284
 2514SOL    MW410165   1.684   1.329   4.291  0.1154 -0.1720  0.6533
 2515SOL     OW10166   1.928   1.299   3.961  0.0529 -0.9771 -0.3260
 2515SOL    HW210167   1.855   1.239   3.943 -0.6270 -0.4167  0.5222
 2515SOL    HW310168   1.943   1.291   4.056 -0.4533  0.6458 -0.0958
 2515SOL    MW410169   1.920   1.290   3.972 -0.1036 -0.6890 -0.1838
 2516SOL     OW10170   1.837   2.011   4.150  0.4529  0.2907  0.1623
 2516SOL    HW210171   1.917   2.056   4.175  0.4123 -0.7164  2.1338
 2516SOL    HW310172   1.855   1.919   4.166 -1.2104  0.0888  0.9472
 2516SOL    MW410173   1.850   2.005   4.155  0.2280  0.1309  0.5260
 2517SOL     OW10174   1.589   2.079   4.253  0.0732 -0.1334 -0.1544
 2517SOL    HW210175   1.664   2.061   4.198 -0.2436  0.3296 -0.7499
 2517SOL    HW310176   1.565   2.170   4.233  0.1320  0.1417  0.9561
 2517SOL    MW410177   1.595   2.089   4.243  0.0391 -0.0360 -0.0868
 2518SOL     OW10178   2.004   2.074   4.517 -0.1667 -0.3780  0.3981
 2518SOL    HW210179   1.909   2.074   4.504 -0.2191 -0.0354  0.7820
 2518SOL    HW310180   2.038   2.027   4.441 -0.7175 -1.5276  0.8576
 2518SOL    MW410181   1.996   2.068   4.505 -0.2463 -0.4845  0.5088
 2519SOL     OW10182   2.057   2.213   4.154  0.0441  0.0484  0.0916
 2519SOL    HW210183   2.095   2.129   4.181 -0.9460 -0.2141  0.7166
 2519SOL    HW310184   2.074   2.219   4.061  0.0831 -0.8759  0.0353
 2519SOL    MW410185   2.064   2.202   4.146 -0.0813 -0.1082  0.1669
 2520SOL     OW10186   1.827   2.378   4.223 -0.0623 -0.4545  0.2333
 2520SOL    HW210187   1.832   2.392   4.317  1.3447  1.0510 -0.0422
 2520SOL    HW310188   1.909   2.332   4.201  0.3981  0.6676 -0.4690
 2520SOL    MW410189   1.839   2.374   4.232  0.1839 -0.1080  0.1044
 2521SOL     OW10190   1.896   2.641   4.171  0.4703 -0.5274 -0.5445
 2521SOL    HW210191   1.877   2.549   4.187  1.0203 -0.3712  1.0906
 2521SOL    HW310192   1.838   2.688   4.230  0.9792  0.1487 -0.5785
 2521SOL    MW410193   1.886   2.635   4.181  0.6100 -0.4177 -0.3328
 2522SOL     OW10194   2.080   2.820   4.221 -0.0618  0.0484  0.1858
 2522SOL    HW210195   2.055   2.843   4.310 -1.0276  0.7419 -0.2485
 2522SOL    HW310196   2.021   2.748   4.198  1.0046 -0.9448  0.5269
 2522SOL    MW410197   2.069   2.814   4.230 -0.0486  0.0088  0.1736
 2523SOL     OW10198   2.005   3.073   4.120  0.4520  0.1029  0.1919
 2523SOL    HW210199   2.042   2.987   4.139  0.9721  0.1420 -0.5695
 2523SOL    HW310200   2.030   3.089   4.028  1.2280  1.4866  0.6258
 2523SOL    MW410201   2.013   3.064   4.110  0.6230  0.2904  0.1483
 2524SOL     OW10202   1.769   3.217   4.260 -0.6226 -0.0477 -0.1928
 2524SOL    HW210203   1.780   3.301   4.214 -1.8655 -1.0974 -2.4504
 2524SOL    HW310204   1.846   3.166   4.235 -0.7839 -0.2516 -0.2679
 2524SOL    MW410205   1.781   3.222   4.251 -0.8079 -0.2131 -0.5002
 2525SOL     OW10206   1.793   3.467   4.135  0.0254 -0.3575  0.6965
 2525SOL    HW210207   1.706   3.503   4.153 -0.9214 -2.1252 -0.2423
 2525SOL    HW310208   1.806   3.480   4.041  0.5534 -0.6155  0.7334
 2525SOL    MW410209   1.784   3.474   4.125 -0.0299 -0.6247  0.5774
 2526SOL     OW10210   2.049   3.568   4.207 -0.3499  0.1758  0.0807
 2526SOL    HW210211   2.035   3.660   4.183 -1.8040  0.0570  0.4131
 2526SOL    HW310212   1.964   3.526   4.192  0.1383 -0.9899  0.5000
 2526SOL    MW410213   2.036   3.575   4.202 -0.4773  0.0064  0.1798
 2527SOL     OW10214   2.004   3.831   4.147  0.6149 -0.4162  0.1535
 2527SOL    HW210215   1.924   3.879   4.168  1.6230  0.9841  0.9178
 2527SOL    HW310216   2.010   3.835   4.052  0.0743 -0.0337  0.1334
 2527SOL    MW410217   1.995   3.838   4.137  0.6768 -0.1810  0.2522
 2528SOL     OW10218   1.771   3.981   4.203 -0.1246  0.8219  0.5335
 2528SOL    HW210219   1.767   4.076   4.192 -1.4319  1.0239  2.4222
 2528SOL    HW310220   1.680   3.952   4.196  0.2223 -0.2544  0.3519
 2528SOL    MW410221   1.759   3.990   4.201 -0.2513  0.7064  0.7591
 2529SOL     OW10222   1.775   4.245   4.145  0.2013  0.1431  0.4883
 2529SOL    HW210223   1.858   4.289   4.163  0.8441 -0.8969  0.1629
 2529SOL    HW310224   1.766   4.249   4.050  0.0037  0.0489  0.5022
 2529SOL    MW410225   1.785   4.251   4.135  0.2601 -0.0062  0.4473
 2530SOL     OW10226   2.022   4.411   4.156 -0.5978 -0.2480 -0.1940
 2530SOL    HW210227   1.998   4.397   4.248  2.0816 -0.5864  0.5029
 2530SOL    HW310228   2.026   4.506   4.147  0.3768 -0.2216  0.4134
 2530SOL    MW410229   2.020   4.422   4.167 -0.1156 -0.2894 -0.0215
 2531SOL     OW10230   2.463   0.015   4.073 -0.2029 -0.4587 -0.1341
 2531SOL    HW210231   2.535   0.066   4.110  0.1586 -0.4905 -0.7911
 2531SOL    HW310232   2.465  -0.067   4.122  0.7609 -0.8061 -0.7361
 2531SOL    MW410233   2.473   0.011   4.084 -0.0281 -0.5087 -0.3004
 2532SOL     OW10234   2.264   0.172   4.186  0.0314 -0.1092 -0.1184
 2532SOL    HW210235   2.334   0.114   4.156  0.4182  0.6327 -0.6675
 2532SOL    HW310236   2.187   0.116   4.192  0.4627 -0.7390 -0.3660
 2532SOL    MW410237   2.263   0.157   4.183  0.1392 -0.0944 -0.2232
 2533SOL     OW10238   2.255   0.415   4.043  0.1877 -0.0496  0.0860
 2533SOL    HW210239   2.259   0.326   4.078 -0.1159  0.1037  0.5201
 2533SOL    HW310240   2.278   0.407   3.951  3.0690 -0.2205  0.7589
 2533SOL    MW410241   2.259   0.402   4.036  0.5281 -0.0519  0.2317
 2534SOL     OW10242   2.490   0.506   4.197  0.2820 -0.4406  0.0625
 2534SOL    HW210243   2.479   0.521   4.291  0.7543  0.5004 -0.0238
 2534SOL    HW310244   2.402   0.486   4.165  0.0979 -0.6152  0.6803
 2534SOL    MW410245   2.477   0.505   4.205  0.3197 -0.3395  0.1326
 2535SOL     OW10246   2.490   0.766   4.114  0.4096 -0.1421  0.0858
 2535SOL    HW210247   2.504   0.678   4.149  0.9440 -0.0860  0.0065
 2535SOL    HW310248   2.503   0.756   4.020  0.2983 -0.0116  0.0563
 2535SOL    MW410249   2.493   0.753   4.106  0.4654 -0.1175  0.0715
 2536SOL     OW10250   2.125   0.790   4.356  0.7532  0.4962  0.1368
 2536SOL    HW210251   2.174   0.840   4.422  1.1356  1.3397 -0.7772
 2536SOL    HW310252   2.163   0.816   4.273 -0.7248  0.5844 -0.5382
 2536SOL    MW410253   2.136   0.800   4.354  0.6087  0.6191 -0.0730
 2537SOL     OW10254   2.206   0.861   4.101  0.3878  0.0078  0.3775
 2537SOL    HW210255   2.223   0.953   4.124  0.2286 -0.1492  1.1353
 2537SOL    HW310256   2.292   0.820   4.104  0.2541 -0.2047  1.5854
 2537SOL    MW410257   2.220   0.868   4.104  0.3490 -0.0409  0.6361
 2538SOL     OW10258   2.276   1.117   4.166 -0.0671 -0.0119  0.1803
 2538SOL    HW210259   2.254   1.205   4.198 -0.3133  0.2389 -0.6783
 2538SOL    HW310260   2.369   1.108   4.185  0.0761  0.6300 -0.1803
 2538SOL    MW410261   2.285   1.128   4.173 -0.0808  0.1057  0.0191
 2539SOL     OW10262   2.477   1.545   4.106  0.4509  0.0005 -0.0217
 2539SOL    HW210263   2.484   1.465   4.158 -0.5675 -0.8185 -1.1021
 2539SOL    HW310264   2.504   1.519   4.018 -0.6332  0.6434 -0.5570
 2539SOL    MW410265   2.481   1.531   4.101  0.1736 -0.0228 -0.2346
 2540SOL     OW10266   2.289   1.774   4.145 -0.2951 -0.0538  0.0681
 2540SOL    HW210267   2.256   1.811   4.063 -0.4878 -0.1521  0.1002
 2540SOL    HW310268   2.345   1.702   4.118  1.6354  1.4701 -0.0698
 2540SOL    MW410269   2.292   1.770   4.130 -0.0658  0.1343  0.0539
 2541SOL     OW10270   2.177   2.007   4.290  0.5507 -0.0042  0.0300
 2541SOL    HW210271   2.235   2.054   4.350  0.4581 -1.5082  1.3278
 2541SOL    HW310272   2.233   1.943   4.247 -0.1730 -1.5488  1.3793
 2541SOL    MW410273   2.192   2.005   4.292  0.4432 -0.4065  0.3796
 2542SOL     OW10274   2.378   2.186   4.452  0.6050  0.1782 -0.7338
 2542SOL    HW210275   2.367   2.159   4.543  0.5894  2.4200 -0.0299
 2542SOL    HW310276   2.454   2.137   4.421 -1.2812 -3.0078 -0.5189
 2542SOL    MW410277   2.386   2.176   4.460  0.3541  0.0539 -0.6123
 2543SOL     OW10278   2.302   2.356   4.736 -0.5143  0.3819 -0.1571
 2543SOL    HW210279   2.215   2.355   4.696 -0.8176 -2.5483  0.5113
 2543SOL    HW310280   2.330   2.265   4.737  1.7903  1.0535  1.3288
 2543SOL    MW410281   2.294   2.344   4.731 -0.2499  0.0837  0.1268
 2544SOL     OW10282   2.211   2.362   4.336  0.0928  0.2009  0.4700
 2544SOL    HW210283   2.263   2.294   4.380 -1.4076 -0.5187  1.1767
 2544SOL    HW310284   2.156   2.314   4.274 -0.1384  0.8848  0.1427
 2544SOL    MW410285   2.210   2.346   4.334 -0.1357  0.1960  0.5198
 2545SOL     OW10286   2.388   2.514   4.152 -0.0704  0.2880 -0.3769
 2545SOL    HW210287   2.477   2.479   4.164  0.1144  1.2418  1.2589
 2545SOL    HW310288   2.333   2.457   4.206 -0.2693  0.4223 -0.4391
 2545SOL    MW410289   2.393   2.502   4.161 -0.0722  0.4315 -0.1693
 2546SOL     OW10290   2.443   3.057   4.148 -0.0197  0.0138  0.1715
 2546SOL    HW210291   2.376   3.107   4.194  0.0739 -0.0241  0.3502
 2546SOL    HW310292   2.441   2.971   4.190  0.5121  0.1783  0.5368
 2546SOL    MW410293   2.434   3.052   4.159  0.0629  0.0305  0.2432
 2547SOL     OW10294   2.230   3.203   4.241  0.2461 -0.1246 -0.0707
 2547SOL    HW210295   2.241   3.281   4.188  2.2179 -2.1937 -2.8813
 2547SOL    HW310296   2.143   3.169   4.217 -0.0868  0.5286  0.2183
 2547SOL    MW410297   2.220   3.209   4.231  0.4621 -0.3116 -0.4034
 2548SOL     OW10298   2.258   3.429   4.091  0.0318 -0.3325 -0.0207
 2548SOL    HW210299   2.327   3.488   4.122  0.3120  0.1512 -1.5178
 2548SOL    HW310300   2.177   3.469   4.122  0.3000  0.1519  0.0597
 2548SOL    MW410301   2.256   3.442   4.099  0.1042 -0.2048 -0.2074
 2549SOL     OW10302   2.470   3.545   4.222  0.3618 -0.1032  0.2934
 2549SOL    HW210303   2.439   3.516   4.307  0.5702 -0.3348  0.2936
 2549SOL    HW310304   2.460   3.640   4.223  0.3362 -0.1093  0.5629
 2549SOL    MW410305   2.465   3.553   4.233  0.3860 -0.1347  0.3285
 2550SOL     OW10306   2.455   3.818   4.136  0.0553  0.4026  0.3838
 2550SOL    HW210307   2.524   3.864   4.183  0.3122 -0.2591  0.6573
 2550SOL    HW310308   2.468   3.844   4.044  1.1090 -0.2704  0.3320
 2550SOL    MW410309   2.466   3.828   4.130  0.2282  0.2265  0.4134
 2551SOL     OW10310   2.247   3.977   4.225  0.3654  0.0741  0.1348
 2551SOL    HW210311   2.326   3.929   4.198  0.3817  0.6331 -0.8186
 2551SOL    HW310312   2.175   3.923   4.193  0.3808  0.4851 -0.6033
 2551SOL    MW410313   2.248   3.963   4.217  0.3698  0.2022 -0.0887
 2552SOL     OW10314   2.253   4.269   4.084 -0.2588 -0.1138 -0.3589
 2552SOL    HW210315   2.253   4.199   4.150  0.7750 -0.2140 -0.4690
 2552SOL    HW310316   2.174   4.320   4.104 -0.0532 -0.2574  0.8393
 2552SOL    MW410317   2.242   4.266   4.096 -0.0951 -0.1454 -0.2155
 2553SOL     OW10318   2.428   4.436   4.212 -0.6527 -0.0370 -0.2631
 2553SOL    HW210319   2.514   4.395   4.199 -0.6279  0.0733 -0.4375
 2553SOL    HW310320   2.369   4.386   4.157 -0.7179 -0.1715 -0.0711
 2553SOL    MW410321   2.432   4.424   4.203 -0.6580 -0.0401 -0.2613
 2554SOL     OW10322   2.898   0.009   4.154 -0.4853  0.5068 -0.0446
 2554SOL    HW210323   2.975   0.049   4.193 -1.3463  1.5790  0.6044
 2554SOL    HW310324   2.896  -0.080   4.190  0.8381  0.2405 -0.6322
 2554SOL    MW410325   2.908   0.002   4.164 -0.4244  0.6137 -0.0362
 2555SOL     OW10326   2.663   0.164   4.185  0.1838  0.0773  0.3976
 2555SOL    HW210327   2.698   0.254   4.186  1.3891 -0.3741 -0.0753
 2555SOL    HW310328   2.740   0.108   4.180 -0.5295 -1.0305  1.5378
 2555SOL    MW410329   2.678   0.169   4.184  0.2487 -0.1284  0.4859
 2556SOL     OW10330   2.751   0.423   4.162 -0.4705  0.1631 -0.2316
 2556SOL    HW210331   2.664   0.456   4.182 -1.0904 -0.7200 -1.4126
 2556SOL    HW310332   2.749   0.406   4.068  0.0087 -2.7262  0.2540
 2556SOL    MW410333   2.739   0.425   4.152 -0.4890 -0.3346 -0.3228
 2557SOL     OW10334   2.962   0.545   4.309  0.1296 -0.5276 -0.4871
 2557SOL    HW210335   2.958   0.625   4.258 -0.8866  0.0600  0.5070
 2557SOL    HW310336   2.886   0.494   4.281 -1.0539  0.2778  1.2306
 2557SOL    MW410337   2.952   0.549   4.299 -0.1609 -0.3439 -0.1292
 2558SOL     OW10338   2.924   0.767   4.140  0.0265 -0.2622 -0.0936
 2558SOL    HW210339   3.003   0.818   4.157 -0.0169  0.2604 -1.4012
 2558SOL    HW310340   2.925   0.752   4.046 -1.4473 -0.2257 -0.1262
 2558SOL    MW410341   2.934   0.771   4.130 -0.1738 -0.1885 -0.2704
 2559SOL     OW10342   2.704   0.920   4.158  0.3619  0.3946  0.3631
 2559SOL    HW210343   2.775   0.857   4.160  0.4524  0.4895  0.1607
 2559SOL    HW310344   2.624   0.867   4.151  0.4326  0.3009  0.2722
 2559SOL    MW410345   2.703   0.905   4.157  0.3834  0.3949  0.3238
 2560SOL     OW10346   2.781   1.169   4.071 -0.2702 -0.2133 -0.0899
 2560SOL    HW210347   2.761   1.082   4.107  0.4474 -0.9579 -1.4545
 2560SOL    HW310348   2.871   1.186   4.098 -0.5910  0.3565  0.6401
 2560SOL    MW410349   2.790   1.160   4.080 -0.2179 -0.2363 -0.1736
 2561SOL     OW10350   2.662   1.368   4.236  0.1337 -0.1903 -0.1493
 2561SOL    HW210351   2.683   1.304   4.168  0.0951  0.1596 -0.4885
 2561SOL    HW310352   2.602   1.322   4.294  0.9564 -0.8320  0.2120
 2561SOL    MW410353   2.657   1.353   4.235  0.2372 -0.2286 -0.1459
 2562SOL     OW10354   2.977   1.528   4.156  0.3256 -0.2158 -0.6404
 2562SOL    HW210355   3.036   1.588   4.202 -1.9113  0.9618  0.7384
 2562SOL    HW310356   2.966   1.454   4.216  0.6145 -0.5909 -1.0382
 2562SOL    MW410357   2.984   1.526   4.170  0.0687 -0.1100 -0.5112
 2563SOL     OW10358   2.738   1.677   4.119  0.0644  0.1645  0.2402
 2563SOL    HW210359   2.805   1.614   4.144  0.3443 -0.5677 -2.2358
 2563SOL    HW310360   2.655   1.631   4.130  0.2397 -0.4806 -0.9878
 2563SOL    MW410361   2.736   1.663   4.123  0.1245 -0.0170 -0.2484
 2564SOL     OW10362   2.621   1.917   4.169  0.2981  0.1499  0.0248
 2564SOL    HW210363   2.539   1.890   4.211  0.8177  0.2309  1.1074
 2564SOL    HW310364   2.672   1.837   4.164 -0.3136 -0.1596 -1.7828
 2564SOL    MW410365   2.617   1.903   4.174  0.2856  0.1196 -0.0706
 2565SOL     OW10366   2.945   1.923   4.146  0.1098  0.0414  0.1460
 2565SOL    HW210367   2.880   1.943   4.079  0.4800 -1.2637 -0.6266
 2565SOL    HW310368   2.895   1.884   4.218 -0.1658  0.5563  0.2341
 2565SOL    MW410369   2.930   1.921   4.147  0.1223 -0.0628  0.0558
 2566SOL     OW10370   2.892   2.392   4.168 -0.1416  0.4946 -0.4480
 2566SOL    HW210371   2.916   2.306   4.201 -0.8397  0.0550 -1.0565
 2566SOL    HW310372   2.806   2.409   4.206 -0.8070  0.1268 -1.7394
 2566SOL    MW410373   2.884   2.383   4.177 -0.3216  0.3879 -0.6990
 2567SOL     OW10374   2.619   2.136   4.326  0.3988  0.1288  0.2323
 2567SOL    HW210375   2.655   2.082   4.396  0.1496  0.1842  0.4017
 2567SOL    HW310376   2.614   2.077   4.251  1.0586  0.1788  0.1384
 2567SOL    MW410377   2.623   2.121   4.325  0.4530  0.1431  0.2422
 2568SOL     OW10378   2.640   2.406   4.251  0.5786  0.4573 -0.1545
 2568SOL    HW210379   2.671   2.447   4.331 -0.6347  0.9662  0.0593
 2568SOL    HW310380   2.618   2.316   4.276 -0.4485  0.8109  0.2495
 2568SOL    MW410381   2.641   2.399   4.265  0.2830  0.5708 -0.0725
 2569SOL     OW10382   3.067   2.520   4.333 -0.1464  0.0910  0.3000
 2569SOL    HW210383   3.007   2.489   4.265  1.1477 -0.9513 -0.3877
 2569SOL    HW310384   3.109   2.441   4.367 -0.5630  0.6294  2.1258
 2569SOL    MW410385   3.065   2.505   4.329 -0.0308  0.0243  0.4506
 2570SOL     OW10386   2.900   3.059   4.099 -0.6473 -0.1166  0.1074
 2570SOL    HW210387   2.882   2.967   4.119  0.1604 -0.2331  0.2820
 2570SOL    HW310388   2.891   3.065   4.004 -0.4730 -0.4197  0.0715
 2570SOL    MW410389   2.896   3.048   4.089 -0.5176 -0.1721  0.1254
 2571SOL     OW10390   2.694   3.181   4.229 -0.4782 -0.2633  0.3853
 2571SOL    HW210391   2.763   3.118   4.208  0.0076 -0.3116  2.0551
 2571SOL    HW310392   2.617   3.148   4.183  0.3818 -0.6934 -0.7844
 2571SOL    MW410393   2.693   3.168   4.220 -0.3006 -0.3264  0.4511
 2572SOL     OW10394   2.701   3.433   4.114 -0.3194  0.0767 -0.3408
 2572SOL    HW210395   2.712   3.348   4.156  0.5942 -0.6843 -2.0572
 2572SOL    HW310396   2.620   3.468   4.151  0.7491 -0.3052  2.4222
 2572SOL    MW410397   2.691   3.426   4.124 -0.0579 -0.0741 -0.2031
 2573SOL     OW10398   2.899   3.607   4.244  0.5353 -0.3895 -0.1696
 2573SOL    HW210399   2.864   3.621   4.332 -0.1877 -1.0431 -0.3442
 2573SOL    HW310400   2.836   3.548   4.203  1.9902 -1.7997 -0.4143
 2573SOL    MW410401   2.886   3.601   4.250  0.6320 -0.6618 -0.2246
 2574SOL     OW10402   2.912   3.890   4.144 -0.7038  0.0118  0.2485
 2574SOL    HW210403   2.994   3.929   4.174 -0.9079 -0.6775  1.7461
 2574SOL    HW310404   2.915   3.800   4.175 -2.0803  0.0109  0.4261
 2574SOL    MW410405   2.923   3.884   4.152 -0.9124 -0.0792  0.4687
 2575SOL     OW10406   2.669   3.998   4.227  0.1945  0.3764  0.1490
 2575SOL    HW210407   2.655   4.089   4.203  1.1001  0.3718 -0.4234
 2575SOL    HW310408   2.758   3.978   4.195  0.2564 -0.5025  0.8578
 2575SOL    MW410409   2.679   4.007   4.219  0.3221  0.2599  0.1669
 2576SOL     OW10410   2.654   4.274   4.147 -0.3256 -0.0518  0.3307
 2576SOL    HW210411   2.737   4.301   4.186 -1.7231  1.9569  2.0671
 2576SOL    HW310412   2.670   4.275   4.053  1.1881  1.8735  0.5805
 2576SOL    MW410413   2.667   4.278   4.140 -0.3107  0.4673  0.5932
 2577SOL     OW10414   2.890   4.395   4.215  0.1740 -0.0493  0.1640
 2577SOL    HW210415   2.903   4.388   4.310  0.7930  1.2266  0.1877
 2577SOL    HW310416   2.967   4.351   4.177 -0.4349 -1.1963  0.2392
 2577SOL    MW410417   2.902   4.388   4.222  0.1755 -0.0319  0.1769
 2578SOL     OW10418   3.348   4.660   4.179 -0.2661 -0.2505 -0.0811
 2578SOL    HW210419   3.427   4.684   4.228  0.0018 -0.6881 -0.2991
 2578SOL    HW310420   3.335   4.567   4.199 -0.8914 -0.1101  0.1831
 2578SOL    MW410421   3.356   4.651   4.188 -0.3133 -0.2899 -0.0753
 2579SOL     OW10422   3.105   0.139   4.282  0.5007  0.6685  0.4356
 2579SOL    HW210423   3.096   0.124   4.376 -0.8877  0.4899  0.2814
 2579SOL    HW310424   3.187   0.097   4.258  0.9888  0.9401  1.6145
 2579SOL    MW410425   3.115   0.132   4.291  0.3819  0.6808  0.5708
 2580SOL     OW10426   3.145   0.408   4.179 -0.2409 -0.0948  0.2903
 2580SOL    HW210427   3.132   0.316   4.202 -1.2616 -0.5662 -2.1087
 2580SOL    HW310428   3.071   0.453   4.219 -0.4199 -0.4871  0.4069
 2580SOL    MW410429   3.134   0.402   4.188 -0.3991 -0.2088 -0.0105
 2581SOL     OW10430   3.397   0.501   4.265 -0.0204  0.1066 -0.2096
 2581SOL    HW210431   3.464   0.434   4.250 -1.4201 -0.8580 -2.4922
 2581SOL    HW310432   3.315   0.459   4.238 -0.9580  2.6694 -1.5807
 2581SOL    MW410433   3.395   0.486   4.259 -0.3285  0.3175 -0.6919
 2582SOL     OW10434   3.367   0.742   4.138  0.8146 -0.3674 -0.2732
 2582SOL    HW210435   3.293   0.794   4.168  1.3318  0.1385  0.1287
 2582SOL    HW310436   3.360   0.659   4.185  0.4789 -0.3394 -0.2742
 2582SOL    MW410437   3.357   0.738   4.148  0.8385 -0.2970 -0.2203
 2583SOL     OW10438   3.155   0.908   4.233 -0.1605  0.0665 -0.2062
 2583SOL    HW210439   3.118   0.913   4.321 -0.6733 -0.3165 -0.3971
 2583SOL    HW310440   3.156   0.999   4.202 -1.7069 -0.0103 -0.5118
 2583SOL    MW410441   3.150   0.921   4.241 -0.4323  0.0058 -0.2718
 2584SOL     OW10442   3.081   1.164   4.117 -0.3772  0.0794 -0.7057
 2584SOL    HW210443   3.146   1.226   4.149 -0.2115 -0.3429 -0.2301
 2584SOL    HW310444   3.115   1.136   4.032 -0.5520  0.7886 -1.0179
 2584SOL    MW410445   3.094   1.169   4.110 -0.3784  0.1172 -0.6847
 2585SOL     OW10446   3.294   1.330   4.217  0.7538  0.3367  0.2458
 2585SOL    HW210447   3.321   1.358   4.304 -0.8378 -0.6110  1.0723
 2585SOL    HW310448   3.273   1.411   4.171  0.2253  0.7598  1.2208
 2585SOL    MW410449   3.295   1.344   4.222  0.4745  0.2674  0.4830
 2586SOL     OW10450   3.312   1.579   4.077  0.5143 -0.0828 -0.0159
 2586SOL    HW210451   3.244   1.646   4.062  0.5182 -0.0550  0.0869
 2586SOL    HW310452   3.341   1.554   3.990 -0.8931 -1.4000 -0.1276
 2586SOL    MW410453   3.307   1.585   4.064  0.3290 -0.2528 -0.0172
 2587SOL     OW10454   3.130   1.684   4.349 -0.2342  0.4067  0.0611
 2587SOL    HW210455   3.045   1.710   4.384 -0.1503  0.9455 -0.1373
 2587SOL    HW310456   3.191   1.750   4.382  0.3740 -0.8070  1.4413
 2587SOL    MW410457   3.127   1.696   4.358 -0.1426  0.3177  0.2174
 2588SOL     OW10458   3.181   1.820   4.061 -0.1357  0.4049 -0.1298
 2588SOL    HW210459   3.254   1.874   4.089  0.7381 -1.1007  0.5403
 2588SOL    HW310460   3.104   1.864   4.098  0.4941  1.5236 -0.1200
 2588SOL    MW410461   3.180   1.833   4.070  0.0625  0.3538 -0.0405
 2589SOL     OW10462   3.378   1.991   4.168 -0.2305 -0.1850  0.0152
 2589SOL    HW210463   3.465   1.955   4.187  0.5093  1.0126 -0.9708
 2589SOL    HW310464   3.385   2.083   4.193 -0.4608  0.4834 -2.3051
 2589SOL    MW410465   3.391   1.998   4.174 -0.1633  0.0612 -0.4210
 2590SOL     OW10466   3.380   2.269   4.197 -0.2050 -0.1054  0.0553
 2590SOL    HW210467   3.454   2.327   4.216  0.2932 -0.6386 -0.2424
 2590SOL    HW310468   3.354   2.292   4.107  1.5025 -1.9489 -0.9477
 2590SOL    MW410469   3.386   2.280   4.188  0.0858 -0.4189 -0.1159
 2591SOL     OW10470   3.202   2.284   4.417 -0.4016  0.2895 -0.1625
 2591SOL    HW210471   3.257   2.293   4.339  0.4368  1.0236  0.5005
 2591SOL    HW310472   3.132   2.224   4.391 -1.8216  2.8226 -2.3828
 2591SOL    MW410473   3.200   2.277   4.404 -0.4783  0.7205 -0.3672
 2592SOL     OW10474   3.157   2.716   4.171 -0.2102  0.3773  0.2227
 2592SOL    HW210475   3.220   2.770   4.217  0.5969 -1.0669  0.8335
 2592SOL    HW310476   3.132   2.648   4.234 -0.3815 -0.6052 -0.8877
 2592SOL    MW410477   3.162   2.714   4.185 -0.1261  0.0575  0.1564
 2593SOL     OW10478   3.356   2.840   4.319  0.3812  0.2635 -0.1493
 2593SOL    HW210479   3.415   2.782   4.271 -0.2491  0.9194 -1.7799
 2593SOL    HW310480   3.366   2.925   4.275 -0.2291  0.8758  0.8834
 2593SOL    MW410481   3.365   2.844   4.307  0.2174  0.4308 -0.2284
 2594SOL     OW10482   3.372   3.078   4.168 -0.4348  0.1582  0.1895
 2594SOL    HW210483   3.292   3.122   4.197 -0.7625 -1.2543  1.4647
 2594SOL    HW310484   3.365   3.077   4.072 -2.2592 -0.5021  0.3102
 2594SOL    MW410485   3.361   3.083   4.159 -0.7188 -0.1149  0.3738
 2595SOL     OW10486   3.120   3.170   4.255  0.0097  0.3750 -0.0124
 2595SOL    HW210487   3.119   3.261   4.226 -0.5218  0.3734  0.0050
 2595SOL    HW310488   3.073   3.122   4.187  0.1136  0.1425  0.0795
 2595SOL    MW410489   3.114   3.175   4.242 -0.0467  0.3440  0.0019
 2596SOL     OW10490   3.121   3.452   4.197  0.0906  0.5782  0.5992
 2596SOL    HW210491   3.052   3.510   4.228 -0.3043 -0.4991  1.7805
 2596SOL    HW310492   3.111   3.450   4.102 -1.1103  0.9190  0.7220
 2596SOL    MW410493   3.111   3.459   4.188 -0.1202  0.4811  0.7710
 2597SOL     OW10494   3.393   3.553   4.232 -0.0509 -0.2880  0.7858
 2597SOL    HW210495   3.403   3.563   4.327  2.2232 -0.3301  0.5683
 2597SOL    HW310496   3.308   3.511   4.222 -0.5313  0.1278  2.7881
 2597SOL    MW410497   3.383   3.549   4.244  0.1860 -0.2384  1.0214
 2598SOL     OW10498   3.358   3.819   4.138 -0.2886 -0.2348  0.7266
 2598SOL    HW210499   3.360   3.724   4.149 -1.0684 -0.2692  0.6194
 2598SOL    HW310500   3.355   3.833   4.044 -0.4086 -0.1150  0.7460
 2598SOL    MW410501   3.358   3.808   4.127 -0.4075 -0.2236  0.7148
 2599SOL     OW10502   3.144   3.984   4.240  0.0943  0.1927  0.0666
 2599SOL    HW210503   3.125   3.959   4.330  0.9636  1.4360  0.5992
 2599SOL    HW310504   3.225   3.938   4.218 -0.7164 -1.0126 -0.4805
 2599SOL    MW410505   3.152   3.975   4.249  0.1023  0.1974  0.0639
 2600SOL     OW10506   3.108   4.236   4.133  0.1688 -0.0448  0.2779
 2600SOL    HW210507   3.172   4.289   4.180 -0.3833  0.8066  0.0747
 2600SOL    HW310508   3.117   4.149   4.172 -0.2334  0.6265  1.9153
 2600SOL    MW410509   3.118   4.231   4.144  0.0429  0.1559  0.4678
 2601SOL     OW10510   3.330   4.382   4.245  0.2875 -0.1288  0.3879
 2601SOL    HW210511   3.346   4.363   4.337 -0.9604 -1.4227  0.3515
 2601SOL    HW310512   3.385   4.320   4.197 -0.2276 -0.5085  0.2758
 2601SOL    MW410513   3.339   4.371   4.251  0.0548 -0.3495  0.3681
 2602SOL     OW10514   3.799   4.623   4.163  0.1193 -0.1756  0.2932
 2602SOL    HW210515   3.885   4.658   4.187 -0.8519  0.4760  3.0366
 2602SOL    HW310516   3.794   4.634   4.068  3.4449 -1.1271 -0.0486
 2602SOL    MW410517   3.809   4.629   4.154  0.4301 -0.2146  0.6104
 2603SOL     OW10518   3.591   0.113   4.308 -0.0973 -0.0233 -0.1979
 2603SOL    HW210519   3.591   0.205   4.284 -0.7528  0.0123 -0.0799
 2603SOL    HW310520   3.654   0.072   4.248 -0.4542  0.3573 -0.8326
 2603SOL    MW410521   3.599   0.120   4.297 -0.2308  0.0316 -0.2661
 2604SOL     OW10522   3.620   0.352   4.176 -0.0781 -0.2927 -0.3682
 2604SOL    HW210523   3.694   0.396   4.217  0.6345 -0.5270 -1.3868
 2604SOL    HW310524   3.626   0.375   4.084 -1.3800 -0.1750 -0.4362
 2604SOL    MW410525   3.631   0.361   4.170 -0.1559 -0.3081 -0.5112
 2605SOL     OW10526   3.822   0.529   4.281  0.4219  0.3822 -0.3809
 2605SOL    HW210527   3.843   0.528   4.374  0.4256 -0.7354 -0.3830
 2605SOL    HW310528   3.782   0.614   4.266  3.5101  1.9540 -0.0672
 2605SOL    MW410529   3.819   0.540   4.291  0.8299  0.4421 -0.3395
 2606SOL     OW10530   3.769   0.786   4.158 -0.5153  0.1569  0.5987
 2606SOL    HW210531   3.696   0.841   4.185  0.5484  1.2850  1.2410
 2606SOL    HW310532   3.761   0.781   4.063 -1.4342  0.2535  0.6664
 2606SOL    MW410533   3.758   0.793   4.149 -0.4964  0.3186  0.6928
 2607SOL     OW10534   3.548   0.901   4.303  0.5062 -0.0319  0.3864
 2607SOL    HW210535   3.550   0.983   4.253  1.5879 -0.3644 -0.1299
 2607SOL    HW310536   3.484   0.847   4.257  0.4412  0.2024  0.1974
 2607SOL    MW410537   3.540   0.905   4.290  0.6404 -0.0449  0.2937
 2608SOL     OW10538   3.511   1.127   4.145 -0.3873  0.0182 -0.3130
 2608SOL    HW210539   3.443   1.191   4.165 -0.1297  0.0289  0.5174
 2608SOL    HW310540   3.506   1.116   4.050 -1.5141  0.0650 -0.2620
 2608SOL    MW410541   3.501   1.134   4.135 -0.5019  0.0257 -0.1965
 2609SOL     OW10542   3.746   1.240   4.218 -0.4794 -0.0352 -0.2348
 2609SOL    HW210543   3.662   1.204   4.191 -0.4958 -0.5302  0.4744
 2609SOL    HW310544   3.756   1.320   4.166 -1.4191  0.0617 -0.2629
 2609SOL    MW410545   3.736   1.246   4.207 -0.6056 -0.0879 -0.1445
 2610SOL     OW10546   3.762   1.495   4.076 -0.7115  0.4208 -0.2318
 2610SOL    HW210547   3.837   1.543   4.112  0.3015 -1.7984  0.7543
 2610SOL    HW310548   3.686   1.534   4.119  0.0992  1.0783  0.6425
 2610SOL    MW410549   3.762   1.506   4.087 -0.4706  0.2147  0.0138
 2611SOL     OW10550   3.557   1.630   4.214 -0.2464  0.4625 -0.4094
 2611SOL    HW210551   3.477   1.626   4.161 -0.7970 -2.1363  0.5759
 2611SOL    HW310552   3.532   1.596   4.299  1.7388  0.3395  0.1513
 2611SOL    MW410553   3.543   1.625   4.218 -0.0572  0.1034 -0.2055
 2612SOL     OW10554   3.632   1.897   4.191 -0.2946  0.2512  0.3548
 2612SOL    HW210555   3.615   1.807   4.219 -0.4865  0.1429 -0.1000
 2612SOL    HW310556   3.652   1.889   4.098 -0.6066  0.7170  0.2474
 2612SOL    MW410557   3.632   1.884   4.182 -0.3614  0.2984  0.2804
 2613SOL     OW10558   3.843   2.048   4.321 -0.0708 -0.0474  0.2786
 2613SOL    HW210559   3.918   2.003   4.284  0.0123 -0.1309  0.5507
 2613SOL    HW310560   3.767   1.997   4.293 -0.0994  0.5815 -0.8044
 2613SOL    MW410561   3.843   2.035   4.313 -0.0634  0.0246  0.1717
 2614SOL     OW10562   3.843   2.285   4.175  0.0336  0.3859  0.4815
 2614SOL    HW210563   3.849   2.198   4.215 -0.0202 -0.0085 -0.3566
 2614SOL    HW310564   3.836   2.268   4.081  0.3661  1.3117  0.2823
 2614SOL    MW410565   3.843   2.271   4.168  0.0703  0.4561  0.3452
 2615SOL     OW10566   3.590   2.440   4.235 -0.2273 -0.3621  0.1444
 2615SOL    HW210567   3.615   2.447   4.327 -0.5963  0.3612  0.1971
 2615SOL    HW310568   3.661   2.389   4.194  0.3416 -0.0053  0.6719
 2615SOL    MW410569   3.603   2.434   4.241 -0.2007 -0.2193  0.2203
 2616SOL     OW10570   3.504   2.693   4.135 -0.2333  0.2542  0.1060
 2616SOL    HW210571   3.531   2.603   4.148  0.8179  0.5895  0.2994
 2616SOL    HW310572   3.531   2.714   4.045 -0.5460  0.3558  0.0320
 2616SOL    MW410573   3.511   2.684   4.125 -0.1359  0.3116  0.1216
 2617SOL     OW10574   3.744   2.812   4.242  0.0391 -0.1695  0.1290
 2617SOL    HW210575   3.724   2.829   4.334  0.1167 -1.6829  0.4439
 2617SOL    HW310576   3.664   2.775   4.206 -0.1362  0.8513 -0.5341
 2617SOL    MW410577   3.731   2.809   4.249  0.0262 -0.2344  0.0830
 2618SOL     OW10578   3.837   3.059   4.148  0.2289  0.3267 -0.1713
 2618SOL    HW210579   3.813   2.969   4.168 -0.1409  0.6684  0.9446
 2618SOL    HW310580   3.843   3.061   4.052 -1.5044 -0.4449 -0.3170
 2618SOL    MW410581   3.835   3.047   4.138 -0.0484  0.2699 -0.0434
 2619SOL     OW10582   3.618   3.184   4.252  0.5748  0.2393  0.6267
 2619SOL    HW210583   3.688   3.138   4.206 -0.7925 -1.2621  0.0105
 2619SOL    HW310584   3.537   3.146   4.217 -0.5281 -0.6971  3.9725
 2619SOL    MW410585   3.616   3.173   4.241  0.2491 -0.0825  0.9871
 2620SOL     OW10586   3.622   3.453   4.113  0.5419  0.3963  0.1701
 2620SOL    HW210587   3.624   3.360   4.137 -2.1001 -0.1037 -1.3560
 2620SOL    HW310588   3.544   3.488   4.158 -0.9051  0.8581 -2.5966
 2620SOL    MW410589   3.612   3.445   4.122  0.0021  0.3912 -0.3967
 2621SOL     OW10590   3.792   3.608   4.278  0.2646 -0.0823 -0.0109
 2621SOL    HW210591   3.879   3.573   4.260  0.5732 -1.3522  3.4851
 2621SOL    HW310592   3.733   3.553   4.227  1.2701 -1.3484  0.1759
 2621SOL    MW410593   3.796   3.596   4.269  0.4377 -0.4168  0.4749
 2622SOL     OW10594   3.822   3.856   4.175 -0.0536  0.1906  0.0493
 2622SOL    HW210595   3.754   3.909   4.215 -0.2925 -0.6071  0.7124
 2622SOL    HW310596   3.814   3.770   4.216 -0.6653 -0.8237 -2.0950
 2622SOL    MW410597   3.812   3.851   4.185 -0.1659 -0.0484 -0.1459
 2623SOL     OW10598   3.573   3.963   4.240 -0.0649 -0.0368 -0.1777
 2623SOL    HW210599   3.539   3.987   4.326  0.5032  1.7868 -0.4472
 2623SOL    HW310600   3.499   3.921   4.196 -0.0485 -2.0142  1.5663
 2623SOL    MW410601   3.559   3.960   4.245  0.0124 -0.0572  0.0172
 2624SOL     OW10602   3.520   4.219   4.110  0.3706 -0.4497 -0.1693
 2624SOL    HW210603   3.608   4.245   4.138  0.2087  0.4316 -0.4634
 2624SOL    HW310604   3.508   4.132   4.147  2.1292 -1.4003 -1.7517
 2624SOL    MW410605   3.530   4.211   4.118  0.5815 -0.4587 -0.4172
 2625SOL     OW10606   3.760   4.348   4.199  0.2264 -0.0789  0.0262
 2625SOL    HW210607   3.851   4.317   4.198  0.3693  0.1803  2.1123
 2625SOL    HW310608   3.767   4.443   4.185  0.0730 -0.3753 -2.2837
 2625SOL    MW410609   3.773   4.357   4.197  0.2251 -0.0834 -0.0038
 2626SOL     OW10610   4.234   4.654   4.169 -0.2208  0.1678  0.1569
 2626SOL    HW210611   4.236   4.565   4.205 -0.7176  0.8444  1.9227
 2626SOL    HW310612   4.320   4.691   4.191 -0.0510  0.1647 -0.4902
 2626SOL    MW410613   4.246   4.647   4.176 -0.2637  0.2570  0.3047
 2627SOL     OW10614   3.993   0.124   4.209 -0.1241 -0.3278  0.2675
 2627SOL    HW210615   3.997   0.215   4.180  0.0469 -0.2663  0.4761
 2627SOL    HW310616   4.081   0.089   4.192 -0.1537 -0.4180  0.2976
 2627SOL    MW410617   4.005   0.131   4.203 -0.1054 -0.3316  0.2985
 2628SOL     OW10618   3.996   0.384   4.102  0.1220 -0.1707  0.3177
 2628SOL    HW210619   4.069   0.426   4.147  0.4603  0.8949 -1.1561
 2628SOL    HW310620   3.918   0.431   4.134  0.4579  1.3279 -0.9759
 2628SOL    MW410621   3.995   0.396   4.112  0.2112  0.1676 -0.0477
 2629SOL     OW10622   4.222   0.509   4.254 -0.0600 -0.2046 -0.0370
 2629SOL    HW210623   4.225   0.601   4.228 -1.9944  0.1328  0.8833
 2629SOL    HW310624   4.295   0.469   4.207  2.2785  2.2516  1.4132
 2629SOL    MW410625   4.232   0.516   4.244 -0.0067  0.1640  0.2756
 2630SOL     OW10626   4.280   0.767   4.103 -0.6481 -0.1168  0.3450
 2630SOL    HW210627   4.196   0.807   4.123 -1.3386 -1.5814  0.4998
 2630SOL    HW310628   4.275   0.747   4.009  0.4829  1.9306 -0.1863
 2630SOL    MW410629   4.268   0.769   4.093 -0.5903 -0.0399  0.2956
 2631SOL     OW10630   4.044   0.872   4.199  0.0673 -0.4185  0.1495
 2631SOL    HW210631   4.020   0.962   4.176 -1.4002 -0.7811  0.2060
 2631SOL    HW310632   3.962   0.823   4.194  0.8377 -1.7416  0.2144
 2631SOL    MW410633   4.030   0.877   4.195 -0.0243 -0.6409  0.1659
 2632SOL     OW10634   3.998   1.125   4.121 -0.0749 -0.1077  0.3105
 2632SOL    HW210635   4.066   1.177   4.163 -1.5020  1.3072  0.9312
 2632SOL    HW310636   3.916   1.158   4.159 -1.2519 -0.2506 -2.0405
 2632SOL    MW410637   3.996   1.136   4.132 -0.4187  0.0602  0.0820
 2633SOL     OW10638   4.207   1.261   4.222 -0.2679  0.4808  0.4272
 2633SOL    HW210639   4.220   1.253   4.316  1.1132  1.3061  0.3215
 2633SOL    HW310640   4.285   1.220   4.183 -1.6644 -1.4811 -0.4033
 2633SOL    MW410641   4.219   1.254   4.229 -0.2699  0.3308  0.3042
 2634SOL     OW10642   4.241   1.518   4.154 -0.2510  0.0705  0.3423
 2634SOL    HW210643   4.225   1.425   4.168  1.5317 -0.2658  0.2914
 2634SOL    HW310644   4.248   1.527   4.059 -0.9408  0.3524  0.3161
 2634SOL    MW410645   4.240   1.507   4.143 -0.1068  0.0633  0.3319
 2635SOL     OW10646   3.986   1.603   4.208 -0.3891  0.4046  0.3314
 2635SOL    HW210647   3.984   1.608   4.304  0.4697  1.3297  0.3155
 2635SOL    HW310648   4.071   1.565   4.188  0.3713  2.2769 -0.1114
 2635SOL    MW410649   3.997   1.599   4.218 -0.1755  0.7735  0.2704
 2636SOL     OW10650   4.045   1.881   4.219 -0.3152 -0.4266  0.1906
 2636SOL    HW210651   4.030   1.788   4.204 -0.3246 -0.6535  1.5172
 2636SOL    HW310652   4.105   1.883   4.294  0.5169  0.6126 -0.4886
 2636SOL    MW410653   4.051   1.869   4.227 -0.2069 -0.3195  0.2761
 2637SOL     OW10654   0.003   1.922   4.177 -0.0678 -0.1850  0.0354
 2637SOL    HW210655   0.087   1.960   4.204  0.1476 -0.9416  0.4188
 2637SOL    HW310656  -0.062   1.988   4.203  0.3461  0.1047  0.3479
 2637SOL    MW410657   0.005   1.936   4.184  0.0152 -0.2465  0.1273
 2638SOL     OW10658   4.287   2.311   4.128 -0.4040 -0.3443  0.1052
 2638SOL    HW210659   4.213   2.368   4.150 -0.8012 -1.3898  1.4917
 2638SOL    HW310660   4.275   2.233   4.182  1.8618 -0.4164  0.5479
 2638SOL    MW410661   4.276   2.308   4.138 -0.1574 -0.4919  0.3471
 2639SOL     OW10662   4.064   2.453   4.201 -0.2034  0.2123  0.1246
 2639SOL    HW210663   4.095   2.450   4.291 -0.0011  0.7638  0.0779
 2639SOL    HW310664   3.992   2.390   4.198  0.5416 -0.6599  0.3785
 2639SOL    MW410665   4.058   2.444   4.212 -0.0787  0.1698  0.1521
 2640SOL     OW10666   4.002   2.721   4.178  0.4917 -0.4141  0.0235
 2640SOL    HW210667   4.014   2.628   4.195  0.8819 -0.1390  1.2920
 2640SOL    HW310668   3.917   2.742   4.215  0.2910 -0.3169 -0.4889
 2640SOL    MW410669   3.993   2.712   4.185  0.5167 -0.3650  0.1235
 2641SOL     OW10670   4.243   2.875   4.264  0.2960 -0.2072  0.4850
 2641SOL    HW210671   4.162   2.831   4.236 -0.0119  1.0271 -0.5794
 2641SOL    HW310672   4.312   2.809   4.249 -0.1595 -0.3429 -1.1131
 2641SOL    MW410673   4.242   2.860   4.258  0.1950 -0.0622  0.1335
 2642SOL     OW10674   4.290   3.121   4.197 -0.6316  0.0946  0.2436
 2642SOL    HW210675   4.271   3.030   4.223  0.0476 -0.0743  0.1394
 2642SOL    HW310676   4.302   3.117   4.102  1.8595 -0.1366  0.5330
 2642SOL    MW410677   4.289   3.108   4.188 -0.2131  0.0420  0.2680
 2643SOL     OW10678   4.051   3.215   4.269  0.2239 -0.2185  0.5586
 2643SOL    HW210679   4.141   3.195   4.243  0.3032  1.8793 -0.8748
 2643SOL    HW310680   3.997   3.154   4.218  0.7178 -0.0344 -0.1927
 2643SOL    MW410681   4.055   3.204   4.259  0.2995  0.0825  0.2704
 2644SOL     OW10682   4.027   3.483   4.161  0.4931 -0.1571  0.0515
 2644SOL    HW210683   4.029   3.389   4.178  1.0787 -0.4078 -1.3415
 2644SOL    HW310684   4.024   3.490   4.066  2.9939  1.2598  0.0226
 2644SOL    MW410685   4.027   3.472   4.151  0.9003 -0.0033 -0.1364
 2645SOL     OW10686   4.260   3.602   4.256 -0.7897 -0.0122 -0.0539
 2645SOL    HW210687   4.261   3.687   4.212 -1.5221  0.0267 -0.0158
 2645SOL    HW310688   4.184   3.557   4.217 -0.7065 -0.4485  0.2872
 2645SOL    MW410689   4.250   3.607   4.245 -0.8755 -0.0646 -0.0029
 2646SOL     OW10690   4.260   3.866   4.159  0.1335 -0.5502  0.1745
 2646SOL    HW210691   4.176   3.899   4.192 -0.4682 -0.4763 -1.4103
 2646SOL    HW310692   4.246   3.855   4.065  1.2750 -2.4670  0.2243
 2646SOL    MW410693   4.247   3.869   4.151  0.2050 -0.7935 -0.0281
 2647SOL     OW10694   4.042   4.005   4.279 -0.8417 -0.0681  0.9875
 2647SOL    HW210695   4.030   3.986   4.372 -2.2887 -1.1838  0.5842
 2647SOL    HW310696   3.971   3.959   4.235 -0.4968  0.8896 -0.6334
 2647SOL    MW410697   4.031   3.997   4.286 -0.9866 -0.0889  0.7205
 2648SOL     OW10698   4.037   4.266   4.180 -0.0691 -0.3545  0.0223
 2648SOL    HW210699   4.093   4.319   4.237  1.4004 -0.5788 -1.1728
 2648SOL    HW310700   4.034   4.180   4.222 -0.0581 -0.1480  0.4428
 2648SOL    MW410701   4.044   4.261   4.193  0.1264 -0.3567 -0.0792
 2649SOL     OW10702   4.196   0.023   4.669  0.2305 -0.0928  0.0631
 2649SOL    HW210703   4.108   0.059   4.671  0.8908  1.5436  0.6998
 2649SOL    HW310704   4.249   0.091   4.627  0.9703 -1.5785 -1.4776
 2649SOL    MW410705   4.192   0.036   4.663  0.4153 -0.0730 -0.0558
 2650SOL     OW10706   4.362   0.217   4.577  0.0048 -0.4126 -0.6334
 2650SOL    HW210707   4.328   0.306   4.566 -1.0286 -0.8911 -1.3500
 2650SOL    HW310708   4.396   0.215   4.666 -1.1296  0.3178 -0.1796
 2650SOL    MW410709   4.362   0.229   4.587 -0.2813 -0.3793 -0.6685
 2651SOL     OW10710   4.214   4.397   4.584  0.3296 -0.1075 -0.3138
 2651SOL    HW210711   4.141   4.354   4.629 -1.6023  2.2608 -1.0808
 2651SOL    HW310712   4.215   4.486   4.619  2.6236  0.0342 -0.6349
 2651SOL    MW410713   4.205   4.403   4.595  0.3777  0.2232 -0.4573
 2652SOL     OW10714   3.955   0.122   4.510  0.0337  0.1643  0.0383
 2652SOL    HW210715   3.975   0.118   4.416 -0.6038  0.8610 -0.1362
 2652SOL    HW310716   3.868   0.083   4.518 -0.1124  0.5358  0.2770
 2652SOL    MW410717   3.946   0.117   4.499 -0.0696  0.3052  0.0472
 2653SOL     OW10718   4.042   1.145   4.789  0.3454  0.2643  0.2835
 2653SOL    HW210719   4.043   1.203   4.713 -2.5860  0.2998  0.2004
 2653SOL    HW310720   3.949   1.132   4.807  0.9832 -2.7114  1.6221
 2653SOL    MW410721   4.030   1.151   4.781  0.0429 -0.1237  0.4492
 2654SOL     OW10722   0.123   0.104   4.494  0.0853 -0.0496  0.0485
 2654SOL    HW210723   0.034   0.125   4.524  0.4350 -0.2402  1.2573
 2654SOL    HW310724   0.143   0.021   4.538  0.9573  0.1259 -0.0264
 2654SOL    MW410725   0.114   0.096   4.504  0.2465 -0.0516  0.1979
 2655SOL     OW10726   0.580   1.153   4.484  0.1974 -0.2043  0.0550
 2655SOL    HW210727   0.607   1.241   4.509  1.1040 -0.5878  0.4427
 2655SOL    HW310728   0.662   1.106   4.470 -0.2213 -1.7679  2.5358
 2655SOL    MW410729   0.595   1.158   4.485  0.2618 -0.4613  0.4330
 2656SOL     OW10730   4.259   0.728   4.556 -0.0905  0.2360  0.5654
 2656SOL    HW210731   4.236   0.635   4.564 -0.2786  0.3849  1.8435
 2656SOL    HW310732   4.352   0.727   4.533  0.2918 -0.2731  2.0066
 2656SOL    MW410733   4.269   0.716   4.554 -0.0648  0.1885  0.9236
 2657SOL     OW10734   0.255   1.360   4.524 -0.4149  0.3672  0.2444
 2657SOL    HW210735   0.237   1.278   4.570  0.3577 -0.3107 -0.6350
 2657SOL    HW310736   0.173   1.409   4.530  0.0605  0.8773  3.4653
 2657SOL    MW410737   0.242   1.355   4.531 -0.2502  0.3451  0.5531
 2658SOL     OW10738   0.634   1.949   4.510  0.2401 -0.4777 -0.0754
 2658SOL    HW210739   0.687   1.874   4.482  1.5451 -0.1715  1.5125
 2658SOL    HW310740   0.564   1.911   4.563  0.9256 -0.5924  0.7638
 2658SOL    MW410741   0.632   1.934   4.513  0.5026 -0.4524  0.2451
 2659SOL     OW10742   4.226   1.102   4.463 -0.1282  0.6584 -0.0257
 2659SOL    HW210743   4.170   1.025   4.474  0.0608  0.3536 -1.1485
 2659SOL    HW310744   4.313   1.072   4.488 -0.5010  1.2004  1.9599
 2659SOL    MW410745   4.230   1.088   4.467 -0.1521  0.6897  0.0877
 2660SOL     OW10746   0.119   1.800   4.623 -0.0443  0.0449  0.0245
 2660SOL    HW210747   0.039   1.788   4.674  0.5440  0.1867  0.9879
 2660SOL    HW310748   0.128   1.719   4.573 -2.3139  1.1059 -2.2571
 2660SOL    MW410749   0.109   1.788   4.623 -0.2661  0.2036 -0.1488
 2661SOL     OW10750   0.419   1.688   4.192  0.1951 -0.0858 -0.3464
 2661SOL    HW210751   0.343   1.636   4.164 -0.6960  1.4671 -0.8663
 2661SOL    HW310752   0.493   1.648   4.146 -0.3689 -1.3385 -0.1788
 2661SOL    MW410753   0.419   1.676   4.182  0.0031 -0.0463 -0.3929
 2662SOL     OW10754   0.319   2.121   4.481  0.7809  0.2170 -0.3971
 2662SOL    HW210755   0.377   2.195   4.502  0.9475 -0.1709  0.5089
 2662SOL    HW310756   0.352   2.049   4.533 -0.7838  0.1017  0.4515
 2662SOL    MW410757   0.331   2.121   4.490  0.5964  0.1504 -0.1655
 2663SOL     OW10758   4.174   1.975   4.689 -0.4252 -0.0675 -0.4935
 2663SOL    HW210759   4.224   2.056   4.678  0.6265 -0.2658  2.3667
 2663SOL    HW310760   4.087   2.004   4.717 -0.3442  0.0994 -0.4151
 2663SOL    MW410761   4.169   1.990   4.691 -0.2761 -0.0715 -0.1059
 2664SOL     OW10762   0.216   2.840   4.554  0.1167  0.2806  0.0958
 2664SOL    HW210763   0.250   2.754   4.581 -0.3083  0.3154  0.7657
 2664SOL    HW310764   0.225   2.841   4.459 -0.9618 -0.9827 -0.0323
 2664SOL    MW410765   0.221   2.829   4.545 -0.0817  0.1185  0.1674
 2665SOL     OW10766   0.282   2.560   4.583  0.2544  0.1407 -0.0578
 2665SOL    HW210767   0.200   2.511   4.594  0.0323  0.0641 -1.8826
 2665SOL    HW310768   0.344   2.494   4.552  0.6370  0.4903 -0.0250
 2665SOL    MW410769   0.279   2.545   4.581  0.2756  0.1767 -0.2942
 2666SOL     OW10770   4.147   2.439   4.471  0.2412  0.3128 -0.1922
 2666SOL    HW210771   4.118   2.525   4.498  0.5120  0.2023  0.4680
 2666SOL    HW310772   4.083   2.379   4.508  0.9361  0.1176  0.7210
 2666SOL    MW410773   4.135   2.442   4.480  0.3686  0.2723  0.0157
 2667SOL     OW10774   4.277   3.328   4.670 -0.0743 -0.0937  0.1208
 2667SOL    HW210775   4.354   3.271   4.671  0.2844  0.3952  0.5543
 2667SOL    HW310776   4.214   3.282   4.614  0.4424 -0.6090 -0.0433
 2667SOL    MW410777   4.279   3.314   4.663  0.0410 -0.0975  0.1564
 2668SOL     OW10778   0.044   3.254   4.569 -0.2276 -0.4299  0.1261
 2668SOL    HW210779   0.050   3.240   4.475 -2.6343  0.6160 -0.2004
 2668SOL    HW310780   0.050   3.349   4.579  0.2941 -0.5526  1.0706
 2668SOL    MW410781   0.046   3.265   4.558 -0.4763 -0.3080  0.2084
 2669SOL     OW10782   4.279   3.822   4.638 -0.4242 -0.2868  0.2196
 2669SOL    HW210783   4.197   3.849   4.597  0.2799 -0.5760 -1.4198
 2669SOL    HW310784   4.297   3.735   4.602  1.0899  0.1801 -0.2085
 2669SOL    MW410785   4.270   3.814   4.628 -0.1316 -0.2632 -0.0529
 2670SOL     OW10786   4.200   0.461   4.522 -0.3036  0.7282  0.3581
 2670SOL    HW210787   4.112   0.424   4.533  0.2841 -0.9758 -0.5250
 2670SOL    HW310788   4.209   0.474   4.428  0.6059  0.3394  0.3833
 2670SOL    MW410789   4.189   0.458   4.511 -0.1063  0.4521  0.2451
 2671SOL     OW10790   3.702   0.473   4.688  0.5233 -0.4468 -0.1932
 2671SOL    HW210791   3.628   0.516   4.645  0.9134 -0.2038 -0.6264
 2671SOL    HW310792   3.699   0.506   4.778  0.3821 -0.0737 -0.3292
 2671SOL    MW410793   3.692   0.483   4.694  0.5562 -0.3655 -0.2680
 2672SOL     OW10794   4.046   3.727   4.792 -0.2154 -0.1241  0.3992
 2672SOL    HW210795   4.125   3.751   4.745  0.6625 -1.1188  1.3306
 2672SOL    HW310796   4.053   3.632   4.804 -2.0021 -0.3582 -0.3207
 2672SOL    MW410797   4.057   3.717   4.788 -0.3357 -0.2861  0.4268
 2673SOL     OW10798   3.805   4.210   4.698  0.5579 -0.0688 -0.2322
 2673SOL    HW210799   3.763   4.279   4.647 -0.1721 -0.1587  0.2413
 2673SOL    HW310800   3.733   4.158   4.732  1.0202  0.2348  1.2411
 2673SOL    MW410801   3.790   4.212   4.696  0.5226 -0.0405  0.0248
 2674SOL     OW10802   0.353   0.320   4.462  0.1116 -0.0076 -0.2547
 2674SOL    HW210803   0.267   0.280   4.470 -0.3443  0.9605 -0.2145
 2674SOL    HW310804   0.335   0.414   4.452  1.1055  0.0700 -1.4569
 2674SOL    MW410805   0.339   0.327   4.462  0.1826  0.1304 -0.4077
 2675SOL     OW10806   4.219   0.930   4.834  0.1638  0.1520 -0.2646
 2675SOL    HW210807   4.163   1.005   4.814  0.2061 -0.1332 -1.4794
 2675SOL    HW310808   4.170   0.854   4.804  1.4942 -0.0461 -2.0368
 2675SOL    MW410809   4.205   0.930   4.828  0.3448  0.0882 -0.6585
 2676SOL     OW10810   1.160   1.260   4.494 -0.2583 -0.6730  0.0456
 2676SOL    HW210811   1.154   1.169   4.521  1.4301 -0.5503  0.9470
 2676SOL    HW310812   1.131   1.310   4.571 -0.5990 -0.4407 -0.2318
 2676SOL    MW410813   1.155   1.255   4.508 -0.0806 -0.6261  0.1287
 2677SOL     OW10814   0.524   0.102   4.488  0.4762  0.2627 -0.1470
 2677SOL    HW210815   0.613   0.132   4.503  0.4407  0.4704 -0.3497
 2677SOL    HW310816   0.469   0.179   4.501  0.2722  0.0145  0.5179
 2677SOL    MW410817   0.528   0.116   4.491  0.4445  0.2574 -0.0858
 2678SOL     OW10818   1.573   0.727   4.713 -0.1266  0.0013 -0.3012
 2678SOL    HW210819   1.655   0.777   4.717 -0.6570  0.8027  1.3120
 2678SOL    HW310820   1.556   0.717   4.620  1.2668  0.7383 -0.6604
 2678SOL    MW410821   1.582   0.732   4.701 -0.0128  0.2043 -0.1359
 2679SOL     OW10822   0.403   0.982   4.638 -0.3150 -0.6743 -0.1022
 2679SOL    HW210823   0.438   0.906   4.591 -1.9070 -0.8021 -1.1490
 2679SOL    HW310824   0.443   1.057   4.595  0.9418 -0.9016  0.6609
 2679SOL    MW410825   0.413   0.982   4.626 -0.3593 -0.7212 -0.1402
 2680SOL     OW10826   1.919   0.935   4.278 -0.3652  0.1061 -0.1699
 2680SOL    HW210827   1.995   0.903   4.326 -0.9391 -1.0186  0.0083
 2680SOL    HW310828   1.944   1.024   4.250  0.4944  0.2430  1.0024
 2680SOL    MW410829   1.933   0.943   4.280 -0.3273 -0.0243  0.0081
 2681SOL     OW10830   0.845   1.569   4.664  0.3608  0.2108 -0.0158
 2681SOL    HW210831   0.929   1.525   4.677  0.4755  0.9428  1.8045
 2681SOL    HW310832   0.822   1.604   4.750 -0.9686  1.5093 -0.8661
 2681SOL    MW410833   0.853   1.568   4.677  0.2005  0.4786  0.1116
 2682SOL     OW10834   1.112   1.172   4.823 -0.5088  0.2265  0.2031
 2682SOL    HW210835   1.204   1.149   4.826 -0.2981  0.6267 -2.1002
 2682SOL    HW310836   1.073   1.108   4.763 -1.0360  2.1556 -1.5895
 2682SOL    MW410837   1.119   1.160   4.815 -0.5505  0.5338 -0.3371
 2683SOL     OW10838   0.868   1.763   4.468 -0.1729  0.5459  0.3003
 2683SOL    HW210839   0.940   1.815   4.503 -0.2289  1.3361 -0.7639
 2683SOL    HW310840   0.849   1.700   4.538 -1.3806  3.1551  2.4126
 2683SOL    MW410841   0.875   1.761   4.482 -0.3397  0.9943  0.4387
 2684SOL     OW10842   0.742   2.355   4.607 -0.2620  0.2751  0.2566
 2684SOL    HW210843   0.768   2.421   4.543 -0.5066 -0.2880 -0.4227
 2684SOL    HW310844   0.734   2.404   4.689 -0.1509  1.0333 -0.1774
 2684SOL    MW410845   0.745   2.370   4.609 -0.2796  0.3011  0.1092
 2685SOL     OW10846   0.662   1.423   4.519 -0.1131 -0.6348  0.3628
 2685SOL    HW210847   0.727   1.473   4.568  0.4701 -1.7209  0.7011
 2685SOL    HW310848   0.587   1.482   4.511  0.3875  0.1114  1.1786
 2685SOL    MW410849   0.661   1.437   4.524  0.0299 -0.6796  0.5150
 2686SOL     OW10850   4.400   2.503   4.518 -0.0594 -0.7275 -0.0995
 2686SOL    HW210851   4.305   2.487   4.519 -0.1988  0.1176  0.2755
 2686SOL    HW310852   4.427   2.482   4.429 -0.7516 -0.1094 -0.4577
 2686SOL    MW410853   4.391   2.498   4.507 -0.1688 -0.5341 -0.0973
 2687SOL     OW10854   0.877   2.793   4.563 -0.3469 -0.0593  0.6269
 2687SOL    HW210855   0.825   2.873   4.558 -0.7316 -0.3580 -0.2081
 2687SOL    HW310856   0.956   2.813   4.512 -1.0377 -0.6509 -0.7092
 2687SOL    MW410857   0.881   2.806   4.556 -0.4888 -0.1767  0.3405
 2688SOL     OW10858   0.459   2.376   4.506 -0.2000  0.1674 -0.3632
 2688SOL    HW210859   0.551   2.374   4.532 -0.2385 -0.2071 -0.2514
 2688SOL    HW310860   0.460   2.408   4.416 -0.2181  3.3363  0.7283
 2688SOL    MW410861   0.471   2.380   4.497 -0.2074  0.5362 -0.2046
 2689SOL     OW10862   1.176   3.097   4.493  0.1233 -0.1596 -0.2732
 2689SOL    HW210863   1.138   3.012   4.471 -0.3318  0.0155 -0.1800
 2689SOL    HW310864   1.196   3.136   4.408  0.8681 -0.5954 -0.3022
 2689SOL    MW410865   1.174   3.091   4.479  0.1615 -0.1938 -0.2646
 2690SOL     OW10866   0.536   3.225   4.490  0.4178  0.1689 -0.3175
 2690SOL    HW210867   0.565   3.312   4.519  0.5793  0.6624 -1.8654
 2690SOL    HW310868   0.442   3.223   4.508  0.5472  0.3952  0.3753
 2690SOL    MW410869   0.528   3.236   4.496  0.4562  0.2637 -0.4301
 2691SOL     OW10870   1.239   0.128   4.551  0.1180  0.7001 -0.0409
 2691SOL    HW210871   1.179   0.201   4.568 -0.0883  0.2947  0.9920
 2691SOL    HW310872   1.185   0.050   4.560  0.9821  0.2911  1.8045
 2691SOL    MW410873   1.224   0.127   4.554  0.2048  0.5926  0.3386
 2692SOL     OW10874   4.443   2.762   4.625 -0.3266 -0.0530 -0.1385
 2692SOL    HW210875   4.419   2.678   4.586 -1.8521 -0.3066  1.2754
 2692SOL    HW310876   4.538   2.768   4.613  0.0858 -2.8311  1.3303
 2692SOL    MW410877   4.452   2.751   4.618 -0.4730 -0.4532  0.2418
 2693SOL     OW10878   4.282   3.576   4.525 -0.1150 -0.0825 -0.0940
 2693SOL    HW210879   4.285   3.485   4.554  0.0426  0.0703  0.3707
 2693SOL    HW310880   4.260   3.571   4.432  1.2890 -0.6588 -0.4094
 2693SOL    MW410881   4.280   3.564   4.516  0.0911 -0.1385 -0.0739
 2694SOL     OW10882   0.692   4.343   4.524  0.2821  0.0482  0.3498
 2694SOL    HW210883   0.787   4.358   4.532  0.5847 -1.3487 -0.4423
 2694SOL    HW310884   0.677   4.334   4.429 -0.6756  0.4598  0.4590
 2694SOL    MW410885   0.703   4.344   4.512  0.1957 -0.0815  0.2599
 2695SOL     OW10886   0.008   4.299   4.579  0.6021  0.1593 -0.4910
 2695SOL    HW210887   0.006   4.211   4.617 -0.1743 -0.0517 -1.0159
 2695SOL    HW310888  -0.085   4.323   4.570  0.8076  1.5042  0.7386
 2695SOL    MW410889  -0.005   4.291   4.583  0.5269  0.3085 -0.3977
 2696SOL     OW10890   4.474   3.996   4.584 -0.0636 -0.3747 -0.4689
 2696SOL    HW210891   4.537   3.924   4.580  1.5845  0.9099  1.4284
 2696SOL    HW310892   4.389   3.953   4.591  0.7683 -2.1343 -0.9167
 2696SOL    MW410893   4.471   3.981   4.584  0.2636 -0.4375 -0.2775
 2697SOL     OW10894   0.184   4.520   4.588  0.0189  0.1352  0.2175
 2697SOL    HW210895   0.277   4.501   4.589 -0.1538 -0.7598  1.2510
 2697SOL    HW310896   0.142   4.435   4.600 -0.9299  0.4999 -0.4789
 2697SOL    MW410897   0.191   4.507   4.590 -0.1291  0.0653  0.2623
 2698SOL     OW10898   1.011   0.583   4.490 -0.0420 -0.4445 -0.2249
 2698SOL    HW210899   1.076   0.652   4.502 -1.2349  0.5706  0.4625
 2698SOL    HW310900   0.928   0.623   4.516 -0.9457 -1.7356 -1.0770
 2698SOL    MW410901   1.009   0.597   4.495 -0.3186 -0.4809 -0.2465
 2699SOL     OW10902   0.767   0.218   4.510  0.3039  0.0702 -0.4864
 2699SOL    HW210903   0.813   0.186   4.433  0.1549 -0.3306 -0.4128
 2699SOL    HW310904   0.729   0.302   4.483  1.2456  0.5092 -0.4794
 2699SOL    MW410905   0.768   0.225   4.497  0.4084  0.0753 -0.4759
 2700SOL     OW10906   0.644   0.458   4.483  0.5032 -0.0476  0.0743
 2700SOL    HW210907   0.634   0.494   4.395 -0.0272 -0.9883 -0.2602
 2700SOL    HW310908   0.564   0.407   4.497 -0.0590  1.2556  1.6604
 2700SOL    MW410909   0.632   0.456   4.473  0.3591  0.0003  0.2398
 2701SOL     OW10910   1.993   0.902   4.890  0.2649  0.2929 -0.1186
 2701SOL    HW210911   1.916   0.930   4.839 -1.3062 -0.1505  1.9333
 2701SOL    HW310912   2.008   0.973   4.952  0.6070 -0.2764  0.4599
 2701SOL    MW410913   1.984   0.915   4.891  0.1028  0.1593  0.2284
 2702SOL     OW10914   1.914   0.719   4.547 -0.1309 -0.4647 -0.5368
 2702SOL    HW210915   1.971   0.747   4.475  0.2223 -1.5142 -0.6789
 2702SOL    HW310916   1.877   0.800   4.582  0.1686  0.0994 -1.5140
 2702SOL    MW410917   1.916   0.733   4.542 -0.0447 -0.5288 -0.6847
 2703SOL     OW10918   0.171   1.128   4.721  0.1307  0.0329 -0.0189
 2703SOL    HW210919   0.248   1.076   4.699 -1.5627 -1.7515 -1.9228
 2703SOL    HW310920   0.129   1.080   4.793  1.2806  1.5437  1.7202
 2703SOL    MW410921   0.175   1.115   4.728  0.0590 -0.0032 -0.0405
 2704SOL     OW10922   0.437   1.599   4.480 -0.7553 -0.0372 -0.2024
 2704SOL    HW210923   0.449   1.641   4.395  0.1889 -0.3850 -0.2463
 2704SOL    HW310924   0.374   1.529   4.464 -0.9973  0.2455 -0.4938
 2704SOL    MW410925   0.430   1.595   4.467 -0.6626 -0.0459 -0.2470
 2705SOL     OW10926   0.817   0.976   4.457  0.1050  0.0541  0.2476
 2705SOL    HW210927   0.764   0.905   4.492  0.7909 -0.8363 -0.4854
 2705SOL    HW310928   0.835   0.950   4.366 -0.0588  1.4040 -0.1947
 2705SOL    MW410929   0.812   0.964   4.449  0.1738  0.1147  0.0925
 2706SOL     OW10930   2.066   1.152   5.028 -0.1572  0.2560 -0.0825
 2706SOL    HW210931   2.130   1.167   4.959 -0.6900  1.2179 -0.3644
 2706SOL    HW310932   2.113   1.169   5.109 -0.0088  0.7675 -0.2797
 2706SOL    MW410933   2.081   1.156   5.029 -0.2079  0.4504 -0.1454
 2707SOL     OW10934   1.216   0.793   4.501  0.2673 -0.1560 -0.0221
 2707SOL    HW210935   1.254   0.802   4.413  0.6159 -1.4170 -0.0025
 2707SOL    HW310936   1.284   0.827   4.560 -0.2879  1.4477 -0.2918
 2707SOL    MW410937   1.230   0.799   4.497  0.2402 -0.1108 -0.0553
 2708SOL     OW10938   0.829   2.092   4.690  0.2588 -0.4952 -0.3267
 2708SOL    HW210939   0.801   2.176   4.654  1.5333 -0.9059 -2.3677
 2708SOL    HW310940   0.778   2.027   4.642 -0.2503 -0.9456  0.7945
 2708SOL    MW410941   0.819   2.095   4.679  0.3598 -0.6087 -0.4482
 2709SOL     OW10942   1.107   2.832   4.394  0.2773 -0.4832  0.2231
 2709SOL    HW210943   1.147   2.759   4.442 -1.6485 -0.6072  1.6905
 2709SOL    HW310944   1.099   2.800   4.304  2.5619 -0.7934  0.0868
 2709SOL    MW410945   1.112   2.818   4.388  0.3245 -0.5405  0.3986
 2710SOL     OW10946   1.944   3.136   4.568  0.3365  0.0908 -0.3191
 2710SOL    HW210947   1.886   3.201   4.607  0.7439  0.0585  0.3529
 2710SOL    HW310948   2.031   3.178   4.570  0.5153 -0.2768 -0.3318
 2710SOL    MW410949   1.948   3.150   4.573  0.4139  0.0381 -0.2322
 2711SOL     OW10950   1.565   3.587   4.489 -0.1132 -0.3091 -0.1461
 2711SOL    HW210951   1.649   3.604   4.531 -1.2438  0.2366  1.9895
 2711SOL    HW310952   1.555   3.492   4.492 -1.7634 -0.0837  4.1414
 2711SOL    MW410953   1.575   3.577   4.495 -0.4803 -0.2074  0.7010
 2712SOL     OW10954   0.536   2.736   4.484  0.1170  0.1928 -0.9508
 2712SOL    HW210955   0.598   2.668   4.458  0.8202  0.6835 -0.5831
 2712SOL    HW310956   0.466   2.690   4.529  0.5082 -0.3045 -0.8504
 2712SOL    MW410957   0.535   2.721   4.486  0.2614  0.1919 -0.8888
 2713SOL     OW10958   0.609   4.039   4.518 -0.1481  0.5154 -0.0502
 2713SOL    HW210959   0.615   4.134   4.507 -1.7602  0.7680  0.9834
 2713SOL    HW310960   0.556   4.010   4.444 -1.0145  0.6484  0.5092
 2713SOL    MW410961   0.602   4.048   4.507 -0.4751  0.5665  0.1607
 2714SOL     OW10962   0.898   3.221   4.467 -0.3521 -0.1061 -0.2626
 2714SOL    HW210963   0.837   3.148   4.457  1.5538 -1.7898 -0.0339
 2714SOL    HW310964   0.951   3.198   4.544  0.8489  1.0844 -0.7130
 2714SOL    MW410965   0.897   3.208   4.476  0.0578 -0.1709 -0.2918
 2715SOL     OW10966   0.682   2.973   4.481 -0.3374 -0.1107  0.2694
 2715SOL    HW210967   0.636   3.056   4.495  0.4412  0.1426  1.4289
 2715SOL    HW310968   0.614   2.906   4.492 -0.7957  0.3372  0.1952
 2715SOL    MW410969   0.667   2.975   4.485 -0.2952 -0.0181  0.4129
 2716SOL     OW10970   1.845   3.640   4.545 -0.1453  0.2447 -0.1480
 2716SOL    HW210971   1.933   3.639   4.508 -0.4983  0.8148 -1.0443
 2716SOL    HW310972   1.821   3.733   4.545 -0.9551  0.0369 -0.4419
 2716SOL    MW410973   1.853   3.652   4.540 -0.2985  0.2923 -0.3047
 2717SOL     OW10974   0.727   3.494   4.503 -0.5744 -0.3326 -0.0328
 2717SOL    HW210975   0.779   3.573   4.518 -0.6195 -0.0039 -1.5705
 2717SOL    HW310976   0.791   3.422   4.508  0.0071  0.0550 -1.7225
 2717SOL    MW410977   0.742   3.495   4.506 -0.5037 -0.2379 -0.4592
 2718SOL     OW10978   0.453   4.484   4.573 -0.2443  0.1141  0.5395
 2718SOL    HW210979   0.537   4.443   4.552 -0.0063 -0.1466  1.9037
 2718SOL    HW310980   0.466   4.577   4.551  1.1925  0.5029  2.7881
 2718SOL    MW410981   0.466   4.491   4.568 -0.0234  0.1311  1.0161
 2719SOL     OW10982   0.878   3.953   4.517 -0.0392 -0.2457 -0.0974
 2719SOL    HW210983   0.793   3.985   4.548 -0.2100 -0.0355 -0.7742
 2719SOL    HW310984   0.875   3.966   4.422 -0.0104 -2.0493 -0.3543
 2719SOL    MW410985   0.866   3.959   4.508 -0.0580 -0.4556 -0.2203
 2720SOL     OW10986   1.033   0.295   4.575  0.0891 -0.0102  0.1836
 2720SOL    HW210987   0.946   0.256   4.572  0.1791 -0.1422 -1.1632
 2720SOL    HW310988   1.019   0.388   4.560 -0.0022  0.3130  2.1091
 2720SOL    MW410989   1.020   0.302   4.573  0.0889  0.0150  0.2599
 2721SOL     OW10990   2.132   4.235   4.704  0.2210  0.2215  0.1170
 2721SOL    HW210991   2.076   4.173   4.656  1.3381  1.7835 -3.3751
 2721SOL    HW310992   2.214   4.188   4.718 -0.4585 -0.5919  1.4350
 2721SOL    MW410993   2.135   4.221   4.699  0.2787  0.3200 -0.1693
 2722SOL     OW10994   1.557   4.344   4.522 -0.0249 -0.0353  0.1451
 2722SOL    HW210995   1.638   4.395   4.522  0.3235 -0.5903 -0.1422
 2722SOL    HW310996   1.532   4.338   4.430  0.1341 -0.6987  0.1445
 2722SOL    MW410997   1.564   4.350   4.510  0.0421 -0.1965  0.1078
 2723SOL     OW10998   0.966   4.379   4.486 -0.4517 -0.3056 -0.0474
 2723SOL    HW210999   1.023   4.314   4.527 -1.4045 -0.5852  0.8255
 2723SOL    HW311000   1.000   4.463   4.516  0.3390 -0.4152 -0.6124
 2723SOL    MW411001   0.978   4.382   4.495 -0.4731 -0.3572 -0.0072
 2724SOL     OW11002   1.400   0.948   4.642 -0.0611  0.4884 -0.0761
 2724SOL    HW211003   1.443   0.873   4.685 -0.7546  0.2937  0.2822
 2724SOL    HW311004   1.472   1.000   4.607  0.4367 -0.2948 -0.2345
 2724SOL    MW411005   1.415   0.945   4.643 -0.0869  0.3593 -0.0501
 2725SOL     OW11006   1.083   4.576   4.652 -0.5264 -0.5512  0.1533
 2725SOL    HW211007   1.054   4.612   4.736 -1.5647 -1.3126  0.1261
 2725SOL    HW311008   1.159   4.522   4.675  0.0646  0.3662  0.4030
 2725SOL    MW411009   1.089   4.574   4.666 -0.5854 -0.5312  0.1826
 2726SOL     OW11010   1.058   0.996   4.596  0.3507  0.1952  0.1399
 2726SOL    HW211011   1.109   0.919   4.573 -1.1530 -1.1269  1.1955
 2726SOL    HW311012   0.972   0.981   4.559  0.5428  2.1969 -1.1998
 2726SOL    MW411013   1.053   0.984   4.588  0.1777  0.2848  0.1025
 2727SOL     OW11014   2.343   1.621   4.762  0.6440 -0.0371  0.1246
 2727SOL    HW211015   2.434   1.651   4.758  1.0676 -1.4803 -2.0521
 2727SOL    HW311016   2.350   1.525   4.763 -0.8330 -0.1493  0.1603
 2727SOL    MW411017   2.356   1.612   4.761  0.5047 -0.2424 -0.1578
 2728SOL     OW11018   0.782   0.708   4.585 -0.1075 -0.2694 -0.1544
 2728SOL    HW211019   0.715   0.642   4.567  0.6460 -1.0763 -0.0195
 2728SOL    HW311020   0.782   0.717   4.680 -0.5485  0.2978 -0.1995
 2728SOL    MW411021   0.773   0.701   4.595 -0.0663 -0.3010 -0.1431
 2729SOL     OW11022   1.734   0.068   4.455 -0.3767 -0.2692 -0.1075
 2729SOL    HW211023   1.806   0.127   4.479  1.2162 -1.4263 -1.9141
 2729SOL    HW311024   1.655   0.117   4.477  0.9246  2.3275 -1.0367
 2729SOL    MW411025   1.733   0.082   4.461  0.0052 -0.0792 -0.4683
 2730SOL     OW11026   1.657   0.938   4.362  0.5903 -0.1941  0.4926
 2730SOL    HW211027   1.646   0.997   4.436  1.4415 -1.0028  1.2741
 2730SOL    HW311028   1.749   0.946   4.337  0.3347  0.0037 -0.4200
 2730SOL    MW411029   1.667   0.947   4.368  0.6689 -0.2747  0.4759
 2731SOL     OW11030   1.322   1.956   4.621  0.3752 -0.6584  0.3437
 2731SOL    HW211031   1.374   1.924   4.547  0.2426 -0.2229  0.0600
 2731SOL    HW311032   1.381   2.017   4.666 -0.1070  0.3310 -0.3515
 2731SOL    MW411033   1.337   1.960   4.617  0.2942 -0.4704  0.2146
 2732SOL     OW11034   1.770   2.721   4.409  0.2178  0.0993 -0.2488
 2732SOL    HW211035   1.846   2.771   4.439  0.2422  1.3925 -2.3451
 2732SOL    HW311036   1.777   2.636   4.454  2.1368  0.6940  0.6062
 2732SOL    MW411037   1.781   2.716   4.419  0.4743  0.3486 -0.4125
 2733SOL     OW11038   2.362   2.085   4.709  0.0539 -0.0286  0.1588
 2733SOL    HW211039   2.291   2.023   4.693 -0.4419  1.1296 -2.5074
 2733SOL    HW311040   2.442   2.034   4.698 -0.3518 -0.2761 -1.8215
 2733SOL    MW411041   2.363   2.070   4.705 -0.0651  0.0918 -0.4544
 2734SOL     OW11042   0.757   2.567   4.432 -0.2950  0.3371 -0.5627
 2734SOL    HW211043   0.813   2.631   4.475  0.9352 -1.3894  0.4406
 2734SOL    HW311044   0.806   2.539   4.355  0.0890 -0.8909  0.1091
 2734SOL    MW411045   0.771   2.572   4.427 -0.0820 -0.0525 -0.3419
 2735SOL     OW11046   1.322   3.990   4.582 -0.0658 -0.0000  0.7379
 2735SOL    HW211047   1.328   3.895   4.568 -0.5244 -0.0235  0.7078
 2735SOL    HW311048   1.413   4.018   4.595 -0.0718 -0.6722  2.2623
 2735SOL    MW411049   1.335   3.981   4.582 -0.1270 -0.0918  0.9351
 2736SOL     OW11050   1.233   2.608   4.503  0.3442 -0.2083  0.0955
 2736SOL    HW211051   1.271   2.550   4.437  0.4463  0.3929 -0.3768
 2736SOL    HW311052   1.184   2.550   4.561  0.3104 -0.7477 -0.4716
 2736SOL    MW411053   1.231   2.593   4.502  0.3533 -0.2000 -0.0420
 2737SOL     OW11054   2.242   2.836   4.622 -0.0321 -0.2667 -0.2731
 2737SOL    HW211055   2.313   2.895   4.651 -0.4223 -0.3121  0.7858
 2737SOL    HW311056   2.282   2.749   4.623 -0.1986 -0.3372  0.6661
 2737SOL    MW411057   2.257   2.833   4.626 -0.1054 -0.2820 -0.0095
 2738SOL     OW11058   1.491   3.055   4.494  0.1828 -0.1317 -0.1396
 2738SOL    HW211059   1.403   3.090   4.509 -0.5654 -0.7690 -2.7922
 2738SOL    HW311060   1.547   3.133   4.494 -0.7624  0.5696 -1.0093
 2738SOL    MW411061   1.486   3.070   4.496 -0.0407 -0.1233 -0.6042
 2739SOL     OW11062   1.339   3.732   4.480  0.4427 -0.6650  0.1929
 2739SOL    HW211063   1.421   3.684   4.487 -0.6739 -2.6873 -0.2436
 2739SOL    HW311064   1.271   3.666   4.495 -1.0967  1.0892  1.1465
 2739SOL    MW411065   1.341   3.717   4.483  0.0923 -0.7002  0.2613
 2740SOL     OW11066   0.943   3.679   4.538  0.8942  0.0751 -0.4023
 2740SOL    HW211067   0.981   3.644   4.457  0.9713  0.3431 -0.4830
 2740SOL    HW311068   0.933   3.773   4.521 -0.4530 -0.0994 -0.6502
 2740SOL    MW411069   0.947   3.687   4.525  0.7266  0.0875 -0.4454
 2741SOL     OW11070   2.244   3.223   4.526  0.0026 -0.0729  0.3487
 2741SOL    HW211071   2.258   3.213   4.432  1.1326  1.0998  0.3726
 2741SOL    HW311072   2.296   3.153   4.565  1.6466  1.0363  0.1955
 2741SOL    MW411073   2.253   3.212   4.519  0.3686  0.2282  0.3314
 2742SOL     OW11074   1.626   3.313   4.495  0.2091 -0.0954  0.1816
 2742SOL    HW211075   1.692   3.339   4.559  0.4876 -0.4108  0.0220
 2742SOL    HW311076   1.675   3.287   4.418 -0.0168 -1.6818  0.5488
 2742SOL    MW411077   1.641   3.313   4.494  0.2161 -0.3464  0.2089
 2743SOL     OW11078   2.101   3.623   4.468 -0.2903  0.1596  0.1405
 2743SOL    HW211079   2.122   3.717   4.460  0.3600  0.1258  1.3045
 2743SOL    HW311080   2.089   3.594   4.378 -2.1722  1.7307 -0.1446
 2743SOL    MW411081   2.102   3.632   4.455 -0.4530  0.3626  0.2565
 2744SOL     OW11082   1.097   4.150   4.576  0.1559 -0.3013 -0.1144
 2744SOL    HW211083   1.027   4.085   4.568  0.4123 -0.5912  0.0039
 2744SOL    HW311084   1.178   4.098   4.574  0.4410  0.1542 -1.8950
 2744SOL    MW411085   1.098   4.134   4.574  0.2273 -0.2794 -0.3338
 2745SOL     OW11086   2.031   4.491   4.732  0.0391  0.6830 -0.3240
 2745SOL    HW211087   2.085   4.532   4.665  0.0454  0.0116 -0.7349
 2745SOL    HW311088   2.065   4.402   4.740 -0.5900  0.4510 -0.1301
 2745SOL    MW411089   2.042   4.485   4.724 -0.0432  0.5641 -0.3524
 2746SOL     OW11090   1.939   0.228   4.531 -0.1034 -0.1972 -0.4886
 2746SOL    HW211091   1.974   0.306   4.487 -1.0107  0.3961 -0.1852
 2746SOL    HW311092   1.905   0.261   4.614  0.1437 -1.0470 -0.0412
 2746SOL    MW411093   1.939   0.243   4.536 -0.1905 -0.2310 -0.3891
 2747SOL     OW11094   1.523   0.235   4.521 -0.1501 -0.0054 -0.2883
 2747SOL    HW211095   1.515   0.313   4.577  1.5667  0.0404 -0.0584
 2747SOL    HW311096   1.438   0.192   4.527 -0.2044  0.3330  1.8960
 2747SOL    MW411097   1.511   0.240   4.529  0.0691  0.0453  0.0300
 2748SOL     OW11098   1.835   0.364   4.754 -0.0520 -0.0457 -0.1734
 2748SOL    HW211099   1.875   0.439   4.797 -1.3649 -0.2424  1.4442
 2748SOL    HW311100   1.744   0.390   4.739 -0.3568 -1.0742 -0.1619
 2748SOL    MW411101   1.828   0.377   4.757 -0.2655 -0.2073  0.0420
 2749SOL     OW11102   2.353   0.181   4.463 -0.4934 -0.1019 -0.0085
 2749SOL    HW211103   2.326   0.197   4.373 -0.5974 -1.0690 -0.1499
 2749SOL    HW311104   2.350   0.268   4.505  0.1362  0.4402 -1.0800
 2749SOL    MW411105   2.349   0.195   4.457 -0.4239 -0.1580 -0.1683
 2750SOL     OW11106   1.979   0.594   4.808  0.0646 -0.0085  0.2363
 2750SOL    HW211107   1.950   0.632   4.725 -1.4646 -1.1131  0.2562
 2750SOL    HW311108   1.959   0.662   4.873 -0.4824  0.1047 -0.0442
 2750SOL    MW411109   1.973   0.608   4.806 -0.2091 -0.1393  0.2022
 2751SOL     OW11110   1.544   0.453   4.729 -0.6948 -0.1017 -0.1542
 2751SOL    HW211111   1.556   0.548   4.719  0.8928 -0.0954  1.5479
 2751SOL    HW311112   1.495   0.444   4.810 -0.4842 -0.7774 -0.1037
 2751SOL    MW411113   1.539   0.464   4.738 -0.4575 -0.1900  0.0768
 2752SOL     OW11114   1.944   1.240   4.238  0.0215 -0.0973  0.5650
 2752SOL    HW211115   1.873   1.276   4.290  0.2428  0.4355  0.4985
 2752SOL    HW311116   2.022   1.286   4.269  0.3191 -0.5863  0.5519
 2752SOL    MW411117   1.945   1.251   4.249  0.0901 -0.0916  0.5546
 2753SOL     OW11118   1.034   1.975   4.535 -0.1864 -0.0933  0.1823
 2753SOL    HW211119   1.126   1.981   4.561 -0.1822  0.5691  0.0160
 2753SOL    HW311120   0.986   2.014   4.607 -0.3422 -0.4596  0.2791
 2753SOL    MW411121   1.040   1.981   4.548 -0.2064 -0.0542  0.1736
 2754SOL     OW11122   2.155   1.898   4.683  0.4214  0.0241  0.1314
 2754SOL    HW211123   2.074   1.934   4.646 -0.3998 -0.8904  1.0365
 2754SOL    HW311124   2.128   1.819   4.728  1.7196  0.1007  1.0720
 2754SOL    MW411125   2.141   1.893   4.684  0.4842 -0.0864  0.3743
 2755SOL     OW11126   1.822   2.391   4.491 -0.0333  0.1186 -0.1094
 2755SOL    HW211127   1.780   2.319   4.538 -1.5277  1.2430  0.3392
 2755SOL    HW311128   1.908   2.400   4.532  0.0121 -1.1333  0.0944
 2755SOL    MW411129   1.828   2.383   4.502 -0.2244  0.1020 -0.0229
 2756SOL     OW11130   1.733   2.108   4.501  0.0233  0.1912  0.0469
 2756SOL    HW211131   1.692   2.104   4.414  0.6895  1.2177 -0.3316
 2756SOL    HW311132   1.662   2.090   4.562 -0.8436  1.2102 -0.6333
 2756SOL    MW411133   1.718   2.105   4.497 -0.0031  0.4609 -0.0930
 2757SOL     OW11134   2.263   1.680   4.493  0.0461  0.5217  0.1942
 2757SOL    HW211135   2.171   1.706   4.504 -0.1408 -0.4518  0.9634
 2757SOL    HW311136   2.297   1.674   4.583  0.9889  1.3340 -0.1061
 2757SOL    MW411137   2.255   1.683   4.507  0.1459  0.5006  0.2565
 2758SOL     OW11138   2.077   2.331   4.577 -0.4295  0.6364 -0.4345
 2758SOL    HW211139   2.125   2.371   4.504  0.2434  0.3351 -0.1590
 2758SOL    HW311140   2.065   2.240   4.551  1.7950 -0.0312  0.8133
 2758SOL    MW411141   2.082   2.325   4.564 -0.0474  0.5083 -0.2332
 2759SOL     OW11142   1.996   2.876   4.487 -0.4536 -0.0261 -0.3685
 2759SOL    HW211143   1.965   2.956   4.528 -2.7452 -1.5431  1.0214
 2759SOL    HW311144   2.077   2.855   4.533 -0.0066  1.3153 -0.5332
 2759SOL    MW411145   2.002   2.883   4.499 -0.6969 -0.0496 -0.2074
 2760SOL     OW11146   3.356   4.161   0.363 -0.4192  0.0139 -0.1564
 2760SOL    HW211147   3.354   4.080   0.311  0.9006  0.0981 -0.3599
 2760SOL    HW311148   3.289   4.216   0.324 -0.6043 -0.5774 -0.6900
 2760SOL    MW411149   3.347   4.157   0.351 -0.2697 -0.0529 -0.2536
 2761SOL     OW11150   1.589   4.092   4.627  0.3062  0.4453  0.0998
 2761SOL    HW211151   1.584   4.180   4.589 -2.0815  0.9566  1.5127
 2761SOL    HW311152   1.624   4.106   4.715 -0.2685  0.0049  0.3993
 2761SOL    MW411153   1.593   4.106   4.633 -0.0845  0.4554  0.3257
 2762SOL     OW11154   2.819   2.873   4.386 -0.0476  0.0411 -0.2310
 2762SOL    HW211155   2.858   2.809   4.444 -1.0772  0.2993  0.7714
 2762SOL    HW311156   2.829   2.957   4.431 -1.9156  0.0840  0.1612
 2762SOL    MW411157   2.825   2.876   4.399 -0.4296  0.0806 -0.0472
 2763SOL     OW11158   1.831   3.371   4.688 -0.3441  0.3478  0.1163
 2763SOL    HW211159   1.792   3.386   4.774 -1.2934  0.1346 -0.2732
 2763SOL    HW311160   1.876   3.454   4.668 -1.4917  0.9862  0.1116
 2763SOL    MW411161   1.831   3.384   4.696 -0.6207  0.4039  0.0634
 2764SOL     OW11162   2.346   3.488   4.485  0.1953  0.6966  0.1076
 2764SOL    HW211163   2.319   3.397   4.500  0.3683  0.2351 -2.1305
 2764SOL    HW311164   2.267   3.540   4.499  0.0747  0.1911  1.3169
 2764SOL    MW411165   2.332   3.483   4.489  0.2022  0.5691 -0.0281
 2765SOL     OW11166   1.988   4.050   4.565 -0.7268 -0.1336  0.2350
 2765SOL    HW211167   1.917   3.992   4.536 -0.8435  0.5733 -0.9545
 2765SOL    HW311168   1.986   4.123   4.502  1.8431 -0.7002 -0.5717
 2765SOL    MW411169   1.978   4.052   4.553 -0.4032 -0.1149 -0.0286
 2766SOL     OW11170   2.195   3.883   4.481 -0.3761 -0.0260  0.3026
 2766SOL    HW211171   2.218   3.904   4.390 -1.1725  0.2044  0.1558
 2766SOL    HW311172   2.125   3.943   4.503  0.2009  0.3043  1.2710
 2766SOL    MW411173   2.189   3.894   4.472 -0.4051  0.0474  0.4110
 2767SOL     OW11174   1.758   3.903   4.491 -0.1912 -0.2604 -0.1120
 2767SOL    HW211175   1.699   3.963   4.538 -0.3140  0.4833 -1.2094
 2767SOL    HW311176   1.753   3.931   4.400  1.7479 -0.3010 -0.2495
 2767SOL    MW411177   1.749   3.915   4.485  0.0484 -0.1676 -0.2747
 2768SOL     OW11178   2.144   0.016   4.531 -0.2616 -0.1963  0.5131
 2768SOL    HW211179   2.208   0.082   4.504  0.0859 -0.8463 -0.2604
 2768SOL    HW311180   2.066   0.067   4.553 -0.0280  0.4670 -0.1798
 2768SOL    MW411181   2.142   0.031   4.530 -0.1850 -0.1945  0.3195
 2769SOL     OW11182   1.818   4.470   4.558  0.3043 -0.3554  0.1733
 2769SOL    HW211183   1.783   4.556   4.536 -0.7948 -0.6978  0.5413
 2769SOL    HW311184   1.864   4.483   4.641  1.2629  0.1492 -0.4345
 2769SOL    MW411185   1.819   4.483   4.566  0.2857 -0.3333  0.1416
 2770SOL     OW11186   1.996   4.310   4.417  0.3658 -0.1245  0.5716
 2770SOL    HW211187   1.940   4.362   4.474 -0.0604  1.1081 -0.9534
 2770SOL    HW311188   2.084   4.344   4.431  0.3972 -0.4361  1.1537
 2770SOL    MW411189   2.001   4.321   4.426  0.3135 -0.0033  0.4473
 2771SOL     OW11190   2.243   4.410   4.444  0.3377  0.1136  0.2903
 2771SOL    HW211191   2.311   4.412   4.376  0.3202 -0.1457  0.2642
 2771SOL    HW311192   2.228   4.502   4.465  0.3725  0.1966 -0.0294
 2771SOL    MW411193   2.250   4.423   4.438  0.3400  0.0906  0.2456
 2772SOL     OW11194   1.065   1.420   4.720 -0.1541  0.0270 -0.1704
 2772SOL    HW211195   1.157   1.444   4.731  0.1190 -0.4329 -1.4653
 2772SOL    HW311196   1.054   1.342   4.775  0.3043 -0.1233 -0.2930
 2772SOL    MW411197   1.075   1.413   4.729 -0.0577 -0.0534 -0.3567
 2773SOL     OW11198   2.630   0.136   4.456 -0.2412 -0.1853  0.0338
 2773SOL    HW211199   2.536   0.135   4.473 -0.2244 -0.1034  0.1357
 2773SOL    HW311200   2.637   0.156   4.362 -0.3294 -0.4087 -0.0191
 2773SOL    MW411201   2.619   0.139   4.446 -0.2506 -0.2040  0.0401
 2774SOL     OW11202   2.252   0.598   4.765  0.6294 -0.0178  0.4615
 2774SOL    HW211203   2.158   0.590   4.784  0.7635  0.1887  1.2514
 2774SOL    HW311204   2.272   0.690   4.784  0.5770  0.4395 -1.6429
 2774SOL    MW411205   2.242   0.609   4.770  0.6402  0.0698  0.2885
 2775SOL     OW11206   3.033   0.955   4.489 -0.7481 -0.1363  0.1034
 2775SOL    HW211207   3.044   0.913   4.574 -0.7089 -1.4766 -0.5501
 2775SOL    HW311208   3.078   1.039   4.497 -1.9796  0.3864  1.8670
 2775SOL    MW411209   3.040   0.961   4.501 -0.9058 -0.2441  0.2503
 2776SOL     OW11210   2.272   0.883   4.802  0.5854 -0.1434 -0.0677
 2776SOL    HW211211   2.302   0.971   4.826  1.2364 -0.6437  0.9488
 2776SOL    HW311212   2.183   0.878   4.838  0.5689  0.0671 -0.0745
 2776SOL    MW411213   2.264   0.894   4.810  0.6692 -0.1816  0.0653
 2777SOL     OW11214   2.246   0.958   4.539 -0.2460 -0.1674  0.2254
 2777SOL    HW211215   2.248   0.924   4.629 -0.1354  0.3835  0.4289
 2777SOL    HW311216   2.283   1.046   4.546 -0.1856 -0.1487 -0.3694
 2777SOL    MW411217   2.251   0.965   4.552 -0.2236 -0.0923  0.1736
 2778SOL     OW11218   2.416   1.470   4.424  0.2212 -0.1612 -0.0015
 2778SOL    HW211219   2.417   1.423   4.507  0.1849  0.1071  0.1542
 2778SOL    HW311220   2.368   1.551   4.444  3.0298  1.4304  0.5538
 2778SOL    MW411221   2.409   1.475   4.438  0.5872  0.0842  0.0920
 2779SOL     OW11222   1.875   1.746   4.166 -0.0461  0.2249 -0.3644
 2779SOL    HW211223   1.950   1.689   4.183 -0.1847  0.0335 -0.4055
 2779SOL    HW311224   1.799   1.688   4.168 -0.2413  0.4899  0.1240
 2779SOL    MW411225   1.875   1.731   4.169 -0.0901  0.2346 -0.3052
 2780SOL     OW11226   2.587   1.714   4.726  0.2207  0.2059  0.3935
 2780SOL    HW211227   2.627   1.688   4.643 -1.0358 -1.0686  0.1742
 2780SOL    HW311228   2.588   1.810   4.724  1.0457  0.1789 -0.6718
 2780SOL    MW411229   2.593   1.723   4.715  0.1636  0.0341  0.2241
 2781SOL     OW11230   2.433   1.896   4.434  0.8241  0.0613 -0.1125
 2781SOL    HW211231   2.365   1.836   4.467  0.7835  0.0795 -0.1627
 2781SOL    HW311232   2.483   1.920   4.512  0.8979 -0.1112 -0.1041
 2781SOL    MW411233   2.431   1.891   4.448  0.8285  0.0410 -0.1178
 2782SOL     OW11234   2.366   2.780   4.247  0.4687 -0.8006  0.5088
 2782SOL    HW211235   2.369   2.698   4.197  1.0219 -0.8728  0.6570
 2782SOL    HW311236   2.273   2.794   4.265  0.1926 -0.3869 -1.1873
 2782SOL    MW411237   2.354   2.771   4.243  0.5052 -0.7555  0.3047
 2783SOL     OW11238   2.448   3.023   4.612 -0.1581 -0.3069  0.3662
 2783SOL    HW211239   2.523   3.083   4.611 -0.3416 -0.0780 -0.0695
 2783SOL    HW311240   2.473   2.953   4.552 -0.3987 -0.0943  0.0145
 2783SOL    MW411241   2.462   3.022   4.604 -0.2141 -0.2484  0.2627
 2784SOL     OW11242   1.294   4.403   4.629 -0.1747  0.3709 -0.0375
 2784SOL    HW211243   1.385   4.407   4.599  0.0605 -0.3162  0.5681
 2784SOL    HW311244   1.270   4.311   4.621 -0.6634  0.4691  0.2636
 2784SOL    MW411245   1.303   4.391   4.624 -0.2083  0.2933  0.0820
 2785SOL     OW11246   2.679   3.947   4.499 -0.0742 -0.4089  0.1059
 2785SOL    HW211247   2.591   3.977   4.524 -0.6856 -1.6678 -0.4793
 2785SOL    HW311248   2.690   3.977   4.409  0.4949  0.5983  0.5068
 2785SOL    MW411249   2.669   3.955   4.490 -0.0796 -0.4420  0.0820
 2786SOL     OW11250   2.553   2.801   4.464 -0.2801  0.4734  0.4875
 2786SOL    HW211251   2.498   2.787   4.387  0.5795 -0.0754 -0.0437
 2786SOL    HW311252   2.631   2.844   4.431  0.2999 -0.1839  0.9716
 2786SOL    MW411253   2.556   2.805   4.450 -0.0901  0.3147  0.4811
 2787SOL     OW11254   3.377   3.939   4.878 -0.3028 -0.2647 -0.0951
 2787SOL    HW211255   3.321   4.002   4.834  1.2037  0.9994 -0.2588
 2787SOL    HW311256   3.330   3.917   4.958 -1.5879 -0.1466 -0.8179
 2787SOL    MW411257   3.364   3.945   4.883 -0.2737 -0.0823 -0.2117
 2788SOL     OW11258   3.055   3.832   4.466  0.1723  0.1116 -0.0134
 2788SOL    HW211259   2.989   3.769   4.497 -0.5239  1.2761  0.9089
 2788SOL    HW311260   3.127   3.823   4.529 -0.1578  0.6319  0.4378
 2788SOL    MW411261   3.056   3.822   4.478  0.0367  0.3340  0.1674
 2789SOL     OW11262   2.433   4.028   4.609 -0.0134  0.3536  0.1830
 2789SOL    HW211263   2.439   4.122   4.590 -0.8223  0.4394  0.3504
 2789SOL    HW311264   2.350   4.001   4.571  0.4499 -0.4065 -0.2978
 2789SOL    MW411265   2.423   4.037   4.601 -0.0591  0.2646  0.1416
 2790SOL     OW11266   2.486   4.320   4.581  0.0389 -0.1932  0.0871
 2790SOL    HW211267   2.551   4.389   4.583 -1.2387  1.0219  1.1839
 2790SOL    HW311268   2.402   4.366   4.570 -0.7505 -1.6156 -0.0251
 2790SOL    MW411269   2.483   4.335   4.580 -0.2339 -0.2198  0.2174
 2791SOL     OW11270   2.943   0.461   4.564 -0.4330 -0.1008 -0.0535
 2791SOL    HW211271   2.962   0.494   4.477  0.2677 -1.8469 -0.5695
 2791SOL    HW311272   3.026   0.467   4.611 -0.0174 -2.1455 -0.4928
 2791SOL    MW411273   2.956   0.467   4.559 -0.2856 -0.6009 -0.1798
 2792SOL     OW11274   2.723   4.524   4.569  0.4097 -0.3163  0.2056
 2792SOL    HW211275   2.760   4.564   4.648  0.3791 -0.1251  0.1215
 2792SOL    HW311276   2.688   4.597   4.519 -0.9587 -0.5924  0.7337
 2792SOL    MW411277   2.724   4.539   4.573  0.2248 -0.3271  0.2646
 2793SOL     OW11278   3.085   0.082   4.564 -0.0352  0.1103  0.2294
 2793SOL    HW211279   3.014   0.125   4.613 -0.4581 -0.1813 -0.1193
 2793SOL    HW311280   3.099  -0.001   4.610 -0.2911 -0.0714 -0.0166
 2793SOL    MW411281   3.077   0.077   4.577 -0.1249  0.0479  0.1507
 2794SOL     OW11282   2.749   1.003   4.430 -0.1500  0.1134 -0.4231
 2794SOL    HW211283   2.844   1.001   4.440 -0.1889 -1.3058 -0.2798
 2794SOL    HW311284   2.733   0.956   4.348 -0.8689 -1.4423  0.5974
 2794SOL    MW411285   2.760   0.997   4.420 -0.2499 -0.2791 -0.2699
 2795SOL     OW11286   3.561   0.215   4.684 -0.6695  0.2987  0.3029
 2795SOL    HW211287   3.593   0.305   4.686 -1.7121  0.6720  0.2664
 2795SOL    HW311288   3.466   0.222   4.695 -0.8329 -0.7530 -0.3012
 2795SOL    MW411289   3.553   0.228   4.686 -0.8285  0.2092  0.2184
 2796SOL     OW11290   2.056   0.480   4.445 -0.2096 -0.0064  0.1012
 2796SOL    HW211291   2.149   0.479   4.469  0.3287  0.6173 -1.8273
 2796SOL    HW311292   2.017   0.543   4.506  0.7104  0.0764  0.6258
 2796SOL    MW411293   2.063   0.489   4.456 -0.0169  0.0868 -0.0839
 2797SOL     OW11294   2.507   1.143   4.353  0.9459 -0.1793 -0.5615
 2797SOL    HW211295   2.453   1.178   4.424  1.5587  0.2443 -0.2984
 2797SOL    HW311296   2.575   1.092   4.398  1.2599 -0.0159 -0.8459
 2797SOL    MW411297   2.509   1.141   4.369  1.0681 -0.1018 -0.5641
 2798SOL     OW11298   2.925   1.341   4.348  0.0416 -0.2543 -0.4247
 2798SOL    HW211299   2.838   1.337   4.307 -0.3067  0.3129  0.2470
 2798SOL    HW311300   2.908   1.374   4.437  0.5492 -3.4455  0.9028
 2798SOL    MW411301   2.911   1.345   4.354  0.0625 -0.6006 -0.1612
 2799SOL     OW11302   2.094   1.577   4.161 -0.4282 -0.1636  0.1105
 2799SOL    HW211303   2.161   1.645   4.160 -0.6837  0.0775 -0.6631
 2799SOL    HW311304   2.068   1.567   4.069 -3.0146  1.2750  0.6401
 2799SOL    MW411305   2.100   1.584   4.149 -0.8030  0.0581  0.0777
 2800SOL     OW11306   2.968   2.152   4.298 -0.5402  0.3221 -0.4455
 2800SOL    HW211307   2.925   2.114   4.375 -0.4451  0.8365 -0.1335
 2800SOL    HW311308   2.963   2.084   4.232 -1.3982  0.1942 -0.2546
 2800SOL    MW411309   2.962   2.138   4.300 -0.6411  0.3731 -0.3791
 2801SOL     OW11310   2.678   1.606   4.474 -0.2025  0.4984  0.1055
 2801SOL    HW211311   2.754   1.552   4.498  0.7464 -0.1630 -3.9423
 2801SOL    HW311312   2.606   1.543   4.466 -0.1997  0.5265 -0.1276
 2801SOL    MW411313   2.679   1.590   4.476 -0.0772  0.4148 -0.4592
 2802SOL     OW11314   3.414   2.202   4.560  0.4110 -0.1650  0.2477
 2802SOL    HW211315   3.386   2.142   4.629 -0.5767 -0.3605 -0.3063
 2802SOL    HW311316   3.333   2.238   4.525  0.9237  0.2997 -0.4845
 2802SOL    MW411317   3.400   2.199   4.564  0.3483 -0.1295  0.0777
 2803SOL     OW11318   2.916   3.055   4.590  0.0414  0.3162  0.2734
 2803SOL    HW211319   2.988   3.113   4.565 -0.8464  0.8589 -1.1108
 2803SOL    HW311320   2.958   2.971   4.609  1.2767  1.2543  1.7415
 2803SOL    MW411321   2.931   3.052   4.589  0.0873  0.5114  0.2842
 2804SOL     OW11322   2.666   3.200   4.505  0.0683 -0.5374  0.0026
 2804SOL    HW211323   2.745   3.160   4.542  1.6471  1.7867 -0.7510
 2804SOL    HW311324   2.674   3.187   4.411 -0.2407  0.0469 -0.1071
 2804SOL    MW411325   2.677   3.193   4.498  0.2358 -0.1533 -0.1111
 2805SOL     OW11326   2.892   2.774   4.138  0.1712 -0.3881  0.3773
 2805SOL    HW211327   2.860   2.791   4.227  0.0784 -1.9809  0.6570
 2805SOL    HW311328   2.983   2.748   4.149 -0.1003 -1.4704  0.0842
 2805SOL    MW411329   2.900   2.773   4.151  0.1230 -0.7410  0.3753
 2806SOL     OW11330   2.813   3.696   4.523 -0.1449  0.1285 -0.2191
 2806SOL    HW211331   2.757   3.773   4.528  0.1680  0.5458 -2.5785
 2806SOL    HW311332   2.752   3.622   4.530 -0.6219  0.5733  0.4388
 2806SOL    MW411333   2.798   3.696   4.524 -0.1664  0.2422 -0.4439
 2807SOL     OW11334   3.289   3.823   4.626  0.5101 -0.7103 -0.4295
 2807SOL    HW211335   3.331   3.742   4.597  0.7402 -0.8164  0.1742
 2807SOL    HW311336   3.319   3.833   4.717  0.4848  0.0538 -0.5071
 2807SOL    MW411337   3.299   3.813   4.634  0.5372 -0.6235 -0.3600
 2808SOL     OW11338   3.814   3.820   4.681 -0.5956  0.2767 -0.1614
 2808SOL    HW211339   3.888   3.779   4.726 -1.3877 -0.2862  0.6551
 2808SOL    HW311340   3.773   3.748   4.632 -0.7971  0.5090 -0.3322
 2808SOL    MW411341   3.818   3.805   4.680 -0.7267  0.2329 -0.0763
 2809SOL     OW11342   2.621   3.480   4.570  0.1101  0.1873 -0.3602
 2809SOL    HW211343   2.527   3.491   4.553 -0.3043  0.5837  2.0806
 2809SOL    HW311344   2.634   3.385   4.570 -0.2971  0.1269 -0.5879
 2809SOL    MW411345   2.610   3.469   4.568  0.0017  0.2315 -0.0682
 2810SOL     OW11346   2.928   4.058   4.591 -0.5221  0.4907 -0.0467
 2810SOL    HW211347   2.840   4.031   4.563 -0.6968  1.1691 -0.1809
 2810SOL    HW311348   2.986   3.990   4.559 -0.7892  0.9708 -1.5822
 2810SOL    MW411349   2.924   4.046   4.583 -0.5805  0.6437 -0.2670
 2811SOL     OW11350   2.945   4.312   4.488  0.3405 -0.1836  0.0368
 2811SOL    HW211351   2.940   4.225   4.527 -0.2649 -0.7869 -1.3511
 2811SOL    HW311352   2.878   4.363   4.533 -0.8301 -1.0660 -0.6624
 2811SOL    MW411353   2.936   4.307   4.499  0.1063 -0.3796 -0.2394
 2812SOL     OW11354   3.203   0.539   4.678 -0.1081 -0.0901  0.2937
 2812SOL    HW211355   3.289   0.540   4.636 -0.3528  0.8692 -0.1947
 2812SOL    HW311356   3.190   0.629   4.708  0.0843 -0.7534  2.4701
 2812SOL    MW411357   3.213   0.551   4.676 -0.1149 -0.0510  0.5164
 2813SOL     OW11358   2.347   0.466   4.526  0.1806  0.0484  0.2769
 2813SOL    HW211359   2.432   0.503   4.503  0.2936  0.0824  0.7396
 2813SOL    HW311360   2.330   0.498   4.615 -0.3786  0.1532  0.1336
 2813SOL    MW411361   2.356   0.475   4.535  0.1218  0.0667  0.3190
 2814SOL     OW11362   2.205   1.351   4.288  0.5818  0.4088 -0.1381
 2814SOL    HW211363   2.283   1.374   4.338  0.2220  0.2221  0.5191
 2814SOL    HW311364   2.177   1.433   4.247  0.3293  0.7650  0.7468
 2814SOL    MW411365   2.212   1.365   4.289  0.5012  0.4312  0.0653
 2815SOL     OW11366   2.819   0.206   4.630  0.3813 -0.0846 -0.7142
 2815SOL    HW211367   2.751   0.192   4.564  0.2273 -0.3916 -0.4914
 2815SOL    HW311368   2.850   0.296   4.614 -1.5282  0.8138  0.5243
 2815SOL    MW411369   2.814   0.216   4.619  0.1090 -0.0066 -0.5212
 2816SOL     OW11370   3.084   0.813   4.726 -0.1127 -0.1284 -0.2344
 2816SOL    HW211371   3.122   0.873   4.790 -0.0556  0.2558 -0.6206
 2816SOL    HW311372   3.001   0.786   4.764  0.1046 -0.2171  0.1824
 2816SOL    MW411373   3.078   0.817   4.739 -0.0765 -0.0893 -0.2303
 2817SOL     OW11374   3.429   1.207   4.557  0.0847  0.4517 -0.5561
 2817SOL    HW211375   3.338   1.199   4.529  0.5156  0.5544 -2.0137
 2817SOL    HW311376   3.461   1.117   4.559 -0.2497  0.3448  0.7041
 2817SOL    MW411377   3.422   1.194   4.553  0.0978  0.4510 -0.5817
 2818SOL     OW11378   2.849   1.803   4.374 -0.6706 -0.0418 -0.0757
 2818SOL    HW211379   2.821   1.886   4.411  1.7994  0.6339  0.4288
 2818SOL    HW311380   2.777   1.743   4.392 -1.5046  1.4158  1.6628
 2818SOL    MW411381   2.836   1.806   4.381 -0.4549  0.2397  0.2203
 2819SOL     OW11382   3.822   1.034   4.594 -0.1189  0.3780 -0.4305
 2819SOL    HW211383   3.885   0.987   4.539 -1.1080 -0.0480 -1.2230
 2819SOL    HW311384   3.812   1.119   4.551  0.4063  0.7049  0.0744
 2819SOL    MW411385   3.829   1.039   4.581 -0.1802  0.3649 -0.4683
 2820SOL     OW11386   3.467   1.481   4.434  0.0921  0.0458 -0.2681
 2820SOL    HW211387   3.387   1.518   4.471 -0.8853  0.0596 -2.3239
 2820SOL    HW311388   3.470   1.392   4.468 -0.2094  0.3947  0.6866
 2820SOL    MW411389   3.457   1.474   4.444 -0.0765  0.0936 -0.4134
 2821SOL     OW11390   3.240   1.553   4.573  0.4118  0.2051  0.1401
 2821SOL    HW211391   3.189   1.586   4.499  0.0694  1.5047  0.9380
 2821SOL    HW311392   3.189   1.480   4.607  0.8795 -0.8069 -1.2792
 2821SOL    MW411393   3.227   1.547   4.568  0.4284  0.2432  0.0582
 2822SOL     OW11394   3.318   1.889   4.439 -0.4282 -0.4156 -0.3942
 2822SOL    HW211395   3.314   1.931   4.353 -1.0904  0.3719  0.0107
 2822SOL    HW311396   3.250   1.933   4.490  0.9808  0.1994  1.0017
 2822SOL    MW411397   3.309   1.900   4.435 -0.3297 -0.2307 -0.1559
 2823SOL     OW11398   3.813   1.825   4.619 -0.4047 -0.0664  0.3429
 2823SOL    HW211399   3.753   1.845   4.547  0.6361  0.8471 -0.2897
 2823SOL    HW311400   3.758   1.783   4.685 -1.3275 -1.1561 -1.0893
 2823SOL    MW411401   3.798   1.822   4.618 -0.3891 -0.0896  0.0706
 2824SOL     OW11402   3.566   2.397   4.703 -0.0290 -0.0933  0.0770
 2824SOL    HW211403   3.525   2.330   4.649  0.2406 -0.4934  0.3695
 2824SOL    HW311404   3.508   2.473   4.694 -0.3833 -0.3916 -0.1815
 2824SOL    MW411405   3.553   2.398   4.695 -0.0401 -0.1855  0.0815
 2825SOL     OW11406   3.564   2.777   4.669 -0.2360  0.2913 -0.3247
 2825SOL    HW211407   3.532   2.859   4.707  1.0534  1.0606 -0.8692
 2825SOL    HW311408   3.485   2.727   4.650 -1.0354  1.3879  0.0575
 2825SOL    MW411409   3.549   2.782   4.672 -0.1714  0.5376 -0.3462
 2826SOL     OW11410   3.166   3.162   4.518 -0.2621 -0.3426  0.4345
 2826SOL    HW211411   3.210   3.078   4.529  2.2768  0.7837 -0.4746
 2826SOL    HW311412   3.145   3.166   4.425  0.0110  0.1850  0.3913
 2826SOL    MW411413   3.169   3.152   4.507  0.1090 -0.1245  0.3085
 2827SOL     OW11414   3.264   2.915   4.567  0.6320 -0.5104 -0.0915
 2827SOL    HW211415   3.305   2.877   4.489  1.5556 -1.0510  0.6402
 2827SOL    HW311416   3.338   2.945   4.620  0.0449 -0.8214  0.9081
 2827SOL    MW411417   3.280   2.914   4.564  0.6764 -0.6227  0.1373
 2828SOL     OW11418   3.723   2.442   4.488 -0.2631  0.2662  0.3814
 2828SOL    HW211419   3.669   2.437   4.567 -0.3450  0.8601  0.3638
 2828SOL    HW311420   3.784   2.368   4.495 -0.7329 -0.0930  0.6572
 2828SOL    MW411421   3.724   2.432   4.499 -0.3359  0.2973  0.4153
 2829SOL     OW11422   3.629   3.208   4.541  0.2005  0.0085  0.2083
 2829SOL    HW211423   3.719   3.229   4.568 -0.0947  0.7216  0.6753
 2829SOL    HW311424   3.634   3.198   4.446  1.0643 -1.4951  0.3935
 2829SOL    MW411425   3.642   3.210   4.532  0.2754 -0.0956  0.2937
 2830SOL     OW11426   3.481   3.999   4.505 -0.2433 -0.2474 -0.1253
 2830SOL    HW211427   3.532   4.005   4.586  0.7256 -0.2793 -0.7270
 2830SOL    HW311428   3.402   3.950   4.530 -0.1097  0.0333  0.8709
 2830SOL    MW411429   3.477   3.993   4.519 -0.0978 -0.2146 -0.0734
 2831SOL     OW11430   3.156   4.079   4.767 -0.2451  0.4675  0.4802
 2831SOL    HW211431   3.162   4.170   4.738 -0.6273  0.4344  0.2932
 2831SOL    HW311432   3.062   4.059   4.764 -0.1559  0.0442  0.4409
 2831SOL    MW411433   3.144   4.088   4.762 -0.2840  0.4077  0.4506
 2832SOL     OW11434   3.178   4.336   4.635  0.2802  0.2535  0.3009
 2832SOL    HW211435   3.257   4.313   4.585  0.6324  0.7014  0.6425
 2832SOL    HW311436   3.106   4.325   4.573  0.7083  0.7639 -0.3010
 2832SOL    MW411437   3.179   4.332   4.620  0.3831  0.3796  0.2670
 2833SOL     OW11438   3.411   4.273   4.504 -0.2035  0.2790  0.1233
 2833SOL    HW211439   3.443   4.183   4.496 -0.2791  0.3306 -0.8383
 2833SOL    HW311440   3.485   4.322   4.538  0.0235 -0.0427  0.0944
 2833SOL    MW411441   3.425   4.268   4.507 -0.1836  0.2437 -0.0076
 2834SOL     OW11442   3.614   4.021   4.785  0.0613 -0.5323 -0.1283
 2834SOL    HW211443   3.668   3.943   4.772 -0.6458 -1.3167  1.4663
 2834SOL    HW311444   3.536   3.989   4.830 -0.4963  1.0153  0.0509
 2834SOL    MW411445   3.611   4.006   4.789 -0.1054 -0.4320  0.1063
 2835SOL     OW11446   3.115   4.577   4.779  0.1990 -0.1617  0.4558
 2835SOL    HW211447   3.135   4.487   4.754 -0.8012 -0.1839 -0.3349
 2835SOL    HW311448   3.196   4.611   4.815  0.6677 -1.2914  0.4805
 2835SOL    MW411449   3.128   4.570   4.780  0.1290 -0.3138  0.3548
 2836SOL     OW11450   3.295   1.217   4.808  0.6050  0.1199  0.0959
 2836SOL    HW211451   3.357   1.214   4.735 -0.0620 -0.1503 -0.4570
 2836SOL    HW311452   3.222   1.270   4.776 -0.1571 -0.8505  0.2025
 2836SOL    MW411453   3.294   1.224   4.794  0.4165 -0.0437  0.0372
 2837SOL     OW11454   3.159   1.209   4.470  0.6212  0.2943  0.3963
 2837SOL    HW211455   3.128   1.241   4.555 -2.2073 -1.0584 -0.0569
 2837SOL    HW311456   3.105   1.254   4.406  0.6840 -0.8943 -0.5153
 2837SOL    MW411457   3.148   1.219   4.473  0.2563 -0.0409  0.2165
 2838SOL     OW11458   4.103   1.311   4.579  0.3087 -0.0519  0.3477
 2838SOL    HW211459   4.141   1.229   4.547 -0.6114 -0.6646  0.7822
 2838SOL    HW311460   4.020   1.320   4.531  0.3433  0.5480  0.4010
 2838SOL    MW411461   4.097   1.301   4.569  0.1917 -0.0535  0.4125
 2839SOL     OW11462   3.579   0.873   4.566 -0.0695 -0.2296 -0.7227
 2839SOL    HW211463   3.656   0.923   4.594 -1.9477  1.7503  1.1056
 2839SOL    HW311464   3.576   0.884   4.471  1.1879  0.7033 -0.6600
 2839SOL    MW411465   3.589   0.881   4.557 -0.1516  0.1547 -0.4735
 2840SOL     OW11466   4.052   0.891   4.474  0.2502 -0.5232 -0.0181
 2840SOL    HW211467   4.127   0.834   4.487  0.3605 -0.7015 -1.3525
 2840SOL    HW311468   4.037   0.889   4.379 -2.1553 -1.4048  0.3552
 2840SOL    MW411469   4.060   0.883   4.463 -0.0525 -0.6631 -0.1440
 2841SOL     OW11470   0.031   0.733   4.487 -0.0900  0.3922  0.9788
 2841SOL    HW211471   0.021   0.809   4.543  1.0424  1.2111  0.0975
 2841SOL    HW311472   0.030   0.768   4.398  1.1479 -0.5187  0.5864
 2841SOL    MW411473   0.029   0.747   4.482  0.2227  0.3800  0.8106
 2842SOL     OW11474   3.712   1.494   4.547 -0.3203 -0.0129 -0.5264
 2842SOL    HW211475   3.713   1.541   4.630 -0.8520 -0.2040 -0.4111
 2842SOL    HW311476   3.620   1.495   4.519 -0.2671 -0.6060 -0.7351
 2842SOL    MW411477   3.700   1.501   4.554 -0.3836 -0.1165 -0.5383
 2843SOL     OW11478   3.948   1.635   4.483  0.0963  0.3028  0.5171
 2843SOL    HW211479   3.863   1.596   4.499  0.0326  0.2809  0.1416
 2843SOL    HW311480   3.943   1.721   4.524  0.2026 -0.0466  1.2545
 2843SOL    MW411481   3.936   1.641   4.490  0.1020  0.2538  0.5651
 2844SOL     OW11482   3.583   1.980   4.494 -0.2174  0.1459  0.1489
 2844SOL    HW211483   3.564   2.074   4.498 -0.1346  0.1814 -0.2825
 2844SOL    HW311484   3.501   1.941   4.462  0.0202  0.1657 -0.4952
 2844SOL    MW411485   3.569   1.988   4.490 -0.1750  0.1532  0.0067
 2845SOL     OW11486   3.907   2.059   4.718 -0.0471 -0.7604 -0.0694
 2845SOL    HW211487   3.846   2.081   4.789  0.9581 -0.0719  0.5852
 2845SOL    HW311488   3.875   1.975   4.685  0.7467 -2.1712  2.6299
 2845SOL    MW411489   3.894   2.051   4.723  0.1903 -0.8559  0.3734
 2846SOL     OW11490   4.363   1.754   4.708 -0.1184 -0.0904 -0.0562
 2846SOL    HW211491   4.310   1.677   4.687 -1.0895  0.2302  1.1572
 2846SOL    HW311492   4.300   1.822   4.731  0.7737  0.6060  0.4191
 2846SOL    MW411493   4.348   1.753   4.709 -0.1283  0.0439  0.1664
 2847SOL     OW11494   3.931   2.243   4.510  0.1019 -0.4453  0.2352
 2847SOL    HW211495   3.942   2.209   4.599 -3.3425  1.5120  1.5318
 2847SOL    HW311496   3.899   2.168   4.460  0.2297 -1.0979  1.1141
 2847SOL    MW411497   3.928   2.228   4.516 -0.3359 -0.2730  0.5221
 2848SOL     OW11498   3.757   2.722   4.497 -0.4368  0.3214  0.6951
 2848SOL    HW211499   3.750   2.627   4.494  0.1485  0.3217 -1.8813
 2848SOL    HW311500   3.688   2.750   4.557 -1.3710 -1.6525  0.5489
 2848SOL    MW411501   3.747   2.713   4.504 -0.4828  0.0613  0.3357
 2849SOL     OW11502   3.474   3.029   4.731 -0.1717 -0.3028  0.5068
 2849SOL    HW211503   3.445   3.096   4.793  1.3921  0.3742  0.5344
 2849SOL    HW311504   3.537   3.074   4.675  0.1849 -1.5160 -0.0818
 2849SOL    MW411505   3.478   3.044   4.732  0.0815 -0.3734  0.4330
 2850SOL     OW11506   4.055   2.703   4.549 -0.6577  0.1426 -0.4515
 2850SOL    HW211507   3.961   2.719   4.554 -0.5384  0.6614  0.1627
 2850SOL    HW311508   4.095   2.789   4.559 -0.1109 -0.0992 -0.5279
 2850SOL    MW411509   4.048   2.716   4.551 -0.5693  0.1793 -0.3805
 2851SOL     OW11510   3.380   3.331   4.617 -0.3350 -0.0537 -0.0557
 2851SOL    HW211511   3.316   3.279   4.568 -0.5102 -2.0356  2.1751
 2851SOL    HW311512   3.465   3.293   4.593 -0.0739  1.5181 -1.7590
 2851SOL    MW411513   3.383   3.319   4.607 -0.3238 -0.1078  0.0143
 2852SOL     OW11514   3.875   3.387   4.581 -0.2547 -0.0439 -0.1253
 2852SOL    HW211515   3.915   3.404   4.666 -2.9275 -0.5086  1.2916
 2852SOL    HW311516   3.938   3.332   4.535  1.0247 -0.1834  1.7355
 2852SOL    MW411517   3.889   3.382   4.586 -0.4387 -0.1235  0.3071
 2853SOL     OW11518   3.417   3.592   4.523  0.1522 -0.1297 -0.0657
 2853SOL    HW211519   3.410   3.510   4.571  0.6016 -1.1673 -1.7082
 2853SOL    HW311520   3.510   3.615   4.529  0.3262 -0.5751 -0.8923
 2853SOL    MW411521   3.428   3.584   4.530  0.2346 -0.3254 -0.3910
 2854SOL     OW11522   3.694   3.618   4.538  0.0665 -0.2500  0.7693
 2854SOL    HW211523   3.731   3.623   4.450 -0.4087  1.4701  0.6585
 2854SOL    HW311524   3.744   3.548   4.581  0.0989 -1.3097 -0.9470
 2854SOL    MW411525   3.706   3.609   4.532  0.0081 -0.1626  0.5288
 2855SOL     OW11526   0.290   3.117   4.590 -0.1440 -0.0356  0.3865
 2855SOL    HW211527   0.206   3.161   4.604 -0.6869 -0.6700 -0.8240
 2855SOL    HW311528   0.272   3.025   4.608  0.6611  0.0183  1.5530
 2855SOL    MW411529   0.276   3.111   4.595 -0.1094 -0.1121  0.3805
 2856SOL     OW11530   4.023   3.926   4.541 -0.4915  0.3423 -0.0594
 2856SOL    HW211531   4.020   4.011   4.585 -1.1745 -0.4786  1.5151
 2856SOL    HW311532   3.947   3.878   4.574  0.0560 -1.0033 -0.6739
 2856SOL    MW411533   4.013   3.931   4.551 -0.5097  0.0565  0.0672
 2857SOL     OW11534   3.675   4.394   4.535  0.8165  0.0360  1.0750
 2857SOL    HW211535   3.680   4.373   4.442  1.0680  0.8159  0.9034
 2857SOL    HW311536   3.689   4.489   4.538 -2.0946  0.4729  1.6613
 2857SOL    MW411537   3.678   4.404   4.523  0.4654  0.1960  1.1296
 2858SOL     OW11538   2.833   4.646   4.809  0.3737  0.2316 -0.1659
 2858SOL    HW211539   2.925   4.625   4.799  0.4526  0.5446 -0.0968
 2858SOL    HW311540   2.820   4.724   4.756  0.2319  0.4091  0.1319
 2858SOL    MW411541   2.843   4.653   4.800  0.3655  0.2956 -0.1178
 2859SOL     OW11542   3.160   1.006   4.910  0.0481 -0.1328 -0.6975
 2859SOL    HW211543   3.210   1.084   4.888  0.5520 -0.3264 -0.2632
 2859SOL    HW311544   3.080   1.039   4.951  0.5611  0.1499  0.1015
 2859SOL    MW411545   3.156   1.021   4.913  0.1822 -0.1211 -0.5350
 2860SOL     OW11546   3.459   0.603   4.568  0.1814 -0.3567 -0.0138
 2860SOL    HW211547   3.478   0.697   4.576 -0.0893 -0.3003 -0.0402
 2860SOL    HW311548   3.454   0.588   4.474 -1.6685 -0.0156  0.0070
 2860SOL    MW411549   3.461   0.614   4.557 -0.0982 -0.3043 -0.0153
 2861SOL     OW11550   0.304   0.593   4.434  0.2455  0.3581 -0.1739
 2861SOL    HW211551   0.227   0.614   4.488  0.6202  0.8025  0.1973
 2861SOL    HW311552   0.268   0.571   4.348 -0.3607 -0.4242  0.2776
 2861SOL    MW411553   0.289   0.593   4.430  0.2150  0.3135 -0.0658
 2862SOL     OW11554   0.493   0.790   4.447  0.1215 -0.5601  0.7616
 2862SOL    HW211555   0.495   0.829   4.359 -1.0362  1.8810  1.7728
 2862SOL    HW311556   0.421   0.726   4.443 -0.4441  0.1062  0.1663
 2862SOL    MW411557   0.483   0.787   4.435 -0.1059 -0.1501  0.8168
 2863SOL     OW11558   3.934   0.398   4.532  0.1774 -0.3240  0.3353
 2863SOL    HW211559   3.937   0.305   4.514 -0.0508 -0.3780  0.5679
 2863SOL    HW311560   3.866   0.407   4.599  0.5055 -0.0445  0.6313
 2863SOL    MW411561   3.926   0.387   4.539  0.1903 -0.2942  0.4048
 2864SOL     OW11562   3.851   1.265   4.469 -0.0769 -0.3056  0.4873
 2864SOL    HW211563   3.835   1.251   4.375  0.2846 -0.0425  0.3844
 2864SOL    HW311564   3.789   1.334   4.493  1.1948  1.0386 -0.0141
 2864SOL    MW411565   3.841   1.272   4.460  0.1385 -0.0937  0.4082
 2865SOL     OW11566   4.473   1.021   4.927  0.1173 -0.1183  0.4429
 2865SOL    HW211567   4.396   0.971   4.897 -0.0453  0.8872 -0.8884
 2865SOL    HW311568   4.437   1.089   4.983  0.1628 -0.4220  0.8409
 2865SOL    MW411569   4.458   1.023   4.930  0.1020 -0.0256  0.3200
 2866SOL     OW11570   0.046   1.555   4.518  0.1568  0.1816 -0.0867
 2866SOL    HW211571  -0.028   1.558   4.579  1.1666 -1.0089  1.2438
 2866SOL    HW311572   0.012   1.592   4.437 -1.7674  0.0575  0.6355
 2866SOL    MW411573   0.032   1.560   4.516  0.0361  0.0082  0.1841
 2867SOL     OW11574   4.214   1.568   4.579  0.0360  0.4472 -0.0709
 2867SOL    HW211575   4.193   1.475   4.579  0.7724  0.2606  1.9055
 2867SOL    HW311576   4.130   1.612   4.564 -0.2355 -0.5174 -1.5155
 2867SOL    MW411577   4.200   1.561   4.577  0.0973  0.2955 -0.0005
 2868SOL     OW11578   4.310   2.076   4.290 -0.0546 -0.6551 -0.1616
 2868SOL    HW211579   4.281   2.006   4.348  0.7730 -1.2067 -0.4082
 2868SOL    HW311580   4.363   2.134   4.345 -0.9353 -0.0965  0.0975
 2868SOL    MW411581   4.313   2.074   4.305 -0.0620 -0.6540 -0.1602
 2869SOL     OW11582   0.048   2.074   4.470 -0.5187 -0.0797  0.2974
 2869SOL    HW211583   0.142   2.091   4.460 -0.4635  0.6252  1.8292
 2869SOL    HW311584   0.043   1.980   4.487 -0.1520 -0.2572 -0.5707
 2869SOL    MW411585   0.060   2.064   4.471 -0.4630 -0.0103  0.3848
 2870SOL     OW11586   4.212   1.846   4.432 -0.1831 -0.1057 -0.4560
 2870SOL    HW211587   4.226   1.894   4.513 -0.1136  0.4274 -0.7782
 2870SOL    HW311588   4.258   1.764   4.444  1.0732  0.5758 -0.5120
 2870SOL    MW411589   4.220   1.842   4.444 -0.0076  0.0545 -0.5064
 2871SOL     OW11590   3.616   2.146   4.839  0.1604 -0.1089 -0.1553
 2871SOL    HW211591   3.623   2.228   4.791  0.5547  0.3182  0.6211
 2871SOL    HW311592   3.522   2.132   4.850  0.0859  0.0744 -0.5597
 2871SOL    MW411593   3.605   2.155   4.834  0.2024 -0.0284 -0.1063
 2872SOL     OW11594   4.346   2.205   4.616 -0.2972  0.3156 -0.4798
 2872SOL    HW211595   4.374   2.296   4.630 -1.3147  0.5248  0.2584
 2872SOL    HW311596   4.424   2.161   4.581  0.7128  1.0639  0.7640
 2872SOL    MW411597   4.360   2.211   4.613 -0.2975  0.4418 -0.2179
 2873SOL     OW11598   4.229   2.927   4.528  0.1746  0.2117 -0.2053
 2873SOL    HW211599   4.291   2.865   4.567 -0.3768 -0.4774 -0.4225
 2873SOL    HW311600   4.238   2.914   4.434 -0.4927 -0.0765 -0.2295
 2873SOL    MW411601   4.238   2.918   4.521  0.0134  0.0827 -0.2365
 2874SOL     OW11602   4.107   3.178   4.545  0.1258  0.3990 -0.1324
 2874SOL    HW211603   4.093   3.196   4.452 -1.4027 -0.9257 -0.1830
 2874SOL    HW311604   4.166   3.103   4.546 -0.2374  0.1115 -0.0508
 2874SOL    MW411605   4.113   3.170   4.533 -0.1235  0.1862 -0.1283
 2875SOL     OW11606   0.066   3.530   4.523  0.2904  0.3373 -0.7612
 2875SOL    HW211607   0.112   3.556   4.443 -0.7730 -0.9161 -1.8228
 2875SOL    HW311608  -0.016   3.580   4.521 -0.0977 -0.2893 -0.8929
 2875SOL    MW411609   0.061   3.540   4.512  0.0989  0.0892 -0.9189
 2876SOL     OW11610   4.083   4.166   4.714  0.1545 -0.3067 -0.5904
 2876SOL    HW211611   4.104   4.173   4.808  0.1267  1.5049 -0.6972
 2876SOL    HW311612   3.988   4.171   4.711  0.0614 -1.8789 -0.6160
 2876SOL    MW411613   4.073   4.168   4.726  0.1383 -0.2756 -0.6075
 2877SOL     OW11614   3.718   0.010   4.546 -0.1502  0.2954  0.2127
 2877SOL    HW211615   3.682   0.070   4.611 -0.5274  0.3355 -0.0303
 2877SOL    HW311616   3.688   0.044   4.462 -0.9954 -0.6573  0.1153
 2877SOL    MW411617   3.710   0.022   4.543 -0.3114  0.1750  0.1674
 2878SOL     OW11618   4.052   3.466   4.781  0.2221 -0.2943  0.7640
 2878SOL    HW211619   4.135   3.424   4.759  0.4887  0.2329  0.7496
 2878SOL    HW311620   4.026   3.426   4.864  1.0282  0.2850  1.3090
 2878SOL    MW411621   4.060   3.455   4.789  0.3638 -0.1483  0.8340
 2879SOL     OW11622   3.289   0.239   4.659  0.3782 -0.0091  0.0528
 2879SOL    HW211623   3.229   0.198   4.597 -0.5145 -0.1567  0.9993
 2879SOL    HW311624   3.249   0.324   4.679 -0.4449 -0.8379  2.0290
 2879SOL    MW411625   3.276   0.245   4.653  0.1519 -0.1379  0.4387
 2880SOL     OW11626   4.252   4.412   4.301  0.4311  0.2512  0.3993
 2880SOL    HW211627   4.332   4.362   4.284  0.9335  0.5353  1.8069
 2880SOL    HW311628   4.241   4.408   4.396 -0.7566  0.9438  0.3061
 2880SOL    MW411629   4.261   4.405   4.312  0.3405  0.3805  0.5722
 2881NA      NA11630   1.785   0.909   0.481  0.1268  0.0805  0.1503
   4.49070   4.66690  10.00000
