Great Red Owns Many ACres of Sand 
  149
    1U      O5'    1   1.481   2.153   5.716
    1U      H5T    2   1.458   2.214   5.640
    1U      C5'    3   1.612   2.184   5.765
    1U     H5'1    4   1.612   2.279   5.795
    1U     H5'2    5   1.676   2.173   5.689
    1U      C4'    6   1.650   2.093   5.880
    1U      H4'    7   1.747   2.074   5.868
    1U      O4'    8   1.620   2.162   6.005
    1U      C1'    9   1.518   2.093   6.075
    1U      H1'   10   1.556   2.043   6.152
    1U       N1   11   1.426   2.192   6.133
    1U       C6   12   1.383   2.300   6.059
    1U       H6   13   1.415   2.310   5.965
    1U       C5   14   1.300   2.391   6.109
    1U       H5   15   1.271   2.468   6.052
    1U       C4   16   1.252   2.379   6.244
    1U       O4   17   1.176   2.457   6.301
    1U       N3   18   1.299   2.269   6.311
    1U       H3   19   1.267   2.257   6.405
    1U       C2   20   1.385   2.173   6.263
    1U       O2   21   1.420   2.079   6.331
    1U      C3'   22   1.573   1.962   5.888
    1U      H3'   23   1.549   1.921   5.800
    1U      C2'   24   1.453   1.998   5.975
    1U     H2'1   25   1.372   2.030   5.925
    1U      O2'   26   1.403   1.885   6.045
    1U     HO'2   27   1.360   1.822   5.980
    1U      O3'   28   1.653   1.858   5.945
    2U        P   29   1.610   1.704   5.928
    2U      O1P   30   1.483   1.700   5.851
    2U      O2P   31   1.618   1.639   6.060
    2U      O5'   32   1.725   1.643   5.835
    2U      C5'   33   1.858   1.626   5.884
    2U     H5'1   34   1.858   1.548   5.947
    2U     H5'2   35   1.884   1.709   5.933
    2U      C4'   36   1.953   1.601   5.770
    2U      H4'   37   2.043   1.592   5.812
    2U      O4'   38   1.910   1.481   5.699
    2U      C1'   39   1.866   1.515   5.569
    2U      H1'   40   1.933   1.485   5.501
    2U       N1   41   1.742   1.441   5.541
    2U       C6   42   1.643   1.429   5.636
    2U       H6   43   1.657   1.472   5.725
    2U       C5   44   1.529   1.362   5.613
    2U       H5   45   1.459   1.356   5.684
    2U       C4   46   1.508   1.299   5.487
    2U       O4   47   1.408   1.234   5.454
    2U       N3   48   1.611   1.314   5.397
    2U       H3   49   1.599   1.271   5.308
    2U       C2   50   1.728   1.382   5.417
    2U       O2   51   1.814   1.390   5.330
    2U      C3'   52   1.957   1.710   5.664
    2U      H3'   53   1.947   1.803   5.699
    2U      C2'   54   1.849   1.667   5.566
    2U     H2'1   55   1.758   1.705   5.584
    2U      O2'   56   1.876   1.713   5.435
    2U     HO'2   57   1.865   1.812   5.432
    2U      O3'   58   2.085   1.719   5.602
    3U        P   59   2.198   1.815   5.664
    3U      O1P   60   2.318   1.805   5.578
    3U      O2P   61   2.210   1.786   5.810
    3U      O5'   62   2.137   1.961   5.648
    3U      C5'   63   2.076   2.002   5.526
    3U     H5'1   64   1.990   1.953   5.517
    3U     H5'2   65   2.137   1.977   5.451
    3U      C4'   66   2.052   2.152   5.527
    3U      H4'   67   2.042   2.178   5.431
    3U      O4'   68   1.933   2.180   5.605
    3U      C1'   69   1.951   2.300   5.677
    3U      H1'   70   1.877   2.363   5.654
    3U       N1   71   1.939   2.271   5.821
    3U       C6   72   2.001   2.162   5.877
    3U       H6   73   2.055   2.102   5.818
    3U       C5   74   1.992   2.133   6.007
    3U       H5   75   2.040   2.053   6.044
    3U       C4   76   1.914   2.216   6.093
    3U       O4   77   1.899   2.201   6.214
    3U       N3   78   1.854   2.323   6.031
    3U       H3   79   1.799   2.383   6.089
    3U       C2   80   1.862   2.356   5.898
    3U       O2   81   1.805   2.453   5.852
    3U      C3'   82   2.162   2.235   5.592
    3U      H3'   83   2.214   2.189   5.664
    3U      C2'   84   2.087   2.359   5.638
    3U     H2'1   85   2.135   2.414   5.706
    3U      O2'   86   2.067   2.449   5.530
    3U     HO'2   87   2.155   2.489   5.503
    3U      O3'   88   2.266   2.265   5.500
    4U        P   89   2.416   2.216   5.531
    4U      O1P   90   2.418   2.068   5.520
    4U      O2P   91   2.461   2.281   5.657
    4U      O5'   92   2.502   2.275   5.411
    4U      C5'   93   2.489   2.412   5.371
    4U     H5'1   94   2.510   2.470   5.450
    4U     H5'2   95   2.395   2.427   5.342
    4U      C4'   96   2.584   2.442   5.258
    4U      H4'   97   2.551   2.528   5.218
    4U      O4'   98   2.719   2.453   5.312
    4U      C1'   99   2.801   2.352   5.256
    4U      H1'  100   2.862   2.390   5.186
    4U       N1  101   2.889   2.300   5.361
    4U       C6  102   2.839   2.262   5.484
    4U       H6  103   2.741   2.271   5.501
    4U       C5  104   2.918   2.214   5.581
    4U       H5  105   2.878   2.187   5.669
    4U       C4  106   3.058   2.201   5.560
    4U       O4  107   3.140   2.158   5.641
    4U       N3  108   3.101   2.241   5.435
    4U       H3  109   3.199   2.233   5.417
    4U       C2  110   3.024   2.291   5.333
    4U       O2  111   3.072   2.324   5.227
    4U      C3'  112   2.592   2.336   5.149
    4U      H3'  113   2.507   2.287   5.131
    4U      C2'  114   2.707   2.248   5.196
    4U     H2'1  115   2.680   2.171   5.253
    4U      O2'  116   2.773   2.185   5.087
    4U     HO'2  117   2.713   2.116   5.047
    4U      O3'  118   2.617   2.394   5.021
    5U        P  119   2.537   2.342   4.892
    5U      O1P  120   2.394   2.332   4.928
    5U      O2P  121   2.608   2.222   4.839
    5U      O5'  122   2.553   2.460   4.786
    5U      C5'  123   2.525   2.595   4.821
    5U     H5'1  124   2.582   2.619   4.900
    5U     H5'2  125   2.429   2.601   4.847
    5U      C4'  126   2.554   2.687   4.705
    5U      H4'  127   2.487   2.761   4.713
    5U      O4'  128   2.691   2.734   4.715
    5U      C1'  129   2.752   2.734   4.587
    5U      H1'  130   2.796   2.822   4.569
    5U       N1  131   2.860   2.635   4.587
    5U       C6  132   2.853   2.522   4.665
    5U       H6  133   2.773   2.508   4.723
    5U       C5  134   2.950   2.430   4.666
    5U       H5  135   2.941   2.349   4.723
    5U       C4  136   3.066   2.448   4.585
    5U       O4  137   3.162   2.370   4.578
    5U       N3  138   3.067   2.563   4.510
    5U       H3  139   3.147   2.578   4.452
    5U       C2  140   2.969   2.659   4.506
    5U       O2  141   2.979   2.758   4.436
    5U      C3'  142   2.545   2.622   4.567
    5U      H3'  143   2.562   2.524   4.565
    5U      C2'  144   2.642   2.706   4.485
    5U     H2'1  145   2.670   2.666   4.398
    5U      O2'  146   2.583   2.829   4.446
    5U     HO'2  147   2.511   2.812   4.379
    5U      O3'  148   2.412   2.625   4.514
    5U      H3T  149   2.411   2.582   4.424
   4.49070   4.66690  10.00000
