;
;	File 'topol.top' was generated
;	By user: root (1000)
;	On host: Cas2
;	At date: Thu Jul 10 03:00:12 2025
;
;	This is a standalone topology file
;
;	Created by:
;	                    :-) GROMACS - gmx pdb2gmx, 2020.3 (-:
;	
;	Executable:   /usr/local/gromacs/bin/gmx
;	Data prefix:  /usr/local/gromacs
;	Working dir:  /home/chemistry/MD/UUUUU_RNA/UUUUU_Dropdown
;	Command line:
;	  gmx pdb2gmx -f ../UUUUU_ready.gro -ignh
;	Force field was read from the standard GROMACS share directory.
;

; Include forcefield parameters
#include "amber_na_desres.ff/forcefield.itp"

[ moleculetype ]
; Name            nrexcl
RNA                 3

[ atoms ]
;   nr       type  resnr residue  atom   cgnr     charge       mass  typeB    chargeB      massB
; residue   1 U   rtp RU5  q -0.3
     1         OH      1      U    O5'      1    -0.6223         16
     2         HO      1      U    H5T      2     0.4295      1.008
     3         CI      1      U    C5'      3     0.0558      12.01
     4         H1      1      U   H5'1      4     0.0679      1.008
     5         H1      1      U   H5'2      5     0.0679      1.008
     6         CT      1      U    C4'      6     0.1065      12.01
     7         H1      1      U    H4'      7     0.1174      1.008
     8         OS      1      U    O4'      8    -0.3548         16
     9         CT      1      U    C1'      9     0.0674      12.01
    10         H2      1      U    H1'     10     0.1824      1.008
    11    N*_desN      1      U     N1     11     0.0418      14.01
    12    CM_desN      1      U     C6     12    -0.1126      12.01
    13         H4      1      U     H6     13     0.2188      1.008
    14    CM_desN      1      U     C5     14    -0.3635      12.01
    15         HA      1      U     H5     15     0.1811      1.008
    16     C_desN      1      U     C4     16     0.5952      12.01
    17          O      1      U     O4     17    -0.5761         16
    18    NA_desN      1      U     N3     18    -0.3913      14.01
    19      H_des      1      U     H3     19     0.3518      1.008
    20     C_desN      1      U     C2     20     0.4687      12.01
    21          O      1      U     O2     21    -0.5477         16
    22         CT      1      U    C3'     22     0.2022      12.01
    23         H1      1      U    H3'     23     0.0615      1.008
    24         CT      1      U    C2'     24      0.067      12.01
    25         H1      1      U   H2'1     25     0.0972      1.008
    26         OH      1      U    O2'     26    -0.6139         16
    27         HO      1      U   HO'2     27     0.4186      1.008
    28    OS_case      1      U    O3'     28    -0.5246         16   ; qtot -0.3081
; residue   2 U   rtp RU   q -1.0
    29          P      2      U      P     29     1.1662      30.97
    30    O2_case      2      U    O1P     30     -0.776         16
    31    O2_case      2      U    O2P     31     -0.776         16
    32    OS_case      2      U    O5'     32    -0.4989         16
    33         CI      2      U    C5'     33     0.0558      12.01
    34         H1      2      U   H5'1     34     0.0679      1.008
    35         H1      2      U   H5'2     35     0.0679      1.008
    36         CT      2      U    C4'     36     0.1065      12.01
    37         H1      2      U    H4'     37     0.1174      1.008
    38         OS      2      U    O4'     38    -0.3548         16
    39         CT      2      U    C1'     39     0.0674      12.01
    40         H2      2      U    H1'     40     0.1824      1.008
    41    N*_desN      2      U     N1     41     0.0418      14.01
    42    CM_desN      2      U     C6     42    -0.1126      12.01
    43         H4      2      U     H6     43     0.2188      1.008
    44    CM_desN      2      U     C5     44    -0.3635      12.01
    45         HA      2      U     H5     45     0.1811      1.008
    46     C_desN      2      U     C4     46     0.5952      12.01
    47          O      2      U     O4     47    -0.5761         16
    48    NA_desN      2      U     N3     48    -0.3913      14.01
    49      H_des      2      U     H3     49     0.3518      1.008
    50     C_desN      2      U     C2     50     0.4687      12.01
    51          O      2      U     O2     51    -0.5477         16
    52         CT      2      U    C3'     52     0.2022      12.01
    53         H1      2      U    H3'     53     0.0615      1.008
    54         CT      2      U    C2'     54      0.067      12.01
    55         H1      2      U   H2'1     55     0.0972      1.008
    56         OH      2      U    O2'     56    -0.6139         16
    57         HO      2      U   HO'2     57     0.4186      1.008
    58    OS_case      2      U    O3'     58    -0.5246         16   ; qtot -1.308
; residue   3 U   rtp RU   q -1.0
    59          P      3      U      P     59     1.1662      30.97
    60    O2_case      3      U    O1P     60     -0.776         16
    61    O2_case      3      U    O2P     61     -0.776         16
    62    OS_case      3      U    O5'     62    -0.4989         16
    63         CI      3      U    C5'     63     0.0558      12.01
    64         H1      3      U   H5'1     64     0.0679      1.008
    65         H1      3      U   H5'2     65     0.0679      1.008
    66         CT      3      U    C4'     66     0.1065      12.01
    67         H1      3      U    H4'     67     0.1174      1.008
    68         OS      3      U    O4'     68    -0.3548         16
    69         CT      3      U    C1'     69     0.0674      12.01
    70         H2      3      U    H1'     70     0.1824      1.008
    71    N*_desN      3      U     N1     71     0.0418      14.01
    72    CM_desN      3      U     C6     72    -0.1126      12.01
    73         H4      3      U     H6     73     0.2188      1.008
    74    CM_desN      3      U     C5     74    -0.3635      12.01
    75         HA      3      U     H5     75     0.1811      1.008
    76     C_desN      3      U     C4     76     0.5952      12.01
    77          O      3      U     O4     77    -0.5761         16
    78    NA_desN      3      U     N3     78    -0.3913      14.01
    79      H_des      3      U     H3     79     0.3518      1.008
    80     C_desN      3      U     C2     80     0.4687      12.01
    81          O      3      U     O2     81    -0.5477         16
    82         CT      3      U    C3'     82     0.2022      12.01
    83         H1      3      U    H3'     83     0.0615      1.008
    84         CT      3      U    C2'     84      0.067      12.01
    85         H1      3      U   H2'1     85     0.0972      1.008
    86         OH      3      U    O2'     86    -0.6139         16
    87         HO      3      U   HO'2     87     0.4186      1.008
    88    OS_case      3      U    O3'     88    -0.5246         16   ; qtot -2.308
; residue   4 U   rtp RU   q -1.0
    89          P      4      U      P     89     1.1662      30.97
    90    O2_case      4      U    O1P     90     -0.776         16
    91    O2_case      4      U    O2P     91     -0.776         16
    92    OS_case      4      U    O5'     92    -0.4989         16
    93         CI      4      U    C5'     93     0.0558      12.01
    94         H1      4      U   H5'1     94     0.0679      1.008
    95         H1      4      U   H5'2     95     0.0679      1.008
    96         CT      4      U    C4'     96     0.1065      12.01
    97         H1      4      U    H4'     97     0.1174      1.008
    98         OS      4      U    O4'     98    -0.3548         16
    99         CT      4      U    C1'     99     0.0674      12.01
   100         H2      4      U    H1'    100     0.1824      1.008
   101    N*_desN      4      U     N1    101     0.0418      14.01
   102    CM_desN      4      U     C6    102    -0.1126      12.01
   103         H4      4      U     H6    103     0.2188      1.008
   104    CM_desN      4      U     C5    104    -0.3635      12.01
   105         HA      4      U     H5    105     0.1811      1.008
   106     C_desN      4      U     C4    106     0.5952      12.01
   107          O      4      U     O4    107    -0.5761         16
   108    NA_desN      4      U     N3    108    -0.3913      14.01
   109      H_des      4      U     H3    109     0.3518      1.008
   110     C_desN      4      U     C2    110     0.4687      12.01
   111          O      4      U     O2    111    -0.5477         16
   112         CT      4      U    C3'    112     0.2022      12.01
   113         H1      4      U    H3'    113     0.0615      1.008
   114         CT      4      U    C2'    114      0.067      12.01
   115         H1      4      U   H2'1    115     0.0972      1.008
   116         OH      4      U    O2'    116    -0.6139         16
   117         HO      4      U   HO'2    117     0.4186      1.008
   118    OS_case      4      U    O3'    118    -0.5246         16   ; qtot -3.308
; residue   5 U   rtp RU3  q -0.7
   119          P      5      U      P    119     1.1662      30.97
   120    O2_case      5      U    O1P    120     -0.776         16
   121    O2_case      5      U    O2P    121     -0.776         16
   122    OS_case      5      U    O5'    122    -0.4989         16
   123         CI      5      U    C5'    123     0.0558      12.01
   124         H1      5      U   H5'1    124     0.0679      1.008
   125         H1      5      U   H5'2    125     0.0679      1.008
   126         CT      5      U    C4'    126     0.1065      12.01
   127         H1      5      U    H4'    127     0.1174      1.008
   128         OS      5      U    O4'    128    -0.3548         16
   129         CT      5      U    C1'    129     0.0674      12.01
   130         H2      5      U    H1'    130     0.1824      1.008
   131    N*_desN      5      U     N1    131     0.0418      14.01
   132    CM_desN      5      U     C6    132    -0.1126      12.01
   133         H4      5      U     H6    133     0.2188      1.008
   134    CM_desN      5      U     C5    134    -0.3635      12.01
   135         HA      5      U     H5    135     0.1811      1.008
   136     C_desN      5      U     C4    136     0.5952      12.01
   137          O      5      U     O4    137    -0.5761         16
   138    NA_desN      5      U     N3    138    -0.3913      14.01
   139      H_des      5      U     H3    139     0.3518      1.008
   140     C_desN      5      U     C2    140     0.4687      12.01
   141          O      5      U     O2    141    -0.5477         16
   142         CT      5      U    C3'    142     0.2022      12.01
   143         H1      5      U    H3'    143     0.0615      1.008
   144         CT      5      U    C2'    144      0.067      12.01
   145         H1      5      U   H2'1    145     0.0972      1.008
   146         OH      5      U    O2'    146    -0.6139         16
   147         HO      5      U   HO'2    147     0.4186      1.008
   148         OH      5      U    O3'    148    -0.6541         16
   149         HO      5      U    H3T    149     0.4376      1.008   ; qtot -4

[ bonds ]
;  ai    aj funct            c0            c1            c2            c3
    1     2     1 
    1     3     1 
    3     4     1 
    3     5     1 
    3     6     1 
    6     7     1 
    6     8     1 
    6    22     1 
    8     9     1 
    9    10     1 
    9    11     1 
    9    24     1 
   11    12     1 
   11    20     1 
   12    13     1 
   12    14     1 
   14    15     1 
   14    16     1 
   16    17     1 
   16    18     1 
   18    19     1 
   18    20     1 
   20    21     1 
   22    23     1 
   22    24     1 
   22    28     1 
   24    25     1 
   24    26     1 
   26    27     1 
   28    29     1 
   29    30     1 
   29    31     1 
   29    32     1 
   32    33     1 
   33    34     1 
   33    35     1 
   33    36     1 
   36    37     1 
   36    38     1 
   36    52     1 
   38    39     1 
   39    40     1 
   39    41     1 
   39    54     1 
   41    42     1 
   41    50     1 
   42    43     1 
   42    44     1 
   44    45     1 
   44    46     1 
   46    47     1 
   46    48     1 
   48    49     1 
   48    50     1 
   50    51     1 
   52    53     1 
   52    54     1 
   52    58     1 
   54    55     1 
   54    56     1 
   56    57     1 
   58    59     1 
   59    60     1 
   59    61     1 
   59    62     1 
   62    63     1 
   63    64     1 
   63    65     1 
   63    66     1 
   66    67     1 
   66    68     1 
   66    82     1 
   68    69     1 
   69    70     1 
   69    71     1 
   69    84     1 
   71    72     1 
   71    80     1 
   72    73     1 
   72    74     1 
   74    75     1 
   74    76     1 
   76    77     1 
   76    78     1 
   78    79     1 
   78    80     1 
   80    81     1 
   82    83     1 
   82    84     1 
   82    88     1 
   84    85     1 
   84    86     1 
   86    87     1 
   88    89     1 
   89    90     1 
   89    91     1 
   89    92     1 
   92    93     1 
   93    94     1 
   93    95     1 
   93    96     1 
   96    97     1 
   96    98     1 
   96   112     1 
   98    99     1 
   99   100     1 
   99   101     1 
   99   114     1 
  101   102     1 
  101   110     1 
  102   103     1 
  102   104     1 
  104   105     1 
  104   106     1 
  106   107     1 
  106   108     1 
  108   109     1 
  108   110     1 
  110   111     1 
  112   113     1 
  112   114     1 
  112   118     1 
  114   115     1 
  114   116     1 
  116   117     1 
  118   119     1 
  119   120     1 
  119   121     1 
  119   122     1 
  122   123     1 
  123   124     1 
  123   125     1 
  123   126     1 
  126   127     1 
  126   128     1 
  126   142     1 
  128   129     1 
  129   130     1 
  129   131     1 
  129   144     1 
  131   132     1 
  131   140     1 
  132   133     1 
  132   134     1 
  134   135     1 
  134   136     1 
  136   137     1 
  136   138     1 
  138   139     1 
  138   140     1 
  140   141     1 
  142   143     1 
  142   144     1 
  142   148     1 
  144   145     1 
  144   146     1 
  146   147     1 
  148   149     1 

[ pairs ]
;  ai    aj funct            c0            c1            c2            c3
    1     7     1 
    1     8     1 
    1    22     1 
    2     4     1 
    2     5     1 
    2     6     1 
    3     9     1 
    3    23     1 
    3    24     1 
    3    28     1 
    4     7     1 
    4     8     1 
    4    22     1 
    5     7     1 
    5     8     1 
    5    22     1 
    6    10     1 
    6    11     1 
    6    25     1 
    6    26     1 
    6    29     1 
    7     9     1 
    7    23     1 
    7    24     1 
    7    28     1 
    8    12     1 
    8    20     1 
    8    23     1 
    8    25     1 
    8    26     1 
    8    28     1 
    9    13     1 
    9    14     1 
    9    18     1 
    9    21     1 
    9    23     1 
    9    27     1 
    9    28     1 
   10    12     1 
   10    20     1 
   10    22     1 
   10    25     1 
   10    26     1 
   11    15     1 
   11    16     1 
   11    19     1 
   11    22     1 
   11    25     1 
   11    26     1 
   12    17     1 
   12    18     1 
   12    21     1 
   12    24     1 
   13    15     1 
   13    16     1 
   13    20     1 
   14    19     1 
   14    20     1 
   15    17     1 
   15    18     1 
   16    21     1 
   17    19     1 
   17    20     1 
   19    21     1 
   20    24     1 
   22    27     1 
   22    30     1 
   22    31     1 
   22    32     1 
   23    25     1 
   23    26     1 
   23    29     1 
   24    29     1 
   25    27     1 
   25    28     1 
   26    28     1 
   28    33     1 
   29    34     1 
   29    35     1 
   29    36     1 
   30    33     1 
   31    33     1 
   32    37     1 
   32    38     1 
   32    52     1 
   33    39     1 
   33    53     1 
   33    54     1 
   33    58     1 
   34    37     1 
   34    38     1 
   34    52     1 
   35    37     1 
   35    38     1 
   35    52     1 
   36    40     1 
   36    41     1 
   36    55     1 
   36    56     1 
   36    59     1 
   37    39     1 
   37    53     1 
   37    54     1 
   37    58     1 
   38    42     1 
   38    50     1 
   38    53     1 
   38    55     1 
   38    56     1 
   38    58     1 
   39    43     1 
   39    44     1 
   39    48     1 
   39    51     1 
   39    53     1 
   39    57     1 
   39    58     1 
   40    42     1 
   40    50     1 
   40    52     1 
   40    55     1 
   40    56     1 
   41    45     1 
   41    46     1 
   41    49     1 
   41    52     1 
   41    55     1 
   41    56     1 
   42    47     1 
   42    48     1 
   42    51     1 
   42    54     1 
   43    45     1 
   43    46     1 
   43    50     1 
   44    49     1 
   44    50     1 
   45    47     1 
   45    48     1 
   46    51     1 
   47    49     1 
   47    50     1 
   49    51     1 
   50    54     1 
   52    57     1 
   52    60     1 
   52    61     1 
   52    62     1 
   53    55     1 
   53    56     1 
   53    59     1 
   54    59     1 
   55    57     1 
   55    58     1 
   56    58     1 
   58    63     1 
   59    64     1 
   59    65     1 
   59    66     1 
   60    63     1 
   61    63     1 
   62    67     1 
   62    68     1 
   62    82     1 
   63    69     1 
   63    83     1 
   63    84     1 
   63    88     1 
   64    67     1 
   64    68     1 
   64    82     1 
   65    67     1 
   65    68     1 
   65    82     1 
   66    70     1 
   66    71     1 
   66    85     1 
   66    86     1 
   66    89     1 
   67    69     1 
   67    83     1 
   67    84     1 
   67    88     1 
   68    72     1 
   68    80     1 
   68    83     1 
   68    85     1 
   68    86     1 
   68    88     1 
   69    73     1 
   69    74     1 
   69    78     1 
   69    81     1 
   69    83     1 
   69    87     1 
   69    88     1 
   70    72     1 
   70    80     1 
   70    82     1 
   70    85     1 
   70    86     1 
   71    75     1 
   71    76     1 
   71    79     1 
   71    82     1 
   71    85     1 
   71    86     1 
   72    77     1 
   72    78     1 
   72    81     1 
   72    84     1 
   73    75     1 
   73    76     1 
   73    80     1 
   74    79     1 
   74    80     1 
   75    77     1 
   75    78     1 
   76    81     1 
   77    79     1 
   77    80     1 
   79    81     1 
   80    84     1 
   82    87     1 
   82    90     1 
   82    91     1 
   82    92     1 
   83    85     1 
   83    86     1 
   83    89     1 
   84    89     1 
   85    87     1 
   85    88     1 
   86    88     1 
   88    93     1 
   89    94     1 
   89    95     1 
   89    96     1 
   90    93     1 
   91    93     1 
   92    97     1 
   92    98     1 
   92   112     1 
   93    99     1 
   93   113     1 
   93   114     1 
   93   118     1 
   94    97     1 
   94    98     1 
   94   112     1 
   95    97     1 
   95    98     1 
   95   112     1 
   96   100     1 
   96   101     1 
   96   115     1 
   96   116     1 
   96   119     1 
   97    99     1 
   97   113     1 
   97   114     1 
   97   118     1 
   98   102     1 
   98   110     1 
   98   113     1 
   98   115     1 
   98   116     1 
   98   118     1 
   99   103     1 
   99   104     1 
   99   108     1 
   99   111     1 
   99   113     1 
   99   117     1 
   99   118     1 
  100   102     1 
  100   110     1 
  100   112     1 
  100   115     1 
  100   116     1 
  101   105     1 
  101   106     1 
  101   109     1 
  101   112     1 
  101   115     1 
  101   116     1 
  102   107     1 
  102   108     1 
  102   111     1 
  102   114     1 
  103   105     1 
  103   106     1 
  103   110     1 
  104   109     1 
  104   110     1 
  105   107     1 
  105   108     1 
  106   111     1 
  107   109     1 
  107   110     1 
  109   111     1 
  110   114     1 
  112   117     1 
  112   120     1 
  112   121     1 
  112   122     1 
  113   115     1 
  113   116     1 
  113   119     1 
  114   119     1 
  115   117     1 
  115   118     1 
  116   118     1 
  118   123     1 
  119   124     1 
  119   125     1 
  119   126     1 
  120   123     1 
  121   123     1 
  122   127     1 
  122   128     1 
  122   142     1 
  123   129     1 
  123   143     1 
  123   144     1 
  123   148     1 
  124   127     1 
  124   128     1 
  124   142     1 
  125   127     1 
  125   128     1 
  125   142     1 
  126   130     1 
  126   131     1 
  126   145     1 
  126   146     1 
  126   149     1 
  127   129     1 
  127   143     1 
  127   144     1 
  127   148     1 
  128   132     1 
  128   140     1 
  128   143     1 
  128   145     1 
  128   146     1 
  128   148     1 
  129   133     1 
  129   134     1 
  129   138     1 
  129   141     1 
  129   143     1 
  129   147     1 
  129   148     1 
  130   132     1 
  130   140     1 
  130   142     1 
  130   145     1 
  130   146     1 
  131   135     1 
  131   136     1 
  131   139     1 
  131   142     1 
  131   145     1 
  131   146     1 
  132   137     1 
  132   138     1 
  132   141     1 
  132   144     1 
  133   135     1 
  133   136     1 
  133   140     1 
  134   139     1 
  134   140     1 
  135   137     1 
  135   138     1 
  136   141     1 
  137   139     1 
  137   140     1 
  139   141     1 
  140   144     1 
  142   147     1 
  143   145     1 
  143   146     1 
  143   149     1 
  144   149     1 
  145   147     1 
  145   148     1 
  146   148     1 

[ angles ]
;  ai    aj    ak funct            c0            c1            c2            c3
    2     1     3     1 
    1     3     4     1 
    1     3     5     1 
    1     3     6     1 
    4     3     5     1 
    4     3     6     1 
    5     3     6     1 
    3     6     7     1 
    3     6     8     1 
    3     6    22     1 
    7     6     8     1 
    7     6    22     1 
    8     6    22     1 
    6     8     9     1 
    8     9    10     1 
    8     9    11     1 
    8     9    24     1 
   10     9    11     1 
   10     9    24     1 
   11     9    24     1 
    9    11    12     1 
    9    11    20     1 
   12    11    20     1 
   11    12    13     1 
   11    12    14     1 
   13    12    14     1 
   12    14    15     1 
   12    14    16     1 
   15    14    16     1 
   14    16    17     1 
   14    16    18     1 
   17    16    18     1 
   16    18    19     1 
   16    18    20     1 
   19    18    20     1 
   11    20    18     1 
   11    20    21     1 
   18    20    21     1 
    6    22    23     1 
    6    22    24     1 
    6    22    28     1 
   23    22    24     1 
   23    22    28     1 
   24    22    28     1 
    9    24    22     1 
    9    24    25     1 
    9    24    26     1 
   22    24    25     1 
   22    24    26     1 
   25    24    26     1 
   24    26    27     1 
   22    28    29     1 
   28    29    30     1 
   28    29    31     1 
   28    29    32     1 
   30    29    31     1 
   30    29    32     1 
   31    29    32     1 
   29    32    33     1 
   32    33    34     1 
   32    33    35     1 
   32    33    36     1 
   34    33    35     1 
   34    33    36     1 
   35    33    36     1 
   33    36    37     1 
   33    36    38     1 
   33    36    52     1 
   37    36    38     1 
   37    36    52     1 
   38    36    52     1 
   36    38    39     1 
   38    39    40     1 
   38    39    41     1 
   38    39    54     1 
   40    39    41     1 
   40    39    54     1 
   41    39    54     1 
   39    41    42     1 
   39    41    50     1 
   42    41    50     1 
   41    42    43     1 
   41    42    44     1 
   43    42    44     1 
   42    44    45     1 
   42    44    46     1 
   45    44    46     1 
   44    46    47     1 
   44    46    48     1 
   47    46    48     1 
   46    48    49     1 
   46    48    50     1 
   49    48    50     1 
   41    50    48     1 
   41    50    51     1 
   48    50    51     1 
   36    52    53     1 
   36    52    54     1 
   36    52    58     1 
   53    52    54     1 
   53    52    58     1 
   54    52    58     1 
   39    54    52     1 
   39    54    55     1 
   39    54    56     1 
   52    54    55     1 
   52    54    56     1 
   55    54    56     1 
   54    56    57     1 
   52    58    59     1 
   58    59    60     1 
   58    59    61     1 
   58    59    62     1 
   60    59    61     1 
   60    59    62     1 
   61    59    62     1 
   59    62    63     1 
   62    63    64     1 
   62    63    65     1 
   62    63    66     1 
   64    63    65     1 
   64    63    66     1 
   65    63    66     1 
   63    66    67     1 
   63    66    68     1 
   63    66    82     1 
   67    66    68     1 
   67    66    82     1 
   68    66    82     1 
   66    68    69     1 
   68    69    70     1 
   68    69    71     1 
   68    69    84     1 
   70    69    71     1 
   70    69    84     1 
   71    69    84     1 
   69    71    72     1 
   69    71    80     1 
   72    71    80     1 
   71    72    73     1 
   71    72    74     1 
   73    72    74     1 
   72    74    75     1 
   72    74    76     1 
   75    74    76     1 
   74    76    77     1 
   74    76    78     1 
   77    76    78     1 
   76    78    79     1 
   76    78    80     1 
   79    78    80     1 
   71    80    78     1 
   71    80    81     1 
   78    80    81     1 
   66    82    83     1 
   66    82    84     1 
   66    82    88     1 
   83    82    84     1 
   83    82    88     1 
   84    82    88     1 
   69    84    82     1 
   69    84    85     1 
   69    84    86     1 
   82    84    85     1 
   82    84    86     1 
   85    84    86     1 
   84    86    87     1 
   82    88    89     1 
   88    89    90     1 
   88    89    91     1 
   88    89    92     1 
   90    89    91     1 
   90    89    92     1 
   91    89    92     1 
   89    92    93     1 
   92    93    94     1 
   92    93    95     1 
   92    93    96     1 
   94    93    95     1 
   94    93    96     1 
   95    93    96     1 
   93    96    97     1 
   93    96    98     1 
   93    96   112     1 
   97    96    98     1 
   97    96   112     1 
   98    96   112     1 
   96    98    99     1 
   98    99   100     1 
   98    99   101     1 
   98    99   114     1 
  100    99   101     1 
  100    99   114     1 
  101    99   114     1 
   99   101   102     1 
   99   101   110     1 
  102   101   110     1 
  101   102   103     1 
  101   102   104     1 
  103   102   104     1 
  102   104   105     1 
  102   104   106     1 
  105   104   106     1 
  104   106   107     1 
  104   106   108     1 
  107   106   108     1 
  106   108   109     1 
  106   108   110     1 
  109   108   110     1 
  101   110   108     1 
  101   110   111     1 
  108   110   111     1 
   96   112   113     1 
   96   112   114     1 
   96   112   118     1 
  113   112   114     1 
  113   112   118     1 
  114   112   118     1 
   99   114   112     1 
   99   114   115     1 
   99   114   116     1 
  112   114   115     1 
  112   114   116     1 
  115   114   116     1 
  114   116   117     1 
  112   118   119     1 
  118   119   120     1 
  118   119   121     1 
  118   119   122     1 
  120   119   121     1 
  120   119   122     1 
  121   119   122     1 
  119   122   123     1 
  122   123   124     1 
  122   123   125     1 
  122   123   126     1 
  124   123   125     1 
  124   123   126     1 
  125   123   126     1 
  123   126   127     1 
  123   126   128     1 
  123   126   142     1 
  127   126   128     1 
  127   126   142     1 
  128   126   142     1 
  126   128   129     1 
  128   129   130     1 
  128   129   131     1 
  128   129   144     1 
  130   129   131     1 
  130   129   144     1 
  131   129   144     1 
  129   131   132     1 
  129   131   140     1 
  132   131   140     1 
  131   132   133     1 
  131   132   134     1 
  133   132   134     1 
  132   134   135     1 
  132   134   136     1 
  135   134   136     1 
  134   136   137     1 
  134   136   138     1 
  137   136   138     1 
  136   138   139     1 
  136   138   140     1 
  139   138   140     1 
  131   140   138     1 
  131   140   141     1 
  138   140   141     1 
  126   142   143     1 
  126   142   144     1 
  126   142   148     1 
  143   142   144     1 
  143   142   148     1 
  144   142   148     1 
  129   144   142     1 
  129   144   145     1 
  129   144   146     1 
  142   144   145     1 
  142   144   146     1 
  145   144   146     1 
  144   146   147     1 
  142   148   149     1 

[ dihedrals ]
;  ai    aj    ak    al funct            c0            c1            c2            c3            c4            c5
    2     1     3     4     9 
    2     1     3     5     9 
    2     1     3     6     9 
    1     3     6     7     9 
    1     3     6     8     9 
    1     3     6    22     9 
    4     3     6     7     9 
    4     3     6     8     9 
    4     3     6    22     9 
    5     3     6     7     9 
    5     3     6     8     9 
    5     3     6    22     9 
    3     6     8     9     9 
    7     6     8     9     9 
   22     6     8     9     9 
    3     6    22    23     9 
    3     6    22    24     9 
    3     6    22    28     9 
    7     6    22    23     9 
    7     6    22    24     9 
    7     6    22    28     9 
    8     6    22    23     9 
    8     6    22    24     9 
    8     6    22    28     9 
    6     8     9    10     9 
    6     8     9    11     9 
    6     8     9    24     9 
    8     9    11    12     9    torsion_RU_O4S_C1S_N1_C6_mult1
    8     9    11    12     9    torsion_RU_O4S_C1S_N1_C6_mult2
    8     9    11    12     9    torsion_RU_O4S_C1S_N1_C6_mult3
    8     9    11    12     9    torsion_RU_O4S_C1S_N1_C6_mult4
    8     9    11    20     9 
   10     9    11    12     9 
   10     9    11    20     9 
   24     9    11    12     9 
   24     9    11    20     9 
    8     9    24    22     9 
    8     9    24    25     9 
    8     9    24    26     9 
   10     9    24    22     9 
   10     9    24    25     9 
   10     9    24    26     9 
   11     9    24    22     9 
   11     9    24    25     9 
   11     9    24    26     9 
    9    11    12    13     9 
    9    11    12    14     9 
   20    11    12    13     9 
   20    11    12    14     9 
    9    11    20    18     9 
    9    11    20    21     9 
   12    11    20    18     9 
   12    11    20    21     9 
   11    12    14    15     9 
   11    12    14    16     9 
   13    12    14    15     9 
   13    12    14    16     9 
   12    14    16    17     9 
   12    14    16    18     9 
   15    14    16    17     9 
   15    14    16    18     9 
   14    16    18    19     9 
   14    16    18    20     9 
   17    16    18    19     9 
   17    16    18    20     9 
   16    18    20    11     9 
   16    18    20    21     9 
   19    18    20    11     9 
   19    18    20    21     9 
    6    22    24     9     9 
    6    22    24    25     9 
    6    22    24    26     9 
   23    22    24     9     9 
   23    22    24    25     9 
   23    22    24    26     9 
   28    22    24     9     9 
   28    22    24    25     9 
   28    22    24    26     9 
    6    22    28    29     9 
   23    22    28    29     9 
   24    22    28    29     9 
    9    24    26    27     9 
   22    24    26    27     9 
   25    24    26    27     9 
   22    28    29    30     9 
   22    28    29    31     9 
   22    28    29    32     9 
   28    29    32    33     9 
   30    29    32    33     9 
   31    29    32    33     9 
   29    32    33    34     9 
   29    32    33    35     9 
   29    32    33    36     9 
   32    33    36    37     9 
   32    33    36    38     9 
   32    33    36    52     9 
   34    33    36    37     9 
   34    33    36    38     9 
   34    33    36    52     9 
   35    33    36    37     9 
   35    33    36    38     9 
   35    33    36    52     9 
   33    36    38    39     9 
   37    36    38    39     9 
   52    36    38    39     9 
   33    36    52    53     9 
   33    36    52    54     9 
   33    36    52    58     9 
   37    36    52    53     9 
   37    36    52    54     9 
   37    36    52    58     9 
   38    36    52    53     9 
   38    36    52    54     9 
   38    36    52    58     9 
   36    38    39    40     9 
   36    38    39    41     9 
   36    38    39    54     9 
   38    39    41    42     9    torsion_RU_O4S_C1S_N1_C6_mult1
   38    39    41    42     9    torsion_RU_O4S_C1S_N1_C6_mult2
   38    39    41    42     9    torsion_RU_O4S_C1S_N1_C6_mult3
   38    39    41    42     9    torsion_RU_O4S_C1S_N1_C6_mult4
   38    39    41    50     9 
   40    39    41    42     9 
   40    39    41    50     9 
   54    39    41    42     9 
   54    39    41    50     9 
   38    39    54    52     9 
   38    39    54    55     9 
   38    39    54    56     9 
   40    39    54    52     9 
   40    39    54    55     9 
   40    39    54    56     9 
   41    39    54    52     9 
   41    39    54    55     9 
   41    39    54    56     9 
   39    41    42    43     9 
   39    41    42    44     9 
   50    41    42    43     9 
   50    41    42    44     9 
   39    41    50    48     9 
   39    41    50    51     9 
   42    41    50    48     9 
   42    41    50    51     9 
   41    42    44    45     9 
   41    42    44    46     9 
   43    42    44    45     9 
   43    42    44    46     9 
   42    44    46    47     9 
   42    44    46    48     9 
   45    44    46    47     9 
   45    44    46    48     9 
   44    46    48    49     9 
   44    46    48    50     9 
   47    46    48    49     9 
   47    46    48    50     9 
   46    48    50    41     9 
   46    48    50    51     9 
   49    48    50    41     9 
   49    48    50    51     9 
   36    52    54    39     9 
   36    52    54    55     9 
   36    52    54    56     9 
   53    52    54    39     9 
   53    52    54    55     9 
   53    52    54    56     9 
   58    52    54    39     9 
   58    52    54    55     9 
   58    52    54    56     9 
   36    52    58    59     9 
   53    52    58    59     9 
   54    52    58    59     9 
   39    54    56    57     9 
   52    54    56    57     9 
   55    54    56    57     9 
   52    58    59    60     9 
   52    58    59    61     9 
   52    58    59    62     9 
   58    59    62    63     9 
   60    59    62    63     9 
   61    59    62    63     9 
   59    62    63    64     9 
   59    62    63    65     9 
   59    62    63    66     9 
   62    63    66    67     9 
   62    63    66    68     9 
   62    63    66    82     9 
   64    63    66    67     9 
   64    63    66    68     9 
   64    63    66    82     9 
   65    63    66    67     9 
   65    63    66    68     9 
   65    63    66    82     9 
   63    66    68    69     9 
   67    66    68    69     9 
   82    66    68    69     9 
   63    66    82    83     9 
   63    66    82    84     9 
   63    66    82    88     9 
   67    66    82    83     9 
   67    66    82    84     9 
   67    66    82    88     9 
   68    66    82    83     9 
   68    66    82    84     9 
   68    66    82    88     9 
   66    68    69    70     9 
   66    68    69    71     9 
   66    68    69    84     9 
   68    69    71    72     9    torsion_RU_O4S_C1S_N1_C6_mult1
   68    69    71    72     9    torsion_RU_O4S_C1S_N1_C6_mult2
   68    69    71    72     9    torsion_RU_O4S_C1S_N1_C6_mult3
   68    69    71    72     9    torsion_RU_O4S_C1S_N1_C6_mult4
   68    69    71    80     9 
   70    69    71    72     9 
   70    69    71    80     9 
   84    69    71    72     9 
   84    69    71    80     9 
   68    69    84    82     9 
   68    69    84    85     9 
   68    69    84    86     9 
   70    69    84    82     9 
   70    69    84    85     9 
   70    69    84    86     9 
   71    69    84    82     9 
   71    69    84    85     9 
   71    69    84    86     9 
   69    71    72    73     9 
   69    71    72    74     9 
   80    71    72    73     9 
   80    71    72    74     9 
   69    71    80    78     9 
   69    71    80    81     9 
   72    71    80    78     9 
   72    71    80    81     9 
   71    72    74    75     9 
   71    72    74    76     9 
   73    72    74    75     9 
   73    72    74    76     9 
   72    74    76    77     9 
   72    74    76    78     9 
   75    74    76    77     9 
   75    74    76    78     9 
   74    76    78    79     9 
   74    76    78    80     9 
   77    76    78    79     9 
   77    76    78    80     9 
   76    78    80    71     9 
   76    78    80    81     9 
   79    78    80    71     9 
   79    78    80    81     9 
   66    82    84    69     9 
   66    82    84    85     9 
   66    82    84    86     9 
   83    82    84    69     9 
   83    82    84    85     9 
   83    82    84    86     9 
   88    82    84    69     9 
   88    82    84    85     9 
   88    82    84    86     9 
   66    82    88    89     9 
   83    82    88    89     9 
   84    82    88    89     9 
   69    84    86    87     9 
   82    84    86    87     9 
   85    84    86    87     9 
   82    88    89    90     9 
   82    88    89    91     9 
   82    88    89    92     9 
   88    89    92    93     9 
   90    89    92    93     9 
   91    89    92    93     9 
   89    92    93    94     9 
   89    92    93    95     9 
   89    92    93    96     9 
   92    93    96    97     9 
   92    93    96    98     9 
   92    93    96   112     9 
   94    93    96    97     9 
   94    93    96    98     9 
   94    93    96   112     9 
   95    93    96    97     9 
   95    93    96    98     9 
   95    93    96   112     9 
   93    96    98    99     9 
   97    96    98    99     9 
  112    96    98    99     9 
   93    96   112   113     9 
   93    96   112   114     9 
   93    96   112   118     9 
   97    96   112   113     9 
   97    96   112   114     9 
   97    96   112   118     9 
   98    96   112   113     9 
   98    96   112   114     9 
   98    96   112   118     9 
   96    98    99   100     9 
   96    98    99   101     9 
   96    98    99   114     9 
   98    99   101   102     9    torsion_RU_O4S_C1S_N1_C6_mult1
   98    99   101   102     9    torsion_RU_O4S_C1S_N1_C6_mult2
   98    99   101   102     9    torsion_RU_O4S_C1S_N1_C6_mult3
   98    99   101   102     9    torsion_RU_O4S_C1S_N1_C6_mult4
   98    99   101   110     9 
  100    99   101   102     9 
  100    99   101   110     9 
  114    99   101   102     9 
  114    99   101   110     9 
   98    99   114   112     9 
   98    99   114   115     9 
   98    99   114   116     9 
  100    99   114   112     9 
  100    99   114   115     9 
  100    99   114   116     9 
  101    99   114   112     9 
  101    99   114   115     9 
  101    99   114   116     9 
   99   101   102   103     9 
   99   101   102   104     9 
  110   101   102   103     9 
  110   101   102   104     9 
   99   101   110   108     9 
   99   101   110   111     9 
  102   101   110   108     9 
  102   101   110   111     9 
  101   102   104   105     9 
  101   102   104   106     9 
  103   102   104   105     9 
  103   102   104   106     9 
  102   104   106   107     9 
  102   104   106   108     9 
  105   104   106   107     9 
  105   104   106   108     9 
  104   106   108   109     9 
  104   106   108   110     9 
  107   106   108   109     9 
  107   106   108   110     9 
  106   108   110   101     9 
  106   108   110   111     9 
  109   108   110   101     9 
  109   108   110   111     9 
   96   112   114    99     9 
   96   112   114   115     9 
   96   112   114   116     9 
  113   112   114    99     9 
  113   112   114   115     9 
  113   112   114   116     9 
  118   112   114    99     9 
  118   112   114   115     9 
  118   112   114   116     9 
   96   112   118   119     9 
  113   112   118   119     9 
  114   112   118   119     9 
   99   114   116   117     9 
  112   114   116   117     9 
  115   114   116   117     9 
  112   118   119   120     9 
  112   118   119   121     9 
  112   118   119   122     9 
  118   119   122   123     9 
  120   119   122   123     9 
  121   119   122   123     9 
  119   122   123   124     9 
  119   122   123   125     9 
  119   122   123   126     9 
  122   123   126   127     9 
  122   123   126   128     9 
  122   123   126   142     9 
  124   123   126   127     9 
  124   123   126   128     9 
  124   123   126   142     9 
  125   123   126   127     9 
  125   123   126   128     9 
  125   123   126   142     9 
  123   126   128   129     9 
  127   126   128   129     9 
  142   126   128   129     9 
  123   126   142   143     9 
  123   126   142   144     9 
  123   126   142   148     9 
  127   126   142   143     9 
  127   126   142   144     9 
  127   126   142   148     9 
  128   126   142   143     9 
  128   126   142   144     9 
  128   126   142   148     9 
  126   128   129   130     9 
  126   128   129   131     9 
  126   128   129   144     9 
  128   129   131   132     9    torsion_RU_O4S_C1S_N1_C6_mult1
  128   129   131   132     9    torsion_RU_O4S_C1S_N1_C6_mult2
  128   129   131   132     9    torsion_RU_O4S_C1S_N1_C6_mult3
  128   129   131   132     9    torsion_RU_O4S_C1S_N1_C6_mult4
  128   129   131   140     9 
  130   129   131   132     9 
  130   129   131   140     9 
  144   129   131   132     9 
  144   129   131   140     9 
  128   129   144   142     9 
  128   129   144   145     9 
  128   129   144   146     9 
  130   129   144   142     9 
  130   129   144   145     9 
  130   129   144   146     9 
  131   129   144   142     9 
  131   129   144   145     9 
  131   129   144   146     9 
  129   131   132   133     9 
  129   131   132   134     9 
  140   131   132   133     9 
  140   131   132   134     9 
  129   131   140   138     9 
  129   131   140   141     9 
  132   131   140   138     9 
  132   131   140   141     9 
  131   132   134   135     9 
  131   132   134   136     9 
  133   132   134   135     9 
  133   132   134   136     9 
  132   134   136   137     9 
  132   134   136   138     9 
  135   134   136   137     9 
  135   134   136   138     9 
  134   136   138   139     9 
  134   136   138   140     9 
  137   136   138   139     9 
  137   136   138   140     9 
  136   138   140   131     9 
  136   138   140   141     9 
  139   138   140   131     9 
  139   138   140   141     9 
  126   142   144   129     9 
  126   142   144   145     9 
  126   142   144   146     9 
  143   142   144   129     9 
  143   142   144   145     9 
  143   142   144   146     9 
  148   142   144   129     9 
  148   142   144   145     9 
  148   142   144   146     9 
  126   142   148   149     9 
  143   142   148   149     9 
  144   142   148   149     9 
  129   144   146   147     9 
  142   144   146   147     9 
  145   144   146   147     9 

[ dihedrals ]
;  ai    aj    ak    al funct            c0            c1            c2            c3
    9    11    12    20     4 
   11    14    12    13     4 
   11    18    20    21     4 
   12    16    14    15     4 
   14    18    16    17     4 
   16    20    18    19     4 
   39    41    42    50     4 
   41    44    42    43     4 
   41    48    50    51     4 
   42    46    44    45     4 
   44    48    46    47     4 
   46    50    48    49     4 
   69    71    72    80     4 
   71    74    72    73     4 
   71    78    80    81     4 
   72    76    74    75     4 
   74    78    76    77     4 
   76    80    78    79     4 
   99   101   102   110     4 
  101   104   102   103     4 
  101   108   110   111     4 
  102   106   104   105     4 
  104   108   106   107     4 
  106   110   108   109     4 
  129   131   132   140     4 
  131   134   132   133     4 
  131   138   140   141     4 
  132   136   134   135     4 
  134   138   136   137     4 
  136   140   138   139     4 

; Include Position restraint file
#ifdef POSRES
#include "posre.itp"
#endif

; Include water topology
#include "amber_na_desres.ff/tip4pd.itp"

#ifdef POSRES_WATER
; Position restraint for each water oxygen
[ position_restraints ]
;  i funct       fcx        fcy        fcz
   1    1       1000       1000       1000
#endif

; Include topology for ions
#include "amber_na_desres.ff/ions.itp"

[ system ]
; Name
Great Red Owns Many ACres of Sand in water

[ molecules ]
; Compound        #mols
RNA                 1
SOL              2870
NA                  1