Great Red Owns Many ACres of Sand
11629
    1U      O5'    1   1.481   2.153   5.716
    1U      H5T    2   1.458   2.214   5.640
    1U      C5'    3   1.612   2.184   5.765
    1U     H5'1    4   1.612   2.279   5.795
    1U     H5'2    5   1.676   2.173   5.689
    1U      C4'    6   1.650   2.093   5.880
    1U      H4'    7   1.747   2.074   5.868
    1U      O4'    8   1.620   2.162   6.005
    1U      C1'    9   1.518   2.093   6.075
    1U      H1'   10   1.556   2.043   6.152
    1U       N1   11   1.426   2.192   6.133
    1U       C6   12   1.383   2.300   6.059
    1U       H6   13   1.415   2.310   5.965
    1U       C5   14   1.300   2.391   6.109
    1U       H5   15   1.271   2.468   6.052
    1U       C4   16   1.252   2.379   6.244
    1U       O4   17   1.176   2.457   6.301
    1U       N3   18   1.299   2.269   6.311
    1U       H3   19   1.267   2.257   6.405
    1U       C2   20   1.385   2.173   6.263
    1U       O2   21   1.420   2.079   6.331
    1U      C3'   22   1.573   1.962   5.888
    1U      H3'   23   1.549   1.921   5.800
    1U      C2'   24   1.453   1.998   5.975
    1U     H2'1   25   1.372   2.030   5.925
    1U      O2'   26   1.403   1.885   6.045
    1U     HO'2   27   1.360   1.822   5.980
    1U      O3'   28   1.653   1.858   5.945
    2U        P   29   1.610   1.704   5.928
    2U      O1P   30   1.483   1.700   5.851
    2U      O2P   31   1.618   1.639   6.060
    2U      O5'   32   1.725   1.643   5.835
    2U      C5'   33   1.858   1.626   5.884
    2U     H5'1   34   1.858   1.548   5.947
    2U     H5'2   35   1.884   1.709   5.933
    2U      C4'   36   1.953   1.601   5.770
    2U      H4'   37   2.043   1.592   5.812
    2U      O4'   38   1.910   1.481   5.699
    2U      C1'   39   1.866   1.515   5.569
    2U      H1'   40   1.933   1.485   5.501
    2U       N1   41   1.742   1.441   5.541
    2U       C6   42   1.643   1.429   5.636
    2U       H6   43   1.657   1.472   5.725
    2U       C5   44   1.529   1.362   5.613
    2U       H5   45   1.459   1.356   5.684
    2U       C4   46   1.508   1.299   5.487
    2U       O4   47   1.408   1.234   5.454
    2U       N3   48   1.611   1.314   5.397
    2U       H3   49   1.599   1.271   5.308
    2U       C2   50   1.728   1.382   5.417
    2U       O2   51   1.814   1.390   5.330
    2U      C3'   52   1.957   1.710   5.664
    2U      H3'   53   1.947   1.803   5.699
    2U      C2'   54   1.849   1.667   5.566
    2U     H2'1   55   1.758   1.705   5.584
    2U      O2'   56   1.876   1.713   5.435
    2U     HO'2   57   1.865   1.812   5.432
    2U      O3'   58   2.085   1.719   5.602
    3U        P   59   2.198   1.815   5.664
    3U      O1P   60   2.318   1.805   5.578
    3U      O2P   61   2.210   1.786   5.810
    3U      O5'   62   2.137   1.961   5.648
    3U      C5'   63   2.076   2.002   5.526
    3U     H5'1   64   1.990   1.953   5.517
    3U     H5'2   65   2.137   1.977   5.451
    3U      C4'   66   2.052   2.152   5.527
    3U      H4'   67   2.042   2.178   5.431
    3U      O4'   68   1.933   2.180   5.605
    3U      C1'   69   1.951   2.300   5.677
    3U      H1'   70   1.877   2.363   5.654
    3U       N1   71   1.939   2.271   5.821
    3U       C6   72   2.001   2.162   5.877
    3U       H6   73   2.055   2.102   5.818
    3U       C5   74   1.992   2.133   6.007
    3U       H5   75   2.040   2.053   6.044
    3U       C4   76   1.914   2.216   6.093
    3U       O4   77   1.899   2.201   6.214
    3U       N3   78   1.854   2.323   6.031
    3U       H3   79   1.799   2.383   6.089
    3U       C2   80   1.862   2.356   5.898
    3U       O2   81   1.805   2.453   5.852
    3U      C3'   82   2.162   2.235   5.592
    3U      H3'   83   2.214   2.189   5.664
    3U      C2'   84   2.087   2.359   5.638
    3U     H2'1   85   2.135   2.414   5.706
    3U      O2'   86   2.067   2.449   5.530
    3U     HO'2   87   2.155   2.489   5.503
    3U      O3'   88   2.266   2.265   5.500
    4U        P   89   2.416   2.216   5.531
    4U      O1P   90   2.418   2.068   5.520
    4U      O2P   91   2.461   2.281   5.657
    4U      O5'   92   2.502   2.275   5.411
    4U      C5'   93   2.489   2.412   5.371
    4U     H5'1   94   2.510   2.470   5.450
    4U     H5'2   95   2.395   2.427   5.342
    4U      C4'   96   2.584   2.442   5.258
    4U      H4'   97   2.551   2.528   5.218
    4U      O4'   98   2.719   2.453   5.312
    4U      C1'   99   2.801   2.352   5.256
    4U      H1'  100   2.862   2.390   5.186
    4U       N1  101   2.889   2.300   5.361
    4U       C6  102   2.839   2.262   5.484
    4U       H6  103   2.741   2.271   5.501
    4U       C5  104   2.918   2.214   5.581
    4U       H5  105   2.878   2.187   5.669
    4U       C4  106   3.058   2.201   5.560
    4U       O4  107   3.140   2.158   5.641
    4U       N3  108   3.101   2.241   5.435
    4U       H3  109   3.199   2.233   5.417
    4U       C2  110   3.024   2.291   5.333
    4U       O2  111   3.072   2.324   5.227
    4U      C3'  112   2.592   2.336   5.149
    4U      H3'  113   2.507   2.287   5.131
    4U      C2'  114   2.707   2.248   5.196
    4U     H2'1  115   2.680   2.171   5.253
    4U      O2'  116   2.773   2.185   5.087
    4U     HO'2  117   2.713   2.116   5.047
    4U      O3'  118   2.617   2.394   5.021
    5U        P  119   2.537   2.342   4.892
    5U      O1P  120   2.394   2.332   4.928
    5U      O2P  121   2.608   2.222   4.839
    5U      O5'  122   2.553   2.460   4.786
    5U      C5'  123   2.525   2.595   4.821
    5U     H5'1  124   2.582   2.619   4.900
    5U     H5'2  125   2.429   2.601   4.847
    5U      C4'  126   2.554   2.687   4.705
    5U      H4'  127   2.487   2.761   4.713
    5U      O4'  128   2.691   2.734   4.715
    5U      C1'  129   2.752   2.734   4.587
    5U      H1'  130   2.796   2.822   4.569
    5U       N1  131   2.860   2.635   4.587
    5U       C6  132   2.853   2.522   4.665
    5U       H6  133   2.773   2.508   4.723
    5U       C5  134   2.950   2.430   4.666
    5U       H5  135   2.941   2.349   4.723
    5U       C4  136   3.066   2.448   4.585
    5U       O4  137   3.162   2.370   4.578
    5U       N3  138   3.067   2.563   4.510
    5U       H3  139   3.147   2.578   4.452
    5U       C2  140   2.969   2.659   4.506
    5U       O2  141   2.979   2.758   4.436
    5U      C3'  142   2.545   2.622   4.567
    5U      H3'  143   2.562   2.524   4.565
    5U      C2'  144   2.642   2.706   4.485
    5U     H2'1  145   2.670   2.666   4.398
    5U      O2'  146   2.583   2.829   4.446
    5U     HO'2  147   2.511   2.812   4.379
    5U      O3'  148   2.412   2.625   4.514
    5U      H3T  149   2.411   2.582   4.424
    6SOL     OW  150   0.355   0.147   0.481
    6SOL    HW2  151   0.448   0.161   0.466
    6SOL    HW3  152   0.312   0.218   0.433
    6SOL    MW4  153   0.361   0.158   0.472
    7SOL     OW  154   3.984   0.231   0.489
    7SOL    HW2  155   4.062   0.181   0.469
    7SOL    HW3  156   3.990   0.309   0.433
    7SOL    MW4  157   3.995   0.235   0.479
    8SOL     OW  158   3.790   0.311   0.132
    8SOL    HW2  159   3.714   0.293   0.075
    8SOL    HW3  160   3.773   0.260   0.211
    8SOL    MW4  161   3.777   0.302   0.135
    9SOL     OW  162   4.462   1.673   0.514
    9SOL    HW2  163   4.486   1.657   0.606
    9SOL    HW3  164   4.537   1.641   0.464
    9SOL    MW4  165   4.475   1.667   0.520
   10SOL     OW  166   1.324   0.826   0.288
   10SOL    HW2  167   1.230   0.835   0.306
   10SOL    HW3  168   1.328   0.792   0.199
   10SOL    MW4  169   1.312   0.822   0.279
   11SOL     OW  170   0.166   0.552   0.486
   11SOL    HW2  171   0.179   0.549   0.581
   11SOL    HW3  172   0.146   0.461   0.462
   11SOL    MW4  173   0.165   0.539   0.496
   12SOL     OW  174   0.416   0.913   0.476
   12SOL    HW2  175   0.438   0.886   0.565
   12SOL    HW3  176   0.397   0.831   0.430
   12SOL    MW4  177   0.416   0.898   0.482
   13SOL     OW  178   0.782   0.858   0.443
   13SOL    HW2  179   0.823   0.895   0.521
   13SOL    HW3  180   0.748   0.935   0.396
   13SOL    MW4  181   0.783   0.873   0.447
   14SOL     OW  182   0.624   1.042   0.308
   14SOL    HW2  183   0.594   1.056   0.219
   14SOL    HW3  184   0.545   1.018   0.357
   14SOL    MW4  185   0.610   1.041   0.303
   15SOL     OW  186   4.284   1.808   0.172
   15SOL    HW2  187   4.260   1.753   0.247
   15SOL    HW3  188   4.248   1.895   0.194
   15SOL    MW4  189   4.276   1.812   0.185
   16SOL     OW  190   4.213   1.628   0.400
   16SOL    HW2  191   4.153   1.695   0.432
   16SOL    HW3  192   4.295   1.643   0.448
   16SOL    MW4  193   4.216   1.639   0.411
   17SOL     OW  194   0.051   1.930   0.377
   17SOL    HW2  195   0.014   1.862   0.433
   17SOL    HW3  196   0.037   1.899   0.288
   17SOL    MW4  197   0.045   1.917   0.373
   18SOL     OW  198   0.157   2.495   0.334
   18SOL    HW2  199   0.106   2.477   0.255
   18SOL    HW3  200   0.248   2.491   0.306
   18SOL    MW4  201   0.162   2.492   0.320
   19SOL     OW  202   4.310   2.814   0.476
   19SOL    HW2  203   4.402   2.787   0.475
   19SOL    HW3  204   4.314   2.910   0.479
   19SOL    MW4  205   4.323   2.823   0.477
   20SOL     OW  206   4.284   3.411   0.438
   20SOL    HW2  207   4.223   3.343   0.468
   20SOL    HW3  208   4.356   3.362   0.399
   20SOL    MW4  209   4.285   3.395   0.437
   21SOL     OW  210   0.328   3.212   0.323
   21SOL    HW2  211   0.357   3.204   0.414
   21SOL    HW3  212   0.404   3.247   0.276
   21SOL    MW4  213   0.342   3.216   0.329
   22SOL     OW  214   0.844   3.411   0.387
   22SOL    HW2  215   0.892   3.457   0.317
   22SOL    HW3  216   0.818   3.480   0.448
   22SOL    MW4  217   0.847   3.426   0.386
   23SOL     OW  218   0.972   3.808   0.287
   23SOL    HW2  219   1.030   3.884   0.296
   23SOL    HW3  220   0.890   3.835   0.328
   23SOL    MW4  221   0.969   3.821   0.294
   24SOL     OW  222   3.815   3.350   0.431
   24SOL    HW2  223   3.817   3.439   0.468
   24SOL    HW3  224   3.905   3.334   0.403
   24SOL    MW4  225   3.827   3.360   0.432
   25SOL     OW  226   4.479   3.850   0.448
   25SOL    HW2  227   4.403   3.795   0.467
   25SOL    HW3  228   4.446   3.939   0.455
   25SOL    MW4  229   4.465   3.854   0.451
   26SOL     OW  230   0.203   4.545   0.507
   26SOL    HW2  231   0.251   4.623   0.480
   26SOL    HW3  232   0.199   4.490   0.429
   26SOL    MW4  233   0.208   4.548   0.493
   27SOL     OW  234   0.108   4.393   0.282
   27SOL    HW2  235   0.020   4.370   0.312
   27SOL    HW3  236   0.100   4.402   0.187
   27SOL    MW4  237   0.095   4.392   0.273
   28SOL     OW  238   4.335   4.323   0.397
   28SOL    HW2  239   4.310   4.244   0.445
   28SOL    HW3  240   4.254   4.374   0.391
   28SOL    MW4  241   4.321   4.319   0.403
   29SOL     OW  242   0.432   3.669   0.499
   29SOL    HW2  243   0.526   3.654   0.501
   29SOL    HW3  244   0.423   3.763   0.483
   29SOL    MW4  245   0.443   3.679   0.497
   30SOL     OW  246   0.737   0.008   0.357
   30SOL    HW2  247   0.830   0.006   0.378
   30SOL    HW3  248   0.727  -0.055   0.285
   30SOL    MW4  249   0.748  -0.001   0.350
   31SOL     OW  250   0.106   0.263   0.398
   31SOL    HW2  251   0.070   0.199   0.459
   31SOL    HW3  252   0.042   0.270   0.328
   31SOL    MW4  253   0.093   0.256   0.397
   32SOL     OW  254   4.378   0.566   0.482
   32SOL    HW2  255   4.473   0.565   0.479
   32SOL    HW3  256   4.354   0.656   0.463
   32SOL    MW4  257   4.387   0.577   0.479
   33SOL     OW  258   1.049   4.435   0.524
   33SOL    HW2  259   0.966   4.387   0.526
   33SOL    HW3  260   1.096   4.405   0.601
   33SOL    MW4  261   1.044   4.425   0.534
   34SOL     OW  262   1.062   0.803   0.358
   34SOL    HW2  263   0.968   0.813   0.374
   34SOL    HW3  264   1.087   0.727   0.411
   34SOL    MW4  265   1.053   0.794   0.367
   35SOL     OW  266   0.583   0.469   0.258
   35SOL    HW2  267   0.666   0.496   0.219
   35SOL    HW3  268   0.606   0.395   0.314
   35SOL    MW4  269   0.597   0.463   0.260
   36SOL     OW  270   0.180   1.083   0.496
   36SOL    HW2  271   0.101   1.029   0.496
   36SOL    HW3  272   0.252   1.021   0.485
   36SOL    MW4  273   0.179   1.068   0.495
   37SOL     OW  274   0.459   1.626   0.480
   37SOL    HW2  275   0.526   1.557   0.476
   37SOL    HW3  276   0.389   1.595   0.422
   37SOL    MW4  277   0.458   1.613   0.472
   38SOL     OW  278   0.205   1.625   0.337
   38SOL    HW2  279   0.162   1.539   0.338
   38SOL    HW3  280   0.173   1.667   0.257
   38SOL    MW4  281   0.195   1.619   0.326
   39SOL     OW  282   0.418   2.496   0.222
   39SOL    HW2  283   0.496   2.449   0.253
   39SOL    HW3  284   0.440   2.588   0.233
   39SOL    MW4  285   0.431   2.502   0.228
   40SOL     OW  286   0.072   2.732   0.489
   40SOL    HW2  287   0.086   2.654   0.435
   40SOL    HW3  288   0.135   2.796   0.456
   40SOL    MW4  289   0.083   2.730   0.477
   41SOL     OW  290   3.868   2.281   0.268
   41SOL    HW2  291   3.893   2.371   0.289
   41SOL    HW3  292   3.882   2.274   0.173
   41SOL    MW4  293   3.873   2.292   0.258
   42SOL     OW  294   0.589   2.540   0.526
   42SOL    HW2  295   0.563   2.462   0.477
   42SOL    HW3  296   0.679   2.557   0.497
   42SOL    MW4  297   0.598   2.532   0.516
   43SOL     OW  298   0.499   2.739   0.330
   43SOL    HW2  299   0.528   2.680   0.400
   43SOL    HW3  300   0.555   2.816   0.339
   43SOL    MW4  301   0.510   2.741   0.341
   44SOL     OW  302   4.342   3.085   0.482
   44SOL    HW2  303   4.259   3.131   0.491
   44SOL    HW3  304   4.404   3.137   0.533
   44SOL    MW4  305   4.340   3.098   0.490
   45SOL     OW  306   0.288   2.917   0.374
   45SOL    HW2  307   0.305   3.000   0.329
   45SOL    HW3  308   0.366   2.864   0.357
   45SOL    MW4  309   0.301   2.921   0.366
   46SOL     OW  310   0.802   4.452   0.208
   46SOL    HW2  311   0.784   4.429   0.117
   46SOL    HW3  312   0.895   4.434   0.219
   46SOL    MW4  313   0.812   4.446   0.197
   47SOL     OW  314   0.105   3.350   0.414
   47SOL    HW2  315   0.125   3.443   0.423
   47SOL    HW3  316   0.175   3.315   0.360
   47SOL    MW4  317   0.117   3.357   0.408
   48SOL     OW  318   0.722   3.623   0.529
   48SOL    HW2  319   0.714   3.712   0.494
   48SOL    HW3  320   0.704   3.632   0.622
   48SOL    MW4  321   0.718   3.636   0.537
   49SOL     OW  322   1.156   3.639   0.447
   49SOL    HW2  323   1.071   3.672   0.417
   49SOL    HW3  324   1.173   3.563   0.391
   49SOL    MW4  325   1.147   3.633   0.436
   50SOL     OW  326   0.450   3.956   0.441
   50SOL    HW2  327   0.436   3.994   0.527
   50SOL    HW3  328   0.367   3.968   0.395
   50SOL    MW4  329   0.437   3.962   0.446
   51SOL     OW  330   0.987   3.567   0.198
   51SOL    HW2  331   0.954   3.557   0.108
   51SOL    HW3  332   0.980   3.661   0.215
   51SOL    MW4  333   0.982   3.578   0.188
   52SOL     OW  334   0.746   4.395   0.504
   52SOL    HW2  335   0.712   4.462   0.445
   52SOL    HW3  336   0.725   4.427   0.591
   52SOL    MW4  337   0.739   4.408   0.508
   53SOL     OW  338   0.613   0.237   0.450
   53SOL    HW2  339   0.665   0.165   0.415
   53SOL    HW3  340   0.662   0.266   0.527
   53SOL    MW4  341   0.627   0.232   0.456
   54SOL     OW  342   0.681   0.602   0.514
   54SOL    HW2  343   0.717   0.688   0.495
   54SOL    HW3  344   0.628   0.580   0.437
   54SOL    MW4  345   0.679   0.610   0.501
   55SOL     OW  346   0.363   0.665   0.328
   55SOL    HW2  347   0.289   0.635   0.381
   55SOL    HW3  348   0.420   0.588   0.321
   55SOL    MW4  349   0.361   0.651   0.334
   56SOL     OW  350   1.378   0.555   0.329
   56SOL    HW2  351   1.365   0.650   0.329
   56SOL    HW3  352   1.469   0.543   0.358
   56SOL    MW4  353   1.389   0.566   0.333
   57SOL     OW  354   1.799   0.693   0.263
   57SOL    HW2  355   1.782   0.787   0.271
   57SOL    HW3  356   1.735   0.653   0.323
   57SOL    MW4  357   1.788   0.700   0.272
   58SOL     OW  358   1.487   0.972   0.458
   58SOL    HW2  359   1.427   0.935   0.393
   58SOL    HW3  360   1.445   0.955   0.542
   58SOL    MW4  361   1.474   0.965   0.460
   59SOL     OW  362   0.678   1.451   0.522
   59SOL    HW2  363   0.694   1.362   0.489
   59SOL    HW3  364   0.766   1.488   0.532
   59SOL    MW4  365   0.692   1.444   0.519
   60SOL     OW  366   0.781   1.202   0.487
   60SOL    HW2  367   0.745   1.160   0.409
   60SOL    HW3  368   0.869   1.230   0.461
   60SOL    MW4  369   0.788   1.200   0.473
   61SOL     OW  370   1.737   1.395   0.446
   61SOL    HW2  371   1.776   1.482   0.440
   61SOL    HW3  372   1.812   1.335   0.446
   61SOL    MW4  373   1.752   1.398   0.445
   62SOL     OW  374   1.036   1.368   0.480
   62SOL    HW2  375   1.124   1.377   0.445
   62SOL    HW3  376   1.005   1.459   0.489
   62SOL    MW4  377   1.043   1.381   0.476
   63SOL     OW  378   0.928   1.619   0.533
   63SOL    HW2  379   1.016   1.654   0.518
   63SOL    HW3  380   0.916   1.625   0.628
   63SOL    MW4  381   0.938   1.625   0.544
   64SOL     OW  382   0.315   1.900   0.430
   64SOL    HW2  383   0.223   1.905   0.406
   64SOL    HW3  384   0.331   1.806   0.443
   64SOL    MW4  385   0.305   1.888   0.428
   65SOL     OW  386   0.700   1.790   0.465
   65SOL    HW2  387   0.769   1.728   0.486
   65SOL    HW3  388   0.620   1.737   0.465
   65SOL    MW4  389   0.698   1.774   0.468
   66SOL     OW  390   0.856   2.546   0.468
   66SOL    HW2  391   0.863   2.460   0.428
   66SOL    HW3  392   0.893   2.535   0.555
   66SOL    MW4  393   0.862   2.533   0.474
   67SOL     OW  394   0.565   2.041   0.464
   67SOL    HW2  395   0.620   1.966   0.440
   67SOL    HW3  396   0.477   2.015   0.439
   67SOL    MW4  397   0.561   2.028   0.457
   68SOL     OW  398   1.096   2.685   0.417
   68SOL    HW2  399   1.023   2.624   0.410
   68SOL    HW3  400   1.058   2.771   0.399
   68SOL    MW4  401   1.081   2.688   0.414
   69SOL     OW  402   0.608   2.314   0.346
   69SOL    HW2  403   0.694   2.301   0.306
   69SOL    HW3  404   0.581   2.225   0.372
   69SOL    MW4  405   0.616   2.300   0.344
   70SOL     OW  406   0.695   2.937   0.454
   70SOL    HW2  407   0.731   2.915   0.540
   70SOL    HW3  408   0.674   3.030   0.460
   70SOL    MW4  409   0.697   2.946   0.466
   71SOL     OW  410   1.014   3.236   0.479
   71SOL    HW2  411   0.989   3.217   0.569
   71SOL    HW3  412   0.948   3.298   0.448
   71SOL    MW4  413   1.002   3.242   0.486
   72SOL     OW  414   1.395   3.779   0.506
   72SOL    HW2  415   1.465   3.717   0.486
   72SOL    HW3  416   1.316   3.737   0.472
   72SOL    MW4  417   1.394   3.765   0.499
   73SOL     OW  418   1.079   4.063   0.381
   73SOL    HW2  419   1.097   4.138   0.323
   73SOL    HW3  420   1.000   4.088   0.428
   73SOL    MW4  421   1.071   4.077   0.379
   74SOL     OW  422   0.711   3.890   0.411
   74SOL    HW2  423   0.767   3.958   0.448
   74SOL    HW3  424   0.622   3.924   0.420
   74SOL    MW4  425   0.706   3.903   0.417
   75SOL     OW  426   1.088   4.422   0.261
   75SOL    HW2  427   1.169   4.448   0.217
   75SOL    HW3  428   1.108   4.426   0.354
   75SOL    MW4  429   1.101   4.426   0.267
   76SOL     OW  430   1.145   0.505   0.461
   76SOL    HW2  431   1.139   0.409   0.468
   76SOL    HW3  432   1.229   0.520   0.417
   76SOL    MW4  433   1.156   0.494   0.456
   77SOL     OW  434   0.982   0.037   0.485
   77SOL    HW2  435   1.020  -0.051   0.490
   77SOL    HW3  436   0.947   0.053   0.572
   77SOL    MW4  437   0.983   0.028   0.497
   78SOL     OW  438   1.449   0.272   0.283
   78SOL    HW2  439   1.544   0.282   0.293
   78SOL    HW3  440   1.418   0.362   0.268
   78SOL    MW4  441   1.458   0.285   0.283
   79SOL     OW  442   1.635   0.537   0.443
   79SOL    HW2  443   1.678   0.456   0.416
   79SOL    HW3  444   1.623   0.528   0.537
   79SOL    MW4  445   1.639   0.525   0.452
   80SOL     OW  446   1.178   0.226   0.482
   80SOL    HW2  447   1.106   0.163   0.478
   80SOL    HW3  448   1.238   0.199   0.413
   80SOL    MW4  449   1.177   0.214   0.473
   81SOL     OW  450   1.969   0.469   0.244
   81SOL    HW2  451   2.014   0.437   0.165
   81SOL    HW3  452   1.920   0.546   0.214
   81SOL    MW4  453   1.969   0.475   0.229
   82SOL     OW  454   2.214   0.802   0.477
   82SOL    HW2  455   2.178   0.713   0.471
   82SOL    HW3  456   2.298   0.797   0.432
   82SOL    MW4  457   2.220   0.789   0.470
   83SOL     OW  458   1.761   0.950   0.439
   83SOL    HW2  459   1.784   0.904   0.520
   83SOL    HW3  460   1.665   0.949   0.438
   83SOL    MW4  461   1.751   0.944   0.450
   84SOL     OW  462   1.483   1.269   0.461
   84SOL    HW2  463   1.474   1.173   0.464
   84SOL    HW3  464   1.570   1.283   0.425
   84SOL    MW4  465   1.493   1.258   0.457
   85SOL     OW  466   1.304   1.462   0.361
   85SOL    HW2  467   1.374   1.411   0.401
   85SOL    HW3  468   1.303   1.433   0.270
   85SOL    MW4  469   1.313   1.451   0.354
   86SOL     OW  470   1.200   1.694   0.486
   86SOL    HW2  471   1.248   1.659   0.561
   86SOL    HW3  472   1.221   1.634   0.414
   86SOL    MW4  473   1.209   1.681   0.486
   87SOL     OW  474   1.151   2.178   0.286
   87SOL    HW2  475   1.225   2.233   0.312
   87SOL    HW3  476   1.174   2.090   0.317
   87SOL    MW4  477   1.164   2.173   0.293
   88SOL     OW  478   1.340   2.548   0.466
   88SOL    HW2  479   1.258   2.596   0.452
   88SOL    HW3  480   1.408   2.615   0.461
   88SOL    MW4  481   1.338   2.563   0.463
   89SOL     OW  482   1.950   2.149   0.450
   89SOL    HW2  483   1.960   2.114   0.538
   89SOL    HW3  484   2.007   2.094   0.396
   89SOL    MW4  485   1.959   2.137   0.455
   90SOL     OW  486   1.517   2.044   0.487
   90SOL    HW2  487   1.511   2.130   0.444
   90SOL    HW3  488   1.430   2.005   0.474
   90SOL    MW4  489   1.504   2.050   0.480
   91SOL     OW  490   0.898   2.280   0.359
   91SOL    HW2  491   0.905   2.226   0.439
   91SOL    HW3  492   0.982   2.268   0.315
   91SOL    MW4  493   0.910   2.271   0.364
   92SOL     OW  494   1.007   2.961   0.405
   92SOL    HW2  495   0.921   2.946   0.366
   92SOL    HW3  496   1.006   3.053   0.431
   92SOL    MW4  497   0.996   2.971   0.403
   93SOL     OW  498   2.107   2.419   0.433
   93SOL    HW2  499   2.199   2.405   0.453
   93SOL    HW3  500   2.067   2.332   0.439
   93SOL    MW4  501   2.114   2.406   0.437
   94SOL     OW  502   1.720   4.107   0.510
   94SOL    HW2  503   1.656   4.160   0.463
   94SOL    HW3  504   1.710   4.019   0.473
   94SOL    MW4  505   1.710   4.102   0.499
   95SOL     OW  506   1.350   4.038   0.434
   95SOL    HW2  507   1.368   3.950   0.467
   95SOL    HW3  508   1.257   4.037   0.412
   95SOL    MW4  509   1.340   4.026   0.436
   96SOL     OW  510   1.748   2.837   0.347
   96SOL    HW2  511   1.661   2.804   0.368
   96SOL    HW3  512   1.808   2.778   0.394
   96SOL    MW4  513   1.745   2.825   0.356
   97SOL     OW  514   1.678   3.620   0.256
   97SOL    HW2  515   1.763   3.578   0.243
   97SOL    HW3  516   1.621   3.550   0.286
   97SOL    MW4  517   1.682   3.605   0.258
   98SOL     OW  518   1.294   3.251   0.476
   98SOL    HW2  519   1.315   3.164   0.444
   98SOL    HW3  520   1.199   3.258   0.468
   98SOL    MW4  521   1.284   3.241   0.470
   99SOL     OW  522   1.583   3.392   0.440
   99SOL    HW2  523   1.504   3.371   0.488
   99SOL    HW3  524   1.616   3.307   0.409
   99SOL    MW4  525   1.577   3.378   0.442
  100SOL     OW  526   0.846   4.128   0.489
  100SOL    HW2  527   0.831   4.096   0.578
  100SOL    HW3  528   0.797   4.210   0.485
  100SOL    MW4  529   0.837   4.135   0.500
  101SOL     OW  530   2.274   0.001   0.605
  101SOL    HW2  531   2.242  -0.085   0.578
  101SOL    HW3  532   2.370  -0.005   0.597
  101SOL    MW4  533   2.283  -0.011   0.600
  102SOL     OW  534   1.840   4.515   0.398
  102SOL    HW2  535   1.748   4.492   0.409
  102SOL    HW3  536   1.884   4.431   0.382
  102SOL    MW4  537   1.834   4.501   0.398
  103SOL     OW  538   1.888   0.112   0.465
  103SOL    HW2  539   1.860   0.119   0.556
  103SOL    HW3  540   1.871   0.021   0.441
  103SOL    MW4  541   1.882   0.101   0.474
  104SOL     OW  542   1.398   0.015   0.351
  104SOL    HW2  543   1.423   0.102   0.322
  104SOL    HW3  544   1.468  -0.012   0.411
  104SOL    MW4  545   1.410   0.023   0.355
  105SOL     OW  546   2.149   0.458   0.451
  105SOL    HW2  547   2.135   0.365   0.474
  105SOL    HW3  548   2.109   0.467   0.365
  105SOL    MW4  549   2.142   0.447   0.443
  106SOL     OW  550   2.382   1.531   0.435
  106SOL    HW2  551   2.325   1.475   0.488
  106SOL    HW3  552   2.326   1.604   0.408
  106SOL    MW4  553   2.367   1.533   0.439
  107SOL     OW  554   2.182   1.082   0.447
  107SOL    HW2  555   2.275   1.097   0.466
  107SOL    HW3  556   2.172   0.987   0.447
  107SOL    MW4  557   2.193   1.071   0.450
  108SOL     OW  558   1.918   1.169   0.487
  108SOL    HW2  559   1.865   1.091   0.472
  108SOL    HW3  560   2.005   1.146   0.455
  108SOL    MW4  561   1.923   1.156   0.481
  109SOL     OW  562   2.598   1.349   0.364
  109SOL    HW2  563   2.675   1.403   0.345
  109SOL    HW3  564   2.530   1.412   0.389
  109SOL    MW4  565   2.599   1.365   0.365
  110SOL     OW  566   2.160   1.719   0.471
  110SOL    HW2  567   2.164   1.811   0.446
  110SOL    HW3  568   2.067   1.701   0.483
  110SOL    MW4  569   2.149   1.729   0.470
  111SOL     OW  570   1.773   1.930   0.412
  111SOL    HW2  571   1.811   2.017   0.402
  111SOL    HW3  572   1.680   1.945   0.425
  111SOL    MW4  573   1.766   1.943   0.412
  112SOL     OW  574   2.373   2.406   0.534
  112SOL    HW2  575   2.450   2.462   0.525
  112SOL    HW3  576   2.328   2.441   0.612
  112SOL    MW4  577   2.377   2.418   0.543
  113SOL     OW  578   1.914   3.262   0.484
  113SOL    HW2  579   1.976   3.194   0.460
  113SOL    HW3  580   1.929   3.331   0.419
  113SOL    MW4  581   1.924   3.262   0.472
  114SOL     OW  582   1.495   2.771   0.443
  114SOL    HW2  583   1.444   2.851   0.433
  114SOL    HW3  584   1.535   2.779   0.530
  114SOL    MW4  585   1.494   2.783   0.453
  115SOL     OW  586   1.318   2.993   0.370
  115SOL    HW2  587   1.363   3.010   0.287
  115SOL    HW3  588   1.227   2.976   0.343
  115SOL    MW4  589   1.312   2.993   0.355
  116SOL     OW  590   1.245   1.977   0.479
  116SOL    HW2  591   1.191   1.987   0.557
  116SOL    HW3  592   1.245   1.883   0.462
  116SOL    MW4  593   1.238   1.966   0.487
  117SOL     OW  594   3.601   2.339   0.388
  117SOL    HW2  595   3.662   2.301   0.325
  117SOL    HW3  596   3.595   2.274   0.458
  117SOL    MW4  597   3.608   2.325   0.389
  118SOL     OW  598   1.923   2.661   0.473
  118SOL    HW2  599   1.956   2.712   0.546
  118SOL    HW3  600   1.992   2.596   0.457
  118SOL    MW4  601   1.937   2.659   0.480
  119SOL     OW  602   1.513   2.305   0.402
  119SOL    HW2  603   1.607   2.325   0.409
  119SOL    HW3  604   1.470   2.388   0.420
  119SOL    MW4  605   1.520   2.319   0.406
  120SOL     OW  606   1.673   3.113   0.414
  120SOL    HW2  607   1.699   3.025   0.387
  120SOL    HW3  608   1.753   3.153   0.449
  120SOL    MW4  609   1.687   3.107   0.415
  121SOL     OW  610   2.273   3.191   0.479
  121SOL    HW2  611   2.206   3.124   0.467
  121SOL    HW3  612   2.255   3.227   0.566
  121SOL    MW4  613   2.262   3.187   0.489
  122SOL     OW  614   1.788   3.836   0.420
  122SOL    HW2  615   1.756   3.789   0.343
  122SOL    HW3  616   1.883   3.821   0.420
  122SOL    MW4  617   1.796   3.828   0.410
  123SOL     OW  618   1.508   4.249   0.352
  123SOL    HW2  619   1.464   4.177   0.397
  123SOL    HW3  620   1.442   4.284   0.292
  123SOL    MW4  621   1.494   4.244   0.350
  124SOL     OW  622   1.580   4.497   0.469
  124SOL    HW2  623   1.588   4.475   0.562
  124SOL    HW3  624   1.559   4.413   0.427
  124SOL    MW4  625   1.578   4.483   0.476
  125SOL     OW  626   1.351   4.471   0.188
  125SOL    HW2  627   1.370   4.533   0.258
  125SOL    HW3  628   1.369   4.520   0.107
  125SOL    MW4  629   1.356   4.486   0.186
  126SOL     OW  630   2.419   0.193   0.351
  126SOL    HW2  631   2.453   0.136   0.420
  126SOL    HW3  632   2.324   0.190   0.361
  126SOL    MW4  633   2.411   0.185   0.361
  127SOL     OW  634   2.151   0.178   0.458
  127SOL    HW2  635   2.175   0.107   0.518
  127SOL    HW3  636   2.056   0.169   0.448
  127SOL    MW4  637   2.142   0.167   0.464
  128SOL     OW  638   2.690   0.929   0.499
  128SOL    HW2  639   2.639   0.855   0.465
  128SOL    HW3  640   2.772   0.927   0.451
  128SOL    MW4  641   2.694   0.919   0.488
  129SOL     OW  642   2.477   0.746   0.390
  129SOL    HW2  643   2.468   0.652   0.409
  129SOL    HW3  644   2.522   0.748   0.305
  129SOL    MW4  645   2.482   0.734   0.381
  130SOL     OW  646   2.905   0.897   0.131
  130SOL    HW2  647   2.915   0.933   0.219
  130SOL    HW3  648   2.982   0.842   0.118
  130SOL    MW4  649   2.916   0.894   0.141
  131SOL     OW  650   2.946   1.000   0.397
  131SOL    HW2  651   3.017   0.981   0.458
  131SOL    HW3  652   2.914   1.086   0.423
  131SOL    MW4  653   2.951   1.009   0.408
  132SOL     OW  654   2.960   1.247   0.503
  132SOL    HW2  655   2.934   1.336   0.479
  132SOL    HW3  656   2.926   1.235   0.592
  132SOL    MW4  657   2.952   1.257   0.511
  133SOL     OW  658   2.732   1.664   0.429
  133SOL    HW2  659   2.717   1.696   0.518
  133SOL    HW3  660   2.694   1.732   0.373
  133SOL    MW4  661   2.725   1.677   0.433
  134SOL     OW  662   2.809   0.674   0.366
  134SOL    HW2  663   2.892   0.714   0.341
  134SOL    HW3  664   2.750   0.692   0.293
  134SOL    MW4  665   2.812   0.681   0.353
  135SOL     OW  666   2.212   2.003   0.336
  135SOL    HW2  667   2.287   2.045   0.378
  135SOL    HW3  668   2.234   1.999   0.244
  135SOL    MW4  669   2.225   2.008   0.330
  136SOL     OW  670   1.890   1.675   0.481
  136SOL    HW2  671   1.850   1.675   0.568
  136SOL    HW3  672   1.870   1.762   0.446
  136SOL    MW4  673   1.882   1.687   0.488
  137SOL     OW  674   2.425   2.138   0.475
  137SOL    HW2  675   2.405   2.228   0.501
  137SOL    HW3  676   2.520   2.138   0.458
  137SOL    MW4  677   2.435   2.150   0.476
  138SOL     OW  678   2.706   2.165   0.441
  138SOL    HW2  679   2.737   2.252   0.413
  138SOL    HW3  680   2.774   2.134   0.500
  138SOL    MW4  681   2.719   2.173   0.445
  139SOL     OW  682   2.577   2.793   0.462
  139SOL    HW2  683   2.577   2.864   0.398
  139SOL    HW3  684   2.526   2.826   0.536
  139SOL    MW4  685   2.571   2.807   0.463
  140SOL     OW  686   1.769   2.407   0.441
  140SOL    HW2  687   1.837   2.341   0.428
  140SOL    HW3  688   1.807   2.488   0.408
  140SOL    MW4  689   1.783   2.409   0.435
  141SOL     OW  690   2.050   3.014   0.468
  141SOL    HW2  691   2.034   2.964   0.548
  141SOL    HW3  692   2.000   2.968   0.400
  141SOL    MW4  693   2.041   3.001   0.469
  142SOL     OW  694   2.034   3.702   0.485
  142SOL    HW2  695   2.129   3.711   0.477
  142SOL    HW3  696   2.019   3.680   0.577
  142SOL    MW4  697   2.044   3.700   0.496
  143SOL     OW  698   2.188   4.063   0.445
  143SOL    HW2  699   2.199   3.995   0.379
  143SOL    HW3  700   2.264   4.120   0.433
  143SOL    MW4  701   2.200   4.062   0.435
  144SOL     OW  702   1.628   3.631   0.564
  144SOL    HW2  703   1.635   3.538   0.541
  144SOL    HW3  704   1.705   3.671   0.525
  144SOL    MW4  705   1.639   3.624   0.556
  145SOL     OW  706   1.921   3.494   0.315
  145SOL    HW2  707   1.990   3.471   0.253
  145SOL    HW3  708   1.957   3.568   0.364
  145SOL    MW4  709   1.935   3.501   0.314
  146SOL     OW  710   2.098   4.472   0.519
  146SOL    HW2  711   2.085   4.378   0.514
  146SOL    HW3  712   2.019   4.510   0.481
  146SOL    MW4  713   2.086   4.465   0.513
  147SOL     OW  714   1.976   4.232   0.451
  147SOL    HW2  715   1.902   4.173   0.464
  147SOL    HW3  716   2.051   4.174   0.436
  147SOL    MW4  717   1.976   4.217   0.450
  148SOL     OW  718   2.400   4.266   0.427
  148SOL    HW2  719   2.405   4.303   0.515
  148SOL    HW3  720   2.443   4.332   0.372
  148SOL    MW4  721   2.407   4.280   0.431
  149SOL     OW  722   2.329   3.898   0.261
  149SOL    HW2  723   2.300   3.866   0.176
  149SOL    HW3  724   2.310   3.826   0.321
  149SOL    MW4  725   2.323   3.884   0.258
  150SOL     OW  726   2.773   3.919   0.507
  150SOL    HW2  727   2.692   3.948   0.465
  150SOL    HW3  728   2.835   3.990   0.490
  150SOL    MW4  729   2.770   3.932   0.499
  151SOL     OW  730   2.443   0.470   0.445
  151SOL    HW2  731   2.348   0.474   0.435
  151SOL    HW3  732   2.466   0.382   0.415
  151SOL    MW4  733   2.434   0.459   0.440
  152SOL     OW  734   1.740   0.305   0.341
  152SOL    HW2  735   1.811   0.356   0.302
  152SOL    HW3  736   1.784   0.231   0.384
  152SOL    MW4  737   1.755   0.302   0.341
  153SOL     OW  738   3.138   0.373   0.376
  153SOL    HW2  739   3.229   0.402   0.372
  153SOL    HW3  740   3.143   0.279   0.391
  153SOL    MW4  741   3.150   0.365   0.377
  154SOL     OW  742   2.467   1.115   0.474
  154SOL    HW2  743   2.514   1.180   0.422
  154SOL    HW3  744   2.526   1.040   0.480
  154SOL    MW4  745   2.481   1.114   0.468
  155SOL     OW  746   3.261   0.784   0.429
  155SOL    HW2  747   3.336   0.841   0.414
  155SOL    HW3  748   3.219   0.819   0.507
  155SOL    MW4  749   3.266   0.796   0.437
  156SOL     OW  750   3.198   1.614   0.475
  156SOL    HW2  751   3.212   1.519   0.478
  156SOL    HW3  752   3.283   1.650   0.448
  156SOL    MW4  753   3.211   1.606   0.471
  157SOL     OW  754   3.195   1.192   0.366
  157SOL    HW2  755   3.158   1.161   0.284
  157SOL    HW3  756   3.119   1.213   0.421
  157SOL    MW4  757   3.180   1.191   0.362
  158SOL     OW  758   3.430   1.770   0.426
  158SOL    HW2  759   3.399   1.846   0.376
  158SOL    HW3  760   3.512   1.799   0.467
  158SOL    MW4  761   3.437   1.784   0.425
  159SOL     OW  762   2.763   0.195   0.617
  159SOL    HW2  763   2.756   0.258   0.688
  159SOL    HW3  764   2.801   0.244   0.545
  159SOL    MW4  765   2.767   0.209   0.617
  160SOL     OW  766   3.165   2.071   0.619
  160SOL    HW2  767   3.070   2.084   0.618
  160SOL    HW3  768   3.179   2.000   0.681
  160SOL    MW4  769   3.154   2.064   0.627
  161SOL     OW  770   2.825   2.416   0.303
  161SOL    HW2  771   2.852   2.399   0.212
  161SOL    HW3  772   2.908   2.418   0.351
  161SOL    MW4  773   2.840   2.414   0.297
  162SOL     OW  774   2.947   1.496   0.379
  162SOL    HW2  775   2.866   1.545   0.393
  162SOL    HW3  776   3.016   1.553   0.414
  162SOL    MW4  777   2.946   1.510   0.386
  163SOL     OW  778   2.620   2.521   0.471
  163SOL    HW2  779   2.598   2.612   0.451
  163SOL    HW3  780   2.682   2.496   0.403
  163SOL    MW4  781   2.625   2.530   0.460
  164SOL     OW  782   2.736   3.193   0.572
  164SOL    HW2  783   2.786   3.262   0.529
  164SOL    HW3  784   2.741   3.213   0.665
  164SOL    MW4  785   2.743   3.204   0.578
  165SOL     OW  786   2.856   3.393   0.422
  165SOL    HW2  787   2.946   3.361   0.422
  165SOL    HW3  788   2.864   3.488   0.434
  165SOL    MW4  789   2.869   3.401   0.424
  166SOL     OW  790   3.095   3.249   0.482
  166SOL    HW2  791   3.109   3.155   0.470
  166SOL    HW3  792   3.095   3.262   0.577
  166SOL    MW4  793   3.097   3.239   0.493
  167SOL     OW  794   2.355   3.461   0.360
  167SOL    HW2  795   2.446   3.451   0.334
  167SOL    HW3  796   2.341   3.394   0.427
  167SOL    MW4  797   2.365   3.451   0.365
  168SOL     OW  798   2.164   3.460   0.116
  168SOL    HW2  799   2.232   3.478   0.180
  168SOL    HW3  800   2.210   3.422   0.041
  168SOL    MW4  801   2.179   3.458   0.114
  169SOL     OW  802   3.626   3.473   0.241
  169SOL    HW2  803   3.668   3.416   0.305
  169SOL    HW3  804   3.532   3.456   0.251
  169SOL    MW4  805   3.619   3.463   0.251
  170SOL     OW  806   2.567   4.031   0.352
  170SOL    HW2  807   2.535   4.121   0.359
  170SOL    HW3  808   2.499   3.986   0.301
  170SOL    MW4  809   2.554   4.037   0.346
  171SOL     OW  810   2.304   3.705   0.463
  171SOL    HW2  811   2.334   3.694   0.553
  171SOL    HW3  812   2.335   3.626   0.418
  171SOL    MW4  813   2.312   3.693   0.469
  172SOL     OW  814   3.615   3.995   0.456
  172SOL    HW2  815   3.541   4.048   0.427
  172SOL    HW3  816   3.597   3.907   0.422
  172SOL    MW4  817   3.603   3.990   0.447
  173SOL     OW  818   2.937   4.391   0.416
  173SOL    HW2  819   2.915   4.414   0.506
  173SOL    HW3  820   2.900   4.304   0.404
  173SOL    MW4  821   2.929   4.382   0.427
  174SOL     OW  822   3.394   4.408   0.464
  174SOL    HW2  823   3.461   4.464   0.424
  174SOL    HW3  824   3.311   4.442   0.430
  174SOL    MW4  825   3.392   4.420   0.454
  175SOL     OW  826   3.161   4.522   0.339
  175SOL    HW2  827   3.080   4.479   0.365
  175SOL    HW3  828   3.155   4.529   0.244
  175SOL    MW4  829   3.150   4.517   0.330
  176SOL     OW  830   2.901   4.124   0.329
  176SOL    HW2  831   2.841   4.085   0.265
  176SOL    HW3  832   2.988   4.098   0.299
  176SOL    MW4  833   2.905   4.115   0.316
  177SOL     OW  834   2.636   0.798   0.160
  177SOL    HW2  835   2.593   0.800   0.075
  177SOL    HW3  836   2.710   0.858   0.151
  177SOL    MW4  837   2.640   0.806   0.148
  178SOL     OW  838   3.370   0.538   0.407
  178SOL    HW2  839   3.460   0.549   0.376
  178SOL    HW3  840   3.335   0.626   0.411
  178SOL    MW4  841   3.378   0.551   0.403
  179SOL     OW  842   2.893   0.430   0.499
  179SOL    HW2  843   2.854   0.495   0.441
  179SOL    HW3  844   2.979   0.412   0.462
  179SOL    MW4  845   2.899   0.437   0.486
  180SOL     OW  846   3.626   0.476   0.334
  180SOL    HW2  847   3.696   0.497   0.395
  180SOL    HW3  848   3.671   0.457   0.251
  180SOL    MW4  849   3.641   0.476   0.331
  181SOL     OW  850   3.080   0.698   0.229
  181SOL    HW2  851   3.155   0.729   0.281
  181SOL    HW3  852   3.073   0.605   0.250
  181SOL    MW4  853   3.089   0.690   0.239
  182SOL     OW  854   3.672   1.870   0.534
  182SOL    HW2  855   3.660   1.830   0.620
  182SOL    HW3  856   3.624   1.953   0.539
  182SOL    MW4  857   3.664   1.876   0.546
  183SOL     OW  858   3.318   2.062   0.393
  183SOL    HW2  859   3.264   2.045   0.470
  183SOL    HW3  860   3.294   2.150   0.366
  183SOL    MW4  861   3.308   2.071   0.399
  184SOL     OW  862   3.461   0.993   0.406
  184SOL    HW2  863   3.407   1.069   0.384
  184SOL    HW3  864   3.470   0.997   0.501
  184SOL    MW4  865   3.455   1.004   0.416
  185SOL     OW  866   3.546   2.110   0.541
  185SOL    HW2  867   3.466   2.100   0.489
  185SOL    HW3  868   3.517   2.102   0.632
  185SOL    MW4  869   3.531   2.108   0.546
  186SOL     OW  870   3.278   2.321   0.664
  186SOL    HW2  871   3.235   2.236   0.652
  186SOL    HW3  872   3.325   2.312   0.747
  186SOL    MW4  873   3.279   2.308   0.674
  187SOL     OW  874   3.573   2.739   0.600
  187SOL    HW2  875   3.596   2.753   0.692
  187SOL    HW3  876   3.622   2.660   0.576
  187SOL    MW4  877   3.583   2.731   0.609
  188SOL     OW  878   2.530   3.082   0.413
  188SOL    HW2  879   2.452   3.131   0.438
  188SOL    HW3  880   2.595   3.105   0.480
  188SOL    MW4  881   2.528   3.091   0.425
  189SOL     OW  882   3.138   2.752   0.277
  189SOL    HW2  883   3.125   2.663   0.312
  189SOL    HW3  884   3.143   2.739   0.182
  189SOL    MW4  885   3.137   2.738   0.269
  190SOL     OW  886   2.928   2.855   0.836
  190SOL    HW2  887   2.928   2.861   0.740
  190SOL    HW3  888   3.012   2.814   0.857
  190SOL    MW4  889   2.939   2.851   0.826
  191SOL     OW  890   3.210   0.105   0.456
  191SOL    HW2  891   3.191   0.089   0.548
  191SOL    HW3  892   3.185   0.024   0.412
  191SOL    MW4  893   3.204   0.092   0.462
  192SOL     OW  894   3.168   3.806   0.442
  192SOL    HW2  895   3.230   3.738   0.468
  192SOL    HW3  896   3.158   3.861   0.519
  192SOL    MW4  897   3.175   3.805   0.455
  193SOL     OW  898   3.586   3.713   0.406
  193SOL    HW2  899   3.597   3.664   0.324
  193SOL    HW3  900   3.504   3.680   0.443
  193SOL    MW4  901   3.577   3.702   0.400
  194SOL     OW  902   3.575   3.244   0.455
  194SOL    HW2  903   3.664   3.278   0.445
  194SOL    HW3  904   3.582   3.150   0.439
  194SOL    MW4  905   3.587   3.236   0.451
  195SOL     OW  906   3.348   3.374   0.376
  195SOL    HW2  907   3.271   3.318   0.388
  195SOL    HW3  908   3.419   3.327   0.418
  195SOL    MW4  909   3.347   3.361   0.383
  196SOL     OW  910   3.154   4.035   0.227
  196SOL    HW2  911   3.152   3.958   0.284
  196SOL    HW3  912   3.176   4.001   0.140
  196SOL    MW4  913   3.157   4.020   0.223
  197SOL     OW  914   2.601   3.343   0.297
  197SOL    HW2  915   2.697   3.345   0.297
  197SOL    HW3  916   2.579   3.253   0.320
  197SOL    MW4  917   2.611   3.332   0.300
  198SOL     OW  918   4.220   0.086   0.423
  198SOL    HW2  919   4.306   0.067   0.459
  198SOL    HW3  920   4.169   0.006   0.437
  198SOL    MW4  921   4.225   0.073   0.429
  199SOL     OW  922   3.734   0.168   0.364
  199SOL    HW2  923   3.665   0.202   0.421
  199SOL    HW3  924   3.815   0.189   0.411
  199SOL    MW4  925   3.736   0.176   0.378
  200SOL     OW  926   3.514   0.260   0.492
  200SOL    HW2  927   3.425   0.225   0.486
  200SOL    HW3  928   3.510   0.345   0.448
  200SOL    MW4  929   3.502   0.267   0.485
  201SOL     OW  930   3.858   0.583   0.506
  201SOL    HW2  931   3.848   0.570   0.600
  201SOL    HW3  932   3.927   0.522   0.481
  201SOL    MW4  933   3.865   0.573   0.515
  202SOL     OW  934   4.009   0.425   0.301
  202SOL    HW2  935   4.098   0.405   0.273
  202SOL    HW3  936   3.953   0.389   0.232
  202SOL    MW4  937   4.013   0.417   0.289
  203SOL     OW  938   4.227   0.822   0.434
  203SOL    HW2  939   4.143   0.819   0.480
  203SOL    HW3  940   4.204   0.807   0.342
  203SOL    MW4  941   4.213   0.819   0.428
  204SOL     OW  942   3.757   1.032   0.449
  204SOL    HW2  943   3.757   1.127   0.462
  204SOL    HW3  944   3.665   1.010   0.437
  204SOL    MW4  945   3.745   1.042   0.449
  205SOL     OW  946   4.091   1.387   0.364
  205SOL    HW2  947   4.067   1.403   0.273
  205SOL    HW3  948   4.125   1.471   0.395
  205SOL    MW4  949   4.092   1.401   0.356
  206SOL     OW  950   3.820   1.313   0.466
  206SOL    HW2  951   3.909   1.343   0.448
  206SOL    HW3  952   3.766   1.391   0.454
  206SOL    MW4  953   3.825   1.328   0.462
  207SOL     OW  954   3.371   1.394   0.484
  207SOL    HW2  955   3.381   1.369   0.576
  207SOL    HW3  956   3.328   1.319   0.443
  207SOL    MW4  957   3.367   1.381   0.491
  208SOL     OW  958   3.670   1.568   0.494
  208SOL    HW2  959   3.579   1.548   0.473
  208SOL    HW3  960   3.676   1.663   0.487
  208SOL    MW4  961   3.659   1.578   0.490
  209SOL     OW  962   3.731   2.521   0.539
  209SOL    HW2  963   3.684   2.456   0.487
  209SOL    HW3  964   3.722   2.491   0.629
  209SOL    MW4  965   3.724   2.508   0.544
  210SOL     OW  966   3.949   2.519   0.378
  210SOL    HW2  967   3.873   2.517   0.435
  210SOL    HW3  968   4.017   2.473   0.426
  210SOL    MW4  969   3.948   2.512   0.392
  211SOL     OW  970   3.070   2.489   0.401
  211SOL    HW2  971   3.147   2.444   0.366
  211SOL    HW3  972   3.086   2.493   0.496
  211SOL    MW4  973   3.082   2.484   0.409
  212SOL     OW  974   2.907   3.661   0.498
  212SOL    HW2  975   2.993   3.699   0.481
  212SOL    HW3  976   2.846   3.735   0.494
  212SOL    MW4  977   2.910   3.676   0.495
  213SOL     OW  978   3.092   2.954   0.441
  213SOL    HW2  979   3.109   2.892   0.370
  213SOL    HW3  980   3.007   2.927   0.476
  213SOL    MW4  981   3.083   2.942   0.436
  214SOL     OW  982   4.037   2.784   0.411
  214SOL    HW2  983   4.131   2.789   0.425
  214SOL    HW3  984   4.022   2.695   0.379
  214SOL    MW4  985   4.047   2.773   0.408
  215SOL     OW  986   3.689   2.980   0.520
  215SOL    HW2  987   3.763   2.979   0.580
  215SOL    HW3  988   3.640   2.900   0.541
  215SOL    MW4  989   3.692   2.969   0.530
  216SOL     OW  990   3.982   3.751   0.388
  216SOL    HW2  991   3.954   3.691   0.457
  216SOL    HW3  992   3.949   3.712   0.307
  216SOL    MW4  993   3.974   3.738   0.386
  217SOL     OW  994   3.307   2.352   0.360
  217SOL    HW2  995   3.317   2.338   0.455
  217SOL    HW3  996   3.395   2.371   0.329
  217SOL    MW4  997   3.320   2.353   0.369
  218SOL     OW  998   3.349   3.613   0.514
  218SOL    HW2  999   3.333   3.525   0.482
  218SOL    HW3 1000   3.374   3.601   0.606
  218SOL    MW4 1001   3.350   3.600   0.522
  219SOL     OW 1002   4.239   3.695   0.479
  219SOL    HW2 1003   4.153   3.720   0.446
  219SOL    HW3 1004   4.257   3.611   0.438
  219SOL    MW4 1005   4.230   3.687   0.469
  220SOL     OW 1006   3.376   4.134   0.376
  220SOL    HW2 1007   3.377   4.227   0.395
  220SOL    HW3 1008   3.303   4.122   0.316
  220SOL    MW4 1009   3.367   4.144   0.371
  221SOL     OW 1010   3.803   4.425   0.565
  221SOL    HW2 1011   3.831   4.343   0.524
  221SOL    HW3 1012   3.805   4.406   0.658
  221SOL    MW4 1013   3.807   4.411   0.572
  222SOL     OW 1014   4.487   0.051   0.552
  222SOL    HW2 1015   4.539  -0.029   0.539
  222SOL    HW3 1016   4.486   0.064   0.647
  222SOL    MW4 1017   4.494   0.042   0.563
  223SOL     OW 1018   3.957   0.838   0.508
  223SOL    HW2 1019   3.897   0.900   0.467
  223SOL    HW3 1020   3.906   0.758   0.519
  223SOL    MW4 1021   3.943   0.836   0.504
  224SOL     OW 1022   0.055   1.764   0.115
  224SOL    HW2 1023  -0.040   1.768   0.109
  224SOL    HW3 1024   0.087   1.801   0.033
  224SOL    MW4 1025   0.047   1.770   0.104
  225SOL     OW 1026   4.288   0.339   0.316
  225SOL    HW2 1027   4.282   0.253   0.359
  225SOL    HW3 1028   4.330   0.395   0.381
  225SOL    MW4 1029   4.293   0.335   0.331
  226SOL     OW 1030   4.423   0.996   0.519
  226SOL    HW2 1031   4.413   1.089   0.498
  226SOL    HW3 1032   4.347   0.954   0.480
  226SOL    MW4 1033   4.412   1.003   0.511
  227SOL     OW 1034   3.626   4.620   0.484
  227SOL    HW2 1035   3.698   4.560   0.507
  227SOL    HW3 1036   3.668   4.687   0.430
  227SOL    MW4 1037   3.641   4.621   0.480
  228SOL     OW 1038   4.321   1.253   0.438
  228SOL    HW2 1039   4.295   1.266   0.529
  228SOL    HW3 1040   4.248   1.288   0.387
  228SOL    MW4 1041   4.308   1.259   0.444
  229SOL     OW 1042   0.064   1.376   0.431
  229SOL    HW2 1043  -0.028   1.360   0.453
  229SOL    HW3 1044   0.108   1.292   0.446
  229SOL    MW4 1045   0.058   1.363   0.436
  230SOL     OW 1046   4.001   2.123   0.475
  230SOL    HW2 1047   3.945   2.163   0.410
  230SOL    HW3 1048   4.055   2.195   0.508
  230SOL    MW4 1049   4.001   2.138   0.471
  231SOL     OW 1050   4.084   1.845   0.531
  231SOL    HW2 1051   4.153   1.912   0.529
  231SOL    HW3 1052   4.005   1.892   0.506
  231SOL    MW4 1053   4.083   1.860   0.527
  232SOL     OW 1054   4.389   2.139   0.438
  232SOL    HW2 1055   4.430   2.224   0.455
  232SOL    HW3 1056   4.462   2.080   0.418
  232SOL    MW4 1057   4.404   2.142   0.437
  233SOL     OW 1058   4.195   2.081   0.251
  233SOL    HW2 1059   4.117   2.106   0.301
  233SOL    HW3 1060   4.268   2.116   0.301
  233SOL    MW4 1061   4.194   2.089   0.264
  234SOL     OW 1062   4.449   2.405   0.513
  234SOL    HW2 1063   4.520   2.443   0.461
  234SOL    HW3 1064   4.458   2.446   0.599
  234SOL    MW4 1065   4.460   2.416   0.517
  235SOL     OW 1066   3.927   3.032   0.329
  235SOL    HW2 1067   3.971   2.947   0.333
  235SOL    HW3 1068   3.835   3.012   0.342
  235SOL    MW4 1069   3.921   3.018   0.331
  236SOL     OW 1070   4.166   2.360   0.541
  236SOL    HW2 1071   4.147   2.400   0.626
  236SOL    HW3 1072   4.261   2.351   0.539
  236SOL    MW4 1073   4.176   2.364   0.552
  237SOL     OW 1074   0.166   3.630   0.453
  237SOL    HW2 1075   0.117   3.711   0.434
  237SOL    HW3 1076   0.257   3.658   0.456
  237SOL    MW4 1077   0.171   3.644   0.450
  238SOL     OW 1078   3.829   3.631   0.155
  238SOL    HW2 1079   3.764   3.565   0.180
  238SOL    HW3 1080   3.801   3.660   0.068
  238SOL    MW4 1081   3.817   3.626   0.147
  239SOL     OW 1082   0.604   3.221   0.451
  239SOL    HW2 1083   0.560   3.264   0.523
  239SOL    HW3 1084   0.669   3.284   0.420
  239SOL    MW4 1085   0.607   3.235   0.456
  240SOL     OW 1086   3.803   3.602   0.543
  240SOL    HW2 1087   3.730   3.645   0.498
  240SOL    HW3 1088   3.782   3.612   0.636
  240SOL    MW4 1089   3.790   3.609   0.550
  241SOL     OW 1090   4.083   3.204   0.489
  241SOL    HW2 1091   4.048   3.186   0.577
  241SOL    HW3 1092   4.035   3.144   0.432
  241SOL    MW4 1093   4.072   3.194   0.493
  242SOL     OW 1094   4.304   4.081   0.523
  242SOL    HW2 1095   4.224   4.029   0.532
  242SOL    HW3 1096   4.359   4.053   0.597
  242SOL    MW4 1097   4.301   4.070   0.534
  243SOL     OW 1098   4.010   3.999   0.512
  243SOL    HW2 1099   3.992   3.915   0.469
  243SOL    HW3 1100   3.941   4.057   0.481
  243SOL    MW4 1101   3.999   3.996   0.502
  244SOL     OW 1102   3.846   4.195   0.413
  244SOL    HW2 1103   3.757   4.160   0.408
  244SOL    HW3 1104   3.868   4.215   0.322
  244SOL    MW4 1105   3.837   4.193   0.400
  245SOL     OW 1106   4.083   4.504   0.485
  245SOL    HW2 1107   4.126   4.455   0.555
  245SOL    HW3 1108   3.990   4.482   0.495
  245SOL    MW4 1109   4.076   4.494   0.495
  246SOL     OW 1110   0.237   4.639   0.905
  246SOL    HW2 1111   0.240   4.549   0.873
  246SOL    HW3 1112   0.154   4.673   0.873
  246SOL    MW4 1113   0.227   4.632   0.897
  247SOL     OW 1114   0.013   0.085   0.819
  247SOL    HW2 1115  -0.079   0.063   0.806
  247SOL    HW3 1116   0.015   0.181   0.817
  247SOL    MW4 1117   0.001   0.095   0.817
  248SOL     OW 1118   4.487   0.362   0.829
  248SOL    HW2 1119   4.479   0.373   0.924
  248SOL    HW3 1120   4.567   0.410   0.806
  248SOL    MW4 1121   4.497   0.370   0.839
  249SOL     OW 1122   0.196   0.537   0.755
  249SOL    HW2 1123   0.269   0.487   0.792
  249SOL    HW3 1124   0.206   0.625   0.790
  249SOL    MW4 1125   0.207   0.542   0.764
  250SOL     OW 1126   0.197   0.791   0.846
  250SOL    HW2 1127   0.193   0.772   0.939
  250SOL    HW3 1128   0.111   0.828   0.825
  250SOL    MW4 1129   0.185   0.794   0.855
  251SOL     OW 1130   4.443   0.893   0.781
  251SOL    HW2 1131   4.360   0.857   0.811
  251SOL    HW3 1132   4.432   0.903   0.686
  251SOL    MW4 1133   4.431   0.889   0.772
  252SOL     OW 1134   0.014   1.152   0.856
  252SOL    HW2 1135   0.001   1.160   0.951
  252SOL    HW3 1136   0.001   1.059   0.838
  252SOL    MW4 1137   0.011   1.141   0.866
  253SOL     OW 1138   0.244   1.232   0.731
  253SOL    HW2 1139   0.160   1.207   0.771
  253SOL    HW3 1140   0.251   1.177   0.653
  253SOL    MW4 1141   0.234   1.221   0.726
  254SOL     OW 1142   0.239   1.505   0.842
  254SOL    HW2 1143   0.328   1.537   0.832
  254SOL    HW3 1144   0.239   1.418   0.803
  254SOL    MW4 1145   0.251   1.498   0.836
  255SOL     OW 1146   0.017   1.651   0.793
  255SOL    HW2 1147  -0.064   1.605   0.815
  255SOL    HW3 1148   0.087   1.596   0.828
  255SOL    MW4 1149   0.015   1.638   0.801
  256SOL     OW 1150   0.011   1.943   0.816
  256SOL    HW2 1151   0.088   1.974   0.769
  256SOL    HW3 1152   0.013   1.848   0.806
  256SOL    MW4 1153   0.021   1.935   0.808
  257SOL     OW 1154   0.252   2.026   0.679
  257SOL    HW2 1155   0.255   2.121   0.675
  257SOL    HW3 1156   0.289   1.997   0.596
  257SOL    MW4 1157   0.257   2.035   0.668
  258SOL     OW 1158   0.291   2.305   0.790
  258SOL    HW2 1159   0.279   2.288   0.883
  258SOL    HW3 1160   0.364   2.366   0.785
  258SOL    MW4 1161   0.299   2.311   0.801
  259SOL     OW 1162   0.058   2.471   0.770
  259SOL    HW2 1163  -0.006   2.404   0.794
  259SOL    HW3 1164   0.142   2.426   0.770
  259SOL    MW4 1165   0.061   2.456   0.773
  260SOL     OW 1166   0.078   2.742   0.831
  260SOL    HW2 1167   0.077   2.745   0.927
  260SOL    HW3 1168   0.074   2.649   0.810
  260SOL    MW4 1169   0.077   2.730   0.841
  261SOL     OW 1170   0.285   2.860   0.706
  261SOL    HW2 1171   0.208   2.810   0.736
  261SOL    HW3 1172   0.278   2.860   0.611
  261SOL    MW4 1173   0.274   2.853   0.697
  262SOL     OW 1174   0.240   3.114   0.787
  262SOL    HW2 1175   0.247   3.115   0.883
  262SOL    HW3 1176   0.249   3.022   0.763
  262SOL    MW4 1177   0.242   3.102   0.797
  263SOL     OW 1178   0.026   3.228   0.656
  263SOL    HW2 1179   0.102   3.187   0.696
  263SOL    HW3 1180   0.061   3.277   0.581
  263SOL    MW4 1181   0.040   3.229   0.651
  264SOL     OW 1182   4.471   3.444   0.831
  264SOL    HW2 1183   4.402   3.497   0.793
  264SOL    HW3 1184   4.481   3.370   0.771
  264SOL    MW4 1185   4.463   3.441   0.818
  265SOL     OW 1186   0.163   3.609   0.734
  265SOL    HW2 1187   0.105   3.543   0.772
  265SOL    HW3 1188   0.161   3.592   0.640
  265SOL    MW4 1189   0.155   3.598   0.727
  266SOL     OW 1190   0.219   3.897   0.814
  266SOL    HW2 1191   0.225   3.923   0.906
  266SOL    HW3 1192   0.181   3.810   0.816
  266SOL    MW4 1193   0.215   3.889   0.826
  267SOL     OW 1194   4.470   4.012   0.726
  267SOL    HW2 1195   4.415   3.950   0.773
  267SOL    HW3 1196   4.560   3.981   0.741
  267SOL    MW4 1197   4.475   4.000   0.734
  268SOL     OW 1198   4.440   4.281   0.798
  268SOL    HW2 1199   4.433   4.277   0.893
  268SOL    HW3 1200   4.443   4.189   0.769
  268SOL    MW4 1201   4.440   4.268   0.806
  269SOL     OW 1202   0.215   4.407   0.757
  269SOL    HW2 1203   0.130   4.363   0.760
  269SOL    HW3 1204   0.217   4.448   0.671
  269SOL    MW4 1205   0.204   4.406   0.746
  270SOL     OW 1206   0.674   0.053   0.869
  270SOL    HW2 1207   0.669   0.046   0.964
  270SOL    HW3 1208   0.588   0.084   0.842
  270SOL    MW4 1209   0.662   0.056   0.878
  271SOL     OW 1210   0.414   0.150   0.764
  271SOL    HW2 1211   0.352   0.083   0.793
  271SOL    HW3 1212   0.427   0.133   0.671
  271SOL    MW4 1213   0.407   0.139   0.756
  272SOL     OW 1214   0.414   0.402   0.886
  272SOL    HW2 1215   0.504   0.424   0.859
  272SOL    HW3 1216   0.392   0.326   0.833
  272SOL    MW4 1217   0.423   0.395   0.875
  273SOL     OW 1218   0.655   0.493   0.766
  273SOL    HW2 1219   0.745   0.463   0.778
  273SOL    HW3 1220   0.652   0.527   0.677
  273SOL    MW4 1221   0.667   0.493   0.756
  274SOL     OW 1222   0.708   0.765   0.803
  274SOL    HW2 1223   0.629   0.803   0.764
  274SOL    HW3 1224   0.693   0.671   0.800
  274SOL    MW4 1225   0.696   0.758   0.797
  275SOL     OW 1226   0.452   0.872   0.749
  275SOL    HW2 1227   0.473   0.958   0.785
  275SOL    HW3 1228   0.368   0.849   0.789
  275SOL    MW4 1229   0.444   0.880   0.759
  276SOL     OW 1230   0.481   1.132   0.844
  276SOL    HW2 1231   0.559   1.167   0.801
  276SOL    HW3 1232   0.408   1.177   0.802
  276SOL    MW4 1233   0.482   1.143   0.833
  277SOL     OW 1234   0.708   1.261   0.756
  277SOL    HW2 1235   0.705   1.356   0.767
  277SOL    HW3 1236   0.728   1.249   0.663
  277SOL    MW4 1237   0.710   1.272   0.745
  278SOL     OW 1238   0.716   1.533   0.849
  278SOL    HW2 1239   0.706   1.528   0.944
  278SOL    HW3 1240   0.628   1.550   0.817
  278SOL    MW4 1241   0.703   1.535   0.858
  279SOL     OW 1242   0.480   1.623   0.753
  279SOL    HW2 1243   0.494   1.714   0.778
  279SOL    HW3 1244   0.474   1.625   0.658
  279SOL    MW4 1245   0.481   1.635   0.744
  280SOL     OW 1246   0.445   1.909   0.866
  280SOL    HW2 1247   0.446   1.926   0.960
  280SOL    HW3 1248   0.368   1.955   0.834
  280SOL    MW4 1249   0.435   1.917   0.874
  281SOL     OW 1250   0.623   2.093   0.753
  281SOL    HW2 1251   0.571   2.028   0.800
  281SOL    HW3 1252   0.596   2.083   0.661
  281SOL    MW4 1253   0.613   2.083   0.747
  282SOL     OW 1254   0.692   2.360   0.850
  282SOL    HW2 1255   0.713   2.351   0.943
  282SOL    HW3 1256   0.671   2.270   0.822
  282SOL    MW4 1257   0.692   2.347   0.859
  283SOL     OW 1258   0.469   2.496   0.773
  283SOL    HW2 1259   0.546   2.448   0.804
  283SOL    HW3 1260   0.489   2.516   0.681
  283SOL    MW4 1261   0.482   2.493   0.765
  284SOL     OW 1262   0.492   2.763   0.873
  284SOL    HW2 1263   0.472   2.670   0.856
  284SOL    HW3 1264   0.423   2.810   0.826
  284SOL    MW4 1265   0.480   2.757   0.864
  285SOL     OW 1266   0.713   2.858   0.731
  285SOL    HW2 1267   0.795   2.811   0.749
  285SOL    HW3 1268   0.646   2.807   0.775
  285SOL    MW4 1269   0.715   2.845   0.739
  286SOL     OW 1270   0.675   3.118   0.808
  286SOL    HW2 1271   0.602   3.159   0.763
  286SOL    HW3 1272   0.686   3.033   0.764
  286SOL    MW4 1273   0.667   3.112   0.796
  287SOL     OW 1274   0.460   3.252   0.710
  287SOL    HW2 1275   0.443   3.339   0.746
  287SOL    HW3 1276   0.382   3.201   0.734
  287SOL    MW4 1277   0.447   3.257   0.718
  288SOL     OW 1278   0.406   3.495   0.834
  288SOL    HW2 1279   0.414   3.508   0.929
  288SOL    HW3 1280   0.327   3.543   0.809
  288SOL    MW4 1281   0.397   3.503   0.844
  289SOL     OW 1282   0.651   3.614   0.791
  289SOL    HW2 1283   0.571   3.562   0.801
  289SOL    HW3 1284   0.623   3.704   0.805
  289SOL    MW4 1285   0.637   3.619   0.794
  290SOL     OW 1286   0.628   3.891   0.838
  290SOL    HW2 1287   0.707   3.919   0.791
  290SOL    HW3 1288   0.559   3.947   0.804
  290SOL    MW4 1289   0.630   3.902   0.827
  291SOL     OW 1290   0.448   4.053   0.710
  291SOL    HW2 1291   0.438   4.141   0.747
  291SOL    HW3 1292   0.375   4.003   0.749
  291SOL    MW4 1293   0.437   4.058   0.720
  292SOL     OW 1294   0.462   4.311   0.836
  292SOL    HW2 1295   0.451   4.301   0.931
  292SOL    HW3 1296   0.381   4.354   0.807
  292SOL    MW4 1297   0.450   4.315   0.845
  293SOL     OW 1298   0.700   4.456   0.785
  293SOL    HW2 1299   0.629   4.396   0.805
  293SOL    HW3 1300   0.678   4.537   0.831
  293SOL    MW4 1301   0.688   4.459   0.793
  294SOL     OW 1302   1.152   0.023   0.892
  294SOL    HW2 1303   1.215   0.081   0.849
  294SOL    HW3 1304   1.067   0.052   0.860
  294SOL    MW4 1305   1.149   0.035   0.882
  295SOL     OW 1306   0.921   0.108   0.748
  295SOL    HW2 1307   0.943   0.197   0.774
  295SOL    HW3 1308   0.834   0.092   0.785
  295SOL    MW4 1309   0.912   0.118   0.756
  296SOL     OW 1310   0.899   0.368   0.840
  296SOL    HW2 1311   0.900   0.375   0.935
  296SOL    HW3 1312   0.981   0.410   0.812
  296SOL    MW4 1313   0.910   0.375   0.849
  297SOL     OW 1314   1.130   0.504   0.746
  297SOL    HW2 1315   1.204   0.456   0.784
  297SOL    HW3 1316   1.149   0.507   0.652
  297SOL    MW4 1317   1.142   0.498   0.739
  298SOL     OW 1318   1.153   0.777   0.807
  298SOL    HW2 1319   1.140   0.770   0.901
  298SOL    HW3 1320   1.158   0.687   0.776
  298SOL    MW4 1321   1.152   0.764   0.815
  299SOL     OW 1322   0.910   0.914   0.692
  299SOL    HW2 1323   0.998   0.880   0.708
  299SOL    HW3 1324   0.852   0.847   0.728
  299SOL    MW4 1325   0.914   0.900   0.699
  300SOL     OW 1326   0.906   1.123   0.880
  300SOL    HW2 1327   0.915   1.045   0.826
  300SOL    HW3 1328   0.835   1.173   0.839
  300SOL    MW4 1329   0.898   1.119   0.867
  301SOL     OW 1330   1.116   1.310   0.748
  301SOL    HW2 1331   1.057   1.250   0.794
  301SOL    HW3 1332   1.096   1.297   0.655
  301SOL    MW4 1333   1.105   1.301   0.742
  302SOL     OW 1334   1.140   1.545   0.899
  302SOL    HW2 1335   1.069   1.606   0.880
  302SOL    HW3 1336   1.122   1.469   0.845
  302SOL    MW4 1337   1.128   1.543   0.890
  303SOL     OW 1338   0.936   1.697   0.804
  303SOL    HW2 1339   0.922   1.791   0.811
  303SOL    HW3 1340   0.851   1.658   0.824
  303SOL    MW4 1341   0.923   1.704   0.808
  304SOL     OW 1342   0.883   1.964   0.844
  304SOL    HW2 1343   0.879   1.973   0.940
  304SOL    HW3 1344   0.800   2.001   0.813
  304SOL    MW4 1345   0.872   1.970   0.853
  305SOL     OW 1346   1.143   2.055   0.719
  305SOL    HW2 1347   1.144   2.141   0.762
  305SOL    HW3 1348   1.067   2.010   0.756
  305SOL    MW4 1349   1.133   2.061   0.729
  306SOL     OW 1350   1.105   2.307   0.882
  306SOL    HW2 1351   1.113   2.302   0.977
  306SOL    HW3 1352   1.175   2.365   0.855
  306SOL    MW4 1353   1.115   2.314   0.891
  307SOL     OW 1354   0.904   2.439   0.720
  307SOL    HW2 1355   0.969   2.399   0.779
  307SOL    HW3 1356   0.820   2.407   0.752
  307SOL    MW4 1357   0.902   2.430   0.732
  308SOL     OW 1358   0.922   2.697   0.842
  308SOL    HW2 1359   0.921   2.680   0.936
  308SOL    HW3 1360   0.900   2.612   0.803
  308SOL    MW4 1361   0.919   2.683   0.849
  309SOL     OW 1362   1.159   2.766   0.696
  309SOL    HW2 1363   1.076   2.747   0.739
  309SOL    HW3 1364   1.145   2.744   0.604
  309SOL    MW4 1365   1.146   2.760   0.690
  310SOL     OW 1366   1.154   3.037   0.816
  310SOL    HW2 1367   1.073   3.083   0.796
  310SOL    HW3 1368   1.150   2.956   0.765
  310SOL    MW4 1369   1.143   3.032   0.807
  311SOL     OW 1370   0.932   3.214   0.764
  311SOL    HW2 1371   0.934   3.307   0.787
  311SOL    HW3 1372   0.841   3.188   0.777
  311SOL    MW4 1373   0.920   3.223   0.769
  312SOL     OW 1374   0.912   3.485   0.840
  312SOL    HW2 1375   0.970   3.548   0.796
  312SOL    HW3 1376   0.825   3.523   0.831
  312SOL    MW4 1377   0.908   3.499   0.833
  313SOL     OW 1378   1.107   3.634   0.719
  313SOL    HW2 1379   1.185   3.593   0.756
  313SOL    HW3 1380   1.109   3.611   0.626
  313SOL    MW4 1381   1.117   3.625   0.712
  314SOL     OW 1382   1.124   3.888   0.832
  314SOL    HW2 1383   1.129   3.874   0.926
  314SOL    HW3 1384   1.118   3.801   0.794
  314SOL    MW4 1385   1.124   3.875   0.839
  315SOL     OW 1386   0.879   4.006   0.755
  315SOL    HW2 1387   0.877   4.092   0.797
  315SOL    HW3 1388   0.955   3.962   0.793
  315SOL    MW4 1389   0.889   4.011   0.766
  316SOL     OW 1390   0.895   4.257   0.873
  316SOL    HW2 1391   0.980   4.300   0.861
  316SOL    HW3 1392   0.833   4.315   0.830
  316SOL    MW4 1393   0.898   4.270   0.865
  317SOL     OW 1394   1.117   4.418   0.815
  317SOL    HW2 1395   1.200   4.377   0.839
  317SOL    HW3 1396   1.127   4.509   0.844
  317SOL    MW4 1397   1.129   4.425   0.822
  318SOL     OW 1398   1.595   0.041   0.859
  318SOL    HW2 1399   1.574   0.006   0.946
  318SOL    HW3 1400   1.515   0.084   0.831
  318SOL    MW4 1401   1.582   0.042   0.867
  319SOL     OW 1402   1.339   0.145   0.716
  319SOL    HW2 1403   1.343   0.239   0.736
  319SOL    HW3 1404   1.307   0.142   0.626
  319SOL    MW4 1405   1.335   0.157   0.707
  320SOL     OW 1406   1.358   0.391   0.861
  320SOL    HW2 1407   1.363   0.386   0.956
  320SOL    HW3 1408   1.436   0.440   0.835
  320SOL    MW4 1409   1.369   0.397   0.870
  321SOL     OW 1410   1.602   0.515   0.734
  321SOL    HW2 1411   1.592   0.608   0.757
  321SOL    HW3 1412   1.684   0.489   0.775
  321SOL    MW4 1413   1.611   0.524   0.742
  322SOL     OW 1414   1.558   0.789   0.824
  322SOL    HW2 1415   1.634   0.832   0.786
  322SOL    HW3 1416   1.483   0.836   0.788
  322SOL    MW4 1417   1.558   0.801   0.814
  323SOL     OW 1418   1.361   0.951   0.721
  323SOL    HW2 1419   1.367   1.023   0.784
  323SOL    HW3 1420   1.285   0.901   0.748
  323SOL    MW4 1421   1.352   0.954   0.733
  324SOL     OW 1422   1.342   1.184   0.860
  324SOL    HW2 1423   1.426   1.218   0.830
  324SOL    HW3 1424   1.277   1.233   0.809
  324SOL    MW4 1425   1.344   1.195   0.849
  325SOL     OW 1426   1.562   1.293   0.725
  325SOL    HW2 1427   1.584   1.380   0.756
  325SOL    HW3 1428   1.544   1.305   0.631
  325SOL    MW4 1429   1.563   1.306   0.716
  326SOL     OW 1430   1.575   1.563   0.805
  326SOL    HW2 1431   1.562   1.568   0.900
  326SOL    HW3 1432   1.491   1.590   0.767
  326SOL    MW4 1433   1.562   1.567   0.812
  327SOL     OW 1434   1.331   1.644   0.721
  327SOL    HW2 1435   1.319   1.736   0.744
  327SOL    HW3 1436   1.285   1.596   0.790
  327SOL    MW4 1437   1.323   1.650   0.733
  328SOL     OW 1438   1.344   1.898   0.811
  328SOL    HW2 1439   1.329   1.891   0.905
  328SOL    HW3 1440   1.272   1.953   0.779
  328SOL    MW4 1441   1.332   1.904   0.819
  329SOL     OW 1442   1.557   2.055   0.762
  329SOL    HW2 1443   1.481   2.002   0.788
  329SOL    HW3 1444   1.557   2.051   0.666
  329SOL    MW4 1445   1.547   2.047   0.753
  330SOL     OW 1446   1.535   2.312   0.872
  330SOL    HW2 1447   1.466   2.360   0.828
  330SOL    HW3 1448   1.525   2.222   0.840
  330SOL    MW4 1449   1.524   2.306   0.862
  331SOL     OW 1450   1.315   2.445   0.780
  331SOL    HW2 1451   1.342   2.533   0.805
  331SOL    HW3 1452   1.305   2.449   0.685
  331SOL    MW4 1453   1.317   2.457   0.771
  332SOL     OW 1454   1.387   2.719   0.853
  332SOL    HW2 1455   1.357   2.728   0.944
  332SOL    HW3 1456   1.314   2.752   0.801
  332SOL    MW4 1457   1.373   2.725   0.858
  333SOL     OW 1458   1.586   2.822   0.706
  333SOL    HW2 1459   1.588   2.912   0.738
  333SOL    HW3 1460   1.523   2.777   0.762
  333SOL    MW4 1461   1.578   2.828   0.717
  334SOL     OW 1462   1.569   3.076   0.797
  334SOL    HW2 1463   1.571   3.080   0.892
  334SOL    HW3 1464   1.484   3.114   0.773
  334SOL    MW4 1465   1.558   3.081   0.806
  335SOL     OW 1466   1.338   3.223   0.749
  335SOL    HW2 1467   1.268   3.169   0.786
  335SOL    HW3 1468   1.323   3.221   0.655
  335SOL    MW4 1469   1.327   3.215   0.742
  336SOL     OW 1470   1.326   3.514   0.841
  336SOL    HW2 1471   1.398   3.576   0.850
  336SOL    HW3 1472   1.364   3.440   0.793
  336SOL    MW4 1473   1.341   3.512   0.836
  337SOL     OW 1474   1.552   3.666   0.830
  337SOL    HW2 1475   1.620   3.610   0.868
  337SOL    HW3 1476   1.571   3.666   0.736
  337SOL    MW4 1477   1.564   3.659   0.822
  338SOL     OW 1478   1.543   3.927   0.906
  338SOL    HW2 1479   1.459   3.952   0.866
  338SOL    HW3 1480   1.557   3.837   0.877
  338SOL    MW4 1481   1.534   3.918   0.897
  339SOL     OW 1482   1.326   4.057   0.725
  339SOL    HW2 1483   1.241   4.020   0.749
  339SOL    HW3 1484   1.326   4.057   0.629
  339SOL    MW4 1485   1.315   4.052   0.715
  340SOL     OW 1486   1.371   4.280   0.868
  340SOL    HW2 1487   1.457   4.303   0.832
  340SOL    HW3 1488   1.348   4.198   0.824
  340SOL    MW4 1489   1.380   4.272   0.857
  341SOL     OW 1490   1.587   4.460   0.742
  341SOL    HW2 1491   1.653   4.410   0.790
  341SOL    HW3 1492   1.593   4.549   0.776
  341SOL    MW4 1493   1.596   4.465   0.753
  342SOL     OW 1494   2.044   0.014   0.887
  342SOL    HW2 1495   2.138   0.030   0.893
  342SOL    HW3 1496   2.037  -0.077   0.857
  342SOL    MW4 1497   2.056   0.004   0.883
  343SOL     OW 1498   1.835   0.140   0.742
  343SOL    HW2 1499   1.913   0.107   0.786
  343SOL    HW3 1500   1.763   0.089   0.778
  343SOL    MW4 1501   1.836   0.129   0.753
  344SOL     OW 1502   1.858   0.402   0.835
  344SOL    HW2 1503   1.866   0.322   0.783
  344SOL    HW3 1504   1.936   0.453   0.813
  344SOL    MW4 1505   1.869   0.398   0.825
  345SOL     OW 1506   2.079   0.525   0.733
  345SOL    HW2 1507   2.158   0.491   0.775
  345SOL    HW3 1508   2.083   0.490   0.643
  345SOL    MW4 1509   2.090   0.516   0.726
  346SOL     OW 1510   2.036   0.794   0.825
  346SOL    HW2 1511   2.104   0.854   0.796
  346SOL    HW3 1512   2.059   0.710   0.784
  346SOL    MW4 1513   2.048   0.791   0.816
  347SOL     OW 1514   1.799   0.908   0.737
  347SOL    HW2 1515   1.814   0.999   0.762
  347SOL    HW3 1516   1.875   0.861   0.770
  347SOL    MW4 1517   1.811   0.914   0.744
  348SOL     OW 1518   1.800   1.178   0.854
  348SOL    HW2 1519   1.876   1.218   0.813
  348SOL    HW3 1520   1.725   1.218   0.809
  348SOL    MW4 1521   1.800   1.189   0.843
  349SOL     OW 1522   1.997   1.317   0.734
  349SOL    HW2 1523   2.080   1.278   0.762
  349SOL    HW3 1524   1.982   1.283   0.646
  349SOL    MW4 1525   2.006   1.308   0.726
  350SOL     OW 1526   2.017   1.545   0.886
  350SOL    HW2 1527   2.098   1.581   0.850
  350SOL    HW3 1528   2.002   1.464   0.837
  350SOL    MW4 1529   2.026   1.539   0.875
  351SOL     OW 1530   1.796   1.696   0.749
  351SOL    HW2 1531   1.854   1.636   0.794
  351SOL    HW3 1532   1.709   1.656   0.757
  351SOL    MW4 1533   1.792   1.683   0.756
  352SOL     OW 1534   1.814   1.964   0.815
  352SOL    HW2 1535   1.811   1.873   0.786
  352SOL    HW3 1536   1.724   1.996   0.806
  352SOL    MW4 1537   1.802   1.956   0.810
  353SOL     OW 1538   2.047   2.074   0.721
  353SOL    HW2 1539   2.040   2.160   0.761
  353SOL    HW3 1540   1.965   2.030   0.743
  353SOL    MW4 1541   2.036   2.079   0.729
  354SOL     OW 1542   1.998   2.325   0.857
  354SOL    HW2 1543   1.979   2.312   0.950
  354SOL    HW3 1544   1.912   2.341   0.818
  354SOL    MW4 1545   1.984   2.326   0.864
  355SOL     OW 1546   1.749   2.409   0.724
  355SOL    HW2 1547   1.666   2.376   0.758
  355SOL    HW3 1548   1.733   2.421   0.630
  355SOL    MW4 1549   1.736   2.406   0.716
  356SOL     OW 1550   1.801   2.666   0.832
  356SOL    HW2 1551   1.800   2.574   0.806
  356SOL    HW3 1552   1.732   2.707   0.780
  356SOL    MW4 1553   1.792   2.659   0.822
  357SOL     OW 1554   1.984   2.817   0.688
  357SOL    HW2 1555   2.075   2.799   0.713
  357SOL    HW3 1556   1.932   2.769   0.753
  357SOL    MW4 1557   1.989   2.808   0.700
  358SOL     OW 1558   1.990   3.043   0.869
  358SOL    HW2 1559   1.911   3.095   0.854
  358SOL    HW3 1560   1.973   2.960   0.824
  358SOL    MW4 1561   1.977   3.039   0.861
  359SOL     OW 1562   1.821   3.259   0.764
  359SOL    HW2 1563   1.733   3.223   0.748
  359SOL    HW3 1564   1.865   3.250   0.679
  359SOL    MW4 1565   1.815   3.253   0.750
  360SOL     OW 1566   1.768   3.496   0.889
  360SOL    HW2 1567   1.757   3.479   0.982
  360SOL    HW3 1568   1.787   3.410   0.851
  360SOL    MW4 1569   1.769   3.482   0.896
  361SOL     OW 1570   1.977   3.641   0.764
  361SOL    HW2 1571   1.960   3.730   0.794
  361SOL    HW3 1572   1.901   3.591   0.792
  361SOL    MW4 1573   1.965   3.646   0.772
  362SOL     OW 1574   1.964   3.898   0.846
  362SOL    HW2 1575   1.978   3.915   0.940
  362SOL    HW3 1576   1.886   3.948   0.825
  362SOL    MW4 1577   1.956   3.907   0.856
  363SOL     OW 1578   1.754   4.054   0.781
  363SOL    HW2 1579   1.669   4.014   0.800
  363SOL    HW3 1580   1.755   4.063   0.686
  363SOL    MW4 1581   1.743   4.050   0.771
  364SOL     OW 1582   1.777   4.316   0.878
  364SOL    HW2 1583   1.764   4.301   0.971
  364SOL    HW3 1584   1.759   4.231   0.837
  364SOL    MW4 1585   1.773   4.303   0.885
  365SOL     OW 1586   2.023   4.402   0.794
  365SOL    HW2 1587   1.939   4.366   0.821
  365SOL    HW3 1588   2.010   4.428   0.703
  365SOL    MW4 1589   2.010   4.401   0.786
  366SOL     OW 1590   2.559   4.583   0.840
  366SOL    HW2 1591   2.598   4.581   0.928
  366SOL    HW3 1592   2.539   4.492   0.820
  366SOL    MW4 1593   2.562   4.571   0.849
  367SOL     OW 1594   2.320   0.088   0.871
  367SOL    HW2 1595   2.394   0.032   0.894
  367SOL    HW3 1596   2.295   0.058   0.783
  367SOL    MW4 1597   2.326   0.076   0.862
  368SOL     OW 1598   2.271   0.369   0.877
  368SOL    HW2 1599   2.349   0.408   0.837
  368SOL    HW3 1600   2.289   0.275   0.878
  368SOL    MW4 1601   2.284   0.362   0.872
  369SOL     OW 1602   2.461   0.495   0.721
  369SOL    HW2 1603   2.553   0.471   0.736
  369SOL    HW3 1604   2.449   0.485   0.627
  369SOL    MW4 1605   2.472   0.491   0.711
  370SOL     OW 1606   2.447   0.788   0.813
  370SOL    HW2 1607   2.541   0.802   0.810
  370SOL    HW3 1608   2.435   0.698   0.783
  370SOL    MW4 1609   2.457   0.778   0.809
  371SOL     OW 1610   2.244   0.941   0.735
  371SOL    HW2 1611   2.323   0.901   0.771
  371SOL    HW3 1612   2.244   0.914   0.643
  371SOL    MW4 1613   2.255   0.932   0.727
  372SOL     OW 1614   2.209   1.192   0.833
  372SOL    HW2 1615   2.215   1.180   0.928
  372SOL    HW3 1616   2.222   1.105   0.796
  372SOL    MW4 1617   2.212   1.179   0.841
  373SOL     OW 1618   2.469   1.233   0.725
  373SOL    HW2 1619   2.382   1.223   0.764
  373SOL    HW3 1620   2.465   1.182   0.644
  373SOL    MW4 1621   2.457   1.225   0.719
  374SOL     OW 1622   2.457   1.537   0.783
  374SOL    HW2 1623   2.538   1.584   0.764
  374SOL    HW3 1624   2.472   1.449   0.750
  374SOL    MW4 1625   2.470   1.532   0.776
  375SOL     OW 1626   2.222   1.678   0.740
  375SOL    HW2 1627   2.308   1.637   0.733
  375SOL    HW3 1628   2.191   1.685   0.649
  375SOL    MW4 1629   2.229   1.673   0.727
  376SOL     OW 1630   2.253   1.932   0.832
  376SOL    HW2 1631   2.242   1.840   0.810
  376SOL    HW3 1632   2.185   1.977   0.781
  376SOL    MW4 1633   2.243   1.926   0.822
  377SOL     OW 1634   2.479   2.084   0.761
  377SOL    HW2 1635   2.414   2.017   0.784
  377SOL    HW3 1636   2.466   2.100   0.668
  377SOL    MW4 1637   2.469   2.077   0.752
  378SOL     OW 1638   2.472   2.325   0.890
  378SOL    HW2 1639   2.534   2.382   0.844
  378SOL    HW3 1640   2.480   2.240   0.845
  378SOL    MW4 1641   2.481   2.321   0.878
  379SOL     OW 1642   2.237   2.463   0.782
  379SOL    HW2 1643   2.308   2.422   0.832
  379SOL    HW3 1644   2.158   2.421   0.815
  379SOL    MW4 1645   2.236   2.452   0.793
  380SOL     OW 1646   2.210   2.737   0.834
  380SOL    HW2 1647   2.222   2.743   0.929
  380SOL    HW3 1648   2.206   2.643   0.817
  380SOL    MW4 1649   2.211   2.725   0.845
  381SOL     OW 1650   2.457   2.843   0.724
  381SOL    HW2 1651   2.523   2.811   0.786
  381SOL    HW3 1652   2.376   2.800   0.751
  381SOL    MW4 1653   2.455   2.833   0.736
  382SOL     OW 1654   2.415   3.107   0.854
  382SOL    HW2 1655   2.422   3.089   0.948
  382SOL    HW3 1656   2.428   3.022   0.812
  382SOL    MW4 1657   2.418   3.093   0.861
  383SOL     OW 1658   2.184   3.234   0.750
  383SOL    HW2 1659   2.119   3.177   0.792
  383SOL    HW3 1660   2.269   3.195   0.775
  383SOL    MW4 1661   2.187   3.221   0.759
  384SOL     OW 1662   2.211   3.502   0.834
  384SOL    HW2 1663   2.201   3.412   0.805
  384SOL    HW3 1664   2.124   3.541   0.820
  384SOL    MW4 1665   2.198   3.496   0.828
  385SOL     OW 1666   2.429   3.647   0.701
  385SOL    HW2 1667   2.512   3.604   0.723
  385SOL    HW3 1668   2.362   3.592   0.739
  385SOL    MW4 1669   2.431   3.634   0.709
  386SOL     OW 1670   2.432   3.882   0.874
  386SOL    HW2 1671   2.360   3.932   0.834
  386SOL    HW3 1672   2.427   3.797   0.831
  386SOL    MW4 1673   2.422   3.878   0.863
  387SOL     OW 1674   2.182   4.010   0.733
  387SOL    HW2 1675   2.104   3.963   0.762
  387SOL    HW3 1676   2.170   4.023   0.639
  387SOL    MW4 1677   2.170   4.006   0.725
  388SOL     OW 1678   2.240   4.268   0.859
  388SOL    HW2 1679   2.219   4.185   0.816
  388SOL    HW3 1680   2.174   4.329   0.827
  388SOL    MW4 1681   2.228   4.265   0.849
  389SOL     OW 1682   2.452   4.369   0.688
  389SOL    HW2 1683   2.534   4.323   0.704
  389SOL    HW3 1684   2.390   4.333   0.751
  389SOL    MW4 1685   2.455   4.358   0.698
  390SOL     OW 1686   2.898   0.016   0.784
  390SOL    HW2 1687   2.903  -0.072   0.747
  390SOL    HW3 1688   2.845   0.066   0.721
  390SOL    MW4 1689   2.891   0.011   0.770
  391SOL     OW 1690   2.570   4.651   0.548
  391SOL    HW2 1691   2.637   4.719   0.557
  391SOL    HW3 1692   2.559   4.617   0.637
  391SOL    MW4 1693   2.578   4.655   0.561
  392SOL     OW 1694   2.717   0.369   0.820
  392SOL    HW2 1695   2.725   0.355   0.915
  392SOL    HW3 1696   2.789   0.428   0.799
  392SOL    MW4 1697   2.728   0.375   0.830
  393SOL     OW 1698   2.944   0.493   0.755
  393SOL    HW2 1699   3.012   0.430   0.780
  393SOL    HW3 1700   2.923   0.471   0.664
  393SOL    MW4 1701   2.950   0.482   0.746
  394SOL     OW 1702   3.027   0.743   0.789
  394SOL    HW2 1703   2.987   0.766   0.872
  394SOL    HW3 1704   3.003   0.651   0.776
  394SOL    MW4 1705   3.018   0.734   0.798
  395SOL     OW 1706   2.697   0.892   0.775
  395SOL    HW2 1707   2.778   0.842   0.785
  395SOL    HW3 1708   2.696   0.917   0.683
  395SOL    MW4 1709   2.708   0.888   0.764
  396SOL     OW 1710   2.672   1.140   0.895
  396SOL    HW2 1711   2.673   1.048   0.868
  396SOL    HW3 1712   2.624   1.185   0.825
  396SOL    MW4 1713   2.666   1.134   0.882
  397SOL     OW 1714   2.878   1.253   0.770
  397SOL    HW2 1715   2.956   1.218   0.813
  397SOL    HW3 1716   2.805   1.215   0.818
  397SOL    MW4 1717   2.879   1.244   0.782
  398SOL     OW 1718   2.915   1.540   0.825
  398SOL    HW2 1719   2.998   1.572   0.789
  398SOL    HW3 1720   2.908   1.450   0.793
  398SOL    MW4 1721   2.925   1.532   0.816
  399SOL     OW 1722   2.689   1.686   0.734
  399SOL    HW2 1723   2.690   1.766   0.787
  399SOL    HW3 1724   2.768   1.640   0.762
  399SOL    MW4 1725   2.700   1.691   0.745
  400SOL     OW 1726   2.713   1.950   0.814
  400SOL    HW2 1727   2.719   1.955   0.910
  400SOL    HW3 1728   2.631   1.994   0.793
  400SOL    MW4 1729   2.703   1.957   0.824
  401SOL     OW 1730   2.881   2.099   0.640
  401SOL    HW2 1731   2.882   2.176   0.697
  401SOL    HW3 1732   2.836   2.032   0.692
  401SOL    MW4 1733   2.875   2.101   0.654
  402SOL     OW 1734   2.867   2.342   0.774
  402SOL    HW2 1735   2.886   2.331   0.867
  402SOL    HW3 1736   2.781   2.382   0.771
  402SOL    MW4 1737   2.858   2.346   0.786
  403SOL     OW 1738   2.645   2.503   0.751
  403SOL    HW2 1739   2.644   2.522   0.657
  403SOL    HW3 1740   2.667   2.587   0.792
  403SOL    MW4 1741   2.648   2.517   0.744
  404SOL     OW 1742   2.681   2.757   0.873
  404SOL    HW2 1743   2.688   2.742   0.968
  404SOL    HW3 1744   2.769   2.782   0.847
  404SOL    MW4 1745   2.693   2.758   0.882
  405SOL     OW 1746   2.824   2.912   0.566
  405SOL    HW2 1747   2.758   2.859   0.522
  405SOL    HW3 1748   2.786   3.000   0.570
  405SOL    MW4 1749   2.810   2.916   0.561
  406SOL     OW 1750   2.923   3.126   0.930
  406SOL    HW2 1751   2.829   3.139   0.913
  406SOL    HW3 1752   2.945   3.044   0.886
  406SOL    MW4 1753   2.913   3.117   0.922
  407SOL     OW 1754   2.677   3.209   0.850
  407SOL    HW2 1755   2.654   3.301   0.836
  407SOL    HW3 1756   2.593   3.163   0.845
  407SOL    MW4 1757   2.663   3.215   0.847
  408SOL     OW 1758   2.624   3.480   0.817
  408SOL    HW2 1759   2.633   3.484   0.913
  408SOL    HW3 1760   2.711   3.505   0.784
  408SOL    MW4 1761   2.637   3.484   0.826
  409SOL     OW 1762   2.870   3.568   0.766
  409SOL    HW2 1763   2.876   3.655   0.807
  409SOL    HW3 1764   2.901   3.582   0.676
  409SOL    MW4 1765   2.875   3.582   0.759
  410SOL     OW 1766   2.910   3.843   0.846
  410SOL    HW2 1767   2.920   3.838   0.941
  410SOL    HW3 1768   2.828   3.892   0.833
  410SOL    MW4 1769   2.900   3.849   0.857
  411SOL     OW 1770   2.675   3.993   0.773
  411SOL    HW2 1771   2.594   3.951   0.803
  411SOL    HW3 1772   2.688   3.959   0.685
  411SOL    MW4 1773   2.666   3.983   0.765
  412SOL     OW 1774   2.684   4.256   0.803
  412SOL    HW2 1775   2.672   4.267   0.897
  412SOL    HW3 1776   2.688   4.161   0.790
  412SOL    MW4 1777   2.683   4.245   0.813
  413SOL     OW 1778   2.881   4.401   0.691
  413SOL    HW2 1779   2.958   4.348   0.714
  413SOL    HW3 1780   2.807   4.353   0.729
  413SOL    MW4 1781   2.881   4.388   0.699
  414SOL     OW 1782   3.337   4.582   0.848
  414SOL    HW2 1783   3.323   4.596   0.942
  414SOL    HW3 1784   3.282   4.648   0.806
  414SOL    MW4 1785   3.328   4.593   0.855
  415SOL     OW 1786   3.168   0.093   0.725
  415SOL    HW2 1787   3.168   0.184   0.752
  415SOL    HW3 1788   3.078   0.063   0.739
  415SOL    MW4 1789   3.156   0.101   0.730
  416SOL     OW 1790   3.186   0.370   0.822
  416SOL    HW2 1791   3.196   0.389   0.915
  416SOL    HW3 1792   3.251   0.425   0.779
  416SOL    MW4 1793   3.196   0.380   0.829
  417SOL     OW 1794   3.367   0.532   0.691
  417SOL    HW2 1795   3.440   0.477   0.721
  417SOL    HW3 1796   3.376   0.532   0.596
  417SOL    MW4 1797   3.378   0.525   0.682
  418SOL     OW 1798   3.313   0.775   0.817
  418SOL    HW2 1799   3.219   0.779   0.804
  418SOL    HW3 1800   3.340   0.693   0.776
  418SOL    MW4 1801   3.304   0.765   0.810
  419SOL     OW 1802   3.115   0.940   0.605
  419SOL    HW2 1803   3.123   1.008   0.671
  419SOL    HW3 1804   3.057   0.875   0.644
  419SOL    MW4 1805   3.109   0.940   0.619
  420SOL     OW 1806   3.160   1.147   0.809
  420SOL    HW2 1807   3.183   1.147   0.902
  420SOL    HW3 1808   3.231   1.194   0.766
  420SOL    MW4 1809   3.172   1.153   0.815
  421SOL     OW 1810   3.399   1.287   0.731
  421SOL    HW2 1811   3.478   1.235   0.749
  421SOL    HW3 1812   3.411   1.366   0.784
  421SOL    MW4 1813   3.411   1.291   0.740
  422SOL     OW 1814   3.409   1.537   0.839
  422SOL    HW2 1815   3.421   1.526   0.934
  422SOL    HW3 1816   3.470   1.606   0.815
  422SOL    MW4 1817   3.418   1.544   0.849
  423SOL     OW 1818   3.166   1.631   0.746
  423SOL    HW2 1819   3.256   1.604   0.765
  423SOL    HW3 1820   3.166   1.653   0.653
  423SOL    MW4 1821   3.178   1.630   0.736
  424SOL     OW 1822   3.235   1.884   0.825
  424SOL    HW2 1823   3.183   1.897   0.904
  424SOL    HW3 1824   3.208   1.798   0.792
  424SOL    MW4 1825   3.224   1.875   0.831
  425SOL     OW 1826   3.459   2.047   0.797
  425SOL    HW2 1827   3.445   2.131   0.841
  425SOL    HW3 1828   3.379   1.997   0.813
  425SOL    MW4 1829   3.446   2.051   0.805
  426SOL     OW 1830   3.453   2.299   0.888
  426SOL    HW2 1831   3.421   2.323   0.975
  426SOL    HW3 1832   3.513   2.370   0.865
  426SOL    MW4 1833   3.457   2.312   0.896
  427SOL     OW 1834   3.085   2.522   0.680
  427SOL    HW2 1835   3.154   2.456   0.673
  427SOL    HW3 1836   3.006   2.472   0.705
  427SOL    MW4 1837   3.083   2.506   0.683
  428SOL     OW 1838   3.160   2.733   0.883
  428SOL    HW2 1839   3.126   2.656   0.837
  428SOL    HW3 1840   3.225   2.770   0.823
  428SOL    MW4 1841   3.164   2.728   0.869
  429SOL     OW 1842   3.291   2.890   0.651
  429SOL    HW2 1843   3.232   2.923   0.584
  429SOL    HW3 1844   3.360   2.845   0.602
  429SOL    MW4 1845   3.292   2.888   0.636
  430SOL     OW 1846   3.339   3.087   0.843
  430SOL    HW2 1847   3.362   3.058   0.932
  430SOL    HW3 1848   3.326   3.005   0.795
  430SOL    MW4 1849   3.340   3.072   0.849
  431SOL     OW 1850   3.111   3.249   0.779
  431SOL    HW2 1851   3.182   3.186   0.782
  431SOL    HW3 1852   3.039   3.207   0.827
  431SOL    MW4 1853   3.111   3.235   0.786
  432SOL     OW 1854   3.108   3.487   0.905
  432SOL    HW2 1855   3.118   3.398   0.872
  432SOL    HW3 1856   3.024   3.517   0.871
  432SOL    MW4 1857   3.099   3.479   0.896
  433SOL     OW 1858   3.347   3.577   0.784
  433SOL    HW2 1859   3.332   3.672   0.779
  433SOL    HW3 1860   3.267   3.543   0.825
  433SOL    MW4 1861   3.334   3.585   0.789
  434SOL     OW 1862   3.323   3.858   0.838
  434SOL    HW2 1863   3.337   3.859   0.933
  434SOL    HW3 1864   3.394   3.910   0.802
  434SOL    MW4 1865   3.334   3.865   0.846
  435SOL     OW 1866   3.105   3.970   0.691
  435SOL    HW2 1867   3.187   3.949   0.734
  435SOL    HW3 1868   3.039   3.919   0.738
  435SOL    MW4 1869   3.107   3.961   0.703
  436SOL     OW 1870   3.088   4.239   0.793
  436SOL    HW2 1871   3.180   4.264   0.780
  436SOL    HW3 1872   3.079   4.157   0.744
  436SOL    MW4 1873   3.099   4.231   0.785
  437SOL     OW 1874   3.322   4.355   0.714
  437SOL    HW2 1875   3.319   4.437   0.762
  437SOL    HW3 1876   3.355   4.378   0.627
  437SOL    MW4 1877   3.326   4.369   0.709
  438SOL     OW 1878   3.789   4.664   0.843
  438SOL    HW2 1879   3.860   4.709   0.798
  438SOL    HW3 1880   3.711   4.716   0.822
  438SOL    MW4 1881   3.788   4.677   0.834
  439SOL     OW 1882   3.541   0.107   0.757
  439SOL    HW2 1883   3.484   0.040   0.795
  439SOL    HW3 1884   3.558   0.076   0.668
  439SOL    MW4 1885   3.535   0.094   0.751
  440SOL     OW 1886   3.606   0.375   0.790
  440SOL    HW2 1887   3.585   0.379   0.883
  440SOL    HW3 1888   3.577   0.288   0.762
  440SOL    MW4 1889   3.600   0.364   0.799
  441SOL     OW 1890   3.818   0.560   0.772
  441SOL    HW2 1891   3.789   0.646   0.804
  441SOL    HW3 1892   3.747   0.500   0.795
  441SOL    MW4 1893   3.805   0.564   0.779
  442SOL     OW 1894   3.748   0.811   0.846
  442SOL    HW2 1895   3.746   0.812   0.942
  442SOL    HW3 1896   3.834   0.847   0.823
  442SOL    MW4 1897   3.759   0.816   0.856
  443SOL     OW 1898   3.487   0.950   0.674
  443SOL    HW2 1899   3.565   0.895   0.680
  443SOL    HW3 1900   3.423   0.906   0.729
  443SOL    MW4 1901   3.489   0.937   0.682
  444SOL     OW 1902   3.632   1.139   0.834
  444SOL    HW2 1903   3.608   1.131   0.926
  444SOL    HW3 1904   3.594   1.061   0.793
  444SOL    MW4 1905   3.623   1.127   0.841
  445SOL     OW 1906   3.853   1.303   0.756
  445SOL    HW2 1907   3.777   1.249   0.777
  445SOL    HW3 1908   3.850   1.312   0.661
  445SOL    MW4 1909   3.843   1.297   0.746
  446SOL     OW 1910   3.825   1.567   0.846
  446SOL    HW2 1911   3.901   1.618   0.818
  446SOL    HW3 1912   3.841   1.479   0.812
  446SOL    MW4 1913   3.837   1.562   0.838
  447SOL     OW 1914   3.601   1.722   0.771
  447SOL    HW2 1915   3.630   1.795   0.825
  447SOL    HW3 1916   3.671   1.657   0.779
  447SOL    MW4 1917   3.614   1.723   0.779
  448SOL     OW 1918   3.682   1.946   0.922
  448SOL    HW2 1919   3.747   1.999   0.876
  448SOL    HW3 1920   3.598   1.978   0.889
  448SOL    MW4 1921   3.679   1.958   0.911
  449SOL     OW 1922   3.874   2.062   0.730
  449SOL    HW2 1923   3.960   2.031   0.760
  449SOL    HW3 1924   3.888   2.086   0.639
  449SOL    MW4 1925   3.887   2.061   0.722
  450SOL     OW 1926   3.861   2.319   0.857
  450SOL    HW2 1927   3.844   2.301   0.949
  450SOL    HW3 1928   3.860   2.233   0.815
  450SOL    MW4 1929   3.859   2.305   0.863
  451SOL     OW 1930   3.653   2.494   0.812
  451SOL    HW2 1931   3.659   2.583   0.848
  451SOL    HW3 1932   3.733   2.451   0.840
  451SOL    MW4 1933   3.664   2.500   0.820
  452SOL     OW 1934   3.678   2.783   0.867
  452SOL    HW2 1935   3.668   2.776   0.962
  452SOL    HW3 1936   3.728   2.864   0.854
  452SOL    MW4 1937   3.683   2.793   0.878
  453SOL     OW 1938   3.872   2.781   0.643
  453SOL    HW2 1939   3.784   2.745   0.630
  453SOL    HW3 1940   3.907   2.788   0.554
  453SOL    MW4 1941   3.865   2.778   0.630
  454SOL     OW 1942   3.794   3.037   0.872
  454SOL    HW2 1943   3.869   3.090   0.844
  454SOL    HW3 1944   3.718   3.084   0.839
  454SOL    MW4 1945   3.794   3.050   0.864
  455SOL     OW 1946   3.573   3.179   0.746
  455SOL    HW2 1947   3.490   3.137   0.767
  455SOL    HW3 1948   3.574   3.183   0.650
  455SOL    MW4 1949   3.562   3.174   0.736
  456SOL     OW 1950   3.579   3.445   0.856
  456SOL    HW2 1951   3.562   3.354   0.830
  456SOL    HW3 1952   3.499   3.492   0.831
  456SOL    MW4 1953   3.566   3.439   0.849
  457SOL     OW 1954   3.804   3.595   0.867
  457SOL    HW2 1955   3.887   3.548   0.860
  457SOL    HW3 1956   3.738   3.527   0.856
  457SOL    MW4 1957   3.806   3.580   0.865
  458SOL     OW 1958   3.767   3.863   0.852
  458SOL    HW2 1959   3.693   3.888   0.796
  458SOL    HW3 1960   3.762   3.767   0.857
  458SOL    MW4 1961   3.757   3.853   0.845
  459SOL     OW 1962   3.541   3.979   0.723
  459SOL    HW2 1963   3.536   4.069   0.755
  459SOL    HW3 1964   3.558   3.987   0.629
  459SOL    MW4 1965   3.543   3.992   0.715
  460SOL     OW 1966   3.562   4.248   0.838
  460SOL    HW2 1967   3.646   4.294   0.833
  460SOL    HW3 1968   3.498   4.311   0.807
  460SOL    MW4 1969   3.565   4.262   0.834
  461SOL     OW 1970   3.796   4.400   0.844
  461SOL    HW2 1971   3.880   4.359   0.864
  461SOL    HW3 1972   3.815   4.494   0.840
  461SOL    MW4 1973   3.809   4.407   0.846
  462SOL     OW 1974   4.247   4.661   0.823
  462SOL    HW2 1975   4.249   4.656   0.918
  462SOL    HW3 1976   4.167   4.710   0.803
  462SOL    MW4 1977   4.237   4.667   0.833
  463SOL     OW 1978   4.013   0.145   0.742
  463SOL    HW2 1979   4.015   0.213   0.810
  463SOL    HW3 1980   3.999   0.193   0.661
  463SOL    MW4 1981   4.011   0.160   0.741
  464SOL     OW 1982   4.035   0.398   0.857
  464SOL    HW2 1983   4.111   0.432   0.811
  464SOL    HW3 1984   3.961   0.444   0.818
  464SOL    MW4 1985   4.035   0.409   0.846
  465SOL     OW 1986   4.271   0.496   0.726
  465SOL    HW2 1987   4.339   0.464   0.784
  465SOL    HW3 1988   4.316   0.516   0.644
  465SOL    MW4 1989   4.286   0.495   0.723
  466SOL     OW 1990   4.224   0.763   0.865
  466SOL    HW2 1991   4.141   0.804   0.840
  466SOL    HW3 1992   4.212   0.670   0.845
  466SOL    MW4 1993   4.212   0.756   0.859
  467SOL     OW 1994   4.002   0.895   0.770
  467SOL    HW2 1995   4.023   0.985   0.794
  467SOL    HW3 1996   4.008   0.894   0.674
  467SOL    MW4 1997   4.005   0.906   0.761
  468SOL     OW 1998   4.075   1.158   0.831
  468SOL    HW2 1999   4.059   1.140   0.924
  468SOL    HW3 2000   3.997   1.205   0.802
  468SOL    MW4 2001   4.062   1.162   0.839
  469SOL     OW 2002   4.292   1.285   0.730
  469SOL    HW2 2003   4.209   1.241   0.751
  469SOL    HW3 2004   4.359   1.225   0.763
  469SOL    MW4 2005   4.290   1.271   0.737
  470SOL     OW 2006   4.257   1.537   0.853
  470SOL    HW2 2007   4.280   1.530   0.946
  470SOL    HW3 2008   4.271   1.448   0.819
  470SOL    MW4 2009   4.262   1.524   0.861
  471SOL     OW 2010   4.068   1.716   0.797
  471SOL    HW2 2011   4.130   1.645   0.813
  471SOL    HW3 2012   4.076   1.734   0.703
  471SOL    MW4 2013   4.078   1.709   0.787
  472SOL     OW 2014   4.123   1.978   0.870
  472SOL    HW2 2015   4.204   2.016   0.836
  472SOL    HW3 2016   4.129   1.885   0.849
  472SOL    MW4 2017   4.135   1.971   0.863
  473SOL     OW 2018   4.278   2.049   0.661
  473SOL    HW2 2019   4.349   1.993   0.693
  473SOL    HW3 2020   4.311   2.085   0.578
  473SOL    MW4 2021   4.292   2.046   0.654
  474SOL     OW 2022   4.348   2.298   0.800
  474SOL    HW2 2023   4.260   2.337   0.808
  474SOL    HW3 2024   4.332   2.210   0.768
  474SOL    MW4 2025   4.334   2.292   0.797
  475SOL     OW 2026   4.108   2.438   0.802
  475SOL    HW2 2027   4.093   2.531   0.818
  475SOL    HW3 2028   4.028   2.395   0.831
  475SOL    MW4 2029   4.096   2.445   0.808
  476SOL     OW 2030   4.076   2.702   0.819
  476SOL    HW2 2031   4.153   2.754   0.797
  476SOL    HW3 2032   4.011   2.728   0.754
  476SOL    MW4 2033   4.078   2.712   0.808
  477SOL     OW 2034   4.311   2.835   0.768
  477SOL    HW2 2035   4.395   2.810   0.805
  477SOL    HW3 2036   4.323   2.825   0.673
  477SOL    MW4 2037   4.323   2.830   0.760
  478SOL     OW 2038   4.304   3.112   0.838
  478SOL    HW2 2039   4.317   3.025   0.803
  478SOL    HW3 2040   4.355   3.169   0.780
  478SOL    MW4 2041   4.313   3.108   0.826
  479SOL     OW 2042   4.012   3.164   0.760
  479SOL    HW2 2043   4.015   3.256   0.786
  479SOL    HW3 2044   4.099   3.130   0.782
  479SOL    MW4 2045   4.024   3.172   0.767
  480SOL     OW 2046   4.041   3.450   0.840
  480SOL    HW2 2047   4.056   3.464   0.934
  480SOL    HW3 2048   4.113   3.494   0.797
  480SOL    MW4 2049   4.052   3.457   0.847
  481SOL     OW 2050   4.269   3.593   0.733
  481SOL    HW2 2051   4.272   3.674   0.783
  481SOL    HW3 2052   4.266   3.620   0.642
  481SOL    MW4 2053   4.269   3.607   0.728
  482SOL     OW 2054   4.267   3.845   0.853
  482SOL    HW2 2055   4.261   3.855   0.948
  482SOL    HW3 2056   4.181   3.871   0.821
  482SOL    MW4 2057   4.255   3.850   0.861
  483SOL     OW 2058   4.020   3.974   0.780
  483SOL    HW2 2059   3.945   3.930   0.820
  483SOL    HW3 2060   3.998   3.981   0.687
  483SOL    MW4 2061   4.007   3.969   0.773
  484SOL     OW 2062   4.035   4.236   0.843
  484SOL    HW2 2063   4.100   4.293   0.802
  484SOL    HW3 2064   4.047   4.151   0.802
  484SOL    MW4 2065   4.045   4.232   0.832
  485SOL     OW 2066   4.216   4.402   0.699
  485SOL    HW2 2067   4.224   4.493   0.727
  485SOL    HW3 2068   4.305   4.366   0.710
  485SOL    MW4 2069   4.229   4.409   0.704
  486SOL     OW 2070   0.211   0.018   1.182
  486SOL    HW2 2071   0.295   0.049   1.216
  486SOL    HW3 2072   0.226   0.007   1.088
  486SOL    MW4 2073   0.224   0.021   1.174
  487SOL     OW 2074   4.461   0.140   1.251
  487SOL    HW2 2075   4.389   0.091   1.211
  487SOL    HW3 2076   4.539   0.087   1.233
  487SOL    MW4 2077   4.462   0.127   1.243
  488SOL     OW 2078   4.465   0.391   1.121
  488SOL    HW2 2079   4.387   0.429   1.161
  488SOL    HW3 2080   4.469   0.302   1.156
  488SOL    MW4 2081   4.456   0.384   1.131
  489SOL     OW 2082   0.187   0.514   1.246
  489SOL    HW2 2083   0.196   0.590   1.189
  489SOL    HW3 2084   0.118   0.461   1.206
  489SOL    MW4 2085   0.179   0.517   1.233
  490SOL     OW 2086   0.217   0.752   1.111
  490SOL    HW2 2087   0.301   0.781   1.146
  490SOL    HW3 2088   0.151   0.800   1.161
  490SOL    MW4 2089   0.219   0.762   1.122
  491SOL     OW 2090   4.483   0.912   1.241
  491SOL    HW2 2091   4.486   0.895   1.335
  491SOL    HW3 2092   4.412   0.856   1.208
  491SOL    MW4 2093   4.474   0.903   1.249
  492SOL     OW 2094   4.453   1.161   1.124
  492SOL    HW2 2095   4.372   1.196   1.160
  492SOL    HW3 2096   4.466   1.077   1.168
  492SOL    MW4 2097   4.444   1.155   1.134
  493SOL     OW 2098   0.199   1.262   1.230
  493SOL    HW2 2099   0.259   1.202   1.185
  493SOL    HW3 2100   0.112   1.236   1.199
  493SOL    MW4 2101   0.195   1.250   1.220
  494SOL     OW 2102   0.238   1.516   1.129
  494SOL    HW2 2103   0.254   1.426   1.159
  494SOL    HW3 2104   0.225   1.508   1.034
  494SOL    MW4 2105   0.239   1.503   1.120
  495SOL     OW 2106   0.023   1.663   1.235
  495SOL    HW2 2107   0.033   1.746   1.188
  495SOL    HW3 2108   0.098   1.611   1.208
  495SOL    MW4 2109   0.034   1.667   1.225
  496SOL     OW 2110   0.007   1.911   1.121
  496SOL    HW2 2111  -0.064   1.963   1.159
  496SOL    HW3 2112   0.001   1.928   1.027
  496SOL    MW4 2113  -0.003   1.920   1.113
  497SOL     OW 2114   0.198   2.064   1.249
  497SOL    HW2 2115   0.202   2.136   1.187
  497SOL    HW3 2116   0.140   1.999   1.208
  497SOL    MW4 2117   0.191   2.065   1.236
  498SOL     OW 2118   0.230   2.289   1.070
  498SOL    HW2 2119   0.314   2.335   1.076
  498SOL    HW3 2120   0.166   2.353   1.098
  498SOL    MW4 2121   0.233   2.303   1.074
  499SOL     OW 2122   0.033   2.432   1.194
  499SOL    HW2 2123   0.029   2.425   1.289
  499SOL    HW3 2124  -0.034   2.371   1.162
  499SOL    MW4 2125   0.023   2.423   1.202
  500SOL     OW 2126   0.033   2.718   1.111
  500SOL    HW2 2127  -0.033   2.745   1.174
  500SOL    HW3 2128   0.014   2.625   1.094
  500SOL    MW4 2129   0.022   2.709   1.117
  501SOL     OW 2130   0.246   2.855   1.221
  501SOL    HW2 2131   0.226   2.841   1.314
  501SOL    HW3 2132   0.178   2.807   1.174
  501SOL    MW4 2133   0.234   2.847   1.227
  502SOL     OW 2134   0.205   3.090   1.077
  502SOL    HW2 2135   0.276   3.148   1.104
  502SOL    HW3 2136   0.216   3.012   1.130
  502SOL    MW4 2137   0.216   3.088   1.087
  503SOL     OW 2138   4.484   3.233   1.210
  503SOL    HW2 2139   4.417   3.169   1.188
  503SOL    HW3 2140   4.563   3.200   1.167
  503SOL    MW4 2141   4.485   3.220   1.201
  504SOL     OW 2142   4.449   3.500   1.107
  504SOL    HW2 2143   4.461   3.416   1.150
  504SOL    HW3 2144   4.465   3.482   1.014
  504SOL    MW4 2145   4.453   3.487   1.100
  505SOL     OW 2146   0.185   3.647   1.191
  505SOL    HW2 2147   0.189   3.635   1.285
  505SOL    HW3 2148   0.105   3.602   1.164
  505SOL    MW4 2149   0.175   3.639   1.200
  506SOL     OW 2150   0.212   3.915   1.098
  506SOL    HW2 2151   0.141   3.952   1.152
  506SOL    HW3 2152   0.204   3.821   1.110
  506SOL    MW4 2153   0.202   3.908   1.107
  507SOL     OW 2154   4.465   4.002   1.203
  507SOL    HW2 2155   4.451   3.996   1.297
  507SOL    HW3 2156   4.393   3.953   1.164
  507SOL    MW4 2157   4.454   3.995   1.210
  508SOL     OW 2158   4.449   4.264   1.094
  508SOL    HW2 2159   4.534   4.293   1.127
  508SOL    HW3 2160   4.450   4.169   1.104
  508SOL    MW4 2161   4.460   4.255   1.100
  509SOL     OW 2162   0.149   4.414   1.236
  509SOL    HW2 2163   0.180   4.409   1.326
  509SOL    HW3 2164   0.159   4.506   1.212
  509SOL    MW4 2165   0.154   4.426   1.244
  510SOL     OW 2166   0.679   4.653   1.144
  510SOL    HW2 2167   0.751   4.687   1.198
  510SOL    HW3 2168   0.664   4.564   1.178
  510SOL    MW4 2169   0.687   4.645   1.156
  511SOL     OW 2170   0.472   0.120   1.268
  511SOL    HW2 2171   0.458   0.206   1.228
  511SOL    HW3 2172   0.548   0.084   1.222
  511SOL    MW4 2173   0.480   0.127   1.257
  512SOL     OW 2174   0.416   0.379   1.166
  512SOL    HW2 2175   0.330   0.408   1.196
  512SOL    HW3 2176   0.411   0.386   1.070
  512SOL    MW4 2177   0.404   0.384   1.157
  513SOL     OW 2178   0.653   0.489   1.248
  513SOL    HW2 2179   0.652   0.576   1.209
  513SOL    HW3 2180   0.569   0.450   1.224
  513SOL    MW4 2181   0.642   0.495   1.240
  514SOL     OW 2182   0.649   0.731   1.092
  514SOL    HW2 2183   0.578   0.791   1.116
  514SOL    HW3 2184   0.665   0.748   1.000
  514SOL    MW4 2185   0.642   0.741   1.083
  515SOL     OW 2186   0.444   0.885   1.210
  515SOL    HW2 2187   0.426   0.908   1.302
  515SOL    HW3 2188   0.432   0.967   1.162
  515SOL    MW4 2189   0.440   0.899   1.216
  516SOL     OW 2190   0.422   1.138   1.117
  516SOL    HW2 2191   0.499   1.161   1.169
  516SOL    HW3 2192   0.451   1.148   1.026
  516SOL    MW4 2193   0.436   1.142   1.112
  517SOL     OW 2194   0.627   1.254   1.251
  517SOL    HW2 2195   0.705   1.199   1.250
  517SOL    HW3 2196   0.657   1.337   1.213
  517SOL    MW4 2197   0.642   1.258   1.246
  518SOL     OW 2198   0.683   1.546   1.133
  518SOL    HW2 2199   0.751   1.603   1.167
  518SOL    HW3 2200   0.602   1.597   1.142
  518SOL    MW4 2201   0.681   1.560   1.139
  519SOL     OW 2202   0.446   1.666   1.227
  519SOL    HW2 2203   0.436   1.648   1.320
  519SOL    HW3 2204   0.374   1.619   1.186
  519SOL    MW4 2205   0.436   1.657   1.234
  520SOL     OW 2206   0.430   1.935   1.141
  520SOL    HW2 2207   0.436   1.844   1.170
  520SOL    HW3 2208   0.341   1.961   1.165
  520SOL    MW4 2209   0.419   1.927   1.148
  521SOL     OW 2210   0.654   2.050   1.220
  521SOL    HW2 2211   0.645   2.055   1.315
  521SOL    HW3 2212   0.582   1.995   1.192
  521SOL    MW4 2213   0.643   2.044   1.229
  522SOL     OW 2214   0.705   2.310   1.128
  522SOL    HW2 2215   0.622   2.358   1.133
  522SOL    HW3 2216   0.686   2.226   1.169
  522SOL    MW4 2217   0.691   2.305   1.134
  523SOL     OW 2218   0.445   2.424   1.176
  523SOL    HW2 2219   0.442   2.408   1.270
  523SOL    HW3 2220   0.450   2.519   1.168
  523SOL    MW4 2221   0.445   2.434   1.187
  524SOL     OW 2222   0.480   2.704   1.160
  524SOL    HW2 2223   0.401   2.752   1.186
  524SOL    HW3 2224   0.490   2.724   1.067
  524SOL    MW4 2225   0.471   2.713   1.151
  525SOL     OW 2226   0.695   2.884   1.211
  525SOL    HW2 2227   0.680   2.970   1.173
  525SOL    HW3 2228   0.618   2.833   1.187
  525SOL    MW4 2229   0.683   2.888   1.203
  526SOL     OW 2230   0.668   3.126   1.086
  526SOL    HW2 2231   0.755   3.145   1.121
  526SOL    HW3 2232   0.682   3.120   0.991
  526SOL    MW4 2233   0.682   3.128   1.078
  527SOL     OW 2234   0.418   3.264   1.170
  527SOL    HW2 2235   0.426   3.356   1.147
  527SOL    HW3 2236   0.497   3.223   1.133
  527SOL    MW4 2237   0.430   3.271   1.162
  528SOL     OW 2238   0.433   3.540   1.104
  528SOL    HW2 2239   0.517   3.578   1.132
  528SOL    HW3 2240   0.367   3.597   1.143
  528SOL    MW4 2241   0.436   3.553   1.113
  529SOL     OW 2242   0.667   3.673   1.183
  529SOL    HW2 2243   0.675   3.678   1.278
  529SOL    HW3 2244   0.665   3.764   1.154
  529SOL    MW4 2245   0.668   3.685   1.191
  530SOL     OW 2246   0.679   3.933   1.096
  530SOL    HW2 2247   0.602   3.972   1.139
  530SOL    HW3 2248   0.656   3.933   1.003
  530SOL    MW4 2249   0.666   3.938   1.089
  531SOL     OW 2250   0.446   4.056   1.204
  531SOL    HW2 2251   0.437   4.151   1.208
  531SOL    HW3 2252   0.368   4.026   1.158
  531SOL    MW4 2253   0.435   4.065   1.198
  532SOL     OW 2254   0.391   4.312   1.119
  532SOL    HW2 2255   0.464   4.354   1.164
  532SOL    HW3 2256   0.313   4.348   1.160
  532SOL    MW4 2257   0.390   4.322   1.130
  533SOL     OW 2258   0.642   4.394   1.226
  533SOL    HW2 2259   0.640   4.387   1.322
  533SOL    HW3 2260   0.730   4.365   1.202
  533SOL    MW4 2261   0.653   4.389   1.236
  534SOL     OW 2262   1.100   0.038   1.170
  534SOL    HW2 2263   1.102  -0.057   1.185
  534SOL    HW3 2264   1.121   0.048   1.077
  534SOL    MW4 2265   1.103   0.026   1.160
  535SOL     OW 2266   0.878   0.144   1.263
  535SOL    HW2 2267   0.886   0.120   1.355
  535SOL    HW3 2268   0.956   0.108   1.221
  535SOL    MW4 2269   0.889   0.136   1.269
  536SOL     OW 2270   0.885   0.375   1.123
  536SOL    HW2 2271   0.870   0.292   1.170
  536SOL    HW3 2272   0.815   0.433   1.153
  536SOL    MW4 2273   0.874   0.371   1.133
  537SOL     OW 2274   1.147   0.473   1.226
  537SOL    HW2 2275   1.135   0.481   1.321
  537SOL    HW3 2276   1.061   0.444   1.194
  537SOL    MW4 2277   1.134   0.471   1.234
  538SOL     OW 2278   1.133   0.756   1.103
  538SOL    HW2 2279   1.049   0.787   1.137
  538SOL    HW3 2280   1.143   0.669   1.140
  538SOL    MW4 2281   1.123   0.749   1.112
  539SOL     OW 2282   0.882   0.829   1.186
  539SOL    HW2 2283   0.869   0.924   1.179
  539SOL    HW3 2284   0.807   0.792   1.138
  539SOL    MW4 2285   0.870   0.837   1.178
  540SOL     OW 2286   0.868   1.109   1.163
  540SOL    HW2 2287   0.937   1.170   1.188
  540SOL    HW3 2288   0.864   1.115   1.068
  540SOL    MW4 2289   0.877   1.118   1.154
  541SOL     OW 2290   1.074   1.273   1.266
  541SOL    HW2 2291   1.087   1.288   1.360
  541SOL    HW3 2292   1.158   1.236   1.237
  541SOL    MW4 2293   1.087   1.270   1.275
  542SOL     OW 2294   1.105   1.529   1.175
  542SOL    HW2 2295   1.072   1.443   1.203
  542SOL    HW3 2296   1.128   1.516   1.083
  542SOL    MW4 2297   1.103   1.516   1.167
  543SOL     OW 2298   0.891   1.686   1.230
  543SOL    HW2 2299   0.902   1.764   1.176
  543SOL    HW3 2300   0.972   1.636   1.217
  543SOL    MW4 2301   0.903   1.689   1.221
  544SOL     OW 2302   0.890   1.940   1.125
  544SOL    HW2 2303   0.961   1.984   1.172
  544SOL    HW3 2304   0.812   1.990   1.148
  544SOL    MW4 2305   0.889   1.952   1.134
  545SOL     OW 2306   1.105   2.060   1.251
  545SOL    HW2 2307   1.109   2.053   1.347
  545SOL    HW3 2308   1.130   2.150   1.232
  545SOL    MW4 2309   1.109   2.071   1.261
  546SOL     OW 2310   1.148   2.327   1.170
  546SOL    HW2 2311   1.219   2.382   1.202
  546SOL    HW3 2312   1.069   2.377   1.189
  546SOL    MW4 2313   1.147   2.341   1.177
  547SOL     OW 2314   0.897   2.483   1.234
  547SOL    HW2 2315   0.888   2.481   1.330
  547SOL    HW3 2316   0.833   2.418   1.203
  547SOL    MW4 2317   0.887   2.474   1.243
  548SOL     OW 2318   0.901   2.719   1.115
  548SOL    HW2 2319   0.881   2.636   1.158
  548SOL    HW3 2320   0.830   2.777   1.142
  548SOL    MW4 2321   0.889   2.715   1.124
  549SOL     OW 2322   1.113   2.823   1.254
  549SOL    HW2 2323   1.102   2.809   1.348
  549SOL    HW3 2324   1.034   2.787   1.215
  549SOL    MW4 2325   1.101   2.817   1.261
  550SOL     OW 2326   1.148   3.075   1.116
  550SOL    HW2 2327   1.147   2.994   1.167
  550SOL    HW3 2328   1.126   3.048   1.027
  550SOL    MW4 2329   1.145   3.061   1.111
  551SOL     OW 2330   0.892   3.209   1.232
  551SOL    HW2 2331   0.895   3.300   1.202
  551SOL    HW3 2332   0.979   3.175   1.212
  551SOL    MW4 2333   0.903   3.216   1.225
  552SOL     OW 2334   0.840   3.441   1.110
  552SOL    HW2 2335   0.773   3.507   1.128
  552SOL    HW3 2336   0.859   3.451   1.017
  552SOL    MW4 2337   0.833   3.451   1.100
  553SOL     OW 2338   1.069   3.593   1.191
  553SOL    HW2 2339   1.147   3.551   1.155
  553SOL    HW3 2340   0.995   3.545   1.154
  553SOL    MW4 2341   1.070   3.581   1.181
  554SOL     OW 2342   1.139   3.847   1.111
  554SOL    HW2 2343   1.062   3.889   1.150
  554SOL    HW3 2344   1.125   3.753   1.125
  554SOL    MW4 2345   1.127   3.840   1.118
  555SOL     OW 2346   0.929   4.014   1.205
  555SOL    HW2 2347   0.915   4.029   1.299
  555SOL    HW3 2348   0.843   3.985   1.173
  555SOL    MW4 2349   0.916   4.012   1.213
  556SOL     OW 2350   0.895   4.308   1.161
  556SOL    HW2 2351   0.905   4.215   1.179
  556SOL    HW3 2352   0.897   4.314   1.065
  556SOL    MW4 2353   0.897   4.296   1.150
  557SOL     OW 2354   1.118   4.442   1.232
  557SOL    HW2 2355   1.120   4.427   1.327
  557SOL    HW3 2356   1.034   4.405   1.205
  557SOL    MW4 2357   1.107   4.435   1.241
  558SOL     OW 2358   1.616   4.615   1.115
  558SOL    HW2 2359   1.665   4.670   1.176
  558SOL    HW3 2360   1.581   4.544   1.169
  558SOL    MW4 2361   1.618   4.613   1.130
  559SOL     OW 2362   1.385   0.123   1.204
  559SOL    HW2 2363   1.443   0.059   1.164
  559SOL    HW3 2364   1.297   0.088   1.190
  559SOL    MW4 2365   1.381   0.110   1.197
  560SOL     OW 2366   1.397   0.406   1.127
  560SOL    HW2 2367   1.402   0.316   1.157
  560SOL    HW3 2368   1.318   0.441   1.168
  560SOL    MW4 2369   1.387   0.399   1.136
  561SOL     OW 2370   1.636   0.516   1.209
  561SOL    HW2 2371   1.622   0.598   1.162
  561SOL    HW3 2372   1.556   0.465   1.193
  561SOL    MW4 2373   1.623   0.520   1.201
  562SOL     OW 2374   1.566   0.748   1.099
  562SOL    HW2 2375   1.652   0.787   1.118
  562SOL    HW3 2376   1.564   0.740   1.004
  562SOL    MW4 2377   1.577   0.752   1.089
  563SOL     OW 2378   1.335   0.878   1.254
  563SOL    HW2 2379   1.407   0.837   1.207
  563SOL    HW3 2380   1.256   0.837   1.219
  563SOL    MW4 2381   1.334   0.867   1.243
  564SOL     OW 2382   1.322   1.156   1.173
  564SOL    HW2 2383   1.308   1.062   1.186
  564SOL    HW3 2384   1.314   1.169   1.079
  564SOL    MW4 2385   1.319   1.146   1.163
  565SOL     OW 2386   1.558   1.317   1.215
  565SOL    HW2 2387   1.618   1.261   1.166
  565SOL    HW3 2388   1.475   1.269   1.215
  565SOL    MW4 2389   1.555   1.303   1.208
  566SOL     OW 2390   1.546   1.555   1.082
  566SOL    HW2 2391   1.619   1.607   1.116
  566SOL    HW3 2392   1.566   1.465   1.107
  566SOL    MW4 2393   1.558   1.550   1.090
  567SOL     OW 2394   1.342   1.671   1.230
  567SOL    HW2 2395   1.416   1.624   1.192
  567SOL    HW3 2396   1.269   1.609   1.223
  567SOL    MW4 2397   1.342   1.656   1.224
  568SOL     OW 2398   1.299   1.926   1.107
  568SOL    HW2 2399   1.320   1.839   1.141
  568SOL    HW3 2400   1.232   1.960   1.166
  568SOL    MW4 2401   1.293   1.919   1.119
  569SOL     OW 2402   1.535   2.058   1.195
  569SOL    HW2 2403   1.552   2.151   1.181
  569SOL    HW3 2404   1.457   2.040   1.143
  569SOL    MW4 2405   1.527   2.068   1.186
  570SOL     OW 2406   1.561   2.332   1.144
  570SOL    HW2 2407   1.489   2.385   1.177
  570SOL    HW3 2408   1.554   2.339   1.048
  570SOL    MW4 2409   1.550   2.340   1.136
  571SOL     OW 2410   1.370   2.480   1.251
  571SOL    HW2 2411   1.339   2.478   1.342
  571SOL    HW3 2412   1.347   2.568   1.221
  571SOL    MW4 2413   1.363   2.491   1.259
  572SOL     OW 2414   1.331   2.726   1.136
  572SOL    HW2 2415   1.409   2.764   1.175
  572SOL    HW3 2416   1.258   2.762   1.186
  572SOL    MW4 2417   1.332   2.735   1.148
  573SOL     OW 2418   1.567   2.853   1.207
  573SOL    HW2 2419   1.642   2.801   1.179
  573SOL    HW3 2420   1.563   2.926   1.146
  573SOL    MW4 2421   1.576   2.855   1.196
  574SOL     OW 2422   1.552   3.106   1.073
  574SOL    HW2 2423   1.638   3.131   1.106
  574SOL    HW3 2424   1.491   3.160   1.123
  574SOL    MW4 2425   1.555   3.116   1.084
  575SOL     OW 2426   1.342   3.225   1.220
  575SOL    HW2 2427   1.328   3.226   1.315
  575SOL    HW3 2428   1.273   3.168   1.186
  575SOL    MW4 2429   1.331   3.217   1.228
  576SOL     OW 2430   1.301   3.477   1.116
  576SOL    HW2 2431   1.318   3.386   1.140
  576SOL    HW3 2432   1.312   3.479   1.021
  576SOL    MW4 2433   1.305   3.465   1.106
  577SOL     OW 2434   1.518   3.583   1.234
  577SOL    HW2 2435   1.529   3.676   1.217
  577SOL    HW3 2436   1.425   3.566   1.221
  577SOL    MW4 2437   1.507   3.593   1.230
  578SOL     OW 2438   1.530   3.846   1.181
  578SOL    HW2 2439   1.462   3.902   1.219
  578SOL    HW3 2440   1.529   3.867   1.088
  578SOL    MW4 2441   1.521   3.857   1.174
  579SOL     OW 2442   1.319   4.010   1.262
  579SOL    HW2 2443   1.321   4.090   1.211
  579SOL    HW3 2444   1.253   3.955   1.220
  579SOL    MW4 2445   1.311   4.013   1.250
  580SOL     OW 2446   1.293   4.247   1.127
  580SOL    HW2 2447   1.230   4.316   1.147
  580SOL    HW3 2448   1.323   4.268   1.038
  580SOL    MW4 2449   1.289   4.259   1.118
  581SOL     OW 2450   1.490   4.408   1.242
  581SOL    HW2 2451   1.496   4.392   1.336
  581SOL    HW3 2452   1.425   4.345   1.211
  581SOL    MW4 2453   1.482   4.398   1.251
  582SOL     OW 2454   1.995   4.646   1.162
  582SOL    HW2 2455   2.009   4.556   1.191
  582SOL    HW3 2456   1.983   4.640   1.068
  582SOL    MW4 2457   1.995   4.633   1.154
  583SOL     OW 2458   1.801   0.128   1.265
  583SOL    HW2 2459   1.823   0.211   1.222
  583SOL    HW3 2460   1.866   0.066   1.232
  583SOL    MW4 2461   1.812   0.131   1.255
  584SOL     OW 2462   1.840   0.370   1.125
  584SOL    HW2 2463   1.772   0.435   1.144
  584SOL    HW3 2464   1.836   0.358   1.030
  584SOL    MW4 2465   1.831   0.377   1.115
  585SOL     OW 2466   2.030   0.548   1.212
  585SOL    HW2 2467   2.035   0.548   1.307
  585SOL    HW3 2468   1.966   0.480   1.190
  585SOL    MW4 2469   2.022   0.539   1.221
  586SOL     OW 2470   2.031   0.802   1.099
  586SOL    HW2 2471   2.036   0.709   1.122
  586SOL    HW3 2472   2.031   0.803   1.003
  586SOL    MW4 2473   2.032   0.790   1.089
  587SOL     OW 2474   1.788   0.896   1.186
  587SOL    HW2 2475   1.793   0.917   1.280
  587SOL    HW3 2476   1.878   0.874   1.162
  587SOL    MW4 2477   1.801   0.896   1.196
  588SOL     OW 2478   1.777   1.185   1.126
  588SOL    HW2 2479   1.774   1.092   1.148
  588SOL    HW3 2480   1.787   1.186   1.031
  588SOL    MW4 2481   1.778   1.173   1.116
  589SOL     OW 2482   1.986   1.307   1.244
  589SOL    HW2 2483   2.062   1.258   1.214
  589SOL    HW3 2484   1.911   1.261   1.206
  589SOL    MW4 2485   1.986   1.294   1.235
  590SOL     OW 2486   2.005   1.582   1.147
  590SOL    HW2 2487   2.012   1.493   1.182
  590SOL    HW3 2488   2.010   1.570   1.052
  590SOL    MW4 2489   2.007   1.569   1.139
  591SOL     OW 2490   1.757   1.680   1.223
  591SOL    HW2 2491   1.764   1.770   1.190
  591SOL    HW3 2492   1.834   1.636   1.188
  591SOL    MW4 2493   1.768   1.686   1.214
  592SOL     OW 2494   1.787   1.950   1.117
  592SOL    HW2 2495   1.696   1.978   1.119
  592SOL    HW3 2496   1.810   1.949   1.024
  592SOL    MW4 2497   1.778   1.953   1.105
  593SOL     OW 2498   2.043   2.082   1.201
  593SOL    HW2 2499   2.044   2.069   1.296
  593SOL    HW3 2500   1.958   2.051   1.173
  593SOL    MW4 2501   2.032   2.076   1.210
  594SOL     OW 2502   2.010   2.357   1.153
  594SOL    HW2 2503   2.096   2.395   1.172
  594SOL    HW3 2504   2.018   2.265   1.176
  594SOL    MW4 2505   2.022   2.350   1.158
  595SOL     OW 2506   1.782   2.453   1.261
  595SOL    HW2 2507   1.867   2.416   1.241
  595SOL    HW3 2508   1.720   2.400   1.211
  595SOL    MW4 2509   1.785   2.441   1.252
  596SOL     OW 2510   1.803   2.700   1.121
  596SOL    HW2 2511   1.798   2.614   1.163
  596SOL    HW3 2512   1.792   2.681   1.028
  596SOL    MW4 2513   1.800   2.686   1.114
  597SOL     OW 2514   2.044   2.790   1.242
  597SOL    HW2 2515   2.036   2.876   1.201
  597SOL    HW3 2516   1.969   2.741   1.208
  597SOL    MW4 2517   2.033   2.795   1.232
  598SOL     OW 2518   2.015   3.060   1.137
  598SOL    HW2 2519   1.931   3.089   1.172
  598SOL    HW3 2520   2.002   3.055   1.042
  598SOL    MW4 2521   2.003   3.063   1.129
  599SOL     OW 2522   1.784   3.185   1.216
  599SOL    HW2 2523   1.776   3.191   1.311
  599SOL    HW3 2524   1.773   3.274   1.185
  599SOL    MW4 2525   1.781   3.197   1.224
  600SOL     OW 2526   1.743   3.469   1.156
  600SOL    HW2 2527   1.801   3.545   1.167
  600SOL    HW3 2528   1.655   3.504   1.171
  600SOL    MW4 2529   1.739   3.484   1.159
  601SOL     OW 2530   1.981   3.648   1.213
  601SOL    HW2 2531   1.994   3.643   1.308
  601SOL    HW3 2532   2.056   3.602   1.175
  601SOL    MW4 2533   1.993   3.641   1.220
  602SOL     OW 2534   2.005   3.915   1.123
  602SOL    HW2 2535   1.929   3.966   1.150
  602SOL    HW3 2536   1.989   3.828   1.159
  602SOL    MW4 2537   1.993   3.910   1.131
  603SOL     OW 2538   1.758   4.001   1.214
  603SOL    HW2 2539   1.771   4.011   1.308
  603SOL    HW3 2540   1.680   3.947   1.207
  603SOL    MW4 2541   1.749   3.995   1.226
  604SOL     OW 2542   1.737   4.276   1.155
  604SOL    HW2 2543   1.733   4.182   1.169
  604SOL    HW3 2544   1.652   4.308   1.186
  604SOL    MW4 2545   1.725   4.268   1.161
  605SOL     OW 2546   1.993   4.383   1.218
  605SOL    HW2 2547   1.975   4.385   1.312
  605SOL    HW3 2548   1.912   4.351   1.179
  605SOL    MW4 2549   1.980   4.379   1.226
  606SOL     OW 2550   2.496   4.663   1.121
  606SOL    HW2 2551   2.569   4.719   1.146
  606SOL    HW3 2552   2.419   4.708   1.153
  606SOL    MW4 2553   2.496   4.676   1.129
  607SOL     OW 2554   2.239   0.077   1.207
  607SOL    HW2 2555   2.240   0.170   1.186
  607SOL    HW3 2556   2.150   0.049   1.186
  607SOL    MW4 2557   2.227   0.086   1.202
  608SOL     OW 2558   2.241   0.357   1.146
  608SOL    HW2 2559   2.171   0.420   1.163
  608SOL    HW3 2560   2.245   0.351   1.051
  608SOL    MW4 2561   2.233   0.365   1.136
  609SOL     OW 2562   2.475   0.503   1.219
  609SOL    HW2 2563   2.482   0.521   1.312
  609SOL    HW3 2564   2.401   0.444   1.211
  609SOL    MW4 2565   2.466   0.498   1.230
  610SOL     OW 2566   2.452   0.763   1.100
  610SOL    HW2 2567   2.455   0.670   1.122
  610SOL    HW3 2568   2.431   0.765   1.006
  610SOL    MW4 2569   2.450   0.751   1.090
  611SOL     OW 2570   2.249   0.920   1.204
  611SOL    HW2 2571   2.324   0.870   1.172
  611SOL    HW3 2572   2.173   0.872   1.171
  611SOL    MW4 2573   2.249   0.907   1.195
  612SOL     OW 2574   2.209   1.195   1.116
  612SOL    HW2 2575   2.296   1.231   1.134
  612SOL    HW3 2576   2.213   1.105   1.148
  612SOL    MW4 2577   2.221   1.188   1.123
  613SOL     OW 2578   2.454   1.319   1.200
  613SOL    HW2 2579   2.533   1.271   1.178
  613SOL    HW3 2580   2.470   1.408   1.169
  613SOL    MW4 2581   2.466   1.325   1.193
  614SOL     OW 2582   2.472   1.553   1.063
  614SOL    HW2 2583   2.388   1.593   1.084
  614SOL    HW3 2584   2.470   1.540   0.968
  614SOL    MW4 2585   2.461   1.557   1.053
  615SOL     OW 2586   2.263   1.679   1.202
  615SOL    HW2 2587   2.263   1.765   1.160
  615SOL    HW3 2588   2.172   1.650   1.197
  615SOL    MW4 2589   2.251   1.686   1.195
  616SOL     OW 2590   2.267   1.946   1.113
  616SOL    HW2 2591   2.186   1.995   1.132
  616SOL    HW3 2592   2.265   1.934   1.018
  616SOL    MW4 2593   2.256   1.951   1.103
  617SOL     OW 2594   2.474   2.090   1.224
  617SOL    HW2 2595   2.549   2.048   1.182
  617SOL    HW3 2596   2.399   2.037   1.199
  617SOL    MW4 2597   2.474   2.078   1.215
  618SOL     OW 2598   2.477   2.338   1.149
  618SOL    HW2 2599   2.489   2.250   1.184
  618SOL    HW3 2600   2.453   2.326   1.058
  618SOL    MW4 2601   2.476   2.325   1.142
  619SOL     OW 2602   2.264   2.485   1.229
  619SOL    HW2 2603   2.258   2.483   1.324
  619SOL    HW3 2604   2.338   2.428   1.208
  619SOL    MW4 2605   2.273   2.477   1.239
  620SOL     OW 2606   2.274   2.753   1.107
  620SOL    HW2 2607   2.281   2.658   1.104
  620SOL    HW3 2608   2.193   2.770   1.155
  620SOL    MW4 2609   2.264   2.743   1.113
  621SOL     OW 2610   2.514   2.841   1.234
  621SOL    HW2 2611   2.509   2.832   1.329
  621SOL    HW3 2612   2.437   2.795   1.201
  621SOL    MW4 2613   2.503   2.834   1.242
  622SOL     OW 2614   2.436   3.099   1.138
  622SOL    HW2 2615   2.359   3.147   1.168
  622SOL    HW3 2616   2.437   3.020   1.192
  622SOL    MW4 2617   2.426   3.095   1.149
  623SOL     OW 2618   2.214   3.232   1.219
  623SOL    HW2 2619   2.199   3.310   1.166
  623SOL    HW3 2620   2.149   3.168   1.188
  623SOL    MW4 2621   2.203   3.234   1.208
  624SOL     OW 2622   2.200   3.493   1.113
  624SOL    HW2 2623   2.285   3.527   1.140
  624SOL    HW3 2624   2.204   3.490   1.017
  624SOL    MW4 2625   2.212   3.497   1.104
  625SOL     OW 2626   2.452   3.617   1.188
  625SOL    HW2 2627   2.463   3.590   1.280
  625SOL    HW3 2628   2.453   3.712   1.191
  625SOL    MW4 2629   2.454   3.626   1.201
  626SOL     OW 2630   2.475   3.889   1.149
  626SOL    HW2 2631   2.392   3.921   1.182
  626SOL    HW3 2632   2.459   3.873   1.056
  626SOL    MW4 2633   2.462   3.891   1.141
  627SOL     OW 2634   2.235   4.023   1.231
  627SOL    HW2 2635   2.240   4.114   1.200
  627SOL    HW3 2636   2.155   3.989   1.192
  627SOL    MW4 2637   2.225   4.031   1.222
  628SOL     OW 2638   2.243   4.279   1.138
  628SOL    HW2 2639   2.160   4.314   1.170
  628SOL    HW3 2640   2.237   4.286   1.042
  628SOL    MW4 2641   2.231   4.284   1.129
  629SOL     OW 2642   2.463   4.400   1.245
  629SOL    HW2 2643   2.406   4.336   1.202
  629SOL    HW3 2644   2.448   4.482   1.196
  629SOL    MW4 2645   2.454   4.402   1.233
  630SOL     OW 2646   2.955   4.637   1.098
  630SOL    HW2 2647   2.925   4.554   1.135
  630SOL    HW3 2648   2.937   4.630   1.004
  630SOL    MW4 2649   2.949   4.625   1.090
  631SOL     OW 2650   2.720   0.119   1.208
  631SOL    HW2 2651   2.746   0.124   1.300
  631SOL    HW3 2652   2.794   0.077   1.164
  631SOL    MW4 2653   2.733   0.114   1.214
  632SOL     OW 2654   2.698   0.379   1.103
  632SOL    HW2 2655   2.703   0.292   1.143
  632SOL    HW3 2656   2.607   0.405   1.115
  632SOL    MW4 2657   2.687   0.371   1.110
  633SOL     OW 2658   2.915   0.544   1.171
  633SOL    HW2 2659   2.916   0.622   1.116
  633SOL    HW3 2660   2.838   0.495   1.141
  633SOL    MW4 2661   2.905   0.548   1.159
  634SOL     OW 2662   2.912   0.784   1.037
  634SOL    HW2 2663   2.983   0.827   1.084
  634SOL    HW3 2664   2.833   0.809   1.085
  634SOL    MW4 2665   2.911   0.793   1.049
  635SOL     OW 2666   2.696   0.888   1.188
  635SOL    HW2 2667   2.673   0.981   1.185
  635SOL    HW3 2668   2.613   0.842   1.174
  635SOL    MW4 2669   2.682   0.894   1.186
  636SOL     OW 2670   2.692   1.173   1.169
  636SOL    HW2 2671   2.777   1.205   1.199
  636SOL    HW3 2672   2.702   1.160   1.075
  636SOL    MW4 2673   2.704   1.175   1.160
  637SOL     OW 2674   2.950   1.287   1.212
  637SOL    HW2 2675   2.955   1.310   1.305
  637SOL    HW3 2676   2.945   1.371   1.166
  637SOL    MW4 2677   2.950   1.301   1.218
  638SOL     OW 2678   2.916   1.549   1.115
  638SOL    HW2 2679   2.992   1.590   1.156
  638SOL    HW3 2680   2.931   1.559   1.021
  638SOL    MW4 2681   2.928   1.555   1.108
  639SOL     OW 2682   2.680   1.690   1.193
  639SOL    HW2 2683   2.756   1.635   1.175
  639SOL    HW3 2684   2.611   1.655   1.136
  639SOL    MW4 2685   2.681   1.678   1.183
  640SOL     OW 2686   2.685   1.949   1.116
  640SOL    HW2 2687   2.767   1.985   1.148
  640SOL    HW3 2688   2.688   1.856   1.139
  640SOL    MW4 2689   2.696   1.941   1.124
  641SOL     OW 2690   2.914   2.079   1.198
  641SOL    HW2 2691   2.939   2.106   1.286
  641SOL    HW3 2692   2.910   2.160   1.148
  641SOL    MW4 2693   2.917   2.093   1.203
  642SOL     OW 2694   2.910   2.321   1.066
  642SOL    HW2 2695   2.987   2.359   1.108
  642SOL    HW3 2696   2.836   2.358   1.113
  642SOL    MW4 2697   2.910   2.331   1.078
  643SOL     OW 2698   2.711   2.460   1.210
  643SOL    HW2 2699   2.720   2.464   1.305
  643SOL    HW3 2700   2.628   2.415   1.195
  643SOL    MW4 2701   2.701   2.454   1.220
  644SOL     OW 2702   2.751   2.725   1.132
  644SOL    HW2 2703   2.733   2.632   1.148
  644SOL    HW3 2704   2.672   2.770   1.161
  644SOL    MW4 2705   2.738   2.718   1.138
  645SOL     OW 2706   2.962   2.855   1.265
  645SOL    HW2 2707   2.955   2.838   1.359
  645SOL    HW3 2708   2.894   2.800   1.225
  645SOL    MW4 2709   2.953   2.845   1.272
  646SOL     OW 2710   2.850   3.104   1.194
  646SOL    HW2 2711   2.875   3.013   1.212
  646SOL    HW3 2712   2.875   3.118   1.103
  646SOL    MW4 2713   2.857   3.094   1.184
  647SOL     OW 2714   2.628   3.250   1.252
  647SOL    HW2 2715   2.707   3.198   1.238
  647SOL    HW3 2716   2.558   3.199   1.211
  647SOL    MW4 2717   2.629   3.236   1.245
  648SOL     OW 2718   2.666   3.464   1.089
  648SOL    HW2 2719   2.664   3.379   1.133
  648SOL    HW3 2720   2.589   3.510   1.122
  648SOL    MW4 2721   2.656   3.459   1.099
  649SOL     OW 2722   2.872   3.580   1.249
  649SOL    HW2 2723   2.954   3.533   1.230
  649SOL    HW3 2724   2.807   3.538   1.193
  649SOL    MW4 2725   2.875   3.568   1.239
  650SOL     OW 2726   2.896   3.843   1.118
  650SOL    HW2 2727   2.977   3.878   1.155
  650SOL    HW3 2728   2.890   3.754   1.151
  650SOL    MW4 2729   2.906   3.836   1.127
  651SOL     OW 2730   2.704   4.033   1.197
  651SOL    HW2 2731   2.767   3.965   1.174
  651SOL    HW3 2732   2.620   3.997   1.169
  651SOL    MW4 2733   2.701   4.019   1.190
  652SOL     OW 2734   2.671   4.307   1.085
  652SOL    HW2 2735   2.679   4.215   1.112
  652SOL    HW3 2736   2.610   4.345   1.148
  652SOL    MW4 2737   2.664   4.300   1.097
  653SOL     OW 2738   2.877   4.395   1.213
  653SOL    HW2 2739   2.947   4.343   1.173
  653SOL    HW3 2740   2.798   4.369   1.165
  653SOL    MW4 2741   2.876   4.384   1.201
  654SOL     OW 2742   3.330   4.658   1.115
  654SOL    HW2 2743   3.408   4.698   1.153
  654SOL    HW3 2744   3.262   4.724   1.124
  654SOL    MW4 2745   3.331   4.672   1.121
  655SOL     OW 2746   3.127   0.170   1.174
  655SOL    HW2 2747   3.136   0.164   1.269
  655SOL    HW3 2748   3.072   0.095   1.151
  655SOL    MW4 2749   3.121   0.159   1.184
  656SOL     OW 2750   3.170   0.435   1.127
  656SOL    HW2 2751   3.141   0.345   1.143
  656SOL    HW3 2752   3.092   0.488   1.141
  656SOL    MW4 2753   3.156   0.430   1.131
  657SOL     OW 2754   3.394   0.555   1.222
  657SOL    HW2 2755   3.386   0.644   1.190
  657SOL    HW3 2756   3.312   0.512   1.195
  657SOL    MW4 2757   3.382   0.561   1.214
  658SOL     OW 2758   3.362   0.796   1.086
  658SOL    HW2 2759   3.274   0.816   1.118
  658SOL    HW3 2760   3.352   0.790   0.991
  658SOL    MW4 2761   3.349   0.798   1.077
  659SOL     OW 2762   3.119   0.870   1.209
  659SOL    HW2 2763   3.143   0.864   1.301
  659SOL    HW3 2764   3.134   0.962   1.186
  659SOL    MW4 2765   3.124   0.882   1.218
  660SOL     OW 2766   3.166   1.140   1.149
  660SOL    HW2 2767   3.244   1.192   1.163
  660SOL    HW3 2768   3.093   1.200   1.166
  660SOL    MW4 2769   3.167   1.155   1.153
  661SOL     OW 2770   3.388   1.293   1.220
  661SOL    HW2 2771   3.387   1.306   1.315
  661SOL    HW3 2772   3.374   1.381   1.184
  661SOL    MW4 2773   3.386   1.306   1.228
  662SOL     OW 2774   3.369   1.544   1.125
  662SOL    HW2 2775   3.443   1.599   1.152
  662SOL    HW3 2776   3.292   1.593   1.151
  662SOL    MW4 2777   3.369   1.558   1.132
  663SOL     OW 2778   3.142   1.683   1.204
  663SOL    HW2 2779   3.132   1.716   1.293
  663SOL    HW3 2780   3.123   1.759   1.148
  663SOL    MW4 2781   3.138   1.698   1.208
  664SOL     OW 2782   3.110   1.930   1.080
  664SOL    HW2 2783   3.187   1.971   1.119
  664SOL    HW3 2784   3.037   1.984   1.110
  664SOL    MW4 2785   3.111   1.943   1.089
  665SOL     OW 2786   3.340   2.045   1.212
  665SOL    HW2 2787   3.430   2.015   1.199
  665SOL    HW3 2788   3.340   2.135   1.180
  665SOL    MW4 2789   3.352   2.053   1.206
  666SOL     OW 2790   3.333   2.309   1.140
  666SOL    HW2 2791   3.404   2.358   1.183
  666SOL    HW3 2792   3.255   2.332   1.190
  666SOL    MW4 2793   3.332   2.319   1.152
  667SOL     OW 2794   3.114   2.460   1.235
  667SOL    HW2 2795   3.126   2.461   1.330
  667SOL    HW3 2796   3.156   2.540   1.204
  667SOL    MW4 2797   3.121   2.471   1.244
  668SOL     OW 2798   3.183   2.724   1.166
  668SOL    HW2 2799   3.101   2.766   1.191
  668SOL    HW3 2800   3.186   2.731   1.071
  668SOL    MW4 2801   3.172   2.730   1.157
  669SOL     OW 2802   3.411   2.822   1.271
  669SOL    HW2 2803   3.395   2.911   1.239
  669SOL    HW3 2804   3.329   2.775   1.255
  669SOL    MW4 2805   3.398   2.827   1.265
  670SOL     OW 2806   3.356   3.075   1.122
  670SOL    HW2 2807   3.437   3.112   1.157
  670SOL    HW3 2808   3.287   3.129   1.159
  670SOL    MW4 2809   3.358   3.087   1.132
  671SOL     OW 2810   3.116   3.213   1.243
  671SOL    HW2 2811   3.112   3.307   1.224
  671SOL    HW3 2812   3.026   3.182   1.228
  671SOL    MW4 2813   3.103   3.221   1.239
  672SOL     OW 2814   3.107   3.474   1.182
  672SOL    HW2 2815   3.195   3.512   1.181
  672SOL    HW3 2816   3.086   3.459   1.090
  672SOL    MW4 2817   3.116   3.477   1.170
  673SOL     OW 2818   3.339   3.609   1.200
  673SOL    HW2 2819   3.342   3.628   1.294
  673SOL    HW3 2820   3.417   3.557   1.183
  673SOL    MW4 2821   3.350   3.605   1.210
  674SOL     OW 2822   3.382   3.875   1.108
  674SOL    HW2 2823   3.300   3.907   1.144
  674SOL    HW3 2824   3.384   3.782   1.132
  674SOL    MW4 2825   3.371   3.867   1.116
  675SOL     OW 2826   3.134   3.971   1.190
  675SOL    HW2 2827   3.133   3.981   1.285
  675SOL    HW3 2828   3.117   4.059   1.156
  675SOL    MW4 2829   3.131   3.984   1.198
  676SOL     OW 2830   3.096   4.238   1.096
  676SOL    HW2 2831   3.165   4.303   1.108
  676SOL    HW3 2832   3.101   4.215   1.003
  676SOL    MW4 2833   3.106   4.244   1.085
  677SOL     OW 2834   3.337   4.374   1.161
  677SOL    HW2 2835   3.425   4.342   1.145
  677SOL    HW3 2836   3.341   4.467   1.139
  677SOL    MW4 2837   3.349   4.382   1.156
  678SOL     OW 2838   3.797   4.650   1.138
  678SOL    HW2 2839   3.799   4.557   1.160
  678SOL    HW3 2840   3.805   4.652   1.042
  678SOL    MW4 2841   3.798   4.638   1.128
  679SOL     OW 2842   3.560   0.104   1.192
  679SOL    HW2 2843   3.565   0.175   1.128
  679SOL    HW3 2844   3.642   0.056   1.181
  679SOL    MW4 2845   3.571   0.107   1.182
  680SOL     OW 2846   3.560   0.361   1.063
  680SOL    HW2 2847   3.634   0.376   1.122
  680SOL    HW3 2848   3.498   0.431   1.083
  680SOL    MW4 2849   3.561   0.372   1.074
  681SOL     OW 2850   3.751   0.476   1.233
  681SOL    HW2 2851   3.841   0.467   1.200
  681SOL    HW3 2852   3.729   0.568   1.218
  681SOL    MW4 2853   3.760   0.487   1.227
  682SOL     OW 2854   3.747   0.734   1.143
  682SOL    HW2 2855   3.824   0.778   1.178
  682SOL    HW3 2856   3.672   0.784   1.177
  682SOL    MW4 2857   3.747   0.746   1.152
  683SOL     OW 2858   3.581   0.926   1.208
  683SOL    HW2 2859   3.599   1.008   1.163
  683SOL    HW3 2860   3.496   0.897   1.174
  683SOL    MW4 2861   3.572   0.933   1.198
  684SOL     OW 2862   3.608   1.180   1.104
  684SOL    HW2 2863   3.674   1.223   1.158
  684SOL    HW3 2864   3.525   1.199   1.148
  684SOL    MW4 2865   3.605   1.188   1.117
  685SOL     OW 2866   3.813   1.295   1.248
  685SOL    HW2 2867   3.815   1.321   1.341
  685SOL    HW3 2868   3.811   1.378   1.200
  685SOL    MW4 2869   3.813   1.310   1.254
  686SOL     OW 2870   3.830   1.546   1.123
  686SOL    HW2 2871   3.899   1.608   1.148
  686SOL    HW3 2872   3.833   1.545   1.027
  686SOL    MW4 2873   3.840   1.554   1.113
  687SOL     OW 2874   3.602   1.687   1.210
  687SOL    HW2 2875   3.621   1.780   1.208
  687SOL    HW3 2876   3.683   1.645   1.181
  687SOL    MW4 2877   3.615   1.693   1.206
  688SOL     OW 2878   3.608   1.964   1.204
  688SOL    HW2 2879   3.681   2.018   1.234
  688SOL    HW3 2880   3.628   1.946   1.112
  688SOL    MW4 2881   3.620   1.969   1.196
  689SOL     OW 2882   3.839   2.080   1.275
  689SOL    HW2 2883   3.860   2.067   1.368
  689SOL    HW3 2884   3.896   2.018   1.230
  689SOL    MW4 2885   3.849   2.070   1.282
  690SOL     OW 2886   3.821   2.330   1.132
  690SOL    HW2 2887   3.894   2.385   1.160
  690SOL    HW3 2888   3.838   2.245   1.174
  690SOL    MW4 2889   3.833   2.326   1.141
  691SOL     OW 2890   3.570   2.423   1.227
  691SOL    HW2 2891   3.586   2.428   1.321
  691SOL    HW3 2892   3.649   2.382   1.191
  691SOL    MW4 2893   3.583   2.418   1.235
  692SOL     OW 2894   3.626   2.699   1.143
  692SOL    HW2 2895   3.614   2.608   1.168
  692SOL    HW3 2896   3.555   2.746   1.186
  692SOL    MW4 2897   3.615   2.693   1.152
  693SOL     OW 2898   3.863   2.864   1.243
  693SOL    HW2 2899   3.859   2.871   1.339
  693SOL    HW3 2900   3.795   2.800   1.222
  693SOL    MW4 2901   3.853   2.857   1.253
  694SOL     OW 2902   3.789   3.103   1.151
  694SOL    HW2 2903   3.823   3.023   1.191
  694SOL    HW3 2904   3.768   3.077   1.061
  694SOL    MW4 2905   3.791   3.089   1.144
  695SOL     OW 2906   3.569   3.216   1.239
  695SOL    HW2 2907   3.549   3.299   1.195
  695SOL    HW3 2908   3.648   3.185   1.195
  695SOL    MW4 2909   3.577   3.223   1.227
  696SOL     OW 2910   3.573   3.485   1.129
  696SOL    HW2 2911   3.653   3.527   1.162
  696SOL    HW3 2912   3.589   3.474   1.035
  696SOL    MW4 2913   3.586   3.489   1.121
  697SOL     OW 2914   3.791   3.606   1.227
  697SOL    HW2 2915   3.802   3.594   1.321
  697SOL    HW3 2916   3.815   3.698   1.212
  697SOL    MW4 2917   3.796   3.617   1.237
  698SOL     OW 2918   3.816   3.878   1.136
  698SOL    HW2 2919   3.739   3.922   1.171
  698SOL    HW3 2920   3.806   3.883   1.041
  698SOL    MW4 2921   3.805   3.884   1.128
  699SOL     OW 2922   3.591   4.000   1.232
  699SOL    HW2 2923   3.579   3.973   1.323
  699SOL    HW3 2924   3.518   3.959   1.185
  699SOL    MW4 2925   3.580   3.991   1.238
  700SOL     OW 2926   3.584   4.263   1.134
  700SOL    HW2 2927   3.593   4.178   1.177
  700SOL    HW3 2928   3.589   4.242   1.040
  700SOL    MW4 2929   3.586   4.249   1.127
  701SOL     OW 2930   3.828   4.382   1.224
  701SOL    HW2 2931   3.823   4.377   1.319
  701SOL    HW3 2932   3.751   4.333   1.193
  701SOL    MW4 2933   3.817   4.375   1.232
  702SOL     OW 2934   4.257   0.008   1.113
  702SOL    HW2 2935   4.249  -0.082   1.146
  702SOL    HW3 2936   4.182   0.054   1.149
  702SOL    MW4 2937   4.246   0.002   1.122
  703SOL     OW 2938   4.024   0.117   1.203
  703SOL    HW2 2939   4.020   0.136   1.297
  703SOL    HW3 2940   3.943   0.068   1.186
  703SOL    MW4 2941   4.013   0.113   1.213
  704SOL     OW 2942   3.999   0.401   1.126
  704SOL    HW2 2943   4.005   0.307   1.143
  704SOL    HW3 2944   4.020   0.410   1.033
  704SOL    MW4 2945   4.002   0.390   1.116
  705SOL     OW 2946   4.235   0.492   1.235
  705SOL    HW2 2947   4.224   0.481   1.329
  705SOL    HW3 2948   4.150   0.469   1.198
  705SOL    MW4 2949   4.222   0.487   1.242
  706SOL     OW 2950   4.262   0.765   1.146
  706SOL    HW2 2951   4.239   0.676   1.170
  706SOL    HW3 2952   4.259   0.766   1.050
  706SOL    MW4 2953   4.259   0.754   1.136
  707SOL     OW 2954   3.984   0.881   1.243
  707SOL    HW2 2955   3.991   0.881   1.339
  707SOL    HW3 2956   4.065   0.839   1.213
  707SOL    MW4 2957   3.995   0.875   1.252
  708SOL     OW 2958   4.001   1.143   1.113
  708SOL    HW2 2959   3.987   1.053   1.142
  708SOL    HW3 2960   3.928   1.192   1.149
  708SOL    MW4 2961   3.990   1.137   1.121
  709SOL     OW 2962   4.226   1.296   1.216
  709SOL    HW2 2963   4.219   1.279   1.310
  709SOL    HW3 2964   4.145   1.261   1.179
  709SOL    MW4 2965   4.214   1.289   1.223
  710SOL     OW 2966   4.275   1.550   1.123
  710SOL    HW2 2967   4.270   1.458   1.149
  710SOL    HW3 2968   4.362   1.578   1.153
  710SOL    MW4 2969   4.286   1.541   1.130
  711SOL     OW 2970   4.059   1.705   1.225
  711SOL    HW2 2971   4.088   1.700   1.317
  711SOL    HW3 2972   4.124   1.654   1.177
  711SOL    MW4 2973   4.071   1.698   1.231
  712SOL     OW 2974   4.050   1.962   1.141
  712SOL    HW2 2975   4.053   1.871   1.171
  712SOL    HW3 2976   4.069   1.957   1.048
  712SOL    MW4 2977   4.053   1.949   1.133
  713SOL     OW 2978   4.292   2.052   1.235
  713SOL    HW2 2979   4.301   2.139   1.195
  713SOL    HW3 2980   4.208   2.020   1.203
  713SOL    MW4 2981   4.282   2.059   1.226
  714SOL     OW 2982   4.310   2.280   1.076
  714SOL    HW2 2983   4.234   2.331   1.104
  714SOL    HW3 2984   4.319   2.298   0.983
  714SOL    MW4 2985   4.301   2.289   1.068
  715SOL     OW 2986   4.046   2.452   1.229
  715SOL    HW2 2987   4.044   2.436   1.324
  715SOL    HW3 2988   4.066   2.546   1.221
  715SOL    MW4 2989   4.048   2.463   1.241
  716SOL     OW 2990   4.077   2.723   1.120
  716SOL    HW2 2991   4.001   2.774   1.148
  716SOL    HW3 2992   4.073   2.726   1.024
  716SOL    MW4 2993   4.066   2.730   1.111
  717SOL     OW 2994   4.292   2.841   1.248
  717SOL    HW2 2995   4.303   2.923   1.199
  717SOL    HW3 2996   4.229   2.791   1.196
  717SOL    MW4 2997   4.285   2.845   1.234
  718SOL     OW 2998   4.257   3.099   1.113
  718SOL    HW2 2999   4.187   3.156   1.145
  718SOL    HW3 3000   4.260   3.114   1.019
  718SOL    MW4 3001   4.248   3.108   1.105
  719SOL     OW 3002   4.030   3.251   1.188
  719SOL    HW2 3003   4.037   3.237   1.283
  719SOL    HW3 3004   3.953   3.199   1.163
  719SOL    MW4 3005   4.021   3.242   1.198
  720SOL     OW 3006   4.035   3.519   1.101
  720SOL    HW2 3007   4.036   3.437   1.150
  720SOL    HW3 3008   3.947   3.555   1.116
  720SOL    MW4 3009   4.023   3.513   1.109
  721SOL     OW 3010   4.254   3.641   1.250
  721SOL    HW2 3011   4.182   3.587   1.217
  721SOL    HW3 3012   4.333   3.600   1.216
  721SOL    MW4 3013   4.255   3.629   1.241
  722SOL     OW 3014   4.216   3.880   1.128
  722SOL    HW2 3015   4.146   3.929   1.173
  722SOL    HW3 3016   4.212   3.793   1.167
  722SOL    MW4 3017   4.206   3.875   1.139
  723SOL     OW 3018   4.022   4.028   1.275
  723SOL    HW2 3019   4.032   4.107   1.222
  723SOL    HW3 3020   3.948   3.981   1.235
  723SOL    MW4 3021   4.014   4.032   1.263
  724SOL     OW 3022   4.040   4.263   1.128
  724SOL    HW2 3023   3.956   4.298   1.157
  724SOL    HW3 3024   4.031   4.254   1.033
  724SOL    MW4 3025   4.028   4.266   1.119
  725SOL     OW 3026   4.253   4.417   1.209
  725SOL    HW2 3027   4.175   4.367   1.186
  725SOL    HW3 3028   4.325   4.368   1.169
  725SOL    MW4 3029   4.252   4.404   1.201
  726SOL     OW 3030   0.208   4.654   1.628
  726SOL    HW2 3031   0.288   4.700   1.602
  726SOL    HW3 3032   0.137   4.710   1.598
  726SOL    MW4 3033   0.210   4.668   1.621
  727SOL     OW 3034   4.484   0.123   1.527
  727SOL    HW2 3035   4.401   0.086   1.556
  727SOL    HW3 3036   4.474   0.133   1.432
  727SOL    MW4 3037   4.471   0.120   1.518
  728SOL     OW 3038   4.471   0.386   1.601
  728SOL    HW2 3039   4.461   0.393   1.696
  728SOL    HW3 3040   4.490   0.293   1.586
  728SOL    MW4 3041   4.472   0.374   1.611
  729SOL     OW 3042   0.199   0.534   1.526
  729SOL    HW2 3043   0.123   0.482   1.552
  729SOL    HW3 3044   0.187   0.548   1.432
  729SOL    MW4 3045   0.187   0.529   1.517
  730SOL     OW 3046   0.240   0.782   1.663
  730SOL    HW2 3047   0.302   0.835   1.611
  730SOL    HW3 3048   0.223   0.705   1.609
  730SOL    MW4 3049   0.246   0.779   1.649
  731SOL     OW 3050   0.001   0.863   1.532
  731SOL    HW2 3051  -0.022   0.956   1.540
  731SOL    HW3 3052   0.075   0.851   1.591
  731SOL    MW4 3053   0.008   0.874   1.541
  732SOL     OW 3054   4.467   1.131   1.571
  732SOL    HW2 3055   4.463   1.128   1.666
  732SOL    HW3 3056   4.552   1.170   1.551
  732SOL    MW4 3057   4.478   1.136   1.581
  733SOL     OW 3058   0.226   1.236   1.509
  733SOL    HW2 3059   0.234   1.327   1.539
  733SOL    HW3 3060   0.222   1.242   1.414
  733SOL    MW4 3061   0.226   1.249   1.501
  734SOL     OW 3062   0.200   1.492   1.624
  734SOL    HW2 3063   0.218   1.497   1.718
  734SOL    HW3 3064   0.122   1.547   1.612
  734SOL    MW4 3065   0.192   1.500   1.635
  735SOL     OW 3066   4.475   1.663   1.528
  735SOL    HW2 3067   4.496   1.753   1.556
  735SOL    HW3 3068   4.494   1.663   1.434
  735SOL    MW4 3069   4.480   1.675   1.519
  736SOL     OW 3070   4.479   1.931   1.619
  736SOL    HW2 3071   4.474   1.929   1.714
  736SOL    HW3 3072   4.423   2.005   1.594
  736SOL    MW4 3073   4.471   1.941   1.628
  737SOL     OW 3074   0.230   2.088   1.536
  737SOL    HW2 3075   0.158   2.033   1.566
  737SOL    HW3 3076   0.212   2.101   1.443
  737SOL    MW4 3077   0.218   2.083   1.528
  738SOL     OW 3078   0.214   2.376   1.607
  738SOL    HW2 3079   0.219   2.386   1.702
  738SOL    HW3 3080   0.219   2.281   1.594
  738SOL    MW4 3081   0.215   2.365   1.618
  739SOL     OW 3082   0.003   2.454   1.461
  739SOL    HW2 3083  -0.068   2.425   1.518
  739SOL    HW3 3084   0.082   2.440   1.513
  739SOL    MW4 3085   0.004   2.448   1.476
  740SOL     OW 3086   4.482   2.708   1.591
  740SOL    HW2 3087   4.407   2.760   1.562
  740SOL    HW3 3088   4.473   2.624   1.548
  740SOL    MW4 3089   4.471   2.704   1.582
  741SOL     OW 3090   0.226   2.826   1.505
  741SOL    HW2 3091   0.302   2.776   1.534
  741SOL    HW3 3092   0.151   2.781   1.543
  741SOL    MW4 3093   0.226   2.814   1.514
  742SOL     OW 3094   0.242   3.095   1.596
  742SOL    HW2 3095   0.158   3.130   1.565
  742SOL    HW3 3096   0.245   3.006   1.559
  742SOL    MW4 3097   0.231   3.088   1.587
  743SOL     OW 3098   0.014   3.235   1.494
  743SOL    HW2 3099   0.018   3.324   1.528
  743SOL    HW3 3100   0.004   3.246   1.399
  743SOL    MW4 3101   0.013   3.248   1.486
  744SOL     OW 3102   0.036   3.495   1.608
  744SOL    HW2 3103   0.058   3.506   1.701
  744SOL    HW3 3104  -0.051   3.535   1.600
  744SOL    MW4 3105   0.027   3.502   1.619
  745SOL     OW 3106   0.222   3.613   1.468
  745SOL    HW2 3107   0.225   3.705   1.494
  745SOL    HW3 3108   0.158   3.574   1.527
  745SOL    MW4 3109   0.214   3.620   1.479
  746SOL     OW 3110   0.198   3.862   1.599
  746SOL    HW2 3111   0.209   3.870   1.693
  746SOL    HW3 3112   0.264   3.920   1.562
  746SOL    MW4 3113   0.208   3.870   1.606
  747SOL     OW 3114   4.481   3.987   1.479
  747SOL    HW2 3115   4.482   4.071   1.526
  747SOL    HW3 3116   4.559   3.942   1.510
  747SOL    MW4 3117   4.491   3.992   1.490
  748SOL     OW 3118   0.010   4.238   1.593
  748SOL    HW2 3119   0.002   4.246   1.688
  748SOL    HW3 3120  -0.062   4.290   1.558
  748SOL    MW4 3121  -0.000   4.246   1.601
  749SOL     OW 3122   0.232   4.400   1.508
  749SOL    HW2 3123   0.167   4.340   1.545
  749SOL    HW3 3124   0.219   4.481   1.556
  749SOL    MW4 3125   0.221   4.402   1.519
  750SOL     OW 3126   0.671   4.638   1.639
  750SOL    HW2 3127   0.743   4.689   1.603
  750SOL    HW3 3128   0.592   4.687   1.614
  750SOL    MW4 3129   0.670   4.651   1.631
  751SOL     OW 3130   0.444   0.106   1.556
  751SOL    HW2 3131   0.454   0.199   1.574
  751SOL    HW3 3132   0.442   0.100   1.460
  751SOL    MW4 3133   0.445   0.117   1.546
  752SOL     OW 3134   0.459   0.408   1.601
  752SOL    HW2 3135   0.539   0.448   1.566
  752SOL    HW3 3136   0.388   0.456   1.560
  752SOL    MW4 3137   0.460   0.419   1.591
  753SOL     OW 3138   0.710   0.526   1.508
  753SOL    HW2 3139   0.678   0.615   1.525
  753SOL    HW3 3140   0.698   0.513   1.414
  753SOL    MW4 3141   0.704   0.536   1.498
  754SOL     OW 3142   0.652   0.781   1.571
  754SOL    HW2 3143   0.679   0.766   1.662
  754SOL    HW3 3144   0.727   0.825   1.530
  754SOL    MW4 3145   0.665   0.785   1.578
  755SOL     OW 3146   0.432   0.925   1.480
  755SOL    HW2 3147   0.436   1.003   1.535
  755SOL    HW3 3148   0.511   0.875   1.503
  755SOL    MW4 3149   0.443   0.929   1.490
  756SOL     OW 3150   0.424   1.109   1.671
  756SOL    HW2 3151   0.502   1.153   1.636
  756SOL    HW3 3152   0.351   1.152   1.628
  756SOL    MW4 3153   0.425   1.120   1.661
  757SOL     OW 3154   0.645   1.259   1.535
  757SOL    HW2 3155   0.639   1.354   1.547
  757SOL    HW3 3156   0.626   1.246   1.442
  757SOL    MW4 3157   0.642   1.270   1.524
  758SOL     OW 3158   0.648   1.545   1.625
  758SOL    HW2 3159   0.719   1.572   1.568
  758SOL    HW3 3160   0.568   1.564   1.575
  758SOL    MW4 3161   0.647   1.551   1.611
  759SOL     OW 3162   0.421   1.638   1.504
  759SOL    HW2 3163   0.426   1.732   1.524
  759SOL    HW3 3164   0.336   1.611   1.539
  759SOL    MW4 3165   0.411   1.647   1.512
  760SOL     OW 3166   0.429   1.903   1.588
  760SOL    HW2 3167   0.440   1.903   1.684
  760SOL    HW3 3168   0.358   1.965   1.572
  760SOL    MW4 3169   0.421   1.911   1.599
  761SOL     OW 3170   0.653   2.071   1.511
  761SOL    HW2 3171   0.735   2.027   1.532
  761SOL    HW3 3172   0.587   2.025   1.563
  761SOL    MW4 3173   0.655   2.059   1.521
  762SOL     OW 3174   0.630   2.335   1.608
  762SOL    HW2 3175   0.551   2.370   1.569
  762SOL    HW3 3176   0.628   2.241   1.587
  762SOL    MW4 3177   0.619   2.327   1.600
  763SOL     OW 3178   0.434   2.461   1.455
  763SOL    HW2 3179   0.452   2.544   1.499
  763SOL    HW3 3180   0.350   2.433   1.491
  763SOL    MW4 3181   0.425   2.468   1.466
  764SOL     OW 3182   0.447   2.689   1.597
  764SOL    HW2 3183   0.446   2.682   1.692
  764SOL    HW3 3184   0.516   2.753   1.578
  764SOL    MW4 3185   0.456   2.696   1.607
  765SOL     OW 3186   0.671   2.849   1.523
  765SOL    HW2 3187   0.657   2.939   1.550
  765SOL    HW3 3188   0.649   2.848   1.430
  765SOL    MW4 3189   0.666   2.861   1.514
  766SOL     OW 3190   0.666   3.115   1.583
  766SOL    HW2 3191   0.746   3.150   1.543
  766SOL    HW3 3192   0.597   3.173   1.553
  766SOL    MW4 3193   0.668   3.127   1.574
  767SOL     OW 3194   0.456   3.262   1.449
  767SOL    HW2 3195   0.376   3.226   1.487
  767SOL    HW3 3196   0.443   3.254   1.354
  767SOL    MW4 3197   0.444   3.256   1.441
  768SOL     OW 3198   0.448   3.519   1.586
  768SOL    HW2 3199   0.460   3.438   1.536
  768SOL    HW3 3200   0.368   3.557   1.551
  768SOL    MW4 3201   0.439   3.513   1.575
  769SOL     OW 3202   0.667   3.640   1.464
  769SOL    HW2 3203   0.735   3.584   1.502
  769SOL    HW3 3204   0.585   3.603   1.495
  769SOL    MW4 3205   0.665   3.628   1.473
  770SOL     OW 3206   0.646   3.888   1.582
  770SOL    HW2 3207   0.720   3.930   1.538
  770SOL    HW3 3208   0.646   3.798   1.548
  770SOL    MW4 3209   0.656   3.882   1.572
  771SOL     OW 3210   0.417   4.017   1.485
  771SOL    HW2 3211   0.494   3.974   1.523
  771SOL    HW3 3212   0.442   4.035   1.394
  771SOL    MW4 3213   0.431   4.014   1.478
  772SOL     OW 3214   0.440   4.264   1.627
  772SOL    HW2 3215   0.440   4.181   1.579
  772SOL    HW3 3216   0.379   4.320   1.579
  772SOL    MW4 3217   0.432   4.261   1.614
  773SOL     OW 3218   0.662   4.392   1.508
  773SOL    HW2 3219   0.582   4.356   1.549
  773SOL    HW3 3220   0.674   4.477   1.551
  773SOL    MW4 3221   0.653   4.398   1.519
  774SOL     OW 3222   1.111   4.644   1.635
  774SOL    HW2 3223   1.117   4.668   1.727
  774SOL    HW3 3224   1.182   4.693   1.593
  774SOL    MW4 3225   1.122   4.654   1.642
  775SOL     OW 3226   0.873   0.114   1.542
  775SOL    HW2 3227   0.890   0.204   1.568
  775SOL    HW3 3228   0.940   0.063   1.588
  775SOL    MW4 3229   0.884   0.119   1.552
  776SOL     OW 3230   0.912   0.380   1.634
  776SOL    HW2 3231   0.899   0.400   1.726
  776SOL    HW3 3232   0.843   0.430   1.589
  776SOL    MW4 3233   0.901   0.389   1.640
  777SOL     OW 3234   1.128   0.531   1.512
  777SOL    HW2 3235   1.111   0.616   1.553
  777SOL    HW3 3236   1.056   0.475   1.543
  777SOL    MW4 3237   1.116   0.535   1.522
  778SOL     OW 3238   1.113   0.808   1.605
  778SOL    HW2 3239   1.111   0.796   1.700
  778SOL    HW3 3240   1.193   0.857   1.590
  778SOL    MW4 3241   1.123   0.813   1.616
  779SOL     OW 3242   0.890   0.879   1.470
  779SOL    HW2 3243   0.977   0.865   1.506
  779SOL    HW3 3244   0.894   0.840   1.382
  779SOL    MW4 3245   0.902   0.872   1.463
  780SOL     OW 3246   0.877   1.135   1.619
  780SOL    HW2 3247   0.879   1.052   1.572
  780SOL    HW3 3248   0.797   1.178   1.588
  780SOL    MW4 3249   0.866   1.129   1.609
  781SOL     OW 3250   1.112   1.318   1.532
  781SOL    HW2 3251   1.194   1.297   1.577
  781SOL    HW3 3252   1.045   1.272   1.582
  781SOL    MW4 3253   1.114   1.309   1.544
  782SOL     OW 3254   1.093   1.578   1.617
  782SOL    HW2 3255   1.164   1.623   1.571
  782SOL    HW3 3256   1.090   1.491   1.577
  782SOL    MW4 3257   1.102   1.573   1.606
  783SOL     OW 3258   0.850   1.675   1.506
  783SOL    HW2 3259   0.934   1.648   1.545
  783SOL    HW3 3260   0.868   1.680   1.412
  783SOL    MW4 3261   0.863   1.672   1.499
  784SOL     OW 3262   0.872   1.942   1.606
  784SOL    HW2 3263   0.957   1.980   1.586
  784SOL    HW3 3264   0.874   1.854   1.568
  784SOL    MW4 3265   0.883   1.935   1.598
  785SOL     OW 3266   1.118   2.072   1.526
  785SOL    HW2 3267   1.203   2.037   1.551
  785SOL    HW3 3268   1.117   2.162   1.560
  785SOL    MW4 3269   1.129   2.080   1.534
  786SOL     OW 3270   1.082   2.330   1.630
  786SOL    HW2 3271   1.149   2.385   1.590
  786SOL    HW3 3272   1.002   2.352   1.583
  786SOL    MW4 3273   1.081   2.340   1.618
  787SOL     OW 3274   0.852   2.451   1.494
  787SOL    HW2 3275   0.856   2.542   1.525
  787SOL    HW3 3276   0.773   2.415   1.536
  787SOL    MW4 3277   0.842   2.458   1.504
  788SOL     OW 3278   0.884   2.709   1.607
  788SOL    HW2 3279   0.886   2.700   1.702
  788SOL    HW3 3280   0.801   2.752   1.588
  788SOL    MW4 3281   0.873   2.714   1.617
  789SOL     OW 3282   1.114   2.819   1.519
  789SOL    HW2 3283   1.093   2.912   1.525
  789SOL    HW3 3284   1.035   2.774   1.549
  789SOL    MW4 3285   1.101   2.825   1.524
  790SOL     OW 3286   1.121   3.091   1.594
  790SOL    HW2 3287   1.136   3.095   1.689
  790SOL    HW3 3288   1.206   3.113   1.555
  790SOL    MW4 3289   1.135   3.094   1.602
  791SOL     OW 3290   0.908   3.238   1.503
  791SOL    HW2 3291   0.987   3.204   1.544
  791SOL    HW3 3292   0.914   3.208   1.412
  791SOL    MW4 3293   0.919   3.230   1.496
  792SOL     OW 3294   0.874   3.503   1.596
  792SOL    HW2 3295   0.950   3.550   1.561
  792SOL    HW3 3296   0.888   3.412   1.568
  792SOL    MW4 3297   0.886   3.497   1.588
  793SOL     OW 3298   1.107   3.629   1.468
  793SOL    HW2 3299   1.179   3.572   1.495
  793SOL    HW3 3300   1.106   3.623   1.373
  793SOL    MW4 3301   1.116   3.621   1.459
  794SOL     OW 3302   1.090   3.875   1.591
  794SOL    HW2 3303   1.177   3.914   1.576
  794SOL    HW3 3304   1.093   3.792   1.545
  794SOL    MW4 3305   1.102   3.869   1.583
  795SOL     OW 3306   0.861   4.015   1.477
  795SOL    HW2 3307   0.861   4.108   1.502
  795SOL    HW3 3308   0.935   3.978   1.524
  795SOL    MW4 3309   0.871   4.022   1.486
  796SOL     OW 3310   0.902   4.257   1.604
  796SOL    HW2 3311   0.914   4.263   1.699
  796SOL    HW3 3312   0.820   4.302   1.587
  796SOL    MW4 3313   0.893   4.264   1.614
  797SOL     OW 3314   1.128   4.387   1.500
  797SOL    HW2 3315   1.051   4.340   1.532
  797SOL    HW3 3316   1.122   4.473   1.540
  797SOL    MW4 3317   1.117   4.392   1.510
  798SOL     OW 3318   1.537   4.657   1.567
  798SOL    HW2 3319   1.540   4.656   1.663
  798SOL    HW3 3320   1.456   4.704   1.547
  798SOL    MW4 3321   1.527   4.663   1.577
  799SOL     OW 3322   1.299   0.137   1.487
  799SOL    HW2 3323   1.309   0.223   1.529
  799SOL    HW3 3324   1.308   0.156   1.393
  799SOL    MW4 3325   1.302   0.151   1.480
  800SOL     OW 3326   1.343   0.377   1.594
  800SOL    HW2 3327   1.425   0.416   1.564
  800SOL    HW3 3328   1.275   0.438   1.564
  800SOL    MW4 3329   1.345   0.390   1.586
  801SOL     OW 3330   1.567   0.519   1.488
  801SOL    HW2 3331   1.637   0.484   1.543
  801SOL    HW3 3332   1.604   0.523   1.400
  801SOL    MW4 3333   1.581   0.515   1.484
  802SOL     OW 3334   1.585   0.806   1.571
  802SOL    HW2 3335   1.573   0.795   1.665
  802SOL    HW3 3336   1.564   0.721   1.534
  802SOL    MW4 3337   1.580   0.794   1.578
  803SOL     OW 3338   1.345   0.963   1.517
  803SOL    HW2 3339   1.424   0.919   1.550
  803SOL    HW3 3340   1.347   0.948   1.423
  803SOL    MW4 3341   1.356   0.955   1.509
  804SOL     OW 3342   1.348   1.235   1.623
  804SOL    HW2 3343   1.354   1.215   1.716
  804SOL    HW3 3344   1.357   1.151   1.579
  804SOL    MW4 3345   1.350   1.222   1.629
  805SOL     OW 3346   1.559   1.376   1.488
  805SOL    HW2 3347   1.485   1.333   1.531
  805SOL    HW3 3348   1.547   1.355   1.395
  805SOL    MW4 3349   1.547   1.367   1.482
  806SOL     OW 3350   1.531   1.625   1.633
  806SOL    HW2 3351   1.524   1.611   1.727
  806SOL    HW3 3352   1.562   1.541   1.598
  806SOL    MW4 3353   1.534   1.612   1.641
  807SOL     OW 3354   1.301   1.721   1.501
  807SOL    HW2 3355   1.374   1.671   1.538
  807SOL    HW3 3356   1.308   1.708   1.406
  807SOL    MW4 3357   1.312   1.713   1.493
  808SOL     OW 3358   1.354   1.964   1.605
  808SOL    HW2 3359   1.373   1.953   1.698
  808SOL    HW3 3360   1.358   1.875   1.570
  808SOL    MW4 3361   1.357   1.951   1.612
  809SOL     OW 3362   1.574   2.073   1.486
  809SOL    HW2 3363   1.499   2.026   1.523
  809SOL    HW3 3364   1.564   2.062   1.391
  809SOL    MW4 3365   1.563   2.066   1.478
  810SOL     OW 3366   1.522   2.326   1.595
  810SOL    HW2 3367   1.607   2.370   1.593
  810SOL    HW3 3368   1.536   2.245   1.546
  810SOL    MW4 3369   1.535   2.321   1.589
  811SOL     OW 3370   1.302   2.462   1.510
  811SOL    HW2 3371   1.308   2.554   1.537
  811SOL    HW3 3372   1.375   2.419   1.554
  811SOL    MW4 3373   1.312   2.469   1.519
  812SOL     OW 3374   1.332   2.701   1.652
  812SOL    HW2 3375   1.388   2.746   1.589
  812SOL    HW3 3376   1.244   2.735   1.634
  812SOL    MW4 3377   1.328   2.712   1.641
  813SOL     OW 3378   1.521   2.831   1.500
  813SOL    HW2 3379   1.595   2.787   1.543
  813SOL    HW3 3380   1.542   2.829   1.407
  813SOL    MW4 3381   1.534   2.825   1.494
  814SOL     OW 3382   1.551   3.081   1.599
  814SOL    HW2 3383   1.631   3.125   1.570
  814SOL    HW3 3384   1.555   2.994   1.559
  814SOL    MW4 3385   1.562   3.075   1.590
  815SOL     OW 3386   1.336   3.203   1.486
  815SOL    HW2 3387   1.342   3.292   1.521
  815SOL    HW3 3388   1.410   3.157   1.524
  815SOL    MW4 3389   1.347   3.209   1.495
  816SOL     OW 3390   1.311   3.473   1.578
  816SOL    HW2 3391   1.316   3.471   1.673
  816SOL    HW3 3392   1.395   3.510   1.550
  816SOL    MW4 3393   1.323   3.478   1.587
  817SOL     OW 3394   1.541   3.568   1.498
  817SOL    HW2 3395   1.541   3.662   1.517
  817SOL    HW3 3396   1.549   3.562   1.403
  817SOL    MW4 3397   1.542   3.580   1.488
  818SOL     OW 3398   1.586   3.832   1.591
  818SOL    HW2 3399   1.596   3.848   1.685
  818SOL    HW3 3400   1.511   3.885   1.566
  818SOL    MW4 3401   1.578   3.841   1.600
  819SOL     OW 3402   1.363   3.966   1.526
  819SOL    HW2 3403   1.361   4.051   1.569
  819SOL    HW3 3404   1.333   3.983   1.437
  819SOL    MW4 3405   1.358   3.979   1.520
  820SOL     OW 3406   1.347   4.230   1.623
  820SOL    HW2 3407   1.422   4.276   1.586
  820SOL    HW3 3408   1.270   4.275   1.588
  820SOL    MW4 3409   1.347   4.242   1.614
  821SOL     OW 3410   1.531   4.384   1.510
  821SOL    HW2 3411   1.612   4.347   1.545
  821SOL    HW3 3412   1.541   4.478   1.523
  821SOL    MW4 3413   1.543   4.392   1.516
  822SOL     OW 3414   1.996   0.005   1.602
  822SOL    HW2 3415   1.999   0.003   1.698
  822SOL    HW3 3416   1.925   0.066   1.582
  822SOL    MW4 3417   1.987   0.013   1.612
  823SOL     OW 3418   1.778   0.153   1.543
  823SOL    HW2 3419   1.700   0.103   1.569
  823SOL    HW3 3420   1.787   0.137   1.449
  823SOL    MW4 3421   1.769   0.144   1.534
  824SOL     OW 3422   1.786   0.432   1.652
  824SOL    HW2 3423   1.856   0.470   1.599
  824SOL    HW3 3424   1.786   0.339   1.627
  824SOL    MW4 3425   1.796   0.424   1.641
  825SOL     OW 3426   2.013   0.523   1.495
  825SOL    HW2 3427   2.102   0.492   1.510
  825SOL    HW3 3428   2.017   0.617   1.511
  825SOL    MW4 3429   2.025   0.531   1.499
  826SOL     OW 3430   2.038   0.791   1.540
  826SOL    HW2 3431   2.120   0.837   1.522
  826SOL    HW3 3432   1.972   0.839   1.491
  826SOL    MW4 3433   2.040   0.803   1.531
  827SOL     OW 3434   1.781   0.971   1.453
  827SOL    HW2 3435   1.778   1.048   1.510
  827SOL    HW3 3436   1.708   0.917   1.483
  827SOL    MW4 3437   1.771   0.974   1.465
  828SOL     OW 3438   1.770   1.214   1.626
  828SOL    HW2 3439   1.852   1.255   1.598
  828SOL    HW3 3440   1.702   1.257   1.573
  828SOL    MW4 3441   1.772   1.225   1.615
  829SOL     OW 3442   2.011   1.320   1.518
  829SOL    HW2 3443   2.015   1.413   1.541
  829SOL    HW3 3444   2.012   1.320   1.422
  829SOL    MW4 3445   2.012   1.332   1.508
  830SOL     OW 3446   2.032   1.600   1.617
  830SOL    HW2 3447   2.108   1.627   1.564
  830SOL    HW3 3448   1.958   1.643   1.575
  830SOL    MW4 3449   2.033   1.610   1.604
  831SOL     OW 3450   1.779   1.704   1.507
  831SOL    HW2 3451   1.698   1.679   1.550
  831SOL    HW3 3452   1.757   1.709   1.414
  831SOL    MW4 3453   1.766   1.701   1.501
  832SOL     OW 3454   1.822   1.982   1.580
  832SOL    HW2 3455   1.822   1.891   1.553
  832SOL    HW3 3456   1.739   2.017   1.547
  832SOL    MW4 3457   1.811   1.975   1.572
  833SOL     OW 3458   2.054   2.097   1.484
  833SOL    HW2 3459   2.123   2.032   1.499
  833SOL    HW3 3460   1.975   2.055   1.518
  833SOL    MW4 3461   2.053   2.083   1.491
  834SOL     OW 3462   2.015   2.338   1.626
  834SOL    HW2 3463   2.017   2.312   1.719
  834SOL    HW3 3464   2.026   2.256   1.578
  834SOL    MW4 3465   2.017   2.324   1.632
  835SOL     OW 3466   1.772   2.445   1.554
  835SOL    HW2 3467   1.857   2.410   1.581
  835SOL    HW3 3468   1.777   2.451   1.459
  835SOL    MW4 3469   1.784   2.441   1.545
  836SOL     OW 3470   1.756   2.709   1.619
  836SOL    HW2 3471   1.839   2.745   1.586
  836SOL    HW3 3472   1.760   2.616   1.595
  836SOL    MW4 3473   1.768   2.702   1.611
  837SOL     OW 3474   1.975   2.817   1.502
  837SOL    HW2 3475   2.009   2.903   1.526
  837SOL    HW3 3476   1.986   2.812   1.407
  837SOL    MW4 3477   1.981   2.827   1.493
  838SOL     OW 3478   2.007   3.078   1.595
  838SOL    HW2 3479   2.019   3.068   1.690
  838SOL    HW3 3480   2.082   3.130   1.567
  838SOL    MW4 3481   2.019   3.083   1.604
  839SOL     OW 3482   1.780   3.205   1.490
  839SOL    HW2 3483   1.771   3.288   1.537
  839SOL    HW3 3484   1.860   3.166   1.525
  839SOL    MW4 3485   1.789   3.211   1.501
  840SOL     OW 3486   1.801   3.463   1.588
  840SOL    HW2 3487   1.811   3.469   1.683
  840SOL    HW3 3488   1.713   3.496   1.570
  840SOL    MW4 3489   1.791   3.468   1.598
  841SOL     OW 3490   1.999   3.629   1.483
  841SOL    HW2 3491   2.069   3.580   1.526
  841SOL    HW3 3492   1.919   3.583   1.507
  841SOL    MW4 3493   1.998   3.616   1.492
  842SOL     OW 3494   2.009   3.876   1.593
  842SOL    HW2 3495   2.078   3.924   1.547
  842SOL    HW3 3496   2.009   3.789   1.552
  842SOL    MW4 3497   2.018   3.870   1.581
  843SOL     OW 3498   1.798   4.014   1.481
  843SOL    HW2 3499   1.874   3.984   1.531
  843SOL    HW3 3500   1.726   3.958   1.511
  843SOL    MW4 3501   1.798   4.003   1.491
  844SOL     OW 3502   1.761   4.262   1.627
  844SOL    HW2 3503   1.841   4.307   1.599
  844SOL    HW3 3504   1.761   4.180   1.578
  844SOL    MW4 3505   1.772   4.257   1.617
  845SOL     OW 3506   1.979   4.406   1.504
  845SOL    HW2 3507   2.052   4.352   1.534
  845SOL    HW3 3508   1.996   4.492   1.543
  845SOL    MW4 3509   1.991   4.410   1.513
  846SOL     OW 3510   2.471   4.648   1.597
  846SOL    HW2 3511   2.479   4.677   1.688
  846SOL    HW3 3512   2.392   4.693   1.564
  846SOL    MW4 3513   2.462   4.658   1.604
  847SOL     OW 3514   2.231   0.107   1.489
  847SOL    HW2 3515   2.161   0.050   1.522
  847SOL    HW3 3516   2.235   0.087   1.395
  847SOL    MW4 3517   2.222   0.097   1.481
  848SOL     OW 3518   2.247   0.398   1.553
  848SOL    HW2 3519   2.243   0.387   1.648
  848SOL    HW3 3520   2.241   0.310   1.517
  848SOL    MW4 3521   2.246   0.385   1.561
  849SOL     OW 3522   2.499   0.529   1.487
  849SOL    HW2 3523   2.573   0.474   1.513
  849SOL    HW3 3524   2.422   0.482   1.519
  849SOL    MW4 3525   2.498   0.515   1.495
  850SOL     OW 3526   2.506   0.779   1.576
  850SOL    HW2 3527   2.420   0.810   1.548
  850SOL    HW3 3528   2.507   0.687   1.552
  850SOL    MW4 3529   2.495   0.771   1.569
  851SOL     OW 3530   2.278   0.912   1.475
  851SOL    HW2 3531   2.280   0.998   1.518
  851SOL    HW3 3532   2.292   0.932   1.382
  851SOL    MW4 3533   2.280   0.926   1.468
  852SOL     OW 3534   2.258   1.180   1.590
  852SOL    HW2 3535   2.260   1.176   1.686
  852SOL    HW3 3536   2.181   1.232   1.570
  852SOL    MW4 3537   2.248   1.186   1.600
  853SOL     OW 3538   2.471   1.312   1.477
  853SOL    HW2 3539   2.394   1.269   1.515
  853SOL    HW3 3540   2.459   1.305   1.383
  853SOL    MW4 3541   2.459   1.305   1.470
  854SOL     OW 3542   2.491   1.543   1.623
  854SOL    HW2 3543   2.566   1.597   1.600
  854SOL    HW3 3544   2.497   1.467   1.566
  854SOL    MW4 3545   2.502   1.540   1.613
  855SOL     OW 3546   2.269   1.648   1.483
  855SOL    HW2 3547   2.351   1.610   1.516
  855SOL    HW3 3548   2.281   1.652   1.388
  855SOL    MW4 3549   2.282   1.644   1.475
  856SOL     OW 3550   2.260   1.912   1.554
  856SOL    HW2 3551   2.261   1.925   1.649
  856SOL    HW3 3552   2.249   1.818   1.542
  856SOL    MW4 3553   2.259   1.902   1.565
  857SOL     OW 3554   2.494   2.054   1.494
  857SOL    HW2 3555   2.425   1.999   1.532
  857SOL    HW3 3556   2.481   2.047   1.400
  857SOL    MW4 3557   2.483   2.046   1.487
  858SOL     OW 3558   2.476   2.331   1.581
  858SOL    HW2 3559   2.456   2.326   1.674
  858SOL    HW3 3560   2.479   2.240   1.552
  858SOL    MW4 3561   2.474   2.318   1.589
  859SOL     OW 3562   2.232   2.449   1.503
  859SOL    HW2 3563   2.319   2.418   1.526
  859SOL    HW3 3564   2.172   2.397   1.556
  859SOL    MW4 3565   2.235   2.438   1.513
  860SOL     OW 3566   2.233   2.717   1.570
  860SOL    HW2 3567   2.234   2.626   1.539
  860SOL    HW3 3568   2.144   2.747   1.552
  860SOL    MW4 3569   2.221   2.709   1.563
  861SOL     OW 3570   2.452   2.847   1.488
  861SOL    HW2 3571   2.454   2.916   1.554
  861SOL    HW3 3572   2.381   2.788   1.516
  861SOL    MW4 3573   2.443   2.848   1.500
  862SOL     OW 3574   2.426   3.082   1.618
  862SOL    HW2 3575   2.510   3.124   1.605
  862SOL    HW3 3576   2.362   3.144   1.583
  862SOL    MW4 3577   2.428   3.096   1.612
  863SOL     OW 3578   2.225   3.236   1.509
  863SOL    HW2 3579   2.211   3.324   1.542
  863SOL    HW3 3580   2.231   3.247   1.414
  863SOL    MW4 3581   2.224   3.249   1.501
  864SOL     OW 3582   2.213   3.500   1.615
  864SOL    HW2 3583   2.242   3.508   1.706
  864SOL    HW3 3584   2.286   3.532   1.563
  864SOL    MW4 3585   2.226   3.505   1.620
  865SOL     OW 3586   2.451   3.571   1.483
  865SOL    HW2 3587   2.529   3.537   1.527
  865SOL    HW3 3588   2.443   3.661   1.514
  865SOL    MW4 3589   2.460   3.578   1.493
  866SOL     OW 3590   2.432   3.835   1.568
  866SOL    HW2 3591   2.423   3.833   1.663
  866SOL    HW3 3592   2.507   3.893   1.553
  866SOL    MW4 3593   2.441   3.842   1.578
  867SOL     OW 3594   2.238   4.026   1.501
  867SOL    HW2 3595   2.302   3.962   1.535
  867SOL    HW3 3596   2.250   4.023   1.406
  867SOL    MW4 3597   2.248   4.017   1.493
  868SOL     OW 3598   2.194   4.272   1.633
  868SOL    HW2 3599   2.262   4.325   1.591
  868SOL    HW3 3600   2.192   4.191   1.583
  868SOL    MW4 3601   2.203   4.268   1.621
  869SOL     OW 3602   2.395   4.405   1.517
  869SOL    HW2 3603   2.416   4.496   1.538
  869SOL    HW3 3604   2.416   4.397   1.424
  869SOL    MW4 3605   2.401   4.416   1.507
  870SOL     OW 3606   2.934   4.642   1.543
  870SOL    HW2 3607   2.933   4.636   1.638
  870SOL    HW3 3608   2.849   4.680   1.520
  870SOL    MW4 3609   2.923   4.646   1.552
  871SOL     OW 3610   2.711   0.122   1.488
  871SOL    HW2 3611   2.708   0.211   1.522
  871SOL    HW3 3612   2.632   0.081   1.521
  871SOL    MW4 3613   2.700   0.128   1.497
  872SOL     OW 3614   2.709   0.381   1.605
  872SOL    HW2 3615   2.716   0.377   1.700
  872SOL    HW3 3616   2.793   0.417   1.577
  872SOL    MW4 3617   2.721   0.385   1.614
  873SOL     OW 3618   2.912   0.515   1.462
  873SOL    HW2 3619   2.910   0.605   1.496
  873SOL    HW3 3620   2.910   0.525   1.367
  873SOL    MW4 3621   2.911   0.529   1.454
  874SOL     OW 3622   2.922   0.770   1.570
  874SOL    HW2 3623   2.913   0.763   1.665
  874SOL    HW3 3624   2.865   0.843   1.546
  874SOL    MW4 3625   2.913   0.778   1.580
  875SOL     OW 3626   2.726   0.949   1.485
  875SOL    HW2 3627   2.660   0.886   1.511
  875SOL    HW3 3628   2.756   0.919   1.399
  875SOL    MW4 3629   2.721   0.937   1.477
  876SOL     OW 3630   2.702   1.230   1.593
  876SOL    HW2 3631   2.712   1.139   1.566
  876SOL    HW3 3632   2.632   1.264   1.538
  876SOL    MW4 3633   2.694   1.223   1.583
  877SOL     OW 3634   2.955   1.333   1.490
  877SOL    HW2 3635   3.021   1.273   1.523
  877SOL    HW3 3636   2.872   1.293   1.516
  877SOL    MW4 3637   2.952   1.320   1.498
  878SOL     OW 3638   2.929   1.587   1.601
  878SOL    HW2 3639   2.850   1.625   1.562
  878SOL    HW3 3640   2.939   1.503   1.558
  878SOL    MW4 3641   2.920   1.581   1.590
  879SOL     OW 3642   2.713   1.698   1.477
  879SOL    HW2 3643   2.725   1.790   1.502
  879SOL    HW3 3644   2.682   1.702   1.387
  879SOL    MW4 3645   2.711   1.711   1.468
  880SOL     OW 3646   2.758   1.976   1.562
  880SOL    HW2 3647   2.757   1.955   1.655
  880SOL    HW3 3648   2.672   2.015   1.545
  880SOL    MW4 3649   2.747   1.979   1.572
  881SOL     OW 3650   2.973   2.124   1.498
  881SOL    HW2 3651   2.963   2.209   1.541
  881SOL    HW3 3652   2.889   2.079   1.514
  881SOL    MW4 3653   2.960   2.129   1.506
  882SOL     OW 3654   2.925   2.357   1.649
  882SOL    HW2 3655   2.910   2.337   1.741
  882SOL    HW3 3656   2.841   2.390   1.617
  882SOL    MW4 3657   2.912   2.359   1.657
  883SOL     OW 3658   2.701   2.457   1.474
  883SOL    HW2 3659   2.697   2.543   1.517
  883SOL    HW3 3660   2.623   2.411   1.506
  883SOL    MW4 3661   2.690   2.462   1.484
  884SOL     OW 3662   2.691   2.718   1.587
  884SOL    HW2 3663   2.762   2.780   1.569
  884SOL    HW3 3664   2.611   2.766   1.562
  884SOL    MW4 3665   2.690   2.733   1.581
  885SOL     OW 3666   2.906   2.862   1.539
  885SOL    HW2 3667   2.978   2.814   1.580
  885SOL    HW3 3668   2.908   2.948   1.580
  885SOL    MW4 3669   2.916   2.867   1.549
  886SOL     OW 3670   2.896   3.117   1.628
  886SOL    HW2 3671   2.901   3.141   1.721
  886SOL    HW3 3672   2.972   3.159   1.589
  886SOL    MW4 3673   2.907   3.125   1.635
  887SOL     OW 3674   2.647   3.199   1.529
  887SOL    HW2 3675   2.737   3.167   1.533
  887SOL    HW3 3676   2.632   3.216   1.436
  887SOL    MW4 3677   2.657   3.197   1.517
  888SOL     OW 3678   2.682   3.452   1.627
  888SOL    HW2 3679   2.659   3.462   1.720
  888SOL    HW3 3680   2.670   3.359   1.609
  888SOL    MW4 3681   2.678   3.441   1.637
  889SOL     OW 3682   2.894   3.601   1.545
  889SOL    HW2 3683   2.830   3.546   1.590
  889SOL    HW3 3684   2.891   3.572   1.454
  889SOL    MW4 3685   2.885   3.590   1.539
  890SOL     OW 3686   2.879   3.887   1.586
  890SOL    HW2 3687   2.796   3.919   1.549
  890SOL    HW3 3688   2.881   3.794   1.565
  890SOL    MW4 3689   2.868   3.879   1.578
  891SOL     OW 3690   2.657   4.007   1.483
  891SOL    HW2 3691   2.656   4.094   1.522
  891SOL    HW3 3692   2.656   4.023   1.388
  891SOL    MW4 3693   2.657   4.021   1.476
  892SOL     OW 3694   2.639   4.276   1.588
  892SOL    HW2 3695   2.715   4.320   1.551
  892SOL    HW3 3696   2.564   4.331   1.562
  892SOL    MW4 3697   2.639   4.289   1.580
  893SOL     OW 3698   2.856   4.395   1.467
  893SOL    HW2 3699   2.883   4.485   1.489
  893SOL    HW3 3700   2.849   4.396   1.371
  893SOL    MW4 3701   2.859   4.407   1.457
  894SOL     OW 3702   3.331   4.664   1.590
  894SOL    HW2 3703   3.411   4.699   1.550
  894SOL    HW3 3704   3.330   4.571   1.565
  894SOL    MW4 3705   3.342   4.656   1.581
  895SOL     OW 3706   3.133   0.124   1.432
  895SOL    HW2 3707   3.205   0.082   1.479
  895SOL    HW3 3708   3.055   0.077   1.460
  895SOL    MW4 3709   3.132   0.112   1.442
  896SOL     OW 3710   3.150   0.385   1.536
  896SOL    HW2 3711   3.140   0.296   1.502
  896SOL    HW3 3712   3.066   0.428   1.517
  896SOL    MW4 3713   3.137   0.379   1.529
  897SOL     OW 3714   3.392   0.536   1.499
  897SOL    HW2 3715   3.312   0.485   1.512
  897SOL    HW3 3716   3.399   0.546   1.404
  897SOL    MW4 3717   3.382   0.531   1.488
  898SOL     OW 3718   3.396   0.785   1.620
  898SOL    HW2 3719   3.378   0.775   1.713
  898SOL    HW3 3720   3.410   0.696   1.588
  898SOL    MW4 3721   3.396   0.772   1.628
  899SOL     OW 3722   3.176   0.882   1.494
  899SOL    HW2 3723   3.243   0.842   1.550
  899SOL    HW3 3724   3.097   0.829   1.509
  899SOL    MW4 3725   3.174   0.870   1.503
  900SOL     OW 3726   3.132   1.146   1.583
  900SOL    HW2 3727   3.162   1.145   1.674
  900SOL    HW3 3728   3.132   1.054   1.556
  900SOL    MW4 3729   3.136   1.134   1.591
  901SOL     OW 3730   3.326   1.304   1.485
  901SOL    HW2 3731   3.409   1.270   1.520
  901SOL    HW3 3732   3.259   1.246   1.520
  901SOL    MW4 3733   3.328   1.292   1.494
  902SOL     OW 3734   3.335   1.572   1.557
  902SOL    HW2 3735   3.320   1.546   1.648
  902SOL    HW3 3736   3.357   1.491   1.511
  902SOL    MW4 3737   3.336   1.558   1.563
  903SOL     OW 3738   3.140   1.725   1.459
  903SOL    HW2 3739   3.215   1.675   1.490
  903SOL    HW3 3740   3.065   1.687   1.505
  903SOL    MW4 3741   3.140   1.713   1.469
  904SOL     OW 3742   3.174   1.970   1.606
  904SOL    HW2 3743   3.155   1.883   1.570
  904SOL    HW3 3744   3.103   2.025   1.573
  904SOL    MW4 3745   3.162   1.966   1.597
  905SOL     OW 3746   3.406   2.095   1.511
  905SOL    HW2 3747   3.333   2.043   1.545
  905SOL    HW3 3748   3.393   2.095   1.416
  905SOL    MW4 3749   3.395   2.088   1.503
  906SOL     OW 3750   3.387   2.344   1.638
  906SOL    HW2 3751   3.443   2.389   1.575
  906SOL    HW3 3752   3.394   2.252   1.616
  906SOL    MW4 3753   3.395   2.338   1.627
  907SOL     OW 3754   3.147   2.442   1.523
  907SOL    HW2 3755   3.222   2.415   1.576
  907SOL    HW3 3756   3.071   2.423   1.578
  907SOL    MW4 3757   3.147   2.436   1.537
  908SOL     OW 3758   3.142   2.710   1.606
  908SOL    HW2 3759   3.220   2.760   1.583
  908SOL    HW3 3760   3.156   2.624   1.566
  908SOL    MW4 3761   3.154   2.705   1.598
  909SOL     OW 3762   3.387   2.841   1.542
  909SOL    HW2 3763   3.354   2.929   1.560
  909SOL    HW3 3764   3.391   2.836   1.446
  909SOL    MW4 3765   3.383   2.852   1.531
  910SOL     OW 3766   3.333   3.110   1.606
  910SOL    HW2 3767   3.352   3.092   1.698
  910SOL    HW3 3768   3.414   3.146   1.571
  910SOL    MW4 3769   3.346   3.112   1.614
  911SOL     OW 3770   3.113   3.241   1.520
  911SOL    HW2 3771   3.196   3.205   1.550
  911SOL    HW3 3772   3.116   3.232   1.425
  911SOL    MW4 3773   3.124   3.235   1.511
  912SOL     OW 3774   3.158   3.504   1.594
  912SOL    HW2 3775   3.137   3.418   1.557
  912SOL    HW3 3776   3.081   3.558   1.576
  912SOL    MW4 3777   3.145   3.500   1.586
  913SOL     OW 3778   3.376   3.624   1.486
  913SOL    HW2 3779   3.447   3.577   1.531
  913SOL    HW3 3780   3.296   3.588   1.523
  913SOL    MW4 3781   3.375   3.613   1.497
  914SOL     OW 3782   3.319   3.877   1.599
  914SOL    HW2 3783   3.244   3.908   1.548
  914SOL    HW3 3784   3.326   3.784   1.578
  914SOL    MW4 3785   3.310   3.869   1.589
  915SOL     OW 3786   3.106   4.001   1.456
  915SOL    HW2 3787   3.102   4.093   1.480
  915SOL    HW3 3788   3.030   3.961   1.498
  915SOL    MW4 3789   3.096   4.008   1.465
  916SOL     OW 3790   3.095   4.263   1.557
  916SOL    HW2 3791   3.094   4.247   1.651
  916SOL    HW3 3792   3.009   4.299   1.538
  916SOL    MW4 3793   3.084   4.265   1.567
  917SOL     OW 3794   3.338   4.411   1.484
  917SOL    HW2 3795   3.254   4.370   1.507
  917SOL    HW3 3796   3.331   4.430   1.390
  917SOL    MW4 3797   3.326   4.408   1.475
  918SOL     OW 3798   3.810   4.616   1.582
  918SOL    HW2 3799   3.814   4.626   1.677
  918SOL    HW3 3800   3.880   4.672   1.549
  918SOL    MW4 3801   3.820   4.625   1.591
  919SOL     OW 3802   3.567   0.069   1.471
  919SOL    HW2 3803   3.650   0.023   1.486
  919SOL    HW3 3804   3.562   0.078   1.376
  919SOL    MW4 3805   3.578   0.064   1.460
  920SOL     OW 3806   3.555   0.329   1.611
  920SOL    HW2 3807   3.568   0.250   1.558
  920SOL    HW3 3808   3.493   0.381   1.561
  920SOL    MW4 3809   3.549   0.325   1.598
  921SOL     OW 3810   3.760   0.469   1.513
  921SOL    HW2 3811   3.680   0.427   1.543
  921SOL    HW3 3812   3.760   0.456   1.418
  921SOL    MW4 3813   3.749   0.462   1.504
  922SOL     OW 3814   3.795   0.744   1.564
  922SOL    HW2 3815   3.716   0.794   1.548
  922SOL    HW3 3816   3.768   0.652   1.557
  922SOL    MW4 3817   3.781   0.738   1.561
  923SOL     OW 3818   3.588   0.936   1.493
  923SOL    HW2 3819   3.509   0.888   1.518
  923SOL    HW3 3820   3.589   0.933   1.397
  923SOL    MW4 3821   3.578   0.929   1.484
  924SOL     OW 3822   3.570   1.208   1.572
  924SOL    HW2 3823   3.657   1.240   1.550
  924SOL    HW3 3824   3.565   1.121   1.532
  924SOL    MW4 3825   3.581   1.201   1.564
  925SOL     OW 3826   3.816   1.327   1.523
  925SOL    HW2 3827   3.900   1.282   1.538
  925SOL    HW3 3828   3.825   1.409   1.572
  925SOL    MW4 3829   3.829   1.332   1.532
  926SOL     OW 3830   3.822   1.591   1.615
  926SOL    HW2 3831   3.813   1.571   1.708
  926SOL    HW3 3832   3.733   1.616   1.588
  926SOL    MW4 3833   3.809   1.591   1.623
  927SOL     OW 3834   3.587   1.676   1.488
  927SOL    HW2 3835   3.498   1.643   1.502
  927SOL    HW3 3836   3.600   1.669   1.394
  927SOL    MW4 3837   3.577   1.671   1.477
  928SOL     OW 3838   3.591   1.920   1.600
  928SOL    HW2 3839   3.589   1.834   1.558
  928SOL    HW3 3840   3.546   1.978   1.540
  928SOL    MW4 3841   3.585   1.916   1.587
  929SOL     OW 3842   3.851   2.042   1.535
  929SOL    HW2 3843   3.835   2.131   1.568
  929SOL    HW3 3844   3.774   1.992   1.564
  929SOL    MW4 3845   3.838   2.047   1.543
  930SOL     OW 3846   3.805   2.308   1.600
  930SOL    HW2 3847   3.798   2.321   1.695
  930SOL    HW3 3848   3.886   2.352   1.575
  930SOL    MW4 3849   3.814   2.316   1.609
  931SOL     OW 3850   3.604   2.460   1.497
  931SOL    HW2 3851   3.615   2.550   1.528
  931SOL    HW3 3852   3.688   2.417   1.517
  931SOL    MW4 3853   3.617   2.466   1.503
  932SOL     OW 3854   3.615   2.719   1.612
  932SOL    HW2 3855   3.620   2.716   1.707
  932SOL    HW3 3856   3.532   2.761   1.593
  932SOL    MW4 3857   3.605   2.724   1.622
  933SOL     OW 3858   3.873   2.870   1.526
  933SOL    HW2 3859   3.934   2.804   1.559
  933SOL    HW3 3860   3.786   2.838   1.552
  933SOL    MW4 3861   3.869   2.857   1.533
  934SOL     OW 3862   3.819   3.126   1.599
  934SOL    HW2 3863   3.894   3.170   1.559
  934SOL    HW3 3864   3.834   3.033   1.580
  934SOL    MW4 3865   3.831   3.119   1.591
  935SOL     OW 3866   3.571   3.219   1.521
  935SOL    HW2 3867   3.657   3.183   1.541
  935SOL    HW3 3868   3.561   3.207   1.427
  935SOL    MW4 3869   3.581   3.212   1.511
  936SOL     OW 3870   3.565   3.485   1.626
  936SOL    HW2 3871   3.648   3.514   1.587
  936SOL    HW3 3872   3.558   3.392   1.602
  936SOL    MW4 3873   3.575   3.476   1.618
  937SOL     OW 3874   3.785   3.610   1.511
  937SOL    HW2 3875   3.866   3.566   1.534
  937SOL    HW3 3876   3.794   3.698   1.547
  937SOL    MW4 3877   3.797   3.616   1.519
  938SOL     OW 3878   3.792   3.854   1.625
  938SOL    HW2 3879   3.864   3.909   1.593
  938SOL    HW3 3880   3.716   3.884   1.577
  938SOL    MW4 3881   3.792   3.865   1.615
  939SOL     OW 3882   3.560   3.971   1.495
  939SOL    HW2 3883   3.562   4.064   1.515
  939SOL    HW3 3884   3.473   3.942   1.524
  939SOL    MW4 3885   3.548   3.979   1.502
  940SOL     OW 3886   3.574   4.248   1.557
  940SOL    HW2 3887   3.565   4.271   1.649
  940SOL    HW3 3888   3.509   4.301   1.512
  940SOL    MW4 3889   3.564   4.258   1.563
  941SOL     OW 3890   3.826   4.356   1.498
  941SOL    HW2 3891   3.745   4.305   1.506
  941SOL    HW3 3892   3.807   4.438   1.543
  941SOL    MW4 3893   3.813   4.360   1.505
  942SOL     OW 3894   4.228   0.002   1.587
  942SOL    HW2 3895   4.246  -0.023   1.677
  942SOL    HW3 3896   4.231  -0.080   1.538
  942SOL    MW4 3897   4.231  -0.012   1.592
  943SOL     OW 3898   4.002   0.152   1.481
  943SOL    HW2 3899   4.004   0.236   1.526
  943SOL    HW3 3900   4.077   0.104   1.518
  943SOL    MW4 3901   4.012   0.157   1.492
  944SOL     OW 3902   3.997   0.385   1.631
  944SOL    HW2 3903   4.003   0.386   1.727
  944SOL    HW3 3904   3.907   0.411   1.613
  944SOL    MW4 3905   3.986   0.389   1.642
  945SOL     OW 3906   4.221   0.495   1.517
  945SOL    HW2 3907   4.149   0.451   1.562
  945SOL    HW3 3908   4.300   0.453   1.550
  945SOL    MW4 3909   4.222   0.484   1.527
  946SOL     OW 3910   4.249   0.755   1.627
  946SOL    HW2 3911   4.242   0.670   1.584
  946SOL    HW3 3912   4.326   0.796   1.588
  946SOL    MW4 3913   4.258   0.749   1.616
  947SOL     OW 3914   4.032   0.888   1.525
  947SOL    HW2 3915   4.110   0.863   1.575
  947SOL    HW3 3916   3.967   0.821   1.547
  947SOL    MW4 3917   4.034   0.876   1.534
  948SOL     OW 3918   4.029   1.149   1.591
  948SOL    HW2 3919   4.008   1.144   1.684
  948SOL    HW3 3920   4.019   1.059   1.559
  948SOL    MW4 3921   4.025   1.137   1.599
  949SOL     OW 3922   4.243   1.288   1.504
  949SOL    HW2 3923   4.176   1.230   1.540
  949SOL    HW3 3924   4.326   1.250   1.533
  949SOL    MW4 3925   4.245   1.275   1.512
  950SOL     OW 3926   4.259   1.526   1.658
  950SOL    HW2 3927   4.261   1.431   1.641
  950SOL    HW3 3928   4.342   1.558   1.622
  950SOL    MW4 3929   4.270   1.517   1.651
  951SOL     OW 3930   4.069   1.687   1.525
  951SOL    HW2 3931   4.129   1.627   1.569
  951SOL    HW3 3932   3.981   1.656   1.549
  951SOL    MW4 3933   4.065   1.675   1.534
  952SOL     OW 3934   4.099   1.947   1.621
  952SOL    HW2 3935   4.098   1.855   1.595
  952SOL    HW3 3936   4.019   1.984   1.582
  952SOL    MW4 3937   4.088   1.940   1.612
  953SOL     OW 3938   4.292   2.112   1.524
  953SOL    HW2 3939   4.221   2.052   1.546
  953SOL    HW3 3940   4.302   2.105   1.429
  953SOL    MW4 3941   4.284   2.103   1.514
  954SOL     OW 3942   4.278   2.361   1.620
  954SOL    HW2 3943   4.268   2.350   1.714
  954SOL    HW3 3944   4.278   2.272   1.585
  954SOL    MW4 3945   4.277   2.348   1.628
  955SOL     OW 3946   4.045   2.448   1.515
  955SOL    HW2 3947   4.052   2.537   1.548
  955SOL    HW3 3948   4.126   2.406   1.542
  955SOL    MW4 3949   4.056   2.454   1.523
  956SOL     OW 3950   4.047   2.690   1.623
  956SOL    HW2 3951   4.035   2.695   1.718
  956SOL    HW3 3952   4.123   2.746   1.606
  956SOL    MW4 3953   4.055   2.698   1.634
  957SOL     OW 3954   4.262   2.840   1.537
  957SOL    HW2 3955   4.254   2.935   1.549
  957SOL    HW3 3956   4.280   2.829   1.444
  957SOL    MW4 3957   4.264   2.851   1.526
  958SOL     OW 3958   4.273   3.125   1.584
  958SOL    HW2 3959   4.287   3.133   1.679
  958SOL    HW3 3960   4.356   3.152   1.545
  958SOL    MW4 3961   4.286   3.129   1.592
  959SOL     OW 3962   4.034   3.277   1.480
  959SOL    HW2 3963   4.029   3.367   1.512
  959SOL    HW3 3964   4.115   3.243   1.519
  959SOL    MW4 3965   4.044   3.284   1.490
  960SOL     OW 3966   4.018   3.518   1.600
  960SOL    HW2 3967   4.015   3.499   1.694
  960SOL    HW3 3968   4.110   3.535   1.581
  960SOL    MW4 3969   4.029   3.517   1.610
  961SOL     OW 3970   4.288   3.593   1.525
  961SOL    HW2 3971   4.284   3.683   1.555
  961SOL    HW3 3972   4.289   3.600   1.429
  961SOL    MW4 3973   4.288   3.606   1.516
  962SOL     OW 3974   4.286   3.860   1.613
  962SOL    HW2 3975   4.210   3.902   1.572
  962SOL    HW3 3976   4.361   3.894   1.565
  962SOL    MW4 3977   4.285   3.870   1.601
  963SOL     OW 3978   4.023   3.959   1.554
  963SOL    HW2 3979   4.045   4.043   1.594
  963SOL    HW3 3980   4.027   3.976   1.459
  963SOL    MW4 3981   4.026   3.972   1.547
  964SOL     OW 3982   4.057   4.238   1.606
  964SOL    HW2 3983   4.039   4.231   1.699
  964SOL    HW3 3984   3.971   4.257   1.566
  964SOL    MW4 3985   4.043   4.240   1.613
  965SOL     OW 3986   4.278   4.403   1.493
  965SOL    HW2 3987   4.193   4.370   1.523
  965SOL    HW3 3988   4.272   4.399   1.398
  965SOL    MW4 3989   4.266   4.398   1.484
  966SOL     OW 3990   0.216   4.667   1.939
  966SOL    HW2 3991   0.294   4.708   1.975
  966SOL    HW3 3992   0.231   4.665   1.845
  966SOL    MW4 3993   0.228   4.672   1.931
  967SOL     OW 3994   4.467   0.129   2.004
  967SOL    HW2 3995   4.460   0.219   1.971
  967SOL    HW3 3996   4.554   0.100   1.975
  967SOL    MW4 3997   4.478   0.137   1.996
  968SOL     OW 3998   4.447   0.391   1.891
  968SOL    HW2 3999   4.387   0.453   1.932
  968SOL    HW3 4000   4.534   0.422   1.916
  968SOL    MW4 4001   4.450   0.403   1.900
  969SOL     OW 4002   0.188   0.475   1.991
  969SOL    HW2 4003   0.267   0.438   1.950
  969SOL    HW3 4004   0.183   0.564   1.957
  969SOL    MW4 4005   0.198   0.482   1.981
  970SOL     OW 4006   0.199   0.762   1.947
  970SOL    HW2 4007   0.276   0.803   1.987
  970SOL    HW3 4008   0.218   0.763   1.853
  970SOL    MW4 4009   0.212   0.768   1.939
  971SOL     OW 4010   4.476   0.923   2.019
  971SOL    HW2 4011   4.402   0.867   1.994
  971SOL    HW3 4012   4.554   0.875   1.992
  971SOL    MW4 4013   4.476   0.909   2.012
  972SOL     OW 4014   4.448   1.133   1.846
  972SOL    HW2 4015   4.378   1.181   1.888
  972SOL    HW3 4016   4.464   1.058   1.904
  972SOL    MW4 4017   4.441   1.129   1.859
  973SOL     OW 4018   0.174   1.249   1.981
  973SOL    HW2 4019   0.174   1.338   1.945
  973SOL    HW3 4020   0.101   1.206   1.937
  973SOL    MW4 4021   0.164   1.255   1.970
  974SOL     OW 4022   0.222   1.508   1.897
  974SOL    HW2 4023   0.301   1.550   1.931
  974SOL    HW3 4024   0.152   1.570   1.917
  974SOL    MW4 4025   0.223   1.522   1.904
  975SOL     OW 4026   0.017   1.682   1.988
  975SOL    HW2 4027   0.026   1.679   2.083
  975SOL    HW3 4028  -0.067   1.638   1.970
  975SOL    MW4 4029   0.007   1.676   1.998
  976SOL     OW 4030   4.488   1.942   1.898
  976SOL    HW2 4031   4.414   1.979   1.945
  976SOL    HW3 4032   4.494   1.851   1.930
  976SOL    MW4 4033   4.479   1.935   1.909
  977SOL     OW 4034   0.245   2.075   1.974
  977SOL    HW2 4035   0.223   2.163   1.942
  977SOL    HW3 4036   0.169   2.022   1.950
  977SOL    MW4 4037   0.232   2.080   1.967
  978SOL     OW 4038   0.188   2.338   1.889
  978SOL    HW2 4039   0.273   2.370   1.921
  978SOL    HW3 4040   0.124   2.396   1.931
  978SOL    MW4 4041   0.191   2.350   1.899
  979SOL     OW 4042   4.450   2.457   2.031
  979SOL    HW2 4043   4.464   2.438   2.124
  979SOL    HW3 4044   4.465   2.551   2.023
  979SOL    MW4 4045   4.454   2.467   2.042
  980SOL     OW 4046   4.473   2.701   1.888
  980SOL    HW2 4047   4.392   2.747   1.908
  980SOL    HW3 4048   4.479   2.702   1.793
  980SOL    MW4 4049   4.463   2.707   1.878
  981SOL     OW 4050   0.203   2.854   1.982
  981SOL    HW2 4051   0.197   2.944   1.952
  981SOL    HW3 4052   0.127   2.811   1.944
  981SOL    MW4 4053   0.192   2.860   1.973
  982SOL     OW 4054   0.232   3.148   1.887
  982SOL    HW2 4055   0.314   3.163   1.933
  982SOL    HW3 4056   0.253   3.160   1.795
  982SOL    MW4 4057   0.245   3.152   1.881
  983SOL     OW 4058   0.017   3.252   2.014
  983SOL    HW2 4059  -0.050   3.214   1.958
  983SOL    HW3 4060   0.097   3.204   1.993
  983SOL    MW4 4061   0.019   3.241   2.004
  984SOL     OW 4062   0.033   3.505   1.892
  984SOL    HW2 4063   0.101   3.551   1.941
  984SOL    HW3 4064   0.046   3.412   1.912
  984SOL    MW4 4065   0.044   3.499   1.901
  985SOL     OW 4066   0.261   3.631   1.998
  985SOL    HW2 4067   0.261   3.612   2.092
  985SOL    HW3 4068   0.320   3.566   1.960
  985SOL    MW4 4069   0.269   3.620   2.005
  986SOL     OW 4070   0.244   3.871   1.875
  986SOL    HW2 4071   0.315   3.931   1.901
  986SOL    HW3 4072   0.268   3.787   1.913
  986SOL    MW4 4073   0.257   3.868   1.883
  987SOL     OW 4074   0.016   4.005   1.981
  987SOL    HW2 4075   0.026   4.093   1.942
  987SOL    HW3 4076   0.089   3.955   1.946
  987SOL    MW4 4077   0.027   4.010   1.971
  988SOL     OW 4078   4.490   4.237   1.863
  988SOL    HW2 4079   4.410   4.271   1.903
  988SOL    HW3 4080   4.561   4.289   1.903
  988SOL    MW4 4081   4.489   4.249   1.874
  989SOL     OW 4082   0.190   4.386   2.000
  989SOL    HW2 4083   0.200   4.386   2.095
  989SOL    HW3 4084   0.196   4.478   1.974
  989SOL    MW4 4085   0.192   4.398   2.009
  990SOL     OW 4086   0.689   0.004   1.910
  990SOL    HW2 4087   0.690  -0.085   1.944
  990SOL    HW3 4088   0.702  -0.006   1.815
  990SOL    MW4 4089   0.691  -0.009   1.902
  991SOL     OW 4090   0.464   0.117   2.014
  991SOL    HW2 4091   0.445   0.200   1.969
  991SOL    HW3 4092   0.544   0.085   1.973
  991SOL    MW4 4093   0.472   0.124   2.003
  992SOL     OW 4094   0.421   0.368   1.882
  992SOL    HW2 4095   0.499   0.416   1.911
  992SOL    HW3 4096   0.417   0.383   1.787
  992SOL    MW4 4097   0.431   0.376   1.873
  993SOL     OW 4098   0.622   0.517   1.976
  993SOL    HW2 4099   0.631   0.513   2.071
  993SOL    HW3 4100   0.702   0.475   1.943
  993SOL    MW4 4101   0.634   0.511   1.984
  994SOL     OW 4102   0.681   0.751   1.835
  994SOL    HW2 4103   0.746   0.790   1.894
  994SOL    HW3 4104   0.650   0.674   1.882
  994SOL    MW4 4105   0.686   0.746   1.849
  995SOL     OW 4106   0.451   0.864   2.008
  995SOL    HW2 4107   0.453   0.958   1.990
  995SOL    HW3 4108   0.530   0.830   1.964
  995SOL    MW4 4109   0.462   0.872   2.000
  996SOL     OW 4110   0.416   1.133   1.956
  996SOL    HW2 4111   0.340   1.188   1.978
  996SOL    HW3 4112   0.426   1.143   1.862
  996SOL    MW4 4113   0.407   1.142   1.947
  997SOL     OW 4114   0.668   1.271   2.009
  997SOL    HW2 4115   0.702   1.257   2.097
  997SOL    HW3 4116   0.589   1.217   2.005
  997SOL    MW4 4117   0.662   1.262   2.020
  998SOL     OW 4118   0.690   1.535   1.907
  998SOL    HW2 4119   0.680   1.442   1.930
  998SOL    HW3 4120   0.692   1.535   1.811
  998SOL    MW4 4121   0.689   1.522   1.897
  999SOL     OW 4122   0.448   1.683   1.953
  999SOL    HW2 4123   0.453   1.700   2.047
  999SOL    HW3 4124   0.531   1.641   1.932
  999SOL    MW4 4125   0.460   1.680   1.963
 1000SOL     OW 4126   0.475   1.946   1.872
 1000SOL    HW2 4127   0.474   1.855   1.902
 1000SOL    HW3 4128   0.399   1.986   1.913
 1000SOL    MW4 4129   0.465   1.939   1.881
 1001SOL     OW 4130   0.707   2.063   1.950
 1001SOL    HW2 4131   0.688   2.067   2.043
 1001SOL    HW3 4132   0.626   2.030   1.911
 1001SOL    MW4 4133   0.694   2.060   1.957
 1002SOL     OW 4134   0.664   2.347   1.893
 1002SOL    HW2 4135   0.674   2.253   1.911
 1002SOL    HW3 4136   0.681   2.354   1.799
 1002SOL    MW4 4137   0.667   2.335   1.883
 1003SOL     OW 4138   0.421   2.461   1.987
 1003SOL    HW2 4139   0.432   2.467   2.082
 1003SOL    HW3 4140   0.497   2.412   1.957
 1003SOL    MW4 4141   0.433   2.455   1.995
 1004SOL     OW 4142   0.445   2.728   1.892
 1004SOL    HW2 4143   0.449   2.638   1.924
 1004SOL    HW3 4144   0.359   2.760   1.920
 1004SOL    MW4 4145   0.434   2.721   1.900
 1005SOL     OW 4146   0.673   2.842   2.009
 1005SOL    HW2 4147   0.650   2.854   2.101
 1005SOL    HW3 4148   0.588   2.828   1.966
 1005SOL    MW4 4149   0.659   2.842   2.015
 1006SOL     OW 4150   0.690   3.101   1.861
 1006SOL    HW2 4151   0.681   3.010   1.891
 1006SOL    HW3 4152   0.694   3.095   1.766
 1006SOL    MW4 4153   0.690   3.088   1.852
 1007SOL     OW 4154   0.492   3.247   1.998
 1007SOL    HW2 4155   0.475   3.325   1.945
 1007SOL    HW3 4156   0.568   3.207   1.956
 1007SOL    MW4 4157   0.500   3.252   1.985
 1008SOL     OW 4158   0.437   3.474   1.861
 1008SOL    HW2 4159   0.511   3.523   1.896
 1008SOL    HW3 4160   0.438   3.493   1.767
 1008SOL    MW4 4161   0.446   3.483   1.853
 1009SOL     OW 4162   0.637   3.616   1.996
 1009SOL    HW2 4163   0.716   3.567   1.974
 1009SOL    HW3 4164   0.648   3.700   1.953
 1009SOL    MW4 4165   0.649   3.620   1.988
 1010SOL     OW 4166   0.675   3.848   1.865
 1010SOL    HW2 4167   0.754   3.894   1.892
 1010SOL    HW3 4168   0.662   3.873   1.774
 1010SOL    MW4 4169   0.684   3.857   1.856
 1011SOL     OW 4170   0.453   4.021   2.001
 1011SOL    HW2 4171   0.459   4.110   1.968
 1011SOL    HW3 4172   0.538   3.982   1.978
 1011SOL    MW4 4173   0.465   4.027   1.993
 1012SOL     OW 4174   0.447   4.298   1.921
 1012SOL    HW2 4175   0.356   4.313   1.945
 1012SOL    HW3 4176   0.445   4.285   1.826
 1012SOL    MW4 4177   0.435   4.298   1.911
 1013SOL     OW 4178   0.692   4.413   1.977
 1013SOL    HW2 4179   0.754   4.360   1.928
 1013SOL    HW3 4180   0.607   4.372   1.960
 1013SOL    MW4 4181   0.689   4.400   1.969
 1014SOL     OW 4182   1.073   0.014   1.905
 1014SOL    HW2 4183   1.156   0.057   1.926
 1014SOL    HW3 4184   1.088  -0.078   1.925
 1014SOL    MW4 4185   1.086   0.008   1.911
 1015SOL     OW 4186   0.870   0.164   2.050
 1015SOL    HW2 4187   0.958   0.138   2.023
 1015SOL    HW3 4188   0.812   0.099   2.009
 1015SOL    MW4 4189   0.874   0.152   2.041
 1016SOL     OW 4190   0.868   0.394   1.901
 1016SOL    HW2 4191   0.953   0.429   1.928
 1016SOL    HW3 4192   0.861   0.311   1.948
 1016SOL    MW4 4193   0.878   0.387   1.911
 1017SOL     OW 4194   1.113   0.511   2.000
 1017SOL    HW2 4195   1.190   0.467   1.965
 1017SOL    HW3 4196   1.111   0.596   1.956
 1017SOL    MW4 4197   1.123   0.516   1.990
 1018SOL     OW 4198   1.102   0.752   1.874
 1018SOL    HW2 4199   1.179   0.801   1.902
 1018SOL    HW3 4200   1.029   0.796   1.917
 1018SOL    MW4 4201   1.103   0.765   1.883
 1019SOL     OW 4202   0.858   0.871   2.013
 1019SOL    HW2 4203   0.873   0.890   2.105
 1019SOL    HW3 4204   0.865   0.956   1.970
 1019SOL    MW4 4205   0.861   0.885   2.019
 1020SOL     OW 4206   0.871   1.118   1.887
 1020SOL    HW2 4207   0.798   1.171   1.917
 1020SOL    HW3 4208   0.870   1.125   1.792
 1020SOL    MW4 4209   0.861   1.126   1.878
 1021SOL     OW 4210   1.087   1.251   1.980
 1021SOL    HW2 4211   1.094   1.337   1.939
 1021SOL    HW3 4212   0.999   1.220   1.959
 1021SOL    MW4 4213   1.077   1.258   1.972
 1022SOL     OW 4214   1.126   1.519   1.883
 1022SOL    HW2 4215   1.044   1.539   1.928
 1022SOL    HW3 4216   1.113   1.549   1.794
 1022SOL    MW4 4217   1.114   1.525   1.877
 1023SOL     OW 4218   0.914   1.641   1.996
 1023SOL    HW2 4219   0.921   1.730   1.961
 1023SOL    HW3 4220   0.831   1.608   1.963
 1023SOL    MW4 4221   0.904   1.649   1.987
 1024SOL     OW 4222   0.915   1.900   1.884
 1024SOL    HW2 4223   0.839   1.939   1.925
 1024SOL    HW3 4224   0.894   1.897   1.791
 1024SOL    MW4 4225   0.902   1.905   1.877
 1025SOL     OW 4226   1.146   2.032   1.958
 1025SOL    HW2 4227   1.135   2.122   1.929
 1025SOL    HW3 4228   1.070   1.985   1.924
 1025SOL    MW4 4229   1.135   2.037   1.950
 1026SOL     OW 4230   1.097   2.306   1.898
 1026SOL    HW2 4231   1.181   2.347   1.920
 1026SOL    HW3 4232   1.088   2.320   1.804
 1026SOL    MW4 4233   1.107   2.313   1.889
 1027SOL     OW 4234   0.893   2.454   1.982
 1027SOL    HW2 4235   0.954   2.386   1.952
 1027SOL    HW3 4236   0.808   2.427   1.947
 1027SOL    MW4 4237   0.890   2.441   1.974
 1028SOL     OW 4238   0.915   2.733   1.893
 1028SOL    HW2 4239   0.932   2.648   1.934
 1028SOL    HW3 4240   0.828   2.757   1.924
 1028SOL    MW4 4241   0.906   2.725   1.902
 1029SOL     OW 4242   1.149   2.859   1.990
 1029SOL    HW2 4243   1.134   2.861   2.085
 1029SOL    HW3 4244   1.068   2.825   1.953
 1029SOL    MW4 4245   1.137   2.855   1.998
 1030SOL     OW 4246   1.158   3.100   1.881
 1030SOL    HW2 4247   1.075   3.142   1.900
 1030SOL    HW3 4248   1.154   3.016   1.927
 1030SOL    MW4 4249   1.146   3.094   1.889
 1031SOL     OW 4250   0.916   3.234   1.938
 1031SOL    HW2 4251   0.898   3.252   2.030
 1031SOL    HW3 4252   0.850   3.169   1.913
 1031SOL    MW4 4253   0.905   3.228   1.947
 1032SOL     OW 4254   0.844   3.493   1.868
 1032SOL    HW2 4255   0.857   3.400   1.889
 1032SOL    HW3 4256   0.839   3.496   1.773
 1032SOL    MW4 4257   0.845   3.481   1.858
 1033SOL     OW 4258   1.092   3.601   1.915
 1033SOL    HW2 4259   1.085   3.629   2.006
 1033SOL    HW3 4260   1.006   3.565   1.894
 1033SOL    MW4 4261   1.080   3.600   1.924
 1034SOL     OW 4262   1.139   3.864   1.882
 1034SOL    HW2 4263   1.115   3.771   1.882
 1034SOL    HW3 4264   1.139   3.888   1.789
 1034SOL    MW4 4265   1.135   3.855   1.870
 1035SOL     OW 4266   0.901   3.973   1.968
 1035SOL    HW2 4267   0.913   3.999   2.059
 1035SOL    HW3 4268   0.989   3.951   1.937
 1035SOL    MW4 4269   0.914   3.974   1.976
 1036SOL     OW 4270   0.888   4.249   1.882
 1036SOL    HW2 4271   0.972   4.278   1.918
 1036SOL    HW3 4272   0.885   4.155   1.902
 1036SOL    MW4 4273   0.899   4.240   1.889
 1037SOL     OW 4274   1.097   4.416   1.983
 1037SOL    HW2 4275   1.108   4.402   2.077
 1037SOL    HW3 4276   1.162   4.359   1.942
 1037SOL    MW4 4277   1.107   4.407   1.990
 1038SOL     OW 4278   1.543   4.655   1.859
 1038SOL    HW2 4279   1.616   4.690   1.910
 1038SOL    HW3 4280   1.539   4.563   1.884
 1038SOL    MW4 4281   1.552   4.648   1.869
 1039SOL     OW 4282   1.317   0.115   1.950
 1039SOL    HW2 4283   1.341   0.115   2.042
 1039SOL    HW3 4284   1.392   0.077   1.905
 1039SOL    MW4 4285   1.330   0.110   1.956
 1040SOL     OW 4286   1.337   0.392   1.896
 1040SOL    HW2 4287   1.322   0.299   1.911
 1040SOL    HW3 4288   1.333   0.403   1.801
 1040SOL    MW4 4289   1.334   0.381   1.885
 1041SOL     OW 4290   1.524   0.530   2.010
 1041SOL    HW2 4291   1.603   0.487   1.978
 1041SOL    HW3 4292   1.452   0.483   1.968
 1041SOL    MW4 4293   1.525   0.518   2.000
 1042SOL     OW 4294   1.559   0.772   1.864
 1042SOL    HW2 4295   1.641   0.811   1.896
 1042SOL    HW3 4296   1.552   0.689   1.913
 1042SOL    MW4 4297   1.569   0.766   1.875
 1043SOL     OW 4298   1.331   0.897   1.941
 1043SOL    HW2 4299   1.340   0.898   2.037
 1043SOL    HW3 4300   1.414   0.864   1.909
 1043SOL    MW4 4301   1.343   0.893   1.950
 1044SOL     OW 4302   1.369   1.174   1.900
 1044SOL    HW2 4303   1.368   1.079   1.907
 1044SOL    HW3 4304   1.281   1.201   1.926
 1044SOL    MW4 4305   1.357   1.165   1.905
 1045SOL     OW 4306   1.580   1.290   2.038
 1045SOL    HW2 4307   1.589   1.372   1.989
 1045SOL    HW3 4308   1.519   1.237   1.987
 1045SOL    MW4 4309   1.573   1.294   2.025
 1046SOL     OW 4310   1.574   1.518   1.884
 1046SOL    HW2 4311   1.642   1.582   1.905
 1046SOL    HW3 4312   1.494   1.556   1.919
 1046SOL    MW4 4313   1.573   1.532   1.891
 1047SOL     OW 4314   1.358   1.595   2.017
 1047SOL    HW2 4315   1.369   1.607   2.111
 1047SOL    HW3 4316   1.264   1.575   2.006
 1047SOL    MW4 4317   1.347   1.594   2.028
 1048SOL     OW 4318   1.362   1.898   1.877
 1048SOL    HW2 4319   1.372   1.816   1.925
 1048SOL    HW3 4320   1.282   1.937   1.913
 1048SOL    MW4 4321   1.352   1.892   1.888
 1049SOL     OW 4322   1.584   2.032   1.987
 1049SOL    HW2 4323   1.569   2.125   1.970
 1049SOL    HW3 4324   1.513   1.988   1.940
 1049SOL    MW4 4325   1.572   2.038   1.979
 1050SOL     OW 4326   1.545   2.300   1.875
 1050SOL    HW2 4327   1.627   2.347   1.890
 1050SOL    HW3 4328   1.528   2.310   1.781
 1050SOL    MW4 4329   1.554   2.307   1.864
 1051SOL     OW 4330   1.326   2.410   1.976
 1051SOL    HW2 4331   1.351   2.501   1.961
 1051SOL    HW3 4332   1.400   2.359   1.943
 1051SOL    MW4 4333   1.339   2.416   1.970
 1052SOL     OW 4334   1.352   2.658   1.925
 1052SOL    HW2 4335   1.283   2.719   1.952
 1052SOL    HW3 4336   1.357   2.667   1.830
 1052SOL    MW4 4337   1.344   2.667   1.916
 1053SOL     OW 4338   1.588   2.819   1.992
 1053SOL    HW2 4339   1.667   2.773   1.963
 1053SOL    HW3 4340   1.517   2.760   1.969
 1053SOL    MW4 4341   1.589   2.805   1.985
 1054SOL     OW 4342   1.565   3.082   1.873
 1054SOL    HW2 4343   1.579   2.991   1.900
 1054SOL    HW3 4344   1.567   3.079   1.778
 1054SOL    MW4 4345   1.567   3.069   1.864
 1055SOL     OW 4346   1.371   3.234   1.995
 1055SOL    HW2 4347   1.439   3.187   1.947
 1055SOL    HW3 4348   1.290   3.187   1.973
 1055SOL    MW4 4349   1.369   3.221   1.986
 1056SOL     OW 4350   1.333   3.470   1.856
 1056SOL    HW2 4351   1.351   3.385   1.897
 1056SOL    HW3 4352   1.245   3.492   1.886
 1056SOL    MW4 4353   1.324   3.462   1.865
 1057SOL     OW 4354   1.549   3.604   1.987
 1057SOL    HW2 4355   1.534   3.623   2.080
 1057SOL    HW3 4356   1.467   3.563   1.958
 1057SOL    MW4 4357   1.536   3.601   1.996
 1058SOL     OW 4358   1.596   3.860   1.869
 1058SOL    HW2 4359   1.674   3.904   1.902
 1058SOL    HW3 4360   1.593   3.776   1.915
 1058SOL    MW4 4361   1.606   3.855   1.879
 1059SOL     OW 4362   1.368   4.000   1.975
 1059SOL    HW2 4363   1.457   3.976   1.949
 1059SOL    HW3 4364   1.312   3.934   1.935
 1059SOL    MW4 4365   1.372   3.988   1.966
 1060SOL     OW 4366   1.286   4.242   1.900
 1060SOL    HW2 4367   1.302   4.153   1.929
 1060SOL    HW3 4368   1.300   4.240   1.805
 1060SOL    MW4 4369   1.290   4.230   1.891
 1061SOL     OW 4370   1.513   4.379   1.982
 1061SOL    HW2 4371   1.514   4.380   2.077
 1061SOL    HW3 4372   1.439   4.322   1.960
 1061SOL    MW4 4373   1.503   4.371   1.991
 1062SOL     OW 4374   1.988   0.046   1.886
 1062SOL    HW2 4375   2.065   0.098   1.911
 1062SOL    HW3 4376   2.010  -0.043   1.914
 1062SOL    MW4 4377   2.001   0.041   1.893
 1063SOL     OW 4378   1.732   0.130   1.975
 1063SOL    HW2 4379   1.736   0.130   2.071
 1063SOL    HW3 4380   1.813   0.087   1.948
 1063SOL    MW4 4381   1.743   0.124   1.984
 1064SOL     OW 4382   1.751   0.404   1.918
 1064SOL    HW2 4383   1.751   0.309   1.929
 1064SOL    HW3 4384   1.768   0.416   1.824
 1064SOL    MW4 4385   1.753   0.393   1.907
 1065SOL     OW 4386   2.015   0.496   1.982
 1065SOL    HW2 4387   2.014   0.588   1.954
 1065SOL    HW3 4388   1.932   0.461   1.950
 1065SOL    MW4 4389   2.004   0.504   1.974
 1066SOL     OW 4390   2.018   0.751   1.835
 1066SOL    HW2 4391   2.102   0.789   1.860
 1066SOL    HW3 4392   2.018   0.752   1.740
 1066SOL    MW4 4393   2.029   0.756   1.826
 1067SOL     OW 4394   1.790   0.899   1.970
 1067SOL    HW2 4395   1.787   0.988   1.934
 1067SOL    HW3 4396   1.863   0.857   1.925
 1067SOL    MW4 4397   1.799   0.905   1.959
 1068SOL     OW 4398   1.769   1.161   1.902
 1068SOL    HW2 4399   1.700   1.211   1.945
 1068SOL    HW3 4400   1.771   1.195   1.812
 1068SOL    MW4 4401   1.760   1.172   1.896
 1069SOL     OW 4402   2.008   1.297   1.957
 1069SOL    HW2 4403   2.082   1.242   1.930
 1069SOL    HW3 4404   1.931   1.246   1.932
 1069SOL    MW4 4405   2.007   1.283   1.950
 1070SOL     OW 4406   2.013   1.575   1.885
 1070SOL    HW2 4407   2.013   1.481   1.900
 1070SOL    HW3 4408   2.006   1.585   1.790
 1070SOL    MW4 4409   2.012   1.564   1.875
 1071SOL     OW 4410   1.774   1.697   1.969
 1071SOL    HW2 4411   1.783   1.778   1.920
 1071SOL    HW3 4412   1.853   1.648   1.948
 1071SOL    MW4 4413   1.786   1.701   1.960
 1072SOL     OW 4414   1.803   1.963   1.854
 1072SOL    HW2 4415   1.728   2.008   1.893
 1072SOL    HW3 4416   1.797   1.981   1.761
 1072SOL    MW4 4417   1.792   1.971   1.847
 1073SOL     OW 4418   2.034   2.052   1.954
 1073SOL    HW2 4419   2.104   2.019   1.898
 1073SOL    HW3 4420   1.955   2.010   1.921
 1073SOL    MW4 4421   2.033   2.042   1.942
 1074SOL     OW 4422   2.017   2.328   1.893
 1074SOL    HW2 4423   2.105   2.364   1.903
 1074SOL    HW3 4424   2.024   2.237   1.921
 1074SOL    MW4 4425   2.029   2.321   1.898
 1075SOL     OW 4426   1.763   2.446   1.929
 1075SOL    HW2 4427   1.747   2.443   2.024
 1075SOL    HW3 4428   1.852   2.414   1.918
 1075SOL    MW4 4429   1.772   2.442   1.940
 1076SOL     OW 4430   1.835   2.712   1.895
 1076SOL    HW2 4431   1.828   2.619   1.916
 1076SOL    HW3 4432   1.821   2.717   1.801
 1076SOL    MW4 4433   1.832   2.700   1.886
 1077SOL     OW 4434   2.081   2.852   1.972
 1077SOL    HW2 4435   2.094   2.843   2.066
 1077SOL    HW3 4436   2.013   2.788   1.950
 1077SOL    MW4 4437   2.074   2.843   1.981
 1078SOL     OW 4438   2.013   3.089   1.871
 1078SOL    HW2 4439   1.928   3.115   1.907
 1078SOL    HW3 4440   2.033   3.006   1.916
 1078SOL    MW4 4441   2.004   3.081   1.882
 1079SOL     OW 4442   1.779   3.212   1.969
 1079SOL    HW2 4443   1.783   3.197   2.063
 1079SOL    HW3 4444   1.706   3.158   1.939
 1079SOL    MW4 4445   1.770   3.203   1.978
 1080SOL     OW 4446   1.784   3.468   1.870
 1080SOL    HW2 4447   1.782   3.377   1.900
 1080SOL    HW3 4448   1.700   3.504   1.898
 1080SOL    MW4 4449   1.772   3.461   1.878
 1081SOL     OW 4450   2.000   3.611   1.953
 1081SOL    HW2 4451   1.994   3.700   1.917
 1081SOL    HW3 4452   1.924   3.566   1.918
 1081SOL    MW4 4453   1.989   3.617   1.944
 1082SOL     OW 4454   1.978   3.871   1.871
 1082SOL    HW2 4455   2.061   3.889   1.915
 1082SOL    HW3 4456   1.998   3.879   1.778
 1082SOL    MW4 4457   1.992   3.875   1.865
 1083SOL     OW 4458   1.784   4.008   1.988
 1083SOL    HW2 4459   1.761   4.090   1.944
 1083SOL    HW3 4460   1.861   3.976   1.940
 1083SOL    MW4 4461   1.791   4.014   1.976
 1084SOL     OW 4462   1.766   4.293   1.917
 1084SOL    HW2 4463   1.676   4.311   1.942
 1084SOL    HW3 4464   1.766   4.294   1.821
 1084SOL    MW4 4465   1.754   4.296   1.908
 1085SOL     OW 4466   2.007   4.430   1.979
 1085SOL    HW2 4467   2.073   4.372   1.940
 1085SOL    HW3 4468   1.926   4.380   1.976
 1085SOL    MW4 4469   2.005   4.416   1.974
 1086SOL     OW 4470   2.455   4.661   1.888
 1086SOL    HW2 4471   2.535   4.705   1.916
 1086SOL    HW3 4472   2.456   4.578   1.934
 1086SOL    MW4 4473   2.465   4.656   1.898
 1087SOL     OW 4474   2.229   0.154   1.977
 1087SOL    HW2 4475   2.242   0.147   2.071
 1087SOL    HW3 4476   2.300   0.103   1.938
 1087SOL    MW4 4477   2.240   0.146   1.984
 1088SOL     OW 4478   2.235   0.388   1.829
 1088SOL    HW2 4479   2.265   0.324   1.894
 1088SOL    HW3 4480   2.157   0.427   1.868
 1088SOL    MW4 4481   2.229   0.385   1.843
 1089SOL     OW 4482   2.461   0.526   1.923
 1089SOL    HW2 4483   2.533   0.471   1.891
 1089SOL    HW3 4484   2.382   0.482   1.893
 1089SOL    MW4 4485   2.460   0.512   1.915
 1090SOL     OW 4486   2.483   0.795   1.842
 1090SOL    HW2 4487   2.479   0.704   1.873
 1090SOL    HW3 4488   2.487   0.788   1.747
 1090SOL    MW4 4489   2.483   0.782   1.834
 1091SOL     OW 4490   2.247   0.886   1.938
 1091SOL    HW2 4491   2.259   0.855   2.027
 1091SOL    HW3 4492   2.331   0.869   1.895
 1091SOL    MW4 4493   2.260   0.880   1.944
 1092SOL     OW 4494   2.228   1.155   1.883
 1092SOL    HW2 4495   2.305   1.186   1.929
 1092SOL    HW3 4496   2.228   1.060   1.897
 1092SOL    MW4 4497   2.238   1.147   1.891
 1093SOL     OW 4498   2.473   1.279   1.967
 1093SOL    HW2 4499   2.461   1.293   2.061
 1093SOL    HW3 4500   2.455   1.364   1.927
 1093SOL    MW4 4501   2.469   1.292   1.974
 1094SOL     OW 4502   2.436   1.547   1.886
 1094SOL    HW2 4503   2.369   1.610   1.913
 1094SOL    HW3 4504   2.443   1.560   1.791
 1094SOL    MW4 4505   2.428   1.557   1.877
 1095SOL     OW 4506   2.250   1.711   2.001
 1095SOL    HW2 4507   2.226   1.710   2.094
 1095SOL    HW3 4508   2.176   1.667   1.958
 1095SOL    MW4 4509   2.237   1.705   2.008
 1096SOL     OW 4510   2.251   1.933   1.823
 1096SOL    HW2 4511   2.329   1.974   1.859
 1096SOL    HW3 4512   2.238   1.854   1.875
 1096SOL    MW4 4513   2.259   1.928   1.835
 1097SOL     OW 4514   2.474   2.055   1.920
 1097SOL    HW2 4515   2.563   2.018   1.911
 1097SOL    HW3 4516   2.484   2.147   1.897
 1097SOL    MW4 4517   2.487   2.062   1.916
 1098SOL     OW 4518   2.453   2.332   1.854
 1098SOL    HW2 4519   2.523   2.395   1.872
 1098SOL    HW3 4520   2.373   2.376   1.882
 1098SOL    MW4 4521   2.452   2.346   1.860
 1099SOL     OW 4522   2.239   2.471   1.938
 1099SOL    HW2 4523   2.262   2.475   2.031
 1099SOL    HW3 4524   2.235   2.563   1.911
 1099SOL    MW4 4525   2.242   2.484   1.947
 1100SOL     OW 4526   2.291   2.716   1.848
 1100SOL    HW2 4527   2.214   2.767   1.873
 1100SOL    HW3 4528   2.283   2.705   1.753
 1100SOL    MW4 4529   2.280   2.721   1.839
 1101SOL     OW 4530   2.494   2.863   1.958
 1101SOL    HW2 4531   2.465   2.951   1.933
 1101SOL    HW3 4532   2.424   2.805   1.928
 1101SOL    MW4 4533   2.481   2.867   1.951
 1102SOL     OW 4534   2.434   3.114   1.901
 1102SOL    HW2 4535   2.348   3.144   1.931
 1102SOL    HW3 4536   2.430   3.122   1.806
 1102SOL    MW4 4537   2.422   3.119   1.893
 1103SOL     OW 4538   2.212   3.234   1.977
 1103SOL    HW2 4539   2.179   3.239   2.067
 1103SOL    HW3 4540   2.150   3.178   1.931
 1103SOL    MW4 4541   2.200   3.227   1.983
 1104SOL     OW 4542   2.257   3.507   1.924
 1104SOL    HW2 4543   2.241   3.414   1.942
 1104SOL    HW3 4544   2.175   3.550   1.945
 1104SOL    MW4 4545   2.244   3.500   1.929
 1105SOL     OW 4546   2.494   3.653   1.970
 1105SOL    HW2 4547   2.502   3.656   2.065
 1105SOL    HW3 4548   2.420   3.594   1.955
 1105SOL    MW4 4549   2.485   3.645   1.981
 1106SOL     OW 4550   2.454   3.908   1.856
 1106SOL    HW2 4551   2.380   3.943   1.905
 1106SOL    HW3 4552   2.472   3.823   1.896
 1106SOL    MW4 4553   2.447   3.902   1.868
 1107SOL     OW 4554   2.223   3.981   1.974
 1107SOL    HW2 4555   2.205   3.989   2.068
 1107SOL    HW3 4556   2.207   4.069   1.940
 1107SOL    MW4 4557   2.219   3.994   1.982
 1108SOL     OW 4558   2.200   4.256   1.902
 1108SOL    HW2 4559   2.271   4.312   1.931
 1108SOL    HW3 4560   2.199   4.265   1.807
 1108SOL    MW4 4561   2.209   4.265   1.894
 1109SOL     OW 4562   2.427   4.400   1.977
 1109SOL    HW2 4563   2.449   4.400   2.070
 1109SOL    HW3 4564   2.508   4.373   1.933
 1109SOL    MW4 4565   2.441   4.396   1.983
 1110SOL     OW 4566   2.918   4.666   1.823
 1110SOL    HW2 4567   2.984   4.720   1.865
 1110SOL    HW3 4568   2.938   4.577   1.851
 1110SOL    MW4 4569   2.929   4.661   1.832
 1111SOL     OW 4570   2.697   0.124   1.957
 1111SOL    HW2 4571   2.708   0.130   2.052
 1111SOL    HW3 4572   2.775   0.078   1.927
 1111SOL    MW4 4573   2.708   0.119   1.966
 1112SOL     OW 4574   2.702   0.385   1.885
 1112SOL    HW2 4575   2.784   0.426   1.910
 1112SOL    HW3 4576   2.705   0.297   1.922
 1112SOL    MW4 4577   2.713   0.379   1.893
 1113SOL     OW 4578   2.941   0.503   1.925
 1113SOL    HW2 4579   3.019   0.461   1.888
 1113SOL    HW3 4580   2.940   0.590   1.886
 1113SOL    MW4 4581   2.951   0.509   1.915
 1114SOL     OW 4582   2.911   0.757   1.844
 1114SOL    HW2 4583   2.993   0.795   1.877
 1114SOL    HW3 4584   2.843   0.795   1.900
 1114SOL    MW4 4585   2.913   0.767   1.856
 1115SOL     OW 4586   2.693   0.893   1.987
 1115SOL    HW2 4587   2.695   0.980   1.947
 1115SOL    HW3 4588   2.626   0.845   1.938
 1115SOL    MW4 4589   2.684   0.898   1.975
 1116SOL     OW 4590   2.691   1.155   1.876
 1116SOL    HW2 4591   2.613   1.193   1.915
 1116SOL    HW3 4592   2.674   1.158   1.781
 1116SOL    MW4 4593   2.678   1.161   1.868
 1117SOL     OW 4594   2.938   1.295   1.924
 1117SOL    HW2 4595   2.923   1.390   1.917
 1117SOL    HW3 4596   2.857   1.256   1.891
 1117SOL    MW4 4597   2.925   1.302   1.918
 1118SOL     OW 4598   2.903   1.587   1.907
 1118SOL    HW2 4599   2.991   1.606   1.940
 1118SOL    HW3 4600   2.912   1.593   1.812
 1118SOL    MW4 4601   2.916   1.590   1.899
 1119SOL     OW 4602   2.658   1.685   1.971
 1119SOL    HW2 4603   2.743   1.641   1.963
 1119SOL    HW3 4604   2.595   1.622   1.937
 1119SOL    MW4 4605   2.661   1.671   1.965
 1120SOL     OW 4606   2.703   1.920   1.848
 1120SOL    HW2 4607   2.776   1.954   1.899
 1120SOL    HW3 4608   2.684   1.835   1.887
 1120SOL    MW4 4609   2.710   1.913   1.860
 1121SOL     OW 4610   2.926   2.060   1.958
 1121SOL    HW2 4611   2.919   2.071   2.053
 1121SOL    HW3 4612   3.015   2.028   1.944
 1121SOL    MW4 4613   2.937   2.058   1.968
 1122SOL     OW 4614   2.915   2.332   1.920
 1122SOL    HW2 4615   3.003   2.365   1.938
 1122SOL    HW3 4616   2.922   2.237   1.932
 1122SOL    MW4 4617   2.928   2.323   1.924
 1123SOL     OW 4618   2.680   2.466   1.984
 1123SOL    HW2 4619   2.701   2.551   1.944
 1123SOL    HW3 4620   2.762   2.417   1.979
 1123SOL    MW4 4621   2.694   2.471   1.978
 1124SOL     OW 4622   2.711   2.722   1.878
 1124SOL    HW2 4623   2.639   2.776   1.911
 1124SOL    HW3 4624   2.693   2.711   1.785
 1124SOL    MW4 4625   2.699   2.728   1.870
 1125SOL     OW 4626   2.920   2.877   1.981
 1125SOL    HW2 4627   2.911   2.967   1.951
 1125SOL    HW3 4628   2.846   2.831   1.941
 1125SOL    MW4 4629   2.909   2.883   1.972
 1126SOL     OW 4630   2.930   3.149   1.910
 1126SOL    HW2 4631   3.004   3.182   1.961
 1126SOL    HW3 4632   2.853   3.180   1.958
 1126SOL    MW4 4633   2.929   3.157   1.923
 1127SOL     OW 4634   2.665   3.220   2.003
 1127SOL    HW2 4635   2.668   3.309   1.967
 1127SOL    HW3 4636   2.581   3.186   1.974
 1127SOL    MW4 4637   2.654   3.227   1.994
 1128SOL     OW 4638   2.692   3.480   1.901
 1128SOL    HW2 4639   2.776   3.519   1.924
 1128SOL    HW3 4640   2.627   3.541   1.937
 1128SOL    MW4 4641   2.695   3.493   1.909
 1129SOL     OW 4642   2.921   3.625   1.947
 1129SOL    HW2 4643   2.917   3.642   2.041
 1129SOL    HW3 4644   2.994   3.564   1.937
 1129SOL    MW4 4645   2.930   3.619   1.958
 1130SOL     OW 4646   2.900   3.903   1.864
 1130SOL    HW2 4647   2.900   3.810   1.888
 1130SOL    HW3 4648   2.883   3.903   1.770
 1130SOL    MW4 4649   2.898   3.891   1.855
 1131SOL     OW 4650   2.657   4.067   1.947
 1131SOL    HW2 4651   2.737   4.022   1.919
 1131SOL    HW3 4652   2.586   4.011   1.917
 1131SOL    MW4 4653   2.658   4.054   1.940
 1132SOL     OW 4654   2.666   4.316   1.853
 1132SOL    HW2 4655   2.665   4.233   1.901
 1132SOL    HW3 4656   2.666   4.291   1.761
 1132SOL    MW4 4657   2.666   4.302   1.847
 1133SOL     OW 4658   2.919   4.416   1.945
 1133SOL    HW2 4659   2.921   4.409   2.040
 1133SOL    HW3 4660   2.830   4.392   1.921
 1133SOL    MW4 4661   2.908   4.412   1.954
 1134SOL     OW 4662   3.402   4.636   1.864
 1134SOL    HW2 4663   3.393   4.545   1.895
 1134SOL    HW3 4664   3.383   4.632   1.771
 1134SOL    MW4 4665   3.398   4.623   1.856
 1135SOL     OW 4666   3.165   0.100   1.919
 1135SOL    HW2 4667   3.182   0.104   2.014
 1135SOL    HW3 4668   3.230   0.037   1.886
 1135SOL    MW4 4669   3.176   0.092   1.927
 1136SOL     OW 4670   3.184   0.379   1.821
 1136SOL    HW2 4671   3.193   0.285   1.834
 1136SOL    HW3 4672   3.187   0.391   1.726
 1136SOL    MW4 4673   3.186   0.368   1.810
 1137SOL     OW 4674   3.380   0.498   1.971
 1137SOL    HW2 4675   3.460   0.455   1.940
 1137SOL    HW3 4676   3.311   0.463   1.916
 1137SOL    MW4 4677   3.382   0.488   1.960
 1138SOL     OW 4678   3.385   0.781   1.889
 1138SOL    HW2 4679   3.302   0.828   1.902
 1138SOL    HW3 4680   3.373   0.698   1.936
 1138SOL    MW4 4681   3.372   0.776   1.897
 1139SOL     OW 4682   3.131   0.878   1.965
 1139SOL    HW2 4683   3.149   0.887   2.059
 1139SOL    HW3 4684   3.131   0.968   1.932
 1139SOL    MW4 4685   3.134   0.891   1.973
 1140SOL     OW 4686   3.157   1.133   1.869
 1140SOL    HW2 4687   3.224   1.195   1.900
 1140SOL    HW3 4688   3.074   1.176   1.891
 1140SOL    MW4 4689   3.154   1.147   1.876
 1141SOL     OW 4690   3.380   1.296   1.959
 1141SOL    HW2 4691   3.390   1.302   2.054
 1141SOL    HW3 4692   3.369   1.386   1.930
 1141SOL    MW4 4693   3.380   1.308   1.968
 1142SOL     OW 4694   3.346   1.533   1.835
 1142SOL    HW2 4695   3.430   1.574   1.855
 1142SOL    HW3 4696   3.282   1.581   1.887
 1142SOL    MW4 4697   3.349   1.544   1.845
 1143SOL     OW 4698   3.173   1.661   2.004
 1143SOL    HW2 4699   3.149   1.664   2.097
 1143SOL    HW3 4700   3.162   1.751   1.974
 1143SOL    MW4 4701   3.169   1.673   2.013
 1144SOL     OW 4702   3.166   1.921   1.884
 1144SOL    HW2 4703   3.240   1.965   1.926
 1144SOL    HW3 4704   3.179   1.936   1.790
 1144SOL    MW4 4705   3.177   1.929   1.877
 1145SOL     OW 4706   3.393   2.084   1.986
 1145SOL    HW2 4707   3.457   2.036   1.933
 1145SOL    HW3 4708   3.398   2.174   1.954
 1145SOL    MW4 4709   3.402   2.089   1.975
 1146SOL     OW 4710   3.422   2.346   1.906
 1146SOL    HW2 4711   3.338   2.388   1.924
 1146SOL    HW3 4712   3.427   2.341   1.811
 1146SOL    MW4 4713   3.412   2.351   1.896
 1147SOL     OW 4714   3.179   2.467   1.958
 1147SOL    HW2 4715   3.166   2.463   2.052
 1147SOL    HW3 4716   3.150   2.554   1.932
 1147SOL    MW4 4717   3.174   2.478   1.967
 1148SOL     OW 4718   3.136   2.727   1.891
 1148SOL    HW2 4719   3.055   2.773   1.913
 1148SOL    HW3 4720   3.141   2.735   1.795
 1148SOL    MW4 4721   3.126   2.734   1.881
 1149SOL     OW 4722   3.380   2.862   1.993
 1149SOL    HW2 4723   3.372   2.882   2.086
 1149SOL    HW3 4724   3.297   2.820   1.970
 1149SOL    MW4 4725   3.368   2.859   2.002
 1150SOL     OW 4726   3.353   3.098   1.868
 1150SOL    HW2 4727   3.419   3.149   1.915
 1150SOL    HW3 4728   3.359   3.011   1.906
 1150SOL    MW4 4729   3.363   3.093   1.879
 1151SOL     OW 4730   3.147   3.244   2.018
 1151SOL    HW2 4731   3.149   3.325   1.968
 1151SOL    HW3 4732   3.209   3.186   1.973
 1151SOL    MW4 4733   3.156   3.247   2.006
 1152SOL     OW 4734   3.146   3.480   1.878
 1152SOL    HW2 4735   3.226   3.521   1.911
 1152SOL    HW3 4736   3.147   3.499   1.784
 1152SOL    MW4 4737   3.157   3.488   1.870
 1153SOL     OW 4738   3.351   3.642   1.980
 1153SOL    HW2 4739   3.438   3.610   1.958
 1153SOL    HW3 4740   3.351   3.733   1.950
 1153SOL    MW4 4741   3.362   3.650   1.973
 1154SOL     OW 4742   3.344   3.910   1.873
 1154SOL    HW2 4743   3.266   3.960   1.897
 1154SOL    HW3 4744   3.341   3.906   1.777
 1154SOL    MW4 4745   3.333   3.916   1.863
 1155SOL     OW 4746   3.123   4.036   1.957
 1155SOL    HW2 4747   3.156   4.011   2.043
 1155SOL    HW3 4748   3.041   3.987   1.947
 1155SOL    MW4 4749   3.117   4.026   1.967
 1156SOL     OW 4750   3.143   4.281   1.840
 1156SOL    HW2 4751   3.139   4.193   1.876
 1156SOL    HW3 4752   3.064   4.324   1.873
 1156SOL    MW4 4753   3.132   4.275   1.849
 1157SOL     OW 4754   3.364   4.372   1.988
 1157SOL    HW2 4755   3.444   4.329   1.958
 1157SOL    HW3 4756   3.294   4.330   1.938
 1157SOL    MW4 4757   3.365   4.361   1.977
 1158SOL     OW 4758   3.820   4.653   1.871
 1158SOL    HW2 4759   3.827   4.562   1.901
 1158SOL    HW3 4760   3.742   4.687   1.914
 1158SOL    MW4 4761   3.810   4.645   1.880
 1159SOL     OW 4762   3.603   0.093   1.986
 1159SOL    HW2 4763   3.586   0.103   2.080
 1159SOL    HW3 4764   3.524   0.051   1.952
 1159SOL    MW4 4765   3.590   0.089   1.994
 1160SOL     OW 4766   3.595   0.354   1.877
 1160SOL    HW2 4767   3.606   0.265   1.909
 1160SOL    HW3 4768   3.578   0.344   1.783
 1160SOL    MW4 4769   3.594   0.341   1.869
 1161SOL     OW 4770   3.790   0.508   2.005
 1161SOL    HW2 4771   3.789   0.593   1.960
 1161SOL    HW3 4772   3.724   0.456   1.960
 1161SOL    MW4 4773   3.781   0.512   1.993
 1162SOL     OW 4774   3.813   0.744   1.860
 1162SOL    HW2 4775   3.740   0.801   1.884
 1162SOL    HW3 4776   3.812   0.743   1.764
 1162SOL    MW4 4777   3.804   0.751   1.850
 1163SOL     OW 4778   3.609   0.900   1.962
 1163SOL    HW2 4779   3.601   0.992   1.935
 1163SOL    HW3 4780   3.532   0.858   1.925
 1163SOL    MW4 4781   3.597   0.907   1.954
 1164SOL     OW 4782   3.592   1.186   1.847
 1164SOL    HW2 4783   3.508   1.225   1.872
 1164SOL    HW3 4784   3.591   1.186   1.751
 1164SOL    MW4 4785   3.581   1.191   1.837
 1165SOL     OW 4786   3.823   1.278   1.982
 1165SOL    HW2 4787   3.818   1.281   2.077
 1165SOL    HW3 4788   3.736   1.250   1.954
 1165SOL    MW4 4789   3.811   1.275   1.991
 1166SOL     OW 4790   3.815   1.547   1.894
 1166SOL    HW2 4791   3.878   1.604   1.938
 1166SOL    HW3 4792   3.824   1.463   1.940
 1166SOL    MW4 4793   3.824   1.543   1.906
 1167SOL     OW 4794   3.580   1.658   1.961
 1167SOL    HW2 4795   3.599   1.751   1.943
 1167SOL    HW3 4796   3.658   1.612   1.932
 1167SOL    MW4 4797   3.593   1.664   1.955
 1168SOL     OW 4798   3.581   1.921   1.862
 1168SOL    HW2 4799   3.654   1.975   1.892
 1168SOL    HW3 4800   3.592   1.918   1.766
 1168SOL    MW4 4801   3.592   1.928   1.853
 1169SOL     OW 4802   3.790   2.073   1.950
 1169SOL    HW2 4803   3.879   2.040   1.937
 1169SOL    HW3 4804   3.791   2.160   1.909
 1169SOL    MW4 4805   3.802   2.080   1.943
 1170SOL     OW 4806   3.829   2.341   1.880
 1170SOL    HW2 4807   3.914   2.371   1.911
 1170SOL    HW3 4808   3.769   2.413   1.900
 1170SOL    MW4 4809   3.833   2.355   1.886
 1171SOL     OW 4810   3.642   2.506   2.001
 1171SOL    HW2 4811   3.614   2.586   1.957
 1171SOL    HW3 4812   3.576   2.441   1.976
 1171SOL    MW4 4813   3.630   2.508   1.992
 1172SOL     OW 4814   3.618   2.749   1.887
 1172SOL    HW2 4815   3.682   2.798   1.939
 1172SOL    HW3 4816   3.535   2.793   1.904
 1172SOL    MW4 4817   3.616   2.761   1.896
 1173SOL     OW 4818   3.815   2.896   2.016
 1173SOL    HW2 4819   3.836   2.919   2.107
 1173SOL    HW3 4820   3.823   2.979   1.969
 1173SOL    MW4 4821   3.819   2.910   2.022
 1174SOL     OW 4822   3.818   3.147   1.887
 1174SOL    HW2 4823   3.734   3.181   1.917
 1174SOL    HW3 4824   3.808   3.140   1.792
 1174SOL    MW4 4825   3.806   3.151   1.878
 1175SOL     OW 4826   3.547   3.236   1.993
 1175SOL    HW2 4827   3.568   3.248   2.085
 1175SOL    HW3 4828   3.561   3.322   1.954
 1175SOL    MW4 4829   3.552   3.249   2.000
 1176SOL     OW 4830   3.578   3.496   1.899
 1176SOL    HW2 4831   3.670   3.498   1.926
 1176SOL    HW3 4832   3.581   3.490   1.804
 1176SOL    MW4 4833   3.591   3.496   1.890
 1177SOL     OW 4834   3.835   3.561   1.979
 1177SOL    HW2 4835   3.916   3.530   1.940
 1177SOL    HW3 4836   3.832   3.654   1.958
 1177SOL    MW4 4837   3.845   3.569   1.971
 1178SOL     OW 4838   3.814   3.830   1.925
 1178SOL    HW2 4839   3.731   3.873   1.946
 1178SOL    HW3 4840   3.816   3.829   1.829
 1178SOL    MW4 4841   3.803   3.836   1.915
 1179SOL     OW 4842   3.571   4.014   1.973
 1179SOL    HW2 4843   3.564   4.016   2.069
 1179SOL    HW3 4844   3.488   3.978   1.944
 1179SOL    MW4 4845   3.559   4.009   1.982
 1180SOL     OW 4846   3.592   4.270   1.863
 1180SOL    HW2 4847   3.668   4.313   1.902
 1180SOL    HW3 4848   3.588   4.185   1.906
 1180SOL    MW4 4849   3.602   4.265   1.874
 1181SOL     OW 4850   3.809   4.401   1.987
 1181SOL    HW2 4851   3.817   4.378   2.080
 1181SOL    HW3 4852   3.873   4.345   1.943
 1181SOL    MW4 4853   3.819   4.390   1.994
 1182SOL     OW 4854   4.266   4.638   1.878
 1182SOL    HW2 4855   4.194   4.682   1.923
 1182SOL    HW3 4856   4.345   4.682   1.911
 1182SOL    MW4 4857   4.267   4.650   1.888
 1183SOL     OW 4858   4.045   0.082   2.002
 1183SOL    HW2 4859   4.039   0.088   2.097
 1183SOL    HW3 4860   3.961   0.043   1.976
 1183SOL    MW4 4861   4.033   0.078   2.011
 1184SOL     OW 4862   4.035   0.365   1.907
 1184SOL    HW2 4863   4.033   0.270   1.911
 1184SOL    HW3 4864   3.950   0.393   1.941
 1184SOL    MW4 4865   4.023   0.356   1.912
 1185SOL     OW 4866   4.231   0.521   2.005
 1185SOL    HW2 4867   4.231   0.530   2.100
 1185SOL    HW3 4868   4.154   0.468   1.986
 1185SOL    MW4 4869   4.221   0.515   2.015
 1186SOL     OW 4870   4.247   0.780   1.908
 1186SOL    HW2 4871   4.227   0.695   1.949
 1186SOL    HW3 4872   4.238   0.763   1.814
 1186SOL    MW4 4873   4.243   0.766   1.901
 1187SOL     OW 4874   4.017   0.868   2.028
 1187SOL    HW2 4875   4.102   0.840   1.994
 1187SOL    HW3 4876   3.953   0.816   1.979
 1187SOL    MW4 4877   4.019   0.858   2.017
 1188SOL     OW 4878   4.038   1.121   1.885
 1188SOL    HW2 4879   4.046   1.031   1.918
 1188SOL    HW3 4880   3.963   1.158   1.932
 1188SOL    MW4 4881   4.029   1.114   1.896
 1189SOL     OW 4882   4.249   1.271   1.991
 1189SOL    HW2 4883   4.232   1.281   2.085
 1189SOL    HW3 4884   4.182   1.209   1.961
 1189SOL    MW4 4885   4.238   1.264   2.000
 1190SOL     OW 4886   4.269   1.538   1.944
 1190SOL    HW2 4887   4.251   1.445   1.959
 1190SOL    HW3 4888   4.280   1.545   1.849
 1190SOL    MW4 4889   4.268   1.526   1.933
 1191SOL     OW 4890   4.017   1.683   2.012
 1191SOL    HW2 4891   4.015   1.670   2.107
 1191SOL    HW3 4892   4.090   1.629   1.982
 1191SOL    MW4 4893   4.026   1.674   2.021
 1192SOL     OW 4894   4.037   1.927   1.889
 1192SOL    HW2 4895   4.045   1.837   1.919
 1192SOL    HW3 4896   4.067   1.924   1.798
 1192SOL    MW4 4897   4.042   1.915   1.881
 1193SOL     OW 4898   4.252   2.064   1.996
 1193SOL    HW2 4899   4.263   2.054   2.091
 1193SOL    HW3 4900   4.170   2.019   1.977
 1193SOL    MW4 4901   4.243   2.057   2.006
 1194SOL     OW 4902   4.238   2.330   1.902
 1194SOL    HW2 4903   4.234   2.243   1.942
 1194SOL    HW3 4904   4.321   2.366   1.933
 1194SOL    MW4 4905   4.248   2.323   1.912
 1195SOL     OW 4906   4.039   2.501   1.997
 1195SOL    HW2 4907   4.049   2.490   2.091
 1195SOL    HW3 4908   4.103   2.441   1.958
 1195SOL    MW4 4909   4.048   2.491   2.004
 1196SOL     OW 4910   4.004   2.755   1.889
 1196SOL    HW2 4911   4.021   2.670   1.930
 1196SOL    HW3 4912   3.934   2.794   1.942
 1196SOL    MW4 4913   3.997   2.749   1.902
 1197SOL     OW 4914   4.251   2.863   1.974
 1197SOL    HW2 4915   4.270   2.846   2.067
 1197SOL    HW3 4916   4.167   2.821   1.958
 1197SOL    MW4 4917   4.243   2.855   1.984
 1198SOL     OW 4918   4.313   3.122   1.858
 1198SOL    HW2 4919   4.237   3.157   1.905
 1198SOL    HW3 4920   4.307   3.027   1.870
 1198SOL    MW4 4921   4.302   3.114   1.866
 1199SOL     OW 4922   4.080   3.201   1.989
 1199SOL    HW2 4923   4.081   3.202   2.085
 1199SOL    HW3 4924   3.998   3.158   1.966
 1199SOL    MW4 4925   4.070   3.195   1.999
 1200SOL     OW 4926   4.056   3.457   1.879
 1200SOL    HW2 4927   4.133   3.494   1.923
 1200SOL    HW3 4928   4.059   3.364   1.901
 1200SOL    MW4 4929   4.067   3.449   1.888
 1201SOL     OW 4930   4.279   3.616   1.978
 1201SOL    HW2 4931   4.257   3.701   1.941
 1201SOL    HW3 4932   4.366   3.596   1.943
 1201SOL    MW4 4933   4.287   3.624   1.968
 1202SOL     OW 4934   4.283   3.880   1.901
 1202SOL    HW2 4935   4.369   3.917   1.917
 1202SOL    HW3 4936   4.275   3.876   1.806
 1202SOL    MW4 4937   4.293   3.884   1.891
 1203SOL     OW 4938   4.032   3.977   1.959
 1203SOL    HW2 4939   4.108   3.920   1.949
 1203SOL    HW3 4940   3.957   3.917   1.959
 1203SOL    MW4 4941   4.032   3.962   1.958
 1204SOL     OW 4942   4.009   4.255   1.872
 1204SOL    HW2 4943   4.087   4.306   1.891
 1204SOL    HW3 4944   4.025   4.169   1.912
 1204SOL    MW4 4945   4.021   4.250   1.880
 1205SOL     OW 4946   4.252   4.365   1.956
 1205SOL    HW2 4947   4.259   4.383   2.050
 1205SOL    HW3 4948   4.257   4.451   1.915
 1205SOL    MW4 4949   4.254   4.379   1.963
 1206SOL     OW 4950   0.198   0.017   2.376
 1206SOL    HW2 4951   0.206   0.034   2.469
 1206SOL    HW3 4952   0.284   0.037   2.340
 1206SOL    MW4 4953   0.210   0.022   2.383
 1207SOL     OW 4954   4.469   0.158   2.284
 1207SOL    HW2 4955   4.558   0.128   2.300
 1207SOL    HW3 4956   4.458   0.149   2.189
 1207SOL    MW4 4957   4.479   0.153   2.273
 1208SOL     OW 4958   4.465   0.424   2.349
 1208SOL    HW2 4959   4.552   0.449   2.319
 1208SOL    HW3 4960   4.458   0.331   2.329
 1208SOL    MW4 4961   4.476   0.415   2.343
 1209SOL     OW 4962   0.230   0.488   2.252
 1209SOL    HW2 4963   0.313   0.455   2.287
 1209SOL    HW3 4964   0.241   0.485   2.157
 1209SOL    MW4 4965   0.242   0.483   2.244
 1210SOL     OW 4966   0.238   0.756   2.358
 1210SOL    HW2 4967   0.217   0.747   2.451
 1210SOL    HW3 4968   0.227   0.668   2.322
 1210SOL    MW4 4969   0.234   0.743   2.365
 1211SOL     OW 4970   0.016   0.921   2.311
 1211SOL    HW2 4971   0.088   0.861   2.332
 1211SOL    HW3 4972  -0.003   0.904   2.219
 1211SOL    MW4 4973   0.023   0.911   2.302
 1212SOL     OW 4974   0.004   1.220   2.372
 1212SOL    HW2 4975  -0.011   1.224   2.466
 1212SOL    HW3 4976   0.007   1.127   2.351
 1212SOL    MW4 4977   0.002   1.208   2.381
 1213SOL     OW 4978   0.256   1.257   2.246
 1213SOL    HW2 4979   0.180   1.229   2.296
 1213SOL    HW3 4980   0.230   1.248   2.155
 1213SOL    MW4 4981   0.243   1.252   2.241
 1214SOL     OW 4982   0.239   1.514   2.341
 1214SOL    HW2 4983   0.241   1.514   2.437
 1214SOL    HW3 4984   0.250   1.422   2.317
 1214SOL    MW4 4985   0.241   1.502   2.350
 1215SOL     OW 4986   0.013   1.663   2.270
 1215SOL    HW2 4987   0.001   1.737   2.330
 1215SOL    HW3 4988   0.098   1.626   2.295
 1215SOL    MW4 4989   0.023   1.668   2.281
 1216SOL     OW 4990   4.468   1.918   2.385
 1216SOL    HW2 4991   4.399   1.961   2.335
 1216SOL    HW3 4992   4.549   1.962   2.357
 1216SOL    MW4 4993   4.470   1.930   2.374
 1217SOL     OW 4994   0.207   2.034   2.252
 1217SOL    HW2 4995   0.296   2.000   2.263
 1217SOL    HW3 4996   0.200   2.054   2.159
 1217SOL    MW4 4997   0.218   2.032   2.241
 1218SOL     OW 4998   0.235   2.288   2.377
 1218SOL    HW2 4999   0.216   2.277   2.470
 1218SOL    HW3 5000   0.219   2.202   2.339
 1218SOL    MW4 5001   0.230   2.276   2.384
 1219SOL     OW 5002   4.475   2.391   2.318
 1219SOL    HW2 5003   4.472   2.485   2.339
 1219SOL    HW3 5004   4.567   2.367   2.325
 1219SOL    MW4 5005   4.487   2.400   2.322
 1220SOL     OW 5006   0.037   2.668   2.322
 1220SOL    HW2 5007   0.040   2.667   2.418
 1220SOL    HW3 5008   0.094   2.742   2.297
 1220SOL    MW4 5009   0.045   2.678   2.331
 1221SOL     OW 5010   0.218   2.873   2.254
 1221SOL    HW2 5011   0.294   2.819   2.276
 1221SOL    HW3 5012   0.207   2.861   2.160
 1221SOL    MW4 5013   0.227   2.865   2.245
 1222SOL     OW 5014   0.216   3.135   2.353
 1222SOL    HW2 5015   0.137   3.182   2.325
 1222SOL    HW3 5016   0.200   3.044   2.329
 1222SOL    MW4 5017   0.203   3.129   2.346
 1223SOL     OW 5018   4.474   3.238   2.296
 1223SOL    HW2 5019   4.466   3.321   2.342
 1223SOL    HW3 5020   4.480   3.262   2.203
 1223SOL    MW4 5021   4.473   3.252   2.290
 1224SOL     OW 5022   4.485   3.496   2.401
 1224SOL    HW2 5023   4.456   3.495   2.493
 1224SOL    HW3 5024   4.422   3.554   2.357
 1224SOL    MW4 5025   4.473   3.503   2.408
 1225SOL     OW 5026   0.228   3.564   2.267
 1225SOL    HW2 5027   0.312   3.527   2.295
 1225SOL    HW3 5028   0.164   3.525   2.327
 1225SOL    MW4 5029   0.231   3.554   2.279
 1226SOL     OW 5030   0.221   3.854   2.383
 1226SOL    HW2 5031   0.143   3.897   2.349
 1226SOL    HW3 5032   0.223   3.769   2.338
 1226SOL    MW4 5033   0.211   3.848   2.373
 1227SOL     OW 5034   4.479   3.983   2.249
 1227SOL    HW2 5035   4.491   4.072   2.281
 1227SOL    HW3 5036   4.490   3.990   2.154
 1227SOL    MW4 5037   4.482   3.996   2.240
 1228SOL     OW 5038   4.467   4.248   2.330
 1228SOL    HW2 5039   4.460   4.241   2.425
 1228SOL    HW3 5040   4.538   4.311   2.315
 1228SOL    MW4 5041   4.475   4.255   2.340
 1229SOL     OW 5042   0.198   4.377   2.277
 1229SOL    HW2 5043   0.279   4.346   2.318
 1229SOL    HW3 5044   0.187   4.466   2.310
 1229SOL    MW4 5045   0.208   4.385   2.287
 1230SOL     OW 5046   0.699   4.649   2.377
 1230SOL    HW2 5047   0.681   4.638   2.470
 1230SOL    HW3 5048   0.775   4.707   2.374
 1230SOL    MW4 5049   0.706   4.655   2.389
 1231SOL     OW 5050   0.454   0.110   2.283
 1231SOL    HW2 5051   0.537   0.068   2.305
 1231SOL    HW3 5052   0.454   0.114   2.187
 1231SOL    MW4 5053   0.465   0.105   2.273
 1232SOL     OW 5054   0.462   0.370   2.357
 1232SOL    HW2 5055   0.469   0.370   2.452
 1232SOL    HW3 5056   0.440   0.280   2.334
 1232SOL    MW4 5057   0.460   0.358   2.366
 1233SOL     OW 5058   0.687   0.478   2.251
 1233SOL    HW2 5059   0.681   0.569   2.280
 1233SOL    HW3 5060   0.610   0.435   2.288
 1233SOL    MW4 5061   0.676   0.485   2.260
 1234SOL     OW 5062   0.686   0.729   2.349
 1234SOL    HW2 5063   0.691   0.724   2.444
 1234SOL    HW3 5064   0.610   0.785   2.332
 1234SOL    MW4 5065   0.677   0.736   2.359
 1235SOL     OW 5066   0.474   0.889   2.289
 1235SOL    HW2 5067   0.388   0.861   2.321
 1235SOL    HW3 5068   0.472   0.869   2.196
 1235SOL    MW4 5069   0.462   0.883   2.281
 1236SOL     OW 5070   0.484   1.159   2.385
 1236SOL    HW2 5071   0.485   1.069   2.352
 1236SOL    HW3 5072   0.425   1.205   2.325
 1236SOL    MW4 5073   0.476   1.153   2.373
 1237SOL     OW 5074   0.715   1.264   2.284
 1237SOL    HW2 5075   0.708   1.357   2.304
 1237SOL    HW3 5076   0.641   1.224   2.330
 1237SOL    MW4 5077   0.704   1.271   2.293
 1238SOL     OW 5078   0.656   1.542   2.355
 1238SOL    HW2 5079   0.672   1.538   2.449
 1238SOL    HW3 5080   0.739   1.575   2.318
 1238SOL    MW4 5081   0.669   1.546   2.362
 1239SOL     OW 5082   0.440   1.678   2.241
 1239SOL    HW2 5083   0.521   1.651   2.284
 1239SOL    HW3 5084   0.374   1.618   2.273
 1239SOL    MW4 5085   0.442   1.667   2.251
 1240SOL     OW 5086   0.445   1.931   2.336
 1240SOL    HW2 5087   0.525   1.972   2.301
 1240SOL    HW3 5088   0.440   1.846   2.293
 1240SOL    MW4 5089   0.455   1.925   2.326
 1241SOL     OW 5090   0.664   2.044   2.226
 1241SOL    HW2 5091   0.746   2.005   2.257
 1241SOL    HW3 5092   0.664   2.132   2.263
 1241SOL    MW4 5093   0.675   2.051   2.235
 1242SOL     OW 5094   0.698   2.301   2.344
 1242SOL    HW2 5095   0.691   2.318   2.437
 1242SOL    HW3 5096   0.763   2.364   2.312
 1242SOL    MW4 5097   0.706   2.311   2.352
 1243SOL     OW 5098   0.453   2.421   2.265
 1243SOL    HW2 5099   0.529   2.370   2.295
 1243SOL    HW3 5100   0.378   2.378   2.306
 1243SOL    MW4 5101   0.454   2.409   2.275
 1244SOL     OW 5102   0.400   2.679   2.349
 1244SOL    HW2 5103   0.428   2.678   2.440
 1244SOL    HW3 5104   0.401   2.587   2.322
 1244SOL    MW4 5105   0.404   2.667   2.357
 1245SOL     OW 5106   0.660   2.834   2.279
 1245SOL    HW2 5107   0.738   2.787   2.308
 1245SOL    HW3 5108   0.587   2.777   2.302
 1245SOL    MW4 5109   0.660   2.820   2.286
 1246SOL     OW 5110   0.702   3.103   2.392
 1246SOL    HW2 5111   0.617   3.138   2.364
 1246SOL    HW3 5112   0.706   3.016   2.354
 1246SOL    MW4 5113   0.691   3.096   2.384
 1247SOL     OW 5114   0.471   3.205   2.281
 1247SOL    HW2 5115   0.379   3.178   2.290
 1247SOL    HW3 5116   0.484   3.214   2.187
 1247SOL    MW4 5117   0.460   3.203   2.270
 1248SOL     OW 5118   0.458   3.456   2.408
 1248SOL    HW2 5119   0.531   3.503   2.368
 1248SOL    HW3 5120   0.459   3.370   2.366
 1248SOL    MW4 5121   0.468   3.451   2.397
 1249SOL     OW 5122   0.646   3.636   2.283
 1249SOL    HW2 5123   0.666   3.727   2.306
 1249SOL    HW3 5124   0.629   3.638   2.189
 1249SOL    MW4 5125   0.646   3.648   2.274
 1250SOL     OW 5126   0.684   3.916   2.348
 1250SOL    HW2 5127   0.675   3.904   2.443
 1250SOL    HW3 5128   0.596   3.940   2.319
 1250SOL    MW4 5129   0.671   3.918   2.357
 1251SOL     OW 5130   0.435   4.026   2.287
 1251SOL    HW2 5131   0.365   3.971   2.321
 1251SOL    HW3 5132   0.428   4.021   2.192
 1251SOL    MW4 5133   0.425   4.018   2.279
 1252SOL     OW 5134   0.445   4.309   2.354
 1252SOL    HW2 5135   0.525   4.351   2.322
 1252SOL    HW3 5136   0.454   4.217   2.329
 1252SOL    MW4 5137   0.457   4.303   2.347
 1253SOL     OW 5138   0.686   4.390   2.251
 1253SOL    HW2 5139   0.697   4.478   2.287
 1253SOL    HW3 5140   0.699   4.401   2.157
 1253SOL    MW4 5141   0.689   4.403   2.243
 1254SOL     OW 5142   1.130   4.640   2.363
 1254SOL    HW2 5143   1.121   4.612   2.455
 1254SOL    HW3 5144   1.051   4.690   2.345
 1254SOL    MW4 5145   1.118   4.643   2.373
 1255SOL     OW 5146   0.909   0.150   2.323
 1255SOL    HW2 5147   0.925   0.238   2.357
 1255SOL    HW3 5148   0.881   0.164   2.232
 1255SOL    MW4 5149   0.907   0.164   2.316
 1256SOL     OW 5150   0.925   0.415   2.398
 1256SOL    HW2 5151   0.998   0.461   2.358
 1256SOL    HW3 5152   0.847   0.452   2.356
 1256SOL    MW4 5153   0.924   0.426   2.387
 1257SOL     OW 5154   1.164   0.523   2.268
 1257SOL    HW2 5155   1.227   0.456   2.294
 1257SOL    HW3 5156   1.161   0.519   2.173
 1257SOL    MW4 5157   1.172   0.514   2.259
 1258SOL     OW 5158   1.128   0.797   2.362
 1258SOL    HW2 5159   1.042   0.824   2.329
 1258SOL    HW3 5160   1.139   0.708   2.329
 1258SOL    MW4 5161   1.118   0.789   2.354
 1259SOL     OW 5162   0.889   0.925   2.294
 1259SOL    HW2 5163   0.913   1.002   2.345
 1259SOL    HW3 5164   0.819   0.883   2.344
 1259SOL    MW4 5165   0.883   0.929   2.307
 1260SOL     OW 5166   0.969   1.168   2.421
 1260SOL    HW2 5167   1.044   1.196   2.370
 1260SOL    HW3 5168   0.897   1.223   2.390
 1260SOL    MW4 5169   0.969   1.179   2.410
 1261SOL     OW 5170   1.151   1.289   2.245
 1261SOL    HW2 5171   1.226   1.230   2.249
 1261SOL    HW3 5172   1.119   1.281   2.155
 1261SOL    MW4 5173   1.157   1.280   2.234
 1262SOL     OW 5174   1.141   1.541   2.371
 1262SOL    HW2 5175   1.062   1.590   2.348
 1262SOL    HW3 5176   1.137   1.462   2.318
 1262SOL    MW4 5177   1.130   1.537   2.361
 1263SOL     OW 5178   0.901   1.670   2.275
 1263SOL    HW2 5179   0.891   1.764   2.288
 1263SOL    HW3 5180   0.908   1.660   2.180
 1263SOL    MW4 5181   0.901   1.681   2.264
 1264SOL     OW 5182   0.899   1.932   2.316
 1264SOL    HW2 5183   0.903   1.931   2.412
 1264SOL    HW3 5184   0.970   1.991   2.290
 1264SOL    MW4 5185   0.909   1.940   2.325
 1265SOL     OW 5186   1.124   2.103   2.241
 1265SOL    HW2 5187   1.194   2.053   2.281
 1265SOL    HW3 5188   1.125   2.077   2.149
 1265SOL    MW4 5189   1.133   2.093   2.234
 1266SOL     OW 5190   1.112   2.347   2.356
 1266SOL    HW2 5191   1.191   2.393   2.328
 1266SOL    HW3 5192   1.118   2.262   2.313
 1266SOL    MW4 5193   1.123   2.342   2.347
 1267SOL     OW 5194   0.899   2.489   2.247
 1267SOL    HW2 5195   0.967   2.432   2.284
 1267SOL    HW3 5196   0.897   2.467   2.154
 1267SOL    MW4 5197   0.908   2.478   2.240
 1268SOL     OW 5198   0.896   2.729   2.369
 1268SOL    HW2 5199   0.894   2.717   2.464
 1268SOL    HW3 5200   0.904   2.641   2.334
 1268SOL    MW4 5201   0.896   2.716   2.377
 1269SOL     OW 5202   1.128   2.856   2.283
 1269SOL    HW2 5203   1.205   2.804   2.305
 1269SOL    HW3 5204   1.055   2.807   2.322
 1269SOL    MW4 5205   1.128   2.842   2.291
 1270SOL     OW 5206   1.127   3.125   2.373
 1270SOL    HW2 5207   1.069   3.185   2.325
 1270SOL    HW3 5208   1.102   3.038   2.342
 1270SOL    MW4 5209   1.116   3.121   2.362
 1271SOL     OW 5210   0.900   3.252   2.239
 1271SOL    HW2 5211   0.898   3.336   2.286
 1271SOL    HW3 5212   0.850   3.192   2.296
 1271SOL    MW4 5213   0.893   3.255   2.253
 1272SOL     OW 5214   0.884   3.507   2.361
 1272SOL    HW2 5215   0.879   3.478   2.452
 1272SOL    HW3 5216   0.802   3.555   2.347
 1272SOL    MW4 5217   0.872   3.509   2.371
 1273SOL     OW 5218   1.090   3.617   2.203
 1273SOL    HW2 5219   1.175   3.601   2.245
 1273SOL    HW3 5220   1.026   3.576   2.261
 1273SOL    MW4 5221   1.093   3.609   2.216
 1274SOL     OW 5222   1.075   3.852   2.332
 1274SOL    HW2 5223   1.157   3.895   2.305
 1274SOL    HW3 5224   1.068   3.775   2.275
 1274SOL    MW4 5225   1.085   3.847   2.321
 1275SOL     OW 5226   0.902   4.034   2.246
 1275SOL    HW2 5227   0.960   3.963   2.272
 1275SOL    HW3 5228   0.816   4.008   2.279
 1275SOL    MW4 5229   0.898   4.021   2.254
 1276SOL     OW 5230   0.907   4.272   2.383
 1276SOL    HW2 5231   0.905   4.185   2.344
 1276SOL    HW3 5232   0.834   4.318   2.342
 1276SOL    MW4 5233   0.897   4.267   2.372
 1277SOL     OW 5234   1.123   4.387   2.252
 1277SOL    HW2 5235   1.052   4.337   2.291
 1277SOL    HW3 5236   1.111   4.476   2.285
 1277SOL    MW4 5237   1.112   4.392   2.261
 1278SOL     OW 5238   1.548   4.637   2.371
 1278SOL    HW2 5239   1.622   4.674   2.322
 1278SOL    HW3 5240   1.471   4.664   2.321
 1278SOL    MW4 5241   1.548   4.645   2.358
 1279SOL     OW 5242   1.341   0.101   2.231
 1279SOL    HW2 5243   1.347   0.184   2.277
 1279SOL    HW3 5244   1.270   0.054   2.275
 1279SOL    MW4 5245   1.332   0.106   2.243
 1280SOL     OW 5246   1.340   0.355   2.365
 1280SOL    HW2 5247   1.352   0.350   2.460
 1280SOL    HW3 5248   1.418   0.401   2.334
 1280SOL    MW4 5249   1.352   0.360   2.374
 1281SOL     OW 5250   1.547   0.533   2.291
 1281SOL    HW2 5251   1.626   0.480   2.295
 1281SOL    HW3 5252   1.533   0.549   2.197
 1281SOL    MW4 5253   1.555   0.528   2.279
 1282SOL     OW 5254   1.569   0.807   2.370
 1282SOL    HW2 5255   1.644   0.833   2.316
 1282SOL    HW3 5256   1.559   0.713   2.354
 1282SOL    MW4 5257   1.577   0.798   2.361
 1283SOL     OW 5258   1.349   0.912   2.229
 1283SOL    HW2 5259   1.427   0.881   2.276
 1283SOL    HW3 5260   1.276   0.872   2.275
 1283SOL    MW4 5261   1.350   0.903   2.241
 1284SOL     OW 5262   1.349   1.145   2.368
 1284SOL    HW2 5263   1.341   1.119   2.460
 1284SOL    HW3 5264   1.344   1.064   2.319
 1284SOL    MW4 5265   1.348   1.131   2.374
 1285SOL     OW 5266   1.560   1.301   2.303
 1285SOL    HW2 5267   1.494   1.237   2.329
 1285SOL    HW3 5268   1.562   1.295   2.207
 1285SOL    MW4 5269   1.552   1.292   2.294
 1286SOL     OW 5270   1.554   1.549   2.419
 1286SOL    HW2 5271   1.617   1.591   2.360
 1286SOL    HW3 5272   1.536   1.464   2.378
 1286SOL    MW4 5273   1.560   1.543   2.406
 1287SOL     OW 5274   1.360   1.698   2.272
 1287SOL    HW2 5275   1.434   1.667   2.324
 1287SOL    HW3 5276   1.286   1.645   2.302
 1287SOL    MW4 5277   1.360   1.687   2.283
 1288SOL     OW 5278   1.353   1.972   2.369
 1288SOL    HW2 5279   1.442   2.003   2.352
 1288SOL    HW3 5280   1.344   1.894   2.314
 1288SOL    MW4 5281   1.364   1.966   2.360
 1289SOL     OW 5282   1.580   2.063   2.261
 1289SOL    HW2 5283   1.655   2.008   2.286
 1289SOL    HW3 5284   1.573   2.051   2.166
 1289SOL    MW4 5285   1.589   2.054   2.252
 1290SOL     OW 5286   1.565   2.344   2.380
 1290SOL    HW2 5287   1.558   2.333   2.475
 1290SOL    HW3 5288   1.576   2.255   2.346
 1290SOL    MW4 5289   1.565   2.330   2.388
 1291SOL     OW 5290   1.337   2.470   2.254
 1291SOL    HW2 5291   1.411   2.434   2.303
 1291SOL    HW3 5292   1.335   2.419   2.173
 1291SOL    MW4 5293   1.346   2.458   2.250
 1292SOL     OW 5294   1.350   2.726   2.352
 1292SOL    HW2 5295   1.434   2.765   2.327
 1292SOL    HW3 5296   1.348   2.643   2.305
 1292SOL    MW4 5297   1.361   2.720   2.342
 1293SOL     OW 5298   1.580   2.838   2.261
 1293SOL    HW2 5299   1.579   2.932   2.276
 1293SOL    HW3 5300   1.578   2.829   2.165
 1293SOL    MW4 5301   1.580   2.849   2.250
 1294SOL     OW 5302   1.580   3.108   2.336
 1294SOL    HW2 5303   1.564   3.089   2.429
 1294SOL    HW3 5304   1.504   3.160   2.309
 1294SOL    MW4 5305   1.568   3.113   2.345
 1295SOL     OW 5306   1.369   3.266   2.262
 1295SOL    HW2 5307   1.314   3.198   2.300
 1295SOL    HW3 5308   1.362   3.252   2.167
 1295SOL    MW4 5309   1.361   3.256   2.254
 1296SOL     OW 5310   1.302   3.534   2.349
 1296SOL    HW2 5311   1.290   3.524   2.444
 1296SOL    HW3 5312   1.315   3.445   2.317
 1296SOL    MW4 5313   1.302   3.521   2.357
 1297SOL     OW 5314   1.555   3.602   2.268
 1297SOL    HW2 5315   1.567   3.683   2.318
 1297SOL    HW3 5316   1.471   3.568   2.297
 1297SOL    MW4 5317   1.546   3.608   2.278
 1298SOL     OW 5318   1.583   3.863   2.372
 1298SOL    HW2 5319   1.578   3.867   2.467
 1298SOL    HW3 5320   1.649   3.927   2.348
 1298SOL    MW4 5321   1.591   3.872   2.381
 1299SOL     OW 5322   1.340   3.964   2.274
 1299SOL    HW2 5323   1.416   3.919   2.312
 1299SOL    HW3 5324   1.353   3.957   2.180
 1299SOL    MW4 5325   1.352   3.957   2.267
 1300SOL     OW 5326   1.344   4.240   2.359
 1300SOL    HW2 5327   1.341   4.153   2.319
 1300SOL    HW3 5328   1.268   4.285   2.324
 1300SOL    MW4 5329   1.334   4.235   2.349
 1301SOL     OW 5330   1.553   4.375   2.252
 1301SOL    HW2 5331   1.480   4.332   2.296
 1301SOL    HW3 5332   1.558   4.461   2.293
 1301SOL    MW4 5333   1.544   4.381   2.263
 1302SOL     OW 5334   2.025   0.003   2.368
 1302SOL    HW2 5335   2.097   0.056   2.333
 1302SOL    HW3 5336   2.034  -0.082   2.324
 1302SOL    MW4 5337   2.036  -0.001   2.357
 1303SOL     OW 5338   1.777   0.084   2.241
 1303SOL    HW2 5339   1.781   0.177   2.264
 1303SOL    HW3 5340   1.856   0.046   2.281
 1303SOL    MW4 5341   1.788   0.091   2.250
 1304SOL     OW 5342   1.773   0.349   2.324
 1304SOL    HW2 5343   1.767   0.349   2.420
 1304SOL    HW3 5344   1.861   0.382   2.306
 1304SOL    MW4 5345   1.784   0.353   2.334
 1305SOL     OW 5346   2.011   0.502   2.256
 1305SOL    HW2 5347   2.021   0.595   2.276
 1305SOL    HW3 5348   2.013   0.497   2.160
 1305SOL    MW4 5349   2.013   0.513   2.246
 1306SOL     OW 5350   2.025   0.757   2.357
 1306SOL    HW2 5351   2.100   0.804   2.321
 1306SOL    HW3 5352   1.949   0.793   2.311
 1306SOL    MW4 5353   2.025   0.768   2.346
 1307SOL     OW 5354   1.813   0.898   2.252
 1307SOL    HW2 5355   1.809   0.986   2.292
 1307SOL    HW3 5356   1.808   0.914   2.158
 1307SOL    MW4 5357   1.812   0.912   2.245
 1308SOL     OW 5358   1.797   1.158   2.354
 1308SOL    HW2 5359   1.874   1.190   2.306
 1308SOL    HW3 5360   1.726   1.215   2.325
 1308SOL    MW4 5361   1.798   1.170   2.344
 1309SOL     OW 5362   2.018   1.286   2.235
 1309SOL    HW2 5363   1.999   1.367   2.281
 1309SOL    HW3 5364   2.014   1.309   2.142
 1309SOL    MW4 5365   2.015   1.300   2.229
 1310SOL     OW 5366   1.971   1.539   2.333
 1310SOL    HW2 5367   1.984   1.549   2.427
 1310SOL    HW3 5368   1.886   1.580   2.315
 1310SOL    MW4 5369   1.962   1.546   2.343
 1311SOL     OW 5370   1.727   1.668   2.242
 1311SOL    HW2 5371   1.764   1.751   2.272
 1311SOL    HW3 5372   1.736   1.671   2.147
 1311SOL    MW4 5373   1.733   1.680   2.234
 1312SOL     OW 5374   1.809   1.924   2.328
 1312SOL    HW2 5375   1.804   1.942   2.422
 1312SOL    HW3 5376   1.881   1.978   2.297
 1312SOL    MW4 5377   1.817   1.933   2.336
 1313SOL     OW 5378   2.014   2.091   2.231
 1313SOL    HW2 5379   2.094   2.047   2.261
 1313SOL    HW3 5380   2.011   2.074   2.137
 1313SOL    MW4 5381   2.024   2.083   2.222
 1314SOL     OW 5382   2.003   2.355   2.321
 1314SOL    HW2 5383   2.066   2.407   2.271
 1314SOL    HW3 5384   2.019   2.265   2.293
 1314SOL    MW4 5385   2.014   2.350   2.311
 1315SOL     OW 5386   1.766   2.466   2.206
 1315SOL    HW2 5387   1.844   2.415   2.227
 1315SOL    HW3 5388   1.695   2.420   2.251
 1315SOL    MW4 5389   1.767   2.453   2.214
 1316SOL     OW 5390   1.832   2.719   2.320
 1316SOL    HW2 5391   1.805   2.641   2.271
 1316SOL    HW3 5392   1.756   2.776   2.319
 1316SOL    MW4 5393   1.819   2.716   2.314
 1317SOL     OW 5394   2.070   2.861   2.259
 1317SOL    HW2 5395   2.129   2.817   2.320
 1317SOL    HW3 5396   1.984   2.821   2.275
 1317SOL    MW4 5397   2.066   2.850   2.269
 1318SOL     OW 5398   2.020   3.105   2.365
 1318SOL    HW2 5399   2.092   3.159   2.334
 1318SOL    HW3 5400   2.034   3.020   2.325
 1318SOL    MW4 5401   2.031   3.101   2.356
 1319SOL     OW 5402   1.807   3.231   2.245
 1319SOL    HW2 5403   1.874   3.176   2.286
 1319SOL    HW3 5404   1.724   3.194   2.273
 1319SOL    MW4 5405   1.805   3.219   2.254
 1320SOL     OW 5406   1.796   3.492   2.345
 1320SOL    HW2 5407   1.792   3.399   2.321
 1320SOL    HW3 5408   1.707   3.524   2.333
 1320SOL    MW4 5409   1.784   3.484   2.340
 1321SOL     OW 5410   2.029   3.611   2.223
 1321SOL    HW2 5411   1.952   3.575   2.266
 1321SOL    HW3 5412   2.009   3.606   2.129
 1321SOL    MW4 5413   2.016   3.605   2.216
 1322SOL     OW 5414   2.001   3.865   2.345
 1322SOL    HW2 5415   2.045   3.867   2.430
 1322SOL    HW3 5416   2.023   3.780   2.308
 1322SOL    MW4 5417   2.010   3.854   2.352
 1323SOL     OW 5418   1.792   4.021   2.278
 1323SOL    HW2 5419   1.862   3.958   2.295
 1323SOL    HW3 5420   1.790   4.031   2.183
 1323SOL    MW4 5421   1.801   4.014   2.268
 1324SOL     OW 5422   1.797   4.290   2.331
 1324SOL    HW2 5423   1.800   4.195   2.317
 1324SOL    HW3 5424   1.707   4.315   2.310
 1324SOL    MW4 5425   1.786   4.281   2.327
 1325SOL     OW 5426   2.032   4.416   2.246
 1325SOL    HW2 5427   1.951   4.380   2.281
 1325SOL    HW3 5428   2.017   4.424   2.152
 1325SOL    MW4 5429   2.020   4.412   2.239
 1326SOL     OW 5430   2.495   4.649   2.373
 1326SOL    HW2 5431   2.562   4.697   2.325
 1326SOL    HW3 5432   2.494   4.562   2.333
 1326SOL    MW4 5433   2.504   4.644   2.362
 1327SOL     OW 5434   2.272   0.120   2.253
 1327SOL    HW2 5435   2.287   0.209   2.284
 1327SOL    HW3 5436   2.343   0.069   2.292
 1327SOL    MW4 5437   2.284   0.125   2.262
 1328SOL     OW 5438   2.261   0.383   2.340
 1328SOL    HW2 5439   2.333   0.436   2.306
 1328SOL    HW3 5440   2.182   0.423   2.303
 1328SOL    MW4 5441   2.260   0.396   2.331
 1329SOL     OW 5442   2.469   0.530   2.206
 1329SOL    HW2 5443   2.547   0.481   2.231
 1329SOL    HW3 5444   2.464   0.522   2.111
 1329SOL    MW4 5445   2.479   0.523   2.197
 1330SOL     OW 5446   2.470   0.773   2.356
 1330SOL    HW2 5447   2.545   0.826   2.327
 1330SOL    HW3 5448   2.480   0.690   2.310
 1330SOL    MW4 5449   2.481   0.769   2.346
 1331SOL     OW 5450   2.243   0.866   2.231
 1331SOL    HW2 5451   2.233   0.960   2.244
 1331SOL    HW3 5452   2.314   0.841   2.289
 1331SOL    MW4 5453   2.251   0.875   2.240
 1332SOL     OW 5454   2.240   1.131   2.296
 1332SOL    HW2 5455   2.320   1.180   2.279
 1332SOL    HW3 5456   2.170   1.187   2.260
 1332SOL    MW4 5457   2.241   1.145   2.289
 1333SOL     OW 5458   2.456   1.294   2.248
 1333SOL    HW2 5459   2.537   1.251   2.277
 1333SOL    HW3 5460   2.460   1.381   2.288
 1333SOL    MW4 5461   2.467   1.300   2.257
 1334SOL     OW 5462   2.429   1.552   2.382
 1334SOL    HW2 5463   2.455   1.546   2.474
 1334SOL    HW3 5464   2.504   1.594   2.339
 1334SOL    MW4 5465   2.442   1.557   2.389
 1335SOL     OW 5466   2.209   1.698   2.272
 1335SOL    HW2 5467   2.271   1.637   2.312
 1335SOL    HW3 5468   2.123   1.663   2.297
 1335SOL    MW4 5469   2.206   1.685   2.281
 1336SOL     OW 5470   2.226   1.967   2.318
 1336SOL    HW2 5471   2.301   2.002   2.270
 1336SOL    HW3 5472   2.230   1.873   2.303
 1336SOL    MW4 5473   2.237   1.959   2.310
 1337SOL     OW 5474   2.452   2.087   2.201
 1337SOL    HW2 5475   2.523   2.036   2.238
 1337SOL    HW3 5476   2.461   2.075   2.106
 1337SOL    MW4 5477   2.462   2.079   2.193
 1338SOL     OW 5478   2.462   2.318   2.358
 1338SOL    HW2 5479   2.528   2.378   2.321
 1338SOL    HW3 5480   2.459   2.245   2.296
 1338SOL    MW4 5481   2.471   2.317   2.345
 1339SOL     OW 5482   2.233   2.460   2.209
 1339SOL    HW2 5483   2.248   2.533   2.270
 1339SOL    HW3 5484   2.294   2.392   2.237
 1339SOL    MW4 5485   2.243   2.461   2.221
 1340SOL     OW 5486   2.256   2.693   2.366
 1340SOL    HW2 5487   2.238   2.712   2.458
 1340SOL    HW3 5488   2.314   2.764   2.337
 1340SOL    MW4 5489   2.262   2.705   2.374
 1341SOL     OW 5490   2.445   2.870   2.266
 1341SOL    HW2 5491   2.520   2.817   2.293
 1341SOL    HW3 5492   2.458   2.884   2.172
 1341SOL    MW4 5493   2.456   2.865   2.257
 1342SOL     OW 5494   2.470   3.136   2.362
 1342SOL    HW2 5495   2.547   3.182   2.329
 1342SOL    HW3 5496   2.478   3.047   2.328
 1342SOL    MW4 5497   2.481   3.130   2.353
 1343SOL     OW 5498   2.235   3.252   2.258
 1343SOL    HW2 5499   2.250   3.346   2.264
 1343SOL    HW3 5500   2.316   3.213   2.290
 1343SOL    MW4 5501   2.248   3.259   2.263
 1344SOL     OW 5502   2.264   3.523   2.314
 1344SOL    HW2 5503   2.251   3.499   2.406
 1344SOL    HW3 5504   2.178   3.555   2.285
 1344SOL    MW4 5505   2.251   3.524   2.322
 1345SOL     OW 5506   2.505   3.647   2.233
 1345SOL    HW2 5507   2.489   3.736   2.266
 1345SOL    HW3 5508   2.429   3.597   2.261
 1345SOL    MW4 5509   2.493   3.652   2.241
 1346SOL     OW 5510   2.459   3.904   2.342
 1346SOL    HW2 5511   2.461   3.903   2.437
 1346SOL    HW3 5512   2.378   3.951   2.319
 1346SOL    MW4 5513   2.448   3.910   2.351
 1347SOL     OW 5514   2.213   3.997   2.241
 1347SOL    HW2 5515   2.204   4.090   2.262
 1347SOL    HW3 5516   2.144   3.954   2.292
 1347SOL    MW4 5517   2.203   4.004   2.251
 1348SOL     OW 5518   2.235   4.271   2.332
 1348SOL    HW2 5519   2.245   4.280   2.427
 1348SOL    HW3 5520   2.173   4.340   2.308
 1348SOL    MW4 5521   2.228   4.282   2.341
 1349SOL     OW 5522   2.506   4.392   2.251
 1349SOL    HW2 5523   2.578   4.348   2.297
 1349SOL    HW3 5524   2.428   4.345   2.280
 1349SOL    MW4 5525   2.505   4.380   2.261
 1350SOL     OW 5526   2.928   0.006   2.323
 1350SOL    HW2 5527   3.000   0.054   2.282
 1350SOL    HW3 5528   2.933  -0.081   2.284
 1350SOL    MW4 5529   2.938   0.001   2.312
 1351SOL     OW 5530   2.688   0.113   2.228
 1351SOL    HW2 5531   2.679   0.206   2.246
 1351SOL    HW3 5532   2.770   0.088   2.270
 1351SOL    MW4 5533   2.698   0.122   2.236
 1352SOL     OW 5534   2.674   0.376   2.283
 1352SOL    HW2 5535   2.655   0.393   2.375
 1352SOL    HW3 5536   2.765   0.405   2.272
 1352SOL    MW4 5537   2.684   0.382   2.294
 1353SOL     OW 5538   2.926   0.502   2.213
 1353SOL    HW2 5539   2.932   0.590   2.251
 1353SOL    HW3 5540   2.930   0.516   2.119
 1353SOL    MW4 5541   2.927   0.516   2.206
 1354SOL     OW 5542   2.928   0.747   2.359
 1354SOL    HW2 5543   2.930   0.756   2.454
 1354SOL    HW3 5544   2.846   0.789   2.333
 1354SOL    MW4 5545   2.917   0.754   2.368
 1355SOL     OW 5546   2.710   0.881   2.262
 1355SOL    HW2 5547   2.700   0.974   2.286
 1355SOL    HW3 5548   2.724   0.883   2.167
 1355SOL    MW4 5549   2.710   0.894   2.252
 1356SOL     OW 5550   2.684   1.149   2.327
 1356SOL    HW2 5551   2.684   1.148   2.423
 1356SOL    HW3 5552   2.764   1.195   2.303
 1356SOL    MW4 5553   2.695   1.155   2.336
 1357SOL     OW 5554   2.911   1.274   2.222
 1357SOL    HW2 5555   2.989   1.234   2.260
 1357SOL    HW3 5556   2.928   1.276   2.128
 1357SOL    MW4 5557   2.923   1.269   2.215
 1358SOL     OW 5558   2.883   1.530   2.336
 1358SOL    HW2 5559   2.897   1.516   2.429
 1358SOL    HW3 5560   2.877   1.442   2.299
 1358SOL    MW4 5561   2.884   1.517   2.343
 1359SOL     OW 5562   2.642   1.652   2.235
 1359SOL    HW2 5563   2.716   1.593   2.243
 1359SOL    HW3 5564   2.636   1.671   2.142
 1359SOL    MW4 5565   2.651   1.647   2.224
 1360SOL     OW 5566   2.659   1.925   2.308
 1360SOL    HW2 5567   2.681   1.932   2.401
 1360SOL    HW3 5568   2.652   1.831   2.292
 1360SOL    MW4 5569   2.661   1.914   2.318
 1361SOL     OW 5570   2.881   2.078   2.233
 1361SOL    HW2 5571   2.963   2.037   2.262
 1361SOL    HW3 5572   2.812   2.022   2.267
 1361SOL    MW4 5573   2.883   2.065   2.241
 1362SOL     OW 5574   2.900   2.340   2.335
 1362SOL    HW2 5575   2.907   2.309   2.425
 1362SOL    HW3 5576   2.896   2.260   2.283
 1362SOL    MW4 5577   2.900   2.325   2.340
 1363SOL     OW 5578   2.654   2.481   2.259
 1363SOL    HW2 5579   2.736   2.438   2.284
 1363SOL    HW3 5580   2.651   2.473   2.164
 1363SOL    MW4 5581   2.664   2.474   2.250
 1364SOL     OW 5582   2.679   2.742   2.355
 1364SOL    HW2 5583   2.750   2.788   2.310
 1364SOL    HW3 5584   2.686   2.651   2.325
 1364SOL    MW4 5585   2.689   2.736   2.345
 1365SOL     OW 5586   2.901   2.857   2.252
 1365SOL    HW2 5587   2.907   2.943   2.294
 1365SOL    HW3 5588   2.910   2.875   2.159
 1365SOL    MW4 5589   2.903   2.871   2.246
 1366SOL     OW 5590   2.936   3.108   2.363
 1366SOL    HW2 5591   2.996   3.175   2.331
 1366SOL    HW3 5592   2.852   3.128   2.320
 1366SOL    MW4 5593   2.933   3.119   2.353
 1367SOL     OW 5594   2.712   3.232   2.270
 1367SOL    HW2 5595   2.720   3.324   2.296
 1367SOL    HW3 5596   2.703   3.235   2.174
 1367SOL    MW4 5597   2.712   3.245   2.261
 1368SOL     OW 5598   2.715   3.503   2.346
 1368SOL    HW2 5599   2.784   3.547   2.296
 1368SOL    HW3 5600   2.634   3.547   2.317
 1368SOL    MW4 5601   2.713   3.515   2.336
 1369SOL     OW 5602   2.917   3.652   2.214
 1369SOL    HW2 5603   2.981   3.602   2.265
 1369SOL    HW3 5604   2.897   3.727   2.268
 1369SOL    MW4 5605   2.923   3.655   2.228
 1370SOL     OW 5606   2.904   3.923   2.328
 1370SOL    HW2 5607   2.907   3.907   2.422
 1370SOL    HW3 5608   2.815   3.955   2.313
 1370SOL    MW4 5609   2.892   3.925   2.339
 1371SOL     OW 5610   2.671   4.074   2.259
 1371SOL    HW2 5611   2.589   4.039   2.294
 1371SOL    HW3 5612   2.669   4.051   2.166
 1371SOL    MW4 5613   2.660   4.066   2.251
 1372SOL     OW 5614   2.742   4.318   2.390
 1372SOL    HW2 5615   2.704   4.302   2.476
 1372SOL    HW3 5616   2.733   4.235   2.344
 1372SOL    MW4 5617   2.736   4.305   2.396
 1373SOL     OW 5618   2.948   4.405   2.226
 1373SOL    HW2 5619   3.026   4.361   2.259
 1373SOL    HW3 5620   2.878   4.377   2.285
 1373SOL    MW4 5621   2.949   4.396   2.238
 1374SOL     OW 5622   3.360   4.637   2.309
 1374SOL    HW2 5623   3.361   4.672   2.398
 1374SOL    HW3 5624   3.444   4.665   2.272
 1374SOL    MW4 5625   3.372   4.646   2.316
 1375SOL     OW 5626   3.168   0.113   2.200
 1375SOL    HW2 5627   3.173   0.202   2.236
 1375SOL    HW3 5628   3.243   0.067   2.239
 1375SOL    MW4 5629   3.178   0.119   2.210
 1376SOL     OW 5630   3.133   0.380   2.343
 1376SOL    HW2 5631   3.211   0.432   2.323
 1376SOL    HW3 5632   3.064   0.419   2.290
 1376SOL    MW4 5633   3.134   0.392   2.333
 1377SOL     OW 5634   3.351   0.530   2.241
 1377SOL    HW2 5635   3.426   0.483   2.276
 1377SOL    HW3 5636   3.358   0.521   2.146
 1377SOL    MW4 5637   3.362   0.522   2.233
 1378SOL     OW 5638   3.361   0.762   2.379
 1378SOL    HW2 5639   3.448   0.787   2.348
 1378SOL    HW3 5640   3.348   0.674   2.342
 1378SOL    MW4 5641   3.371   0.753   2.370
 1379SOL     OW 5642   3.158   0.876   2.242
 1379SOL    HW2 5643   3.237   0.845   2.287
 1379SOL    HW3 5644   3.087   0.823   2.278
 1379SOL    MW4 5645   3.159   0.865   2.252
 1380SOL     OW 5646   3.139   1.145   2.329
 1380SOL    HW2 5647   3.217   1.187   2.293
 1380SOL    HW3 5648   3.136   1.059   2.286
 1380SOL    MW4 5649   3.149   1.139   2.318
 1381SOL     OW 5650   3.375   1.273   2.238
 1381SOL    HW2 5651   3.452   1.230   2.276
 1381SOL    HW3 5652   3.372   1.359   2.281
 1381SOL    MW4 5653   3.385   1.279   2.249
 1382SOL     OW 5654   3.352   1.523   2.325
 1382SOL    HW2 5655   3.376   1.536   2.417
 1382SOL    HW3 5656   3.279   1.583   2.311
 1382SOL    MW4 5657   3.345   1.533   2.336
 1383SOL     OW 5658   3.132   1.678   2.275
 1383SOL    HW2 5659   3.125   1.772   2.294
 1383SOL    HW3 5660   3.049   1.641   2.307
 1383SOL    MW4 5661   3.120   1.685   2.282
 1384SOL     OW 5662   3.117   1.968   2.342
 1384SOL    HW2 5663   3.120   1.955   2.437
 1384SOL    HW3 5664   3.207   1.992   2.318
 1384SOL    MW4 5665   3.129   1.970   2.351
 1385SOL     OW 5666   3.363   2.050   2.243
 1385SOL    HW2 5667   3.436   2.006   2.286
 1385SOL    HW3 5668   3.385   2.049   2.150
 1385SOL    MW4 5669   3.375   2.044   2.236
 1386SOL     OW 5670   3.364   2.313   2.352
 1386SOL    HW2 5671   3.296   2.353   2.299
 1386SOL    HW3 5672   3.377   2.226   2.312
 1386SOL    MW4 5673   3.357   2.307   2.340
 1387SOL     OW 5674   3.140   2.448   2.237
 1387SOL    HW2 5675   3.142   2.537   2.272
 1387SOL    HW3 5676   3.056   2.412   2.266
 1387SOL    MW4 5677   3.129   2.455   2.245
 1388SOL     OW 5678   3.127   2.717   2.333
 1388SOL    HW2 5679   3.146   2.703   2.426
 1388SOL    HW3 5680   3.040   2.755   2.332
 1388SOL    MW4 5681   3.118   2.720   2.345
 1389SOL     OW 5682   3.358   2.872   2.273
 1389SOL    HW2 5683   3.361   2.955   2.320
 1389SOL    HW3 5684   3.272   2.835   2.296
 1389SOL    MW4 5685   3.347   2.878   2.282
 1390SOL     OW 5686   3.393   3.110   2.387
 1390SOL    HW2 5687   3.467   3.161   2.354
 1390SOL    HW3 5688   3.316   3.158   2.359
 1390SOL    MW4 5689   3.393   3.123   2.379
 1391SOL     OW 5690   3.159   3.263   2.292
 1391SOL    HW2 5691   3.158   3.358   2.308
 1391SOL    HW3 5692   3.152   3.255   2.197
 1391SOL    MW4 5693   3.158   3.275   2.282
 1392SOL     OW 5694   3.112   3.538   2.357
 1392SOL    HW2 5695   3.121   3.533   2.453
 1392SOL    HW3 5696   3.194   3.578   2.328
 1392SOL    MW4 5697   3.124   3.543   2.366
 1393SOL     OW 5698   3.335   3.668   2.255
 1393SOL    HW2 5699   3.415   3.624   2.283
 1393SOL    HW3 5700   3.330   3.651   2.161
 1393SOL    MW4 5701   3.345   3.660   2.246
 1394SOL     OW 5702   3.358   3.905   2.394
 1394SOL    HW2 5703   3.416   3.954   2.336
 1394SOL    HW3 5704   3.350   3.819   2.353
 1394SOL    MW4 5705   3.365   3.900   2.381
 1395SOL     OW 5706   3.153   3.985   2.237
 1395SOL    HW2 5707   3.217   3.953   2.301
 1395SOL    HW3 5708   3.069   3.952   2.268
 1395SOL    MW4 5709   3.151   3.976   2.250
 1396SOL     OW 5710   3.133   4.240   2.327
 1396SOL    HW2 5711   3.215   4.276   2.292
 1396SOL    HW3 5712   3.134   4.148   2.302
 1396SOL    MW4 5713   3.144   4.233   2.319
 1397SOL     OW 5714   3.366   4.375   2.256
 1397SOL    HW2 5715   3.378   4.465   2.285
 1397SOL    HW3 5716   3.369   4.379   2.160
 1397SOL    MW4 5717   3.368   4.387   2.247
 1398SOL     OW 5718   3.786   4.644   2.384
 1398SOL    HW2 5719   3.814   4.649   2.476
 1398SOL    HW3 5720   3.857   4.686   2.335
 1398SOL    MW4 5721   3.799   4.650   2.390
 1399SOL     OW 5722   3.581   0.142   2.268
 1399SOL    HW2 5723   3.576   0.221   2.323
 1399SOL    HW3 5724   3.650   0.090   2.309
 1399SOL    MW4 5725   3.589   0.146   2.281
 1400SOL     OW 5726   3.552   0.401   2.379
 1400SOL    HW2 5727   3.556   0.388   2.474
 1400SOL    HW3 5728   3.628   0.456   2.359
 1400SOL    MW4 5729   3.563   0.407   2.389
 1401SOL     OW 5730   3.782   0.518   2.294
 1401SOL    HW2 5731   3.793   0.610   2.317
 1401SOL    HW3 5732   3.799   0.515   2.199
 1401SOL    MW4 5733   3.785   0.530   2.284
 1402SOL     OW 5734   3.825   0.783   2.358
 1402SOL    HW2 5735   3.814   0.801   2.451
 1402SOL    HW3 5736   3.913   0.815   2.337
 1402SOL    MW4 5737   3.835   0.789   2.367
 1403SOL     OW 5738   3.586   0.870   2.247
 1403SOL    HW2 5739   3.675   0.844   2.274
 1403SOL    HW3 5740   3.595   0.890   2.154
 1403SOL    MW4 5741   3.599   0.869   2.238
 1404SOL     OW 5742   3.602   1.135   2.335
 1404SOL    HW2 5743   3.602   1.143   2.431
 1404SOL    HW3 5744   3.602   1.040   2.319
 1404SOL    MW4 5745   3.602   1.123   2.346
 1405SOL     OW 5746   3.830   1.255   2.248
 1405SOL    HW2 5747   3.815   1.344   2.279
 1405SOL    HW3 5748   3.761   1.203   2.289
 1405SOL    MW4 5749   3.819   1.260   2.257
 1406SOL     OW 5750   3.796   1.507   2.347
 1406SOL    HW2 5751   3.809   1.537   2.437
 1406SOL    HW3 5752   3.729   1.566   2.313
 1406SOL    MW4 5753   3.789   1.519   2.355
 1407SOL     OW 5754   3.542   1.697   2.226
 1407SOL    HW2 5755   3.477   1.630   2.247
 1407SOL    HW3 5756   3.554   1.690   2.131
 1407SOL    MW4 5757   3.535   1.687   2.216
 1408SOL     OW 5758   3.586   1.936   2.361
 1408SOL    HW2 5759   3.649   1.978   2.303
 1408SOL    HW3 5760   3.570   1.851   2.322
 1408SOL    MW4 5761   3.592   1.931   2.348
 1409SOL     OW 5762   3.788   2.068   2.229
 1409SOL    HW2 5763   3.871   2.027   2.254
 1409SOL    HW3 5764   3.790   2.068   2.133
 1409SOL    MW4 5765   3.799   2.062   2.219
 1410SOL     OW 5766   3.793   2.328   2.359
 1410SOL    HW2 5767   3.715   2.380   2.342
 1410SOL    HW3 5768   3.783   2.250   2.304
 1410SOL    MW4 5769   3.782   2.324   2.349
 1411SOL     OW 5770   3.557   2.494   2.280
 1411SOL    HW2 5771   3.497   2.422   2.298
 1411SOL    HW3 5772   3.567   2.494   2.185
 1411SOL    MW4 5773   3.550   2.484   2.270
 1412SOL     OW 5774   3.590   2.763   2.357
 1412SOL    HW2 5775   3.569   2.674   2.332
 1412SOL    HW3 5776   3.518   2.816   2.324
 1412SOL    MW4 5777   3.578   2.758   2.349
 1413SOL     OW 5778   3.866   2.890   2.287
 1413SOL    HW2 5779   3.849   2.974   2.329
 1413SOL    HW3 5780   3.793   2.834   2.316
 1413SOL    MW4 5781   3.854   2.894   2.297
 1414SOL     OW 5782   3.797   3.148   2.388
 1414SOL    HW2 5783   3.809   3.126   2.481
 1414SOL    HW3 5784   3.884   3.174   2.359
 1414SOL    MW4 5785   3.810   3.149   2.397
 1415SOL     OW 5786   3.579   3.278   2.259
 1415SOL    HW2 5787   3.572   3.365   2.298
 1415SOL    HW3 5788   3.666   3.247   2.285
 1415SOL    MW4 5789   3.590   3.286   2.267
 1416SOL     OW 5790   3.596   3.544   2.342
 1416SOL    HW2 5791   3.606   3.569   2.434
 1416SOL    HW3 5792   3.685   3.549   2.306
 1416SOL    MW4 5793   3.609   3.548   2.350
 1417SOL     OW 5794   3.853   3.596   2.265
 1417SOL    HW2 5795   3.846   3.689   2.289
 1417SOL    HW3 5796   3.854   3.596   2.170
 1417SOL    MW4 5797   3.852   3.609   2.256
 1418SOL     OW 5798   3.758   3.864   2.358
 1418SOL    HW2 5799   3.763   3.865   2.454
 1418SOL    HW3 5800   3.830   3.920   2.329
 1418SOL    MW4 5801   3.768   3.871   2.367
 1419SOL     OW 5802   3.560   4.023   2.243
 1419SOL    HW2 5803   3.560   4.092   2.309
 1419SOL    HW3 5804   3.631   3.964   2.269
 1419SOL    MW4 5805   3.569   4.024   2.255
 1420SOL     OW 5806   3.583   4.262   2.374
 1420SOL    HW2 5807   3.653   4.309   2.330
 1420SOL    HW3 5808   3.502   4.301   2.340
 1420SOL    MW4 5809   3.581   4.273   2.364
 1421SOL     OW 5810   3.806   4.374   2.262
 1421SOL    HW2 5811   3.875   4.323   2.304
 1421SOL    HW3 5812   3.806   4.458   2.308
 1421SOL    MW4 5813   3.815   4.378   2.274
 1422SOL     OW 5814   4.265   4.652   2.399
 1422SOL    HW2 5815   4.291   4.653   2.491
 1422SOL    HW3 5816   4.323   4.715   2.356
 1422SOL    MW4 5817   4.276   4.661   2.405
 1423SOL     OW 5818   4.022   0.102   2.279
 1423SOL    HW2 5819   3.994   0.184   2.319
 1423SOL    HW3 5820   4.094   0.072   2.335
 1423SOL    MW4 5821   4.028   0.109   2.291
 1424SOL     OW 5822   4.006   0.356   2.369
 1424SOL    HW2 5823   4.080   0.401   2.327
 1424SOL    HW3 5824   3.931   0.411   2.349
 1424SOL    MW4 5825   4.006   0.369   2.361
 1425SOL     OW 5826   4.225   0.520   2.278
 1425SOL    HW2 5827   4.214   0.603   2.325
 1425SOL    HW3 5828   4.315   0.493   2.296
 1425SOL    MW4 5829   4.236   0.527   2.286
 1426SOL     OW 5830   4.294   0.770   2.389
 1426SOL    HW2 5831   4.223   0.826   2.359
 1426SOL    HW3 5832   4.374   0.819   2.368
 1426SOL    MW4 5833   4.295   0.784   2.382
 1427SOL     OW 5834   4.081   0.891   2.302
 1427SOL    HW2 5835   4.090   0.984   2.323
 1427SOL    HW3 5836   4.095   0.887   2.207
 1427SOL    MW4 5837   4.084   0.903   2.292
 1428SOL     OW 5838   4.059   1.182   2.366
 1428SOL    HW2 5839   4.042   1.173   2.460
 1428SOL    HW3 5840   3.975   1.208   2.329
 1428SOL    MW4 5841   4.046   1.184   2.374
 1429SOL     OW 5842   4.252   1.326   2.255
 1429SOL    HW2 5843   4.197   1.266   2.305
 1429SOL    HW3 5844   4.342   1.304   2.281
 1429SOL    MW4 5845   4.257   1.316   2.265
 1430SOL     OW 5846   4.266   1.570   2.387
 1430SOL    HW2 5847   4.255   1.476   2.374
 1430SOL    HW3 5848   4.340   1.593   2.331
 1430SOL    MW4 5849   4.274   1.561   2.378
 1431SOL     OW 5850   4.028   1.649   2.274
 1431SOL    HW2 5851   4.099   1.603   2.318
 1431SOL    HW3 5852   3.951   1.593   2.285
 1431SOL    MW4 5853   4.027   1.636   2.281
 1432SOL     OW 5854   4.013   1.915   2.319
 1432SOL    HW2 5855   4.026   1.918   2.414
 1432SOL    HW3 5856   4.028   1.823   2.296
 1432SOL    MW4 5857   4.017   1.903   2.328
 1433SOL     OW 5858   4.252   2.036   2.273
 1433SOL    HW2 5859   4.247   2.125   2.309
 1433SOL    HW3 5860   4.166   1.998   2.291
 1433SOL    MW4 5861   4.240   2.043   2.280
 1434SOL     OW 5862   4.244   2.277   2.403
 1434SOL    HW2 5863   4.178   2.327   2.355
 1434SOL    HW3 5864   4.327   2.302   2.362
 1434SOL    MW4 5865   4.247   2.287   2.391
 1435SOL     OW 5866   4.027   2.447   2.264
 1435SOL    HW2 5867   4.026   2.537   2.296
 1435SOL    HW3 5868   3.948   2.408   2.301
 1435SOL    MW4 5869   4.016   2.454   2.273
 1436SOL     OW 5870   4.056   2.703   2.338
 1436SOL    HW2 5871   4.057   2.713   2.434
 1436SOL    HW3 5872   4.008   2.780   2.307
 1436SOL    MW4 5873   4.050   2.714   2.347
 1437SOL     OW 5874   4.307   2.781   2.223
 1437SOL    HW2 5875   4.234   2.735   2.263
 1437SOL    HW3 5876   4.385   2.741   2.261
 1437SOL    MW4 5877   4.308   2.770   2.233
 1438SOL     OW 5878   4.258   3.046   2.319
 1438SOL    HW2 5879   4.246   2.954   2.294
 1438SOL    HW3 5880   4.327   3.077   2.261
 1438SOL    MW4 5881   4.265   3.038   2.308
 1439SOL     OW 5882   4.035   3.211   2.259
 1439SOL    HW2 5883   4.045   3.291   2.310
 1439SOL    HW3 5884   4.113   3.159   2.281
 1439SOL    MW4 5885   4.047   3.214   2.269
 1440SOL     OW 5886   4.097   3.466   2.369
 1440SOL    HW2 5887   4.170   3.509   2.325
 1440SOL    HW3 5888   4.019   3.502   2.327
 1440SOL    MW4 5889   4.096   3.476   2.358
 1441SOL     OW 5890   4.295   3.625   2.248
 1441SOL    HW2 5891   4.261   3.713   2.263
 1441SOL    HW3 5892   4.297   3.616   2.153
 1441SOL    MW4 5893   4.291   3.635   2.238
 1442SOL     OW 5894   4.233   3.891   2.365
 1442SOL    HW2 5895   4.246   3.887   2.459
 1442SOL    HW3 5896   4.318   3.920   2.330
 1442SOL    MW4 5897   4.246   3.894   2.373
 1443SOL     OW 5898   4.019   4.003   2.244
 1443SOL    HW2 5899   4.086   3.952   2.288
 1443SOL    HW3 5900   4.037   3.991   2.151
 1443SOL    MW4 5901   4.030   3.995   2.237
 1444SOL     OW 5902   4.039   4.255   2.359
 1444SOL    HW2 5903   4.104   4.305   2.310
 1444SOL    HW3 5904   4.045   4.166   2.324
 1444SOL    MW4 5905   4.048   4.250   2.348
 1445SOL     OW 5906   4.250   4.415   2.257
 1445SOL    HW2 5907   4.257   4.498   2.303
 1445SOL    HW3 5908   4.320   4.361   2.294
 1445SOL    MW4 5909   4.260   4.419   2.268
 1446SOL     OW 5910   0.231   4.657   2.642
 1446SOL    HW2 5911   0.222   4.565   2.668
 1446SOL    HW3 5912   0.159   4.701   2.687
 1446SOL    MW4 5913   0.220   4.651   2.651
 1447SOL     OW 5914   0.026   0.142   2.761
 1447SOL    HW2 5915   0.026   0.153   2.856
 1447SOL    HW3 5916   0.015   0.231   2.727
 1447SOL    MW4 5917   0.025   0.155   2.769
 1448SOL     OW 5918   0.017   0.405   2.641
 1448SOL    HW2 5919   0.094   0.458   2.662
 1448SOL    HW3 5920   0.010   0.410   2.545
 1448SOL    MW4 5921   0.026   0.413   2.631
 1449SOL     OW 5922   0.257   0.526   2.748
 1449SOL    HW2 5923   0.271   0.522   2.842
 1449SOL    HW3 5924   0.316   0.459   2.712
 1449SOL    MW4 5925   0.267   0.517   2.755
 1450SOL     OW 5926   0.215   0.764   2.650
 1450SOL    HW2 5927   0.297   0.800   2.685
 1450SOL    HW3 5928   0.217   0.672   2.676
 1450SOL    MW4 5929   0.226   0.757   2.658
 1451SOL     OW 5930   0.006   0.902   2.760
 1451SOL    HW2 5931  -0.064   0.838   2.741
 1451SOL    HW3 5932   0.085   0.862   2.723
 1451SOL    MW4 5933   0.007   0.888   2.752
 1452SOL     OW 5934   4.484   1.160   2.644
 1452SOL    HW2 5935   4.562   1.201   2.681
 1452SOL    HW3 5936   4.486   1.070   2.678
 1452SOL    MW4 5937   4.495   1.153   2.653
 1453SOL     OW 5938   0.214   1.275   2.752
 1453SOL    HW2 5939   0.280   1.225   2.705
 1453SOL    HW3 5940   0.221   1.364   2.717
 1453SOL    MW4 5941   0.223   1.280   2.741
 1454SOL     OW 5942   0.219   1.521   2.629
 1454SOL    HW2 5943   0.303   1.559   2.654
 1454SOL    HW3 5944   0.153   1.576   2.670
 1454SOL    MW4 5945   0.222   1.533   2.638
 1455SOL     OW 5946   0.043   1.694   2.764
 1455SOL    HW2 5947   0.018   1.698   2.856
 1455SOL    HW3 5948   0.018   1.779   2.728
 1455SOL    MW4 5949   0.036   1.706   2.771
 1456SOL     OW 5950   4.463   1.942   2.662
 1456SOL    HW2 5951   4.546   1.983   2.685
 1456SOL    HW3 5952   4.462   1.940   2.567
 1456SOL    MW4 5953   4.474   1.947   2.653
 1457SOL     OW 5954   0.223   2.053   2.714
 1457SOL    HW2 5955   0.298   2.001   2.683
 1457SOL    HW3 5956   0.244   2.142   2.688
 1457SOL    MW4 5957   0.236   2.058   2.707
 1458SOL     OW 5958   0.246   2.328   2.661
 1458SOL    HW2 5959   0.321   2.375   2.698
 1458SOL    HW3 5960   0.171   2.362   2.710
 1458SOL    MW4 5961   0.246   2.339   2.672
 1459SOL     OW 5962   0.020   2.425   2.764
 1459SOL    HW2 5963   0.018   2.425   2.860
 1459SOL    HW3 5964  -0.061   2.380   2.739
 1459SOL    MW4 5965   0.009   2.419   2.774
 1460SOL     OW 5966   0.002   2.668   2.593
 1460SOL    HW2 5967  -0.056   2.735   2.629
 1460SOL    HW3 5968  -0.009   2.593   2.652
 1460SOL    MW4 5969  -0.007   2.667   2.605
 1461SOL     OW 5970   0.238   2.825   2.699
 1461SOL    HW2 5971   0.219   2.916   2.675
 1461SOL    HW3 5972   0.158   2.777   2.675
 1461SOL    MW4 5973   0.225   2.831   2.693
 1462SOL     OW 5974   0.212   3.081   2.623
 1462SOL    HW2 5975   0.291   3.118   2.662
 1462SOL    HW3 5976   0.223   3.095   2.529
 1462SOL    MW4 5977   0.224   3.088   2.616
 1463SOL     OW 5978   4.484   3.212   2.740
 1463SOL    HW2 5979   4.415   3.161   2.697
 1463SOL    HW3 5980   4.564   3.188   2.693
 1463SOL    MW4 5981   4.485   3.202   2.728
 1464SOL     OW 5982   4.451   3.494   2.689
 1464SOL    HW2 5983   4.544   3.511   2.705
 1464SOL    HW3 5984   4.436   3.406   2.723
 1464SOL    MW4 5985   4.461   3.485   2.696
 1465SOL     OW 5986   0.211   3.582   2.746
 1465SOL    HW2 5987   0.208   3.582   2.842
 1465SOL    HW3 5988   0.295   3.542   2.724
 1465SOL    MW4 5989   0.221   3.577   2.756
 1466SOL     OW 5990   0.212   3.859   2.667
 1466SOL    HW2 5991   0.205   3.766   2.692
 1466SOL    HW3 5992   0.228   3.857   2.572
 1466SOL    MW4 5993   0.213   3.846   2.658
 1467SOL     OW 5994   4.488   4.021   2.747
 1467SOL    HW2 5995   4.479   4.102   2.696
 1467SOL    HW3 5996   4.561   3.975   2.706
 1467SOL    MW4 5997   4.496   4.026   2.735
 1468SOL     OW 5998   0.008   4.268   2.606
 1468SOL    HW2 5999  -0.062   4.314   2.652
 1468SOL    HW3 6000   0.088   4.291   2.654
 1468SOL    MW4 6001   0.009   4.277   2.618
 1469SOL     OW 6002   0.223   4.394   2.743
 1469SOL    HW2 6003   0.239   4.379   2.836
 1469SOL    HW3 6004   0.301   4.360   2.699
 1469SOL    MW4 6005   0.235   4.388   2.749
 1470SOL     OW 6006   0.664   4.639   2.645
 1470SOL    HW2 6007   0.734   4.700   2.668
 1470SOL    HW3 6008   0.583   4.683   2.673
 1470SOL    MW4 6009   0.662   4.653   2.651
 1471SOL     OW 6010   0.459   0.100   2.742
 1471SOL    HW2 6011   0.461   0.086   2.836
 1471SOL    HW3 6012   0.377   0.060   2.713
 1471SOL    MW4 6013   0.448   0.093   2.750
 1472SOL     OW 6014   0.470   0.379   2.632
 1472SOL    HW2 6015   0.531   0.432   2.683
 1472SOL    HW3 6016   0.479   0.291   2.670
 1472SOL    MW4 6017   0.479   0.374   2.644
 1473SOL     OW 6018   0.658   0.506   2.775
 1473SOL    HW2 6019   0.656   0.509   2.870
 1473SOL    HW3 6020   0.743   0.468   2.754
 1473SOL    MW4 6021   0.669   0.501   2.785
 1474SOL     OW 6022   0.697   0.731   2.628
 1474SOL    HW2 6023   0.778   0.772   2.660
 1474SOL    HW3 6024   0.687   0.653   2.683
 1474SOL    MW4 6025   0.707   0.726   2.640
 1475SOL     OW 6026   0.468   0.858   2.742
 1475SOL    HW2 6027   0.465   0.939   2.692
 1475SOL    HW3 6028   0.542   0.809   2.705
 1475SOL    MW4 6029   0.477   0.862   2.731
 1476SOL     OW 6030   0.412   1.122   2.656
 1476SOL    HW2 6031   0.486   1.164   2.700
 1476SOL    HW3 6032   0.424   1.142   2.564
 1476SOL    MW4 6033   0.423   1.130   2.650
 1477SOL     OW 6034   0.640   1.241   2.769
 1477SOL    HW2 6035   0.643   1.249   2.864
 1477SOL    HW3 6036   0.721   1.196   2.745
 1477SOL    MW4 6037   0.651   1.236   2.778
 1478SOL     OW 6038   0.666   1.494   2.633
 1478SOL    HW2 6039   0.597   1.551   2.666
 1478SOL    HW3 6040   0.644   1.407   2.668
 1478SOL    MW4 6041   0.654   1.490   2.642
 1479SOL     OW 6042   0.446   1.650   2.714
 1479SOL    HW2 6043   0.447   1.664   2.809
 1479SOL    HW3 6044   0.455   1.737   2.677
 1479SOL    MW4 6045   0.447   1.663   2.722
 1480SOL     OW 6046   0.447   1.908   2.622
 1480SOL    HW2 6047   0.521   1.963   2.646
 1480SOL    HW3 6048   0.445   1.911   2.526
 1480SOL    MW4 6049   0.456   1.915   2.612
 1481SOL     OW 6050   0.660   2.062   2.701
 1481SOL    HW2 6051   0.658   2.071   2.796
 1481SOL    HW3 6052   0.744   2.020   2.682
 1481SOL    MW4 6053   0.671   2.058   2.711
 1482SOL     OW 6054   0.664   2.320   2.626
 1482SOL    HW2 6055   0.748   2.355   2.657
 1482SOL    HW3 6056   0.668   2.227   2.648
 1482SOL    MW4 6057   0.676   2.312   2.633
 1483SOL     OW 6058   0.473   2.457   2.766
 1483SOL    HW2 6059   0.466   2.537   2.713
 1483SOL    HW3 6060   0.537   2.403   2.720
 1483SOL    MW4 6061   0.481   2.460   2.753
 1484SOL     OW 6062   0.471   2.698   2.616
 1484SOL    HW2 6063   0.545   2.746   2.652
 1484SOL    HW3 6064   0.394   2.742   2.653
 1484SOL    MW4 6065   0.471   2.710   2.625
 1485SOL     OW 6066   0.674   2.818   2.748
 1485SOL    HW2 6067   0.652   2.840   2.839
 1485SOL    HW3 6068   0.673   2.902   2.703
 1485SOL    MW4 6069   0.671   2.832   2.754
 1486SOL     OW 6070   0.678   3.094   2.676
 1486SOL    HW2 6071   0.761   3.121   2.715
 1486SOL    HW3 6072   0.691   3.104   2.582
 1486SOL    MW4 6073   0.691   3.099   2.669
 1487SOL     OW 6074   0.433   3.176   2.782
 1487SOL    HW2 6075   0.429   3.190   2.876
 1487SOL    HW3 6076   0.517   3.132   2.768
 1487SOL    MW4 6077   0.444   3.172   2.792
 1488SOL     OW 6078   0.458   3.461   2.680
 1488SOL    HW2 6079   0.448   3.368   2.701
 1488SOL    HW3 6080   0.463   3.463   2.584
 1488SOL    MW4 6081   0.458   3.449   2.670
 1489SOL     OW 6082   0.673   3.619   2.718
 1489SOL    HW2 6083   0.667   3.641   2.811
 1489SOL    HW3 6084   0.596   3.566   2.700
 1489SOL    MW4 6085   0.662   3.615   2.727
 1490SOL     OW 6086   0.641   3.885   2.622
 1490SOL    HW2 6087   0.577   3.918   2.684
 1490SOL    HW3 6088   0.657   3.795   2.649
 1490SOL    MW4 6089   0.635   3.878   2.634
 1491SOL     OW 6090   0.442   4.020   2.759
 1491SOL    HW2 6091   0.438   4.100   2.707
 1491SOL    HW3 6092   0.361   3.973   2.737
 1491SOL    MW4 6093   0.431   4.025   2.749
 1492SOL     OW 6094   0.457   4.285   2.652
 1492SOL    HW2 6095   0.523   4.332   2.702
 1492SOL    HW3 6096   0.484   4.294   2.561
 1492SOL    MW4 6097   0.469   4.292   2.647
 1493SOL     OW 6098   0.661   4.396   2.788
 1493SOL    HW2 6099   0.738   4.347   2.758
 1493SOL    HW3 6100   0.663   4.477   2.737
 1493SOL    MW4 6101   0.671   4.400   2.777
 1494SOL     OW 6102   1.130   4.617   2.634
 1494SOL    HW2 6103   1.209   4.651   2.675
 1494SOL    HW3 6104   1.126   4.525   2.662
 1494SOL    MW4 6105   1.140   4.609   2.644
 1495SOL     OW 6106   0.903   0.110   2.723
 1495SOL    HW2 6107   0.907   0.111   2.818
 1495SOL    HW3 6108   0.986   0.070   2.696
 1495SOL    MW4 6109   0.914   0.105   2.732
 1496SOL     OW 6110   0.889   0.391   2.673
 1496SOL    HW2 6111   0.885   0.295   2.679
 1496SOL    HW3 6112   0.901   0.408   2.579
 1496SOL    MW4 6113   0.890   0.380   2.661
 1497SOL     OW 6114   1.133   0.486   2.737
 1497SOL    HW2 6115   1.128   0.577   2.708
 1497SOL    HW3 6116   1.052   0.446   2.705
 1497SOL    MW4 6117   1.122   0.492   2.729
 1498SOL     OW 6118   1.124   0.754   2.656
 1498SOL    HW2 6119   1.195   0.805   2.696
 1498SOL    HW3 6120   1.143   0.758   2.562
 1498SOL    MW4 6121   1.136   0.761   2.649
 1499SOL     OW 6122   0.901   0.872   2.755
 1499SOL    HW2 6123   0.916   0.893   2.847
 1499SOL    HW3 6124   0.980   0.825   2.727
 1499SOL    MW4 6125   0.913   0.868   2.763
 1500SOL     OW 6126   0.881   1.136   2.690
 1500SOL    HW2 6127   0.894   1.042   2.696
 1500SOL    HW3 6128   0.909   1.158   2.601
 1500SOL    MW4 6129   0.886   1.127   2.679
 1501SOL     OW 6130   1.109   1.240   2.804
 1501SOL    HW2 6131   1.118   1.310   2.739
 1501SOL    HW3 6132   1.023   1.201   2.785
 1501SOL    MW4 6133   1.099   1.244   2.793
 1502SOL     OW 6134   1.122   1.478   2.641
 1502SOL    HW2 6135   1.047   1.535   2.656
 1502SOL    HW3 6136   1.134   1.478   2.546
 1502SOL    MW4 6137   1.113   1.486   2.630
 1503SOL     OW 6138   0.899   1.634   2.709
 1503SOL    HW2 6139   0.895   1.639   2.805
 1503SOL    HW3 6140   0.836   1.567   2.686
 1503SOL    MW4 6141   0.890   1.626   2.719
 1504SOL     OW 6142   0.884   1.908   2.609
 1504SOL    HW2 6143   0.954   1.960   2.648
 1504SOL    HW3 6144   0.910   1.817   2.625
 1504SOL    MW4 6145   0.897   1.903   2.616
 1505SOL     OW 6146   1.101   2.062   2.716
 1505SOL    HW2 6147   1.184   2.023   2.692
 1505SOL    HW3 6148   1.102   2.149   2.674
 1505SOL    MW4 6149   1.112   2.069   2.707
 1506SOL     OW 6150   1.124   2.318   2.619
 1506SOL    HW2 6151   1.202   2.363   2.651
 1506SOL    HW3 6152   1.118   2.343   2.527
 1506SOL    MW4 6153   1.133   2.327   2.611
 1507SOL     OW 6154   0.904   2.409   2.743
 1507SOL    HW2 6155   0.902   2.499   2.712
 1507SOL    HW3 6156   0.979   2.370   2.698
 1507SOL    MW4 6157   0.914   2.416   2.733
 1508SOL     OW 6158   0.874   2.673   2.635
 1508SOL    HW2 6159   0.947   2.714   2.680
 1508SOL    HW3 6160   0.796   2.710   2.676
 1508SOL    MW4 6161   0.873   2.683   2.646
 1509SOL     OW 6162   1.083   2.832   2.735
 1509SOL    HW2 6163   1.106   2.825   2.828
 1509SOL    HW3 6164   1.159   2.795   2.689
 1509SOL    MW4 6165   1.096   2.826   2.741
 1510SOL     OW 6166   1.148   3.096   2.655
 1510SOL    HW2 6167   1.122   3.007   2.677
 1510SOL    HW3 6168   1.136   3.101   2.560
 1510SOL    MW4 6169   1.143   3.085   2.645
 1511SOL     OW 6170   0.919   3.208   2.767
 1511SOL    HW2 6171   0.903   3.287   2.715
 1511SOL    HW3 6172   1.006   3.179   2.741
 1511SOL    MW4 6173   0.929   3.215   2.757
 1512SOL     OW 6174   0.887   3.462   2.637
 1512SOL    HW2 6175   0.960   3.509   2.676
 1512SOL    HW3 6176   0.810   3.512   2.664
 1512SOL    MW4 6177   0.886   3.475   2.646
 1513SOL     OW 6178   1.102   3.599   2.774
 1513SOL    HW2 6179   1.101   3.626   2.866
 1513SOL    HW3 6180   1.100   3.682   2.725
 1513SOL    MW4 6181   1.102   3.614   2.780
 1514SOL     OW 6182   1.098   3.851   2.622
 1514SOL    HW2 6183   1.178   3.889   2.659
 1514SOL    HW3 6184   1.111   3.859   2.527
 1514SOL    MW4 6185   1.110   3.857   2.614
 1515SOL     OW 6186   0.893   4.008   2.729
 1515SOL    HW2 6187   0.957   3.963   2.674
 1515SOL    HW3 6188   0.809   3.968   2.704
 1515SOL    MW4 6189   0.890   3.997   2.718
 1516SOL     OW 6190   0.888   4.266   2.665
 1516SOL    HW2 6191   0.892   4.173   2.689
 1516SOL    HW3 6192   0.884   4.265   2.569
 1516SOL    MW4 6193   0.888   4.253   2.655
 1517SOL     OW 6194   1.144   4.351   2.722
 1517SOL    HW2 6195   1.137   4.378   2.813
 1517SOL    HW3 6196   1.055   4.327   2.697
 1517SOL    MW4 6197   1.131   4.351   2.731
 1518SOL     OW 6198   1.593   4.643   2.655
 1518SOL    HW2 6199   1.588   4.549   2.671
 1518SOL    HW3 6200   1.581   4.652   2.561
 1518SOL    MW4 6201   1.591   4.632   2.645
 1519SOL     OW 6202   1.351   0.086   2.746
 1519SOL    HW2 6203   1.350   0.171   2.702
 1519SOL    HW3 6204   1.436   0.049   2.726
 1519SOL    MW4 6205   1.362   0.093   2.737
 1520SOL     OW 6206   1.360   0.344   2.646
 1520SOL    HW2 6207   1.437   0.387   2.682
 1520SOL    HW3 6208   1.286   0.396   2.678
 1520SOL    MW4 6209   1.360   0.356   2.655
 1521SOL     OW 6210   1.566   0.501   2.735
 1521SOL    HW2 6211   1.641   0.458   2.694
 1521SOL    HW3 6212   1.565   0.589   2.695
 1521SOL    MW4 6213   1.576   0.507   2.724
 1522SOL     OW 6214   1.571   0.749   2.637
 1522SOL    HW2 6215   1.490   0.778   2.680
 1522SOL    HW3 6216   1.566   0.787   2.549
 1522SOL    MW4 6217   1.559   0.758   2.631
 1523SOL     OW 6218   1.337   0.859   2.764
 1523SOL    HW2 6219   1.328   0.833   2.856
 1523SOL    HW3 6220   1.331   0.955   2.766
 1523SOL    MW4 6221   1.335   0.869   2.776
 1524SOL     OW 6222   1.335   1.125   2.679
 1524SOL    HW2 6223   1.413   1.167   2.716
 1524SOL    HW3 6224   1.262   1.163   2.728
 1524SOL    MW4 6225   1.335   1.135   2.691
 1525SOL     OW 6226   1.558   1.260   2.777
 1525SOL    HW2 6227   1.578   1.271   2.870
 1525SOL    HW3 6228   1.639   1.228   2.738
 1525SOL    MW4 6229   1.571   1.257   2.784
 1526SOL     OW 6230   1.515   1.539   2.694
 1526SOL    HW2 6231   1.527   1.446   2.716
 1526SOL    HW3 6232   1.510   1.540   2.598
 1526SOL    MW4 6233   1.516   1.526   2.684
 1527SOL     OW 6234   1.300   1.665   2.776
 1527SOL    HW2 6235   1.380   1.625   2.743
 1527SOL    HW3 6236   1.230   1.605   2.749
 1527SOL    MW4 6237   1.301   1.652   2.768
 1528SOL     OW 6238   1.342   1.924   2.641
 1528SOL    HW2 6239   1.316   1.841   2.679
 1528SOL    HW3 6240   1.337   1.911   2.547
 1528SOL    MW4 6241   1.338   1.911   2.634
 1529SOL     OW 6242   1.584   2.067   2.742
 1529SOL    HW2 6243   1.662   2.038   2.695
 1529SOL    HW3 6244   1.515   2.006   2.713
 1529SOL    MW4 6245   1.585   2.055   2.732
 1530SOL     OW 6246   1.562   2.317   2.654
 1530SOL    HW2 6247   1.644   2.356   2.682
 1530SOL    HW3 6248   1.565   2.227   2.688
 1530SOL    MW4 6249   1.573   2.310   2.662
 1531SOL     OW 6250   1.332   2.452   2.719
 1531SOL    HW2 6251   1.338   2.539   2.679
 1531SOL    HW3 6252   1.416   2.411   2.698
 1531SOL    MW4 6253   1.344   2.458   2.711
 1532SOL     OW 6254   1.329   2.709   2.634
 1532SOL    HW2 6255   1.409   2.736   2.678
 1532SOL    HW3 6256   1.351   2.707   2.541
 1532SOL    MW4 6257   1.342   2.712   2.628
 1533SOL     OW 6258   1.573   2.787   2.713
 1533SOL    HW2 6259   1.569   2.818   2.803
 1533SOL    HW3 6260   1.663   2.757   2.702
 1533SOL    MW4 6261   1.584   2.787   2.723
 1534SOL     OW 6262   1.597   3.047   2.609
 1534SOL    HW2 6263   1.667   3.093   2.655
 1534SOL    HW3 6264   1.593   2.961   2.651
 1534SOL    MW4 6265   1.606   3.042   2.621
 1535SOL     OW 6266   1.387   3.208   2.711
 1535SOL    HW2 6267   1.448   3.151   2.664
 1535SOL    HW3 6268   1.303   3.163   2.704
 1535SOL    MW4 6269   1.384   3.194   2.704
 1536SOL     OW 6270   1.302   3.459   2.618
 1536SOL    HW2 6271   1.319   3.370   2.647
 1536SOL    HW3 6272   1.230   3.490   2.672
 1536SOL    MW4 6273   1.295   3.452   2.629
 1537SOL     OW 6274   1.556   3.601   2.701
 1537SOL    HW2 6275   1.633   3.551   2.674
 1537SOL    HW3 6276   1.482   3.544   2.680
 1537SOL    MW4 6277   1.556   3.587   2.695
 1538SOL     OW 6278   1.581   3.904   2.648
 1538SOL    HW2 6279   1.495   3.930   2.679
 1538SOL    HW3 6280   1.587   3.811   2.667
 1538SOL    MW4 6281   1.571   3.895   2.655
 1539SOL     OW 6282   1.337   3.976   2.743
 1539SOL    HW2 6283   1.345   3.982   2.838
 1539SOL    HW3 6284   1.341   4.066   2.712
 1539SOL    MW4 6285   1.339   3.988   2.751
 1540SOL     OW 6286   1.379   4.239   2.641
 1540SOL    HW2 6287   1.294   4.278   2.664
 1540SOL    HW3 6288   1.382   4.243   2.545
 1540SOL    MW4 6289   1.368   4.245   2.631
 1541SOL     OW 6290   1.571   4.383   2.737
 1541SOL    HW2 6291   1.552   4.406   2.828
 1541SOL    HW3 6292   1.493   4.335   2.708
 1541SOL    MW4 6293   1.558   4.379   2.746
 1542SOL     OW 6294   2.016   0.050   2.649
 1542SOL    HW2 6295   2.102   0.072   2.685
 1542SOL    HW3 6296   2.031   0.038   2.555
 1542SOL    MW4 6297   2.029   0.051   2.641
 1543SOL     OW 6298   1.789   0.149   2.771
 1543SOL    HW2 6299   1.873   0.112   2.744
 1543SOL    HW3 6300   1.724   0.099   2.722
 1543SOL    MW4 6301   1.791   0.137   2.761
 1544SOL     OW 6302   1.769   0.374   2.615
 1544SOL    HW2 6303   1.854   0.408   2.643
 1544SOL    HW3 6304   1.753   0.298   2.672
 1544SOL    MW4 6305   1.778   0.368   2.626
 1545SOL     OW 6306   1.984   0.492   2.745
 1545SOL    HW2 6307   2.064   0.448   2.715
 1545SOL    HW3 6308   1.998   0.584   2.720
 1545SOL    MW4 6309   1.996   0.499   2.738
 1546SOL     OW 6310   2.029   0.754   2.647
 1546SOL    HW2 6311   1.949   0.800   2.671
 1546SOL    HW3 6312   2.029   0.755   2.551
 1546SOL    MW4 6313   2.019   0.760   2.637
 1547SOL     OW 6314   1.807   0.875   2.734
 1547SOL    HW2 6315   1.806   0.961   2.693
 1547SOL    HW3 6316   1.742   0.824   2.685
 1547SOL    MW4 6317   1.799   0.880   2.722
 1548SOL     OW 6318   1.780   1.168   2.642
 1548SOL    HW2 6319   1.863   1.209   2.665
 1548SOL    HW3 6320   1.776   1.175   2.546
 1548SOL    MW4 6321   1.790   1.174   2.632
 1549SOL     OW 6322   2.011   1.304   2.718
 1549SOL    HW2 6323   2.021   1.309   2.813
 1549SOL    HW3 6324   2.097   1.274   2.687
 1549SOL    MW4 6325   2.024   1.301   2.727
 1550SOL     OW 6326   2.000   1.556   2.603
 1550SOL    HW2 6327   1.926   1.601   2.642
 1550SOL    HW3 6328   1.996   1.467   2.639
 1550SOL    MW4 6329   1.990   1.550   2.613
 1551SOL     OW 6330   1.774   1.708   2.719
 1551SOL    HW2 6331   1.772   1.700   2.815
 1551SOL    HW3 6332   1.696   1.663   2.690
 1551SOL    MW4 6333   1.764   1.701   2.728
 1552SOL     OW 6334   1.794   1.958   2.612
 1552SOL    HW2 6335   1.878   1.994   2.640
 1552SOL    HW3 6336   1.783   1.878   2.663
 1552SOL    MW4 6337   1.804   1.952   2.622
 1553SOL     OW 6338   2.041   2.066   2.691
 1553SOL    HW2 6339   2.045   2.088   2.785
 1553SOL    HW3 6340   2.035   2.151   2.647
 1553SOL    MW4 6341   2.041   2.080   2.698
 1554SOL     OW 6342   2.046   2.326   2.577
 1554SOL    HW2 6343   2.126   2.374   2.600
 1554SOL    HW3 6344   2.042   2.333   2.481
 1554SOL    MW4 6345   2.056   2.333   2.567
 1555SOL     OW 6346   1.823   2.409   2.713
 1555SOL    HW2 6347   1.833   2.391   2.806
 1555SOL    HW3 6348   1.911   2.396   2.677
 1555SOL    MW4 6349   1.836   2.405   2.720
 1556SOL     OW 6350   1.832   2.682   2.643
 1556SOL    HW2 6351   1.826   2.589   2.663
 1556SOL    HW3 6352   1.845   2.686   2.549
 1556SOL    MW4 6353   1.833   2.670   2.634
 1557SOL     OW 6354   2.025   2.851   2.751
 1557SOL    HW2 6355   2.105   2.807   2.721
 1557SOL    HW3 6356   1.954   2.798   2.716
 1557SOL    MW4 6357   2.026   2.838   2.742
 1558SOL     OW 6358   2.045   3.121   2.641
 1558SOL    HW2 6359   2.049   3.034   2.679
 1558SOL    HW3 6360   2.054   3.107   2.547
 1558SOL    MW4 6361   2.046   3.108   2.633
 1559SOL     OW 6362   1.788   3.219   2.702
 1559SOL    HW2 6363   1.804   3.311   2.681
 1559SOL    HW3 6364   1.873   3.176   2.689
 1559SOL    MW4 6365   1.801   3.226   2.698
 1560SOL     OW 6366   1.803   3.479   2.622
 1560SOL    HW2 6367   1.882   3.528   2.646
 1560SOL    HW3 6368   1.799   3.483   2.527
 1560SOL    MW4 6369   1.813   3.486   2.613
 1561SOL     OW 6370   2.017   3.630   2.708
 1561SOL    HW2 6371   2.029   3.615   2.802
 1561SOL    HW3 6372   2.079   3.571   2.666
 1561SOL    MW4 6373   2.027   3.620   2.715
 1562SOL     OW 6374   2.012   3.900   2.640
 1562SOL    HW2 6375   1.943   3.947   2.687
 1562SOL    HW3 6376   2.004   3.809   2.670
 1562SOL    MW4 6377   2.002   3.894   2.650
 1563SOL     OW 6378   1.796   4.017   2.798
 1563SOL    HW2 6379   1.824   4.097   2.753
 1563SOL    HW3 6380   1.730   3.979   2.740
 1563SOL    MW4 6381   1.791   4.023   2.785
 1564SOL     OW 6382   1.841   4.273   2.648
 1564SOL    HW2 6383   1.749   4.293   2.665
 1564SOL    HW3 6384   1.847   4.265   2.553
 1564SOL    MW4 6385   1.830   4.275   2.638
 1565SOL     OW 6386   2.041   4.447   2.744
 1565SOL    HW2 6387   1.967   4.402   2.702
 1565SOL    HW3 6388   2.037   4.536   2.710
 1565SOL    MW4 6389   2.031   4.452   2.734
 1566SOL     OW 6390   2.492   4.641   2.646
 1566SOL    HW2 6391   2.555   4.700   2.687
 1566SOL    HW3 6392   2.503   4.656   2.552
 1566SOL    MW4 6393   2.501   4.651   2.639
 1567SOL     OW 6394   2.271   0.121   2.744
 1567SOL    HW2 6395   2.267   0.097   2.837
 1567SOL    HW3 6396   2.334   0.060   2.706
 1567SOL    MW4 6397   2.279   0.110   2.751
 1568SOL     OW 6398   2.221   0.358   2.633
 1568SOL    HW2 6399   2.266   0.278   2.659
 1568SOL    HW3 6400   2.212   0.351   2.538
 1568SOL    MW4 6401   2.226   0.346   2.623
 1569SOL     OW 6402   2.457   0.502   2.722
 1569SOL    HW2 6403   2.458   0.593   2.695
 1569SOL    HW3 6404   2.374   0.468   2.688
 1569SOL    MW4 6405   2.446   0.509   2.714
 1570SOL     OW 6406   2.466   0.759   2.629
 1570SOL    HW2 6407   2.404   0.829   2.648
 1570SOL    HW3 6408   2.465   0.752   2.534
 1570SOL    MW4 6409   2.458   0.767   2.619
 1571SOL     OW 6410   2.259   0.925   2.703
 1571SOL    HW2 6411   2.274   0.928   2.797
 1571SOL    HW3 6412   2.180   0.872   2.693
 1571SOL    MW4 6413   2.250   0.918   2.714
 1572SOL     OW 6414   2.245   1.176   2.575
 1572SOL    HW2 6415   2.265   1.086   2.600
 1572SOL    HW3 6416   2.232   1.172   2.480
 1572SOL    MW4 6417   2.246   1.163   2.566
 1573SOL     OW 6418   2.486   1.264   2.709
 1573SOL    HW2 6419   2.563   1.224   2.668
 1573SOL    HW3 6420   2.411   1.227   2.661
 1573SOL    MW4 6421   2.486   1.254   2.697
 1574SOL     OW 6422   2.478   1.569   2.658
 1574SOL    HW2 6423   2.397   1.599   2.700
 1574SOL    HW3 6424   2.476   1.474   2.669
 1574SOL    MW4 6425   2.467   1.560   2.665
 1575SOL     OW 6426   2.215   1.683   2.736
 1575SOL    HW2 6427   2.233   1.767   2.693
 1575SOL    HW3 6428   2.143   1.645   2.685
 1575SOL    MW4 6429   2.208   1.689   2.724
 1576SOL     OW 6430   2.257   1.917   2.599
 1576SOL    HW2 6431   2.183   1.960   2.641
 1576SOL    HW3 6432   2.248   1.939   2.506
 1576SOL    MW4 6433   2.246   1.926   2.592
 1577SOL     OW 6434   2.482   2.035   2.715
 1577SOL    HW2 6435   2.478   2.115   2.662
 1577SOL    HW3 6436   2.402   1.988   2.693
 1577SOL    MW4 6437   2.471   2.039   2.705
 1578SOL     OW 6438   2.510   2.300   2.619
 1578SOL    HW2 6439   2.578   2.363   2.638
 1578SOL    HW3 6440   2.498   2.305   2.524
 1578SOL    MW4 6441   2.517   2.309   2.609
 1579SOL     OW 6442   2.283   2.439   2.679
 1579SOL    HW2 6443   2.282   2.456   2.774
 1579SOL    HW3 6444   2.369   2.401   2.663
 1579SOL    MW4 6445   2.294   2.436   2.690
 1580SOL     OW 6446   2.252   2.732   2.644
 1580SOL    HW2 6447   2.334   2.772   2.675
 1580SOL    HW3 6448   2.273   2.639   2.637
 1580SOL    MW4 6449   2.266   2.725   2.647
 1581SOL     OW 6450   2.484   2.843   2.754
 1581SOL    HW2 6451   2.567   2.800   2.736
 1581SOL    HW3 6452   2.493   2.930   2.715
 1581SOL    MW4 6453   2.496   2.849   2.747
 1582SOL     OW 6454   2.477   3.115   2.642
 1582SOL    HW2 6455   2.402   3.150   2.691
 1582SOL    HW3 6456   2.455   3.131   2.551
 1582SOL    MW4 6457   2.464   3.122   2.637
 1583SOL     OW 6458   2.247   3.248   2.762
 1583SOL    HW2 6459   2.257   3.222   2.854
 1583SOL    HW3 6460   2.174   3.196   2.730
 1583SOL    MW4 6461   2.238   3.238   2.770
 1584SOL     OW 6462   2.255   3.480   2.600
 1584SOL    HW2 6463   2.336   3.527   2.621
 1584SOL    HW3 6464   2.253   3.408   2.663
 1584SOL    MW4 6465   2.265   3.477   2.611
 1585SOL     OW 6466   2.468   3.622   2.685
 1585SOL    HW2 6467   2.451   3.624   2.779
 1585SOL    HW3 6468   2.461   3.714   2.658
 1585SOL    MW4 6469   2.465   3.635   2.693
 1586SOL     OW 6470   2.443   3.898   2.628
 1586SOL    HW2 6471   2.520   3.943   2.663
 1586SOL    HW3 6472   2.371   3.932   2.680
 1586SOL    MW4 6473   2.444   3.908   2.640
 1587SOL     OW 6474   2.229   4.032   2.750
 1587SOL    HW2 6475   2.214   4.023   2.845
 1587SOL    HW3 6476   2.151   3.995   2.710
 1587SOL    MW4 6477   2.217   4.026   2.757
 1588SOL     OW 6478   2.235   4.285   2.621
 1588SOL    HW2 6479   2.237   4.205   2.674
 1588SOL    HW3 6480   2.170   4.340   2.664
 1588SOL    MW4 6481   2.227   4.282   2.634
 1589SOL     OW 6482   2.420   4.404   2.775
 1589SOL    HW2 6483   2.348   4.370   2.722
 1589SOL    HW3 6484   2.446   4.485   2.731
 1589SOL    MW4 6485   2.414   4.411   2.762
 1590SOL     OW 6486   2.926   0.002   2.612
 1590SOL    HW2 6487   3.007   0.042   2.644
 1590SOL    HW3 6488   2.934   0.005   2.517
 1590SOL    MW4 6489   2.938   0.007   2.604
 1591SOL     OW 6490   2.688   0.144   2.738
 1591SOL    HW2 6491   2.691   0.129   2.832
 1591SOL    HW3 6492   2.766   0.099   2.704
 1591SOL    MW4 6493   2.699   0.136   2.746
 1592SOL     OW 6494   2.639   0.380   2.579
 1592SOL    HW2 6495   2.642   0.298   2.627
 1592SOL    HW3 6496   2.576   0.434   2.627
 1592SOL    MW4 6497   2.631   0.377   2.592
 1593SOL     OW 6498   2.897   0.474   2.697
 1593SOL    HW2 6499   2.892   0.569   2.695
 1593SOL    HW3 6500   2.830   0.444   2.636
 1593SOL    MW4 6501   2.888   0.482   2.689
 1594SOL     OW 6502   2.888   0.756   2.632
 1594SOL    HW2 6503   2.965   0.811   2.648
 1594SOL    HW3 6504   2.814   0.812   2.658
 1594SOL    MW4 6505   2.888   0.771   2.638
 1595SOL     OW 6506   2.674   0.915   2.724
 1595SOL    HW2 6507   2.676   0.889   2.816
 1595SOL    HW3 6508   2.615   0.853   2.682
 1595SOL    MW4 6509   2.667   0.904   2.730
 1596SOL     OW 6510   2.698   1.152   2.594
 1596SOL    HW2 6511   2.772   1.192   2.640
 1596SOL    HW3 6512   2.687   1.067   2.636
 1596SOL    MW4 6513   2.706   1.146   2.606
 1597SOL     OW 6514   2.900   1.295   2.718
 1597SOL    HW2 6515   2.896   1.295   2.814
 1597SOL    HW3 6516   2.984   1.254   2.698
 1597SOL    MW4 6517   2.910   1.289   2.728
 1598SOL     OW 6518   2.940   1.548   2.622
 1598SOL    HW2 6519   2.862   1.600   2.640
 1598SOL    HW3 6520   2.924   1.464   2.664
 1598SOL    MW4 6521   2.928   1.544   2.630
 1599SOL     OW 6522   2.725   1.694   2.724
 1599SOL    HW2 6523   2.715   1.721   2.815
 1599SOL    HW3 6524   2.653   1.632   2.710
 1599SOL    MW4 6525   2.714   1.689   2.734
 1600SOL     OW 6526   2.702   1.925   2.586
 1600SOL    HW2 6527   2.719   1.840   2.627
 1600SOL    HW3 6528   2.638   1.967   2.644
 1600SOL    MW4 6529   2.696   1.919   2.599
 1601SOL     OW 6530   2.910   2.054   2.734
 1601SOL    HW2 6531   2.917   2.141   2.696
 1601SOL    HW3 6532   2.842   2.010   2.682
 1601SOL    MW4 6533   2.902   2.060   2.722
 1602SOL     OW 6534   2.934   2.292   2.608
 1602SOL    HW2 6535   3.016   2.337   2.629
 1602SOL    HW3 6536   2.866   2.350   2.643
 1602SOL    MW4 6537   2.936   2.306   2.615
 1603SOL     OW 6538   2.719   2.451   2.684
 1603SOL    HW2 6539   2.714   2.454   2.780
 1603SOL    HW3 6540   2.722   2.543   2.658
 1603SOL    MW4 6541   2.719   2.463   2.693
 1604SOL     OW 6542   2.723   2.735   2.649
 1604SOL    HW2 6543   2.801   2.789   2.661
 1604SOL    HW3 6544   2.707   2.738   2.554
 1604SOL    MW4 6545   2.731   2.743   2.638
 1605SOL     OW 6546   2.961   2.851   2.693
 1605SOL    HW2 6547   2.948   2.849   2.788
 1605SOL    HW3 6548   2.968   2.944   2.672
 1605SOL    MW4 6549   2.960   2.863   2.703
 1606SOL     OW 6550   2.968   3.110   2.637
 1606SOL    HW2 6551   2.894   3.164   2.665
 1606SOL    HW3 6552   2.965   3.114   2.541
 1606SOL    MW4 6553   2.958   3.118   2.628
 1607SOL     OW 6554   2.727   3.236   2.703
 1607SOL    HW2 6555   2.723   3.327   2.673
 1607SOL    HW3 6556   2.643   3.198   2.677
 1607SOL    MW4 6557   2.716   3.243   2.695
 1608SOL     OW 6558   2.697   3.497   2.614
 1608SOL    HW2 6559   2.614   3.541   2.633
 1608SOL    HW3 6560   2.703   3.497   2.519
 1608SOL    MW4 6561   2.687   3.503   2.604
 1609SOL     OW 6562   2.918   3.634   2.713
 1609SOL    HW2 6563   2.924   3.611   2.806
 1609SOL    HW3 6564   2.843   3.584   2.681
 1609SOL    MW4 6565   2.909   3.624   2.721
 1610SOL     OW 6566   2.918   3.889   2.606
 1610SOL    HW2 6567   2.989   3.936   2.650
 1610SOL    HW3 6568   2.912   3.805   2.652
 1610SOL    MW4 6569   2.927   3.884   2.618
 1611SOL     OW 6570   2.685   3.982   2.722
 1611SOL    HW2 6571   2.675   4.077   2.718
 1611SOL    HW3 6572   2.765   3.965   2.673
 1611SOL    MW4 6573   2.694   3.992   2.715
 1612SOL     OW 6574   2.650   4.255   2.676
 1612SOL    HW2 6575   2.723   4.309   2.704
 1612SOL    HW3 6576   2.572   4.301   2.708
 1612SOL    MW4 6577   2.649   4.268   2.684
 1613SOL     OW 6578   2.875   4.427   2.741
 1613SOL    HW2 6579   2.850   4.441   2.833
 1613SOL    HW3 6580   2.893   4.514   2.708
 1613SOL    MW4 6581   2.874   4.440   2.749
 1614SOL     OW 6582   3.380   4.659   2.584
 1614SOL    HW2 6583   3.368   4.574   2.626
 1614SOL    HW3 6584   3.315   4.716   2.625
 1614SOL    MW4 6585   3.370   4.656   2.595
 1615SOL     OW 6586   3.137   0.141   2.700
 1615SOL    HW2 6587   3.130   0.125   2.794
 1615SOL    HW3 6588   3.139   0.237   2.691
 1615SOL    MW4 6589   3.136   0.152   2.711
 1616SOL     OW 6590   3.160   0.408   2.619
 1616SOL    HW2 6591   3.074   0.444   2.642
 1616SOL    HW3 6592   3.153   0.385   2.527
 1616SOL    MW4 6593   3.148   0.410   2.610
 1617SOL     OW 6594   3.377   0.530   2.751
 1617SOL    HW2 6595   3.378   0.623   2.727
 1617SOL    HW3 6596   3.310   0.492   2.696
 1617SOL    MW4 6597   3.368   0.537   2.741
 1618SOL     OW 6598   3.359   0.788   2.655
 1618SOL    HW2 6599   3.434   0.842   2.680
 1618SOL    HW3 6600   3.374   0.767   2.562
 1618SOL    MW4 6601   3.371   0.792   2.646
 1619SOL     OW 6602   3.109   0.893   2.692
 1619SOL    HW2 6603   3.111   0.903   2.787
 1619SOL    HW3 6604   3.183   0.836   2.672
 1619SOL    MW4 6605   3.119   0.887   2.701
 1620SOL     OW 6606   3.125   1.171   2.620
 1620SOL    HW2 6607   3.127   1.077   2.633
 1620SOL    HW3 6608   3.129   1.183   2.525
 1620SOL    MW4 6609   3.126   1.161   2.609
 1621SOL     OW 6610   3.355   1.330   2.690
 1621SOL    HW2 6611   3.384   1.316   2.780
 1621SOL    HW3 6612   3.284   1.267   2.677
 1621SOL    MW4 6613   3.350   1.320   2.700
 1622SOL     OW 6614   3.382   1.593   2.626
 1622SOL    HW2 6615   3.306   1.639   2.662
 1622SOL    HW3 6616   3.372   1.503   2.658
 1622SOL    MW4 6617   3.370   1.587   2.635
 1623SOL     OW 6618   3.151   1.680   2.728
 1623SOL    HW2 6619   3.143   1.762   2.679
 1623SOL    HW3 6620   3.087   1.621   2.687
 1623SOL    MW4 6621   3.141   1.683   2.716
 1624SOL     OW 6622   3.133   1.941   2.613
 1624SOL    HW2 6623   3.201   1.976   2.671
 1624SOL    HW3 6624   3.051   1.960   2.658
 1624SOL    MW4 6625   3.131   1.948   2.626
 1625SOL     OW 6626   3.369   2.049   2.730
 1625SOL    HW2 6627   3.366   2.059   2.825
 1625SOL    HW3 6628   3.383   2.138   2.697
 1625SOL    MW4 6629   3.370   2.062   2.738
 1626SOL     OW 6630   3.386   2.306   2.618
 1626SOL    HW2 6631   3.454   2.365   2.650
 1626SOL    HW3 6632   3.386   2.317   2.523
 1626SOL    MW4 6633   3.395   2.315   2.610
 1627SOL     OW 6634   3.158   2.427   2.708
 1627SOL    HW2 6635   3.153   2.511   2.663
 1627SOL    HW3 6636   3.237   2.385   2.674
 1627SOL    MW4 6637   3.167   2.432   2.698
 1628SOL     OW 6638   3.163   2.687   2.595
 1628SOL    HW2 6639   3.228   2.748   2.632
 1628SOL    HW3 6640   3.079   2.726   2.618
 1628SOL    MW4 6641   3.161   2.700   2.603
 1629SOL     OW 6642   3.392   2.854   2.724
 1629SOL    HW2 6643   3.386   2.845   2.819
 1629SOL    HW3 6644   3.466   2.799   2.699
 1629SOL    MW4 6645   3.401   2.846   2.733
 1630SOL     OW 6646   3.390   3.135   2.653
 1630SOL    HW2 6647   3.406   3.048   2.690
 1630SOL    HW3 6648   3.388   3.121   2.559
 1630SOL    MW4 6649   3.392   3.122   2.646
 1631SOL     OW 6650   3.168   3.254   2.766
 1631SOL    HW2 6651   3.248   3.236   2.715
 1631SOL    HW3 6652   3.101   3.201   2.724
 1631SOL    MW4 6653   3.170   3.244   2.754
 1632SOL     OW 6654   3.130   3.509   2.613
 1632SOL    HW2 6655   3.121   3.440   2.679
 1632SOL    HW3 6656   3.051   3.562   2.623
 1632SOL    MW4 6657   3.118   3.507   2.623
 1633SOL     OW 6658   3.349   3.630   2.732
 1633SOL    HW2 6659   3.353   3.587   2.817
 1633SOL    HW3 6660   3.269   3.596   2.692
 1633SOL    MW4 6661   3.339   3.620   2.738
 1634SOL     OW 6662   3.343   3.911   2.669
 1634SOL    HW2 6663   3.354   3.822   2.702
 1634SOL    HW3 6664   3.359   3.904   2.575
 1634SOL    MW4 6665   3.346   3.898   2.661
 1635SOL     OW 6666   3.118   4.035   2.743
 1635SOL    HW2 6667   3.125   4.123   2.705
 1635SOL    HW3 6668   3.200   3.993   2.719
 1635SOL    MW4 6669   3.130   4.041   2.735
 1636SOL     OW 6670   3.110   4.277   2.619
 1636SOL    HW2 6671   3.031   4.324   2.645
 1636SOL    HW3 6672   3.096   4.256   2.527
 1636SOL    MW4 6673   3.097   4.280   2.610
 1637SOL     OW 6674   3.349   4.414   2.719
 1637SOL    HW2 6675   3.333   4.420   2.813
 1637SOL    HW3 6676   3.266   4.381   2.683
 1637SOL    MW4 6677   3.336   4.411   2.726
 1638SOL     OW 6678   3.829   4.655   2.658
 1638SOL    HW2 6679   3.831   4.572   2.705
 1638SOL    HW3 6680   3.747   4.697   2.685
 1638SOL    MW4 6681   3.819   4.650   2.668
 1639SOL     OW 6682   3.584   0.111   2.728
 1639SOL    HW2 6683   3.571   0.203   2.706
 1639SOL    HW3 6684   3.525   0.063   2.670
 1639SOL    MW4 6685   3.575   0.117   2.718
 1640SOL     OW 6686   3.578   0.382   2.651
 1640SOL    HW2 6687   3.664   0.421   2.669
 1640SOL    HW3 6688   3.515   0.443   2.689
 1640SOL    MW4 6689   3.581   0.395   2.658
 1641SOL     OW 6690   3.810   0.519   2.718
 1641SOL    HW2 6691   3.816   0.514   2.814
 1641SOL    HW3 6692   3.885   0.467   2.688
 1641SOL    MW4 6693   3.821   0.511   2.727
 1642SOL     OW 6694   3.807   0.781   2.630
 1642SOL    HW2 6695   3.730   0.809   2.680
 1642SOL    HW3 6696   3.814   0.687   2.649
 1642SOL    MW4 6697   3.798   0.772   2.639
 1643SOL     OW 6698   3.589   0.913   2.727
 1643SOL    HW2 6699   3.605   0.921   2.821
 1643SOL    HW3 6700   3.590   1.003   2.695
 1643SOL    MW4 6701   3.591   0.926   2.735
 1644SOL     OW 6702   3.587   1.173   2.620
 1644SOL    HW2 6703   3.659   1.212   2.670
 1644SOL    HW3 6704   3.510   1.222   2.647
 1644SOL    MW4 6705   3.587   1.185   2.630
 1645SOL     OW 6706   3.825   1.269   2.731
 1645SOL    HW2 6707   3.912   1.240   2.704
 1645SOL    HW3 6708   3.809   1.347   2.679
 1645SOL    MW4 6709   3.835   1.275   2.721
 1646SOL     OW 6710   3.814   1.518   2.622
 1646SOL    HW2 6711   3.893   1.565   2.652
 1646SOL    HW3 6712   3.742   1.574   2.649
 1646SOL    MW4 6713   3.815   1.532   2.630
 1647SOL     OW 6714   3.637   1.715   2.688
 1647SOL    HW2 6715   3.654   1.803   2.655
 1647SOL    HW3 6716   3.565   1.683   2.635
 1647SOL    MW4 6717   3.630   1.722   2.677
 1648SOL     OW 6718   3.624   1.992   2.622
 1648SOL    HW2 6719   3.539   2.013   2.661
 1648SOL    HW3 6720   3.607   1.989   2.528
 1648SOL    MW4 6721   3.611   1.995   2.615
 1649SOL     OW 6722   3.846   2.072   2.744
 1649SOL    HW2 6723   3.912   2.013   2.707
 1649SOL    HW3 6724   3.763   2.042   2.706
 1649SOL    MW4 6725   3.844   2.060   2.734
 1650SOL     OW 6726   3.808   2.325   2.627
 1650SOL    HW2 6727   3.817   2.234   2.656
 1650SOL    HW3 6728   3.788   2.318   2.534
 1650SOL    MW4 6729   3.806   2.312   2.618
 1651SOL     OW 6730   3.600   2.467   2.730
 1651SOL    HW2 6731   3.602   2.470   2.825
 1651SOL    HW3 6732   3.683   2.426   2.705
 1651SOL    MW4 6733   3.611   2.462   2.739
 1652SOL     OW 6734   3.627   2.725   2.635
 1652SOL    HW2 6735   3.619   2.633   2.660
 1652SOL    HW3 6736   3.612   2.726   2.540
 1652SOL    MW4 6737   3.624   2.713   2.626
 1653SOL     OW 6738   3.823   2.875   2.785
 1653SOL    HW2 6739   3.907   2.853   2.746
 1653SOL    HW3 6740   3.759   2.824   2.736
 1653SOL    MW4 6741   3.826   2.866   2.774
 1654SOL     OW 6742   3.844   3.125   2.668
 1654SOL    HW2 6743   3.776   3.178   2.710
 1654SOL    HW3 6744   3.836   3.039   2.709
 1654SOL    MW4 6745   3.834   3.121   2.679
 1655SOL     OW 6746   3.614   3.308   2.728
 1655SOL    HW2 6747   3.611   3.389   2.676
 1655SOL    HW3 6748   3.547   3.252   2.688
 1655SOL    MW4 6749   3.605   3.312   2.716
 1656SOL     OW 6750   3.612   3.581   2.598
 1656SOL    HW2 6751   3.681   3.610   2.658
 1656SOL    HW3 6752   3.531   3.604   2.642
 1656SOL    MW4 6753   3.611   3.588   2.611
 1657SOL     OW 6754   3.809   3.635   2.768
 1657SOL    HW2 6755   3.878   3.589   2.720
 1657SOL    HW3 6756   3.805   3.721   2.728
 1657SOL    MW4 6757   3.818   3.640   2.756
 1658SOL     OW 6758   3.799   3.876   2.636
 1658SOL    HW2 6759   3.882   3.916   2.664
 1658SOL    HW3 6760   3.731   3.931   2.674
 1658SOL    MW4 6761   3.801   3.888   2.644
 1659SOL     OW 6762   3.589   4.015   2.749
 1659SOL    HW2 6763   3.592   4.099   2.704
 1659SOL    HW3 6764   3.500   3.983   2.733
 1659SOL    MW4 6765   3.577   4.022   2.741
 1660SOL     OW 6766   3.590   4.268   2.654
 1660SOL    HW2 6767   3.522   4.327   2.685
 1660SOL    HW3 6768   3.591   4.278   2.559
 1660SOL    MW4 6769   3.581   4.277   2.645
 1661SOL     OW 6770   3.817   4.410   2.777
 1661SOL    HW2 6771   3.893   4.362   2.745
 1661SOL    HW3 6772   3.742   4.363   2.741
 1661SOL    MW4 6773   3.817   4.398   2.768
 1662SOL     OW 6774   4.305   4.650   2.684
 1662SOL    HW2 6775   4.237   4.700   2.729
 1662SOL    HW3 6776   4.386   4.697   2.705
 1662SOL    MW4 6777   4.307   4.663   2.693
 1663SOL     OW 6778   4.070   0.117   2.746
 1663SOL    HW2 6779   4.055   0.124   2.841
 1663SOL    HW3 6780   3.994   0.068   2.713
 1663SOL    MW4 6781   4.058   0.111   2.754
 1664SOL     OW 6782   4.036   0.369   2.637
 1664SOL    HW2 6783   4.048   0.281   2.672
 1664SOL    HW3 6784   4.025   0.356   2.543
 1664SOL    MW4 6785   4.036   0.356   2.629
 1665SOL     OW 6786   4.254   0.496   2.746
 1665SOL    HW2 6787   4.185   0.447   2.701
 1665SOL    HW3 6788   4.335   0.467   2.703
 1665SOL    MW4 6789   4.255   0.485   2.734
 1666SOL     OW 6790   4.257   0.767   2.671
 1666SOL    HW2 6791   4.263   0.675   2.695
 1666SOL    HW3 6792   4.266   0.768   2.576
 1666SOL    MW4 6793   4.259   0.755   2.662
 1667SOL     OW 6794   4.040   0.896   2.778
 1667SOL    HW2 6795   4.108   0.840   2.742
 1667SOL    HW3 6796   3.958   0.861   2.742
 1667SOL    MW4 6797   4.038   0.884   2.768
 1668SOL     OW 6798   4.065   1.156   2.642
 1668SOL    HW2 6799   4.136   1.205   2.684
 1668SOL    HW3 6800   4.066   1.071   2.685
 1668SOL    MW4 6801   4.075   1.151   2.653
 1669SOL     OW 6802   4.272   1.323   2.782
 1669SOL    HW2 6803   4.294   1.414   2.758
 1669SOL    HW3 6804   4.324   1.270   2.722
 1669SOL    MW4 6805   4.282   1.328   2.771
 1670SOL     OW 6806   4.304   1.577   2.667
 1670SOL    HW2 6807   4.395   1.597   2.691
 1670SOL    HW3 6808   4.303   1.578   2.572
 1670SOL    MW4 6809   4.316   1.580   2.658
 1671SOL     OW 6810   4.045   1.675   2.711
 1671SOL    HW2 6811   4.046   1.684   2.806
 1671SOL    HW3 6812   4.129   1.633   2.690
 1671SOL    MW4 6813   4.056   1.670   2.721
 1672SOL     OW 6814   4.084   1.930   2.629
 1672SOL    HW2 6815   4.147   1.967   2.690
 1672SOL    HW3 6816   4.077   1.838   2.655
 1672SOL    MW4 6817   4.091   1.922   2.641
 1673SOL     OW 6818   4.255   2.055   2.804
 1673SOL    HW2 6819   4.239   2.139   2.761
 1673SOL    HW3 6820   4.330   2.018   2.757
 1673SOL    MW4 6821   4.263   2.061   2.792
 1674SOL     OW 6822   4.248   2.322   2.686
 1674SOL    HW2 6823   4.173   2.381   2.677
 1674SOL    HW3 6824   4.262   2.288   2.597
 1674SOL    MW4 6825   4.240   2.325   2.673
 1675SOL     OW 6826   4.016   2.473   2.718
 1675SOL    HW2 6827   4.021   2.448   2.810
 1675SOL    HW3 6828   3.955   2.411   2.679
 1675SOL    MW4 6829   4.009   2.462   2.725
 1676SOL     OW 6830   4.049   2.743   2.611
 1676SOL    HW2 6831   4.132   2.772   2.648
 1676SOL    HW3 6832   4.037   2.654   2.647
 1676SOL    MW4 6833   4.058   2.735   2.621
 1677SOL     OW 6834   4.312   2.838   2.702
 1677SOL    HW2 6835   4.298   2.839   2.796
 1677SOL    HW3 6836   4.305   2.930   2.676
 1677SOL    MW4 6837   4.309   2.851   2.711
 1678SOL     OW 6838   4.276   3.092   2.621
 1678SOL    HW2 6839   4.201   3.144   2.651
 1678SOL    HW3 6840   4.262   3.083   2.527
 1678SOL    MW4 6841   4.264   3.098   2.613
 1679SOL     OW 6842   4.087   3.254   2.743
 1679SOL    HW2 6843   4.066   3.346   2.726
 1679SOL    HW3 6844   4.004   3.208   2.733
 1679SOL    MW4 6845   4.073   3.260   2.740
 1680SOL     OW 6846   4.047   3.520   2.637
 1680SOL    HW2 6847   4.118   3.570   2.678
 1680SOL    HW3 6848   4.077   3.508   2.546
 1680SOL    MW4 6849   4.061   3.525   2.630
 1681SOL     OW 6850   4.249   3.656   2.741
 1681SOL    HW2 6851   4.252   3.674   2.835
 1681SOL    HW3 6852   4.323   3.598   2.726
 1681SOL    MW4 6853   4.259   3.651   2.751
 1682SOL     OW 6854   4.252   3.917   2.641
 1682SOL    HW2 6855   4.243   3.823   2.656
 1682SOL    HW3 6856   4.340   3.938   2.673
 1682SOL    MW4 6857   4.262   3.908   2.647
 1683SOL     OW 6858   4.011   4.028   2.748
 1683SOL    HW2 6859   4.022   4.025   2.843
 1683SOL    HW3 6860   4.093   3.992   2.714
 1683SOL    MW4 6861   4.023   4.023   2.756
 1684SOL     OW 6862   4.018   4.283   2.664
 1684SOL    HW2 6863   4.004   4.194   2.697
 1684SOL    HW3 6864   4.036   4.271   2.571
 1684SOL    MW4 6865   4.018   4.270   2.656
 1685SOL     OW 6866   4.289   4.384   2.753
 1685SOL    HW2 6867   4.197   4.356   2.751
 1685SOL    HW3 6868   4.287   4.476   2.726
 1685SOL    MW4 6869   4.277   4.392   2.749
 1686SOL     OW 6870   0.184   4.624   3.124
 1686SOL    HW2 6871   0.191   4.644   3.217
 1686SOL    HW3 6872   0.114   4.681   3.092
 1686SOL    MW4 6873   0.176   4.634   3.132
 1687SOL     OW 6874   0.016   0.148   3.028
 1687SOL    HW2 6875  -0.068   0.107   3.049
 1687SOL    HW3 6876   0.014   0.233   3.070
 1687SOL    MW4 6877   0.005   0.153   3.036
 1688SOL     OW 6878   4.483   0.389   3.131
 1688SOL    HW2 6879   4.474   0.379   3.226
 1688SOL    HW3 6880   4.403   0.432   3.104
 1688SOL    MW4 6881   4.471   0.393   3.140
 1689SOL     OW 6882   0.237   0.495   3.025
 1689SOL    HW2 6883   0.311   0.436   3.038
 1689SOL    HW3 6884   0.161   0.444   3.052
 1689SOL    MW4 6885   0.237   0.481   3.030
 1690SOL     OW 6886   0.233   0.753   3.124
 1690SOL    HW2 6887   0.217   0.761   3.218
 1690SOL    HW3 6888   0.222   0.659   3.106
 1690SOL    MW4 6889   0.229   0.742   3.134
 1691SOL     OW 6890   4.485   0.910   3.033
 1691SOL    HW2 6891   4.559   0.853   3.052
 1691SOL    HW3 6892   4.492   0.929   2.939
 1691SOL    MW4 6893   4.496   0.905   3.023
 1692SOL     OW 6894   0.004   1.151   3.164
 1692SOL    HW2 6895  -0.066   1.201   3.122
 1692SOL    HW3 6896   0.001   1.065   3.121
 1692SOL    MW4 6897  -0.006   1.146   3.153
 1693SOL     OW 6898   0.246   1.283   3.034
 1693SOL    HW2 6899   0.167   1.239   3.067
 1693SOL    HW3 6900   0.236   1.280   2.939
 1693SOL    MW4 6901   0.234   1.277   3.026
 1694SOL     OW 6902   0.240   1.542   3.105
 1694SOL    HW2 6903   0.162   1.591   3.080
 1694SOL    HW3 6904   0.227   1.456   3.066
 1694SOL    MW4 6905   0.228   1.537   3.096
 1695SOL     OW 6906   0.005   1.682   3.032
 1695SOL    HW2 6907  -0.065   1.640   3.081
 1695SOL    HW3 6908   0.007   1.772   3.065
 1695SOL    MW4 6909  -0.004   1.689   3.043
 1696SOL     OW 6910   4.477   1.914   3.167
 1696SOL    HW2 6911   4.392   1.947   3.137
 1696SOL    HW3 6912   4.541   1.977   3.131
 1696SOL    MW4 6913   4.475   1.927   3.158
 1697SOL     OW 6914   0.170   2.058   2.989
 1697SOL    HW2 6915   0.193   2.142   3.028
 1697SOL    HW3 6916   0.176   2.073   2.894
 1697SOL    MW4 6917   0.174   2.071   2.981
 1698SOL     OW 6918   0.250   2.311   3.130
 1698SOL    HW2 6919   0.259   2.318   3.225
 1698SOL    HW3 6920   0.323   2.363   3.096
 1698SOL    MW4 6921   0.261   2.319   3.138
 1699SOL     OW 6922   0.008   2.424   3.034
 1699SOL    HW2 6923   0.003   2.513   3.069
 1699SOL    HW3 6924   0.088   2.388   3.072
 1699SOL    MW4 6925   0.018   2.431   3.044
 1700SOL     OW 6926   0.003   2.686   3.115
 1700SOL    HW2 6927   0.003   2.694   3.210
 1700SOL    HW3 6928   0.069   2.749   3.086
 1700SOL    MW4 6929   0.012   2.696   3.124
 1701SOL     OW 6930   0.199   2.862   3.002
 1701SOL    HW2 6931   0.281   2.832   3.040
 1701SOL    HW3 6932   0.214   2.860   2.907
 1701SOL    MW4 6933   0.212   2.858   2.994
 1702SOL     OW 6934   0.164   3.097   3.143
 1702SOL    HW2 6935   0.096   3.137   3.088
 1702SOL    HW3 6936   0.190   3.019   3.096
 1702SOL    MW4 6937   0.158   3.092   3.130
 1703SOL     OW 6938   4.463   3.238   3.010
 1703SOL    HW2 6939   4.390   3.181   3.031
 1703SOL    HW3 6940   4.471   3.234   2.915
 1703SOL    MW4 6941   4.455   3.230   3.001
 1704SOL     OW 6942   4.471   3.497   3.129
 1704SOL    HW2 6943   4.395   3.553   3.112
 1704SOL    HW3 6944   4.454   3.418   3.077
 1704SOL    MW4 6945   4.459   3.494   3.120
 1705SOL     OW 6946   0.204   3.611   3.020
 1705SOL    HW2 6947   0.201   3.704   3.041
 1705SOL    HW3 6948   0.123   3.575   3.058
 1705SOL    MW4 6949   0.193   3.618   3.028
 1706SOL     OW 6950   0.203   3.872   3.124
 1706SOL    HW2 6951   0.190   3.884   3.218
 1706SOL    HW3 6952   0.271   3.935   3.100
 1706SOL    MW4 6953   0.210   3.882   3.133
 1707SOL     OW 6954   4.484   4.027   3.023
 1707SOL    HW2 6955   4.561   3.976   3.049
 1707SOL    HW3 6956   4.489   4.030   2.927
 1707SOL    MW4 6957   4.495   4.020   3.014
 1708SOL     OW 6958   4.484   4.271   3.154
 1708SOL    HW2 6959   4.477   4.257   3.249
 1708SOL    HW3 6960   4.472   4.185   3.116
 1708SOL    MW4 6961   4.482   4.258   3.162
 1709SOL     OW 6962   0.221   4.368   3.030
 1709SOL    HW2 6963   0.139   4.322   3.049
 1709SOL    HW3 6964   0.206   4.458   3.059
 1709SOL    MW4 6965   0.208   4.373   3.036
 1710SOL     OW 6966   0.652   4.651   3.161
 1710SOL    HW2 6967   0.650   4.557   3.141
 1710SOL    HW3 6968   0.582   4.688   3.108
 1710SOL    MW4 6969   0.642   4.643   3.152
 1711SOL     OW 6970   0.429   0.087   3.037
 1711SOL    HW2 6971   0.445   0.176   3.068
 1711SOL    HW3 6972   0.338   0.069   3.060
 1711SOL    MW4 6973   0.419   0.096   3.044
 1712SOL     OW 6974   0.471   0.347   3.105
 1712SOL    HW2 6975   0.467   0.358   3.200
 1712SOL    HW3 6976   0.547   0.399   3.079
 1712SOL    MW4 6977   0.481   0.355   3.114
 1713SOL     OW 6978   0.687   0.529   3.055
 1713SOL    HW2 6979   0.772   0.484   3.057
 1713SOL    HW3 6980   0.706   0.616   3.088
 1713SOL    MW4 6981   0.701   0.534   3.059
 1714SOL     OW 6982   0.727   0.793   3.152
 1714SOL    HW2 6983   0.712   0.775   3.245
 1714SOL    HW3 6984   0.640   0.808   3.116
 1714SOL    MW4 6985   0.714   0.793   3.159
 1715SOL     OW 6986   0.473   0.855   3.023
 1715SOL    HW2 6987   0.393   0.818   3.061
 1715SOL    HW3 6988   0.455   0.862   2.929
 1715SOL    MW4 6989   0.460   0.851   3.016
 1716SOL     OW 6990   0.455   1.109   3.152
 1716SOL    HW2 6991   0.477   1.030   3.103
 1716SOL    HW3 6992   0.381   1.147   3.105
 1716SOL    MW4 6993   0.448   1.104   3.139
 1717SOL     OW 6994   0.673   1.257   3.048
 1717SOL    HW2 6995   0.756   1.232   3.089
 1717SOL    HW3 6996   0.608   1.205   3.094
 1717SOL    MW4 6997   0.676   1.247   3.060
 1718SOL     OW 6998   0.670   1.529   3.115
 1718SOL    HW2 6999   0.699   1.535   3.206
 1718SOL    HW3 7000   0.674   1.435   3.096
 1718SOL    MW4 7001   0.675   1.517   3.125
 1719SOL     OW 7002   0.456   1.666   3.001
 1719SOL    HW2 7003   0.529   1.635   3.054
 1719SOL    HW3 7004   0.386   1.604   3.018
 1719SOL    MW4 7005   0.457   1.653   3.010
 1720SOL     OW 7006   0.408   1.920   3.073
 1720SOL    HW2 7007   0.417   1.829   3.045
 1720SOL    HW3 7008   0.329   1.952   3.028
 1720SOL    MW4 7009   0.399   1.913   3.064
 1721SOL     OW 7010   0.637   2.082   2.975
 1721SOL    HW2 7011   0.700   2.035   3.029
 1721SOL    HW3 7012   0.557   2.029   2.979
 1721SOL    MW4 7013   0.635   2.069   2.983
 1722SOL     OW 7014   0.662   2.343   3.092
 1722SOL    HW2 7015   0.646   2.337   3.186
 1722SOL    HW3 7016   0.650   2.253   3.061
 1722SOL    MW4 7017   0.658   2.330   3.101
 1723SOL     OW 7018   0.437   2.475   3.025
 1723SOL    HW2 7019   0.511   2.419   3.050
 1723SOL    HW3 7020   0.436   2.473   2.930
 1723SOL    MW4 7021   0.447   2.467   3.016
 1724SOL     OW 7022   0.434   2.739   3.128
 1724SOL    HW2 7023   0.506   2.781   3.081
 1724SOL    HW3 7024   0.437   2.647   3.101
 1724SOL    MW4 7025   0.444   2.733   3.118
 1725SOL     OW 7026   0.660   2.857   3.021
 1725SOL    HW2 7027   0.740   2.814   3.048
 1725SOL    HW3 7028   0.669   2.947   3.052
 1725SOL    MW4 7029   0.672   2.864   3.028
 1726SOL     OW 7030   0.683   3.120   3.147
 1726SOL    HW2 7031   0.668   3.117   3.242
 1726SOL    HW3 7032   0.602   3.156   3.111
 1726SOL    MW4 7033   0.670   3.124   3.155
 1727SOL     OW 7034   0.428   3.185   3.055
 1727SOL    HW2 7035   0.426   3.281   3.060
 1727SOL    HW3 7036   0.342   3.157   3.086
 1727SOL    MW4 7037   0.416   3.194   3.059
 1728SOL     OW 7038   0.423   3.465   3.084
 1728SOL    HW2 7039   0.419   3.477   3.179
 1728SOL    HW3 7040   0.345   3.509   3.051
 1728SOL    MW4 7041   0.412   3.472   3.092
 1729SOL     OW 7042   0.626   3.625   2.987
 1729SOL    HW2 7043   0.714   3.605   3.019
 1729SOL    HW3 7044   0.570   3.558   3.029
 1729SOL    MW4 7045   0.630   3.613   2.997
 1730SOL     OW 7046   0.663   3.874   3.087
 1730SOL    HW2 7047   0.696   3.871   3.177
 1730SOL    HW3 7048   0.641   3.784   3.066
 1730SOL    MW4 7049   0.665   3.862   3.096
 1731SOL     OW 7050   0.450   4.044   3.034
 1731SOL    HW2 7051   0.530   3.994   3.049
 1731SOL    HW3 7052   0.438   4.043   2.939
 1731SOL    MW4 7053   0.459   4.038   3.024
 1732SOL     OW 7054   0.451   4.286   3.162
 1732SOL    HW2 7055   0.458   4.202   3.119
 1732SOL    HW3 7056   0.372   4.326   3.126
 1732SOL    MW4 7057   0.442   4.280   3.152
 1733SOL     OW 7058   0.693   4.387   3.060
 1733SOL    HW2 7059   0.604   4.354   3.072
 1733SOL    HW3 7060   0.704   4.391   2.965
 1733SOL    MW4 7061   0.683   4.383   3.049
 1734SOL     OW 7062   1.077   4.635   3.125
 1734SOL    HW2 7063   1.149   4.694   3.102
 1734SOL    HW3 7064   1.006   4.660   3.065
 1734SOL    MW4 7065   1.077   4.646   3.114
 1735SOL     OW 7066   0.875   0.098   2.993
 1735SOL    HW2 7067   0.903   0.182   3.028
 1735SOL    HW3 7068   0.804   0.070   3.050
 1735SOL    MW4 7069   0.869   0.105   3.005
 1736SOL     OW 7070   0.898   0.346   3.125
 1736SOL    HW2 7071   0.895   0.351   3.220
 1736SOL    HW3 7072   0.977   0.395   3.100
 1736SOL    MW4 7073   0.908   0.353   3.134
 1737SOL     OW 7074   1.112   0.475   3.013
 1737SOL    HW2 7075   1.198   0.436   3.031
 1737SOL    HW3 7076   1.100   0.463   2.919
 1737SOL    MW4 7077   1.122   0.468   3.003
 1738SOL     OW 7078   1.113   0.759   3.122
 1738SOL    HW2 7079   1.113   0.740   3.216
 1738SOL    HW3 7080   1.107   0.674   3.080
 1738SOL    MW4 7081   1.112   0.745   3.129
 1739SOL     OW 7082   0.927   0.931   3.013
 1739SOL    HW2 7083   0.981   0.869   3.062
 1739SOL    HW3 7084   0.838   0.898   3.025
 1739SOL    MW4 7085   0.922   0.918   3.021
 1740SOL     OW 7086   0.912   1.183   3.143
 1740SOL    HW2 7087   1.000   1.218   3.130
 1740SOL    HW3 7088   0.917   1.093   3.112
 1740SOL    MW4 7089   0.924   1.176   3.137
 1741SOL     OW 7090   1.169   1.280   3.087
 1741SOL    HW2 7091   1.260   1.252   3.096
 1741SOL    HW3 7092   1.159   1.297   2.993
 1741SOL    MW4 7093   1.180   1.278   3.076
 1742SOL     OW 7094   1.111   1.570   3.117
 1742SOL    HW2 7095   1.198   1.604   3.096
 1742SOL    HW3 7096   1.121   1.475   3.109
 1742SOL    MW4 7097   1.124   1.562   3.113
 1743SOL     OW 7098   0.878   1.669   2.992
 1743SOL    HW2 7099   0.950   1.638   3.047
 1743SOL    HW3 7100   0.802   1.621   3.024
 1743SOL    MW4 7101   0.878   1.658   3.004
 1744SOL     OW 7102   0.829   1.930   3.082
 1744SOL    HW2 7103   0.831   1.899   3.173
 1744SOL    HW3 7104   0.845   1.851   3.030
 1744SOL    MW4 7105   0.831   1.915   3.087
 1745SOL     OW 7106   1.076   2.043   3.005
 1745SOL    HW2 7107   0.991   2.011   3.037
 1745SOL    HW3 7108   1.066   2.047   2.910
 1745SOL    MW4 7109   1.063   2.039   2.997
 1746SOL     OW 7110   1.128   2.297   3.105
 1746SOL    HW2 7111   1.050   2.345   3.076
 1746SOL    HW3 7112   1.117   2.209   3.069
 1746SOL    MW4 7113   1.116   2.292   3.096
 1747SOL     OW 7114   0.909   2.444   3.033
 1747SOL    HW2 7115   0.822   2.405   3.037
 1747SOL    HW3 7116   0.934   2.439   2.941
 1747SOL    MW4 7117   0.901   2.438   3.021
 1748SOL     OW 7118   0.896   2.724   3.114
 1748SOL    HW2 7119   0.901   2.723   3.209
 1748SOL    HW3 7120   0.898   2.632   3.088
 1748SOL    MW4 7121   0.897   2.712   3.123
 1749SOL     OW 7122   1.131   2.821   2.994
 1749SOL    HW2 7123   1.144   2.910   3.027
 1749SOL    HW3 7124   1.051   2.791   3.037
 1749SOL    MW4 7125   1.122   2.829   3.004
 1750SOL     OW 7126   1.148   3.096   3.105
 1750SOL    HW2 7127   1.218   3.147   3.066
 1750SOL    HW3 7128   1.067   3.141   3.078
 1750SOL    MW4 7129   1.146   3.109   3.097
 1751SOL     OW 7130   0.913   3.216   3.044
 1751SOL    HW2 7131   0.831   3.178   3.074
 1751SOL    HW3 7132   0.903   3.225   2.949
 1751SOL    MW4 7133   0.901   3.212   3.035
 1752SOL     OW 7134   0.862   3.499   3.097
 1752SOL    HW2 7135   0.940   3.548   3.072
 1752SOL    HW3 7136   0.885   3.408   3.083
 1752SOL    MW4 7137   0.876   3.494   3.092
 1753SOL     OW 7138   1.097   3.623   3.051
 1753SOL    HW2 7139   1.185   3.591   3.069
 1753SOL    HW3 7140   1.095   3.710   3.091
 1753SOL    MW4 7141   1.108   3.630   3.059
 1754SOL     OW 7142   1.113   3.882   3.144
 1754SOL    HW2 7143   1.094   3.890   3.238
 1754SOL    HW3 7144   1.039   3.925   3.101
 1754SOL    MW4 7145   1.101   3.889   3.151
 1755SOL     OW 7146   0.893   4.003   3.014
 1755SOL    HW2 7147   0.806   3.975   3.042
 1755SOL    HW3 7148   0.890   3.999   2.919
 1755SOL    MW4 7149   0.881   3.999   3.005
 1756SOL     OW 7150   0.927   4.260   3.155
 1756SOL    HW2 7151   0.933   4.175   3.111
 1756SOL    HW3 7152   0.841   4.293   3.131
 1756SOL    MW4 7153   0.916   4.253   3.146
 1757SOL     OW 7154   1.107   4.415   2.980
 1757SOL    HW2 7155   1.029   4.370   3.012
 1757SOL    HW3 7156   1.112   4.494   3.033
 1757SOL    MW4 7157   1.097   4.419   2.991
 1758SOL     OW 7158   1.536   4.646   3.123
 1758SOL    HW2 7159   1.545   4.648   3.219
 1758SOL    HW3 7160   1.451   4.687   3.107
 1758SOL    MW4 7161   1.526   4.652   3.134
 1759SOL     OW 7162   1.295   0.103   3.014
 1759SOL    HW2 7163   1.326   0.192   3.030
 1759SOL    HW3 7164   1.314   0.087   2.922
 1759SOL    MW4 7165   1.302   0.113   3.004
 1760SOL     OW 7166   1.371   0.373   3.100
 1760SOL    HW2 7167   1.355   0.384   3.194
 1760SOL    HW3 7168   1.445   0.430   3.081
 1760SOL    MW4 7169   1.379   0.382   3.110
 1761SOL     OW 7170   1.599   0.512   3.018
 1761SOL    HW2 7171   1.604   0.604   3.045
 1761SOL    HW3 7172   1.589   0.515   2.923
 1761SOL    MW4 7173   1.599   0.525   3.009
 1762SOL     OW 7174   1.642   0.770   3.118
 1762SOL    HW2 7175   1.640   0.758   3.213
 1762SOL    HW3 7176   1.553   0.795   3.095
 1762SOL    MW4 7177   1.630   0.772   3.127
 1763SOL     OW 7178   1.360   0.857   3.050
 1763SOL    HW2 7179   1.368   0.950   3.068
 1763SOL    HW3 7180   1.277   0.831   3.090
 1763SOL    MW4 7181   1.350   0.866   3.058
 1764SOL     OW 7182   1.389   1.118   3.119
 1764SOL    HW2 7183   1.381   1.125   3.214
 1764SOL    HW3 7184   1.473   1.158   3.099
 1764SOL    MW4 7185   1.399   1.125   3.129
 1765SOL     OW 7186   1.594   1.297   3.037
 1765SOL    HW2 7187   1.677   1.261   3.066
 1765SOL    HW3 7188   1.596   1.389   3.065
 1765SOL    MW4 7189   1.605   1.305   3.044
 1766SOL     OW 7190   1.590   1.553   3.119
 1766SOL    HW2 7191   1.668   1.596   3.084
 1766SOL    HW3 7192   1.518   1.613   3.095
 1766SOL    MW4 7193   1.591   1.567   3.111
 1767SOL     OW 7194   1.346   1.695   3.041
 1767SOL    HW2 7195   1.342   1.790   3.055
 1767SOL    HW3 7196   1.333   1.684   2.947
 1767SOL    MW4 7197   1.344   1.706   3.031
 1768SOL     OW 7198   1.336   1.974   3.089
 1768SOL    HW2 7199   1.333   1.973   3.185
 1768SOL    HW3 7200   1.249   2.002   3.062
 1768SOL    MW4 7201   1.325   1.977   3.098
 1769SOL     OW 7202   1.608   2.051   3.010
 1769SOL    HW2 7203   1.524   2.018   3.041
 1769SOL    HW3 7204   1.599   2.052   2.915
 1769SOL    MW4 7205   1.595   2.047   3.002
 1770SOL     OW 7206   1.570   2.329   3.072
 1770SOL    HW2 7207   1.497   2.356   3.016
 1770SOL    HW3 7208   1.581   2.236   3.053
 1770SOL    MW4 7209   1.562   2.320   3.062
 1771SOL     OW 7210   1.360   2.484   2.989
 1771SOL    HW2 7211   1.286   2.436   3.028
 1771SOL    HW3 7212   1.343   2.481   2.895
 1771SOL    MW4 7213   1.348   2.477   2.982
 1772SOL     OW 7214   1.372   2.741   3.110
 1772SOL    HW2 7215   1.362   2.649   3.086
 1772SOL    HW3 7216   1.289   2.782   3.086
 1772SOL    MW4 7217   1.360   2.734   3.104
 1773SOL     OW 7218   1.578   2.862   2.983
 1773SOL    HW2 7219   1.647   2.808   3.020
 1773SOL    HW3 7220   1.497   2.828   3.021
 1773SOL    MW4 7221   1.577   2.851   2.993
 1774SOL     OW 7222   1.602   3.117   3.107
 1774SOL    HW2 7223   1.618   3.114   3.201
 1774SOL    HW3 7224   1.601   3.025   3.080
 1774SOL    MW4 7225   1.604   3.104   3.116
 1775SOL     OW 7226   1.361   3.215   2.994
 1775SOL    HW2 7227   1.435   3.183   3.046
 1775SOL    HW3 7228   1.391   3.212   2.904
 1775SOL    MW4 7229   1.374   3.211   2.989
 1776SOL     OW 7230   1.336   3.490   3.105
 1776SOL    HW2 7231   1.347   3.468   3.198
 1776SOL    HW3 7232   1.339   3.406   3.060
 1776SOL    MW4 7233   1.338   3.476   3.111
 1777SOL     OW 7234   1.551   3.643   2.993
 1777SOL    HW2 7235   1.486   3.582   3.028
 1777SOL    HW3 7236   1.544   3.633   2.898
 1777SOL    MW4 7237   1.542   3.634   2.985
 1778SOL     OW 7238   1.566   3.893   3.163
 1778SOL    HW2 7239   1.650   3.932   3.141
 1778SOL    HW3 7240   1.562   3.812   3.112
 1778SOL    MW4 7241   1.576   3.888   3.153
 1779SOL     OW 7242   1.342   3.986   3.013
 1779SOL    HW2 7243   1.421   3.976   3.066
 1779SOL    HW3 7244   1.277   3.930   3.057
 1779SOL    MW4 7245   1.344   3.977   3.026
 1780SOL     OW 7246   1.290   4.255   3.111
 1780SOL    HW2 7247   1.299   4.166   3.076
 1780SOL    HW3 7248   1.227   4.297   3.052
 1780SOL    MW4 7249   1.283   4.249   3.098
 1781SOL     OW 7250   1.498   4.399   3.006
 1781SOL    HW2 7251   1.423   4.356   3.047
 1781SOL    HW3 7252   1.495   4.489   3.039
 1781SOL    MW4 7253   1.488   4.405   3.016
 1782SOL     OW 7254   2.020   4.658   3.124
 1782SOL    HW2 7255   2.016   4.646   3.218
 1782SOL    HW3 7256   1.943   4.711   3.103
 1782SOL    MW4 7257   2.010   4.664   3.133
 1783SOL     OW 7258   1.773   0.111   3.065
 1783SOL    HW2 7259   1.694   0.060   3.079
 1783SOL    HW3 7260   1.777   0.123   2.970
 1783SOL    MW4 7261   1.763   0.106   3.054
 1784SOL     OW 7262   1.786   0.372   3.146
 1784SOL    HW2 7263   1.767   0.280   3.127
 1784SOL    HW3 7264   1.708   0.419   3.117
 1784SOL    MW4 7265   1.773   0.366   3.139
 1785SOL     OW 7266   1.974   0.521   3.016
 1785SOL    HW2 7267   1.916   0.468   3.071
 1785SOL    HW3 7268   1.950   0.498   2.926
 1785SOL    MW4 7269   1.963   0.511   3.011
 1786SOL     OW 7270   2.045   0.781   3.056
 1786SOL    HW2 7271   1.963   0.819   3.024
 1786SOL    HW3 7272   2.031   0.687   3.054
 1786SOL    MW4 7273   2.033   0.774   3.051
 1787SOL     OW 7274   1.830   0.925   2.994
 1787SOL    HW2 7275   1.764   0.868   3.034
 1787SOL    HW3 7276   1.811   0.922   2.901
 1787SOL    MW4 7277   1.819   0.917   2.987
 1788SOL     OW 7278   1.831   1.169   3.119
 1788SOL    HW2 7279   1.818   1.158   3.214
 1788SOL    HW3 7280   1.844   1.079   3.087
 1788SOL    MW4 7281   1.831   1.155   3.127
 1789SOL     OW 7282   2.049   1.280   2.978
 1789SOL    HW2 7283   2.122   1.236   3.023
 1789SOL    HW3 7284   1.971   1.249   3.024
 1789SOL    MW4 7285   2.048   1.270   2.990
 1790SOL     OW 7286   2.047   1.548   3.103
 1790SOL    HW2 7287   2.040   1.528   3.197
 1790SOL    HW3 7288   2.053   1.462   3.061
 1790SOL    MW4 7289   2.047   1.534   3.110
 1791SOL     OW 7290   1.803   1.687   3.007
 1791SOL    HW2 7291   1.835   1.771   3.039
 1791SOL    HW3 7292   1.879   1.629   3.013
 1791SOL    MW4 7293   1.817   1.690   3.012
 1792SOL     OW 7294   1.862   1.950   3.086
 1792SOL    HW2 7295   1.929   1.998   3.038
 1792SOL    HW3 7296   1.780   1.992   3.061
 1792SOL    MW4 7297   1.860   1.962   3.077
 1793SOL     OW 7298   2.054   2.129   2.981
 1793SOL    HW2 7299   2.130   2.082   3.016
 1793SOL    HW3 7300   2.057   2.215   3.023
 1793SOL    MW4 7301   2.064   2.134   2.991
 1794SOL     OW 7302   2.080   2.356   3.118
 1794SOL    HW2 7303   2.161   2.386   3.076
 1794SOL    HW3 7304   2.011   2.405   3.075
 1794SOL    MW4 7305   2.082   2.366   3.107
 1795SOL     OW 7306   1.824   2.438   2.994
 1795SOL    HW2 7307   1.809   2.532   3.007
 1795SOL    HW3 7308   1.737   2.399   3.008
 1795SOL    MW4 7309   1.810   2.446   2.997
 1796SOL     OW 7310   1.788   2.711   3.072
 1796SOL    HW2 7311   1.786   2.709   3.168
 1796SOL    HW3 7312   1.875   2.745   3.050
 1796SOL    MW4 7313   1.799   2.715   3.082
 1797SOL     OW 7314   2.028   2.844   3.041
 1797SOL    HW2 7315   2.033   2.936   3.066
 1797SOL    HW3 7316   2.036   2.845   2.945
 1797SOL    MW4 7317   2.030   2.857   3.031
 1798SOL     OW 7318   2.038   3.095   3.103
 1798SOL    HW2 7319   2.038   3.122   3.195
 1798SOL    HW3 7320   1.958   3.132   3.067
 1798SOL    MW4 7321   2.028   3.103   3.110
 1799SOL     OW 7322   1.830   3.240   2.983
 1799SOL    HW2 7323   1.748   3.200   3.014
 1799SOL    HW3 7324   1.826   3.230   2.888
 1799SOL    MW4 7325   1.818   3.233   2.975
 1800SOL     OW 7326   1.789   3.530   3.077
 1800SOL    HW2 7327   1.775   3.444   3.037
 1800SOL    HW3 7328   1.716   3.583   3.045
 1800SOL    MW4 7329   1.777   3.525   3.067
 1801SOL     OW 7330   2.038   3.630   2.981
 1801SOL    HW2 7331   2.042   3.710   3.033
 1801SOL    HW3 7332   1.955   3.590   3.004
 1801SOL    MW4 7333   2.028   3.635   2.991
 1802SOL     OW 7334   2.019   3.871   3.115
 1802SOL    HW2 7335   2.039   3.871   3.208
 1802SOL    HW3 7336   1.943   3.929   3.107
 1802SOL    MW4 7337   2.011   3.879   3.126
 1803SOL     OW 7338   1.793   4.035   3.075
 1803SOL    HW2 7339   1.772   4.126   3.095
 1803SOL    HW3 7340   1.790   4.030   2.980
 1803SOL    MW4 7341   1.790   4.046   3.065
 1804SOL     OW 7342   1.726   4.300   3.133
 1804SOL    HW2 7343   1.789   4.358   3.091
 1804SOL    HW3 7344   1.640   4.334   3.107
 1804SOL    MW4 7345   1.723   4.312   3.124
 1805SOL     OW 7346   1.958   4.409   3.026
 1805SOL    HW2 7347   1.960   4.493   3.070
 1805SOL    HW3 7348   1.997   4.426   2.940
 1805SOL    MW4 7349   1.963   4.422   3.020
 1806SOL     OW 7350   2.453   4.627   3.164
 1806SOL    HW2 7351   2.463   4.547   3.113
 1806SOL    HW3 7352   2.377   4.670   3.126
 1806SOL    MW4 7353   2.444   4.622   3.152
 1807SOL     OW 7354   2.271   0.102   3.018
 1807SOL    HW2 7355   2.255   0.196   3.029
 1807SOL    HW3 7356   2.193   0.061   3.056
 1807SOL    MW4 7357   2.259   0.109   3.025
 1808SOL     OW 7358   2.188   0.357   3.073
 1808SOL    HW2 7359   2.190   0.381   3.165
 1808SOL    HW3 7360   2.106   0.394   3.041
 1808SOL    MW4 7361   2.177   0.365   3.081
 1809SOL     OW 7362   2.401   0.517   3.004
 1809SOL    HW2 7363   2.315   0.477   3.009
 1809SOL    HW3 7364   2.417   0.529   2.910
 1809SOL    MW4 7365   2.392   0.513   2.992
 1810SOL     OW 7366   2.458   0.752   3.108
 1810SOL    HW2 7367   2.541   0.770   3.063
 1810SOL    HW3 7368   2.432   0.665   3.076
 1810SOL    MW4 7369   2.466   0.743   3.098
 1811SOL     OW 7370   2.285   0.919   2.978
 1811SOL    HW2 7371   2.347   0.873   3.035
 1811SOL    HW3 7372   2.201   0.877   2.994
 1811SOL    MW4 7373   2.282   0.907   2.987
 1812SOL     OW 7374   2.298   1.176   3.100
 1812SOL    HW2 7375   2.294   1.161   3.195
 1812SOL    HW3 7376   2.309   1.089   3.063
 1812SOL    MW4 7377   2.299   1.163   3.108
 1813SOL     OW 7378   2.515   1.321   2.985
 1813SOL    HW2 7379   2.437   1.281   3.024
 1813SOL    HW3 7380   2.499   1.317   2.891
 1813SOL    MW4 7381   2.502   1.315   2.978
 1814SOL     OW 7382   2.480   1.566   3.094
 1814SOL    HW2 7383   2.392   1.593   3.068
 1814SOL    HW3 7384   2.494   1.483   3.049
 1814SOL    MW4 7385   2.470   1.559   3.084
 1815SOL     OW 7386   2.249   1.700   3.010
 1815SOL    HW2 7387   2.181   1.654   3.060
 1815SOL    HW3 7388   2.214   1.705   2.921
 1815SOL    MW4 7389   2.235   1.695   3.005
 1816SOL     OW 7390   2.243   1.959   3.098
 1816SOL    HW2 7391   2.319   2.006   3.064
 1816SOL    HW3 7392   2.251   1.870   3.063
 1816SOL    MW4 7393   2.254   1.953   3.089
 1817SOL     OW 7394   2.470   2.110   2.997
 1817SOL    HW2 7395   2.548   2.070   3.036
 1817SOL    HW3 7396   2.475   2.087   2.904
 1817SOL    MW4 7397   2.481   2.101   2.990
 1818SOL     OW 7398   2.488   2.359   3.110
 1818SOL    HW2 7399   2.481   2.344   3.204
 1818SOL    HW3 7400   2.484   2.272   3.071
 1818SOL    MW4 7401   2.487   2.346   3.117
 1819SOL     OW 7402   2.285   2.469   2.965
 1819SOL    HW2 7403   2.281   2.552   3.013
 1819SOL    HW3 7404   2.355   2.420   3.009
 1819SOL    MW4 7405   2.294   2.473   2.977
 1820SOL     OW 7406   2.256   2.694   3.113
 1820SOL    HW2 7407   2.321   2.753   3.076
 1820SOL    HW3 7408   2.175   2.745   3.114
 1820SOL    MW4 7409   2.254   2.709   3.109
 1821SOL     OW 7410   2.484   2.835   3.034
 1821SOL    HW2 7411   2.506   2.922   3.067
 1821SOL    HW3 7412   2.487   2.844   2.939
 1821SOL    MW4 7413   2.488   2.848   3.026
 1822SOL     OW 7414   2.530   3.106   3.106
 1822SOL    HW2 7415   2.610   3.153   3.083
 1822SOL    HW3 7416   2.460   3.158   3.066
 1822SOL    MW4 7417   2.531   3.119   3.098
 1823SOL     OW 7418   2.282   3.215   3.030
 1823SOL    HW2 7419   2.264   3.307   3.048
 1823SOL    HW3 7420   2.204   3.169   3.062
 1823SOL    MW4 7421   2.269   3.221   3.037
 1824SOL     OW 7422   2.229   3.475   3.102
 1824SOL    HW2 7423   2.302   3.514   3.055
 1824SOL    HW3 7424   2.151   3.509   3.058
 1824SOL    MW4 7425   2.228   3.484   3.090
 1825SOL     OW 7426   2.430   3.617   2.967
 1825SOL    HW2 7427   2.509   3.570   2.994
 1825SOL    HW3 7428   2.431   3.698   3.018
 1825SOL    MW4 7429   2.440   3.621   2.977
 1826SOL     OW 7430   2.472   3.872   3.105
 1826SOL    HW2 7431   2.477   3.869   3.200
 1826SOL    HW3 7432   2.556   3.910   3.078
 1826SOL    MW4 7433   2.484   3.877   3.114
 1827SOL     OW 7434   2.234   4.020   3.023
 1827SOL    HW2 7435   2.308   3.965   3.052
 1827SOL    HW3 7436   2.156   3.972   3.053
 1827SOL    MW4 7437   2.234   4.006   3.031
 1828SOL     OW 7438   2.194   4.268   3.154
 1828SOL    HW2 7439   2.215   4.179   3.125
 1828SOL    HW3 7440   2.103   4.281   3.127
 1828SOL    MW4 7441   2.185   4.258   3.146
 1829SOL     OW 7442   2.444   4.374   3.057
 1829SOL    HW2 7443   2.361   4.333   3.083
 1829SOL    HW3 7444   2.437   4.381   2.962
 1829SOL    MW4 7445   2.432   4.369   3.048
 1830SOL     OW 7446   2.885   0.037   3.107
 1830SOL    HW2 7447   2.970   0.064   3.073
 1830SOL    HW3 7448   2.882  -0.058   3.091
 1830SOL    MW4 7449   2.896   0.028   3.100
 1831SOL     OW 7450   2.640   0.127   3.002
 1831SOL    HW2 7451   2.721   0.091   3.039
 1831SOL    HW3 7452   2.571   0.073   3.039
 1831SOL    MW4 7453   2.642   0.115   3.012
 1832SOL     OW 7454   2.630   0.388   3.084
 1832SOL    HW2 7455   2.637   0.298   3.050
 1832SOL    HW3 7456   2.544   0.418   3.055
 1832SOL    MW4 7457   2.620   0.380   3.076
 1833SOL     OW 7458   2.875   0.466   2.984
 1833SOL    HW2 7459   2.799   0.418   3.016
 1833SOL    HW3 7460   2.872   0.456   2.889
 1833SOL    MW4 7461   2.865   0.458   2.976
 1834SOL     OW 7462   2.930   0.741   3.051
 1834SOL    HW2 7463   2.924   0.736   3.146
 1834SOL    HW3 7464   2.922   0.650   3.021
 1834SOL    MW4 7465   2.928   0.728   3.059
 1835SOL     OW 7466   2.683   0.868   2.998
 1835SOL    HW2 7467   2.692   0.961   3.018
 1835SOL    HW3 7468   2.772   0.833   3.007
 1835SOL    MW4 7469   2.696   0.876   3.002
 1836SOL     OW 7470   2.719   1.127   3.069
 1836SOL    HW2 7471   2.802   1.173   3.052
 1836SOL    HW3 7472   2.652   1.195   3.062
 1836SOL    MW4 7473   2.721   1.142   3.066
 1837SOL     OW 7474   2.933   1.289   3.006
 1837SOL    HW2 7475   3.019   1.250   3.021
 1837SOL    HW3 7476   2.937   1.373   3.052
 1837SOL    MW4 7477   2.945   1.295   3.014
 1838SOL     OW 7478   2.923   1.569   3.110
 1838SOL    HW2 7479   2.928   1.594   3.202
 1838SOL    HW3 7480   3.003   1.604   3.071
 1838SOL    MW4 7481   2.934   1.577   3.117
 1839SOL     OW 7482   2.712   1.730   3.020
 1839SOL    HW2 7483   2.785   1.677   3.051
 1839SOL    HW3 7484   2.636   1.673   3.027
 1839SOL    MW4 7485   2.711   1.716   3.025
 1840SOL     OW 7486   2.704   2.001   3.095
 1840SOL    HW2 7487   2.790   2.028   3.064
 1840SOL    HW3 7488   2.698   1.908   3.071
 1840SOL    MW4 7489   2.714   1.992   3.088
 1841SOL     OW 7490   2.957   2.059   3.011
 1841SOL    HW2 7491   2.936   2.151   3.028
 1841SOL    HW3 7492   2.950   2.050   2.916
 1841SOL    MW4 7493   2.954   2.070   3.001
 1842SOL     OW 7494   2.898   2.324   3.068
 1842SOL    HW2 7495   2.981   2.367   3.047
 1842SOL    HW3 7496   2.831   2.385   3.036
 1842SOL    MW4 7497   2.900   2.337   3.061
 1843SOL     OW 7498   2.700   2.491   2.971
 1843SOL    HW2 7499   2.722   2.568   3.023
 1843SOL    HW3 7500   2.634   2.445   3.022
 1843SOL    MW4 7501   2.694   2.495   2.984
 1844SOL     OW 7502   2.726   2.718   3.131
 1844SOL    HW2 7503   2.737   2.715   3.226
 1844SOL    HW3 7504   2.636   2.746   3.118
 1844SOL    MW4 7505   2.716   2.721   3.142
 1845SOL     OW 7506   2.921   2.859   2.966
 1845SOL    HW2 7507   3.004   2.823   2.995
 1845SOL    HW3 7508   2.855   2.799   3.003
 1845SOL    MW4 7509   2.923   2.846   2.975
 1846SOL     OW 7510   2.923   3.092   3.118
 1846SOL    HW2 7511   2.873   3.155   3.066
 1846SOL    HW3 7512   2.906   3.007   3.078
 1846SOL    MW4 7513   2.914   3.089   3.106
 1847SOL     OW 7514   2.735   3.252   2.985
 1847SOL    HW2 7515   2.704   3.338   3.013
 1847SOL    HW3 7516   2.736   3.257   2.889
 1847SOL    MW4 7517   2.731   3.264   2.976
 1848SOL     OW 7518   2.658   3.489   3.082
 1848SOL    HW2 7519   2.672   3.472   3.175
 1848SOL    HW3 7520   2.737   3.535   3.054
 1848SOL    MW4 7521   2.670   3.493   3.091
 1849SOL     OW 7522   2.918   3.599   2.977
 1849SOL    HW2 7523   2.993   3.566   3.026
 1849SOL    HW3 7524   2.917   3.693   2.994
 1849SOL    MW4 7525   2.928   3.607   2.986
 1850SOL     OW 7526   2.926   3.859   3.083
 1850SOL    HW2 7527   2.935   3.860   3.179
 1850SOL    HW3 7528   2.843   3.903   3.067
 1850SOL    MW4 7529   2.916   3.865   3.094
 1851SOL     OW 7530   2.693   3.966   2.996
 1851SOL    HW2 7531   2.688   4.055   3.032
 1851SOL    HW3 7532   2.690   3.978   2.901
 1851SOL    MW4 7533   2.692   3.979   2.989
 1852SOL     OW 7534   2.667   4.218   3.128
 1852SOL    HW2 7535   2.688   4.243   3.218
 1852SOL    HW3 7536   2.588   4.268   3.107
 1852SOL    MW4 7537   2.659   4.228   3.137
 1853SOL     OW 7538   2.854   4.428   3.033
 1853SOL    HW2 7539   2.939   4.393   3.060
 1853SOL    HW3 7540   2.790   4.365   3.066
 1853SOL    MW4 7541   2.857   4.415   3.041
 1854SOL     OW 7542   3.362   4.657   3.145
 1854SOL    HW2 7543   3.427   4.705   3.094
 1854SOL    HW3 7544   3.354   4.573   3.100
 1854SOL    MW4 7545   3.370   4.652   3.132
 1855SOL     OW 7546   3.139   0.075   2.993
 1855SOL    HW2 7547   3.131   0.164   3.029
 1855SOL    HW3 7548   3.221   0.042   3.031
 1855SOL    MW4 7549   3.149   0.082   3.003
 1856SOL     OW 7550   3.086   0.334   3.098
 1856SOL    HW2 7551   3.162   0.384   3.069
 1856SOL    HW3 7552   3.012   0.373   3.050
 1856SOL    MW4 7553   3.086   0.346   3.088
 1857SOL     OW 7554   3.331   0.440   3.021
 1857SOL    HW2 7555   3.419   0.418   3.052
 1857SOL    HW3 7556   3.344   0.469   2.931
 1857SOL    MW4 7557   3.345   0.441   3.013
 1858SOL     OW 7558   3.362   0.745   3.090
 1858SOL    HW2 7559   3.357   0.746   3.186
 1858SOL    HW3 7560   3.336   0.656   3.066
 1858SOL    MW4 7561   3.358   0.733   3.100
 1859SOL     OW 7562   3.140   0.889   2.961
 1859SOL    HW2 7563   3.211   0.853   3.014
 1859SOL    HW3 7564   3.062   0.842   2.990
 1859SOL    MW4 7565   3.139   0.878   2.972
 1860SOL     OW 7566   3.168   1.164   3.058
 1860SOL    HW2 7567   3.256   1.198   3.040
 1860SOL    HW3 7568   3.160   1.087   3.003
 1860SOL    MW4 7569   3.179   1.159   3.048
 1861SOL     OW 7570   3.421   1.271   2.954
 1861SOL    HW2 7571   3.484   1.231   3.015
 1861SOL    HW3 7572   3.404   1.358   2.991
 1861SOL    MW4 7573   3.427   1.277   2.967
 1862SOL     OW 7574   3.392   1.525   3.050
 1862SOL    HW2 7575   3.416   1.518   3.142
 1862SOL    HW3 7576   3.454   1.588   3.013
 1862SOL    MW4 7577   3.403   1.532   3.057
 1863SOL     OW 7578   3.181   1.678   3.013
 1863SOL    HW2 7579   3.255   1.622   3.037
 1863SOL    HW3 7580   3.174   1.670   2.918
 1863SOL    MW4 7581   3.190   1.669   3.004
 1864SOL     OW 7582   3.192   1.926   3.106
 1864SOL    HW2 7583   3.199   1.840   3.065
 1864SOL    HW3 7584   3.119   1.968   3.061
 1864SOL    MW4 7585   3.183   1.920   3.094
 1865SOL     OW 7586   3.377   2.107   3.004
 1865SOL    HW2 7587   3.462   2.063   3.008
 1865SOL    HW3 7588   3.316   2.046   3.046
 1865SOL    MW4 7589   3.380   2.094   3.010
 1866SOL     OW 7590   3.360   2.375   3.080
 1866SOL    HW2 7591   3.366   2.355   3.173
 1866SOL    HW3 7592   3.375   2.291   3.037
 1866SOL    MW4 7593   3.363   2.361   3.087
 1867SOL     OW 7594   3.123   2.468   2.982
 1867SOL    HW2 7595   3.191   2.414   3.023
 1867SOL    HW3 7596   3.134   2.452   2.888
 1867SOL    MW4 7597   3.134   2.459   2.975
 1868SOL     OW 7598   3.145   2.734   3.083
 1868SOL    HW2 7599   3.165   2.720   3.176
 1868SOL    HW3 7600   3.133   2.646   3.048
 1868SOL    MW4 7601   3.146   2.720   3.091
 1869SOL     OW 7602   3.393   2.840   3.027
 1869SOL    HW2 7603   3.400   2.934   3.045
 1869SOL    HW3 7604   3.301   2.819   3.046
 1869SOL    MW4 7605   3.381   2.850   3.032
 1870SOL     OW 7606   3.427   3.111   3.120
 1870SOL    HW2 7607   3.429   3.113   3.216
 1870SOL    HW3 7608   3.343   3.149   3.097
 1870SOL    MW4 7609   3.416   3.116   3.130
 1871SOL     OW 7610   3.162   3.201   3.038
 1871SOL    HW2 7611   3.084   3.155   3.068
 1871SOL    HW3 7612   3.150   3.208   2.943
 1871SOL    MW4 7613   3.150   3.196   3.029
 1872SOL     OW 7614   3.141   3.485   3.110
 1872SOL    HW2 7615   3.222   3.524   3.075
 1872SOL    HW3 7616   3.136   3.399   3.068
 1872SOL    MW4 7617   3.151   3.479   3.100
 1873SOL     OW 7618   3.372   3.602   3.017
 1873SOL    HW2 7619   3.459   3.579   3.049
 1873SOL    HW3 7620   3.366   3.697   3.029
 1873SOL    MW4 7621   3.383   3.612   3.023
 1874SOL     OW 7622   3.331   3.872   3.047
 1874SOL    HW2 7623   3.327   3.864   3.142
 1874SOL    HW3 7624   3.252   3.920   3.023
 1874SOL    MW4 7625   3.320   3.877   3.056
 1875SOL     OW 7626   3.116   4.063   3.003
 1875SOL    HW2 7627   3.040   4.016   3.036
 1875SOL    HW3 7628   3.114   4.051   2.909
 1875SOL    MW4 7629   3.106   4.055   2.995
 1876SOL     OW 7630   3.097   4.317   3.107
 1876SOL    HW2 7631   3.106   4.307   3.202
 1876SOL    HW3 7632   3.129   4.234   3.071
 1876SOL    MW4 7633   3.103   4.305   3.115
 1877SOL     OW 7634   3.326   4.431   2.993
 1877SOL    HW2 7635   3.398   4.377   3.026
 1877SOL    HW3 7636   3.249   4.400   3.040
 1877SOL    MW4 7637   3.326   4.420   3.004
 1878SOL     OW 7638   3.812   4.652   3.146
 1878SOL    HW2 7639   3.817   4.558   3.126
 1878SOL    HW3 7640   3.726   4.678   3.114
 1878SOL    MW4 7641   3.801   4.643   3.139
 1879SOL     OW 7642   3.605   0.105   3.007
 1879SOL    HW2 7643   3.620   0.194   3.037
 1879SOL    HW3 7644   3.610   0.111   2.912
 1879SOL    MW4 7645   3.608   0.117   2.998
 1880SOL     OW 7646   3.591   0.373   3.112
 1880SOL    HW2 7647   3.587   0.390   3.206
 1880SOL    HW3 7648   3.649   0.440   3.078
 1880SOL    MW4 7649   3.598   0.384   3.120
 1881SOL     OW 7650   3.795   0.527   2.996
 1881SOL    HW2 7651   3.866   0.485   3.045
 1881SOL    HW3 7652   3.791   0.616   3.032
 1881SOL    MW4 7653   3.804   0.533   3.007
 1882SOL     OW 7654   3.800   0.765   3.136
 1882SOL    HW2 7655   3.815   0.739   3.227
 1882SOL    HW3 7656   3.883   0.803   3.107
 1882SOL    MW4 7657   3.813   0.767   3.144
 1883SOL     OW 7658   3.600   0.911   3.015
 1883SOL    HW2 7659   3.669   0.857   3.053
 1883SOL    HW3 7660   3.519   0.862   3.032
 1883SOL    MW4 7661   3.598   0.898   3.022
 1884SOL     OW 7662   3.608   1.177   3.128
 1884SOL    HW2 7663   3.689   1.223   3.104
 1884SOL    HW3 7664   3.628   1.085   3.110
 1884SOL    MW4 7665   3.622   1.171   3.122
 1885SOL     OW 7666   3.836   1.286   3.014
 1885SOL    HW2 7667   3.827   1.380   3.028
 1885SOL    HW3 7668   3.829   1.275   2.919
 1885SOL    MW4 7669   3.834   1.297   3.003
 1886SOL     OW 7670   3.819   1.543   3.078
 1886SOL    HW2 7671   3.814   1.536   3.174
 1886SOL    HW3 7672   3.736   1.583   3.052
 1886SOL    MW4 7673   3.807   1.547   3.087
 1887SOL     OW 7674   3.602   1.677   2.964
 1887SOL    HW2 7675   3.588   1.764   3.001
 1887SOL    HW3 7676   3.636   1.695   2.876
 1887SOL    MW4 7677   3.605   1.691   2.957
 1888SOL     OW 7678   3.573   1.912   3.073
 1888SOL    HW2 7679   3.566   1.894   3.167
 1888SOL    HW3 7680   3.661   1.948   3.061
 1888SOL    MW4 7681   3.583   1.914   3.084
 1889SOL     OW 7682   3.825   2.062   3.027
 1889SOL    HW2 7683   3.817   2.150   3.065
 1889SOL    HW3 7684   3.853   2.078   2.936
 1889SOL    MW4 7685   3.828   2.076   3.020
 1890SOL     OW 7686   3.797   2.329   3.129
 1890SOL    HW2 7687   3.775   2.335   3.222
 1890SOL    HW3 7688   3.724   2.372   3.084
 1890SOL    MW4 7689   3.784   2.336   3.135
 1891SOL     OW 7690   3.605   2.472   3.004
 1891SOL    HW2 7691   3.603   2.559   3.045
 1891SOL    HW3 7692   3.515   2.440   3.012
 1891SOL    MW4 7693   3.593   2.479   3.011
 1892SOL     OW 7694   3.590   2.697   3.151
 1892SOL    HW2 7695   3.671   2.742   3.125
 1892SOL    HW3 7696   3.520   2.755   3.121
 1892SOL    MW4 7697   3.591   2.710   3.143
 1893SOL     OW 7698   3.822   2.851   3.058
 1893SOL    HW2 7699   3.806   2.943   3.077
 1893SOL    HW3 7700   3.822   2.846   2.963
 1893SOL    MW4 7701   3.820   2.862   3.048
 1894SOL     OW 7702   3.839   3.129   3.091
 1894SOL    HW2 7703   3.922   3.176   3.092
 1894SOL    HW3 7704   3.775   3.194   3.062
 1894SOL    MW4 7705   3.841   3.144   3.087
 1895SOL     OW 7706   3.624   3.266   3.009
 1895SOL    HW2 7707   3.548   3.220   3.043
 1895SOL    HW3 7708   3.611   3.269   2.914
 1895SOL    MW4 7709   3.612   3.261   3.001
 1896SOL     OW 7710   3.622   3.516   3.127
 1896SOL    HW2 7711   3.705   3.558   3.104
 1896SOL    HW3 7712   3.628   3.429   3.088
 1896SOL    MW4 7713   3.634   3.510   3.119
 1897SOL     OW 7714   3.859   3.619   3.037
 1897SOL    HW2 7715   3.845   3.712   3.056
 1897SOL    HW3 7716   3.848   3.612   2.942
 1897SOL    MW4 7717   3.856   3.630   3.027
 1898SOL     OW 7718   3.796   3.904   3.133
 1898SOL    HW2 7719   3.798   3.918   3.227
 1898SOL    HW3 7720   3.712   3.941   3.105
 1898SOL    MW4 7721   3.785   3.911   3.141
 1899SOL     OW 7722   3.562   4.012   3.011
 1899SOL    HW2 7723   3.486   3.957   3.031
 1899SOL    HW3 7724   3.568   4.010   2.915
 1899SOL    MW4 7725   3.553   4.004   3.001
 1900SOL     OW 7726   3.535   4.275   3.129
 1900SOL    HW2 7727   3.611   4.318   3.089
 1900SOL    HW3 7728   3.533   4.188   3.090
 1900SOL    MW4 7729   3.544   4.269   3.119
 1901SOL     OW 7730   3.781   4.395   3.045
 1901SOL    HW2 7731   3.868   4.369   3.076
 1901SOL    HW3 7732   3.793   4.409   2.951
 1901SOL    MW4 7733   3.794   4.393   3.036
 1902SOL     OW 7734   4.268   0.023   3.099
 1902SOL    HW2 7735   4.281   0.021   3.194
 1902SOL    HW3 7736   4.260  -0.069   3.075
 1902SOL    MW4 7737   4.268   0.011   3.109
 1903SOL     OW 7738   4.028   0.157   3.041
 1903SOL    HW2 7739   4.106   0.123   3.084
 1903SOL    HW3 7740   3.956   0.109   3.080
 1903SOL    MW4 7741   4.029   0.146   3.052
 1904SOL     OW 7742   4.015   0.421   3.120
 1904SOL    HW2 7743   4.100   0.452   3.089
 1904SOL    HW3 7744   4.012   0.329   3.096
 1904SOL    MW4 7745   4.026   0.413   3.113
 1905SOL     OW 7746   4.262   0.515   3.024
 1905SOL    HW2 7747   4.270   0.602   3.063
 1905SOL    HW3 7748   4.271   0.530   2.930
 1905SOL    MW4 7749   4.264   0.528   3.017
 1906SOL     OW 7750   4.276   0.747   3.146
 1906SOL    HW2 7751   4.199   0.783   3.104
 1906SOL    HW3 7752   4.348   0.802   3.116
 1906SOL    MW4 7753   4.276   0.759   3.137
 1907SOL     OW 7754   4.046   0.876   3.061
 1907SOL    HW2 7755   4.053   0.966   3.093
 1907SOL    HW3 7756   4.033   0.885   2.967
 1907SOL    MW4 7757   4.045   0.889   3.053
 1908SOL     OW 7758   4.061   1.164   3.091
 1908SOL    HW2 7759   4.054   1.155   3.186
 1908SOL    HW3 7760   3.982   1.210   3.065
 1908SOL    MW4 7761   4.050   1.169   3.100
 1909SOL     OW 7762   4.297   1.298   3.050
 1909SOL    HW2 7763   4.214   1.256   3.070
 1909SOL    HW3 7764   4.294   1.312   2.955
 1909SOL    MW4 7765   4.286   1.295   3.040
 1910SOL     OW 7766   4.275   1.545   3.142
 1910SOL    HW2 7767   4.197   1.575   3.096
 1910SOL    HW3 7768   4.289   1.456   3.109
 1910SOL    MW4 7769   4.267   1.537   3.132
 1911SOL     OW 7770   4.072   1.644   3.009
 1911SOL    HW2 7771   4.064   1.731   3.049
 1911SOL    HW3 7772   3.991   1.599   3.033
 1911SOL    MW4 7773   4.060   1.650   3.017
 1912SOL     OW 7774   4.037   1.909   3.087
 1912SOL    HW2 7775   4.113   1.966   3.092
 1912SOL    HW3 7776   3.963   1.969   3.070
 1912SOL    MW4 7777   4.037   1.925   3.085
 1913SOL     OW 7778   4.277   2.048   3.080
 1913SOL    HW2 7779   4.271   2.142   3.095
 1913SOL    HW3 7780   4.269   2.039   2.985
 1913SOL    MW4 7781   4.275   2.059   3.069
 1914SOL     OW 7782   4.246   2.307   3.104
 1914SOL    HW2 7783   4.179   2.364   3.067
 1914SOL    HW3 7784   4.329   2.347   3.079
 1914SOL    MW4 7785   4.248   2.320   3.096
 1915SOL     OW 7786   4.018   2.459   3.016
 1915SOL    HW2 7787   4.012   2.551   3.040
 1915SOL    HW3 7788   3.941   2.418   3.056
 1915SOL    MW4 7789   4.007   2.466   3.025
 1916SOL     OW 7790   4.069   2.737   3.104
 1916SOL    HW2 7791   4.067   2.728   3.200
 1916SOL    HW3 7792   3.983   2.773   3.083
 1916SOL    MW4 7793   4.057   2.740   3.114
 1917SOL     OW 7794   4.277   2.845   2.974
 1917SOL    HW2 7795   4.203   2.796   3.008
 1917SOL    HW3 7796   4.354   2.805   3.015
 1917SOL    MW4 7797   4.277   2.833   2.984
 1918SOL     OW 7798   4.250   3.092   3.115
 1918SOL    HW2 7799   4.179   3.134   3.066
 1918SOL    HW3 7800   4.254   3.003   3.079
 1918SOL    MW4 7801   4.241   3.086   3.104
 1919SOL     OW 7802   4.063   3.270   3.025
 1919SOL    HW2 7803   4.077   3.363   3.045
 1919SOL    HW3 7804   4.080   3.263   2.931
 1919SOL    MW4 7805   4.067   3.281   3.015
 1920SOL     OW 7806   4.077   3.514   3.167
 1920SOL    HW2 7807   4.066   3.512   3.262
 1920SOL    HW3 7808   4.003   3.567   3.135
 1920SOL    MW4 7809   4.066   3.521   3.175
 1921SOL     OW 7810   4.266   3.686   3.025
 1921SOL    HW2 7811   4.272   3.770   3.070
 1921SOL    HW3 7812   4.200   3.637   3.074
 1921SOL    MW4 7813   4.258   3.691   3.037
 1922SOL     OW 7814   4.254   3.933   3.148
 1922SOL    HW2 7815   4.172   3.953   3.103
 1922SOL    HW3 7816   4.321   3.977   3.097
 1922SOL    MW4 7817   4.252   3.941   3.135
 1923SOL     OW 7818   4.029   4.020   3.036
 1923SOL    HW2 7819   4.026   4.111   3.067
 1923SOL    HW3 7820   3.948   3.981   3.070
 1923SOL    MW4 7821   4.018   4.027   3.044
 1924SOL     OW 7822   4.043   4.288   3.125
 1924SOL    HW2 7823   4.033   4.275   3.219
 1924SOL    HW3 7824   4.132   4.323   3.115
 1924SOL    MW4 7825   4.054   4.291   3.136
 1925SOL     OW 7826   4.282   4.418   3.033
 1925SOL    HW2 7827   4.353   4.363   3.067
 1925SOL    HW3 7828   4.280   4.399   2.939
 1925SOL    MW4 7829   4.291   4.408   3.025
 1926SOL     OW 7830   0.233   0.010   3.386
 1926SOL    HW2 7831   0.307   0.058   3.422
 1926SOL    HW3 7832   0.250  -0.082   3.407
 1926SOL    MW4 7833   0.245   0.004   3.394
 1927SOL     OW 7834   0.019   0.116   3.515
 1927SOL    HW2 7835   0.032   0.208   3.491
 1927SOL    HW3 7836   0.094   0.071   3.477
 1927SOL    MW4 7837   0.031   0.122   3.507
 1928SOL     OW 7838   0.041   0.376   3.421
 1928SOL    HW2 7839  -0.034   0.421   3.460
 1928SOL    HW3 7840   0.117   0.410   3.468
 1928SOL    MW4 7841   0.041   0.386   3.432
 1929SOL     OW 7842   0.267   0.510   3.541
 1929SOL    HW2 7843   0.335   0.471   3.486
 1929SOL    HW3 7844   0.246   0.593   3.498
 1929SOL    MW4 7845   0.273   0.516   3.528
 1930SOL     OW 7846   0.219   0.759   3.438
 1930SOL    HW2 7847   0.294   0.815   3.460
 1930SOL    HW3 7848   0.142   0.814   3.452
 1930SOL    MW4 7849   0.219   0.773   3.443
 1931SOL     OW 7850   4.490   0.895   3.505
 1931SOL    HW2 7851   4.517   0.894   3.597
 1931SOL    HW3 7852   4.493   0.987   3.481
 1931SOL    MW4 7853   4.494   0.907   3.514
 1932SOL     OW 7854   4.464   1.158   3.433
 1932SOL    HW2 7855   4.544   1.198   3.465
 1932SOL    HW3 7856   4.463   1.176   3.339
 1932SOL    MW4 7857   4.474   1.166   3.425
 1933SOL     OW 7858   0.213   1.290   3.507
 1933SOL    HW2 7859   0.281   1.227   3.483
 1933SOL    HW3 7860   0.229   1.366   3.450
 1933SOL    MW4 7861   0.224   1.292   3.496
 1934SOL     OW 7862   0.255   1.538   3.390
 1934SOL    HW2 7863   0.339   1.577   3.415
 1934SOL    HW3 7864   0.261   1.528   3.295
 1934SOL    MW4 7865   0.267   1.542   3.381
 1935SOL     OW 7866   0.024   1.664   3.484
 1935SOL    HW2 7867  -0.053   1.621   3.448
 1935SOL    HW3 7868   0.098   1.611   3.453
 1935SOL    MW4 7869   0.023   1.652   3.475
 1936SOL     OW 7870   4.454   1.937   3.435
 1936SOL    HW2 7871   4.469   1.843   3.448
 1936SOL    HW3 7872   4.454   1.949   3.340
 1936SOL    MW4 7873   4.456   1.926   3.424
 1937SOL     OW 7874   0.222   2.047   3.469
 1937SOL    HW2 7875   0.261   2.020   3.552
 1937SOL    HW3 7876   0.140   1.998   3.464
 1937SOL    MW4 7877   0.216   2.037   3.480
 1938SOL     OW 7878   0.249   2.313   3.412
 1938SOL    HW2 7879   0.167   2.356   3.437
 1938SOL    HW3 7880   0.231   2.220   3.423
 1938SOL    MW4 7881   0.235   2.306   3.417
 1939SOL     OW 7882   0.023   2.448   3.462
 1939SOL    HW2 7883   0.015   2.442   3.557
 1939SOL    HW3 7884  -0.057   2.408   3.428
 1939SOL    MW4 7885   0.011   2.442   3.470
 1940SOL     OW 7886   0.001   2.712   3.391
 1940SOL    HW2 7887   0.078   2.747   3.435
 1940SOL    HW3 7888  -0.001   2.620   3.418
 1940SOL    MW4 7889   0.011   2.704   3.401
 1941SOL     OW 7890   0.214   2.818   3.505
 1941SOL    HW2 7891   0.290   2.779   3.461
 1941SOL    HW3 7892   0.211   2.908   3.472
 1941SOL    MW4 7893   0.224   2.825   3.495
 1942SOL     OW 7894   0.208   3.064   3.421
 1942SOL    HW2 7895   0.129   3.099   3.463
 1942SOL    HW3 7896   0.188   3.065   3.328
 1942SOL    MW4 7897   0.195   3.069   3.414
 1943SOL     OW 7898   4.480   3.182   3.529
 1943SOL    HW2 7899   4.401   3.148   3.488
 1943SOL    HW3 7900   4.491   3.270   3.493
 1943SOL    MW4 7901   4.471   3.189   3.519
 1944SOL     OW 7902   4.486   3.426   3.402
 1944SOL    HW2 7903   4.417   3.479   3.442
 1944SOL    HW3 7904   4.484   3.450   3.309
 1944SOL    MW4 7905   4.477   3.436   3.395
 1945SOL     OW 7906   0.204   3.590   3.475
 1945SOL    HW2 7907   0.192   3.577   3.569
 1945SOL    HW3 7908   0.137   3.535   3.434
 1945SOL    MW4 7909   0.193   3.581   3.482
 1946SOL     OW 7910   0.227   3.848   3.391
 1946SOL    HW2 7911   0.154   3.887   3.438
 1946SOL    HW3 7912   0.216   3.754   3.404
 1946SOL    MW4 7913   0.216   3.841   3.399
 1947SOL     OW 7914   0.012   3.994   3.503
 1947SOL    HW2 7915   0.037   3.984   3.595
 1947SOL    HW3 7916   0.027   4.086   3.483
 1947SOL    MW4 7917   0.017   4.005   3.512
 1948SOL     OW 7918   0.030   4.275   3.422
 1948SOL    HW2 7919  -0.053   4.318   3.445
 1948SOL    HW3 7920   0.097   4.328   3.465
 1948SOL    MW4 7921   0.028   4.288   3.431
 1949SOL     OW 7922   0.231   4.418   3.526
 1949SOL    HW2 7923   0.226   4.411   3.622
 1949SOL    HW3 7924   0.306   4.363   3.503
 1949SOL    MW4 7925   0.241   4.410   3.536
 1950SOL     OW 7926   0.623   4.594   3.437
 1950SOL    HW2 7927   0.696   4.645   3.472
 1950SOL    HW3 7928   0.622   4.615   3.343
 1950SOL    MW4 7929   0.632   4.604   3.429
 1951SOL     OW 7930   0.459   0.141   3.501
 1951SOL    HW2 7931   0.468   0.160   3.594
 1951SOL    HW3 7932   0.513   0.063   3.486
 1951SOL    MW4 7933   0.467   0.133   3.511
 1952SOL     OW 7934   0.449   0.393   3.380
 1952SOL    HW2 7935   0.533   0.429   3.410
 1952SOL    HW3 7936   0.442   0.308   3.422
 1952SOL    MW4 7937   0.459   0.387   3.389
 1953SOL     OW 7938   0.670   0.494   3.500
 1953SOL    HW2 7939   0.692   0.504   3.592
 1953SOL    HW3 7940   0.738   0.436   3.465
 1953SOL    MW4 7941   0.682   0.488   3.507
 1954SOL     OW 7942   0.698   0.748   3.420
 1954SOL    HW2 7943   0.613   0.784   3.444
 1954SOL    HW3 7944   0.692   0.654   3.441
 1954SOL    MW4 7945   0.686   0.740   3.426
 1955SOL     OW 7946   0.464   0.884   3.514
 1955SOL    HW2 7947   0.472   0.885   3.610
 1955SOL    HW3 7948   0.446   0.976   3.491
 1955SOL    MW4 7949   0.463   0.896   3.524
 1956SOL     OW 7950   0.435   1.140   3.425
 1956SOL    HW2 7951   0.518   1.186   3.441
 1956SOL    HW3 7952   0.436   1.119   3.332
 1956SOL    MW4 7953   0.446   1.143   3.415
 1957SOL     OW 7954   0.682   1.267   3.485
 1957SOL    HW2 7955   0.768   1.226   3.476
 1957SOL    HW3 7956   0.697   1.359   3.462
 1957SOL    MW4 7957   0.695   1.274   3.481
 1958SOL     OW 7958   0.744   1.544   3.396
 1958SOL    HW2 7959   0.807   1.603   3.439
 1958SOL    HW3 7960   0.659   1.581   3.419
 1958SOL    MW4 7961   0.741   1.557   3.405
 1959SOL     OW 7962   0.484   1.669   3.447
 1959SOL    HW2 7963   0.474   1.666   3.542
 1959SOL    HW3 7964   0.449   1.755   3.422
 1959SOL    MW4 7965   0.478   1.680   3.456
 1960SOL     OW 7966   0.439   1.919   3.366
 1960SOL    HW2 7967   0.368   1.968   3.407
 1960SOL    HW3 7968   0.413   1.908   3.275
 1960SOL    MW4 7969   0.427   1.924   3.359
 1961SOL     OW 7970   0.688   1.998   3.469
 1961SOL    HW2 7971   0.666   1.993   3.562
 1961SOL    HW3 7972   0.607   1.973   3.424
 1961SOL    MW4 7973   0.674   1.994   3.476
 1962SOL     OW 7974   0.671   2.288   3.375
 1962SOL    HW2 7975   0.754   2.327   3.399
 1962SOL    HW3 7976   0.679   2.196   3.399
 1962SOL    MW4 7977   0.683   2.281   3.381
 1963SOL     OW 7978   0.476   2.457   3.475
 1963SOL    HW2 7979   0.547   2.401   3.444
 1963SOL    HW3 7980   0.396   2.410   3.450
 1963SOL    MW4 7981   0.475   2.443   3.468
 1964SOL     OW 7982   0.442   2.737   3.399
 1964SOL    HW2 7983   0.473   2.652   3.432
 1964SOL    HW3 7984   0.433   2.724   3.304
 1964SOL    MW4 7985   0.445   2.724   3.391
 1965SOL     OW 7986   0.683   2.846   3.493
 1965SOL    HW2 7987   0.740   2.783   3.449
 1965SOL    HW3 7988   0.595   2.813   3.480
 1965SOL    MW4 7989   0.679   2.834   3.485
 1966SOL     OW 7990   0.686   3.130   3.424
 1966SOL    HW2 7991   0.595   3.149   3.444
 1966SOL    HW3 7992   0.695   3.035   3.439
 1966SOL    MW4 7993   0.676   3.120   3.428
 1967SOL     OW 7994   0.437   3.213   3.473
 1967SOL    HW2 7995   0.440   3.219   3.568
 1967SOL    HW3 7996   0.363   3.155   3.454
 1967SOL    MW4 7997   0.428   3.206   3.483
 1968SOL     OW 7998   0.430   3.460   3.366
 1968SOL    HW2 7999   0.420   3.375   3.408
 1968SOL    HW3 8000   0.359   3.513   3.401
 1968SOL    MW4 8001   0.419   3.456   3.376
 1969SOL     OW 8002   0.658   3.591   3.489
 1969SOL    HW2 8003   0.743   3.560   3.456
 1969SOL    HW3 8004   0.594   3.536   3.444
 1969SOL    MW4 8005   0.661   3.579   3.478
 1970SOL     OW 8006   0.688   3.838   3.361
 1970SOL    HW2 8007   0.604   3.878   3.385
 1970SOL    HW3 8008   0.687   3.753   3.404
 1970SOL    MW4 8009   0.677   3.832   3.370
 1971SOL     OW 8010   0.430   3.988   3.509
 1971SOL    HW2 8011   0.406   4.078   3.488
 1971SOL    HW3 8012   0.366   3.934   3.462
 1971SOL    MW4 8013   0.419   3.992   3.500
 1972SOL     OW 8014   0.425   4.254   3.429
 1972SOL    HW2 8015   0.507   4.295   3.456
 1972SOL    HW3 8016   0.425   4.264   3.333
 1972SOL    MW4 8017   0.436   4.261   3.420
 1973SOL     OW 8018   0.661   4.343   3.555
 1973SOL    HW2 8019   0.738   4.294   3.524
 1973SOL    HW3 8020   0.667   4.427   3.510
 1973SOL    MW4 8021   0.672   4.348   3.545
 1974SOL     OW 8022   1.102   4.667   3.410
 1974SOL    HW2 8023   1.191   4.700   3.423
 1974SOL    HW3 8024   1.089   4.669   3.315
 1974SOL    MW4 8025   1.112   4.671   3.399
 1975SOL     OW 8026   0.849   0.071   3.505
 1975SOL    HW2 8027   0.857   0.069   3.601
 1975SOL    HW3 8028   0.930   0.031   3.474
 1975SOL    MW4 8029   0.861   0.065   3.514
 1976SOL     OW 8030   0.899   0.328   3.422
 1976SOL    HW2 8031   0.988   0.351   3.448
 1976SOL    HW3 8032   0.884   0.241   3.461
 1976SOL    MW4 8033   0.909   0.319   3.430
 1977SOL     OW 8034   1.149   0.478   3.502
 1977SOL    HW2 8035   1.155   0.492   3.597
 1977SOL    HW3 8036   1.133   0.566   3.467
 1977SOL    MW4 8037   1.147   0.491   3.510
 1978SOL     OW 8038   1.119   0.731   3.408
 1978SOL    HW2 8039   1.203   0.770   3.434
 1978SOL    HW3 8040   1.054   0.777   3.461
 1978SOL    MW4 8041   1.122   0.742   3.418
 1979SOL     OW 8042   0.918   0.883   3.525
 1979SOL    HW2 8043   0.918   0.971   3.487
 1979SOL    HW3 8044   0.844   0.839   3.483
 1979SOL    MW4 8045   0.908   0.889   3.514
 1980SOL     OW 8046   0.944   1.154   3.442
 1980SOL    HW2 8047   1.016   1.210   3.470
 1980SOL    HW3 8048   0.949   1.156   3.346
 1980SOL    MW4 8049   0.954   1.162   3.433
 1981SOL     OW 8050   1.166   1.304   3.506
 1981SOL    HW2 8051   1.194   1.322   3.596
 1981SOL    HW3 8052   1.158   1.391   3.466
 1981SOL    MW4 8053   1.169   1.318   3.513
 1982SOL     OW 8054   1.170   1.555   3.404
 1982SOL    HW2 8055   1.249   1.607   3.421
 1982SOL    HW3 8056   1.144   1.579   3.315
 1982SOL    MW4 8057   1.177   1.565   3.394
 1983SOL     OW 8058   0.947   1.691   3.521
 1983SOL    HW2 8059   0.951   1.766   3.462
 1983SOL    HW3 8060   1.024   1.639   3.500
 1983SOL    MW4 8061   0.958   1.694   3.511
 1984SOL     OW 8062   0.905   1.909   3.351
 1984SOL    HW2 8063   0.979   1.949   3.396
 1984SOL    HW3 8064   0.830   1.929   3.407
 1984SOL    MW4 8065   0.905   1.917   3.364
 1985SOL     OW 8066   1.130   2.038   3.470
 1985SOL    HW2 8067   1.216   2.000   3.453
 1985SOL    HW3 8068   1.130   2.122   3.424
 1985SOL    MW4 8069   1.141   2.044   3.462
 1986SOL     OW 8070   1.145   2.315   3.404
 1986SOL    HW2 8071   1.207   2.382   3.432
 1986SOL    HW3 8072   1.145   2.319   3.309
 1986SOL    MW4 8073   1.153   2.324   3.396
 1987SOL     OW 8074   0.892   2.396   3.494
 1987SOL    HW2 8075   0.890   2.409   3.589
 1987SOL    HW3 8076   0.970   2.342   3.480
 1987SOL    MW4 8077   0.902   2.391   3.505
 1988SOL     OW 8078   0.874   2.675   3.409
 1988SOL    HW2 8079   0.945   2.728   3.445
 1988SOL    HW3 8080   0.900   2.585   3.426
 1988SOL    MW4 8081   0.887   2.670   3.416
 1989SOL     OW 8082   1.104   2.814   3.488
 1989SOL    HW2 8083   1.125   2.831   3.580
 1989SOL    HW3 8084   1.185   2.782   3.450
 1989SOL    MW4 8085   1.117   2.812   3.495
 1990SOL     OW 8086   1.108   3.097   3.402
 1990SOL    HW2 8087   1.088   3.004   3.418
 1990SOL    HW3 8088   1.138   3.100   3.311
 1990SOL    MW4 8089   1.109   3.085   3.392
 1991SOL     OW 8090   0.910   3.262   3.518
 1991SOL    HW2 8091   0.983   3.211   3.484
 1991SOL    HW3 8092   0.833   3.226   3.474
 1991SOL    MW4 8093   0.909   3.251   3.507
 1992SOL     OW 8094   0.895   3.490   3.368
 1992SOL    HW2 8095   0.912   3.401   3.399
 1992SOL    HW3 8096   0.888   3.481   3.273
 1992SOL    MW4 8097   0.896   3.477   3.359
 1993SOL     OW 8098   1.126   3.611   3.466
 1993SOL    HW2 8099   1.124   3.601   3.561
 1993SOL    HW3 8100   1.044   3.572   3.435
 1993SOL    MW4 8101   1.115   3.605   3.474
 1994SOL     OW 8102   1.122   3.871   3.430
 1994SOL    HW2 8103   1.202   3.922   3.441
 1994SOL    HW3 8104   1.148   3.781   3.451
 1994SOL    MW4 8105   1.136   3.866   3.434
 1995SOL     OW 8106   0.874   3.984   3.513
 1995SOL    HW2 8107   0.949   3.954   3.461
 1995SOL    HW3 8108   0.798   3.940   3.475
 1995SOL    MW4 8109   0.874   3.974   3.501
 1996SOL     OW 8110   0.890   4.258   3.429
 1996SOL    HW2 8111   0.920   4.169   3.445
 1996SOL    HW3 8112   0.913   4.276   3.338
 1996SOL    MW4 8113   0.897   4.249   3.419
 1997SOL     OW 8114   1.109   4.419   3.536
 1997SOL    HW2 8115   1.033   4.363   3.523
 1997SOL    HW3 8116   1.089   4.497   3.484
 1997SOL    MW4 8117   1.096   4.422   3.527
 1998SOL     OW 8118   1.598   4.636   3.416
 1998SOL    HW2 8119   1.587   4.551   3.458
 1998SOL    HW3 8120   1.516   4.682   3.435
 1998SOL    MW4 8121   1.586   4.631   3.424
 1999SOL     OW 8122   1.345   0.099   3.468
 1999SOL    HW2 8123   1.350   0.109   3.563
 1999SOL    HW3 8124   1.359   0.187   3.434
 1999SOL    MW4 8125   1.348   0.112   3.476
 2000SOL     OW 8126   1.357   0.374   3.386
 2000SOL    HW2 8127   1.424   0.415   3.442
 2000SOL    HW3 8128   1.275   0.409   3.420
 2000SOL    MW4 8129   1.355   0.384   3.398
 2001SOL     OW 8130   1.563   0.489   3.514
 2001SOL    HW2 8131   1.573   0.508   3.608
 2001SOL    HW3 8132   1.649   0.457   3.487
 2001SOL    MW4 8133   1.576   0.488   3.523
 2002SOL     OW 8134   1.579   0.734   3.388
 2002SOL    HW2 8135   1.506   0.785   3.424
 2002SOL    HW3 8136   1.571   0.648   3.428
 2002SOL    MW4 8137   1.568   0.730   3.398
 2003SOL     OW 8138   1.367   0.862   3.491
 2003SOL    HW2 8139   1.377   0.870   3.586
 2003SOL    HW3 8140   1.371   0.952   3.459
 2003SOL    MW4 8141   1.369   0.875   3.499
 2004SOL     OW 8142   1.365   1.121   3.402
 2004SOL    HW2 8143   1.440   1.171   3.436
 2004SOL    HW3 8144   1.289   1.164   3.440
 2004SOL    MW4 8145   1.365   1.134   3.411
 2005SOL     OW 8146   1.587   1.272   3.493
 2005SOL    HW2 8147   1.588   1.263   3.588
 2005SOL    HW3 8148   1.667   1.227   3.464
 2005SOL    MW4 8149   1.598   1.265   3.502
 2006SOL     OW 8150   1.618   1.529   3.385
 2006SOL    HW2 8151   1.597   1.437   3.402
 2006SOL    HW3 8152   1.600   1.541   3.292
 2006SOL    MW4 8153   1.613   1.518   3.375
 2007SOL     OW 8154   1.406   1.690   3.449
 2007SOL    HW2 8155   1.396   1.681   3.544
 2007SOL    HW3 8156   1.477   1.630   3.426
 2007SOL    MW4 8157   1.414   1.681   3.458
 2008SOL     OW 8158   1.363   1.939   3.365
 2008SOL    HW2 8159   1.441   1.987   3.395
 2008SOL    HW3 8160   1.381   1.848   3.389
 2008SOL    MW4 8161   1.376   1.933   3.372
 2009SOL     OW 8162   1.586   2.092   3.469
 2009SOL    HW2 8163   1.662   2.057   3.422
 2009SOL    HW3 8164   1.572   2.178   3.431
 2009SOL    MW4 8165   1.594   2.098   3.457
 2010SOL     OW 8166   1.585   2.348   3.360
 2010SOL    HW2 8167   1.513   2.389   3.409
 2010SOL    HW3 8168   1.565   2.366   3.269
 2010SOL    MW4 8169   1.573   2.356   3.355
 2011SOL     OW 8170   1.375   2.482   3.491
 2011SOL    HW2 8171   1.369   2.473   3.586
 2011SOL    HW3 8172   1.387   2.576   3.476
 2011SOL    MW4 8173   1.376   2.493   3.502
 2012SOL     OW 8174   1.338   2.748   3.376
 2012SOL    HW2 8175   1.424   2.781   3.400
 2012SOL    HW3 8176   1.339   2.742   3.281
 2012SOL    MW4 8177   1.349   2.752   3.367
 2013SOL     OW 8178   1.589   2.819   3.473
 2013SOL    HW2 8179   1.654   2.760   3.437
 2013SOL    HW3 8180   1.614   2.906   3.441
 2013SOL    MW4 8181   1.601   2.823   3.464
 2014SOL     OW 8182   1.622   3.082   3.379
 2014SOL    HW2 8183   1.678   3.158   3.393
 2014SOL    HW3 8184   1.533   3.114   3.394
 2014SOL    MW4 8185   1.617   3.096   3.383
 2015SOL     OW 8186   1.361   3.201   3.483
 2015SOL    HW2 8187   1.362   3.205   3.579
 2015SOL    HW3 8188   1.276   3.163   3.462
 2015SOL    MW4 8189   1.350   3.197   3.493
 2016SOL     OW 8190   1.380   3.464   3.382
 2016SOL    HW2 8191   1.381   3.373   3.410
 2016SOL    HW3 8192   1.293   3.496   3.407
 2016SOL    MW4 8193   1.368   3.456   3.389
 2017SOL     OW 8194   1.576   3.627   3.488
 2017SOL    HW2 8195   1.573   3.615   3.583
 2017SOL    HW3 8196   1.507   3.570   3.455
 2017SOL    MW4 8197   1.566   3.618   3.496
 2018SOL     OW 8198   1.551   3.912   3.445
 2018SOL    HW2 8199   1.560   3.818   3.465
 2018SOL    HW3 8200   1.561   3.918   3.350
 2018SOL    MW4 8201   1.553   3.900   3.435
 2019SOL     OW 8202   1.329   4.058   3.506
 2019SOL    HW2 8203   1.326   4.141   3.459
 2019SOL    HW3 8204   1.405   4.013   3.469
 2019SOL    MW4 8205   1.338   4.063   3.495
 2020SOL     OW 8206   1.330   4.298   3.375
 2020SOL    HW2 8207   1.245   4.331   3.404
 2020SOL    HW3 8208   1.328   4.308   3.280
 2020SOL    MW4 8209   1.319   4.304   3.366
 2021SOL     OW 8210   1.558   4.385   3.526
 2021SOL    HW2 8211   1.632   4.331   3.498
 2021SOL    HW3 8212   1.482   4.346   3.484
 2021SOL    MW4 8213   1.558   4.373   3.517
 2022SOL     OW 8214   1.997   0.014   3.404
 2022SOL    HW2 8215   2.068   0.074   3.428
 2022SOL    HW3 8216   1.919   0.054   3.443
 2022SOL    MW4 8217   1.996   0.027   3.413
 2023SOL     OW 8218   1.787   0.135   3.522
 2023SOL    HW2 8219   1.791   0.119   3.617
 2023SOL    HW3 8220   1.726   0.069   3.489
 2023SOL    MW4 8221   1.780   0.124   3.531
 2024SOL     OW 8222   1.815   0.394   3.439
 2024SOL    HW2 8223   1.801   0.305   3.472
 2024SOL    HW3 8224   1.822   0.385   3.345
 2024SOL    MW4 8225   1.814   0.381   3.431
 2025SOL     OW 8226   2.011   0.573   3.522
 2025SOL    HW2 8227   2.004   0.646   3.460
 2025SOL    HW3 8228   1.937   0.517   3.500
 2025SOL    MW4 8229   2.000   0.576   3.511
 2026SOL     OW 8230   2.022   0.812   3.357
 2026SOL    HW2 8231   2.107   0.849   3.382
 2026SOL    HW3 8232   2.026   0.809   3.261
 2026SOL    MW4 8233   2.034   0.817   3.347
 2027SOL     OW 8234   1.782   0.891   3.498
 2027SOL    HW2 8235   1.865   0.860   3.462
 2027SOL    HW3 8236   1.716   0.838   3.455
 2027SOL    MW4 8237   1.784   0.880   3.488
 2028SOL     OW 8238   1.809   1.159   3.389
 2028SOL    HW2 8239   1.894   1.198   3.409
 2028SOL    HW3 8240   1.804   1.081   3.444
 2028SOL    MW4 8241   1.819   1.154   3.399
 2029SOL     OW 8242   2.065   1.254   3.485
 2029SOL    HW2 8243   2.068   1.253   3.580
 2029SOL    HW3 8244   2.062   1.347   3.461
 2029SOL    MW4 8245   2.065   1.266   3.494
 2030SOL     OW 8246   2.050   1.507   3.367
 2030SOL    HW2 8247   2.127   1.556   3.396
 2030SOL    HW3 8248   1.975   1.556   3.401
 2030SOL    MW4 8249   2.050   1.520   3.375
 2031SOL     OW 8250   1.841   1.666   3.462
 2031SOL    HW2 8251   1.823   1.746   3.413
 2031SOL    HW3 8252   1.764   1.611   3.448
 2031SOL    MW4 8253   1.828   1.669   3.454
 2032SOL     OW 8254   1.815   1.945   3.372
 2032SOL    HW2 8255   1.885   1.970   3.432
 2032SOL    HW3 8256   1.852   1.957   3.285
 2032SOL    MW4 8257   1.829   1.950   3.369
 2033SOL     OW 8258   2.035   2.083   3.478
 2033SOL    HW2 8259   2.121   2.056   3.445
 2033SOL    HW3 8260   2.028   2.176   3.453
 2033SOL    MW4 8261   2.046   2.092   3.470
 2034SOL     OW 8262   2.036   2.363   3.381
 2034SOL    HW2 8263   2.108   2.415   3.417
 2034SOL    HW3 8264   2.048   2.369   3.286
 2034SOL    MW4 8265   2.047   2.371   3.373
 2035SOL     OW 8266   1.812   2.467   3.493
 2035SOL    HW2 8267   1.898   2.447   3.457
 2035SOL    HW3 8268   1.754   2.401   3.456
 2035SOL    MW4 8269   1.816   2.456   3.483
 2036SOL     OW 8270   1.808   2.710   3.352
 2036SOL    HW2 8271   1.889   2.760   3.363
 2036SOL    HW3 8272   1.829   2.623   3.385
 2036SOL    MW4 8273   1.822   2.705   3.358
 2037SOL     OW 8274   2.022   2.852   3.433
 2037SOL    HW2 8275   2.028   2.843   3.528
 2037SOL    HW3 8276   2.002   2.944   3.418
 2037SOL    MW4 8277   2.021   2.863   3.443
 2038SOL     OW 8278   1.995   3.120   3.385
 2038SOL    HW2 8279   2.077   3.158   3.417
 2038SOL    HW3 8280   1.930   3.189   3.399
 2038SOL    MW4 8281   1.997   3.134   3.391
 2039SOL     OW 8282   1.789   3.295   3.460
 2039SOL    HW2 8283   1.757   3.304   3.550
 2039SOL    HW3 8284   1.793   3.385   3.427
 2039SOL    MW4 8285   1.785   3.308   3.468
 2040SOL     OW 8286   1.812   3.555   3.356
 2040SOL    HW2 8287   1.727   3.577   3.396
 2040SOL    HW3 8288   1.792   3.547   3.262
 2040SOL    MW4 8289   1.798   3.557   3.349
 2041SOL     OW 8290   2.020   3.647   3.506
 2041SOL    HW2 8291   2.093   3.611   3.456
 2041SOL    HW3 8292   1.942   3.611   3.464
 2041SOL    MW4 8293   2.020   3.638   3.494
 2042SOL     OW 8294   2.051   3.908   3.399
 2042SOL    HW2 8295   1.979   3.959   3.435
 2042SOL    HW3 8296   2.045   3.823   3.443
 2042SOL    MW4 8297   2.041   3.903   3.409
 2043SOL     OW 8298   1.803   4.006   3.500
 2043SOL    HW2 8299   1.808   3.993   3.595
 2043SOL    HW3 8300   1.724   3.959   3.474
 2043SOL    MW4 8301   1.793   3.998   3.509
 2044SOL     OW 8302   1.808   4.306   3.407
 2044SOL    HW2 8303   1.807   4.212   3.423
 2044SOL    HW3 8304   1.780   4.316   3.316
 2044SOL    MW4 8305   1.804   4.295   3.398
 2045SOL     OW 8306   2.003   4.449   3.535
 2045SOL    HW2 8307   1.929   4.402   3.498
 2045SOL    HW3 8308   1.999   4.536   3.495
 2045SOL    MW4 8309   1.993   4.455   3.525
 2046SOL     OW 8310   2.417   0.007   3.426
 2046SOL    HW2 8311   2.417  -0.071   3.481
 2046SOL    HW3 8312   2.429  -0.025   3.337
 2046SOL    MW4 8313   2.419  -0.007   3.421
 2047SOL     OW 8314   2.199   0.175   3.502
 2047SOL    HW2 8315   2.200   0.254   3.447
 2047SOL    HW3 8316   2.276   0.125   3.474
 2047SOL    MW4 8317   2.209   0.179   3.491
 2048SOL     OW 8318   2.167   0.414   3.352
 2048SOL    HW2 8319   2.257   0.426   3.384
 2048SOL    HW3 8320   2.114   0.468   3.410
 2048SOL    MW4 8321   2.172   0.422   3.364
 2049SOL     OW 8322   2.414   0.474   3.466
 2049SOL    HW2 8323   2.491   0.439   3.421
 2049SOL    HW3 8324   2.411   0.566   3.440
 2049SOL    MW4 8325   2.424   0.482   3.457
 2050SOL     OW 8326   2.457   0.737   3.393
 2050SOL    HW2 8327   2.534   0.788   3.422
 2050SOL    HW3 8328   2.466   0.733   3.298
 2050SOL    MW4 8329   2.469   0.743   3.384
 2051SOL     OW 8330   2.245   0.904   3.483
 2051SOL    HW2 8331   2.271   0.991   3.454
 2051SOL    HW3 8332   2.317   0.847   3.456
 2051SOL    MW4 8333   2.258   0.908   3.476
 2052SOL     OW 8334   2.293   1.151   3.370
 2052SOL    HW2 8335   2.357   1.205   3.416
 2052SOL    HW3 8336   2.208   1.187   3.397
 2052SOL    MW4 8337   2.290   1.163   3.380
 2053SOL     OW 8338   2.526   1.278   3.451
 2053SOL    HW2 8339   2.529   1.268   3.546
 2053SOL    HW3 8340   2.599   1.226   3.418
 2053SOL    MW4 8341   2.536   1.270   3.459
 2054SOL     OW 8342   2.518   1.547   3.372
 2054SOL    HW2 8343   2.535   1.455   3.391
 2054SOL    HW3 8344   2.513   1.551   3.276
 2054SOL    MW4 8345   2.520   1.536   3.361
 2055SOL     OW 8346   2.273   1.659   3.453
 2055SOL    HW2 8347   2.272   1.660   3.549
 2055SOL    HW3 8348   2.356   1.617   3.430
 2055SOL    MW4 8349   2.284   1.654   3.463
 2056SOL     OW 8350   2.270   1.949   3.388
 2056SOL    HW2 8351   2.258   1.861   3.422
 2056SOL    HW3 8352   2.239   1.944   3.297
 2056SOL    MW4 8353   2.264   1.937   3.380
 2057SOL     OW 8354   2.488   2.062   3.504
 2057SOL    HW2 8355   2.478   2.058   3.599
 2057SOL    HW3 8356   2.418   2.007   3.470
 2057SOL    MW4 8357   2.478   2.054   3.512
 2058SOL     OW 8358   2.475   2.320   3.381
 2058SOL    HW2 8359   2.558   2.353   3.417
 2058SOL    HW3 8360   2.473   2.228   3.405
 2058SOL    MW4 8361   2.486   2.312   3.389
 2059SOL     OW 8362   2.253   2.486   3.481
 2059SOL    HW2 8363   2.260   2.575   3.447
 2059SOL    HW3 8364   2.330   2.441   3.445
 2059SOL    MW4 8365   2.264   2.492   3.471
 2060SOL     OW 8366   2.266   2.729   3.374
 2060SOL    HW2 8367   2.186   2.778   3.393
 2060SOL    HW3 8368   2.260   2.709   3.280
 2060SOL    MW4 8369   2.254   2.733   3.364
 2061SOL     OW 8370   2.474   2.835   3.522
 2061SOL    HW2 8371   2.486   2.927   3.498
 2061SOL    HW3 8372   2.407   2.803   3.462
 2061SOL    MW4 8373   2.467   2.843   3.511
 2062SOL     OW 8374   2.457   3.080   3.394
 2062SOL    HW2 8375   2.520   3.133   3.442
 2062SOL    HW3 8376   2.480   3.092   3.302
 2062SOL    MW4 8377   2.468   3.089   3.388
 2063SOL     OW 8378   2.213   3.251   3.492
 2063SOL    HW2 8379   2.219   3.241   3.587
 2063SOL    HW3 8380   2.284   3.197   3.458
 2063SOL    MW4 8381   2.223   3.243   3.500
 2064SOL     OW 8382   2.247   3.523   3.390
 2064SOL    HW2 8383   2.246   3.437   3.433
 2064SOL    HW3 8384   2.234   3.503   3.297
 2064SOL    MW4 8385   2.245   3.509   3.383
 2065SOL     OW 8386   2.479   3.635   3.480
 2065SOL    HW2 8387   2.489   3.718   3.433
 2065SOL    HW3 8388   2.400   3.596   3.442
 2065SOL    MW4 8389   2.470   3.641   3.469
 2066SOL     OW 8390   2.496   3.895   3.385
 2066SOL    HW2 8391   2.567   3.948   3.421
 2066SOL    HW3 8392   2.418   3.925   3.430
 2066SOL    MW4 8393   2.495   3.906   3.396
 2067SOL     OW 8394   2.273   4.021   3.509
 2067SOL    HW2 8395   2.271   4.111   3.475
 2067SOL    HW3 8396   2.204   3.976   3.460
 2067SOL    MW4 8397   2.263   4.027   3.498
 2068SOL     OW 8398   2.205   4.304   3.427
 2068SOL    HW2 8399   2.129   4.350   3.463
 2068SOL    HW3 8400   2.186   4.294   3.334
 2068SOL    MW4 8401   2.193   4.309   3.420
 2069SOL     OW 8402   2.470   4.408   3.528
 2069SOL    HW2 8403   2.476   4.410   3.623
 2069SOL    HW3 8404   2.378   4.386   3.511
 2069SOL    MW4 8405   2.458   4.405   3.538
 2070SOL     OW 8406   2.865   4.661   3.386
 2070SOL    HW2 8407   2.788   4.711   3.412
 2070SOL    HW3 8408   2.872   4.676   3.292
 2070SOL    MW4 8409   2.856   4.670   3.377
 2071SOL     OW 8410   2.658   0.121   3.507
 2071SOL    HW2 8411   2.664   0.205   3.463
 2071SOL    HW3 8412   2.570   0.088   3.486
 2071SOL    MW4 8413   2.647   0.127   3.498
 2072SOL     OW 8414   2.661   0.354   3.386
 2072SOL    HW2 8415   2.735   0.396   3.429
 2072SOL    HW3 8416   2.674   0.371   3.293
 2072SOL    MW4 8417   2.672   0.361   3.379
 2073SOL     OW 8418   2.909   0.521   3.465
 2073SOL    HW2 8419   2.928   0.537   3.557
 2073SOL    HW3 8420   2.910   0.608   3.424
 2073SOL    MW4 8421   2.911   0.535   3.472
 2074SOL     OW 8422   2.905   0.777   3.332
 2074SOL    HW2 8423   2.985   0.808   3.375
 2074SOL    HW3 8424   2.836   0.795   3.395
 2074SOL    MW4 8425   2.907   0.784   3.346
 2075SOL     OW 8426   2.702   0.889   3.489
 2075SOL    HW2 8427   2.714   0.916   3.580
 2075SOL    HW3 8428   2.721   0.968   3.438
 2075SOL    MW4 8429   2.706   0.903   3.494
 2076SOL     OW 8430   2.739   1.126   3.352
 2076SOL    HW2 8431   2.779   1.209   3.379
 2076SOL    HW3 8432   2.770   1.113   3.263
 2076SOL    MW4 8433   2.749   1.135   3.344
 2077SOL     OW 8434   2.897   1.329   3.431
 2077SOL    HW2 8435   2.897   1.328   3.526
 2077SOL    HW3 8436   2.969   1.272   3.405
 2077SOL    MW4 8437   2.906   1.321   3.440
 2078SOL     OW 8438   2.923   1.595   3.379
 2078SOL    HW2 8439   2.845   1.637   3.416
 2078SOL    HW3 8440   2.912   1.502   3.399
 2078SOL    MW4 8441   2.912   1.588   3.387
 2079SOL     OW 8442   2.714   1.725   3.493
 2079SOL    HW2 8443   2.727   1.805   3.443
 2079SOL    HW3 8444   2.647   1.677   3.444
 2079SOL    MW4 8445   2.707   1.729   3.480
 2080SOL     OW 8446   2.731   1.966   3.377
 2080SOL    HW2 8447   2.655   2.000   3.423
 2080SOL    HW3 8448   2.712   1.982   3.284
 2080SOL    MW4 8449   2.718   1.972   3.371
 2081SOL     OW 8450   2.955   2.089   3.470
 2081SOL    HW2 8451   2.949   2.108   3.564
 2081SOL    HW3 8452   2.877   2.038   3.450
 2081SOL    MW4 8453   2.944   2.085   3.480
 2082SOL     OW 8454   2.891   2.343   3.344
 2082SOL    HW2 8455   2.891   2.251   3.371
 2082SOL    HW3 8456   2.875   2.340   3.250
 2082SOL    MW4 8457   2.889   2.330   3.335
 2083SOL     OW 8458   2.702   2.453   3.483
 2083SOL    HW2 8459   2.706   2.422   3.573
 2083SOL    HW3 8460   2.779   2.415   3.441
 2083SOL    MW4 8461   2.713   2.444   3.490
 2084SOL     OW 8462   2.723   2.708   3.425
 2084SOL    HW2 8463   2.702   2.616   3.444
 2084SOL    HW3 8464   2.641   2.755   3.441
 2084SOL    MW4 8465   2.709   2.702   3.429
 2085SOL     OW 8466   2.963   2.835   3.485
 2085SOL    HW2 8467   2.976   2.856   3.578
 2085SOL    HW3 8468   2.879   2.789   3.483
 2085SOL    MW4 8469   2.953   2.832   3.497
 2086SOL     OW 8470   2.936   3.114   3.410
 2086SOL    HW2 8471   2.955   3.023   3.433
 2086SOL    HW3 8472   2.924   3.113   3.316
 2086SOL    MW4 8473   2.937   3.102   3.401
 2087SOL     OW 8474   2.681   3.237   3.476
 2087SOL    HW2 8475   2.677   3.221   3.571
 2087SOL    HW3 8476   2.767   3.204   3.450
 2087SOL    MW4 8477   2.692   3.230   3.485
 2088SOL     OW 8478   2.685   3.485   3.372
 2088SOL    HW2 8479   2.680   3.397   3.410
 2088SOL    HW3 8480   2.615   3.533   3.414
 2088SOL    MW4 8481   2.675   3.480   3.382
 2089SOL     OW 8482   2.906   3.608   3.501
 2089SOL    HW2 8483   2.906   3.693   3.457
 2089SOL    HW3 8484   2.834   3.560   3.460
 2089SOL    MW4 8485   2.896   3.613   3.490
 2090SOL     OW 8486   2.912   3.879   3.349
 2090SOL    HW2 8487   2.990   3.917   3.390
 2090SOL    HW3 8488   2.839   3.925   3.390
 2090SOL    MW4 8489   2.913   3.890   3.359
 2091SOL     OW 8490   2.709   4.019   3.486
 2091SOL    HW2 8491   2.681   4.015   3.577
 2091SOL    HW3 8492   2.703   4.112   3.463
 2091SOL    MW4 8493   2.705   4.031   3.495
 2092SOL     OW 8494   2.674   4.279   3.423
 2092SOL    HW2 8495   2.754   4.319   3.455
 2092SOL    HW3 8496   2.604   4.330   3.463
 2092SOL    MW4 8497   2.675   4.291   3.432
 2093SOL     OW 8498   2.933   4.390   3.486
 2093SOL    HW2 8499   2.939   4.402   3.581
 2093SOL    HW3 8500   2.908   4.476   3.453
 2093SOL    MW4 8501   2.931   4.403   3.494
 2094SOL     OW 8502   3.347   0.014   3.411
 2094SOL    HW2 8503   3.264   0.045   3.447
 2094SOL    HW3 8504   3.336   0.018   3.316
 2094SOL    MW4 8505   3.335   0.019   3.403
 2095SOL     OW 8506   3.095   0.095   3.527
 2095SOL    HW2 8507   3.105   0.187   3.503
 2095SOL    HW3 8508   3.020   0.065   3.475
 2095SOL    MW4 8509   3.087   0.103   3.517
 2096SOL     OW 8510   3.110   0.337   3.394
 2096SOL    HW2 8511   3.035   0.393   3.415
 2096SOL    HW3 8512   3.109   0.332   3.298
 2096SOL    MW4 8513   3.100   0.344   3.384
 2097SOL     OW 8514   3.350   0.493   3.461
 2097SOL    HW2 8515   3.355   0.522   3.552
 2097SOL    HW3 8516   3.264   0.452   3.453
 2097SOL    MW4 8517   3.339   0.492   3.472
 2098SOL     OW 8518   3.369   0.762   3.368
 2098SOL    HW2 8519   3.446   0.810   3.400
 2098SOL    HW3 8520   3.371   0.679   3.415
 2098SOL    MW4 8521   3.380   0.757   3.378
 2099SOL     OW 8522   3.141   0.911   3.443
 2099SOL    HW2 8523   3.133   0.998   3.405
 2099SOL    HW3 8524   3.223   0.876   3.406
 2099SOL    MW4 8525   3.151   0.918   3.433
 2100SOL     OW 8526   3.122   1.162   3.338
 2100SOL    HW2 8527   3.202   1.211   3.357
 2100SOL    HW3 8528   3.126   1.146   3.243
 2100SOL    MW4 8529   3.133   1.167   3.328
 2101SOL     OW 8530   3.339   1.295   3.458
 2101SOL    HW2 8531   3.413   1.239   3.436
 2101SOL    HW3 8532   3.363   1.381   3.422
 2101SOL    MW4 8533   3.352   1.299   3.450
 2102SOL     OW 8534   3.379   1.535   3.341
 2102SOL    HW2 8535   3.450   1.575   3.391
 2102SOL    HW3 8536   3.299   1.570   3.380
 2102SOL    MW4 8537   3.377   1.545   3.353
 2103SOL     OW 8538   3.162   1.645   3.476
 2103SOL    HW2 8539   3.167   1.736   3.446
 2103SOL    HW3 8540   3.074   1.617   3.453
 2103SOL    MW4 8541   3.151   1.653   3.469
 2104SOL     OW 8542   3.167   1.915   3.384
 2104SOL    HW2 8543   3.091   1.964   3.417
 2104SOL    HW3 8544   3.163   1.924   3.289
 2104SOL    MW4 8545   3.157   1.923   3.376
 2105SOL     OW 8546   3.398   2.085   3.503
 2105SOL    HW2 8547   3.405   2.162   3.447
 2105SOL    HW3 8548   3.312   2.048   3.482
 2105SOL    MW4 8549   3.387   2.090   3.493
 2106SOL     OW 8550   3.384   2.332   3.358
 2106SOL    HW2 8551   3.455   2.371   3.409
 2106SOL    HW3 8552   3.307   2.385   3.381
 2106SOL    MW4 8553   3.383   2.344   3.368
 2107SOL     OW 8554   3.139   2.456   3.478
 2107SOL    HW2 8555   3.141   2.540   3.433
 2107SOL    HW3 8556   3.072   2.406   3.433
 2107SOL    MW4 8557   3.131   2.461   3.466
 2108SOL     OW 8558   3.179   2.716   3.360
 2108SOL    HW2 8559   3.247   2.753   3.418
 2108SOL    HW3 8560   3.097   2.743   3.400
 2108SOL    MW4 8561   3.177   2.724   3.373
 2109SOL     OW 8562   3.363   2.824   3.526
 2109SOL    HW2 8563   3.429   2.769   3.484
 2109SOL    HW3 8564   3.365   2.906   3.477
 2109SOL    MW4 8565   3.372   2.828   3.514
 2110SOL     OW 8566   3.383   3.084   3.398
 2110SOL    HW2 8567   3.457   3.132   3.436
 2110SOL    HW3 8568   3.306   3.124   3.438
 2110SOL    MW4 8569   3.383   3.095   3.409
 2111SOL     OW 8570   3.162   3.261   3.510
 2111SOL    HW2 8571   3.174   3.342   3.460
 2111SOL    HW3 8572   3.088   3.218   3.467
 2111SOL    MW4 8573   3.154   3.266   3.498
 2112SOL     OW 8574   3.149   3.507   3.395
 2112SOL    HW2 8575   3.071   3.552   3.428
 2112SOL    HW3 8576   3.140   3.509   3.300
 2112SOL    MW4 8577   3.138   3.513   3.387
 2113SOL     OW 8578   3.375   3.629   3.503
 2113SOL    HW2 8579   3.367   3.705   3.447
 2113SOL    HW3 8580   3.304   3.571   3.475
 2113SOL    MW4 8581   3.365   3.631   3.492
 2114SOL     OW 8582   3.351   3.854   3.331
 2114SOL    HW2 8583   3.419   3.905   3.375
 2114SOL    HW3 8584   3.269   3.894   3.360
 2114SOL    MW4 8585   3.349   3.866   3.340
 2115SOL     OW 8586   3.142   3.995   3.470
 2115SOL    HW2 8587   3.136   4.014   3.564
 2115SOL    HW3 8588   3.137   4.081   3.428
 2115SOL    MW4 8589   3.140   4.009   3.477
 2116SOL     OW 8590   3.147   4.253   3.370
 2116SOL    HW2 8591   3.220   4.300   3.409
 2116SOL    HW3 8592   3.069   4.292   3.410
 2116SOL    MW4 8593   3.146   4.265   3.380
 2117SOL     OW 8594   3.364   4.408   3.483
 2117SOL    HW2 8595   3.351   4.393   3.576
 2117SOL    HW3 8596   3.358   4.503   3.473
 2117SOL    MW4 8597   3.362   4.419   3.494
 2118SOL     OW 8598   3.837   4.636   3.402
 2118SOL    HW2 8599   3.760   4.680   3.438
 2118SOL    HW3 8600   3.828   4.644   3.308
 2118SOL    MW4 8601   3.826   4.643   3.395
 2119SOL     OW 8602   3.612   0.119   3.511
 2119SOL    HW2 8603   3.597   0.195   3.455
 2119SOL    HW3 8604   3.530   0.071   3.509
 2119SOL    MW4 8605   3.599   0.123   3.503
 2120SOL     OW 8606   3.590   0.371   3.401
 2120SOL    HW2 8607   3.661   0.424   3.438
 2120SOL    HW3 8608   3.510   0.411   3.436
 2120SOL    MW4 8609   3.589   0.383   3.411
 2121SOL     OW 8610   3.798   0.486   3.550
 2121SOL    HW2 8611   3.821   0.484   3.643
 2121SOL    HW3 8612   3.879   0.462   3.505
 2121SOL    MW4 8613   3.812   0.483   3.556
 2122SOL     OW 8614   3.807   0.740   3.433
 2122SOL    HW2 8615   3.890   0.778   3.463
 2122SOL    HW3 8616   3.803   0.656   3.477
 2122SOL    MW4 8617   3.818   0.734   3.443
 2123SOL     OW 8618   3.589   0.892   3.501
 2123SOL    HW2 8619   3.583   0.905   3.595
 2123SOL    HW3 8620   3.661   0.831   3.489
 2123SOL    MW4 8621   3.598   0.886   3.511
 2124SOL     OW 8622   3.564   1.147   3.401
 2124SOL    HW2 8623   3.578   1.056   3.428
 2124SOL    HW3 8624   3.569   1.145   3.305
 2124SOL    MW4 8625   3.566   1.135   3.392
 2125SOL     OW 8626   3.797   1.282   3.449
 2125SOL    HW2 8627   3.809   1.283   3.544
 2125SOL    HW3 8628   3.719   1.228   3.435
 2125SOL    MW4 8629   3.788   1.275   3.460
 2126SOL     OW 8630   3.803   1.560   3.371
 2126SOL    HW2 8631   3.886   1.593   3.405
 2126SOL    HW3 8632   3.794   1.473   3.407
 2126SOL    MW4 8633   3.813   1.553   3.380
 2127SOL     OW 8634   3.584   1.685   3.468
 2127SOL    HW2 8635   3.586   1.777   3.442
 2127SOL    HW3 8636   3.657   1.645   3.420
 2127SOL    MW4 8637   3.594   1.692   3.458
 2128SOL     OW 8638   3.597   1.928   3.364
 2128SOL    HW2 8639   3.681   1.969   3.382
 2128SOL    HW3 8640   3.533   1.984   3.407
 2128SOL    MW4 8641   3.600   1.941   3.372
 2129SOL     OW 8642   3.811   2.060   3.460
 2129SOL    HW2 8643   3.809   2.051   3.555
 2129SOL    HW3 8644   3.884   2.005   3.432
 2129SOL    MW4 8645   3.820   2.052   3.468
 2130SOL     OW 8646   3.789   2.322   3.405
 2130SOL    HW2 8647   3.876   2.357   3.420
 2130SOL    HW3 8648   3.802   2.227   3.401
 2130SOL    MW4 8649   3.802   2.314   3.406
 2131SOL     OW 8650   3.573   2.427   3.532
 2131SOL    HW2 8651   3.588   2.518   3.507
 2131SOL    HW3 8652   3.650   2.380   3.499
 2131SOL    MW4 8653   3.586   2.433   3.524
 2132SOL     OW 8654   3.580   2.685   3.415
 2132SOL    HW2 8655   3.666   2.716   3.445
 2132SOL    HW3 8656   3.582   2.697   3.320
 2132SOL    MW4 8657   3.591   2.691   3.406
 2133SOL     OW 8658   3.818   2.822   3.504
 2133SOL    HW2 8659   3.832   2.831   3.598
 2133SOL    HW3 8660   3.800   2.911   3.473
 2133SOL    MW4 8661   3.817   2.835   3.512
 2134SOL     OW 8662   3.795   3.085   3.375
 2134SOL    HW2 8663   3.869   3.126   3.420
 2134SOL    HW3 8664   3.811   3.101   3.282
 2134SOL    MW4 8665   3.807   3.093   3.369
 2135SOL     OW 8666   3.592   3.240   3.479
 2135SOL    HW2 8667   3.613   3.329   3.449
 2135SOL    HW3 8668   3.659   3.185   3.439
 2135SOL    MW4 8669   3.603   3.245   3.470
 2136SOL     OW 8670   3.629   3.493   3.421
 2136SOL    HW2 8671   3.553   3.544   3.450
 2136SOL    HW3 8672   3.637   3.513   3.328
 2136SOL    MW4 8673   3.620   3.502   3.412
 2137SOL     OW 8674   3.834   3.656   3.494
 2137SOL    HW2 8675   3.830   3.653   3.590
 2137SOL    HW3 8676   3.756   3.607   3.466
 2137SOL    MW4 8677   3.823   3.649   3.503
 2138SOL     OW 8678   3.838   3.917   3.399
 2138SOL    HW2 8679   3.754   3.948   3.434
 2138SOL    HW3 8680   3.842   3.825   3.425
 2138SOL    MW4 8681   3.827   3.909   3.407
 2139SOL     OW 8682   3.586   3.984   3.473
 2139SOL    HW2 8683   3.594   4.006   3.566
 2139SOL    HW3 8684   3.579   4.069   3.429
 2139SOL    MW4 8685   3.586   3.998   3.480
 2140SOL     OW 8686   3.581   4.246   3.387
 2140SOL    HW2 8687   3.514   4.304   3.422
 2140SOL    HW3 8688   3.577   4.257   3.292
 2140SOL    MW4 8689   3.572   4.255   3.379
 2141SOL     OW 8690   3.807   4.360   3.505
 2141SOL    HW2 8691   3.732   4.315   3.467
 2141SOL    HW3 8692   3.806   4.447   3.465
 2141SOL    MW4 8693   3.797   4.366   3.495
 2142SOL     OW 8694   4.276   0.017   3.372
 2142SOL    HW2 8695   4.270  -0.077   3.391
 2142SOL    HW3 8696   4.361   0.043   3.409
 2142SOL    MW4 8697   4.287   0.008   3.380
 2143SOL     OW 8698   4.055   0.125   3.503
 2143SOL    HW2 8699   4.140   0.092   3.474
 2143SOL    HW3 8700   3.992   0.060   3.473
 2143SOL    MW4 8701   4.058   0.112   3.495
 2144SOL     OW 8702   4.030   0.403   3.402
 2144SOL    HW2 8703   4.039   0.309   3.418
 2144SOL    HW3 8704   4.028   0.411   3.306
 2144SOL    MW4 8705   4.031   0.392   3.391
 2145SOL     OW 8706   4.277   0.509   3.488
 2145SOL    HW2 8707   4.265   0.604   3.476
 2145SOL    HW3 8708   4.194   0.471   3.460
 2145SOL    MW4 8709   4.265   0.517   3.483
 2146SOL     OW 8710   4.245   0.771   3.424
 2146SOL    HW2 8711   4.324   0.810   3.460
 2146SOL    HW3 8712   4.260   0.766   3.330
 2146SOL    MW4 8713   4.257   0.776   3.416
 2147SOL     OW 8714   4.031   0.893   3.493
 2147SOL    HW2 8715   4.024   0.970   3.437
 2147SOL    HW3 8716   4.110   0.849   3.463
 2147SOL    MW4 8717   4.041   0.898   3.482
 2148SOL     OW 8718   4.024   1.151   3.362
 2148SOL    HW2 8719   4.106   1.178   3.404
 2148SOL    HW3 8720   3.958   1.209   3.399
 2148SOL    MW4 8721   4.026   1.162   3.372
 2149SOL     OW 8722   4.223   1.273   3.515
 2149SOL    HW2 8723   4.214   1.362   3.482
 2149SOL    HW3 8724   4.315   1.251   3.501
 2149SOL    MW4 8725   4.234   1.282   3.509
 2150SOL     OW 8726   4.264   1.538   3.411
 2150SOL    HW2 8727   4.187   1.586   3.441
 2150SOL    HW3 8728   4.255   1.534   3.316
 2150SOL    MW4 8729   4.253   1.543   3.402
 2151SOL     OW 8730   4.021   1.656   3.505
 2151SOL    HW2 8731   4.021   1.672   3.599
 2151SOL    HW3 8732   4.035   1.742   3.466
 2151SOL    MW4 8733   4.023   1.669   3.512
 2152SOL     OW 8734   4.021   1.908   3.378
 2152SOL    HW2 8735   4.095   1.959   3.412
 2152SOL    HW3 8736   4.026   1.919   3.283
 2152SOL    MW4 8737   4.032   1.916   3.370
 2153SOL     OW 8738   4.216   2.063   3.490
 2153SOL    HW2 8739   4.234   2.148   3.450
 2153SOL    HW3 8740   4.300   2.017   3.490
 2153SOL    MW4 8741   4.229   2.068   3.485
 2154SOL     OW 8742   4.269   2.319   3.388
 2154SOL    HW2 8743   4.181   2.343   3.415
 2154SOL    HW3 8744   4.265   2.317   3.292
 2154SOL    MW4 8745   4.257   2.322   3.379
 2155SOL     OW 8746   4.029   2.433   3.455
 2155SOL    HW2 8747   4.014   2.454   3.547
 2155SOL    HW3 8748   4.038   2.519   3.412
 2155SOL    MW4 8749   4.028   2.447   3.461
 2156SOL     OW 8750   4.033   2.691   3.378
 2156SOL    HW2 8751   4.105   2.732   3.426
 2156SOL    HW3 8752   3.955   2.738   3.408
 2156SOL    MW4 8753   4.032   2.703   3.388
 2157SOL     OW 8754   4.242   2.810   3.484
 2157SOL    HW2 8755   4.249   2.806   3.579
 2157SOL    HW3 8756   4.329   2.786   3.453
 2157SOL    MW4 8757   4.254   2.806   3.492
 2158SOL     OW 8758   4.251   3.074   3.407
 2158SOL    HW2 8759   4.255   2.982   3.433
 2158SOL    HW3 8760   4.258   3.073   3.312
 2158SOL    MW4 8761   4.253   3.062   3.398
 2159SOL     OW 8762   4.011   3.202   3.509
 2159SOL    HW2 8763   4.006   3.297   3.501
 2159SOL    HW3 8764   4.090   3.178   3.461
 2159SOL    MW4 8765   4.021   3.211   3.502
 2160SOL     OW 8766   4.056   3.492   3.451
 2160SOL    HW2 8767   4.133   3.519   3.500
 2160SOL    HW3 8768   3.996   3.567   3.456
 2160SOL    MW4 8769   4.058   3.506   3.458
 2161SOL     OW 8770   4.294   3.614   3.504
 2161SOL    HW2 8771   4.294   3.633   3.597
 2161SOL    HW3 8772   4.281   3.699   3.462
 2161SOL    MW4 8773   4.293   3.627   3.511
 2162SOL     OW 8774   4.285   3.870   3.407
 2162SOL    HW2 8775   4.362   3.915   3.442
 2162SOL    HW3 8776   4.276   3.904   3.318
 2162SOL    MW4 8777   4.294   3.881   3.400
 2163SOL     OW 8778   4.072   3.989   3.533
 2163SOL    HW2 8779   4.145   3.942   3.495
 2163SOL    HW3 8780   3.994   3.953   3.490
 2163SOL    MW4 8781   4.071   3.978   3.522
 2164SOL     OW 8782   4.062   4.255   3.409
 2164SOL    HW2 8783   4.053   4.168   3.447
 2164SOL    HW3 8784   3.985   4.303   3.440
 2164SOL    MW4 8785   4.051   4.250   3.418
 2165SOL     OW 8786   4.281   4.417   3.492
 2165SOL    HW2 8787   4.295   4.421   3.586
 2165SOL    HW3 8788   4.202   4.365   3.481
 2165SOL    MW4 8789   4.273   4.411   3.503
 2166SOL     OW 8790   0.270   0.010   3.883
 2166SOL    HW2 8791   0.269   0.014   3.978
 2166SOL    HW3 8792   0.199   0.068   3.856
 2166SOL    MW4 8793   0.260   0.018   3.892
 2167SOL     OW 8794   0.057   0.145   3.777
 2167SOL    HW2 8795   0.035   0.233   3.807
 2167SOL    HW3 8796   0.041   0.146   3.683
 2167SOL    MW4 8797   0.052   0.157   3.769
 2168SOL     OW 8798   0.020   0.393   3.891
 2168SOL    HW2 8799  -0.050   0.437   3.842
 2168SOL    HW3 8800   0.099   0.444   3.871
 2168SOL    MW4 8801   0.021   0.405   3.882
 2169SOL     OW 8802   0.262   0.535   3.828
 2169SOL    HW2 8803   0.241   0.627   3.848
 2169SOL    HW3 8804   0.288   0.536   3.736
 2169SOL    MW4 8805   0.263   0.548   3.818
 2170SOL     OW 8806   0.247   0.803   3.907
 2170SOL    HW2 8807   0.244   0.792   4.002
 2170SOL    HW3 8808   0.164   0.846   3.885
 2170SOL    MW4 8809   0.235   0.808   3.917
 2171SOL     OW 8810   0.034   0.906   3.787
 2171SOL    HW2 8811  -0.042   0.863   3.827
 2171SOL    HW3 8812   0.036   0.993   3.827
 2171SOL    MW4 8813   0.024   0.912   3.797
 2172SOL     OW 8814   0.032   1.162   3.909
 2172SOL    HW2 8815  -0.044   1.187   3.856
 2172SOL    HW3 8816   0.102   1.220   3.880
 2172SOL    MW4 8817   0.031   1.173   3.898
 2173SOL     OW 8818   0.253   1.275   3.784
 2173SOL    HW2 8819   0.262   1.365   3.814
 2173SOL    HW3 8820   0.251   1.282   3.688
 2173SOL    MW4 8821   0.254   1.288   3.775
 2174SOL     OW 8822   0.225   1.555   3.857
 2174SOL    HW2 8823   0.218   1.568   3.951
 2174SOL    HW3 8824   0.136   1.567   3.824
 2174SOL    MW4 8825   0.212   1.559   3.865
 2175SOL     OW 8826   4.475   1.654   3.757
 2175SOL    HW2 8827   4.468   1.742   3.794
 2175SOL    HW3 8828   4.510   1.667   3.669
 2175SOL    MW4 8829   4.479   1.667   3.750
 2176SOL     OW 8830   4.474   1.924   3.837
 2176SOL    HW2 8831   4.471   1.935   3.932
 2176SOL    HW3 8832   4.417   1.993   3.803
 2176SOL    MW4 8833   4.466   1.935   3.845
 2177SOL     OW 8834   0.245   2.013   3.733
 2177SOL    HW2 8835   0.224   2.099   3.767
 2177SOL    HW3 8836   0.170   1.958   3.757
 2177SOL    MW4 8837   0.233   2.017   3.741
 2178SOL     OW 8838   0.213   2.258   3.827
 2178SOL    HW2 8839   0.217   2.264   3.923
 2178SOL    HW3 8840   0.134   2.306   3.803
 2178SOL    MW4 8841   0.203   2.265   3.837
 2179SOL     OW 8842   4.487   2.440   3.744
 2179SOL    HW2 8843   4.401   2.421   3.781
 2179SOL    HW3 8844   4.512   2.524   3.783
 2179SOL    MW4 8845   4.479   2.449   3.754
 2180SOL     OW 8846   0.016   2.677   3.876
 2180SOL    HW2 8847   0.011   2.688   3.971
 2180SOL    HW3 8848   0.092   2.729   3.849
 2180SOL    MW4 8849   0.025   2.686   3.885
 2181SOL     OW 8850   0.231   2.831   3.802
 2181SOL    HW2 8851   0.300   2.769   3.828
 2181SOL    HW3 8852   0.239   2.836   3.707
 2181SOL    MW4 8853   0.241   2.823   3.793
 2182SOL     OW 8854   0.267   3.102   3.851
 2182SOL    HW2 8855   0.275   3.103   3.947
 2182SOL    HW3 8856   0.258   3.010   3.829
 2182SOL    MW4 8857   0.267   3.090   3.861
 2183SOL     OW 8858   0.012   3.185   3.804
 2183SOL    HW2 8859   0.104   3.158   3.811
 2183SOL    HW3 8860  -0.011   3.167   3.713
 2183SOL    MW4 8861   0.021   3.179   3.793
 2184SOL     OW 8862   4.480   3.446   3.860
 2184SOL    HW2 8863   4.553   3.493   3.819
 2184SOL    HW3 8864   4.496   3.354   3.840
 2184SOL    MW4 8865   4.492   3.440   3.852
 2185SOL     OW 8866   0.205   3.609   3.772
 2185SOL    HW2 8867   0.294   3.576   3.766
 2185SOL    HW3 8868   0.213   3.694   3.816
 2185SOL    MW4 8869   0.218   3.616   3.777
 2186SOL     OW 8870   0.231   3.849   3.899
 2186SOL    HW2 8871   0.243   3.820   3.990
 2186SOL    HW3 8872   0.304   3.908   3.882
 2186SOL    MW4 8873   0.242   3.853   3.909
 2187SOL     OW 8874   0.041   4.000   3.779
 2187SOL    HW2 8875  -0.029   3.964   3.833
 2187SOL    HW3 8876   0.120   3.955   3.808
 2187SOL    MW4 8877   0.042   3.990   3.790
 2188SOL     OW 8878   0.007   4.271   3.867
 2188SOL    HW2 8879   0.084   4.323   3.843
 2188SOL    HW3 8880   0.026   4.183   3.834
 2188SOL    MW4 8881   0.020   4.266   3.859
 2189SOL     OW 8882   0.241   4.406   3.799
 2189SOL    HW2 8883   0.310   4.356   3.842
 2189SOL    HW3 8884   0.254   4.496   3.828
 2189SOL    MW4 8885   0.252   4.411   3.808
 2190SOL     OW 8886   0.684   0.013   3.957
 2190SOL    HW2 8887   0.674  -0.071   3.913
 2190SOL    HW3 8888   0.615   0.069   3.921
 2190SOL    MW4 8889   0.674   0.010   3.947
 2191SOL     OW 8890   0.496   0.135   3.773
 2191SOL    HW2 8891   0.475   0.214   3.824
 2191SOL    HW3 8892   0.428   0.072   3.797
 2191SOL    MW4 8893   0.484   0.137   3.783
 2192SOL     OW 8894   0.478   0.372   3.909
 2192SOL    HW2 8895   0.551   0.428   3.883
 2192SOL    HW3 8896   0.399   0.421   3.886
 2192SOL    MW4 8897   0.477   0.386   3.903
 2193SOL     OW 8898   0.709   0.495   3.791
 2193SOL    HW2 8899   0.781   0.444   3.827
 2193SOL    HW3 8900   0.720   0.582   3.830
 2193SOL    MW4 8901   0.720   0.500   3.801
 2194SOL     OW 8902   0.682   0.745   3.909
 2194SOL    HW2 8903   0.761   0.782   3.870
 2194SOL    HW3 8904   0.611   0.801   3.878
 2194SOL    MW4 8905   0.683   0.757   3.899
 2195SOL     OW 8906   0.487   0.898   3.806
 2195SOL    HW2 8907   0.493   0.986   3.842
 2195SOL    HW3 8908   0.410   0.861   3.849
 2195SOL    MW4 8909   0.477   0.905   3.816
 2196SOL     OW 8910   0.501   1.156   3.879
 2196SOL    HW2 8911   0.569   1.212   3.841
 2196SOL    HW3 8912   0.419   1.191   3.847
 2196SOL    MW4 8913   0.499   1.168   3.870
 2197SOL     OW 8914   0.687   1.321   3.756
 2197SOL    HW2 8915   0.767   1.278   3.785
 2197SOL    HW3 8916   0.676   1.292   3.665
 2197SOL    MW4 8917   0.696   1.311   3.748
 2198SOL     OW 8918   0.667   1.570   3.882
 2198SOL    HW2 8919   0.740   1.623   3.850
 2198SOL    HW3 8920   0.671   1.490   3.831
 2198SOL    MW4 8921   0.677   1.567   3.871
 2199SOL     OW 8922   0.444   1.654   3.706
 2199SOL    HW2 8923   0.523   1.617   3.746
 2199SOL    HW3 8924   0.372   1.618   3.756
 2199SOL    MW4 8925   0.445   1.645   3.718
 2200SOL     OW 8926   0.441   1.890   3.874
 2200SOL    HW2 8927   0.441   1.808   3.826
 2200SOL    HW3 8928   0.358   1.932   3.851
 2200SOL    MW4 8929   0.430   1.885   3.865
 2201SOL     OW 8930   0.624   2.031   3.730
 2201SOL    HW2 8931   0.616   2.116   3.774
 2201SOL    HW3 8932   0.546   1.983   3.757
 2201SOL    MW4 8933   0.612   2.036   3.739
 2202SOL     OW 8934   0.658   2.268   3.865
 2202SOL    HW2 8935   0.732   2.317   3.828
 2202SOL    HW3 8936   0.581   2.306   3.823
 2202SOL    MW4 8937   0.658   2.280   3.854
 2203SOL     OW 8938   0.446   2.390   3.743
 2203SOL    HW2 8939   0.368   2.334   3.752
 2203SOL    HW3 8940   0.448   2.413   3.650
 2203SOL    MW4 8941   0.436   2.386   3.732
 2204SOL     OW 8942   0.458   2.647   3.879
 2204SOL    HW2 8943   0.520   2.689   3.819
 2204SOL    HW3 8944   0.445   2.560   3.842
 2204SOL    MW4 8945   0.464   2.641   3.866
 2205SOL     OW 8946   0.688   2.822   3.777
 2205SOL    HW2 8947   0.767   2.778   3.807
 2205SOL    HW3 8948   0.697   2.826   3.682
 2205SOL    MW4 8949   0.699   2.817   3.769
 2206SOL     OW 8950   0.684   3.082   3.859
 2206SOL    HW2 8951   0.681   3.075   3.954
 2206SOL    HW3 8952   0.692   2.992   3.829
 2206SOL    MW4 8953   0.685   3.069   3.868
 2207SOL     OW 8954   0.470   3.230   3.731
 2207SOL    HW2 8955   0.549   3.196   3.773
 2207SOL    HW3 8956   0.399   3.183   3.773
 2207SOL    MW4 8957   0.471   3.220   3.742
 2208SOL     OW 8958   0.461   3.498   3.826
 2208SOL    HW2 8959   0.543   3.543   3.803
 2208SOL    HW3 8960   0.470   3.411   3.788
 2208SOL    MW4 8961   0.473   3.493   3.818
 2209SOL     OW 8962   0.714   3.602   3.766
 2209SOL    HW2 8963   0.708   3.696   3.777
 2209SOL    HW3 8964   0.718   3.589   3.671
 2209SOL    MW4 8965   0.714   3.612   3.755
 2210SOL     OW 8966   0.709   3.868   3.834
 2210SOL    HW2 8967   0.720   3.863   3.929
 2210SOL    HW3 8968   0.779   3.926   3.805
 2210SOL    MW4 8969   0.720   3.875   3.843
 2211SOL     OW 8970   0.452   4.000   3.787
 2211SOL    HW2 8971   0.536   3.968   3.820
 2211SOL    HW3 8972   0.458   3.991   3.692
 2211SOL    MW4 8973   0.464   3.995   3.779
 2212SOL     OW 8974   0.442   4.260   3.916
 2212SOL    HW2 8975   0.514   4.320   3.901
 2212SOL    HW3 8976   0.463   4.183   3.862
 2212SOL    MW4 8977   0.454   4.258   3.907
 2213SOL     OW 8978   0.658   4.435   3.821
 2213SOL    HW2 8979   0.743   4.398   3.844
 2213SOL    HW3 8980   0.646   4.412   3.729
 2213SOL    MW4 8981   0.667   4.427   3.812
 2214SOL     OW 8982   1.136   0.024   3.865
 2214SOL    HW2 8983   1.217   0.064   3.833
 2214SOL    HW3 8984   1.148  -0.070   3.849
 2214SOL    MW4 8985   1.149   0.017   3.859
 2215SOL     OW 8986   0.881   0.095   3.786
 2215SOL    HW2 8987   0.971   0.079   3.815
 2215SOL    HW3 8988   0.826   0.056   3.854
 2215SOL    MW4 8989   0.886   0.088   3.799
 2216SOL     OW 8990   0.923   0.349   3.888
 2216SOL    HW2 8991   0.928   0.359   3.983
 2216SOL    HW3 8992   0.894   0.259   3.875
 2216SOL    MW4 8993   0.920   0.339   3.899
 2217SOL     OW 8994   1.144   0.499   3.779
 2217SOL    HW2 8995   1.223   0.458   3.814
 2217SOL    HW3 8996   1.073   0.442   3.808
 2217SOL    MW4 8997   1.145   0.486   3.787
 2218SOL     OW 8998   1.127   0.771   3.871
 2218SOL    HW2 8999   1.125   0.765   3.966
 2218SOL    HW3 9000   1.126   0.679   3.842
 2218SOL    MW4 9001   1.127   0.758   3.879
 2219SOL     OW 9002   0.900   0.891   3.811
 2219SOL    HW2 9003   0.983   0.847   3.828
 2219SOL    HW3 9004   0.883   0.876   3.718
 2219SOL    MW4 9005   0.909   0.883   3.801
 2220SOL     OW 9006   0.920   1.156   3.861
 2220SOL    HW2 9007   0.915   1.161   3.956
 2220SOL    HW3 9008   0.907   1.063   3.841
 2220SOL    MW4 9009   0.917   1.144   3.871
 2221SOL     OW 9010   1.152   1.307   3.789
 2221SOL    HW2 9011   1.152   1.388   3.840
 2221SOL    HW3 9012   1.080   1.256   3.827
 2221SOL    MW4 9013   1.142   1.311   3.801
 2222SOL     OW 9014   1.145   1.582   3.906
 2222SOL    HW2 9015   1.168   1.579   3.999
 2222SOL    HW3 9016   1.225   1.610   3.862
 2222SOL    MW4 9017   1.158   1.585   3.913
 2223SOL     OW 9018   0.899   1.690   3.799
 2223SOL    HW2 9019   0.981   1.670   3.844
 2223SOL    HW3 9020   0.923   1.702   3.708
 2223SOL    MW4 9021   0.913   1.689   3.793
 2224SOL     OW 9022   0.859   1.959   3.869
 2224SOL    HW2 9023   0.863   1.864   3.858
 2224SOL    HW3 9024   0.779   1.984   3.822
 2224SOL    MW4 9025   0.849   1.950   3.861
 2225SOL     OW 9026   1.104   2.052   3.753
 2225SOL    HW2 9027   1.051   1.990   3.803
 2225SOL    HW3 9028   1.083   2.034   3.662
 2225SOL    MW4 9029   1.094   2.042   3.748
 2226SOL     OW 9030   1.116   2.312   3.861
 2226SOL    HW2 9031   1.113   2.312   3.956
 2226SOL    HW3 9032   1.113   2.220   3.837
 2226SOL    MW4 9033   1.115   2.300   3.870
 2227SOL     OW 9034   0.869   2.429   3.765
 2227SOL    HW2 9035   0.897   2.519   3.786
 2227SOL    HW3 9036   0.948   2.377   3.777
 2227SOL    MW4 9037   0.883   2.434   3.770
 2228SOL     OW 9038   0.933   2.693   3.824
 2228SOL    HW2 9039   0.937   2.679   3.919
 2228SOL    HW3 9040   1.014   2.740   3.804
 2228SOL    MW4 9041   0.945   2.698   3.834
 2229SOL     OW 9042   1.157   2.854   3.755
 2229SOL    HW2 9043   1.224   2.802   3.798
 2229SOL    HW3 9044   1.158   2.938   3.801
 2229SOL    MW4 9045   1.166   2.858   3.766
 2230SOL     OW 9046   1.161   3.088   3.892
 2230SOL    HW2 9047   1.228   3.134   3.841
 2230SOL    HW3 9048   1.078   3.121   3.857
 2230SOL    MW4 9049   1.159   3.099   3.880
 2231SOL     OW 9050   0.922   3.181   3.798
 2231SOL    HW2 9051   0.840   3.133   3.816
 2231SOL    HW3 9052   0.908   3.221   3.712
 2231SOL    MW4 9053   0.909   3.180   3.789
 2232SOL     OW 9054   0.895   3.451   3.908
 2232SOL    HW2 9055   0.893   3.359   3.882
 2232SOL    HW3 9056   0.834   3.495   3.849
 2232SOL    MW4 9057   0.887   3.445   3.897
 2233SOL     OW 9058   1.122   3.580   3.759
 2233SOL    HW2 9059   1.135   3.667   3.798
 2233SOL    HW3 9060   1.051   3.541   3.810
 2233SOL    MW4 9061   1.115   3.586   3.771
 2234SOL     OW 9062   1.141   3.834   3.874
 2234SOL    HW2 9063   1.146   3.845   3.969
 2234SOL    HW3 9064   1.210   3.891   3.840
 2234SOL    MW4 9065   1.151   3.843   3.882
 2235SOL     OW 9066   0.932   4.025   3.794
 2235SOL    HW2 9067   1.008   3.974   3.822
 2235SOL    HW3 9068   0.932   4.017   3.699
 2235SOL    MW4 9069   0.942   4.017   3.786
 2236SOL     OW 9070   0.902   4.312   3.866
 2236SOL    HW2 9071   0.904   4.310   3.962
 2236SOL    HW3 9072   0.904   4.220   3.839
 2236SOL    MW4 9073   0.902   4.300   3.875
 2237SOL     OW 9074   1.156   4.422   3.817
 2237SOL    HW2 9075   1.081   4.368   3.842
 2237SOL    HW3 9076   1.144   4.436   3.723
 2237SOL    MW4 9077   1.145   4.417   3.808
 2238SOL     OW 9078   1.584   4.650   3.885
 2238SOL    HW2 9079   1.580   4.655   3.980
 2238SOL    HW3 9080   1.582   4.557   3.865
 2238SOL    MW4 9081   1.583   4.639   3.895
 2239SOL     OW 9082   1.380   0.107   3.730
 2239SOL    HW2 9083   1.374   0.201   3.749
 2239SOL    HW3 9084   1.458   0.078   3.778
 2239SOL    MW4 9085   1.390   0.116   3.739
 2240SOL     OW 9086   1.378   0.369   3.849
 2240SOL    HW2 9087   1.384   0.361   3.944
 2240SOL    HW3 9088   1.452   0.424   3.825
 2240SOL    MW4 9089   1.388   0.375   3.859
 2241SOL     OW 9090   1.593   0.530   3.798
 2241SOL    HW2 9091   1.666   0.482   3.837
 2241SOL    HW3 9092   1.602   0.619   3.832
 2241SOL    MW4 9093   1.604   0.536   3.807
 2242SOL     OW 9094   1.593   0.795   3.903
 2242SOL    HW2 9095   1.661   0.839   3.851
 2242SOL    HW3 9096   1.511   0.822   3.861
 2242SOL    MW4 9097   1.591   0.805   3.891
 2243SOL     OW 9098   1.362   0.910   3.787
 2243SOL    HW2 9099   1.386   0.984   3.842
 2243SOL    HW3 9100   1.280   0.878   3.823
 2243SOL    MW4 9101   1.355   0.915   3.799
 2244SOL     OW 9102   1.369   1.169   3.914
 2244SOL    HW2 9103   1.448   1.214   3.883
 2244SOL    HW3 9104   1.297   1.212   3.868
 2244SOL    MW4 9105   1.370   1.180   3.904
 2245SOL     OW 9106   1.626   1.256   3.781
 2245SOL    HW2 9107   1.710   1.233   3.821
 2245SOL    HW3 9108   1.622   1.352   3.786
 2245SOL    MW4 9109   1.636   1.266   3.787
 2246SOL     OW 9110   1.604   1.544   3.824
 2246SOL    HW2 9111   1.601   1.549   3.919
 2246SOL    HW3 9112   1.686   1.586   3.800
 2246SOL    MW4 9113   1.614   1.550   3.833
 2247SOL     OW 9114   1.343   1.643   3.722
 2247SOL    HW2 9115   1.336   1.736   3.742
 2247SOL    HW3 9116   1.426   1.616   3.762
 2247SOL    MW4 9117   1.353   1.652   3.730
 2248SOL     OW 9118   1.322   1.895   3.809
 2248SOL    HW2 9119   1.345   1.918   3.900
 2248SOL    HW3 9120   1.248   1.952   3.788
 2248SOL    MW4 9121   1.315   1.906   3.818
 2249SOL     OW 9122   1.600   2.047   3.756
 2249SOL    HW2 9123   1.516   2.002   3.765
 2249SOL    HW3 9124   1.605   2.070   3.663
 2249SOL    MW4 9125   1.589   2.044   3.745
 2250SOL     OW 9126   1.570   2.301   3.863
 2250SOL    HW2 9127   1.651   2.349   3.842
 2250SOL    HW3 9128   1.583   2.215   3.824
 2250SOL    MW4 9129   1.583   2.296   3.855
 2251SOL     OW 9130   1.366   2.456   3.766
 2251SOL    HW2 9131   1.436   2.404   3.804
 2251SOL    HW3 9132   1.285   2.415   3.798
 2251SOL    MW4 9133   1.364   2.444   3.775
 2252SOL     OW 9134   1.366   2.714   3.865
 2252SOL    HW2 9135   1.352   2.716   3.960
 2252SOL    HW3 9136   1.364   2.622   3.842
 2252SOL    MW4 9137   1.364   2.702   3.875
 2253SOL     OW 9138   1.587   2.851   3.755
 2253SOL    HW2 9139   1.512   2.801   3.786
 2253SOL    HW3 9140   1.581   2.847   3.659
 2253SOL    MW4 9141   1.576   2.844   3.746
 2254SOL     OW 9142   1.579   3.115   3.855
 2254SOL    HW2 9143   1.590   3.103   3.950
 2254SOL    HW3 9144   1.594   3.028   3.818
 2254SOL    MW4 9145   1.582   3.102   3.863
 2255SOL     OW 9146   1.359   3.212   3.757
 2255SOL    HW2 9147   1.368   3.305   3.781
 2255SOL    HW3 9148   1.437   3.171   3.793
 2255SOL    MW4 9149   1.371   3.219   3.765
 2256SOL     OW 9150   1.346   3.463   3.853
 2256SOL    HW2 9151   1.421   3.516   3.827
 2256SOL    HW3 9152   1.272   3.504   3.807
 2256SOL    MW4 9153   1.346   3.475   3.843
 2257SOL     OW 9154   1.594   3.587   3.784
 2257SOL    HW2 9155   1.681   3.562   3.813
 2257SOL    HW3 9156   1.579   3.674   3.822
 2257SOL    MW4 9157   1.603   3.595   3.792
 2258SOL     OW 9158   1.570   3.866   3.844
 2258SOL    HW2 9159   1.579   3.880   3.938
 2258SOL    HW3 9160   1.492   3.916   3.820
 2258SOL    MW4 9161   1.561   3.874   3.853
 2259SOL     OW 9162   1.330   4.009   3.775
 2259SOL    HW2 9163   1.352   4.097   3.807
 2259SOL    HW3 9164   1.304   4.023   3.684
 2259SOL    MW4 9165   1.330   4.023   3.767
 2260SOL     OW 9166   1.364   4.263   3.892
 2260SOL    HW2 9167   1.448   4.305   3.872
 2260SOL    HW3 9168   1.298   4.325   3.863
 2260SOL    MW4 9169   1.366   4.277   3.885
 2261SOL     OW 9170   1.609   4.378   3.828
 2261SOL    HW2 9171   1.677   4.321   3.865
 2261SOL    HW3 9172   1.621   4.371   3.733
 2261SOL    MW4 9173   1.620   4.370   3.820
 2262SOL     OW 9174   2.005   4.650   3.920
 2262SOL    HW2 9175   2.081   4.692   3.879
 2262SOL    HW3 9176   1.990   4.572   3.867
 2262SOL    MW4 9177   2.013   4.646   3.907
 2263SOL     OW 9178   1.793   0.134   3.820
 2263SOL    HW2 9179   1.862   0.072   3.847
 2263SOL    HW3 9180   1.712   0.092   3.847
 2263SOL    MW4 9181   1.792   0.120   3.827
 2264SOL     OW 9182   1.812   0.419   3.916
 2264SOL    HW2 9183   1.823   0.427   4.011
 2264SOL    HW3 9184   1.800   0.325   3.901
 2264SOL    MW4 9185   1.812   0.408   3.927
 2265SOL     OW 9186   2.044   0.490   3.792
 2265SOL    HW2 9187   1.959   0.483   3.835
 2265SOL    HW3 9188   2.024   0.500   3.699
 2265SOL    MW4 9189   2.030   0.491   3.786
 2266SOL     OW 9190   2.055   0.752   3.870
 2266SOL    HW2 9191   2.027   0.753   3.961
 2266SOL    HW3 9192   2.080   0.661   3.853
 2266SOL    MW4 9193   2.055   0.740   3.880
 2267SOL     OW 9194   1.823   0.888   3.782
 2267SOL    HW2 9195   1.909   0.846   3.784
 2267SOL    HW3 9196   1.800   0.891   3.689
 2267SOL    MW4 9197   1.832   0.883   3.770
 2268SOL     OW 9198   1.845   1.150   3.935
 2268SOL    HW2 9199   1.824   1.146   4.028
 2268SOL    HW3 9200   1.838   1.059   3.905
 2268SOL    MW4 9201   1.841   1.138   3.943
 2269SOL     OW 9202   2.073   1.236   3.769
 2269SOL    HW2 9203   2.151   1.198   3.810
 2269SOL    HW3 9204   2.000   1.201   3.820
 2269SOL    MW4 9205   2.074   1.227   3.781
 2270SOL     OW 9206   2.035   1.510   3.882
 2270SOL    HW2 9207   1.964   1.557   3.839
 2270SOL    HW3 9208   2.043   1.428   3.834
 2270SOL    MW4 9209   2.027   1.506   3.870
 2271SOL     OW 9210   1.843   1.662   3.758
 2271SOL    HW2 9211   1.861   1.752   3.784
 2271SOL    HW3 9212   1.852   1.663   3.663
 2271SOL    MW4 9213   1.847   1.674   3.749
 2272SOL     OW 9214   1.833   1.908   3.857
 2272SOL    HW2 9215   1.833   1.903   3.953
 2272SOL    HW3 9216   1.745   1.938   3.835
 2272SOL    MW4 9217   1.821   1.911   3.867
 2273SOL     OW 9218   2.018   2.073   3.765
 2273SOL    HW2 9219   1.945   2.016   3.788
 2273SOL    HW3 9220   2.019   2.073   3.669
 2273SOL    MW4 9221   2.009   2.065   3.755
 2274SOL     OW 9222   2.013   2.317   3.918
 2274SOL    HW2 9223   1.944   2.355   3.864
 2274SOL    HW3 9224   2.034   2.233   3.875
 2274SOL    MW4 9225   2.007   2.311   3.905
 2275SOL     OW 9226   1.810   2.436   3.753
 2275SOL    HW2 9227   1.834   2.526   3.775
 2275SOL    HW3 9228   1.805   2.434   3.658
 2275SOL    MW4 9229   1.813   2.448   3.744
 2276SOL     OW 9230   1.826   2.696   3.864
 2276SOL    HW2 9231   1.836   2.705   3.959
 2276SOL    HW3 9232   1.745   2.742   3.843
 2276SOL    MW4 9233   1.817   2.703   3.874
 2277SOL     OW 9234   2.023   2.829   3.706
 2277SOL    HW2 9235   2.104   2.804   3.751
 2277SOL    HW3 9236   1.954   2.784   3.755
 2277SOL    MW4 9237   2.024   2.820   3.718
 2278SOL     OW 9238   1.989   3.079   3.814
 2278SOL    HW2 9239   2.076   3.118   3.801
 2278SOL    HW3 9240   1.993   2.995   3.769
 2278SOL    MW4 9241   2.001   3.073   3.806
 2279SOL     OW 9242   1.800   3.243   3.737
 2279SOL    HW2 9243   1.883   3.198   3.748
 2279SOL    HW3 9244   1.738   3.195   3.791
 2279SOL    MW4 9245   1.803   3.231   3.745
 2280SOL     OW 9246   1.838   3.485   3.863
 2280SOL    HW2 9247   1.906   3.538   3.820
 2280SOL    HW3 9248   1.840   3.401   3.816
 2280SOL    MW4 9249   1.847   3.481   3.851
 2281SOL     OW 9250   2.039   3.664   3.768
 2281SOL    HW2 9251   2.123   3.623   3.787
 2281SOL    HW3 9252   2.034   3.665   3.672
 2281SOL    MW4 9253   2.049   3.659   3.758
 2282SOL     OW 9254   2.036   3.894   3.925
 2282SOL    HW2 9255   2.112   3.931   3.879
 2282SOL    HW3 9256   2.021   3.809   3.882
 2282SOL    MW4 9257   2.044   3.888   3.913
 2283SOL     OW 9258   1.809   3.991   3.780
 2283SOL    HW2 9259   1.885   3.951   3.822
 2283SOL    HW3 9260   1.738   3.930   3.796
 2283SOL    MW4 9261   1.810   3.978   3.788
 2284SOL     OW 9262   1.812   4.217   3.916
 2284SOL    HW2 9263   1.874   4.276   3.873
 2284SOL    HW3 9264   1.812   4.138   3.861
 2284SOL    MW4 9265   1.820   4.214   3.903
 2285SOL     OW 9266   1.988   4.391   3.809
 2285SOL    HW2 9267   2.068   4.347   3.838
 2285SOL    HW3 9268   2.002   4.408   3.716
 2285SOL    MW4 9269   2.001   4.387   3.801
 2286SOL     OW 9270   2.459   0.012   3.861
 2286SOL    HW2 9271   2.458   0.021   3.957
 2286SOL    HW3 9272   2.529   0.071   3.833
 2286SOL    MW4 9273   2.468   0.021   3.870
 2287SOL     OW 9274   2.215   0.115   3.781
 2287SOL    HW2 9275   2.297   0.066   3.786
 2287SOL    HW3 9276   2.198   0.125   3.688
 2287SOL    MW4 9277   2.223   0.110   3.770
 2288SOL     OW 9278   2.277   0.376   3.890
 2288SOL    HW2 9279   2.263   0.284   3.868
 2288SOL    HW3 9280   2.196   0.419   3.864
 2288SOL    MW4 9281   2.265   0.369   3.884
 2289SOL     OW 9282   2.470   0.504   3.744
 2289SOL    HW2 9283   2.407   0.450   3.792
 2289SOL    HW3 9284   2.456   0.481   3.652
 2289SOL    MW4 9285   2.459   0.494   3.739
 2290SOL     OW 9286   2.504   0.776   3.851
 2290SOL    HW2 9287   2.424   0.822   3.826
 2290SOL    HW3 9288   2.491   0.686   3.823
 2290SOL    MW4 9289   2.492   0.770   3.844
 2291SOL     OW 9290   2.278   0.897   3.744
 2291SOL    HW2 9291   2.198   0.859   3.780
 2291SOL    HW3 9292   2.269   0.886   3.649
 2291SOL    MW4 9293   2.266   0.890   3.736
 2292SOL     OW 9294   2.314   1.137   3.849
 2292SOL    HW2 9295   2.288   1.141   3.941
 2292SOL    HW3 9296   2.293   1.048   3.822
 2292SOL    MW4 9297   2.308   1.126   3.858
 2293SOL     OW 9298   2.521   1.274   3.730
 2293SOL    HW2 9299   2.498   1.360   3.764
 2293SOL    HW3 9300   2.445   1.219   3.752
 2293SOL    MW4 9301   2.508   1.278   3.737
 2294SOL     OW 9302   2.472   1.510   3.856
 2294SOL    HW2 9303   2.548   1.561   3.828
 2294SOL    HW3 9304   2.397   1.562   3.827
 2294SOL    MW4 9305   2.472   1.524   3.849
 2295SOL     OW 9306   2.240   1.647   3.746
 2295SOL    HW2 9307   2.221   1.737   3.773
 2295SOL    HW3 9308   2.176   1.594   3.794
 2295SOL    MW4 9309   2.229   1.651   3.756
 2296SOL     OW 9310   2.242   1.919   3.841
 2296SOL    HW2 9311   2.256   1.909   3.935
 2296SOL    HW3 9312   2.154   1.955   3.834
 2296SOL    MW4 9313   2.232   1.922   3.852
 2297SOL     OW 9314   2.470   2.057   3.780
 2297SOL    HW2 9315   2.444   2.141   3.816
 2297SOL    HW3 9316   2.396   1.999   3.801
 2297SOL    MW4 9317   2.457   2.060   3.787
 2298SOL     OW 9318   2.456   2.312   3.878
 2298SOL    HW2 9319   2.528   2.351   3.828
 2298SOL    HW3 9320   2.378   2.356   3.845
 2298SOL    MW4 9321   2.455   2.323   3.867
 2299SOL     OW 9322   2.238   2.424   3.752
 2299SOL    HW2 9323   2.157   2.375   3.764
 2299SOL    HW3 9324   2.242   2.441   3.658
 2299SOL    MW4 9325   2.228   2.420   3.741
 2300SOL     OW 9326   2.216   2.712   3.862
 2300SOL    HW2 9327   2.224   2.723   3.957
 2300SOL    HW3 9328   2.224   2.618   3.848
 2300SOL    MW4 9329   2.218   2.701   3.873
 2301SOL     OW 9330   2.463   2.803   3.787
 2301SOL    HW2 9331   2.377   2.764   3.801
 2301SOL    HW3 9332   2.471   2.812   3.692
 2301SOL    MW4 9333   2.453   2.799   3.777
 2302SOL     OW 9334   2.481   3.072   3.837
 2302SOL    HW2 9335   2.498   3.077   3.931
 2302SOL    HW3 9336   2.449   2.983   3.824
 2302SOL    MW4 9337   2.479   3.061   3.848
 2303SOL     OW 9338   2.220   3.220   3.779
 2303SOL    HW2 9339   2.236   3.314   3.778
 2303SOL    HW3 9340   2.306   3.182   3.798
 2303SOL    MW4 9341   2.234   3.227   3.782
 2304SOL     OW 9342   2.284   3.494   3.813
 2304SOL    HW2 9343   2.296   3.492   3.908
 2304SOL    HW3 9344   2.363   3.536   3.780
 2304SOL    MW4 9345   2.296   3.499   3.821
 2305SOL     OW 9346   2.535   3.651   3.751
 2305SOL    HW2 9347   2.601   3.585   3.772
 2305SOL    HW3 9348   2.516   3.636   3.659
 2305SOL    MW4 9349   2.541   3.640   3.742
 2306SOL     OW 9350   2.483   3.896   3.855
 2306SOL    HW2 9351   2.553   3.948   3.817
 2306SOL    HW3 9352   2.493   3.809   3.817
 2306SOL    MW4 9353   2.494   3.892   3.845
 2307SOL     OW 9354   2.243   4.014   3.783
 2307SOL    HW2 9355   2.324   3.967   3.800
 2307SOL    HW3 9356   2.240   4.024   3.688
 2307SOL    MW4 9357   2.253   4.009   3.773
 2308SOL     OW 9358   2.250   4.278   3.860
 2308SOL    HW2 9359   2.260   4.260   3.953
 2308SOL    HW3 9360   2.245   4.192   3.819
 2308SOL    MW4 9361   2.250   4.264   3.867
 2309SOL     OW 9362   2.490   4.418   3.803
 2309SOL    HW2 9363   2.407   4.380   3.834
 2309SOL    HW3 9364   2.484   4.511   3.826
 2309SOL    MW4 9365   2.478   4.425   3.810
 2310SOL     OW 9366   2.918   4.662   3.877
 2310SOL    HW2 9367   2.920   4.679   3.972
 2310SOL    HW3 9368   3.000   4.698   3.844
 2310SOL    MW4 9369   2.929   4.669   3.885
 2311SOL     OW 9370   2.701   0.146   3.777
 2311SOL    HW2 9371   2.780   0.101   3.809
 2311SOL    HW3 9372   2.700   0.127   3.683
 2311SOL    MW4 9373   2.712   0.138   3.769
 2312SOL     OW 9374   2.721   0.431   3.820
 2312SOL    HW2 9375   2.718   0.336   3.807
 2312SOL    HW3 9376   2.632   0.460   3.802
 2312SOL    MW4 9377   2.709   0.422   3.816
 2313SOL     OW 9378   2.954   0.555   3.728
 2313SOL    HW2 9379   3.013   0.483   3.751
 2313SOL    HW3 9380   2.867   0.523   3.751
 2313SOL    MW4 9381   2.950   0.541   3.734
 2314SOL     OW 9382   2.949   0.809   3.876
 2314SOL    HW2 9383   3.004   0.866   3.823
 2314SOL    HW3 9384   2.955   0.723   3.834
 2314SOL    MW4 9385   2.957   0.805   3.864
 2315SOL     OW 9386   2.737   0.915   3.755
 2315SOL    HW2 9387   2.814   0.880   3.799
 2315SOL    HW3 9388   2.664   0.864   3.791
 2315SOL    MW4 9389   2.737   0.903   3.765
 2316SOL     OW 9390   2.707   1.174   3.892
 2316SOL    HW2 9391   2.726   1.089   3.853
 2316SOL    HW3 9392   2.636   1.210   3.839
 2316SOL    MW4 9393   2.700   1.168   3.880
 2317SOL     OW 9394   2.919   1.296   3.731
 2317SOL    HW2 9395   2.931   1.378   3.779
 2317SOL    HW3 9396   2.840   1.257   3.770
 2317SOL    MW4 9397   2.910   1.302   3.743
 2318SOL     OW 9398   2.943   1.556   3.835
 2318SOL    HW2 9399   2.947   1.564   3.930
 2318SOL    HW3 9400   3.027   1.590   3.804
 2318SOL    MW4 9401   2.955   1.561   3.843
 2319SOL     OW 9402   2.697   1.678   3.766
 2319SOL    HW2 9403   2.778   1.633   3.788
 2319SOL    HW3 9404   2.706   1.700   3.673
 2319SOL    MW4 9405   2.709   1.675   3.757
 2320SOL     OW 9406   2.706   1.940   3.847
 2320SOL    HW2 9407   2.697   1.851   3.812
 2320SOL    HW3 9408   2.620   1.979   3.837
 2320SOL    MW4 9409   2.694   1.933   3.841
 2321SOL     OW 9410   2.942   2.064   3.742
 2321SOL    HW2 9411   2.942   2.152   3.781
 2321SOL    HW3 9412   2.873   2.017   3.788
 2321SOL    MW4 9413   2.933   2.070   3.753
 2322SOL     OW 9414   2.955   2.310   3.848
 2322SOL    HW2 9415   2.963   2.315   3.944
 2322SOL    HW3 9416   3.025   2.368   3.816
 2322SOL    MW4 9417   2.965   2.318   3.857
 2323SOL     OW 9418   2.704   2.412   3.758
 2323SOL    HW2 9419   2.702   2.506   3.775
 2323SOL    HW3 9420   2.785   2.382   3.798
 2323SOL    MW4 9421   2.715   2.421   3.766
 2324SOL     OW 9422   2.698   2.687   3.815
 2324SOL    HW2 9423   2.705   2.681   3.910
 2324SOL    HW3 9424   2.617   2.736   3.800
 2324SOL    MW4 9425   2.688   2.692   3.826
 2325SOL     OW 9426   2.945   2.869   3.760
 2325SOL    HW2 9427   2.948   2.958   3.795
 2325SOL    HW3 9428   2.855   2.839   3.777
 2325SOL    MW4 9429   2.933   2.877   3.767
 2326SOL     OW 9430   2.949   3.105   3.869
 2326SOL    HW2 9431   3.023   3.158   3.840
 2326SOL    HW3 9432   2.872   3.147   3.830
 2326SOL    MW4 9433   2.949   3.117   3.860
 2327SOL     OW 9434   2.708   3.199   3.751
 2327SOL    HW2 9435   2.700   3.284   3.794
 2327SOL    HW3 9436   2.641   3.145   3.793
 2327SOL    MW4 9437   2.698   3.203   3.762
 2328SOL     OW 9438   2.702   3.463   3.846
 2328SOL    HW2 9439   2.687   3.472   3.940
 2328SOL    HW3 9440   2.776   3.521   3.828
 2328SOL    MW4 9441   2.710   3.472   3.856
 2329SOL     OW 9442   2.911   3.634   3.784
 2329SOL    HW2 9443   2.988   3.593   3.823
 2329SOL    HW3 9444   2.928   3.634   3.689
 2329SOL    MW4 9445   2.923   3.629   3.776
 2330SOL     OW 9446   2.937   3.899   3.843
 2330SOL    HW2 9447   2.941   3.891   3.938
 2330SOL    HW3 9448   2.929   3.808   3.812
 2330SOL    MW4 9449   2.937   3.886   3.852
 2331SOL     OW 9450   2.709   4.008   3.766
 2331SOL    HW2 9451   2.709   4.087   3.820
 2331SOL    HW3 9452   2.790   3.963   3.789
 2331SOL    MW4 9453   2.719   4.013   3.776
 2332SOL     OW 9454   2.715   4.278   3.902
 2332SOL    HW2 9455   2.792   4.329   3.877
 2332SOL    HW3 9456   2.641   4.334   3.880
 2332SOL    MW4 9457   2.716   4.292   3.896
 2333SOL     OW 9458   2.931   4.421   3.756
 2333SOL    HW2 9459   3.004   4.381   3.804
 2333SOL    HW3 9460   2.921   4.507   3.795
 2333SOL    MW4 9461   2.939   4.427   3.767
 2334SOL     OW 9462   3.385   0.024   3.906
 2334SOL    HW2 9463   3.393   0.049   3.998
 2334SOL    HW3 9464   3.459   0.066   3.863
 2334SOL    MW4 9465   3.396   0.033   3.913
 2335SOL     OW 9466   3.135   0.134   3.801
 2335SOL    HW2 9467   3.221   0.112   3.838
 2335SOL    HW3 9468   3.138   0.101   3.712
 2335SOL    MW4 9469   3.147   0.127   3.794
 2336SOL     OW 9470   3.151   0.403   3.850
 2336SOL    HW2 9471   3.157   0.408   3.946
 2336SOL    HW3 9472   3.147   0.310   3.831
 2336SOL    MW4 9473   3.151   0.392   3.860
 2337SOL     OW 9474   3.370   0.529   3.733
 2337SOL    HW2 9475   3.446   0.498   3.783
 2337SOL    HW3 9476   3.294   0.491   3.778
 2337SOL    MW4 9477   3.370   0.520   3.746
 2338SOL     OW 9478   3.355   0.804   3.795
 2338SOL    HW2 9479   3.373   0.814   3.888
 2338SOL    HW3 9480   3.348   0.709   3.781
 2338SOL    MW4 9481   3.356   0.793   3.805
 2339SOL     OW 9482   3.127   0.937   3.718
 2339SOL    HW2 9483   3.210   0.899   3.746
 2339SOL    HW3 9484   3.130   0.935   3.622
 2339SOL    MW4 9485   3.138   0.932   3.709
 2340SOL     OW 9486   3.145   1.177   3.819
 2340SOL    HW2 9487   3.145   1.089   3.782
 2340SOL    HW3 9488   3.063   1.216   3.788
 2340SOL    MW4 9489   3.134   1.170   3.810
 2341SOL     OW 9490   3.389   1.308   3.742
 2341SOL    HW2 9491   3.304   1.276   3.771
 2341SOL    HW3 9492   3.383   1.309   3.647
 2341SOL    MW4 9493   3.377   1.304   3.733
 2342SOL     OW 9494   3.418   1.548   3.862
 2342SOL    HW2 9495   3.338   1.596   3.840
 2342SOL    HW3 9496   3.407   1.463   3.821
 2342SOL    MW4 9497   3.406   1.543   3.854
 2343SOL     OW 9498   3.199   1.646   3.747
 2343SOL    HW2 9499   3.192   1.740   3.765
 2343SOL    HW3 9500   3.210   1.641   3.652
 2343SOL    MW4 9501   3.199   1.658   3.736
 2344SOL     OW 9502   3.152   1.905   3.818
 2344SOL    HW2 9503   3.129   1.914   3.910
 2344SOL    HW3 9504   3.085   1.956   3.771
 2344SOL    MW4 9505   3.140   1.913   3.824
 2345SOL     OW 9506   3.387   2.051   3.768
 2345SOL    HW2 9507   3.313   1.991   3.782
 2345SOL    HW3 9508   3.401   2.050   3.673
 2345SOL    MW4 9509   3.379   2.043   3.757
 2346SOL     OW 9510   3.356   2.283   3.903
 2346SOL    HW2 9511   3.283   2.321   3.854
 2346SOL    HW3 9512   3.371   2.198   3.863
 2346SOL    MW4 9513   3.348   2.277   3.891
 2347SOL     OW 9514   3.182   2.441   3.754
 2347SOL    HW2 9515   3.184   2.534   3.778
 2347SOL    HW3 9516   3.177   2.441   3.659
 2347SOL    MW4 9517   3.181   2.453   3.745
 2348SOL     OW 9518   3.137   2.699   3.855
 2348SOL    HW2 9519   3.134   2.717   3.949
 2348SOL    HW3 9520   3.066   2.752   3.819
 2348SOL    MW4 9521   3.127   2.709   3.863
 2349SOL     OW 9522   3.364   2.853   3.809
 2349SOL    HW2 9523   3.276   2.827   3.836
 2349SOL    HW3 9524   3.363   2.849   3.713
 2349SOL    MW4 9525   3.353   2.849   3.800
 2350SOL     OW 9526   3.375   3.119   3.864
 2350SOL    HW2 9527   3.452   3.155   3.822
 2350SOL    HW3 9528   3.373   3.028   3.838
 2350SOL    MW4 9529   3.385   3.112   3.855
 2351SOL     OW 9530   3.148   3.275   3.784
 2351SOL    HW2 9531   3.229   3.232   3.811
 2351SOL    HW3 9532   3.154   3.278   3.688
 2351SOL    MW4 9533   3.159   3.270   3.775
 2352SOL     OW 9534   3.150   3.536   3.894
 2352SOL    HW2 9535   3.231   3.574   3.860
 2352SOL    HW3 9536   3.146   3.450   3.853
 2352SOL    MW4 9537   3.160   3.530   3.884
 2353SOL     OW 9538   3.379   3.658   3.773
 2353SOL    HW2 9539   3.390   3.749   3.799
 2353SOL    HW3 9540   3.373   3.662   3.677
 2353SOL    MW4 9541   3.380   3.671   3.764
 2354SOL     OW 9542   3.400   3.904   3.873
 2354SOL    HW2 9543   3.477   3.945   3.833
 2354SOL    HW3 9544   3.326   3.938   3.823
 2354SOL    MW4 9545   3.401   3.914   3.861
 2355SOL     OW 9546   3.164   4.021   3.742
 2355SOL    HW2 9547   3.157   4.112   3.770
 2355SOL    HW3 9548   3.086   3.978   3.776
 2355SOL    MW4 9549   3.153   4.027   3.750
 2356SOL     OW 9550   3.159   4.292   3.866
 2356SOL    HW2 9551   3.164   4.261   3.957
 2356SOL    HW3 9552   3.246   4.327   3.847
 2356SOL    MW4 9553   3.171   4.292   3.876
 2357SOL     OW 9554   3.382   4.449   3.786
 2357SOL    HW2 9555   3.459   4.403   3.819
 2357SOL    HW3 9556   3.389   4.537   3.823
 2357SOL    MW4 9557   3.393   4.454   3.795
 2358SOL     OW 9558   3.840   0.063   3.868
 2358SOL    HW2 9559   3.931   0.085   3.849
 2358SOL    HW3 9560   3.830  -0.028   3.839
 2358SOL    MW4 9561   3.850   0.054   3.862
 2359SOL     OW 9562   3.595   0.165   3.784
 2359SOL    HW2 9563   3.675   0.134   3.825
 2359SOL    HW3 9564   3.612   0.157   3.690
 2359SOL    MW4 9565   3.608   0.160   3.777
 2360SOL     OW 9566   3.574   0.440   3.885
 2360SOL    HW2 9567   3.656   0.479   3.853
 2360SOL    HW3 9568   3.579   0.348   3.858
 2360SOL    MW4 9569   3.586   0.433   3.877
 2361SOL     OW 9570   3.842   0.497   3.821
 2361SOL    HW2 9571   3.922   0.456   3.855
 2361SOL    HW3 9572   3.862   0.591   3.823
 2361SOL    MW4 9573   3.855   0.504   3.826
 2362SOL     OW 9574   3.797   0.779   3.865
 2362SOL    HW2 9575   3.887   0.812   3.865
 2362SOL    HW3 9576   3.747   0.846   3.818
 2362SOL    MW4 9577   3.802   0.792   3.859
 2363SOL     OW 9578   3.599   0.950   3.766
 2363SOL    HW2 9579   3.608   1.036   3.808
 2363SOL    HW3 9580   3.507   0.926   3.780
 2363SOL    MW4 9581   3.588   0.958   3.774
 2364SOL     OW 9582   3.604   1.202   3.893
 2364SOL    HW2 9583   3.673   1.236   3.835
 2364SOL    HW3 9584   3.523   1.214   3.843
 2364SOL    MW4 9585   3.602   1.208   3.878
 2365SOL     OW 9586   3.836   1.267   3.716
 2365SOL    HW2 9587   3.911   1.226   3.758
 2365SOL    HW3 9588   3.828   1.353   3.759
 2365SOL    MW4 9589   3.845   1.273   3.727
 2366SOL     OW 9590   3.813   1.501   3.852
 2366SOL    HW2 9591   3.819   1.512   3.947
 2366SOL    HW3 9592   3.752   1.569   3.824
 2366SOL    MW4 9593   3.806   1.511   3.861
 2367SOL     OW 9594   3.652   1.687   3.749
 2367SOL    HW2 9595   3.576   1.645   3.789
 2367SOL    HW3 9596   3.640   1.674   3.655
 2367SOL    MW4 9597   3.640   1.680   3.742
 2368SOL     OW 9598   3.628   1.946   3.882
 2368SOL    HW2 9599   3.641   1.863   3.835
 2368SOL    HW3 9600   3.542   1.977   3.852
 2368SOL    MW4 9601   3.618   1.939   3.872
 2369SOL     OW 9602   3.826   2.102   3.750
 2369SOL    HW2 9603   3.910   2.066   3.779
 2369SOL    HW3 9604   3.761   2.055   3.803
 2369SOL    MW4 9605   3.829   2.091   3.761
 2370SOL     OW 9606   3.819   2.323   3.901
 2370SOL    HW2 9607   3.748   2.383   3.878
 2370SOL    HW3 9608   3.817   2.256   3.833
 2370SOL    MW4 9609   3.810   2.322   3.889
 2371SOL     OW 9610   3.593   2.455   3.816
 2371SOL    HW2 9611   3.517   2.408   3.851
 2371SOL    HW3 9612   3.583   2.448   3.721
 2371SOL    MW4 9613   3.581   2.448   3.808
 2372SOL     OW 9614   3.603   2.724   3.842
 2372SOL    HW2 9615   3.587   2.630   3.853
 2372SOL    HW3 9616   3.516   2.762   3.828
 2372SOL    MW4 9617   3.590   2.716   3.842
 2373SOL     OW 9618   3.851   2.830   3.776
 2373SOL    HW2 9619   3.910   2.782   3.833
 2373SOL    HW3 9620   3.764   2.794   3.796
 2373SOL    MW4 9621   3.847   2.819   3.786
 2374SOL     OW 9622   3.827   3.113   3.890
 2374SOL    HW2 9623   3.748   3.151   3.851
 2374SOL    HW3 9624   3.833   3.026   3.850
 2374SOL    MW4 9625   3.817   3.106   3.879
 2375SOL     OW 9626   3.607   3.250   3.756
 2375SOL    HW2 9627   3.608   3.341   3.785
 2375SOL    HW3 9628   3.604   3.255   3.660
 2375SOL    MW4 9629   3.607   3.262   3.747
 2376SOL     OW 9630   3.601   3.502   3.883
 2376SOL    HW2 9631   3.598   3.506   3.979
 2376SOL    HW3 9632   3.516   3.534   3.854
 2376SOL    MW4 9633   3.590   3.507   3.892
 2377SOL     OW 9634   3.821   3.648   3.771
 2377SOL    HW2 9635   3.824   3.736   3.808
 2377SOL    HW3 9636   3.753   3.603   3.822
 2377SOL    MW4 9637   3.812   3.653   3.782
 2378SOL     OW 9638   3.847   3.902   3.875
 2378SOL    HW2 9639   3.859   3.908   3.969
 2378SOL    HW3 9640   3.925   3.944   3.838
 2378SOL    MW4 9641   3.859   3.909   3.882
 2379SOL     OW 9642   3.593   4.044   3.757
 2379SOL    HW2 9643   3.596   4.137   3.781
 2379SOL    HW3 9644   3.681   4.012   3.775
 2379SOL    MW4 9645   3.605   4.052   3.763
 2380SOL     OW 9646   3.602   4.306   3.866
 2380SOL    HW2 9647   3.617   4.294   3.960
 2380SOL    HW3 9648   3.677   4.357   3.836
 2380SOL    MW4 9649   3.614   4.311   3.875
 2381SOL     OW 9650   3.814   4.449   3.772
 2381SOL    HW2 9651   3.888   4.406   3.815
 2381SOL    HW3 9652   3.818   4.417   3.681
 2381SOL    MW4 9653   3.824   4.439   3.765
 2382SOL     OW 9654   4.318   4.665   3.887
 2382SOL    HW2 9655   4.325   4.693   3.979
 2382SOL    HW3 9656   4.399   4.697   3.846
 2382SOL    MW4 9657   4.330   4.673   3.894
 2383SOL     OW 9658   4.091   0.124   3.793
 2383SOL    HW2 9659   4.171   0.080   3.820
 2383SOL    HW3 9660   4.082   0.103   3.700
 2383SOL    MW4 9661   4.100   0.116   3.784
 2384SOL     OW 9662   4.083   0.389   3.900
 2384SOL    HW2 9663   4.075   0.383   3.995
 2384SOL    HW3 9664   4.080   0.298   3.870
 2384SOL    MW4 9665   4.082   0.376   3.908
 2385SOL     OW 9666   4.293   0.521   3.771
 2385SOL    HW2 9667   4.229   0.466   3.815
 2385SOL    HW3 9668   4.274   0.509   3.678
 2385SOL    MW4 9669   4.282   0.512   3.764
 2386SOL     OW 9670   4.289   0.776   3.868
 2386SOL    HW2 9671   4.213   0.828   3.842
 2386SOL    HW3 9672   4.279   0.693   3.821
 2386SOL    MW4 9673   4.278   0.772   3.858
 2387SOL     OW 9674   4.061   0.894   3.782
 2387SOL    HW2 9675   4.065   0.983   3.818
 2387SOL    HW3 9676   4.057   0.908   3.687
 2387SOL    MW4 9677   4.061   0.908   3.774
 2388SOL     OW 9678   4.040   1.157   3.868
 2388SOL    HW2 9679   4.030   1.156   3.964
 2388SOL    HW3 9680   4.129   1.188   3.854
 2388SOL    MW4 9681   4.051   1.161   3.879
 2389SOL     OW 9682   4.279   1.252   3.785
 2389SOL    HW2 9683   4.266   1.342   3.814
 2389SOL    HW3 9684   4.253   1.252   3.693
 2389SOL    MW4 9685   4.274   1.264   3.777
 2390SOL     OW 9686   4.234   1.515   3.868
 2390SOL    HW2 9687   4.157   1.557   3.829
 2390SOL    HW3 9688   4.309   1.564   3.833
 2390SOL    MW4 9689   4.234   1.527   3.858
 2391SOL     OW 9690   4.027   1.675   3.780
 2391SOL    HW2 9691   4.042   1.766   3.807
 2391SOL    HW3 9692   3.938   1.656   3.811
 2391SOL    MW4 9693   4.017   1.685   3.788
 2392SOL     OW 9694   4.049   1.957   3.863
 2392SOL    HW2 9695   4.035   1.976   3.956
 2392SOL    HW3 9696   4.126   2.008   3.839
 2392SOL    MW4 9697   4.057   1.966   3.872
 2393SOL     OW 9698   4.271   2.104   3.753
 2393SOL    HW2 9699   4.268   2.193   3.787
 2393SOL    HW3 9700   4.250   2.113   3.661
 2393SOL    MW4 9701   4.268   2.117   3.746
 2394SOL     OW 9702   4.235   2.368   3.836
 2394SOL    HW2 9703   4.210   2.365   3.928
 2394SOL    HW3 9704   4.156   2.397   3.790
 2394SOL    MW4 9705   4.222   2.372   3.842
 2395SOL     OW 9706   3.980   2.485   3.730
 2395SOL    HW2 9707   3.997   2.565   3.779
 2395SOL    HW3 9708   3.924   2.433   3.787
 2395SOL    MW4 9709   3.975   2.488   3.744
 2396SOL     OW 9710   4.050   2.688   3.909
 2396SOL    HW2 9711   4.062   2.699   4.004
 2396SOL    HW3 9712   4.133   2.717   3.871
 2396SOL    MW4 9713   4.062   2.694   3.917
 2397SOL     OW 9714   4.267   2.788   3.769
 2397SOL    HW2 9715   4.258   2.877   3.805
 2397SOL    HW3 9716   4.350   2.756   3.806
 2397SOL    MW4 9717   4.277   2.796   3.779
 2398SOL     OW 9718   4.259   3.102   3.898
 2398SOL    HW2 9719   4.197   3.164   3.860
 2398SOL    HW3 9720   4.345   3.134   3.871
 2398SOL    MW4 9721   4.262   3.115   3.890
 2399SOL     OW 9722   4.063   3.252   3.764
 2399SOL    HW2 9723   4.000   3.202   3.817
 2399SOL    HW3 9724   4.034   3.238   3.674
 2399SOL    MW4 9725   4.051   3.244   3.759
 2400SOL     OW 9726   4.049   3.530   3.893
 2400SOL    HW2 9727   4.038   3.445   3.850
 2400SOL    HW3 9728   3.973   3.581   3.865
 2400SOL    MW4 9729   4.038   3.525   3.884
 2401SOL     OW 9730   4.291   3.627   3.778
 2401SOL    HW2 9731   4.211   3.590   3.816
 2401SOL    HW3 9732   4.361   3.570   3.809
 2401SOL    MW4 9733   4.290   3.615   3.787
 2402SOL     OW 9734   4.316   3.884   3.906
 2402SOL    HW2 9735   4.252   3.935   3.856
 2402SOL    HW3 9736   4.312   3.797   3.867
 2402SOL    MW4 9737   4.307   3.879   3.894
 2403SOL     OW 9738   4.103   4.027   3.799
 2403SOL    HW2 9739   4.089   4.120   3.819
 2403SOL    HW3 9740   4.086   4.020   3.705
 2403SOL    MW4 9741   4.099   4.038   3.789
 2404SOL     OW 9742   4.017   4.288   3.857
 2404SOL    HW2 9743   4.018   4.287   3.952
 2404SOL    HW3 9744   4.100   4.329   3.832
 2404SOL    MW4 9745   4.028   4.294   3.866
 2405SOL     OW 9746   4.298   4.404   3.763
 2405SOL    HW2 9747   4.310   4.484   3.813
 2405SOL    HW3 9748   4.364   4.344   3.798
 2405SOL    MW4 9749   4.309   4.406   3.774
 2406SOL     OW 9750   0.260   4.665   4.144
 2406SOL    HW2 9751   0.335   4.702   4.191
 2406SOL    HW3 9752   0.247   4.579   4.184
 2406SOL    MW4 9753   0.268   4.659   4.156
 2407SOL     OW 9754   0.062   0.158   4.249
 2407SOL    HW2 9755   0.097   0.171   4.337
 2407SOL    HW3 9756   0.129   0.108   4.203
 2407SOL    MW4 9757   0.075   0.153   4.255
 2408SOL     OW 9758   4.479   0.394   4.156
 2408SOL    HW2 9759   4.492   0.304   4.187
 2408SOL    HW3 9760   4.485   0.389   4.061
 2408SOL    MW4 9761   4.481   0.382   4.148
 2409SOL     OW 9762   0.215   0.503   4.294
 2409SOL    HW2 9763   0.296   0.461   4.263
 2409SOL    HW3 9764   0.146   0.462   4.241
 2409SOL    MW4 9765   0.217   0.492   4.283
 2410SOL     OW 9766   0.228   0.758   4.188
 2410SOL    HW2 9767   0.161   0.809   4.235
 2410SOL    HW3 9768   0.224   0.672   4.229
 2410SOL    MW4 9769   0.219   0.754   4.200
 2411SOL     OW 9770   0.010   0.881   4.330
 2411SOL    HW2 9771  -0.052   0.852   4.264
 2411SOL    HW3 9772   0.020   0.975   4.316
 2411SOL    MW4 9773   0.003   0.889   4.320
 2412SOL     OW 9774   0.032   1.132   4.197
 2412SOL    HW2 9775   0.087   1.202   4.231
 2412SOL    HW3 9776   0.029   1.147   4.102
 2412SOL    MW4 9777   0.039   1.143   4.189
 2413SOL     OW 9778   0.246   1.294   4.255
 2413SOL    HW2 9779   0.283   1.283   4.342
 2413SOL    HW3 9780   0.289   1.227   4.201
 2413SOL    MW4 9781   0.257   1.284   4.259
 2414SOL     OW 9782   0.085   1.506   4.610
 2414SOL    HW2 9783   0.172   1.536   4.635
 2414SOL    HW3 9784   0.044   1.582   4.569
 2414SOL    MW4 9785   0.091   1.520   4.608
 2415SOL     OW 9786   0.006   1.694   4.213
 2415SOL    HW2 9787  -0.064   1.637   4.180
 2415SOL    HW3 9788  -0.025   1.783   4.196
 2415SOL    MW4 9789  -0.007   1.698   4.206
 2416SOL     OW 9790   0.224   2.001   4.225
 2416SOL    HW2 9791   0.217   1.999   4.321
 2416SOL    HW3 9792   0.297   1.942   4.206
 2416SOL    MW4 9793   0.233   1.993   4.235
 2417SOL     OW 9794   0.450   1.828   4.567
 2417SOL    HW2 9795   0.361   1.858   4.546
 2417SOL    HW3 9796   0.479   1.783   4.488
 2417SOL    MW4 9797   0.442   1.826   4.554
 2418SOL     OW 9798   0.224   2.254   4.106
 2418SOL    HW2 9799   0.298   2.312   4.124
 2418SOL    HW3 9800   0.239   2.178   4.162
 2418SOL    MW4 9801   0.236   2.252   4.116
 2419SOL     OW 9802   0.047   2.439   4.213
 2419SOL    HW2 9803  -0.041   2.416   4.183
 2419SOL    HW3 9804   0.103   2.368   4.182
 2419SOL    MW4 9805   0.042   2.426   4.205
 2420SOL     OW 9806   0.018   2.703   4.162
 2420SOL    HW2 9807   0.082   2.754   4.211
 2420SOL    HW3 9808   0.023   2.615   4.200
 2420SOL    MW4 9809   0.027   2.698   4.173
 2421SOL     OW 9810   0.234   2.853   4.299
 2421SOL    HW2 9811   0.293   2.801   4.244
 2421SOL    HW3 9812   0.219   2.932   4.248
 2421SOL    MW4 9813   0.240   2.856   4.285
 2422SOL     OW 9814   0.226   3.097   4.126
 2422SOL    HW2 9815   0.308   3.138   4.153
 2422SOL    HW3 9816   0.158   3.151   4.166
 2422SOL    MW4 9817   0.228   3.110   4.135
 2423SOL     OW 9818   4.474   3.237   4.249
 2423SOL    HW2 9819   4.395   3.206   4.206
 2423SOL    HW3 9820   4.483   3.328   4.221
 2423SOL    MW4 9821   4.465   3.245   4.240
 2424SOL     OW 9822   0.007   3.495   4.136
 2424SOL    HW2 9823  -0.066   3.548   4.169
 2424SOL    HW3 9824  -0.007   3.491   4.042
 2424SOL    MW4 9825  -0.005   3.501   4.128
 2425SOL     OW 9826   0.245   3.576   4.229
 2425SOL    HW2 9827   0.313   3.517   4.195
 2425SOL    HW3 9828   0.164   3.544   4.188
 2425SOL    MW4 9829   0.243   3.564   4.219
 2426SOL     OW 9830   0.292   3.852   4.172
 2426SOL    HW2 9831   0.215   3.898   4.206
 2426SOL    HW3 9832   0.278   3.760   4.196
 2426SOL    MW4 9833   0.280   3.846   4.180
 2427SOL     OW 9834   0.066   3.972   4.272
 2427SOL    HW2 9835   0.065   3.988   4.366
 2427SOL    HW3 9836  -0.022   3.939   4.252
 2427SOL    MW4 9837   0.054   3.970   4.282
 2428SOL     OW 9838   0.030   4.224   4.148
 2428SOL    HW2 9839   0.041   4.134   4.179
 2428SOL    HW3 9840   0.015   4.216   4.054
 2428SOL    MW4 9841   0.029   4.211   4.140
 2429SOL     OW 9842   0.199   4.415   4.252
 2429SOL    HW2 9843   0.167   4.423   4.342
 2429SOL    HW3 9844   0.139   4.353   4.211
 2429SOL    MW4 9845   0.186   4.408   4.259
 2430SOL     OW 9846   0.703   4.650   4.260
 2430SOL    HW2 9847   0.613   4.681   4.270
 2430SOL    HW3 9848   0.722   4.660   4.167
 2430SOL    MW4 9849   0.694   4.656   4.249
 2431SOL     OW 9850   0.458   0.098   4.291
 2431SOL    HW2 9851   0.419   0.091   4.378
 2431SOL    HW3 9852   0.471   0.192   4.278
 2431SOL    MW4 9853   0.455   0.110   4.301
 2432SOL     OW 9854   0.456   0.357   4.207
 2432SOL    HW2 9855   0.522   0.414   4.246
 2432SOL    HW3 9856   0.480   0.352   4.114
 2432SOL    MW4 9857   0.468   0.364   4.200
 2433SOL     OW 9858   0.680   0.500   4.289
 2433SOL    HW2 9859   0.753   0.469   4.236
 2433SOL    HW3 9860   0.672   0.593   4.267
 2433SOL    MW4 9861   0.689   0.508   4.279
 2434SOL     OW 9862   0.701   0.774   4.217
 2434SOL    HW2 9863   0.633   0.835   4.247
 2434SOL    HW3 9864   0.699   0.782   4.122
 2434SOL    MW4 9865   0.691   0.783   4.208
 2435SOL     OW 9866   0.462   0.904   4.265
 2435SOL    HW2 9867   0.451   0.993   4.230
 2435SOL    HW3 9868   0.391   0.854   4.225
 2435SOL    MW4 9869   0.451   0.909   4.255
 2436SOL     OW 9870   0.469   1.152   4.151
 2436SOL    HW2 9871   0.534   1.204   4.199
 2436SOL    HW3 9872   0.500   1.153   4.060
 2436SOL    MW4 9873   0.482   1.159   4.145
 2437SOL     OW 9874   0.691   1.283   4.277
 2437SOL    HW2 9875   0.697   1.299   4.371
 2437SOL    HW3 9876   0.692   1.370   4.238
 2437SOL    MW4 9877   0.692   1.297   4.284
 2438SOL     OW 9878   0.696   1.529   4.164
 2438SOL    HW2 9879   0.789   1.552   4.171
 2438SOL    HW3 9880   0.679   1.525   4.069
 2438SOL    MW4 9881   0.706   1.531   4.152
 2439SOL     OW 9882   0.259   1.579   4.156
 2439SOL    HW2 9883   0.272   1.501   4.209
 2439SOL    HW3 9884   0.178   1.618   4.189
 2439SOL    MW4 9885   0.250   1.574   4.168
 2440SOL     OW 9886   0.425   1.819   4.177
 2440SOL    HW2 9887   0.387   1.731   4.172
 2440SOL    HW3 9888   0.455   1.837   4.088
 2440SOL    MW4 9889   0.424   1.810   4.165
 2441SOL     OW 9890   0.715   2.023   4.289
 2441SOL    HW2 9891   0.711   2.046   4.382
 2441SOL    HW3 9892   0.643   1.962   4.277
 2441SOL    MW4 9893   0.705   2.018   4.299
 2442SOL     OW 9894   0.686   2.274   4.141
 2442SOL    HW2 9895   0.711   2.187   4.171
 2442SOL    HW3 9896   0.702   2.273   4.046
 2442SOL    MW4 9897   0.691   2.263   4.132
 2443SOL     OW 9898   0.464   2.415   4.167
 2443SOL    HW2 9899   0.476   2.503   4.131
 2443SOL    HW3 9900   0.549   2.372   4.153
 2443SOL    MW4 9901   0.477   2.421   4.161
 2444SOL     OW 9902   0.426   2.709   4.144
 2444SOL    HW2 9903   0.514   2.731   4.171
 2444SOL    HW3 9904   0.429   2.708   4.048
 2444SOL    MW4 9905   0.438   2.712   4.135
 2445SOL     OW 9906   0.655   2.799   4.260
 2445SOL    HW2 9907   0.684   2.801   4.351
 2445SOL    HW3 9908   0.648   2.891   4.235
 2445SOL    MW4 9909   0.658   2.811   4.269
 2446SOL     OW 9910   0.663   3.052   4.144
 2446SOL    HW2 9911   0.740   3.096   4.180
 2446SOL    HW3 9912   0.589   3.108   4.168
 2446SOL    MW4 9913   0.663   3.065   4.152
 2447SOL     OW 9914   0.471   3.224   4.245
 2447SOL    HW2 9915   0.490   3.260   4.331
 2447SOL    HW3 9916   0.468   3.300   4.187
 2447SOL    MW4 9917   0.473   3.238   4.249
 2448SOL     OW 9918   0.450   3.458   4.111
 2448SOL    HW2 9919   0.521   3.502   4.159
 2448SOL    HW3 9920   0.461   3.488   4.021
 2448SOL    MW4 9921   0.461   3.468   4.105
 2449SOL     OW 9922   0.682   3.628   4.260
 2449SOL    HW2 9923   0.677   3.618   4.355
 2449SOL    HW3 9924   0.764   3.585   4.236
 2449SOL    MW4 9925   0.692   3.621   4.269
 2450SOL     OW 9926   0.714   3.884   4.113
 2450SOL    HW2 9927   0.640   3.934   4.150
 2450SOL    HW3 9928   0.712   3.801   4.160
 2450SOL    MW4 9929   0.704   3.880   4.124
 2451SOL     OW 9930   0.510   3.998   4.250
 2451SOL    HW2 9931   0.487   4.090   4.236
 2451SOL    HW3 9932   0.432   3.950   4.222
 2451SOL    MW4 9933   0.497   4.004   4.245
 2452SOL     OW 9934   0.415   4.257   4.200
 2452SOL    HW2 9935   0.338   4.309   4.223
 2452SOL    HW3 9936   0.419   4.262   4.104
 2452SOL    MW4 9937   0.406   4.264   4.190
 2453SOL     OW 9938   0.670   4.356   4.279
 2453SOL    HW2 9939   0.586   4.312   4.269
 2453SOL    HW3 9940   0.653   4.447   4.256
 2453SOL    MW4 9941   0.657   4.362   4.275
 2454SOL     OW 9942   1.125   0.028   4.144
 2454SOL    HW2 9943   1.111  -0.066   4.156
 2454SOL    HW3 9944   1.152   0.036   4.052
 2454SOL    MW4 9945   1.127   0.016   4.133
 2455SOL     OW 9946   0.924   0.130   4.299
 2455SOL    HW2 9947   0.982   0.089   4.235
 2455SOL    HW3 9948   0.846   0.075   4.299
 2455SOL    MW4 9949   0.921   0.117   4.290
 2456SOL     OW 9950   0.904   0.382   4.176
 2456SOL    HW2 9951   0.989   0.424   4.188
 2456SOL    HW3 9952   0.912   0.298   4.221
 2456SOL    MW4 9953   0.916   0.376   4.183
 2457SOL     OW 9954   1.157   0.502   4.225
 2457SOL    HW2 9955   1.177   0.509   4.318
 2457SOL    HW3 9956   1.226   0.446   4.190
 2457SOL    MW4 9957   1.169   0.496   4.233
 2458SOL     OW 9958   1.129   0.753   4.131
 2458SOL    HW2 9959   1.191   0.804   4.183
 2458SOL    HW3 9960   1.140   0.663   4.162
 2458SOL    MW4 9961   1.138   0.748   4.142
 2459SOL     OW 9962   0.942   0.890   4.287
 2459SOL    HW2 9963   1.006   0.841   4.236
 2459SOL    HW3 9964   0.859   0.846   4.270
 2459SOL    MW4 9965   0.939   0.878   4.278
 2460SOL     OW 9966   0.901   1.136   4.154
 2460SOL    HW2 9967   0.913   1.046   4.184
 2460SOL    HW3 9968   0.828   1.169   4.205
 2460SOL    MW4 9969   0.893   1.129   4.164
 2461SOL     OW 9970   1.125   1.259   4.290
 2461SOL    HW2 9971   1.100   1.261   4.382
 2461SOL    HW3 9972   1.042   1.252   4.243
 2461SOL    MW4 9973   1.111   1.259   4.296
 2462SOL     OW 9974   1.189   1.548   4.186
 2462SOL    HW2 9975   1.098   1.565   4.210
 2462SOL    HW3 9976   1.202   1.455   4.204
 2462SOL    MW4 9977   1.179   1.538   4.192
 2463SOL     OW 9978   0.936   1.622   4.268
 2463SOL    HW2 9979   0.918   1.619   4.362
 2463SOL    HW3 9980   0.934   1.715   4.245
 2463SOL    MW4 9981   0.933   1.633   4.277
 2464SOL     OW 9982   0.910   1.877   4.173
 2464SOL    HW2 9983   0.843   1.920   4.226
 2464SOL    HW3 9984   0.898   1.913   4.085
 2464SOL    MW4 9985   0.900   1.887   4.168
 2465SOL     OW 9986   1.158   2.047   4.229
 2465SOL    HW2 9987   1.149   2.060   4.323
 2465SOL    HW3 9988   1.083   1.992   4.205
 2465SOL    MW4 9989   1.147   2.042   4.238
 2466SOL     OW 9990   1.103   2.309   4.147
 2466SOL    HW2 9991   1.186   2.345   4.181
 2466SOL    HW3 9992   1.097   2.222   4.186
 2466SOL    MW4 9993   1.113   2.302   4.156
 2467SOL     OW 9994   0.886   2.458   4.234
 2467SOL    HW2 9995   0.968   2.413   4.212
 2467SOL    HW3 9996   0.818   2.392   4.219
 2467SOL    MW4 9997   0.888   2.443   4.229
 2468SOL     OW 9998   0.862   2.684   4.112
 2468SOL    HW2 9999   0.864   2.600   4.158
 2468SOL    HW310000   0.786   2.729   4.149
 2468SOL    MW410001   0.853   2.679   4.123
 2469SOL     OW10002   1.087   2.810   4.246
 2469SOL    HW210003   1.094   2.894   4.202
 2469SOL    HW310004   1.006   2.771   4.213
 2469SOL    MW410005   1.077   2.816   4.236
 2470SOL     OW10006   1.136   3.065   4.160
 2470SOL    HW210007   1.205   3.115   4.204
 2470SOL    HW310008   1.153   3.078   4.067
 2470SOL    MW410009   1.147   3.073   4.154
 2471SOL     OW10010   0.893   3.169   4.243
 2471SOL    HW210011   0.886   3.122   4.327
 2471SOL    HW310012   0.969   3.130   4.201
 2471SOL    MW410013   0.902   3.157   4.249
 2472SOL     OW10014   0.900   3.463   4.208
 2472SOL    HW210015   0.905   3.369   4.224
 2472SOL    HW310016   0.886   3.471   4.114
 2472SOL    MW410017   0.899   3.452   4.198
 2473SOL     OW10018   1.152   3.604   4.269
 2473SOL    HW210019   1.132   3.691   4.234
 2473SOL    HW310020   1.068   3.559   4.272
 2473SOL    MW410021   1.138   3.609   4.265
 2474SOL     OW10022   1.118   3.861   4.161
 2474SOL    HW210023   1.199   3.898   4.195
 2474SOL    HW310024   1.050   3.924   4.186
 2474SOL    MW410025   1.119   3.874   4.169
 2475SOL     OW10026   0.896   4.029   4.246
 2475SOL    HW210027   0.900   4.111   4.197
 2475SOL    HW310028   0.824   3.980   4.205
 2475SOL    MW410029   0.887   4.033   4.234
 2476SOL     OW10030   0.875   4.294   4.131
 2476SOL    HW210031   0.946   4.343   4.171
 2476SOL    HW310032   0.797   4.318   4.183
 2476SOL    MW410033   0.874   4.304   4.143
 2477SOL     OW10034   1.098   4.428   4.260
 2477SOL    HW210035   1.094   4.403   4.352
 2477SOL    HW310036   1.182   4.393   4.229
 2477SOL    MW410037   1.109   4.420   4.268
 2478SOL     OW10038   1.598   4.634   4.162
 2478SOL    HW210039   1.681   4.663   4.201
 2478SOL    HW310040   1.531   4.670   4.219
 2478SOL    MW410041   1.600   4.642   4.175
 2479SOL     OW10042   1.377   0.081   4.264
 2479SOL    HW210043   1.372   0.074   4.359
 2479SOL    HW310044   1.288   0.063   4.233
 2479SOL    MW410045   1.365   0.078   4.272
 2480SOL     OW10046   1.371   0.350   4.133
 2480SOL    HW210047   1.454   0.392   4.154
 2480SOL    HW310048   1.377   0.264   4.174
 2480SOL    MW410049   1.383   0.344   4.141
 2481SOL     OW10050   1.576   0.495   4.261
 2481SOL    HW210051   1.584   0.505   4.356
 2481SOL    HW310052   1.580   0.584   4.227
 2481SOL    MW410053   1.577   0.508   4.269
 2482SOL     OW10054   1.572   0.757   4.167
 2482SOL    HW210055   1.649   0.801   4.204
 2482SOL    HW310056   1.583   0.766   4.072
 2482SOL    MW410057   1.584   0.764   4.159
 2483SOL     OW10058   1.337   0.870   4.273
 2483SOL    HW210059   1.363   0.962   4.267
 2483SOL    HW310060   1.413   0.821   4.241
 2483SOL    MW410061   1.351   0.875   4.268
 2484SOL     OW10062   1.360   1.142   4.192
 2484SOL    HW210063   1.276   1.176   4.221
 2484SOL    HW310064   1.360   1.154   4.098
 2484SOL    MW410065   1.349   1.148   4.184
 2485SOL     OW10066   1.558   1.312   4.253
 2485SOL    HW210067   1.546   1.337   4.345
 2485SOL    HW310068   1.486   1.251   4.235
 2485SOL    MW410069   1.547   1.307   4.263
 2486SOL     OW10070   1.573   1.582   4.120
 2486SOL    HW210071   1.501   1.621   4.170
 2486SOL    HW310072   1.590   1.499   4.164
 2486SOL    MW410073   1.566   1.576   4.132
 2487SOL     OW10074   1.383   1.736   4.257
 2487SOL    HW210075   1.381   1.807   4.193
 2487SOL    HW310076   1.305   1.684   4.238
 2487SOL    MW410077   1.372   1.738   4.246
 2488SOL     OW10078   1.374   1.962   4.076
 2488SOL    HW210079   1.448   2.014   4.106
 2488SOL    HW310080   1.299   1.996   4.125
 2488SOL    MW410081   1.373   1.973   4.086
 2489SOL     OW10082   1.599   2.071   4.182
 2489SOL    HW210083   1.561   2.053   4.268
 2489SOL    HW310084   1.586   2.165   4.168
 2489SOL    MW410085   1.592   2.081   4.191
 2490SOL     OW10086   1.526   2.333   4.132
 2490SOL    HW210087   1.600   2.389   4.155
 2490SOL    HW310088   1.530   2.327   4.036
 2490SOL    MW410089   1.536   2.340   4.122
 2491SOL     OW10090   1.319   2.446   4.254
 2491SOL    HW210091   1.320   2.538   4.228
 2491SOL    HW310092   1.392   2.407   4.207
 2491SOL    MW410093   1.328   2.453   4.244
 2492SOL     OW10094   1.329   2.702   4.159
 2492SOL    HW210095   1.404   2.748   4.196
 2492SOL    HW310096   1.253   2.743   4.201
 2492SOL    MW410097   1.329   2.713   4.170
 2493SOL     OW10098   1.572   2.832   4.236
 2493SOL    HW210099   1.573   2.848   4.330
 2493SOL    HW310100   1.587   2.918   4.197
 2493SOL    MW410101   1.574   2.845   4.243
 2494SOL     OW10102   1.593   3.092   4.124
 2494SOL    HW210103   1.663   3.141   4.168
 2494SOL    HW310104   1.512   3.133   4.155
 2494SOL    MW410105   1.591   3.104   4.134
 2495SOL     OW10106   1.361   3.215   4.245
 2495SOL    HW210107   1.388   3.224   4.336
 2495SOL    HW310108   1.358   3.304   4.211
 2495SOL    MW410109   1.364   3.228   4.253
 2496SOL     OW10110   1.354   3.469   4.125
 2496SOL    HW210111   1.285   3.523   4.164
 2496SOL    HW310112   1.337   3.473   4.030
 2496SOL    MW410113   1.343   3.477   4.117
 2497SOL     OW10114   1.587   3.576   4.239
 2497SOL    HW210115   1.556   3.562   4.329
 2497SOL    HW310116   1.516   3.545   4.184
 2497SOL    MW410117   1.574   3.570   4.244
 2498SOL     OW10118   1.630   3.835   4.134
 2498SOL    HW210119   1.560   3.899   4.148
 2498SOL    HW310120   1.599   3.756   4.177
 2498SOL    MW410121   1.617   3.833   4.141
 2499SOL     OW10122   1.375   4.010   4.189
 2499SOL    HW210123   1.365   4.026   4.283
 2499SOL    HW310124   1.347   4.092   4.148
 2499SOL    MW410125   1.370   4.023   4.196
 2500SOL     OW10126   1.331   4.300   4.164
 2500SOL    HW210127   1.407   4.341   4.204
 2500SOL    HW310128   1.343   4.316   4.070
 2500SOL    MW410129   1.343   4.307   4.157
 2501SOL     OW10130   1.574   4.367   4.267
 2501SOL    HW210131   1.608   4.446   4.226
 2501SOL    HW310132   1.639   4.300   4.246
 2501SOL    MW410133   1.587   4.369   4.259
 2502SOL     OW10134   2.028   4.643   4.189
 2502SOL    HW210135   1.943   4.671   4.224
 2502SOL    HW310136   2.023   4.661   4.095
 2502SOL    MW410137   2.016   4.649   4.182
 2503SOL     OW10138   1.801   0.085   4.280
 2503SOL    HW210139   1.772   0.091   4.371
 2503SOL    HW310140   1.808   0.176   4.251
 2503SOL    MW410141   1.798   0.097   4.289
 2504SOL     OW10142   1.829   0.337   4.194
 2504SOL    HW210143   1.903   0.391   4.224
 2504SOL    HW310144   1.752   0.381   4.229
 2504SOL    MW410145   1.829   0.350   4.202
 2505SOL     OW10146   2.037   0.500   4.259
 2505SOL    HW210147   2.045   0.499   4.355
 2505SOL    HW310148   2.121   0.465   4.228
 2505SOL    MW410149   2.049   0.495   4.268
 2506SOL     OW10150   1.992   0.746   4.135
 2506SOL    HW210151   2.078   0.762   4.175
 2506SOL    HW310152   1.973   0.654   4.154
 2506SOL    MW410153   2.001   0.736   4.143
 2507SOL     OW10154   1.796   0.881   4.283
 2507SOL    HW210155   1.805   0.976   4.276
 2507SOL    HW310156   1.860   0.847   4.221
 2507SOL    MW410157   1.805   0.889   4.274
 2508SOL     OW10158   1.799   1.161   4.233
 2508SOL    HW210159   1.873   1.216   4.259
 2508SOL    HW310160   1.724   1.221   4.231
 2508SOL    MW410161   1.799   1.176   4.236
 2509SOL     OW10162   2.025   1.293   4.276
 2509SOL    HW210163   2.090   1.255   4.217
 2509SOL    HW310164   2.023   1.386   4.254
 2509SOL    MW410165   2.033   1.300   4.265
 2510SOL     OW10166   2.013   1.562   4.170
 2510SOL    HW210167   2.090   1.606   4.204
 2510SOL    HW310168   2.038   1.533   4.082
 2510SOL    MW410169   2.026   1.564   4.163
 2511SOL     OW10170   1.790   1.668   4.273
 2511SOL    HW210171   1.870   1.637   4.230
 2511SOL    HW310172   1.720   1.638   4.216
 2511SOL    MW410173   1.791   1.660   4.260
 2512SOL     OW10174   1.825   1.904   4.143
 2512SOL    HW210175   1.809   1.825   4.195
 2512SOL    HW310176   1.750   1.961   4.161
 2512SOL    MW410177   1.813   1.901   4.152
 2513SOL     OW10178   2.050   2.041   4.245
 2513SOL    HW210179   2.125   2.016   4.192
 2513SOL    HW310180   1.976   1.996   4.206
 2513SOL    MW410181   2.050   2.032   4.233
 2514SOL     OW10182   2.003   2.317   4.188
 2514SOL    HW210183   2.027   2.227   4.210
 2514SOL    HW310184   1.996   2.318   4.093
 2514SOL    MW410185   2.005   2.305   4.178
 2515SOL     OW10186   1.767   2.445   4.230
 2515SOL    HW210187   1.738   2.448   4.321
 2515SOL    HW310188   1.845   2.391   4.231
 2515SOL    MW410189   1.773   2.438   4.242
 2516SOL     OW10190   1.800   2.712   4.142
 2516SOL    HW210191   1.794   2.620   4.169
 2516SOL    HW310192   1.718   2.752   4.174
 2516SOL    MW410193   1.788   2.705   4.150
 2517SOL     OW10194   1.983   2.891   4.246
 2517SOL    HW210195   1.996   2.889   4.341
 2517SOL    HW310196   1.916   2.824   4.229
 2517SOL    MW410197   1.976   2.882   4.256
 2518SOL     OW10198   2.036   3.115   4.090
 2518SOL    HW210199   2.000   3.040   4.137
 2518SOL    HW310200   2.033   3.088   3.998
 2518SOL    MW410201   2.031   3.101   4.084
 2519SOL     OW10202   1.803   3.233   4.205
 2519SOL    HW210203   1.810   3.320   4.167
 2519SOL    HW310204   1.875   3.183   4.165
 2519SOL    MW410205   1.813   3.238   4.195
 2520SOL     OW10206   1.837   3.489   4.134
 2520SOL    HW210207   1.751   3.522   4.163
 2520SOL    HW310208   1.830   3.486   4.039
 2520SOL    MW410209   1.824   3.493   4.125
 2521SOL     OW10210   2.101   3.615   4.181
 2521SOL    HW210211   2.078   3.706   4.199
 2521SOL    HW310212   2.017   3.573   4.161
 2521SOL    MW410213   2.087   3.621   4.181
 2522SOL     OW10214   2.106   3.892   4.224
 2522SOL    HW210215   2.018   3.901   4.262
 2522SOL    HW310216   2.092   3.903   4.130
 2522SOL    MW410217   2.092   3.895   4.217
 2523SOL     OW10218   1.844   3.928   4.285
 2523SOL    HW210219   1.799   4.003   4.247
 2523SOL    HW310220   1.809   3.853   4.237
 2523SOL    MW410221   1.834   3.928   4.274
 2524SOL     OW10222   1.794   4.222   4.194
 2524SOL    HW210223   1.881   4.256   4.216
 2524SOL    HW310224   1.796   4.209   4.099
 2524SOL    MW410225   1.806   4.225   4.184
 2525SOL     OW10226   2.043   4.367   4.242
 2525SOL    HW210227   2.041   4.388   4.336
 2525SOL    HW310228   2.060   4.450   4.199
 2525SOL    MW410229   2.045   4.380   4.249
 2526SOL     OW10230   2.425   0.005   4.137
 2526SOL    HW210231   2.501   0.048   4.177
 2526SOL    HW310232   2.430  -0.085   4.169
 2526SOL    MW410233   2.436  -0.001   4.147
 2527SOL     OW10234   2.255   0.151   4.262
 2527SOL    HW210235   2.316   0.094   4.215
 2527SOL    HW310236   2.169   0.110   4.248
 2527SOL    MW410237   2.252   0.138   4.254
 2528SOL     OW10238   2.285   0.415   4.172
 2528SOL    HW210239   2.281   0.325   4.205
 2528SOL    HW310240   2.274   0.406   4.077
 2528SOL    MW410241   2.283   0.402   4.164
 2529SOL     OW10242   2.527   0.532   4.237
 2529SOL    HW210243   2.565   0.492   4.315
 2529SOL    HW310244   2.438   0.497   4.232
 2529SOL    MW410245   2.520   0.522   4.246
 2530SOL     OW10246   2.510   0.811   4.126
 2530SOL    HW210247   2.507   0.719   4.154
 2530SOL    HW310248   2.493   0.808   4.032
 2530SOL    MW410249   2.507   0.798   4.117
 2531SOL     OW10250   2.243   0.877   4.208
 2531SOL    HW210251   2.237   0.888   4.303
 2531SOL    HW310252   2.335   0.861   4.191
 2531SOL    MW410253   2.254   0.877   4.218
 2532SOL     OW10254   2.205   1.148   4.115
 2532SOL    HW210255   2.272   1.204   4.152
 2532SOL    HW310256   2.225   1.060   4.147
 2532SOL    MW410257   2.216   1.144   4.124
 2533SOL     OW10258   2.428   1.292   4.248
 2533SOL    HW210259   2.451   1.307   4.340
 2533SOL    HW310260   2.509   1.263   4.207
 2533SOL    MW410261   2.442   1.290   4.255
 2534SOL     OW10262   2.446   1.567   4.169
 2534SOL    HW210263   2.444   1.472   4.182
 2534SOL    HW310264   2.440   1.578   4.074
 2534SOL    MW410265   2.445   1.556   4.158
 2535SOL     OW10266   2.233   1.677   4.281
 2535SOL    HW210267   2.244   1.702   4.373
 2535SOL    HW310268   2.320   1.650   4.253
 2535SOL    MW410269   2.246   1.677   4.290
 2536SOL     OW10270   2.258   1.910   4.116
 2536SOL    HW210271   2.332   1.961   4.149
 2536SOL    HW310272   2.253   1.835   4.176
 2536SOL    MW410273   2.267   1.907   4.128
 2537SOL     OW10274   2.445   2.076   4.251
 2537SOL    HW210275   2.455   2.065   4.345
 2537SOL    HW310276   2.530   2.053   4.215
 2537SOL    MW410277   2.457   2.072   4.258
 2538SOL     OW10278   2.441   2.335   4.164
 2538SOL    HW210279   2.430   2.242   4.186
 2538SOL    HW310280   2.449   2.336   4.068
 2538SOL    MW410281   2.441   2.323   4.154
 2539SOL     OW10282   2.222   2.486   4.250
 2539SOL    HW210283   2.298   2.430   4.233
 2539SOL    HW310284   2.149   2.441   4.208
 2539SOL    MW410285   2.222   2.473   4.242
 2540SOL     OW10286   2.233   2.741   4.152
 2540SOL    HW210287   2.225   2.649   4.177
 2540SOL    HW310288   2.162   2.785   4.198
 2540SOL    MW410289   2.223   2.734   4.161
 2541SOL     OW10290   2.537   3.092   4.108
 2541SOL    HW210291   2.452   3.125   4.138
 2541SOL    HW310292   2.539   3.001   4.136
 2541SOL    MW410293   2.526   3.085   4.116
 2542SOL     OW10294   2.286   3.184   4.168
 2542SOL    HW210295   2.285   3.268   4.123
 2542SOL    HW310296   2.208   3.138   4.137
 2542SOL    MW410297   2.276   3.189   4.158
 2543SOL     OW10298   2.307   3.471   4.073
 2543SOL    HW210299   2.383   3.515   4.112
 2543SOL    HW310300   2.233   3.526   4.096
 2543SOL    MW410301   2.308   3.484   4.081
 2544SOL     OW10302   2.507   3.600   4.215
 2544SOL    HW210303   2.482   3.593   4.307
 2544SOL    HW310304   2.500   3.693   4.195
 2544SOL    MW410305   2.503   3.611   4.225
 2545SOL     OW10306   2.503   3.866   4.132
 2545SOL    HW210307   2.570   3.924   4.167
 2545SOL    HW310308   2.496   3.890   4.040
 2545SOL    MW410309   2.511   3.877   4.125
 2546SOL     OW10310   2.341   4.032   4.284
 2546SOL    HW210311   2.406   3.982   4.235
 2546SOL    HW310312   2.262   3.978   4.281
 2546SOL    MW410313   2.339   4.018   4.278
 2547SOL     OW10314   2.271   4.256   4.143
 2547SOL    HW210315   2.303   4.182   4.193
 2547SOL    HW310316   2.178   4.262   4.165
 2547SOL    MW410317   2.263   4.247   4.152
 2548SOL     OW10318   2.450   4.429   4.272
 2548SOL    HW210319   2.538   4.399   4.249
 2548SOL    HW310320   2.392   4.368   4.226
 2548SOL    MW410321   2.454   4.417   4.263
 2549SOL     OW10322   2.914   0.038   4.144
 2549SOL    HW210323   2.983   0.090   4.183
 2549SOL    HW310324   2.937  -0.053   4.166
 2549SOL    MW410325   2.926   0.033   4.152
 2550SOL     OW10326   2.667   0.172   4.222
 2550SOL    HW210327   2.672   0.263   4.192
 2550SOL    HW310328   2.754   0.135   4.205
 2550SOL    MW410329   2.679   0.179   4.216
 2551SOL     OW10330   2.718   0.416   4.094
 2551SOL    HW210331   2.648   0.459   4.143
 2551SOL    HW310332   2.691   0.422   4.002
 2551SOL    MW410333   2.705   0.423   4.088
 2552SOL     OW10334   2.955   0.528   4.201
 2552SOL    HW210335   2.957   0.621   4.176
 2552SOL    HW310336   2.884   0.491   4.149
 2552SOL    MW410337   2.946   0.536   4.191
 2553SOL     OW10338   2.936   0.789   4.146
 2553SOL    HW210339   3.025   0.821   4.161
 2553SOL    HW310340   2.928   0.783   4.051
 2553SOL    MW410341   2.947   0.793   4.136
 2554SOL     OW10342   2.713   0.954   4.231
 2554SOL    HW210343   2.795   0.907   4.219
 2554SOL    HW310344   2.645   0.894   4.201
 2554SOL    MW410345   2.715   0.940   4.226
 2555SOL     OW10346   2.670   1.214   4.152
 2555SOL    HW210347   2.653   1.125   4.180
 2555SOL    HW310348   2.681   1.207   4.057
 2555SOL    MW410349   2.670   1.201   4.143
 2556SOL     OW10350   2.931   1.328   4.196
 2556SOL    HW210351   2.994   1.260   4.176
 2556SOL    HW310352   2.846   1.286   4.185
 2556SOL    MW410353   2.928   1.314   4.192
 2557SOL     OW10354   2.932   1.596   4.138
 2557SOL    HW210355   3.012   1.642   4.162
 2557SOL    HW310356   2.949   1.505   4.161
 2557SOL    MW410357   2.945   1.590   4.144
 2558SOL     OW10358   2.690   1.695   4.227
 2558SOL    HW210359   2.758   1.633   4.200
 2558SOL    HW310360   2.608   1.646   4.219
 2558SOL    MW410361   2.688   1.680   4.223
 2559SOL     OW10362   2.693   1.968   4.131
 2559SOL    HW210363   2.684   1.884   4.176
 2559SOL    HW310364   2.691   1.946   4.038
 2559SOL    MW410365   2.691   1.954   4.125
 2560SOL     OW10366   2.928   2.076   4.249
 2560SOL    HW210367   2.944   2.158   4.202
 2560SOL    HW310368   2.852   2.038   4.204
 2560SOL    MW410369   2.920   2.082   4.237
 2561SOL     OW10370   2.945   2.318   4.134
 2561SOL    HW210371   2.996   2.383   4.182
 2561SOL    HW310372   2.854   2.342   4.150
 2561SOL    MW410373   2.939   2.330   4.143
 2562SOL     OW10374   2.697   2.445   4.201
 2562SOL    HW210375   2.724   2.455   4.293
 2562SOL    HW310376   2.609   2.408   4.206
 2562SOL    MW410377   2.689   2.441   4.214
 2563SOL     OW10378   2.693   2.703   4.088
 2563SOL    HW210379   2.699   2.619   4.134
 2563SOL    HW310380   2.623   2.750   4.134
 2563SOL    MW410381   2.685   2.698   4.100
 2564SOL     OW10382   2.876   2.847   4.231
 2564SOL    HW210383   2.863   2.825   4.323
 2564SOL    HW310384   2.809   2.796   4.184
 2564SOL    MW410385   2.865   2.837   4.237
 2565SOL     OW10386   2.936   3.107   4.148
 2565SOL    HW210387   2.904   3.018   4.165
 2565SOL    HW310388   2.944   3.112   4.053
 2565SOL    MW410389   2.933   3.096   4.137
 2566SOL     OW10390   2.726   3.211   4.296
 2566SOL    HW210391   2.807   3.179   4.255
 2566SOL    HW310392   2.657   3.186   4.235
 2566SOL    MW410393   2.728   3.203   4.282
 2567SOL     OW10394   2.766   3.470   4.147
 2567SOL    HW210395   2.767   3.394   4.205
 2567SOL    HW310396   2.684   3.516   4.168
 2567SOL    MW410397   2.755   3.466   4.157
 2568SOL     OW10398   2.939   3.666   4.235
 2568SOL    HW210399   2.921   3.675   4.329
 2568SOL    HW310400   2.880   3.596   4.206
 2568SOL    MW410401   2.929   3.658   4.244
 2569SOL     OW10402   2.949   3.917   4.114
 2569SOL    HW210403   3.029   3.946   4.157
 2569SOL    HW310404   2.938   3.827   4.143
 2569SOL    MW410405   2.958   3.909   4.124
 2570SOL     OW10406   2.728   4.027   4.233
 2570SOL    HW210407   2.735   4.123   4.238
 2570SOL    HW310408   2.814   3.998   4.203
 2570SOL    MW410409   2.740   4.036   4.230
 2571SOL     OW10410   2.696   4.298   4.196
 2571SOL    HW210411   2.787   4.324   4.208
 2571SOL    HW310412   2.689   4.277   4.103
 2571SOL    MW410413   2.707   4.299   4.185
 2572SOL     OW10414   2.957   4.431   4.249
 2572SOL    HW210415   2.950   4.436   4.344
 2572SOL    HW310416   3.030   4.372   4.233
 2572SOL    MW410417   2.966   4.424   4.259
 2573SOL     OW10418   3.387   0.032   4.212
 2573SOL    HW210419   3.471   0.061   4.246
 2573SOL    HW310420   3.393  -0.064   4.213
 2573SOL    MW410421   3.399   0.023   4.216
 2574SOL     OW10422   3.142   0.167   4.235
 2574SOL    HW210423   3.131   0.179   4.330
 2574SOL    HW310424   3.228   0.125   4.227
 2574SOL    MW410425   3.152   0.163   4.247
 2575SOL     OW10426   3.193   0.416   4.122
 2575SOL    HW210427   3.178   0.333   4.167
 2575SOL    HW310428   3.114   0.468   4.140
 2575SOL    MW410429   3.180   0.412   4.130
 2576SOL     OW10430   3.419   0.587   4.192
 2576SOL    HW210431   3.495   0.530   4.180
 2576SOL    HW310432   3.345   0.533   4.165
 2576SOL    MW410433   3.420   0.572   4.187
 2577SOL     OW10434   3.400   0.842   4.066
 2577SOL    HW210435   3.323   0.877   4.112
 2577SOL    HW310436   3.416   0.757   4.107
 2577SOL    MW410437   3.392   0.836   4.078
 2578SOL     OW10438   3.185   0.916   4.213
 2578SOL    HW210439   3.179   0.916   4.309
 2578SOL    HW310440   3.149   1.000   4.186
 2578SOL    MW410441   3.179   0.927   4.222
 2579SOL     OW10442   3.139   1.156   4.098
 2579SOL    HW210443   3.216   1.196   4.137
 2579SOL    HW310444   3.154   1.163   4.004
 2579SOL    MW410445   3.151   1.162   4.091
 2580SOL     OW10446   3.388   1.271   4.239
 2580SOL    HW210447   3.399   1.280   4.334
 2580SOL    HW310448   3.382   1.361   4.207
 2580SOL    MW410449   3.389   1.284   4.248
 2581SOL     OW10450   3.402   1.544   4.141
 2581SOL    HW210451   3.325   1.602   4.146
 2581SOL    HW310452   3.421   1.539   4.047
 2581SOL    MW410453   3.394   1.551   4.129
 2582SOL     OW10454   3.178   1.695   4.203
 2582SOL    HW210455   3.192   1.709   4.297
 2582SOL    HW310456   3.144   1.779   4.171
 2582SOL    MW410457   3.175   1.708   4.212
 2583SOL     OW10458   3.125   1.946   4.094
 2583SOL    HW210459   3.204   1.989   4.129
 2583SOL    HW310460   3.054   1.979   4.148
 2583SOL    MW410461   3.126   1.956   4.106
 2584SOL     OW10462   3.328   2.036   4.259
 2584SOL    HW210463   3.400   1.995   4.211
 2584SOL    HW310464   3.325   2.126   4.227
 2584SOL    MW410465   3.337   2.042   4.248
 2585SOL     OW10466   3.362   2.313   4.177
 2585SOL    HW210467   3.446   2.352   4.198
 2585SOL    HW310468   3.360   2.310   4.082
 2585SOL    MW410469   3.373   2.318   4.167
 2586SOL     OW10470   3.158   2.487   4.254
 2586SOL    HW210471   3.143   2.575   4.219
 2586SOL    HW310472   3.234   2.454   4.206
 2586SOL    MW410473   3.166   2.495   4.243
 2587SOL     OW10474   3.110   2.731   4.125
 2587SOL    HW210475   3.182   2.770   4.174
 2587SOL    HW310476   3.033   2.781   4.154
 2587SOL    MW410477   3.109   2.743   4.136
 2588SOL     OW10478   3.349   2.840   4.211
 2588SOL    HW210479   3.429   2.800   4.178
 2588SOL    HW310480   3.359   2.934   4.192
 2588SOL    MW410481   3.361   2.847   4.204
 2589SOL     OW10482   3.382   3.106   4.145
 2589SOL    HW210483   3.311   3.157   4.186
 2589SOL    HW310484   3.364   3.112   4.051
 2589SOL    MW410485   3.370   3.114   4.138
 2590SOL     OW10486   3.159   3.229   4.270
 2590SOL    HW210487   3.141   3.321   4.251
 2590SOL    HW310488   3.089   3.181   4.225
 2590SOL    MW410489   3.147   3.235   4.262
 2591SOL     OW10490   3.152   3.511   4.184
 2591SOL    HW210491   3.080   3.567   4.214
 2591SOL    HW310492   3.156   3.526   4.090
 2591SOL    MW410493   3.143   3.521   4.176
 2592SOL     OW10494   3.376   3.677   4.262
 2592SOL    HW210495   3.381   3.691   4.357
 2592SOL    HW310496   3.295   3.626   4.250
 2592SOL    MW410497   3.366   3.672   4.273
 2593SOL     OW10498   3.403   3.923   4.137
 2593SOL    HW210499   3.389   3.833   4.166
 2593SOL    HW310500   3.419   3.916   4.043
 2593SOL    MW410501   3.403   3.910   4.128
 2594SOL     OW10502   3.160   4.021   4.249
 2594SOL    HW210503   3.142   3.982   4.335
 2594SOL    HW310504   3.242   3.982   4.221
 2594SOL    MW410505   3.168   4.011   4.257
 2595SOL     OW10506   3.141   4.273   4.142
 2595SOL    HW210507   3.217   4.329   4.155
 2595SOL    HW310508   3.167   4.188   4.178
 2595SOL    MW410509   3.154   4.269   4.148
 2596SOL     OW10510   3.378   4.415   4.215
 2596SOL    HW210511   3.391   4.392   4.308
 2596SOL    HW310512   3.446   4.365   4.169
 2596SOL    MW410513   3.389   4.405   4.221
 2597SOL     OW10514   3.850   0.004   4.156
 2597SOL    HW210515   3.929   0.053   4.177
 2597SOL    HW310516   3.834   0.023   4.063
 2597SOL    MW410517   3.858   0.013   4.146
 2598SOL     OW10518   3.641   0.136   4.258
 2598SOL    HW210519   3.649   0.227   4.227
 2598SOL    HW310520   3.712   0.089   4.213
 2598SOL    MW410521   3.651   0.142   4.248
 2599SOL     OW10522   3.625   0.415   4.155
 2599SOL    HW210523   3.704   0.455   4.191
 2599SOL    HW310524   3.629   0.434   4.061
 2599SOL    MW410525   3.636   0.423   4.147
 2600SOL     OW10526   3.855   0.488   4.270
 2600SOL    HW210527   3.851   0.494   4.365
 2600SOL    HW310528   3.835   0.576   4.239
 2600SOL    MW410529   3.852   0.500   4.279
 2601SOL     OW10530   3.796   0.725   4.142
 2601SOL    HW210531   3.730   0.791   4.165
 2601SOL    HW310532   3.799   0.726   4.046
 2601SOL    MW410533   3.788   0.734   4.132
 2602SOL     OW10534   3.624   0.940   4.216
 2602SOL    HW210535   3.625   1.031   4.188
 2602SOL    HW310536   3.547   0.902   4.174
 2602SOL    MW410537   3.614   0.947   4.207
 2603SOL     OW10538   3.648   1.210   4.163
 2603SOL    HW210539   3.559   1.232   4.191
 2603SOL    HW310540   3.644   1.212   4.068
 2603SOL    MW410541   3.636   1.213   4.154
 2604SOL     OW10542   3.876   1.346   4.239
 2604SOL    HW210543   3.789   1.315   4.214
 2604SOL    HW310544   3.888   1.426   4.189
 2604SOL    MW410545   3.866   1.352   4.229
 2605SOL     OW10546   3.892   1.587   4.106
 2605SOL    HW210547   3.961   1.640   4.146
 2605SOL    HW310548   3.812   1.614   4.151
 2605SOL    MW410549   3.890   1.597   4.118
 2606SOL     OW10550   3.631   1.665   4.228
 2606SOL    HW210551   3.552   1.620   4.198
 2606SOL    HW310552   3.637   1.644   4.321
 2606SOL    MW410553   3.622   1.656   4.236
 2607SOL     OW10554   3.564   1.932   4.163
 2607SOL    HW210555   3.572   1.840   4.189
 2607SOL    HW310556   3.591   1.934   4.072
 2607SOL    MW410557   3.569   1.920   4.155
 2608SOL     OW10558   3.684   2.106   4.323
 2608SOL    HW210559   3.757   2.059   4.363
 2608SOL    HW310560   3.647   2.044   4.260
 2608SOL    MW410561   3.689   2.092   4.320
 2609SOL     OW10562   3.802   2.325   4.176
 2609SOL    HW210563   3.779   2.239   4.212
 2609SOL    HW310564   3.805   2.311   4.081
 2609SOL    MW410565   3.799   2.312   4.168
 2610SOL     OW10566   3.569   2.474   4.216
 2610SOL    HW210567   3.571   2.508   4.305
 2610SOL    HW310568   3.659   2.443   4.200
 2610SOL    MW410569   3.581   2.474   4.225
 2611SOL     OW10570   3.582   2.731   4.122
 2611SOL    HW210571   3.568   2.637   4.128
 2611SOL    HW310572   3.587   2.750   4.029
 2611SOL    MW410573   3.581   2.721   4.111
 2612SOL     OW10574   3.814   2.845   4.236
 2612SOL    HW210575   3.799   2.891   4.318
 2612SOL    HW310576   3.726   2.823   4.204
 2612SOL    MW410577   3.801   2.848   4.243
 2613SOL     OW10578   3.811   3.112   4.154
 2613SOL    HW210579   3.831   3.021   4.178
 2613SOL    HW310580   3.812   3.112   4.059
 2613SOL    MW410581   3.814   3.100   4.145
 2614SOL     OW10582   3.586   3.257   4.260
 2614SOL    HW210583   3.660   3.206   4.227
 2614SOL    HW310584   3.509   3.214   4.223
 2614SOL    MW410585   3.586   3.245   4.251
 2615SOL     OW10586   3.596   3.525   4.156
 2615SOL    HW210587   3.593   3.438   4.195
 2615SOL    HW310588   3.535   3.578   4.208
 2615SOL    MW410589   3.588   3.521   4.168
 2616SOL     OW10590   3.824   3.645   4.257
 2616SOL    HW210591   3.896   3.588   4.232
 2616SOL    HW310592   3.750   3.614   4.206
 2616SOL    MW410593   3.824   3.633   4.247
 2617SOL     OW10594   3.866   3.901   4.157
 2617SOL    HW210595   3.786   3.947   4.181
 2617SOL    HW310596   3.849   3.809   4.179
 2617SOL    MW410597   3.853   3.895   4.163
 2618SOL     OW10598   3.648   4.030   4.243
 2618SOL    HW210599   3.618   4.040   4.333
 2618SOL    HW310600   3.568   4.007   4.194
 2618SOL    MW410601   3.633   4.028   4.248
 2619SOL     OW10602   3.608   4.285   4.142
 2619SOL    HW210603   3.672   4.341   4.187
 2619SOL    HW310604   3.631   4.196   4.169
 2619SOL    MW410605   3.619   4.281   4.151
 2620SOL     OW10606   3.848   4.417   4.252
 2620SOL    HW210607   3.923   4.361   4.228
 2620SOL    HW310608   3.868   4.502   4.213
 2620SOL    MW410609   3.861   4.420   4.244
 2621SOL     OW10610   4.317   0.015   4.172
 2621SOL    HW210611   4.330  -0.078   4.193
 2621SOL    HW310612   4.390   0.059   4.216
 2621SOL    MW410613   4.329   0.009   4.181
 2622SOL     OW10614   4.090   0.109   4.285
 2622SOL    HW210615   4.097   0.199   4.256
 2622SOL    HW310616   4.161   0.063   4.240
 2622SOL    MW410617   4.100   0.115   4.276
 2623SOL     OW10618   4.085   0.375   4.176
 2623SOL    HW210619   4.150   0.431   4.219
 2623SOL    HW310620   4.001   0.412   4.202
 2623SOL    MW410621   4.083   0.388   4.185
 2624SOL     OW10622   4.286   0.535   4.298
 2624SOL    HW210623   4.297   0.619   4.254
 2624SOL    HW310624   4.362   0.483   4.271
 2624SOL    MW410625   4.298   0.539   4.289
 2625SOL     OW10626   4.290   0.788   4.168
 2625SOL    HW210627   4.200   0.801   4.198
 2625SOL    HW310628   4.281   0.761   4.077
 2625SOL    MW410629   4.277   0.786   4.160
 2626SOL     OW10630   4.022   0.860   4.226
 2626SOL    HW210631   4.004   0.950   4.198
 2626SOL    HW310632   3.950   0.809   4.189
 2626SOL    MW410633   4.010   0.865   4.217
 2627SOL     OW10634   4.014   1.126   4.155
 2627SOL    HW210635   4.094   1.174   4.176
 2627SOL    HW310636   3.943   1.182   4.187
 2627SOL    MW410637   4.015   1.140   4.162
 2628SOL     OW10638   4.283   1.261   4.192
 2628SOL    HW210639   4.269   1.249   4.286
 2628SOL    HW310640   4.366   1.216   4.175
 2628SOL    MW410641   4.292   1.254   4.202
 2629SOL     OW10642   4.285   1.536   4.131
 2629SOL    HW210643   4.282   1.445   4.158
 2629SOL    HW310644   4.266   1.534   4.038
 2629SOL    MW410645   4.282   1.524   4.123
 2630SOL     OW10646   4.112   1.726   4.227
 2630SOL    HW210647   4.126   1.718   4.321
 2630SOL    HW310648   4.176   1.667   4.187
 2630SOL    MW410649   4.122   1.717   4.234
 2631SOL     OW10650   4.024   1.974   4.141
 2631SOL    HW210651   4.052   1.883   4.152
 2631SOL    HW310652   3.973   1.993   4.220
 2631SOL    MW410653   4.021   1.965   4.153
 2632SOL     OW10654   4.465   1.954   4.106
 2632SOL    HW210655   4.551   1.987   4.134
 2632SOL    HW310656   4.402   2.011   4.149
 2632SOL    MW410657   4.468   1.966   4.115
 2633SOL     OW10658   4.238   2.353   4.130
 2633SOL    HW210659   4.160   2.391   4.170
 2633SOL    HW310660   4.241   2.263   4.162
 2633SOL    MW410661   4.228   2.346   4.139
 2634SOL     OW10662   4.023   2.449   4.285
 2634SOL    HW210663   4.038   2.399   4.365
 2634SOL    HW310664   3.944   2.409   4.247
 2634SOL    MW410665   4.014   2.437   4.290
 2635SOL     OW10666   4.061   2.723   4.177
 2635SOL    HW210667   4.050   2.638   4.220
 2635SOL    HW310668   3.979   2.770   4.195
 2635SOL    MW410669   4.049   2.718   4.185
 2636SOL     OW10670   4.277   2.856   4.251
 2636SOL    HW210671   4.197   2.816   4.218
 2636SOL    HW310672   4.347   2.802   4.215
 2636SOL    MW410673   4.276   2.844   4.242
 2637SOL     OW10674   4.246   3.125   4.164
 2637SOL    HW210675   4.262   3.036   4.195
 2637SOL    HW310676   4.254   3.119   4.068
 2637SOL    MW410677   4.249   3.112   4.155
 2638SOL     OW10678   4.016   3.233   4.271
 2638SOL    HW210679   4.092   3.196   4.226
 2638SOL    HW310680   3.940   3.191   4.230
 2638SOL    MW410681   4.016   3.222   4.260
 2639SOL     OW10682   4.063   3.520   4.169
 2639SOL    HW210683   4.043   3.435   4.209
 2639SOL    HW310684   4.057   3.504   4.075
 2639SOL    MW410685   4.060   3.506   4.162
 2640SOL     OW10686   4.300   3.614   4.284
 2640SOL    HW210687   4.290   3.707   4.264
 2640SOL    HW310688   4.224   3.572   4.244
 2640SOL    MW410689   4.289   3.620   4.276
 2641SOL     OW10690   4.312   3.887   4.197
 2641SOL    HW210691   4.242   3.943   4.230
 2641SOL    HW310692   4.299   3.884   4.103
 2641SOL    MW410693   4.301   3.894   4.189
 2642SOL     OW10694   4.097   4.041   4.259
 2642SOL    HW210695   4.089   4.042   4.354
 2642SOL    HW310696   4.027   3.983   4.229
 2642SOL    MW410697   4.087   4.033   4.268
 2643SOL     OW10698   4.077   4.296   4.132
 2643SOL    HW210699   4.156   4.334   4.171
 2643SOL    HW310700   4.078   4.204   4.161
 2643SOL    MW410701   4.088   4.289   4.141
 2644SOL     OW10702   4.232   4.627   4.655
 2644SOL    HW210703   4.283   4.702   4.625
 2644SOL    HW310704   4.141   4.654   4.643
 2644SOL    MW410705   4.226   4.640   4.649
 2645SOL     OW10706   0.077   0.207   4.531
 2645SOL    HW210707   0.095   0.295   4.564
 2645SOL    HW310708  -0.018   0.201   4.529
 2645SOL    MW410709   0.067   0.217   4.535
 2646SOL     OW10710   4.302   4.401   4.520
 2646SOL    HW210711   4.242   4.337   4.559
 2646SOL    HW310712   4.278   4.484   4.561
 2646SOL    MW410713   4.291   4.403   4.531
 2647SOL     OW10714   3.981   0.105   4.564
 2647SOL    HW210715   3.980   0.087   4.470
 2647SOL    HW310716   3.889   0.101   4.589
 2647SOL    MW410717   3.969   0.102   4.555
 2648SOL     OW10718   4.186   1.195   4.784
 2648SOL    HW210719   4.272   1.167   4.814
 2648SOL    HW310720   4.185   1.290   4.799
 2648SOL    MW410721   4.197   1.204   4.790
 2649SOL     OW10722   0.324   0.010   4.517
 2649SOL    HW210723   0.239   0.043   4.546
 2649SOL    HW310724   0.312  -0.084   4.511
 2649SOL    MW410725   0.311   0.002   4.520
 2650SOL     OW10726   0.644   0.821   4.616
 2650SOL    HW210727   0.652   0.727   4.597
 2650SOL    HW310728   0.551   0.840   4.601
 2650SOL    MW410729   0.633   0.811   4.612
 2651SOL     OW10730   4.361   0.853   4.586
 2651SOL    HW210731   4.345   0.758   4.589
 2651SOL    HW310732   4.412   0.866   4.507
 2651SOL    MW410733   4.365   0.842   4.576
 2652SOL     OW10734   0.457   1.394   4.522
 2652SOL    HW210735   0.417   1.309   4.540
 2652SOL    HW310736   0.418   1.453   4.588
 2652SOL    MW410737   0.447   1.391   4.533
 2653SOL     OW10738   0.656   2.032   4.565
 2653SOL    HW210739   0.724   1.969   4.590
 2653SOL    HW310740   0.574   1.987   4.582
 2653SOL    MW410741   0.654   2.018   4.571
 2654SOL     OW10742   4.259   1.242   4.466
 2654SOL    HW210743   4.230   1.152   4.482
 2654SOL    HW310744   4.352   1.242   4.490
 2654SOL    MW410745   4.267   1.230   4.471
 2655SOL     OW10746   0.187   1.943   4.497
 2655SOL    HW210747   0.118   1.880   4.517
 2655SOL    HW310748   0.154   2.026   4.531
 2655SOL    MW410749   0.174   1.946   4.504
 2656SOL     OW10750   0.539   1.626   4.384
 2656SOL    HW210751   0.501   1.544   4.417
 2656SOL    HW310752   0.595   1.599   4.312
 2656SOL    MW410753   0.541   1.612   4.379
 2657SOL     OW10754   0.069   2.187   4.612
 2657SOL    HW210755   0.103   2.174   4.701
 2657SOL    HW310756   0.098   2.275   4.588
 2657SOL    MW410757   0.077   2.197   4.621
 2658SOL     OW10758   4.132   2.318   4.765
 2658SOL    HW210759   4.154   2.410   4.779
 2658SOL    HW310760   4.199   2.286   4.705
 2658SOL    MW410761   4.143   2.326   4.759
 2659SOL     OW10762   0.484   2.702   4.528
 2659SOL    HW210763   0.447   2.731   4.445
 2659SOL    HW310764   0.492   2.607   4.518
 2659SOL    MW410765   0.480   2.693   4.516
 2660SOL     OW10766   0.390   2.925   4.667
 2660SOL    HW210767   0.435   2.850   4.629
 2660SOL    HW310768   0.299   2.914   4.640
 2660SOL    MW410769   0.384   2.914   4.658
 2661SOL     OW10770   4.279   2.459   4.472
 2661SOL    HW210771   4.348   2.514   4.510
 2661SOL    HW310772   4.198   2.491   4.512
 2661SOL    MW410773   4.277   2.470   4.482
 2662SOL     OW10774   4.339   3.351   4.658
 2662SOL    HW210775   4.401   3.286   4.626
 2662SOL    HW310776   4.254   3.322   4.623
 2662SOL    MW410777   4.336   3.338   4.649
 2663SOL     OW10778   0.069   3.179   4.522
 2663SOL    HW210779   0.040   3.154   4.434
 2663SOL    HW310780   0.130   3.252   4.508
 2663SOL    MW410781   0.073   3.185   4.509
 2664SOL     OW10782   4.335   3.850   4.608
 2664SOL    HW210783   4.251   3.877   4.571
 2664SOL    HW310784   4.339   3.755   4.593
 2664SOL    MW410785   4.324   3.841   4.601
 2665SOL     OW10786   4.302   0.194   4.522
 2665SOL    HW210787   4.255   0.244   4.589
 2665SOL    HW310788   4.237   0.177   4.454
 2665SOL    MW410789   4.287   0.199   4.521
 2666SOL     OW10790   3.850   0.506   4.557
 2666SOL    HW210791   3.759   0.475   4.564
 2666SOL    HW310792   3.844   0.601   4.573
 2666SOL    MW410793   3.837   0.515   4.560
 2667SOL     OW10794   4.021   3.553   4.779
 2667SOL    HW210795   4.109   3.590   4.791
 2667SOL    HW310796   3.997   3.520   4.865
 2667SOL    MW410797   4.029   3.554   4.792
 2668SOL     OW10798   3.863   4.252   4.628
 2668SOL    HW210799   3.801   4.322   4.608
 2668SOL    HW310800   3.809   4.181   4.664
 2668SOL    MW410801   3.848   4.252   4.630
 2669SOL     OW10802   0.543   0.021   4.671
 2669SOL    HW210803   0.466   0.016   4.615
 2669SOL    HW310804   0.537  -0.054   4.729
 2669SOL    MW410805   0.532   0.011   4.671
 2670SOL     OW10806   4.463   1.066   4.786
 2670SOL    HW210807   4.414   0.996   4.743
 2670SOL    HW310808   4.538   1.022   4.826
 2670SOL    MW410809   4.466   1.051   4.786
 2671SOL     OW10810   1.427   1.099   4.785
 2671SOL    HW210811   1.424   1.072   4.877
 2671SOL    HW310812   1.360   1.046   4.742
 2671SOL    MW410813   1.418   1.088   4.791
 2672SOL     OW10814   0.715   0.282   4.697
 2672SOL    HW210815   0.788   0.238   4.654
 2672SOL    HW310816   0.643   0.219   4.694
 2672SOL    MW410817   0.715   0.268   4.691
 2673SOL     OW10818   1.217   0.969   4.658
 2673SOL    HW210819   1.275   0.916   4.604
 2673SOL    HW310820   1.130   0.931   4.645
 2673SOL    MW410821   1.213   0.957   4.649
 2674SOL     OW10822   0.374   0.918   4.544
 2674SOL    HW210823   0.336   0.832   4.563
 2674SOL    HW310824   0.411   0.909   4.456
 2674SOL    MW410825   0.374   0.905   4.535
 2675SOL     OW10826   2.107   1.172   4.523
 2675SOL    HW210827   2.091   1.206   4.435
 2675SOL    HW310828   2.175   1.230   4.558
 2675SOL    MW410829   2.114   1.184   4.516
 2676SOL     OW10830   0.783   1.641   4.515
 2676SOL    HW210831   0.797   1.718   4.570
 2676SOL    HW310832   0.690   1.643   4.493
 2676SOL    MW410833   0.773   1.652   4.519
 2677SOL     OW10834   1.282   1.328   4.637
 2677SOL    HW210835   1.322   1.257   4.687
 2677SOL    HW310836   1.188   1.310   4.641
 2677SOL    MW410837   1.275   1.316   4.644
 2678SOL     OW10838   0.894   1.862   4.662
 2678SOL    HW210839   0.955   1.909   4.605
 2678SOL    HW310840   0.951   1.816   4.724
 2678SOL    MW410841   0.910   1.862   4.662
 2679SOL     OW10842   0.694   2.323   4.513
 2679SOL    HW210843   0.778   2.363   4.535
 2679SOL    HW310844   0.703   2.232   4.541
 2679SOL    MW410845   0.707   2.316   4.519
 2680SOL     OW10846   1.095   1.693   4.823
 2680SOL    HW210847   1.095   1.661   4.913
 2680SOL    HW310848   1.181   1.667   4.788
 2680SOL    MW410849   1.106   1.685   4.830
 2681SOL     OW10850   0.149   2.417   4.490
 2681SOL    HW210851   0.116   2.428   4.401
 2681SOL    HW310852   0.244   2.419   4.481
 2681SOL    MW410853   0.157   2.419   4.477
 2682SOL     OW10854   1.080   2.686   4.561
 2682SOL    HW210855   1.087   2.777   4.532
 2682SOL    HW310856   1.149   2.676   4.627
 2682SOL    MW410857   1.090   2.696   4.566
 2683SOL     OW10858   0.430   2.420   4.452
 2683SOL    HW210859   0.514   2.383   4.480
 2683SOL    HW310860   0.441   2.433   4.358
 2683SOL    MW410861   0.443   2.417   4.443
 2684SOL     OW10862   1.376   2.938   4.603
 2684SOL    HW210863   1.295   2.943   4.552
 2684SOL    HW310864   1.364   2.863   4.660
 2684SOL    MW410865   1.363   2.929   4.604
 2685SOL     OW10866   0.626   3.133   4.615
 2685SOL    HW210867   0.584   3.213   4.582
 2685SOL    HW310868   0.553   3.078   4.644
 2685SOL    MW410869   0.611   3.137   4.614
 2686SOL     OW10870   1.303   4.484   4.634
 2686SOL    HW210871   1.231   4.434   4.596
 2686SOL    HW310872   1.382   4.435   4.609
 2686SOL    MW410873   1.304   4.471   4.626
 2687SOL     OW10874   4.474   2.643   4.580
 2687SOL    HW210875   4.547   2.584   4.563
 2687SOL    HW310876   4.511   2.731   4.575
 2687SOL    MW410877   4.488   2.647   4.577
 2688SOL     OW10878   4.440   3.589   4.537
 2688SOL    HW210879   4.400   3.517   4.585
 2688SOL    HW310880   4.409   3.579   4.447
 2688SOL    MW410881   4.431   3.578   4.531
 2689SOL     OW10882   0.775   4.352   4.532
 2689SOL    HW210883   0.774   4.436   4.579
 2689SOL    HW310884   0.715   4.365   4.459
 2689SOL    MW410885   0.767   4.365   4.529
 2690SOL     OW10886   0.060   4.300   4.520
 2690SOL    HW210887   0.048   4.205   4.528
 2690SOL    HW310888  -0.029   4.335   4.526
 2690SOL    MW410889   0.046   4.292   4.522
 2691SOL     OW10890   0.067   4.013   4.534
 2691SOL    HW210891   0.135   3.946   4.543
 2691SOL    HW310892  -0.013   3.971   4.566
 2691SOL    MW410893   0.066   3.999   4.540
 2692SOL     OW10894   0.313   4.412   4.541
 2692SOL    HW210895   0.375   4.339   4.546
 2692SOL    HW310896   0.227   4.371   4.548
 2692SOL    MW410897   0.310   4.397   4.542
 2693SOL     OW10898   1.209   0.253   4.616
 2693SOL    HW210899   1.207   0.273   4.710
 2693SOL    HW310900   1.124   0.213   4.598
 2693SOL    MW410901   1.197   0.250   4.626
 2694SOL     OW10902   0.961   0.159   4.573
 2694SOL    HW210903   0.968   0.164   4.478
 2694SOL    HW310904   0.909   0.080   4.589
 2694SOL    MW410905   0.955   0.149   4.563
 2695SOL     OW10906   0.681   0.537   4.579
 2695SOL    HW210907   0.680   0.503   4.489
 2695SOL    HW310908   0.695   0.459   4.633
 2695SOL    MW410909   0.683   0.522   4.574
 2696SOL     OW10910   1.646   1.122   4.611
 2696SOL    HW210911   1.587   1.101   4.684
 2696SOL    HW310912   1.725   1.156   4.653
 2696SOL    MW410913   1.649   1.124   4.626
 2697SOL     OW10914   1.766   0.860   4.568
 2697SOL    HW210915   1.716   0.941   4.575
 2697SOL    HW310916   1.802   0.861   4.479
 2697SOL    MW410917   1.764   0.871   4.558
 2698SOL     OW10918   0.293   1.173   4.544
 2698SOL    HW210919   0.313   1.079   4.537
 2698SOL    HW310920   0.200   1.179   4.525
 2698SOL    MW410921   0.284   1.161   4.541
 2699SOL     OW10922   0.754   1.361   4.546
 2699SOL    HW210923   0.771   1.455   4.532
 2699SOL    HW310924   0.662   1.357   4.570
 2699SOL    MW410925   0.744   1.373   4.547
 2700SOL     OW10926   0.919   0.894   4.583
 2700SOL    HW210927   0.824   0.895   4.593
 2700SOL    HW310928   0.934   0.903   4.489
 2700SOL    MW410929   0.909   0.895   4.572
 2701SOL     OW10930   1.904   1.207   4.717
 2701SOL    HW210931   1.935   1.141   4.780
 2701SOL    HW310932   1.957   1.193   4.639
 2701SOL    MW410933   1.915   1.196   4.715
 2702SOL     OW10934   1.015   1.241   4.554
 2702SOL    HW210935   1.010   1.163   4.609
 2702SOL    HW310936   0.924   1.270   4.546
 2702SOL    MW410937   1.002   1.235   4.560
 2703SOL     OW10938   1.206   2.292   4.539
 2703SOL    HW210939   1.139   2.353   4.507
 2703SOL    HW310940   1.289   2.337   4.522
 2703SOL    MW410941   1.208   2.306   4.532
 2704SOL     OW10942   1.307   2.670   4.703
 2704SOL    HW210943   1.321   2.596   4.645
 2704SOL    HW310944   1.350   2.645   4.785
 2704SOL    MW410945   1.314   2.657   4.707
 2705SOL     OW10946   1.637   2.874   4.510
 2705SOL    HW210947   1.561   2.911   4.554
 2705SOL    HW310948   1.690   2.950   4.484
 2705SOL    MW410949   1.634   2.888   4.512
 2706SOL     OW10950   1.495   3.483   4.484
 2706SOL    HW210951   1.579   3.506   4.521
 2706SOL    HW310952   1.483   3.391   4.507
 2706SOL    MW410953   1.504   3.474   4.492
 2707SOL     OW10954   0.756   2.784   4.507
 2707SOL    HW210955   0.818   2.720   4.541
 2707SOL    HW310956   0.676   2.770   4.557
 2707SOL    MW410957   0.753   2.774   4.518
 2708SOL     OW10958   0.583   3.941   4.516
 2708SOL    HW210959   0.673   3.975   4.506
 2708SOL    HW310960   0.543   3.955   4.430
 2708SOL    MW410961   0.590   3.948   4.503
 2709SOL     OW10962   1.133   2.951   4.478
 2709SOL    HW210963   1.126   2.922   4.387
 2709SOL    HW310964   1.049   2.991   4.498
 2709SOL    MW410965   1.121   2.952   4.469
 2710SOL     OW10966   0.859   3.049   4.493
 2710SOL    HW210967   0.785   3.105   4.517
 2710SOL    HW310968   0.821   2.961   4.486
 2710SOL    MW410969   0.844   3.044   4.495
 2711SOL     OW10970   1.746   3.584   4.568
 2711SOL    HW210971   1.758   3.678   4.582
 2711SOL    HW310972   1.833   3.551   4.544
 2711SOL    MW410973   1.759   3.592   4.567
 2712SOL     OW10974   0.497   3.353   4.506
 2712SOL    HW210975   0.539   3.432   4.539
 2712SOL    HW310976   0.404   3.372   4.509
 2712SOL    MW410977   0.491   3.366   4.511
 2713SOL     OW10978   0.509   4.213   4.583
 2713SOL    HW210979   0.597   4.249   4.590
 2713SOL    HW310980   0.521   4.119   4.585
 2713SOL    MW410981   0.522   4.206   4.584
 2714SOL     OW10982   0.841   4.082   4.529
 2714SOL    HW210983   0.834   4.178   4.531
 2714SOL    HW310984   0.866   4.062   4.439
 2714SOL    MW410985   0.844   4.092   4.517
 2715SOL     OW10986   0.773   4.622   4.537
 2715SOL    HW210987   0.694   4.654   4.580
 2715SOL    HW310988   0.758   4.636   4.444
 2715SOL    MW410989   0.761   4.628   4.530
 2716SOL     OW10990   1.590   4.163   4.878
 2716SOL    HW210991   1.575   4.103   4.951
 2716SOL    HW310992   1.514   4.221   4.879
 2716SOL    MW410993   1.578   4.163   4.887
 2717SOL     OW10994   1.554   4.390   4.549
 2717SOL    HW210995   1.638   4.431   4.566
 2717SOL    HW310996   1.542   4.398   4.454
 2717SOL    MW410997   1.563   4.396   4.539
 2718SOL     OW10998   1.067   4.354   4.539
 2718SOL    HW210999   1.094   4.269   4.574
 2718SOL    HW311000   0.972   4.354   4.549
 2718SOL    MW411001   1.058   4.342   4.545
 2719SOL     OW11002   1.200   0.509   4.483
 2719SOL    HW211003   1.120   0.545   4.520
 2719SOL    HW311004   1.207   0.421   4.522
 2719SOL    MW411005   1.191   0.502   4.493
 2720SOL     OW11006   1.680   0.111   4.536
 2720SOL    HW211007   1.588   0.083   4.541
 2720SOL    HW311008   1.727   0.046   4.589
 2720SOL    MW411009   1.674   0.099   4.544
 2721SOL     OW11010   1.343   0.764   4.520
 2721SOL    HW211011   1.288   0.686   4.517
 2721SOL    HW311012   1.340   0.800   4.432
 2721SOL    MW411013   1.336   0.758   4.508
 2722SOL     OW11014   1.851   1.515   4.769
 2722SOL    HW211015   1.870   1.422   4.759
 2722SOL    HW311016   1.859   1.532   4.863
 2722SOL    MW411017   1.855   1.505   4.780
 2723SOL     OW11018   0.956   0.623   4.572
 2723SOL    HW211019   0.946   0.718   4.580
 2723SOL    HW311020   0.868   0.588   4.586
 2723SOL    MW411021   0.943   0.631   4.575
 2724SOL     OW11022   2.066   0.504   4.532
 2724SOL    HW211023   2.125   0.431   4.551
 2724SOL    HW311024   1.979   0.468   4.546
 2724SOL    MW411025   2.063   0.489   4.536
 2725SOL     OW11026   1.520   1.369   4.522
 2725SOL    HW211027   1.428   1.369   4.550
 2725SOL    HW311028   1.553   1.283   4.547
 2725SOL    MW411029   1.512   1.358   4.529
 2726SOL     OW11030   1.315   1.834   4.519
 2726SOL    HW211031   1.311   1.759   4.578
 2726SOL    HW311032   1.333   1.796   4.433
 2726SOL    MW411033   1.317   1.819   4.516
 2727SOL     OW11034   1.683   2.455   4.501
 2727SOL    HW211035   1.737   2.521   4.543
 2727SOL    HW311036   1.731   2.373   4.512
 2727SOL    MW411037   1.696   2.453   4.508
 2728SOL     OW11038   1.978   2.363   4.619
 2728SOL    HW211039   1.918   2.289   4.609
 2728SOL    HW311040   1.927   2.430   4.665
 2728SOL    MW411041   1.964   2.362   4.624
 2729SOL     OW11042   0.972   2.445   4.496
 2729SOL    HW211043   0.998   2.533   4.523
 2729SOL    HW311044   0.936   2.457   4.407
 2729SOL    MW411045   0.970   2.458   4.487
 2730SOL     OW11046   1.349   3.997   4.470
 2730SOL    HW211047   1.356   3.901   4.464
 2730SOL    HW311048   1.430   4.024   4.513
 2730SOL    MW411049   1.361   3.988   4.475
 2731SOL     OW11050   1.403   2.475   4.517
 2731SOL    HW211051   1.363   2.471   4.430
 2731SOL    HW311052   1.494   2.451   4.503
 2731SOL    MW411053   1.410   2.471   4.504
 2732SOL     OW11054   1.834   2.686   4.558
 2732SOL    HW211055   1.766   2.752   4.546
 2732SOL    HW311056   1.916   2.735   4.552
 2732SOL    MW411057   1.836   2.701   4.556
 2733SOL     OW11058   1.454   3.190   4.496
 2733SOL    HW211059   1.537   3.143   4.489
 2733SOL    HW311060   1.391   3.125   4.527
 2733SOL    MW411061   1.456   3.175   4.499
 2734SOL     OW11062   1.357   3.729   4.469
 2734SOL    HW211063   1.412   3.660   4.505
 2734SOL    HW311064   1.295   3.683   4.412
 2734SOL    MW411065   1.356   3.714   4.466
 2735SOL     OW11066   0.622   3.623   4.535
 2735SOL    HW211067   0.571   3.704   4.535
 2735SOL    HW311068   0.687   3.635   4.605
 2735SOL    MW411069   0.624   3.635   4.545
 2736SOL     OW11070   2.063   3.527   4.464
 2736SOL    HW211071   2.076   3.557   4.374
 2736SOL    HW311072   2.079   3.433   4.460
 2736SOL    MW411073   2.067   3.518   4.451
 2737SOL     OW11074   1.751   3.118   4.472
 2737SOL    HW211075   1.828   3.136   4.526
 2737SOL    HW311076   1.765   3.171   4.393
 2737SOL    MW411077   1.763   3.127   4.468
 2738SOL     OW11078   2.247   3.616   4.682
 2738SOL    HW211079   2.218   3.707   4.689
 2738SOL    HW311080   2.199   3.581   4.608
 2738SOL    MW411081   2.237   3.623   4.673
 2739SOL     OW11082   1.149   4.111   4.627
 2739SOL    HW211083   1.076   4.054   4.602
 2739SOL    HW311084   1.227   4.067   4.592
 2739SOL    MW411085   1.150   4.097   4.620
 2740SOL     OW11086   1.799   4.367   4.853
 2740SOL    HW211087   1.883   4.322   4.861
 2740SOL    HW311088   1.737   4.297   4.831
 2740SOL    MW411089   1.802   4.352   4.851
 2741SOL     OW11090   2.267   0.370   4.658
 2741SOL    HW211091   2.322   0.444   4.634
 2741SOL    HW311092   2.266   0.371   4.754
 2741SOL    MW411093   2.274   0.380   4.667
 2742SOL     OW11094   1.399   0.065   4.538
 2742SOL    HW211095   1.360   0.141   4.581
 2742SOL    HW311096   1.359  -0.011   4.582
 2742SOL    MW411097   1.388   0.065   4.549
 2743SOL     OW11098   1.803   0.406   4.559
 2743SOL    HW211099   1.763   0.320   4.556
 2743SOL    HW311100   1.729   0.467   4.560
 2743SOL    MW411101   1.788   0.403   4.559
 2744SOL     OW11102   2.337   0.127   4.527
 2744SOL    HW211103   2.307   0.140   4.437
 2744SOL    HW311104   2.289   0.192   4.578
 2744SOL    MW411105   2.326   0.137   4.522
 2745SOL     OW11106   2.031   0.779   4.662
 2745SOL    HW211107   2.046   0.685   4.654
 2745SOL    HW311108   1.942   0.792   4.629
 2745SOL    MW411109   2.021   0.769   4.657
 2746SOL     OW11110   1.596   0.613   4.548
 2746SOL    HW211111   1.646   0.688   4.579
 2746SOL    HW311112   1.506   0.645   4.540
 2746SOL    MW411113   1.591   0.627   4.551
 2747SOL     OW11114   2.129   1.530   4.664
 2747SOL    HW211115   2.182   1.468   4.714
 2747SOL    HW311116   2.042   1.526   4.705
 2747SOL    MW411117   2.124   1.521   4.676
 2748SOL     OW11118   1.093   2.016   4.498
 2748SOL    HW211119   1.172   1.966   4.520
 2748SOL    HW311120   1.103   2.098   4.546
 2748SOL    MW411121   1.105   2.020   4.507
 2749SOL     OW11122   1.607   1.598   4.660
 2749SOL    HW211123   1.576   1.518   4.617
 2749SOL    HW311124   1.692   1.574   4.696
 2749SOL    MW411125   1.614   1.584   4.659
 2750SOL     OW11126   1.574   1.956   4.449
 2750SOL    HW211127   1.486   1.928   4.474
 2750SOL    HW311128   1.631   1.884   4.476
 2750SOL    MW411129   1.570   1.943   4.456
 2751SOL     OW11130   1.781   1.782   4.530
 2751SOL    HW211131   1.725   1.725   4.583
 2751SOL    HW311132   1.795   1.733   4.449
 2751SOL    MW411133   1.775   1.768   4.526
 2752SOL     OW11134   1.983   1.993   4.505
 2752SOL    HW211135   1.927   1.916   4.499
 2752SOL    HW311136   2.010   2.010   4.414
 2752SOL    MW411137   1.980   1.985   4.492
 2753SOL     OW11138   1.778   2.177   4.530
 2753SOL    HW211139   1.706   2.121   4.504
 2753SOL    HW311140   1.857   2.128   4.505
 2753SOL    MW411141   1.779   2.163   4.523
 2754SOL     OW11142   2.219   2.454   4.526
 2754SOL    HW211143   2.139   2.412   4.558
 2754SOL    HW311144   2.208   2.456   4.431
 2754SOL    MW411145   2.207   2.449   4.518
 2755SOL     OW11146   2.271   2.712   4.624
 2755SOL    HW211147   2.336   2.686   4.689
 2755SOL    HW311148   2.234   2.629   4.592
 2755SOL    MW411149   2.274   2.698   4.628
 2756SOL     OW11150   1.576   4.112   4.589
 2756SOL    HW211151   1.564   4.200   4.553
 2756SOL    HW311152   1.592   4.127   4.683
 2756SOL    MW411153   1.577   4.126   4.597
 2757SOL     OW11154   2.156   3.269   4.415
 2757SOL    HW211155   2.183   3.262   4.323
 2757SOL    HW311156   2.229   3.233   4.465
 2757SOL    MW411157   2.169   3.263   4.409
 2758SOL     OW11158   1.994   3.173   4.608
 2758SOL    HW211159   2.011   3.226   4.686
 2758SOL    HW311160   2.049   3.212   4.540
 2758SOL    MW411161   2.003   3.185   4.609
 2759SOL     OW11162   2.479   3.694   4.516
 2759SOL    HW211163   2.402   3.689   4.572
 2759SOL    HW311164   2.509   3.785   4.524
 2759SOL    MW411165   2.473   3.706   4.524
 2760SOL     OW11166   1.954   4.057   4.597
 2760SOL    HW211167   1.884   3.991   4.602
 2760SOL    HW311168   1.937   4.102   4.514
 2760SOL    MW411169   1.942   4.054   4.587
 2761SOL     OW11170   2.206   3.914   4.642
 2761SOL    HW211171   2.127   3.957   4.609
 2761SOL    HW311172   2.278   3.953   4.593
 2761SOL    MW411173   2.205   3.925   4.631
 2762SOL     OW11174   1.743   3.870   4.547
 2762SOL    HW211175   1.671   3.930   4.566
 2762SOL    HW311176   1.751   3.870   4.452
 2762SOL    MW411177   1.735   3.878   4.537
 2763SOL     OW11178   2.049   4.257   4.803
 2763SOL    HW211179   2.143   4.269   4.792
 2763SOL    HW311180   2.031   4.170   4.766
 2763SOL    MW411181   2.059   4.247   4.797
 2764SOL     OW11182   1.793   4.532   4.617
 2764SOL    HW211183   1.862   4.477   4.580
 2764SOL    HW311184   1.795   4.512   4.711
 2764SOL    MW411185   1.803   4.522   4.625
 2765SOL     OW11186   2.031   4.385   4.551
 2765SOL    HW211187   2.043   4.338   4.633
 2765SOL    HW311188   2.111   4.436   4.540
 2765SOL    MW411189   2.043   4.386   4.561
 2766SOL     OW11190   2.277   4.492   4.495
 2766SOL    HW211191   2.337   4.477   4.422
 2766SOL    HW311192   2.263   4.587   4.494
 2766SOL    MW411193   2.283   4.503   4.485
 2767SOL     OW11194   1.318   1.602   4.679
 2767SOL    HW211195   1.412   1.597   4.696
 2767SOL    HW311196   1.297   1.517   4.640
 2767SOL    MW411197   1.327   1.590   4.676
 2768SOL     OW11198   2.649   0.138   4.504
 2768SOL    HW211199   2.560   0.153   4.537
 2768SOL    HW311200   2.640   0.144   4.409
 2768SOL    MW411201   2.636   0.141   4.496
 2769SOL     OW11202   2.474   0.861   4.635
 2769SOL    HW211203   2.399   0.884   4.579
 2769SOL    HW311204   2.551   0.886   4.583
 2769SOL    MW411205   2.474   0.868   4.621
 2770SOL     OW11206   2.937   0.766   4.548
 2770SOL    HW211207   3.004   0.832   4.530
 2770SOL    HW311208   2.972   0.685   4.512
 2770SOL    MW411209   2.950   0.764   4.541
 2771SOL     OW11210   2.276   1.295   4.695
 2771SOL    HW211211   2.293   1.210   4.735
 2771SOL    HW311212   2.355   1.315   4.645
 2771SOL    MW411213   2.288   1.286   4.693
 2772SOL     OW11214   2.479   1.328   4.514
 2772SOL    HW211215   2.552   1.268   4.529
 2772SOL    HW311216   2.512   1.413   4.540
 2772SOL    MW411217   2.493   1.331   4.519
 2773SOL     OW11218   2.563   1.578   4.579
 2773SOL    HW211219   2.629   1.645   4.558
 2773SOL    HW311220   2.482   1.627   4.589
 2773SOL    MW411221   2.561   1.594   4.577
 2774SOL     OW11222   2.307   1.727   4.559
 2774SOL    HW211223   2.278   1.815   4.583
 2774SOL    HW311224   2.242   1.668   4.598
 2774SOL    MW411225   2.295   1.731   4.568
 2775SOL     OW11226   2.233   1.984   4.636
 2775SOL    HW211227   2.143   1.971   4.608
 2775SOL    HW311228   2.231   1.976   4.731
 2775SOL    MW411229   2.221   1.981   4.645
 2776SOL     OW11230   2.466   2.134   4.524
 2776SOL    HW211231   2.382   2.101   4.555
 2776SOL    HW311232   2.531   2.077   4.565
 2776SOL    MW411233   2.464   2.123   4.534
 2777SOL     OW11234   2.038   2.901   4.537
 2777SOL    HW211235   2.008   2.975   4.590
 2777SOL    HW311236   2.116   2.869   4.582
 2777SOL    MW411237   2.044   2.907   4.550
 2778SOL     OW11238   2.358   3.152   4.596
 2778SOL    HW211239   2.432   3.199   4.557
 2778SOL    HW311240   2.339   3.199   4.677
 2778SOL    MW411241   2.365   3.164   4.601
 2779SOL     OW11242   1.335   4.288   4.826
 2779SOL    HW211243   1.331   4.368   4.773
 2779SOL    HW311244   1.267   4.232   4.789
 2779SOL    MW411245   1.326   4.291   4.814
 2780SOL     OW11246   2.685   3.941   4.505
 2780SOL    HW211247   2.597   3.976   4.518
 2780SOL    HW311248   2.714   3.979   4.422
 2780SOL    MW411249   2.677   3.951   4.496
 2781SOL     OW11250   2.173   3.355   4.843
 2781SOL    HW211251   2.136   3.351   4.931
 2781SOL    HW311252   2.211   3.443   4.836
 2781SOL    MW411253   2.173   3.366   4.853
 2782SOL     OW11254   3.348   3.966   4.866
 2782SOL    HW211255   3.313   4.055   4.877
 2782SOL    HW311256   3.307   3.916   4.937
 2782SOL    MW411257   3.338   3.971   4.877
 2783SOL     OW11258   3.077   3.963   4.505
 2783SOL    HW211259   3.013   3.891   4.507
 2783SOL    HW311260   3.154   3.927   4.548
 2783SOL    MW411261   3.078   3.949   4.511
 2784SOL     OW11262   2.415   4.064   4.545
 2784SOL    HW211263   2.378   4.132   4.601
 2784SOL    HW311264   2.373   4.077   4.460
 2784SOL    MW411265   2.405   4.074   4.541
 2785SOL     OW11266   2.328   4.299   4.693
 2785SOL    HW211267   2.316   4.352   4.615
 2785SOL    HW311268   2.393   4.346   4.745
 2785SOL    MW411269   2.335   4.312   4.690
 2786SOL     OW11270   3.057   0.489   4.455
 2786SOL    HW211271   3.040   0.496   4.361
 2786SOL    HW311272   3.149   0.511   4.464
 2786SOL    MW411273   3.067   0.493   4.443
 2787SOL     OW11274   2.899   0.018   4.577
 2787SOL    HW211275   2.964   0.079   4.541
 2787SOL    HW311276   2.816   0.067   4.572
 2787SOL    MW411277   2.896   0.033   4.571
 2788SOL     OW11278   3.058   0.216   4.490
 2788SOL    HW211279   3.058   0.312   4.490
 2788SOL    HW311280   3.128   0.192   4.551
 2788SOL    MW411281   3.067   0.225   4.498
 2789SOL     OW11282   2.708   0.948   4.507
 2789SOL    HW211283   2.772   0.882   4.534
 2789SOL    HW311284   2.703   0.939   4.412
 2789SOL    MW411285   2.715   0.938   4.498
 2790SOL     OW11286   3.577   0.675   4.772
 2790SOL    HW211287   3.659   0.709   4.738
 2790SOL    HW311288   3.578   0.582   4.750
 2790SOL    MW411289   3.588   0.667   4.765
 2791SOL     OW11290   2.226   0.913   4.479
 2791SOL    HW211291   2.187   0.996   4.505
 2791SOL    HW311292   2.175   0.847   4.526
 2791SOL    MW411293   2.214   0.915   4.489
 2792SOL     OW11294   2.767   1.207   4.557
 2792SOL    HW211295   2.843   1.238   4.508
 2792SOL    HW311296   2.757   1.116   4.529
 2792SOL    MW411297   2.776   1.199   4.547
 2793SOL     OW11298   3.005   1.339   4.455
 2793SOL    HW211299   3.000   1.429   4.488
 2793SOL    HW311300   2.986   1.347   4.362
 2793SOL    MW411301   3.002   1.352   4.447
 2794SOL     OW11302   2.968   1.586   4.574
 2794SOL    HW211303   2.908   1.654   4.545
 2794SOL    HW311304   2.917   1.533   4.636
 2794SOL    MW411305   2.954   1.588   4.578
 2795SOL     OW11306   2.763   1.778   4.517
 2795SOL    HW211307   2.735   1.853   4.569
 2795SOL    HW311308   2.744   1.802   4.427
 2795SOL    MW411309   2.757   1.791   4.512
 2796SOL     OW11310   2.719   2.030   4.652
 2796SOL    HW211311   2.721   2.046   4.747
 2796SOL    HW311312   2.792   2.082   4.618
 2796SOL    MW411313   2.729   2.039   4.660
 2797SOL     OW11314   2.897   2.195   4.503
 2797SOL    HW211315   2.858   2.279   4.480
 2797SOL    HW311316   2.910   2.151   4.418
 2797SOL    MW411317   2.894   2.200   4.488
 2798SOL     OW11318   3.009   2.981   4.661
 2798SOL    HW211319   3.078   3.040   4.630
 2798SOL    HW311320   3.041   2.893   4.641
 2798SOL    MW411321   3.022   2.977   4.654
 2799SOL     OW11322   2.602   3.256   4.550
 2799SOL    HW211323   2.644   3.190   4.605
 2799SOL    HW311324   2.640   3.244   4.463
 2799SOL    MW411325   2.612   3.246   4.546
 2800SOL     OW11326   2.756   3.070   4.730
 2800SOL    HW211327   2.845   3.060   4.694
 2800SOL    HW311328   2.769   3.122   4.810
 2800SOL    MW411329   2.770   3.076   4.736
 2801SOL     OW11330   2.867   3.738   4.513
 2801SOL    HW211331   2.790   3.795   4.508
 2801SOL    HW311332   2.838   3.663   4.566
 2801SOL    MW411333   2.853   3.735   4.519
 2802SOL     OW11334   3.320   3.894   4.604
 2802SOL    HW211335   3.371   3.814   4.593
 2802SOL    HW311336   3.336   3.922   4.694
 2802SOL    MW411337   3.329   3.887   4.615
 2803SOL     OW11338   3.896   3.839   4.672
 2803SOL    HW211339   3.904   3.778   4.745
 2803SOL    HW311340   3.857   3.787   4.602
 2803SOL    MW411341   3.892   3.824   4.673
 2804SOL     OW11342   2.708   3.515   4.614
 2804SOL    HW211343   2.631   3.568   4.596
 2804SOL    HW311344   2.677   3.425   4.605
 2804SOL    MW411345   2.694   3.510   4.611
 2805SOL     OW11346   2.911   4.148   4.644
 2805SOL    HW211347   2.837   4.090   4.662
 2805SOL    HW311348   2.981   4.090   4.614
 2805SOL    MW411349   2.910   4.133   4.642
 2806SOL     OW11350   2.974   4.417   4.523
 2806SOL    HW211351   2.925   4.347   4.566
 2806SOL    HW311352   2.929   4.497   4.550
 2806SOL    MW411353   2.962   4.419   4.532
 2807SOL     OW11354   3.345   0.527   4.461
 2807SOL    HW211355   3.381   0.541   4.374
 2807SOL    HW311356   3.347   0.614   4.501
 2807SOL    MW411357   3.350   0.541   4.455
 2808SOL     OW11358   2.452   0.582   4.595
 2808SOL    HW211359   2.539   0.549   4.575
 2808SOL    HW311360   2.465   0.676   4.608
 2808SOL    MW411361   2.465   0.590   4.594
 2809SOL     OW11362   2.338   1.044   4.798
 2809SOL    HW211363   2.385   0.989   4.735
 2809SOL    HW311364   2.275   0.986   4.839
 2809SOL    MW411365   2.336   1.029   4.795
 2810SOL     OW11366   2.684   0.425   4.460
 2810SOL    HW211367   2.692   0.329   4.468
 2810SOL    HW311368   2.772   0.457   4.480
 2810SOL    MW411369   2.697   0.416   4.464
 2811SOL     OW11370   3.395   0.777   4.590
 2811SOL    HW211371   3.467   0.813   4.539
 2811SOL    HW311372   3.437   0.734   4.665
 2811SOL    MW411373   3.410   0.776   4.593
 2812SOL     OW11374   3.447   1.283   4.508
 2812SOL    HW211375   3.372   1.265   4.566
 2812SOL    HW311376   3.519   1.233   4.546
 2812SOL    MW411377   3.446   1.274   4.521
 2813SOL     OW11378   2.773   1.435   4.721
 2813SOL    HW211379   2.697   1.473   4.676
 2813SOL    HW311380   2.795   1.357   4.669
 2813SOL    MW411381   2.766   1.430   4.708
 2814SOL     OW11382   3.960   1.030   4.682
 2814SOL    HW211383   4.000   1.081   4.752
 2814SOL    HW311384   4.032   1.013   4.621
 2814SOL    MW411385   3.975   1.035   4.683
 2815SOL     OW11386   3.465   1.556   4.632
 2815SOL    HW211387   3.394   1.600   4.586
 2815SOL    HW311388   3.468   1.468   4.593
 2815SOL    MW411389   3.456   1.550   4.621
 2816SOL     OW11390   3.244   1.676   4.497
 2816SOL    HW211391   3.252   1.769   4.517
 2816SOL    HW311392   3.169   1.646   4.549
 2816SOL    MW411393   3.235   1.684   4.507
 2817SOL     OW11394   3.271   1.965   4.520
 2817SOL    HW211395   3.226   2.044   4.550
 2817SOL    HW311396   3.286   1.980   4.427
 2817SOL    MW411397   3.267   1.977   4.512
 2818SOL     OW11398   3.708   1.852   4.682
 2818SOL    HW211399   3.670   1.916   4.622
 2818SOL    HW311400   3.639   1.835   4.746
 2818SOL    MW411401   3.694   1.858   4.683
 2819SOL     OW11402   3.519   2.530   4.475
 2819SOL    HW211403   3.432   2.510   4.511
 2819SOL    HW311404   3.536   2.620   4.503
 2819SOL    MW411405   3.509   2.539   4.483
 2820SOL     OW11406   3.620   2.803   4.541
 2820SOL    HW211407   3.660   2.888   4.523
 2820SOL    HW311408   3.693   2.748   4.569
 2820SOL    MW411409   3.635   2.807   4.542
 2821SOL     OW11410   3.220   3.127   4.533
 2821SOL    HW211411   3.270   3.048   4.512
 2821SOL    HW311412   3.193   3.161   4.448
 2821SOL    MW411413   3.223   3.121   4.519
 2822SOL     OW11414   3.363   2.894   4.478
 2822SOL    HW211415   3.355   2.875   4.384
 2822SOL    HW311416   3.449   2.862   4.502
 2822SOL    MW411417   3.373   2.887   4.469
 2823SOL     OW11418   4.052   2.594   4.543
 2823SOL    HW211419   4.030   2.592   4.450
 2823SOL    HW311420   4.095   2.678   4.556
 2823SOL    MW411421   4.055   2.604   4.533
 2824SOL     OW11422   3.654   3.249   4.532
 2824SOL    HW211423   3.705   3.327   4.553
 2824SOL    HW311424   3.621   3.265   4.443
 2824SOL    MW411425   3.656   3.261   4.523
 2825SOL     OW11426   3.510   4.082   4.469
 2825SOL    HW211427   3.575   4.078   4.539
 2825SOL    HW311428   3.437   4.028   4.500
 2825SOL    MW411429   3.509   4.075   4.483
 2826SOL     OW11430   3.219   4.215   4.766
 2826SOL    HW211431   3.232   4.309   4.763
 2826SOL    HW311432   3.125   4.204   4.778
 2826SOL    MW411433   3.209   4.226   4.767
 2827SOL     OW11434   3.234   4.457   4.629
 2827SOL    HW211435   3.300   4.415   4.573
 2827SOL    HW311436   3.151   4.442   4.584
 2827SOL    MW411437   3.232   4.450   4.616
 2828SOL     OW11438   3.436   4.353   4.476
 2828SOL    HW211439   3.453   4.259   4.473
 2828SOL    HW311440   3.523   4.393   4.477
 2828SOL    MW411441   3.450   4.346   4.476
 2829SOL     OW11442   3.690   4.034   4.681
 2829SOL    HW211443   3.759   3.969   4.670
 2829SOL    HW311444   3.628   3.994   4.742
 2829SOL    MW411445   3.691   4.020   4.688
 2830SOL     OW11446   3.499   0.141   4.719
 2830SOL    HW211447   3.534   0.128   4.808
 2830SOL    HW311448   3.406   0.117   4.727
 2830SOL    MW411449   3.491   0.136   4.732
 2831SOL     OW11450   3.176   0.909   4.491
 2831SOL    HW211451   3.188   0.993   4.537
 2831SOL    HW311452   3.236   0.849   4.535
 2831SOL    MW411453   3.186   0.913   4.503
 2832SOL     OW11454   3.206   1.160   4.619
 2832SOL    HW211455   3.212   1.161   4.715
 2832SOL    HW311456   3.144   1.230   4.598
 2832SOL    MW411457   3.199   1.169   4.629
 2833SOL     OW11458   4.113   1.440   4.602
 2833SOL    HW211459   4.159   1.373   4.552
 2833SOL    HW311460   4.020   1.424   4.583
 2833SOL    MW411461   4.107   1.429   4.593
 2834SOL     OW11462   3.728   1.164   4.576
 2834SOL    HW211463   3.767   1.251   4.579
 2834SOL    HW311464   3.800   1.105   4.600
 2834SOL    MW411465   3.743   1.167   4.579
 2835SOL     OW11466   4.126   0.962   4.486
 2835SOL    HW211467   4.197   0.914   4.529
 2835SOL    HW311468   4.104   0.908   4.409
 2835SOL    MW411469   4.133   0.948   4.481
 2836SOL     OW11470   4.292   0.563   4.577
 2836SOL    HW211471   4.223   0.511   4.619
 2836SOL    HW311472   4.282   0.545   4.484
 2836SOL    MW411473   4.282   0.554   4.570
 2837SOL     OW11474   3.669   1.651   4.494
 2837SOL    HW211475   3.712   1.713   4.553
 2837SOL    HW311476   3.589   1.626   4.541
 2837SOL    MW411477   3.664   1.656   4.508
 2838SOL     OW11478   3.978   1.854   4.631
 2838SOL    HW211479   3.889   1.851   4.667
 2838SOL    HW311480   4.027   1.910   4.692
 2838SOL    MW411481   3.973   1.861   4.644
 2839SOL     OW11482   3.541   2.038   4.556
 2839SOL    HW211483   3.577   2.063   4.471
 2839SOL    HW311484   3.462   1.988   4.535
 2839SOL    MW411485   3.535   2.035   4.542
 2840SOL     OW11486   4.164   2.041   4.750
 2840SOL    HW211487   4.146   2.132   4.774
 2840SOL    HW311488   4.224   2.048   4.675
 2840SOL    MW411489   4.170   2.054   4.743
 2841SOL     OW11490   4.452   1.727   4.491
 2841SOL    HW211491   4.478   1.714   4.400
 2841SOL    HW311492   4.357   1.717   4.490
 2841SOL    MW411493   4.443   1.724   4.479
 2842SOL     OW11494   3.967   2.292   4.517
 2842SOL    HW211495   4.008   2.320   4.598
 2842SOL    HW311496   3.873   2.303   4.532
 2842SOL    MW411497   3.960   2.297   4.530
 2843SOL     OW11498   3.789   2.609   4.640
 2843SOL    HW211499   3.756   2.520   4.631
 2843SOL    HW311500   3.879   2.605   4.605
 2843SOL    MW411501   3.797   2.597   4.634
 2844SOL     OW11502   3.775   3.013   4.469
 2844SOL    HW211503   3.855   3.013   4.522
 2844SOL    HW311504   3.738   3.100   4.480
 2844SOL    MW411505   3.781   3.024   4.478
 2845SOL     OW11506   4.010   2.993   4.622
 2845SOL    HW211507   3.988   2.964   4.711
 2845SOL    HW311508   4.082   2.937   4.596
 2845SOL    MW411509   4.016   2.982   4.631
 2846SOL     OW11510   3.371   3.392   4.598
 2846SOL    HW211511   3.301   3.327   4.589
 2846SOL    HW311512   3.451   3.340   4.606
 2846SOL    MW411513   3.372   3.377   4.598
 2847SOL     OW11514   3.882   3.424   4.576
 2847SOL    HW211515   3.932   3.463   4.647
 2847SOL    HW311516   3.945   3.369   4.530
 2847SOL    MW411517   3.897   3.422   4.579
 2848SOL     OW11518   3.470   3.668   4.547
 2848SOL    HW211519   3.437   3.586   4.583
 2848SOL    HW311520   3.565   3.659   4.550
 2848SOL    MW411521   3.478   3.656   4.552
 2849SOL     OW11522   3.745   3.663   4.527
 2849SOL    HW211523   3.751   3.682   4.434
 2849SOL    HW311524   3.797   3.584   4.540
 2849SOL    MW411525   3.753   3.655   4.517
 2850SOL     OW11526   0.101   2.895   4.550
 2850SOL    HW211527   0.082   2.988   4.546
 2850SOL    HW311528   0.136   2.873   4.464
 2850SOL    MW411529   0.103   2.904   4.538
 2851SOL     OW11530   4.104   3.971   4.533
 2851SOL    HW211531   4.123   4.046   4.590
 2851SOL    HW311532   4.034   3.924   4.579
 2851SOL    MW411533   4.097   3.975   4.547
 2852SOL     OW11534   3.714   4.446   4.500
 2852SOL    HW211535   3.786   4.444   4.437
 2852SOL    HW311536   3.702   4.538   4.521
 2852SOL    MW411537   3.722   4.458   4.494
 2853SOL     OW11538   3.229   0.056   4.683
 2853SOL    HW211539   3.236  -0.035   4.655
 2853SOL    HW311540   3.155   0.058   4.743
 2853SOL    MW411541   3.220   0.044   4.687
 2854SOL     OW11542   3.608   0.928   4.488
 2854SOL    HW211543   3.644   1.013   4.513
 2854SOL    HW311544   3.623   0.923   4.393
 2854SOL    MW411545   3.615   0.939   4.479
 2855SOL     OW11546   3.801   0.784   4.612
 2855SOL    HW211547   3.871   0.846   4.631
 2855SOL    HW311548   3.731   0.836   4.572
 2855SOL    MW411549   3.801   0.799   4.609
 2856SOL     OW11550   0.099   0.496   4.585
 2856SOL    HW211551   0.006   0.517   4.592
 2856SOL    HW311552   0.118   0.501   4.491
 2856SOL    MW411553   0.089   0.500   4.573
 2857SOL     OW11554   0.325   0.652   4.616
 2857SOL    HW211555   0.394   0.613   4.670
 2857SOL    HW311556   0.254   0.588   4.618
 2857SOL    MW411557   0.325   0.638   4.624
 2858SOL     OW11558   4.092   0.360   4.622
 2858SOL    HW211559   4.053   0.276   4.597
 2858SOL    HW311560   4.022   0.424   4.609
 2858SOL    MW411561   4.078   0.357   4.617
 2859SOL     OW11562   3.847   1.409   4.534
 2859SOL    HW211563   3.850   1.397   4.439
 2859SOL    HW311564   3.790   1.485   4.547
 2859SOL    MW411565   3.840   1.417   4.523
 2860SOL     OW11566   0.027   1.239   4.534
 2860SOL    HW211567   0.029   1.334   4.546
 2860SOL    HW311568   0.011   1.205   4.622
 2860SOL    MW411569   0.025   1.247   4.547
 2861SOL     OW11570   0.336   1.598   4.699
 2861SOL    HW211571   0.319   1.617   4.791
 2861SOL    HW311572   0.387   1.673   4.667
 2861SOL    MW411573   0.341   1.610   4.707
 2862SOL     OW11574   4.176   1.687   4.507
 2862SOL    HW211575   4.156   1.598   4.538
 2862SOL    HW311576   4.114   1.743   4.553
 2862SOL    MW411577   4.166   1.682   4.517
 2863SOL     OW11578   4.254   2.097   4.237
 2863SOL    HW211579   4.168   2.061   4.219
 2863SOL    HW311580   4.267   2.083   4.331
 2863SOL    MW411581   4.245   2.090   4.247
 2864SOL     OW11582   4.296   2.201   4.541
 2864SOL    HW211583   4.377   2.199   4.592
 2864SOL    HW311584   4.295   2.288   4.500
 2864SOL    MW411585   4.307   2.212   4.542
 2865SOL     OW11586   3.939   2.024   4.413
 2865SOL    HW211587   3.958   1.976   4.493
 2865SOL    HW311588   3.957   2.116   4.435
 2865SOL    MW411589   3.944   2.030   4.426
 2866SOL     OW11590   3.691   2.322   4.560
 2866SOL    HW211591   3.628   2.377   4.513
 2866SOL    HW311592   3.642   2.242   4.580
 2866SOL    MW411593   3.676   2.319   4.556
 2867SOL     OW11594   4.320   2.544   4.797
 2867SOL    HW211595   4.380   2.576   4.730
 2867SOL    HW311596   4.376   2.528   4.874
 2867SOL    MW411597   4.336   2.546   4.799
 2868SOL     OW11598   4.231   2.847   4.521
 2868SOL    HW211599   4.313   2.840   4.570
 2868SOL    HW311600   4.258   2.855   4.430
 2868SOL    MW411601   4.245   2.847   4.516
 2869SOL     OW11602   4.093   3.250   4.540
 2869SOL    HW211603   4.080   3.244   4.445
 2869SOL    HW311604   4.043   3.176   4.575
 2869SOL    MW411605   4.085   3.239   4.532
 2870SOL     OW11606   0.211   3.439   4.471
 2870SOL    HW211607   0.217   3.489   4.390
 2870SOL    HW311608   0.128   3.466   4.510
 2870SOL    MW411609   0.201   3.449   4.466
 2871SOL     OW11610   4.127   4.223   4.653
 2871SOL    HW211611   4.151   4.240   4.744
 2871SOL    HW311612   4.036   4.254   4.645
 2871SOL    MW411613   4.118   4.230   4.664
 2872SOL     OW11614   3.680   0.064   4.531
 2872SOL    HW211615   3.608   0.099   4.584
 2872SOL    HW311616   3.667   0.104   4.445
 2872SOL    MW411617   3.669   0.074   4.527
 2873SOL     OW11618   4.288   3.601   4.855
 2873SOL    HW211619   4.330   3.686   4.864
 2873SOL    HW311620   4.361   3.538   4.857
 2873SOL    MW411621   4.303   3.604   4.857
 2874SOL     OW11622   3.555   0.422   4.639
 2874SOL    HW211623   3.478   0.437   4.584
 2874SOL    HW311624   3.546   0.332   4.669
 2874SOL    MW411625   3.544   0.412   4.636
 2875SOL     OW11626   4.322   4.416   4.238
 2875SOL    HW211627   4.395   4.363   4.207
 2875SOL    HW311628   4.323   4.406   4.333
 2875SOL    MW411629   4.332   4.408   4.246
   4.49070   4.66690  10.00000
