Gromacs Runs On Most of All Computer Systems in water
11558
    1RG35     P    1   1.864   1.697   4.379  0.3397 -0.4463  0.4064
    1RG35   O1P    2   1.823   1.663   4.244 -0.1197 -0.0234  0.0717
    1RG35   O2P    3   1.758   1.745   4.467  0.6162  0.0000 -0.3627
    1RG35   O5'    4   1.917   1.562   4.434 -0.5256  0.2404  0.2153
    1RG35   C5'    5   1.968   1.544   4.566 -0.1467  0.4323  0.5482
    1RG35  H5'1    6   1.893   1.577   4.637  1.7270  1.2148  2.2035
    1RG35  H5'2    7   2.053   1.612   4.571 -0.5414  0.8064  2.6228
    1RG35   C4'    8   2.012   1.400   4.602  0.2649 -0.7009 -0.1589
    1RG35   H4'    9   2.073   1.406   4.692  0.2711  0.5238 -0.2292
    1RG35   O4'   10   1.902   1.310   4.630  0.2791  0.0446  0.4904
    1RG35   C1'   11   1.942   1.183   4.574  0.3439 -0.7731  0.0378
    1RG35   H1'   12   2.015   1.130   4.634  1.1445  0.5929  0.2887
    1RG35    N9   13   1.820   1.102   4.568  0.5826  0.4067  0.4938
    1RG35    C8   14   1.689   1.135   4.540 -0.0629  0.0295 -0.2640
    1RG35    H8   15   1.656   1.238   4.535 -0.8904 -0.1080  1.8191
    1RG35    N7   16   1.612   1.032   4.531 -0.5469 -0.0024  0.0201
    1RG35    C5   17   1.701   0.922   4.544 -0.0572 -0.1134  0.3664
    1RG35    C6   18   1.674   0.784   4.525 -0.3459  0.0405 -0.6445
    1RG35    O6   19   1.571   0.728   4.482 -0.4569  0.2218  0.4297
    1RG35    N1   20   1.789   0.706   4.551  0.2111 -0.3554  0.4233
    1RG35    H1   21   1.779   0.606   4.549  0.5482 -0.3979  0.8887
    1RG35    C2   22   1.914   0.760   4.566 -0.3337 -0.3048  0.4166
    1RG35    N2   23   2.005   0.673   4.591  0.3586 -0.2429  0.1740
    1RG35   H21   24   1.988   0.577   4.569 -1.3142 -0.3686  1.8814
    1RG35   H22   25   2.099   0.707   4.608  0.3720 -0.6735  1.0046
    1RG35    N3   26   1.944   0.889   4.580 -0.4294 -0.2703  0.1667
    1RG35    C4   27   1.829   0.967   4.568 -0.0665 -0.3465  0.0684
    1RG35   C3'   28   2.098   1.336   4.490  0.1000 -0.0311 -0.3137
    1RG35   H3'   29   2.121   1.402   4.406 -0.6780  1.4280  0.5957
    1RG35   C2'   30   1.998   1.228   4.445  0.4011 -0.3084  0.4951
    1RG35  H2'1   31   1.924   1.281   4.385 -0.6107 -0.1433  1.8836
    1RG35   O2'   32   2.050   1.123   4.366  0.1919 -0.4405  0.1717
    1RG35  HO'2   33   1.991   1.048   4.356 -1.5959  0.7941  1.2800
    1RG35   O3'   34   2.223   1.288   4.533  0.1812  0.2253 -0.1574
    1RG35   H3T   35   2.260   1.232   4.464 -1.7262 -2.4585  0.9223
    1RG35   O3P   36   1.987   1.780   4.385  0.1641 -0.3864 -0.0826
    2SOL     OW   37   2.942   1.694   0.861  0.3256 -0.1792 -0.1981
    2SOL    HW2   38   2.996   1.767   0.832  0.1270 -0.0538 -0.2572
    2SOL    HW3   39   2.859   1.705   0.813  0.4334 -0.6637 -0.4997
    2SOL    MW4   40   2.938   1.706   0.851  0.3136 -0.2266 -0.2457
    3SOL     OW   41   3.589   0.847   0.699  0.2167  0.1409 -0.2299
    3SOL    HW2   42   3.524   0.818   0.763  0.6314  0.5036  0.3680
    3SOL    HW3   43   3.673   0.815   0.734  0.4517  0.3780 -0.5699
    3SOL    MW4   44   3.592   0.839   0.712  0.3024  0.2201 -0.1959
    4SOL     OW   45   1.324   0.096   0.410  0.0851  0.0127 -0.0257
    4SOL    HW2   46   1.304   0.077   0.502  0.1169 -3.1447 -0.6297
    4SOL    HW3   47   1.407   0.050   0.394  0.3253  0.9315 -1.5318
    4SOL    MW4   48   1.333   0.088   0.420  0.1210 -0.2827 -0.3041
    5SOL     OW   49   0.852   1.149   0.865  0.2190 -0.3543 -0.3246
    5SOL    HW2   50   0.848   1.061   0.828  0.7466 -0.1678 -0.8288
    5SOL    HW3   51   0.786   1.198   0.817 -0.4345 -0.5968  0.3070
    5SOL    MW4   52   0.843   1.144   0.854  0.2024 -0.3617 -0.3078
    6SOL     OW   53   0.464   4.003   0.701  0.3553 -0.1958  0.0090
    6SOL    HW2   54   0.383   3.962   0.732  0.2663 -0.0104  0.0241
    6SOL    HW3   55   0.462   4.091   0.739  0.3182 -0.0158 -0.4075
    6SOL    MW4   56   0.453   4.010   0.710  0.3387 -0.1476 -0.0440
    7SOL     OW   57   1.991   0.732   0.383 -0.2085 -0.2946 -0.4757
    7SOL    HW2   58   1.933   0.809   0.389 -0.1318 -0.2360 -0.4832
    7SOL    HW3   59   2.079   0.767   0.400 -0.3876 -0.6845  1.2917
    7SOL    MW4   60   1.995   0.747   0.386 -0.2220 -0.3383 -0.2435
    8SOL     OW   61   3.339   0.985   0.363 -0.0463 -0.2330  0.5471
    8SOL    HW2   62   3.297   1.058   0.318  1.6437  0.1717 -0.4127
    8SOL    HW3   63   3.373   1.023   0.444  2.2504  0.4756 -0.6895
    8SOL    MW4   64   3.338   0.999   0.368  0.4797 -0.0861  0.2573
    9SOL     OW   65   2.699   3.325   0.765 -0.0288 -0.0022  0.4984
    9SOL    HW2   66   2.627   3.319   0.828 -0.8709  1.1333 -0.3427
    9SOL    HW3   67   2.746   3.242   0.775 -2.7177 -1.7143 -0.4425
    9SOL    MW4   68   2.696   3.313   0.774 -0.4946 -0.0783  0.2633
   10SOL     OW   69   1.651   2.878   0.166  0.2182  0.1331  0.5039
   10SOL    HW2   70   1.741   2.845   0.175 -0.3400 -1.9582 -1.3020
   10SOL    HW3   71   1.603   2.834   0.236  0.0368 -0.8294 -0.2241
   10SOL    MW4   72   1.657   2.868   0.177  0.1206 -0.2698  0.1696
   11SOL     OW   73   0.769   0.436   0.393 -0.1441  0.2829  0.5748
   11SOL    HW2   74   0.676   0.432   0.414  0.0259 -0.3531  1.2467
   11SOL    HW3   75   0.804   0.352   0.423  0.4292  0.0319 -0.7651
   11SOL    MW4   76   0.761   0.424   0.400 -0.0460  0.1659  0.4867
   12SOL     OW   77   3.978   4.481   0.388 -0.2860  0.0789  0.2985
   12SOL    HW2   78   3.905   4.443   0.340 -0.0481  0.2981 -0.2349
   12SOL    HW3   79   3.952   4.572   0.402 -0.1524  0.1343  0.1860
   12SOL    MW4   80   3.965   4.488   0.384 -0.2370  0.1151  0.2133
   13SOL     OW   81   0.433   2.449   0.698 -0.1126  0.1248  0.3251
   13SOL    HW2   82   0.367   2.390   0.735 -0.3736 -0.6236 -1.2822
   13SOL    HW3   83   0.516   2.420   0.737 -0.4754 -0.1922  0.8614
   13SOL    MW4   84   0.436   2.437   0.708 -0.1949 -0.0157  0.1838
   14SOL     OW   85   2.709   4.154   0.803  0.1270  0.5670 -0.1823
   14SOL    HW2   86   2.762   4.230   0.779 -0.2645  1.0085  0.3384
   14SOL    HW3   87   2.706   4.155   0.899  0.8454 -0.6067 -0.1310
   14SOL    MW4   88   2.715   4.164   0.813  0.1702  0.4704 -0.1069
   15SOL     OW   89   3.763   3.626   0.740  0.2264  0.2889  0.0062
   15SOL    HW2   90   3.681   3.585   0.768 -0.3469  1.3406 -0.1204
   15SOL    HW3   91   3.768   3.706   0.791  0.2968  1.0930 -1.2568
   15SOL    MW4   92   3.753   3.631   0.750  0.1600  0.5337 -0.1772
   16SOL     OW   93   4.030   1.660   0.435 -0.3018  0.9534 -0.8461
   16SOL    HW2   94   4.021   1.568   0.409  0.1768  0.2300  1.4713
   16SOL    HW3   95   3.952   1.703   0.400 -1.6571 -0.7793  0.0304
   16SOL    MW4   96   4.019   1.654   0.427 -0.4175  0.6293 -0.4247
   17SOL     OW   97   0.004   2.169   0.353  0.2327 -0.1563  0.2635
   17SOL    HW2   98   0.091   2.132   0.363  0.9507  1.5598  0.5279
   17SOL    HW3   99  -0.008   2.181   0.259 -0.4318 -2.0168  0.0903
   17SOL    MW4  100   0.014   2.166   0.342  0.2398 -0.1754  0.2755
   18SOL     OW  101   1.869   2.749   0.679 -0.1639  0.0257  0.0857
   18SOL    HW2  102   1.821   2.702   0.747 -0.7765  0.7322  0.1545
   18SOL    HW3  103   1.866   2.691   0.603 -0.5377 -0.2390  0.2976
   18SOL    MW4  104   1.862   2.735   0.678 -0.2941  0.0840  0.1227
   19SOL     OW  105   0.891   0.193   0.465  0.3246  0.3144 -0.4114
   19SOL    HW2  106   0.835   0.131   0.417 -0.0375  1.4818 -1.5344
   19SOL    HW3  107   0.889   0.162   0.555 -0.0140 -1.1957 -0.9197
   19SOL    MW4  108   0.883   0.180   0.471  0.2321  0.2692 -0.6266
   20SOL     OW  109   3.851   4.061   0.364 -0.2097  0.3152 -0.0195
   20SOL    HW2  110   3.930   4.043   0.415 -0.2399  0.1199 -0.0405
   20SOL    HW3  111   3.838   3.982   0.311 -0.4159  0.3489 -0.0199
   20SOL    MW4  112   3.860   4.048   0.363 -0.2409  0.2939 -0.0223
   21SOL     OW  113   0.560   1.516   0.329  0.3515 -0.3324 -0.1475
   21SOL    HW2  114   0.604   1.601   0.328 -0.1224 -0.0909 -0.5113
   21SOL    HW3  115   0.622   1.458   0.375  0.6816  0.1993  0.0908
   21SOL    MW4  116   0.574   1.520   0.335  0.3326 -0.2304 -0.1641
   22SOL     OW  117   3.941   3.360   0.442  0.0273 -0.0235  0.2622
   22SOL    HW2  118   3.941   3.332   0.534  1.1748  1.1684  0.6416
   22SOL    HW3  119   3.898   3.446   0.444 -1.7279 -0.8487 -0.6146
   22SOL    MW4  120   3.935   3.368   0.454 -0.0529  0.0249  0.1965
   23SOL     OW  121   1.471   1.257   0.462 -0.3435 -0.1497 -0.1614
   23SOL    HW2  122   1.553   1.241   0.416 -0.4241  0.1190 -0.3932
   23SOL    HW3  123   1.495   1.255   0.555 -0.4234 -2.1603 -0.1471
   23SOL    MW4  124   1.485   1.254   0.468 -0.3646 -0.3795 -0.1901
   24SOL     OW  125   0.034   2.734   0.441  0.0216  0.3450  0.0795
   24SOL    HW2  126  -0.048   2.784   0.435  0.3387  0.7326 -1.2587
   24SOL    HW3  127   0.006   2.643   0.442 -0.5289  0.4998  1.8780
   24SOL    MW4  128   0.019   2.729   0.440 -0.0092  0.4166  0.1402
   25SOL     OW  129   3.487   2.475   0.458 -0.0450 -0.1256  0.0262
   25SOL    HW2  130   3.515   2.388   0.429  2.4295  0.3137  0.9610
   25SOL    HW3  131   3.525   2.485   0.545 -0.8381  1.6434  0.2037
   25SOL    MW4  132   3.496   2.465   0.466  0.1768  0.1658  0.1730
   26SOL     OW  133   2.930   4.395   0.450 -0.2664 -0.3200 -0.0781
   26SOL    HW2  134   2.880   4.330   0.401 -0.5688 -0.6615  0.6592
   26SOL    HW3  135   2.915   4.477   0.404 -1.6419 -0.3893  0.2108
   26SOL    MW4  136   2.921   4.397   0.438 -0.4878 -0.3742  0.0573
   27SOL     OW  137   1.180   0.481   0.206 -0.1449 -0.0704  0.1661
   27SOL    HW2  138   1.263   0.435   0.203  0.5749  1.2050  0.0454
   27SOL    HW3  139   1.125   0.436   0.142  0.7832 -0.2965 -0.4735
   27SOL    MW4  140   1.184   0.469   0.197  0.0725  0.0680  0.0658
   28SOL     OW  141   1.101   2.066   0.689 -0.2390 -0.6141  0.1604
   28SOL    HW2  142   1.176   2.022   0.728  1.1805  2.5294  1.1526
   28SOL    HW3  143   1.025   2.028   0.733  0.9472 -1.6978  1.2963
   28SOL    MW4  144   1.101   2.055   0.700  0.1048 -0.3423  0.4412
   29SOL     OW  145   4.409   3.159   0.422  0.2515 -0.3913 -0.0306
   29SOL    HW2  146   4.338   3.221   0.440  0.2690  0.3739 -2.3741
   29SOL    HW3  147   4.369   3.073   0.436 -0.4637  0.0727  0.9150
   29SOL    MW4  148   4.394   3.156   0.426  0.1594 -0.2291 -0.2150
   30SOL     OW  149   4.301   2.898   0.434 -0.0235  0.4155  0.4384
   30SOL    HW2  150   4.224   2.873   0.383  0.0290 -0.0247  0.5745
   30SOL    HW3  151   4.277   2.880   0.525 -0.3330  1.7532  0.6323
   30SOL    MW4  152   4.287   2.892   0.440 -0.0574  0.5339  0.4819
   31SOL     OW  153   1.721   2.304   0.402  0.7350 -0.1071 -0.4241
   31SOL    HW2  154   1.676   2.225   0.432 -0.3652  0.5229 -0.3813
   31SOL    HW3  155   1.809   2.275   0.379  0.2689 -1.3760 -0.6085
   31SOL    MW4  156   1.726   2.290   0.403  0.5283 -0.1914 -0.4427
   32SOL     OW  157   3.528   0.681   0.464 -0.1228  0.5135  0.0630
   32SOL    HW2  158   3.433   0.684   0.454 -0.3370 -1.6603  1.0243
   32SOL    HW3  159   3.546   0.737   0.540 -0.8852 -0.6797  1.1524
   32SOL    MW4  160   3.518   0.689   0.473 -0.2516  0.0693  0.3336
   33SOL     OW  161   3.240   0.717   0.453 -0.3280 -0.1945 -0.3439
   33SOL    HW2  162   3.221   0.747   0.542 -0.6491  0.3707 -0.6003
   33SOL    HW3  163   3.240   0.797   0.401  0.0137 -0.5103 -0.8260
   33SOL    MW4  164   3.237   0.731   0.458 -0.3253 -0.1616 -0.4413
   34SOL     OW  165   1.794   0.401   0.822 -0.0478 -0.3177 -0.1307
   34SOL    HW2  166   1.786   0.307   0.804  0.3867 -0.7808  2.0057
   34SOL    HW3  167   1.875   0.427   0.777  1.6473 -1.7077  2.0109
   34SOL    MW4  168   1.804   0.392   0.814  0.2332 -0.5622  0.4337
   35SOL     OW  169   1.974   1.675   0.279  0.6663 -0.4855  0.4287
   35SOL    HW2  170   1.899   1.734   0.271  2.1331  1.5676  1.3779
   35SOL    HW3  171   1.935   1.591   0.305 -1.3338  0.3984  0.4295
   35SOL    MW4  172   1.959   1.672   0.281  0.5960 -0.0980  0.5540
   36SOL     OW  173   1.103   3.888   0.410  0.0125  0.4124  0.0498
   36SOL    HW2  174   1.013   3.910   0.433  0.1627  0.5567  0.5200
   36SOL    HW3  175   1.108   3.793   0.419  0.0175  0.4488  0.4356
   36SOL    MW4  176   1.092   3.879   0.414  0.0330  0.4362  0.1628
   37SOL     OW  177   4.459   1.111   0.845 -0.3571  0.1748  0.0872
   37SOL    HW2  178   4.471   1.030   0.795 -1.5551 -0.1903  0.3677
   37SOL    HW3  179   4.465   1.084   0.937  1.7915  0.8373  0.1585
   37SOL    MW4  180   4.461   1.097   0.851 -0.2317  0.2140  0.1336
   38SOL     OW  181   0.690   1.000   0.165  0.0596  0.2547 -0.2782
   38SOL    HW2  182   0.644   1.051   0.232  0.3661  1.4031 -0.9442
   38SOL    HW3  183   0.693   0.911   0.202 -0.6405  0.6594  0.7966
   38SOL    MW4  184   0.684   0.995   0.179  0.0076  0.4596 -0.2243
   39SOL     OW  185   0.821   3.171   0.448  0.0115 -0.3636  0.1366
   39SOL    HW2  186   0.835   3.084   0.409 -0.7784 -0.5920  0.3474
   39SOL    HW3  187   0.730   3.192   0.428 -0.2847 -0.3020  1.4807
   39SOL    MW4  188   0.811   3.162   0.440 -0.1318 -0.3856  0.3418
   40SOL     OW  189   3.596   3.464   0.878  0.1725  0.9595 -0.1878
   40SOL    HW2  190   3.587   3.372   0.855  0.4410  0.3597  2.0347
   40SOL    HW3  191   3.515   3.504   0.846  0.2108  0.0356 -1.4883
   40SOL    MW4  192   3.584   3.457   0.871  0.2130  0.7585 -0.0661
   41SOL     OW  193   3.882   0.085   0.403  0.3929  0.2162 -0.3041
   41SOL    HW2  194   3.887   0.178   0.425  0.4137  0.2565 -0.4805
   41SOL    HW3  195   3.789   0.065   0.404  0.4512 -0.0201  0.8209
   41SOL    MW4  196   3.870   0.095   0.406  0.4033  0.1903 -0.1790
   42SOL     OW  197   1.337   1.933   0.349  0.0676 -0.1130  0.1041
   42SOL    HW2  198   1.326   1.905   0.258 -0.0809 -0.1610  0.1370
   42SOL    HW3  199   1.252   1.971   0.373  0.2977  0.4535  0.0280
   42SOL    MW4  200   1.324   1.935   0.340  0.0783 -0.0446  0.0984
   43SOL     OW  201   2.747   4.202   0.339 -0.2372 -0.1336  0.3185
   43SOL    HW2  202   2.723   4.147   0.265  0.3950 -0.8919  0.6664
   43SOL    HW3  203   2.663   4.234   0.373 -0.7222 -2.0750  1.0066
   43SOL    MW4  204   2.733   4.199   0.334 -0.2178 -0.4898  0.4552
   44SOL     OW  205   0.060   3.752   0.374 -0.0023 -0.2412 -0.4728
   44SOL    HW2  206   0.130   3.691   0.400 -0.8647 -1.1380 -0.2429
   44SOL    HW3  207   0.078   3.771   0.282  2.2557  1.8552  0.3336
   44SOL    MW4  208   0.072   3.746   0.365  0.1818 -0.0829 -0.3361
   45SOL     OW  209   1.391   1.670   0.484  0.4346 -0.3113 -0.1142
   45SOL    HW2  210   1.335   1.610   0.434  0.5723 -0.6040  0.0829
   45SOL    HW3  211   1.372   1.757   0.447 -0.9070 -0.2730  0.6390
   45SOL    MW4  212   1.381   1.674   0.472  0.2758 -0.3449  0.0112
   46SOL     OW  213   1.990   4.606   0.380  0.3104  0.1051 -0.2672
   46SOL    HW2  214   1.991   4.631   0.288  0.9910 -0.2708 -0.3682
   46SOL    HW3  215   1.928   4.666   0.421  0.3453  0.5672 -0.8873
   46SOL    MW4  216   1.982   4.617   0.374  0.4048  0.1165 -0.3624
   47SOL     OW  217   1.393   2.708   0.865  0.0466  0.6020  0.3245
   47SOL    HW2  218   1.309   2.733   0.827  0.2832  0.4217 -0.3238
   47SOL    HW3  219   1.380   2.716   0.959 -0.9749 -0.2672  0.2681
   47SOL    MW4  220   1.380   2.712   0.872 -0.0570  0.4635  0.2315
   48SOL     OW  221   2.875   3.797   0.360 -0.2083 -0.4725  0.2411
   48SOL    HW2  222   2.914   3.866   0.414 -0.2931 -1.5496  1.7071
   48SOL    HW3  223   2.947   3.737   0.343 -0.6437 -1.1661  0.8343
   48SOL    MW4  224   2.890   3.798   0.364 -0.2769 -0.7061  0.5128
   49SOL     OW  225   0.662   2.347   0.813  0.1635 -0.4033  0.3180
   49SOL    HW2  226   0.665   2.360   0.908  0.9172 -1.3750  0.4397
   49SOL    HW3  227   0.736   2.398   0.780 -1.0353  1.2114  0.0818
   49SOL    MW4  228   0.672   2.355   0.821  0.1047 -0.3185  0.3029
   50SOL     OW  229   0.481   4.523   0.217 -0.8902  0.2948  0.4226
   50SOL    HW2  230   0.401   4.575   0.221 -0.7352  0.4747  1.3782
   50SOL    HW3  231   0.464   4.448   0.275 -0.3688  0.3395  0.6364
   50SOL    MW4  232   0.468   4.520   0.225 -0.8009  0.3244  0.5769
   51SOL     OW  233   2.005   0.456   0.448  0.3282  0.1531  0.0120
   51SOL    HW2  234   2.010   0.549   0.425  0.7802  0.1139 -0.0433
   51SOL    HW3  235   1.925   0.425   0.405  0.0232  0.5800  0.2618
   51SOL    MW4  236   1.995   0.464   0.439  0.3476  0.2042  0.0377
   52SOL     OW  237   3.334   0.033   0.337 -0.2318 -0.4139 -0.0507
   52SOL    HW2  238   3.424   0.015   0.364  0.0556  0.7641 -0.1913
   52SOL    HW3  239   3.286  -0.049   0.355  0.9964 -1.2662 -0.5908
   52SOL    MW4  240   3.339   0.020   0.343 -0.0318 -0.3709 -0.1405
   53SOL     OW  241   4.289   3.619   0.443 -0.1945  0.0343 -0.6917
   53SOL    HW2  242   4.217   3.677   0.416  0.3518  0.3611 -1.4505
   53SOL    HW3  243   4.368   3.663   0.412  0.3753 -0.0990  0.5420
   53SOL    MW4  244   4.290   3.632   0.435 -0.0472  0.0598 -0.6290
   54SOL     OW  245   2.099   1.395   0.528 -0.1999 -0.1769  0.0445
   54SOL    HW2  246   2.019   1.414   0.480  1.0238  0.2630 -1.8788
   54SOL    HW3  247   2.143   1.480   0.536  0.1973 -0.4525  0.8927
   54SOL    MW4  248   2.094   1.409   0.523  0.0140 -0.1552 -0.0973
   55SOL     OW  249   0.851   1.964   0.783  0.8325  0.4556  0.0663
   55SOL    HW2  250   0.772   2.015   0.768  1.9071  2.1451 -0.0452
   55SOL    HW3  251   0.856   1.955   0.879  1.1029  1.3545  0.1444
   55SOL    MW4  252   0.841   1.970   0.794  1.0100  0.7971  0.0619
   56SOL     OW  253   3.843   4.628   0.821 -0.4063  0.7745 -0.0965
   56SOL    HW2  254   3.850   4.536   0.797  0.3048  0.0986  2.5486
   56SOL    HW3  255   3.914   4.671   0.773  2.0672 -0.8198  2.0061
   56SOL    MW4  256   3.854   4.622   0.812  0.0139  0.4750  0.5299
   57SOL     OW  257   2.648   0.385   0.323 -0.1623  0.1058 -0.0971
   57SOL    HW2  258   2.730   0.421   0.356  0.0748 -0.0835 -0.4742
   57SOL    HW3  259   2.657   0.388   0.228 -0.4892 -0.1463 -0.1374
   57SOL    MW4  260   2.660   0.390   0.315 -0.1742  0.0476 -0.1522
   58SOL     OW  261   1.576   2.063   0.444  0.2316 -0.0218 -0.2652
   58SOL    HW2  262   1.497   2.017   0.414  1.2281 -2.7877  1.1486
   58SOL    HW3  263   1.647   2.023   0.393  1.1885 -0.4973  1.4098
   58SOL    MW4  264   1.575   2.052   0.433  0.4893 -0.4495  0.1424
   59SOL     OW  265   3.191   1.223   0.287 -0.0876 -0.0136  0.2313
   59SOL    HW2  266   3.157   1.241   0.199  0.5896 -1.0846 -0.2588
   59SOL    HW3  267   3.117   1.184   0.333 -0.5101  0.7494  0.2118
   59SOL    MW4  268   3.176   1.220   0.282 -0.0540 -0.0542  0.1640
   60SOL     OW  269   0.913   2.911   0.344 -0.0628 -0.3314  0.1696
   60SOL    HW2  270   0.946   2.918   0.255  0.3635  0.0482  0.3546
   60SOL    HW3  271   0.992   2.903   0.398 -0.2362  1.2077  0.6750
   60SOL    MW4  272   0.928   2.911   0.340 -0.0294 -0.0783  0.2607
   61SOL     OW  273   2.415   0.765   0.855 -0.0048  0.0612  0.0329
   61SOL    HW2  274   2.484   0.812   0.808 -0.6171  0.2214 -0.7107
   61SOL    HW3  275   2.425   0.674   0.827 -0.3500  0.1515 -0.3828
   61SOL    MW4  276   2.426   0.759   0.845 -0.1311  0.0943 -0.1201
   62SOL     OW  277   3.414   1.150   0.844  0.1041  0.2944 -0.0177
   62SOL    HW2  278   3.470   1.138   0.921  0.7431  1.5665 -0.2679
   62SOL    HW3  279   3.399   1.245   0.840 -0.2437  0.1904 -1.2321
   62SOL    MW4  280   3.420   1.161   0.854  0.1425  0.4485 -0.2110
   63SOL     OW  281   2.301   3.557   0.710  0.1976  0.0764 -0.0595
   63SOL    HW2  282   2.302   3.530   0.618 -0.0308 -2.6069  0.7021
   63SOL    HW3  283   2.220   3.607   0.719 -0.1388 -0.2588 -1.1514
   63SOL    MW4  284   2.290   3.560   0.699  0.1231 -0.3219 -0.1031
   64SOL     OW  285   0.239   2.064   0.677  0.4913 -0.1830 -0.7765
   64SOL    HW2  286   0.294   1.999   0.720 -0.3500 -0.7354 -0.5324
   64SOL    HW3  287   0.222   2.028   0.590 -0.5848 -0.6563 -0.3864
   64SOL    MW4  288   0.244   2.051   0.671  0.2383 -0.3184 -0.6928
   65SOL     OW  289   1.899   2.578   0.465 -0.6476 -0.3915  0.4564
   65SOL    HW2  290   1.816   2.539   0.436 -0.5821 -1.1002  1.1902
   65SOL    HW3  291   1.961   2.506   0.463 -0.3675 -0.1782  1.2007
   65SOL    MW4  292   1.896   2.563   0.461 -0.6020 -0.4569  0.6514
   66SOL     OW  293   3.975   1.362   0.382  0.0740  0.7788 -0.2180
   66SOL    HW2  294   3.948   1.350   0.474  1.1183  2.5699  0.3498
   66SOL    HW3  295   3.945   1.283   0.338 -0.9501  0.1374  1.5619
   66SOL    MW4  296   3.968   1.350   0.389  0.0767  0.9305  0.0918
   67SOL     OW  297   0.928   1.351   0.089  0.2285 -0.2509  0.5507
   67SOL    HW2  298   0.939   1.258   0.106  0.3981 -0.4701 -0.7370
   67SOL    HW3  299   0.834   1.364   0.084  0.2283 -0.4996 -0.0765
   67SOL    MW4  300   0.917   1.341   0.091  0.2508 -0.3127  0.2980
   68SOL     OW  301   3.146   0.451   0.361  0.4869  0.2398  0.0257
   68SOL    HW2  302   3.233   0.410   0.362  0.1191 -0.6017 -1.5531
   68SOL    HW3  303   3.164   0.545   0.361  1.3969  0.0744 -0.2369
   68SOL    MW4  304   3.160   0.458   0.361  0.5585  0.1070 -0.2173
   69SOL     OW  305   2.042   4.337   0.516  0.2207 -0.3083 -0.2310
   69SOL    HW2  306   2.112   4.288   0.473  1.2226 -0.3039  1.3459
   69SOL    HW3  307   2.032   4.416   0.462  0.2121 -1.1394 -1.4570
   69SOL    MW4  308   2.050   4.341   0.503  0.3518 -0.4173 -0.1847
   70SOL     OW  309   2.198   2.764   0.288  0.0364 -0.5770  0.3565
   70SOL    HW2  310   2.215   2.693   0.227  1.9547 -0.7389  1.0407
   70SOL    HW3  311   2.263   2.831   0.265 -1.2482  0.6248  0.2217
   70SOL    MW4  312   2.209   2.764   0.277  0.1200 -0.4398  0.4290
   71SOL     OW  313   1.130   3.843   0.835 -0.4475 -0.0501  0.2473
   71SOL    HW2  314   1.211   3.869   0.792  0.0861 -1.2044  0.5405
   71SOL    HW3  315   1.142   3.866   0.927 -1.1389  1.3622 -0.0023
   71SOL    MW4  316   1.142   3.850   0.842 -0.4683 -0.0161  0.2531
   72SOL     OW  317   4.335   4.088   0.442  0.1487  0.0943 -0.3637
   72SOL    HW2  318   4.311   4.180   0.451  0.8497  0.3048 -0.6493
   72SOL    HW3  319   4.258   4.040   0.474  0.1814  0.7744  0.7607
   72SOL    MW4  320   4.322   4.094   0.447  0.2455  0.2118 -0.2531
   73SOL     OW  321   3.798   2.039   0.421 -0.1472  0.0173 -0.2299
   73SOL    HW2  322   3.803   1.946   0.399 -1.2974  0.1307 -0.9899
   73SOL    HW3  323   3.883   2.074   0.394  0.2600 -0.7946 -0.0240
   73SOL    MW4  324   3.810   2.031   0.415 -0.2452 -0.0749 -0.3030
   74SOL     OW  325   1.252   1.437   0.395 -0.0268  0.0540 -0.3405
   74SOL    HW2  326   1.331   1.395   0.429 -0.7845  0.3125  1.8234
   74SOL    HW3  327   1.182   1.376   0.415 -0.5191  0.2508 -1.4082
   74SOL    MW4  328   1.254   1.423   0.402 -0.1917  0.1140 -0.1958
   75SOL     OW  329   2.495   2.454   0.348 -0.4759 -0.0286 -0.7305
   75SOL    HW2  330   2.553   2.379   0.362 -1.3975 -0.4697  0.8775
   75SOL    HW3  331   2.551   2.531   0.357  0.0500 -0.4780 -0.1361
   75SOL    MW4  332   2.510   2.454   0.351 -0.5281 -0.1461 -0.4399
   76SOL     OW  333   3.138   1.630   0.529  0.4318 -0.4007 -0.6980
   76SOL    HW2  334   3.197   1.705   0.515  0.0959  0.0945  0.4881
   76SOL    HW3  335   3.053   1.660   0.499 -0.1269  0.4009  1.5620
   76SOL    MW4  336   3.135   1.644   0.524  0.3138 -0.2296 -0.2433
   77SOL     OW  337   0.713   1.294   0.442  0.0272 -0.4003 -0.1460
   77SOL    HW2  338   0.701   1.302   0.537 -1.2929  3.2027 -0.5182
   77SOL    HW3  339   0.808   1.287   0.431  0.2084 -0.7046  1.4564
   77SOL    MW4  340   0.724   1.294   0.453 -0.1231  0.0349  0.0163
   78SOL     OW  341   2.445   4.557   0.454  0.1088  0.3439  0.1743
   78SOL    HW2  342   2.359   4.597   0.460 -0.1841 -0.3909  0.9473
   78SOL    HW3  343   2.504   4.628   0.429 -0.8794  0.6497 -1.3643
   78SOL    MW4  344   2.441   4.571   0.451 -0.0602  0.2873  0.0733
   79SOL     OW  345   1.593   2.334   0.859 -0.5251  0.1796 -0.0189
   79SOL    HW2  346   1.525   2.377   0.807  0.6688  1.5805 -0.4703
   79SOL    HW3  347   1.618   2.258   0.808  0.1008  1.1277 -1.1610
   79SOL    MW4  348   1.587   2.330   0.846 -0.2850  0.4895 -0.2292
   80SOL     OW  349   2.263   2.500   0.175 -0.3593  0.3247 -0.3152
   80SOL    HW2  350   2.345   2.489   0.222 -1.1986  1.4180  1.4317
   80SOL    HW3  351   2.284   2.477   0.084  1.5139 -0.7840  0.3848
   80SOL    MW4  352   2.276   2.496   0.169 -0.2229  0.3227  0.0076
   81SOL     OW  353   2.906   2.093   0.767  0.1091  0.4437 -0.2242
   81SOL    HW2  354   2.835   2.039   0.802  0.5470  0.0164  0.0188
   81SOL    HW3  355   2.888   2.181   0.800 -0.0772  0.2564  0.1832
   81SOL    MW4  356   2.894   2.097   0.776  0.1423  0.3626 -0.1384
   82SOL     OW  357   2.840   2.664   0.503 -0.1539 -0.1470  0.3212
   82SOL    HW2  358   2.751   2.692   0.484 -0.4330 -1.4387 -0.3445
   82SOL    HW3  359   2.829   2.583   0.553  0.6382 -1.5275 -1.6744
   82SOL    MW4  360   2.827   2.657   0.507 -0.0863 -0.4995 -0.0299
   83SOL     OW  361   2.878   0.512   0.427 -0.4886 -0.0916 -0.1844
   83SOL    HW2  362   2.963   0.476   0.402  0.1658  1.3057  0.0184
   83SOL    HW3  363   2.872   0.497   0.521 -0.3163  0.1155 -0.1401
   83SOL    MW4  364   2.888   0.505   0.436 -0.3796  0.1201 -0.1518
   84SOL     OW  365   0.633   2.104   0.686 -0.0949  0.4056  0.0526
   84SOL    HW2  366   0.565   2.060   0.736 -0.8436  1.5688  0.0718
   84SOL    HW3  367   0.636   2.192   0.722  1.9929  0.1319  0.6157
   84SOL    MW4  368   0.625   2.110   0.697  0.0818  0.5230  0.1295
   85SOL     OW  369   1.367   0.964   0.452  0.3967 -0.1628 -0.3760
   85SOL    HW2  370   1.409   1.049   0.453  0.5926 -0.2580 -0.5047
   85SOL    HW3  371   1.276   0.982   0.427  0.3803  0.0326 -0.1707
   85SOL    MW4  372   1.360   0.977   0.449  0.4204 -0.1495 -0.3659
   86SOL     OW  373   1.472   3.649   0.185 -0.8233  0.5366 -0.1536
   86SOL    HW2  374   1.533   3.645   0.112 -0.5908  1.2319 -0.0034
   86SOL    HW3  375   1.473   3.561   0.222  1.6308  1.0338  1.0955
   86SOL    MW4  376   1.480   3.637   0.180 -0.4688  0.6940  0.0310
   87SOL     OW  377   2.269   4.158   0.428 -0.0636  0.1455  0.1480
   87SOL    HW2  378   2.247   4.081   0.480  0.4880  0.3079  0.6151
   87SOL    HW3  379   2.277   4.125   0.338 -3.1246  0.2199 -0.2090
   87SOL    MW4  380   2.267   4.144   0.423 -0.3947  0.1767  0.1625
   88SOL     OW  381   0.246   3.853   0.827 -0.2417  0.1391 -0.0534
   88SOL    HW2  382   0.219   3.770   0.788 -1.3096  0.3499  0.2151
   88SOL    HW3  383   0.247   3.837   0.921 -2.1724  0.9001  0.1217
   88SOL    MW4  384   0.242   3.840   0.834 -0.6373  0.2673  0.0051
   89SOL     OW  385   2.241   0.306   0.440 -0.1002  0.2032  0.0299
   89SOL    HW2  386   2.164   0.358   0.418  0.5142  0.8426 -0.6324
   89SOL    HW3  387   2.307   0.370   0.466 -0.3158 -0.4437  2.2451
   89SOL    MW4  388   2.240   0.321   0.440 -0.0476  0.2022  0.2348
   90SOL     OW  389   0.066   1.571   0.384  0.0509 -0.0431  0.4601
   90SOL    HW2  390   0.149   1.619   0.384  0.3483 -0.5300 -0.6937
   90SOL    HW3  391   0.081   1.496   0.441  0.7077 -0.6098 -0.4353
   90SOL    MW4  392   0.079   1.567   0.391  0.1768 -0.1821  0.1898
   91SOL     OW  393   3.576   4.028   0.772  0.0968  0.3813 -0.3879
   91SOL    HW2  394   3.488   3.992   0.786  0.4335 -0.0502  0.6325
   91SOL    HW3  395   3.576   4.111   0.820 -0.1955  1.0510 -1.5248
   91SOL    MW4  396   3.564   4.034   0.780  0.1027  0.4127 -0.4032
   92SOL     OW  397   1.989   3.823   0.424 -0.2595 -0.4734 -0.1932
   92SOL    HW2  398   1.912   3.866   0.461 -0.7460 -1.3860 -0.1228
   92SOL    HW3  399   1.965   3.730   0.420  1.0243 -0.8354  0.2984
   92SOL    MW4  400   1.976   3.816   0.428 -0.1543 -0.6415 -0.1190
   93SOL     OW  401   0.446   0.397   0.859 -0.2548  0.3661  0.6968
   93SOL    HW2  402   0.373   0.418   0.800  1.0002 -0.4503 -1.1998
   93SOL    HW3  403   0.519   0.450   0.827  0.7107 -0.8075  0.9184
   93SOL    MW4  404   0.446   0.407   0.847  0.0381  0.1035  0.4758
   94SOL     OW  405   0.484   3.713   0.384  0.0125 -0.0441  0.5038
   94SOL    HW2  406   0.575   3.685   0.392  0.5756  1.3865 -0.5634
   94SOL    HW3  407   0.488   3.808   0.399 -1.3889 -0.0595  1.0030
   94SOL    MW4  408   0.497   3.722   0.387 -0.0981  0.1426  0.4289
   95SOL     OW  409   0.098   1.370   0.157  0.2105 -0.2713  0.1141
   95SOL    HW2  410   0.070   1.448   0.205 -1.5050  0.9623 -2.7880
   95SOL    HW3  411   0.058   1.297   0.206  0.2285  0.7803  1.7496
   95SOL    MW4  412   0.089   1.371   0.170 -0.0134  0.0302 -0.0530
   96SOL     OW  413   3.226   4.441   0.392  0.0338 -0.3118  0.1759
   96SOL    HW2  414   3.138   4.404   0.384 -0.7354  0.8891  2.4543
   96SOL    HW3  415   3.284   4.364   0.396 -0.9502 -1.1240 -0.8218
   96SOL    MW4  416   3.222   4.426   0.391 -0.1975 -0.2605  0.3449
   97SOL     OW  417   0.670   3.087   0.825  0.4050 -0.1005 -0.1456
   97SOL    HW2  418   0.680   2.994   0.804 -0.3802 -0.2769  0.2288
   97SOL    HW3  419   0.604   3.118   0.764  1.3018  0.4305 -0.8617
   97SOL    MW4  420   0.663   3.079   0.814  0.4197 -0.0537 -0.1907
   98SOL     OW  421   2.695   2.223   0.467  0.2645 -0.0469 -0.3354
   98SOL    HW2  422   2.724   2.290   0.529  0.7080  0.0329 -0.6237
   98SOL    HW3  423   2.770   2.163   0.460  0.6429  0.5506 -1.6306
   98SOL    MW4  424   2.709   2.224   0.474  0.3729  0.0425 -0.5444
   99SOL     OW  425   0.660   4.653   0.845 -0.0787  0.6697  0.0866
   99SOL    HW2  426   0.654   4.665   0.940  1.3225  1.0820  0.1421
   99SOL    HW3  427   0.581   4.694   0.810 -1.0722 -0.3389  1.1423
   99SOL    MW4  428   0.649   4.660   0.853 -0.0249  0.5910  0.2332
  100SOL     OW  429   2.646   0.866   0.728 -0.1832  0.2712 -0.1974
  100SOL    HW2  430   2.712   0.807   0.765  0.8228  0.9169 -0.9419
  100SOL    HW3  431   2.638   0.838   0.637 -1.1110  0.0541 -0.0587
  100SOL    MW4  432   2.654   0.854   0.721 -0.1728  0.3278 -0.2774
  101SOL     OW  433   1.789   1.875   0.400  0.4128 -0.3421 -0.1251
  101SOL    HW2  434   1.759   1.792   0.438 -0.8543  0.9629  1.8258
  101SOL    HW3  435   1.859   1.904   0.458 -1.5638  1.6960  1.3255
  101SOL    MW4  436   1.794   1.868   0.413 -0.0152  0.0990  0.3237
  102SOL     OW  437   0.443   0.134   0.770  0.0465  0.3287 -0.1394
  102SOL    HW2  438   0.365   0.089   0.802 -0.6193  0.5637 -1.4021
  102SOL    HW3  439   0.439   0.221   0.810 -0.1241  0.2096  0.1037
  102SOL    MW4  440   0.432   0.139   0.779 -0.0638  0.3440 -0.2739
  103SOL     OW  441   1.022   1.275   0.482  0.5838 -0.4868  0.2446
  103SOL    HW2  442   1.038   1.190   0.441  2.3489 -0.3644  0.6436
  103SOL    HW3  443   1.044   1.262   0.574  1.0109  0.4403  0.2777
  103SOL    MW4  444   1.027   1.262   0.489  0.8730 -0.3483  0.3016
  104SOL     OW  445   3.808   3.828   0.224  0.1577 -0.1126 -0.4282
  104SOL    HW2  446   3.736   3.800   0.281  0.1470  1.3774  0.3231
  104SOL    HW3  447   3.785   3.793   0.138 -1.2871  0.0509 -0.1252
  104SOL    MW4  448   3.795   3.820   0.220 -0.0343  0.1055 -0.2891
  105SOL     OW  449   0.860   3.464   0.879 -0.0176  0.3758  0.5139
  105SOL    HW2  450   0.859   3.381   0.831  0.3734  0.3080  0.6249
  105SOL    HW3  451   0.793   3.518   0.836 -1.8235 -0.7745  1.7815
  105SOL    MW4  452   0.851   3.460   0.867 -0.2043  0.2151  0.6958
  106SOL     OW  453   2.719   1.141   0.775 -0.5285 -0.1270 -0.1377
  106SOL    HW2  454   2.721   1.045   0.773  0.6543 -0.1371  0.7031
  106SOL    HW3  455   2.809   1.167   0.754 -0.4444  0.7481  1.2369
  106SOL    MW4  456   2.731   1.132   0.772 -0.3614 -0.0129  0.1546
  107SOL     OW  457   2.377   3.505   0.449 -0.0121  0.3137 -0.0079
  107SOL    HW2  458   2.387   3.570   0.380 -0.1983  0.3601  0.0070
  107SOL    HW3  459   2.461   3.460   0.453 -0.1990 -0.0974 -0.6750
  107SOL    MW4  460   2.389   3.507   0.441 -0.0613  0.2655 -0.0940
  108SOL     OW  461   2.267   1.172   0.821 -0.1266 -0.2027 -0.4566
  108SOL    HW2  462   2.239   1.089   0.780 -1.1019  0.6672 -1.5880
  108SOL    HW3  463   2.275   1.150   0.914 -1.6395 -1.2648 -0.5429
  108SOL    MW4  464   2.264   1.158   0.827 -0.4549 -0.2280 -0.6173
  109SOL     OW  465   2.980   1.065   0.437  0.1917  0.2754 -0.0328
  109SOL    HW2  466   2.983   0.969   0.440 -1.4820  0.2389  0.8191
  109SOL    HW3  467   3.012   1.093   0.522 -0.0916  0.4450  0.0193
  109SOL    MW4  468   2.985   1.056   0.448 -0.0665  0.2930  0.0865
  110SOL     OW  469   0.481   0.829   0.460 -0.0577  0.2054 -0.2454
  110SOL    HW2  470   0.518   0.905   0.415  0.7246 -1.2629 -2.0971
  110SOL    HW3  471   0.400   0.811   0.414 -0.9096  0.6780  1.0235
  110SOL    MW4  472   0.476   0.837   0.448 -0.0669  0.0741 -0.3223
  111SOL     OW  473   0.214   0.477   0.704  0.5421 -0.4545  0.1398
  111SOL    HW2  474   0.131   0.443   0.737  0.7977 -1.2463 -0.0315
  111SOL    HW3  475   0.217   0.567   0.736 -0.1390 -0.5874  0.5910
  111SOL    MW4  476   0.203   0.484   0.713  0.4859 -0.5765  0.1767
  112SOL     OW  477   2.929   2.368   0.861  0.3116 -0.0694  0.3754
  112SOL    HW2  478   3.006   2.407   0.819  0.3093  0.3168  0.7207
  112SOL    HW3  479   2.944   2.382   0.955  0.0245 -0.3758  0.4660
  112SOL    MW4  480   2.941   2.375   0.868  0.2734 -0.0589  0.4329
  113SOL     OW  481   4.269   2.069   0.722  0.2097 -0.0609  0.1384
  113SOL    HW2  482   4.264   2.050   0.628  1.2311  1.2233 -0.1997
  113SOL    HW3  483   4.185   2.039   0.757  0.0974 -1.2071 -1.0592
  113SOL    MW4  484   4.257   2.062   0.714  0.3296 -0.0427 -0.0642
  114SOL     OW  485   0.242   0.749   0.290  0.8041 -0.1721 -0.4821
  114SOL    HW2  486   0.222   0.742   0.196  0.0380 -2.3368 -0.1964
  114SOL    HW3  487   0.235   0.659   0.322 -0.6336  0.7786  1.9809
  114SOL    MW4  488   0.238   0.736   0.281  0.5134 -0.3323 -0.1194
  115SOL     OW  489   0.172   3.050   0.324 -0.2281 -0.4250  0.0866
  115SOL    HW2  490   0.088   3.087   0.352 -0.1017 -0.6111  0.7213
  115SOL    HW3  491   0.228   3.126   0.308 -0.9369 -0.2689 -1.6573
  115SOL    MW4  492   0.168   3.065   0.326 -0.3050 -0.4290 -0.0598
  116SOL     OW  493   1.337   4.028   0.475 -0.2297 -0.2587 -0.2690
  116SOL    HW2  494   1.249   3.993   0.460  0.3466 -1.7026 -0.2984
  116SOL    HW3  495   1.352   4.017   0.569 -0.6073  1.2686 -0.0068
  116SOL    MW4  496   1.327   4.022   0.486 -0.2035 -0.2477 -0.2383
  117SOL     OW  497   1.194   1.491   0.114 -0.0590  0.1010  0.3599
  117SOL    HW2  498   1.204   1.481   0.209  0.8034 -2.0254  0.0620
  117SOL    HW3  499   1.104   1.464   0.096 -0.0349 -0.0759  0.4993
  117SOL    MW4  500   1.184   1.486   0.124  0.0580 -0.2029  0.3390
  118SOL     OW  501   1.058   2.033   0.409  0.3799  0.2352 -0.3068
  118SOL    HW2  502   0.996   2.105   0.399  0.2687  0.3000  0.8041
  118SOL    HW3  503   1.086   2.038   0.500  0.5577 -0.9800 -0.2873
  118SOL    MW4  504   1.054   2.043   0.420  0.3887  0.0834 -0.1577
  119SOL     OW  505   2.726   1.116   0.498 -0.2495 -0.1765  0.9381
  119SOL    HW2  506   2.818   1.100   0.475 -0.2153 -1.1132  1.6964
  119SOL    HW3  507   2.727   1.132   0.592 -0.7214  0.9874  0.7506
  119SOL    MW4  508   2.738   1.116   0.507 -0.3073 -0.1465  1.0134
  120SOL     OW  509   0.645   1.300   0.716 -0.0634  0.0099  0.1728
  120SOL    HW2  510   0.581   1.238   0.750 -1.0338  0.7298 -0.3262
  120SOL    HW3  511   0.624   1.383   0.759 -0.3254  0.5583 -0.9991
  120SOL    MW4  512   0.634   1.303   0.726 -0.2260  0.1773 -0.0476
  121SOL     OW  513   1.502   3.404   0.336  0.3883 -0.6157  0.2731
  121SOL    HW2  514   1.530   3.312   0.342  1.3894 -0.2754  0.8534
  121SOL    HW3  515   1.546   3.447   0.408  0.0666  0.3768 -0.1171
  121SOL    MW4  516   1.511   3.397   0.346  0.4779 -0.4399  0.2982
  122SOL     OW  517   3.439   4.509   0.845  0.5749 -0.4663  0.4933
  122SOL    HW2  518   3.370   4.502   0.779  0.9404 -0.3215  0.0940
  122SOL    HW3  519   3.398   4.556   0.917 -1.0096 -3.9351  1.9638
  122SOL    MW4  520   3.424   4.514   0.846  0.4141 -0.9049  0.6346
  123SOL     OW  521   2.909   0.472   0.686 -0.5508  0.2036 -0.1447
  123SOL    HW2  522   2.986   0.422   0.713 -0.2243 -0.3123 -1.9258
  123SOL    HW3  523   2.835   0.418   0.713 -0.3196  0.8598  1.8806
  123SOL    MW4  524   2.910   0.458   0.693 -0.4772  0.2221 -0.1125
  124SOL     OW  525   3.600   4.401   0.459 -0.2717  0.3286 -0.6382
  124SOL    HW2  526   3.519   4.349   0.464 -0.4150  0.4280 -1.7241
  124SOL    HW3  527   3.653   4.355   0.394  1.0890 -0.4656  1.0166
  124SOL    MW4  528   3.596   4.388   0.451 -0.1111  0.2369 -0.5631
  125SOL     OW  529   1.986   0.775   1.071  0.1405 -0.0453 -0.4728
  125SOL    HW2  530   1.975   0.688   1.109 -1.2935  1.1186  1.8896
  125SOL    HW3  531   1.914   0.827   1.107  1.9059  2.5536 -0.4810
  125SOL    MW4  532   1.975   0.771   1.081  0.1842  0.4512 -0.1622
  126SOL     OW  533   2.456   1.571   0.870 -0.0414 -0.0426 -0.6106
  126SOL    HW2  534   2.456   1.477   0.853  0.7658  0.0240 -1.0060
  126SOL    HW3  535   2.529   1.605   0.818 -0.1400  0.7622 -0.2345
  126SOL    MW4  536   2.465   1.563   0.861  0.0521  0.0724 -0.6131
  127SOL     OW  537   1.368   4.257   0.845 -0.3318 -0.2901  0.1083
  127SOL    HW2  538   1.286   4.301   0.821 -0.0169  0.3334  0.1764
  127SOL    HW3  539   1.437   4.314   0.812  0.0857 -0.4347  0.7151
  127SOL    MW4  540   1.366   4.271   0.838 -0.2352 -0.2269  0.1974
  128SOL     OW  541   2.510   2.546   0.700  0.5679  0.0128 -0.8373
  128SOL    HW2  542   2.428   2.572   0.658 -0.6057  0.2056  1.4924
  128SOL    HW3  543   2.547   2.627   0.734  2.1349  0.0332 -2.5573
  128SOL    MW4  544   2.504   2.560   0.699  0.6198  0.0409 -0.7569
  129SOL     OW  545   3.613   0.053   0.741 -0.1336  0.4882  0.3100
  129SOL    HW2  546   3.548   0.011   0.797 -1.0376  0.9501 -0.3759
  129SOL    HW3  547   3.696   0.014   0.768 -0.8368 -1.0722  0.3192
  129SOL    MW4  548   3.615   0.042   0.752 -0.3457  0.3433  0.2207
  130SOL     OW  549   0.443   2.732   0.790  0.2765  0.1863  0.4013
  130SOL    HW2  550   0.444   2.637   0.776  2.0561  0.3529 -0.8012
  130SOL    HW3  551   0.523   2.763   0.748  0.4933  2.0473  2.1091
  130SOL    MW4  552   0.454   2.724   0.783  0.5399  0.4538  0.4680
  131SOL     OW  553   0.870   3.233   0.711 -0.0101  0.2625  0.2774
  131SOL    HW2  554   0.811   3.174   0.757  1.0145 -0.6741  0.4170
  131SOL    HW3  555   0.862   3.208   0.619  0.7811 -0.4392  0.3887
  131SOL    MW4  556   0.861   3.222   0.705  0.2295  0.0464  0.3105
  132SOL     OW  557   2.379   2.347   0.870 -0.0038  0.2900 -0.4604
  132SOL    HW2  558   2.284   2.358   0.871 -0.2782 -1.7057 -1.3104
  132SOL    HW3  559   2.411   2.416   0.812 -1.1205 -0.1185 -1.5870
  132SOL    MW4  560   2.371   2.357   0.863 -0.1874 -0.0272 -0.7212
  133SOL     OW  561   3.349   0.710   0.792 -0.2120 -0.0648  0.0383
  133SOL    HW2  562   3.274   0.757   0.758 -0.1898  0.5599  0.8203
  133SOL    HW3  563   3.355   0.631   0.739 -1.0691  0.1635 -0.4008
  133SOL    MW4  564   3.340   0.705   0.781 -0.3222  0.0477  0.0836
  134SOL     OW  565   0.318   1.702   0.403  0.5570 -0.2824 -0.3180
  134SOL    HW2  566   0.315   1.698   0.499  0.4842  1.5178 -0.2248
  134SOL    HW3  567   0.402   1.661   0.380  1.3832  0.8444  0.6336
  134SOL    MW4  568   0.329   1.696   0.413  0.6564  0.1038 -0.1802
  135SOL     OW  569   2.249   3.899   0.521 -0.1759 -0.2118  0.0126
  135SOL    HW2  570   2.246   3.889   0.616 -0.1205  0.0138  0.0373
  135SOL    HW3  571   2.167   3.861   0.490 -0.4950  0.3157  0.2030
  135SOL    MW4  572   2.238   3.893   0.529 -0.2107 -0.1124  0.0410
  136SOL     OW  573   3.331   2.856   0.758  0.3113  0.5850 -0.0601
  136SOL    HW2  574   3.248   2.816   0.786 -0.2600  0.8115 -1.3733
  136SOL    HW3  575   3.325   2.947   0.789 -0.2938  0.8210 -0.8401
  136SOL    MW4  576   3.319   2.863   0.766  0.1561  0.6460 -0.3363
  137SOL     OW  577   1.343   3.989   0.751  0.6290 -0.0138  0.2102
  137SOL    HW2  578   1.345   4.073   0.798  0.2645  0.2218 -0.1920
  137SOL    HW3  579   1.413   3.938   0.791  0.6689  0.3802  0.6524
  137SOL    MW4  580   1.353   3.993   0.762  0.5862  0.0693  0.2154
  138SOL     OW  581   0.663   0.006   0.416 -0.1748 -0.5539  0.1381
  138SOL    HW2  582   0.594   0.061   0.452 -0.4199  0.4568 -1.7734
  138SOL    HW3  583   0.623  -0.033   0.337  0.5652 -2.0916  0.5002
  138SOL    MW4  584   0.648   0.008   0.410 -0.1095 -0.6234 -0.0663
  139SOL     OW  585   2.882   1.765   0.474 -0.2492  0.0740  0.4538
  139SOL    HW2  586   2.876   1.860   0.470  0.3523  0.0634 -0.9754
  139SOL    HW3  587   2.793   1.736   0.494 -0.7229  0.8849 -0.4395
  139SOL    MW4  588   2.869   1.773   0.476 -0.2323  0.1796  0.1473
  140SOL     OW  589   2.255   0.090   0.762  0.0679  0.4831 -0.1571
  140SOL    HW2  590   2.244   0.084   0.667  1.0408 -0.0388 -0.2477
  140SOL    HW3  591   2.328   0.031   0.781 -0.6544 -0.0407  1.0289
  140SOL    MW4  592   2.264   0.082   0.752  0.1010  0.3452 -0.0126
  141SOL     OW  593   2.529   1.340   0.466  0.4365  0.4886  0.1919
  141SOL    HW2  594   2.598   1.277   0.446 -0.5258 -0.5783  0.1565
  141SOL    HW3  595   2.526   1.342   0.562 -0.0163 -0.0776  0.1947
  141SOL    MW4  596   2.538   1.332   0.476  0.2498  0.2731  0.1876
  142SOL     OW  597   4.027   2.699   0.838  0.2205  0.3298  0.3973
  142SOL    HW2  598   4.024   2.619   0.785 -1.3917 -0.7036  1.9931
  142SOL    HW3  599   3.964   2.758   0.797  0.1366  0.1140  0.2171
  142SOL    MW4  600   4.018   2.696   0.826 -0.0033  0.1650  0.5840
  143SOL     OW  601   3.965   3.250   0.693 -0.2572  0.2233 -0.0304
  143SOL    HW2  602   3.973   3.339   0.725  0.7114  0.7015 -1.5453
  143SOL    HW3  603   4.050   3.210   0.710 -0.4923 -0.2318  0.1079
  143SOL    MW4  604   3.977   3.256   0.699 -0.1604  0.2264 -0.2120
  144SOL     OW  605   1.516   3.116   0.325 -0.8249  0.2576 -0.1569
  144SOL    HW2  606   1.603   3.087   0.354 -0.5801  0.2748 -0.8627
  144SOL    HW3  607   1.512   3.091   0.233 -1.8779 -0.4559  0.0694
  144SOL    MW4  608   1.527   3.109   0.317 -0.9315  0.1657 -0.2201
  145SOL     OW  609   0.903   4.224   0.502  0.0818  0.2715  0.0793
  145SOL    HW2  610   0.980   4.280   0.502  0.5259 -0.2640  2.4559
  145SOL    HW3  611   0.829   4.284   0.491  0.7931  0.7984 -2.0911
  145SOL    MW4  612   0.903   4.239   0.500  0.2342  0.2704  0.1065
  146SOL     OW  613   2.671   1.713   0.762 -0.2563 -0.0198  0.2983
  146SOL    HW2  614   2.646   1.731   0.671  0.0408 -0.2569  0.1692
  146SOL    HW3  615   2.665   1.798   0.805 -0.0947  0.1516 -0.0162
  146SOL    MW4  616   2.667   1.727   0.755 -0.1958 -0.0285  0.2397
  147SOL     OW  617   1.584   0.502   1.239  0.2000 -0.7697  0.0720
  147SOL    HW2  618   1.503   0.466   1.204 -0.4074 -0.1450  0.8318
  147SOL    HW3  619   1.600   0.581   1.187  0.3201 -0.8799 -0.0616
  147SOL    MW4  620   1.576   0.508   1.227  0.1357 -0.7018  0.1547
  148SOL     OW  621   1.566   0.506   0.436 -0.0304 -0.4116 -0.0908
  148SOL    HW2  622   1.556   0.597   0.409 -0.0725 -0.4948 -0.3629
  148SOL    HW3  623   1.558   0.507   0.531 -0.4431 -0.1859 -0.1276
  148SOL    MW4  624   1.564   0.518   0.445 -0.0904 -0.3928 -0.1316
  149SOL     OW  625   0.292   3.307   0.310  0.5417  0.5595 -0.5192
  149SOL    HW2  626   0.286   3.390   0.357 -0.0067  0.8313 -1.0639
  149SOL    HW3  627   0.291   3.331   0.217 -1.0804 -0.1245 -0.7042
  149SOL    MW4  628   0.291   3.321   0.304  0.2553  0.5051 -0.6155
  150SOL     OW  629   4.280   2.318   0.819  0.2927  0.5927 -0.7142
  150SOL    HW2  630   4.275   2.233   0.775  0.9896 -1.5207  3.0747
  150SOL    HW3  631   4.360   2.358   0.785  2.7512 -2.5208  1.0580
  150SOL    MW4  632   4.290   2.312   0.809  0.7090 -0.0969  0.0195
  151SOL     OW  633   3.359   0.458   0.655  0.4855 -0.0900  0.0066
  151SOL    HW2  634   3.444   0.425   0.687  0.5823  0.1135 -0.0423
  151SOL    HW3  635   3.354   0.426   0.564  1.0400  0.8854 -0.3759
  151SOL    MW4  636   3.370   0.449   0.647  0.5714  0.0655 -0.0503
  152SOL     OW  637   3.388   4.225   0.460 -0.1515 -0.4574  0.1087
  152SOL    HW2  638   3.315   4.184   0.507 -0.3257 -0.5930 -0.2819
  152SOL    HW3  639   3.457   4.159   0.460  0.2283 -0.0687  1.0996
  152SOL    MW4  640   3.388   4.211   0.466 -0.1244 -0.4240  0.1879
  153SOL     OW  641   2.871   4.044   0.540  0.3253  0.0328 -0.6992
  153SOL    HW2  642   2.958   4.081   0.558  0.0459  1.0603 -1.4177
  153SOL    HW3  643   2.835   4.100   0.471 -0.8024 -0.5541 -0.5988
  153SOL    MW4  644   2.878   4.056   0.533  0.1396  0.0909 -0.7807
  154SOL     OW  645   3.216   2.445   0.445  0.4611 -0.5287 -0.2440
  154SOL    HW2  646   3.311   2.451   0.453  0.2531  0.4350  1.5871
  154SOL    HW3  647   3.198   2.351   0.437  1.4702 -0.7992  0.6550
  154SOL    MW4  648   3.226   2.433   0.445  0.5668 -0.4373  0.1162
  155SOL     OW  649   1.086   3.616   0.478  0.0897 -0.2352 -0.2815
  155SOL    HW2  650   1.136   3.548   0.435 -0.0540 -0.8327  0.4768
  155SOL    HW3  651   1.077   3.586   0.569 -1.0974  0.1509 -0.2522
  155SOL    MW4  652   1.091   3.603   0.485 -0.0859 -0.2631 -0.1776
  156SOL     OW  653   0.666   0.777   0.835 -0.9526 -0.0209  0.0825
  156SOL    HW2  654   0.591   0.835   0.822 -0.6434  0.0337 -1.5025
  156SOL    HW3  655   0.736   0.816   0.783 -0.1818 -0.7649  0.5546
  156SOL    MW4  656   0.665   0.790   0.827 -0.8101 -0.1119 -0.0643
  157SOL     OW  657   4.197   0.206   0.492  0.5395  0.1149  0.0085
  157SOL    HW2  658   4.166   0.172   0.408  0.3818 -0.1047  0.1548
  157SOL    HW3  659   4.291   0.188   0.492  0.1831 -1.8692  0.8071
  157SOL    MW4  660   4.205   0.199   0.481  0.4717 -0.1759  0.1332
  158SOL     OW  661   3.587   1.617   0.763  0.3090  0.4985 -0.1228
  158SOL    HW2  662   3.672   1.586   0.795 -0.0560  0.5683  0.9310
  158SOL    HW3  663   3.527   1.545   0.780  0.2378  0.2842 -1.2659
  158SOL    MW4  664   3.591   1.603   0.770  0.2514  0.4794 -0.1346
  159SOL     OW  665   2.204   1.674   0.453 -0.2554  0.0641  0.1211
  159SOL    HW2  666   2.129   1.672   0.393  0.0731  1.8528 -0.3751
  159SOL    HW3  667   2.276   1.637   0.402  0.3604  2.8366 -1.1308
  159SOL    MW4  668   2.203   1.669   0.438 -0.1308  0.6659 -0.1096
  160SOL     OW  669   1.785   0.125   0.732 -0.3283  0.0243 -0.0705
  160SOL    HW2  670   1.863   0.083   0.767 -0.2693 -0.3871 -0.6937
  160SOL    HW3  671   1.711   0.077   0.769 -0.3592  1.9843  2.5348
  160SOL    MW4  672   1.785   0.113   0.741 -0.3246  0.2286  0.1910
  161SOL     OW  673   3.216   2.125   0.491 -0.3232 -0.4962 -0.5473
  161SOL    HW2  674   3.259   2.113   0.575  1.2522  0.6305 -1.1558
  161SOL    HW3  675   3.246   2.051   0.438  0.9316  0.3106 -0.9835
  161SOL    MW4  676   3.226   2.114   0.495  0.0502 -0.2411 -0.6851
  162SOL     OW  677   2.002   3.250   0.743  0.2794  0.2218 -0.1998
  162SOL    HW2  678   2.075   3.296   0.784  0.1792  0.1604  0.0472
  162SOL    HW3  679   1.924   3.294   0.776  0.1711 -0.3090  0.2659
  162SOL    MW4  680   2.001   3.262   0.752  0.2519  0.1437 -0.1058
  163SOL     OW  681   2.870   4.361   0.714  0.2873  0.2106  0.4269
  163SOL    HW2  682   2.889   4.380   0.622 -2.2182  0.9856  0.0405
  163SOL    HW3  683   2.888   4.444   0.760  0.3182  0.1885  0.4547
  163SOL    MW4  684   2.875   4.375   0.708 -0.0392  0.3099  0.3796
  164SOL     OW  685   1.112   4.393   0.796 -0.4926  0.4166 -0.2667
  164SOL    HW2  686   1.111   4.379   0.701 -0.1122  1.0527 -0.3694
  164SOL    HW3  687   1.045   4.333   0.830  0.2251 -0.6971 -0.8093
  164SOL    MW4  688   1.103   4.383   0.788 -0.3477  0.3536 -0.3518
  165SOL     OW  689   3.591   0.336   0.783 -0.1283 -0.2994 -0.0504
  165SOL    HW2  690   3.578   0.241   0.771 -2.2721 -0.0973  0.4995
  165SOL    HW3  691   3.579   0.350   0.877 -0.1490  0.5668 -0.1804
  165SOL    MW4  692   3.588   0.325   0.794 -0.4138 -0.1584  0.0050
  166SOL     OW  693   1.142   2.896   0.492 -0.3302  0.3472 -0.3559
  166SOL    HW2  694   1.190   2.833   0.438  0.7044 -0.7623  1.7713
  166SOL    HW3  695   1.192   2.977   0.484 -0.1770  0.1867 -1.0538
  166SOL    MW4  696   1.155   2.898   0.484 -0.1735  0.1797 -0.1673
  167SOL     OW  697   0.013   0.872   0.704 -0.0190  0.2455  0.2918
  167SOL    HW2  698  -0.013   0.888   0.614  1.7757  1.6772 -0.0038
  167SOL    HW3  699  -0.065   0.836   0.746 -0.8574 -0.4876 -1.8298
  167SOL    MW4  700  -0.001   0.869   0.698  0.1072  0.3377 -0.0271
  168SOL     OW  701   2.580   2.754   0.441 -0.1006 -0.1255  0.2243
  168SOL    HW2  702   2.559   2.796   0.357  1.5667  1.0954  0.3920
  168SOL    HW3  703   2.495   2.732   0.478 -0.8670 -0.9456 -1.9138
  168SOL    MW4  704   2.566   2.757   0.435  0.0183 -0.0726 -0.0356
  169SOL     OW  705   2.260   3.894   0.800 -0.2139  0.0787 -0.1678
  169SOL    HW2  706   2.275   3.987   0.821  0.2292 -0.1508  0.5402
  169SOL    HW3  707   2.171   3.877   0.832  0.7591 -0.4921  2.3897
  169SOL    MW4  708   2.250   3.904   0.807 -0.0270 -0.0269  0.2630
  170SOL     OW  709   3.122   3.846   0.654 -0.3397 -0.4510  0.2996
  170SOL    HW2  710   3.034   3.845   0.693 -1.4471  1.7373 -1.9782
  170SOL    HW3  711   3.181   3.858   0.728 -2.0538 -0.5420  1.7182
  170SOL    MW4  712   3.118   3.847   0.668 -0.7120 -0.1743  0.1862
  171SOL     OW  713   2.410   0.729   0.343 -0.4173  0.0022  0.3011
  171SOL    HW2  714   2.408   0.736   0.248  0.1464  2.7441  0.4621
  171SOL    HW3  715   2.495   0.765   0.368  0.0907 -2.0881  1.7778
  171SOL    MW4  716   2.421   0.734   0.334 -0.2759  0.0882  0.5172
  172SOL     OW  717   1.471   3.042   0.029  0.4200 -0.6059  0.1085
  172SOL    HW2  718   1.463   3.040  -0.066  0.0225  1.5071  0.0655
  172SOL    HW3  719   1.532   2.971   0.050  0.2247 -1.3148 -1.6837
  172SOL    MW4  720   1.478   3.032   0.019  0.3418 -0.4207 -0.1336
  173SOL     OW  721   3.545   1.646   0.478  0.0769  0.2297 -0.4478
  173SOL    HW2  722   3.544   1.620   0.570 -1.1063 -0.1182 -0.5547
  173SOL    HW3  723   3.503   1.573   0.432 -0.0952  0.7772 -1.1683
  173SOL    MW4  724   3.539   1.633   0.484 -0.1019  0.2561 -0.5570
  174SOL     OW  725   1.274   3.132   0.456 -0.0573 -0.3516  0.5078
  174SOL    HW2  726   1.203   3.153   0.395  0.1148  0.8391  0.7115
  174SOL    HW3  727   1.352   3.125   0.400  0.0816  0.6390  0.5646
  174SOL    MW4  728   1.275   3.134   0.440 -0.0163 -0.0638  0.5422
  175SOL     OW  729   3.289   1.394   0.486 -0.0220 -0.5217 -0.4445
  175SOL    HW2  730   3.244   1.359   0.409  0.3503  0.2570 -1.0251
  175SOL    HW3  731   3.237   1.470   0.512  0.4112 -0.1946 -0.5314
  175SOL    MW4  732   3.276   1.400   0.479  0.0843 -0.3758 -0.5326
  176SOL     OW  733   2.177   0.930   0.721 -0.1753 -0.2694  0.5933
  176SOL    HW2  734   2.255   0.882   0.747 -0.9317 -2.1958 -0.6068
  176SOL    HW3  735   2.181   0.934   0.625 -1.1271  0.3443  0.5610
  176SOL    MW4  736   2.187   0.924   0.712 -0.4007 -0.4426  0.4307
  177SOL     OW  737   2.911   3.110   1.085 -0.1644 -0.4851  0.1027
  177SOL    HW2  738   2.835   3.155   1.123 -0.8744 -0.8506 -0.8839
  177SOL    HW3  739   2.911   3.024   1.127  0.0662 -0.2719  0.5500
  177SOL    MW4  740   2.901   3.105   1.096 -0.2276 -0.5052  0.0316
  178SOL     OW  741   1.781   3.062   0.404 -0.4263  0.1231 -0.3566
  178SOL    HW2  742   1.824   2.987   0.364  1.1615  0.2015  1.1817
  178SOL    HW3  743   1.736   3.027   0.481 -3.4997 -0.0304 -2.1303
  178SOL    MW4  744   1.781   3.047   0.409 -0.6223  0.1132 -0.3877
  179SOL     OW  745   3.844   1.502   0.837 -0.7554  0.3418 -0.4281
  179SOL    HW2  746   3.844   1.430   0.774  0.6872  1.4266 -1.6958
  179SOL    HW3  747   3.903   1.567   0.799 -1.2874  1.7839  1.1714
  179SOL    MW4  748   3.852   1.501   0.824 -0.6352  0.6752 -0.3844
  180SOL     OW  749   1.988   4.041   0.205 -0.2551  0.0860 -0.0115
  180SOL    HW2  750   1.980   3.953   0.241 -0.3866 -0.1464 -0.5993
  180SOL    HW3  751   1.946   4.097   0.270 -0.8313 -0.3713  0.0147
  180SOL    MW4  752   1.982   4.037   0.219 -0.3485 -0.0050 -0.0856
  181SOL     OW  753   3.824   1.067   0.378  0.7381 -0.0631 -0.3245
  181SOL    HW2  754   3.760   1.017   0.327  0.9623  0.1255 -0.7917
  181SOL    HW3  755   3.777   1.092   0.457  0.0673  0.5334 -0.9068
  181SOL    MW4  756   3.809   1.063   0.382  0.6792  0.0405 -0.4630
  182SOL     OW  757   0.634   3.833   0.861  0.0969  0.3610  0.3702
  182SOL    HW2  758   0.566   3.883   0.817 -0.9310 -2.1356 -0.9868
  182SOL    HW3  759   0.716   3.870   0.828 -0.6043  2.4082  0.8934
  182SOL    MW4  760   0.636   3.844   0.851 -0.1312  0.3017  0.2602
  183SOL     OW  761   4.123   0.475   0.477  0.1149  0.4374  0.6258
  183SOL    HW2  762   4.029   0.460   0.477  0.2327 -0.2975  0.5186
  183SOL    HW3  763   4.162   0.389   0.464  0.8040  0.7383  0.6404
  183SOL    MW4  764   4.116   0.462   0.476  0.2214  0.3802  0.6136
  184SOL     OW  765   3.518   3.098   0.495  0.0112 -0.3285 -0.0390
  184SOL    HW2  766   3.590   3.108   0.433 -0.6443  0.9544 -0.6001
  184SOL    HW3  767   3.479   3.013   0.473  1.0296 -0.8046 -0.0473
  184SOL    MW4  768   3.522   3.088   0.484  0.0591 -0.2221 -0.1141
  185SOL     OW  769   2.885   3.112   0.812 -0.0093 -0.0311  0.4124
  185SOL    HW2  770   2.891   3.020   0.785  1.0697 -0.2011  1.1984
  185SOL    HW3  771   2.898   3.110   0.907  0.2410  0.9566  0.4057
  185SOL    MW4  772   2.888   3.099   0.821  0.1660  0.0768  0.5152
  186SOL     OW  773   1.290   0.879   0.713 -0.0979 -0.0925  0.3154
  186SOL    HW2  774   1.313   0.904   0.624  0.0694 -0.0796  0.3623
  186SOL    HW3  775   1.364   0.826   0.744  0.1639  0.4805  0.6876
  186SOL    MW4  776   1.303   0.875   0.706 -0.0413 -0.0152  0.3707
  187SOL     OW  777   0.180   1.277   0.766  0.4872  0.1796 -0.0449
  187SOL    HW2  778   0.105   1.227   0.799  0.6090 -1.0357 -1.5432
  187SOL    HW3  779   0.172   1.272   0.671 -0.2014  4.0991 -0.2824
  187SOL    MW4  780   0.169   1.270   0.758  0.4125  0.5364 -0.2739
  188SOL     OW  781   1.742   1.688   0.775 -0.0541  0.0227 -0.0171
  188SOL    HW2  782   1.749   1.781   0.795  0.8799 -0.3876  1.5971
  188SOL    HW3  783   1.825   1.650   0.803 -0.6693 -1.4130 -0.0777
  188SOL    MW4  784   1.754   1.695   0.781 -0.0120 -0.2209  0.1879
  189SOL     OW  785   1.230   1.808   0.131 -0.0196  0.3058 -0.0773
  189SOL    HW2  786   1.235   1.713   0.115  1.4849  0.3966 -0.2508
  189SOL    HW3  787   1.197   1.844   0.049 -0.3612 -0.0415 -0.0963
  189SOL    MW4  788   1.226   1.800   0.118  0.1339  0.2720 -0.1027
  190SOL     OW  789   3.688   1.093   0.624  0.1430 -0.0739  0.1521
  190SOL    HW2  790   3.602   1.121   0.593 -0.0456 -1.9218 -1.0611
  190SOL    HW3  791   3.673   1.007   0.662  1.4430 -0.3408  0.0779
  190SOL    MW4  792   3.675   1.086   0.625  0.2896 -0.3529 -0.0178
  191SOL     OW  793   0.723   0.727   0.313 -0.2806  0.2267  0.1306
  191SOL    HW2  794   0.647   0.741   0.370 -1.8651  0.3007 -1.9107
  191SOL    HW3  795   0.728   0.632   0.304  1.0191  0.1223  1.7076
  191SOL    MW4  796   0.714   0.716   0.319 -0.3182  0.2227  0.0694
  192SOL     OW  797   0.774   1.716   0.648 -0.5100 -0.0937  0.3702
  192SOL    HW2  798   0.847   1.673   0.604 -1.5394 -0.8824 -0.6089
  192SOL    HW3  799   0.811   1.797   0.684  0.5724  0.1146 -1.1664
  192SOL    MW4  800   0.788   1.721   0.647 -0.5030 -0.1703  0.0383
  193SOL     OW  801   4.254   3.624   0.729 -0.3283  0.4085  0.2545
  193SOL    HW2  802   4.249   3.614   0.634 -1.0355  1.8593  0.1234
  193SOL    HW3  803   4.177   3.578   0.762 -0.7014  0.8731  0.0382
  193SOL    MW4  804   4.244   3.616   0.721 -0.4708  0.6612  0.2087
  194SOL     OW  805   3.089   1.451   0.730  0.3598 -0.2910 -0.2066
  194SOL    HW2  806   3.110   1.510   0.658  2.4334 -0.4220  0.2730
  194SOL    HW3  807   3.042   1.505   0.793  0.5501  0.3741 -0.6338
  194SOL    MW4  808   3.086   1.466   0.729  0.6585 -0.2205 -0.1997
  195SOL     OW  809   4.464   3.231   0.692 -0.3246  0.0489 -0.1004
  195SOL    HW2  810   4.473   3.228   0.597 -0.8151  0.3617 -0.1594
  195SOL    HW3  811   4.541   3.184   0.725  1.0547  1.9575 -0.5697
  195SOL    MW4  812   4.475   3.224   0.684 -0.2073  0.3420 -0.1701
  196SOL     OW  813   1.785   1.132   0.789  0.5400 -0.6381  0.2843
  196SOL    HW2  814   1.712   1.190   0.766 -0.1252 -1.1610  1.0666
  196SOL    HW3  815   1.863   1.180   0.761  0.0599  1.0236  1.7045
  196SOL    MW4  816   1.785   1.146   0.782  0.3889 -0.4878  0.5749
  197SOL     OW  817   1.842   1.442   0.389  0.0546  0.1577  0.3485
  197SOL    HW2  818   1.802   1.355   0.381 -2.5116  1.5831 -3.1823
  197SOL    HW3  819   1.774   1.497   0.427  0.8367  1.1990  0.2554
  197SOL    MW4  820   1.828   1.438   0.393 -0.1808  0.4831 -0.1296
  198SOL     OW  821   1.527   0.785   0.323  0.6833 -0.0053 -0.1936
  198SOL    HW2  822   1.478   0.746   0.251  0.4932 -0.0710 -0.0291
  198SOL    HW3  823   1.464   0.845   0.364  1.0989  0.7848 -0.7035
  198SOL    MW4  824   1.512   0.788   0.319  0.7131  0.0903 -0.2392
  199SOL     OW  825   0.539   3.976   0.431  0.2803  0.0645 -0.1511
  199SOL    HW2  826   0.634   3.986   0.429  0.2669  0.2732  0.2857
  199SOL    HW3  827   0.516   3.982   0.523 -0.1413 -0.1420 -0.2415
  199SOL    MW4  828   0.549   3.978   0.443  0.2229  0.0648 -0.1054
  200SOL     OW  829   3.119   3.236   0.428 -0.2169 -0.2451 -0.4367
  200SOL    HW2  830   3.083   3.149   0.409 -0.3444 -0.1006 -0.8726
  200SOL    HW3  831   3.134   3.236   0.522  0.0844 -0.8596 -0.4789
  200SOL    MW4  832   3.116   3.225   0.438 -0.1939 -0.3071 -0.4997
  201SOL     OW  833   1.092   3.201   0.274 -0.0540 -0.2119  0.3678
  201SOL    HW2  834   1.019   3.219   0.333 -1.0722 -0.4197 -0.8239
  201SOL    HW3  835   1.150   3.276   0.283 -0.9353  0.4505  0.5101
  201SOL    MW4  836   1.090   3.213   0.283 -0.3046 -0.1519  0.2294
  202SOL     OW  837   0.881   2.477   0.682 -0.1921 -0.0763  0.0401
  202SOL    HW2  838   0.962   2.428   0.696 -0.9921 -0.3692  4.0891
  202SOL    HW3  839   0.893   2.557   0.733 -1.2301  1.3451 -1.8862
  202SOL    MW4  840   0.894   2.481   0.691 -0.4346  0.0726  0.3202
  203SOL     OW  841   2.465   4.356   0.763  0.4838  0.0908 -0.1566
  203SOL    HW2  842   2.534   4.293   0.781  0.0210 -0.3313  0.1715
  203SOL    HW3  843   2.474   4.377   0.670 -0.8142 -2.2313 -0.8521
  203SOL    MW4  844   2.475   4.351   0.753  0.2515 -0.2713 -0.2051
  204SOL     OW  845   2.045   0.467   0.711 -0.2662  0.4829 -0.1406
  204SOL    HW2  846   2.030   0.560   0.731 -1.6947  0.4135 -0.8220
  204SOL    HW3  847   2.031   0.461   0.616 -1.6677 -0.7021  0.1194
  204SOL    MW4  848   2.041   0.479   0.701 -0.6396  0.3174 -0.1962
  205SOL     OW  849   1.160   2.822   0.748 -0.2879 -0.3277 -0.4228
  205SOL    HW2  850   1.142   2.903   0.795  1.0448  0.1147 -0.6428
  205SOL    HW3  851   1.156   2.846   0.656  0.6037 -0.3833 -0.4837
  205SOL    MW4  852   1.157   2.836   0.742  0.0055 -0.2767 -0.4599
  206SOL     OW  853   0.691   4.404   0.504  0.3797  0.0689 -0.0119
  206SOL    HW2  854   0.688   4.413   0.600 -1.8769 -0.5285 -0.0039
  206SOL    HW3  855   0.694   4.494   0.472 -0.9194  0.3317  0.5779
  206SOL    MW4  856   0.691   4.417   0.513 -0.0895  0.0248  0.0669
  207SOL     OW  857   4.022   1.157   0.819  0.4077 -0.5310 -0.0932
  207SOL    HW2  858   4.115   1.167   0.798  0.3380 -0.6533 -0.4700
  207SOL    HW3  859   4.019   1.158   0.915  0.8827 -1.2982 -0.0712
  207SOL    MW4  860   4.034   1.159   0.829  0.4612 -0.6483 -0.1400
  208SOL     OW  861   0.108   4.012   0.486  0.3068 -0.3968 -0.0987
  208SOL    HW2  862   0.121   3.920   0.463 -0.3114 -0.3834 -0.4939
  208SOL    HW3  863   0.019   4.032   0.459  0.2877  0.2007  0.3882
  208SOL    MW4  864   0.098   4.003   0.479  0.2227 -0.3162 -0.0866
  209SOL     OW  865   1.586   2.085   0.725  0.3555 -0.1069  0.0000
  209SOL    HW2  866   1.608   2.071   0.633 -1.7483  1.8137 -0.8198
  209SOL    HW3  867   1.503   2.038   0.737  0.5352 -0.2020  0.8752
  209SOL    MW4  868   1.578   2.077   0.714  0.1016  0.1340  0.0073
  210SOL     OW  869   4.214   3.119   0.795  0.3713 -0.3430  0.2975
  210SOL    HW2  870   4.224   3.027   0.769  1.0157 -0.0706 -0.4396
  210SOL    HW3  871   4.285   3.164   0.749 -0.0147  0.5427  0.5694
  210SOL    MW4  872   4.225   3.113   0.785  0.4054 -0.1902  0.2362
  211SOL     OW  873   0.877   0.135   0.738  0.0491  0.2971  0.4930
  211SOL    HW2  874   0.802   0.101   0.788 -1.0227  0.0877 -1.2380
  211SOL    HW3  875   0.877   0.229   0.756  0.0218  0.1371  1.3453
  211SOL    MW4  876   0.867   0.143   0.747 -0.0959  0.2484  0.3771
  212SOL     OW  877   1.975   1.556   0.879 -0.5022  0.0992  0.4526
  212SOL    HW2  878   2.056   1.599   0.851 -0.3269 -0.2511  0.4138
  212SOL    HW3  879   1.989   1.464   0.859 -0.6206 -0.0705  1.1309
  212SOL    MW4  880   1.988   1.550   0.872 -0.4947  0.0306  0.5369
  213SOL     OW  881   2.901   2.860   0.695 -0.3360 -0.3562 -0.0539
  213SOL    HW2  882   2.868   2.793   0.636  1.1401  0.9495 -2.4672
  213SOL    HW3  883   2.976   2.819   0.739 -0.4081 -0.7932 -0.3380
  213SOL    MW4  884   2.907   2.846   0.693 -0.1508 -0.2416 -0.4098
  214SOL     OW  885   3.159   4.105   0.595 -0.2405 -0.2000 -0.3930
  214SOL    HW2  886   3.140   4.012   0.606 -0.6803 -0.1822 -0.9804
  214SOL    HW3  887   3.153   4.141   0.684  1.1379 -0.9418  0.0218
  214SOL    MW4  888   3.155   4.097   0.608 -0.1167 -0.2955 -0.4158
  215SOL     OW  889   0.343   1.675   0.687  0.1751 -0.0408 -0.2091
  215SOL    HW2  890   0.423   1.633   0.717 -0.4574 -1.7778 -0.8387
  215SOL    HW3  891   0.275   1.641   0.746 -0.1793  1.0438  0.0232
  215SOL    MW4  892   0.344   1.665   0.699  0.0449 -0.1269 -0.2615
  216SOL     OW  893   2.479   2.057   0.532  0.1247  0.3495 -0.0768
  216SOL    HW2  894   2.465   2.071   0.626  0.4756 -1.2880  0.2458
  216SOL    HW3  895   2.555   2.111   0.511 -0.4087  1.3026  0.4138
  216SOL    MW4  896   2.487   2.066   0.542  0.1006  0.2592  0.0305
  217SOL     OW  897   3.095   0.182   0.349 -0.1294  0.2302 -0.0349
  217SOL    HW2  898   3.183   0.146   0.336  0.2599  1.3004 -0.3916
  217SOL    HW3  899   3.105   0.276   0.338 -1.5352  0.2686 -1.2309
  217SOL    MW4  900   3.108   0.190   0.346 -0.2635  0.3765 -0.2398
  218SOL     OW  901   2.483   4.030   0.587  0.0253  0.5104 -0.0919
  218SOL    HW2  902   2.486   4.109   0.533  1.9061 -0.6768 -1.8427
  218SOL    HW3  903   2.417   3.975   0.545 -0.6632  0.8073  0.6068
  218SOL    MW4  904   2.475   4.033   0.574  0.1826  0.3930 -0.2307
  219SOL     OW  905   1.005   2.562   0.319  0.2512  0.0683 -0.3466
  219SOL    HW2  906   1.036   2.484   0.274 -0.0611 -0.3389  0.1382
  219SOL    HW3  907   1.082   2.618   0.328  0.8824 -0.9871  0.9720
  219SOL    MW4  908   1.019   2.559   0.314  0.2933 -0.1247 -0.1087
  220SOL     OW  909   2.229   4.208   0.839  0.6891 -0.3302  0.0432
  220SOL    HW2  910   2.152   4.264   0.830 -0.2594 -1.5986  0.3210
  220SOL    HW3  911   2.301   4.263   0.807 -0.0391  1.5092  1.4783
  220SOL    MW4  912   2.229   4.223   0.834  0.4679 -0.2548  0.2692
  221SOL     OW  913   3.120   3.231   0.713 -0.2714  0.1459  0.4009
  221SOL    HW2  914   3.197   3.187   0.749 -1.0920 -0.9041  0.8970
  221SOL    HW3  915   3.047   3.175   0.739 -1.1369  0.8145 -0.5993
  221SOL    MW4  916   3.121   3.218   0.721 -0.4938  0.0956  0.3344
  222SOL     OW  917   1.777   3.946   0.510 -0.4611 -0.1158  0.1276
  222SOL    HW2  918   1.701   3.903   0.471 -1.0655 -0.1078  1.2844
  222SOL    HW3  919   1.768   4.038   0.486 -1.1002 -0.0260  0.6966
  222SOL    MW4  920   1.766   3.953   0.502 -0.6252 -0.1029  0.3553
  223SOL     OW  921   4.053   2.745   0.351 -0.1651  0.4327  0.1627
  223SOL    HW2  922   3.996   2.817   0.378  0.1492  1.3576 -1.5388
  223SOL    HW3  923   4.011   2.709   0.273  1.3179  0.8111 -0.8200
  223SOL    MW4  924   4.040   2.750   0.344  0.0720  0.6046 -0.1915
  224SOL     OW  925   1.348   0.370   0.811 -0.1340  0.0930  0.1906
  224SOL    HW2  926   1.262   0.391   0.775 -0.3678  0.0037  0.6924
  224SOL    HW3  927   1.348   0.411   0.898  0.5228  0.5302 -0.0082
  224SOL    MW4  928   1.337   0.378   0.818 -0.0782  0.1389  0.2306
  225SOL     OW  929   3.109   3.647   0.452 -0.4795  0.1300 -0.5968
  225SOL    HW2  930   3.047   3.578   0.473  0.0585 -0.1433  0.1077
  225SOL    HW3  931   3.114   3.701   0.531  0.5610 -0.1544 -0.4501
  225SOL    MW4  932   3.102   3.645   0.465 -0.2712  0.0564 -0.4845
  226SOL     OW  933   2.891   4.619   0.763 -0.3748 -0.5890  0.5397
  226SOL    HW2  934   2.950   4.667   0.704 -0.6982  0.3025  0.9323
  226SOL    HW3  935   2.803   4.643   0.734 -0.5441  0.5791  1.9315
  226SOL    MW4  936   2.887   4.629   0.752 -0.4398 -0.3172  0.7751
  227SOL     OW  937   1.692   2.622   0.874 -0.4112  0.2237 -0.3990
  227SOL    HW2  938   1.672   2.528   0.871  0.2798  0.0738 -0.4896
  227SOL    HW3  939   1.612   2.665   0.844 -0.5839 -0.3602 -0.7800
  227SOL    MW4  940   1.679   2.615   0.870 -0.3428  0.1269 -0.4612
  228SOL     OW  941   0.017   1.947   0.802  0.3490 -0.2652 -0.1957
  228SOL    HW2  942   0.083   2.003   0.759  1.2063  0.6433  2.1969
  228SOL    HW3  943  -0.063   1.999   0.799  0.3210 -0.3481 -0.9846
  228SOL    MW4  944   0.015   1.961   0.796  0.4584 -0.1563  0.0159
  229SOL     OW  945   1.766   4.272   0.867 -0.2773  0.2228  0.2324
  229SOL    HW2  946   1.766   4.177   0.857 -0.6546  0.1968  0.4382
  229SOL    HW3  947   1.776   4.286   0.961 -0.8981  0.3693  0.2799
  229SOL    MW4  948   1.767   4.261   0.878 -0.4090  0.2387  0.2658
  230SOL     OW  949   2.025   2.106   0.748  0.1120 -0.4193 -0.5417
  230SOL    HW2  950   2.023   2.104   0.653 -1.3304 -0.1620 -0.5293
  230SOL    HW3  951   2.057   2.194   0.770  0.0495 -0.3330 -0.7958
  230SOL    MW4  952   2.029   2.118   0.739 -0.0865 -0.3740 -0.5736
  231SOL     OW  953   2.888   3.536   0.754 -0.0685  0.0002  0.3775
  231SOL    HW2  954   2.834   3.461   0.780 -0.3356 -0.0020 -0.1656
  231SOL    HW3  955   2.914   3.516   0.664 -0.2266  0.6094  0.1987
  231SOL    MW4  956   2.884   3.523   0.746 -0.1246  0.0803  0.2823
  232SOL     OW  957   2.091   2.354   0.838  0.1996 -0.0890 -0.2175
  232SOL    HW2  958   2.077   2.443   0.806  1.1731  0.4970  0.9572
  232SOL    HW3  959   2.076   2.359   0.932  2.8843 -0.5652  0.2908
  232SOL    MW4  960   2.087   2.366   0.846  0.6822 -0.0745  0.0045
  233SOL     OW  961   0.449   3.448   0.827  0.2070  0.2336 -0.0469
  233SOL    HW2  962   0.527   3.498   0.801  0.9847 -0.8447  0.1988
  233SOL    HW3  963   0.449   3.453   0.923 -1.3822  2.2609 -0.1067
  233SOL    MW4  964   0.460   3.455   0.836  0.0999  0.3588 -0.0224
  234SOL     OW  965   2.449   1.589   0.341 -0.0113  0.1587  0.2205
  234SOL    HW2  966   2.494   1.582   0.257  1.6564  0.7372  1.0351
  234SOL    HW3  967   2.473   1.509   0.388 -0.5631  0.0493  0.3203
  234SOL    MW4  968   2.458   1.577   0.336  0.1360  0.2206  0.3412
  235SOL     OW  969   2.471   4.615   0.872 -0.0774 -0.0066  0.7268
  235SOL    HW2  970   2.449   4.616   0.965 -0.5160 -0.9051  0.6433
  235SOL    HW3  971   2.496   4.524   0.855 -1.0445 -0.0995 -0.2671
  235SOL    MW4  972   2.472   4.603   0.882 -0.2629 -0.1374  0.5847
  236SOL     OW  973   3.873   0.365   0.462  0.0034 -0.0084  0.0239
  236SOL    HW2  974   3.869   0.394   0.553  1.8883 -0.1698  0.1819
  236SOL    HW3  975   3.800   0.408   0.419 -0.0210  1.2331  1.2942
  236SOL    MW4  976   3.863   0.374   0.468  0.2489  0.1341  0.2124
  237SOL     OW  977   2.218   3.363   0.877  0.4259  0.0024  0.1555
  237SOL    HW2  978   2.297   3.312   0.860  1.1616  1.3166 -0.4826
  237SOL    HW3  979   2.228   3.441   0.822 -1.2865  0.2121  0.1237
  237SOL    MW4  980   2.230   3.367   0.867  0.2970  0.2034  0.0671
  238SOL     OW  981   3.817   3.600   0.474 -0.3003 -0.1855 -0.0291
  238SOL    HW2  982   3.798   3.603   0.567  1.2221  1.9642  0.2496
  238SOL    HW3  983   3.744   3.647   0.433  0.9395  2.2060  0.4412
  238SOL    MW4  984   3.805   3.607   0.481  0.0642  0.4136  0.0698
  239SOL     OW  985   2.000   0.730   0.791 -0.0314  0.0159 -0.0275
  239SOL    HW2  986   2.041   0.809   0.756  0.9973 -0.2494  0.5481
  239SOL    HW3  987   1.996   0.746   0.885  0.3779 -0.7001  0.1131
  239SOL    MW4  988   2.005   0.743   0.799  0.1584 -0.1136  0.0670
  240SOL     OW  989   3.797   3.860   0.874 -0.3822 -0.4315  0.0401
  240SOL    HW2  990   3.729   3.923   0.850  0.5644  0.7228  0.2946
  240SOL    HW3  991   3.876   3.894   0.831  0.0266 -1.7603 -0.2708
  240SOL    MW4  992   3.799   3.873   0.865 -0.2034 -0.4545  0.0327
  241SOL     OW  993   2.483   3.099   0.436  0.3211  0.3612  0.4218
  241SOL    HW2  994   2.392   3.124   0.425 -0.1035 -1.2007  0.2290
  241SOL    HW3  995   2.482   3.035   0.508  1.1575 -0.2205 -0.0694
  241SOL    MW4  996   2.471   3.094   0.444  0.3754  0.0784  0.3316
  242SOL     OW  997   0.223   4.407   0.716 -0.1951 -0.0075 -0.3624
  242SOL    HW2  998   0.153   4.361   0.764  1.3791 -0.8793  1.1804
  242SOL    HW3  999   0.222   4.368   0.629  0.2872 -2.1317  0.5445
  242SOL    MW4 1000   0.213   4.396   0.711  0.0762 -0.4028 -0.0392
  243SOL     OW 1001   0.238   4.653   0.851  0.5582  0.3060 -0.2969
  243SOL    HW2 1002   0.223   4.562   0.825  0.1388  0.5747 -1.0368
  243SOL    HW3 1003   0.155   4.697   0.831  1.1603  1.1030 -1.1121
  243SOL    MW4 1004   0.225   4.647   0.845  0.5823  0.4466 -0.5020
  244SOL     OW 1005   4.484   0.390   0.834  0.3423 -0.0526 -0.3332
  244SOL    HW2 1006   4.411   0.444   0.804  0.8684  0.4305 -0.7669
  244SOL    HW3 1007   4.478   0.389   0.929 -0.8288 -0.8572 -0.4106
  244SOL    MW4 1008   4.474   0.397   0.842  0.2572 -0.0950 -0.4006
  245SOL     OW 1009   4.065   3.978   0.516 -0.1869 -0.4302  0.1783
  245SOL    HW2 1010   4.042   3.976   0.609  0.3424 -1.1184  0.3002
  245SOL    HW3 1011   4.056   3.887   0.487  0.7379 -0.4154 -0.1736
  245SOL    MW4 1012   4.060   3.966   0.524  0.0049 -0.5191  0.1479
  246SOL     OW 1013   0.209   0.189   0.399  0.4033  0.3203 -0.2169
  246SOL    HW2 1014   0.212   0.128   0.325  0.5086 -0.6635  0.5844
  246SOL    HW3 1015   0.295   0.181   0.440 -0.8937 -2.0474  2.2827
  246SOL    MW4 1016   0.221   0.180   0.395  0.2461 -0.1219  0.2186
  247SOL     OW 1017   0.233   0.740   0.799 -0.0025 -0.0850  0.3121
  247SOL    HW2 1018   0.167   0.802   0.767  0.3285 -0.3324 -0.8441
  247SOL    HW3 1019   0.219   0.738   0.894 -0.7042  0.9663  0.2396
  247SOL    MW4 1020   0.223   0.748   0.807 -0.0514  0.0210  0.1500
  248SOL     OW 1021   1.642   0.190   0.192 -0.1242  0.1002  0.2190
  248SOL    HW2 1022   1.565   0.242   0.216 -0.1229  0.3939 -0.3943
  248SOL    HW3 1023   1.619   0.100   0.214 -0.6940  0.1705 -0.0902
  248SOL    MW4 1024   1.629   0.185   0.199 -0.1992  0.1483  0.0973
  249SOL     OW 1025   2.206   1.697   0.774 -0.1822 -0.3299  0.4766
  249SOL    HW2 1026   2.193   1.697   0.680 -1.8974 -0.3059  0.7050
  249SOL    HW3 1027   2.285   1.644   0.787 -0.6346 -1.3763 -0.8860
  249SOL    MW4 1028   2.215   1.690   0.764 -0.4682 -0.4648  0.3270
  250SOL     OW 1029   3.372   2.842   0.486 -0.2877 -0.0673  0.4396
  250SOL    HW2 1030   3.348   2.831   0.578 -0.0832  1.0004  0.6267
  250SOL    HW3 1031   3.297   2.808   0.438 -1.0974  0.8765  1.0116
  250SOL    MW4 1032   3.359   2.836   0.492 -0.3675  0.1981  0.5398
  251SOL     OW 1033   0.153   1.551   0.834 -0.2829  0.3752 -0.3592
  251SOL    HW2 1034   0.157   1.461   0.801  1.1871 -0.2066  1.3018
  251SOL    HW3 1035   0.081   1.592   0.785 -0.9776 -1.7015 -1.1276
  251SOL    MW4 1036   0.144   1.544   0.823 -0.1806  0.0244 -0.2414
  252SOL     OW 1037   4.438   1.696   0.694  0.0155  0.0978 -0.2632
  252SOL    HW2 1038   4.468   1.778   0.733  0.9239 -0.3143 -0.0935
  252SOL    HW3 1039   4.400   1.722   0.610 -0.4051  0.7822  0.1340
  252SOL    MW4 1040   4.437   1.710   0.688  0.0798  0.1337 -0.1884
  253SOL     OW 1041   3.599   2.734   0.806  0.7069  0.6423 -0.3470
  253SOL    HW2 1042   3.519   2.783   0.789  1.4384  2.1048  0.3551
  253SOL    HW3 1043   3.596   2.713   0.899 -0.7850 -2.8450 -1.1043
  253SOL    MW4 1044   3.588   2.737   0.816  0.6066  0.3751 -0.3543
  254SOL     OW 1045   4.458   0.105   0.495 -0.3721  0.0111  0.3948
  254SOL    HW2 1046   4.541   0.139   0.461 -1.1440  0.8496 -0.6750
  254SOL    HW3 1047   4.467   0.010   0.487  0.8174  0.0490  1.1000
  254SOL    MW4 1048   4.470   0.097   0.490 -0.3170  0.1268  0.3467
  255SOL     OW 1049   4.460   3.483   0.814 -0.2967 -0.3840  0.6193
  255SOL    HW2 1050   4.384   3.533   0.784  2.0515  1.1426 -3.2573
  255SOL    HW3 1051   4.452   3.399   0.770 -0.0199 -0.4007  0.5980
  255SOL    MW4 1052   4.449   3.479   0.804  0.0496 -0.1848  0.1051
  256SOL     OW 1053   3.814   2.321   0.748 -0.3021 -0.4140 -0.1015
  256SOL    HW2 1054   3.738   2.372   0.721 -0.3279 -0.4468 -0.0912
  256SOL    HW3 1055   3.811   2.322   0.844  1.2921  1.9553 -0.0364
  256SOL    MW4 1056   3.804   2.328   0.757 -0.0952 -0.1057 -0.0915
  257SOL     OW 1057   0.008   2.753   0.787 -0.4754 -0.2406  0.0585
  257SOL    HW2 1058  -0.003   2.748   0.882 -1.2758 -0.0288 -0.0162
  257SOL    HW3 1059   0.015   2.662   0.759 -2.0088 -0.3871  0.1273
  257SOL    MW4 1060   0.007   2.740   0.796 -0.7833 -0.2320  0.0577
  258SOL     OW 1061   0.207   3.113   0.806 -0.0553 -0.4962  0.1626
  258SOL    HW2 1062   0.219   3.027   0.766 -0.7974 -0.7579  0.4812
  258SOL    HW3 1063   0.233   3.101   0.897 -0.5178 -0.4826  0.2990
  258SOL    MW4 1064   0.212   3.100   0.813 -0.2142 -0.5289  0.2227
  259SOL     OW 1065   2.220   1.966   0.504 -0.1193 -0.3054 -0.0536
  259SOL    HW2 1066   2.221   1.876   0.470  0.6263 -0.2136 -0.2708
  259SOL    HW3 1067   2.308   1.999   0.487  0.1126 -0.0922  1.5563
  259SOL    MW4 1068   2.232   1.959   0.497  0.0097 -0.2651  0.1301
  260SOL     OW 1069   1.620   3.576   0.537 -0.2398  0.4336  0.4900
  260SOL    HW2 1070   1.603   3.661   0.498 -1.9517 -0.2195 -0.1993
  260SOL    HW3 1071   1.617   3.592   0.632  0.2522  1.2711  0.3728
  260SOL    MW4 1072   1.618   3.589   0.545 -0.4008  0.4579  0.3836
  261SOL     OW 1073   0.824   3.955   0.474  0.1760  0.0880 -0.5412
  261SOL    HW2 1074   0.840   4.047   0.455 -1.0917  0.3754 -0.2564
  261SOL    HW3 1075   0.848   3.944   0.566  0.0251  0.2077 -0.4876
  261SOL    MW4 1076   0.829   3.966   0.484 -0.0111  0.1417 -0.4965
  262SOL     OW 1077   2.627   3.367   0.486 -0.4589 -0.4757 -0.5424
  262SOL    HW2 1078   2.646   3.348   0.578  1.3944 -0.3012 -0.8783
  262SOL    HW3 1079   2.594   3.284   0.451 -1.3976 -0.4775  0.3337
  262SOL    MW4 1080   2.625   3.353   0.493 -0.3383 -0.4529 -0.4711
  263SOL     OW 1081   2.511   4.291   0.442  0.2305 -0.1819 -0.0587
  263SOL    HW2 1082   2.424   4.267   0.409 -0.3043 -0.6882  1.6400
  263SOL    HW3 1083   2.512   4.387   0.441 -0.8076 -0.1464  1.0102
  263SOL    MW4 1084   2.499   4.300   0.438  0.0230 -0.2440  0.3064
  264SOL     OW 1085   1.969   3.274   0.462  0.0110 -0.1824 -0.4774
  264SOL    HW2 1086   1.897   3.214   0.441 -0.2179 -0.0894  0.0249
  264SOL    HW3 1087   1.987   3.258   0.555 -0.1402  0.6151 -0.3036
  264SOL    MW4 1088   1.962   3.264   0.472 -0.0391 -0.0649 -0.3882
  265SOL     OW 1089   4.263   4.639   0.839  0.1146 -0.0349 -0.1296
  265SOL    HW2 1090   4.345   4.685   0.820  0.0755  0.4421  0.8623
  265SOL    HW3 1091   4.262   4.630   0.934 -1.5307  0.9492 -0.0448
  265SOL    MW4 1092   4.274   4.644   0.849 -0.1076  0.1579  0.0125
  266SOL     OW 1093   1.101   4.657   0.836  0.2577  0.6481 -0.2578
  266SOL    HW2 1094   1.026   4.687   0.785  0.2154  1.6605  0.4033
  266SOL    HW3 1095   1.106   4.563   0.817 -1.4578  0.4772  0.0660
  266SOL    MW4 1096   1.092   4.648   0.827  0.0258  0.7591 -0.1278
  267SOL     OW 1097   0.279   2.636   0.294 -0.0066 -0.4613  0.0632
  267SOL    HW2 1098   0.335   2.562   0.318 -0.1312 -1.1286 -1.6633
  267SOL    HW3 1099   0.193   2.597   0.278 -0.2147  0.1431 -0.2857
  267SOL    MW4 1100   0.275   2.621   0.295 -0.0505 -0.4696 -0.2106
  268SOL     OW 1101   4.023   1.671   0.706  0.0799 -0.6311 -0.0271
  268SOL    HW2 1102   4.020   1.670   0.610 -0.4490 -0.8326 -0.0107
  268SOL    HW3 1103   4.089   1.604   0.728  0.7827 -0.0238 -0.2660
  268SOL    MW4 1104   4.032   1.662   0.696  0.1028 -0.5776 -0.0565
  269SOL     OW 1105   3.389   3.305   0.378  0.1413 -0.1062  0.1776
  269SOL    HW2 1106   3.440   3.235   0.419  0.2569  0.4747  1.0580
  269SOL    HW3 1107   3.298   3.277   0.387  0.1468  0.1484  1.1097
  269SOL    MW4 1108   3.384   3.292   0.385  0.1573  0.0040  0.4167
  270SOL     OW 1109   3.775   4.310   0.265  0.4677  0.3515  0.6908
  270SOL    HW2 1110   3.792   4.218   0.283  1.9181  0.9863  2.6686
  270SOL    HW3 1111   3.789   4.319   0.171 -1.5895 -1.8185  0.1116
  270SOL    MW4 1112   3.779   4.299   0.255  0.3876  0.1489  0.8754
  271SOL     OW 1113   1.225   2.952   0.144 -0.5173  0.5192  0.3772
  271SOL    HW2 1114   1.175   3.033   0.157  0.9490  1.7206 -1.1566
  271SOL    HW3 1115   1.312   2.983   0.118 -0.1729 -1.5771 -1.0402
  271SOL    MW4 1116   1.230   2.967   0.142 -0.2784  0.4011 -0.0122
  272SOL     OW 1117   1.069   1.256   0.759  0.3345  0.1729  0.6491
  272SOL    HW2 1118   0.989   1.224   0.801  0.2585 -0.4147  0.0556
  272SOL    HW3 1119   1.062   1.352   0.766 -0.7749  0.1536 -0.0297
  272SOL    MW4 1120   1.057   1.265   0.765  0.1781  0.0929  0.4813
  273SOL     OW 1121   0.217   4.642   0.225  0.4068 -0.0690  0.0653
  273SOL    HW2 1122   0.172   4.638   0.140  0.1420  0.2224  0.1899
  273SOL    HW3 1123   0.157   4.599   0.285 -0.3007  1.4532  0.4863
  273SOL    MW4 1124   0.203   4.636   0.222  0.2785  0.1703  0.1373
  274SOL     OW 1125   0.468   2.880   0.407 -0.1858 -0.2557 -0.4824
  274SOL    HW2 1126   0.500   2.970   0.394 -0.2044  0.1181  1.8218
  274SOL    HW3 1127   0.548   2.827   0.414 -0.1225 -0.0133  0.7286
  274SOL    MW4 1128   0.483   2.885   0.406 -0.1799 -0.1744 -0.0186
  275SOL     OW 1129   0.683   3.597   0.729 -0.3857 -0.1125 -0.1780
  275SOL    HW2 1130   0.690   3.612   0.635 -1.6490  0.5455 -0.1818
  275SOL    HW3 1131   0.686   3.684   0.768 -0.1876 -0.3586  0.3748
  275SOL    MW4 1132   0.684   3.610   0.722 -0.5262 -0.0581 -0.1055
  276SOL     OW 1133   0.010   0.114   0.771  0.5838 -0.5451  0.3987
  276SOL    HW2 1134  -0.004   0.110   0.676  2.0214 -0.6435  0.1852
  276SOL    HW3 1135   0.022   0.207   0.789 -0.4194 -0.4516  0.5953
  276SOL    MW4 1136   0.010   0.126   0.761  0.6411 -0.5457  0.3965
  277SOL     OW 1137   1.331   3.221   0.759 -0.2316 -0.2569  0.2199
  277SOL    HW2 1138   1.322   3.222   0.663 -0.3090 -0.4602  0.2240
  277SOL    HW3 1139   1.377   3.138   0.777 -0.7697 -0.5177  0.4069
  277SOL    MW4 1140   1.336   3.210   0.749 -0.3128 -0.3182  0.2451
  278SOL     OW 1141   1.317   3.496   0.824 -0.2086 -0.0124  0.3404
  278SOL    HW2 1142   1.317   3.409   0.786 -0.4580  0.6037 -1.0826
  278SOL    HW3 1143   1.236   3.536   0.794  0.7184  1.3136 -0.4429
  278SOL    MW4 1144   1.307   3.490   0.815 -0.1192  0.2438  0.0493
  279SOL     OW 1145   2.462   3.773   0.331  0.2156 -0.4385  0.6593
  279SOL    HW2 1146   2.393   3.837   0.352  1.3171  0.3180  2.0874
  279SOL    HW3 1147   2.524   3.821   0.276 -0.2822 -1.0603 -0.4575
  279SOL    MW4 1148   2.461   3.788   0.327  0.2952 -0.4207  0.7003
  280SOL     OW 1149   0.218   2.301   0.815  0.1337  0.0838  0.2087
  280SOL    HW2 1150   0.199   2.280   0.907  0.8332 -0.4175  0.2463
  280SOL    HW3 1151   0.212   2.216   0.770  0.6433  0.1932 -0.0602
  280SOL    MW4 1152   0.215   2.287   0.822  0.2932  0.0321  0.1782
  281SOL     OW 1153   0.458   3.189   0.667 -0.1816 -0.0992  0.5753
  281SOL    HW2 1154   0.385   3.127   0.675  0.4273 -0.9983 -0.5337
  281SOL    HW3 1155   0.441   3.256   0.733 -1.3725 -0.9445  1.1428
  281SOL    MW4 1156   0.446   3.189   0.677 -0.2584 -0.3294  0.5039
  282SOL     OW 1157   2.110   2.607   0.727  0.0316 -0.1584  0.6839
  282SOL    HW2 1158   2.136   2.626   0.817  0.2135  0.3769  0.5146
  282SOL    HW3 1159   2.043   2.672   0.707  1.2456  0.8482 -0.1741
  282SOL    MW4 1160   2.105   2.618   0.737  0.2157  0.0450  0.5484
  283SOL     OW 1161   3.123   4.286   0.805 -0.3049  0.6241  0.2355
  283SOL    HW2 1162   3.163   4.355   0.752  0.4297 -1.5121 -2.1212
  283SOL    HW3 1163   3.030   4.289   0.782 -0.1007  0.1608 -0.6873
  283SOL    MW4 1164   3.116   4.296   0.795 -0.1811  0.2811 -0.1972
  284SOL     OW 1165   1.481   2.995   0.823 -0.1567 -0.1373 -0.0852
  284SOL    HW2 1166   1.447   2.909   0.846 -2.0708  1.1406  2.0084
  284SOL    HW3 1167   1.512   3.032   0.905 -1.7283  2.1759 -0.4743
  284SOL    MW4 1168   1.481   2.989   0.837 -0.6166  0.3365  0.1397
  285SOL     OW 1169   4.035   3.743   0.380 -0.2103  0.2206 -0.1821
  285SOL    HW2 1170   3.974   3.673   0.403 -0.7870  1.1310  1.1292
  285SOL    HW3 1171   4.006   3.775   0.295 -1.8635  0.9613  0.6394
  285SOL    MW4 1172   4.023   3.738   0.372 -0.5045  0.4384  0.0993
  286SOL     OW 1173   2.873   4.632   0.324 -0.0164 -0.0809 -0.6095
  286SOL    HW2 1174   2.926   4.711   0.321  0.1993 -0.1496  0.8014
  286SOL    HW3 1175   2.784   4.663   0.338 -0.2871  0.0060 -2.3900
  286SOL    MW4 1176   2.868   4.647   0.326 -0.0237 -0.0785 -0.6583
  287SOL     OW 1177   3.387   3.579   0.475  0.2179 -0.5100 -0.3191
  287SOL    HW2 1178   3.296   3.606   0.463  0.1871  0.1611  1.3158
  287SOL    HW3 1179   3.390   3.491   0.436 -0.6939  0.1301 -1.9157
  287SOL    MW4 1180   3.375   3.571   0.468  0.0935 -0.3370 -0.3141
  288SOL     OW 1181   1.557   2.517   0.493 -0.2110  0.5487 -0.1925
  288SOL    HW2 1182   1.597   2.432   0.474  0.0968  0.4849  0.7027
  288SOL    HW3 1183   1.495   2.499   0.563  1.1028  1.3515  1.2101
  288SOL    MW4 1184   1.554   2.503   0.500  0.0029  0.6462  0.1106
  289SOL     OW 1185   0.016   4.263   0.826  0.2784 -0.1239  0.1652
  289SOL    HW2 1186   0.023   4.169   0.813  2.1708 -0.1586  1.3167
  289SOL    HW3 1187  -0.005   4.273   0.919  1.1848  0.6244  0.2908
  289SOL    MW4 1188   0.014   4.252   0.836  0.6477 -0.0297  0.3337
  290SOL     OW 1189   1.569   4.390   0.704  0.1830 -0.1191  0.1165
  290SOL    HW2 1190   1.629   4.348   0.767  1.0749  0.8760 -0.0485
  290SOL    HW3 1191   1.563   4.480   0.734  1.0956  0.5261 -1.5744
  290SOL    MW4 1192   1.576   4.396   0.716  0.4211  0.0973 -0.1284
  291SOL     OW 1193   1.713   1.182   0.334  0.1850 -0.2603 -0.1891
  291SOL    HW2 1194   1.738   1.094   0.361  2.9463 -0.1054 -2.0296
  291SOL    HW3 1195   1.725   1.183   0.239  0.3246  2.1436 -0.1849
  291SOL    MW4 1196   1.718   1.170   0.325  0.5677  0.0773 -0.4313
  292SOL     OW 1197   3.328   1.847   0.472 -0.1823  0.2599  0.1286
  292SOL    HW2 1198   3.402   1.787   0.473 -0.8452 -0.5937 -0.7894
  292SOL    HW3 1199   3.338   1.899   0.552  1.2706  0.0026  0.1268
  292SOL    MW4 1200   3.339   1.846   0.483 -0.0781  0.1133  0.0072
  293SOL     OW 1201   0.771   2.485   0.420 -0.4050  0.2226 -0.0883
  293SOL    HW2 1202   0.851   2.521   0.382  0.6053 -1.8954 -0.0617
  293SOL    HW3 1203   0.793   2.469   0.512 -0.6694 -0.8971 -0.2142
  293SOL    MW4 1204   0.784   2.488   0.427 -0.3066 -0.2045 -0.1014
  294SOL     OW 1205   0.229   0.474   0.429 -0.4828 -0.4300  0.1720
  294SOL    HW2 1206   0.203   0.384   0.410  0.0776 -0.9865  2.0129
  294SOL    HW3 1207   0.207   0.488   0.521 -0.1027  1.1482  0.0494
  294SOL    MW4 1208   0.223   0.464   0.438 -0.3587 -0.2952  0.3987
  295SOL     OW 1209   1.096   0.730   0.842  0.2433 -0.1778  0.4587
  295SOL    HW2 1210   1.167   0.787   0.813 -0.4143  1.0154  1.1684
  295SOL    HW3 1211   1.099   0.734   0.938  0.0448 -1.1491  0.5098
  295SOL    MW4 1212   1.106   0.738   0.851  0.1304 -0.1485  0.5591
  296SOL     OW 1213   1.801   1.960   0.833 -0.0368  0.1164  0.0052
  296SOL    HW2 1214   1.716   1.997   0.809 -0.2093  1.0047  1.8690
  296SOL    HW3 1215   1.865   2.023   0.801 -0.0842 -0.4486 -1.2144
  296SOL    MW4 1216   1.798   1.973   0.826 -0.0658  0.1591  0.0902
  297SOL     OW 1217   3.830   2.836   0.695 -0.1263 -0.3012 -0.0655
  297SOL    HW2 1218   3.747   2.796   0.721 -0.6656  0.8844  0.0806
  297SOL    HW3 1219   3.813   2.872   0.608  0.3580 -0.4049 -0.2043
  297SOL    MW4 1220   3.817   2.835   0.687 -0.1336 -0.1584 -0.0645
  298SOL     OW 1221   0.681   1.765   0.389  0.1426  0.0576 -0.3187
  298SOL    HW2 1222   0.706   1.734   0.476  1.6380  1.8887 -0.0665
  298SOL    HW3 1223   0.764   1.779   0.343 -0.6278 -1.4359 -2.2792
  298SOL    MW4 1224   0.695   1.763   0.394  0.2382  0.1022 -0.5441
  299SOL     OW 1225   1.777   4.010   0.793 -0.2765  0.1061  0.0526
  299SOL    HW2 1226   1.768   3.989   0.700  0.9700  1.2970 -0.3530
  299SOL    HW3 1227   1.702   3.967   0.834  0.1290 -1.9146 -1.2490
  299SOL    MW4 1228   1.766   4.001   0.786 -0.0586 -0.0034 -0.1727
  300SOL     OW 1229   0.688   2.830   0.715  0.2749  0.1091  0.2197
  300SOL    HW2 1230   0.773   2.800   0.745  1.4032  3.2711  0.3966
  300SOL    HW3 1231   0.695   2.833   0.620 -0.1001 -0.8667  0.1547
  300SOL    MW4 1232   0.700   2.826   0.706  0.3743  0.3975  0.2345
  301SOL     OW 1233   0.243   1.999   0.401  0.2823 -0.2655  0.0465
  301SOL    HW2 1234   0.317   2.054   0.373  1.2413 -1.4294  0.2315
  301SOL    HW3 1235   0.270   1.910   0.379 -2.1027 -0.5057 -2.0701
  301SOL    MW4 1236   0.257   1.995   0.395  0.0942 -0.4508 -0.2083
  302SOL     OW 1237   4.022   4.251   0.843  0.4582 -0.9342  0.1396
  302SOL    HW2 1238   4.110   4.277   0.815 -0.5347  1.6609 -0.7243
  302SOL    HW3 1239   4.022   4.264   0.938  0.8577 -0.4009  0.0695
  302SOL    MW4 1240   4.034   4.256   0.852  0.3799 -0.5214  0.0164
  303SOL     OW 1241   2.534   3.866   0.848  0.3296 -0.1046 -0.0942
  303SOL    HW2 1242   2.449   3.873   0.804  0.5545 -0.9129 -0.6791
  303SOL    HW3 1243   2.564   3.778   0.827  1.0236 -0.0455  0.6426
  303SOL    MW4 1244   2.527   3.855   0.839  0.4508 -0.2034 -0.0742
  304SOL     OW 1245   3.789   1.771   0.329 -0.2771  0.0538 -0.5970
  304SOL    HW2 1246   3.715   1.726   0.371 -0.4250  0.3314 -0.5628
  304SOL    HW3 1247   3.774   1.759   0.235 -0.8915  0.9485 -0.6204
  304SOL    MW4 1248   3.777   1.763   0.322 -0.3777  0.2085 -0.5956
  305SOL     OW 1249   1.581   3.584   0.807  0.2293  0.2532  0.3096
  305SOL    HW2 1250   1.640   3.512   0.830 -0.7061 -0.2221  1.2391
  305SOL    HW3 1251   1.494   3.547   0.811 -0.1431  0.9187 -1.2506
  305SOL    MW4 1252   1.578   3.570   0.811  0.0568  0.2783  0.2264
  306SOL     OW 1253   1.223   3.432   0.321 -0.3931 -0.2649  0.1570
  306SOL    HW2 1254   1.316   3.434   0.344 -0.2055 -1.2762 -0.4894
  306SOL    HW3 1255   1.217   3.484   0.241 -0.5947  0.8627  0.8912
  306SOL    MW4 1256   1.234   3.439   0.314 -0.3949 -0.2496  0.1686
  307SOL     OW 1257   2.879   0.719   0.822  0.1172 -0.2920  0.1584
  307SOL    HW2 1258   2.889   0.725   0.917 -1.4857  2.0651  0.2014
  307SOL    HW3 1259   2.883   0.625   0.804  3.3201 -0.6195  2.2089
  307SOL    MW4 1260   2.881   0.707   0.832  0.3283 -0.0242  0.4347
  308SOL     OW 1261   0.436   4.257   0.808 -0.0064  0.0726  0.0653
  308SOL    HW2 1262   0.421   4.241   0.902 -0.1880 -0.2061 -0.0112
  308SOL    HW3 1263   0.355   4.297   0.777 -0.6405 -1.5064 -0.3647
  308SOL    MW4 1264   0.423   4.260   0.817 -0.1140 -0.1725 -0.0015
  309SOL     OW 1265   0.501   0.459   0.478  0.3219  0.4971  0.2713
  309SOL    HW2 1266   0.406   0.472   0.472  0.2086 -0.0346  0.9533
  309SOL    HW3 1267   0.524   0.490   0.565  0.6232 -0.2988  0.4789
  309SOL    MW4 1268   0.491   0.465   0.489  0.3467  0.3219  0.3887
  310SOL     OW 1269   0.972   1.597   0.505 -0.0275  0.2494 -0.5197
  310SOL    HW2 1270   0.988   1.671   0.447  0.5658  0.5557  0.0186
  310SOL    HW3 1271   0.982   1.520   0.450  1.1810  0.5107 -0.6961
  310SOL    MW4 1272   0.976   1.597   0.490  0.2102  0.3243 -0.4720
  311SOL     OW 1273   0.750   3.667   0.450  0.0212 -0.1926 -0.0643
  311SOL    HW2 1274   0.830   3.614   0.449  0.1059 -0.0647 -3.5018
  311SOL    HW3 1275   0.780   3.754   0.476  0.7453 -0.4990  0.1513
  311SOL    MW4 1276   0.765   3.671   0.454  0.1279 -0.2162 -0.4894
  312SOL     OW 1277   0.960   1.063   0.143 -0.1131  0.3792  0.7127
  312SOL    HW2 1278   0.972   1.027   0.055  0.8003  1.0146  0.5715
  312SOL    HW3 1279   0.868   1.047   0.163  0.1567 -1.5958  0.4534
  312SOL    MW4 1280   0.949   1.056   0.134  0.0430  0.2024  0.6599
  313SOL     OW 1281   0.895   4.202   0.791 -0.3391 -0.1758 -0.2611
  313SOL    HW2 1282   0.827   4.270   0.794  0.1338  0.4785 -2.9377
  313SOL    HW3 1283   0.914   4.192   0.698  1.1984 -2.4164  0.2682
  313SOL    MW4 1284   0.889   4.210   0.779 -0.0738 -0.3851 -0.5444
  314SOL     OW 1285   2.001   4.655   0.819  0.1854  0.3090 -0.0732
  314SOL    HW2 1286   1.999   4.559   0.820 -0.4169  0.3178  1.1261
  314SOL    HW3 1287   2.093   4.677   0.805  0.4439 -0.4504  0.3871
  314SOL    MW4 1288   2.013   4.645   0.817  0.1400  0.2100  0.1457
  315SOL     OW 1289   1.555   4.650   0.813 -0.9737 -0.6546  0.1299
  315SOL    HW2 1290   1.472   4.696   0.800 -1.2721 -0.8118  1.4011
  315SOL    HW3 1291   1.567   4.650   0.908  1.2423  0.7434 -0.1214
  315SOL    MW4 1292   1.546   4.656   0.824 -0.7207 -0.4909  0.2645
  316SOL     OW 1293   4.463   1.188   0.329 -0.0087  0.5467 -0.4369
  316SOL    HW2 1294   4.481   1.095   0.348 -0.1107  0.5835 -0.1476
  316SOL    HW3 1295   4.374   1.202   0.363 -0.2026  0.6101 -0.9759
  316SOL    MW4 1296   4.453   1.177   0.336 -0.0478  0.5599 -0.4698
  317SOL     OW 1297   2.670   1.961   0.863  0.3778 -0.1943 -0.1519
  317SOL    HW2 1298   2.593   2.010   0.837  0.7976  0.4186 -0.2614
  317SOL    HW3 1299   2.665   1.956   0.958  0.1347 -0.2652 -0.1693
  317SOL    MW4 1300   2.659   1.967   0.872  0.4011 -0.1228 -0.1687
  318SOL     OW 1301   0.252   2.876   0.652  0.1699 -0.0808  0.0370
  318SOL    HW2 1302   0.170   2.838   0.684 -0.0135  1.2171  1.1463
  318SOL    HW3 1303   0.320   2.827   0.698 -0.0281  0.0813  0.5008
  318SOL    MW4 1304   0.250   2.864   0.662  0.1196  0.1118  0.2446
  319SOL     OW 1305   3.860   0.475   0.723 -0.2685 -0.2009  0.1485
  319SOL    HW2 1306   3.783   0.423   0.743 -0.6798  0.0480 -0.7823
  319SOL    HW3 1307   3.833   0.566   0.737 -0.4688 -0.0418 -1.1814
  319SOL    MW4 1308   3.847   0.480   0.728 -0.3492 -0.1471 -0.1497
  320SOL     OW 1309   3.798   2.050   0.702  0.0202  0.0467  0.6297
  320SOL    HW2 1310   3.784   2.143   0.717 -2.3034 -0.2077  0.2387
  320SOL    HW3 1311   3.784   2.039   0.607 -1.2271 -0.9400  0.9184
  320SOL    MW4 1312   3.794   2.061   0.691 -0.4509 -0.1171  0.6162
  321SOL     OW 1313   1.325   1.683   0.756  0.3596 -0.0029 -0.0792
  321SOL    HW2 1314   1.401   1.632   0.788  0.4471 -0.1529 -0.5306
  321SOL    HW3 1315   1.338   1.688   0.662  0.0410  0.3640 -0.1011
  321SOL    MW4 1316   1.337   1.677   0.748  0.3291  0.0257 -0.1416
  322SOL     OW 1317   1.785   0.342   1.089 -0.3218 -0.3530 -0.1348
  322SOL    HW2 1318   1.706   0.383   1.124 -2.6738 -2.8052 -2.3134
  322SOL    HW3 1319   1.787   0.367   0.997  0.5938 -1.5930 -0.4725
  322SOL    MW4 1320   1.775   0.351   1.082 -0.5113 -0.8401 -0.4668
  323SOL     OW 1321   4.070   0.911   0.477  0.4409  0.0239 -0.2623
  323SOL    HW2 1322   3.988   0.947   0.444  0.1477 -0.3087  0.1148
  323SOL    HW3 1323   4.135   0.979   0.458  0.2436 -0.0836 -1.3663
  323SOL    MW4 1324   4.068   0.925   0.470  0.3762 -0.0341 -0.3582
  324SOL     OW 1325   4.279   2.009   0.446  0.1069 -0.2048 -0.0639
  324SOL    HW2 1326   4.296   1.916   0.432  1.1715 -0.0457  0.1142
  324SOL    HW3 1327   4.362   2.052   0.425 -0.6015  0.7885 -0.9260
  324SOL    MW4 1328   4.292   2.002   0.441  0.1539 -0.0527 -0.1542
  325SOL     OW 1329   0.440   2.140   0.284 -0.6612 -0.1905  0.3407
  325SOL    HW2 1330   0.515   2.099   0.327 -0.7000  0.4555  1.0428
  325SOL    HW3 1331   0.456   2.234   0.294 -1.4081 -0.0490  0.2172
  325SOL    MW4 1332   0.452   2.147   0.291 -0.7649 -0.0866  0.4171
  326SOL     OW 1333   2.016   2.162   0.479  0.0561  0.3599  0.4861
  326SOL    HW2 1334   2.096   2.109   0.475 -0.6324 -0.6131 -1.0557
  326SOL    HW3 1335   2.048   2.252   0.486  1.2892 -0.0431  0.2774
  326SOL    MW4 1336   2.031   2.167   0.479  0.1279  0.1784  0.2552
  327SOL     OW 1337   0.906   2.715   0.812  0.1467 -0.3697  0.4126
  327SOL    HW2 1338   0.994   2.750   0.798  0.2701 -1.4206 -1.5351
  327SOL    HW3 1339   0.906   2.688   0.904  1.5591  0.4616  0.6697
  327SOL    MW4 1340   0.918   2.716   0.822  0.3493 -0.3987  0.1896
  328SOL     OW 1341   4.279   0.711   0.478 -0.3330 -0.5067 -0.2243
  328SOL    HW2 1342   4.211   0.775   0.496 -0.6753 -0.5941 -1.2090
  328SOL    HW3 1343   4.231   0.629   0.461  0.1080 -1.1597  1.4963
  328SOL    MW4 1344   4.264   0.708   0.478 -0.3200 -0.6044 -0.1272
  329SOL     OW 1345   4.025   1.938   0.807 -0.4044  0.0196  0.2149
  329SOL    HW2 1346   4.030   1.860   0.752  0.0196 -0.3837  0.8192
  329SOL    HW3 1347   3.943   1.980   0.781 -0.1405 -0.0915 -0.8108
  329SOL    MW4 1348   4.015   1.933   0.796 -0.3137 -0.0483  0.1593
  330SOL     OW 1349   2.442   2.932   0.225 -0.5173  0.0202 -0.3024
  330SOL    HW2 1350   2.468   2.988   0.298 -0.7732 -0.4449  0.1419
  330SOL    HW3 1351   2.448   2.989   0.148 -0.3719  0.5429  0.0958
  330SOL    MW4 1352   2.446   2.947   0.224 -0.5318  0.0278 -0.1912
  331SOL     OW 1353   4.217   3.352   0.487 -0.0756 -0.4673  0.1180
  331SOL    HW2 1354   4.123   3.345   0.470 -0.0390 -0.5754 -0.0351
  331SOL    HW3 1355   4.240   3.440   0.459  0.0597 -0.7733 -0.7563
  331SOL    MW4 1356   4.207   3.362   0.481 -0.0529 -0.5219 -0.0175
  332SOL     OW 1357   3.394   0.322   0.392 -0.0760  0.3364  0.1987
  332SOL    HW2 1358   3.483   0.349   0.371 -0.4586 -0.9532 -3.4236
  332SOL    HW3 1359   3.392   0.228   0.372 -1.4512 -0.2952  3.0692
  332SOL    MW4 1360   3.405   0.313   0.386 -0.3080  0.0829  0.0995
  333SOL     OW 1361   3.018   2.975   0.434 -0.0954 -0.4034  0.0405
  333SOL    HW2 1362   3.062   2.890   0.433 -1.8797 -1.3440 -1.7316
  333SOL    HW3 1363   2.955   2.969   0.505  0.6470 -0.0714  0.7427
  333SOL    MW4 1364   3.016   2.963   0.443 -0.2328 -0.4837 -0.1007
  334SOL     OW 1365   2.665   3.754   0.539  0.6150  0.7476  0.2461
  334SOL    HW2 1366   2.740   3.737   0.481 -0.2396  0.3559 -0.7489
  334SOL    HW3 1367   2.590   3.760   0.480 -0.0966  1.4777  1.2101
  334SOL    MW4 1368   2.665   3.753   0.524  0.4083  0.7922  0.2420
  335SOL     OW 1369   1.557   3.871   0.877  0.0323  0.0733  0.2004
  335SOL    HW2 1370   1.558   3.875   0.973 -0.9362 -0.0930  0.2187
  335SOL    HW3 1371   1.584   3.782   0.857 -1.0504 -0.2982  0.3567
  335SOL    MW4 1372   1.561   3.860   0.887 -0.2383  0.0023  0.2234
  336SOL     OW 1373   1.105   3.078   0.836 -0.2531  0.1269  0.0068
  336SOL    HW2 1374   1.183   3.130   0.818  1.5653 -2.4406  0.2337
  336SOL    HW3 1375   1.032   3.132   0.806  1.6334  2.4073 -0.5561
  336SOL    MW4 1376   1.106   3.092   0.830  0.2357  0.0890 -0.0375
  337SOL     OW 1377   0.416   1.160   0.832  0.0170  0.3124  0.0317
  337SOL    HW2 1378   0.337   1.205   0.803 -1.7189 -1.3910  2.0542
  337SOL    HW3 1379   0.413   1.075   0.788 -0.5888 -0.7313  2.0574
  337SOL    MW4 1380   0.405   1.155   0.822 -0.2919 -0.0500  0.5658
  338SOL     OW 1381   3.633   0.442   0.343 -1.0109 -0.5604 -0.0680
  338SOL    HW2 1382   3.592   0.517   0.387  0.7913  0.2211  0.3141
  338SOL    HW3 1383   3.645   0.473   0.253 -0.2430 -0.3751  0.0967
  338SOL    MW4 1384   3.629   0.456   0.337 -0.6718 -0.4328  0.0041
  339SOL     OW 1385   0.660   2.049   0.416 -0.1916  0.2192 -0.4750
  339SOL    HW2 1386   0.655   1.955   0.400 -1.2008  0.1415  0.2086
  339SOL    HW3 1387   0.644   2.058   0.510 -1.2181  1.1520 -0.7285
  339SOL    MW4 1388   0.657   2.038   0.427 -0.4602  0.3320 -0.4183
  340SOL     OW 1389   1.319   1.131   0.834 -0.1260  0.3049  0.2646
  340SOL    HW2 1390   1.238   1.180   0.821 -1.0146 -0.5694  2.3404
  340SOL    HW3 1391   1.297   1.041   0.809  0.5848  0.3180 -0.4242
  340SOL    MW4 1392   1.305   1.126   0.829 -0.1495  0.1913  0.4476
  341SOL     OW 1393   1.520   0.766   0.805 -0.4639 -0.1501 -0.0820
  341SOL    HW2 1394   1.531   0.675   0.778 -1.5858  0.0075 -1.1199
  341SOL    HW3 1395   1.596   0.811   0.768  0.6642 -0.8403  1.3501
  341SOL    MW4 1396   1.532   0.760   0.797 -0.4631 -0.2204 -0.0300
  342SOL     OW 1397   0.153   1.325   0.489  0.2525  0.1107  0.0565
  342SOL    HW2 1398   0.230   1.327   0.432  0.3615  0.7200  0.2237
  342SOL    HW3 1399   0.091   1.269   0.442 -0.1554  1.6578 -1.3124
  342SOL    MW4 1400   0.155   1.318   0.475  0.2131  0.3952 -0.1020
  343SOL     OW 1401   0.867   3.934   0.751 -0.0089  0.2195 -0.0330
  343SOL    HW2 1402   0.954   3.910   0.782  0.2974  0.5711 -0.5950
  343SOL    HW3 1403   0.857   4.026   0.776  0.3997  0.6224 -1.2829
  343SOL    MW4 1404   0.877   3.943   0.758  0.0854  0.3191 -0.2721
  344SOL     OW 1405   2.200   1.954   0.885 -0.6222 -0.2411  0.4931
  344SOL    HW2 1406   2.201   1.865   0.850 -0.8301 -0.5007  1.1431
  344SOL    HW3 1407   2.153   2.005   0.819 -0.0732 -0.5186 -0.1101
  344SOL    MW4 1408   2.194   1.949   0.872 -0.5772 -0.3120  0.4993
  345SOL     OW 1409   2.910   3.449   0.486  0.3434  0.4059 -0.2426
  345SOL    HW2 1410   2.958   3.377   0.445  0.9779 -0.1483  1.4411
  345SOL    HW3 1411   2.818   3.423   0.480  0.5005 -0.1018 -0.4999
  345SOL    MW4 1412   2.904   3.436   0.480  0.4479  0.2658 -0.0544
  346SOL     OW 1413   0.959   1.793   0.307 -0.0891  0.0494 -0.2241
  346SOL    HW2 1414   1.011   1.781   0.228  0.7826  0.5971  0.2512
  346SOL    HW3 1415   0.992   1.875   0.345 -1.0322  0.2008  0.2897
  346SOL    MW4 1416   0.970   1.803   0.302 -0.0985  0.1416 -0.0936
  347SOL     OW 1417   0.593   1.556   0.804 -0.0430  0.2817  0.0461
  347SOL    HW2 1418   0.657   1.616   0.764  0.7923 -0.2072  0.6366
  347SOL    HW3 1419   0.612   1.559   0.898  0.1958 -1.1167  0.0543
  347SOL    MW4 1420   0.604   1.565   0.811  0.0987  0.0327  0.1251
  348SOL     OW 1421   1.368   4.267   0.350 -0.1272 -0.5234 -0.0309
  348SOL    HW2 1422   1.360   4.247   0.257 -1.1452  1.0533 -0.3066
  348SOL    HW3 1423   1.352   4.184   0.394 -0.3277 -1.1392 -1.2382
  348SOL    MW4 1424   1.365   4.253   0.343 -0.2880 -0.3966 -0.2265
  349SOL     OW 1425   2.579   1.779   0.490 -0.2829  0.1138 -0.1273
  349SOL    HW2 1426   2.532   1.863   0.498  0.1170  0.2917  0.4335
  349SOL    HW3 1427   2.522   1.725   0.436 -0.3202  0.9096 -0.8939
  349SOL    MW4 1428   2.565   1.783   0.484 -0.2350  0.2422 -0.1544
  350SOL     OW 1429   1.959   2.981   0.814  0.1036 -0.7391 -0.0859
  350SOL    HW2 1430   1.950   2.932   0.732  2.9278  0.1607 -0.9779
  350SOL    HW3 1431   1.957   3.073   0.787  0.6656 -0.4319  0.8937
  350SOL    MW4 1432   1.957   2.987   0.800  0.5504 -0.5799 -0.0743
  351SOL     OW 1433   1.350   1.963   0.782  0.2300 -0.4095 -0.1631
  351SOL    HW2 1434   1.365   1.970   0.876 -2.0827 -0.1135  0.2190
  351SOL    HW3 1435   1.344   1.869   0.765  1.3431 -0.4887 -0.1473
  351SOL    MW4 1436   1.351   1.952   0.792  0.0717 -0.3809 -0.1106
  352SOL     OW 1437   0.962   0.795   0.434 -0.2275 -0.1681 -0.3001
  352SOL    HW2 1438   1.004   0.709   0.435  0.2484  0.0682  0.1471
  352SOL    HW3 1439   0.878   0.780   0.389 -0.2392 -0.9037 -0.0434
  352SOL    MW4 1440   0.956   0.782   0.428 -0.1663 -0.2340 -0.2072
  353SOL     OW 1441   1.927   2.833   0.336 -0.1623 -0.6696  0.4899
  353SOL    HW2 1442   2.019   2.832   0.309 -0.5381 -0.6203 -0.8399
  353SOL    HW3 1443   1.906   2.742   0.352 -0.3789 -0.9016 -1.0134
  353SOL    MW4 1444   1.937   2.821   0.335 -0.2405 -0.6937  0.1161
  354SOL     OW 1445   4.320   1.730   0.438  0.3187 -0.5543  0.0210
  354SOL    HW2 1446   4.243   1.677   0.418 -0.0173  0.1504 -0.5897
  354SOL    HW3 1447   4.395   1.675   0.414  0.0172 -1.3417  0.8654
  354SOL    MW4 1448   4.320   1.716   0.432  0.2346 -0.5652  0.0518
  355SOL     OW 1449   1.568   0.499   0.707  0.2902 -0.2936 -0.2216
  355SOL    HW2 1450   1.503   0.433   0.729 -0.9979  0.7272 -0.8546
  355SOL    HW3 1451   1.653   0.458   0.726 -0.5252 -1.7576  0.2891
  355SOL    MW4 1452   1.571   0.485   0.712  0.0127 -0.3521 -0.2377
  356SOL     OW 1453   0.470   4.242   0.360  0.3003  0.2195  0.2597
  356SOL    HW2 1454   0.496   4.151   0.350 -1.2165 -0.0420 -1.6349
  356SOL    HW3 1455   0.545   4.284   0.403  1.5988 -1.5974 -0.1725
  356SOL    MW4 1456   0.483   4.236   0.365  0.2715 -0.0547 -0.0473
  357SOL     OW 1457   2.015   3.590   0.733 -0.4076  0.3273 -0.2950
  357SOL    HW2 1458   2.009   3.681   0.761  0.1725  0.4480 -0.5477
  357SOL    HW3 1459   1.977   3.589   0.645 -0.0262  0.4078 -0.4617
  357SOL    MW4 1460   2.009   3.602   0.725 -0.2808  0.3538 -0.3503
  358SOL     OW 1461   2.005   3.848   0.851  0.2868  0.5053  0.1268
  358SOL    HW2 1462   1.950   3.915   0.810 -0.1463 -0.0465 -0.2084
  358SOL    HW3 1463   2.008   3.873   0.943  0.6039  1.3073 -0.1002
  358SOL    MW4 1464   1.998   3.860   0.858  0.2715  0.5383  0.0527
  359SOL     OW 1465   1.682   1.639   0.503  0.6661 -0.5280  0.0665
  359SOL    HW2 1466   1.587   1.647   0.500  0.5610 -1.5283  0.4653
  359SOL    HW3 1467   1.703   1.638   0.597  0.9671 -1.3376 -0.0053
  359SOL    MW4 1468   1.672   1.640   0.515  0.6919 -0.7668  0.1096
  360SOL     OW 1469   3.594   2.466   0.712  0.0417  0.3199 -0.0318
  360SOL    HW2 1470   3.520   2.430   0.760 -2.1240  1.7314 -2.1827
  360SOL    HW3 1471   3.594   2.559   0.735  0.9249  0.3983 -0.3358
  360SOL    MW4 1472   3.584   2.473   0.721 -0.1275  0.5165 -0.3557
  361SOL     OW 1473   1.781   0.921   0.427  0.0720  0.2360  0.5541
  361SOL    HW2 1474   1.789   0.906   0.522 -1.3113  0.5547  0.7216
  361SOL    HW3 1475   1.708   0.866   0.400 -0.6582  1.4674 -0.0182
  361SOL    MW4 1476   1.773   0.912   0.436 -0.2068  0.4405  0.5007
  362SOL     OW 1477   0.011   4.503   0.412  0.1648  0.4750  0.0828
  362SOL    HW2 1478   0.073   4.440   0.447 -0.3212 -0.4618 -0.7199
  362SOL    HW3 1479  -0.073   4.457   0.410 -0.7011  1.9005  1.6982
  362SOL    MW4 1480   0.008   4.489   0.416 -0.0135  0.5395  0.1901
  363SOL     OW 1481   2.639   0.084   0.683 -0.2245  0.0277 -0.3324
  363SOL    HW2 1482   2.660   0.167   0.726  2.3623 -0.2802 -0.9105
  363SOL    HW3 1483   2.567   0.048   0.735 -0.3266  1.8842  0.8758
  363SOL    MW4 1484   2.632   0.090   0.696  0.1034  0.2320 -0.2493
  364SOL     OW 1485   0.366   1.312   0.317  0.2926  0.0844 -0.0815
  364SOL    HW2 1486   0.431   1.381   0.315  0.4660 -0.0967 -1.8873
  364SOL    HW3 1487   0.314   1.325   0.237 -2.7294  1.0177  1.9552
  364SOL    MW4 1488   0.367   1.323   0.306 -0.0832  0.1836 -0.0510
  365SOL     OW 1489   0.465   2.412   0.411 -0.1347  0.0020 -0.5654
  365SOL    HW2 1490   0.549   2.453   0.391  0.5105 -1.0311  0.0480
  365SOL    HW3 1491   0.461   2.409   0.507 -2.0482  2.4846 -0.5075
  365SOL    MW4 1492   0.475   2.417   0.421 -0.3021  0.1933 -0.4768
  366SOL     OW 1493   0.464   0.190   0.505  0.3989 -0.2816  0.1879
  366SOL    HW2 1494   0.457   0.165   0.597  1.6663 -0.6865  0.1799
  366SOL    HW3 1495   0.472   0.285   0.506  0.8686 -0.3275  0.5174
  366SOL    MW4 1496   0.464   0.199   0.517  0.6281 -0.3411  0.2303
  367SOL     OW 1497   1.552   1.276   0.750  0.0509  0.3637 -0.1308
  367SOL    HW2 1498   1.551   1.353   0.806  3.4068 -0.0950  0.6911
  367SOL    HW3 1499   1.480   1.222   0.781  1.5649  0.3213  3.5339
  367SOL    MW4 1500   1.543   1.279   0.761  0.6934  0.2976  0.4612
  368SOL     OW 1501   3.619   2.726   0.361 -0.3954  0.0117  0.5368
  368SOL    HW2 1502   3.533   2.765   0.376 -1.4924 -1.8600 -0.6681
  368SOL    HW3 1503   3.614   2.641   0.405  0.2772 -0.7521 -0.8398
  368SOL    MW4 1504   3.607   2.720   0.369 -0.4514 -0.3360  0.1962
  369SOL     OW 1505   0.687   4.395   0.782 -0.3472  0.3515  0.0650
  369SOL    HW2 1506   0.666   4.487   0.798 -1.0787  0.0291  1.0315
  369SOL    HW3 1507   0.603   4.350   0.787  0.3026 -0.7083  2.1238
  369SOL    MW4 1508   0.673   4.401   0.785 -0.3580  0.1691  0.4641
  370SOL     OW 1509   0.434   0.910   0.708  0.1572 -0.4075 -0.0893
  370SOL    HW2 1510   0.364   0.856   0.746 -0.3635 -0.3056 -0.9051
  370SOL    HW3 1511   0.442   0.880   0.617 -0.3136  1.0691 -0.6282
  370SOL    MW4 1512   0.426   0.899   0.701  0.0264 -0.1992 -0.2681
  371SOL     OW 1513   1.107   0.473   0.704 -0.1114  0.1900 -0.1965
  371SOL    HW2 1514   1.091   0.557   0.747  0.1036 -0.2200  0.6898
  371SOL    HW3 1515   1.092   0.490   0.611 -2.2724  0.6865  0.2114
  371SOL    MW4 1516   1.103   0.486   0.698 -0.3681  0.2014 -0.0257
  372SOL     OW 1517   1.536   1.532   0.854 -0.0024  0.6582 -0.1812
  372SOL    HW2 1518   1.533   1.538   0.949 -0.5807 -0.6748 -0.1142
  372SOL    HW3 1519   1.619   1.575   0.830  0.3269  0.6596  0.9338
  372SOL    MW4 1520   1.547   1.539   0.863 -0.0352  0.4825 -0.0253
  373SOL     OW 1521   0.538   3.164   0.410 -0.3075  0.1418  0.0421
  373SOL    HW2 1522   0.475   3.217   0.362 -0.8884  0.1013  0.7355
  373SOL    HW3 1523   0.504   3.163   0.500  1.3676  1.1673  0.7077
  373SOL    MW4 1524   0.525   3.171   0.416 -0.1631  0.2718  0.2214
  374SOL     OW 1525   2.488   1.309   0.781 -0.2437  0.0838 -0.1134
  374SOL    HW2 1526   2.566   1.255   0.792 -1.3855 -1.8961 -1.4931
  374SOL    HW3 1527   2.415   1.248   0.792 -1.5919  1.7373  0.2537
  374SOL    MW4 1528   2.489   1.294   0.784 -0.5722  0.0407 -0.2470
  375SOL     OW 1529   1.085   1.531   0.782 -0.1817 -0.0134  0.0996
  375SOL    HW2 1530   1.056   1.556   0.694 -1.6577  0.2594  0.6443
  375SOL    HW3 1531   1.169   1.575   0.792 -0.7198  1.2224 -0.6066
  375SOL    MW4 1532   1.092   1.540   0.771 -0.4475  0.1857  0.0783
  376SOL     OW 1533   2.235   2.955   0.878  0.0272 -0.0823 -0.2987
  376SOL    HW2 1534   2.145   2.967   0.845 -0.5308 -0.0238  1.2038
  376SOL    HW3 1535   2.237   2.865   0.910  0.4214 -0.0025 -0.0958
  376SOL    MW4 1536   2.223   2.945   0.878  0.0056 -0.0641 -0.0737
  377SOL     OW 1537   0.524   1.088   0.358  0.2053  0.1820 -0.0126
  377SOL    HW2 1538   0.572   1.148   0.416  0.5381  0.4234 -0.5394
  377SOL    HW3 1539   0.452   1.141   0.323 -0.8583 -0.3541  1.2834
  377SOL    MW4 1540   0.520   1.103   0.361  0.1089  0.1431  0.0889
  378SOL     OW 1541   1.114   2.337   0.765  0.3902 -0.2148 -0.0479
  378SOL    HW2 1542   1.111   2.328   0.860  1.8235 -1.3601 -0.0975
  378SOL    HW3 1543   1.125   2.247   0.733  0.2587  0.2018 -1.2890
  378SOL    MW4 1544   1.115   2.324   0.773  0.5619 -0.3110 -0.2182
  379SOL     OW 1545   2.030   1.296   0.778  0.1553 -0.1010  0.4093
  379SOL    HW2 1546   2.107   1.250   0.813 -0.1320 -0.6967  0.2584
  379SOL    HW3 1547   2.056   1.321   0.689  0.0831 -0.5210  0.2700
  379SOL    MW4 1548   2.044   1.293   0.771  0.1079 -0.2350  0.3711
  380SOL     OW 1549   2.429   2.097   0.807  0.0471 -0.2420  0.3114
  380SOL    HW2 1550   2.408   2.189   0.821 -0.7769 -0.1939 -1.1441
  380SOL    HW3 1551   2.350   2.050   0.833 -0.5868 -0.3214 -1.6836
  380SOL    MW4 1552   2.416   2.103   0.813 -0.1452 -0.2461 -0.1439
  381SOL     OW 1553   3.611   0.030   0.444  0.0119 -0.4368 -0.0589
  381SOL    HW2 1554   3.615  -0.065   0.450 -2.0147 -0.5500  0.0787
  381SOL    HW3 1555   3.580   0.058   0.530  0.5346  0.3319 -0.1219
  381SOL    MW4 1556   3.607   0.021   0.456 -0.1865 -0.3503 -0.0491
  382SOL     OW 1557   1.773   0.863   0.694 -0.6499  0.0025  0.2703
  382SOL    HW2 1558   1.840   0.803   0.729  0.6978  0.6317 -1.1547
  382SOL    HW3 1559   1.797   0.949   0.729  0.5857  0.6007 -1.9387
  382SOL    MW4 1560   1.785   0.866   0.703 -0.3090  0.1644 -0.2092
  383SOL     OW 1561   4.036   2.149   0.371 -0.3709 -0.0560  0.6643
  383SOL    HW2 1562   4.115   2.102   0.398 -0.2069 -0.5173 -0.5553
  383SOL    HW3 1563   4.053   2.240   0.396  0.1654 -0.3073  1.2224
  383SOL    MW4 1564   4.049   2.155   0.378 -0.2785 -0.1500  0.5770
  384SOL     OW 1565   2.454   0.503   0.759 -0.3593 -0.5220  0.1616
  384SOL    HW2 1566   2.384   0.451   0.797 -0.0610 -0.8601  0.2513
  384SOL    HW3 1567   2.432   0.508   0.666 -1.9198  1.6165  0.6157
  384SOL    MW4 1568   2.442   0.497   0.752 -0.5258 -0.2845  0.2333
  385SOL     OW 1569   3.830   2.905   0.419  0.2389  0.1513 -0.2286
  385SOL    HW2 1570   3.753   2.848   0.409 -1.2925  1.5998  2.8217
  385SOL    HW3 1571   3.803   2.989   0.382  1.3862 -0.1101 -1.7359
  385SOL    MW4 1572   3.816   2.908   0.413  0.1882  0.3079 -0.0250
  386SOL     OW 1573   1.569   4.627   0.355  0.2964  0.0359  0.0477
  386SOL    HW2 1574   1.570   4.539   0.393 -1.8609  0.4143  1.0418
  386SOL    HW3 1575   1.645   4.671   0.393  1.2444 -1.3068 -0.2663
  386SOL    MW4 1576   1.579   4.621   0.365  0.1369 -0.0913  0.1374
  387SOL     OW 1577   4.174   2.468   0.448  0.2161  0.3663  0.3514
  387SOL    HW2 1578   4.147   2.550   0.407  0.1140  0.2938  0.2698
  387SOL    HW3 1579   4.131   2.467   0.533 -0.2076  0.1580  0.1383
  387SOL    MW4 1580   4.165   2.478   0.454  0.1468  0.3293  0.3126
  388SOL     OW 1581   1.893   3.555   0.492  0.1868  0.3780  0.0492
  388SOL    HW2 1582   1.798   3.557   0.508 -0.2478  2.0316 -2.4449
  388SOL    HW3 1583   1.911   3.464   0.470 -0.5828 -0.2319  1.8877
  388SOL    MW4 1584   1.883   3.543   0.491  0.0279  0.5157 -0.0373
  389SOL     OW 1585   2.293   1.188   0.464  0.2221 -0.4113 -0.1241
  389SOL    HW2 1586   2.375   1.235   0.473 -0.3836  0.5591  0.4852
  389SOL    HW3 1587   2.226   1.256   0.462 -0.5707 -1.1877 -0.5756
  389SOL    MW4 1588   2.295   1.203   0.465  0.0375 -0.3857 -0.1033
  390SOL     OW 1589   3.145   1.022   0.865 -0.2252 -0.4212  0.2057
  390SOL    HW2 1590   3.232   1.059   0.850 -1.2508  1.9170 -0.0800
  390SOL    HW3 1591   3.117   1.058   0.949 -0.4504 -2.1132  0.8797
  390SOL    MW4 1592   3.153   1.032   0.874 -0.3902 -0.3360  0.2569
  391SOL     OW 1593   2.301   2.659   0.521 -0.2518 -0.3369 -0.1055
  391SOL    HW2 1594   2.260   2.698   0.445 -0.9715  0.0772  0.4912
  391SOL    HW3 1595   2.236   2.668   0.591 -0.1981 -2.0279  0.1977
  391SOL    MW4 1596   2.287   2.665   0.521 -0.3396 -0.5053  0.0132
  392SOL     OW 1597   3.092   0.816   0.691  0.4641  0.1001 -0.1319
  392SOL    HW2 1598   3.033   0.770   0.751 -0.3330  0.6499 -0.4914
  392SOL    HW3 1599   3.120   0.893   0.741 -0.7800  0.9522 -0.7139
  392SOL    MW4 1600   3.088   0.821   0.706  0.1948  0.2850 -0.2561
  393SOL     OW 1601   3.602   0.922   0.294 -0.0470 -0.6384  0.2685
  393SOL    HW2 1602   3.519   0.969   0.305 -0.8836 -1.4749 -2.1246
  393SOL    HW3 1603   3.591   0.842   0.345 -0.7983 -0.8342 -0.1946
  393SOL    MW4 1604   3.589   0.917   0.302 -0.2565 -0.7746 -0.1083
  394SOL     OW 1605   1.360   0.697   0.117 -0.3118  0.4656  0.3513
  394SOL    HW2 1606   1.406   0.655   0.044 -0.8246  1.0406 -0.3103
  394SOL    HW3 1607   1.304   0.629   0.153  1.7667 -0.5342  1.8008
  394SOL    MW4 1608   1.359   0.683   0.112 -0.1053  0.4096  0.4552
  395SOL     OW 1609   2.003   4.374   0.790  0.5824 -0.1872  0.2063
  395SOL    HW2 1610   2.022   4.341   0.703  2.3167 -1.1423  0.9285
  395SOL    HW3 1611   1.925   4.325   0.817  0.5505 -0.5166 -0.4617
  395SOL    MW4 1612   1.995   4.363   0.782  0.8070 -0.3567  0.2134
  396SOL     OW 1613   1.529   3.819   0.411  0.5170 -0.3716 -0.0449
  396SOL    HW2 1614   1.459   3.883   0.422  0.9963 -0.1552  1.9630
  396SOL    HW3 1615   1.513   3.780   0.325 -0.8871  1.0858 -0.4673
  396SOL    MW4 1616   1.518   3.822   0.401  0.3950 -0.1508  0.1643
  397SOL     OW 1617   0.219   3.591   0.705  0.2001 -0.0741 -0.5686
  397SOL    HW2 1618   0.293   3.543   0.743  0.4645  0.9994  0.2707
  397SOL    HW3 1619   0.144   3.534   0.721  0.5756 -0.3996  0.0868
  397SOL    MW4 1620   0.219   3.577   0.712  0.2845  0.0246 -0.3714
  398SOL     OW 1621   1.253   2.717   0.302 -0.1982 -0.2229  0.3810
  398SOL    HW2 1622   1.348   2.714   0.309 -0.1312 -1.0774 -0.8232
  398SOL    HW3 1623   1.236   2.778   0.229 -0.5543 -0.3786  0.3284
  398SOL    MW4 1624   1.263   2.725   0.293 -0.2363 -0.3562  0.2152
  399SOL     OW 1625   1.396   0.333   0.262 -0.1975  0.3513 -0.1312
  399SOL    HW2 1626   1.347   0.281   0.325 -1.7426  1.5879 -0.2972
  399SOL    HW3 1627   1.442   0.398   0.315 -0.5025  0.5964 -0.1658
  399SOL    MW4 1628   1.396   0.335   0.277 -0.4416  0.5468 -0.1577
  400SOL     OW 1629   2.630   2.799   0.824  0.0811  0.2926 -0.1466
  400SOL    HW2 1630   2.627   2.797   0.920  0.1866  0.2366 -0.1447
  400SOL    HW3 1631   2.717   2.832   0.803 -0.1366  0.8362 -0.2195
  400SOL    MW4 1632   2.641   2.803   0.834  0.0663  0.3569 -0.1560
  401SOL     OW 1633   3.106   2.715   0.416  0.1001 -0.2925  0.1875
  401SOL    HW2 1634   3.013   2.691   0.410 -0.0391  0.1838  0.3925
  401SOL    HW3 1635   3.152   2.632   0.416 -0.2068 -0.4938 -1.8238
  401SOL    MW4 1636   3.100   2.701   0.415  0.0413 -0.2562 -0.0508
  402SOL     OW 1637   1.375   2.446   0.721  0.2710  0.4669  0.2586
  402SOL    HW2 1638   1.354   2.525   0.772 -1.1148 -0.4644  1.1492
  402SOL    HW3 1639   1.291   2.407   0.702  0.8774  0.0009 -1.5115
  402SOL    MW4 1640   1.361   2.452   0.725  0.1682  0.2825  0.1426
  403SOL     OW 1641   4.260   4.365   0.750 -0.3051  0.2057  0.2868
  403SOL    HW2 1642   4.342   4.324   0.776 -0.2323 -0.6384 -1.2447
  403SOL    HW3 1643   4.270   4.457   0.775  0.3954 -0.2381  1.7170
  403SOL    MW4 1644   4.272   4.372   0.757 -0.2030  0.0358  0.2734
  404SOL     OW 1645   2.134   2.420   0.430 -0.0255 -0.4928 -0.0687
  404SOL    HW2 1646   2.203   2.467   0.478  0.7659 -1.1492 -0.5471
  404SOL    HW3 1647   2.155   2.435   0.338 -0.6364 -0.5450 -0.2171
  404SOL    MW4 1648   2.146   2.428   0.425 -0.0017 -0.5863 -0.1514
  405SOL     OW 1649   1.799   3.424   0.859 -0.3354 -0.6097  0.1590
  405SOL    HW2 1650   1.808   3.428   0.954  0.7954 -0.2872  0.0365
  405SOL    HW3 1651   1.861   3.488   0.825  0.2433 -1.6812 -0.8536
  405SOL    MW4 1652   1.808   3.433   0.867 -0.1099 -0.7085  0.0093
  406SOL     OW 1653   2.637   0.105   0.398  0.9359  0.2409 -0.2347
  406SOL    HW2 1654   2.631   0.102   0.493 -0.1665 -0.8425 -0.3264
  406SOL    HW3 1655   2.627   0.198   0.376  1.4601  0.5303  0.7144
  406SOL    MW4 1656   2.635   0.117   0.408  0.8596  0.1362 -0.1215
  407SOL     OW 1657   3.167   2.457   0.720  0.1888  0.2268 -0.1138
  407SOL    HW2 1658   3.224   2.392   0.760  0.0125 -0.4631 -0.9799
  407SOL    HW3 1659   3.188   2.454   0.627 -1.6505 -0.4516 -0.5306
  407SOL    MW4 1660   3.177   2.448   0.713 -0.0772  0.0463 -0.2830
  408SOL     OW 1661   3.386   3.608   0.752  0.0334 -0.4084 -0.5994
  408SOL    HW2 1662   3.299   3.579   0.780 -0.7645  0.7712 -1.8311
  408SOL    HW3 1663   3.385   3.599   0.657  0.1100  2.6619 -0.9372
  408SOL    MW4 1664   3.374   3.603   0.744 -0.0617  0.1523 -0.8065
  409SOL     OW 1665   2.249   0.340   0.869  0.0730  0.3146 -0.2052
  409SOL    HW2 1666   2.171   0.373   0.826  0.2569 -0.0284 -0.8101
  409SOL    HW3 1667   2.258   0.250   0.838  2.1626  1.1434 -2.2228
  409SOL    MW4 1668   2.240   0.332   0.859  0.3730  0.3787 -0.5512
  410SOL     OW 1669   2.218   0.034   0.499 -0.1818  0.0521  0.0587
  410SOL    HW2 1670   2.144  -0.007   0.454 -0.6980 -0.7629  1.6258
  410SOL    HW3 1671   2.225   0.120   0.458 -1.6776 -0.0457 -0.4589
  410SOL    MW4 1672   2.209   0.040   0.488 -0.4472 -0.0684  0.1972
  411SOL     OW 1673   3.083   0.093   0.615  0.1833 -0.0176  0.5822
  411SOL    HW2 1674   3.105   0.173   0.663  0.0873 -0.3051  1.1146
  411SOL    HW3 1675   3.085   0.118   0.523  0.6752  0.4694  0.7242
  411SOL    MW4 1676   3.086   0.107   0.609  0.2356  0.0087  0.6712
  412SOL     OW 1677   3.602   3.763   0.400  0.1601  0.2106  0.0076
  412SOL    HW2 1678   3.583   3.840   0.453  0.2160  0.4556 -0.3272
  412SOL    HW3 1679   3.528   3.704   0.416  0.0405  0.3980  0.1394
  412SOL    MW4 1680   3.590   3.765   0.409  0.1517  0.2676 -0.0192
  413SOL     OW 1681   2.767   2.440   0.647  0.3961  0.1898 -0.2501
  413SOL    HW2 1682   2.678   2.459   0.678 -0.0624  0.9055 -1.9433
  413SOL    HW3 1683   2.817   2.423   0.727 -1.1622  0.1931  0.7555
  413SOL    MW4 1684   2.762   2.440   0.662  0.1300  0.2846 -0.3408
  414SOL     OW 1685   3.151   0.324   0.762 -0.4279 -0.2658 -0.0560
  414SOL    HW2 1686   3.152   0.327   0.857 -0.1103  0.0446 -0.0720
  414SOL    HW3 1687   3.228   0.373   0.734  0.9824 -2.6081 -0.4223
  414SOL    MW4 1688   3.161   0.331   0.771 -0.1999 -0.5339 -0.1065
  415SOL     OW 1689   2.434   0.497   0.483 -0.4361 -0.3044 -0.3931
  415SOL    HW2 1690   2.404   0.572   0.432  1.8750  0.5180 -0.6235
  415SOL    HW3 1691   2.491   0.449   0.424 -0.5068 -1.2767  0.3155
  415SOL    MW4 1692   2.438   0.501   0.469 -0.1405 -0.3242 -0.3300
  416SOL     OW 1693   1.101   1.020   0.389  0.3462  0.0968 -0.0340
  416SOL    HW2 1694   1.072   1.035   0.299 -1.9168  2.4380  1.0186
  416SOL    HW3 1695   1.056   0.940   0.416  0.6919 -0.3665 -0.8168
  416SOL    MW4 1696   1.091   1.011   0.381  0.0933  0.3446  0.0016
  417SOL     OW 1697   3.371   1.420   0.802 -0.2383  0.0329  0.4517
  417SOL    HW2 1698   3.360   1.463   0.887  0.6067 -0.1479  0.6603
  417SOL    HW3 1699   3.283   1.419   0.764 -0.6635 -0.0499  1.4103
  417SOL    MW4 1700   3.358   1.425   0.808 -0.1829 -0.0019  0.6057
  418SOL     OW 1701   0.617   0.551   0.705  0.2705 -0.2884  0.1670
  418SOL    HW2 1702   0.701   0.509   0.721  1.1380  0.8471 -1.3320
  418SOL    HW3 1703   0.621   0.634   0.753  1.5350  1.5286 -2.9456
  418SOL    MW4 1704   0.629   0.556   0.713  0.5518  0.1011 -0.4415
  419SOL     OW 1705   3.116   1.920   0.815 -0.2331  0.2938 -0.0043
  419SOL    HW2 1706   3.052   1.990   0.801 -1.0015 -0.4626 -0.3064
  419SOL    HW3 1707   3.134   1.923   0.909 -1.0098  0.2501  0.1507
  419SOL    MW4 1708   3.110   1.930   0.825 -0.4369  0.1882 -0.0237
  420SOL     OW 1709   2.241   3.249   0.415  0.2497  0.4448  0.1673
  420SOL    HW2 1710   2.147   3.263   0.414  0.4681  2.0999 -2.1691
  420SOL    HW3 1711   2.277   3.330   0.450  0.8648  0.3660 -0.2659
  420SOL    MW4 1712   2.233   3.262   0.420  0.3596  0.6528 -0.1982
  421SOL     OW 1713   3.369   2.286   0.804 -0.2551 -0.3250  0.1942
  421SOL    HW2 1714   3.348   2.269   0.895  0.9199 -2.0657  0.1683
  421SOL    HW3 1715   3.402   2.202   0.770  0.4952  0.6010 -1.4816
  421SOL    MW4 1716   3.371   2.272   0.811 -0.0011 -0.4325 -0.0303
  422SOL     OW 1717   3.333   3.102   0.860  0.1506  0.3018 -0.0928
  422SOL    HW2 1718   3.343   3.092   0.955 -0.9368  1.8536  0.2129
  422SOL    HW3 1719   3.416   3.140   0.831 -0.1840  1.5510  0.5378
  422SOL    MW4 1720   3.346   3.106   0.869 -0.0370  0.6714  0.0308
  423SOL     OW 1721   3.100   2.712   0.841 -0.2196  0.0436  0.2840
  423SOL    HW2 1722   3.132   2.686   0.928 -1.0406  0.6219  0.7684
  423SOL    HW3 1723   3.106   2.633   0.788 -2.5319 -1.1095  1.6976
  423SOL    MW4 1724   3.105   2.698   0.846 -0.6330 -0.0322  0.5344
  424SOL     OW 1725   1.619   4.355   0.429  0.1285  0.3371  0.1246
  424SOL    HW2 1726   1.608   4.382   0.520 -0.0490  0.6749  0.0041
  424SOL    HW3 1727   1.539   4.306   0.409 -0.0268  0.6316  0.0201
  424SOL    MW4 1728   1.607   4.353   0.438  0.0846  0.4205  0.0949
  425SOL     OW 1729   1.321   0.078   0.699  0.0019 -0.3366  0.5145
  425SOL    HW2 1730   1.242   0.059   0.749  0.4244 -1.0394  0.9183
  425SOL    HW3 1731   1.333   0.173   0.707 -1.0334 -0.1654  0.0950
  425SOL    MW4 1732   1.312   0.088   0.707 -0.0789 -0.4067  0.5124
  426SOL     OW 1733   2.463   2.994   0.708  0.1872  0.1025 -0.3625
  426SOL    HW2 1734   2.373   2.968   0.727 -0.1325  0.2841 -1.5777
  426SOL    HW3 1735   2.517   2.926   0.748 -0.4344  0.7163  1.5509
  426SOL    MW4 1736   2.459   2.981   0.715  0.0630  0.2074 -0.2704
  427SOL     OW 1737   1.830   4.180   0.415  0.4062 -0.0396 -0.6141
  427SOL    HW2 1738   1.899   4.227   0.461  1.0920 -0.8141 -0.8328
  427SOL    HW3 1739   1.756   4.240   0.415  0.1155 -0.3391  2.1913
  427SOL    MW4 1740   1.829   4.194   0.421  0.4583 -0.1813 -0.2728
  428SOL     OW 1741   3.169   3.461   1.113 -0.1333  0.0357 -0.7883
  428SOL    HW2 1742   3.175   3.467   1.018 -0.9277  3.1513 -0.6886
  428SOL    HW3 1743   3.234   3.522   1.146 -1.6446  0.9263  0.6208
  428SOL    MW4 1744   3.178   3.470   1.105 -0.4375  0.5643 -0.5893
  429SOL     OW 1745   3.620   4.036   0.502 -0.4733 -0.1049 -0.6085
  429SOL    HW2 1746   3.705   4.060   0.465 -0.2150 -0.0025  0.0400
  429SOL    HW3 1747   3.631   4.048   0.596 -1.2901  0.1574 -0.5445
  429SOL    MW4 1748   3.633   4.041   0.510 -0.5470 -0.0568 -0.5145
  430SOL     OW 1749   0.710   2.740   0.451 -0.2537  0.3488 -0.0590
  430SOL    HW2 1750   0.746   2.652   0.450  0.3967  0.6218 -1.2365
  430SOL    HW3 1751   0.779   2.795   0.412 -1.3274  1.1106 -0.9098
  430SOL    MW4 1752   0.724   2.736   0.446 -0.3095  0.4853 -0.3266
  431SOL     OW 1753   1.045   0.544   0.436 -0.3908  0.6434  0.6130
  431SOL    HW2 1754   0.961   0.511   0.404 -0.5952  0.5266  1.2562
  431SOL    HW3 1755   1.103   0.538   0.360 -1.2535  1.8019 -0.1482
  431SOL    MW4 1756   1.041   0.539   0.422 -0.5316  0.7808  0.5974
  432SOL     OW 1757   1.777   0.359   0.357 -0.4813 -0.0777  0.4073
  432SOL    HW2 1758   1.701   0.407   0.391 -1.3173 -1.6754  0.8196
  432SOL    HW3 1759   1.744   0.313   0.280  0.8931  1.8287 -1.3899
  432SOL    MW4 1760   1.763   0.360   0.352 -0.4102 -0.0370  0.2246
  433SOL     OW 1761   0.850   0.423   0.786  0.0831  0.1648  0.0527
  433SOL    HW2 1762   0.935   0.450   0.754 -0.0675  1.6361  0.8631
  433SOL    HW3 1763   0.859   0.420   0.881 -0.8254  0.5428  0.1596
  433SOL    MW4 1764   0.862   0.426   0.794 -0.0566  0.4088  0.1737
  434SOL     OW 1765   4.050   0.109   0.727 -0.1020  0.2175 -0.4433
  434SOL    HW2 1766   4.089   0.150   0.650 -0.3680 -2.5654 -2.1054
  434SOL    HW3 1767   4.124   0.073   0.776  0.1295  2.5415  1.0047
  434SOL    MW4 1768   4.065   0.110   0.724 -0.1065  0.1569 -0.4716
  435SOL     OW 1769   3.217   4.513   0.671  0.2669 -0.7506  0.0714
  435SOL    HW2 1770   3.221   4.480   0.581  2.2352 -0.3046 -0.0305
  435SOL    HW3 1771   3.164   4.593   0.666 -0.0160 -0.9823 -0.6069
  435SOL    MW4 1772   3.210   4.519   0.658  0.4893 -0.7223 -0.0316
  436SOL     OW 1773   1.064   3.586   0.746 -0.3908 -0.1211 -0.0920
  436SOL    HW2 1774   0.989   3.550   0.794  1.4768 -1.5562  1.8348
  436SOL    HW3 1775   1.074   3.675   0.781  0.0085 -0.6133  1.0424
  436SOL    MW4 1776   1.055   3.593   0.757 -0.0917 -0.3754  0.3119
  437SOL     OW 1777   2.264   4.065   0.159 -0.0624  0.2414  0.6703
  437SOL    HW2 1778   2.168   4.069   0.156  0.0170  0.9986 -1.1745
  437SOL    HW3 1779   2.289   4.025   0.076  1.2970  1.5958  0.4145
  437SOL    MW4 1780   2.255   4.060   0.148  0.1274  0.5200  0.3932
  438SOL     OW 1781   4.271   1.243   0.711  0.0386 -0.0529  0.1699
  438SOL    HW2 1782   4.346   1.202   0.753  0.9860  0.9385 -0.5429
  438SOL    HW3 1783   4.275   1.335   0.738 -0.7457  0.0741 -0.1198
  438SOL    MW4 1784   4.281   1.250   0.720  0.0602  0.0947  0.0376
  439SOL     OW 1785   4.020   0.895   0.744  0.7762 -0.0278 -0.6547
  439SOL    HW2 1786   3.994   0.983   0.768  0.6800 -0.1928 -0.1587
  439SOL    HW3 1787   4.042   0.901   0.651 -0.1413  0.3091 -0.8467
  439SOL    MW4 1788   4.020   0.907   0.735  0.6425 -0.0051 -0.6146
  440SOL     OW 1789   3.806   0.726   0.808 -0.0029  0.1187  0.3607
  440SOL    HW2 1790   3.881   0.783   0.796  0.1701  0.0332  1.0053
  440SOL    HW3 1791   3.800   0.714   0.903 -1.1457  0.5507  0.3504
  440SOL    MW4 1792   3.815   0.732   0.819 -0.1309  0.1644  0.4444
  441SOL     OW 1793   4.484   0.919   0.402 -0.5972  0.2961 -0.2401
  441SOL    HW2 1794   4.560   0.873   0.367 -1.6096  0.2961 -2.5277
  441SOL    HW3 1795   4.413   0.855   0.398 -0.6858  0.1916  2.1944
  441SOL    MW4 1796   4.485   0.905   0.397 -0.7424  0.2823 -0.2207
  442SOL     OW 1797   3.579   1.883   0.848 -0.0249 -0.1926 -0.2663
  442SOL    HW2 1798   3.578   1.793   0.815  0.7390 -0.3978  0.2697
  442SOL    HW3 1799   3.651   1.925   0.801 -1.0213  0.4241 -1.2579
  442SOL    MW4 1800   3.588   1.876   0.837 -0.0556 -0.1383 -0.3264
  443SOL     OW 1801   2.922   2.043   0.488 -0.6578 -0.1034  0.4861
  443SOL    HW2 1802   3.012   2.074   0.477  0.5560 -2.8173  2.1041
  443SOL    HW3 1803   2.909   2.043   0.583 -1.6277 -1.6533  0.3591
  443SOL    MW4 1804   2.933   2.047   0.499 -0.6256 -0.6659  0.6828
  444SOL     OW 1805   3.371   2.010   0.721 -0.0358  0.1045  0.3205
  444SOL    HW2 1806   3.442   1.968   0.769 -0.9718 -1.2042  0.5813
  444SOL    HW3 1807   3.291   1.983   0.767 -0.8282  0.0917 -1.0336
  444SOL    MW4 1808   3.369   2.001   0.733 -0.2638 -0.0699  0.1763
  445SOL     OW 1809   2.584   3.591   0.805 -0.1193 -0.0727 -0.6736
  445SOL    HW2 1810   2.491   3.572   0.789 -0.5221  1.4777 -0.2943
  445SOL    HW3 1811   2.631   3.540   0.739 -1.2564 -0.7147 -0.9977
  445SOL    MW4 1812   2.578   3.582   0.795 -0.3225  0.0471 -0.6663
  446SOL     OW 1813   2.690   0.354   0.786  0.2985 -0.4792 -0.3469
  446SOL    HW2 1814   2.608   0.397   0.762  0.1324 -1.2754 -1.2037
  446SOL    HW3 1815   2.696   0.366   0.881 -0.9905 -0.7272 -0.2215
  446SOL    MW4 1816   2.680   0.361   0.795  0.1065 -0.6170 -0.4434
  447SOL     OW 1817   1.656   2.924   0.604 -0.3897  0.2120  0.4587
  447SOL    HW2 1818   1.728   2.875   0.645 -1.9535 -0.9733  1.8352
  447SOL    HW3 1819   1.600   2.950   0.677 -1.6240  0.7271 -0.6581
  447SOL    MW4 1820   1.658   2.921   0.619 -0.7589  0.1236  0.4929
  448SOL     OW 1821   1.149   4.352   0.500 -0.1284  0.5941  0.1845
  448SOL    HW2 1822   1.124   4.442   0.477 -0.2838  0.7385  0.9259
  448SOL    HW3 1823   1.226   4.334   0.446  0.1481  1.3153  0.3347
  448SOL    MW4 1824   1.156   4.362   0.490 -0.1124  0.7083  0.3021
  449SOL     OW 1825   4.246   2.856   0.720  0.2518  0.1183  0.0613
  449SOL    HW2 1826   4.327   2.812   0.745 -0.4083 -0.0741  1.9452
  449SOL    HW3 1827   4.177   2.797   0.750 -0.6120  0.2401 -1.6010
  449SOL    MW4 1828   4.248   2.842   0.727  0.0508  0.1090  0.0905
  450SOL     OW 1829   3.803   3.080   0.829  0.2277  0.0079 -0.4671
  450SOL    HW2 1830   3.827   2.998   0.785  0.3373  0.4720 -1.2776
  450SOL    HW3 1831   3.861   3.146   0.791  0.1706  0.4609  0.2169
  450SOL    MW4 1832   3.814   3.078   0.819  0.2346  0.1289 -0.4838
  451SOL     OW 1833   3.356   3.871   0.815  0.2717 -0.5052 -0.1768
  451SOL    HW2 1834   3.394   3.786   0.793  0.1612 -0.5361 -0.2467
  451SOL    HW3 1835   3.361   3.876   0.911 -1.6937 -1.5095  0.0042
  451SOL    MW4 1836   3.362   3.860   0.825 -0.0022 -0.6418 -0.1622
  452SOL     OW 1837   3.567   3.213   0.780  0.2438  0.0207  0.2125
  452SOL    HW2 1838   3.648   3.165   0.799 -0.3510 -1.4225 -0.8224
  452SOL    HW3 1839   3.556   3.205   0.685 -0.1869  1.7167  0.1039
  452SOL    MW4 1840   3.577   3.205   0.770  0.1085  0.0541  0.0616
  453SOL     OW 1841   2.218   0.925   0.438 -0.1065  0.1422  0.0692
  453SOL    HW2 1842   2.292   0.865   0.441  0.0078  0.3407  1.2599
  453SOL    HW3 1843   2.258   1.012   0.434 -0.2773  0.1960 -0.5559
  453SOL    MW4 1844   2.233   0.929   0.438 -0.1140  0.1755  0.1438
  454SOL     OW 1845   0.444   1.935   0.823 -0.3968 -0.3943  0.1449
  454SOL    HW2 1846   0.450   1.840   0.811 -1.6833 -0.4289 -0.2940
  454SOL    HW3 1847   0.463   1.949   0.916  0.2161 -1.0347  0.1194
  454SOL    MW4 1848   0.447   1.924   0.834 -0.4857 -0.4833  0.0836
  455SOL     OW 1849   0.866   2.239   0.393  0.3228  0.0314 -0.0487
  455SOL    HW2 1850   0.794   2.177   0.403  0.4065  0.2691  2.3046
  455SOL    HW3 1851   0.824   2.325   0.394  0.6051  0.1616  1.1076
  455SOL    MW4 1852   0.851   2.242   0.395  0.3711  0.0800  0.4144
  456SOL     OW 1853   3.567   4.286   0.860 -0.2585 -0.0691  0.0753
  456SOL    HW2 1854   3.652   4.308   0.823  0.0848  1.6628  1.7948
  456SOL    HW3 1855   3.515   4.366   0.849 -2.1202 -1.5054 -2.1359
  456SOL    MW4 1856   3.571   4.300   0.854 -0.4588 -0.0301  0.0104
  457SOL     OW 1857   3.780   4.342   0.710 -0.2492  0.1271 -0.2438
  457SOL    HW2 1858   3.761   4.350   0.617 -0.2877  0.8705 -0.1724
  457SOL    HW3 1859   3.872   4.317   0.714 -0.1563  0.4347 -0.4696
  457SOL    MW4 1860   3.789   4.340   0.698 -0.2420  0.2658 -0.2642
  458SOL     OW 1861   3.548   2.195   0.414 -0.3550  0.6297 -0.4301
  458SOL    HW2 1862   3.638   2.165   0.406  0.2140  1.8717  0.9595
  458SOL    HW3 1863   3.495   2.121   0.385  1.0410 -0.8927  0.7872
  458SOL    MW4 1864   3.553   2.182   0.409 -0.0958  0.5927 -0.0861
  459SOL     OW 1865   2.446   3.221   0.853  0.0249  0.1549  0.2450
  459SOL    HW2 1866   2.458   3.142   0.801  0.5297  0.1237  0.4109
  459SOL    HW3 1867   2.434   3.190   0.943  0.6974  0.2886  0.3839
  459SOL    MW4 1868   2.446   3.207   0.858  0.1802  0.1684  0.2852
  460SOL     OW 1869   4.258   0.548   0.761  0.1270 -0.1911  0.1038
  460SOL    HW2 1870   4.233   0.567   0.670 -0.0749  2.0082  0.5819
  460SOL    HW3 1871   4.200   0.477   0.788 -0.3788 -0.2970 -1.2102
  460SOL    MW4 1872   4.247   0.541   0.752  0.0336  0.0851 -0.0065
  461SOL     OW 1873   4.065   0.352   0.857  0.6357  0.2625 -0.1910
  461SOL    HW2 1874   4.006   0.413   0.812  0.3608  0.1356 -0.0020
  461SOL    HW3 1875   4.041   0.266   0.822  2.0026  0.4097 -1.5506
  461SOL    MW4 1876   4.054   0.348   0.846  0.7797  0.2652 -0.3454
  462SOL     OW 1877   4.265   0.813   0.852  0.1547  0.0444 -0.1943
  462SOL    HW2 1878   4.183   0.845   0.814  0.7808  0.5869 -1.1207
  462SOL    HW3 1879   4.271   0.722   0.823  1.2095  0.7827 -2.4789
  462SOL    MW4 1880   4.255   0.806   0.843  0.3765  0.2134 -0.6180
  463SOL     OW 1881   0.259   3.559   0.428  0.5026  0.2262 -0.2205
  463SOL    HW2 1882   0.247   3.566   0.523 -0.7593  2.3140 -0.4969
  463SOL    HW3 1883   0.341   3.604   0.410  0.5774  0.1167 -0.1490
  463SOL    MW4 1884   0.268   3.566   0.438  0.3460  0.4872 -0.2475
  464SOL     OW 1885   3.416   1.145   0.574  0.4337 -0.3524 -0.0891
  464SOL    HW2 1886   3.390   1.233   0.548  1.3633  0.0719  0.3826
  464SOL    HW3 1887   3.414   1.147   0.670 -1.1347 -1.3410 -0.0750
  464SOL    MW4 1888   3.412   1.157   0.583  0.3494 -0.4269 -0.0250
  465SOL     OW 1889   2.885   0.782   0.499  0.1683 -0.1517  0.2916
  465SOL    HW2 1890   2.885   0.697   0.455 -0.2168 -0.0951  0.1772
  465SOL    HW3 1891   2.954   0.776   0.565  0.1105 -0.5671  0.3125
  465SOL    MW4 1892   2.894   0.770   0.502  0.1099 -0.1990  0.2793
  466SOL     OW 1893   4.245   1.518   0.796  0.3862  0.3657 -0.5258
  466SOL    HW2 1894   4.304   1.582   0.755  0.5577  0.9643  0.6302
  466SOL    HW3 1895   4.258   1.530   0.890 -0.5404 -0.4822 -0.2793
  466SOL    MW4 1896   4.255   1.528   0.803  0.2866  0.3328 -0.3408
  467SOL     OW 1897   3.866   1.306   0.639  0.0802  0.2530  0.0444
  467SOL    HW2 1898   3.921   1.264   0.706  1.3186  0.4110 -0.8394
  467SOL    HW3 1899   3.801   1.240   0.616  0.6210 -0.3667  0.2879
  467SOL    MW4 1900   3.865   1.292   0.645  0.3149  0.1921 -0.0401
  468SOL     OW 1901   4.243   4.380   0.437 -0.3131  0.2167  0.1455
  468SOL    HW2 1902   4.231   4.386   0.532 -0.3881  0.6084  0.1106
  468SOL    HW3 1903   4.163   4.417   0.400 -0.5404 -0.4871 -0.0686
  468SOL    MW4 1904   4.231   4.385   0.445 -0.3530  0.1755  0.1127
  469SOL     OW 1905   1.528   2.765   0.390  0.1866 -0.5623 -0.3030
  469SOL    HW2 1906   1.546   2.675   0.419  1.7430 -0.2207 -0.1559
  469SOL    HW3 1907   1.558   2.820   0.463 -2.8531  0.0024  0.5702
  469SOL    MW4 1908   1.534   2.760   0.404 -0.0091 -0.4427 -0.1684
  470SOL     OW 1909   0.011   2.482   0.731  0.1238  1.0268  0.5109
  470SOL    HW2 1910   0.001   2.480   0.635 -1.2978 -0.4174  0.6491
  470SOL    HW3 1911   0.088   2.428   0.748 -0.8389 -0.4566  0.2778
  470SOL    MW4 1912   0.020   2.474   0.720 -0.1908  0.6405  0.4984
  471SOL     OW 1913   3.739   3.177   0.339  0.2970  0.0944 -0.0936
  471SOL    HW2 1914   3.805   3.224   0.390  0.4324  0.6114 -0.7461
  471SOL    HW3 1915   3.708   3.241   0.275  0.9623 -0.8900 -1.4258
  471SOL    MW4 1916   3.744   3.191   0.338  0.4026  0.0327 -0.3554
  472SOL     OW 1917   4.062   2.464   0.699  0.0134  0.4350 -0.0893
  472SOL    HW2 1918   4.135   2.430   0.752  0.9048 -2.1415 -2.8514
  472SOL    HW3 1919   3.990   2.403   0.716 -0.4902  1.0502  0.0316
  472SOL    MW4 1920   4.062   2.451   0.708  0.0646  0.1762 -0.4378
  473SOL     OW 1921   4.207   1.161   0.463  0.0601  0.2574  0.1967
  473SOL    HW2 1922   4.149   1.232   0.436  0.4876  0.6490  0.2801
  473SOL    HW3 1923   4.226   1.180   0.555 -0.2413 -0.2613  0.3656
  473SOL    MW4 1924   4.202   1.173   0.471  0.0768  0.2406  0.2300
  474SOL     OW 1925   4.270   3.864   0.843  0.2100  0.0530 -0.6191
  474SOL    HW2 1926   4.273   3.779   0.799  0.1448  0.2243 -0.9575
  474SOL    HW3 1927   4.351   3.908   0.815  1.5141 -0.8788  1.5572
  474SOL    MW4 1928   4.281   3.859   0.833  0.3734 -0.0474 -0.3766
  475SOL     OW 1929   3.145   3.488   0.834 -0.7305 -0.5883 -0.0083
  475SOL    HW2 1930   3.133   3.401   0.796  0.0002 -0.1719 -1.2358
  475SOL    HW3 1931   3.059   3.529   0.829 -0.9496 -1.0281  0.0711
  475SOL    MW4 1932   3.132   3.482   0.829 -0.6630 -0.5914 -0.1598
  476SOL     OW 1933   4.014   3.510   0.831  0.0625  0.2616  0.3376
  476SOL    HW2 1934   4.029   3.502   0.926  0.7494 -1.6141  0.0904
  476SOL    HW3 1935   3.935   3.563   0.824 -0.4719 -0.2706  1.9922
  476SOL    MW4 1936   4.006   3.516   0.843  0.0826 -0.0561  0.5233
  477SOL     OW 1937   0.009   3.976   0.746  0.1658  0.1468 -0.4650
  477SOL    HW2 1938   0.034   3.986   0.655  1.8841 -0.2276 -0.0610
  477SOL    HW3 1939   0.083   3.929   0.786 -0.3827  0.6504  1.1896
  477SOL    MW4 1940   0.022   3.971   0.740  0.3202  0.1638 -0.1934
  478SOL     OW 1941   4.448   2.457   0.447  0.3369 -0.3639  0.0126
  478SOL    HW2 1942   4.483   2.375   0.413  0.6780 -0.0003 -0.5173
  478SOL    HW3 1943   4.353   2.447   0.440  0.4064 -0.3017 -1.0196
  478SOL    MW4 1944   4.440   2.445   0.442  0.3911 -0.3077 -0.1935
  479SOL     OW 1945   4.024   3.974   0.794 -0.5303 -0.6068 -0.0004
  479SOL    HW2 1946   4.025   4.066   0.818 -0.6304 -0.4880 -0.4594
  479SOL    HW3 1947   4.113   3.943   0.813  0.3966  0.3121 -2.7327
  479SOL    MW4 1948   4.036   3.982   0.800 -0.4212 -0.4699 -0.4214
  480SOL     OW 1949   1.093   4.602   0.417  0.0563 -0.4382 -0.0180
  480SOL    HW2 1950   1.176   4.649   0.404 -1.0565  0.8703 -2.7557
  480SOL    HW3 1951   1.026   4.669   0.407 -1.4226 -1.8049  0.5411
  480SOL    MW4 1952   1.095   4.617   0.414 -0.2856 -0.4459 -0.3054
  481SOL     OW 1953   0.215   4.277   0.469  0.6020 -0.0810  0.6797
  481SOL    HW2 1954   0.293   4.259   0.417 -0.2328 -0.1679 -0.5693
  481SOL    HW3 1955   0.174   4.191   0.480 -0.3379  0.2191 -0.3529
  481SOL    MW4 1956   0.220   4.263   0.463  0.3678 -0.0529  0.3787
  482SOL     OW 1957   0.202   4.655   1.128 -0.1702  0.1466  0.1066
  482SOL    HW2 1958   0.277   4.709   1.154 -0.8141  0.7585  0.6983
  482SOL    HW3 1959   0.213   4.642   1.034  0.3316  0.7657  0.0791
  482SOL    MW4 1960   0.213   4.660   1.119 -0.1889  0.3090  0.1811
  483SOL     OW 1961   4.458   0.116   1.228  0.5678 -0.2946 -0.0568
  483SOL    HW2 1962   4.391   0.062   1.185  0.6323 -0.5594  0.1741
  483SOL    HW3 1963   4.541   0.079   1.199  0.6167 -0.0908 -0.1832
  483SOL    MW4 1964   4.460   0.104   1.218  0.5828 -0.3026 -0.0430
  484SOL     OW 1965   4.434   0.368   1.117 -0.0786  0.2574  0.0526
  484SOL    HW2 1966   4.359   0.409   1.160 -0.9908 -0.7759 -0.5207
  484SOL    HW3 1967   4.434   0.278   1.150 -0.1972 -0.2613 -1.3382
  484SOL    MW4 1968   4.424   0.361   1.127 -0.2146  0.0527 -0.2065
  485SOL     OW 1969   0.184   0.512   1.202 -0.3681 -0.0323 -0.5744
  485SOL    HW2 1970   0.169   0.603   1.176 -0.5342  0.0529 -0.1926
  485SOL    HW3 1971   0.100   0.468   1.185 -0.2565 -0.1351 -0.8531
  485SOL    MW4 1972   0.171   0.518   1.196 -0.3753 -0.0346 -0.5608
  486SOL     OW 1973   0.192   0.767   1.089  0.3723 -0.1191  0.0191
  486SOL    HW2 1974   0.272   0.810   1.121  1.3006 -1.7287 -0.0905
  486SOL    HW3 1975   0.121   0.812   1.134  1.3477  1.2094  0.2701
  486SOL    MW4 1976   0.193   0.778   1.099  0.6234 -0.1562  0.0378
  487SOL     OW 1977   4.476   0.877   1.229  0.0625 -0.3043  0.1644
  487SOL    HW2 1978   4.489   0.882   1.324 -0.0588 -0.4984  0.1927
  487SOL    HW3 1979   4.392   0.832   1.220 -0.1312  0.0931 -0.0285
  487SOL    MW4 1980   4.467   0.872   1.241  0.0209 -0.2775  0.1427
  488SOL     OW 1981   0.004   1.136   1.134  0.3069  0.3926  0.0714
  488SOL    HW2 1982  -0.074   1.176   1.171  0.4734  0.3731  0.4379
  488SOL    HW3 1983   0.001   1.045   1.163 -1.0371 -0.3536 -2.2705
  488SOL    MW4 1984  -0.007   1.129   1.142  0.1515  0.2916 -0.1892
  489SOL     OW 1985   0.229   1.283   1.212 -0.3294 -0.0950 -0.8135
  489SOL    HW2 1986   0.304   1.227   1.191 -0.3062 -1.1422  1.7786
  489SOL    HW3 1987   0.152   1.231   1.187 -0.2511 -0.1710 -0.8949
  489SOL    MW4 1988   0.229   1.268   1.206 -0.3160 -0.2432 -0.4822
  490SOL     OW 1989   0.237   1.530   1.104 -0.3522  0.1601  0.2984
  490SOL    HW2 1990   0.233   1.437   1.127 -0.0011  0.1464  0.2957
  490SOL    HW3 1991   0.222   1.531   1.009 -2.3344  0.2580  0.5843
  490SOL    MW4 1992   0.234   1.518   1.094 -0.5674  0.1712  0.3357
  491SOL     OW 1993   0.020   1.660   1.210 -0.1366 -0.2526 -1.2557
  491SOL    HW2 1994   0.012   1.749   1.176 -0.0160 -0.1133 -0.9254
  491SOL    HW3 1995   0.097   1.624   1.166 -0.9159 -0.6265 -2.3306
  491SOL    MW4 1996   0.029   1.667   1.200 -0.2235 -0.2835 -1.3539
  492SOL     OW 1997   0.023   1.900   1.067 -0.0158  0.1470 -0.3029
  492SOL    HW2 1998  -0.056   1.952   1.086 -0.2512 -0.2643 -0.1621
  492SOL    HW3 1999   0.035   1.909   0.973 -0.8669 -0.6848 -0.5015
  492SOL    MW4 2000   0.014   1.908   1.057 -0.1592 -0.0170 -0.3106
  493SOL     OW 2001   0.193   2.066   1.199  0.6839 -0.4742 -0.5545
  493SOL    HW2 2002   0.178   2.155   1.167 -2.0063 -0.0446  1.6184
  493SOL    HW3 2003   0.141   2.010   1.142 -0.1057 -0.2740 -0.0429
  493SOL    MW4 2004   0.184   2.070   1.187  0.2248 -0.3911 -0.2003
  494SOL     OW 2005   0.176   2.325   1.102  0.3993 -0.2142  0.1365
  494SOL    HW2 2006   0.255   2.366   1.138  0.0145  0.6444  0.0098
  494SOL    HW3 2007   0.104   2.372   1.144 -0.0507 -0.2887 -0.5498
  494SOL    MW4 2008   0.177   2.336   1.113  0.2892 -0.1108  0.0292
  495SOL     OW 2009   4.456   2.495   1.204  0.2321  0.0561 -0.5369
  495SOL    HW2 2010   4.452   2.484   1.299  0.9872 -0.2179 -0.5344
  495SOL    HW3 2011   4.402   2.423   1.170  1.4770 -0.9789 -0.3691
  495SOL    MW4 2012   4.448   2.484   1.212  0.4960 -0.1166 -0.5144
  496SOL     OW 2013   4.475   2.723   1.062 -0.4516  0.9975  0.5029
  496SOL    HW2 2014   4.406   2.772   1.108 -2.2804 -1.3420  0.3810
  496SOL    HW3 2015   4.464   2.633   1.093  1.7827  0.3664 -0.4836
  496SOL    MW4 2016   4.464   2.718   1.072 -0.3981  0.6056  0.3567
  497SOL     OW 2017   0.224   2.841   1.189  0.1372  0.0303 -0.0404
  497SOL    HW2 2018   0.230   2.827   1.283 -0.3074 -1.3875 -0.2003
  497SOL    HW3 2019   0.156   2.779   1.160  0.7247 -0.0067 -1.3730
  497SOL    MW4 2020   0.216   2.831   1.198  0.1560 -0.1616 -0.2373
  498SOL     OW 2021   0.234   3.083   1.069  0.3898 -0.4376  0.1130
  498SOL    HW2 2022   0.299   3.120   1.129  1.0632 -1.5052  0.0444
  498SOL    HW3 2023   0.217   2.995   1.103 -0.0445 -0.6402 -0.6234
  498SOL    MW4 2024   0.241   3.077   1.082  0.4214 -0.6052  0.0068
  499SOL     OW 2025   0.029   3.233   1.163 -0.2654 -0.0663  0.0848
  499SOL    HW2 2026  -0.053   3.204   1.121  0.0278 -1.6633  0.5587
  499SOL    HW3 2027   0.097   3.183   1.118  0.4282  1.0952 -0.1533
  499SOL    MW4 2028   0.027   3.222   1.152 -0.1352 -0.1238  0.1159
  500SOL     OW 2029   0.020   3.490   1.093  0.2984 -0.0285 -0.1166
  500SOL    HW2 2030   0.031   3.397   1.112  0.6919  0.1281  0.4402
  500SOL    HW3 2031  -0.004   3.493   1.001  0.5100 -0.6663 -0.1954
  500SOL    MW4 2032   0.018   3.478   1.084  0.3783 -0.0920 -0.0536
  501SOL     OW 2033   0.245   3.586   1.234 -0.2099 -0.2107  0.6233
  501SOL    HW2 2034   0.247   3.570   1.328  0.3977 -0.4285  0.5771
  501SOL    HW3 2035   0.164   3.546   1.204 -0.6405  0.2699  1.1250
  501SOL    MW4 2036   0.235   3.579   1.242 -0.1866 -0.1761  0.6834
  502SOL     OW 2037   0.277   3.850   1.109  0.0943 -0.3603  0.3039
  502SOL    HW2 2038   0.198   3.894   1.142  0.8452  0.3207  1.2089
  502SOL    HW3 2039   0.278   3.765   1.154  0.3085 -0.0397  0.9107
  502SOL    MW4 2040   0.267   3.844   1.119  0.2216 -0.2281  0.5034
  503SOL     OW 2041   4.269   3.876   1.114 -0.0800 -0.0399 -0.1851
  503SOL    HW2 2042   4.265   3.782   1.130  1.1362  0.0144  0.4974
  503SOL    HW3 2043   4.273   3.884   1.019 -1.9878 -0.5939 -0.3189
  503SOL    MW4 2044   4.269   3.865   1.104 -0.1712 -0.1058 -0.1127
  504SOL     OW 2045   4.482   4.243   1.101  0.7581 -0.0101  0.5330
  504SOL    HW2 2046   4.555   4.291   1.140  1.3834 -1.1905  0.8382
  504SOL    HW3 2047   4.502   4.151   1.118 -0.3397 -0.3918 -0.1914
  504SOL    MW4 2048   4.494   4.237   1.108  0.6958 -0.2162  0.4777
  505SOL     OW 2049   0.191   4.385   1.201  0.2092  0.1087 -0.4424
  505SOL    HW2 2050   0.216   4.393   1.293 -2.3612  1.3876  0.1933
  505SOL    HW3 2051   0.175   4.476   1.173  1.3765 -0.2317 -2.2717
  505SOL    MW4 2052   0.192   4.398   1.209  0.0241  0.2326 -0.5999
  506SOL     OW 2053   0.669   4.658   1.125  0.5079  0.3036  0.0753
  506SOL    HW2 2054   0.749   4.696   1.161  0.5121 -0.0057  0.3955
  506SOL    HW3 2055   0.682   4.564   1.133 -0.0470  0.2589  0.4764
  506SOL    MW4 2056   0.681   4.651   1.131  0.4352  0.2569  0.1705
  507SOL     OW 2057   0.417   0.138   1.204 -0.8436  0.1167 -0.1726
  507SOL    HW2 2058   0.425   0.227   1.169 -0.2719  0.7897  1.6382
  507SOL    HW3 2059   0.496   0.093   1.174 -0.5658  0.5601 -0.1059
  507SOL    MW4 2060   0.429   0.144   1.195 -0.7315  0.2640  0.0751
  508SOL     OW 2061   0.428   0.401   1.131  0.1264  0.2003 -0.1364
  508SOL    HW2 2062   0.347   0.450   1.149  0.1095  0.1496 -0.0733
  508SOL    HW3 2063   0.438   0.405   1.035 -0.9145 -1.3004 -0.3373
  508SOL    MW4 2064   0.418   0.408   1.120 -0.0132 -0.0044 -0.1545
  509SOL     OW 2065   0.681   0.534   1.234  0.3179 -0.1680 -0.2957
  509SOL    HW2 2066   0.666   0.620   1.195 -1.5062 -0.1537  0.3828
  509SOL    HW3 2067   0.604   0.483   1.210  0.8719 -1.2773  0.2454
  509SOL    MW4 2068   0.669   0.539   1.226  0.1503 -0.3125 -0.1348
  510SOL     OW 2069   0.694   0.785   1.113  0.3548  0.3049 -0.1273
  510SOL    HW2 2070   0.601   0.802   1.128  0.8829  2.0595  1.3351
  510SOL    HW3 2071   0.701   0.774   1.018 -1.6506 -1.9354 -0.0919
  510SOL    MW4 2072   0.682   0.786   1.103  0.1599  0.2408  0.0703
  511SOL     OW 2073   0.429   0.874   1.163  0.3106 -0.0280 -0.4118
  511SOL    HW2 2074   0.419   0.857   1.256 -0.7922 -0.0808 -0.5231
  511SOL    HW3 2075   0.464   0.963   1.158  2.3923 -0.7973  0.0865
  511SOL    MW4 2076   0.432   0.884   1.174  0.4397 -0.1365 -0.3607
  512SOL     OW 2077   0.458   1.154   1.117 -0.2487 -0.6195 -0.9822
  512SOL    HW2 2078   0.528   1.209   1.152 -0.1669 -0.9442 -0.6348
  512SOL    HW3 2079   0.459   1.170   1.023  0.1059 -0.4120 -0.9431
  512SOL    MW4 2080   0.467   1.163   1.109 -0.1912 -0.6350 -0.9312
  513SOL     OW 2081   0.635   1.325   1.237 -0.1338 -0.6088 -0.3032
  513SOL    HW2 2082   0.713   1.282   1.203  0.2493 -0.1862  0.0444
  513SOL    HW3 2083   0.629   1.407   1.188  1.4502  0.8693  1.9138
  513SOL    MW4 2084   0.644   1.330   1.226  0.1257 -0.3580  0.0352
  514SOL     OW 2085   0.660   1.564   1.082  0.2721 -0.0596  0.3495
  514SOL    HW2 2086   0.589   1.613   1.123 -0.2920  0.2398 -0.9814
  514SOL    HW3 2087   0.739   1.595   1.128 -0.3265  0.4041  1.0820
  514SOL    MW4 2088   0.661   1.574   1.094  0.1187  0.0411  0.2705
  515SOL     OW 2089   0.440   1.690   1.210  0.1009 -0.0270 -0.0703
  515SOL    HW2 2090   0.439   1.691   1.305 -0.8580  3.7188 -0.0538
  515SOL    HW3 2091   0.366   1.635   1.185 -0.4293  0.0434  1.3326
  515SOL    MW4 2092   0.430   1.683   1.219 -0.0955  0.4765  0.1170
  516SOL     OW 2093   0.460   1.950   1.102  0.5880 -0.2649  0.3302
  516SOL    HW2 2094   0.467   1.862   1.140 -1.6754 -1.7639 -2.5369
  516SOL    HW3 2095   0.375   1.982   1.132 -0.2146 -0.5657 -1.5766
  516SOL    MW4 2096   0.450   1.943   1.111  0.1835 -0.5023 -0.2996
  517SOL     OW 2097   0.673   2.089   1.201  0.3152 -0.5135 -0.2423
  517SOL    HW2 2098   0.657   2.089   1.296 -0.2042 -1.6533 -0.3186
  517SOL    HW3 2099   0.597   2.043   1.164  0.6143 -0.2516 -1.1910
  517SOL    MW4 2100   0.661   2.083   1.209  0.2862 -0.6293 -0.3776
  518SOL     OW 2101   0.656   2.347   1.105  0.3712 -0.1450 -0.4228
  518SOL    HW2 2102   0.575   2.387   1.137 -0.1322 -1.1959 -0.3599
  518SOL    HW3 2103   0.658   2.261   1.148  1.8615  0.1437  0.1057
  518SOL    MW4 2104   0.646   2.341   1.115  0.5014 -0.2455 -0.3448
  519SOL     OW 2105   0.421   2.461   1.188  0.3844  0.2574  0.0566
  519SOL    HW2 2106   0.414   2.452   1.284 -1.5151  0.6976 -0.0121
  519SOL    HW3 2107   0.437   2.554   1.174 -0.6067  0.4172 -0.0856
  519SOL    MW4 2108   0.422   2.472   1.199  0.0030  0.3366  0.0287
  520SOL     OW 2109   0.468   2.726   1.093  0.1741 -0.1685  0.7961
  520SOL    HW2 2110   0.391   2.775   1.124  1.5355  2.3942  0.2682
  520SOL    HW3 2111   0.465   2.736   0.998  1.7322  0.8552  0.8423
  520SOL    MW4 2112   0.457   2.734   1.084  0.5593  0.3047  0.7326
  521SOL     OW 2113   0.687   2.837   1.204  0.4699 -0.0929  0.3893
  521SOL    HW2 2114   0.676   2.925   1.166  1.9014  0.3483  0.9736
  521SOL    HW3 2115   0.621   2.784   1.160 -0.1153  1.1763 -0.3027
  521SOL    MW4 2116   0.677   2.842   1.193  0.5815  0.1327  0.3751
  522SOL     OW 2117   0.618   3.086   1.116 -0.0100 -0.2775 -0.3512
  522SOL    HW2 2118   0.692   3.138   1.147  0.5112 -0.2590 -1.6078
  522SOL    HW3 2119   0.631   3.079   1.022  0.5178 -3.5462 -0.1129
  522SOL    MW4 2120   0.630   3.092   1.108  0.1284 -0.7063 -0.4856
  523SOL     OW 2121   0.416   3.213   1.225 -0.2395 -0.1117 -0.2328
  523SOL    HW2 2122   0.493   3.175   1.183 -0.5013  0.9715 -1.7921
  523SOL    HW3 2123   0.418   3.305   1.198 -2.3279 -0.1757 -0.6990
  523SOL    MW4 2124   0.426   3.220   1.216 -0.5495  0.0228 -0.5001
  524SOL     OW 2125   0.455   3.474   1.104 -0.2640 -0.3096 -0.2867
  524SOL    HW2 2126   0.525   3.499   1.164  0.1108  0.1369 -0.9037
  524SOL    HW3 2127   0.376   3.514   1.141 -0.1947 -0.8271  0.4160
  524SOL    MW4 2128   0.454   3.483   1.117 -0.2054 -0.3190 -0.2754
  525SOL     OW 2129   0.665   3.573   1.254 -0.0077  0.1735  0.1203
  525SOL    HW2 2130   0.656   3.586   1.348 -1.4405  0.7341 -0.0819
  525SOL    HW3 2131   0.657   3.660   1.216 -0.5162 -0.1756 -0.5926
  525SOL    MW4 2132   0.663   3.586   1.262 -0.2638  0.2014 -0.0004
  526SOL     OW 2133   0.653   3.824   1.142 -0.1538 -0.5323 -0.0333
  526SOL    HW2 2134   0.602   3.894   1.181  2.2596  0.5913  1.2064
  526SOL    HW3 2135   0.635   3.829   1.048 -0.8013  1.0652  0.1760
  526SOL    MW4 2136   0.644   3.834   1.135  0.0792 -0.1733  0.1579
  527SOL     OW 2137   0.480   4.016   1.216 -0.7474 -0.3583 -0.0601
  527SOL    HW2 2138   0.476   4.095   1.162 -0.3325 -0.1611  0.1991
  527SOL    HW3 2139   0.420   3.954   1.173 -1.3876  0.2396 -0.0259
  527SOL    MW4 2140   0.472   4.018   1.203 -0.7771 -0.2534 -0.0214
  528SOL     OW 2141   0.431   4.245   1.086  0.5134  0.7547 -0.3501
  528SOL    HW2 2142   0.496   4.293   1.137 -0.6281  1.3131  0.5828
  528SOL    HW3 2143   0.347   4.274   1.120 -0.2234 -0.4993 -1.0767
  528SOL    MW4 2144   0.429   4.255   1.097  0.2656  0.6629 -0.3229
  529SOL     OW 2145   0.673   4.385   1.157 -0.2625  0.2952  0.2687
  529SOL    HW2 2146   0.677   4.379   1.252 -2.1587 -0.7158  0.2969
  529SOL    HW3 2147   0.751   4.336   1.127  0.0845  0.2291  1.2713
  529SOL    MW4 2148   0.684   4.378   1.165 -0.4669  0.1531  0.4047
  530SOL     OW 2149   1.107   0.004   1.110  0.0772  0.7601  0.3337
  530SOL    HW2 2150   1.097  -0.088   1.134  0.5288  0.3068 -1.1376
  530SOL    HW3 2151   1.108   0.004   1.014  0.3461  2.2689  0.3171
  530SOL    MW4 2152   1.106  -0.008   1.100  0.1723  0.8993  0.1374
  531SOL     OW 2153   0.895   0.158   1.177 -0.1327 -0.0401  0.2669
  531SOL    HW2 2154   0.916   0.153   1.270 -1.6638 -0.6402  0.6022
  531SOL    HW3 2155   0.962   0.105   1.134  0.6458  0.3389  1.0223
  531SOL    MW4 2156   0.906   0.150   1.184 -0.2320 -0.0693  0.4108
  532SOL     OW 2157   0.878   0.418   1.072 -0.4758  0.3912  0.0743
  532SOL    HW2 2158   0.884   0.327   1.102  0.6791  0.1059 -1.0152
  532SOL    HW3 2159   0.814   0.458   1.131  1.0304 -0.4244  2.3276
  532SOL    MW4 2160   0.871   0.412   1.084 -0.1247  0.2460  0.2279
  533SOL     OW 2161   1.115   0.500   1.199 -0.0038 -0.1539 -0.1273
  533SOL    HW2 2162   1.116   0.487   1.293  0.7595 -1.1775 -0.2691
  533SOL    HW3 2163   1.038   0.452   1.169 -0.3415  0.3114 -0.0090
  533SOL    MW4 2164   1.105   0.492   1.207  0.0523 -0.2276 -0.1304
  534SOL     OW 2165   1.135   0.772   1.127  0.0199  0.2621 -0.0996
  534SOL    HW2 2166   1.134   0.679   1.147 -0.3771  0.0810 -0.9308
  534SOL    HW3 2167   1.052   0.805   1.163  0.0379  0.2445 -0.0421
  534SOL    MW4 2168   1.124   0.764   1.135 -0.0301  0.2359 -0.2017
  535SOL     OW 2169   0.912   0.903   1.230  0.1268 -0.3975  0.5175
  535SOL    HW2 2170   0.906   0.996   1.204  1.3318 -0.2326  0.8074
  535SOL    HW3 2171   0.834   0.863   1.190 -0.8462  0.8898  1.0628
  535SOL    MW4 2172   0.901   0.910   1.221  0.1574 -0.2059  0.6277
  536SOL     OW 2173   0.859   1.170   1.129  0.0753 -0.5953  0.1252
  536SOL    HW2 2174   0.943   1.212   1.145  0.3722 -1.3230  0.5031
  536SOL    HW3 2175   0.851   1.166   1.033 -0.7032  1.7795  0.0559
  536SOL    MW4 2176   0.869   1.175   1.118  0.0117 -0.3780  0.1660
  537SOL     OW 2177   1.091   1.286   1.188  0.3291  0.3475  0.1057
  537SOL    HW2 2178   1.078   1.288   1.282  0.1836 -0.1036  0.0980
  537SOL    HW3 2179   1.172   1.236   1.176 -0.2954 -0.6192 -0.0685
  537SOL    MW4 2180   1.100   1.280   1.199  0.2275  0.1605  0.0817
  538SOL     OW 2181   1.114   1.542   1.063  0.4330  0.2320 -0.0028
  538SOL    HW2 2182   1.111   1.453   1.098 -0.2865  0.1169 -0.3256
  538SOL    HW3 2183   1.101   1.530   0.969 -1.1629  0.7768  0.1310
  538SOL    MW4 2184   1.112   1.528   1.055  0.1275  0.2887 -0.0278
  539SOL     OW 2185   0.884   1.670   1.184 -0.2382 -0.0905 -0.2654
  539SOL    HW2 2186   0.875   1.758   1.147 -3.3652 -0.1593  0.1736
  539SOL    HW3 2187   0.964   1.636   1.145  0.8657  2.8108 -0.7101
  539SOL    MW4 2188   0.893   1.677   1.174 -0.5052  0.2832 -0.2661
  540SOL     OW 2189   0.865   1.937   1.058 -0.0379  0.4832 -0.7661
  540SOL    HW2 2190   0.806   1.984   1.117  0.2550  1.5093 -1.2842
  540SOL    HW3 2191   0.951   1.977   1.073  0.2245  0.0675 -1.1564
  540SOL    MW4 2192   0.868   1.949   1.068  0.0353  0.5638 -0.8860
  541SOL     OW 2193   1.093   2.088   1.119 -0.2103 -0.0341 -0.0429
  541SOL    HW2 2194   1.100   2.091   1.214 -0.8728 -0.5540  0.0246
  541SOL    HW3 2195   1.083   2.179   1.093  0.8551  0.1922  0.3099
  541SOL    MW4 2196   1.093   2.100   1.128 -0.1572 -0.0729  0.0126
  542SOL     OW 2197   1.067   2.355   1.038  0.3303 -0.4020 -0.0678
  542SOL    HW2 2198   1.147   2.384   1.082 -0.2948  1.9224 -0.3682
  542SOL    HW3 2199   0.996   2.396   1.088 -0.5232 -0.0774 -1.5114
  542SOL    MW4 2200   1.068   2.364   1.051  0.1352 -0.0525 -0.2979
  543SOL     OW 2201   0.874   2.452   1.221 -0.2468  0.2809 -0.0285
  543SOL    HW2 2202   0.877   2.436   1.316  0.1709  0.3541 -0.0291
  543SOL    HW3 2203   0.790   2.416   1.194 -0.3136  0.1443  0.3527
  543SOL    MW4 2204   0.864   2.445   1.230 -0.2005  0.2725  0.0217
  544SOL     OW 2205   0.888   2.683   1.085 -0.2153 -0.0631 -0.4530
  544SOL    HW2 2206   0.824   2.744   1.121  0.5185  0.5708 -0.2091
  544SOL    HW3 2207   0.893   2.613   1.151 -1.6682 -0.8252 -1.1236
  544SOL    MW4 2208   0.880   2.682   1.098 -0.3102 -0.0800 -0.5093
  545SOL     OW 2209   1.096   2.862   1.170 -0.0511 -0.0512  0.9814
  545SOL    HW2 2210   1.094   2.868   1.266 -2.1189  0.5659  0.9176
  545SOL    HW3 2211   1.036   2.791   1.148 -0.4846  0.5757  0.0947
  545SOL    MW4 2212   1.088   2.854   1.180 -0.3811  0.1129  0.8560
  546SOL     OW 2213   1.072   3.126   1.099 -0.4675  0.9127 -0.0815
  546SOL    HW2 2214   1.082   3.035   1.127  3.5991  1.4601  0.5734
  546SOL    HW3 2215   1.077   3.122   1.003 -1.1645  0.3514 -0.0982
  546SOL    MW4 2216   1.074   3.113   1.090 -0.0229  0.9109  0.0027
  547SOL     OW 2217   0.840   3.237   1.194 -0.1037  0.3658 -0.0769
  547SOL    HW2 2218   0.853   3.331   1.181  1.0946  0.1861 -0.2273
  547SOL    HW3 2219   0.913   3.196   1.147 -0.9339 -0.6626 -0.4863
  547SOL    MW4 2220   0.852   3.244   1.186 -0.0551  0.2064 -0.1508
  548SOL     OW 2221   0.919   3.510   1.158  0.2075 -0.4092 -0.0149
  548SOL    HW2 2222   0.840   3.543   1.202  0.9213 -0.1671  1.1096
  548SOL    HW3 2223   0.897   3.511   1.065 -0.7980  0.5202  0.2231
  548SOL    MW4 2224   0.905   3.514   1.152  0.1690 -0.2547  0.1648
  549SOL     OW 2225   1.142   3.644   1.218 -0.3827  0.0916 -0.0591
  549SOL    HW2 2226   1.202   3.588   1.169 -0.7191 -0.4164  0.1068
  549SOL    HW3 2227   1.056   3.608   1.200 -0.6844  1.0418 -0.5933
  549SOL    MW4 2228   1.139   3.632   1.209 -0.4669  0.1499 -0.1077
  550SOL     OW 2229   1.133   3.904   1.101 -0.4912  0.2111 -0.2995
  550SOL    HW2 2230   1.047   3.939   1.125 -0.2067 -0.2182  1.4510
  550SOL    HW3 2231   1.134   3.815   1.139  1.0074  0.5085  0.4038
  550SOL    MW4 2232   1.122   3.897   1.109 -0.2560  0.1937  0.0242
  551SOL     OW 2233   0.880   3.967   1.204 -0.0633  0.3898 -0.2938
  551SOL    HW2 2234   0.890   3.968   1.300  0.9485  2.1838 -0.3958
  551SOL    HW3 2235   0.800   3.916   1.189 -0.2861  0.1698  1.5213
  551SOL    MW4 2236   0.871   3.961   1.215  0.0408  0.5974 -0.0678
  552SOL     OW 2237   0.898   4.234   1.089  0.0234  0.2869 -0.0037
  552SOL    HW2 2238   0.873   4.155   1.137  0.1631  1.0723  1.4094
  552SOL    HW3 2239   0.893   4.209   0.997 -2.0518 -0.7443  0.3479
  552SOL    MW4 2240   0.894   4.221   1.083 -0.2320  0.2545  0.2291
  553SOL     OW 2241   1.123   4.386   1.157 -0.0665  0.5483 -0.2328
  553SOL    HW2 2242   1.137   4.376   1.251  1.7237 -1.1126 -0.6480
  553SOL    HW3 2243   1.040   4.342   1.139  0.4084 -0.5586  0.3045
  553SOL    MW4 2244   1.114   4.379   1.167  0.2323  0.1831 -0.2167
  554SOL     OW 2245   1.557   4.627   1.092 -0.3392 -0.3803  0.1638
  554SOL    HW2 2246   1.629   4.667   1.140  0.2961 -0.7659 -0.4453
  554SOL    HW3 2247   1.541   4.544   1.138 -0.3252 -0.3359  0.2484
  554SOL    MW4 2248   1.565   4.621   1.104 -0.2535 -0.4253  0.0946
  555SOL     OW 2249   1.372   0.137   1.176 -0.0086  0.3654  0.3679
  555SOL    HW2 2250   1.448   0.085   1.152 -0.6411 -0.7923  0.8244
  555SOL    HW3 2251   1.297   0.089   1.142 -0.5509  1.4530 -0.0117
  555SOL    MW4 2252   1.372   0.124   1.168 -0.1636  0.3561  0.3781
  556SOL     OW 2253   1.356   0.393   1.116 -0.0879  0.4877 -0.3614
  556SOL    HW2 2254   1.280   0.437   1.155 -0.0204  0.4284 -0.1633
  556SOL    HW3 2255   1.349   0.302   1.147  1.2988  0.9828  1.4874
  556SOL    MW4 2256   1.345   0.386   1.125  0.1040  0.5452 -0.0914
  557SOL     OW 2257   1.778   0.084   1.224 -0.3224 -0.1850  0.3465
  557SOL    HW2 2258   1.765   0.171   1.186 -2.0403 -0.6496 -0.1795
  557SOL    HW3 2259   1.856   0.050   1.181  0.8111  1.4089  1.1294
  557SOL    MW4 2260   1.786   0.091   1.213 -0.3995 -0.0360  0.3804
  558SOL     OW 2261   1.560   0.751   1.092 -0.5579  0.1055 -0.0169
  558SOL    HW2 2262   1.625   0.817   1.120 -0.3630 -0.4120  0.7895
  558SOL    HW3 2263   1.562   0.755   0.997  0.0468  0.7000  0.0082
  558SOL    MW4 2264   1.569   0.760   1.083 -0.4524  0.1156  0.0928
  559SOL     OW 2265   1.371   0.893   1.236  0.1443  0.1193  0.0142
  559SOL    HW2 2266   1.443   0.850   1.190 -0.3601 -1.5290  0.7350
  559SOL    HW3 2267   1.292   0.854   1.199 -0.3447  0.7047  0.4141
  559SOL    MW4 2268   1.370   0.882   1.225  0.0133 -0.0209  0.1620
  560SOL     OW 2269   1.323   1.145   1.138 -0.0672  0.0719 -0.1112
  560SOL    HW2 2270   1.317   1.057   1.175 -2.4105  0.4369  0.4772
  560SOL    HW3 2271   1.333   1.131   1.044 -0.0570 -0.8370  0.0242
  560SOL    MW4 2272   1.323   1.132   1.131 -0.3750  0.0001 -0.0157
  561SOL     OW 2273   1.784   1.162   1.074  0.0683  0.2689 -0.2109
  561SOL    HW2 2274   1.774   1.144   0.981 -2.3587 -1.0445  0.2680
  561SOL    HW3 2275   1.709   1.216   1.097  0.3474  0.1227  1.1122
  561SOL    MW4 2276   1.773   1.167   1.065 -0.2151  0.0763  0.0268
  562SOL     OW 2277   1.555   1.582   1.129  0.2929 -0.5419 -0.5822
  562SOL    HW2 2278   1.630   1.617   1.178 -1.8446  0.3993  2.1308
  562SOL    HW3 2279   1.558   1.488   1.146 -0.0064 -0.3157  0.8030
  562SOL    MW4 2280   1.565   1.574   1.138 -0.0286 -0.3878 -0.0415
  563SOL     OW 2281   1.323   1.703   1.178  0.2268 -0.1047 -0.1989
  563SOL    HW2 2282   1.410   1.666   1.162 -0.5228 -1.3214 -1.5550
  563SOL    HW3 2283   1.265   1.652   1.122 -1.3608  0.7374  0.6631
  563SOL    MW4 2284   1.327   1.692   1.169 -0.0816 -0.1541 -0.2641
  564SOL     OW 2285   1.333   1.946   1.063  0.5927 -0.5632 -0.2611
  564SOL    HW2 2286   1.344   1.861   1.107  1.0661  0.0456  0.8141
  564SOL    HW3 2287   1.250   1.980   1.098  0.4295 -0.5583 -0.6515
  564SOL    MW4 2288   1.323   1.939   1.073  0.6336 -0.4822 -0.1707
  565SOL     OW 2289   1.571   2.061   1.162  0.1984 -0.4744 -0.4138
  565SOL    HW2 2290   1.560   2.155   1.147 -1.6985 -0.5172  0.5567
  565SOL    HW3 2291   1.489   2.022   1.130  1.1687 -1.8607 -1.2774
  565SOL    MW4 2292   1.559   2.068   1.155  0.0762 -0.6629 -0.3997
  566SOL     OW 2293   1.564   2.331   1.125 -0.0170 -0.5190  0.1984
  566SOL    HW2 2294   1.473   2.358   1.136 -0.1053 -0.5756 -0.3619
  566SOL    HW3 2295   1.577   2.331   1.030  0.4574 -0.8712  0.2646
  566SOL    MW4 2296   1.554   2.335   1.114  0.0340 -0.5729  0.1332
  567SOL     OW 2297   1.304   2.434   1.159 -0.2399  0.4216  0.5151
  567SOL    HW2 2298   1.290   2.413   1.252  1.3284  0.9428  0.8876
  567SOL    HW3 2299   1.334   2.525   1.160 -0.1411  0.4018 -0.5125
  567SOL    MW4 2300   1.306   2.443   1.172 -0.0200  0.4878  0.4287
  568SOL     OW 2301   1.360   2.703   1.142 -0.0953  0.1580  0.1554
  568SOL    HW2 2302   1.428   2.755   1.185 -0.0542  0.4908 -0.3094
  568SOL    HW3 2303   1.285   2.763   1.136 -0.6418 -0.4029  1.2267
  568SOL    MW4 2304   1.359   2.718   1.147 -0.1620  0.1279  0.2354
  569SOL     OW 2305   1.557   2.878   1.229  0.4077 -0.0308  0.3610
  569SOL    HW2 2306   1.632   2.821   1.211  1.7216  1.1604  1.8433
  569SOL    HW3 2307   1.573   2.956   1.177 -0.8636 -0.5781 -0.8767
  569SOL    MW4 2308   1.569   2.881   1.220  0.4133  0.0542  0.3933
  570SOL     OW 2309   1.545   3.101   1.069  0.2872  0.3505 -0.0053
  570SOL    HW2 2310   1.608   3.158   1.114  0.3143 -0.0807  0.5044
  570SOL    HW3 2311   1.460   3.139   1.089  0.2974  0.1405  0.4337
  570SOL    MW4 2312   1.542   3.113   1.078  0.2921  0.2659  0.1199
  571SOL     OW 2313   1.319   3.216   1.166 -0.1319  0.2763 -0.2122
  571SOL    HW2 2314   1.317   3.213   1.261 -1.0343  1.8811 -0.1683
  571SOL    HW3 2315   1.233   3.185   1.139  0.7958 -2.0936 -0.5932
  571SOL    MW4 2316   1.308   3.212   1.175 -0.1285  0.1754 -0.2567
  572SOL     OW 2317   1.336   3.486   1.106 -0.4033  0.0204 -0.3635
  572SOL    HW2 2318   1.337   3.494   1.011 -1.7187 -0.0229 -0.3950
  572SOL    HW3 2319   1.347   3.392   1.122  0.6846  0.1342 -0.4464
  572SOL    MW4 2320   1.338   3.474   1.095 -0.4333  0.0297 -0.3786
  573SOL     OW 2321   1.556   3.625   1.210  0.2217 -1.2541 -0.1970
  573SOL    HW2 2322   1.476   3.583   1.178  0.9205 -2.3028 -0.5892
  573SOL    HW3 2323   1.557   3.608   1.304 -0.8456  0.1636  0.0802
  573SOL    MW4 2324   1.546   3.617   1.218  0.1731 -1.2054 -0.2122
  574SOL     OW 2325   1.582   3.900   1.159 -0.3214  0.1841  0.0864
  574SOL    HW2 2326   1.572   3.807   1.177 -0.4434  0.3354  0.8243
  574SOL    HW3 2327   1.498   3.939   1.183 -0.1527  0.5367  0.1116
  574SOL    MW4 2328   1.570   3.893   1.164 -0.3152  0.2506  0.1870
  575SOL     OW 2329   1.346   4.026   1.230  0.0309 -0.4151 -0.1202
  575SOL    HW2 2330   1.367   4.111   1.191 -1.1835  0.8251  1.8534
  575SOL    HW3 2331   1.266   3.998   1.185 -0.7116  0.4704  0.6133
  575SOL    MW4 2332   1.338   4.033   1.219 -0.2273 -0.1346  0.2370
  576SOL     OW 2333   1.370   4.278   1.118  0.2038 -0.1666  0.0984
  576SOL    HW2 2334   1.282   4.316   1.124  2.2376  4.7574  0.5018
  576SOL    HW3 2335   1.390   4.276   1.024  0.4417  0.5838  0.1348
  576SOL    MW4 2336   1.361   4.283   1.106  0.5035  0.5821  0.1564
  577SOL     OW 2337   1.567   4.398   1.262 -0.3593 -0.4891 -0.1379
  577SOL    HW2 2338   1.536   4.393   1.353 -0.7166  0.1011 -0.2257
  577SOL    HW3 2339   1.499   4.352   1.212 -0.6878  0.0847 -0.2283
  577SOL    MW4 2340   1.554   4.391   1.267 -0.4498 -0.3355 -0.1614
  578SOL     OW 2341   2.022   4.665   1.115  0.2118 -0.4626  0.2464
  578SOL    HW2 2342   2.049   4.574   1.130  0.5911 -0.5092 -0.6819
  578SOL    HW3 2343   2.014   4.672   1.020 -0.3768  0.3190  0.3492
  578SOL    MW4 2344   2.024   4.654   1.104  0.1842 -0.3657  0.1375
  579SOL     OW 2345   0.899   0.870   0.699 -0.1483  0.3938 -0.1597
  579SOL    HW2 2346   0.968   0.820   0.743 -0.4732  0.5091  0.4851
  579SOL    HW3 2347   0.917   0.859   0.605  1.1852  1.0441  0.0136
  579SOL    MW4 2348   0.910   0.862   0.692 -0.0152  0.4948 -0.0518
  580SOL     OW 2349   1.794   0.097   0.467 -0.1293  0.4378 -0.2551
  580SOL    HW2 2350   1.812   0.184   0.432  0.8912  0.0684 -0.6776
  580SOL    HW3 2351   1.791   0.109   0.562  0.5117  0.8440 -0.2847
  580SOL    MW4 2352   1.796   0.110   0.475  0.0899  0.4427 -0.3148
  581SOL     OW 2353   1.996   0.534   1.192 -0.0495 -0.5679  0.0033
  581SOL    HW2 2354   2.001   0.526   1.287 -1.3159 -0.0143  0.1233
  581SOL    HW3 2355   1.939   0.462   1.165 -0.5289 -0.0957 -0.2406
  581SOL    MW4 2356   1.989   0.523   1.201 -0.2798 -0.4325 -0.0131
  582SOL     OW 2357   2.631   0.863   0.441  0.1975 -0.4476  0.1122
  582SOL    HW2 2358   2.639   0.958   0.442  0.8204 -0.4929 -0.0355
  582SOL    HW3 2359   2.721   0.831   0.453  0.2769 -1.0052 -1.7828
  582SOL    MW4 2360   2.644   0.871   0.443  0.2902 -0.5271 -0.1573
  583SOL     OW 2361   1.768   0.915   1.178  0.1805 -0.3973 -0.0188
  583SOL    HW2 2362   1.789   0.918   1.271 -0.4844  0.4410  0.1066
  583SOL    HW3 2363   1.782   1.005   1.147 -0.3915 -0.4845 -0.5484
  583SOL    MW4 2364   1.773   0.927   1.186  0.0173 -0.2982 -0.0721
  584SOL     OW 2365   2.987   1.181   0.698  0.0114  0.2696  0.1775
  584SOL    HW2 2366   3.023   1.269   0.705 -1.6290  0.8832  1.0278
  584SOL    HW3 2367   3.037   1.129   0.761 -0.1325  0.9492  0.8466
  584SOL    MW4 2368   2.999   1.186   0.707 -0.2240  0.4402  0.3780
  585SOL     OW 2369   2.040   1.287   1.173 -0.2341 -0.0373  0.1862
  585SOL    HW2 2370   2.117   1.235   1.151  1.1143  0.5888  3.2080
  585SOL    HW3 2371   1.966   1.232   1.148  1.1643 -1.5419 -0.7422
  585SOL    MW4 2372   2.040   1.273   1.166  0.1283 -0.1532  0.4624
  586SOL     OW 2373   2.024   1.563   1.147  0.3096  0.4653 -0.0899
  586SOL    HW2 2374   2.012   1.553   1.052  1.1564  0.8775 -0.2443
  586SOL    HW3 2375   2.040   1.474   1.178 -0.2739  0.2873 -0.2878
  586SOL    MW4 2376   2.025   1.550   1.138  0.3443  0.4962 -0.1364
  587SOL     OW 2377   1.802   1.687   1.241  0.0051  0.1468 -0.4571
  587SOL    HW2 2378   1.808   1.775   1.203  0.3268  0.6418  0.7199
  587SOL    HW3 2379   1.884   1.644   1.215 -0.0166  0.3019 -0.7805
  587SOL    MW4 2380   1.814   1.693   1.233  0.0447  0.2325 -0.3445
  588SOL     OW 2381   1.814   1.936   1.102  0.1937 -0.2663 -0.1336
  588SOL    HW2 2382   1.736   1.990   1.110 -0.0547 -0.5786 -0.3987
  588SOL    HW3 2383   1.828   1.927   1.008  0.3672 -0.4663 -0.0912
  588SOL    MW4 2384   1.805   1.942   1.091  0.1838 -0.3339 -0.1630
  589SOL     OW 2385   1.999   2.107   1.202  0.0214  0.0419 -0.1701
  589SOL    HW2 2386   1.990   2.084   1.294  0.6608 -0.1468 -0.1538
  589SOL    HW3 2387   1.934   2.053   1.157 -0.4341  0.2851  0.1908
  589SOL    MW4 2388   1.989   2.097   1.208  0.0456  0.0491 -0.1203
  590SOL     OW 2389   2.015   2.370   1.110  0.3373  0.0526  0.5847
  590SOL    HW2 2390   2.097   2.407   1.142 -0.1140  0.2564  1.5335
  590SOL    HW3 2391   2.020   2.277   1.132  0.0535  0.1812  1.2316
  590SOL    MW4 2392   2.026   2.363   1.117  0.2403  0.0965  0.7952
  591SOL     OW 2393   1.780   2.460   1.233 -0.1024 -0.0845  0.0530
  591SOL    HW2 2394   1.855   2.421   1.188  0.5654  1.3004 -0.0552
  591SOL    HW3 2395   1.705   2.406   1.208  0.8226 -1.3659  0.0079
  591SOL    MW4 2396   1.780   2.448   1.224  0.1077 -0.0708  0.0328
  592SOL     OW 2397   1.762   2.732   1.144  0.8387 -0.0451 -0.1843
  592SOL    HW2 2398   1.756   2.649   1.192 -3.5594  0.9249  1.2284
  592SOL    HW3 2399   1.745   2.709   1.053  1.2646 -0.8946 -0.0535
  592SOL    MW4 2400   1.759   2.718   1.139  0.3146 -0.0292  0.0194
  593SOL     OW 2401   2.048   2.795   1.192  0.1549  0.1966 -0.1112
  593SOL    HW2 2402   2.044   2.889   1.174 -0.8854  0.5118  1.6746
  593SOL    HW3 2403   1.962   2.762   1.167  0.0127 -0.0187  0.6562
  593SOL    MW4 2404   2.036   2.803   1.186 -0.0011  0.2098  0.2257
  594SOL     OW 2405   2.024   3.078   1.105  0.4031  0.2516  0.3412
  594SOL    HW2 2406   1.957   3.138   1.137 -0.3739 -0.7944  0.6846
  594SOL    HW3 2407   1.999   3.061   1.014  0.2868 -0.0164  0.4227
  594SOL    MW4 2408   2.012   3.084   1.097  0.2853  0.0782  0.3972
  595SOL     OW 2409   1.769   3.220   1.195 -0.0888  0.6299 -0.4627
  595SOL    HW2 2410   1.772   3.210   1.290 -1.5397 -1.0979 -0.5774
  595SOL    HW3 2411   1.794   3.311   1.180  1.8283  0.4548  1.4499
  595SOL    MW4 2412   1.772   3.231   1.206 -0.0273  0.3788 -0.2255
  596SOL     OW 2413   1.775   3.496   1.112  0.0761 -0.1339  0.2331
  596SOL    HW2 2414   1.841   3.564   1.125  0.1471  0.0975 -1.2630
  596SOL    HW3 2415   1.695   3.533   1.148  0.2714  0.4688  0.0504
  596SOL    MW4 2416   1.773   3.510   1.118  0.1113 -0.0239  0.0116
  597SOL     OW 2417   2.006   3.624   1.214 -0.0074 -0.0685  0.2488
  597SOL    HW2 2418   2.020   3.634   1.309 -0.1373  0.3595  0.2233
  597SOL    HW3 2419   2.069   3.557   1.188  1.3352  1.1431  0.3152
  597SOL    MW4 2420   2.016   3.616   1.223  0.1526  0.1479  0.2542
  598SOL     OW 2421   2.011   3.893   1.120  0.3790 -0.1228 -0.1406
  598SOL    HW2 2422   1.939   3.937   1.165  0.0865  1.1206 -1.7946
  598SOL    HW3 2423   2.005   3.802   1.150 -0.0094  0.5794  2.0603
  598SOL    MW4 2424   2.001   3.887   1.130  0.2892  0.1339 -0.0684
  599SOL     OW 2425   1.809   4.042   1.245 -0.1531  0.1154  0.6480
  599SOL    HW2 2426   1.807   4.049   1.340 -0.2057 -0.8793  0.7268
  599SOL    HW3 2427   1.727   3.999   1.222  0.5131 -0.9860  0.2812
  599SOL    MW4 2428   1.798   4.037   1.254 -0.0721 -0.1611  0.6100
  600SOL     OW 2429   1.821   4.306   1.155  0.1380  0.5532  0.6265
  600SOL    HW2 2430   1.806   4.216   1.186  0.4894  0.5286  0.7200
  600SOL    HW3 2431   1.741   4.353   1.179  0.2125  0.4156  1.1308
  600SOL    MW4 2432   1.808   4.300   1.162  0.1942  0.5318  0.7053
  601SOL     OW 2433   2.085   4.392   1.200  0.0145 -0.1008  0.5879
  601SOL    HW2 2434   2.080   4.422   1.291 -1.3317 -0.7371  0.7343
  601SOL    HW3 2435   1.998   4.357   1.182  0.1286  0.4730 -1.1147
  601SOL    MW4 2436   2.073   4.391   1.210 -0.1481 -0.1090  0.3826
  602SOL     OW 2437   2.457   4.612   1.153  0.0804  0.0739  0.5470
  602SOL    HW2 2438   2.532   4.671   1.152  0.5007 -0.4503  1.1054
  602SOL    HW3 2439   2.382   4.671   1.164  0.3342  0.6539 -0.7342
  602SOL    MW4 2440   2.457   4.628   1.154  0.1694  0.0813  0.4516
  603SOL     OW 2441   2.247   0.124   1.221  0.0619 -0.0974  0.0832
  603SOL    HW2 2442   2.241   0.218   1.206  0.5589  0.5321  3.3254
  603SOL    HW3 2443   2.161   0.090   1.198 -0.8790  1.5423  1.0785
  603SOL    MW4 2444   2.235   0.132   1.216  0.0033  0.2020  0.6423
  604SOL     OW 2445   2.251   0.409   1.138 -0.0033 -0.6190  1.0016
  604SOL    HW2 2446   2.176   0.468   1.145  0.7274  0.2163  1.9501
  604SOL    HW3 2447   2.250   0.381   1.047 -0.5614  0.5925  0.6178
  604SOL    MW4 2448   2.241   0.413   1.127  0.0195 -0.3490  1.0761
  605SOL     OW 2449   2.497   0.500   1.180  0.4844 -0.4556 -0.6909
  605SOL    HW2 2450   2.514   0.504   1.274  0.7450 -1.6336 -0.6903
  605SOL    HW3 2451   2.407   0.469   1.174  0.5228 -0.5349 -0.8382
  605SOL    MW4 2452   2.487   0.497   1.192  0.5239 -0.6215 -0.7103
  606SOL     OW 2453   2.485   0.778   1.137  0.2000  0.5466  0.2156
  606SOL    HW2 2454   2.498   0.686   1.157 -0.9296  0.4044  0.3274
  606SOL    HW3 2455   2.454   0.779   1.046 -0.2472  0.7759  0.3665
  606SOL    MW4 2456   2.482   0.766   1.127 -0.0080  0.5581  0.2503
  607SOL     OW 2457   2.207   0.897   1.211 -0.2122  0.2174 -0.4518
  607SOL    HW2 2458   2.290   0.851   1.205  0.2453  0.7463  1.4289
  607SOL    HW3 2459   2.146   0.843   1.161  1.1739 -0.3449 -1.5662
  607SOL    MW4 2460   2.210   0.884   1.204  0.0310  0.2130 -0.3507
  608SOL     OW 2461   2.271   1.141   1.106  0.5004  0.2085 -0.2283
  608SOL    HW2 2462   2.355   1.166   1.144  1.4499 -1.2700 -1.2607
  608SOL    HW3 2463   2.247   1.060   1.152 -0.0339  0.2791 -0.3823
  608SOL    MW4 2464   2.279   1.133   1.117  0.5552  0.0227 -0.3849
  609SOL     OW 2465   2.494   1.253   1.219  0.1940  0.3417 -0.0952
  609SOL    HW2 2466   2.582   1.224   1.196 -0.4014 -0.2047 -1.7755
  609SOL    HW3 2467   2.489   1.343   1.184 -0.4834 -0.2469 -1.5500
  609SOL    MW4 2468   2.505   1.261   1.211  0.0261  0.1919 -0.5088
  610SOL     OW 2469   2.501   1.542   1.139  0.1546  0.1245 -0.3464
  610SOL    HW2 2470   2.417   1.562   1.182 -0.2274  0.5911 -1.3058
  610SOL    HW3 2471   2.484   1.554   1.046  1.2342  0.0021 -0.5636
  610SOL    MW4 2472   2.488   1.546   1.133  0.2467  0.1699 -0.5017
  611SOL     OW 2473   2.260   1.649   1.237  0.5109  0.1368  0.6811
  611SOL    HW2 2474   2.254   1.742   1.214  1.4686  0.1601  0.5209
  611SOL    HW3 2475   2.188   1.608   1.189  1.3078  0.4878 -0.8457
  611SOL    MW4 2476   2.250   1.656   1.227  0.7424  0.1862  0.4585
  612SOL     OW 2477   2.215   1.939   1.176  0.0190 -0.4613  0.5532
  612SOL    HW2 2478   2.148   2.000   1.207 -0.0084 -0.1985 -0.0201
  612SOL    HW3 2479   2.216   1.950   1.081  0.5758 -0.7748  0.5181
  612SOL    MW4 2480   2.206   1.948   1.167  0.0888 -0.4680  0.4729
  613SOL     OW 2481   2.440   2.101   1.233  0.4346  0.0887  0.0374
  613SOL    HW2 2482   2.513   2.050   1.197 -0.7481 -0.0084 -2.3885
  613SOL    HW3 2483   2.362   2.052   1.207 -0.5642  1.2085  0.8737
  613SOL    MW4 2484   2.439   2.088   1.225  0.1468  0.2236 -0.1723
  614SOL     OW 2485   2.502   2.355   1.123  0.1663  0.9213  0.2342
  614SOL    HW2 2486   2.489   2.265   1.153  1.2138  0.5374 -0.4098
  614SOL    HW3 2487   2.479   2.353   1.030 -2.0335  1.8511  0.7448
  614SOL    MW4 2488   2.498   2.343   1.114  0.0142  0.9933  0.2166
  615SOL     OW 2489   2.275   2.488   1.177  0.1492 -0.0615  0.4165
  615SOL    HW2 2490   2.274   2.502   1.272  0.9459  1.1165  0.2752
  615SOL    HW3 2491   2.347   2.427   1.163  1.0366  0.9555  0.4460
  615SOL    MW4 2492   2.284   2.482   1.188  0.3714  0.2281  0.4017
  616SOL     OW 2493   2.206   2.692   0.994  0.3971 -0.2992 -0.2887
  616SOL    HW2 2494   2.141   2.718   1.059  0.3790  2.1710 -1.2603
  616SOL    HW3 2495   2.265   2.633   1.042 -0.6001  0.0976  1.4866
  616SOL    MW4 2496   2.205   2.688   1.009  0.2632  0.0790 -0.1827
  617SOL     OW 2497   2.407   2.871   1.169  0.0320 -0.1819  0.3858
  617SOL    HW2 2498   2.419   2.863   1.264  1.0911  0.4342  0.3099
  617SOL    HW3 2499   2.315   2.847   1.154 -0.0531 -0.5807  1.5267
  617SOL    MW4 2500   2.396   2.866   1.180  0.1605 -0.1532  0.5263
  618SOL     OW 2501   2.465   3.125   1.117  0.4794  0.0220  0.2527
  618SOL    HW2 2502   2.384   3.150   1.161 -0.4858 -0.4319 -1.2205
  618SOL    HW3 2503   2.463   3.029   1.117  0.2265  0.0082 -1.1471
  618SOL    MW4 2504   2.454   3.116   1.123  0.3187 -0.0397 -0.1264
  619SOL     OW 2505   2.239   3.189   1.268  0.1794 -0.0088 -0.1277
  619SOL    HW2 2506   2.226   3.274   1.227 -1.3731 -0.0730  0.1694
  619SOL    HW3 2507   2.184   3.130   1.217  1.4101 -0.8764 -0.4646
  619SOL    MW4 2508   2.230   3.192   1.256  0.1369 -0.1317 -0.1329
  620SOL     OW 2509   2.201   3.436   1.150  0.6420 -0.0652  0.0110
  620SOL    HW2 2510   2.279   3.484   1.176 -0.2621  1.4755 -0.0943
  620SOL    HW3 2511   2.211   3.424   1.056  0.1822  1.1915 -0.2040
  620SOL    MW4 2512   2.212   3.440   1.141  0.4620  0.3039 -0.0313
  621SOL     OW 2513   2.415   3.575   1.223 -0.0907 -0.6319 -0.0365
  621SOL    HW2 2514   2.428   3.588   1.317 -1.2984 -1.5556  0.2700
  621SOL    HW3 2515   2.433   3.661   1.184  1.9693 -0.6124  0.8494
  621SOL    MW4 2516   2.419   3.588   1.230  0.0218 -0.7512  0.1208
  622SOL     OW 2517   2.482   3.813   1.118 -0.0717  0.2914  0.0452
  622SOL    HW2 2518   2.400   3.860   1.136 -0.3754  0.1361 -0.9075
  622SOL    HW3 2519   2.498   3.829   1.025  1.1557  0.5821  0.3054
  622SOL    MW4 2520   2.473   3.821   1.108  0.0502  0.3092 -0.0462
  623SOL     OW 2521   2.266   3.972   1.195  0.0095 -0.0444  0.3180
  623SOL    HW2 2522   2.268   4.066   1.177  0.1139 -0.1246 -0.0954
  623SOL    HW3 2523   2.179   3.944   1.167  0.4213 -0.2981 -0.7134
  623SOL    MW4 2524   2.255   3.981   1.189  0.0776 -0.0885  0.1274
  624SOL     OW 2525   2.287   4.222   1.114  0.1786  0.2071 -0.2987
  624SOL    HW2 2526   2.221   4.287   1.140 -1.7096 -1.7326 -0.1454
  624SOL    HW3 2527   2.275   4.212   1.020  1.0923  0.7426 -0.4782
  624SOL    MW4 2528   2.277   4.229   1.105  0.0500  0.0218 -0.3021
  625SOL     OW 2529   2.523   4.355   1.218 -0.2159  0.0980 -0.3393
  625SOL    HW2 2530   2.447   4.309   1.182 -1.4747  1.0108  1.0907
  625SOL    HW3 2531   2.503   4.448   1.205  0.2230  0.3708  0.9012
  625SOL    MW4 2532   2.510   4.362   1.212 -0.3241  0.2544  0.0130
  626SOL     OW 2533   2.885   4.655   1.057 -0.1150  0.3093 -0.2619
  626SOL    HW2 2534   2.887   4.566   1.093  0.0038  1.0451  1.5939
  626SOL    HW3 2535   2.899   4.642   0.963  0.3756 -1.6046  0.0343
  626SOL    MW4 2536   2.887   4.641   1.049 -0.0346  0.1538  0.0220
  627SOL     OW 2537   2.654   0.126   1.148 -0.2483 -0.0901  0.1899
  627SOL    HW2 2538   2.667   0.135   1.242  0.4500  1.1106 -0.0053
  627SOL    HW3 2539   2.732   0.079   1.118 -0.1026  0.2123  0.0986
  627SOL    MW4 2540   2.666   0.121   1.156 -0.1370  0.1082  0.1521
  628SOL     OW 2541   2.722   0.375   1.068  0.1853 -0.1405  0.3686
  628SOL    HW2 2542   2.692   0.284   1.071 -1.5989  0.3795 -0.5468
  628SOL    HW3 2543   2.649   0.425   1.104  1.1081  0.9375  0.7574
  628SOL    MW4 2544   2.708   0.370   1.073  0.0717  0.0704  0.2991
  629SOL     OW 2545   2.963   0.496   1.162  0.8012 -0.1351 -0.0535
  629SOL    HW2 2546   2.951   0.589   1.142  0.8564 -0.0017  0.5421
  629SOL    HW3 2547   2.886   0.454   1.125 -0.4004  0.4385  1.7700
  629SOL    MW4 2548   2.952   0.503   1.154  0.6500 -0.0418  0.2657
  630SOL     OW 2549   2.931   0.774   1.086  0.4844 -0.1935  0.2091
  630SOL    HW2 2550   3.006   0.817   1.126 -0.2222  0.8276  0.4577
  630SOL    HW3 2551   2.855   0.807   1.134 -0.2235 -0.3397 -0.7742
  630SOL    MW4 2552   2.931   0.784   1.097  0.2978 -0.0781  0.1122
  631SOL     OW 2553   2.717   0.900   1.211 -0.2919 -0.4305  0.3176
  631SOL    HW2 2554   2.717   0.990   1.177  0.5293  0.3047  2.1852
  631SOL    HW3 2555   2.637   0.861   1.176  0.6989  0.1406 -2.7679
  631SOL    MW4 2556   2.707   0.907   1.202 -0.0528 -0.2581  0.1569
  632SOL     OW 2557   2.708   1.133   1.074 -0.1047 -0.1514  0.2536
  632SOL    HW2 2558   2.775   1.198   1.095 -0.7521  0.7987 -0.5590
  632SOL    HW3 2559   2.700   1.136   0.978 -1.1511 -0.3885  0.3188
  632SOL    MW4 2560   2.716   1.142   1.064 -0.3282 -0.0573  0.1550
  633SOL     OW 2561   2.891   1.312   1.171  0.1375 -0.2465 -0.0023
  633SOL    HW2 2562   2.895   1.299   1.266 -0.1244  1.1787  0.2086
  633SOL    HW3 2563   2.897   1.406   1.159  0.7008 -0.4581 -1.4427
  633SOL    MW4 2564   2.892   1.322   1.182  0.1773 -0.0864 -0.1645
  634SOL     OW 2565   2.880   1.583   1.121  0.6320  0.3394  0.2447
  634SOL    HW2 2566   2.878   1.610   1.029 -0.0939  1.2110  0.5182
  634SOL    HW3 2567   2.963   1.619   1.154  0.8102  0.1740 -0.0172
  634SOL    MW4 2568   2.891   1.591   1.113  0.5598  0.4326  0.2462
  635SOL     OW 2569   2.676   1.706   1.271  0.0075 -0.1742  0.0031
  635SOL    HW2 2570   2.754   1.674   1.227 -0.7713 -1.7327 -0.3001
  635SOL    HW3 2571   2.603   1.660   1.228 -0.9270 -0.0773  1.4315
  635SOL    MW4 2572   2.676   1.696   1.260 -0.2186 -0.3670  0.1516
  636SOL     OW 2573   2.668   1.947   1.158  0.0208  0.1353 -0.2232
  636SOL    HW2 2574   2.759   1.967   1.180  0.2815  0.2486 -1.3290
  636SOL    HW3 2575   2.651   1.862   1.198  0.8874 -0.2807 -0.7210
  636SOL    MW4 2576   2.678   1.938   1.166  0.1696  0.0953 -0.4348
  637SOL     OW 2577   2.922   2.070   1.172  0.6497  0.6314  0.5585
  637SOL    HW2 2578   2.938   2.063   1.266 -1.1114  0.0858  0.8272
  637SOL    HW3 2579   2.910   2.163   1.156  0.2220  0.6521  1.0038
  637SOL    MW4 2580   2.923   2.081   1.182  0.3609  0.5621  0.6527
  638SOL     OW 2581   2.912   2.348   1.165 -0.1033 -0.2145  0.0052
  638SOL    HW2 2582   2.987   2.390   1.206 -0.2940 -0.3595  0.5006
  638SOL    HW3 2583   2.837   2.403   1.188 -0.0648  0.3012 -1.0384
  638SOL    MW4 2584   2.912   2.361   1.173 -0.1234 -0.1656 -0.0671
  639SOL     OW 2585   2.710   2.524   1.219 -0.8776 -0.0803 -0.5113
  639SOL    HW2 2586   2.713   2.518   1.314  1.0360 -0.5520 -0.5880
  639SOL    HW3 2587   2.647   2.457   1.192 -0.3624 -0.8995  0.3265
  639SOL    MW4 2588   2.702   2.514   1.228 -0.5571 -0.2506 -0.4109
  640SOL     OW 2589   2.667   2.782   1.098 -0.1871  0.0867 -0.4757
  640SOL    HW2 2590   2.676   2.688   1.118 -1.0651 -0.1092 -0.9731
  640SOL    HW3 2591   2.585   2.807   1.140 -0.8170  0.2349 -1.7642
  640SOL    MW4 2592   2.658   2.773   1.106 -0.3861  0.0804 -0.7113
  641SOL     OW 2593   2.923   2.840   1.219 -0.1097 -0.5622 -0.0229
  641SOL    HW2 2594   2.910   2.870   1.309  1.6035 -1.4287  0.5372
  641SOL    HW3 2595   2.836   2.811   1.191 -0.4221 -1.4523  1.7885
  641SOL    MW4 2596   2.909   2.840   1.227  0.0751 -0.7940  0.2900
  642SOL     OW 2597   2.693   3.943   0.171 -0.2929 -0.1082 -0.4518
  642SOL    HW2 2598   2.768   3.900   0.212  0.0567  0.3269 -0.6344
  642SOL    HW3 2599   2.693   3.912   0.081 -0.1970  0.0663 -0.5125
  642SOL    MW4 2600   2.703   3.933   0.165 -0.2341 -0.0277 -0.4839
  643SOL     OW 2601   2.702   3.268   1.183 -0.2259  0.1736 -0.4668
  643SOL    HW2 2602   2.624   3.214   1.174 -1.3755  0.9909  3.4884
  643SOL    HW3 2603   2.686   3.345   1.129 -1.8691  0.0129 -0.2203
  643SOL    MW4 2604   2.690   3.271   1.175 -0.5944  0.2602  0.0875
  644SOL     OW 2605   2.652   3.524   1.082 -0.3446  0.3577 -0.0693
  644SOL    HW2 2606   2.629   3.550   0.992 -0.1531  2.0914  0.3610
  644SOL    HW3 2607   2.575   3.547   1.134 -0.1228  0.1591  0.3496
  644SOL    MW4 2608   2.638   3.531   1.077 -0.2901  0.5602  0.0428
  645SOL     OW 2609   2.910   3.826   1.056  0.6870 -0.1217 -0.0416
  645SOL    HW2 2610   2.986   3.864   1.099  0.3438 -0.8226  1.1923
  645SOL    HW3 2611   2.910   3.734   1.082 -0.0018 -0.3590 -0.8519
  645SOL    MW4 2612   2.920   3.819   1.065  0.5509 -0.2455  0.0143
  646SOL     OW 2613   2.867   3.812   0.771  0.3414  0.0733 -0.5036
  646SOL    HW2 2614   2.856   3.717   0.757 -0.4758  0.2409 -1.0600
  646SOL    HW3 2615   2.880   3.821   0.865 -0.2206 -0.5449 -0.3573
  646SOL    MW4 2616   2.867   3.800   0.782  0.1594  0.0139 -0.5577
  647SOL     OW 2617   2.708   3.975   1.222 -0.1856 -0.0242  0.0012
  647SOL    HW2 2618   2.779   3.927   1.180 -0.8101 -0.7145 -0.2805
  647SOL    HW3 2619   2.628   3.930   1.194 -0.7337  0.7161  0.3449
  647SOL    MW4 2620   2.707   3.963   1.213 -0.3403 -0.0176  0.0094
  648SOL     OW 2621   2.703   4.210   1.077  0.5358  0.3714 -0.2149
  648SOL    HW2 2622   2.711   4.141   1.142  0.1201 -1.2163 -1.8296
  648SOL    HW3 2623   2.633   4.266   1.111  1.5480  0.5865  1.5894
  648SOL    MW4 2624   2.695   4.209   1.090  0.6145  0.1903 -0.1899
  649SOL     OW 2625   2.875   4.404   1.146 -0.4781 -0.1750 -0.0220
  649SOL    HW2 2626   2.960   4.360   1.135  0.2397  1.4921 -1.3229
  649SOL    HW3 2627   2.811   4.340   1.114  0.6350  0.0502 -2.8855
  649SOL    MW4 2628   2.878   4.389   1.140 -0.2365  0.0746 -0.5714
  650SOL     OW 2629   3.361   4.652   1.061  0.1937 -0.3309  0.4909
  650SOL    HW2 2630   3.433   4.699   1.104 -0.0389 -0.4719  1.0392
  650SOL    HW3 2631   3.287   4.712   1.068  0.5627  0.3449 -1.1814
  650SOL    MW4 2632   3.361   4.666   1.068  0.2117 -0.2603  0.3426
  651SOL     OW 2633   3.116   0.106   1.156 -0.1229  0.1041  0.0704
  651SOL    HW2 2634   3.111   0.103   1.251  0.8365  0.7506  0.1476
  651SOL    HW3 2635   3.035   0.064   1.126 -0.0191 -0.8712  1.1554
  651SOL    MW4 2636   3.104   0.100   1.165  0.0174  0.0608  0.2237
  652SOL     OW 2637   3.157   0.350   1.040 -0.1601  0.5118 -0.3898
  652SOL    HW2 2638   3.134   0.261   1.066 -0.1570  0.2699 -1.1963
  652SOL    HW3 2639   3.094   0.406   1.086  0.7520  0.2001  1.2441
  652SOL    MW4 2640   3.146   0.346   1.049 -0.0394  0.4388 -0.2806
  653SOL     OW 2641   3.376   0.441   1.179  0.2187  0.1815  0.1646
  653SOL    HW2 2642   3.381   0.525   1.134  0.1222 -0.3990 -0.9318
  653SOL    HW3 2643   3.307   0.393   1.134  0.6193 -0.6851  0.4550
  653SOL    MW4 2644   3.368   0.445   1.167  0.2588 -0.0095  0.0583
  654SOL     OW 2645   3.361   0.708   1.068 -0.1525  0.1091  0.6274
  654SOL    HW2 2646   3.288   0.767   1.089  1.3684  1.9279  0.9003
  654SOL    HW3 2647   3.365   0.709   0.973 -1.0008 -0.6615  0.5730
  654SOL    MW4 2648   3.352   0.716   1.058 -0.0638  0.2474  0.6562
  655SOL     OW 2649   3.170   0.895   1.186  0.0260 -0.0078  0.3333
  655SOL    HW2 2650   3.163   0.893   1.281 -0.3200 -1.0535  0.2993
  655SOL    HW3 2651   3.139   0.982   1.161  0.9434  0.5811  1.2266
  655SOL    MW4 2652   3.165   0.906   1.195  0.1014 -0.0681  0.4467
  656SOL     OW 2653   3.107   1.152   1.103 -0.3270 -0.6548 -0.2957
  656SOL    HW2 2654   3.185   1.207   1.115 -0.0333 -0.7355 -1.7666
  656SOL    HW3 2655   3.034   1.208   1.130 -0.0333  0.4912 -1.8349
  656SOL    MW4 2656   3.108   1.167   1.108 -0.2495 -0.5143 -0.6928
  657SOL     OW 2657   3.355   1.287   1.187 -0.3920  0.2593  0.2251
  657SOL    HW2 2658   3.358   1.285   1.283 -0.2304  0.6710  0.2289
  657SOL    HW3 2659   3.334   1.378   1.166 -1.0763  0.0283 -0.1157
  657SOL    MW4 2660   3.353   1.298   1.197 -0.4609  0.2831  0.1806
  658SOL     OW 2661   3.340   1.550   1.071 -0.0562  0.3435  0.0901
  658SOL    HW2 2662   3.421   1.592   1.099  0.8119 -0.5400 -1.0756
  658SOL    HW3 2663   3.271   1.598   1.118  1.0401  1.8427  0.2160
  658SOL    MW4 2664   3.341   1.562   1.081  0.2030  0.4247 -0.0471
  659SOL     OW 2665   3.128   1.672   1.184  0.1920 -0.4080  0.0298
  659SOL    HW2 2666   3.136   1.681   1.279  0.7642 -3.0732  0.2824
  659SOL    HW3 2667   3.130   1.762   1.150  1.4261  0.4907  2.4194
  659SOL    MW4 2668   3.129   1.685   1.192  0.4303 -0.6411  0.3784
  660SOL     OW 2669   3.146   1.925   1.091  0.0465 -0.3045 -0.0505
  660SOL    HW2 2670   3.208   1.972   1.146  0.8537 -0.5667 -0.7270
  660SOL    HW3 2671   3.063   1.971   1.104  0.3463 -0.0294  0.9534
  660SOL    MW4 2672   3.143   1.937   1.100  0.1926 -0.3028 -0.0073
  661SOL     OW 2673   3.322   2.075   1.262 -0.4655  0.0018 -0.2220
  661SOL    HW2 2674   3.403   2.035   1.229 -0.7143 -0.7283  0.0362
  661SOL    HW3 2675   3.308   2.151   1.206  0.6391  0.3885 -0.0008
  661SOL    MW4 2676   3.331   2.080   1.250 -0.3526 -0.0435 -0.1588
  662SOL     OW 2677   3.311   2.284   1.096 -0.1417  0.1073 -0.3576
  662SOL    HW2 2678   3.401   2.313   1.114 -0.1857 -0.2590  0.4841
  662SOL    HW3 2679   3.256   2.340   1.151 -0.2145 -1.6338  1.4302
  662SOL    MW4 2680   3.316   2.295   1.106 -0.1571 -0.1708 -0.0107
  663SOL     OW 2681   3.143   2.428   1.286 -0.2167 -0.2733 -0.2267
  663SOL    HW2 2682   3.158   2.448   1.378  0.5764 -0.3275 -0.3331
  663SOL    HW3 2683   3.145   2.513   1.242  0.0085 -0.2948 -0.2639
  663SOL    MW4 2684   3.145   2.441   1.292 -0.0824 -0.2833 -0.2457
  664SOL     OW 2685   3.139   2.670   1.143  0.4397 -0.0002 -0.0338
  664SOL    HW2 2686   3.072   2.725   1.183  0.2976 -0.0354 -0.2210
  664SOL    HW3 2687   3.222   2.713   1.164  0.3473  0.1388  0.0470
  664SOL    MW4 2688   3.141   2.683   1.151  0.4087  0.0135 -0.0479
  665SOL     OW 2689   3.374   2.795   1.213 -0.0169  0.1057  0.7239
  665SOL    HW2 2690   3.377   2.885   1.180 -0.4775 -0.2166 -0.2209
  665SOL    HW3 2691   3.357   2.804   1.307 -1.2286  0.9718  0.4344
  665SOL    MW4 2692   3.372   2.808   1.221 -0.2375  0.1775  0.5611
  666SOL     OW 2693   3.400   3.070   1.125  0.1353  0.6074 -0.4412
  666SOL    HW2 2694   3.476   3.101   1.175  0.3515  0.7729 -0.8630
  666SOL    HW3 2695   3.328   3.126   1.153 -0.3055 -0.8440  1.4465
  666SOL    MW4 2696   3.401   3.082   1.135  0.1057  0.4377 -0.2478
  667SOL     OW 2697   3.160   3.191   1.204 -0.1580 -0.2447 -0.3881
  667SOL    HW2 2698   3.165   3.283   1.176  2.6034 -0.4311 -0.6997
  667SOL    HW3 2699   3.083   3.156   1.160 -1.4544  2.0110  0.0249
  667SOL    MW4 2700   3.151   3.199   1.194  0.0353  0.0284 -0.3747
  668SOL     OW 2701   2.907   3.582   1.206  0.3686  0.3102  0.3495
  668SOL    HW2 2702   2.827   3.535   1.179  0.2933 -0.1537  1.3459
  668SOL    HW3 2703   2.979   3.525   1.178  0.2531 -1.1932  2.8651
  668SOL    MW4 2704   2.906   3.568   1.199  0.3434  0.0507  0.8129
  669SOL     OW 2705   3.360   3.638   1.195 -0.3903  0.0346  0.6115
  669SOL    HW2 2706   3.352   3.632   1.290 -0.2976 -0.9517  0.5685
  669SOL    HW3 2707   3.438   3.585   1.174  0.2886  1.2151  0.0932
  669SOL    MW4 2708   3.369   3.630   1.205 -0.2885  0.0602  0.5374
  670SOL     OW 2709   3.331   3.899   1.089  0.4680  0.2941 -0.1867
  670SOL    HW2 2710   3.263   3.948   1.135  1.7350  0.9275  1.0487
  670SOL    HW3 2711   3.324   3.810   1.124  0.5630  0.4608  0.2577
  670SOL    MW4 2712   3.321   3.894   1.100  0.6477  0.3996  0.0350
  671SOL     OW 2713   3.087   3.996   1.184 -0.3649  0.0764  0.0444
  671SOL    HW2 2714   3.112   4.018   1.274  1.2550  0.1969 -0.4310
  671SOL    HW3 2715   3.066   4.081   1.144 -1.5087 -0.0178  0.4194
  671SOL    MW4 2716   3.087   4.010   1.191 -0.3021  0.0799  0.0311
  672SOL     OW 2717   3.102   4.275   1.090 -0.1934 -0.2499 -0.4952
  672SOL    HW2 2718   3.183   4.317   1.119  0.2917 -1.6700  0.2615
  672SOL    HW3 2719   3.113   4.266   0.995  1.1040 -1.5477 -0.2510
  672SOL    MW4 2720   3.114   4.279   1.081  0.0418 -0.6085 -0.3632
  673SOL     OW 2721   3.331   4.404   1.211  0.2053  0.1144 -0.0552
  673SOL    HW2 2722   3.406   4.354   1.179 -0.3887 -1.3332  0.7633
  673SOL    HW3 2723   3.342   4.491   1.173  1.7445 -0.3782 -0.7697
  673SOL    MW4 2724   3.342   4.408   1.202  0.3300 -0.1416 -0.0415
  674SOL     OW 2725   3.777   4.620   1.095  0.1079 -0.5260  0.5731
  674SOL    HW2 2726   3.770   4.531   1.130 -0.2404 -0.7774 -0.1296
  674SOL    HW3 2727   3.795   4.608   1.002  1.4705  0.1408  0.7467
  674SOL    MW4 2728   3.778   4.607   1.088  0.2417 -0.4712  0.5033
  675SOL     OW 2729   3.562   0.107   1.199  0.3765  0.1579 -0.2214
  675SOL    HW2 2730   3.589   0.189   1.157 -0.1786 -0.6155 -2.1076
  675SOL    HW3 2731   3.629   0.044   1.174  1.2188  0.1944  1.8588
  675SOL    MW4 2732   3.574   0.110   1.190  0.4144  0.0607 -0.1958
  676SOL     OW 2733   3.598   0.343   1.071  0.6308 -0.0050 -0.2553
  676SOL    HW2 2734   3.665   0.387   1.123 -0.1807 -0.1602  0.9503
  676SOL    HW3 2735   3.516   0.366   1.114  0.0701 -1.3976 -0.5604
  676SOL    MW4 2736   3.596   0.352   1.083  0.4498 -0.2092 -0.1365
  677SOL     OW 2737   3.794   0.483   1.213 -0.2219 -0.2058 -0.1086
  677SOL    HW2 2738   3.876   0.458   1.170 -0.3025 -0.5929 -0.0423
  677SOL    HW3 2739   3.770   0.566   1.173 -0.2928 -0.5575 -0.8139
  677SOL    MW4 2740   3.802   0.491   1.202 -0.2419 -0.3032 -0.1929
  678SOL     OW 2741   3.789   0.751   1.108 -0.0512 -0.3292  0.0842
  678SOL    HW2 2742   3.865   0.795   1.147  0.1030 -0.3496 -0.1903
  678SOL    HW3 2743   3.715   0.807   1.131  0.1130 -0.0484 -0.0582
  678SOL    MW4 2744   3.789   0.765   1.116 -0.0092 -0.2948  0.0292
  679SOL     OW 2745   3.554   0.882   1.187 -0.2268 -0.2120  0.2711
  679SOL    HW2 2746   3.548   0.968   1.144 -0.2817 -0.0887  0.5279
  679SOL    HW3 2747   3.471   0.840   1.166 -0.1711 -0.2317  0.0843
  679SOL    MW4 2748   3.542   0.888   1.178 -0.2267 -0.1983  0.2803
  680SOL     OW 2749   3.571   1.149   1.086  0.3448  0.2592  0.2378
  680SOL    HW2 2750   3.645   1.202   1.118  0.0832  0.6779  0.1561
  680SOL    HW3 2751   3.494   1.187   1.130  0.1196  0.1301 -0.0432
  680SOL    MW4 2752   3.571   1.161   1.096  0.2806  0.2974  0.1899
  681SOL     OW 2753   3.801   1.270   1.188  0.5795 -0.5830  0.7780
  681SOL    HW2 2754   3.813   1.274   1.283  2.0171  0.4917  0.5690
  681SOL    HW3 2755   3.804   1.361   1.160 -0.2323 -0.8668 -0.2644
  681SOL    MW4 2756   3.803   1.283   1.197  0.6621 -0.4787  0.6129
  682SOL     OW 2757   3.800   1.560   1.101  0.5260 -0.4835 -0.3633
  682SOL    HW2 2758   3.880   1.607   1.128  0.8269 -0.9635 -0.4047
  682SOL    HW3 2759   3.814   1.540   1.009 -0.5544  1.2516 -0.9229
  682SOL    MW4 2760   3.813   1.563   1.093  0.4231 -0.3179 -0.4426
  683SOL     OW 2761   3.564   1.668   1.195 -0.0327 -0.1290 -0.0329
  683SOL    HW2 2762   3.550   1.762   1.190 -0.4297 -0.0822  1.6333
  683SOL    HW3 2763   3.653   1.654   1.164  0.1637  0.8386  0.1048
  683SOL    MW4 2764   3.574   1.678   1.190 -0.0592  0.0048  0.2051
  684SOL     OW 2765   3.555   1.955   1.134 -0.1353  0.2802  0.0556
  684SOL    HW2 2766   3.632   1.995   1.174 -0.3585 -0.0850  0.8412
  684SOL    HW3 2767   3.582   1.938   1.043  0.8076 -0.1176  0.4041
  684SOL    MW4 2768   3.569   1.958   1.127 -0.0403  0.1795  0.2052
  685SOL     OW 2769   3.808   2.060   1.202 -0.1190  0.1213 -0.0422
  685SOL    HW2 2770   3.825   2.060   1.297  0.9250  0.6724 -0.2230
  685SOL    HW3 2771   3.879   2.008   1.165 -0.6119 -0.2185 -0.5117
  685SOL    MW4 2772   3.820   2.053   1.210 -0.0463  0.1492 -0.1280
  686SOL     OW 2773   3.817   2.323   1.039  0.0752  0.0284  0.3080
  686SOL    HW2 2774   3.882   2.377   1.083  0.7757 -0.6763  0.1418
  686SOL    HW3 2775   3.842   2.233   1.061  1.2229 -0.4141 -2.6169
  686SOL    MW4 2776   3.829   2.318   1.048  0.3190 -0.1229 -0.0998
  687SOL     OW 2777   3.580   2.390   1.161  0.0493  0.3694  0.4147
  687SOL    HW2 2778   3.598   2.381   1.254 -0.5860 -2.6475  0.3244
  687SOL    HW3 2779   3.656   2.352   1.118 -0.8639 -0.8124 -0.2085
  687SOL    MW4 2780   3.592   2.384   1.167 -0.1550 -0.1846  0.3206
  688SOL     OW 2781   3.584   2.663   1.068  0.0572 -0.2335  0.5328
  688SOL    HW2 2782   3.513   2.701   1.120 -0.1214 -0.1567  0.2359
  688SOL    HW3 2783   3.597   2.576   1.105  0.6600  0.2242  1.3975
  688SOL    MW4 2784   3.576   2.657   1.080  0.1132 -0.1630  0.6077
  689SOL     OW 2785   3.774   2.865   1.193 -0.2034  0.0891  0.0842
  689SOL    HW2 2786   3.764   2.861   1.288 -0.9651 -0.3457 -0.0114
  689SOL    HW3 2787   3.719   2.795   1.159 -0.6533  0.8171 -0.7239
  689SOL    MW4 2788   3.765   2.855   1.201 -0.3632  0.1278 -0.0350
  690SOL     OW 2789   3.824   3.117   1.091  0.0586 -0.1171 -0.3603
  690SOL    HW2 2790   3.805   3.029   1.122 -1.8561  0.2137 -0.5505
  690SOL    HW3 2791   3.816   3.112   0.996 -0.9503  0.4415 -0.3186
  690SOL    MW4 2792   3.820   3.105   1.083 -0.3271  0.0002 -0.3799
  691SOL     OW 2793   3.614   3.212   1.239  1.0191  0.0820  0.5858
  691SOL    HW2 2794   3.612   3.304   1.213  0.4202  0.0210  0.4140
  691SOL    HW3 2795   3.679   3.172   1.182 -0.5672 -0.1417 -1.1257
  691SOL    MW4 2796   3.622   3.219   1.228  0.7308  0.0445  0.3373
  692SOL     OW 2797   3.589   3.475   1.151 -0.1726 -0.1362  0.4097
  692SOL    HW2 2798   3.674   3.515   1.172 -0.3776  0.6683 -0.2980
  692SOL    HW3 2799   3.587   3.471   1.056 -0.8817 -0.2827  0.4302
  692SOL    MW4 2800   3.600   3.480   1.141 -0.2932 -0.0494  0.3190
  693SOL     OW 2801   3.822   3.588   1.207 -0.1212 -0.5711  0.5104
  693SOL    HW2 2802   3.823   3.592   1.303 -0.5629  0.2849  0.4933
  693SOL    HW3 2803   3.813   3.680   1.180 -0.5283 -0.8576 -0.3367
  693SOL    MW4 2804   3.821   3.601   1.216 -0.2332 -0.4959  0.3964
  694SOL     OW 2805   3.815   3.864   1.156  0.0655 -0.0512  0.4541
  694SOL    HW2 2806   3.740   3.923   1.166  0.4980  0.4662  0.6819
  694SOL    HW3 2807   3.829   3.860   1.061 -1.3639 -1.5708  0.3060
  694SOL    MW4 2808   3.807   3.872   1.145 -0.0660 -0.1834  0.4646
  695SOL     OW 2809   3.580   3.994   1.191  0.3428 -0.2705  0.1372
  695SOL    HW2 2810   3.574   3.983   1.286 -3.0459 -1.4849 -0.1405
  695SOL    HW3 2811   3.496   3.962   1.158  1.6866 -0.4318 -3.3411
  695SOL    MW4 2812   3.568   3.989   1.199  0.0730 -0.4520 -0.3584
  696SOL     OW 2813   3.547   4.272   1.129  0.5243  0.0617  0.3645
  696SOL    HW2 2814   3.556   4.183   1.163  2.1330  0.2551  0.5001
  696SOL    HW3 2815   3.557   4.262   1.034 -1.7626 -0.1949  0.1159
  696SOL    MW4 2816   3.550   4.259   1.121  0.4349  0.0534  0.3496
  697SOL     OW 2817   3.796   4.359   1.223  0.0704 -0.3529 -0.0164
  697SOL    HW2 2818   3.794   4.345   1.318 -1.6826 -1.1055 -0.1484
  697SOL    HW3 2819   3.708   4.337   1.194 -0.1028  2.1432 -1.5006
  697SOL    MW4 2820   3.784   4.354   1.232 -0.1837 -0.1228 -0.2296
  698SOL     OW 2821   4.265   4.622   1.119 -0.2832  0.0645  0.4599
  698SOL    HW2 2822   4.266   4.537   1.163 -0.2494  0.7433  1.8145
  698SOL    HW3 2823   4.181   4.661   1.145 -0.2482  0.4895 -0.0588
  698SOL    MW4 2824   4.254   4.616   1.128 -0.2741  0.2101  0.5702
  699SOL     OW 2825   4.032   0.080   1.203  0.2699 -0.1821  0.1909
  699SOL    HW2 2826   4.024   0.086   1.299  0.6900 -1.4051  0.3196
  699SOL    HW3 2827   3.949   0.041   1.175 -0.2786  1.1594 -0.0561
  699SOL    MW4 2828   4.020   0.076   1.212  0.2529 -0.1665  0.1753
  700SOL     OW 2829   4.036   0.343   1.133  0.6275 -0.1793 -0.2810
  700SOL    HW2 2830   4.025   0.252   1.161 -1.1140  0.1259  0.1039
  700SOL    HW3 2831   4.055   0.336   1.039 -0.2138 -0.9259 -0.4124
  700SOL    MW4 2832   4.037   0.330   1.124  0.2868 -0.2376 -0.2475
  701SOL     OW 2833   4.231   0.512   1.241  0.2077 -0.3116  0.2269
  701SOL    HW2 2834   4.224   0.515   1.337 -1.8003  1.2438  0.0569
  701SOL    HW3 2835   4.156   0.461   1.213  2.3460 -3.2520 -0.4143
  701SOL    MW4 2836   4.220   0.506   1.250  0.2249 -0.4944  0.1199
  702SOL     OW 2837   4.240   0.769   1.138  0.5359 -0.1918  0.3656
  702SOL    HW2 2838   4.225   0.676   1.154  1.0597 -0.4714 -0.7385
  702SOL    HW3 2839   4.262   0.775   1.045 -0.6945  1.1848  0.1380
  702SOL    MW4 2840   4.241   0.758   1.128  0.4427 -0.0471  0.1899
  703SOL     OW 2841   4.000   0.878   1.215 -0.1262 -0.4352 -0.3322
  703SOL    HW2 2842   3.997   0.866   1.310  1.1273  1.2828 -0.0347
  703SOL    HW3 2843   4.081   0.835   1.188  0.7097  1.0458 -0.2643
  703SOL    MW4 2844   4.011   0.871   1.224  0.1495 -0.0131 -0.2840
  704SOL     OW 2845   4.022   1.142   1.100  0.7290 -0.2689  0.0491
  704SOL    HW2 2846   4.024   1.054   1.138 -0.1641 -1.2041 -2.0141
  704SOL    HW3 2847   3.936   1.177   1.126  0.3953 -0.6561 -0.5125
  704SOL    MW4 2848   4.011   1.135   1.109  0.5671 -0.4434 -0.2972
  705SOL     OW 2849   4.246   1.289   1.196 -0.0591 -0.3950  0.0768
  705SOL    HW2 2850   4.239   1.279   1.291 -0.1843  0.4788  0.1584
  705SOL    HW3 2851   4.173   1.238   1.161 -0.1319 -0.5502  0.4543
  705SOL    MW4 2852   4.236   1.281   1.204 -0.0852 -0.3002  0.1374
  706SOL     OW 2853   4.271   1.558   1.072 -0.5768  0.5435  0.0263
  706SOL    HW2 2854   4.264   1.466   1.096  0.8954  0.2975 -0.4498
  706SOL    HW3 2855   4.350   1.588   1.115 -0.2726  1.2124 -0.9798
  706SOL    MW4 2856   4.280   1.550   1.081 -0.3424  0.5993 -0.1693
  707SOL     OW 2857   4.046   1.691   1.177  0.5181  0.1495  0.2822
  707SOL    HW2 2858   4.044   1.695   1.272 -1.2071  0.3673  0.2406
  707SOL    HW3 2859   4.120   1.633   1.157  0.8794  0.0991  1.7436
  707SOL    MW4 2860   4.056   1.684   1.187  0.3381  0.1716  0.4695
  708SOL     OW 2861   4.028   1.937   1.078 -0.0770 -0.0176 -0.3401
  708SOL    HW2 2862   4.024   1.846   1.109 -2.2134  0.5533  1.1371
  708SOL    HW3 2863   4.018   1.930   0.983 -1.2031 -1.2614 -0.1442
  708SOL    MW4 2864   4.026   1.924   1.070 -0.5075 -0.1064 -0.1193
  709SOL     OW 2865   4.275   2.033   1.146  0.1420  0.2447  0.1296
  709SOL    HW2 2866   4.290   2.127   1.139 -0.5581  0.1988 -2.5920
  709SOL    HW3 2867   4.185   2.021   1.113  0.6650 -1.4886 -0.7003
  709SOL    MW4 2868   4.265   2.044   1.140  0.1186  0.0100 -0.3390
  710SOL     OW 2869   4.289   2.308   1.109 -0.0773  0.0495  0.2905
  710SOL    HW2 2870   4.205   2.343   1.138 -0.1431 -0.5136  0.7869
  710SOL    HW3 2871   4.296   2.334   1.017 -0.4826  0.6785  0.4336
  710SOL    MW4 2872   4.279   2.316   1.101 -0.1394  0.0582  0.3748
  711SOL     OW 2873   4.043   2.454   1.158  0.8892  0.1206  0.1614
  711SOL    HW2 2874   4.031   2.441   1.252 -0.7625  0.5024  0.0153
  711SOL    HW3 2875   4.037   2.549   1.147  0.0995 -0.0016 -0.4569
  711SOL    MW4 2876   4.041   2.465   1.169  0.5671  0.1549  0.0606
  712SOL     OW 2877   4.011   2.748   1.108  0.1034 -0.8094  0.0725
  712SOL    HW2 2878   3.931   2.795   1.129 -0.3186 -1.0964 -0.9102
  712SOL    HW3 2879   4.008   2.734   1.014  1.1528 -1.1075  0.0722
  712SOL    MW4 2880   4.000   2.752   1.099  0.1862 -0.8866 -0.0572
  713SOL     OW 2881   4.274   2.869   1.198 -0.2656 -0.1257 -0.0608
  713SOL    HW2 2882   4.286   2.949   1.148 -0.9298 -1.1314 -1.8926
  713SOL    HW3 2883   4.184   2.843   1.180 -0.3830 -0.7111  1.3495
  713SOL    MW4 2884   4.264   2.876   1.189 -0.3687 -0.3357 -0.1164
  714SOL     OW 2885   4.281   3.109   1.063 -0.4264  0.2240 -0.1600
  714SOL    HW2 2886   4.213   3.150   1.117 -0.4025 -0.7210  0.6013
  714SOL    HW3 2887   4.244   3.107   0.975 -0.8700  0.8656  0.0031
  714SOL    MW4 2888   4.268   3.114   1.059 -0.4818  0.1840 -0.0381
  715SOL     OW 2889   4.069   3.213   1.195  0.2886  0.7502  0.3930
  715SOL    HW2 2890   4.054   3.187   1.286  1.0205  0.6757  0.4947
  715SOL    HW3 2891   3.986   3.193   1.151  0.2872 -0.2204  0.8185
  715SOL    MW4 2892   4.056   3.207   1.202  0.3850  0.6123  0.4626
  716SOL     OW 2893   4.057   3.482   1.110  0.0173 -0.2456  0.2577
  716SOL    HW2 2894   4.068   3.392   1.139 -1.3067 -0.3582  0.4754
  716SOL    HW3 2895   3.967   3.504   1.135 -0.8748 -0.0439 -2.9433
  716SOL    MW4 2896   4.046   3.473   1.117 -0.2751 -0.2339 -0.1359
  717SOL     OW 2897   4.272   3.615   1.200 -0.3467 -0.0672  0.2595
  717SOL    HW2 2898   4.197   3.567   1.166 -0.5415 -1.5320  2.6839
  717SOL    HW3 2899   4.348   3.562   1.175 -0.2809  0.1911 -0.1039
  717SOL    MW4 2900   4.272   3.602   1.192 -0.3637 -0.2264  0.5315
  718SOL     OW 2901   0.034   3.958   1.193 -0.2528 -0.0197 -0.7954
  718SOL    HW2 2902  -0.046   3.910   1.173 -0.7484  0.6835 -0.5425
  718SOL    HW3 2903   0.027   3.979   1.286  1.0761 -1.4929 -0.3468
  718SOL    MW4 2904   0.022   3.955   1.203 -0.1428 -0.1213 -0.7028
  719SOL     OW 2905   4.051   4.012   1.223 -0.5548  0.1160 -0.0038
  719SOL    HW2 2906   4.120   3.958   1.186 -0.5005  0.1148  0.0995
  719SOL    HW3 2907   3.970   3.968   1.199 -0.5785  0.8699 -1.3212
  719SOL    MW4 2908   4.049   3.999   1.215 -0.5507  0.2153 -0.1640
  720SOL     OW 2909   4.026   4.277   1.121 -0.1096  0.4042 -0.1329
  720SOL    HW2 2910   3.939   4.303   1.151 -0.0838  0.7433 -0.3464
  720SOL    HW3 2911   4.039   4.190   1.158  0.3493  1.2311  1.6899
  720SOL    MW4 2912   4.016   4.269   1.130 -0.0457  0.5580  0.0794
  721SOL     OW 2913   4.277   4.370   1.240  0.1175  0.0411 -0.5573
  721SOL    HW2 2914   4.196   4.335   1.204  0.6756  0.4184 -2.2109
  721SOL    HW3 2915   4.345   4.311   1.207  0.5669 -0.0991  0.5748
  721SOL    MW4 2916   4.276   4.358   1.231  0.2505  0.0724 -0.6261
  722SOL     OW 2917   0.247   4.632   1.595  0.6841 -0.2801  0.4638
  722SOL    HW2 2918   0.310   4.698   1.565  0.6305 -1.2477 -1.8729
  722SOL    HW3 2919   0.162   4.662   1.563  0.5255 -1.0192  0.1824
  722SOL    MW4 2920   0.244   4.645   1.587  0.6561 -0.5053  0.1184
  723SOL     OW 2921   0.013   0.083   1.491 -0.0307  0.6551 -0.6162
  723SOL    HW2 2922  -0.069   0.073   1.540  0.1423  0.9309 -0.2695
  723SOL    HW3 2923  -0.015   0.088   1.399 -0.2532 -1.1992 -0.6679
  723SOL    MW4 2924  -0.002   0.082   1.485 -0.0373  0.4468 -0.5773
  724SOL     OW 2925   0.017   0.375   1.578  0.2072  0.0624  0.1451
  724SOL    HW2 2926   0.027   0.367   1.673  0.2053 -0.0141  0.1391
  724SOL    HW3 2927   0.047   0.290   1.544 -0.9793 -0.3765  0.1611
  724SOL    MW4 2928   0.022   0.362   1.586  0.0504 -0.0056  0.1464
  725SOL     OW 2929   0.249   0.476   1.472  0.4208  0.2013  0.2817
  725SOL    HW2 2930   0.165   0.447   1.507  0.7959  0.4718  1.4037
  725SOL    HW3 2931   0.235   0.479   1.377 -1.1425  1.1762  0.5199
  725SOL    MW4 2932   0.236   0.473   1.464  0.2640  0.3656  0.4612
  726SOL     OW 2933   0.255   0.755   1.552 -0.2139  0.0710 -0.2686
  726SOL    HW2 2934   0.337   0.794   1.521 -0.4377  1.1707  0.4762
  726SOL    HW3 2935   0.255   0.666   1.517  0.2077  0.8126 -2.2284
  726SOL    MW4 2936   0.266   0.749   1.543 -0.1878  0.3139 -0.4289
  727SOL     OW 2937   4.472   0.875   1.506 -0.3751  0.1718 -0.0707
  727SOL    HW2 2938   4.480   0.967   1.533 -0.4570  0.1211  0.1251
  727SOL    HW3 2939   4.551   0.834   1.539 -0.0499  0.3023 -0.6864
  727SOL    MW4 2940   4.483   0.882   1.514 -0.3430  0.1824 -0.1261
  728SOL     OW 2941   0.002   1.146   1.569 -0.0152 -0.1148 -0.0349
  728SOL    HW2 2942   0.003   1.135   1.664 -0.9803 -1.2956 -0.1514
  728SOL    HW3 2943   0.081   1.195   1.549 -0.0933  0.6160  1.4417
  728SOL    MW4 2944   0.012   1.151   1.579 -0.1528 -0.1741  0.1445
  729SOL     OW 2945   0.221   1.292   1.503 -0.1675 -0.0165  0.4023
  729SOL    HW2 2946   0.223   1.383   1.534 -0.7732 -0.0948  0.6820
  729SOL    HW3 2947   0.224   1.300   1.407  1.4438  0.2355  0.4562
  729SOL    MW4 2948   0.222   1.305   1.494 -0.0348  0.0064  0.4463
  730SOL     OW 2949   0.207   1.550   1.610 -0.3908  0.4924  0.0129
  730SOL    HW2 2950   0.217   1.552   1.705 -0.8743 -0.7168  0.0942
  730SOL    HW3 2951   0.128   1.602   1.593 -0.1955  0.8708  0.2483
  730SOL    MW4 2952   0.198   1.557   1.620 -0.4288  0.3828  0.0547
  731SOL     OW 2953   4.473   1.675   1.505 -0.3827  0.0155 -0.4747
  731SOL    HW2 2954   4.476   1.765   1.537  1.2949 -0.6246  1.2844
  731SOL    HW3 2955   4.494   1.681   1.412 -0.3064  1.4405 -0.3706
  731SOL    MW4 2956   4.476   1.687   1.497 -0.1513  0.1190 -0.2288
  732SOL     OW 2957   0.011   1.942   1.578  0.1298 -0.7163  0.2538
  732SOL    HW2 2958   0.004   1.942   1.673 -0.8201 -0.2649  0.1851
  732SOL    HW3 2959  -0.058   2.000   1.548  2.3122  1.5237 -0.5979
  732SOL    MW4 2960   0.001   1.949   1.586  0.2924 -0.3612  0.1324
  733SOL     OW 2961   0.230   2.070   1.480 -0.3104  0.0724 -0.0499
  733SOL    HW2 2962   0.159   2.031   1.530 -0.7920  0.7981 -0.1512
  733SOL    HW3 2963   0.206   2.055   1.388  0.0333 -0.3204 -0.0763
  733SOL    MW4 2964   0.217   2.063   1.474 -0.3286  0.1163 -0.0667
  734SOL     OW 2965   0.202   2.332   1.564 -0.1456  0.0331  0.4448
  734SOL    HW2 2966   0.203   2.332   1.659  1.5351 -1.6150  0.4380
  734SOL    HW3 2967   0.205   2.239   1.539  1.4720  0.4945 -1.2104
  734SOL    MW4 2968   0.202   2.320   1.573  0.2896 -0.1235  0.2255
  735SOL     OW 2969   4.453   2.471   1.490 -0.0421  0.4378 -0.0966
  735SOL    HW2 2970   4.374   2.421   1.509 -0.5736  0.1728 -2.7546
  735SOL    HW3 2971   4.525   2.412   1.516 -0.6916  0.1453  1.0724
  735SOL    MW4 2972   4.452   2.456   1.496 -0.1979  0.3642 -0.2930
  736SOL     OW 2973   4.469   2.732   1.590  0.0935  0.4138  0.5357
  736SOL    HW2 2974   4.391   2.764   1.544 -0.6537  0.3198  1.7001
  736SOL    HW3 2975   4.463   2.637   1.584  0.4122  0.4183  0.1495
  736SOL    MW4 2976   4.458   2.724   1.583  0.0370  0.4020  0.6384
  737SOL     OW 2977   0.206   2.824   1.463 -0.2820 -0.3945  0.0643
  737SOL    HW2 2978   0.280   2.787   1.511 -0.9019 -1.5709  0.1295
  737SOL    HW3 2979   0.129   2.785   1.504 -0.9342  0.7125 -0.0933
  737SOL    MW4 2980   0.205   2.814   1.475 -0.4499 -0.4037  0.0521
  738SOL     OW 2981   0.182   3.064   1.603 -0.6829  0.4138  0.3192
  738SOL    HW2 2982   0.125   3.124   1.554 -0.2617  0.5985  0.0507
  738SOL    HW3 2983   0.183   2.985   1.551  1.2942  1.2672 -0.9689
  738SOL    MW4 2984   0.174   3.062   1.590 -0.3665  0.5507  0.1138
  739SOL     OW 2985   0.018   3.230   1.460 -0.2169  0.0286 -0.5564
  739SOL    HW2 2986   0.011   3.323   1.479 -0.2478 -0.0252 -0.3046
  739SOL    HW3 2987   0.026   3.225   1.365 -0.1894  0.2896 -0.5662
  739SOL    MW4 2988   0.018   3.241   1.450 -0.2174  0.0560 -0.5245
  740SOL     OW 2989   4.435   3.502   1.569  1.0449  0.0099  0.3521
  740SOL    HW2 2990   4.421   3.502   1.664  0.1559 -0.2566  0.2236
  740SOL    HW3 2991   4.360   3.549   1.534  0.1354 -1.9796 -0.3979
  740SOL    MW4 2992   4.424   3.508   1.577  0.8076 -0.2878  0.2362
  741SOL     OW 2993   0.212   3.599   1.524  0.0382  0.1286  0.0466
  741SOL    HW2 2994   0.211   3.692   1.544  1.3985  0.0482  0.5378
  741SOL    HW3 2995   0.121   3.571   1.534 -0.2948  1.3071  0.3344
  741SOL    MW4 2996   0.200   3.607   1.528  0.1738  0.2735  0.1494
  742SOL     OW 2997   0.193   3.863   1.616  0.3450  0.0376  0.3416
  742SOL    HW2 2998   0.206   3.861   1.711  0.6734  0.8563  0.3211
  742SOL    HW3 2999   0.268   3.913   1.583  0.5990 -0.8436 -0.4126
  742SOL    MW4 3000   0.205   3.870   1.624  0.4218  0.0294  0.2394
  743SOL     OW 3001   4.468   3.979   1.474 -0.3953  0.0677 -0.3725
  743SOL    HW2 3002   4.482   4.070   1.497 -3.4341  0.4521  0.1930
  743SOL    HW3 3003   4.534   3.930   1.524  0.4383  1.8302  0.2632
  743SOL    MW4 3004   4.479   3.984   1.483 -0.6862  0.3510 -0.2140
  744SOL     OW 3005   0.038   4.230   1.560 -0.1261  0.1851 -0.2256
  744SOL    HW2 3006   0.020   4.217   1.653 -2.0689 -1.0677 -0.7419
  744SOL    HW3 3007  -0.023   4.298   1.532  0.3481  0.4567 -0.6095
  744SOL    MW4 3008   0.028   4.237   1.568 -0.3199  0.0556 -0.3443
  745SOL     OW 3009   0.251   4.391   1.474  0.3497 -0.3811 -0.5531
  745SOL    HW2 3010   0.167   4.357   1.505  0.9850 -1.1196  0.4133
  745SOL    HW3 3011   0.259   4.477   1.515  0.3225 -0.5523 -0.1846
  745SOL    MW4 3012   0.241   4.398   1.484  0.4300 -0.5012 -0.3770
  746SOL     OW 3013   0.691   4.608   1.563  0.0122 -0.1244  0.1699
  746SOL    HW2 3014   0.770   4.648   1.528  1.5713 -2.5881  0.7625
  746SOL    HW3 3015   0.622   4.673   1.548  1.6805  1.0993 -2.4642
  746SOL    MW4 3016   0.692   4.621   1.556  0.4380 -0.2880 -0.0994
  747SOL     OW 3017   0.464   0.118   1.489 -0.0088 -0.3450  0.0391
  747SOL    HW2 3018   0.458   0.207   1.524  0.7372 -0.3251  0.1169
  747SOL    HW3 3019   0.474   0.130   1.394  0.2495 -0.3435  0.0670
  747SOL    MW4 3020   0.464   0.131   1.481  0.1237 -0.3422  0.0530
  748SOL     OW 3021   0.453   0.360   1.601 -0.0050 -0.0267  0.1530
  748SOL    HW2 3022   0.534   0.387   1.558  0.1150 -0.7568 -0.0919
  748SOL    HW3 3023   0.383   0.404   1.553  0.2492  0.6787  0.4207
  748SOL    MW4 3024   0.454   0.369   1.589  0.0443 -0.0300  0.1560
  749SOL     OW 3025   0.672   0.490   1.511 -0.7469  0.3233 -0.7191
  749SOL    HW2 3026   0.678   0.578   1.549 -0.8989 -0.0259  0.1281
  749SOL    HW3 3027   0.698   0.501   1.420  0.6903  0.9906 -0.2392
  749SOL    MW4 3028   0.676   0.503   1.504 -0.5773  0.3653 -0.5440
  750SOL     OW 3029   0.704   0.753   1.594  0.2437 -0.1156  0.2233
  750SOL    HW2 3030   0.688   0.761   1.688 -0.8107  0.5405 -0.0033
  750SOL    HW3 3031   0.794   0.784   1.582  0.4027 -0.2667  1.0253
  750SOL    MW4 3032   0.714   0.758   1.605  0.1256 -0.0489  0.2992
  751SOL     OW 3033   0.492   0.865   1.443 -0.0852 -0.6772  0.1686
  751SOL    HW2 3034   0.489   0.952   1.481 -0.5534 -0.6702  0.1130
  751SOL    HW3 3035   0.566   0.822   1.487  0.4833 -0.0759 -0.1987
  751SOL    MW4 3036   0.502   0.871   1.454 -0.0720 -0.5970  0.1128
  752SOL     OW 3037   0.458   1.110   1.570  0.3068  0.3059 -0.3166
  752SOL    HW2 3038   0.535   1.148   1.527  0.7062 -1.3438 -1.1033
  752SOL    HW3 3039   0.385   1.163   1.538  0.8215  0.2809 -1.6035
  752SOL    MW4 3040   0.458   1.122   1.560  0.4274  0.0849 -0.5902
  753SOL     OW 3041   0.681   1.279   1.501 -0.1290 -0.2892  0.0476
  753SOL    HW2 3042   0.669   1.355   1.558 -1.3881 -0.7494  0.4155
  753SOL    HW3 3043   0.655   1.310   1.415 -1.1417 -0.4360  0.2930
  753SOL    MW4 3044   0.676   1.293   1.497 -0.4287 -0.3693  0.1285
  754SOL     OW 3045   0.650   1.530   1.600 -0.1507 -0.0032 -0.3937
  754SOL    HW2 3046   0.712   1.574   1.542  0.1933 -1.9743 -1.6064
  754SOL    HW3 3047   0.565   1.567   1.576  0.2312  0.6866 -0.7007
  754SOL    MW4 3048   0.647   1.541   1.589 -0.0549 -0.1723 -0.5942
  755SOL     OW 3049   0.434   1.678   1.498 -0.1317 -0.1750  0.1209
  755SOL    HW2 3050   0.441   1.762   1.544  1.3909 -0.2917  0.1198
  755SOL    HW3 3051   0.346   1.648   1.519 -1.4824  2.3997 -1.5588
  755SOL    MW4 3052   0.423   1.685   1.507 -0.1090  0.1493 -0.1009
  756SOL     OW 3053   0.453   1.950   1.562 -0.0037  0.3510 -0.0568
  756SOL    HW2 3054   0.438   1.957   1.657 -0.7268 -0.0168 -0.1448
  756SOL    HW3 3055   0.374   1.987   1.523 -0.7811 -1.7415 -0.5194
  756SOL    MW4 3056   0.441   1.956   1.570 -0.2017  0.0264 -0.1295
  757SOL     OW 3057   0.679   2.110   1.478 -0.3879  0.0349 -0.3277
  757SOL    HW2 3058   0.758   2.061   1.502 -0.4890  0.6314  1.3141
  757SOL    HW3 3059   0.608   2.061   1.518 -0.7407  0.1389 -0.8257
  757SOL    MW4 3060   0.680   2.097   1.487 -0.4478  0.1273 -0.1768
  758SOL     OW 3061   0.644   2.374   1.552 -0.2991  0.1688 -0.2503
  758SOL    HW2 3062   0.563   2.412   1.520 -1.4158 -1.6902  0.2821
  758SOL    HW3 3063   0.650   2.289   1.508  2.0008  0.8163 -1.2236
  758SOL    MW4 3064   0.634   2.368   1.542 -0.1430  0.0090 -0.3085
  759SOL     OW 3065   0.409   2.476   1.461  0.1706  0.3654  0.0334
  759SOL    HW2 3066   0.407   2.563   1.501  0.5989 -0.0429  0.9659
  759SOL    HW3 3067   0.330   2.433   1.495 -1.2168  1.1375 -2.1640
  759SOL    MW4 3068   0.398   2.482   1.471  0.0441  0.4134 -0.1335
  760SOL     OW 3069   0.436   2.723   1.605  0.4271 -0.0143 -0.4915
  760SOL    HW2 3070   0.431   2.716   1.700  0.1112 -2.3211 -0.6445
  760SOL    HW3 3071   0.518   2.770   1.588  1.3207 -1.0674  0.8674
  760SOL    MW4 3072   0.446   2.728   1.615  0.5033 -0.4576 -0.3324
  761SOL     OW 3073   0.661   2.817   1.492 -0.3142 -0.7204 -0.1504
  761SOL    HW2 3074   0.673   2.911   1.509 -0.2112 -0.9665  1.1871
  761SOL    HW3 3075   0.654   2.811   1.397 -0.2134  0.6358 -0.2585
  761SOL    MW4 3076   0.661   2.829   1.482 -0.2873 -0.5739  0.0118
  762SOL     OW 3077   0.656   3.101   1.587 -0.4233 -0.0136 -0.0913
  762SOL    HW2 3078   0.724   3.154   1.545 -0.3988 -0.4720 -0.6302
  762SOL    HW3 3079   0.574   3.134   1.552 -0.5265  0.9713  1.0403
  762SOL    MW4 3080   0.654   3.112   1.577 -0.4337  0.0559 -0.0131
  763SOL     OW 3081   0.415   3.207   1.493 -0.1150  0.1389  0.4693
  763SOL    HW2 3082   0.340   3.152   1.515 -0.9648  0.7259 -0.9569
  763SOL    HW3 3083   0.425   3.199   1.398  1.2299  0.5654  0.5581
  763SOL    MW4 3084   0.407   3.199   1.484 -0.0497  0.2726  0.2928
  764SOL     OW 3085   0.462   3.462   1.613 -0.0646  0.0556 -0.5474
  764SOL    HW2 3086   0.462   3.386   1.555  0.6716  0.9685 -1.7688
  764SOL    HW3 3087   0.374   3.499   1.605 -0.0170  0.0813 -0.9393
  764SOL    MW4 3088   0.450   3.456   1.605  0.0388  0.1794 -0.7603
  765SOL     OW 3089   0.666   3.633   1.526  0.1595 -0.4437  0.8467
  765SOL    HW2 3090   0.741   3.585   1.560  0.8301  0.4024  0.5788
  765SOL    HW3 3091   0.590   3.581   1.552  0.8408 -1.3404  1.0604
  765SOL    MW4 3092   0.666   3.620   1.534  0.3379 -0.4504  0.8395
  766SOL     OW 3093   0.673   3.893   1.627  0.1410 -0.3107 -0.0132
  766SOL    HW2 3094   0.755   3.925   1.589  0.8291 -2.1098 -0.1442
  766SOL    HW3 3095   0.671   3.800   1.603 -1.4925 -0.4988  0.7800
  766SOL    MW4 3096   0.684   3.885   1.619  0.0162 -0.5729  0.0741
  767SOL     OW 3097   0.425   3.989   1.499  0.3418  0.5430 -0.2752
  767SOL    HW2 3098   0.505   3.948   1.532  0.6200  1.2240 -0.0971
  767SOL    HW3 3099   0.439   3.998   1.405 -0.3596 -1.1953 -0.5600
  767SOL    MW4 3100   0.437   3.985   1.491  0.2860  0.4035 -0.2893
  768SOL     OW 3101   0.449   4.240   1.598  0.1299 -0.5425 -0.5872
  768SOL    HW2 3102   0.442   4.152   1.560 -0.5714 -0.5496 -0.4504
  768SOL    HW3 3103   0.379   4.290   1.555  0.9567  0.1371 -1.1631
  768SOL    MW4 3104   0.439   4.235   1.587  0.1465 -0.4538 -0.6451
  769SOL     OW 3105   0.641   4.367   1.432 -0.0100  0.0694 -1.0443
  769SOL    HW2 3106   0.585   4.312   1.488  1.1820 -1.0368 -0.9051
  769SOL    HW3 3107   0.659   4.445   1.485  0.7093 -0.7530 -0.0470
  769SOL    MW4 3108   0.636   4.370   1.447  0.2422 -0.1850 -0.8943
  770SOL     OW 3109   1.121   4.618   1.553 -0.1024  0.1536  0.2202
  770SOL    HW2 3110   1.098   4.644   1.642  0.3876  1.3734 -0.0012
  770SOL    HW3 3111   1.196   4.673   1.531  0.1392 -0.5591 -0.7337
  770SOL    MW4 3112   1.128   4.629   1.562 -0.0059  0.2205  0.0651
  771SOL     OW 3113   0.926   0.103   1.449 -0.1532  0.8710 -0.4394
  771SOL    HW2 3114   0.927   0.178   1.509 -1.4358 -0.9096  1.8989
  771SOL    HW3 3115   1.000   0.049   1.478 -0.9742 -0.1606 -0.2408
  771SOL    MW4 3116   0.936   0.106   1.461 -0.4307  0.5000 -0.1047
  772SOL     OW 3117   0.931   0.328   1.629 -0.2107  0.0655  0.4889
  772SOL    HW2 3118   0.923   0.336   1.724  1.0574  0.3285  0.5789
  772SOL    HW3 3119   0.843   0.344   1.596 -0.6407  0.0356  1.6175
  772SOL    MW4 3120   0.918   0.331   1.637 -0.1001  0.0963  0.6497
  773SOL     OW 3121   1.133   0.470   1.473 -0.4637 -0.2170  0.7251
  773SOL    HW2 3122   1.142   0.560   1.506  1.1145 -0.9191  2.2536
  773SOL    HW3 3123   1.072   0.429   1.534 -3.0308  0.4283 -1.3089
  773SOL    MW4 3124   1.126   0.476   1.485 -0.5941 -0.2245  0.6584
  774SOL     OW 3125   1.160   0.715   1.592  0.2887 -0.0108  0.7105
  774SOL    HW2 3126   1.148   0.748   1.681 -0.6390  2.1301 -0.1873
  774SOL    HW3 3127   1.227   0.772   1.554 -0.2685 -0.0773 -0.3851
  774SOL    MW4 3128   1.167   0.727   1.599  0.0928  0.2629  0.4475
  775SOL     OW 3129   0.940   0.878   1.509  0.0334 -0.2842  0.2728
  775SOL    HW2 3130   1.017   0.822   1.523  2.2919  2.4547 -0.6787
  775SOL    HW3 3131   0.930   0.881   1.414 -0.0877  0.8480  0.3146
  775SOL    MW4 3132   0.949   0.871   1.498  0.3154  0.2265  0.1528
  776SOL     OW 3133   0.909   1.137   1.606 -0.5736  0.3378 -0.4977
  776SOL    HW2 3134   0.917   1.046   1.578  0.6904  1.0587 -2.5852
  776SOL    HW3 3135   0.827   1.167   1.566  0.3177  0.8390 -2.0032
  776SOL    MW4 3136   0.899   1.129   1.597 -0.2892  0.4990 -0.9717
  777SOL     OW 3137   1.100   1.271   1.469 -0.5616 -0.0802 -0.2347
  777SOL    HW2 3138   1.185   1.236   1.496  0.0722  0.4864 -1.4551
  777SOL    HW3 3139   1.037   1.224   1.522  0.5707  0.0535  1.2629
  777SOL    MW4 3140   1.103   1.261   1.480 -0.3286  0.0122 -0.1982
  778SOL     OW 3141   1.117   1.522   1.586 -0.0335 -0.5720  0.1433
  778SOL    HW2 3142   1.194   1.569   1.554 -0.8855  0.1582 -0.8675
  778SOL    HW3 3143   1.114   1.441   1.534 -1.0067  0.2790 -1.1653
  778SOL    MW4 3144   1.127   1.517   1.575 -0.2743 -0.3634 -0.1627
  779SOL     OW 3145   0.869   1.639   1.474  0.4637  0.0888  0.5021
  779SOL    HW2 3146   0.942   1.587   1.508  0.2389 -1.2447 -1.0112
  779SOL    HW3 3147   0.873   1.627   1.380 -0.1580  2.1203  0.2001
  779SOL    MW4 3148   0.879   1.630   1.466  0.3520  0.1809  0.2626
  780SOL     OW 3149   0.902   1.920   1.530  0.0655  0.2745  0.0245
  780SOL    HW2 3150   0.982   1.947   1.484 -0.0263 -0.6902 -0.7097
  780SOL    HW3 3151   0.883   1.833   1.496  0.0764 -0.5243  2.0112
  780SOL    MW4 3152   0.910   1.912   1.519  0.0548  0.0418  0.1897
  781SOL     OW 3153   1.129   2.027   1.415 -0.3559  0.2390  0.3256
  781SOL    HW2 3154   1.202   1.984   1.461 -1.0107 -0.6368  0.5478
  781SOL    HW3 3155   1.118   2.110   1.462  0.3154  0.2580  0.4647
  781SOL    MW4 3156   1.137   2.032   1.427 -0.3537  0.1260  0.3732
  782SOL     OW 3157   1.093   2.272   1.602 -0.2782 -0.2516  0.3546
  782SOL    HW2 3158   1.172   2.296   1.553 -0.1270 -0.2715  0.5909
  782SOL    HW3 3159   1.022   2.318   1.557 -0.4088 -1.8583 -1.1249
  782SOL    MW4 3160   1.094   2.281   1.589 -0.2755 -0.4662  0.1906
  783SOL     OW 3161   0.904   2.453   1.497 -0.2485  0.1389 -0.0401
  783SOL    HW2 3162   0.906   2.546   1.518  1.0179 -0.2969  1.9552
  783SOL    HW3 3163   0.817   2.424   1.526 -0.0600  0.3834  0.7689
  783SOL    MW4 3164   0.893   2.461   1.504 -0.0566  0.1136  0.3299
  784SOL     OW 3165   0.898   2.723   1.590 -0.1660  0.0104  0.0917
  784SOL    HW2 3166   0.887   2.714   1.684 -2.2289  0.7141 -0.0509
  784SOL    HW3 3167   0.810   2.740   1.557  0.6024  0.2973 -1.9104
  784SOL    MW4 3168   0.885   2.724   1.598 -0.3368  0.1411 -0.1913
  785SOL     OW 3169   1.105   2.869   1.467  0.3192  0.2878 -0.1357
  785SOL    HW2 3170   1.098   2.955   1.507  2.0104  0.3244  0.1553
  785SOL    HW3 3171   1.032   2.819   1.502  0.5448  0.9740  1.3235
  785SOL    MW4 3172   1.095   2.874   1.477  0.5721  0.3832  0.0952
  786SOL     OW 3173   1.106   3.120   1.581 -0.2119 -0.2434  0.1857
  786SOL    HW2 3174   1.117   3.124   1.676  0.1217 -1.9467  0.2335
  786SOL    HW3 3175   1.185   3.162   1.546 -0.3570  0.4285  0.6457
  786SOL    MW4 3176   1.118   3.126   1.589 -0.1870 -0.3795  0.2527
  787SOL     OW 3177   0.877   3.234   1.482 -0.2497  0.1782 -0.0859
  787SOL    HW2 3178   0.962   3.200   1.510 -0.7996 -0.5105  0.7963
  787SOL    HW3 3179   0.872   3.214   1.389 -0.4885 -2.0629  0.3811
  787SOL    MW4 3180   0.887   3.227   1.473 -0.3537 -0.2084  0.0921
  788SOL     OW 3181   0.869   3.478   1.616 -0.3576 -0.0464  0.0887
  788SOL    HW2 3182   0.955   3.501   1.581 -0.2224 -0.2267  0.2953
  788SOL    HW3 3183   0.854   3.388   1.585 -0.8296  0.2743 -0.6193
  788SOL    MW4 3184   0.878   3.469   1.607 -0.4020 -0.0278  0.0226
  789SOL     OW 3185   1.102   3.594   1.491 -0.1800  0.1988  0.0226
  789SOL    HW2 3186   1.184   3.558   1.525 -0.1855  0.8057  0.6918
  789SOL    HW3 3187   1.125   3.629   1.405 -0.1691 -1.3679 -0.6171
  789SOL    MW4 3188   1.116   3.594   1.484 -0.1793  0.0721  0.0265
  790SOL     OW 3189   1.107   3.842   1.621  0.3113  0.3763 -0.2060
  790SOL    HW2 3190   1.189   3.874   1.582  1.4202  1.0951  2.5529
  790SOL    HW3 3191   1.100   3.752   1.590  2.6920 -0.0181  0.2412
  790SOL    MW4 3192   1.117   3.835   1.612  0.7717  0.4191  0.2170
  791SOL     OW 3193   0.892   3.954   1.481 -0.6629  0.3664  0.1084
  791SOL    HW2 3194   0.886   4.047   1.503 -0.6397  0.1081  1.2101
  791SOL    HW3 3195   0.976   3.926   1.518 -0.1748  0.1497 -1.1314
  791SOL    MW4 3196   0.903   3.963   1.489 -0.5954  0.3037  0.0901
  792SOL     OW 3197   0.865   4.221   1.532  0.2646  0.3375  1.2332
  792SOL    HW2 3198   0.859   4.236   1.626  0.1926  3.0599  0.8211
  792SOL    HW3 3199   0.794   4.272   1.494  0.6114 -0.3162 -0.3584
  792SOL    MW4 3200   0.855   4.230   1.539  0.3009  0.6105  0.9688
  793SOL     OW 3201   1.115   4.349   1.432 -0.0530 -0.2507 -0.8479
  793SOL    HW2 3202   1.039   4.296   1.459  0.1828  0.3869  1.0936
  793SOL    HW3 3203   1.097   4.436   1.468  1.3409  0.0432 -0.8603
  793SOL    MW4 3204   1.102   4.354   1.440  0.1620 -0.1278 -0.5934
  794SOL     OW 3205   1.555   4.666   1.585 -0.3859 -0.0455 -0.0140
  794SOL    HW2 3206   1.532   4.642   1.675  0.9559  0.2122  0.4024
  794SOL    HW3 3207   1.484   4.725   1.558 -0.1899  0.8109  1.2828
  794SOL    MW4 3208   1.542   4.671   1.593 -0.1830  0.1015  0.2120
  795SOL     OW 3209   1.340   0.125   1.473  0.1361  0.2592 -0.5116
  795SOL    HW2 3210   1.362   0.210   1.511  1.7020 -0.2547 -0.2347
  795SOL    HW3 3211   1.350   0.138   1.378  2.2691 -0.1091 -0.3669
  795SOL    MW4 3212   1.345   0.138   1.465  0.6242  0.1428 -0.4560
  796SOL     OW 3213   1.357   0.364   1.602 -0.4572 -0.0532  0.3324
  796SOL    HW2 3214   1.428   0.421   1.572 -0.4309 -0.1783  0.1561
  796SOL    HW3 3215   1.278   0.402   1.564 -0.6355  0.7681  1.4795
  796SOL    MW4 3216   1.356   0.377   1.593 -0.4773  0.0386  0.4605
  797SOL     OW 3217   1.597   0.517   1.519 -0.2602 -0.3137  0.1488
  797SOL    HW2 3218   1.673   0.467   1.548 -0.9025 -0.9968  0.6567
  797SOL    HW3 3219   1.605   0.521   1.424  1.7250  1.7174  0.3513
  797SOL    MW4 3220   1.608   0.511   1.510 -0.0831 -0.1359  0.2425
  798SOL     OW 3221   1.636   0.778   1.627 -0.2100  0.3198 -0.2582
  798SOL    HW2 3222   1.626   0.776   1.722 -1.3138 -0.5591 -0.3761
  798SOL    HW3 3223   1.620   0.688   1.600 -1.4409  0.8658 -1.4073
  798SOL    MW4 3224   1.633   0.766   1.636 -0.5180  0.2759 -0.4254
  799SOL     OW 3225   1.376   0.878   1.508 -0.0705 -0.4229 -0.7345
  799SOL    HW2 3226   1.463   0.856   1.540  0.2139  1.9534  0.1903
  799SOL    HW3 3227   1.384   0.878   1.412  0.7627 -0.8677 -0.6642
  799SOL    MW4 3228   1.388   0.875   1.499  0.0769 -0.1681 -0.6032
  800SOL     OW 3229   1.357   1.158   1.546 -0.0945  0.4810 -0.1630
  800SOL    HW2 3230   1.368   1.159   1.641  1.2053  0.4856 -0.2957
  800SOL    HW3 3231   1.353   1.065   1.524 -0.2767  0.4769 -0.1066
  800SOL    MW4 3232   1.358   1.146   1.556  0.0530  0.4811 -0.1730
  801SOL     OW 3233   1.549   1.300   1.165 -0.1525  0.0501  0.3599
  801SOL    HW2 3234   1.467   1.251   1.154 -0.4360  0.6474 -0.2118
  801SOL    HW3 3235   1.574   1.284   1.256 -1.5165  0.7707  0.8796
  801SOL    MW4 3236   1.541   1.291   1.176 -0.3698  0.2240  0.3530
  802SOL     OW 3237   1.600   1.268   1.433 -0.4466  0.2865 -0.4598
  802SOL    HW2 3238   1.609   1.357   1.467 -0.8882  0.1749 -0.0412
  802SOL    HW3 3239   1.530   1.229   1.486 -0.3419 -0.2683 -0.7248
  802SOL    MW4 3240   1.592   1.274   1.445 -0.4910  0.1985 -0.4396
  803SOL     OW 3241   1.329   1.672   1.460 -0.4457 -0.1513 -0.0689
  803SOL    HW2 3242   1.392   1.602   1.477 -0.4389  0.4299  2.4532
  803SOL    HW3 3243   1.327   1.679   1.364  1.6078 -1.7224 -0.2730
  803SOL    MW4 3244   1.337   1.664   1.449 -0.1738 -0.2819  0.2369
  804SOL     OW 3245   1.336   1.930   1.554  0.3597 -0.3577  0.0971
  804SOL    HW2 3246   1.313   1.934   1.647 -0.1877  0.0559 -0.0530
  804SOL    HW3 3247   1.322   1.839   1.529  0.2041 -0.4015  0.3467
  804SOL    MW4 3248   1.331   1.919   1.563  0.2670 -0.3089  0.1102
  805SOL     OW 3249   1.551   2.071   1.439 -0.1066  0.0099 -0.1785
  805SOL    HW2 3250   1.474   2.017   1.459  0.1577 -0.5232 -0.5733
  805SOL    HW3 3251   1.566   2.057   1.345 -0.0651  0.8180 -0.2945
  805SOL    MW4 3252   1.543   2.062   1.429 -0.0663  0.0462 -0.2459
  806SOL     OW 3253   1.517   2.324   1.561 -0.3656 -0.1708 -0.0215
  806SOL    HW2 3254   1.596   2.378   1.562 -0.5079  0.0896 -1.4110
  806SOL    HW3 3255   1.546   2.240   1.527 -0.9149  0.3251 -1.7576
  806SOL    MW4 3256   1.532   2.320   1.557 -0.4568 -0.0710 -0.4338
  807SOL     OW 3257   1.295   2.406   1.434  0.1267 -0.2513  0.4535
  807SOL    HW2 3258   1.273   2.491   1.472  2.9998  1.0062 -0.5438
  807SOL    HW3 3259   1.376   2.380   1.478  1.6810 -0.3414 -2.3425
  807SOL    MW4 3260   1.303   2.413   1.444  0.7108 -0.0973 -0.0470
  808SOL     OW 3261   1.286   2.677   1.558 -0.4192 -0.0734  0.0045
  808SOL    HW2 3262   1.364   2.717   1.519 -0.1680 -0.5278  0.0363
  808SOL    HW3 3263   1.215   2.735   1.534 -0.2048 -0.1470 -0.8061
  808SOL    MW4 3264   1.287   2.690   1.550 -0.3578 -0.1431 -0.0983
  809SOL     OW 3265   1.515   2.822   1.509 -0.3646  0.0714  0.1463
  809SOL    HW2 3266   1.597   2.789   1.547  0.3282  0.3777 -1.0425
  809SOL    HW3 3267   1.540   2.852   1.422 -1.9272 -0.6144 -0.5552
  809SOL    MW4 3268   1.529   2.822   1.503 -0.4794  0.0213 -0.1031
  810SOL     OW 3269   1.558   3.098   1.564 -0.2638 -0.1132  0.0055
  810SOL    HW2 3270   1.545   3.095   1.659  3.9342 -1.2985  0.6379
  810SOL    HW3 3271   1.542   3.008   1.535 -2.1544  0.3847 -0.5277
  810SOL    MW4 3272   1.554   3.086   1.573  0.0407 -0.2039  0.0186
  811SOL     OW 3273   1.331   3.221   1.454 -0.1039  0.0446 -0.4672
  811SOL    HW2 3274   1.339   3.313   1.480 -0.6082 -0.2845  0.9096
  811SOL    HW3 3275   1.412   3.180   1.486  0.1282  0.0171 -1.0941
  811SOL    MW4 3276   1.343   3.227   1.462 -0.1398 -0.0024 -0.3683
  812SOL     OW 3277   1.332   3.478   1.574 -0.9435 -0.5960  0.7077
  812SOL    HW2 3278   1.340   3.467   1.669  1.1284 -1.4389  0.4574
  812SOL    HW3 3279   1.411   3.526   1.548 -1.6326 -0.1179 -0.5690
  812SOL    MW4 3280   1.343   3.483   1.583 -0.7611 -0.6441  0.5063
  813SOL     OW 3281   1.563   3.598   1.482  0.0135  0.2406 -0.4180
  813SOL    HW2 3282   1.639   3.566   1.531 -1.3816 -0.3438  1.4345
  813SOL    HW3 3283   1.564   3.693   1.495 -0.8407  0.0118  1.5626
  813SOL    MW4 3284   1.573   3.606   1.491 -0.2833  0.1333  0.0877
  814SOL     OW 3285   1.571   3.875   1.555  0.0763  0.0015 -0.5588
  814SOL    HW2 3286   1.577   3.877   1.650 -0.3450  0.9272 -0.5413
  814SOL    HW3 3287   1.478   3.892   1.537  0.0598 -0.6649 -1.1203
  814SOL    MW4 3288   1.560   3.877   1.565  0.0185  0.0357 -0.6306
  815SOL     OW 3289   1.313   3.977   1.497  0.0243 -0.0899  0.4366
  815SOL    HW2 3290   1.319   4.065   1.534 -1.9554  0.1161  0.3580
  815SOL    HW3 3291   1.331   3.989   1.404 -1.3831  0.4580  0.2066
  815SOL    MW4 3292   1.316   3.990   1.490 -0.4226  0.0096  0.3959
  816SOL     OW 3293   1.281   4.274   1.632  0.0857 -0.2439  0.0432
  816SOL    HW2 3294   1.368   4.306   1.608 -0.0162 -1.2106 -1.6748
  816SOL    HW3 3295   1.223   4.313   1.567 -0.5542 -0.8668  0.2416
  816SOL    MW4 3296   1.285   4.283   1.620 -0.0121 -0.4536 -0.1573
  817SOL     OW 3297   1.511   4.369   1.533 -0.2650  0.3870  0.1272
  817SOL    HW2 3298   1.605   4.365   1.552 -0.5224 -1.7090  1.1410
  817SOL    HW3 3299   1.491   4.463   1.526  1.9633  0.8350 -0.4881
  817SOL    MW4 3300   1.521   4.381   1.535 -0.0050  0.1695  0.1797
  818SOL     OW 3301   2.022   0.018   1.590  0.1347 -0.5619  0.8665
  818SOL    HW2 3302   2.016  -0.002   1.684  0.0489  1.0021  1.2022
  818SOL    HW3 3303   1.937   0.056   1.568 -0.1416 -1.6838 -0.0444
  818SOL    MW4 3304   2.010   0.020   1.600  0.0869 -0.5036  0.7906
  819SOL     OW 3305   1.779   0.118   1.493 -0.2219  0.3254 -0.4673
  819SOL    HW2 3306   1.697   0.072   1.512 -0.1085  0.1897 -0.3063
  819SOL    HW3 3307   1.797   0.097   1.402 -0.0638 -0.1156 -0.3339
  819SOL    MW4 3308   1.771   0.109   1.484 -0.1861  0.2493 -0.4285
  820SOL     OW 3309   1.816   0.361   1.631  0.4948 -0.0210  0.0603
  820SOL    HW2 3310   1.892   0.397   1.584  0.2807 -0.6640 -0.8097
  820SOL    HW3 3311   1.794   0.281   1.582 -0.4207 -0.1158  0.6181
  820SOL    MW4 3312   1.824   0.355   1.618  0.3458 -0.1183  0.0191
  821SOL     OW 3313   2.017   0.510   1.463  0.2760 -0.0782 -0.0860
  821SOL    HW2 3314   2.099   0.471   1.495  0.1251  0.8876  1.5035
  821SOL    HW3 3315   2.014   0.596   1.504 -1.3172  0.0815 -0.5092
  821SOL    MW4 3316   2.028   0.516   1.472  0.0459  0.0703  0.0679
  822SOL     OW 3317   2.022   0.770   1.580 -0.1393 -0.4490  0.2572
  822SOL    HW2 3318   2.098   0.813   1.541  0.9039 -1.8098  0.7547
  822SOL    HW3 3319   1.947   0.811   1.537  0.9247 -0.6970 -1.9273
  822SOL    MW4 3320   2.022   0.781   1.569  0.1387 -0.6613  0.0346
  823SOL     OW 3321   1.810   0.907   1.454  0.1924 -0.0672 -0.0773
  823SOL    HW2 3322   1.833   0.990   1.495  1.5290 -0.3947 -0.1547
  823SOL    HW3 3323   1.744   0.869   1.513 -0.7180  1.2131 -0.2507
  823SOL    MW4 3324   1.804   0.913   1.467  0.2486  0.0585 -0.1104
  824SOL     OW 3325   1.810   1.151   1.582 -0.1069  0.1090  0.4510
  824SOL    HW2 3326   1.892   1.189   1.549  0.2334 -0.9354  0.0798
  824SOL    HW3 3327   1.741   1.194   1.532  0.3101 -0.2046 -0.3943
  824SOL    MW4 3328   1.812   1.162   1.571 -0.0070 -0.0702  0.2905
  825SOL     OW 3329   2.013   1.279   1.482  0.2286  0.2700 -0.1485
  825SOL    HW2 3330   2.014   1.368   1.516  0.9832  0.4120 -0.5302
  825SOL    HW3 3331   2.029   1.289   1.388 -0.0748 -0.2351 -0.2540
  825SOL    MW4 3332   2.016   1.292   1.474  0.2882  0.2221 -0.2128
  826SOL     OW 3333   1.808   1.716   1.514 -0.0760 -0.0049  0.5799
  826SOL    HW2 3334   1.856   1.645   1.556 -2.5480 -1.3186  1.2934
  826SOL    HW3 3335   1.824   1.705   1.420  1.1654 -0.2976  0.8280
  826SOL    MW4 3336   1.816   1.705   1.507 -0.2384 -0.2169  0.7068
  827SOL     OW 3337   1.589   1.533   1.532 -0.0429  0.1864  0.3584
  827SOL    HW2 3338   1.554   1.544   1.620  0.2922  0.6963  0.4239
  827SOL    HW3 3339   1.654   1.603   1.522  0.8403 -0.6467  0.1722
  827SOL    MW4 3340   1.593   1.544   1.542  0.1178  0.1438  0.3424
  828SOL     OW 3341   1.773   1.975   1.590 -0.7336 -0.2681 -0.2285
  828SOL    HW2 3342   1.793   1.887   1.556 -2.2173 -0.3594 -0.8852
  828SOL    HW3 3343   1.691   1.999   1.547  0.2620  1.9357 -0.9216
  828SOL    MW4 3344   1.765   1.966   1.580 -0.7980  0.0106 -0.4066
  829SOL     OW 3345   2.002   2.066   1.473  0.0719  0.2446  0.7642
  829SOL    HW2 3346   2.078   2.020   1.507  0.3212 -0.4820 -0.7343
  829SOL    HW3 3347   1.929   2.038   1.528  0.6468 -0.1104  1.3451
  829SOL    MW4 3348   2.002   2.057   1.484  0.1806  0.1019  0.6431
  830SOL     OW 3349   2.030   2.320   1.571  0.0977 -0.2061  0.0695
  830SOL    HW2 3350   2.033   2.308   1.666  0.3046  0.2050  0.1147
  830SOL    HW3 3351   2.034   2.231   1.536 -1.0761 -0.4302  0.4693
  830SOL    MW4 3352   2.031   2.306   1.579 -0.0299 -0.1814  0.1282
  831SOL     OW 3353   1.776   2.430   1.509 -0.1303  0.3134  0.0415
  831SOL    HW2 3354   1.865   2.400   1.526  0.7482  2.7083 -0.1574
  831SOL    HW3 3355   1.771   2.437   1.414 -0.1258  1.3269  0.1093
  831SOL    MW4 3356   1.787   2.427   1.499 -0.0138  0.7631  0.0242
  832SOL     OW 3357   1.755   2.693   1.578  0.1155  0.2625  0.4810
  832SOL    HW2 3358   1.841   2.721   1.546 -0.3691  0.7444 -0.3890
  832SOL    HW3 3359   1.750   2.600   1.555 -0.1204  0.5400 -0.6020
  832SOL    MW4 3360   1.766   2.684   1.571  0.0204  0.3627  0.2233
  833SOL     OW 3361   2.014   2.803   1.470  0.0713  0.0555  0.0466
  833SOL    HW2 3362   2.032   2.892   1.499 -2.3462  0.6161 -0.0770
  833SOL    HW3 3363   2.034   2.804   1.376 -0.1585  0.5368 -0.0007
  833SOL    MW4 3364   2.019   2.815   1.461 -0.2780  0.1930  0.0241
  834SOL     OW 3365   1.996   3.087   1.567 -0.3968  0.2003 -0.0475
  834SOL    HW2 3366   1.983   3.075   1.661 -1.0332  0.8525 -0.0480
  834SOL    HW3 3367   2.065   3.153   1.560  0.0018 -0.2100 -0.0456
  834SOL    MW4 3368   2.003   3.094   1.578 -0.4282  0.2322 -0.0473
  835SOL     OW 3369   1.775   3.254   1.492 -0.5081  0.0074  0.1475
  835SOL    HW2 3370   1.848   3.194   1.505  0.5200  1.3427  0.6207
  835SOL    HW3 3371   1.697   3.202   1.514  0.3318 -1.2440  0.2073
  835SOL    MW4 3372   1.774   3.239   1.497 -0.2616  0.0185  0.2178
  836SOL     OW 3373   1.792   3.500   1.617  0.5546  0.2239 -0.3151
  836SOL    HW2 3374   1.800   3.483   1.711  0.1396 -0.1679 -0.3506
  836SOL    HW3 3375   1.785   3.413   1.577 -0.2364  0.4144 -0.6156
  836SOL    MW4 3376   1.792   3.486   1.624  0.3955  0.1973 -0.3594
  837SOL     OW 3377   2.015   3.635   1.497  0.1877  0.5185 -0.2720
  837SOL    HW2 3378   2.091   3.585   1.523  0.3053  0.9931  0.3144
  837SOL    HW3 3379   1.942   3.595   1.545  0.1784  0.4988 -0.3025
  837SOL    MW4 3380   2.015   3.623   1.507  0.2020  0.5785 -0.1986
  838SOL     OW 3381   2.011   3.899   1.584 -0.4574 -0.1792  0.6363
  838SOL    HW2 3382   2.089   3.941   1.548 -0.3851 -0.7352  0.1333
  838SOL    HW3 3383   2.018   3.807   1.556 -1.8733  0.0080 -0.4100
  838SOL    MW4 3384   2.022   3.892   1.576 -0.6346 -0.2278  0.4319
  839SOL     OW 3385   1.792   4.059   1.514  0.4282 -0.1921 -0.4354
  839SOL    HW2 3386   1.857   4.007   1.561 -0.3080  0.4946  1.4254
  839SOL    HW3 3387   1.710   4.010   1.525  0.1262  0.3038 -0.4418
  839SOL    MW4 3388   1.790   4.046   1.522  0.2912 -0.0361 -0.1907
  840SOL     OW 3389   1.776   4.332   1.561 -0.3653 -0.1999  0.1252
  840SOL    HW2 3390   1.852   4.376   1.524 -0.2523 -0.6595 -0.1949
  840SOL    HW3 3391   1.793   4.239   1.548 -1.4427 -0.2710 -0.8452
  840SOL    MW4 3392   1.788   4.326   1.555 -0.4925 -0.2699 -0.0451
  841SOL     OW 3393   2.019   4.432   1.472  0.0836 -0.4400 -0.2606
  841SOL    HW2 3394   2.098   4.390   1.505 -0.0286 -0.9093 -0.5983
  841SOL    HW3 3395   2.018   4.517   1.516 -0.9669 -1.7279  2.2847
  841SOL    MW4 3396   2.029   4.438   1.482 -0.0698 -0.6718  0.0307
  842SOL     OW 3397   2.500   4.630   1.530  0.3850 -0.0982  0.5547
  842SOL    HW2 3398   2.493   4.635   1.625 -1.8305 -0.8344  0.4625
  842SOL    HW3 3399   2.429   4.685   1.497  0.2626 -0.9487 -0.6585
  842SOL    MW4 3400   2.490   4.638   1.538  0.0765 -0.3076  0.3825
  843SOL     OW 3401   2.267   0.128   1.504 -0.2957 -0.1694 -0.1759
  843SOL    HW2 3402   2.190   0.085   1.541 -0.8286  1.4684  0.6821
  843SOL    HW3 3403   2.253   0.127   1.409 -1.1112 -0.3697 -0.0531
  843SOL    MW4 3404   2.255   0.122   1.496 -0.4736  0.0203 -0.0465
  844SOL     OW 3405   2.281   0.398   1.555  0.3147 -0.6004 -0.3958
  844SOL    HW2 3406   2.284   0.407   1.651  3.0161  0.3682 -0.5043
  844SOL    HW3 3407   2.282   0.304   1.540 -0.9505 -0.7769  0.5324
  844SOL    MW4 3408   2.282   0.387   1.566  0.5042 -0.4959 -0.2876
  845SOL     OW 3409   2.523   0.542   1.447  0.7208  0.4642  0.6139
  845SOL    HW2 3410   2.591   0.485   1.482  0.6634  0.6324  0.9939
  845SOL    HW3 3411   2.441   0.498   1.471  0.6706  0.8766  1.1826
  845SOL    MW4 3412   2.521   0.528   1.455  0.7066  0.5408  0.7391
  846SOL     OW 3413   2.485   0.767   1.588 -0.3509  0.6063 -0.1532
  846SOL    HW2 3414   2.409   0.791   1.536 -0.7071 -0.8194 -0.2957
  846SOL    HW3 3415   2.514   0.683   1.552  1.3591  1.1730 -0.1792
  846SOL    MW4 3416   2.479   0.759   1.576 -0.1723  0.4929 -0.1754
  847SOL     OW 3417   2.261   0.881   1.495 -0.1101 -0.4877  0.0111
  847SOL    HW2 3418   2.260   0.965   1.540  0.1261 -1.0551  1.1044
  847SOL    HW3 3419   2.231   0.900   1.407 -1.1437  0.5547  0.5772
  847SOL    MW4 3420   2.257   0.894   1.490 -0.2153 -0.4251  0.2301
  848SOL     OW 3421   2.251   1.167   1.575 -0.2633  0.2171 -0.0739
  848SOL    HW2 3422   2.245   1.158   1.670 -0.5488  0.4247 -0.0693
  848SOL    HW3 3423   2.175   1.220   1.552  1.1170  2.2184 -0.1533
  848SOL    MW4 3424   2.240   1.173   1.585 -0.1188  0.5086 -0.0837
  849SOL     OW 3425   2.499   1.270   1.491 -0.0157  0.6802  0.0509
  849SOL    HW2 3426   2.420   1.226   1.522  0.5567  0.4043  1.1273
  849SOL    HW3 3427   2.491   1.267   1.395 -0.0957 -1.5900  0.1012
  849SOL    MW4 3428   2.487   1.263   1.482  0.0493  0.3443  0.1995
  850SOL     OW 3429   2.462   1.549   1.573 -0.3331 -0.6235  0.6209
  850SOL    HW2 3430   2.548   1.591   1.573 -0.6631  0.0582  1.1491
  850SOL    HW3 3431   2.481   1.457   1.553  0.5385 -0.5136  0.9063
  850SOL    MW4 3432   2.476   1.542   1.570 -0.2617 -0.5190  0.7282
  851SOL     OW 3433   2.228   1.678   1.519  0.3784 -0.4896 -0.2337
  851SOL    HW2 3434   2.316   1.647   1.542 -0.3003 -2.3009  0.0387
  851SOL    HW3 3435   2.223   1.669   1.424  0.9646  0.9289 -0.4015
  851SOL    MW4 3436   2.239   1.673   1.510  0.3662 -0.5414 -0.2199
  852SOL     OW 3437   2.203   1.935   1.612  0.3036 -0.2491  0.1572
  852SOL    HW2 3438   2.219   1.925   1.706 -0.8767 -0.0946  0.3866
  852SOL    HW3 3439   2.216   1.847   1.576  0.2428 -0.4213  0.5517
  852SOL    MW4 3440   2.207   1.922   1.620  0.1399 -0.2515  0.2395
  853SOL     OW 3441   2.441   2.031   1.494 -0.1061 -0.3623 -0.2548
  853SOL    HW2 3442   2.353   2.002   1.519 -0.1374 -0.2999 -0.2927
  853SOL    HW3 3443   2.437   2.041   1.399  0.3434 -1.7387 -0.4364
  853SOL    MW4 3444   2.429   2.029   1.484 -0.0509 -0.5357 -0.2837
  854SOL     OW 3445   2.475   2.320   1.552  0.2681 -0.5246  0.0021
  854SOL    HW2 3446   2.483   2.315   1.647 -0.9427  0.1668  0.1588
  854SOL    HW3 3447   2.475   2.229   1.523  1.0717 -0.7284  0.6194
  854SOL    MW4 3448   2.476   2.307   1.561  0.2144 -0.4603  0.1042
  855SOL     OW 3449   2.253   2.457   1.476 -0.4897 -0.4888 -0.1626
  855SOL    HW2 3450   2.322   2.396   1.504 -1.1794 -1.0834  0.2759
  855SOL    HW3 3451   2.172   2.416   1.506 -0.9033  1.0979  0.9158
  855SOL    MW4 3452   2.252   2.443   1.484 -0.6353 -0.3579  0.0375
  856SOL     OW 3453   2.250   2.705   1.603  0.0956 -0.2219 -0.1356
  856SOL    HW2 3454   2.246   2.614   1.573 -1.3355  0.0525 -0.8041
  856SOL    HW3 3455   2.163   2.740   1.584 -0.0964  0.6450  2.1631
  856SOL    MW4 3456   2.238   2.698   1.596 -0.1186 -0.0713  0.0795
  857SOL     OW 3457   2.441   2.837   1.450 -0.1618 -0.4410  0.2038
  857SOL    HW2 3458   2.437   2.927   1.484 -1.8383 -0.2572 -0.4394
  857SOL    HW3 3459   2.380   2.788   1.504  1.3592 -1.4024  1.0907
  857SOL    MW4 3460   2.433   2.843   1.462 -0.1823 -0.5436  0.2360
  858SOL     OW 3461   2.490   3.076   1.640  0.2870  0.1263 -0.5959
  858SOL    HW2 3462   2.553   3.109   1.576  0.1246  0.3085 -0.6612
  858SOL    HW3 3463   2.409   3.124   1.622  0.0510 -0.3038 -0.6874
  858SOL    MW4 3464   2.488   3.087   1.629  0.2345  0.0936 -0.6166
  859SOL     OW 3465   2.262   3.197   1.543 -0.2496 -0.1477  0.2857
  859SOL    HW2 3466   2.267   3.291   1.564 -1.9997  0.4037 -1.6063
  859SOL    HW3 3467   2.257   3.194   1.448 -0.5815 -2.1634  0.3417
  859SOL    MW4 3468   2.262   3.209   1.534 -0.5243 -0.3409  0.0434
  860SOL     OW 3469   2.226   3.488   1.591  0.1643 -0.3114  0.8104
  860SOL    HW2 3470   2.247   3.477   1.684  0.0749 -1.6263  0.6973
  860SOL    HW3 3471   2.308   3.513   1.550  0.7726 -2.0728  0.8957
  860SOL    MW4 3472   2.239   3.490   1.598  0.2328 -0.7173  0.8067
  861SOL     OW 3473   2.477   3.625   1.484  0.2490 -0.5613 -0.3895
  861SOL    HW2 3474   2.558   3.595   1.526  0.0380  0.3802  0.7009
  861SOL    HW3 3475   2.475   3.719   1.499 -0.8271 -0.5043 -0.8235
  861SOL    MW4 3476   2.488   3.633   1.491  0.0792 -0.4295 -0.3029
  862SOL     OW 3477   2.475   3.906   1.552  0.0725 -0.0786 -0.6193
  862SOL    HW2 3478   2.470   3.876   1.643 -0.5074 -1.0131 -0.9420
  862SOL    HW3 3479   2.563   3.941   1.543 -0.5856  2.0918  0.9263
  862SOL    MW4 3480   2.486   3.906   1.563 -0.0908  0.0844 -0.4580
  863SOL     OW 3481   2.236   4.016   1.454 -0.4942  0.0092 -0.0869
  863SOL    HW2 3482   2.312   3.966   1.482 -0.4382  0.3771  0.4195
  863SOL    HW3 3483   2.234   4.005   1.359 -0.2563 -0.6300 -0.0237
  863SOL    MW4 3484   2.246   4.008   1.445 -0.4554 -0.0266 -0.0117
  864SOL     OW 3485   2.224   4.289   1.581 -0.5061 -0.0404 -0.5897
  864SOL    HW2 3486   2.316   4.297   1.554 -0.3780  0.3328 -0.0567
  864SOL    HW3 3487   2.203   4.197   1.566  0.1159 -0.2452 -0.2379
  864SOL    MW4 3488   2.233   4.278   1.576 -0.4071 -0.0182 -0.4730
  865SOL     OW 3489   2.481   4.347   1.497  0.4370 -0.1678 -0.0896
  865SOL    HW2 3490   2.482   4.442   1.509  0.7560 -0.0119 -1.3168
  865SOL    HW3 3491   2.495   4.334   1.403 -0.1671 -1.4117 -0.0210
  865SOL    MW4 3492   2.483   4.358   1.486  0.3994 -0.3113 -0.2425
  866SOL     OW 3493   2.925   0.042   1.531  0.0729 -0.4760  0.5488
  866SOL    HW2 3494   2.910   0.045   1.625 -0.4966 -0.1385  0.4511
  866SOL    HW3 3495   2.849   0.086   1.493  0.6762  0.0958 -0.0246
  866SOL    MW4 3496   2.913   0.048   1.538  0.0773 -0.3560  0.4603
  867SOL     OW 3497   2.676   0.146   1.425  0.0243 -0.4076  0.2430
  867SOL    HW2 3498   2.662   0.214   1.490  0.6291 -0.0449 -0.0027
  867SOL    HW3 3499   2.614   0.077   1.448  1.1114 -0.8253  1.9614
  867SOL    MW4 3500   2.666   0.146   1.436  0.2475 -0.4149  0.4373
  868SOL     OW 3501   2.691   0.364   1.578  0.0910  0.3951 -0.0284
  868SOL    HW2 3502   2.700   0.371   1.673  0.5386 -0.0385 -0.0336
  868SOL    HW3 3503   2.775   0.396   1.544  0.5184 -0.8917 -0.2108
  868SOL    MW4 3504   2.703   0.369   1.586  0.2065  0.1681 -0.0531
  869SOL     OW 3505   2.910   0.490   1.434 -0.0232  0.2348  0.0036
  869SOL    HW2 3506   2.906   0.584   1.453 -0.1963  0.0993  0.6345
  869SOL    HW3 3507   2.927   0.486   1.340  0.9170  0.9034  0.1453
  869SOL    MW4 3508   2.911   0.502   1.424  0.0780  0.3051  0.1055
  870SOL     OW 3509   2.925   0.746   1.528  0.1392 -0.6810 -0.2207
  870SOL    HW2 3510   2.920   0.723   1.621  0.5737 -1.2435 -0.3371
  870SOL    HW3 3511   2.848   0.801   1.514 -0.9447 -2.0821  0.0498
  870SOL    MW4 3512   2.914   0.750   1.539  0.0535 -0.9401 -0.2004
  871SOL     OW 3513   2.731   0.908   1.496  0.0512  0.0770 -0.7782
  871SOL    HW2 3514   2.650   0.873   1.533  0.5024 -0.3399 -0.1995
  871SOL    HW3 3515   2.714   0.910   1.401 -0.5571 -0.2016 -0.6787
  871SOL    MW4 3516   2.718   0.903   1.488  0.0304 -0.0147 -0.6887
  872SOL     OW 3517   2.741   1.151   1.634 -0.1078  0.0291  0.1380
  872SOL    HW2 3518   2.744   1.059   1.609 -1.8391 -0.6588  2.3460
  872SOL    HW3 3519   2.658   1.183   1.598  0.6919  0.8780 -1.0082
  872SOL    MW4 3520   2.731   1.143   1.626 -0.2307  0.0503  0.2781
  873SOL     OW 3521   2.920   1.254   1.432 -0.4990  0.4939 -0.0144
  873SOL    HW2 3522   3.006   1.217   1.451  0.6589  2.7785 -0.7033
  873SOL    HW3 3523   2.862   1.214   1.497  1.0577 -1.1057  0.4186
  873SOL    MW4 3524   2.924   1.244   1.443 -0.1409  0.5843 -0.0481
  874SOL     OW 3525   2.923   1.517   1.568 -0.1403  0.6246  0.7979
  874SOL    HW2 3526   2.833   1.549   1.564  0.0414  0.9997 -0.5621
  874SOL    HW3 3527   2.918   1.429   1.529  0.3313  1.2249 -0.6294
  874SOL    MW4 3528   2.910   1.509   1.562 -0.0541  0.7533  0.4302
  875SOL     OW 3529   2.696   1.662   1.540 -0.1399  0.5032  0.0922
  875SOL    HW2 3530   2.719   1.750   1.572  1.0312  0.4412 -0.5546
  875SOL    HW3 3531   2.667   1.676   1.450  0.9829  0.1118 -0.3362
  875SOL    MW4 3532   2.695   1.676   1.532  0.1627  0.4434 -0.0496
  876SOL     OW 3533   2.706   1.939   1.584  0.1732 -0.1581  0.3602
  876SOL    HW2 3534   2.699   1.960   1.677 -1.9315  1.0366 -0.0237
  876SOL    HW3 3535   2.617   1.951   1.550  0.9780 -0.2059 -1.8647
  876SOL    MW4 3536   2.693   1.944   1.592  0.0017 -0.0067  0.0160
  877SOL     OW 3537   2.942   2.066   1.466  0.1500  0.3612 -0.1395
  877SOL    HW2 3538   2.948   2.158   1.494 -0.8577  0.6537 -0.8621
  877SOL    HW3 3539   2.851   2.041   1.482  0.3931 -0.4854 -0.0433
  877SOL    MW4 3540   2.931   2.075   1.471  0.0491  0.2881 -0.2221
  878SOL     OW 3541   2.926   2.336   1.587 -0.1049 -0.0469 -0.0175
  878SOL    HW2 3542   2.911   2.323   1.681 -1.4436 -0.5206 -0.2939
  878SOL    HW3 3543   2.846   2.378   1.556 -0.8798 -2.5713 -1.5148
  878SOL    MW4 3544   2.913   2.340   1.595 -0.3837 -0.4425 -0.2515
  879SOL     OW 3545   2.705   2.480   1.501 -0.1039 -0.0722  0.0807
  879SOL    HW2 3546   2.688   2.564   1.544  0.7933 -0.1846  0.6760
  879SOL    HW3 3547   2.626   2.428   1.518 -0.7238  0.7007 -0.4223
  879SOL    MW4 3548   2.692   2.484   1.509 -0.0673  0.0149  0.0929
  880SOL     OW 3549   2.675   2.748   1.583  0.3754  0.3905  0.4956
  880SOL    HW2 3550   2.670   2.758   1.678 -1.2358  0.6046  0.4030
  880SOL    HW3 3551   2.594   2.787   1.551  0.4370 -0.5956 -0.8867
  880SOL    MW4 3552   2.664   2.755   1.592  0.1709  0.2887  0.3010
  881SOL     OW 3553   2.922   2.857   1.502  0.1441  0.1216  0.0071
  881SOL    HW2 3554   2.832   2.838   1.530  0.3732 -1.8591 -0.5367
  881SOL    HW3 3555   2.939   2.946   1.535 -1.9021  0.4098  0.3671
  881SOL    MW4 3556   2.912   2.866   1.510 -0.0956 -0.1017 -0.0171
  882SOL     OW 3557   2.906   3.127   1.570 -0.1990  0.1029 -0.0187
  882SOL    HW2 3558   2.913   3.138   1.665  1.1661 -0.1788 -0.0842
  882SOL    HW3 3559   2.993   3.147   1.537 -0.6204  0.0134 -1.2015
  882SOL    MW4 3560   2.918   3.131   1.578 -0.0745  0.0539 -0.1834
  883SOL     OW 3561   2.659   3.216   1.467  0.3022 -0.4817  0.8133
  883SOL    HW2 3562   2.743   3.184   1.501  1.9589  3.3178  0.4911
  883SOL    HW3 3563   2.677   3.239   1.376 -1.2155  0.0183  0.6276
  883SOL    MW4 3564   2.672   3.215   1.459  0.3206  0.0856  0.7463
  884SOL     OW 3565   2.683   3.462   1.565 -0.2463 -0.5737 -0.1500
  884SOL    HW2 3566   2.677   3.459   1.661  0.4778 -1.8314 -0.1314
  884SOL    HW3 3567   2.676   3.370   1.538 -2.1807 -0.0790 -1.4175
  884SOL    MW4 3568   2.681   3.449   1.574 -0.4060 -0.6744 -0.3148
  885SOL     OW 3569   2.899   3.610   1.487 -0.5582  0.1729 -0.5869
  885SOL    HW2 3570   2.821   3.559   1.510 -0.4159  0.9399  1.6740
  885SOL    HW3 3571   2.901   3.607   1.391 -1.3906 -2.8132 -0.5841
  885SOL    MW4 3572   2.889   3.603   1.477 -0.6492 -0.1199 -0.2883
  886SOL     OW 3573   2.953   3.882   1.571  0.1625 -0.4340 -0.0160
  886SOL    HW2 3574   2.875   3.925   1.537  1.1579  0.8391 -0.7462
  886SOL    HW3 3575   2.941   3.789   1.550 -1.0747 -0.2257 -0.2561
  886SOL    MW4 3576   2.941   3.875   1.564  0.1306 -0.2386 -0.1440
  887SOL     OW 3577   2.722   4.006   1.487 -0.0187  0.3976  0.1717
  887SOL    HW2 3578   2.727   4.100   1.507 -1.0141  0.4917  0.0076
  887SOL    HW3 3579   2.714   4.002   1.392 -0.6198  0.1708  0.2333
  887SOL    MW4 3580   2.722   4.018   1.477 -0.2294  0.3801  0.1582
  888SOL     OW 3581   2.737   4.290   1.566 -0.1184 -0.6026  0.0412
  888SOL    HW2 3582   2.804   4.330   1.510 -0.4345 -2.3571 -1.6432
  888SOL    HW3 3583   2.655   4.328   1.535 -0.2978 -1.6079 -0.7478
  888SOL    MW4 3584   2.735   4.300   1.554 -0.1838 -0.9667 -0.2852
  889SOL     OW 3585   2.934   4.436   1.440  0.2481  0.2206 -0.3600
  889SOL    HW2 3586   2.922   4.528   1.461 -1.8597 -0.0798 -0.1657
  889SOL    HW3 3587   2.928   4.432   1.344  1.3272  0.4141 -0.4389
  889SOL    MW4 3588   2.932   4.447   1.430  0.1124  0.2065 -0.3448
  890SOL     OW 3589   3.402   4.666   1.529 -0.3289 -0.1847 -0.2639
  890SOL    HW2 3590   3.480   4.715   1.503  0.9386 -1.0768  1.7228
  890SOL    HW3 3591   3.425   4.574   1.514 -0.8078 -0.4928  0.8181
  890SOL    MW4 3592   3.415   4.660   1.523 -0.2248 -0.3431  0.1410
  891SOL     OW 3593   3.168   0.142   1.429  0.1703 -0.8083  0.4492
  891SOL    HW2 3594   3.247   0.095   1.458  0.8610 -0.4944 -0.8863
  891SOL    HW3 3595   3.096   0.095   1.471  1.0420 -1.2564  1.4856
  891SOL    MW4 3596   3.169   0.129   1.438  0.3765 -0.8260  0.4098
  892SOL     OW 3597   3.137   0.380   1.576 -0.0041 -0.2486  0.0355
  892SOL    HW2 3598   3.139   0.290   1.542 -2.3895  0.1330 -1.2294
  892SOL    HW3 3599   3.046   0.408   1.564  0.7228  2.3676  0.3481
  892SOL    MW4 3600   3.125   0.372   1.570 -0.2229  0.1470 -0.0902
  893SOL     OW 3601   3.367   0.502   1.455 -0.1377  0.3614 -0.0164
  893SOL    HW2 3602   3.294   0.456   1.495 -0.4165  0.4791 -0.3951
  893SOL    HW3 3603   3.357   0.488   1.361  0.1442  0.6460 -0.0917
  893SOL    MW4 3604   3.356   0.494   1.448 -0.1373  0.4145 -0.0763
  894SOL     OW 3605   3.378   0.772   1.578  0.2633 -0.0304  0.4655
  894SOL    HW2 3606   3.364   0.768   1.673 -0.9078  0.0705  0.3162
  894SOL    HW3 3607   3.369   0.682   1.548  1.9491 -0.2552  0.6072
  894SOL    MW4 3608   3.375   0.760   1.587  0.3312 -0.0467  0.4645
  895SOL     OW 3609   3.164   0.896   1.447  0.2033  0.4437  0.3821
  895SOL    HW2 3610   3.242   0.851   1.479 -0.7871 -1.5359  0.0650
  895SOL    HW3 3611   3.091   0.837   1.469 -1.0813  1.6679 -0.4773
  895SOL    MW4 3612   3.164   0.882   1.454 -0.0968  0.3440  0.2269
  896SOL     OW 3613   3.130   1.161   1.584  0.0700  0.6320 -0.6798
  896SOL    HW2 3614   3.147   1.147   1.677  1.3035  1.6958 -0.7341
  896SOL    HW3 3615   3.143   1.075   1.545  1.5785  0.6075 -0.1524
  896SOL    MW4 3616   3.134   1.148   1.591  0.4318  0.7691 -0.6174
  897SOL     OW 3617   3.354   1.272   1.462  0.6387 -0.1670 -0.1623
  897SOL    HW2 3618   3.434   1.233   1.499  0.4732  0.8785  1.3182
  897SOL    HW3 3619   3.283   1.228   1.509  0.4275  1.1898  0.7921
  897SOL    MW4 3620   3.355   1.261   1.474  0.5890  0.1500  0.1589
  898SOL     OW 3621   3.377   1.540   1.546 -0.1356 -0.0387  0.2452
  898SOL    HW2 3622   3.369   1.545   1.641  0.2816  0.6907  0.2402
  898SOL    HW3 3623   3.362   1.447   1.526  0.7044 -0.3618  1.1017
  898SOL    MW4 3624   3.374   1.528   1.556  0.0303  0.0149  0.3575
  899SOL     OW 3625   3.137   1.684   1.468  0.3687 -0.5884 -0.4228
  899SOL    HW2 3626   3.224   1.647   1.482 -0.5945 -2.0594  2.0614
  899SOL    HW3 3627   3.078   1.621   1.510 -1.7267  1.3652 -0.3815
  899SOL    MW4 3628   3.141   1.671   1.476 -0.0348 -0.5247 -0.0896
  900SOL     OW 3629   3.131   1.935   1.617 -0.3902  0.0279 -0.0587
  900SOL    HW2 3630   3.126   1.853   1.567  1.4127 -0.8493  1.1152
  900SOL    HW3 3631   3.068   1.993   1.575  0.6123 -0.8888 -2.9640
  900SOL    MW4 3632   3.122   1.932   1.605 -0.0201 -0.2088 -0.2871
  901SOL     OW 3633   3.375   2.070   1.534  0.3416  0.2205  0.1048
  901SOL    HW2 3634   3.303   2.024   1.578  0.6454 -0.2824  0.0749
  901SOL    HW3 3635   3.352   2.067   1.441 -0.0012  0.7628  0.1717
  901SOL    MW4 3636   3.363   2.064   1.528  0.3365  0.2257  0.1097
  902SOL     OW 3637   3.399   2.328   1.623  0.1820  0.0050 -0.1015
  902SOL    HW2 3638   3.459   2.367   1.560  0.8507 -1.4460 -0.3756
  902SOL    HW3 3639   3.391   2.237   1.596 -0.3130 -0.3853  1.3126
  902SOL    MW4 3640   3.406   2.321   1.611  0.2049 -0.2379  0.0489
  903SOL     OW 3641   3.167   2.473   1.552 -0.1103  0.5959  0.0057
  903SOL    HW2 3642   3.088   2.421   1.564  0.0550  0.1206 -0.9298
  903SOL    HW3 3643   3.237   2.421   1.591 -0.2844  1.1043  1.0073
  903SOL    MW4 3644   3.166   2.459   1.559 -0.1115  0.6003  0.0144
  904SOL     OW 3645   3.119   2.727   1.637  0.1993  0.0448 -0.1902
  904SOL    HW2 3646   3.048   2.769   1.587 -1.5242 -0.4765  1.7523
  904SOL    HW3 3647   3.120   2.637   1.606 -0.3278 -0.0674  0.1003
  904SOL    MW4 3648   3.110   2.721   1.626 -0.0976 -0.0388  0.1044
  905SOL     OW 3649   3.339   2.818   1.489 -0.3768 -0.1639  0.0212
  905SOL    HW2 3650   3.261   2.788   1.536 -0.9866 -0.4397 -1.1362
  905SOL    HW3 3651   3.360   2.902   1.529  0.0159 -1.0761  1.7909
  905SOL    MW4 3652   3.331   2.825   1.500 -0.4054 -0.3207  0.1020
  906SOL     OW 3653   3.384   3.077   1.597 -0.0400  0.0243 -0.1504
  906SOL    HW2 3654   3.378   3.064   1.692  2.0789  0.7462  0.1030
  906SOL    HW3 3655   3.471   3.114   1.583 -1.0435  1.7424 -2.1951
  906SOL    MW4 3656   3.395   3.080   1.608  0.1072  0.3462 -0.3867
  907SOL     OW 3657   3.161   3.199   1.479 -0.1106 -0.0308  0.1521
  907SOL    HW2 3658   3.234   3.144   1.509 -0.3015 -0.2844  0.1509
  907SOL    HW3 3659   3.162   3.189   1.384  0.2760  0.4989  0.0979
  907SOL    MW4 3660   3.171   3.190   1.471 -0.0848  0.0056  0.1448
  908SOL     OW 3661   3.143   3.478   1.569  0.1713  0.0636 -0.1543
  908SOL    HW2 3662   3.156   3.386   1.546 -0.3008  0.1470 -0.7552
  908SOL    HW3 3663   3.054   3.498   1.540 -0.7642 -0.0572  2.5273
  908SOL    MW4 3664   3.133   3.469   1.562 -0.0144  0.0587  0.1202
  909SOL     OW 3665   3.355   3.623   1.469  0.2409 -0.3395  0.2154
  909SOL    HW2 3666   3.429   3.568   1.496 -0.1626 -0.2418  1.5105
  909SOL    HW3 3667   3.278   3.579   1.504 -0.2192  0.2200 -0.0927
  909SOL    MW4 3668   3.355   3.610   1.477  0.1270 -0.2528  0.3456
  910SOL     OW 3669   3.364   3.886   1.572 -0.1683 -0.1436 -0.1524
  910SOL    HW2 3670   3.291   3.938   1.538 -0.3949  0.2648  0.9634
  910SOL    HW3 3671   3.350   3.799   1.534 -1.1160 -0.0105 -0.1258
  910SOL    MW4 3672   3.353   3.881   1.562 -0.3232 -0.0721 -0.0017
  911SOL     OW 3673   3.162   4.024   1.462 -0.3405 -0.2790 -0.2406
  911SOL    HW2 3674   3.152   4.108   1.508 -0.8785  0.1694 -1.1509
  911SOL    HW3 3675   3.079   3.978   1.479 -0.4731 -0.1811 -0.6256
  911SOL    MW4 3676   3.149   4.029   1.470 -0.4289 -0.2069 -0.4115
  912SOL     OW 3677   3.143   4.269   1.575 -0.1747  0.0303 -0.3021
  912SOL    HW2 3678   3.163   4.279   1.668  0.1345  1.0510 -0.4720
  912SOL    HW3 3679   3.085   4.343   1.555 -2.1815 -1.5189 -0.3843
  912SOL    MW4 3680   3.138   4.280   1.585 -0.3987 -0.0395 -0.3354
  913SOL     OW 3681   3.379   4.390   1.487 -0.0521 -0.1302  0.0224
  913SOL    HW2 3682   3.291   4.358   1.509 -0.7039  2.1903  0.9096
  913SOL    HW3 3683   3.386   4.377   1.392 -0.4201 -2.4924  0.2757
  913SOL    MW4 3684   3.368   4.384   1.477 -0.1867 -0.1357  0.1729
  914SOL     OW 3685   3.789   4.619   1.566  0.0222 -0.7059 -0.3975
  914SOL    HW2 3686   3.770   4.618   1.660 -0.5736  1.3599 -0.4832
  914SOL    HW3 3687   3.865   4.676   1.558 -0.1236 -0.6214 -1.2139
  914SOL    MW4 3688   3.797   4.626   1.577 -0.0756 -0.4222 -0.5165
  915SOL     OW 3689   3.619   0.137   1.467 -0.8628  0.3046 -0.2084
  915SOL    HW2 3690   3.681   0.071   1.497  0.4142  1.9943  0.9358
  915SOL    HW3 3691   3.610   0.120   1.373  0.7595 -0.4384 -0.2455
  915SOL    MW4 3692   3.626   0.126   1.458 -0.4803  0.4295 -0.0624
  916SOL     OW 3693   3.590   0.386   1.592 -0.0312  0.3850 -0.2497
  916SOL    HW2 3694   3.600   0.297   1.558  1.8992  0.2409  0.6209
  916SOL    HW3 3695   3.515   0.422   1.544 -1.3199 -1.9648 -0.0329
  916SOL    MW4 3696   3.581   0.379   1.581  0.0535  0.0560 -0.1062
  917SOL     OW 3697   3.806   0.483   1.472  0.5215 -0.1602  0.1965
  917SOL    HW2 3698   3.727   0.442   1.505  0.5963 -0.4575  0.0069
  917SOL    HW3 3699   3.795   0.483   1.377 -0.1531  1.6031  0.2474
  917SOL    MW4 3700   3.794   0.478   1.464  0.4424  0.0332  0.1782
  918SOL     OW 3701   3.786   0.729   1.613 -0.4582  0.2203  0.1809
  918SOL    HW2 3702   3.728   0.790   1.567 -0.8627 -0.0171  0.3829
  918SOL    HW3 3703   3.785   0.650   1.559 -0.8956 -0.0423  0.5690
  918SOL    MW4 3704   3.778   0.727   1.599 -0.5693  0.1543  0.2587
  919SOL     OW 3705   3.599   0.903   1.490  0.3181  0.0124 -0.1792
  919SOL    HW2 3706   3.521   0.861   1.524 -0.5730  0.3299 -1.7912
  919SOL    HW3 3707   3.585   0.908   1.396  1.8686  0.9063 -0.3850
  919SOL    MW4 3708   3.587   0.898   1.482  0.4051  0.1723 -0.4191
  920SOL     OW 3709   3.593   1.181   1.537 -0.2612 -0.3114  0.0662
  920SOL    HW2 3710   3.674   1.215   1.499 -0.8266  0.4347 -0.4898
  920SOL    HW3 3711   3.602   1.086   1.532  0.8378 -0.2377  0.5602
  920SOL    MW4 3712   3.605   1.173   1.531 -0.1908 -0.2032  0.0580
  921SOL     OW 3713   3.838   1.280   1.465  0.0441 -0.2003  0.0040
  921SOL    HW2 3714   3.905   1.237   1.517 -1.7803 -1.8461  1.0778
  921SOL    HW3 3715   3.831   1.368   1.503  2.0090  0.2205 -0.5501
  921SOL    MW4 3716   3.846   1.286   1.477  0.0627 -0.3619  0.0726
  922SOL     OW 3717   3.830   1.541   1.549 -0.5717  0.1211  0.0360
  922SOL    HW2 3718   3.853   1.573   1.636 -0.9863 -1.6310  0.8236
  922SOL    HW3 3719   3.749   1.586   1.527 -0.5026  0.5231  0.5957
  922SOL    MW4 3720   3.823   1.551   1.557 -0.6172 -0.0570  0.2138
  923SOL     OW 3721   3.588   1.690   1.469 -0.7393 -0.5829  0.1776
  923SOL    HW2 3722   3.529   1.622   1.501  0.9970 -1.9821  0.4542
  923SOL    HW3 3723   3.581   1.683   1.373 -3.1605  1.1911  0.1570
  923SOL    MW4 3724   3.579   1.680   1.460 -0.8297 -0.5334  0.2114
  924SOL     OW 3725   3.623   1.941   1.597 -0.3493 -0.4099  0.0944
  924SOL    HW2 3726   3.608   1.851   1.567  0.9917 -0.1630 -1.3763
  924SOL    HW3 3727   3.542   1.987   1.575 -1.4847 -1.4813  1.8767
  924SOL    MW4 3728   3.610   1.935   1.590 -0.3222 -0.5187  0.1355
  925SOL     OW 3729   3.846   2.045   1.485 -0.9138  0.4195 -0.4527
  925SOL    HW2 3730   3.844   2.135   1.520  0.2005  0.4000 -0.3225
  925SOL    HW3 3731   3.767   2.004   1.520 -0.4285  0.7638  1.0849
  925SOL    MW4 3732   3.835   2.052   1.495 -0.7027  0.4623 -0.2326
  926SOL     OW 3733   3.822   2.313   1.559 -0.1237  0.4717  0.1340
  926SOL    HW2 3734   3.824   2.320   1.654  0.6438  1.5534  0.0467
  926SOL    HW3 3735   3.893   2.370   1.529  0.5336 -0.9108 -1.0256
  926SOL    MW4 3736   3.832   2.321   1.568  0.0643  0.4320 -0.0305
  927SOL     OW 3737   3.596   2.420   1.447  0.1064 -0.0918 -0.1457
  927SOL    HW2 3738   3.600   2.503   1.496  1.1811  0.7097 -1.5676
  927SOL    HW3 3739   3.669   2.369   1.482  0.1164 -0.0123 -0.0477
  927SOL    MW4 3740   3.606   2.424   1.458  0.2495  0.0244 -0.3204
  928SOL     OW 3741   3.577   2.688   1.580  0.0545 -0.1341  0.2024
  928SOL    HW2 3742   3.572   2.680   1.675 -1.5910  2.1631  0.3369
  928SOL    HW3 3743   3.493   2.727   1.554  0.6352 -0.3688 -2.1377
  928SOL    MW4 3744   3.565   2.692   1.589 -0.0860  0.1380 -0.0886
  929SOL     OW 3745   3.791   2.842   1.468 -0.6356 -0.2016 -0.2584
  929SOL    HW2 3746   3.868   2.792   1.498 -0.8870 -0.9073 -0.7654
  929SOL    HW3 3747   3.717   2.794   1.503 -0.8286  1.0758  1.1218
  929SOL    MW4 3748   3.792   2.829   1.477 -0.6942 -0.1261 -0.1432
  930SOL     OW 3749   3.853   3.060   1.615 -0.6353  0.0312  0.0400
  930SOL    HW2 3750   3.934   3.097   1.580 -0.4417 -0.5451 -0.1155
  930SOL    HW3 3751   3.840   2.979   1.566 -0.6011 -0.5545  0.9876
  930SOL    MW4 3752   3.862   3.054   1.604 -0.6053 -0.1221  0.1445
  931SOL     OW 3753   3.633   3.190   1.507 -0.4113 -0.5879 -0.0801
  931SOL    HW2 3754   3.715   3.149   1.535 -0.0277  0.1696 -0.0891
  931SOL    HW3 3755   3.632   3.179   1.412 -0.7661 -1.4102  0.0131
  931SOL    MW4 3756   3.644   3.183   1.498 -0.4075 -0.5964 -0.0690
  932SOL     OW 3757   3.580   3.477   1.548  0.3051  0.3113  0.2513
  932SOL    HW2 3758   3.657   3.520   1.510  2.0465 -0.6409  2.5866
  932SOL    HW3 3759   3.595   3.384   1.532  0.0109  0.0633  1.4145
  932SOL    MW4 3760   3.592   3.470   1.541  0.4960  0.1529  0.7129
  933SOL     OW 3761   3.814   3.589   1.466  0.1218  0.2353  0.0917
  933SOL    HW2 3762   3.885   3.539   1.507  1.9031  2.0208 -0.7509
  933SOL    HW3 3763   3.813   3.672   1.513 -2.0776 -0.1188  0.7214
  933SOL    MW4 3764   3.823   3.593   1.478  0.0666  0.4242  0.0636
  934SOL     OW 3765   3.814   3.851   1.579  0.2209 -0.1921  0.0043
  934SOL    HW2 3766   3.894   3.901   1.562  0.7161 -0.6658  0.9059
  934SOL    HW3 3767   3.744   3.907   1.547  0.7897  0.9952  0.7881
  934SOL    MW4 3768   3.815   3.865   1.573  0.3613 -0.0979  0.2267
  935SOL     OW 3769   3.584   4.005   1.470 -0.5060 -0.7269  0.0095
  935SOL    HW2 3770   3.586   4.095   1.501 -0.7645 -0.6607 -0.1661
  935SOL    HW3 3771   3.510   3.965   1.516 -0.4791 -0.8119 -0.0189
  935SOL    MW4 3772   3.574   4.011   1.480 -0.5366 -0.7294 -0.0174
  936SOL     OW 3773   3.591   4.257   1.588 -0.4063 -0.1664 -0.0872
  936SOL    HW2 3774   3.587   4.272   1.682  1.4293  0.6281 -0.1054
  936SOL    HW3 3775   3.514   4.302   1.553  0.5251  2.1568  0.7492
  936SOL    MW4 3776   3.581   4.265   1.596 -0.0412  0.2449  0.0208
  937SOL     OW 3777   3.851   4.340   1.509  0.5039 -0.3700  0.5480
  937SOL    HW2 3778   3.775   4.308   1.557  0.7329 -0.9332  0.5373
  937SOL    HW3 3779   3.851   4.435   1.524 -0.6477 -0.2669 -0.0978
  937SOL    MW4 3780   3.841   4.348   1.517  0.3821 -0.4307  0.4614
  938SOL     OW 3781   4.253   0.009   1.585 -0.1417 -0.1297  0.1208
  938SOL    HW2 3782   4.240   0.006   1.680 -3.1553  1.7581 -0.1324
  938SOL    HW3 3783   4.269  -0.082   1.559  0.9713 -0.6204  2.4505
  938SOL    MW4 3784   4.253  -0.003   1.594 -0.3925  0.0546  0.3947
  939SOL     OW 3785   4.006   0.110   1.486  0.2132  0.2335 -0.2926
  939SOL    HW2 3786   3.995   0.193   1.532  0.0760 -0.5675  1.1255
  939SOL    HW3 3787   4.091   0.076   1.516  0.5796  0.1723 -1.3713
  939SOL    MW4 3788   4.016   0.116   1.496  0.2434  0.1198 -0.2478
  940SOL     OW 3789   4.018   0.361   1.602 -0.6252 -0.0479  0.1699
  940SOL    HW2 3790   4.009   0.369   1.697  1.0581  2.1541  0.1903
  940SOL    HW3 3791   3.941   0.405   1.567 -0.2595  0.8923  0.5199
  940SOL    MW4 3792   4.007   0.368   1.610 -0.3549  0.3667  0.2188
  941SOL     OW 3793   4.256   0.468   1.512  0.4685 -0.1556 -0.0698
  941SOL    HW2 3794   4.179   0.416   1.533  0.7827 -0.2319  0.8970
  941SOL    HW3 3795   4.330   0.409   1.526  0.7183 -0.0460 -0.8730
  941SOL    MW4 3796   4.256   0.454   1.516  0.5429 -0.1512 -0.0482
  942SOL     OW 3797   4.242   0.748   1.565  0.1390 -0.2436  0.0647
  942SOL    HW2 3798   4.259   0.655   1.551  0.9917  0.0505 -0.9924
  942SOL    HW3 3799   4.316   0.792   1.522 -1.0546  0.9646 -0.7763
  942SOL    MW4 3800   4.254   0.741   1.558  0.0941 -0.0454 -0.1858
  943SOL     OW 3801   4.002   0.878   1.490  0.1027  0.6099  0.3250
  943SOL    HW2 3802   4.083   0.840   1.524 -0.0585  0.3933  0.4706
  943SOL    HW3 3803   3.932   0.830   1.535 -0.1201 -0.1746 -0.8354
  943SOL    MW4 3804   4.003   0.866   1.500  0.0521  0.4778  0.1911
  944SOL     OW 3805   4.038   1.135   1.585 -0.1489  0.3373 -0.8879
  944SOL    HW2 3806   4.035   1.152   1.679 -1.7414  1.4655 -1.1188
  944SOL    HW3 3807   4.025   1.040   1.577 -2.0303  0.4972 -0.0449
  944SOL    MW4 3808   4.036   1.125   1.596 -0.6073  0.5072 -0.8071
  945SOL     OW 3809   4.254   1.269   1.472 -0.4104  0.1126  0.0214
  945SOL    HW2 3810   4.179   1.218   1.504  0.0166 -0.1950  0.5552
  945SOL    HW3 3811   4.329   1.229   1.516  0.1173  0.0923 -0.9060
  945SOL    MW4 3812   4.254   1.257   1.482 -0.2845  0.0693 -0.0306
  946SOL     OW 3813   4.262   1.516   1.607  0.2272  0.0066  0.6775
  946SOL    HW2 3814   4.276   1.424   1.586  0.7078  0.1197  0.5038
  946SOL    HW3 3815   4.345   1.559   1.585  0.1174  0.4258  1.0685
  946SOL    MW4 3816   4.275   1.510   1.602  0.2761  0.0768  0.7062
  947SOL     OW 3817   4.071   1.678   1.454  0.0974 -0.2428 -0.0742
  947SOL    HW2 3818   4.147   1.638   1.496  0.2674 -0.3136 -0.4498
  947SOL    HW3 3819   4.002   1.612   1.465 -0.0398  0.0117  0.6685
  947SOL    MW4 3820   4.072   1.664   1.461  0.1017 -0.2185 -0.0258
  948SOL     OW 3821   4.059   1.923   1.590 -0.3080  0.2549  0.2453
  948SOL    HW2 3822   4.066   1.844   1.537  0.4893  0.1613  0.4909
  948SOL    HW3 3823   3.981   1.968   1.556 -0.5545 -0.4536 -0.1270
  948SOL    MW4 3824   4.049   1.919   1.579 -0.2353  0.1491  0.2286
  949SOL     OW 3825   4.275   2.068   1.463 -0.4838 -0.1083 -0.3717
  949SOL    HW2 3826   4.205   2.018   1.505 -0.4174  0.3564  0.3031
  949SOL    HW3 3827   4.258   2.059   1.370 -2.3475  1.2492 -0.1910
  949SOL    MW4 3828   4.264   2.060   1.457 -0.7209  0.1321 -0.2588
  950SOL     OW 3829   4.231   2.324   1.566  0.4689  0.1641  0.5287
  950SOL    HW2 3830   4.247   2.317   1.660 -1.0908  0.9841  0.8735
  950SOL    HW3 3831   4.248   2.236   1.532  1.9319  0.0855  1.4250
  950SOL    MW4 3832   4.235   2.312   1.574  0.4562  0.2619  0.6924
  951SOL     OW 3833   4.030   2.454   1.450  0.1737  0.0934  0.5948
  951SOL    HW2 3834   4.020   2.545   1.480 -1.8745 -0.6307  2.2222
  951SOL    HW3 3835   4.098   2.418   1.506  1.7213  0.8602 -0.7212
  951SOL    MW4 3836   4.038   2.462   1.461  0.1076  0.0990  0.6359
  952SOL     OW 3837   4.020   2.708   1.530 -0.2750  0.4251 -0.6008
  952SOL    HW2 3838   4.011   2.697   1.625 -2.3785  0.8653 -0.7417
  952SOL    HW3 3839   4.113   2.730   1.518  0.7386 -2.5699  1.0660
  952SOL    MW4 3840   4.031   2.709   1.541 -0.4188  0.0880 -0.3995
  953SOL     OW 3841   4.251   2.824   1.464  0.0172 -0.3666 -0.5415
  953SOL    HW2 3842   4.264   2.914   1.497  0.4825 -0.5701 -0.1562
  953SOL    HW3 3843   4.270   2.830   1.371 -0.1175 -0.0298 -0.5511
  953SOL    MW4 3844   4.255   2.837   1.456  0.0608 -0.3490 -0.4920
  954SOL     OW 3845   4.308   3.081   1.589  0.1628 -0.1925 -0.0090
  954SOL    HW2 3846   4.303   3.100   1.682  0.3889  2.2417 -0.4672
  954SOL    HW3 3847   4.396   3.108   1.564 -0.2716  0.1916 -1.1480
  954SOL    MW4 3848   4.319   3.087   1.598  0.1353  0.1793 -0.2197
  955SOL     OW 3849   4.058   3.201   1.480  0.0909  0.3182 -0.4683
  955SOL    HW2 3850   4.050   3.291   1.511  0.7512  0.7388 -1.4859
  955SOL    HW3 3851   4.147   3.175   1.504 -0.2349 -0.1993  0.1785
  955SOL    MW4 3852   4.068   3.209   1.487  0.1351  0.3054 -0.5172
  956SOL     OW 3853   4.005   3.450   1.577  0.1062  0.5045 -0.1221
  956SOL    HW2 3854   4.005   3.465   1.671  0.0731 -0.5230  0.0433
  956SOL    HW3 3855   4.075   3.505   1.543 -0.1217  1.1534  0.4595
  956SOL    MW4 3856   4.014   3.459   1.585  0.0718  0.4546 -0.0236
  957SOL     OW 3857   4.201   3.611   1.468 -0.0714  0.0454 -0.4760
  957SOL    HW2 3858   4.208   3.701   1.501  0.1113  0.0982 -0.6576
  957SOL    HW3 3859   4.225   3.617   1.375 -1.1297 -0.0092 -0.7653
  957SOL    MW4 3860   4.205   3.624   1.460 -0.1869  0.0452 -0.5381
  958SOL     OW 3861   4.241   3.858   1.587  0.2425 -0.0884  0.1682
  958SOL    HW2 3862   4.169   3.914   1.560 -0.1591 -0.3501  0.6766
  958SOL    HW3 3863   4.318   3.894   1.543 -0.2515 -0.0094 -0.6468
  958SOL    MW4 3864   4.241   3.870   1.578  0.1243 -0.1125  0.1277
  959SOL     OW 3865   4.051   4.037   1.509  0.1849  0.0277 -0.3496
  959SOL    HW2 3866   4.072   4.126   1.537 -0.8707 -0.1136  0.9055
  959SOL    HW3 3867   4.047   4.043   1.413  0.9395  1.1414 -0.3235
  959SOL    MW4 3868   4.053   4.050   1.500  0.1452  0.1560 -0.1806
  960SOL     OW 3869   4.107   4.301   1.612 -0.5291 -0.1226 -0.1622
  960SOL    HW2 3870   4.106   4.285   1.706 -1.1919 -1.0431 -0.3116
  960SOL    HW3 3871   4.015   4.312   1.588 -0.3104  0.7580 -0.5953
  960SOL    MW4 3872   4.095   4.300   1.621 -0.5877 -0.1279 -0.2390
  961SOL     OW 3873   4.322   4.420   1.497 -0.2808  0.4954 -0.0251
  961SOL    HW2 3874   4.252   4.367   1.534 -1.1770  2.6129  1.3881
  961SOL    HW3 3875   4.306   4.418   1.402 -0.0638 -2.0080 -0.0549
  961SOL    MW4 3876   4.310   4.413   1.489 -0.3704  0.4445  0.1574
  962SOL     OW 3877   0.237   0.000   1.891 -0.3531 -0.0679 -0.1652
  962SOL    HW2 3878   0.307   0.060   1.918 -0.8014 -0.1821  1.3120
  962SOL    HW3 3879   0.265  -0.032   1.806  0.3418  1.5413 -0.5756
  962SOL    MW4 3880   0.250   0.004   1.883 -0.3206  0.1294 -0.0244
  963SOL     OW 3881   4.480   0.122   1.998  0.2282  0.0765  0.2907
  963SOL    HW2 3882   4.489   0.205   1.951 -1.2280  0.0002 -0.1426
  963SOL    HW3 3883   4.555   0.070   1.968 -0.4589  0.1667 -1.6711
  963SOL    MW4 3884   4.491   0.126   1.988 -0.0546  0.0784 -0.0253
  964SOL     OW 3885   0.023   0.370   1.867  0.1192  0.4938  0.4657
  964SOL    HW2 3886  -0.052   0.429   1.870 -0.7810 -0.6593  0.6470
  964SOL    HW3 3887   0.092   0.417   1.914 -1.1739  0.5840  2.3103
  964SOL    MW4 3888   0.023   0.384   1.874 -0.1702  0.3536  0.7330
  965SOL     OW 3889   0.229   0.508   1.979  0.4899 -0.3932  0.1992
  965SOL    HW2 3890   0.307   0.460   1.953  0.2858 -1.4463  1.5164
  965SOL    HW3 3891   0.243   0.597   1.945  1.8664 -0.7843 -0.2853
  965SOL    MW4 3892   0.241   0.513   1.971  0.6446 -0.5837  0.3090
  966SOL     OW 3893   0.214   0.765   1.835 -0.5209  0.1530  0.1163
  966SOL    HW2 3894   0.294   0.812   1.860 -0.8820  0.5160  0.6102
  966SOL    HW3 3895   0.229   0.738   1.745 -0.0279  0.6257  0.0540
  966SOL    MW4 3896   0.227   0.768   1.827 -0.5035  0.2632  0.1733
  967SOL     OW 3897   0.010   0.877   1.977  0.2949  0.5866 -0.3329
  967SOL    HW2 3898  -0.070   0.843   1.937 -0.2169  1.1060  0.2393
  967SOL    HW3 3899   0.081   0.828   1.935 -0.2705  0.7173 -1.4613
  967SOL    MW4 3900   0.009   0.866   1.966  0.1528  0.6724 -0.4063
  968SOL     OW 3901   0.021   1.114   1.841  0.5360  0.3172 -0.0035
  968SOL    HW2 3902  -0.059   1.155   1.872  0.3352 -0.3023  0.3179
  968SOL    HW3 3903   0.026   1.032   1.890  1.1690  0.1786 -0.2951
  968SOL    MW4 3904   0.011   1.108   1.851  0.5931  0.2171  0.0005
  969SOL     OW 3905   0.226   1.255   1.981 -0.2457 -0.3548 -0.0760
  969SOL    HW2 3906   0.206   1.346   1.958 -0.3106 -0.1105  0.9534
  969SOL    HW3 3907   0.167   1.204   1.925  0.9251  0.1608 -1.8490
  969SOL    MW4 3908   0.215   1.260   1.970 -0.0998 -0.2546 -0.1741
  970SOL     OW 3909   0.252   1.529   1.882 -0.2326  0.2563  0.0486
  970SOL    HW2 3910   0.316   1.578   1.933 -0.8497  0.3894  0.7102
  970SOL    HW3 3911   0.169   1.573   1.900 -0.9619 -1.5964  1.4330
  970SOL    MW4 3912   0.249   1.541   1.891 -0.4102  0.0294  0.3186
  971SOL     OW 3913   0.006   1.693   1.958 -0.3870  0.1153 -0.0850
  971SOL    HW2 3914   0.004   1.679   2.052  1.3907 -2.7244 -0.4126
  971SOL    HW3 3915  -0.058   1.631   1.923 -0.6726  0.8040 -0.8249
  971SOL    MW4 3916  -0.003   1.683   1.966 -0.1901 -0.1685 -0.2258
  972SOL     OW 3917   4.475   1.959   1.858  0.1843  0.7158  0.0381
  972SOL    HW2 3918   4.406   2.005   1.907  0.5220 -0.9013  2.1167
  972SOL    HW3 3919   4.486   1.876   1.905 -0.3964 -1.5155 -3.6148
  972SOL    MW4 3920   4.467   1.954   1.871  0.1522  0.2080 -0.1696
  973SOL     OW 3921   0.228   2.059   1.942 -0.0461 -0.0671 -0.0754
  973SOL    HW2 3922   0.233   2.150   1.915 -0.2704  0.4252  1.4890
  973SOL    HW3 3923   0.146   2.027   1.904 -0.6401  0.7697  0.4813
  973SOL    MW4 3924   0.218   2.067   1.934 -0.1540  0.1083  0.2044
  974SOL     OW 3925   0.210   2.320   1.852 -0.0557 -0.3145  0.2075
  974SOL    HW2 3926   0.292   2.359   1.882  0.4465 -1.5276  0.4572
  974SOL    HW3 3927   0.141   2.376   1.889  0.6441  0.3643  0.4955
  974SOL    MW4 3928   0.212   2.332   1.861  0.1029 -0.3850  0.2784
  975SOL     OW 3929   0.001   2.456   1.992  0.0330 -0.0068  0.6644
  975SOL    HW2 3930  -0.002   2.455   2.087 -0.0276  0.6583  0.6729
  975SOL    HW3 3931  -0.003   2.549   1.969  0.5418 -0.1341  0.0332
  975SOL    MW4 3932   0.000   2.468   2.001  0.0921  0.0642  0.5823
  976SOL     OW 3933   4.460   2.704   1.890 -0.2986  0.2491 -0.0695
  976SOL    HW2 3934   4.377   2.738   1.922 -0.3856 -0.1967  0.1939
  976SOL    HW3 3935   4.458   2.719   1.796 -0.4815  0.6547  0.0016
  976SOL    MW4 3936   4.449   2.710   1.882 -0.3342  0.2438 -0.0254
  977SOL     OW 3937   0.213   2.817   1.994 -0.1592  0.0627  0.3449
  977SOL    HW2 3938   0.208   2.900   1.947  1.2459 -1.0379 -1.8128
  977SOL    HW3 3939   0.124   2.783   1.993 -0.5839  1.1724  0.5409
  977SOL    MW4 3940   0.201   2.823   1.988 -0.0299  0.0639  0.0861
  978SOL     OW 3941   0.178   3.059   1.880 -0.3738 -0.4118  0.4771
  978SOL    HW2 3942   0.260   3.106   1.899  0.2126 -0.5817 -1.5354
  978SOL    HW3 3943   0.179   3.046   1.786 -2.7438 -0.4166  0.4216
  978SOL    MW4 3944   0.189   3.064   1.870 -0.6091 -0.4348  0.2042
  979SOL     OW 3945   4.479   3.225   1.983 -0.0379  0.0643 -0.2307
  979SOL    HW2 3946   4.394   3.187   1.962 -0.4484 -0.1651  1.7186
  979SOL    HW3 3947   4.542   3.170   1.936 -0.7712 -1.6920  0.7632
  979SOL    MW4 3948   4.476   3.213   1.974 -0.1888 -0.1977  0.1576
  980SOL     OW 3949   4.432   3.463   1.854 -0.3856 -0.1067 -0.1762
  980SOL    HW2 3950   4.512   3.506   1.884 -1.2455  0.5773  1.2193
  980SOL    HW3 3951   4.432   3.378   1.900  0.1348 -0.6127 -1.1053
  980SOL    MW4 3952   4.443   3.457   1.864 -0.4304 -0.0832 -0.1147
  981SOL     OW 3953   0.195   3.570   1.958  0.4780  0.1824 -0.4284
  981SOL    HW2 3954   0.195   3.584   2.052  1.1873  0.1942 -0.4311
  981SOL    HW3 3955   0.283   3.539   1.938  1.2259  2.7745 -1.4631
  981SOL    MW4 3956   0.207   3.568   1.968  0.6703  0.5260 -0.5653
  982SOL     OW 3957   0.200   3.852   1.911  0.0699  0.0185 -0.0962
  982SOL    HW2 3958   0.290   3.875   1.935  0.4862 -1.5954 -0.0710
  982SOL    HW3 3959   0.192   3.759   1.932 -1.3035 -0.0855 -0.9974
  982SOL    MW4 3960   0.211   3.843   1.917 -0.0563 -0.2082 -0.2117
  983SOL     OW 3961   4.490   4.023   1.968 -0.3021 -0.5345 -0.3047
  983SOL    HW2 3962   4.496   4.111   1.930 -0.6512  0.0348  0.9250
  983SOL    HW3 3963   4.570   3.979   1.939  1.3939  1.1859  1.5479
  983SOL    MW4 3964   4.501   4.029   1.959 -0.1244 -0.2324  0.1020
  984SOL     OW 3965   0.019   4.260   1.844  0.2542 -0.2384  0.2396
  984SOL    HW2 3966  -0.055   4.314   1.874  0.5000  0.8350 -1.0185
  984SOL    HW3 3967   0.096   4.306   1.877  0.3635 -1.7213  2.1249
  984SOL    MW4 3968   0.019   4.273   1.852  0.3011 -0.2924  0.3224
  985SOL     OW 3969   0.249   4.396   1.927 -0.1400  0.2059  0.0933
  985SOL    HW2 3970   0.239   4.390   2.022  0.7118 -1.3190  0.0905
  985SOL    HW3 3971   0.222   4.486   1.907  1.9204  1.3364  2.0580
  985SOL    MW4 3972   0.244   4.407   1.937  0.2442  0.1539  0.3521
  986SOL     OW 3973   0.688   4.664   1.830 -0.0552  0.2957  0.2853
  986SOL    HW2 3974   0.698   4.582   1.878  0.0356  0.9521  1.3879
  986SOL    HW3 3975   0.689   4.638   1.738 -0.5797 -1.0034  0.6404
  986SOL    MW4 3976   0.689   4.650   1.824 -0.1124  0.2109  0.4776
  987SOL     OW 3977   0.461   0.133   1.950  0.4753  0.3254  0.1594
  987SOL    HW2 3978   0.469   0.224   1.923  0.6962  0.7660  1.6440
  987SOL    HW3 3979   0.535   0.089   1.908  0.3826  0.8392 -0.5434
  987SOL    MW4 3980   0.472   0.139   1.941  0.4922  0.4513  0.2625
  988SOL     OW 3981   0.472   0.404   1.870  0.4700  0.6364  0.0391
  988SOL    HW2 3982   0.552   0.453   1.888  0.7015  0.4862 -0.5776
  988SOL    HW3 3983   0.471   0.394   1.775 -0.0561  0.2589  0.0847
  988SOL    MW4 3984   0.483   0.409   1.860  0.4312  0.5668 -0.0363
  989SOL     OW 3985   0.689   0.548   1.953 -0.5532 -0.0384  0.2310
  989SOL    HW2 3986   0.677   0.544   2.048  1.2140 -2.6262  0.4015
  989SOL    HW3 3987   0.762   0.488   1.935 -0.1980  1.1641 -2.6572
  989SOL    MW4 3988   0.697   0.539   1.963 -0.2732 -0.2211 -0.1276
  990SOL     OW 3989   0.697   0.819   1.876  0.2265 -0.1320 -0.1269
  990SOL    HW2 3990   0.771   0.855   1.924  0.0337  0.2566 -0.1267
  990SOL    HW3 3991   0.692   0.728   1.906  0.4919 -0.0645  0.1260
  990SOL    MW4 3992   0.706   0.811   1.886  0.2361 -0.0718 -0.0935
  991SOL     OW 3993   0.429   0.873   1.963 -0.1427  0.0949 -0.4196
  991SOL    HW2 3994   0.409   0.962   1.933 -0.2975 -0.3557 -1.6716
  991SOL    HW3 3995   0.518   0.857   1.933  0.0401 -0.0304  0.1772
  991SOL    MW4 3996   0.438   0.883   1.955 -0.1390  0.0189 -0.5060
  992SOL     OW 3997   0.459   1.140   1.870 -0.4233 -0.2582  0.0554
  992SOL    HW2 3998   0.377   1.182   1.893  0.0865  0.7486  0.0446
  992SOL    HW3 3999   0.459   1.137   1.774 -0.3254 -0.0142  0.0476
  992SOL    MW4 4000   0.448   1.145   1.860 -0.3431 -0.0932  0.0529
  993SOL     OW 4001   0.651   1.307   1.947 -0.5480 -0.1729 -0.1069
  993SOL    HW2 4002   0.660   1.278   2.037  1.1520  0.4803 -0.0615
  993SOL    HW3 4003   0.595   1.241   1.906  2.8993 -3.3485  0.0778
  993SOL    MW4 4004   0.644   1.295   1.953  0.1311 -0.5057 -0.0766
  994SOL     OW 4005   0.679   1.567   1.872  0.0327  0.2326 -0.4253
  994SOL    HW2 4006   0.679   1.477   1.908  0.1729 -0.0501 -1.1329
  994SOL    HW3 4007   0.673   1.555   1.778  0.2565  0.9708 -0.5331
  994SOL    MW4 4008   0.678   1.553   1.865  0.0808  0.2927 -0.5329
  995SOL     OW 4009   0.463   1.686   1.977 -0.2101 -0.2267 -0.1177
  995SOL    HW2 4010   0.478   1.672   2.070 -0.2851  1.0497  0.0903
  995SOL    HW3 4011   0.536   1.640   1.934 -0.1796 -0.8239  0.5595
  995SOL    MW4 4012   0.475   1.678   1.983 -0.2160 -0.1371 -0.0009
  996SOL     OW 4013   0.440   1.925   1.837  0.2542 -0.1464 -0.0761
  996SOL    HW2 4014   0.436   1.844   1.888 -0.7909 -0.8660 -1.3046
  996SOL    HW3 4015   0.375   1.982   1.878  0.4239 -0.1972  0.2753
  996SOL    MW4 4016   0.431   1.922   1.849  0.1387 -0.2480 -0.1919
  997SOL     OW 4017   0.682   2.041   1.893 -0.0065 -0.3807  0.0801
  997SOL    HW2 4018   0.690   2.041   1.988  1.3557  0.4455 -0.0101
  997SOL    HW3 4019   0.600   1.996   1.875  0.2174 -1.4227  1.6009
  997SOL    MW4 4020   0.673   2.035   1.903  0.2028 -0.4091  0.2688
  998SOL     OW 4021   0.645   2.327   1.819 -0.0353 -0.1234 -0.2172
  998SOL    HW2 4022   0.665   2.234   1.829  0.2613  0.0213  0.5992
  998SOL    HW3 4023   0.624   2.337   1.726  4.0637 -0.2325 -1.2276
  998SOL    MW4 4024   0.645   2.316   1.808  0.5447 -0.1187 -0.2428
  999SOL     OW 4025   0.443   2.468   1.931  0.2201 -0.2479  0.1173
  999SOL    HW2 4026   0.452   2.454   2.026 -1.2837  1.0898  0.4773
  999SOL    HW3 4027   0.512   2.413   1.892 -0.0288 -1.8906  1.9040
  999SOL    MW4 4028   0.453   2.459   1.939 -0.0112 -0.2882  0.4005
 1000SOL     OW 4029   0.443   2.735   1.872  0.0074  0.5374  0.4649
 1000SOL    HW2 4030   0.447   2.641   1.892 -0.1844  0.6202  0.9013
 1000SOL    HW3 4031   0.363   2.765   1.915 -1.6332  0.2865 -2.2429
 1000SOL    MW4 4032   0.433   2.726   1.880 -0.2344  0.5152  0.1652
 1001SOL     OW 4033   0.669   2.872   1.969 -0.3461  0.1255 -0.1008
 1001SOL    HW2 4034   0.664   2.868   2.065 -0.6979 -0.7990 -0.1452
 1001SOL    HW3 4035   0.590   2.827   1.940 -0.8223  1.4251 -0.8309
 1001SOL    MW4 4036   0.658   2.865   1.978 -0.4553  0.1750 -0.2030
 1002SOL     OW 4037   0.642   3.136   1.865  0.3076 -0.0668  0.6183
 1002SOL    HW2 4038   0.648   3.046   1.898  1.8860 -0.1668  0.1184
 1002SOL    HW3 4039   0.622   3.126   1.772 -2.5154  0.1791  1.1757
 1002SOL    MW4 4040   0.640   3.123   1.857  0.1434 -0.0475  0.6259
 1003SOL     OW 4041   0.395   3.213   1.971  0.5698 -0.2419  0.1303
 1003SOL    HW2 4042   0.358   3.302   1.973  0.7953 -0.1604  0.8953
 1003SOL    HW3 4043   0.478   3.223   1.924  0.4861 -0.0880  0.0136
 1003SOL    MW4 4044   0.401   3.226   1.965  0.5885 -0.2108  0.2158
 1004SOL     OW 4045   0.458   3.474   1.905  0.4765 -0.2930  0.1565
 1004SOL    HW2 4046   0.532   3.527   1.932 -0.6565  1.7108 -0.5056
 1004SOL    HW3 4047   0.465   3.470   1.809 -0.9691  1.0403 -0.0287
 1004SOL    MW4 4048   0.468   3.480   1.896  0.1363  0.1472  0.0447
 1005SOL     OW 4049   0.690   3.615   2.005  0.4866  0.1139 -0.2017
 1005SOL    HW2 4050   0.756   3.565   1.957  0.7324 -1.4101  1.6402
 1005SOL    HW3 4051   0.701   3.705   1.976  3.4066 -0.1209  0.0606
 1005SOL    MW4 4052   0.700   3.620   1.995  0.9043 -0.1182  0.0759
 1006SOL     OW 4053   0.670   3.860   1.901  0.0649  0.0919 -0.5183
 1006SOL    HW2 4054   0.740   3.918   1.932 -0.7216  0.9900 -0.4300
 1006SOL    HW3 4055   0.663   3.878   1.808 -2.4351  2.5722  0.0907
 1006SOL    MW4 4056   0.679   3.870   1.893 -0.3687  0.5377 -0.4263
 1007SOL     OW 4057   0.431   3.993   2.018 -0.3404 -0.2229 -0.1777
 1007SOL    HW2 4058   0.421   4.074   1.968 -0.9516 -0.9165 -1.1940
 1007SOL    HW3 4059   0.506   3.950   1.977 -0.9925 -0.9057 -0.6637
 1007SOL    MW4 4060   0.440   3.998   2.006 -0.5071 -0.4045 -0.3759
 1008SOL     OW 4061   0.463   4.245   1.883  0.2552 -0.0554  0.1364
 1008SOL    HW2 4062   0.392   4.306   1.902  1.1173  1.0411 -0.1328
 1008SOL    HW3 4063   0.463   4.237   1.788 -0.9860 -1.8652  0.2497
 1008SOL    MW4 4064   0.454   4.252   1.873  0.2052 -0.1495  0.1158
 1009SOL     OW 4065   0.673   4.409   1.985 -0.4513 -0.3863 -0.0680
 1009SOL    HW2 4066   0.736   4.356   1.936  0.1246 -0.8016  1.1265
 1009SOL    HW3 4067   0.588   4.370   1.965  0.0587 -2.4034  1.5953
 1009SOL    MW4 4068   0.670   4.397   1.976 -0.3081 -0.7073  0.3091
 1010SOL     OW 4069   1.099   4.636   1.845  0.8104 -0.0336 -0.2717
 1010SOL    HW2 4070   1.175   4.685   1.875 -0.4936  2.1340 -0.3321
 1010SOL    HW3 4071   1.104   4.552   1.890  3.0893  0.1747 -0.1055
 1010SOL    MW4 4072   1.110   4.631   1.855  0.9390  0.2799 -0.2578
 1011SOL     OW 4073   0.906   0.114   1.987  0.0530 -0.1046  0.2003
 1011SOL    HW2 4074   0.976   0.058   1.954  0.8420  1.1157 -0.2448
 1011SOL    HW3 4075   0.827   0.081   1.945  0.5233 -0.8276 -0.1246
 1011SOL    MW4 4076   0.905   0.103   1.977  0.2192 -0.0390  0.0987
 1012SOL     OW 4077   0.901   0.378   1.902  0.4902  0.4838 -0.0502
 1012SOL    HW2 4078   0.986   0.419   1.919  0.6099  0.5167 -0.7100
 1012SOL    HW3 4079   0.914   0.286   1.926  1.2518  0.1052 -1.8077
 1012SOL    MW4 4080   0.914   0.371   1.907  0.6065  0.4382 -0.3691
 1013SOL     OW 4081   1.152   0.507   1.967 -0.0644 -0.0134  0.5134
 1013SOL    HW2 4082   1.224   0.461   1.926  0.8203  0.9726  0.9384
 1013SOL    HW3 4083   1.157   0.596   1.933 -0.0182  0.5153  1.8480
 1013SOL    MW4 4084   1.162   0.513   1.957  0.0584  0.1865  0.7455
 1014SOL     OW 4085   1.137   0.781   1.858  0.1697 -0.2108 -0.2735
 1014SOL    HW2 4086   1.217   0.813   1.899  0.3356  1.1751 -1.6672
 1014SOL    HW3 4087   1.067   0.831   1.901  0.1090 -0.7570  0.2788
 1014SOL    MW4 4088   1.138   0.792   1.869  0.1836 -0.1000 -0.3845
 1015SOL     OW 4089   0.919   0.936   1.997  0.2005  0.5836  0.1237
 1015SOL    HW2 4090   0.916   0.917   2.091 -0.6180 -1.1006 -0.2339
 1015SOL    HW3 4091   0.902   1.030   1.991  0.9073  0.8339  1.6979
 1015SOL    MW4 4092   0.917   0.946   2.008  0.1858  0.3944  0.2842
 1016SOL     OW 4093   0.891   1.181   1.879  0.1111  0.5938  0.0333
 1016SOL    HW2 4094   0.810   1.230   1.894 -0.2967 -0.0426 -0.0657
 1016SOL    HW3 4095   0.889   1.161   1.785  0.2217  0.2897  0.0965
 1016SOL    MW4 4096   0.880   1.185   1.868  0.0719  0.4697  0.0286
 1017SOL     OW 4097   1.156   1.254   1.928 -0.2188  0.0409  0.2186
 1017SOL    HW2 4098   1.144   1.349   1.923 -0.8094 -0.1763 -3.3805
 1017SOL    HW3 4099   1.069   1.218   1.910  0.2499 -1.2219  0.4409
 1017SOL    MW4 4100   1.143   1.262   1.925 -0.2349 -0.1544 -0.2269
 1018SOL     OW 4101   1.083   1.520   1.878  0.1914  0.0294  0.2969
 1018SOL    HW2 4102   1.008   1.577   1.895  0.8952  0.8265  0.7575
 1018SOL    HW3 4103   1.087   1.513   1.783  0.3946  1.1558  0.2160
 1018SOL    MW4 4104   1.074   1.527   1.868  0.3111  0.2832  0.3470
 1019SOL     OW 4105   0.899   1.714   1.923 -0.1307 -0.2030  0.3332
 1019SOL    HW2 4106   0.928   1.783   1.863 -3.3923  1.3576  0.4244
 1019SOL    HW3 4107   0.816   1.684   1.885 -1.3512 -0.4344  3.0853
 1019SOL    MW4 4108   0.892   1.719   1.910 -0.7220 -0.0276  0.7083
 1020SOL     OW 4109   0.929   1.987   1.809  0.3879  0.2930  0.4125
 1020SOL    HW2 4110   0.835   1.985   1.828  0.3885 -0.6300  0.3495
 1020SOL    HW3 4111   0.935   1.962   1.716  0.7688 -0.9262  0.7493
 1020SOL    MW4 4112   0.917   1.983   1.799  0.4382  0.0104  0.4486
 1021SOL     OW 4113   1.156   2.071   1.955 -0.2012  0.1974  0.2077
 1021SOL    HW2 4114   1.149   2.166   1.945 -0.7684  0.1979  0.5806
 1021SOL    HW3 4115   1.086   2.036   1.900  0.7485 -0.0574 -0.8585
 1021SOL    MW4 4116   1.146   2.079   1.946 -0.1508  0.1639  0.1163
 1022SOL     OW 4117   1.092   2.327   1.870 -0.4866 -0.2465 -0.2686
 1022SOL    HW2 4118   1.172   2.375   1.891 -0.5169 -1.0197  1.7301
 1022SOL    HW3 4119   1.101   2.304   1.777  0.7886  1.1946 -0.5146
 1022SOL    MW4 4120   1.104   2.330   1.860 -0.3224 -0.1584 -0.0374
 1023SOL     OW 4121   0.878   2.469   1.937  0.0381  0.0853  0.2526
 1023SOL    HW2 4122   0.960   2.424   1.913  0.0326  0.5139 -0.5649
 1023SOL    HW3 4123   0.809   2.412   1.904  0.0299  0.6581 -0.7122
 1023SOL    MW4 4124   0.880   2.455   1.930  0.0363  0.2174  0.0174
 1024SOL     OW 4125   0.887   2.721   1.860  0.0309  0.4016  0.1900
 1024SOL    HW2 4126   0.888   2.630   1.889  0.5562 -0.1311 -1.4473
 1024SOL    HW3 4127   0.807   2.757   1.897 -0.1353 -0.6879  0.9318
 1024SOL    MW4 4128   0.877   2.714   1.869  0.0783  0.1875  0.0718
 1025SOL     OW 4129   1.129   2.851   1.938 -0.0273  0.1952 -0.5017
 1025SOL    HW2 4130   1.136   2.833   2.031  0.8151 -1.0471 -0.7910
 1025SOL    HW3 4131   1.044   2.814   1.912 -0.5904  1.1951 -0.0866
 1025SOL    MW4 4132   1.118   2.844   1.947  0.0096  0.1632 -0.4851
 1026SOL     OW 4133   1.159   3.116   1.851  0.0315 -0.2962  0.4791
 1026SOL    HW2 4134   1.068   3.133   1.873 -0.4399 -1.4371 -0.5127
 1026SOL    HW3 4135   1.170   3.022   1.865  0.6435 -0.4261 -0.8277
 1026SOL    MW4 4136   1.149   3.106   1.856  0.0501 -0.4638  0.1758
 1027SOL     OW 4137   0.917   3.193   1.947  0.1829  0.0465  0.4498
 1027SOL    HW2 4138   0.917   3.195   2.043  0.4807 -2.4032  0.5243
 1027SOL    HW3 4139   0.829   3.163   1.925 -0.0821  1.2094 -0.0617
 1027SOL    MW4 4140   0.905   3.189   1.957  0.1872 -0.1233  0.3922
 1028SOL     OW 4141   0.894   3.463   1.889 -0.3644  0.1992 -0.0110
 1028SOL    HW2 4142   0.900   3.369   1.904  0.6367  0.4331  1.1766
 1028SOL    HW3 4143   0.890   3.472   1.794 -0.3766 -1.0387 -0.1360
 1028SOL    MW4 4144   0.894   3.452   1.878 -0.2339  0.0667  0.1292
 1029SOL     OW 4145   1.141   3.612   1.926 -0.1029 -0.0549 -0.2396
 1029SOL    HW2 4146   1.155   3.609   2.021  0.3461 -1.9457 -0.3414
 1029SOL    HW3 4147   1.064   3.556   1.912  1.2916 -1.7747 -1.2308
 1029SOL    MW4 4148   1.132   3.604   1.937  0.1403 -0.5313 -0.3838
 1030SOL     OW 4149   1.087   3.872   1.886 -0.1802 -0.2957 -0.3228
 1030SOL    HW2 4150   1.098   3.784   1.921 -1.0036 -0.6360 -0.9143
 1030SOL    HW3 4151   1.091   3.861   1.791 -1.2767  0.1661 -0.4338
 1030SOL    MW4 4152   1.089   3.859   1.878 -0.4335 -0.2797 -0.4155
 1031SOL     OW 4153   0.885   4.016   1.984  0.8803  0.6784  0.0906
 1031SOL    HW2 4154   0.898   4.010   2.079  1.5745 -0.1329 -0.0453
 1031SOL    HW3 4155   0.953   3.959   1.948 -0.2931 -0.1433 -0.8418
 1031SOL    MW4 4156   0.896   4.008   1.992  0.8171  0.4629 -0.0504
 1032SOL     OW 4157   0.884   4.248   1.801  0.1547 -0.1542 -0.3324
 1032SOL    HW2 4158   0.947   4.301   1.849  0.4252 -2.0709  1.4785
 1032SOL    HW3 4159   0.869   4.171   1.856 -1.8235 -0.9660 -1.9165
 1032SOL    MW4 4160   0.890   4.245   1.815 -0.0706 -0.5142 -0.3025
 1033SOL     OW 4161   1.074   4.395   1.963 -0.2379  0.3694  0.0381
 1033SOL    HW2 4162   1.058   4.385   2.057  0.0979  0.2477  0.0844
 1033SOL    HW3 4163   1.147   4.336   1.945 -0.4413  0.2359 -0.3412
 1033SOL    MW4 4164   1.082   4.386   1.973 -0.2204  0.3357 -0.0058
 1034SOL     OW 4165   1.537   4.581   1.845  0.0207  0.3943  0.0457
 1034SOL    HW2 4166   1.614   4.626   1.880  0.4627 -0.1103 -0.2791
 1034SOL    HW3 4167   1.537   4.495   1.887  0.5633 -0.2159 -1.1848
 1034SOL    MW4 4168   1.547   4.576   1.855  0.1506  0.2472 -0.1595
 1035SOL     OW 4169   1.334   0.089   1.948  0.1347  0.1195 -0.3393
 1035SOL    HW2 4170   1.327   0.085   2.043 -1.4629 -0.6821 -0.4840
 1035SOL    HW3 4171   1.413   0.039   1.927  0.1316 -0.2455  0.5159
 1035SOL    MW4 4172   1.344   0.082   1.958 -0.0765 -0.0344 -0.2455
 1036SOL     OW 4173   1.367   0.363   1.880  0.1666  0.2577 -0.2304
 1036SOL    HW2 4174   1.360   0.272   1.909  2.6082  0.6341  1.7594
 1036SOL    HW3 4175   1.374   0.358   1.785  0.8178 -1.6965 -0.1076
 1036SOL    MW4 4176   1.367   0.350   1.871  0.5747  0.0495  0.0483
 1037SOL     OW 4177   1.577   0.525   2.007  0.1686  0.1628 -0.0675
 1037SOL    HW2 4178   1.643   0.457   2.000 -0.3039 -0.1952 -1.2035
 1037SOL    HW3 4179   1.496   0.483   1.979 -0.2302  1.0519 -0.2697
 1037SOL    MW4 4180   1.575   0.511   2.003  0.0537  0.2329 -0.2441
 1038SOL     OW 4181   1.616   0.776   1.903  0.3466  0.1007 -0.1605
 1038SOL    HW2 4182   1.690   0.819   1.946  1.6831 -1.8469 -0.4504
 1038SOL    HW3 4183   1.623   0.684   1.929 -1.2648 -0.3319 -1.1650
 1038SOL    MW4 4184   1.627   0.769   1.912  0.3103 -0.2133 -0.3313
 1039SOL     OW 4185   1.373   0.905   2.002 -0.3398  0.4172 -0.4241
 1039SOL    HW2 4186   1.378   0.900   2.097  1.1800  0.5451 -0.4899
 1039SOL    HW3 4187   1.443   0.849   1.970 -0.0070  1.3902 -1.4547
 1039SOL    MW4 4188   1.383   0.897   2.010 -0.0953  0.5625 -0.5687
 1040SOL     OW 4189   1.407   1.186   1.837 -0.1861  0.9243 -0.2422
 1040SOL    HW2 4190   1.406   1.095   1.868 -0.8573  0.9496 -0.1707
 1040SOL    HW3 4191   1.326   1.224   1.871  0.8401  2.0015  1.0058
 1040SOL    MW4 4192   1.396   1.179   1.845 -0.1393  1.0697 -0.0681
 1041SOL     OW 4193   1.532   1.563   1.807 -0.1688 -0.3549 -0.3257
 1041SOL    HW2 4194   1.465   1.602   1.862 -0.0263  0.5382 -0.7654
 1041SOL    HW3 4195   1.567   1.490   1.858 -1.1615 -0.5479  0.0801
 1041SOL    MW4 4196   1.528   1.558   1.821 -0.2809 -0.2625 -0.3302
 1042SOL     OW 4197   1.783   1.674   1.924  0.2662  0.6113 -0.0487
 1042SOL    HW2 4198   1.795   1.766   1.900  0.7779  0.3491 -0.7970
 1042SOL    HW3 4199   1.696   1.651   1.889 -0.2468  1.0573  0.9155
 1042SOL    MW4 4200   1.773   1.683   1.916  0.2660  0.6355 -0.0202
 1043SOL     OW 4201   1.314   1.663   1.943 -0.2222  0.2752 -0.3686
 1043SOL    HW2 4202   1.325   1.666   2.038  0.1735  0.7455 -0.4254
 1043SOL    HW3 4203   1.233   1.614   1.930  0.1311 -0.4645  0.1791
 1043SOL    MW4 4204   1.305   1.657   1.954 -0.1234  0.2397 -0.3038
 1044SOL     OW 4205   1.337   1.909   1.829 -0.2090 -0.0669 -0.0663
 1044SOL    HW2 4206   1.323   1.826   1.876 -0.7413 -0.2756 -0.5914
 1044SOL    HW3 4207   1.284   1.973   1.876  1.8321  0.4457  1.6274
 1044SOL    MW4 4208   1.328   1.906   1.841 -0.0099 -0.0268  0.0879
 1045SOL     OW 4209   1.545   2.021   1.954  0.2643 -0.0765 -0.0996
 1045SOL    HW2 4210   1.527   2.109   1.920  1.3031 -0.2112 -1.0114
 1045SOL    HW3 4211   1.474   1.967   1.918  0.2930  0.1571 -0.5122
 1045SOL    MW4 4212   1.533   2.026   1.945  0.4052 -0.0635 -0.2744
 1046SOL     OW 4213   1.559   2.289   1.851  0.2570 -0.1372 -0.2048
 1046SOL    HW2 4214   1.648   2.323   1.863 -0.3448  1.1296  0.7938
 1046SOL    HW3 4215   1.537   2.310   1.761  0.2122  1.3513  0.1514
 1046SOL    MW4 4216   1.568   2.296   1.841  0.1717  0.2263 -0.0261
 1047SOL     OW 4217   1.342   2.448   1.932  0.0399  0.2521 -0.2311
 1047SOL    HW2 4218   1.343   2.525   1.875 -0.6044 -0.3498 -1.0866
 1047SOL    HW3 4219   1.418   2.397   1.903  0.1488  0.3028 -0.0352
 1047SOL    MW4 4220   1.352   2.451   1.920 -0.0308  0.1794 -0.3182
 1048SOL     OW 4221   1.333   2.699   1.839  0.0756 -0.0571  0.2177
 1048SOL    HW2 4222   1.263   2.748   1.881 -1.1840 -1.4977 -0.1705
 1048SOL    HW3 4223   1.323   2.718   1.745 -0.7838 -1.4773  0.0030
 1048SOL    MW4 4224   1.323   2.708   1.832 -0.2040 -0.4346  0.1382
 1049SOL     OW 4225   1.547   2.846   1.950 -0.1803 -0.2207 -0.2135
 1049SOL    HW2 4226   1.624   2.799   1.916 -0.0637  0.5061 -0.9624
 1049SOL    HW3 4227   1.472   2.803   1.908 -0.0709  0.2766 -0.9280
 1049SOL    MW4 4228   1.547   2.834   1.940 -0.1505 -0.0592 -0.4066
 1050SOL     OW 4229   1.559   3.096   1.853 -0.1932  0.5785  0.2444
 1050SOL    HW2 4230   1.548   3.011   1.896  0.3550  0.4507  0.1329
 1050SOL    HW3 4231   1.506   3.156   1.905 -0.9897  0.0736  0.0339
 1050SOL    MW4 4232   1.550   3.093   1.865 -0.2260  0.4950  0.2019
 1051SOL     OW 4233   1.356   3.255   1.990  0.5269 -0.0700 -0.2212
 1051SOL    HW2 4234   1.354   3.251   2.085 -1.3005 -0.5001 -0.2672
 1051SOL    HW3 4235   1.276   3.210   1.962  1.2403 -0.3089 -1.9673
 1051SOL    MW4 4236   1.345   3.248   1.999  0.3800 -0.1583 -0.4577
 1052SOL     OW 4237   1.373   3.488   1.852  0.1548 -0.0745  0.2428
 1052SOL    HW2 4238   1.369   3.403   1.896 -0.7269 -0.2849 -0.2037
 1052SOL    HW3 4239   1.290   3.530   1.874  0.4743  0.5541  0.2428
 1052SOL    MW4 4240   1.361   3.482   1.860  0.0806 -0.0193  0.1839
 1053SOL     OW 4241   1.591   3.595   1.950  0.0433 -0.2508 -0.0887
 1053SOL    HW2 4242   1.569   3.598   2.043 -0.1103 -1.7616 -0.0738
 1053SOL    HW3 4243   1.516   3.552   1.909  0.9589 -1.3193 -0.6532
 1053SOL    MW4 4244   1.578   3.590   1.957  0.1438 -0.5911 -0.1612
 1054SOL     OW 4245   1.581   3.850   1.835  0.3517  0.6670 -0.4023
 1054SOL    HW2 4246   1.653   3.897   1.876  0.2776  1.4894 -1.2012
 1054SOL    HW3 4247   1.585   3.762   1.874  0.5941  1.2711  0.9633
 1054SOL    MW4 4248   1.591   3.844   1.846  0.3739  0.8552 -0.3275
 1055SOL     OW 4249   1.335   3.975   1.933 -0.2337 -0.5667  0.0345
 1055SOL    HW2 4250   1.405   3.926   1.891  0.5063 -1.5744  2.3296
 1055SOL    HW3 4251   1.256   3.924   1.915  0.2743 -1.7116  0.9180
 1055SOL    MW4 4252   1.334   3.962   1.925 -0.0691 -0.8507  0.4539
 1056SOL     OW 4253   1.298   4.255   1.904  0.3234  0.1287  0.0028
 1056SOL    HW2 4254   1.303   4.161   1.923 -0.3218  0.2131  0.6386
 1056SOL    HW3 4255   1.294   4.261   1.809 -0.9988 -0.5725  0.0034
 1056SOL    MW4 4256   1.298   4.244   1.894  0.0638  0.0473  0.0867
 1057SOL     OW 4257   1.546   4.333   1.975  0.0668 -0.1345 -0.4651
 1057SOL    HW2 4258   1.546   4.341   2.070 -1.3336  0.3880 -0.5022
 1057SOL    HW3 4259   1.456   4.309   1.953  0.3978 -0.3152 -1.6494
 1057SOL    MW4 4260   1.534   4.331   1.985 -0.0743 -0.0894 -0.6262
 1058SOL     OW 4261   1.998   4.631   1.866 -0.4181 -0.2852 -0.3075
 1058SOL    HW2 4262   2.083   4.669   1.888 -0.0520 -1.6675  0.6868
 1058SOL    HW3 4263   1.999   4.544   1.905 -3.2264  0.5465  1.8062
 1058SOL    MW4 4264   2.009   4.625   1.874 -0.7403 -0.3579  0.1026
 1059SOL     OW 4265   1.752   0.056   1.958 -0.6032  0.1660  0.3963
 1059SOL    HW2 4266   1.769   0.038   2.051 -0.9194 -0.0625  0.4126
 1059SOL    HW3 4267   1.831   0.028   1.913 -1.5675 -2.5312  0.2899
 1059SOL    MW4 4268   1.764   0.050   1.964 -0.7721 -0.2200  0.3844
 1060SOL     OW 4269   1.756   0.334   1.916  0.0389  0.1087 -0.4720
 1060SOL    HW2 4270   1.747   0.240   1.928 -1.2457  0.2818  0.0241
 1060SOL    HW3 4271   1.767   0.345   1.822 -0.2812 -0.5033 -0.5859
 1060SOL    MW4 4272   1.756   0.323   1.905 -0.1728  0.0508 -0.4216
 1061SOL     OW 4273   2.008   0.453   1.919 -0.3677 -0.0853 -0.0866
 1061SOL    HW2 4274   1.996   0.547   1.904  0.8305  0.1746  0.5147
 1061SOL    HW3 4275   1.919   0.420   1.933 -0.7408  1.0857  0.3876
 1061SOL    MW4 4276   1.994   0.461   1.919 -0.2588  0.1035  0.0553
 1062SOL     OW 4277   2.021   0.729   1.861  0.6717 -0.3244  0.6074
 1062SOL    HW2 4278   2.092   0.772   1.909  1.1279 -0.0221 -0.3289
 1062SOL    HW3 4279   2.037   0.752   1.770 -0.1377 -0.9763  0.3011
 1062SOL    MW4 4280   2.033   0.737   1.856  0.6251 -0.3705  0.4435
 1063SOL     OW 4281   1.844   0.921   1.991 -0.1899  0.2371 -0.0163
 1063SOL    HW2 4282   1.834   1.004   1.944  0.8253  0.8042  0.7563
 1063SOL    HW3 4283   1.913   0.874   1.943 -1.1190 -0.3993 -0.7622
 1063SOL    MW4 4284   1.851   0.925   1.978 -0.1786  0.2280 -0.0128
 1064SOL     OW 4285   1.822   1.165   1.864 -0.3437 -0.1797  0.0995
 1064SOL    HW2 4286   1.745   1.214   1.895 -0.5742  0.9559 -2.1521
 1064SOL    HW3 4287   1.808   1.156   1.770  1.2528 -1.8554  0.0018
 1064SOL    MW4 4288   1.810   1.171   1.856 -0.1635 -0.2510 -0.2105
 1065SOL     OW 4289   2.054   1.273   1.979  0.2492 -0.0454  0.0006
 1065SOL    HW2 4290   2.124   1.218   1.944  0.4322  0.0249  0.2536
 1065SOL    HW3 4291   1.973   1.234   1.946  0.3932 -0.2927 -0.0577
 1065SOL    MW4 4292   2.052   1.261   1.970  0.2923 -0.0687  0.0263
 1066SOL     OW 4293   2.016   1.534   1.606  0.0180  0.7265  0.2857
 1066SOL    HW2 4294   2.021   1.525   1.701  0.3139 -0.3215  0.1807
 1066SOL    HW3 4295   2.098   1.576   1.580  0.9731 -1.1105  0.2650
 1066SOL    MW4 4296   2.027   1.538   1.615  0.1831  0.3459  0.2691
 1067SOL     OW 4297   2.028   1.538   1.891  0.3420  0.0855 -0.1870
 1067SOL    HW2 4298   1.940   1.567   1.915  0.6722  1.6537 -0.8009
 1067SOL    HW3 4299   2.032   1.447   1.920 -1.2113  0.2329  0.5436
 1067SOL    MW4 4300   2.017   1.530   1.898  0.1806  0.3119 -0.1716
 1068SOL     OW 4301   1.802   1.960   1.869  0.0935  0.0999 -0.0661
 1068SOL    HW2 4302   1.718   1.986   1.908  0.5420 -0.2877  1.1614
 1068SOL    HW3 4303   1.788   1.972   1.775 -1.0577  0.8631  0.1817
 1068SOL    MW4 4304   1.789   1.965   1.861  0.0008  0.1495  0.1285
 1069SOL     OW 4305   2.036   2.076   1.975  0.2229  0.0673 -0.3467
 1069SOL    HW2 4306   2.113   2.027   1.947  0.0585 -0.1764 -0.3776
 1069SOL    HW3 4307   1.962   2.030   1.934  0.0046 -0.1053  0.2281
 1069SOL    MW4 4308   2.036   2.063   1.966  0.1724  0.0124 -0.2749
 1070SOL     OW 4309   2.047   2.314   1.839  0.1873 -0.0781 -0.1937
 1070SOL    HW2 4310   2.110   2.368   1.888 -1.6569  0.7066  1.3966
 1070SOL    HW3 4311   2.051   2.228   1.881 -0.9320  0.4176  0.9623
 1070SOL    MW4 4312   2.056   2.310   1.851 -0.2037  0.0908  0.1686
 1071SOL     OW 4313   1.794   2.414   1.909 -0.2841  0.4133  0.1340
 1071SOL    HW2 4314   1.802   2.404   2.004 -2.7628  0.6192  0.3803
 1071SOL    HW3 4315   1.877   2.380   1.875  0.2290 -0.5929  2.2923
 1071SOL    MW4 4316   1.806   2.408   1.917 -0.5434  0.3078  0.4513
 1072SOL     OW 4317   1.784   2.685   1.860 -0.2805  0.4482  0.1274
 1072SOL    HW2 4318   1.792   2.595   1.893  0.6392  0.6002  0.3069
 1072SOL    HW3 4319   1.783   2.676   1.765  2.0201  0.4234  0.0833
 1072SOL    MW4 4320   1.785   2.672   1.852  0.1444  0.4649  0.1453
 1073SOL     OW 4321   2.032   2.817   1.969  0.0099  0.4540 -0.2055
 1073SOL    HW2 4322   2.014   2.818   2.063 -0.0361 -0.7002 -0.1935
 1073SOL    HW3 4323   1.951   2.786   1.929  0.2951  0.1379 -0.5475
 1073SOL    MW4 4324   2.019   2.813   1.976  0.0415  0.2600 -0.2491
 1074SOL     OW 4325   2.037   3.058   1.860  0.0861 -0.2575 -0.4945
 1074SOL    HW2 4326   1.956   3.101   1.889 -0.3228 -0.7859 -0.8385
 1074SOL    HW3 4327   2.036   2.973   1.904  0.6782 -0.0958 -0.1563
 1074SOL    MW4 4328   2.026   3.052   1.870  0.1103 -0.3059 -0.4953
 1075SOL     OW 4329   1.802   3.201   1.936  0.1198 -0.3005 -0.3365
 1075SOL    HW2 4330   1.799   3.203   2.032 -1.7423  0.3071 -0.3906
 1075SOL    HW3 4331   1.719   3.162   1.909  0.5174 -0.2399 -1.7143
 1075SOL    MW4 4332   1.791   3.196   1.945 -0.0734 -0.2124 -0.5254
 1076SOL     OW 4333   1.831   3.482   1.887 -0.3954 -0.0189 -0.7313
 1076SOL    HW2 4334   1.828   3.393   1.921 -0.1489  0.5286  0.7794
 1076SOL    HW3 4335   1.751   3.524   1.921 -0.6941  0.2450 -1.7237
 1076SOL    MW4 4336   1.820   3.476   1.896 -0.4023  0.0882 -0.6629
 1077SOL     OW 4337   2.058   3.626   1.955  0.0014 -0.3834 -0.1146
 1077SOL    HW2 4338   2.058   3.713   1.915 -0.4902 -0.3439 -0.0343
 1077SOL    HW3 4339   1.977   3.585   1.924 -1.9080  0.7190  3.1540
 1077SOL    MW4 4340   2.047   3.632   1.946 -0.3154 -0.2328  0.3273
 1078SOL     OW 4341   2.059   3.883   1.841  0.0503 -0.1613 -0.1398
 1078SOL    HW2 4342   2.135   3.937   1.863  0.0111 -0.2457  0.2061
 1078SOL    HW3 4343   2.051   3.891   1.746 -0.4572  1.1021  0.0088
 1078SOL    MW4 4344   2.068   3.891   1.831 -0.0218 -0.0058 -0.0745
 1079SOL     OW 4345   1.807   3.981   1.943  0.0455  0.3359  0.1460
 1079SOL    HW2 4346   1.812   4.066   1.899 -1.1558  0.4844  0.2703
 1079SOL    HW3 4347   1.890   3.938   1.923  0.6460  1.5270  0.0537
 1079SOL    MW4 4348   1.819   3.986   1.934 -0.0338  0.5126  0.1502
 1080SOL     OW 4349   1.785   4.248   1.834 -0.2614  0.2142  0.4993
 1080SOL    HW2 4350   1.701   4.274   1.871 -0.5085  1.4341 -0.8928
 1080SOL    HW3 4351   1.783   4.279   1.743  1.5570 -0.0317  0.3469
 1080SOL    MW4 4352   1.774   4.255   1.827 -0.0541  0.3427  0.2955
 1081SOL     OW 4353   1.999   4.385   1.983  0.0481 -0.2194 -0.5654
 1081SOL    HW2 4354   2.074   4.334   1.952  0.0437  0.2178 -1.2991
 1081SOL    HW3 4355   1.923   4.345   1.941 -0.0166  0.0251 -0.6809
 1081SOL    MW4 4356   1.999   4.373   1.973  0.0390 -0.1294 -0.6774
 1082SOL     OW 4357   2.492   0.025   1.797 -0.0267 -0.5653  0.0587
 1082SOL    HW2 4358   2.550   0.078   1.850 -2.1490  0.0661  1.8288
 1082SOL    HW3 4359   2.495  -0.062   1.837 -0.5770 -0.4363  0.3810
 1082SOL    MW4 4360   2.500   0.020   1.809 -0.3793 -0.4649  0.3347
 1083SOL     OW 4361   2.259   0.107   1.935 -0.5722  0.1919  0.0590
 1083SOL    HW2 4362   2.275   0.103   2.029  0.4910 -0.1702 -0.1295
 1083SOL    HW3 4363   2.334   0.063   1.896 -0.6960  0.9016 -0.9939
 1083SOL    MW4 4364   2.271   0.101   1.942 -0.4483  0.2377 -0.1048
 1084SOL     OW 4365   2.265   0.371   1.846  0.1052 -0.3239 -0.6417
 1084SOL    HW2 4366   2.279   0.281   1.877  1.4422  0.5904  1.4858
 1084SOL    HW3 4367   2.177   0.393   1.876  0.4311 -0.3242  0.3122
 1084SOL    MW4 4368   2.255   0.362   1.854  0.3246 -0.2033 -0.2351
 1085SOL     OW 4369   2.479   0.513   1.966 -0.5709  0.1790  0.2142
 1085SOL    HW2 4370   2.562   0.488   1.925 -0.5871  1.6360 -0.7382
 1085SOL    HW3 4371   2.415   0.453   1.928 -0.2724  0.3349 -0.5559
 1085SOL    MW4 4372   2.481   0.502   1.956 -0.5337  0.3918 -0.0130
 1086SOL     OW 4373   2.427   0.779   1.866 -0.0378  0.6093 -0.2451
 1086SOL    HW2 4374   2.442   0.693   1.906 -2.1689  0.8448  1.1128
 1086SOL    HW3 4375   2.439   0.765   1.772 -0.6556 -1.2206 -0.0573
 1086SOL    MW4 4376   2.431   0.766   1.859 -0.4005  0.3989 -0.0412
 1087SOL     OW 4377   2.223   0.920   1.982  0.6315 -0.4034 -0.1901
 1087SOL    HW2 4378   2.212   0.913   2.077  1.0684  0.7711 -0.0384
 1087SOL    HW3 4379   2.295   0.860   1.962  1.6835  0.5982  0.4760
 1087SOL    MW4 4380   2.231   0.911   1.992  0.8279 -0.1163 -0.0822
 1088SOL     OW 4381   2.248   1.150   1.849 -0.3523  0.0993  0.2930
 1088SOL    HW2 4382   2.338   1.173   1.871  0.6778 -1.7006 -1.8597
 1088SOL    HW3 4383   2.234   1.064   1.889 -0.2513 -0.7524 -1.4630
 1088SOL    MW4 4384   2.258   1.142   1.857 -0.2031 -0.2506 -0.2227
 1089SOL     OW 4385   2.478   1.254   1.950  0.1383  0.1641  0.3405
 1089SOL    HW2 4386   2.481   1.266   2.045 -0.5303  1.5090  0.2126
 1089SOL    HW3 4387   2.466   1.343   1.916  0.4438 -0.3033 -1.0037
 1089SOL    MW4 4388   2.477   1.268   1.958  0.0904  0.2799  0.1463
 1090SOL     OW 4389   2.468   1.518   1.853  0.1197  0.4830 -0.1090
 1090SOL    HW2 4390   2.390   1.554   1.895  0.0127  1.0639 -0.7879
 1090SOL    HW3 4391   2.451   1.526   1.759 -0.4527 -2.5788 -0.2967
 1090SOL    MW4 4392   2.456   1.524   1.846  0.0301  0.1557 -0.2234
 1091SOL     OW 4393   2.264   1.665   1.981 -0.3352 -0.3143  0.2718
 1091SOL    HW2 4394   2.244   1.649   2.073 -0.3798 -0.0297  0.3132
 1091SOL    HW3 4395   2.185   1.639   1.934 -0.2679 -0.5759  0.3030
 1091SOL    MW4 4396   2.251   1.660   1.987 -0.3322 -0.3113  0.2813
 1092SOL     OW 4397   2.246   1.923   1.889 -0.0643  0.0991  0.1277
 1092SOL    HW2 4398   2.333   1.963   1.897 -0.5197  0.9889  0.7336
 1092SOL    HW3 4399   2.259   1.832   1.914  0.8180  0.0715 -0.4074
 1092SOL    MW4 4400   2.259   1.916   1.893 -0.0080  0.2128  0.1370
 1093SOL     OW 4401   2.480   2.062   1.917 -0.0331  0.3405  0.4820
 1093SOL    HW2 4402   2.561   2.016   1.895 -0.2997 -0.5707  1.3547
 1093SOL    HW3 4403   2.495   2.152   1.888  0.1855 -0.4534 -2.0653
 1093SOL    MW4 4404   2.493   2.068   1.910 -0.0394  0.1155  0.2610
 1094SOL     OW 4405   2.483   2.326   1.840  0.6292  0.3970 -0.2584
 1094SOL    HW2 4406   2.547   2.385   1.880  0.8973  0.4358 -0.7415
 1094SOL    HW3 4407   2.400   2.349   1.883  0.9860  0.1437  0.5836
 1094SOL    MW4 4408   2.480   2.337   1.851  0.7116  0.3687 -0.2111
 1095SOL     OW 4409   2.272   2.439   1.963 -0.0433 -0.3187  0.0921
 1095SOL    HW2 4410   2.269   2.431   2.058  0.9558 -0.4843  0.1194
 1095SOL    HW3 4411   2.272   2.534   1.946  1.5758 -0.2602  0.3414
 1095SOL    MW4 4412   2.272   2.451   1.973  0.3022 -0.3329  0.1286
 1096SOL     OW 4413   2.291   2.720   1.869  0.3356  0.3038 -0.1206
 1096SOL    HW2 4414   2.210   2.743   1.916  0.4275  0.8972 -0.2458
 1096SOL    HW3 4415   2.265   2.721   1.776  0.0990 -1.0833 -0.0881
 1096SOL    MW4 4416   2.277   2.723   1.863  0.3165  0.1991 -0.1328
 1097SOL     OW 4417   2.492   2.842   2.021 -0.1793 -0.2834  0.3522
 1097SOL    HW2 4418   2.505   2.933   1.992 -0.6587  0.1464  1.4843
 1097SOL    HW3 4419   2.416   2.812   1.972 -0.1450 -0.0136  0.1304
 1097SOL    MW4 4420   2.484   2.850   2.011 -0.2380 -0.1911  0.4723
 1098SOL     OW 4421   2.496   3.117   1.908  0.0722 -0.1207 -0.0381
 1098SOL    HW2 4422   2.406   3.138   1.932 -0.0311 -0.7884  0.1787
 1098SOL    HW3 4423   2.493   3.110   1.812 -0.0963 -0.0756 -0.0372
 1098SOL    MW4 4424   2.483   3.119   1.898  0.0364 -0.2028 -0.0094
 1099SOL     OW 4425   2.244   3.184   1.988  0.1727 -0.7204  0.1576
 1099SOL    HW2 4426   2.222   3.187   2.081  0.3043  0.1266  0.1645
 1099SOL    HW3 4427   2.173   3.134   1.948 -0.0945 -0.7394  0.6489
 1099SOL    MW4 4428   2.232   3.178   1.995  0.1549 -0.6111  0.2233
 1100SOL     OW 4429   2.270   3.446   1.857  0.2532 -0.4404 -0.4804
 1100SOL    HW2 4430   2.255   3.358   1.893  0.2662  0.1464  1.0206
 1100SOL    HW3 4431   2.205   3.500   1.901  2.3950  0.9187  1.1131
 1100SOL    MW4 4432   2.259   3.441   1.868  0.5375 -0.1837 -0.0721
 1101SOL     OW 4433   2.501   3.626   1.937 -0.1521  0.0613 -0.0846
 1101SOL    HW2 4434   2.481   3.624   2.031  0.9378 -0.5553  0.1490
 1101SOL    HW3 4435   2.425   3.587   1.895 -0.7494  0.5444  0.5215
 1101SOL    MW4 4436   2.489   3.621   1.944 -0.0871  0.0437  0.0262
 1102SOL     OW 4437   2.474   3.862   1.817 -0.1912 -0.4119  0.0068
 1102SOL    HW2 4438   2.408   3.910   1.868 -0.0411 -0.0385 -0.1465
 1102SOL    HW3 4439   2.493   3.784   1.869  0.4378  0.2834  0.8409
 1102SOL    MW4 4440   2.468   3.858   1.830 -0.0884 -0.2709  0.0966
 1103SOL     OW 4441   2.281   4.014   1.951 -0.6502  0.2238 -0.1200
 1103SOL    HW2 4442   2.271   4.027   2.045 -1.3141 -2.7427  0.2703
 1103SOL    HW3 4443   2.292   4.102   1.916 -0.0160  1.3590  2.7633
 1103SOL    MW4 4444   2.281   4.028   1.959 -0.6541 -0.0178  0.3119
 1104SOL     OW 4445   2.228   4.279   1.852  0.4934 -0.0571 -0.4238
 1104SOL    HW2 4446   2.303   4.333   1.878  0.3060  0.3908 -0.8257
 1104SOL    HW3 4447   2.216   4.297   1.759 -0.5496  0.3949 -0.2020
 1104SOL    MW4 4448   2.236   4.289   1.843  0.3310  0.0617 -0.4475
 1105SOL     OW 4449   2.487   4.425   1.898 -0.3749  0.1765  0.3498
 1105SOL    HW2 4450   2.489   4.426   1.994 -1.7621 -1.3559  0.4153
 1105SOL    HW3 4451   2.562   4.371   1.873 -0.5291 -0.1552  0.6016
 1105SOL    MW4 4452   2.497   4.418   1.908 -0.5783 -0.0695  0.3917
 1106SOL     OW 4453   2.928   0.024   1.813 -0.3027  0.3404 -0.0452
 1106SOL    HW2 4454   2.995   0.076   1.856 -1.1201  0.3695  1.2260
 1106SOL    HW3 4455   2.920  -0.055   1.866 -1.3748  0.4051 -0.0971
 1106SOL    MW4 4456   2.935   0.021   1.825 -0.5520  0.3528  0.1157
 1107SOL     OW 4457   2.720   0.146   1.936  0.3603 -0.2254 -0.1621
 1107SOL    HW2 4458   2.716   0.120   2.028 -1.3370 -1.7857 -0.6336
 1107SOL    HW3 4459   2.798   0.103   1.902  0.5662 -0.2775  0.3812
 1107SOL    MW4 4460   2.729   0.137   1.944  0.1636 -0.4381 -0.1526
 1108SOL     OW 4461   2.716   0.421   1.858  0.5172 -0.3977 -0.2016
 1108SOL    HW2 4462   2.778   0.474   1.909 -0.2151 -0.5166  0.8208
 1108SOL    HW3 4463   2.723   0.333   1.895  1.2396 -0.8899 -1.4601
 1108SOL    MW4 4464   2.725   0.417   1.870  0.5159 -0.4783 -0.2327
 1109SOL     OW 4465   2.921   0.557   1.971  0.3410 -0.0454 -0.6489
 1109SOL    HW2 4466   2.995   0.523   1.920 -0.3674 -0.5837 -1.3292
 1109SOL    HW3 4467   2.898   0.639   1.927  0.4212  0.0385 -0.5356
 1109SOL    MW4 4468   2.928   0.563   1.958  0.2581 -0.1054 -0.7237
 1110SOL     OW 4469   2.894   0.755   1.809  0.0222  0.1763  0.0102
 1110SOL    HW2 4470   2.973   0.798   1.840  0.0446  0.3798 -0.3342
 1110SOL    HW3 4471   2.825   0.788   1.867  0.3525 -0.7951  0.9840
 1110SOL    MW4 4472   2.895   0.765   1.821  0.0688  0.0750  0.0932
 1111SOL     OW 4473   2.699   0.859   1.955  0.6615 -0.0103 -0.0934
 1111SOL    HW2 4474   2.694   0.954   1.951 -0.4576 -0.0566 -0.1291
 1111SOL    HW3 4475   2.610   0.830   1.934  0.8897 -1.0482  0.3451
 1111SOL    MW4 4476   2.686   0.868   1.952  0.5440 -0.1534 -0.0402
 1112SOL     OW 4477   2.729   1.139   1.909  0.1653  0.7804  0.1591
 1112SOL    HW2 4478   2.641   1.177   1.917  0.2599  1.4681 -1.8147
 1112SOL    HW3 4479   2.743   1.131   1.814  1.3893 -1.3129  0.4843
 1112SOL    MW4 4480   2.719   1.143   1.897  0.3393  0.5950 -0.0584
 1113SOL     OW 4481   2.961   1.278   1.975  0.1814  0.4968  0.2234
 1113SOL    HW2 4482   2.945   1.363   1.934  0.7299  0.2745 -0.4684
 1113SOL    HW3 4483   2.881   1.228   1.960  0.1353  0.6422 -0.0096
 1113SOL    MW4 4484   2.948   1.283   1.968  0.2477  0.4866  0.1014
 1114SOL     OW 4485   2.902   1.543   1.839  0.1346 -0.4402  0.5702
 1114SOL    HW2 4486   2.985   1.576   1.873  0.4784 -1.1949  0.4754
 1114SOL    HW3 4487   2.919   1.524   1.747  0.0810 -1.3168  0.7333
 1114SOL    MW4 4488   2.915   1.545   1.831  0.1729 -0.6555  0.5792
 1115SOL     OW 4489   2.683   1.635   1.974 -0.1499  0.2510 -0.2933
 1115SOL    HW2 4490   2.752   1.604   1.917  0.0973  1.8502 -0.9040
 1115SOL    HW3 4491   2.603   1.596   1.939  0.1063  0.5572 -1.2321
 1115SOL    MW4 4492   2.681   1.626   1.962 -0.0835  0.5024 -0.4978
 1116SOL     OW 4493   2.694   1.906   1.883  0.0716  0.4520  0.1829
 1116SOL    HW2 4494   2.761   1.953   1.934  0.7682 -2.5990  2.1934
 1116SOL    HW3 4495   2.699   1.816   1.915 -2.3972 -0.6403 -2.3854
 1116SOL    MW4 4496   2.704   1.901   1.894 -0.1622 -0.0946  0.1093
 1117SOL     OW 4497   2.898   2.071   1.996 -0.4739 -0.6127  0.1140
 1117SOL    HW2 4498   2.896   2.059   2.090 -1.0977 -1.0290  0.0470
 1117SOL    HW3 4499   2.980   2.031   1.968  3.0061  5.1052  1.2601
 1117SOL    MW4 4500   2.908   2.064   2.004 -0.0971  0.0868  0.2564
 1118SOL     OW 4501   2.945   2.326   1.895 -0.3516 -0.2604  0.2632
 1118SOL    HW2 4502   3.015   2.381   1.932 -0.4669 -0.4776  0.8107
 1118SOL    HW3 4503   2.956   2.242   1.939 -0.0697 -0.7332 -0.6964
 1118SOL    MW4 4504   2.956   2.322   1.906 -0.3296 -0.3515  0.2088
 1119SOL     OW 4505   2.702   2.451   1.964  1.0175  0.0751 -0.4106
 1119SOL    HW2 4506   2.704   2.450   2.060  0.8626  0.3906 -0.4051
 1119SOL    HW3 4507   2.786   2.413   1.938  1.3034  0.5295 -0.1532
 1119SOL    MW4 4508   2.713   2.446   1.973  1.0348  0.1767 -0.3759
 1120SOL     OW 4509   2.686   2.706   1.872 -0.2695 -0.4293 -0.0362
 1120SOL    HW2 4510   2.614   2.756   1.911  1.4948  1.7805  0.4905
 1120SOL    HW3 4511   2.683   2.622   1.917 -0.2933  0.9305  2.6097
 1120SOL    MW4 4512   2.676   2.702   1.883 -0.0399  0.0417  0.3824
 1121SOL     OW 4513   2.905   2.851   1.973 -0.2356 -0.1015 -0.5901
 1121SOL    HW2 4514   2.912   2.940   1.938  0.7433  0.5756  1.2550
 1121SOL    HW3 4515   2.829   2.814   1.929 -0.5940  1.6181 -1.4662
 1121SOL    MW4 4516   2.896   2.858   1.963 -0.1537  0.2147 -0.4623
 1122SOL     OW 4517   2.927   3.122   1.847 -0.1505  0.1369  0.2057
 1122SOL    HW2 4518   3.004   3.148   1.897 -0.0515 -0.5918  0.4365
 1122SOL    HW3 4519   2.852   3.151   1.899 -0.0260  1.7139 -0.4854
 1122SOL    MW4 4520   2.927   3.129   1.860 -0.1210  0.2488  0.1450
 1123SOL     OW 4521   2.716   3.243   2.005  0.1811 -0.1033 -0.5017
 1123SOL    HW2 4522   2.721   3.323   1.952  0.8539  0.8419  0.9406
 1123SOL    HW3 4523   2.636   3.200   1.975 -1.1055  1.9594 -0.1618
 1123SOL    MW4 4524   2.706   3.248   1.994  0.1001  0.2936 -0.2666
 1124SOL     OW 4525   2.728   3.475   1.855  0.0432 -0.5565  0.7433
 1124SOL    HW2 4526   2.805   3.528   1.874 -0.1577 -0.2108  0.6028
 1124SOL    HW3 4527   2.655   3.526   1.890 -0.3561  0.2220 -1.1855
 1124SOL    MW4 4528   2.729   3.489   1.862 -0.0360 -0.4081  0.4703
 1125SOL     OW 4529   2.959   3.620   1.937  0.3753  0.0506 -0.0200
 1125SOL    HW2 4530   2.944   3.623   2.031  0.8463  2.4407  0.0067
 1125SOL    HW3 4531   3.035   3.562   1.927  1.0824  0.7456  1.1732
 1125SOL    MW4 4532   2.967   3.613   1.948  0.5307  0.4576  0.1409
 1126SOL     OW 4533   2.919   3.881   1.851  0.6666 -0.1616 -0.6880
 1126SOL    HW2 4534   2.932   3.790   1.875  1.5893 -0.1736 -1.2160
 1126SOL    HW3 4535   2.931   3.883   1.757 -1.4126  0.1553 -0.9650
 1126SOL    MW4 4536   2.923   3.870   1.842  0.5140 -0.1214 -0.7942
 1127SOL     OW 4537   2.685   4.050   1.912 -0.1749 -0.0020 -0.3811
 1127SOL    HW2 4538   2.766   4.001   1.897  0.5634  1.7079 -2.1129
 1127SOL    HW3 4539   2.617   3.997   1.870  0.2502 -0.6998 -0.2049
 1127SOL    MW4 4540   2.687   4.036   1.904 -0.0214  0.1316 -0.5864
 1128SOL     OW 4541   2.723   4.291   1.833  0.4304  0.2703 -0.5936
 1128SOL    HW2 4542   2.716   4.199   1.857  1.6861  0.3254  0.0329
 1128SOL    HW3 4543   2.735   4.290   1.738  2.2191 -0.3147 -0.3709
 1128SOL    MW4 4544   2.724   4.279   1.823  0.8321  0.2004 -0.4816
 1129SOL     OW 4545   2.951   4.420   1.918 -0.0287  0.2640 -0.5308
 1129SOL    HW2 4546   2.938   4.392   2.009  0.0924  0.8325 -0.3356
 1129SOL    HW3 4547   2.876   4.383   1.871 -1.0492  1.4491  0.1306
 1129SOL    MW4 4548   2.939   4.411   1.924 -0.1474  0.4954 -0.4177
 1130SOL     OW 4549   3.355   0.033   1.811 -0.0490 -0.6707 -0.4849
 1130SOL    HW2 4550   3.378  -0.051   1.850  2.2057 -0.2480 -0.8126
 1130SOL    HW3 4551   3.363   0.019   1.716 -0.0714 -0.2207 -0.5573
 1130SOL    MW4 4552   3.359   0.020   1.803  0.2455 -0.5555 -0.5377
 1131SOL     OW 4553   3.140   0.160   1.917  0.8323 -0.0028 -0.1039
 1131SOL    HW2 4554   3.139   0.124   2.006 -0.2514 -2.1306 -0.9191
 1131SOL    HW3 4555   3.208   0.111   1.871  0.2864 -0.0702 -0.8686
 1131SOL    MW4 4556   3.149   0.149   1.922  0.6173 -0.2924 -0.3124
 1132SOL     OW 4557   3.148   0.430   1.852 -0.0790 -0.2762 -0.3281
 1132SOL    HW2 4558   3.141   0.342   1.887 -0.4800  0.2429  0.9373
 1132SOL    HW3 4559   3.150   0.419   1.757  0.3986 -1.6671 -0.1555
 1132SOL    MW4 4560   3.147   0.417   1.844 -0.0689 -0.3912 -0.1384
 1133SOL     OW 4561   3.379   0.532   1.989  0.0509 -0.2425  0.0227
 1133SOL    HW2 4562   3.452   0.486   1.947 -0.1114  0.1265 -0.6753
 1133SOL    HW3 4563   3.302   0.501   1.941 -0.4326 -1.8188  1.7670
 1133SOL    MW4 4564   3.379   0.522   1.977 -0.0343 -0.4018  0.1608
 1134SOL     OW 4565   3.375   0.784   1.856  0.4623  0.0256  0.2339
 1134SOL    HW2 4566   3.296   0.821   1.894 -0.5629 -0.0760 -1.7432
 1134SOL    HW3 4567   3.393   0.706   1.909  0.1717  0.9282  1.6896
 1134SOL    MW4 4568   3.367   0.779   1.868  0.2887  0.1313  0.1651
 1135SOL     OW 4569   3.112   0.873   1.914  0.3953 -0.3561 -0.0833
 1135SOL    HW2 4570   3.095   0.880   2.008 -2.3658 -0.1626 -0.5438
 1135SOL    HW3 4571   3.139   0.961   1.888 -0.4154  0.0023  0.2635
 1135SOL    MW4 4572   3.113   0.886   1.923 -0.0760 -0.2833 -0.0983
 1136SOL     OW 4573   3.185   1.142   1.861 -0.7464  0.5436 -0.0136
 1136SOL    HW2 4574   3.264   1.193   1.881 -0.2604 -0.2111  0.0139
 1136SOL    HW3 4575   3.113   1.197   1.892 -0.2767  1.5699 -0.7109
 1136SOL    MW4 4576   3.186   1.156   1.868 -0.6203  0.5794 -0.1019
 1137SOL     OW 4577   3.407   1.293   1.942  0.1876  0.2761 -0.0376
 1137SOL    HW2 4578   3.384   1.283   2.035  3.3716  0.7506  0.8498
 1137SOL    HW3 4579   3.392   1.386   1.924  0.3298  0.3511  0.2230
 1137SOL    MW4 4580   3.402   1.304   1.952  0.6264  0.3486  0.1138
 1138SOL     OW 4581   3.346   1.545   1.813  0.2514 -0.2753 -0.5384
 1138SOL    HW2 4582   3.418   1.596   1.851  0.5309 -2.4674  1.9784
 1138SOL    HW3 4583   3.268   1.577   1.859 -0.0085  0.1009 -1.2351
 1138SOL    MW4 4584   3.345   1.556   1.824  0.2540 -0.5149 -0.2983
 1139SOL     OW 4585   3.128   1.621   1.963 -0.4045  0.0125  0.0604
 1139SOL    HW2 4586   3.130   1.614   2.059  1.5280  1.0272  0.1343
 1139SOL    HW3 4587   3.113   1.714   1.946  0.4787  0.0430 -0.5977
 1139SOL    MW4 4588   3.127   1.632   1.974 -0.0330  0.1504 -0.0167
 1140SOL     OW 4589   3.100   1.897   1.885  0.3692 -0.0311  0.0878
 1140SOL    HW2 4590   3.181   1.942   1.908 -0.4883  1.4939  0.1723
 1140SOL    HW3 4591   3.102   1.889   1.790  0.2465  0.7136  0.0249
 1140SOL    MW4 4592   3.111   1.902   1.876  0.2399  0.2684  0.0907
 1141SOL     OW 4593   3.332   2.019   1.969  0.2673 -0.0513 -0.1686
 1141SOL    HW2 4594   3.410   1.979   1.928  0.5729  0.5342 -0.1607
 1141SOL    HW3 4595   3.331   2.109   1.936 -1.0242 -0.3615 -1.0243
 1141SOL    MW4 4596   3.343   2.025   1.959  0.1372 -0.0150 -0.2805
 1142SOL     OW 4597   3.356   2.287   1.899  0.0576 -0.5439  0.0554
 1142SOL    HW2 4598   3.286   2.348   1.923  0.3803 -0.5690  1.0928
 1142SOL    HW3 4599   3.376   2.308   1.808  0.0839  0.8222  0.3704
 1142SOL    MW4 4600   3.349   2.298   1.890  0.1037 -0.3670  0.2338
 1143SOL     OW 4601   3.174   2.474   1.985 -0.2819 -0.3075 -0.0510
 1143SOL    HW2 4602   3.172   2.471   2.080 -2.8114 -1.4947 -0.1031
 1143SOL    HW3 4603   3.168   2.567   1.964  2.1231  0.0944  0.9442
 1143SOL    MW4 4604   3.173   2.486   1.994 -0.2983 -0.4111  0.0734
 1144SOL     OW 4605   3.142   2.733   1.919  0.3982  0.2667  0.1479
 1144SOL    HW2 4606   3.060   2.762   1.958 -0.3904  0.2608 -1.5018
 1144SOL    HW3 4607   3.127   2.735   1.825  3.2567  3.1209 -0.3128
 1144SOL    MW4 4608   3.129   2.737   1.912  0.6713  0.6425 -0.1306
 1145SOL     OW 4609   3.391   2.839   1.997  0.6682  0.1673  0.5318
 1145SOL    HW2 4610   3.387   2.842   2.093 -1.0749  2.4290  0.4133
 1145SOL    HW3 4611   3.313   2.790   1.971  0.7925  0.1205  0.2418
 1145SOL    MW4 4612   3.380   2.833   2.006  0.4547  0.4595  0.4779
 1146SOL     OW 4613   3.367   3.079   1.872  0.0936  0.2649 -0.0348
 1146SOL    HW2 4614   3.447   3.127   1.892 -0.7806  0.9756  1.8728
 1146SOL    HW3 4615   3.375   2.997   1.920 -0.2481  0.2715  0.0347
 1146SOL    MW4 4616   3.378   3.075   1.881 -0.0668  0.3595  0.2260
 1147SOL     OW 4617   3.149   3.215   1.991  0.3527  0.1857 -0.1003
 1147SOL    HW2 4618   3.160   3.301   1.951  0.1022  0.1260 -0.2994
 1147SOL    HW3 4619   3.221   3.162   1.957  0.6728  0.4003  0.2466
 1147SOL    MW4 4620   3.160   3.219   1.981  0.3618  0.2062 -0.0808
 1148SOL     OW 4621   3.186   3.460   1.853 -0.5801  0.1136 -0.5883
 1148SOL    HW2 4622   3.263   3.514   1.873 -0.7790 -0.0453  0.6395
 1148SOL    HW3 4623   3.172   3.473   1.760  1.6718 -0.8086 -1.0911
 1148SOL    MW4 4624   3.194   3.469   1.844 -0.3092 -0.0291 -0.4926
 1149SOL     OW 4625   3.431   3.587   1.971  0.2980 -0.1489  0.0675
 1149SOL    HW2 4626   3.490   3.537   1.915 -1.1091 -0.2617 -1.3794
 1149SOL    HW3 4627   3.419   3.670   1.924 -1.7461 -0.6673 -0.3793
 1149SOL    MW4 4628   3.437   3.592   1.957 -0.1573 -0.2321 -0.1824
 1150SOL     OW 4629   3.375   3.824   1.842 -0.2959  0.1457 -0.0296
 1150SOL    HW2 4630   3.304   3.875   1.880  0.7936  1.2289  0.5973
 1150SOL    HW3 4631   3.373   3.845   1.749 -1.2567 -0.4011 -0.1360
 1150SOL    MW4 4632   3.366   3.833   1.835 -0.2789  0.2165  0.0390
 1151SOL     OW 4633   3.147   4.018   1.930 -0.0507 -0.2732  0.4087
 1151SOL    HW2 4634   3.150   4.002   2.024 -1.3800  0.2626  0.5620
 1151SOL    HW3 4635   3.060   3.987   1.903  0.4975 -0.8608 -0.7317
 1151SOL    MW4 4636   3.136   4.012   1.939 -0.1538 -0.2800  0.2785
 1152SOL     OW 4637   3.196   4.297   1.866 -0.4407 -0.4182  0.7754
 1152SOL    HW2 4638   3.192   4.206   1.894 -1.5790 -0.7739 -0.4662
 1152SOL    HW3 4639   3.107   4.330   1.877 -0.7429 -0.3447 -1.5459
 1152SOL    MW4 4640   3.184   4.289   1.871 -0.6307 -0.4554  0.3053
 1153SOL     OW 4641   3.430   4.434   1.946 -0.1367  0.0944 -0.0174
 1153SOL    HW2 4642   3.501   4.375   1.922 -0.4327  0.1791 -1.1093
 1153SOL    HW3 4643   3.352   4.396   1.906 -0.6105  0.3241  0.6747
 1153SOL    MW4 4644   3.429   4.421   1.938 -0.2382  0.1359 -0.0702
 1154SOL     OW 4645   3.771   4.633   1.860 -0.3238 -0.0082 -0.6252
 1154SOL    HW2 4646   3.766   4.551   1.910 -0.9652  0.2986 -0.1898
 1154SOL    HW3 4647   3.704   4.689   1.898  1.4955  1.4968  0.4552
 1154SOL    MW4 4648   3.761   4.629   1.872 -0.1684  0.2308 -0.4252
 1155SOL     OW 4649   3.573   0.136   1.956  0.1674 -0.1227 -0.4205
 1155SOL    HW2 4650   3.567   0.130   2.051  1.5233 -0.7244 -0.3675
 1155SOL    HW3 4651   3.496   0.089   1.924  0.3748 -0.9826  0.3552
 1155SOL    MW4 4652   3.562   0.129   1.964  0.3736 -0.3155 -0.3112
 1156SOL     OW 4653   3.593   0.410   1.873  0.5853  0.3504  0.3404
 1156SOL    HW2 4654   3.584   0.318   1.897  3.1468  0.1079  0.4395
 1156SOL    HW3 4655   3.605   0.410   1.779  1.3915  0.5211  0.4403
 1156SOL    MW4 4656   3.593   0.398   1.864  1.0296  0.3409  0.3667
 1157SOL     OW 4657   3.821   0.471   2.003 -0.3507 -0.2962  0.5190
 1157SOL    HW2 4658   3.852   0.560   1.988  0.3242 -0.7758 -1.0423
 1157SOL    HW3 4659   3.737   0.466   1.957  0.2795 -0.8732 -0.5879
 1157SOL    MW4 4660   3.814   0.482   1.995 -0.1785 -0.4356  0.1670
 1158SOL     OW 4661   3.840   0.749   1.882 -0.0612 -0.3235 -0.2782
 1158SOL    HW2 4662   3.761   0.800   1.899 -0.6294 -1.0570 -0.6805
 1158SOL    HW3 4663   3.838   0.731   1.788  0.2658 -0.8654 -0.1872
 1158SOL    MW4 4664   3.830   0.753   1.871 -0.0930 -0.4918 -0.3192
 1159SOL     OW 4665   3.610   0.904   1.931 -0.5337 -0.0981 -0.1116
 1159SOL    HW2 4666   3.609   0.990   1.889 -0.8309 -0.4597 -0.8402
 1159SOL    HW3 4667   3.539   0.856   1.890 -1.3112 -0.2110  1.3202
 1159SOL    MW4 4668   3.601   0.909   1.920 -0.6755 -0.1607 -0.0188
 1160SOL     OW 4669   3.626   1.154   1.819 -0.0278 -0.2419  0.1682
 1160SOL    HW2 4670   3.558   1.183   1.880  0.7820  0.2979  0.8220
 1160SOL    HW3 4671   3.605   1.199   1.737 -0.4202 -0.0309  0.3825
 1160SOL    MW4 4672   3.614   1.164   1.817  0.0273 -0.1429  0.2827
 1161SOL     OW 4673   3.824   1.315   1.931 -0.2588  0.2859 -0.0074
 1161SOL    HW2 4674   3.805   1.312   2.025 -0.7221 -0.4261 -0.1175
 1161SOL    HW3 4675   3.756   1.261   1.891  0.1564  0.2746 -0.7171
 1161SOL    MW4 4676   3.813   1.307   1.938 -0.2651  0.1905 -0.1156
 1162SOL     OW 4677   3.821   1.571   1.825  0.2579 -0.1330 -0.6270
 1162SOL    HW2 4678   3.888   1.606   1.884 -0.1498  0.0866 -0.2863
 1162SOL    HW3 4679   3.798   1.486   1.862 -0.8044  0.4821  0.1953
 1162SOL    MW4 4680   3.827   1.565   1.838  0.0640 -0.0229 -0.4736
 1163SOL     OW 4681   3.573   1.662   1.918 -0.3038 -0.2432 -0.3643
 1163SOL    HW2 4682   3.561   1.754   1.895  0.2255 -0.2900 -0.8355
 1163SOL    HW3 4683   3.656   1.637   1.877 -0.2467 -0.8214  0.0887
 1163SOL    MW4 4684   3.582   1.671   1.910 -0.2264 -0.3257 -0.3667
 1164SOL     OW 4685   3.579   1.918   1.859 -0.7863  0.0015 -0.0021
 1164SOL    HW2 4686   3.649   1.966   1.904  0.5702 -1.7714 -0.1908
 1164SOL    HW3 4687   3.600   1.925   1.766 -1.4472  0.3402 -0.1350
 1164SOL    MW4 4688   3.591   1.925   1.853 -0.6946 -0.1877 -0.0445
 1165SOL     OW 4689   3.781   2.070   1.993 -0.2001  0.1640 -0.1583
 1165SOL    HW2 4690   3.861   2.030   1.958 -0.2288 -0.5094  0.5223
 1165SOL    HW3 4691   3.781   2.159   1.958  0.1540 -0.2623 -1.2442
 1165SOL    MW4 4692   3.792   2.077   1.984 -0.1572  0.0189 -0.2118
 1166SOL     OW 4693   3.814   2.314   1.854  0.4875  0.4142 -0.2333
 1166SOL    HW2 4694   3.896   2.346   1.893 -0.0573  1.4386  0.0766
 1166SOL    HW3 4695   3.745   2.358   1.903 -0.3526 -2.2709  1.1338
 1166SOL    MW4 4696   3.816   2.324   1.866  0.3048  0.1951 -0.0121
 1167SOL     OW 4697   3.597   2.405   1.991  0.1949  0.0549 -0.2157
 1167SOL    HW2 4698   3.591   2.495   1.958  1.0245  0.0878 -0.2896
 1167SOL    HW3 4699   3.523   2.360   1.952 -0.4353  0.8017  0.1112
 1167SOL    MW4 4700   3.587   2.411   1.982  0.2212  0.1578 -0.1823
 1168SOL     OW 4701   3.566   2.683   1.863  0.3601  0.2453  0.1869
 1168SOL    HW2 4702   3.651   2.704   1.902  1.1264 -0.2478 -1.1937
 1168SOL    HW3 4703   3.503   2.734   1.915  1.6397  1.7295  0.3311
 1168SOL    MW4 4704   3.569   2.693   1.875  0.6300  0.3761  0.0238
 1169SOL     OW 4705   3.818   2.756   1.982  0.4097  0.1709  0.0734
 1169SOL    HW2 4706   3.802   2.761   2.077  0.4346 -0.1427  0.0959
 1169SOL    HW3 4707   3.824   2.847   1.954 -0.4128  0.2783  0.2371
 1169SOL    MW4 4708   3.816   2.769   1.991  0.3045  0.1437  0.0980
 1170SOL     OW 4709   3.822   3.017   1.881 -0.1410 -0.0486  0.1826
 1170SOL    HW2 4710   3.752   3.076   1.908  1.7580  2.6059 -0.4556
 1170SOL    HW3 4711   3.823   3.023   1.786 -0.7543 -2.1406  0.0320
 1170SOL    MW4 4712   3.813   3.026   1.872  0.0286  0.0256  0.0785
 1171SOL     OW 4713   3.606   3.182   1.932  0.2509 -0.0716  0.4989
 1171SOL    HW2 4714   3.579   3.202   2.021  0.0969 -1.2927  0.7383
 1171SOL    HW3 4715   3.592   3.264   1.884  0.6144  0.6762  1.6489
 1171SOL    MW4 4716   3.600   3.196   1.937  0.2785 -0.1340  0.6822
 1172SOL     OW 4717   3.599   3.444   1.812 -0.2590 -0.2520 -0.2065
 1172SOL    HW2 4718   3.677   3.494   1.836 -0.4924 -0.5919  1.3131
 1172SOL    HW3 4719   3.584   3.465   1.720  0.5293  1.2713  0.0007
 1172SOL    MW4 4720   3.608   3.453   1.803 -0.1858 -0.0959  0.0213
 1173SOL     OW 4721   3.805   3.617   1.947 -0.0595 -0.9076 -0.0263
 1173SOL    HW2 4722   3.881   3.568   1.915  2.3624  0.8214  2.7474
 1173SOL    HW3 4723   3.816   3.704   1.909 -1.6822 -1.1188 -1.0332
 1173SOL    MW4 4724   3.817   3.622   1.938  0.0460 -0.7073  0.2068
 1174SOL     OW 4725   3.826   3.884   1.849 -0.2387  0.1980  0.2339
 1174SOL    HW2 4726   3.755   3.946   1.866 -0.1813  0.7147 -1.3341
 1174SOL    HW3 4727   3.818   3.864   1.755  0.6770 -1.0008  0.4052
 1174SOL    MW4 4728   3.815   3.889   1.838 -0.1103  0.1080  0.0496
 1175SOL     OW 4729   3.568   4.007   1.952  0.1755 -0.1399  0.0313
 1175SOL    HW2 4730   3.582   3.996   2.046 -0.3911 -1.2218 -0.0017
 1175SOL    HW3 4731   3.498   3.945   1.930 -0.2035  0.6107 -0.9723
 1175SOL    MW4 4732   3.561   3.997   1.961  0.0507 -0.1836 -0.1054
 1176SOL     OW 4733   3.619   4.271   1.866 -0.3710  0.0586 -0.2030
 1176SOL    HW2 4734   3.694   4.318   1.901 -0.0058  0.0854 -1.0009
 1176SOL    HW3 4735   3.620   4.186   1.910 -0.2934  0.3250  0.3120
 1176SOL    MW4 4736   3.629   4.266   1.876 -0.3125  0.0973 -0.2403
 1177SOL     OW 4737   3.832   4.394   1.985  0.6472  0.2583 -0.6339
 1177SOL    HW2 4738   3.823   4.368   2.077 -0.2695  0.4070 -0.6806
 1177SOL    HW3 4739   3.913   4.352   1.957  0.9406  0.2142  0.2453
 1177SOL    MW4 4740   3.841   4.385   1.994  0.5650  0.2721 -0.5241
 1178SOL     OW 4741   4.266   4.664   1.877 -0.4380  0.3748  0.4026
 1178SOL    HW2 4742   4.185   4.692   1.921  0.1692  1.8141  0.6234
 1178SOL    HW3 4743   4.334   4.719   1.916  0.3509  0.5336 -1.1841
 1178SOL    MW4 4744   4.264   4.675   1.888 -0.2538  0.5856  0.2224
 1179SOL     OW 4745   4.019   0.062   1.957 -0.2705  0.4845  0.1897
 1179SOL    HW2 4746   3.999   0.076   2.049  0.0382  0.4339  0.2639
 1179SOL    HW3 4747   3.941   0.019   1.922 -0.0232 -0.3346  0.6320
 1179SOL    MW4 4748   4.006   0.058   1.964 -0.1971  0.3697  0.2578
 1180SOL     OW 4749   4.038   0.351   1.879 -0.5164  0.4023  0.3162
 1180SOL    HW2 4750   4.036   0.259   1.904 -0.3842  0.3586  0.1697
 1180SOL    HW3 4751   3.965   0.391   1.926  0.7654  0.6717  2.1449
 1180SOL    MW4 4752   4.028   0.344   1.888 -0.3298  0.4321  0.5382
 1181SOL     OW 4753   4.269   0.505   1.932  0.0080  0.0020 -0.0500
 1181SOL    HW2 4754   4.265   0.515   2.028 -1.1352  0.0277 -0.0924
 1181SOL    HW3 4755   4.197   0.446   1.911  0.3644 -0.1406 -0.8848
 1181SOL    MW4 4756   4.259   0.499   1.942 -0.0958 -0.0134 -0.1658
 1182SOL     OW 4757   4.279   0.772   1.839 -0.2099 -0.4523 -0.3457
 1182SOL    HW2 4758   4.285   0.680   1.865  0.4298 -0.4694 -0.5316
 1182SOL    HW3 4759   4.277   0.769   1.743  1.6549 -0.1939 -0.4136
 1182SOL    MW4 4760   4.279   0.759   1.830  0.1205 -0.4204 -0.3792
 1183SOL     OW 4761   4.050   0.919   1.935 -0.0834  0.0034  0.0056
 1183SOL    HW2 4762   4.133   0.874   1.917 -0.8325 -1.4306  0.0499
 1183SOL    HW3 4763   3.984   0.850   1.931 -1.2795  1.1274  0.0164
 1183SOL    MW4 4764   4.052   0.904   1.932 -0.3400 -0.0375  0.0129
 1184SOL     OW 4765   4.041   1.171   1.856  0.0477  0.4207  0.0510
 1184SOL    HW2 4766   4.034   1.082   1.892  2.7495  0.6466  1.2794
 1184SOL    HW3 4767   3.966   1.218   1.892  0.5686 -0.4239  2.3169
 1184SOL    MW4 4768   4.030   1.165   1.866  0.4729  0.3391  0.5120
 1185SOL     OW 4769   4.292   1.267   1.934  0.0073 -0.2949 -0.1879
 1185SOL    HW2 4770   4.276   1.265   2.028 -0.0710 -0.1393 -0.1985
 1185SOL    HW3 4771   4.208   1.241   1.895 -0.0851  0.0635 -0.2288
 1185SOL    MW4 4772   4.278   1.263   1.941 -0.0152 -0.2271 -0.1947
 1186SOL     OW 4773   4.280   1.541   1.895  0.1224 -0.1715  0.0102
 1186SOL    HW2 4774   4.283   1.446   1.909  1.1237 -0.4430 -1.8841
 1186SOL    HW3 4775   4.265   1.551   1.801 -0.4206  1.5561  0.2666
 1186SOL    MW4 4776   4.278   1.530   1.885  0.1829  0.0206 -0.2059
 1187SOL     OW 4777   4.035   1.674   1.967 -0.0104  0.4994 -0.1843
 1187SOL    HW2 4778   4.024   1.662   2.061  0.1267  0.7250 -0.1399
 1187SOL    HW3 4779   4.117   1.628   1.946 -0.0319  0.4638 -0.1914
 1187SOL    MW4 4780   4.044   1.666   1.977  0.0048  0.5245 -0.1794
 1188SOL     OW 4781   4.029   1.933   1.870 -0.2184  0.1791  0.3928
 1188SOL    HW2 4782   4.048   1.844   1.898  0.0150  0.4826  1.2214
 1188SOL    HW3 4783   4.051   1.935   1.777  3.1650  0.3290  1.1234
 1188SOL    MW4 4784   4.034   1.922   1.861  0.2588  0.2389  0.5985
 1189SOL     OW 4785   4.253   2.093   1.978  0.3358 -0.6372 -0.0228
 1189SOL    HW2 4786   4.247   2.078   2.073 -1.1703 -1.6675 -0.2624
 1189SOL    HW3 4787   4.174   2.052   1.943  0.1105  1.0803 -1.5715
 1189SOL    MW4 4788   4.242   2.085   1.986  0.1073 -0.5466 -0.2587
 1190SOL     OW 4789   4.288   2.326   1.849  0.1061 -0.2941  0.4676
 1190SOL    HW2 4790   4.285   2.241   1.892  0.5532  0.1772  1.4609
 1190SOL    HW3 4791   4.355   2.375   1.897 -0.4829  0.7761  0.2251
 1190SOL    MW4 4792   4.297   2.321   1.861  0.0874 -0.0907  0.5666
 1191SOL     OW 4793   4.052   2.425   1.955 -0.0689 -0.3886 -0.0662
 1191SOL    HW2 4794   4.063   2.436   2.049 -1.0777  0.4834 -0.0421
 1191SOL    HW3 4795   4.138   2.398   1.924  0.1106 -1.3116  1.1910
 1191SOL    MW4 4796   4.065   2.423   1.963 -0.1783 -0.3953  0.1029
 1192SOL     OW 4797   4.027   2.671   1.816 -0.1930 -0.0927 -0.4957
 1192SOL    HW2 4798   4.032   2.582   1.852 -0.4098  0.0307 -0.1525
 1192SOL    HW3 4799   3.957   2.713   1.866  0.4964  0.5496 -0.0616
 1192SOL    MW4 4800   4.018   2.665   1.827 -0.1307  0.0083 -0.3932
 1193SOL     OW 4801   4.230   2.845   1.930 -0.2168  0.1687  0.2088
 1193SOL    HW2 4802   4.223   2.849   2.025 -1.7766 -0.1361  0.1107
 1193SOL    HW3 4803   4.166   2.779   1.903  1.2350 -0.8229 -0.9405
 1193SOL    MW4 4804   4.221   2.837   1.939 -0.2311 -0.0023  0.0442
 1194SOL     OW 4805   4.268   3.121   1.868 -0.4137  0.2354  0.1194
 1194SOL    HW2 4806   4.177   3.148   1.878 -0.4515  0.6167 -1.1407
 1194SOL    HW3 4807   4.267   3.026   1.879 -0.6591  0.4428  2.0532
 1194SOL    MW4 4808   4.256   3.112   1.870 -0.4511  0.3131  0.2083
 1195SOL     OW 4809   4.015   3.202   1.933  0.1896 -0.4591 -0.3199
 1195SOL    HW2 4810   4.020   3.201   2.028 -0.6381  2.1407 -0.2326
 1195SOL    HW3 4811   3.949   3.136   1.912  0.0536 -0.7288  0.9173
 1195SOL    MW4 4812   4.007   3.193   1.943  0.0624 -0.1517 -0.1451
 1196SOL     OW 4813   4.008   3.473   1.849 -0.6019  0.0299  0.1974
 1196SOL    HW2 4814   4.077   3.527   1.887 -2.1052  2.2943 -0.1338
 1196SOL    HW3 4815   4.015   3.389   1.893  2.7046  0.0114 -0.2338
 1196SOL    MW4 4816   4.018   3.469   1.860 -0.3640  0.3262  0.0968
 1197SOL     OW 4817   4.221   3.623   1.969  0.0773  0.6330 -0.0564
 1197SOL    HW2 4818   4.240   3.709   1.931  2.6024  0.1610  0.0476
 1197SOL    HW3 4819   4.288   3.566   1.931 -0.1572 -0.7957  1.6501
 1197SOL    MW4 4820   4.232   3.627   1.959  0.3795  0.3823  0.1825
 1198SOL     OW 4821   4.252   3.881   1.873  0.2458  0.1206 -0.1955
 1198SOL    HW2 4822   4.340   3.917   1.885 -0.4937  2.1319 -0.5668
 1198SOL    HW3 4823   4.239   3.879   1.779 -0.3189  0.4027 -0.1302
 1198SOL    MW4 4824   4.262   3.885   1.862  0.0737  0.4232 -0.2358
 1199SOL     OW 4825   4.038   4.015   2.012 -0.0130  0.0656 -0.1079
 1199SOL    HW2 4826   4.123   3.974   1.996 -0.4416 -0.7619 -0.3051
 1199SOL    HW3 4827   3.977   3.966   1.956 -0.6444  0.5456  0.1548
 1199SOL    MW4 4828   4.041   4.003   2.003 -0.1528  0.0198 -0.0993
 1200SOL     OW 4829   4.087   4.267   1.885  0.0316 -0.1386 -0.3200
 1200SOL    HW2 4830   4.166   4.315   1.912  0.3466 -0.3344 -0.8807
 1200SOL    HW3 4831   4.089   4.187   1.937 -0.7511  0.6638  0.9678
 1200SOL    MW4 4832   4.098   4.263   1.895 -0.0301 -0.0586 -0.2240
 1201SOL     OW 4833   4.298   4.399   1.974 -0.3153  0.0738 -0.4604
 1201SOL    HW2 4834   4.286   4.402   2.069  0.9918  1.7640 -0.3208
 1201SOL    HW3 4835   4.277   4.487   1.944  0.4337 -0.1205 -1.5969
 1201SOL    MW4 4836   4.294   4.411   1.982 -0.0440  0.2712 -0.5919
 1202SOL     OW 4837   0.210   4.621   2.334 -0.2397  0.0994  0.0381
 1202SOL    HW2 4838   0.220   4.630   2.429 -0.4383 -2.0539  0.2812
 1202SOL    HW3 4839   0.288   4.665   2.299  0.8785 -0.8277  1.2795
 1202SOL    MW4 4840   0.222   4.628   2.342 -0.1183 -0.3070  0.2340
 1203SOL     OW 4841   4.466   0.095   2.269 -0.3178  0.1073  0.3512
 1203SOL    HW2 4842   4.551   0.051   2.275 -0.1709 -0.0183 -2.1752
 1203SOL    HW3 4843   4.460   0.122   2.177 -3.6102 -1.1280  0.1551
 1203SOL    MW4 4844   4.477   0.093   2.257 -0.7328 -0.0723 -0.0080
 1204SOL     OW 4845   4.457   0.366   2.364 -0.0638  0.5201  0.0727
 1204SOL    HW2 4846   4.540   0.393   2.325  0.7805  0.3630  1.7356
 1204SOL    HW3 4847   4.451   0.272   2.346  0.7330  0.2808  1.0851
 1204SOL    MW4 4848   4.467   0.357   2.356  0.1527  0.4678  0.4257
 1205SOL     OW 4849   0.186   0.507   2.271 -0.1615  0.1465  0.1518
 1205SOL    HW2 4850   0.264   0.463   2.306 -1.3504 -1.3936  0.9727
 1205SOL    HW3 4851   0.201   0.511   2.177  0.7463 -0.4765  0.2585
 1205SOL    MW4 4852   0.199   0.501   2.263 -0.1985 -0.1389  0.2742
 1206SOL     OW 4853   0.181   0.777   2.336  0.2217  0.3365  0.0270
 1206SOL    HW2 4854   0.215   0.793   2.424  0.2438  0.7678 -0.0576
 1206SOL    HW3 4855   0.179   0.681   2.328  1.2009  0.3026  0.1245
 1206SOL    MW4 4856   0.186   0.766   2.346  0.3538  0.3889  0.0287
 1207SOL     OW 4857   4.449   0.924   2.256  0.2773  0.0144 -0.0975
 1207SOL    HW2 4858   4.528   0.884   2.292  1.1479  1.8882  0.1264
 1207SOL    HW3 4859   4.462   0.922   2.161  0.9380  0.9760 -0.0360
 1207SOL    MW4 4860   4.461   0.918   2.248  0.4793  0.3885 -0.0599
 1208SOL     OW 4861   4.460   1.187   2.352  0.3546  0.1810 -0.5562
 1208SOL    HW2 4862   4.486   1.164   2.441  1.0365 -0.9987 -1.0383
 1208SOL    HW3 4863   4.453   1.103   2.306 -0.1706  0.7577 -1.5650
 1208SOL    MW4 4864   4.463   1.173   2.357  0.3753  0.1015 -0.7529
 1209SOL     OW 4865   0.230   1.244   2.258  0.0401 -0.5096 -0.1975
 1209SOL    HW2 4866   0.141   1.231   2.291 -0.0630 -2.3657 -1.1484
 1209SOL    HW3 4867   0.221   1.241   2.163  0.9996  0.2349 -0.3190
 1209SOL    MW4 4868   0.217   1.242   2.250  0.1531 -0.6562 -0.3390
 1210SOL     OW 4869   0.230   1.533   2.314  0.1179 -0.4524 -0.0993
 1210SOL    HW2 4870   0.232   1.534   2.410  0.2088 -0.2643 -0.1040
 1210SOL    HW3 4871   0.238   1.440   2.291  0.2773 -0.4807  0.0721
 1210SOL    MW4 4872   0.231   1.521   2.324  0.1509 -0.4313 -0.0773
 1211SOL     OW 4873   4.474   1.652   2.239 -0.1367  0.1955  0.2742
 1211SOL    HW2 4874   4.464   1.734   2.286  0.4667 -0.1995  1.0970
 1211SOL    HW3 4875   4.563   1.624   2.259 -0.1756 -0.4099 -0.4011
 1211SOL    MW4 4876   4.484   1.659   2.248 -0.0622  0.0635  0.2936
 1212SOL     OW 4877   4.473   1.909   2.346  0.0619  0.1925  0.0539
 1212SOL    HW2 4878   4.392   1.944   2.309 -0.1856 -0.9418 -0.5186
 1212SOL    HW3 4879   4.542   1.948   2.293 -0.1880  0.1550 -0.3048
 1212SOL    MW4 4880   4.471   1.919   2.334 -0.0037  0.0379 -0.0690
 1213SOL     OW 4881   0.212   2.075   2.236 -0.2801 -0.1176  0.3634
 1213SOL    HW2 4882   0.288   2.019   2.250 -0.1217  0.2201  0.8637
 1213SOL    HW3 4883   0.214   2.096   2.143  0.4649  0.2166  0.4564
 1213SOL    MW4 4884   0.222   2.070   2.226 -0.1609 -0.0290  0.4417
 1214SOL     OW 4885   0.223   2.323   2.351  0.4199 -0.1265 -0.0914
 1214SOL    HW2 4886   0.215   2.317   2.446 -0.3470 -2.4152 -0.2497
 1214SOL    HW3 4887   0.215   2.232   2.321  1.2985  0.4900 -2.2926
 1214SOL    MW4 4888   0.221   2.310   2.360  0.4347 -0.3471 -0.4027
 1215SOL     OW 4889   4.471   2.440   2.268 -0.0940  0.1089  0.3035
 1215SOL    HW2 4890   4.478   2.528   2.306 -0.8558  0.0484  0.5937
 1215SOL    HW3 4891   4.553   2.397   2.292  0.1664  0.6486  0.3968
 1215SOL    MW4 4892   4.483   2.446   2.276 -0.1601  0.1721  0.3541
 1216SOL     OW 4893   0.026   2.690   2.359 -0.1007 -0.4255  0.9590
 1216SOL    HW2 4894   0.034   2.703   2.454  1.2124 -2.1743  1.1208
 1216SOL    HW3 4895   0.103   2.735   2.323  0.2687 -1.1288  0.8660
 1216SOL    MW4 4896   0.038   2.698   2.367  0.1213 -0.7490  0.9681
 1217SOL     OW 4897   0.250   2.829   2.255  0.2389  0.1617  0.0198
 1217SOL    HW2 4898   0.321   2.768   2.271  0.6029  0.4884 -0.3376
 1217SOL    HW3 4899   0.242   2.833   2.159 -0.4300 -0.0722  0.0612
 1217SOL    MW4 4900   0.258   2.821   2.244  0.1987  0.1739 -0.0219
 1218SOL     OW 4901   0.227   3.090   2.355  0.5478 -0.2408 -0.3115
 1218SOL    HW2 4902   0.146   3.121   2.314  0.1384 -0.1101  0.5704
 1218SOL    HW3 4903   0.238   3.001   2.323  0.6143  0.0956 -1.2427
 1218SOL    MW4 4904   0.218   3.083   2.346  0.5026 -0.1791 -0.3180
 1219SOL     OW 4905   4.481   3.204   2.256 -0.2615 -0.4294 -0.3581
 1219SOL    HW2 4906   4.461   3.294   2.282 -0.3928 -0.6128  0.1838
 1219SOL    HW3 4907   4.497   3.209   2.162  0.5586  0.3049 -0.1825
 1219SOL    MW4 4908   4.480   3.217   2.247 -0.1706 -0.3567 -0.2634
 1220SOL     OW 4909   4.438   3.470   2.337 -0.0636  0.0849 -0.4756
 1220SOL    HW2 4910   4.469   3.489   2.426  0.4950 -2.1251 -0.1600
 1220SOL    HW3 4911   4.361   3.525   2.326  0.0533  0.6306  1.2686
 1220SOL    MW4 4912   4.432   3.479   2.347  0.0255 -0.1347 -0.2039
 1221SOL     OW 4913   0.202   3.606   2.217  0.1147  0.1616 -0.0787
 1221SOL    HW2 4914   0.277   3.567   2.262 -0.2151  0.1733  0.4795
 1221SOL    HW3 4915   0.126   3.576   2.267 -0.2044  0.7632 -0.2074
 1221SOL    MW4 4916   0.202   3.597   2.229  0.0290  0.2425 -0.0220
 1222SOL     OW 4917   0.197   3.840   2.345  0.0802 -0.0850  0.0034
 1222SOL    HW2 4918   0.136   3.895   2.297 -0.2148 -0.8148 -0.4512
 1222SOL    HW3 4919   0.194   3.755   2.301  0.9381 -0.3124  0.3682
 1222SOL    MW4 4920   0.189   3.836   2.333  0.1545 -0.2113 -0.0085
 1223SOL     OW 4921   4.463   3.984   2.250  0.3843 -0.1696  0.0017
 1223SOL    HW2 4922   4.487   4.060   2.302 -0.4956 -0.9527  1.6017
 1223SOL    HW3 4923   4.477   4.011   2.159  4.1254  0.4411  0.7120
 1223SOL    MW4 4924   4.468   3.998   2.245  0.7618 -0.1924  0.3065
 1224SOL     OW 4925   0.012   4.247   2.345  0.1792  0.0891  0.1090
 1224SOL    HW2 4926   0.008   4.269   2.438  2.4051 -1.7584  0.6644
 1224SOL    HW3 4927   0.085   4.300   2.311  0.3225 -0.3563 -0.2771
 1224SOL    MW4 4928   0.021   4.257   2.353  0.4918 -0.2134  0.1314
 1225SOL     OW 4929   0.227   4.366   2.214 -0.0727 -0.2788  0.1711
 1225SOL    HW2 4930   0.299   4.311   2.245  0.5669  1.3797  1.7585
 1225SOL    HW3 4931   0.235   4.447   2.266 -1.0568  1.2529 -1.9919
 1225SOL    MW4 4932   0.237   4.370   2.225 -0.1181  0.1421  0.0951
 1226SOL     OW 4933   0.654   4.652   2.313  0.0455 -0.1709 -0.1294
 1226SOL    HW2 4934   0.633   4.665   2.405 -0.8290  0.0276 -0.3495
 1226SOL    HW3 4935   0.737   4.698   2.300 -0.5968  1.0978  0.2094
 1226SOL    MW4 4936   0.662   4.660   2.323 -0.1546  0.0227 -0.1138
 1227SOL     OW 4937   0.420   0.115   2.236 -0.0442  0.1124 -0.1293
 1227SOL    HW2 4938   0.506   0.081   2.261  0.8948  2.3450 -0.1452
 1227SOL    HW3 4939   0.427   0.132   2.142 -0.7981 -0.4787 -0.2978
 1227SOL    MW4 4940   0.433   0.113   2.227 -0.0198  0.3290 -0.1536
 1228SOL     OW 4941   0.433   0.375   2.328 -0.0285 -0.1941 -0.3152
 1228SOL    HW2 4942   0.451   0.369   2.422 -2.9968 -0.7166  0.2749
 1228SOL    HW3 4943   0.434   0.285   2.297 -0.5086 -0.1437 -0.4835
 1228SOL    MW4 4944   0.435   0.363   2.337 -0.4834 -0.2564 -0.2596
 1229SOL     OW 4945   0.666   0.482   2.227 -0.1691 -0.5761 -0.0040
 1229SOL    HW2 4946   0.670   0.570   2.267 -0.0480 -0.2644 -0.6977
 1229SOL    HW3 4947   0.585   0.445   2.261 -1.0124  0.4000 -0.9141
 1229SOL    MW4 4948   0.656   0.489   2.237 -0.2644 -0.4062 -0.2156
 1230SOL     OW 4949   0.661   0.747   2.349 -0.7414  0.0848  0.0646
 1230SOL    HW2 4950   0.660   0.754   2.444 -0.4686  0.8938  0.0128
 1230SOL    HW3 4951   0.576   0.782   2.322 -0.9319 -0.4019  0.0215
 1230SOL    MW4 4952   0.649   0.752   2.358 -0.7305  0.1273  0.0521
 1231SOL     OW 4953   0.424   0.858   2.241  0.3475 -0.0245  0.0614
 1231SOL    HW2 4954   0.334   0.834   2.259  0.7665 -2.6415 -1.0612
 1231SOL    HW3 4955   0.429   0.862   2.145  1.4712 -0.0414  0.1114
 1231SOL    MW4 4956   0.413   0.856   2.231  0.5511 -0.3720 -0.0801
 1232SOL     OW 4957   0.455   1.118   2.340 -0.1212 -0.1462  0.1225
 1232SOL    HW2 4958   0.437   1.027   2.315 -0.2592 -0.1418  0.2066
 1232SOL    HW3 4959   0.375   1.166   2.316  0.1925  0.0684 -0.5093
 1232SOL    MW4 4960   0.442   1.112   2.334 -0.0980 -0.1173  0.0503
 1233SOL     OW 4961   0.686   1.234   2.217  0.0800 -0.0254 -0.1059
 1233SOL    HW2 4962   0.697   1.318   2.262  1.3408 -0.8986  1.2564
 1233SOL    HW3 4963   0.611   1.193   2.260  1.6413 -1.1150  1.6680
 1233SOL    MW4 4964   0.678   1.240   2.229  0.4523 -0.2843  0.3079
 1234SOL     OW 4965   0.705   1.482   2.320  0.1526  0.0782 -0.3452
 1234SOL    HW2 4966   0.697   1.515   2.410 -0.5914  0.0975 -0.4154
 1234SOL    HW3 4967   0.768   1.541   2.279  1.2084 -0.4997  0.4310
 1234SOL    MW4 4968   0.712   1.494   2.326  0.1937  0.0045 -0.2520
 1235SOL     OW 4969   0.480   1.644   2.254 -0.0965  0.0915 -0.1791
 1235SOL    HW2 4970   0.545   1.582   2.288 -0.7648 -0.2815  0.4336
 1235SOL    HW3 4971   0.396   1.607   2.280 -0.6171 -0.0952 -2.0985
 1235SOL    MW4 4972   0.477   1.631   2.262 -0.2534  0.0177 -0.3515
 1236SOL     OW 4973   0.437   1.911   2.316 -0.0499 -0.5699 -0.4557
 1236SOL    HW2 4974   0.507   1.958   2.272 -0.6684  0.5317 -0.2675
 1236SOL    HW3 4975   0.450   1.819   2.291  1.1230 -0.2954 -0.8581
 1236SOL    MW4 4976   0.448   1.905   2.307  0.0233 -0.3884 -0.4840
 1237SOL     OW 4977   0.641   2.052   2.180  0.2279 -0.1519  0.2388
 1237SOL    HW2 4978   0.720   2.025   2.227 -0.5603  1.4359  2.5464
 1237SOL    HW3 4979   0.627   2.143   2.207 -0.9787  0.3739 -2.1057
 1237SOL    MW4 4980   0.649   2.060   2.190 -0.0353  0.1270  0.2339
 1238SOL     OW 4981   0.671   2.310   2.319  0.5922  0.1012  0.3301
 1238SOL    HW2 4982   0.669   2.331   2.412  1.5123 -2.4014  0.9346
 1238SOL    HW3 4983   0.750   2.352   2.286  1.3064 -0.6399  1.0957
 1238SOL    MW4 4984   0.681   2.318   2.327  0.8079 -0.3268  0.5109
 1239SOL     OW 4985   0.445   2.402   2.193 -0.6242  0.6099 -0.2779
 1239SOL    HW2 4986   0.517   2.358   2.237  0.1443  3.1063  1.0622
 1239SOL    HW3 4987   0.366   2.371   2.238 -0.0894  0.7490  0.7672
 1239SOL    MW4 4988   0.444   2.392   2.204 -0.4522  0.9576  0.0368
 1240SOL     OW 4989   0.460   2.648   2.308 -0.2715 -0.1513  0.1304
 1240SOL    HW2 4990   0.468   2.646   2.403 -0.3682  0.6937  0.1608
 1240SOL    HW3 4991   0.446   2.556   2.283 -0.9895 -0.2887  0.9946
 1240SOL    MW4 4992   0.459   2.635   2.317 -0.3790 -0.0579  0.2484
 1241SOL     OW 4993   0.653   2.829   2.257  0.1770  0.6776 -0.0862
 1241SOL    HW2 4994   0.729   2.781   2.289  0.1758 -0.7182 -2.1235
 1241SOL    HW3 4995   0.579   2.770   2.272  0.1401  0.1094 -2.3666
 1241SOL    MW4 4996   0.653   2.815   2.263  0.1720  0.4185 -0.6558
 1242SOL     OW 4997   0.681   3.109   2.343 -0.0785  0.1445 -0.4344
 1242SOL    HW2 4998   0.604   3.156   2.312  0.5173  1.3030 -0.2283
 1242SOL    HW3 4999   0.671   3.020   2.310 -2.2688 -0.1552  0.9185
 1242SOL    MW4 5000   0.670   3.104   2.335 -0.2889  0.2578 -0.2287
 1243SOL     OW 5001   0.450   3.242   2.252 -0.5005  0.2349 -0.4410
 1243SOL    HW2 5002   0.381   3.186   2.288  1.4455 -1.6057  0.5200
 1243SOL    HW3 5003   0.439   3.236   2.158 -1.6843  0.0033 -0.2973
 1243SOL    MW4 5004   0.439   3.234   2.245 -0.3999 -0.0385 -0.2953
 1244SOL     OW 5005   0.423   3.503   2.332  0.0201 -0.0545 -0.2550
 1244SOL    HW2 5006   0.509   3.540   2.313  0.0635  0.7804  1.5278
 1244SOL    HW3 5007   0.431   3.410   2.308  0.8605  0.3865 -1.7497
 1244SOL    MW4 5008   0.435   3.495   2.326  0.1367  0.1138 -0.2170
 1245SOL     OW 5009   0.680   3.597   2.277  0.3949 -0.4506 -0.4174
 1245SOL    HW2 5010   0.683   3.685   2.313 -0.5149 -0.8418  0.6175
 1245SOL    HW3 5011   0.688   3.610   2.182  2.2408  0.6112 -0.1517
 1245SOL    MW4 5012   0.682   3.610   2.269  0.5184 -0.3621 -0.2458
 1246SOL     OW 5013   0.696   3.875   2.378  0.2745  0.0838 -0.2913
 1246SOL    HW2 5014   0.695   3.901   2.470  0.9420 -2.8927  0.6245
 1246SOL    HW3 5015   0.612   3.905   2.343  0.0600  1.3360  1.2620
 1246SOL    MW4 5016   0.685   3.882   2.385  0.3343 -0.1437  0.0345
 1247SOL     OW 5017   0.459   3.947   2.287 -0.1047  0.1428  0.1251
 1247SOL    HW2 5018   0.380   3.896   2.307  0.5313 -0.7219  0.4547
 1247SOL    HW3 5019   0.452   3.966   2.194 -1.5365  1.5109  0.4933
 1247SOL    MW4 5020   0.448   3.943   2.278 -0.2097  0.2092  0.2172
 1248SOL     OW 5021   0.431   4.206   2.353  0.0622 -0.0724  0.1101
 1248SOL    HW2 5022   0.513   4.251   2.329 -0.5396  0.1269 -1.6945
 1248SOL    HW3 5023   0.451   4.113   2.340  0.3295 -0.1052  0.7334
 1248SOL    MW4 5024   0.445   4.200   2.348  0.0180 -0.0504 -0.0458
 1249SOL     OW 5025   0.659   4.376   2.258 -0.0674  0.4688 -0.1531
 1249SOL    HW2 5026   0.648   4.468   2.280 -0.4330  0.2893  0.4394
 1249SOL    HW3 5027   0.678   4.375   2.165  0.8377  1.1979  0.0298
 1249SOL    MW4 5028   0.660   4.388   2.249  0.0038  0.5413 -0.0508
 1250SOL     OW 5029   1.133   4.645   2.319 -0.0414  0.3426  0.3947
 1250SOL    HW2 5030   1.126   4.637   2.414 -0.2911  0.4332  0.3856
 1250SOL    HW3 5031   1.052   4.689   2.293 -0.4298 -0.5683  0.0386
 1250SOL    MW4 5032   1.121   4.649   2.328 -0.1256  0.2343  0.3465
 1251SOL     OW 5033   0.897   0.108   2.268 -0.0948  0.1935  0.2092
 1251SOL    HW2 5034   0.888   0.200   2.293  0.7369  0.4863 -0.5419
 1251SOL    HW3 5035   0.899   0.109   2.172 -0.3478 -0.6356  0.1861
 1251SOL    MW4 5036   0.896   0.120   2.258 -0.0184  0.1227  0.1071
 1252SOL     OW 5037   0.880   0.376   2.340 -0.3720  0.4499  0.2948
 1252SOL    HW2 5038   0.952   0.430   2.308  0.0159 -1.1029 -1.5106
 1252SOL    HW3 5039   0.802   0.417   2.304 -0.1844  0.6326  0.0900
 1252SOL    MW4 5040   0.879   0.388   2.331 -0.2960  0.2692  0.0296
 1253SOL     OW 5041   1.125   0.493   2.238  0.0289 -0.2954 -0.3867
 1253SOL    HW2 5042   1.203   0.445   2.264 -0.0626 -0.1532  0.1689
 1253SOL    HW3 5043   1.126   0.491   2.142  0.2303 -1.0586 -0.3715
 1253SOL    MW4 5044   1.136   0.487   2.229  0.0434 -0.3773 -0.3114
 1254SOL     OW 5045   1.165   0.753   2.391  0.3835  0.2444 -0.0304
 1254SOL    HW2 5046   1.085   0.786   2.349 -0.2427  0.3315  1.2233
 1254SOL    HW3 5047   1.168   0.660   2.369  0.3475  0.4018 -0.7115
 1254SOL    MW4 5048   1.155   0.745   2.382  0.2962  0.2767  0.0451
 1255SOL     OW 5049   0.920   0.861   2.271  0.2892  0.0661  0.0592
 1255SOL    HW2 5050   0.921   0.952   2.301  1.6493  0.0564  0.0600
 1255SOL    HW3 5051   0.837   0.826   2.304 -0.9200  1.6904 -1.1388
 1255SOL    MW4 5052   0.909   0.869   2.279  0.3091  0.2791 -0.0987
 1256SOL     OW 5053   0.911   1.115   2.341  0.1195  0.3123 -0.1929
 1256SOL    HW2 5054   0.981   1.176   2.321 -0.0211  0.6702  0.3951
 1256SOL    HW3 5055   0.834   1.151   2.297  0.3997 -0.3473 -1.2632
 1256SOL    MW4 5056   0.910   1.128   2.333  0.1379  0.2725 -0.2565
 1257SOL     OW 5057   1.116   1.269   2.249  0.2665  0.5071 -0.2144
 1257SOL    HW2 5058   1.195   1.222   2.278  0.6879  0.8789 -0.7510
 1257SOL    HW3 5059   1.103   1.241   2.159 -1.2287 -0.8798  0.4189
 1257SOL    MW4 5060   1.125   1.259   2.241  0.1248  0.3732 -0.2016
 1258SOL     OW 5061   1.128   1.567   2.342  0.0802 -0.4627 -0.1297
 1258SOL    HW2 5062   1.050   1.613   2.310  0.9968  0.4912 -1.0617
 1258SOL    HW3 5063   1.122   1.480   2.303 -0.3926 -0.3120 -0.4052
 1258SOL    MW4 5064   1.117   1.562   2.333  0.1388 -0.3169 -0.2890
 1259SOL     OW 5065   0.890   1.676   2.215 -0.2052  0.4693 -0.5437
 1259SOL    HW2 5066   0.892   1.766   2.249  2.5259  0.1289  0.3616
 1259SOL    HW3 5067   0.900   1.686   2.121 -0.5707  1.1421 -0.5195
 1259SOL    MW4 5068   0.892   1.689   2.207  0.1069  0.5131 -0.4210
 1260SOL     OW 5069   0.881   1.935   2.296 -0.0683  0.1005  0.1405
 1260SOL    HW2 5070   0.872   1.945   2.391 -0.6937  0.1951  0.0753
 1260SOL    HW3 5071   0.962   1.981   2.275 -0.1089  0.3843  0.5835
 1260SOL    MW4 5072   0.890   1.942   2.306 -0.1561  0.1504  0.1904
 1261SOL     OW 5073   1.112   2.074   2.226 -0.2267 -0.0832  0.1302
 1261SOL    HW2 5074   1.191   2.027   2.253 -0.0292  0.3135  0.2339
 1261SOL    HW3 5075   1.123   2.086   2.131  0.3374  0.9241  0.3215
 1261SOL    MW4 5076   1.124   2.069   2.217 -0.1262  0.1020  0.1691
 1262SOL     OW 5077   1.132   2.346   2.318 -0.0544 -0.5310 -0.4633
 1262SOL    HW2 5078   1.215   2.383   2.288 -0.4904  0.0218 -0.9958
 1262SOL    HW3 5079   1.135   2.255   2.289 -0.1079 -0.2214 -1.4633
 1262SOL    MW4 5080   1.143   2.339   2.310 -0.1190 -0.4172 -0.6655
 1263SOL     OW 5081   0.889   2.452   2.210 -0.4826  0.7920 -0.1916
 1263SOL    HW2 5082   0.975   2.412   2.223 -0.5966  1.0027  1.3400
 1263SOL    HW3 5083   0.880   2.460   2.115  1.2540  0.9348 -0.3580
 1263SOL    MW4 5084   0.899   2.447   2.199 -0.2685  0.8386 -0.0114
 1264SOL     OW 5085   0.895   2.725   2.343 -0.0456  0.2999 -0.3193
 1264SOL    HW2 5086   0.870   2.723   2.435 -1.1856  0.2298 -0.6168
 1264SOL    HW3 5087   0.901   2.633   2.318  0.0218  0.3185 -0.3698
 1264SOL    MW4 5088   0.892   2.713   2.352 -0.1872  0.2931 -0.3652
 1265SOL     OW 5089   1.121   2.799   2.220  0.0764  0.0001 -0.4066
 1265SOL    HW2 5090   1.193   2.751   2.260  0.1270 -0.0384 -0.5429
 1265SOL    HW3 5091   1.043   2.769   2.266  0.1753  0.2251 -0.0895
 1265SOL    MW4 5092   1.120   2.789   2.231  0.0961  0.0247 -0.3827
 1266SOL     OW 5093   1.147   3.037   2.352 -0.2855 -0.1313 -0.1449
 1266SOL    HW2 5094   1.094   3.091   2.293  0.5183  0.6133 -0.2100
 1266SOL    HW3 5095   1.146   2.950   2.314 -0.4721  0.1579 -0.7971
 1266SOL    MW4 5096   1.140   3.033   2.340 -0.2041  0.0051 -0.2396
 1267SOL     OW 5097   0.925   3.218   2.241 -0.0404 -0.1180 -0.0015
 1267SOL    HW2 5098   0.919   3.309   2.269  0.2594  0.2797 -1.1880
 1267SOL    HW3 5099   0.843   3.178   2.270 -0.6579  0.8164 -0.4507
 1267SOL    MW4 5100   0.913   3.225   2.248 -0.0824  0.0578 -0.2173
 1268SOL     OW 5101   0.918   3.486   2.324 -0.3353 -0.1119  0.1385
 1268SOL    HW2 5102   0.916   3.477   2.419 -0.9049  0.4883  0.1941
 1268SOL    HW3 5103   0.832   3.523   2.302 -0.0350  0.1886 -0.5572
 1268SOL    MW4 5104   0.906   3.490   2.334 -0.3708  0.0069  0.0541
 1269SOL     OW 5105   1.161   3.570   2.186 -0.6192 -0.2285  0.3884
 1269SOL    HW2 5106   1.224   3.534   2.249 -0.7684 -0.0455  0.6416
 1269SOL    HW3 5107   1.077   3.536   2.215 -0.4589 -1.7022 -0.8279
 1269SOL    MW4 5108   1.159   3.561   2.198 -0.6178 -0.3988  0.2613
 1270SOL     OW 5109   1.130   3.831   2.309 -0.1590 -0.0412  0.3224
 1270SOL    HW2 5110   1.203   3.888   2.282 -0.4745  0.3123  0.2073
 1270SOL    HW3 5111   1.151   3.746   2.271  0.1981  0.0593  0.2928
 1270SOL    MW4 5112   1.143   3.827   2.300 -0.1535  0.0187  0.3033
 1271SOL     OW 5113   0.915   4.012   2.256  0.4071  0.5790 -0.0998
 1271SOL    HW2 5114   0.989   3.951   2.254  0.0720  0.1904 -3.2559
 1271SOL    HW3 5115   0.841   3.957   2.282  0.4509  0.0436 -1.0898
 1271SOL    MW4 5116   0.915   3.996   2.259  0.3687  0.4571 -0.6469
 1272SOL     OW 5117   0.885   4.278   2.365  0.0879  0.2152 -0.0404
 1272SOL    HW2 5118   0.889   4.191   2.324 -2.4653 -0.4972  1.1627
 1272SOL    HW3 5119   0.803   4.315   2.334  0.6725  1.8086  0.2913
 1272SOL    MW4 5120   0.875   4.271   2.355 -0.1718  0.3314  0.1621
 1273SOL     OW 5121   1.100   4.383   2.241  0.3544  0.0741  0.6017
 1273SOL    HW2 5122   1.029   4.357   2.300 -0.4289 -0.1641 -0.4323
 1273SOL    HW3 5123   1.113   4.477   2.258 -0.9052  0.3513  0.0933
 1273SOL    MW4 5124   1.093   4.392   2.251  0.0849  0.0793  0.3982
 1274SOL     OW 5125   1.583   4.656   2.333 -0.0400  0.0310 -0.3014
 1274SOL    HW2 5126   1.661   4.691   2.290  0.4877  0.3941  0.9505
 1274SOL    HW3 5127   1.511   4.709   2.298  0.2969 -0.1341 -1.2585
 1274SOL    MW4 5128   1.584   4.667   2.322  0.0741  0.0571 -0.2625
 1275SOL     OW 5129   1.351   0.128   2.221 -0.2831 -0.0652  0.3649
 1275SOL    HW2 5130   1.343   0.214   2.263 -1.2804  0.5384 -1.0235
 1275SOL    HW3 5131   1.277   0.078   2.255  0.6737 -0.6233  1.6875
 1275SOL    MW4 5132   1.340   0.133   2.231 -0.2884 -0.0592  0.3562
 1276SOL     OW 5133   1.371   0.374   2.347 -0.6199  0.0470 -0.0450
 1276SOL    HW2 5134   1.368   0.369   2.442  0.3110  0.3455  0.0012
 1276SOL    HW3 5135   1.451   0.424   2.327 -1.4466  1.0619 -0.9328
 1276SOL    MW4 5136   1.381   0.380   2.357 -0.6061  0.2203 -0.1560
 1277SOL     OW 5137   1.594   0.514   2.278  0.6064  0.3016 -0.0733
 1277SOL    HW2 5138   1.674   0.462   2.275  0.8774  0.7104  0.0354
 1277SOL    HW3 5139   1.558   0.508   2.189  0.4512 -0.3636  0.0369
 1277SOL    MW4 5140   1.600   0.507   2.266  0.6217  0.2678 -0.0444
 1278SOL     OW 5141   1.617   0.778   2.355  0.5819  0.0887  0.6949
 1278SOL    HW2 5142   1.693   0.819   2.314 -1.4469  1.5792 -1.6783
 1278SOL    HW3 5143   1.618   0.688   2.324  0.8059  0.3948 -0.2030
 1278SOL    MW4 5144   1.627   0.772   2.346  0.3438  0.3258  0.2633
 1279SOL     OW 5145   1.384   0.901   2.282 -0.2397 -0.2619  0.2798
 1279SOL    HW2 5146   1.463   0.863   2.321  0.3856 -0.5484 -1.2054
 1279SOL    HW3 5147   1.313   0.844   2.310  0.0196  0.1972  1.9272
 1279SOL    MW4 5148   1.385   0.889   2.291 -0.1230 -0.2391  0.3012
 1280SOL     OW 5149   1.365   1.171   2.329 -0.6084  0.0094 -0.0044
 1280SOL    HW2 5150   1.362   1.184   2.423  0.5519 -0.4186  0.1023
 1280SOL    HW3 5151   1.359   1.076   2.317 -0.0769  0.0089 -0.3171
 1280SOL    MW4 5152   1.364   1.160   2.340 -0.3852 -0.0472 -0.0316
 1281SOL     OW 5153   1.613   1.325   1.960  0.2157  0.3441 -0.3570
 1281SOL    HW2 5154   1.614   1.313   2.055  0.2876 -1.2372 -0.5555
 1281SOL    HW3 5155   1.536   1.278   1.931  0.9822 -0.3708 -1.2471
 1281SOL    MW4 5156   1.603   1.318   1.969  0.3263  0.0412 -0.5006
 1282SOL     OW 5157   1.564   1.549   2.349 -0.1288  0.0587  0.6116
 1282SOL    HW2 5158   1.644   1.583   2.310 -0.8355  0.8602 -0.1444
 1282SOL    HW3 5159   1.553   1.462   2.309 -0.2237  0.3963 -0.1044
 1282SOL    MW4 5160   1.573   1.542   2.339 -0.2346  0.2090  0.4174
 1283SOL     OW 5161   1.353   1.669   2.205 -0.0735  0.0532 -0.0857
 1283SOL    HW2 5162   1.431   1.636   2.249  1.0682  1.2278 -1.2033
 1283SOL    HW3 5163   1.280   1.632   2.255  1.1869 -0.9747  1.0245
 1283SOL    MW4 5164   1.353   1.659   2.218  0.2434  0.0725 -0.0867
 1284SOL     OW 5165   1.334   1.923   2.314  0.2080 -0.0481  0.3139
 1284SOL    HW2 5166   1.415   1.966   2.285 -0.2521  0.2146 -0.6242
 1284SOL    HW3 5167   1.341   1.835   2.279 -0.4598  0.3415 -0.8480
 1284SOL    MW4 5168   1.346   1.917   2.305  0.0592  0.0380  0.0368
 1285SOL     OW 5169   1.571   2.046   2.233  0.2810 -0.1441 -0.0909
 1285SOL    HW2 5170   1.648   1.999   2.264  1.0862  0.3636 -1.2909
 1285SOL    HW3 5171   1.571   2.034   2.138  0.2294  1.8637 -0.3707
 1285SOL    MW4 5172   1.581   2.038   2.224  0.3804  0.1878 -0.2862
 1286SOL     OW 5173   1.589   2.295   2.337 -0.2881  0.0395 -0.0919
 1286SOL    HW2 5174   1.570   2.293   2.431  0.5321 -2.2650  0.0558
 1286SOL    HW3 5175   1.575   2.205   2.308  1.4560  0.2759 -1.7765
 1286SOL    MW4 5176   1.585   2.283   2.346  0.0502 -0.2334 -0.2947
 1287SOL     OW 5177   1.369   2.419   2.220 -0.2024  0.1618  0.0997
 1287SOL    HW2 5178   1.450   2.377   2.250 -0.3802 -0.5278 -0.3666
 1287SOL    HW3 5179   1.385   2.437   2.127 -0.8975 -0.7493 -0.2051
 1287SOL    MW4 5180   1.382   2.416   2.211 -0.3176 -0.0494 -0.0021
 1288SOL     OW 5181   1.367   2.677   2.318  0.7296  0.1717 -0.3207
 1288SOL    HW2 5182   1.445   2.718   2.280 -0.1153  0.0519 -2.2581
 1288SOL    HW3 5183   1.371   2.586   2.288  0.6635 -0.2386  0.8942
 1288SOL    MW4 5184   1.378   2.671   2.309  0.6094  0.1018 -0.4160
 1289SOL     OW 5185   1.587   2.804   2.220 -0.2171 -0.0230 -0.3843
 1289SOL    HW2 5186   1.569   2.889   2.260  2.1761  0.4905 -0.3047
 1289SOL    HW3 5187   1.585   2.821   2.125  0.6258  0.2265 -0.3644
 1289SOL    MW4 5188   1.584   2.818   2.212  0.2099  0.0777 -0.3712
 1290SOL     OW 5189   1.574   3.044   2.345  0.7171  0.2332 -0.0274
 1290SOL    HW2 5190   1.581   3.058   2.439  0.3019 -0.7026  0.1459
 1290SOL    HW3 5191   1.496   3.093   2.319 -0.3404 -1.1435  0.4643
 1290SOL    MW4 5192   1.565   3.052   2.354  0.5228 -0.0719  0.0604
 1291SOL     OW 5193   1.367   3.187   2.248 -0.0535  0.0715  0.2267
 1291SOL    HW2 5194   1.293   3.134   2.279  0.7384 -0.8195  0.5902
 1291SOL    HW3 5195   1.364   3.266   2.303  0.0727 -0.5641  1.1575
 1291SOL    MW4 5196   1.357   3.190   2.260  0.0676 -0.1299  0.3975
 1292SOL     OW 5197   1.353   3.433   2.345  0.3103 -0.5644 -0.7792
 1292SOL    HW2 5198   1.345   3.465   2.434 -1.0245  0.2126 -1.1595
 1292SOL    HW3 5199   1.437   3.468   2.314  0.3974 -0.1639 -0.1007
 1292SOL    MW4 5200   1.363   3.442   2.352  0.1457 -0.4091 -0.7399
 1293SOL     OW 5201   1.552   3.601   2.234 -0.3902 -0.0285 -0.5255
 1293SOL    HW2 5202   1.634   3.556   2.255 -0.9564 -0.6173  0.4784
 1293SOL    HW3 5203   1.560   3.687   2.277 -0.6808 -0.4483  0.3980
 1293SOL    MW4 5204   1.564   3.607   2.243 -0.5033 -0.1615 -0.2712
 1294SOL     OW 5205   1.623   3.861   2.324  0.5758 -0.0062 -0.2255
 1294SOL    HW2 5206   1.613   3.886   2.416  1.0797 -0.0075 -0.1655
 1294SOL    HW3 5207   1.692   3.919   2.292  0.6703 -0.2716 -0.4991
 1294SOL    MW4 5208   1.631   3.872   2.332  0.6547 -0.0414 -0.2537
 1295SOL     OW 5209   1.365   3.990   2.212 -0.2871 -0.5837 -0.5841
 1295SOL    HW2 5210   1.456   3.965   2.226 -0.0134  0.1614 -0.9990
 1295SOL    HW3 5211   1.354   3.990   2.117 -0.1837  1.1784 -0.6058
 1295SOL    MW4 5212   1.375   3.987   2.202 -0.2373 -0.2529 -0.6417
 1296SOL     OW 5213   1.338   4.257   2.324 -0.0302  0.3014  0.3114
 1296SOL    HW2 5214   1.346   4.179   2.270 -0.2739 -0.3744  1.2271
 1296SOL    HW3 5215   1.258   4.300   2.292  1.0393  1.1095 -1.3406
 1296SOL    MW4 5216   1.328   4.252   2.313  0.0788  0.3189  0.2143
 1297SOL     OW 5217   1.577   4.380   2.246 -0.1204 -0.1874 -0.0304
 1297SOL    HW2 5218   1.495   4.343   2.277  0.2397 -0.4786  0.5888
 1297SOL    HW3 5219   1.578   4.470   2.281  0.3434 -0.5559  0.9287
 1297SOL    MW4 5220   1.567   4.387   2.255 -0.0117 -0.2744  0.1778
 1298SOL     OW 5221   2.306   0.111   2.243  0.6737  0.2496  0.1921
 1298SOL    HW2 5222   2.384   0.083   2.291  0.2516  1.0331  1.3563
 1298SOL    HW3 5223   2.233   0.072   2.291  0.3261 -0.2559 -0.7326
 1298SOL    MW4 5224   2.307   0.102   2.255  0.5721  0.2863  0.2237
 1299SOL     OW 5225   1.817   0.100   2.248 -0.4448  0.0350  0.1091
 1299SOL    HW2 5226   1.825   0.193   2.265  0.2909 -0.1315  0.7246
 1299SOL    HW3 5227   1.896   0.062   2.288 -0.6183 -0.8124 -0.3473
 1299SOL    MW4 5228   1.829   0.107   2.255 -0.3706 -0.0988  0.1301
 1300SOL     OW 5229   1.830   0.368   2.310 -0.2868  0.5998 -0.6762
 1300SOL    HW2 5230   1.820   0.372   2.405 -0.2041 -0.3117 -0.6219
 1300SOL    HW3 5231   1.896   0.433   2.290  0.3547  0.1621  0.0007
 1300SOL    MW4 5232   1.837   0.377   2.320 -0.1913  0.4218 -0.5797
 1301SOL     OW 5233   2.037   0.741   2.388 -0.4817 -0.2453 -0.5910
 1301SOL    HW2 5234   2.123   0.775   2.363  0.5223 -0.6324  2.1562
 1301SOL    HW3 5235   2.020   0.672   2.324  0.8759  0.3440 -1.6487
 1301SOL    MW4 5236   2.046   0.737   2.376 -0.1701 -0.2187 -0.3681
 1302SOL     OW 5237   1.831   0.910   2.272  0.2777 -0.0412  0.0494
 1302SOL    HW2 5238   1.907   0.870   2.314 -0.0752 -1.4506 -0.6283
 1302SOL    HW3 5239   1.853   0.911   2.179  0.0751  0.8909  0.0108
 1302SOL    MW4 5240   1.844   0.905   2.265  0.2044 -0.1042 -0.0451
 1303SOL     OW 5241   1.813   1.179   2.388  0.0795  0.0672 -0.2685
 1303SOL    HW2 5242   1.888   1.220   2.346  0.0791 -1.1855 -1.5419
 1303SOL    HW3 5243   1.826   1.085   2.374 -0.6783 -0.2800  1.2754
 1303SOL    MW4 5244   1.824   1.172   2.381 -0.0205 -0.1439 -0.2328
 1304SOL     OW 5245   1.585   1.293   2.245 -0.0835  0.4003  0.6764
 1304SOL    HW2 5246   1.650   1.242   2.293 -0.1395 -0.4543 -0.1452
 1304SOL    HW3 5247   1.501   1.254   2.270 -0.2470  1.1266  1.2840
 1304SOL    MW4 5248   1.582   1.281   2.254 -0.1125  0.3833  0.6481
 1305SOL     OW 5249   2.040   1.283   2.256 -0.5803 -0.0822 -0.0691
 1305SOL    HW2 5250   2.037   1.377   2.272  0.0751 -0.1571  0.5174
 1305SOL    HW3 5251   2.046   1.275   2.160 -1.4421  0.4468 -0.1730
 1305SOL    MW4 5252   2.040   1.294   2.245 -0.6076 -0.0223 -0.0054
 1306SOL     OW 5253   1.999   1.542   2.326  0.1722  0.3900  0.1668
 1306SOL    HW2 5254   1.983   1.557   2.419 -0.0621  0.0630  0.1796
 1306SOL    HW3 5255   1.923   1.579   2.282 -0.2827 -0.5031  0.1820
 1306SOL    MW4 5256   1.987   1.549   2.332  0.0813  0.2290  0.1705
 1307SOL     OW 5257   1.777   1.634   2.200  0.1420  0.1737 -0.0723
 1307SOL    HW2 5258   1.776   1.721   2.239 -0.8541 -0.1254  0.5619
 1307SOL    HW3 5259   1.777   1.651   2.105 -1.6854  0.8610  0.0240
 1307SOL    MW4 5260   1.777   1.648   2.192 -0.2305  0.2249  0.0240
 1308SOL     OW 5261   1.790   1.882   2.328  0.4253  0.1945  0.0282
 1308SOL    HW2 5262   1.776   1.893   2.422  0.9940  0.7123  0.0564
 1308SOL    HW3 5263   1.873   1.927   2.311  0.9460 -0.9567 -0.5127
 1308SOL    MW4 5264   1.799   1.889   2.338  0.5690  0.1109 -0.0395
 1309SOL     OW 5265   2.013   2.029   2.243 -0.1057 -0.0037  0.0037
 1309SOL    HW2 5266   2.100   2.003   2.272  0.1451  0.8292  0.0295
 1309SOL    HW3 5267   2.022   2.043   2.149  0.0122  0.9349  0.1492
 1309SOL    MW4 5268   2.026   2.028   2.235 -0.0570  0.2300  0.0263
 1310SOL     OW 5269   1.989   2.280   2.375 -0.5871 -0.4679 -0.3480
 1310SOL    HW2 5270   2.074   2.316   2.350  0.3342 -1.6796  0.9665
 1310SOL    HW3 5271   1.983   2.196   2.330 -0.8434 -0.6454  0.0111
 1310SOL    MW4 5272   1.999   2.274   2.366 -0.4993 -0.6512 -0.1272
 1311SOL     OW 5273   1.805   2.395   2.198 -0.3285 -0.3409 -0.0962
 1311SOL    HW2 5274   1.878   2.362   2.251 -0.0840 -0.1347 -0.3009
 1311SOL    HW3 5275   1.728   2.350   2.232 -0.1949 -0.0984  0.5330
 1311SOL    MW4 5276   1.805   2.385   2.209 -0.2786 -0.2817 -0.0402
 1312SOL     OW 5277   1.801   2.668   2.308 -0.0416  0.1659 -0.0716
 1312SOL    HW2 5278   1.787   2.583   2.267 -0.0702  0.1187  0.0366
 1312SOL    HW3 5279   1.729   2.722   2.275 -0.1153  0.1026 -0.0143
 1312SOL    MW4 5280   1.790   2.664   2.298 -0.0551  0.1513 -0.0497
 1313SOL     OW 5281   2.016   2.831   2.251  0.3348  0.4005 -0.1430
 1313SOL    HW2 5282   2.086   2.769   2.271  0.2642  0.1475 -0.6859
 1313SOL    HW3 5283   1.936   2.786   2.276  0.3558  0.6681  0.4228
 1313SOL    MW4 5284   2.015   2.817   2.257  0.3282  0.4024 -0.1400
 1314SOL     OW 5285   1.973   3.076   2.351  0.1302  0.0723 -0.2999
 1314SOL    HW2 5286   2.052   3.128   2.338  1.8311 -2.0816  1.0808
 1314SOL    HW3 5287   1.997   2.989   2.321 -1.6140 -0.6744  0.4419
 1314SOL    MW4 5288   1.987   3.072   2.345  0.1245 -0.3104 -0.0198
 1315SOL     OW 5289   1.768   3.219   2.217  0.1724  0.5548 -0.1819
 1315SOL    HW2 5290   1.844   3.176   2.256 -0.0884  0.7716  0.5715
 1315SOL    HW3 5291   1.693   3.176   2.258 -0.1369 -0.3881 -1.7016
 1315SOL    MW4 5292   1.768   3.207   2.228  0.0972  0.4590 -0.2830
 1316SOL     OW 5293   1.794   3.472   2.311  0.4784 -0.0918  0.2091
 1316SOL    HW2 5294   1.782   3.479   2.406  1.8053 -0.2426  0.3908
 1316SOL    HW3 5295   1.791   3.378   2.293  1.6684 -0.1516  0.2997
 1316SOL    MW4 5296   1.792   3.461   2.321  0.8105 -0.1196  0.2450
 1317SOL     OW 5297   2.009   3.627   2.223 -0.2772  0.5370 -0.2489
 1317SOL    HW2 5298   1.936   3.572   2.250  0.9092 -1.7767 -1.6202
 1317SOL    HW3 5299   2.013   3.618   2.128  1.9499  0.3969 -0.1802
 1317SOL    MW4 5300   2.000   3.618   2.214  0.1732  0.2132 -0.4208
 1318SOL     OW 5301   2.049   3.876   2.336  0.1368 -0.2331  0.5865
 1318SOL    HW2 5302   2.043   3.851   2.428 -0.7024  0.5567  0.7594
 1318SOL    HW3 5303   2.031   3.795   2.288 -1.8352 -0.1581  1.1367
 1318SOL    MW4 5304   2.046   3.862   2.342 -0.2341 -0.1190  0.6819
 1319SOL     OW 5305   1.834   4.021   2.244  0.1118 -0.0217 -0.3807
 1319SOL    HW2 5306   1.909   3.965   2.263 -0.9308 -1.6063 -0.8418
 1319SOL    HW3 5307   1.815   4.006   2.151  0.6668  2.1645 -0.8901
 1319SOL    MW4 5308   1.841   4.012   2.234  0.0475  0.0577 -0.5088
 1320SOL     OW 5309   1.800   4.259   2.374 -0.2191 -0.2825  0.6051
 1320SOL    HW2 5310   1.805   4.174   2.329  1.5309  0.0389  0.1287
 1320SOL    HW3 5311   1.725   4.303   2.334 -1.1540 -1.6036  0.8731
 1320SOL    MW4 5312   1.791   4.254   2.363 -0.1116 -0.4144  0.5776
 1321SOL     OW 5313   2.010   4.416   2.260  0.4991 -0.0989 -0.1056
 1321SOL    HW2 5314   1.944   4.358   2.297  0.9455  0.0042  0.8829
 1321SOL    HW3 5315   2.000   4.408   2.165 -0.3099 -0.7823  0.0392
 1321SOL    MW4 5316   2.000   4.408   2.252  0.4513 -0.1755  0.0439
 1322SOL     OW 5317   2.524   4.635   2.359 -0.4783  0.6725 -0.1360
 1322SOL    HW2 5318   2.592   4.685   2.315  0.1757 -0.1709 -0.1038
 1322SOL    HW3 5319   2.504   4.564   2.297  1.3340 -1.2559  1.4392
 1322SOL    MW4 5320   2.530   4.632   2.345 -0.1529  0.3068  0.0761
 1323SOL     OW 5321   2.243   0.366   2.317 -0.5344  0.4225 -0.0390
 1323SOL    HW2 5322   2.313   0.424   2.288 -0.7097  0.5216 -0.2681
 1323SOL    HW3 5323   2.259   0.283   2.272 -0.1644  0.2268  0.4497
 1323SOL    MW4 5324   2.254   0.363   2.307 -0.5087  0.4097 -0.0048
 1324SOL     OW 5325   2.051   0.516   2.201  0.3171 -0.2299  0.1501
 1324SOL    HW2 5326   2.115   0.472   2.257  0.8741  0.4511  0.0480
 1324SOL    HW3 5327   2.067   0.479   2.114 -0.1277 -0.8264  0.3217
 1324SOL    MW4 5328   2.062   0.505   2.197  0.3319 -0.2187  0.1593
 1325SOL     OW 5329   2.468   0.519   2.235 -0.1584  0.0326 -0.2701
 1325SOL    HW2 5330   2.530   0.452   2.263  1.5831  1.4221 -0.6905
 1325SOL    HW3 5331   2.466   0.511   2.140 -1.1429 -0.4443 -0.2127
 1325SOL    MW4 5332   2.476   0.509   2.226 -0.0585  0.1530 -0.3180
 1326SOL     OW 5333   2.480   0.782   2.316  0.3330  0.3835  0.1366
 1326SOL    HW2 5334   2.565   0.823   2.301 -0.0564  1.2185  0.2208
 1326SOL    HW3 5335   2.495   0.689   2.299  1.1308  0.6079 -0.3829
 1326SOL    MW4 5336   2.493   0.775   2.312  0.3869  0.5232  0.0792
 1327SOL     OW 5337   2.239   0.896   2.266  0.2913 -0.0321 -0.2339
 1327SOL    HW2 5338   2.253   0.987   2.292 -0.6523 -0.0498  0.3465
 1327SOL    HW3 5339   2.318   0.850   2.296  0.4632  0.4669  0.0843
 1327SOL    MW4 5340   2.252   0.902   2.273  0.1895  0.0314 -0.1154
 1328SOL     OW 5341   2.270   1.157   2.348 -0.0981 -0.1389 -0.0975
 1328SOL    HW2 5342   2.341   1.195   2.296 -0.2302  0.2367 -0.0074
 1328SOL    HW3 5343   2.191   1.203   2.318 -0.3451 -0.7458 -0.3934
 1328SOL    MW4 5344   2.269   1.168   2.337 -0.1481 -0.1694 -0.1247
 1329SOL     OW 5345   2.487   1.286   2.208  0.3118 -0.1339 -0.3578
 1329SOL    HW2 5346   2.570   1.247   2.233 -1.4811 -2.3844  2.4958
 1329SOL    HW3 5347   2.481   1.366   2.260  0.5743 -0.0883 -0.3981
 1329SOL    MW4 5348   2.497   1.292   2.218  0.1099 -0.4248  0.0134
 1330SOL     OW 5349   2.450   1.532   2.348 -0.4689  0.4096 -0.1876
 1330SOL    HW2 5350   2.462   1.536   2.443 -2.0425 -0.1671  0.0564
 1330SOL    HW3 5351   2.527   1.576   2.312  0.0261  0.8444  1.3576
 1330SOL    MW4 5352   2.462   1.538   2.356 -0.6112  0.3909  0.0485
 1331SOL     OW 5353   2.240   1.679   2.261  0.2283 -0.1368 -0.0720
 1331SOL    HW2 5354   2.311   1.630   2.303 -0.0486  0.7330  1.4620
 1331SOL    HW3 5355   2.160   1.637   2.293  0.0111  0.6756  0.4806
 1331SOL    MW4 5356   2.239   1.667   2.271  0.1631  0.0852  0.2033
 1332SOL     OW 5357   2.250   1.950   2.366  0.2066 -0.4378  0.8471
 1332SOL    HW2 5358   2.328   1.994   2.330  0.1058 -0.2003  0.9133
 1332SOL    HW3 5359   2.257   1.860   2.336  0.5937 -0.4550  0.9884
 1332SOL    MW4 5360   2.261   1.944   2.357  0.2443 -0.4088  0.8744
 1333SOL     OW 5361   2.465   2.070   2.233  0.1197 -0.2058  0.3119
 1333SOL    HW2 5362   2.525   2.001   2.261  0.5064  0.0909  0.2140
 1333SOL    HW3 5363   2.453   2.055   2.139 -0.7629 -0.8806  0.5224
 1333SOL    MW4 5364   2.471   2.059   2.224  0.0542 -0.2557  0.3267
 1334SOL     OW 5365   2.482   2.314   2.349  0.3040 -0.3971  0.0240
 1334SOL    HW2 5366   2.561   2.351   2.310  0.0835 -0.0839 -0.1171
 1334SOL    HW3 5367   2.468   2.232   2.302  0.4138 -0.3391 -0.1079
 1334SOL    MW4 5368   2.491   2.308   2.338  0.2894 -0.3481 -0.0120
 1335SOL     OW 5369   2.236   2.409   2.263 -0.1334  0.2534  0.2742
 1335SOL    HW2 5370   2.222   2.499   2.294 -0.4681 -0.4112  2.1144
 1335SOL    HW3 5371   2.320   2.384   2.302 -0.7044 -0.7095  0.8821
 1335SOL    MW4 5372   2.245   2.418   2.273 -0.2529  0.0387  0.5972
 1336SOL     OW 5373   2.213   2.665   2.354 -0.2895 -0.3965  0.2229
 1336SOL    HW2 5374   2.214   2.664   2.450 -1.2032 -0.6856  0.2294
 1336SOL    HW3 5375   2.289   2.719   2.331  0.5517 -1.1635  1.0895
 1336SOL    MW4 5376   2.223   2.672   2.364 -0.2991 -0.5358  0.3381
 1337SOL     OW 5377   2.451   2.842   2.294 -0.4771 -0.4079 -0.0594
 1337SOL    HW2 5378   2.527   2.801   2.336  0.2786  0.9788 -0.0272
 1337SOL    HW3 5379   2.471   2.839   2.201 -0.0729  0.5019 -0.0159
 1337SOL    MW4 5380   2.464   2.836   2.287 -0.3241 -0.1049 -0.0494
 1338SOL     OW 5381   2.461   3.113   2.374  0.3957  0.1846  0.2051
 1338SOL    HW2 5382   2.538   3.154   2.335 -0.8591  0.6831 -1.8480
 1338SOL    HW3 5383   2.462   3.023   2.341 -0.2408  0.3769 -0.3506
 1338SOL    MW4 5384   2.471   3.107   2.365  0.1461  0.2757 -0.1391
 1339SOL     OW 5385   2.209   3.223   2.303  0.3505 -0.1764 -0.8390
 1339SOL    HW2 5386   2.213   3.318   2.318  0.0306 -0.3400  0.3385
 1339SOL    HW3 5387   2.297   3.192   2.323  0.0533 -0.3256  0.3095
 1339SOL    MW4 5388   2.221   3.232   2.308  0.2691 -0.2177 -0.5321
 1340SOL     OW 5389   2.233   3.494   2.346 -0.0232  0.4662 -0.0581
 1340SOL    HW2 5390   2.220   3.462   2.436 -1.4433 -0.2754 -0.4993
 1340SOL    HW3 5391   2.156   3.547   2.328 -0.4166 -0.4830 -1.2904
 1340SOL    MW4 5392   2.221   3.497   2.355 -0.2625  0.2431 -0.2789
 1341SOL     OW 5393   2.473   3.621   2.222  0.1739  0.2112  0.2459
 1341SOL    HW2 5394   2.480   3.709   2.260  1.7393  0.1802  0.0615
 1341SOL    HW3 5395   2.393   3.585   2.260 -0.1658  1.4997  0.7797
 1341SOL    MW4 5396   2.463   3.628   2.232  0.3356  0.3771  0.2920
 1342SOL     OW 5397   2.486   3.875   2.311 -0.3692 -0.0272  0.0287
 1342SOL    HW2 5398   2.500   3.879   2.406  0.5966  2.5809 -0.1711
 1342SOL    HW3 5399   2.405   3.924   2.297  0.1653  0.7075 -0.5780
 1342SOL    MW4 5400   2.477   3.882   2.322 -0.1713  0.4139 -0.0777
 1343SOL     OW 5401   2.261   4.038   2.238 -0.2105  0.0828 -0.3268
 1343SOL    HW2 5402   2.253   4.128   2.272 -1.6032 -0.1106 -0.1045
 1343SOL    HW3 5403   2.184   3.994   2.272  0.2230 -1.0782 -0.8524
 1343SOL    MW4 5404   2.250   4.044   2.247 -0.3370 -0.0959 -0.3668
 1344SOL     OW 5405   2.262   4.317   2.314  0.7130 -0.0717  0.0367
 1344SOL    HW2 5406   2.271   4.316   2.409  1.4744  0.7290 -0.0231
 1344SOL    HW3 5407   2.175   4.354   2.298  0.5235 -0.3529  0.4201
 1344SOL    MW4 5408   2.252   4.322   2.324  0.7885 -0.0032  0.0794
 1345SOL     OW 5409   2.479   4.418   2.170  0.4058 -0.2695 -0.2440
 1345SOL    HW2 5410   2.540   4.366   2.223  0.7776  1.1704  0.7875
 1345SOL    HW3 5411   2.395   4.409   2.215  0.4622 -0.0077 -0.0865
 1345SOL    MW4 5412   2.476   4.410   2.183  0.4623 -0.0450 -0.0872
 1346SOL     OW 5413   2.908   4.614   2.340  0.3650 -0.0387  0.0787
 1346SOL    HW2 5414   2.973   4.667   2.294 -0.7202  0.8901 -0.4133
 1346SOL    HW3 5415   2.918   4.526   2.303  1.1862  0.1495 -0.1469
 1346SOL    MW4 5416   2.918   4.610   2.329  0.3302  0.1087 -0.0160
 1347SOL     OW 5417   2.712   0.110   2.231  0.1989  0.0909 -0.2545
 1347SOL    HW2 5418   2.701   0.190   2.282  0.2163 -1.2366  1.8720
 1347SOL    HW3 5419   2.781   0.062   2.275 -0.4670 -1.5424 -0.9431
 1347SOL    MW4 5420   2.720   0.114   2.243  0.1134 -0.2998 -0.0648
 1348SOL     OW 5421   2.638   0.340   2.350  0.2537  0.0560 -0.2375
 1348SOL    HW2 5422   2.631   0.351   2.445 -0.0619  0.8268 -0.3483
 1348SOL    HW3 5423   2.721   0.382   2.328  0.9943 -1.3205 -0.1243
 1348SOL    MW4 5424   2.648   0.347   2.360  0.3097 -0.0239 -0.2371
 1349SOL     OW 5425   2.873   0.458   2.237 -0.8771  0.0086 -0.1404
 1349SOL    HW2 5426   2.888   0.542   2.280  0.0491 -0.4972  0.5621
 1349SOL    HW3 5427   2.882   0.477   2.144  3.1676  0.0143  0.1569
 1349SOL    MW4 5428   2.876   0.472   2.231 -0.2212 -0.0574 -0.0085
 1350SOL     OW 5429   2.924   0.710   2.342 -0.0945  0.3023  0.3220
 1350SOL    HW2 5430   2.925   0.706   2.437 -0.4326  1.0188  0.3571
 1350SOL    HW3 5431   2.858   0.776   2.321 -0.5398 -0.3746 -0.4232
 1350SOL    MW4 5432   2.916   0.718   2.352 -0.1978  0.3075  0.2283
 1351SOL     OW 5433   2.732   0.884   2.242 -0.0483  0.1060 -0.0394
 1351SOL    HW2 5434   2.726   0.974   2.273 -1.0475  0.4987 -1.2969
 1351SOL    HW3 5435   2.696   0.887   2.153 -0.9356 -1.7020  0.2261
 1351SOL    MW4 5436   2.726   0.896   2.234 -0.2972 -0.0807 -0.1703
 1352SOL     OW 5437   2.704   1.153   2.329  0.3973 -0.3192 -0.2402
 1352SOL    HW2 5438   2.685   1.151   2.423 -0.9577 -0.4905 -0.5016
 1352SOL    HW3 5439   2.783   1.207   2.322 -1.5503  2.7825  0.6730
 1352SOL    MW4 5440   2.712   1.160   2.341 -0.0385  0.0674 -0.1542
 1353SOL     OW 5441   2.946   1.274   2.283  0.8901 -0.3051  0.3063
 1353SOL    HW2 5442   3.009   1.210   2.316  0.9033 -0.4399  0.0257
 1353SOL    HW3 5443   2.961   1.275   2.188  1.4659  0.7282  0.4055
 1353SOL    MW4 5444   2.956   1.266   2.275  0.9678 -0.1866  0.2824
 1354SOL     OW 5445   2.914   1.528   2.388  0.0586  0.3498 -0.3522
 1354SOL    HW2 5446   2.907   1.526   2.484 -0.9213  0.6238 -0.4123
 1354SOL    HW3 5447   2.910   1.437   2.361  0.9340  0.2332 -0.0902
 1354SOL    MW4 5448   2.913   1.516   2.397  0.0448  0.3705 -0.3256
 1355SOL     OW 5449   2.668   1.644   2.251 -0.1844  0.0123 -0.0315
 1355SOL    HW2 5450   2.738   1.597   2.296 -0.2436  0.0135  0.0620
 1355SOL    HW3 5451   2.695   1.645   2.159  0.2169  0.4965  0.0867
 1355SOL    MW4 5452   2.681   1.638   2.245 -0.1393  0.0763 -0.0036
 1356SOL     OW 5453   2.668   1.901   2.343 -0.2688 -0.6661 -0.0053
 1356SOL    HW2 5454   2.670   1.895   2.439 -1.3476 -0.3642  0.0429
 1356SOL    HW3 5455   2.680   1.811   2.313  0.7714 -0.6686  0.3948
 1356SOL    MW4 5456   2.670   1.888   2.352 -0.2739 -0.6266  0.0538
 1357SOL     OW 5457   2.896   2.057   2.289  0.0641  0.4998  0.6934
 1357SOL    HW2 5458   2.979   2.011   2.300 -0.3190 -0.0183  1.4376
 1357SOL    HW3 5459   2.829   1.993   2.312 -0.5872  0.6800 -0.6337
 1357SOL    MW4 5460   2.898   2.043   2.293 -0.0723  0.4552  0.6165
 1358SOL     OW 5461   2.910   2.343   2.350  0.3272 -0.0972 -0.0395
 1358SOL    HW2 5462   2.904   2.350   2.445 -1.4366 -1.5107 -0.0178
 1358SOL    HW3 5463   2.906   2.249   2.333  0.0101  0.1773 -1.5508
 1358SOL    MW4 5464   2.908   2.331   2.361  0.0526 -0.2475 -0.2360
 1359SOL     OW 5465   2.682   2.456   2.246  0.0690  0.1310 -0.3419
 1359SOL    HW2 5466   2.765   2.425   2.282  0.4164  0.8597 -0.5148
 1359SOL    HW3 5467   2.664   2.537   2.294 -0.5132  0.0115 -0.3510
 1359SOL    MW4 5468   2.690   2.463   2.257  0.0380  0.2114 -0.3659
 1360SOL     OW 5469   2.661   2.714   2.386 -0.1414 -0.1165 -0.4546
 1360SOL    HW2 5470   2.744   2.746   2.350  0.4167 -1.3791 -0.3005
 1360SOL    HW3 5471   2.673   2.719   2.480 -0.0658 -0.7692 -0.4329
 1360SOL    MW4 5472   2.674   2.719   2.393 -0.0578 -0.3692 -0.4314
 1361SOL     OW 5473   2.887   2.839   2.259  0.5475  0.1604  0.6510
 1361SOL    HW2 5474   2.888   2.933   2.277  2.4729  0.0602  1.2152
 1361SOL    HW3 5475   2.884   2.833   2.163 -1.8925  0.7611  0.6646
 1361SOL    MW4 5476   2.887   2.851   2.249  0.4796  0.2264  0.7273
 1362SOL     OW 5477   2.878   3.080   2.379 -0.0098 -0.4683 -0.7319
 1362SOL    HW2 5478   2.957   3.113   2.336 -0.2714 -0.2571 -1.0641
 1362SOL    HW3 5479   2.810   3.143   2.354 -0.6910 -1.6718 -2.0078
 1362SOL    MW4 5480   2.879   3.093   2.370 -0.1342 -0.5992 -0.9441
 1363SOL     OW 5481   2.674   3.249   2.281 -0.5062  0.1860 -0.3149
 1363SOL    HW2 5482   2.675   3.341   2.305 -2.2979  0.4093 -1.0188
 1363SOL    HW3 5483   2.685   3.249   2.186  0.3991 -0.3840 -0.2189
 1363SOL    MW4 5484   2.676   3.261   2.271 -0.6232  0.1403 -0.3951
 1364SOL     OW 5485   2.688   3.507   2.350 -0.1919  0.3957  0.5106
 1364SOL    HW2 5486   2.754   3.564   2.311 -0.1403 -0.2129 -0.2956
 1364SOL    HW3 5487   2.606   3.532   2.308 -0.3328  0.5482  0.8723
 1364SOL    MW4 5488   2.686   3.518   2.339 -0.2037  0.3355  0.4519
 1365SOL     OW 5489   2.906   3.640   2.208 -0.2748  0.2005  0.1326
 1365SOL    HW2 5490   2.987   3.604   2.245  0.2060  1.3422  0.2059
 1365SOL    HW3 5491   2.905   3.731   2.237 -1.1759  0.4135 -0.5588
 1365SOL    MW4 5492   2.917   3.648   2.217 -0.3303  0.3792  0.0510
 1366SOL     OW 5493   2.911   3.909   2.317  0.6018 -0.0742 -0.1819
 1366SOL    HW2 5494   2.914   3.892   2.411  0.3172 -0.8657 -0.3088
 1366SOL    HW3 5495   2.873   3.996   2.309 -1.3744 -0.8572  0.3757
 1366SOL    MW4 5496   2.906   3.918   2.328  0.3035 -0.2819 -0.1251
 1367SOL     OW 5497   2.682   4.053   2.216 -0.0226 -0.3330 -0.2417
 1367SOL    HW2 5498   2.615   3.991   2.247  2.6013 -3.1935 -0.0239
 1367SOL    HW3 5499   2.671   4.054   2.121 -0.9155 -0.1224 -0.1420
 1367SOL    MW4 5500   2.672   4.045   2.207  0.2058 -0.6826 -0.1998
 1368SOL     OW 5501   2.690   4.309   2.324 -0.4819  0.0071 -0.4107
 1368SOL    HW2 5502   2.692   4.306   2.419  0.7236  0.4871 -0.4150
 1368SOL    HW3 5503   2.692   4.218   2.296 -1.5814 -0.1584  0.0255
 1368SOL    MW4 5504   2.690   4.297   2.333 -0.4679  0.0486 -0.3537
 1369SOL     OW 5505   2.921   4.395   2.199 -0.3009  0.0123  0.4647
 1369SOL    HW2 5506   2.982   4.333   2.240 -0.1650 -0.4800 -0.4636
 1369SOL    HW3 5507   2.835   4.369   2.232 -0.1912 -0.3658  0.4557
 1369SOL    MW4 5508   2.917   4.383   2.208 -0.2685 -0.1026  0.3410
 1370SOL     OW 5509   3.331   4.634   2.329 -0.0988 -0.0904 -0.2488
 1370SOL    HW2 5510   3.334   4.640   2.425 -0.5238  1.1129 -0.3093
 1370SOL    HW3 5511   3.411   4.676   2.299 -0.2641  0.0892 -0.4418
 1370SOL    MW4 5512   3.342   4.640   2.338 -0.1767  0.0920 -0.2823
 1371SOL     OW 5513   3.116   0.107   2.210 -0.0687  0.2212  0.2899
 1371SOL    HW2 5514   3.125   0.195   2.246  1.3965 -0.0801  0.6964
 1371SOL    HW3 5515   3.191   0.058   2.247 -0.3730 -0.9487 -0.6153
 1371SOL    MW4 5516   3.127   0.112   2.220  0.0844  0.0271  0.2241
 1372SOL     OW 5517   3.125   0.361   2.338 -0.6119  0.2224 -0.4538
 1372SOL    HW2 5518   3.186   0.416   2.289  0.9609 -1.1442 -0.0675
 1372SOL    HW3 5519   3.038   0.385   2.304  0.4217 -0.7045 -3.9853
 1372SOL    MW4 5520   3.121   0.371   2.327 -0.2680 -0.0802 -0.8688
 1373SOL     OW 5521   3.333   0.517   2.272 -0.0953  0.0021  0.2977
 1373SOL    HW2 5522   3.405   0.467   2.311  0.2772  0.1337 -0.2058
 1373SOL    HW3 5523   3.348   0.510   2.177 -0.9797 -0.3122  0.1743
 1373SOL    MW4 5524   3.345   0.510   2.264 -0.1628 -0.0220  0.2150
 1374SOL     OW 5525   3.364   0.771   2.348  0.2226  0.1675 -0.1621
 1374SOL    HW2 5526   3.449   0.798   2.315  1.0033 -0.8425  0.9693
 1374SOL    HW3 5527   3.358   0.678   2.327  0.8031 -0.5476  2.5657
 1374SOL    MW4 5528   3.374   0.762   2.341  0.4022 -0.0601  0.3470
 1375SOL     OW 5529   3.135   0.864   2.197  0.6853  0.5956 -0.1050
 1375SOL    HW2 5530   3.221   0.834   2.225  0.1499  0.6685  1.6598
 1375SOL    HW3 5531   3.073   0.808   2.244 -0.2406  0.5567 -1.3395
 1375SOL    MW4 5532   3.138   0.853   2.207  0.4925  0.6001 -0.0350
 1376SOL     OW 5533   3.149   1.101   2.336  0.0972 -0.0503  0.0221
 1376SOL    HW2 5534   3.207   1.152   2.279  0.3690  0.2274  0.5412
 1376SOL    HW3 5535   3.144   1.015   2.295 -0.5167  0.4448 -0.9731
 1376SOL    MW4 5536   3.156   1.096   2.323  0.0521  0.0517 -0.0407
 1377SOL     OW 5537   3.323   1.238   2.191 -0.1170 -0.3371  0.2659
 1377SOL    HW2 5538   3.403   1.190   2.212  0.6349  1.1006  0.7991
 1377SOL    HW3 5539   3.333   1.322   2.236 -0.6712  0.9589 -1.9452
 1377SOL    MW4 5540   3.335   1.243   2.200 -0.0909  0.0236  0.0445
 1378SOL     OW 5541   3.368   1.504   2.304  0.5384 -0.0092 -0.1580
 1378SOL    HW2 5542   3.366   1.504   2.400  1.3180  0.0237 -0.1342
 1378SOL    HW3 5543   3.286   1.546   2.278  0.6926  0.7237  0.5104
 1378SOL    MW4 5544   3.357   1.510   2.313  0.6616  0.0918 -0.0667
 1379SOL     OW 5545   3.129   1.624   2.242 -0.0232  0.9203 -0.3044
 1379SOL    HW2 5546   3.142   1.717   2.262  0.7670  1.0119 -1.2025
 1379SOL    HW3 5547   3.059   1.596   2.301  1.0910  1.5893  1.3784
 1379SOL    MW4 5548   3.122   1.633   2.253  0.2280  1.0207 -0.2008
 1380SOL     OW 5549   3.134   1.918   2.323 -0.3495 -0.0744  0.5119
 1380SOL    HW2 5550   3.136   1.912   2.418 -2.2552 -0.5456  0.5583
 1380SOL    HW3 5551   3.205   1.977   2.300  1.0974 -1.1618  2.1105
 1380SOL    MW4 5552   3.143   1.925   2.332 -0.4101 -0.2800  0.7289
 1381SOL     OW 5553   3.328   2.082   2.240  0.5002  0.1517  0.0324
 1381SOL    HW2 5554   3.407   2.037   2.271  0.2098 -0.7261 -0.4793
 1381SOL    HW3 5555   3.327   2.065   2.146  0.3115  1.1305 -0.1466
 1381SOL    MW4 5556   3.339   2.074   2.232  0.4370  0.1650 -0.0587
 1382SOL     OW 5557   3.383   2.328   2.378 -0.2010  0.0017  0.2264
 1382SOL    HW2 5558   3.317   2.378   2.329  0.4573  0.0999 -0.5764
 1382SOL    HW3 5559   3.371   2.238   2.349  0.5513  0.1416 -0.5348
 1382SOL    MW4 5560   3.373   2.323   2.368 -0.0149  0.0331  0.0200
 1383SOL     OW 5561   3.154   2.449   2.277  0.5181  0.1758  0.1253
 1383SOL    HW2 5562   3.141   2.540   2.304  1.3094  0.1117  0.7328
 1383SOL    HW3 5563   3.074   2.404   2.305  0.5276  0.4979  0.6670
 1383SOL    MW4 5564   3.141   2.455   2.284  0.6237  0.2098  0.2769
 1384SOL     OW 5565   3.116   2.719   2.352  0.0840 -0.2735 -0.1628
 1384SOL    HW2 5566   3.103   2.708   2.446  0.4886 -0.1206 -0.0854
 1384SOL    HW3 5567   3.038   2.766   2.322 -1.3881 -2.8108 -0.4102
 1384SOL    MW4 5568   3.104   2.724   2.360 -0.0569 -0.5881 -0.1852
 1385SOL     OW 5569   3.373   2.837   2.276  0.0735  0.0395  0.5310
 1385SOL    HW2 5570   3.370   2.930   2.298 -0.8137  0.2641 -0.5122
 1385SOL    HW3 5571   3.290   2.802   2.310 -0.4489  0.0155 -0.7233
 1385SOL    MW4 5572   3.361   2.844   2.283 -0.1125  0.0660  0.2279
 1386SOL     OW 5573   3.358   3.106   2.353  0.4884 -0.2250 -0.2500
 1386SOL    HW2 5574   3.429   3.140   2.299  0.9384 -0.6419  0.0816
 1386SOL    HW3 5575   3.280   3.149   2.319  1.0399  1.1125  0.1432
 1386SOL    MW4 5576   3.357   3.116   2.341  0.6205 -0.1036 -0.1544
 1387SOL     OW 5577   3.095   3.217   2.280  0.0960  0.3803 -0.0551
 1387SOL    HW2 5578   3.095   3.311   2.300  0.0849  0.6329 -1.2002
 1387SOL    HW3 5579   3.099   3.213   2.184 -1.1130 -0.7733 -0.0818
 1387SOL    MW4 5580   3.095   3.229   2.270 -0.0650  0.2614 -0.2097
 1388SOL     OW 5581   3.114   3.500   2.339 -0.1379  0.6308  0.2705
 1388SOL    HW2 5582   3.123   3.511   2.433  0.3456  0.9344  0.1916
 1388SOL    HW3 5583   3.200   3.524   2.303 -0.1369 -0.0605 -0.1959
 1388SOL    MW4 5584   3.126   3.505   2.346 -0.0740  0.5796  0.1986
 1389SOL     OW 5585   3.355   3.596   2.250 -0.5643  0.4097  0.1630
 1389SOL    HW2 5586   3.422   3.543   2.294 -1.4029 -0.8768 -0.1011
 1389SOL    HW3 5587   3.374   3.585   2.157 -0.4233  0.9966  0.1209
 1389SOL    MW4 5588   3.367   3.587   2.243 -0.6563  0.3174  0.1226
 1390SOL     OW 5589   3.381   3.847   2.348  0.6852  0.1499  0.0746
 1390SOL    HW2 5590   3.450   3.897   2.305  2.1527 -0.0953  2.1140
 1390SOL    HW3 5591   3.376   3.765   2.299  2.0979  0.0162  0.1349
 1390SOL    MW4 5592   3.389   3.843   2.336  1.0652  0.0999  0.3516
 1391SOL     OW 5593   3.181   3.987   2.209  0.2956 -0.5003  0.3163
 1391SOL    HW2 5594   3.251   3.951   2.263 -0.8139 -3.3548 -0.0801
 1391SOL    HW3 5595   3.101   3.950   2.245 -1.0184  2.2723  0.4037
 1391SOL    MW4 5596   3.180   3.977   2.221 -0.0241 -0.5111  0.2755
 1392SOL     OW 5597   3.153   4.265   2.327 -0.3781  0.4312 -0.0128
 1392SOL    HW2 5598   3.231   4.299   2.283  0.7654 -0.1399  1.5313
 1392SOL    HW3 5599   3.142   4.177   2.291 -0.0349  0.3351  0.1150
 1392SOL    MW4 5600   3.162   4.258   2.316 -0.1819  0.3432  0.2078
 1393SOL     OW 5601   3.401   4.390   2.218 -0.2699  0.7909 -0.2328
 1393SOL    HW2 5602   3.379   4.475   2.256 -0.1260  0.7852 -0.1360
 1393SOL    HW3 5603   3.417   4.408   2.125 -2.0235  0.5770 -0.5919
 1393SOL    MW4 5604   3.400   4.404   2.211 -0.4823  0.7619 -0.2674
 1394SOL     OW 5605   3.787   4.648   2.357 -0.6364 -0.4092 -0.4573
 1394SOL    HW2 5606   3.804   4.636   2.451 -1.4874  0.7544 -0.1499
 1394SOL    HW3 5607   3.874   4.663   2.319 -0.4649  1.0127  0.4385
 1394SOL    MW4 5608   3.801   4.648   2.365 -0.7261 -0.0681 -0.2985
 1395SOL     OW 5609   3.555   0.094   2.234 -0.0700 -0.3213 -0.3353
 1395SOL    HW2 5610   3.554   0.180   2.276  0.6243  0.6401 -2.2436
 1395SOL    HW3 5611   3.625   0.047   2.279 -0.5796  0.0305  0.8518
 1395SOL    MW4 5612   3.564   0.099   2.245 -0.0456 -0.1480 -0.4305
 1396SOL     OW 5613   3.527   0.330   2.366  0.0415 -0.0327  0.5397
 1396SOL    HW2 5614   3.530   0.321   2.461 -1.2630  1.2293  0.7171
 1396SOL    HW3 5615   3.613   0.366   2.343 -0.1504  0.9914  1.3947
 1396SOL    MW4 5616   3.539   0.334   2.375 -0.1559  0.2689  0.6759
 1397SOL     OW 5617   3.766   0.484   2.279 -0.1673  0.1183 -0.3154
 1397SOL    HW2 5618   3.782   0.578   2.291  1.1424 -0.1723  0.3235
 1397SOL    HW3 5619   3.771   0.471   2.184 -0.8593  0.7834 -0.4433
 1397SOL    MW4 5620   3.769   0.495   2.268 -0.0858  0.1677 -0.2480
 1398SOL     OW 5621   3.822   0.766   2.320  0.4906  0.0642 -0.0039
 1398SOL    HW2 5622   3.818   0.756   2.415 -0.3345 -2.0651 -0.2296
 1398SOL    HW3 5623   3.894   0.827   2.305 -0.2135  1.4590  2.0467
 1398SOL    MW4 5624   3.831   0.773   2.331  0.2888 -0.0327  0.2369
 1399SOL     OW 5625   3.592   0.868   2.206  0.0693  0.2036  0.5270
 1399SOL    HW2 5626   3.676   0.837   2.240 -0.4790 -1.0651  0.7729
 1399SOL    HW3 5627   3.606   0.878   2.112  0.2974 -0.6807  0.4636
 1399SOL    MW4 5628   3.605   0.865   2.198  0.0271 -0.0805  0.5511
 1400SOL     OW 5629   3.552   1.130   2.317  0.1820  0.6075 -0.3372
 1400SOL    HW2 5630   3.561   1.140   2.412  0.2231  0.8536 -0.3655
 1400SOL    HW3 5631   3.558   1.036   2.301 -0.0940  0.5429 -0.0668
 1400SOL    MW4 5632   3.554   1.119   2.327  0.1510  0.6314 -0.3052
 1401SOL     OW 5633   3.766   1.281   2.208 -0.8925  0.2032 -0.0123
 1401SOL    HW2 5634   3.754   1.360   2.260 -1.1753  0.1485  0.0039
 1401SOL    HW3 5635   3.703   1.218   2.244  1.2211 -0.9406  1.8106
 1401SOL    MW4 5636   3.756   1.283   2.220 -0.6510  0.0450  0.2304
 1402SOL     OW 5637   3.762   1.521   2.330 -0.3140 -0.1837  0.2579
 1402SOL    HW2 5638   3.730   1.514   2.420 -0.7786  0.5058  0.1531
 1402SOL    HW3 5639   3.701   1.581   2.288  1.7489  2.0687  0.3418
 1402SOL    MW4 5640   3.750   1.528   2.336 -0.1031  0.2044  0.2552
 1403SOL     OW 5641   3.567   1.677   2.203 -0.6359 -0.0952 -0.3419
 1403SOL    HW2 5642   3.495   1.617   2.224 -0.1349 -0.2654  0.9709
 1403SOL    HW3 5643   3.560   1.692   2.109 -1.5755 -1.1677 -0.4492
 1403SOL    MW4 5644   3.557   1.671   2.194 -0.6938 -0.2591 -0.1828
 1404SOL     OW 5645   3.576   1.934   2.347 -0.2115 -0.3819  0.6198
 1404SOL    HW2 5646   3.656   1.978   2.319  0.1285 -1.1632  0.3538
 1404SOL    HW3 5647   3.571   1.855   2.292 -1.9866  0.4542 -0.4646
 1404SOL    MW4 5648   3.586   1.929   2.336 -0.4008 -0.3747  0.4416
 1405SOL     OW 5649   3.806   2.082   2.266 -0.0015  0.4146 -0.2962
 1405SOL    HW2 5650   3.880   2.027   2.291  0.5388  0.9292 -0.7850
 1405SOL    HW3 5651   3.803   2.077   2.171 -1.4492 -0.7246 -0.2107
 1405SOL    MW4 5652   3.815   2.074   2.257 -0.1212  0.3322 -0.3494
 1406SOL     OW 5653   3.844   2.335   2.386  0.1793 -0.0943  0.0513
 1406SOL    HW2 5654   3.776   2.383   2.339 -2.0074 -0.5145  2.6695
 1406SOL    HW3 5655   3.828   2.243   2.364 -0.6790 -0.2674  1.3351
 1406SOL    MW4 5656   3.833   2.329   2.377 -0.2225 -0.1726  0.5661
 1407SOL     OW 5657   3.621   2.422   2.264 -0.0142 -0.2007  0.0571
 1407SOL    HW2 5658   3.538   2.390   2.299 -0.0009 -0.1464  0.1385
 1407SOL    HW3 5659   3.614   2.410   2.169 -1.1544  2.1967 -0.2209
 1407SOL    MW4 5660   3.609   2.416   2.256 -0.1629  0.1227  0.0312
 1408SOL     OW 5661   3.599   2.667   2.391  0.4027 -0.2888 -0.5061
 1408SOL    HW2 5662   3.594   2.592   2.332 -0.1560 -0.5677 -0.1075
 1408SOL    HW3 5663   3.519   2.717   2.375 -0.3440 -1.0149  0.8643
 1408SOL    MW4 5664   3.588   2.664   2.381  0.2305 -0.4214 -0.2727
 1409SOL     OW 5665   3.783   2.810   2.254  0.1836 -0.3265  0.0735
 1409SOL    HW2 5666   3.789   2.904   2.273  1.0523 -0.2217 -0.6599
 1409SOL    HW3 5667   3.715   2.778   2.312  0.3112  0.6509  0.7789
 1409SOL    MW4 5668   3.775   2.818   2.264  0.3151 -0.1838  0.0698
 1410SOL     OW 5669   3.816   3.073   2.331  0.0213  0.0023 -0.0510
 1410SOL    HW2 5670   3.823   3.080   2.426 -0.0454 -1.3658  0.0584
 1410SOL    HW3 5671   3.886   3.129   2.297 -0.3450  0.9707  0.7914
 1410SOL    MW4 5672   3.826   3.081   2.339 -0.0358 -0.0505  0.0746
 1411SOL     OW 5673   3.559   3.227   2.205 -0.0277  0.3313 -0.2643
 1411SOL    HW2 5674   3.550   3.311   2.249  0.5971 -0.3849  1.2553
 1411SOL    HW3 5675   3.635   3.186   2.247 -0.2155 -0.9088 -1.1185
 1411SOL    MW4 5676   3.568   3.233   2.216  0.0299  0.0732 -0.1765
 1412SOL     OW 5677   3.564   3.458   2.364  0.2342 -0.7145 -0.0155
 1412SOL    HW2 5678   3.583   3.455   2.458  1.7679 -0.3061 -0.2944
 1412SOL    HW3 5679   3.642   3.497   2.325 -1.6349  2.0140 -1.1373
 1412SOL    MW4 5680   3.577   3.463   2.371  0.1900 -0.3006 -0.2003
 1413SOL     OW 5681   3.786   3.566   2.211 -0.0156 -0.1096 -0.4648
 1413SOL    HW2 5682   3.787   3.656   2.246  1.8830 -0.3914  0.2794
 1413SOL    HW3 5683   3.788   3.577   2.116  0.5386  0.6527 -0.3717
 1413SOL    MW4 5684   3.787   3.580   2.203  0.3080 -0.0462 -0.3543
 1414SOL     OW 5685   3.786   3.847   2.334  0.2017 -0.1704 -0.4376
 1414SOL    HW2 5686   3.798   3.846   2.429  1.4937 -0.4891 -0.5865
 1414SOL    HW3 5687   3.854   3.906   2.303 -0.0935 -0.2218 -1.1794
 1414SOL    MW4 5688   3.797   3.855   2.343  0.3332 -0.2192 -0.5551
 1415SOL     OW 5689   3.582   3.991   2.210  0.4344  0.4103 -0.1662
 1415SOL    HW2 5690   3.590   4.083   2.237 -0.5928  0.3890  0.2103
 1415SOL    HW3 5691   3.643   3.944   2.266 -0.3213  0.6212  0.8326
 1415SOL    MW4 5692   3.591   3.997   2.221  0.1992  0.4353  0.0153
 1416SOL     OW 5693   3.592   4.238   2.322  0.1994  0.3847  0.2505
 1416SOL    HW2 5694   3.675   4.283   2.306 -0.1027  1.1401  0.7500
 1416SOL    HW3 5695   3.526   4.304   2.302 -0.2444  0.2485  1.2473
 1416SOL    MW4 5696   3.594   4.253   2.317  0.1010  0.4664  0.4479
 1417SOL     OW 5697   3.826   4.372   2.261 -0.0884 -0.2297  0.6487
 1417SOL    HW2 5698   3.899   4.338   2.312  0.5441 -0.6207 -0.4928
 1417SOL    HW3 5699   3.813   4.461   2.293  1.9682  0.4277 -0.2455
 1417SOL    MW4 5700   3.834   4.379   2.272  0.2664 -0.1946  0.3801
 1418SOL     OW 5701   4.245   4.613   2.354  0.5725 -0.0219 -0.3280
 1418SOL    HW2 5702   4.247   4.605   2.449  1.2435 -1.0297 -0.4151
 1418SOL    HW3 5703   4.320   4.669   2.333 -1.3632  2.7192 -0.0549
 1418SOL    MW4 5704   4.255   4.619   2.364  0.4056  0.2068 -0.3035
 1419SOL     OW 5705   4.022   0.078   2.247 -0.9867  0.1035 -0.1289
 1419SOL    HW2 5706   4.035   0.171   2.268 -0.4391  0.3714 -1.6065
 1419SOL    HW3 5707   4.093   0.033   2.291 -0.2609  0.5814 -0.7944
 1419SOL    MW4 5708   4.033   0.084   2.256 -0.8187  0.2019 -0.4116
 1420SOL     OW 5709   4.031   0.347   2.298  0.5541 -0.2936  0.2424
 1420SOL    HW2 5710   4.100   0.402   2.260 -0.1015  0.6238  0.3903
 1420SOL    HW3 5711   3.950   0.394   2.280 -0.2312 -2.2307 -1.4896
 1420SOL    MW4 5712   4.030   0.360   2.291  0.3640 -0.4281  0.0334
 1421SOL     OW 5713   4.261   0.502   2.225  0.3419 -0.6672  0.0909
 1421SOL    HW2 5714   4.264   0.591   2.261  0.9810 -0.8737  0.5462
 1421SOL    HW3 5715   4.329   0.455   2.272 -0.4422 -1.5792  0.3371
 1421SOL    MW4 5716   4.270   0.507   2.236  0.3228 -0.8148  0.1834
 1422SOL     OW 5717   4.236   0.757   2.338 -0.2645 -0.0918  0.4772
 1422SOL    HW2 5718   4.163   0.803   2.297 -0.1390 -0.2333  0.0911
 1422SOL    HW3 5719   4.312   0.812   2.320 -0.3567  0.3325  1.3453
 1422SOL    MW4 5720   4.237   0.770   2.330 -0.2601 -0.0545  0.5408
 1423SOL     OW 5721   4.038   0.914   2.225 -0.4211  0.3126 -0.0666
 1423SOL    HW2 5722   4.017   0.999   2.265 -0.7819  0.4862 -0.6223
 1423SOL    HW3 5723   4.026   0.928   2.131  0.5611 -0.0610 -0.2443
 1423SOL    MW4 5724   4.033   0.927   2.218 -0.3391  0.2863 -0.1633
 1424SOL     OW 5725   3.996   1.160   2.321 -0.4847 -0.5178 -0.1172
 1424SOL    HW2 5726   3.992   1.147   2.415 -0.6035 -2.8362 -0.4131
 1424SOL    HW3 5727   3.915   1.205   2.299 -1.1569 -1.3447  0.6740
 1424SOL    MW4 5728   3.985   1.164   2.330 -0.5891 -0.9328 -0.0519
 1425SOL     OW 5729   4.241   1.277   2.218 -0.0223  0.0336 -0.0839
 1425SOL    HW2 5730   4.164   1.227   2.243  0.8784 -1.3572 -0.0645
 1425SOL    HW3 5731   4.311   1.243   2.272  0.1238  3.0837  1.7948
 1425SOL    MW4 5732   4.240   1.266   2.228  0.1158  0.2525  0.1665
 1426SOL     OW 5733   4.244   1.505   2.353  0.5960  0.0139  0.3915
 1426SOL    HW2 5734   4.237   1.423   2.304  2.0599 -0.4400  0.9106
 1426SOL    HW3 5735   4.328   1.542   2.325  0.3883  0.8630  0.8799
 1426SOL    MW4 5736   4.254   1.499   2.343  0.7618  0.0660  0.5244
 1427SOL     OW 5737   4.009   1.638   2.262 -0.5143  0.1801  0.3743
 1427SOL    HW2 5738   4.081   1.588   2.301 -0.1778  0.2366 -0.1691
 1427SOL    HW3 5739   3.930   1.593   2.293 -0.1955 -1.2287 -0.8070
 1427SOL    MW4 5740   4.008   1.625   2.271 -0.4279  0.0017  0.1467
 1428SOL     OW 5741   4.024   1.908   2.341 -0.1822 -0.3145  0.1002
 1428SOL    HW2 5742   4.027   1.894   2.436  1.7929 -0.8841 -0.0150
 1428SOL    HW3 5743   4.030   1.820   2.304  0.4389 -0.0041 -0.5510
 1428SOL    MW4 5744   4.025   1.894   2.349  0.1603 -0.3487 -0.0010
 1429SOL     OW 5745   4.254   2.047   2.268 -0.2207 -0.0218 -0.3674
 1429SOL    HW2 5746   4.247   2.137   2.298  0.4058 -0.2325  0.4328
 1429SOL    HW3 5747   4.173   2.005   2.298 -0.5314  0.2789 -0.7767
 1429SOL    MW4 5748   4.242   2.053   2.276 -0.1791 -0.0099 -0.3158
 1430SOL     OW 5749   4.240   2.300   2.354  0.6102  0.2737 -0.0246
 1430SOL    HW2 5750   4.169   2.353   2.319 -0.5589 -0.5712  1.0275
 1430SOL    HW3 5751   4.319   2.348   2.332 -0.2178  0.7309 -2.0920
 1430SOL    MW4 5752   4.241   2.313   2.346  0.3467  0.2226 -0.1586
 1431SOL     OW 5753   4.042   2.450   2.231 -0.1960  0.1131  0.0077
 1431SOL    HW2 5754   4.041   2.537   2.272  0.1718 -0.6062  1.5688
 1431SOL    HW3 5755   3.977   2.400   2.280 -1.0093 -0.2612 -1.4416
 1431SOL    MW4 5756   4.033   2.455   2.243 -0.2548 -0.0312  0.0225
 1432SOL     OW 5757   4.046   2.726   2.342 -0.3787  0.0801  0.0170
 1432SOL    HW2 5758   4.034   2.713   2.437 -0.6860  2.9296  0.4091
 1432SOL    HW3 5759   3.965   2.769   2.314  0.3059  0.5408 -1.2769
 1432SOL    MW4 5760   4.033   2.730   2.351 -0.3289  0.5169 -0.1020
 1433SOL     OW 5761   4.292   2.803   2.220  0.0995 -0.0539  0.0576
 1433SOL    HW2 5762   4.213   2.772   2.264 -0.0497  0.2693  0.0161
 1433SOL    HW3 5763   4.364   2.769   2.273 -0.0614 -0.5546 -0.0398
 1433SOL    MW4 5764   4.291   2.794   2.232  0.0586 -0.0773  0.0393
 1434SOL     OW 5765   4.272   3.067   2.356 -0.0799  0.5336  0.2124
 1434SOL    HW2 5766   4.279   2.979   2.319 -0.7872  0.2966  0.6264
 1434SOL    HW3 5767   4.351   3.112   2.327  0.5361 -0.3999  0.4174
 1434SOL    MW4 5768   4.284   3.061   2.348 -0.0920  0.3791  0.2941
 1435SOL     OW 5769   4.053   3.237   2.225  0.0689  0.3204 -0.5361
 1435SOL    HW2 5770   4.029   3.317   2.271 -0.4218  0.8085 -1.6134
 1435SOL    HW3 5771   4.121   3.197   2.279 -3.2469 -1.2218  2.7373
 1435SOL    MW4 5772   4.059   3.242   2.238 -0.4334  0.1814 -0.2463
 1436SOL     OW 5773   3.992   3.480   2.356  0.2417 -0.0075 -0.2509
 1436SOL    HW2 5774   4.065   3.532   2.321  0.7314 -0.7799 -0.3730
 1436SOL    HW3 5775   3.918   3.502   2.298  0.1795  1.3168  0.3012
 1436SOL    MW4 5776   3.992   3.490   2.344  0.2981  0.0653 -0.1942
 1437SOL     OW 5777   4.214   3.613   2.259 -0.3202  0.0454  0.2317
 1437SOL    HW2 5778   4.212   3.701   2.297 -0.0515  0.6630 -1.1676
 1437SOL    HW3 5779   4.221   3.627   2.165 -1.9824 -1.4649 -0.1493
 1437SOL    MW4 5780   4.215   3.626   2.252 -0.5040 -0.0724 -0.0032
 1438SOL     OW 5781   4.211   3.859   2.377  0.2819 -0.0784  0.0825
 1438SOL    HW2 5782   4.215   3.862   2.473  0.6245  0.1586  0.0610
 1438SOL    HW3 5783   4.298   3.886   2.349 -0.0962  0.7385 -0.3156
 1438SOL    MW4 5784   4.223   3.863   2.386  0.2772  0.0606  0.0272
 1439SOL     OW 5785   4.008   4.006   2.291 -0.5241 -0.1743 -0.1588
 1439SOL    HW2 5786   4.081   3.949   2.315  0.3529  1.4843  1.2463
 1439SOL    HW3 5787   4.021   4.024   2.198 -0.1182 -1.2764 -0.3163
 1439SOL    MW4 5788   4.019   4.001   2.282 -0.3548 -0.1009  0.0058
 1440SOL     OW 5789   4.053   4.259   2.368  0.2453 -0.0260 -0.3824
 1440SOL    HW2 5790   4.131   4.287   2.320 -1.1049  0.7970 -2.1649
 1440SOL    HW3 5791   4.045   4.165   2.349  0.7122 -0.0696 -0.3483
 1440SOL    MW4 5792   4.062   4.250   2.359  0.1288  0.0769 -0.6131
 1441SOL     OW 5793   4.282   4.372   2.239  0.1662 -0.0305 -0.0933
 1441SOL    HW2 5794   4.283   4.455   2.287 -0.2729 -0.4025  0.5683
 1441SOL    HW3 5795   4.362   4.326   2.268  0.2643  0.0410 -0.2493
 1441SOL    MW4 5796   4.293   4.377   2.249  0.1212 -0.0701 -0.0266
 1442SOL     OW 5797   0.185   0.001   2.615  0.3193  0.4810  0.3460
 1442SOL    HW2 5798   0.176  -0.073   2.676  0.0403  0.5276  0.3623
 1442SOL    HW3 5799   0.115   0.061   2.640  0.9362  1.0444  0.7431
 1442SOL    MW4 5800   0.174  -0.001   2.626  0.3639  0.5615  0.4006
 1443SOL     OW 5801   4.465   0.134   2.715  0.0869 -0.7786 -0.4805
 1443SOL    HW2 5802   4.502   0.108   2.799 -1.7650 -1.3968  0.1523
 1443SOL    HW3 5803   4.473   0.229   2.714 -0.7209 -0.6933  0.7919
 1443SOL    MW4 5804   4.471   0.143   2.726 -0.2640 -0.8489 -0.2291
 1444SOL     OW 5805   4.472   0.409   2.637  0.5696  0.2060  0.0834
 1444SOL    HW2 5806   4.561   0.443   2.647  0.4516  0.4442  0.3105
 1444SOL    HW3 5807   4.460   0.403   2.542  0.5133  0.9959  0.0419
 1444SOL    MW4 5808   4.482   0.412   2.626  0.5466  0.3416  0.1079
 1445SOL     OW 5809   0.274   0.507   2.681 -0.0341 -0.4335  0.0768
 1445SOL    HW2 5810   0.266   0.495   2.776 -0.0965 -1.0812 -0.0072
 1445SOL    HW3 5811   0.344   0.447   2.655 -1.2755 -1.6320 -0.5547
 1445SOL    MW4 5812   0.282   0.498   2.690 -0.2061 -0.6771 -0.0176
 1446SOL     OW 5813   0.284   0.755   2.585  0.0834 -0.2213  0.1477
 1446SOL    HW2 5814   0.317   0.814   2.652  0.0431  0.0391 -0.0594
 1446SOL    HW3 5815   0.286   0.668   2.626 -0.3426 -0.0064  0.6318
 1446SOL    MW4 5816   0.288   0.751   2.599  0.0219 -0.1586  0.1842
 1447SOL     OW 5817   0.010   0.850   2.673  0.2316 -0.4765 -0.1006
 1447SOL    HW2 5818  -0.074   0.827   2.634  0.8675 -0.1516 -1.6680
 1447SOL    HW3 5819   0.074   0.797   2.625  1.2603  1.5051 -0.9598
 1447SOL    MW4 5820   0.007   0.840   2.662  0.4512 -0.1722 -0.4208
 1448SOL     OW 5821   0.012   1.118   2.610  0.1395  0.0748 -0.0219
 1448SOL    HW2 5822   0.075   1.159   2.669 -1.3953 -0.1027  1.7714
 1448SOL    HW3 5823   0.005   1.028   2.641 -1.4892  0.2683  0.2094
 1448SOL    MW4 5824   0.019   1.111   2.622 -0.2779  0.0769  0.2453
 1449SOL     OW 5825   0.208   1.275   2.736  0.1151  0.1230 -0.1249
 1449SOL    HW2 5826   0.289   1.242   2.696 -0.3498 -0.5205 -0.5481
 1449SOL    HW3 5827   0.188   1.355   2.687 -0.1872 -0.4016 -0.8617
 1449SOL    MW4 5828   0.216   1.281   2.724  0.0139 -0.0311 -0.2780
 1450SOL     OW 5829   0.203   1.517   2.589  0.9128 -0.2511 -0.5241
 1450SOL    HW2 5830   0.277   1.556   2.636  0.0322  0.7200  0.0730
 1450SOL    HW3 5831   0.125   1.550   2.635  0.0491  0.3417 -2.3804
 1450SOL    MW4 5832   0.202   1.527   2.601  0.6827 -0.0448 -0.6903
 1451SOL     OW 5833   4.487   1.645   2.704  0.3704  0.7051 -0.0703
 1451SOL    HW2 5834   4.484   1.637   2.799  0.0201  0.6044 -0.0879
 1451SOL    HW3 5835   4.492   1.739   2.687  3.1872  0.6434  0.1096
 1451SOL    MW4 5836   4.487   1.656   2.714  0.6958  0.6837 -0.0489
 1452SOL     OW 5837   4.468   1.903   2.621  0.2768 -0.0045 -0.0895
 1452SOL    HW2 5838   4.536   1.966   2.645 -0.3047  1.0043 -0.9899
 1452SOL    HW3 5839   4.476   1.895   2.526 -1.1520  0.5043 -0.2721
 1452SOL    MW4 5840   4.478   1.910   2.612  0.0115  0.1958 -0.2324
 1453SOL     OW 5841   0.198   2.052   2.703  0.1103 -0.1370 -0.4906
 1453SOL    HW2 5842   0.276   2.005   2.674  1.0151  0.6386  0.6784
 1453SOL    HW3 5843   0.213   2.143   2.678  0.2089  0.2659  1.0180
 1453SOL    MW4 5844   0.210   2.057   2.696  0.2427  0.0185 -0.1373
 1454SOL     OW 5845   0.220   2.335   2.624 -0.0004  0.0853 -0.0426
 1454SOL    HW2 5846   0.281   2.399   2.662 -0.2584  0.4844 -0.2868
 1454SOL    HW3 5847   0.134   2.363   2.656  0.1369 -1.6500  1.9150
 1454SOL    MW4 5848   0.217   2.347   2.634 -0.0163 -0.0910  0.1834
 1455SOL     OW 5849   4.479   2.447   2.705  0.1552 -0.1299 -0.1365
 1455SOL    HW2 5850   4.477   2.443   2.801  1.2291  1.1337 -0.0569
 1455SOL    HW3 5851   4.399   2.401   2.678 -0.4349 -0.0242  1.3700
 1455SOL    MW4 5852   4.468   2.440   2.714  0.2190  0.0507  0.0727
 1456SOL     OW 5853   0.016   2.738   2.636 -0.3383  0.3634 -0.2500
 1456SOL    HW2 5854  -0.074   2.762   2.657  0.1271  0.2119  2.0930
 1456SOL    HW3 5855   0.018   2.643   2.646  0.1452  0.3981 -0.0023
 1456SOL    MW4 5856   0.004   2.728   2.640 -0.2131  0.3480  0.0918
 1457SOL     OW 5857   0.222   2.864   2.758 -0.0589  0.2171  0.1331
 1457SOL    HW2 5858   0.235   2.944   2.707 -0.2871  0.4878  0.4963
 1457SOL    HW3 5859   0.144   2.824   2.721  1.1761 -0.8633 -1.3543
 1457SOL    MW4 5860   0.214   2.870   2.747  0.0739  0.1102 -0.0152
 1458SOL     OW 5861   0.261   3.101   2.636 -0.4153  0.3368 -0.2943
 1458SOL    HW2 5862   0.328   3.168   2.649 -0.9765  0.6440  1.0608
 1458SOL    HW3 5863   0.248   3.098   2.542  1.0830  0.6950 -0.5307
 1458SOL    MW4 5864   0.268   3.109   2.625 -0.2917  0.4246 -0.1467
 1459SOL     OW 5865   0.029   3.246   2.711  0.1958 -0.1312  0.3478
 1459SOL    HW2 5866  -0.039   3.186   2.680  1.2645 -1.7334  1.0665
 1459SOL    HW3 5867   0.111   3.209   2.678  0.7255  1.9129 -0.7103
 1459SOL    MW4 5868   0.031   3.233   2.703  0.4067 -0.0729  0.3030
 1460SOL     OW 5869   0.041   3.510   2.602 -0.1437 -0.1121  0.4981
 1460SOL    HW2 5870   0.111   3.560   2.645  0.9740 -0.6266 -0.7033
 1460SOL    HW3 5871   0.037   3.428   2.651  0.8724 -0.5448 -0.1344
 1460SOL    MW4 5872   0.050   3.506   2.614  0.1378 -0.2371  0.2561
 1461SOL     OW 5873   0.229   3.667   2.729  0.1569 -0.0277 -0.1768
 1461SOL    HW2 5874   0.235   3.662   2.825  1.2814  0.3160 -0.2294
 1461SOL    HW3 5875   0.298   3.609   2.698 -1.1567 -1.2975 -0.7956
 1461SOL    MW4 5876   0.239   3.659   2.738  0.1319 -0.1499 -0.2654
 1462SOL     OW 5877   0.213   3.907   2.630  0.1936 -0.3619  0.3437
 1462SOL    HW2 5878   0.209   3.818   2.664 -0.2020 -1.1613 -1.7264
 1462SOL    HW3 5879   0.233   3.897   2.537 -0.6424  1.6769 -0.0917
 1462SOL    MW4 5880   0.215   3.894   2.622  0.0311 -0.1983  0.0132
 1463SOL     OW 5881   0.003   4.045   2.724  0.2032  0.2313 -0.2715
 1463SOL    HW2 5882   0.007   4.129   2.679  1.1456  0.4051  0.1433
 1463SOL    HW3 5883   0.077   3.995   2.690  0.2050 -0.0840  0.1929
 1463SOL    MW4 5884   0.013   4.049   2.714  0.3278  0.2126 -0.1555
 1464SOL     OW 5885   0.012   4.306   2.611  0.1185 -0.0479 -0.1230
 1464SOL    HW2 5886  -0.070   4.337   2.650 -0.2506 -1.8458  0.6105
 1464SOL    HW3 5887   0.080   4.337   2.670 -0.0513  1.1618 -0.5467
 1464SOL    MW4 5888   0.010   4.314   2.624  0.0474 -0.1255 -0.0821
 1465SOL     OW 5889   0.214   4.409   2.755 -0.5014  0.3545 -0.8470
 1465SOL    HW2 5890   0.226   4.388   2.848 -0.3385  0.2419 -0.8924
 1465SOL    HW3 5891   0.280   4.355   2.710 -0.1338  0.9105 -0.9727
 1465SOL    MW4 5892   0.225   4.399   2.761 -0.4314  0.4130 -0.8696
 1466SOL     OW 5893   0.667   4.656   2.599  0.3177 -0.1477  0.3956
 1466SOL    HW2 5894   0.743   4.705   2.632  0.0200  0.3426  0.3349
 1466SOL    HW3 5895   0.592   4.697   2.640  0.1488 -1.2463  1.2150
 1466SOL    MW4 5896   0.667   4.668   2.609  0.2562 -0.2280  0.4957
 1467SOL     OW 5897   0.420   0.115   2.674 -0.1190 -0.1473  0.2977
 1467SOL    HW2 5898   0.433   0.107   2.769 -1.3267 -1.7248  0.3456
 1467SOL    HW3 5899   0.345   0.060   2.655 -0.4184  0.8183 -1.4757
 1467SOL    MW4 5900   0.412   0.107   2.684 -0.3179 -0.2281  0.0701
 1468SOL     OW 5901   0.484   0.364   2.600 -0.1093 -0.1895  0.4420
 1468SOL    HW2 5902   0.562   0.403   2.639 -0.8005  1.4136  0.2592
 1468SOL    HW3 5903   0.476   0.279   2.642  1.5928 -0.2521  0.6526
 1468SOL    MW4 5904   0.493   0.358   2.611  0.0240  0.0137  0.4457
 1469SOL     OW 5905   0.705   0.492   2.726  0.2476 -0.1195 -0.2618
 1469SOL    HW2 5906   0.697   0.491   2.821 -0.3685 -1.5006 -0.3027
 1469SOL    HW3 5907   0.792   0.455   2.709  0.1658 -0.3271 -0.2376
 1469SOL    MW4 5908   0.715   0.487   2.736  0.1555 -0.3291 -0.2640
 1470SOL     OW 5909   0.672   0.766   2.624 -0.1347 -0.1844  0.0408
 1470SOL    HW2 5910   0.751   0.810   2.656  0.5530 -0.5613 -1.0870
 1470SOL    HW3 5911   0.678   0.677   2.657  0.9408 -0.7795 -1.6720
 1470SOL    MW4 5912   0.683   0.760   2.632  0.0979 -0.3126 -0.3340
 1471SOL     OW 5913   0.438   0.921   2.741 -0.4597  0.2394  0.2510
 1471SOL    HW2 5914   0.445   1.013   2.713 -0.5242  0.1838  0.0550
 1471SOL    HW3 5915   0.518   0.880   2.709 -0.7637  0.0617 -0.2765
 1471SOL    MW4 5916   0.450   0.928   2.733 -0.5083  0.2086  0.1556
 1472SOL     OW 5917   0.451   1.197   2.617 -0.2422  0.2852  0.0503
 1472SOL    HW2 5918   0.517   1.262   2.640 -0.6021  0.9512 -0.7644
 1472SOL    HW3 5919   0.469   1.175   2.525  0.5119 -1.5317  0.6116
 1472SOL    MW4 5920   0.462   1.203   2.608 -0.1902  0.1334  0.0169
 1473SOL     OW 5921   0.672   1.347   2.710  0.0496  0.2212  0.0129
 1473SOL    HW2 5922   0.676   1.340   2.805 -1.4785  0.1724  0.0881
 1473SOL    HW3 5923   0.731   1.278   2.678 -0.8264 -0.9603  0.9015
 1473SOL    MW4 5924   0.681   1.337   2.718 -0.2676  0.0589  0.1401
 1474SOL     OW 5925   0.675   1.577   2.568  0.4446 -0.5719 -0.2445
 1474SOL    HW2 5926   0.587   1.608   2.590 -0.1116 -2.2136 -0.0371
 1474SOL    HW3 5927   0.687   1.499   2.623  2.0134 -0.3948 -0.3054
 1474SOL    MW4 5928   0.665   1.571   2.578  0.5782 -0.7651 -0.2252
 1475SOL     OW 5929   0.437   1.630   2.694 -0.6468 -0.1749  0.3653
 1475SOL    HW2 5930   0.468   1.652   2.782 -0.7736 -0.4392  0.4795
 1475SOL    HW3 5931   0.402   1.711   2.659 -0.8919 -0.1413  0.6850
 1475SOL    MW4 5932   0.436   1.643   2.701 -0.6959 -0.2053  0.4226
 1476SOL     OW 5933   0.424   1.920   2.607  0.2337  0.1304 -0.2537
 1476SOL    HW2 5934   0.504   1.964   2.637 -0.3273  0.0777  1.3319
 1476SOL    HW3 5935   0.424   1.933   2.512  2.3130 -0.1793 -0.3159
 1476SOL    MW4 5936   0.435   1.928   2.598  0.4340  0.0826 -0.0527
 1477SOL     OW 5937   0.629   2.074   2.685  0.1528 -0.3303 -0.6842
 1477SOL    HW2 5938   0.641   2.079   2.779  0.2777 -0.0541 -0.7131
 1477SOL    HW3 5939   0.710   2.034   2.652  0.4438  0.3059 -0.7502
 1477SOL    MW4 5940   0.641   2.069   2.693  0.2077 -0.2099 -0.6967
 1478SOL     OW 5941   0.633   2.343   2.590 -0.2130 -0.0861  0.0525
 1478SOL    HW2 5942   0.702   2.382   2.643  0.2870 -0.8738 -0.0251
 1478SOL    HW3 5943   0.631   2.251   2.616 -1.0789 -0.1148 -0.1074
 1478SOL    MW4 5944   0.642   2.336   2.600 -0.2613 -0.1938  0.0211
 1479SOL     OW 5945   0.426   2.480   2.738 -0.0701  0.1662  0.3744
 1479SOL    HW2 5946   0.424   2.570   2.705 -1.8579 -0.3938 -1.0839
 1479SOL    HW3 5947   0.495   2.438   2.686 -0.5916  0.1781 -0.3409
 1479SOL    MW4 5948   0.435   2.487   2.727 -0.3748  0.0939  0.0876
 1480SOL     OW 5949   0.423   2.726   2.618 -0.0787 -0.2486 -0.1695
 1480SOL    HW2 5950   0.505   2.770   2.636  0.4255 -0.3742 -2.0774
 1480SOL    HW3 5951   0.357   2.778   2.663  0.7408  1.3375 -0.7695
 1480SOL    MW4 5952   0.425   2.739   2.626  0.0960 -0.0559 -0.5004
 1481SOL     OW 5953   0.648   2.834   2.688  0.3744  0.1337 -0.2122
 1481SOL    HW2 5954   0.651   2.831   2.783  0.4522  1.3223 -0.1687
 1481SOL    HW3 5955   0.663   2.926   2.666  0.3353 -0.1226 -1.3697
 1481SOL    MW4 5956   0.650   2.846   2.698  0.3795  0.2567 -0.3592
 1482SOL     OW 5957   0.709   3.093   2.623 -0.0680 -0.2830 -0.5218
 1482SOL    HW2 5958   0.796   3.128   2.641  0.7906 -1.7965 -1.6395
 1482SOL    HW3 5959   0.703   3.092   2.527 -0.8823 -1.2293 -0.4667
 1482SOL    MW4 5960   0.719   3.097   2.613 -0.0622 -0.6075 -0.6620
 1483SOL     OW 5961   0.491   3.236   2.706 -0.3653  0.0546 -0.0016
 1483SOL    HW2 5962   0.505   3.250   2.799 -1.7522  2.3327 -0.0874
 1483SOL    HW3 5963   0.573   3.198   2.674  0.0062 -1.0611  2.1678
 1483SOL    MW4 5964   0.504   3.232   2.714 -0.4993  0.2080  0.2733
 1484SOL     OW 5965   0.444   3.492   2.627 -0.2757  0.4875  0.1836
 1484SOL    HW2 5966   0.461   3.402   2.657 -0.6274 -0.1330 -1.4581
 1484SOL    HW3 5967   0.444   3.486   2.532 -0.7144  2.1686  0.0682
 1484SOL    MW4 5968   0.446   3.479   2.618 -0.3800  0.6274 -0.0482
 1485SOL     OW 5969   0.679   3.640   2.734 -0.3593  0.0321  0.1404
 1485SOL    HW2 5970   0.692   3.627   2.828  0.9617 -1.8086 -0.2658
 1485SOL    HW3 5971   0.611   3.577   2.710  1.7748 -2.0143 -0.7408
 1485SOL    MW4 5972   0.672   3.630   2.743  0.0966 -0.4807 -0.0295
 1486SOL     OW 5973   0.657   3.917   2.643 -0.1257  0.5229 -0.4876
 1486SOL    HW2 5974   0.575   3.955   2.675 -0.0595  0.2357  0.0226
 1486SOL    HW3 5975   0.663   3.832   2.686 -0.2253 -0.0405 -1.5575
 1486SOL    MW4 5976   0.647   3.911   2.653 -0.1301  0.4107 -0.5614
 1487SOL     OW 5977   0.420   4.027   2.764 -0.3674  0.3366  0.2411
 1487SOL    HW2 5978   0.410   4.111   2.721  0.2827  0.5194  0.4317
 1487SOL    HW3 5979   0.368   3.966   2.712 -1.1805  0.9374  0.3469
 1487SOL    MW4 5980   0.412   4.030   2.752 -0.3889  0.4400  0.2802
 1488SOL     OW 5981   0.413   4.262   2.630 -0.1809  0.2203 -0.1927
 1488SOL    HW2 5982   0.502   4.295   2.644 -0.0635  0.0295 -0.5019
 1488SOL    HW3 5983   0.409   4.240   2.537  0.2452 -2.1701  0.3336
 1488SOL    MW4 5984   0.424   4.264   2.620 -0.1092 -0.1202 -0.1641
 1489SOL     OW 5985   0.664   4.410   2.717  0.1958  0.0607  0.5223
 1489SOL    HW2 5986   0.743   4.361   2.692 -0.5703 -0.9696  0.0989
 1489SOL    HW3 5987   0.677   4.496   2.678  2.0439  0.5595  2.1651
 1489SOL    MW4 5988   0.676   4.415   2.708  0.3386 -0.0094  0.6832
 1490SOL     OW 5989   1.143   4.602   2.598 -0.2138 -0.3939  0.4190
 1490SOL    HW2 5990   1.208   4.653   2.645 -2.0230 -0.1566  2.7671
 1490SOL    HW3 5991   1.152   4.513   2.633 -1.0243 -0.3904  0.6554
 1490SOL    MW4 5992   1.153   4.597   2.609 -0.5594 -0.3621  0.7600
 1491SOL     OW 5993   0.915   0.108   2.671 -0.1539  0.3002  0.0609
 1491SOL    HW2 5994   0.913   0.114   2.766  0.5303  0.9740  0.0371
 1491SOL    HW3 5995   0.995   0.059   2.651 -0.5119 -0.2000 -0.1495
 1491SOL    MW4 5996   0.926   0.102   2.681 -0.1108  0.3231  0.0300
 1492SOL     OW 5997   0.935   0.364   2.624  0.7520  0.1362 -0.0028
 1492SOL    HW2 5998   0.943   0.269   2.632  1.0277  0.1650  0.0614
 1492SOL    HW3 5999   0.907   0.378   2.533  0.1611 -0.0357  0.1475
 1492SOL    MW4 6000   0.932   0.353   2.613  0.7104  0.1173  0.0255
 1493SOL     OW 6001   1.156   0.503   2.725  0.3178 -0.4675 -0.5542
 1493SOL    HW2 6002   1.140   0.596   2.711 -0.0385  0.0151  2.6527
 1493SOL    HW3 6003   1.083   0.459   2.683 -0.4952  0.8193 -0.5082
 1493SOL    MW4 6004   1.144   0.510   2.718  0.1635 -0.2340 -0.1250
 1494SOL     OW 6005   1.128   0.776   2.666 -0.7020 -0.3297  0.0490
 1494SOL    HW2 6006   1.209   0.815   2.699  0.9475 -3.1958 -0.4050
 1494SOL    HW3 6007   1.140   0.776   2.571 -0.4622 -2.2709  0.0603
 1494SOL    MW4 6008   1.140   0.781   2.658 -0.4527 -0.9640 -0.0094
 1495SOL     OW 6009   0.887   0.912   2.719  0.2560  0.0951 -0.2522
 1495SOL    HW2 6010   0.869   0.917   2.813 -1.5159 -0.5372 -0.5561
 1495SOL    HW3 6011   0.968   0.861   2.713 -0.3766 -1.0536  0.8440
 1495SOL    MW4 6012   0.895   0.906   2.731 -0.0613 -0.1399 -0.1476
 1496SOL     OW 6013   0.871   1.179   2.611 -0.4251  0.1089 -0.0224
 1496SOL    HW2 6014   0.881   1.094   2.655  0.0358 -0.0399 -0.4102
 1496SOL    HW3 6015   0.878   1.159   2.518 -1.2808  0.4467 -0.1619
 1496SOL    MW4 6016   0.873   1.165   2.605 -0.4772  0.1338 -0.0919
 1497SOL     OW 6017   1.102   1.315   2.731  0.2001  0.1200 -0.4211
 1497SOL    HW2 6018   1.095   1.407   2.707  1.6223 -0.1546 -1.9533
 1497SOL    HW3 6019   1.024   1.274   2.693 -0.5162  0.7005  0.3958
 1497SOL    MW4 6020   1.091   1.322   2.723  0.2932  0.1603 -0.5155
 1498SOL     OW 6021   1.090   1.586   2.645 -0.8206 -0.0327 -0.1558
 1498SOL    HW2 6022   1.013   1.642   2.659 -1.8531 -1.4887  0.0909
 1498SOL    HW3 6023   1.104   1.588   2.550 -0.8983  0.5683 -0.1590
 1498SOL    MW4 6024   1.082   1.594   2.634 -0.9671 -0.1455 -0.1236
 1499SOL     OW 6025   0.877   1.735   2.717  0.1607 -0.1124  0.0199
 1499SOL    HW2 6026   0.872   1.730   2.812 -0.6021  1.1801  0.0653
 1499SOL    HW3 6027   0.808   1.676   2.686 -1.0456  1.0966  0.3264
 1499SOL    MW4 6028   0.867   1.727   2.725 -0.0991  0.2176  0.0663
 1500SOL     OW 6029   0.875   1.965   2.589 -0.3867  0.2207  0.6611
 1500SOL    HW2 6030   0.948   2.007   2.633  0.8137 -1.1749  0.0470
 1500SOL    HW3 6031   0.871   1.877   2.627  0.3669 -0.8436 -1.5924
 1500SOL    MW4 6032   0.884   1.959   2.600 -0.1289 -0.1039  0.2827
 1501SOL     OW 6033   1.101   2.068   2.681 -0.1544  0.2813  0.3776
 1501SOL    HW2 6034   1.181   2.025   2.652  0.0455 -0.1335  1.5031
 1501SOL    HW3 6035   1.097   2.149   2.629  0.3521 -0.2728 -0.5382
 1501SOL    MW4 6036   1.111   2.073   2.670 -0.0612  0.1535  0.4053
 1502SOL     OW 6037   1.051   2.328   2.587 -0.0677  0.1220 -0.0056
 1502SOL    HW2 6038   1.123   2.373   2.631  0.3633  0.2162 -0.7844
 1502SOL    HW3 6039   1.069   2.341   2.494 -1.0408  0.0614 -0.2075
 1502SOL    MW4 6040   1.063   2.336   2.580 -0.1392  0.1264 -0.1350
 1503SOL     OW 6041   0.851   2.448   2.740  0.0013  0.6687 -0.2291
 1503SOL    HW2 6042   0.865   2.535   2.702  0.1634  1.3636  1.4030
 1503SOL    HW3 6043   0.912   2.392   2.692  1.3006  1.8195  0.0284
 1503SOL    MW4 6044   0.861   2.452   2.729  0.1941  0.9122  0.0202
 1504SOL     OW 6045   0.874   2.691   2.623  0.0317 -0.3070 -0.2550
 1504SOL    HW2 6046   0.943   2.750   2.653  0.2375 -0.0749 -1.1846
 1504SOL    HW3 6047   0.792   2.735   2.648  0.1995 -0.1115 -0.0480
 1504SOL    MW4 6048   0.872   2.705   2.631  0.0810 -0.2506 -0.3503
 1505SOL     OW 6049   1.083   2.832   2.716  0.0000  0.0000  0.4031
 1505SOL    HW2 6050   1.106   2.825   2.809  0.0000  0.0000  0.4019
 1505SOL    HW3 6051   1.159   2.795   2.670  0.0000  0.0000  0.3993
 1505SOL    MW4 6052   1.096   2.826   2.722  0.0000  0.0000  0.4024
 1506SOL     OW 6053   1.148   3.096   2.647  0.0000  0.0000 -0.0561
 1506SOL    HW2 6054   1.122   3.007   2.669  0.0000  0.0000 -0.0566
 1506SOL    HW3 6055   1.136   3.101   2.552  0.0000  0.0000 -0.0560
 1506SOL    MW4 6056   1.143   3.085   2.637  0.0000  0.0000 -0.0562
 1507SOL     OW 6057   0.919   3.208   2.743  0.0000  0.0000  0.1750
 1507SOL    HW2 6058   0.903   3.287   2.691  0.0000  0.0000  0.1774
 1507SOL    HW3 6059   1.006   3.179   2.716  0.0000  0.0000  0.1775
 1507SOL    MW4 6060   0.928   3.215   2.733  0.0000  0.0000  0.1756
 1508SOL     OW 6061   0.887   3.462   2.608  0.0000  0.0000 -0.1055
 1508SOL    HW2 6062   0.961   3.509   2.648  0.0000  0.0000 -0.0943
 1508SOL    HW3 6063   0.810   3.512   2.636  0.0000  0.0000 -0.1343
 1508SOL    MW4 6064   0.887   3.475   2.617  0.0000  0.0000 -0.1078
 1509SOL     OW 6065   1.102   3.599   2.692  0.0000  0.0000 -0.1717
 1509SOL    HW2 6066   1.101   3.626   2.784  0.0000  0.0000 -0.1707
 1509SOL    HW3 6067   1.100   3.681   2.643  0.0000  0.0000 -0.1686
 1509SOL    MW4 6068   1.102   3.613   2.697  0.0000  0.0000 -0.1712
 1510SOL     OW 6069   1.098   3.851   2.602  0.0000  0.0000  0.4877
 1510SOL    HW2 6070   1.178   3.889   2.639  0.0000  0.0000  0.4849
 1510SOL    HW3 6071   1.110   3.859   2.507  0.0000  0.0000  0.4870
 1510SOL    MW4 6072   1.110   3.857   2.594  0.0000  0.0000  0.4872
 1511SOL     OW 6073   0.893   4.008   2.742  0.0000  0.0000 -0.0487
 1511SOL    HW2 6074   0.957   3.963   2.687  0.0000  0.0000 -0.0618
 1511SOL    HW3 6075   0.809   3.969   2.716  0.0000  0.0000 -0.0157
 1511SOL    MW4 6076   0.890   3.997   2.731  0.0000  0.0000 -0.0461
 1512SOL     OW 6077   0.888   4.266   2.644  0.0000  0.0000 -0.1011
 1512SOL    HW2 6078   0.892   4.173   2.669  0.0000  0.0000 -0.1023
 1512SOL    HW3 6079   0.884   4.265   2.549  0.0000  0.0000 -0.1013
 1512SOL    MW4 6080   0.888   4.254   2.635  0.0000  0.0000 -0.1013
 1513SOL     OW 6081   1.144   4.351   2.720  0.0000  0.0000 -0.1148
 1513SOL    HW2 6082   1.137   4.378   2.812  0.0000  0.0000 -0.1148
 1513SOL    HW3 6083   1.055   4.327   2.695  0.0000  0.0000 -0.1179
 1513SOL    MW4 6084   1.131   4.351   2.729  0.0000  0.0000 -0.1152
 1514SOL     OW 6085   1.581   4.640   2.619 -0.0784 -0.0271  0.0047
 1514SOL    HW2 6086   1.589   4.547   2.640  0.8159  0.5180  2.1524
 1514SOL    HW3 6087   1.580   4.643   2.523 -1.9415 -2.3822 -0.0884
 1514SOL    MW4 6088   1.582   4.628   2.609 -0.2063 -0.2659  0.2758
 1515SOL     OW 6089   1.339   0.067   2.731 -0.1273 -0.1502 -0.4493
 1515SOL    HW2 6090   1.346   0.160   2.706 -0.2627 -0.4435 -1.6317
 1515SOL    HW3 6091   1.425   0.031   2.711 -0.5011 -0.5801 -1.3068
 1515SOL    MW4 6092   1.351   0.075   2.725 -0.1945 -0.2456 -0.7184
 1516SOL     OW 6093   1.380   0.335   2.650  0.0916  0.4362  0.3109
 1516SOL    HW2 6094   1.461   0.385   2.657  0.8692 -1.0725  2.4750
 1516SOL    HW3 6095   1.314   0.389   2.694  0.5157  0.4365  0.9459
 1516SOL    MW4 6096   1.382   0.349   2.657  0.2501  0.2372  0.6802
 1517SOL     OW 6097   1.601   0.515   2.668  0.2698 -0.7955  0.6367
 1517SOL    HW2 6098   1.681   0.478   2.631 -0.3922 -0.3929 -1.2139
 1517SOL    HW3 6099   1.603   0.608   2.645 -0.2130 -0.5532  1.5117
 1517SOL    MW4 6100   1.611   0.522   2.660  0.1188 -0.7104  0.5080
 1518SOL     OW 6101   1.606   0.806   2.626  0.1110 -0.0243  0.4818
 1518SOL    HW2 6102   1.518   0.834   2.651  0.0321 -0.4366  0.6800
 1518SOL    HW3 6103   1.604   0.802   2.530  0.2261  0.9618  0.4334
 1518SOL    MW4 6104   1.594   0.809   2.617  0.1158  0.0514  0.5016
 1519SOL     OW 6105   1.359   0.919   2.737  0.1331 -0.1397  0.2416
 1519SOL    HW2 6106   1.356   0.928   2.833 -0.4833 -0.7051  0.2769
 1519SOL    HW3 6107   1.341   1.008   2.705 -0.8015 -0.1751  0.6413
 1519SOL    MW4 6108   1.356   0.932   2.746 -0.0716 -0.2190  0.2990
 1520SOL     OW 6109   1.330   1.190   2.615  0.3056 -0.3493  0.5691
 1520SOL    HW2 6110   1.406   1.230   2.656 -0.5938  0.9326  1.0300
 1520SOL    HW3 6111   1.256   1.246   2.640 -0.5186 -0.4647 -1.4389
 1520SOL    MW4 6112   1.330   1.203   2.624  0.0782 -0.1954  0.3650
 1521SOL     OW 6113   1.567   1.278   2.732 -0.7161 -0.2923 -0.2863
 1521SOL    HW2 6114   1.574   1.273   2.827  1.0165 -2.4805 -0.4903
 1521SOL    HW3 6115   1.653   1.251   2.700 -1.2416  0.5203 -2.4885
 1521SOL    MW4 6116   1.580   1.274   2.740 -0.5569 -0.4738 -0.6038
 1522SOL     OW 6117   1.547   1.534   2.634  0.3932  0.1601  0.4503
 1522SOL    HW2 6118   1.561   1.446   2.670 -0.4588 -0.1411  0.0635
 1522SOL    HW3 6119   1.567   1.525   2.541  0.8113  0.5041  0.5047
 1522SOL    MW4 6120   1.552   1.521   2.627  0.3359  0.1658  0.4064
 1523SOL     OW 6121   1.353   1.721   2.698 -0.0730 -0.1254  0.2748
 1523SOL    HW2 6122   1.418   1.659   2.666  0.4682  0.7173 -0.2697
 1523SOL    HW3 6123   1.270   1.675   2.688  0.2650 -0.5496 -0.6910
 1523SOL    MW4 6124   1.351   1.707   2.692  0.0430 -0.0702  0.0755
 1524SOL     OW 6125   1.331   1.965   2.580 -0.1855 -0.9897 -0.2286
 1524SOL    HW2 6126   1.348   1.875   2.609 -1.0369 -1.2915 -0.6777
 1524SOL    HW3 6127   1.340   1.962   2.485  0.1009 -0.5246 -0.2196
 1524SOL    MW4 6128   1.335   1.953   2.572 -0.2600 -0.9681 -0.2867
 1525SOL     OW 6129   1.566   2.081   2.716 -0.0460  0.6321  0.0813
 1525SOL    HW2 6130   1.638   2.021   2.698  0.0694  0.4687  1.0227
 1525SOL    HW3 6131   1.492   2.045   2.667 -0.2018 -0.7866  1.3032
 1525SOL    MW4 6132   1.565   2.068   2.707 -0.0514  0.4233  0.3667
 1526SOL     OW 6133   1.539   2.338   2.610 -0.3395  0.2472  0.0684
 1526SOL    HW2 6134   1.625   2.367   2.640 -1.3415  2.6524  0.6447
 1526SOL    HW3 6135   1.527   2.253   2.652  1.4458  0.1911  0.5172
 1526SOL    MW4 6136   1.549   2.330   2.619 -0.2361  0.5571  0.2036
 1527SOL     OW 6137   1.302   2.459   2.679 -0.0949 -0.6300 -0.7043
 1527SOL    HW2 6138   1.317   2.551   2.654  1.0206 -0.4076  0.7362
 1527SOL    HW3 6139   1.384   2.415   2.655 -0.2166 -1.0392 -0.3590
 1527SOL    MW4 6140   1.315   2.465   2.672  0.0362 -0.6546 -0.4687
 1528SOL     OW 6141   1.329   2.719   2.610 -0.0715 -0.2277 -0.1502
 1528SOL    HW2 6142   1.406   2.774   2.621 -0.4907  0.2119  0.6132
 1528SOL    HW3 6143   1.335   2.687   2.520  0.5893  0.4289 -0.3418
 1528SOL    MW4 6144   1.340   2.722   2.600 -0.0396 -0.0831 -0.0747
 1529SOL     OW 6145   1.570   2.878   2.674  0.0557  0.4830 -0.3910
 1529SOL    HW2 6146   1.575   2.876   2.770  0.0436  1.2643 -0.3697
 1529SOL    HW3 6147   1.634   2.813   2.646 -1.4719 -1.3066  0.1754
 1529SOL    MW4 6148   1.579   2.869   2.683 -0.1474  0.3499 -0.3135
 1530SOL     OW 6149   1.570   3.145   2.617 -0.0734  0.2063  0.0463
 1530SOL    HW2 6150   1.646   3.183   2.661  0.3396  0.4091 -0.8455
 1530SOL    HW3 6151   1.568   3.054   2.648  0.7029  0.1190 -0.1573
 1530SOL    MW4 6152   1.580   3.138   2.627  0.0835  0.2216 -0.0982
 1531SOL     OW 6153   1.366   3.250   2.756  0.6457 -0.1365  0.3355
 1531SOL    HW2 6154   1.443   3.220   2.706 -0.0880 -0.6446 -0.5065
 1531SOL    HW3 6155   1.292   3.205   2.715 -0.2281  1.1724  0.4358
 1531SOL    MW4 6156   1.366   3.241   2.744  0.4336 -0.0308  0.2376
 1532SOL     OW 6157   1.358   3.506   2.624 -0.2655 -0.3256  0.1286
 1532SOL    HW2 6158   1.354   3.417   2.660 -1.4225 -0.3490 -0.0210
 1532SOL    HW3 6159   1.274   3.545   2.650 -0.1445  0.4204 -0.5971
 1532SOL    MW4 6160   1.346   3.499   2.632 -0.4022 -0.2303  0.0131
 1533SOL     OW 6161   1.601   3.637   2.711 -0.1691  0.1703 -0.2062
 1533SOL    HW2 6162   1.594   3.638   2.807  0.3382 -2.8258 -0.0767
 1533SOL    HW3 6163   1.522   3.590   2.682 -0.5419  1.4488 -1.2996
 1533SOL    MW4 6164   1.590   3.631   2.720 -0.1514 -0.0563 -0.3334
 1534SOL     OW 6165   1.586   3.890   2.586 -0.0973 -0.4314 -0.0159
 1534SOL    HW2 6166   1.496   3.919   2.602  0.1222 -0.4208  1.2559
 1534SOL    HW3 6167   1.593   3.807   2.634  1.3119  0.8113  2.0199
 1534SOL    MW4 6168   1.575   3.882   2.595  0.1176 -0.2660  0.4205
 1535SOL     OW 6169   1.335   3.944   2.677 -0.1446  0.3262  0.1388
 1535SOL    HW2 6170   1.343   3.948   2.773  0.9728 -0.8634  0.1084
 1535SOL    HW3 6171   1.343   4.035   2.649 -1.2355  0.7717  1.2273
 1535SOL    MW4 6172   1.338   3.957   2.686 -0.1411  0.2280  0.2784
 1536SOL     OW 6173   1.353   4.216   2.595  0.5418 -0.0880  0.6337
 1536SOL    HW2 6174   1.275   4.254   2.635  0.0602 -0.9798  0.5509
 1536SOL    HW3 6175   1.349   4.243   2.503  0.1442 -0.4352  0.5498
 1536SOL    MW4 6176   1.343   4.225   2.588  0.4258 -0.2515  0.6117
 1537SOL     OW 6177   1.579   4.373   2.700 -0.0859  0.5038 -0.1368
 1537SOL    HW2 6178   1.565   4.370   2.795  0.3781  1.1998 -0.0496
 1537SOL    HW3 6179   1.513   4.313   2.665  0.2248 -0.3368  0.6754
 1537SOL    MW4 6180   1.568   4.365   2.708  0.0163  0.4847 -0.0182
 1538SOL     OW 6181   2.055   0.024   2.334 -0.0033 -0.0821 -0.3018
 1538SOL    HW2 6182   2.029   0.025   2.426 -1.5231 -1.6003 -0.6818
 1538SOL    HW3 6183   2.063  -0.069   2.312  0.1715  0.2540 -1.7490
 1538SOL    MW4 6184   2.053   0.012   2.343 -0.1807 -0.2381 -0.5429
 1539SOL     OW 6185   1.788   0.129   2.714  0.6542 -0.0972  0.0258
 1539SOL    HW2 6186   1.854   0.081   2.664 -0.0545  0.3014 -1.3130
 1539SOL    HW3 6187   1.706   0.084   2.697  0.5719 -0.6926  1.8267
 1539SOL    MW4 6188   1.786   0.117   2.705  0.5498 -0.1232  0.0868
 1540SOL     OW 6189   1.831   0.373   2.592 -0.1447  0.1182 -0.0423
 1540SOL    HW2 6190   1.880   0.422   2.658  0.7498 -0.4560 -0.2817
 1540SOL    HW3 6191   1.816   0.287   2.633 -0.3753  0.0666 -0.2351
 1540SOL    MW4 6192   1.835   0.368   2.606 -0.0571  0.0356 -0.0993
 1541SOL     OW 6193   2.013   0.512   2.757  0.2186 -0.2986  0.7227
 1541SOL    HW2 6194   2.076   0.449   2.724  1.4589  1.5588 -0.4809
 1541SOL    HW3 6195   2.040   0.596   2.721 -1.9408  0.8104  1.5635
 1541SOL    MW4 6196   2.025   0.515   2.748  0.0973  0.0928  0.6748
 1542SOL     OW 6197   2.047   0.779   2.680 -0.0413  0.2986 -0.3203
 1542SOL    HW2 6198   1.962   0.812   2.706 -1.7490 -3.3333 -0.9002
 1542SOL    HW3 6199   2.045   0.780   2.584 -0.4001 -1.9010 -0.3728
 1542SOL    MW4 6200   2.036   0.783   2.671 -0.3140 -0.4708 -0.4037
 1543SOL     OW 6201   1.819   0.897   2.779 -0.2920  0.2465  0.7695
 1543SOL    HW2 6202   1.816   0.987   2.749  0.6219 -0.1901 -0.6864
 1543SOL    HW3 6203   1.738   0.858   2.746 -0.6894  0.5330  1.4035
 1543SOL    MW4 6204   1.808   0.903   2.771 -0.2239  0.2267  0.6611
 1544SOL     OW 6205   1.816   1.154   2.657 -0.2657  0.0332  0.0536
 1544SOL    HW2 6206   1.869   1.221   2.699 -0.3391  0.3922 -0.4274
 1544SOL    HW3 6207   1.825   1.171   2.563  0.8178 -1.4587 -0.1280
 1544SOL    MW4 6208   1.824   1.165   2.650 -0.1324 -0.1163 -0.0338
 1545SOL     OW 6209   2.008   1.331   2.736  0.2431 -0.1607 -0.7682
 1545SOL    HW2 6210   2.040   1.328   2.825 -0.1072  0.5739 -0.6069
 1545SOL    HW3 6211   2.079   1.295   2.682  0.4582 -0.5806 -0.1994
 1545SOL    MW4 6212   2.021   1.326   2.740  0.2253 -0.1192 -0.6719
 1546SOL     OW 6213   1.963   1.564   2.595  0.3761  0.2250 -0.1684
 1546SOL    HW2 6214   1.891   1.599   2.647  0.6144  0.1890  0.1887
 1546SOL    HW3 6215   1.983   1.480   2.635  1.3815  0.7587  0.4512
 1546SOL    MW4 6216   1.956   1.558   2.607  0.5402  0.2906 -0.0396
 1547SOL     OW 6217   1.756   1.689   2.742  0.1242  0.0594  0.0149
 1547SOL    HW2 6218   1.773   1.686   2.836 -0.8324  1.2295  0.2303
 1547SOL    HW3 6219   1.678   1.634   2.730  0.5247 -0.4692 -0.1547
 1547SOL    MW4 6220   1.748   1.681   2.753  0.0509  0.1441  0.0209
 1548SOL     OW 6221   1.768   1.930   2.607 -0.3818  0.2651  0.5426
 1548SOL    HW2 6222   1.848   1.974   2.636 -0.2178  0.3266  0.0043
 1548SOL    HW3 6223   1.768   1.846   2.653  0.3551 -0.0318 -0.0029
 1548SOL    MW4 6224   1.778   1.925   2.617 -0.2629  0.2340  0.3996
 1549SOL     OW 6225   2.001   2.018   2.726  0.5248 -0.0068 -0.2002
 1549SOL    HW2 6226   2.006   2.004   2.820 -0.5625 -0.9683 -0.2678
 1549SOL    HW3 6227   2.001   2.113   2.716 -0.7596  0.1248  0.8675
 1549SOL    MW4 6228   2.001   2.028   2.737  0.2119 -0.1163 -0.0683
 1550SOL     OW 6229   1.985   2.281   2.648 -0.1768  0.1105  0.6007
 1550SOL    HW2 6230   2.060   2.339   2.660  0.8282 -0.9719 -0.2858
 1550SOL    HW3 6231   1.979   2.270   2.553 -1.8918  0.7243  0.6119
 1550SOL    MW4 6232   1.994   2.288   2.637 -0.2705  0.0487  0.4852
 1551SOL     OW 6233   1.782   2.452   2.709 -0.0688 -0.2861 -0.4245
 1551SOL    HW2 6234   1.782   2.462   2.804  1.6433  0.9221 -0.5228
 1551SOL    HW3 6235   1.857   2.395   2.691 -0.8802 -1.1747 -0.9889
 1551SOL    MW4 6236   1.792   2.446   2.719  0.0500 -0.2439 -0.5120
 1552SOL     OW 6237   1.781   2.690   2.585 -0.2437  0.4839 -0.6688
 1552SOL    HW2 6238   1.778   2.605   2.629  0.9579  0.4929 -0.5423
 1552SOL    HW3 6239   1.785   2.668   2.492 -0.1546  0.4046 -0.6466
 1552SOL    MW4 6240   1.782   2.676   2.579 -0.0734  0.4746 -0.6492
 1553SOL     OW 6241   1.992   2.837   2.700 -0.2862  0.6211 -0.1572
 1553SOL    HW2 6242   2.078   2.800   2.679 -0.2663 -0.2484  1.3876
 1553SOL    HW3 6243   1.930   2.784   2.648 -0.1804 -1.0420  1.3746
 1553SOL    MW4 6244   1.995   2.825   2.690 -0.2696  0.2870  0.2488
 1554SOL     OW 6245   2.033   3.090   2.620  0.2402  0.2271 -0.3262
 1554SOL    HW2 6246   2.028   2.997   2.643  1.7337  0.2602  0.1560
 1554SOL    HW3 6247   2.011   3.093   2.527 -0.5548 -0.5179 -0.1717
 1554SOL    MW4 6248   2.029   3.078   2.611  0.3324  0.1332 -0.2422
 1555SOL     OW 6249   1.810   3.242   2.723 -0.0185  0.3389  0.4247
 1555SOL    HW2 6250   1.827   3.308   2.656  0.5840 -0.0319  0.2093
 1555SOL    HW3 6251   1.868   3.170   2.700 -0.5859 -0.2170  0.7322
 1555SOL    MW4 6252   1.820   3.241   2.711 -0.0139  0.2166  0.4368
 1556SOL     OW 6253   1.813   3.481   2.576 -0.0032  0.0100  0.1512
 1556SOL    HW2 6254   1.733   3.513   2.618  0.0729 -0.0076  0.3085
 1556SOL    HW3 6255   1.884   3.516   2.629  0.0411 -2.0096  1.4883
 1556SOL    MW4 6256   1.812   3.490   2.588  0.0127 -0.2588  0.3484
 1557SOL     OW 6257   1.994   3.629   2.744 -0.0972 -0.2361 -0.1306
 1557SOL    HW2 6258   2.005   3.626   2.839  0.3313 -0.3390 -0.1797
 1557SOL    HW3 6259   2.076   3.593   2.710 -0.1284  0.0799 -0.5439
 1557SOL    MW4 6260   2.006   3.624   2.752 -0.0448 -0.2080 -0.1916
 1558SOL     OW 6261   2.000   3.881   2.637 -0.1861  0.0284 -0.1276
 1558SOL    HW2 6262   1.923   3.929   2.669 -0.0639 -0.4172  0.8264
 1558SOL    HW3 6263   1.996   3.797   2.681 -0.5985 -0.9938 -2.0821
 1558SOL    MW4 6264   1.989   3.877   2.647 -0.2244 -0.1653 -0.2596
 1559SOL     OW 6265   1.789   4.031   2.726 -0.2557  0.1925 -0.3100
 1559SOL    HW2 6266   1.809   4.123   2.709  0.5855 -0.1134 -1.0439
 1559SOL    HW3 6267   1.718   4.010   2.666  0.0456  0.1659 -0.6555
 1559SOL    MW4 6268   1.783   4.041   2.716 -0.1050  0.1486 -0.4524
 1560SOL     OW 6269   1.834   4.293   2.646 -0.2383  0.3124 -0.3774
 1560SOL    HW2 6270   1.751   4.331   2.677 -0.0829  0.8193 -0.5679
 1560SOL    HW3 6271   1.824   4.289   2.551  0.7164  2.2650 -0.5971
 1560SOL    MW4 6272   1.821   4.298   2.638 -0.0918  0.6369 -0.4315
 1561SOL     OW 6273   2.001   0.007   2.597  0.2630 -0.5758 -0.2363
 1561SOL    HW2 6274   2.004  -0.079   2.639 -1.3859  0.0174  1.1446
 1561SOL    HW3 6275   2.076   0.054   2.636 -0.5358 -0.4366  1.1834
 1561SOL    MW4 6276   2.012   0.002   2.608 -0.0600 -0.4792  0.1332
 1562SOL     OW 6277   2.481   4.652   2.646 -0.3006 -0.1186 -0.5172
 1562SOL    HW2 6278   2.562   4.694   2.674 -0.0275 -1.3193  0.5065
 1562SOL    HW3 6279   2.482   4.658   2.550 -0.5946  2.8141 -0.3752
 1562SOL    MW4 6280   2.492   4.658   2.637 -0.3033  0.1099 -0.3634
 1563SOL     OW 6281   2.250   0.124   2.735  0.3153  0.2946 -0.0604
 1563SOL    HW2 6282   2.264   0.122   2.830  0.5870 -0.3061 -0.1107
 1563SOL    HW3 6283   2.328   0.084   2.698 -0.0627 -0.0387 -0.5099
 1563SOL    MW4 6284   2.262   0.118   2.743  0.3013  0.1713 -0.1264
 1564SOL     OW 6285   2.234   0.379   2.602  0.3958 -0.3216  0.5849
 1564SOL    HW2 6286   2.262   0.296   2.641  1.4863 -0.2355 -0.0014
 1564SOL    HW3 6287   2.230   0.361   2.508  1.3576  0.4919  0.3817
 1564SOL    MW4 6288   2.237   0.366   2.594  0.6666 -0.2029  0.4807
 1565SOL     OW 6289   2.457   0.531   2.695  0.3384  0.4167 -0.1584
 1565SOL    HW2 6290   2.457   0.619   2.658  0.7931  0.4720 -0.0309
 1565SOL    HW3 6291   2.375   0.492   2.665  0.4723  0.6349 -0.8071
 1565SOL    MW4 6292   2.446   0.537   2.686  0.4161  0.4528 -0.2272
 1566SOL     OW 6293   2.446   0.779   2.596 -0.1114  0.2063  0.3951
 1566SOL    HW2 6294   2.382   0.845   2.622  0.1384 -0.0812  1.8110
 1566SOL    HW3 6295   2.455   0.790   2.502 -1.7241  0.7113  0.2845
 1566SOL    MW4 6296   2.439   0.789   2.587 -0.2912  0.2350  0.5673
 1567SOL     OW 6297   2.259   0.943   2.736  0.1047 -0.5076  0.1647
 1567SOL    HW2 6298   2.257   0.947   2.831 -0.0249 -2.5336  0.2735
 1567SOL    HW3 6299   2.181   0.892   2.713  0.4604 -0.5403 -0.9917
 1567SOL    MW4 6300   2.248   0.936   2.745  0.1345 -0.7792  0.0265
 1568SOL     OW 6301   2.236   1.197   2.625 -0.0942 -0.1080 -0.2186
 1568SOL    HW2 6302   2.229   1.113   2.670 -1.4709 -0.3391 -0.8361
 1568SOL    HW3 6303   2.236   1.174   2.532  0.7673  0.4959 -0.3684
 1568SOL    MW4 6304   2.235   1.183   2.619 -0.1622 -0.0588 -0.3198
 1569SOL     OW 6305   2.449   1.315   2.759  0.1975  0.3338  0.3773
 1569SOL    HW2 6306   2.521   1.261   2.726 -0.1201  0.3077 -0.2957
 1569SOL    HW3 6307   2.370   1.275   2.720 -0.0820  0.9912  0.2567
 1569SOL    MW4 6308   2.448   1.302   2.749  0.1187  0.4171  0.2726
 1570SOL     OW 6309   2.470   1.558   2.635  0.0283  0.0353  0.0911
 1570SOL    HW2 6310   2.389   1.607   2.651  0.0244  0.5029 -1.2929
 1570SOL    HW3 6311   2.460   1.478   2.687 -0.8906  0.5379  0.7022
 1570SOL    MW4 6312   2.458   1.554   2.644 -0.0934  0.1633 -0.0109
 1571SOL     OW 6313   2.212   1.684   2.700 -0.0095 -0.5296  0.4398
 1571SOL    HW2 6314   2.223   1.772   2.664  0.0509 -0.3184  0.9657
 1571SOL    HW3 6315   2.122   1.660   2.680 -0.8018  0.6418  2.4456
 1571SOL    MW4 6316   2.202   1.692   2.693 -0.1061 -0.3472  0.7739
 1572SOL     OW 6317   2.249   1.943   2.633 -0.1378 -0.2997 -0.4699
 1572SOL    HW2 6318   2.162   1.967   2.665 -0.0825 -0.5873 -0.0931
 1572SOL    HW3 6319   2.243   1.952   2.538 -0.8317 -1.1218 -0.5147
 1572SOL    MW4 6320   2.237   1.948   2.625 -0.2220 -0.4462 -0.4261
 1573SOL     OW 6321   2.484   2.045   2.744  0.2856  0.3456  0.2539
 1573SOL    HW2 6322   2.483   2.133   2.707 -0.1711  1.3311  2.5352
 1573SOL    HW3 6323   2.400   2.007   2.717 -0.1641  1.1563  0.4779
 1573SOL    MW4 6324   2.473   2.051   2.736  0.1660  0.5826  0.5845
 1574SOL     OW 6325   2.484   2.307   2.647 -0.3090 -0.3154 -0.0543
 1574SOL    HW2 6326   2.565   2.352   2.671 -0.9666  0.7363  0.2351
 1574SOL    HW3 6327   2.482   2.311   2.551  0.2297 -0.7885 -0.0842
 1574SOL    MW4 6328   2.494   2.313   2.637 -0.3247 -0.2390 -0.0201
 1575SOL     OW 6329   2.211   2.453   2.697 -0.3471  0.5133  0.4164
 1575SOL    HW2 6330   2.210   2.460   2.792 -0.3266 -0.7019  0.5087
 1575SOL    HW3 6331   2.294   2.409   2.677 -0.7342  0.0189 -0.1131
 1575SOL    MW4 6332   2.222   2.448   2.707 -0.3954  0.2877  0.3587
 1576SOL     OW 6333   2.224   2.714   2.626 -0.1138 -0.2552  0.6039
 1576SOL    HW2 6334   2.310   2.752   2.645 -0.0192 -0.6026  0.8724
 1576SOL    HW3 6335   2.230   2.624   2.658 -0.3555 -0.4812  0.0173
 1576SOL    MW4 6336   2.236   2.707   2.632 -0.1332 -0.3308  0.5620
 1577SOL     OW 6337   2.453   2.854   2.701 -0.0177  0.2442 -0.5673
 1577SOL    HW2 6338   2.459   2.852   2.796  1.5846 -0.4100 -0.6606
 1577SOL    HW3 6339   2.443   2.946   2.679 -0.4165  0.3943  0.2425
 1577SOL    MW4 6340   2.453   2.866   2.710  0.1411  0.1777 -0.4728
 1578SOL     OW 6341   2.483   3.123   2.660  0.1602  0.3228  0.2187
 1578SOL    HW2 6342   2.405   3.172   2.686  0.2703  0.7574 -0.2523
 1578SOL    HW3 6343   2.484   3.129   2.564  0.5453 -0.0275  0.2008
 1578SOL    MW4 6344   2.473   3.131   2.651  0.2255  0.3339  0.1542
 1579SOL     OW 6345   2.260   3.243   2.744  0.0121 -0.2436  0.1421
 1579SOL    HW2 6346   2.266   3.222   2.837 -1.0955  0.5536  0.3909
 1579SOL    HW3 6347   2.174   3.212   2.717  0.7934 -1.6113 -0.9295
 1579SOL    MW4 6348   2.250   3.236   2.753 -0.0309 -0.3189  0.0336
 1580SOL     OW 6349   2.208   3.483   2.625  0.0979  0.1146 -0.0466
 1580SOL    HW2 6350   2.270   3.546   2.662  0.6197 -0.4435  0.0314
 1580SOL    HW3 6351   2.234   3.399   2.663 -0.5553 -0.1595 -0.2036
 1580SOL    MW4 6352   2.220   3.481   2.635  0.0806  0.0048 -0.0570
 1581SOL     OW 6353   2.414   3.637   2.725  0.0769 -0.1129  0.0929
 1581SOL    HW2 6354   2.442   3.632   2.816 -1.0886 -0.0826  0.4596
 1581SOL    HW3 6355   2.418   3.731   2.704  0.5142 -0.1394  0.0556
 1581SOL    MW4 6356   2.418   3.649   2.734 -0.0192 -0.1124  0.1364
 1582SOL     OW 6357   2.461   3.892   2.596  0.0836 -0.6293 -0.1898
 1582SOL    HW2 6358   2.541   3.927   2.635 -0.4077  1.5520 -1.0805
 1582SOL    HW3 6359   2.392   3.953   2.623 -0.9661 -1.4475 -0.9785
 1582SOL    MW4 6360   2.462   3.904   2.605 -0.1197 -0.4494 -0.4113
 1583SOL     OW 6361   2.252   4.025   2.698 -0.1632 -0.2327  0.1288
 1583SOL    HW2 6362   2.249   4.017   2.794 -1.0493 -0.1477  0.1158
 1583SOL    HW3 6363   2.168   3.989   2.669 -0.4726  0.9750 -0.5240
 1583SOL    MW4 6364   2.240   4.019   2.707 -0.3210 -0.0622  0.0409
 1584SOL     OW 6365   2.272   4.296   2.584  0.2937 -0.3028 -0.1074
 1584SOL    HW2 6366   2.256   4.208   2.616 -2.9432 -0.8915 -3.0164
 1584SOL    HW3 6367   2.206   4.350   2.628  0.5595  0.1785 -0.2961
 1584SOL    MW4 6368   2.261   4.292   2.594 -0.0983 -0.3170 -0.5161
 1585SOL     OW 6369   2.492   4.363   2.743 -0.0088 -0.7944 -0.0971
 1585SOL    HW2 6370   2.416   4.346   2.687 -0.3762 -0.6293  0.3528
 1585SOL    HW3 6371   2.504   4.457   2.739  0.1359 -0.8141 -0.1177
 1585SOL    MW4 6372   2.484   4.373   2.735 -0.0382 -0.7752 -0.0405
 1586SOL     OW 6373   2.868   4.611   2.629 -0.5604 -0.3080  0.1669
 1586SOL    HW2 6374   2.944   4.664   2.654  0.4489 -1.9188  0.5733
 1586SOL    HW3 6375   2.867   4.616   2.533 -0.1680  0.0399  0.1748
 1586SOL    MW4 6376   2.878   4.619   2.619 -0.3755 -0.4747  0.2216
 1587SOL     OW 6377   2.689   0.131   2.725  0.2650 -0.7465  0.0842
 1587SOL    HW2 6378   2.699   0.132   2.820 -0.9700 -0.6951  0.2236
 1587SOL    HW3 6379   2.752   0.066   2.694  1.4305  0.0063  0.8334
 1587SOL    MW4 6380   2.698   0.123   2.733  0.2559 -0.6404  0.2014
 1588SOL     OW 6381   2.691   0.384   2.629 -0.0423 -0.2632 -0.6083
 1588SOL    HW2 6382   2.685   0.301   2.677  2.1833 -0.1474 -0.0809
 1588SOL    HW3 6383   2.617   0.435   2.660 -1.0037 -1.7635 -0.3758
 1588SOL    MW4 6384   2.681   0.380   2.639  0.1245 -0.4459 -0.5081
 1589SOL     OW 6385   2.946   0.484   2.704  0.3163  0.0378 -0.0838
 1589SOL    HW2 6386   2.938   0.577   2.683 -0.2132  0.3242  1.3422
 1589SOL    HW3 6387   2.862   0.447   2.681 -0.0580  0.2400  0.9303
 1589SOL    MW4 6388   2.934   0.492   2.698  0.1970  0.1023  0.2382
 1590SOL     OW 6389   2.910   0.747   2.623  0.0826 -0.2117 -0.1142
 1590SOL    HW2 6390   2.983   0.800   2.655  0.0043 -0.1305 -0.0702
 1590SOL    HW3 6391   2.832   0.799   2.644  0.2491  1.9248 -4.3581
 1590SOL    MW4 6392   2.909   0.761   2.630  0.0942  0.0809 -0.6683
 1591SOL     OW 6393   2.692   0.875   2.709  0.1144 -0.2990  0.5850
 1591SOL    HW2 6394   2.693   0.874   2.805  1.3734 -1.8847  0.5970
 1591SOL    HW3 6395   2.603   0.850   2.686 -0.2125  0.1397  1.3518
 1591SOL    MW4 6396   2.680   0.871   2.719  0.2374 -0.4503  0.6877
 1592SOL     OW 6397   2.695   1.135   2.610  0.1393  0.2114  0.2515
 1592SOL    HW2 6398   2.774   1.177   2.645 -0.9739  1.1236  1.7044
 1592SOL    HW3 6399   2.704   1.043   2.636  0.0396  0.5940  1.6631
 1592SOL    MW4 6400   2.707   1.128   2.618 -0.0207  0.3822  0.6294
 1593SOL     OW 6401   2.921   1.271   2.729 -0.1299 -0.2281  0.1405
 1593SOL    HW2 6402   2.906   1.236   2.816 -1.7435 -2.2489 -0.9128
 1593SOL    HW3 6403   3.007   1.238   2.704  0.7481  1.1167  1.2934
 1593SOL    MW4 6404   2.931   1.262   2.737 -0.2270 -0.3173  0.1537
 1594SOL     OW 6405   2.924   1.544   2.666  0.4650  0.3382 -0.0900
 1594SOL    HW2 6406   2.848   1.592   2.698 -0.1851 -0.5292 -0.3051
 1594SOL    HW3 6407   2.914   1.456   2.702  0.0018 -0.5096 -2.2373
 1594SOL    MW4 6408   2.913   1.538   2.675  0.3181  0.1119 -0.4017
 1595SOL     OW 6409   2.700   1.686   2.748 -0.2609  0.3368 -0.6050
 1595SOL    HW2 6410   2.715   1.684   2.842  1.6989  1.2644 -0.8744
 1595SOL    HW3 6411   2.612   1.649   2.737  0.1063 -1.2502  1.4447
 1595SOL    MW4 6412   2.690   1.680   2.759  0.0461  0.2498 -0.3701
 1596SOL     OW 6413   2.702   1.921   2.619 -0.3104  0.2899 -0.0046
 1596SOL    HW2 6414   2.703   1.834   2.658  0.6534 -0.6451 -2.0576
 1596SOL    HW3 6415   2.617   1.957   2.644  0.4165 -0.0819  3.2668
 1596SOL    MW4 6416   2.691   1.914   2.627 -0.0873  0.1175  0.1562
 1597SOL     OW 6417   2.939   2.057   2.723  0.4417  0.1624 -0.0992
 1597SOL    HW2 6418   2.924   2.146   2.690 -0.0627  0.1048 -0.0203
 1597SOL    HW3 6419   2.867   2.005   2.687  1.5650 -0.5363 -1.4011
 1597SOL    MW4 6420   2.928   2.062   2.714  0.5233  0.0626 -0.2606
 1598SOL     OW 6421   2.909   2.335   2.614  0.2830 -0.1257 -0.3261
 1598SOL    HW2 6422   2.987   2.377   2.652  0.3559 -0.1785 -0.4166
 1598SOL    HW3 6423   2.835   2.379   2.656  0.3479  0.5333 -0.8943
 1598SOL    MW4 6424   2.910   2.346   2.625  0.3012 -0.0457 -0.4130
 1599SOL     OW 6425   2.697   2.454   2.734 -0.1266  0.3521  0.0600
 1599SOL    HW2 6426   2.693   2.474   2.828  1.5696  2.7799 -0.3347
 1599SOL    HW3 6427   2.691   2.539   2.691 -0.1262 -0.6673 -2.0222
 1599SOL    MW4 6428   2.696   2.467   2.741  0.0972  0.5380 -0.2668
 1600SOL     OW 6429   2.685   2.720   2.652  0.3043 -0.0608  0.2746
 1600SOL    HW2 6430   2.748   2.782   2.690  0.6475 -0.9135  1.1367
 1600SOL    HW3 6431   2.600   2.763   2.661  0.7620  1.1669 -1.0352
 1600SOL    MW4 6432   2.682   2.734   2.658  0.4100 -0.0113  0.2155
 1601SOL     OW 6433   2.884   2.883   2.761  0.1177 -0.1039 -0.4637
 1601SOL    HW2 6434   2.885   2.891   2.857  1.7672 -1.5745 -0.3344
 1601SOL    HW3 6435   2.905   2.971   2.729 -1.2354  0.5929  0.4810
 1601SOL    MW4 6436   2.887   2.896   2.770  0.1568 -0.2060 -0.3220
 1602SOL     OW 6437   2.933   3.133   2.647  0.0071 -0.0208  0.1270
 1602SOL    HW2 6438   2.856   3.182   2.676  0.9545  1.2178  0.5952
 1602SOL    HW3 6439   2.914   3.108   2.557 -1.4508 -0.7795  0.6245
 1602SOL    MW4 6440   2.920   3.136   2.639 -0.0602  0.0425  0.2544
 1603SOL     OW 6441   2.690   3.283   2.736  0.3544  0.0804 -0.5782
 1603SOL    HW2 6442   2.676   3.367   2.691 -0.7420  0.2643  0.0956
 1603SOL    HW3 6443   2.619   3.227   2.706  0.4116 -0.2328 -0.1282
 1603SOL    MW4 6444   2.679   3.287   2.727  0.2173  0.0634 -0.4299
 1604SOL     OW 6445   2.662   3.536   2.634 -0.3108  0.0338 -0.0436
 1604SOL    HW2 6446   2.576   3.576   2.651 -0.3911  0.4090 -1.3305
 1604SOL    HW3 6447   2.670   3.536   2.539  2.0083  1.8413  0.1222
 1604SOL    MW4 6448   2.652   3.541   2.624 -0.0154  0.3217 -0.1916
 1605SOL     OW 6449   2.923   3.591   2.735 -0.5189  0.9585 -0.0134
 1605SOL    HW2 6450   2.930   3.606   2.829 -1.4842  0.8394  0.0893
 1605SOL    HW3 6451   2.830   3.572   2.722  0.1584 -2.4146 -0.4670
 1605SOL    MW4 6452   2.912   3.590   2.746 -0.5569  0.4977 -0.0597
 1606SOL     OW 6453   2.924   3.860   2.607  0.2519  0.3653  0.3919
 1606SOL    HW2 6454   2.988   3.915   2.651  0.2105  0.7686 -0.0391
 1606SOL    HW3 6455   2.927   3.776   2.653  0.0653  0.8400  1.2775
 1606SOL    MW4 6456   2.933   3.856   2.619  0.2218  0.4812  0.4519
 1607SOL     OW 6457   2.691   3.992   2.692  0.4083  0.7472  0.5953
 1607SOL    HW2 6458   2.695   4.083   2.663  0.1473  0.3988 -0.5846
 1607SOL    HW3 6459   2.771   3.952   2.656  0.2570  0.3898  0.6529
 1607SOL    MW4 6460   2.702   3.999   2.684  0.3539  0.6541  0.4472
 1608SOL     OW 6461   2.716   4.251   2.607  0.1084  0.3217  0.2453
 1608SOL    HW2 6462   2.788   4.296   2.651  0.7381  0.5272 -0.9833
 1608SOL    HW3 6463   2.637   4.287   2.647  0.6464  1.3574  0.3915
 1608SOL    MW4 6464   2.715   4.262   2.618  0.2625  0.4855  0.1025
 1609SOL     OW 6465   2.935   4.350   2.729  0.3363  0.0400  0.4295
 1609SOL    HW2 6466   2.951   4.348   2.823 -1.3282 -1.2152  0.6924
 1609SOL    HW3 6467   2.910   4.441   2.711  0.7592  0.3067  1.1565
 1609SOL    MW4 6468   2.934   4.362   2.739  0.1725 -0.0904  0.5601
 1610SOL     OW 6469   3.343   4.660   2.608  0.3776  0.6972  0.2695
 1610SOL    HW2 6470   3.350   4.568   2.635  1.1408 -0.0384 -2.2620
 1610SOL    HW3 6471   3.257   4.687   2.638 -0.6600 -1.4612 -0.6479
 1610SOL    MW4 6472   3.333   4.651   2.615  0.3414  0.3154 -0.1855
 1611SOL     OW 6473   3.097   0.084   2.694  0.1420 -0.2071 -0.6729
 1611SOL    HW2 6474   3.114   0.085   2.789  0.1066 -0.3806 -0.6639
 1611SOL    HW3 6475   3.132   0.167   2.663  0.6329 -0.3804 -0.5886
 1611SOL    MW4 6476   3.104   0.095   2.703  0.2021 -0.2529 -0.6606
 1612SOL     OW 6477   3.179   0.335   2.613  0.4004  0.3470 -0.1940
 1612SOL    HW2 6478   3.098   0.375   2.646  1.1466  0.8514  1.0426
 1612SOL    HW3 6479   3.171   0.342   2.517 -0.5683  1.2858 -0.0560
 1612SOL    MW4 6480   3.167   0.341   2.605  0.3711  0.5374 -0.0126
 1613SOL     OW 6481   3.375   0.503   2.750 -0.2295  0.4260 -0.5849
 1613SOL    HW2 6482   3.374   0.574   2.686 -1.1024  1.2976  0.3948
 1613SOL    HW3 6483   3.318   0.436   2.712  0.2241  0.4282 -1.2833
 1613SOL    MW4 6484   3.367   0.503   2.737 -0.2848  0.5413 -0.5478
 1614SOL     OW 6485   3.334   0.777   2.629  0.7938 -0.1755  0.2436
 1614SOL    HW2 6486   3.416   0.817   2.658  0.6887  0.3716 -0.2005
 1614SOL    HW3 6487   3.337   0.782   2.534  0.3338 -0.3337  0.2184
 1614SOL    MW4 6488   3.345   0.783   2.620  0.7192 -0.1242  0.1817
 1615SOL     OW 6489   3.108   0.910   2.706 -0.1314  0.0801  0.2368
 1615SOL    HW2 6490   3.116   0.909   2.802  1.1304 -0.4342  0.1330
 1615SOL    HW3 6491   3.186   0.864   2.675 -0.9242 -0.4282 -1.0250
 1615SOL    MW4 6492   3.120   0.904   2.715 -0.0695 -0.0549  0.0566
 1616SOL     OW 6493   3.150   1.160   2.625  0.2094 -0.0960  0.0002
 1616SOL    HW2 6494   3.135   1.074   2.664  0.0320 -0.1514 -0.1884
 1616SOL    HW3 6495   3.152   1.143   2.531  0.0018  0.1305 -0.0455
 1616SOL    MW4 6496   3.148   1.146   2.618  0.1586 -0.0734 -0.0307
 1617SOL     OW 6497   3.394   1.287   2.706 -0.2448 -0.0086 -0.1379
 1617SOL    HW2 6498   3.390   1.286   2.801  0.2430 -1.4489 -0.1135
 1617SOL    HW3 6499   3.311   1.249   2.678  0.4123 -1.3923 -0.2400
 1617SOL    MW4 6500   3.382   1.282   2.715 -0.0937 -0.3812 -0.1481
 1618SOL     OW 6501   3.381   1.539   2.583 -0.1353  0.8268 -0.3029
 1618SOL    HW2 6502   3.299   1.577   2.617  0.9902  2.1569  0.9738
 1618SOL    HW3 6503   3.391   1.457   2.631 -1.4253 -0.0344 -1.4681
 1618SOL    MW4 6504   3.371   1.533   2.593 -0.1570  0.8886 -0.2882
 1619SOL     OW 6505   3.177   1.656   2.715  0.1719 -0.3249  0.2323
 1619SOL    HW2 6506   3.179   1.741   2.672 -0.2127  0.1348  1.1152
 1619SOL    HW3 6507   3.088   1.623   2.700  0.3931 -0.6941 -0.3211
 1619SOL    MW4 6508   3.165   1.663   2.707  0.1503 -0.3129  0.2758
 1620SOL     OW 6509   3.152   1.923   2.596  0.4126 -1.0648 -0.0875
 1620SOL    HW2 6510   3.221   1.969   2.644  0.1667  0.0096 -0.7427
 1620SOL    HW3 6511   3.071   1.958   2.632  0.2252 -0.2067 -1.2950
 1620SOL    MW4 6512   3.151   1.934   2.607  0.3554 -0.8098 -0.3333
 1621SOL     OW 6513   3.360   2.063   2.727 -0.1790  0.2165  0.0068
 1621SOL    HW2 6514   3.359   2.055   2.822  2.6402  1.2013  0.1780
 1621SOL    HW3 6515   3.357   2.157   2.710  1.5883  0.1575 -0.7720
 1621SOL    MW4 6516   3.360   2.074   2.737  0.4261  0.3386 -0.0734
 1622SOL     OW 6517   3.358   2.332   2.647 -0.3321 -0.0979  0.2072
 1622SOL    HW2 6518   3.433   2.377   2.688 -0.2416 -1.5377  1.6809
 1622SOL    HW3 6519   3.382   2.325   2.555  0.5916  0.9650  0.3438
 1622SOL    MW4 6520   3.371   2.337   2.641 -0.1983 -0.1477  0.4197
 1623SOL     OW 6521   3.122   2.463   2.717  0.0727 -0.4295 -0.2623
 1623SOL    HW2 6522   3.107   2.553   2.687 -0.9651 -0.1211  1.1492
 1623SOL    HW3 6523   3.207   2.440   2.680  0.8484  1.5267  0.2428
 1623SOL    MW4 6524   3.131   2.472   2.708  0.0382 -0.1307 -0.0094
 1624SOL     OW 6525   3.085   2.724   2.629  0.3807 -0.3085  0.2250
 1624SOL    HW2 6526   3.164   2.761   2.669  1.6202 -2.0652 -0.5296
 1624SOL    HW3 6527   3.013   2.766   2.676  1.7689  0.7120  1.5013
 1624SOL    MW4 6528   3.086   2.734   2.641  0.7274 -0.4057  0.2939
 1625SOL     OW 6529   3.343   2.775   2.710  0.1338 -0.0363 -0.1415
 1625SOL    HW2 6530   3.343   2.789   2.804 -0.2003 -0.5534 -0.0558
 1625SOL    HW3 6531   3.428   2.735   2.691  0.5471  0.8625 -0.1908
 1625SOL    MW4 6532   3.354   2.771   2.720  0.1443  0.0141 -0.1367
 1626SOL     OW 6533   3.349   3.067   2.638 -0.3054  0.1011 -0.6867
 1626SOL    HW2 6534   3.337   2.974   2.655  0.6499  0.2704  0.9075
 1626SOL    HW3 6535   3.356   3.073   2.542 -0.7261 -1.4057 -0.8213
 1626SOL    MW4 6536   3.348   3.055   2.627 -0.2349 -0.0753 -0.4941
 1627SOL     OW 6537   3.160   3.230   2.760  0.0720  0.0005  0.3090
 1627SOL    HW2 6538   3.221   3.171   2.716  0.1382 -0.3382  0.8607
 1627SOL    HW3 6539   3.076   3.211   2.718  0.7312  2.1391 -2.1368
 1627SOL    MW4 6540   3.157   3.220   2.748  0.1677  0.2380  0.0591
 1628SOL     OW 6541   3.149   3.479   2.614  0.3404  0.6931  0.0180
 1628SOL    HW2 6542   3.168   3.397   2.659 -0.7056 -1.0217 -2.5531
 1628SOL    HW3 6543   3.067   3.510   2.652 -0.6143 -0.8132 -0.7979
 1628SOL    MW4 6544   3.141   3.473   2.625  0.0764  0.2681 -0.4289
 1629SOL     OW 6545   3.367   3.621   2.716  0.3584 -0.0952  0.3136
 1629SOL    HW2 6546   3.373   3.600   2.809 -0.1725 -0.2854  0.3100
 1629SOL    HW3 6547   3.289   3.573   2.686 -0.3298  1.1225  0.0978
 1629SOL    MW4 6548   3.357   3.612   2.724  0.1976  0.0404  0.2847
 1630SOL     OW 6549   3.387   3.873   2.628 -0.0518  0.2943 -0.3536
 1630SOL    HW2 6550   3.393   3.780   2.653 -0.4722  0.2881 -0.2847
 1630SOL    HW3 6551   3.381   3.871   2.533  1.6354  0.3217 -0.4837
 1630SOL    MW4 6552   3.387   3.860   2.619  0.1153  0.2971 -0.3617
 1631SOL     OW 6553   3.153   4.004   2.730  0.6988  0.3181 -0.5575
 1631SOL    HW2 6554   3.153   4.090   2.689 -0.9023 -0.1959 -1.6671
 1631SOL    HW3 6555   3.225   3.957   2.688  0.6828  0.6517 -0.9620
 1631SOL    MW4 6556   3.163   4.009   2.719  0.4855  0.2943 -0.7573
 1632SOL     OW 6557   3.182   4.275   2.624 -0.0308  0.2374 -0.0166
 1632SOL    HW2 6558   3.100   4.308   2.658 -0.2931  0.0309 -0.4388
 1632SOL    HW3 6559   3.170   4.274   2.529 -0.5851 -2.4836  0.0498
 1632SOL    MW4 6560   3.170   4.279   2.616 -0.1386 -0.1488 -0.0636
 1633SOL     OW 6561   3.412   4.404   2.702 -0.7061  0.1065  0.7018
 1633SOL    HW2 6562   3.403   4.396   2.797 -0.7709  0.0435  0.6911
 1633SOL    HW3 6563   3.338   4.353   2.667 -0.0710 -0.7587  0.6052
 1633SOL    MW4 6564   3.401   4.396   2.710 -0.6309 -0.0159  0.6877
 1634SOL     OW 6565   3.822   4.638   2.649  0.0619  0.0013  0.1677
 1634SOL    HW2 6566   3.831   4.553   2.691 -0.2862 -0.4395 -0.6332
 1634SOL    HW3 6567   3.734   4.668   2.672 -0.0648 -0.1622 -0.1009
 1634SOL    MW4 6568   3.812   4.631   2.657 -0.0008 -0.0784  0.0266
 1635SOL     OW 6569   3.570   0.086   2.712  0.8665 -0.4756  0.0989
 1635SOL    HW2 6570   3.578   0.174   2.677  1.1831 -0.6478 -0.2677
 1635SOL    HW3 6571   3.486   0.054   2.680  0.7386 -0.2967  0.2561
 1635SOL    MW4 6572   3.560   0.093   2.703  0.8914 -0.4747  0.0713
 1636SOL     OW 6573   3.569   0.339   2.643  0.6408  0.1830 -0.0301
 1636SOL    HW2 6574   3.644   0.386   2.679 -0.2742  2.3192 -0.8059
 1636SOL    HW3 6575   3.493   0.383   2.680 -0.2584 -0.6523 -0.8538
 1636SOL    MW4 6576   3.569   0.351   2.653  0.4015  0.3546 -0.2411
 1637SOL     OW 6577   3.813   0.459   2.715 -0.1495 -0.1299 -0.1128
 1637SOL    HW2 6578   3.825   0.479   2.808 -0.6059 -2.6366  0.5432
 1637SOL    HW3 6579   3.900   0.433   2.684  0.1912  1.5903 -0.6430
 1637SOL    MW4 6580   3.826   0.458   2.723 -0.1648 -0.2337 -0.0962
 1638SOL     OW 6581   3.804   0.711   2.599  0.1642 -0.2762  0.0739
 1638SOL    HW2 6582   3.720   0.742   2.632  0.2985  0.6565 -0.4383
 1638SOL    HW3 6583   3.817   0.626   2.641 -0.3242  0.2500  1.3115
 1638SOL    MW4 6584   3.795   0.704   2.609  0.1174 -0.0837  0.1696
 1639SOL     OW 6585   3.595   0.872   2.746  0.3048  0.0443 -0.1296
 1639SOL    HW2 6586   3.594   0.875   2.842  0.5424  1.7674 -0.1547
 1639SOL    HW3 6587   3.617   0.962   2.720 -0.5989 -0.2017 -1.8129
 1639SOL    MW4 6588   3.598   0.884   2.755  0.2169  0.2392 -0.3550
 1640SOL     OW 6589   3.613   1.124   2.617  0.3034 -0.4313 -0.0581
 1640SOL    HW2 6590   3.691   1.165   2.656 -0.3937 -0.7164  1.6950
 1640SOL    HW3 6591   3.540   1.174   2.653 -0.3068  0.1152 -2.0495
 1640SOL    MW4 6592   3.614   1.136   2.627  0.1309 -0.3968 -0.0896
 1641SOL     OW 6593   3.814   1.254   2.745  0.0448 -0.3776 -0.2215
 1641SOL    HW2 6594   3.885   1.215   2.695 -0.5053  0.1570 -1.4224
 1641SOL    HW3 6595   3.794   1.336   2.700 -0.5732  0.0252  0.7586
 1641SOL    MW4 6596   3.821   1.260   2.733 -0.1093 -0.2539 -0.2506
 1642SOL     OW 6597   3.774   1.517   2.632  0.5257 -0.2352  0.6775
 1642SOL    HW2 6598   3.858   1.547   2.664  0.9714 -0.7175 -0.0201
 1642SOL    HW3 6599   3.710   1.578   2.668  1.3813  1.4068 -0.5501
 1642SOL    MW4 6600   3.777   1.529   2.641  0.6974 -0.0822  0.4235
 1643SOL     OW 6601   3.556   1.662   2.745 -0.2542 -0.4802  0.3327
 1643SOL    HW2 6602   3.570   1.750   2.709  0.5491 -0.2124  1.2974
 1643SOL    HW3 6603   3.484   1.626   2.692 -1.1930  1.0858  0.5276
 1643SOL    MW4 6604   3.548   1.669   2.733 -0.2721 -0.2382  0.4857
 1644SOL     OW 6605   3.571   1.919   2.639  0.2359  0.1283  0.0596
 1644SOL    HW2 6606   3.493   1.965   2.672 -1.4817 -1.3995 -1.7161
 1644SOL    HW3 6607   3.564   1.925   2.544  2.3484  0.0284 -0.1196
 1644SOL    MW4 6608   3.560   1.926   2.631  0.2880 -0.0864 -0.1983
 1645SOL     OW 6609   3.808   2.020   2.760 -0.6442 -0.2808  0.7679
 1645SOL    HW2 6610   3.878   1.960   2.735 -0.6654 -0.2551  0.6447
 1645SOL    HW3 6611   3.736   1.999   2.701 -1.0397 -0.8788  1.4521
 1645SOL    MW4 6612   3.808   2.009   2.749 -0.6992 -0.3563  0.8419
 1646SOL     OW 6613   3.828   2.282   2.657  0.1075 -0.4928  0.0098
 1646SOL    HW2 6614   3.831   2.186   2.663 -1.6979 -0.6078 -0.6425
 1646SOL    HW3 6615   3.839   2.301   2.564  0.9402 -0.0177  0.1924
 1646SOL    MW4 6616   3.830   2.272   2.646 -0.0209 -0.4453 -0.0522
 1647SOL     OW 6617   3.613   2.434   2.737 -0.4610  0.3894  0.4852
 1647SOL    HW2 6618   3.614   2.426   2.833  0.4659 -0.6041  0.4117
 1647SOL    HW3 6619   3.679   2.370   2.708 -0.2441  1.1816 -0.7809
 1647SOL    MW4 6620   3.622   2.424   2.746 -0.3101  0.3628  0.3084
 1648SOL     OW 6621   3.611   2.702   2.663 -0.7474  0.3957  0.3106
 1648SOL    HW2 6622   3.613   2.613   2.699  1.0917  0.4334  0.3700
 1648SOL    HW3 6623   3.611   2.690   2.568  0.3519  0.3078  0.3076
 1648SOL    MW4 6624   3.611   2.689   2.655 -0.3598  0.3891  0.3181
 1649SOL     OW 6625   3.835   2.851   2.729 -0.4970  0.1277  0.0579
 1649SOL    HW2 6626   3.899   2.796   2.684 -0.1207 -0.9502  1.8670
 1649SOL    HW3 6627   3.751   2.807   2.714 -0.3611 -0.2767  0.4744
 1649SOL    MW4 6628   3.832   2.838   2.721 -0.4294 -0.0678  0.3515
 1650SOL     OW 6629   3.800   3.102   2.614 -0.1287  0.4855  0.2166
 1650SOL    HW2 6630   3.727   3.138   2.664  0.3391 -0.4353  1.5704
 1650SOL    HW3 6631   3.810   3.013   2.646  1.1053  0.3580 -0.4919
 1650SOL    MW4 6632   3.792   3.095   2.625  0.0959  0.3472  0.3017
 1651SOL     OW 6633   3.563   3.198   2.748  0.0459 -0.2702 -0.0408
 1651SOL    HW2 6634   3.554   3.290   2.725 -1.3570 -0.1728  0.8833
 1651SOL    HW3 6635   3.494   3.153   2.700  0.5523 -0.8136 -0.2756
 1651SOL    MW4 6636   3.553   3.204   2.739 -0.0724 -0.3291  0.0502
 1652SOL     OW 6637   3.573   3.466   2.653  0.3114  0.1584  0.0251
 1652SOL    HW2 6638   3.651   3.516   2.677 -0.1958  0.3861  1.2383
 1652SOL    HW3 6639   3.500   3.525   2.670 -0.3350 -1.1572  1.9900
 1652SOL    MW4 6640   3.574   3.480   2.658  0.1592  0.0149  0.4444
 1653SOL     OW 6641   3.791   3.607   2.736 -0.3441 -0.3676  0.1135
 1653SOL    HW2 6642   3.873   3.560   2.720  0.1699  0.2547  0.8891
 1653SOL    HW3 6643   3.803   3.692   2.695 -0.2034  0.0996  1.1020
 1653SOL    MW4 6644   3.803   3.612   2.729 -0.2577 -0.2239  0.3462
 1654SOL     OW 6645   3.815   3.853   2.607 -0.9491  0.3718  0.0928
 1654SOL    HW2 6646   3.895   3.896   2.637 -1.1453 -0.0807  1.3060
 1654SOL    HW3 6647   3.744   3.904   2.646 -1.1902 -0.7895  1.2238
 1654SOL    MW4 6648   3.816   3.865   2.616 -1.0068  0.1589  0.4021
 1655SOL     OW 6649   3.613   4.009   2.724  0.2978  0.2859  0.1758
 1655SOL    HW2 6650   3.604   4.099   2.694 -0.3343  0.0900 -0.2450
 1655SOL    HW3 6651   3.536   3.964   2.688  0.5134 -0.3781  0.5290
 1655SOL    MW4 6652   3.601   4.015   2.715  0.2429  0.1725  0.1669
 1656SOL     OW 6653   3.644   4.258   2.599 -0.0092  0.2536 -0.5125
 1656SOL    HW2 6654   3.563   4.300   2.627  0.3784 -0.0687  1.1698
 1656SOL    HW3 6655   3.631   4.240   2.506 -2.7696 -1.8012  0.2122
 1656SOL    MW4 6656   3.631   4.261   2.590 -0.3223 -0.0600 -0.1949
 1657SOL     OW 6657   3.839   4.380   2.774 -0.1431  0.1509  0.0282
 1657SOL    HW2 6658   3.916   4.338   2.735  0.0294 -0.5147  1.0861
 1657SOL    HW3 6659   3.764   4.337   2.732  0.0490  0.1819 -0.3486
 1657SOL    MW4 6660   3.839   4.369   2.763 -0.0950  0.0671  0.1181
 1658SOL     OW 6661   4.241   4.663   2.636 -0.3713  0.7681 -0.1733
 1658SOL    HW2 6662   4.170   4.726   2.648  0.1113  0.9010  2.2260
 1658SOL    HW3 6663   4.319   4.709   2.669  0.3607 -0.3068 -0.3879
 1658SOL    MW4 6664   4.242   4.677   2.642 -0.2111  0.6438  0.1149
 1659SOL     OW 6665   4.018   0.123   2.716  0.2156 -0.2961  0.2705
 1659SOL    HW2 6666   4.030   0.134   2.810  0.2573 -1.0090  0.3530
 1659SOL    HW3 6667   3.945   0.063   2.708  0.5631 -0.6654 -0.1428
 1659SOL    MW4 6668   4.010   0.117   2.727  0.2669 -0.4389  0.2268
 1660SOL     OW 6669   4.049   0.375   2.617  0.3330  0.1091  0.1097
 1660SOL    HW2 6670   4.038   0.286   2.651  2.1597 -0.2367 -0.1231
 1660SOL    HW3 6671   4.028   0.369   2.524  2.9660 -0.6825 -0.4797
 1660SOL    MW4 6672   4.045   0.363   2.610  0.9214 -0.0410  0.0012
 1661SOL     OW 6673   4.254   0.540   2.727 -0.1890  0.1123 -0.6582
 1661SOL    HW2 6674   4.183   0.485   2.695 -0.2588 -0.7983  0.9631
 1661SOL    HW3 6675   4.334   0.489   2.710 -0.2255 -0.3727  0.5350
 1661SOL    MW4 6676   4.255   0.526   2.721 -0.2030 -0.0719 -0.2868
 1662SOL     OW 6677   4.240   0.788   2.598 -0.2154  0.0772  0.0568
 1662SOL    HW2 6678   4.233   0.704   2.644 -1.0696 -0.0889 -0.3571
 1662SOL    HW3 6679   4.254   0.763   2.506 -0.3697  0.3936 -0.0517
 1662SOL    MW4 6680   4.241   0.773   2.592 -0.3485  0.0971 -0.0121
 1663SOL     OW 6681   4.011   0.870   2.726  0.1145 -0.1080 -0.2424
 1663SOL    HW2 6682   4.089   0.845   2.677  0.2128  0.3678 -0.3330
 1663SOL    HW3 6683   3.946   0.805   2.702  0.3538 -0.2504 -0.5104
 1663SOL    MW4 6684   4.013   0.858   2.717  0.1590 -0.0640 -0.2897
 1664SOL     OW 6685   4.010   1.118   2.591  0.3969 -0.6301 -0.2457
 1664SOL    HW2 6686   4.094   1.157   2.612 -0.2154 -0.3671  1.8266
 1664SOL    HW3 6687   4.008   1.035   2.639 -1.0394 -0.0138  0.8218
 1664SOL    MW4 6688   4.021   1.112   2.600  0.1266 -0.5141  0.1686
 1665SOL     OW 6689   4.254   1.217   2.678 -0.2765  0.1683 -0.3049
 1665SOL    HW2 6690   4.245   1.312   2.670 -0.3590  0.0947 -1.1235
 1665SOL    HW3 6691   4.343   1.198   2.648  0.7320  0.2882  2.5215
 1665SOL    MW4 6692   4.264   1.227   2.673 -0.1543  0.1744 -0.0400
 1666SOL     OW 6693   4.251   1.491   2.615 -0.8841 -0.0676 -0.1448
 1666SOL    HW2 6694   4.331   1.538   2.638  0.0522 -1.2464 -0.9038
 1666SOL    HW3 6695   4.254   1.483   2.520 -1.1042 -1.4929 -0.0504
 1666SOL    MW4 6696   4.262   1.496   2.605 -0.7896 -0.4112 -0.2325
 1667SOL     OW 6697   4.029   1.606   2.701  0.0650 -0.3951 -0.0072
 1667SOL    HW2 6698   4.029   1.614   2.796  0.3627  1.5048 -0.1416
 1667SOL    HW3 6699   4.111   1.562   2.680  0.2037 -0.4156  0.5794
 1667SOL    MW4 6700   4.040   1.601   2.711  0.1226 -0.1471  0.0524
 1668SOL     OW 6701   4.007   1.865   2.622  0.3123 -0.5408  0.1649
 1668SOL    HW2 6702   4.086   1.912   2.648  0.4681 -0.4898 -0.3989
 1668SOL    HW3 6703   4.018   1.778   2.660  0.6645 -0.5471  0.0526
 1668SOL    MW4 6704   4.019   1.859   2.630  0.3793 -0.5349  0.0757
 1669SOL     OW 6705   4.230   2.022   2.708  0.1601 -0.0974 -0.1449
 1669SOL    HW2 6706   4.246   2.114   2.687 -1.3954  0.1805 -0.2212
 1669SOL    HW3 6707   4.304   1.975   2.670  0.7706  1.0918 -0.4362
 1669SOL    MW4 6708   4.242   2.028   2.700  0.0355  0.0962 -0.1934
 1670SOL     OW 6709   4.260   2.296   2.632  0.1580 -0.0597 -0.3278
 1670SOL    HW2 6710   4.181   2.338   2.666 -0.9085 -0.3609 -2.3608
 1670SOL    HW3 6711   4.259   2.315   2.538  1.8067 -1.1855 -0.5922
 1670SOL    MW4 6712   4.249   2.304   2.624  0.2349 -0.2479 -0.6309
 1671SOL     OW 6713   4.048   2.417   2.744 -0.7101 -0.1872  0.0145
 1671SOL    HW2 6714   4.053   2.408   2.839 -0.4629  2.7645  0.3045
 1671SOL    HW3 6715   3.965   2.376   2.721  0.1057 -2.6725  1.2265
 1671SOL    MW4 6716   4.038   2.410   2.754 -0.5698 -0.1257  0.2126
 1672SOL     OW 6717   4.015   2.669   2.613  0.0649  0.3570  0.1267
 1672SOL    HW2 6718   4.098   2.715   2.624  0.2227 -0.0017  0.4542
 1672SOL    HW3 6719   4.030   2.583   2.653  0.0989 -0.3541 -1.4175
 1672SOL    MW4 6720   4.028   2.664   2.620  0.0902  0.2158 -0.0338
 1673SOL     OW 6721   4.260   2.840   2.687  0.0890  0.5372  0.2799
 1673SOL    HW2 6722   4.260   2.823   2.781  2.6328 -0.0801  0.1913
 1673SOL    HW3 6723   4.282   2.933   2.680  0.9248  0.3431  0.2737
 1673SOL    MW4 6724   4.263   2.850   2.699  0.5349  0.4302  0.2674
 1674SOL     OW 6725   4.304   3.100   2.612 -0.4988  0.2731 -0.0857
 1674SOL    HW2 6726   4.214   3.120   2.637  0.0491  0.9431  1.4059
 1674SOL    HW3 6727   4.300   3.084   2.518 -2.0462  1.0280 -0.1607
 1674SOL    MW4 6728   4.291   3.100   2.603 -0.6307  0.4611  0.1012
 1675SOL     OW 6729   4.066   3.210   2.686  0.2275  0.2214 -0.1444
 1675SOL    HW2 6730   4.059   3.303   2.667 -0.8289  0.2499  0.3049
 1675SOL    HW3 6731   3.979   3.175   2.666  0.6313 -0.6708 -0.3539
 1675SOL    MW4 6732   4.053   3.217   2.681  0.1414  0.1074 -0.1127
 1676SOL     OW 6733   4.019   3.472   2.628 -0.2758 -0.1812 -0.2131
 1676SOL    HW2 6734   4.091   3.528   2.655 -0.7586 -0.1263  0.9975
 1676SOL    HW3 6735   4.007   3.491   2.535  0.5301  0.6277 -0.1585
 1676SOL    MW4 6736   4.027   3.482   2.619 -0.2331 -0.0672 -0.0462
 1677SOL     OW 6737   4.287   3.632   2.694 -0.0041 -0.2515 -0.2684
 1677SOL    HW2 6738   4.295   3.639   2.789 -0.1779  1.0373 -0.3355
 1677SOL    HW3 6739   4.366   3.586   2.666  1.1979  1.4096  0.2820
 1677SOL    MW4 6740   4.298   3.627   2.703  0.1316  0.1377 -0.2047
 1678SOL     OW 6741   4.272   3.897   2.657 -0.0873  0.1051  0.2780
 1678SOL    HW2 6742   4.296   3.805   2.665 -0.6111 -0.0042  0.5999
 1678SOL    HW3 6743   4.352   3.945   2.679  0.2154 -0.2736 -0.0081
 1678SOL    MW4 6744   4.286   3.891   2.661 -0.1164  0.0407  0.2827
 1679SOL     OW 6745   4.030   3.999   2.736 -0.2678 -0.5792 -0.0118
 1679SOL    HW2 6746   4.028   3.981   2.830  1.0469  1.3176  0.4074
 1679SOL    HW3 6747   4.118   3.973   2.708  0.4109  1.7387 -0.0954
 1679SOL    MW4 6748   4.041   3.993   2.745 -0.0048 -0.0231  0.0325
 1680SOL     OW 6749   4.058   4.269   2.643 -0.4260  0.3243  0.1079
 1680SOL    HW2 6750   4.044   4.175   2.655 -1.7686  0.6921  1.5816
 1680SOL    HW3 6751   4.040   4.285   2.551  0.9290 -1.0353 -0.4168
 1680SOL    MW4 6752   4.054   4.259   2.633 -0.4244  0.1934  0.2331
 1681SOL     OW 6753   4.271   4.418   2.747 -0.2363 -0.0473  0.1399
 1681SOL    HW2 6754   4.198   4.367   2.711 -0.1908 -0.5027  0.6980
 1681SOL    HW3 6755   4.252   4.508   2.721 -0.7699 -0.2241 -0.0920
 1681SOL    MW4 6756   4.259   4.423   2.739 -0.3007 -0.1307  0.1830
 1682SOL     OW 6757   0.240   4.650   3.121  0.2132 -0.0673 -0.0246
 1682SOL    HW2 6758   0.232   4.658   3.216  0.3897 -0.9023  0.0654
 1682SOL    HW3 6759   0.161   4.690   3.086  0.3905  0.7165  0.4500
 1682SOL    MW4 6760   0.229   4.657   3.129  0.2599 -0.0740  0.0499
 1683SOL     OW 6761   0.028   0.116   3.001 -0.0220 -0.1650 -0.0695
 1683SOL    HW2 6762  -0.057   0.087   3.033  0.2673 -0.6479  0.2751
 1683SOL    HW3 6763   0.032   0.209   3.023 -0.3187 -0.2197  0.2155
 1683SOL    MW4 6764   0.018   0.124   3.008 -0.0230 -0.2360  0.0136
 1684SOL     OW 6765   0.023   0.385   3.061  0.3829  0.2426 -0.4191
 1684SOL    HW2 6766   0.008   0.368   3.154  0.6017 -0.0801 -0.4423
 1684SOL    HW3 6767  -0.056   0.431   3.031 -0.3881 -1.1021 -0.4604
 1684SOL    MW4 6768   0.011   0.389   3.069  0.3101  0.0226 -0.4276
 1685SOL     OW 6769   0.266   0.515   2.952  0.0083  0.2188 -0.0273
 1685SOL    HW2 6770   0.342   0.467   2.986  0.9284  1.4647 -0.2818
 1685SOL    HW3 6771   0.191   0.462   2.977  0.9696 -1.1034  0.1333
 1685SOL    MW4 6772   0.266   0.502   2.960  0.2566  0.2087 -0.0397
 1686SOL     OW 6773   0.241   0.752   3.089 -0.3989 -0.1849 -0.3434
 1686SOL    HW2 6774   0.234   0.748   3.185 -0.9226 -0.4224 -0.3908
 1686SOL    HW3 6775   0.240   0.660   3.061 -0.5319 -0.1071 -0.5948
 1686SOL    MW4 6776   0.240   0.739   3.098 -0.4855 -0.2059 -0.3828
 1687SOL     OW 6777   0.029   0.897   2.963  0.0442 -0.3211  0.2216
 1687SOL    HW2 6778   0.114   0.862   2.989  0.6465  0.8715 -0.1326
 1687SOL    HW3 6779   0.023   0.880   2.870 -1.1893 -2.6443  0.6923
 1687SOL    MW4 6780   0.039   0.890   2.954 -0.0391 -0.4703  0.2369
 1688SOL     OW 6781   4.476   1.164   3.126 -0.1412  0.1327 -0.5455
 1688SOL    HW2 6782   4.396   1.186   3.077 -0.2035 -0.4514 -0.7084
 1688SOL    HW3 6783   4.503   1.079   3.091  0.2887  0.1085 -0.1573
 1688SOL    MW4 6784   4.469   1.156   3.115 -0.0927  0.0524 -0.5157
 1689SOL     OW 6785   0.214   1.283   3.005  1.0306  0.4928 -0.0775
 1689SOL    HW2 6786   0.130   1.255   3.042  1.6983 -0.0352  1.0505
 1689SOL    HW3 6787   0.199   1.285   2.910  0.2777 -1.3764 -0.0182
 1689SOL    MW4 6788   0.201   1.280   2.997  1.0193  0.1765  0.0791
 1690SOL     OW 6789   0.198   1.555   3.077  0.0693 -0.0158  0.1707
 1690SOL    HW2 6790   0.110   1.581   3.050 -1.4352 -1.8819  3.0228
 1690SOL    HW3 6791   0.202   1.461   3.059  0.8232 -0.2836  1.6365
 1690SOL    MW4 6792   0.187   1.546   3.071 -0.0297 -0.2973  0.7404
 1691SOL     OW 6793   4.433   1.637   2.975  0.0380  0.0951 -0.0617
 1691SOL    HW2 6794   4.358   1.583   2.998 -0.4614  0.8520  0.0864
 1691SOL    HW3 6795   4.425   1.714   3.031  0.1575  0.8192 -1.0347
 1691SOL    MW4 6796   4.422   1.640   2.985 -0.0121  0.2905 -0.1706
 1692SOL     OW 6797   4.489   1.881   3.099  0.0563  0.3197  0.0281
 1692SOL    HW2 6798   4.402   1.908   3.068 -0.0541  0.7242  0.6940
 1692SOL    HW3 6799   4.550   1.924   3.039 -0.2091 -0.1719 -0.5983
 1692SOL    MW4 6800   4.485   1.890   3.087  0.0067  0.3082  0.0333
 1693SOL     OW 6801   0.207   2.024   2.983  0.2387  0.2847 -0.4479
 1693SOL    HW2 6802   0.199   2.110   3.023  0.6511  0.3792 -0.5628
 1693SOL    HW3 6803   0.209   2.041   2.889 -0.2716  0.1017 -0.4947
 1693SOL    MW4 6804   0.206   2.037   2.976  0.2258  0.2731 -0.4692
 1694SOL     OW 6805   0.223   2.308   3.075 -0.0855  0.2273 -0.0218
 1694SOL    HW2 6806   0.224   2.296   3.170 -0.0728  0.4776  0.0100
 1694SOL    HW3 6807   0.300   2.360   3.056  0.5993 -0.8780 -0.3216
 1694SOL    MW4 6808   0.233   2.313   3.085  0.0065  0.1145 -0.0571
 1695SOL     OW 6809   4.483   2.441   2.990  0.4773  0.4545  0.0184
 1695SOL    HW2 6810   4.475   2.528   3.029 -0.1591 -0.3634  1.7524
 1695SOL    HW3 6811   4.560   2.403   3.032  0.5113  0.0156 -0.4360
 1695SOL    MW4 6812   4.492   2.448   3.000  0.3978  0.2887  0.1872
 1696SOL     OW 6813   0.012   2.716   3.112 -0.2240  0.3607 -0.4245
 1696SOL    HW2 6814   0.013   2.716   3.208  0.9864 -0.8942 -0.4183
 1696SOL    HW3 6815   0.090   2.766   3.088  0.2537 -0.4971 -0.7198
 1696SOL    MW4 6816   0.023   2.722   3.122 -0.0012  0.0820 -0.4627
 1697SOL     OW 6817   0.226   2.853   3.040  0.3822 -0.3157 -0.1490
 1697SOL    HW2 6818   0.302   2.805   3.075  0.1992 -1.2516 -1.0080
 1697SOL    HW3 6819   0.230   2.838   2.946  1.1738  2.6230 -0.6208
 1697SOL    MW4 6820   0.237   2.844   3.032  0.4625 -0.0515 -0.3246
 1698SOL     OW 6821   0.284   3.131   3.085  0.0228 -0.1580  0.0573
 1698SOL    HW2 6822   0.199   3.175   3.077  0.3325  0.2224 -1.2784
 1698SOL    HW3 6823   0.274   3.051   3.033  1.0126  0.6995 -1.4618
 1698SOL    MW4 6824   0.271   3.126   3.077  0.1942  0.0053 -0.3193
 1699SOL     OW 6825   0.040   3.227   2.991  0.2596  0.1908 -0.1559
 1699SOL    HW2 6826  -0.027   3.167   3.024 -0.3918  0.8268 -0.3195
 1699SOL    HW3 6827   0.038   3.216   2.896  1.4117 -0.8695 -0.0664
 1699SOL    MW4 6828   0.031   3.218   2.983  0.3257  0.1348 -0.1657
 1700SOL     OW 6829   0.012   3.487   3.051  0.3962  0.1030 -0.4954
 1700SOL    HW2 6830  -0.060   3.535   3.010 -1.5267  0.0156  2.6696
 1700SOL    HW3 6831  -0.006   3.395   3.029 -1.0390 -0.0145  1.0989
 1700SOL    MW4 6832  -0.000   3.481   3.042 -0.0469  0.0760  0.1325
 1701SOL     OW 6833   0.259   3.610   3.005  0.0794 -0.2281  0.2149
 1701SOL    HW2 6834   0.237   3.695   3.044 -0.2341 -0.6016  0.8566
 1701SOL    HW3 6835   0.188   3.552   3.032  0.5101 -0.8014  0.1242
 1701SOL    MW4 6836   0.247   3.613   3.014  0.0949 -0.3531  0.2876
 1702SOL     OW 6837   0.226   3.868   3.094  0.4807 -0.4593 -0.2017
 1702SOL    HW2 6838   0.210   3.874   3.189  0.5542 -1.2289 -0.1379
 1702SOL    HW3 6839   0.314   3.904   3.082 -0.6799  2.4857 -0.3757
 1702SOL    MW4 6840   0.235   3.874   3.105  0.3372 -0.1723 -0.2162
 1703SOL     OW 6841   0.020   4.000   2.993  0.1974 -0.4948 -0.1343
 1703SOL    HW2 6842   0.102   3.956   3.015  1.0413  0.7976 -0.5808
 1703SOL    HW3 6843   0.017   4.000   2.897  0.0514  0.1043 -0.1371
 1703SOL    MW4 6844   0.031   3.994   2.983  0.2895 -0.2453 -0.1936
 1704SOL     OW 6845   4.491   4.263   3.130 -0.2936 -0.0515 -0.2059
 1704SOL    HW2 6846   4.501   4.260   3.226  2.9134  0.3369 -0.4772
 1704SOL    HW3 6847   4.466   4.173   3.107 -1.2017 -0.1303  0.9827
 1704SOL    MW4 6848   4.489   4.251   3.140  0.0097 -0.0106 -0.0849
 1705SOL     OW 6849   0.228   4.379   3.038  0.2712 -0.1848  0.4290
 1705SOL    HW2 6850   0.145   4.345   3.071  0.6001 -0.7832  0.6494
 1705SOL    HW3 6851   0.232   4.469   3.068 -0.2008 -0.2230  0.5962
 1705SOL    MW4 6852   0.218   4.386   3.046  0.2523 -0.2688  0.4801
 1706SOL     OW 6853   0.662   4.665   3.084 -0.2314  0.1947 -0.8455
 1706SOL    HW2 6854   0.674   4.576   3.051 -0.2854 -0.2460  0.2963
 1706SOL    HW3 6855   0.582   4.696   3.042  0.2144 -0.0027 -1.8541
 1706SOL    MW4 6856   0.653   4.658   3.074 -0.1797  0.1105 -0.8280
 1707SOL     OW 6857   0.446   0.109   2.958  0.0144  0.5304 -0.0615
 1707SOL    HW2 6858   0.454   0.202   2.980 -2.4018  0.9202 -0.6375
 1707SOL    HW3 6859   0.376   0.077   3.015  1.1429 -1.0569  0.4514
 1707SOL    MW4 6860   0.438   0.117   2.968 -0.1555  0.3724 -0.0698
 1708SOL     OW 6861   0.444   0.343   3.071  0.3070  0.1296  0.0630
 1708SOL    HW2 6862   0.421   0.350   3.164 -0.0540 -1.7840  0.1410
 1708SOL    HW3 6863   0.537   0.368   3.068  1.0319 -2.1823  1.3563
 1708SOL    MW4 6864   0.453   0.347   3.083  0.3550 -0.4279  0.2439
 1709SOL     OW 6865   0.686   0.482   3.024  0.1620  0.2086 -0.6877
 1709SOL    HW2 6866   0.768   0.451   3.062 -1.7811 -1.6974  2.1481
 1709SOL    HW3 6867   0.672   0.568   3.064 -0.1921 -0.3377  0.3917
 1709SOL    MW4 6868   0.695   0.489   3.034 -0.1411 -0.1150 -0.1712
 1710SOL     OW 6869   0.665   0.762   3.100 -0.1778  0.5057  0.2019
 1710SOL    HW2 6870   0.680   0.775   3.193 -0.1699  0.2912  0.2318
 1710SOL    HW3 6871   0.580   0.804   3.083 -0.2195  0.4701  0.3235
 1710SOL    MW4 6872   0.656   0.769   3.110 -0.1822  0.4727  0.2219
 1711SOL     OW 6873   0.451   0.914   3.019  0.0114 -0.6407 -0.0998
 1711SOL    HW2 6874   0.377   0.869   3.058 -1.1017  0.8012 -0.4984
 1711SOL    HW3 6875   0.432   0.915   2.925 -0.9661  2.3473  0.0834
 1711SOL    MW4 6876   0.439   0.908   3.012 -0.2644 -0.0562 -0.1282
 1712SOL     OW 6877   0.470   1.170   3.086  0.3436  0.0721 -0.2990
 1712SOL    HW2 6878   0.458   1.077   3.066 -1.9831 -0.1510  1.9766
 1712SOL    HW3 6879   0.386   1.210   3.067  1.3210  1.7499 -1.2152
 1712SOL    MW4 6880   0.458   1.163   3.081  0.1655  0.2640 -0.1196
 1713SOL     OW 6881   0.692   1.323   2.986  0.0822 -0.6606 -0.0382
 1713SOL    HW2 6882   0.756   1.259   3.016 -0.5994 -0.6436  1.5068
 1713SOL    HW3 6883   0.607   1.288   3.014 -0.3776  0.4883  0.0713
 1713SOL    MW4 6884   0.689   1.310   2.994 -0.0684 -0.5067  0.1801
 1714SOL     OW 6885   0.687   1.573   3.098 -0.5160  0.8561  0.1947
 1714SOL    HW2 6886   0.688   1.563   3.193  0.5024  1.0069  0.2107
 1714SOL    HW3 6887   0.684   1.484   3.064  1.0306  0.7187  0.3720
 1714SOL    MW4 6888   0.687   1.560   3.106 -0.1776  0.8579  0.2202
 1715SOL     OW 6889   0.470   1.669   2.964  0.0431 -0.0532  0.3545
 1715SOL    HW2 6890   0.545   1.628   3.008  0.3131  0.2459  0.1804
 1715SOL    HW3 6891   0.394   1.637   3.011  0.3637  0.7761  1.4804
 1715SOL    MW4 6892   0.470   1.660   2.976  0.1210  0.0957  0.4801
 1716SOL     OW 6893   0.432   1.917   3.069 -0.3663  0.1213 -0.0139
 1716SOL    HW2 6894   0.452   1.838   3.019  0.3566  0.4453 -0.2445
 1716SOL    HW3 6895   0.352   1.952   3.027 -1.9357 -1.6207  1.4377
 1716SOL    MW4 6896   0.424   1.911   3.057 -0.4780 -0.0658  0.1472
 1717SOL     OW 6897   0.666   2.075   2.969  0.3518  0.5060  0.0680
 1717SOL    HW2 6898   0.732   2.030   3.022  0.9790 -0.8787 -1.8385
 1717SOL    HW3 6899   0.583   2.032   2.992  0.1898  1.7060  1.8631
 1717SOL    MW4 6900   0.664   2.064   2.979  0.4132  0.4816  0.0533
 1718SOL     OW 6901   0.637   2.325   3.099 -0.3470 -0.3245 -0.1036
 1718SOL    HW2 6902   0.641   2.315   3.194 -0.2518 -1.7503 -0.2410
 1718SOL    HW3 6903   0.644   2.235   3.065  0.0414  0.2027 -1.4645
 1718SOL    MW4 6904   0.638   2.312   3.107 -0.2832 -0.4431 -0.3013
 1719SOL     OW 6905   0.423   2.483   3.009  0.5236 -0.1194 -0.3185
 1719SOL    HW2 6906   0.497   2.436   3.047 -0.8505 -0.9808  1.3748
 1719SOL    HW3 6907   0.431   2.469   2.915  0.9747 -2.5504  0.0508
 1719SOL    MW4 6908   0.434   2.475   3.001  0.4019 -0.5538 -0.0463
 1720SOL     OW 6909   0.466   2.721   3.135  0.3447  0.3998  0.0973
 1720SOL    HW2 6910   0.547   2.752   3.096  0.8527 -1.5316 -0.4512
 1720SOL    HW3 6911   0.441   2.646   3.082 -2.0521  1.2408 -0.0042
 1720SOL    MW4 6912   0.474   2.715   3.123  0.0955  0.2559  0.0115
 1721SOL     OW 6913   0.693   2.826   2.976  0.4011 -0.3029 -0.1799
 1721SOL    HW2 6914   0.765   2.801   3.033  0.0860 -0.7475  0.0258
 1721SOL    HW3 6915   0.680   2.920   2.993  0.9887 -0.2026 -0.2886
 1721SOL    MW4 6916   0.700   2.835   2.986  0.4371 -0.3483 -0.1671
 1722SOL     OW 6917   0.727   3.105   3.075  0.3769 -0.1304 -0.8734
 1722SOL    HW2 6918   0.723   3.114   3.170  1.1869  0.1298 -0.8552
 1722SOL    HW3 6919   0.663   3.168   3.042 -0.4434 -0.7491 -0.4819
 1722SOL    MW4 6920   0.718   3.115   3.083  0.3756 -0.1777 -0.8194
 1723SOL     OW 6921   0.519   3.278   2.976 -0.9506 -0.2193 -0.3637
 1723SOL    HW2 6922   0.530   3.363   3.019  0.0966 -1.2529  1.4982
 1723SOL    HW3 6923   0.442   3.239   3.019 -1.0305 -0.4856 -0.7439
 1723SOL    MW4 6924   0.510   3.284   2.987 -0.8230 -0.3908 -0.1682
 1724SOL     OW 6925   0.505   3.513   3.103  0.0375 -0.0462 -0.0742
 1724SOL    HW2 6926   0.491   3.517   3.197 -0.4152 -0.0535 -0.1411
 1724SOL    HW3 6927   0.421   3.539   3.064  0.1402 -0.2954 -0.4732
 1724SOL    MW4 6928   0.492   3.517   3.110 -0.0086 -0.0800 -0.1357
 1725SOL     OW 6929   0.715   3.661   3.005 -0.1221  0.0063  0.0977
 1725SOL    HW2 6930   0.778   3.603   3.048 -0.8357 -0.7207  0.1841
 1725SOL    HW3 6931   0.630   3.634   3.039 -0.5250  0.7048 -0.3244
 1725SOL    MW4 6932   0.712   3.650   3.015 -0.2694  0.0026  0.0534
 1726SOL     OW 6933   0.733   3.924   3.118  0.4914 -0.0537 -0.2818
 1726SOL    HW2 6934   0.713   3.931   3.211 -0.9551  0.4583 -0.6231
 1726SOL    HW3 6935   0.728   3.830   3.099 -1.1747  0.0184 -0.2591
 1726SOL    MW4 6936   0.730   3.912   3.128  0.0807  0.0233 -0.3238
 1727SOL     OW 6937   0.477   4.000   3.042  0.3015 -0.1307 -0.0942
 1727SOL    HW2 6938   0.571   3.982   3.042  0.1763 -0.8215  0.5477
 1727SOL    HW3 6939   0.455   4.013   2.949  0.7436 -1.5981 -0.4303
 1727SOL    MW4 6940   0.486   3.999   3.030  0.3433 -0.4154 -0.0539
 1728SOL     OW 6941   0.458   4.270   3.129  0.4100 -0.0769  0.2517
 1728SOL    HW2 6942   0.461   4.176   3.109  0.1686 -0.2880  1.1790
 1728SOL    HW3 6943   0.377   4.301   3.087  0.2872 -0.3592  0.2804
 1728SOL    MW4 6944   0.448   4.261   3.121  0.3619 -0.1420  0.3778
 1729SOL     OW 6945   0.684   4.393   2.997  0.3220  0.1041  0.1091
 1729SOL    HW2 6946   0.605   4.358   3.039  0.0197  1.2916  0.5279
 1729SOL    HW3 6947   0.657   4.407   2.906 -0.3430  1.6895  0.5287
 1729SOL    MW4 6948   0.670   4.390   2.990  0.1944  0.4700  0.2197
 1730SOL     OW 6949   1.131   0.008   3.078  0.3862  0.3077  0.2759
 1730SOL    HW2 6950   1.209   0.055   3.051  0.2484  1.0672  1.1861
 1730SOL    HW3 6951   1.062   0.043   3.021  0.3991  0.7760  0.5480
 1730SOL    MW4 6952   1.132   0.019   3.067  0.3697  0.4697  0.4319
 1731SOL     OW 6953   0.892   0.154   2.973 -0.2189 -0.2755 -0.1242
 1731SOL    HW2 6954   0.812   0.112   3.006  0.1732  0.1041  1.3482
 1731SOL    HW3 6955   0.901   0.233   3.027  1.0953 -0.2641 -0.3615
 1731SOL    MW4 6956   0.882   0.159   2.985  0.0062 -0.2239  0.0388
 1732SOL     OW 6957   0.925   0.382   3.127  0.2007  0.2910 -0.5469
 1732SOL    HW2 6958   0.930   0.391   3.222 -1.4479  2.1708 -0.6060
 1732SOL    HW3 6959   1.005   0.424   3.095  0.0018  1.0560 -0.0554
 1732SOL    MW4 6960   0.937   0.389   3.135 -0.0430  0.6399 -0.4899
 1733SOL     OW 6961   1.150   0.477   2.998 -0.1064  0.0750 -0.5992
 1733SOL    HW2 6962   1.228   0.424   3.015 -0.2070  0.0292 -0.2764
 1733SOL    HW3 6963   1.153   0.494   2.904  0.5297  0.4480 -0.5145
 1733SOL    MW4 6964   1.161   0.472   2.988 -0.0358  0.1181 -0.5454
 1734SOL     OW 6965   1.123   0.779   3.079 -0.5418 -0.1492 -0.3405
 1734SOL    HW2 6966   1.135   0.792   3.173  1.5797 -0.3360 -0.5483
 1734SOL    HW3 6967   1.136   0.685   3.066  0.0005  0.0020 -0.9167
 1734SOL    MW4 6968   1.126   0.768   3.090 -0.1903 -0.1539 -0.4439
 1735SOL     OW 6969   0.883   0.903   2.989  0.4525  0.0750 -0.4900
 1735SOL    HW2 6970   0.960   0.865   3.031  0.3325  0.7915  0.4033
 1735SOL    HW3 6971   0.809   0.855   3.027  0.2083  2.0436  1.6475
 1735SOL    MW4 6972   0.883   0.892   3.000  0.4044  0.4293 -0.0901
 1736SOL     OW 6973   0.891   1.157   3.105  0.0325 -0.0347 -0.2469
 1736SOL    HW2 6974   0.961   1.209   3.065  0.8448 -0.0917  1.0480
 1736SOL    HW3 6975   0.893   1.074   3.058 -0.5593  0.7225 -1.6149
 1736SOL    MW4 6976   0.901   1.153   3.094  0.0616  0.0577 -0.2565
 1737SOL     OW 6977   1.094   1.335   3.008  0.0266  0.0739  0.7095
 1737SOL    HW2 6978   1.168   1.280   3.035  0.9357  1.0714  0.2803
 1737SOL    HW3 6979   1.080   1.312   2.916  0.3607  0.5170  0.5499
 1737SOL    MW4 6980   1.102   1.324   3.000  0.1907  0.2640  0.6318
 1738SOL     OW 6981   1.120   1.602   3.076 -0.5286 -0.0029  0.1901
 1738SOL    HW2 6982   1.195   1.641   3.030  0.0360 -0.2593  0.8829
 1738SOL    HW3 6983   1.112   1.515   3.038 -0.0471 -0.2235  0.5892
 1738SOL    MW4 6984   1.129   1.596   3.065 -0.3906 -0.0658  0.3341
 1739SOL     OW 6985   0.887   1.721   2.979 -0.2877  0.1821  0.7753
 1739SOL    HW2 6986   0.959   1.684   3.030 -0.3447 -1.8164 -0.5477
 1739SOL    HW3 6987   0.809   1.673   3.008 -0.6288  0.3674  0.1772
 1739SOL    MW4 6988   0.886   1.710   2.989 -0.3402 -0.0572  0.5218
 1740SOL     OW 6989   0.895   1.976   3.083 -0.3837  0.2270  0.0704
 1740SOL    HW2 6990   0.892   1.955   3.176 -1.7114  0.0668 -0.0054
 1740SOL    HW3 6991   0.898   1.891   3.039  0.3894  0.3043 -0.0358
 1740SOL    MW4 6992   0.895   1.962   3.089 -0.4568  0.2161  0.0464
 1741SOL     OW 6993   1.100   2.113   2.975  0.3135  0.0493  0.0435
 1741SOL    HW2 6994   1.018   2.074   3.005  0.5115 -1.0061 -0.7149
 1741SOL    HW3 6995   1.095   2.106   2.879  1.3728 -0.2171  0.0067
 1741SOL    MW4 6996   1.088   2.107   2.966  0.4794 -0.1251 -0.0614
 1742SOL     OW 6997   1.143   2.367   3.108 -0.1789  0.3870 -0.3031
 1742SOL    HW2 6998   1.071   2.424   3.080 -0.8443 -0.6230 -0.6622
 1742SOL    HW3 6999   1.120   2.281   3.074  0.7907 -0.1162  0.3017
 1742SOL    MW4 7000   1.131   2.363   3.100 -0.1387  0.1874 -0.2707
 1743SOL     OW 7001   0.867   2.460   3.040  0.1723  0.4658 -0.3548
 1743SOL    HW2 7002   0.787   2.412   3.064 -0.3528  1.6347  0.2900
 1743SOL    HW3 7003   0.869   2.456   2.944 -0.0875 -0.4754 -0.3265
 1743SOL    MW4 7004   0.856   2.453   3.030  0.0688  0.4959 -0.2660
 1744SOL     OW 7005   0.913   2.710   3.114  0.1178  0.1035 -0.0792
 1744SOL    HW2 7006   0.912   2.700   3.209 -0.1503  0.1107 -0.0821
 1744SOL    HW3 7007   0.898   2.622   3.080  0.6805  0.0210 -0.1172
 1744SOL    MW4 7008   0.911   2.697   3.122  0.1567  0.0936 -0.0846
 1745SOL     OW 7009   1.140   2.820   2.992  0.2369  0.2105  0.8417
 1745SOL    HW2 7010   1.138   2.908   3.028 -0.3018  0.9307 -0.9358
 1745SOL    HW3 7011   1.067   2.775   3.036 -0.7282  1.2198  0.3065
 1745SOL    MW4 7012   1.130   2.825   3.003  0.0385  0.4387  0.5365
 1746SOL     OW 7013   1.142   3.081   3.101 -0.1439 -0.2104  0.1166
 1746SOL    HW2 7014   1.217   3.126   3.062 -0.4470  0.2512  0.0729
 1746SOL    HW3 7015   1.067   3.135   3.079 -0.4257 -0.3929  0.6213
 1746SOL    MW4 7016   1.142   3.094   3.093 -0.2211 -0.1736  0.1774
 1747SOL     OW 7017   0.949   3.267   3.012 -0.8050 -0.4448  0.3488
 1747SOL    HW2 7018   0.882   3.215   3.056 -0.5338 -0.8772  0.2586
 1747SOL    HW3 7019   0.938   3.247   2.919 -0.3328 -0.7808  0.3622
 1747SOL    MW4 7020   0.939   3.258   3.006 -0.7069 -0.5462  0.3387
 1748SOL     OW 7021   0.933   3.534   3.115  0.1313 -0.4849  0.6602
 1748SOL    HW2 7022   0.999   3.586   3.070 -0.8066 -0.3682 -0.6220
 1748SOL    HW3 7023   0.951   3.444   3.089 -0.0506 -0.4827  0.5277
 1748SOL    MW4 7024   0.944   3.529   3.106 -0.0164 -0.4692  0.4736
 1749SOL     OW 7025   1.154   3.650   2.966 -0.2327  0.0359 -0.0312
 1749SOL    HW2 7026   1.219   3.593   3.006 -1.3117 -0.9791  0.3200
 1749SOL    HW3 7027   1.161   3.732   3.015  1.5919  0.3557 -0.7975
 1749SOL    MW4 7028   1.163   3.653   2.978 -0.1344 -0.0558 -0.0860
 1750SOL     OW 7029   1.135   3.897   3.083 -0.1632  0.1972  0.1457
 1750SOL    HW2 7030   1.122   3.901   3.178  0.9095  1.3559  0.2674
 1750SOL    HW3 7031   1.060   3.943   3.046  0.5545  1.7200  0.5509
 1750SOL    MW4 7032   1.123   3.904   3.091  0.0730  0.5510  0.2152
 1751SOL     OW 7033   0.935   4.066   2.995 -0.0673 -0.4374 -0.2150
 1751SOL    HW2 7034   0.857   4.019   3.026 -0.4157 -0.6296 -1.3335
 1751SOL    HW3 7035   0.935   4.050   2.900  0.5686  0.7057 -0.4063
 1751SOL    MW4 7036   0.925   4.058   2.986 -0.0294 -0.3119 -0.3878
 1752SOL     OW 7037   0.917   4.327   3.122  0.3715  0.3387 -0.0786
 1752SOL    HW2 7038   0.927   4.233   3.107  1.8345  0.4569  0.1374
 1752SOL    HW3 7039   0.835   4.350   3.077 -0.4427 -1.1941  0.6030
 1752SOL    MW4 7040   0.907   4.318   3.114  0.4571  0.1520  0.0398
 1753SOL     OW 7041   1.141   4.412   2.993 -0.8309  0.3737 -0.1639
 1753SOL    HW2 7042   1.150   4.501   3.025  0.5339 -0.1788  1.0387
 1753SOL    HW3 7043   1.068   4.376   3.043 -0.0435  0.1737  0.8685
 1753SOL    MW4 7044   1.132   4.419   3.004 -0.5470  0.2744  0.1310
 1754SOL     OW 7045   1.619   4.635   3.092  0.1662  0.0410  0.1842
 1754SOL    HW2 7046   1.604   4.627   3.186  1.6867  2.8010  0.7269
 1754SOL    HW3 7047   1.538   4.674   3.058 -0.1333 -0.3431  0.4601
 1754SOL    MW4 7048   1.606   4.639   3.100  0.3273  0.3544  0.2922
 1755SOL     OW 7049   1.390   0.079   3.008 -0.3078  0.1815 -0.2779
 1755SOL    HW2 7050   1.406   0.171   3.027 -0.4344 -0.1230  1.3770
 1755SOL    HW3 7051   1.379   0.076   2.913 -2.8878  2.2780 -0.1214
 1755SOL    MW4 7052   1.391   0.091   2.998 -0.6649  0.4179 -0.0389
 1756SOL     OW 7053   1.392   0.340   3.049 -0.0710  0.1544 -0.0975
 1756SOL    HW2 7054   1.383   0.351   3.144 -0.4102 -0.1355 -0.0950
 1756SOL    HW3 7055   1.464   0.398   3.025  0.1532  0.0705  0.3698
 1756SOL    MW4 7056   1.400   0.349   3.058 -0.0862  0.1051 -0.0355
 1757SOL     OW 7057   1.591   0.521   2.957  0.3444  0.4486  0.4639
 1757SOL    HW2 7058   1.593   0.611   2.989 -0.1378  0.7098 -0.2328
 1757SOL    HW3 7059   1.602   0.528   2.862  1.5119 -0.3082  0.5287
 1757SOL    MW4 7060   1.593   0.533   2.949  0.4348  0.3832  0.3805
 1758SOL     OW 7061   1.605   0.759   3.094 -0.2362  0.0020 -0.1346
 1758SOL    HW2 7062   1.613   0.769   3.189  0.4933 -0.0666 -0.1827
 1758SOL    HW3 7063   1.520   0.796   3.072 -0.5864 -0.3700  0.6072
 1758SOL    MW4 7064   1.595   0.765   3.104 -0.1861 -0.0561 -0.0431
 1759SOL     OW 7065   1.374   0.893   3.016 -0.3163  0.4022 -0.3656
 1759SOL    HW2 7066   1.366   0.985   3.041 -1.5427  0.6090 -1.4277
 1759SOL    HW3 7067   1.285   0.859   3.023 -0.2575 -0.1599 -1.9710
 1759SOL    MW4 7068   1.361   0.901   3.020 -0.4704  0.3553 -0.7176
 1760SOL     OW 7069   1.316   1.176   3.077 -0.8699  0.2585  0.0252
 1760SOL    HW2 7070   1.308   1.172   3.172  0.3872 -2.0676  0.0765
 1760SOL    HW3 7071   1.400   1.219   3.062  0.0895 -1.5480  0.0475
 1760SOL    MW4 7072   1.326   1.181   3.088 -0.5774 -0.2867  0.0349
 1761SOL     OW 7073   1.570   1.284   3.030  0.0063  0.4290  0.5199
 1761SOL    HW2 7074   1.658   1.254   3.052 -0.9471 -0.6620  2.9543
 1761SOL    HW3 7075   1.570   1.377   3.053  0.3119  0.2859  1.0938
 1761SOL    MW4 7076   1.582   1.292   3.036 -0.0792  0.2662  0.9168
 1762SOL     OW 7077   1.569   1.569   3.122 -0.7943  0.0564 -0.4395
 1762SOL    HW2 7078   1.650   1.610   3.093 -0.2290 -0.7498  0.0167
 1762SOL    HW3 7079   1.500   1.617   3.075 -0.0656  0.7784 -0.7707
 1762SOL    MW4 7080   1.570   1.581   3.112 -0.6236  0.0453 -0.4230
 1763SOL     OW 7081   1.365   1.705   2.978  0.1596 -0.2170  0.4833
 1763SOL    HW2 7082   1.351   1.795   3.008 -0.8718 -0.0822 -0.3748
 1763SOL    HW3 7083   1.363   1.712   2.882 -1.7681 -1.4151  0.4084
 1763SOL    MW4 7084   1.363   1.718   2.969 -0.2308 -0.3573  0.3602
 1764SOL     OW 7085   1.323   1.967   3.073 -0.0198 -0.0711 -0.2417
 1764SOL    HW2 7086   1.297   1.950   3.164  0.1283  1.4987  0.1180
 1764SOL    HW3 7087   1.259   2.031   3.042  0.4800  0.0870 -0.9474
 1764SOL    MW4 7088   1.311   1.974   3.081  0.0657  0.1569 -0.2874
 1765SOL     OW 7089   1.556   2.091   2.995  0.0373  0.1725 -0.4149
 1765SOL    HW2 7090   1.476   2.041   3.013 -0.3662  0.8451 -0.3040
 1765SOL    HW3 7091   1.566   2.088   2.900  0.0167 -0.1192 -0.4088
 1765SOL    MW4 7092   1.547   2.084   2.985 -0.0187  0.2228 -0.3994
 1766SOL     OW 7093   1.575   2.346   3.112  0.1961 -0.4863  0.1217
 1766SOL    HW2 7094   1.505   2.397   3.071  1.6307  2.0061  0.6211
 1766SOL    HW3 7095   1.569   2.260   3.072 -1.8369  0.3073 -1.3607
 1766SOL    MW4 7096   1.565   2.342   3.101  0.1171 -0.0528 -0.0080
 1767SOL     OW 7097   1.366   2.478   2.962  0.0930 -0.2430  0.3416
 1767SOL    HW2 7098   1.301   2.424   3.008  0.7753 -1.7062 -0.3973
 1767SOL    HW3 7099   1.356   2.455   2.870  0.2995  1.0095 -0.0027
 1767SOL    MW4 7100   1.356   2.468   2.956  0.2102 -0.2708  0.1987
 1768SOL     OW 7101   1.380   2.740   3.094 -0.1093 -0.0895 -0.3928
 1768SOL    HW2 7102   1.379   2.654   3.051 -0.3419  0.5534 -1.7187
 1768SOL    HW3 7103   1.294   2.777   3.076 -0.0250  0.4090  0.1999
 1768SOL    MW4 7104   1.369   2.734   3.086 -0.1289  0.0611 -0.4895
 1769SOL     OW 7105   1.583   2.872   2.960 -0.0666 -0.4002  0.1209
 1769SOL    HW2 7106   1.657   2.831   3.006 -0.9028 -0.4462  1.4542
 1769SOL    HW3 7107   1.506   2.833   3.001 -0.8342 -1.2787 -2.1139
 1769SOL    MW4 7108   1.583   2.861   2.972 -0.2782 -0.5222  0.0019
 1770SOL     OW 7109   1.599   3.123   3.065  0.1621  0.2243 -0.1470
 1770SOL    HW2 7110   1.605   3.109   3.160  0.6614  0.4237 -0.1477
 1770SOL    HW3 7111   1.595   3.035   3.028 -1.6816  0.1639  0.1597
 1770SOL    MW4 7112   1.599   3.110   3.073 -0.0153  0.2426 -0.1066
 1771SOL     OW 7113   1.356   3.237   3.036  0.6147 -0.4567 -0.3233
 1771SOL    HW2 7114   1.438   3.208   3.075  0.7306 -0.0646 -0.2685
 1771SOL    HW3 7115   1.374   3.240   2.942  0.2430 -1.6939 -0.4398
 1771SOL    MW4 7116   1.369   3.234   3.029  0.5810 -0.5682 -0.3314
 1772SOL     OW 7117   1.349   3.509   3.080  0.3013 -0.3802 -0.1034
 1772SOL    HW2 7118   1.333   3.520   3.174 -0.5575  1.1087 -0.4068
 1772SOL    HW3 7119   1.358   3.414   3.068 -0.5710 -0.6600  1.3232
 1772SOL    MW4 7120   1.348   3.498   3.091  0.0729 -0.2207  0.0448
 1773SOL     OW 7121   1.595   3.628   2.993 -0.5984  0.2282 -0.1489
 1773SOL    HW2 7122   1.514   3.580   3.011 -0.0226 -0.2868  1.0856
 1773SOL    HW3 7123   1.575   3.719   3.016 -0.4875 -0.0830  1.1809
 1773SOL    MW4 7124   1.582   3.634   2.998 -0.5078  0.1192  0.1894
 1774SOL     OW 7125   1.571   3.891   3.107  0.3215 -0.4801  0.4673
 1774SOL    HW2 7126   1.498   3.929   3.058 -0.7984 -0.7522  1.8926
 1774SOL    HW3 7127   1.649   3.927   3.064 -0.6547  0.9656 -0.1716
 1774SOL    MW4 7128   1.572   3.901   3.095  0.0449 -0.3252  0.5711
 1775SOL     OW 7129   1.376   4.008   2.952  0.0338  0.1596  0.1924
 1775SOL    HW2 7130   1.378   4.098   2.984  0.2816  0.3551 -0.3582
 1775SOL    HW3 7131   1.301   3.968   2.996  0.4265  0.3902  1.0799
 1775SOL    MW4 7132   1.366   4.015   2.962  0.1183  0.2158  0.2368
 1776SOL     OW 7133   1.348   4.263   3.086  0.0564 -0.2395  0.3689
 1776SOL    HW2 7134   1.334   4.264   3.181 -1.9102 -2.4277  0.1588
 1776SOL    HW3 7135   1.273   4.310   3.050  0.6873  0.4046 -0.1242
 1776SOL    MW4 7136   1.336   4.269   3.094 -0.1198 -0.4432  0.2761
 1777SOL     OW 7137   1.586   4.375   2.992  0.5287  0.1893 -0.2676
 1777SOL    HW2 7138   1.505   4.347   3.034  0.2161 -0.8080 -1.5163
 1777SOL    HW3 7139   1.594   4.467   3.015 -0.6155  0.1290  0.4118
 1777SOL    MW4 7140   1.577   4.383   3.000  0.3365  0.0497 -0.3427
 1778SOL     OW 7141   2.024   0.028   3.081  0.2488  0.1042 -0.2015
 1778SOL    HW2 7142   2.018   0.030   3.177  0.3199 -0.1650 -0.1920
 1778SOL    HW3 7143   1.961   0.094   3.052 -0.3548 -0.3724  0.0041
 1778SOL    MW4 7144   2.015   0.037   3.090  0.1785  0.0058 -0.1731
 1779SOL     OW 7145   1.789   0.171   3.011 -0.2215 -0.6047  0.5015
 1779SOL    HW2 7146   1.737   0.100   3.047 -0.3921 -1.0916 -0.6880
 1779SOL    HW3 7147   1.788   0.157   2.917  1.6382 -0.3287  0.4167
 1779SOL    MW4 7148   1.782   0.160   3.003  0.0014 -0.6326  0.3334
 1780SOL     OW 7149   1.796   0.427   3.119  0.1119  0.1542  0.2565
 1780SOL    HW2 7150   1.805   0.335   3.094 -0.6590 -0.1868  1.2171
 1780SOL    HW3 7151   1.738   0.465   3.052  0.0936 -0.1544  0.0971
 1780SOL    MW4 7152   1.790   0.420   3.107  0.0078  0.0685  0.3622
 1781SOL     OW 7153   2.017   0.550   3.036  0.0404  0.1455  0.0612
 1781SOL    HW2 7154   1.938   0.505   3.064  0.6677 -1.7732 -1.1629
 1781SOL    HW3 7155   2.017   0.543   2.941  0.9327  1.4294 -0.0524
 1781SOL    MW4 7156   2.007   0.543   3.027  0.2409  0.0617 -0.1153
 1782SOL     OW 7157   2.078   0.787   3.160 -0.0968  0.2764  0.2755
 1782SOL    HW2 7158   1.996   0.833   3.141 -0.9783 -1.2255  0.3581
 1782SOL    HW3 7159   2.074   0.708   3.106  1.2913  0.1738  0.3081
 1782SOL    MW4 7160   2.067   0.782   3.150 -0.0300  0.0647  0.2907
 1783SOL     OW 7161   1.839   0.891   3.057 -0.0811  0.2439 -0.1303
 1783SOL    HW2 7162   1.756   0.849   3.078 -0.2538  0.7455  0.1935
 1783SOL    HW3 7163   1.846   0.883   2.962 -1.6241  2.2583 -0.4397
 1783SOL    MW4 7164   1.829   0.884   3.047 -0.3075  0.5759 -0.1284
 1784SOL     OW 7165   1.819   1.163   3.116  0.3377 -0.0332 -0.2261
 1784SOL    HW2 7166   1.811   1.159   3.211  0.6200 -0.3944 -0.2184
 1784SOL    HW3 7167   1.808   1.073   3.087  0.6728  0.0166 -0.5058
 1784SOL    MW4 7168   1.816   1.151   3.125  0.4192 -0.0743 -0.2620
 1785SOL     OW 7169   2.040   1.306   3.013  0.0575 -0.4073  0.0845
 1785SOL    HW2 7170   2.120   1.257   3.032  0.2479 -0.2786 -0.3558
 1785SOL    HW3 7171   1.970   1.255   3.052  0.3473 -0.5752  0.3888
 1785SOL    MW4 7172   2.042   1.293   3.020  0.1209 -0.4125  0.0666
 1786SOL     OW 7173   2.011   1.566   3.118  0.1668  0.2174 -0.2356
 1786SOL    HW2 7174   2.024   1.542   3.210 -1.5438  0.6769  0.1440
 1786SOL    HW3 7175   2.012   1.482   3.072  0.4022 -0.0746  0.2878
 1786SOL    MW4 7176   2.013   1.552   3.124 -0.0279  0.2395 -0.1164
 1787SOL     OW 7177   1.786   1.686   3.017  0.0098  0.2768 -0.1778
 1787SOL    HW2 7178   1.780   1.779   3.037  0.9084  0.3872 -0.3885
 1787SOL    HW3 7179   1.868   1.658   3.057 -0.4119 -0.4990  0.1684
 1787SOL    MW4 7180   1.796   1.694   3.025  0.0727  0.1890 -0.1599
 1788SOL     OW 7181   1.771   1.959   3.087  0.0089  0.1510  0.0132
 1788SOL    HW2 7182   1.850   2.008   3.062  0.3604 -1.5018 -2.2238
 1788SOL    HW3 7183   1.701   1.998   3.033 -0.3025  0.2047  0.4546
 1788SOL    MW4 7184   1.772   1.971   3.076  0.0141 -0.0600 -0.2237
 1789SOL     OW 7185   2.023   2.056   3.002  0.5881 -0.2069  0.6729
 1789SOL    HW2 7186   2.095   2.018   3.052  1.4969  1.7994  0.9206
 1789SOL    HW3 7187   2.022   2.148   3.027 -2.9271 -0.4481  1.6817
 1789SOL    MW4 7188   2.032   2.063   3.011  0.2442  0.0260  0.8387
 1790SOL     OW 7189   1.992   2.307   3.100 -0.0650 -0.3653 -0.2541
 1790SOL    HW2 7190   1.998   2.303   3.195  0.6438  1.1997 -0.2133
 1790SOL    HW3 7191   1.911   2.355   3.083  0.3531  0.3061 -0.4028
 1790SOL    MW4 7192   1.982   2.313   3.110  0.0837 -0.0703 -0.2683
 1791SOL     OW 7193   1.802   2.470   3.010 -0.0230 -0.3983  0.3228
 1791SOL    HW2 7194   1.791   2.559   3.043  1.6525 -0.2674  0.5600
 1791SOL    HW3 7195   1.721   2.425   3.033 -0.2144  0.6159  1.6487
 1791SOL    MW4 7196   1.790   2.476   3.017  0.1728 -0.2472  0.5290
 1792SOL     OW 7197   1.781   2.734   3.100 -0.2053 -0.0643  0.3084
 1792SOL    HW2 7198   1.783   2.722   3.195 -0.4593  1.0302  0.4579
 1792SOL    HW3 7199   1.870   2.763   3.078 -0.5211  1.0157  0.4075
 1792SOL    MW4 7200   1.793   2.736   3.110 -0.2805  0.2226  0.3412
 1793SOL     OW 7201   2.024   2.840   2.990  0.0189 -0.4298  0.3320
 1793SOL    HW2 7202   2.010   2.932   3.013  0.3626  0.2289 -1.9493
 1793SOL    HW3 7203   2.005   2.836   2.896 -0.9851 -2.9046  0.6075
 1793SOL    MW4 7204   2.020   2.852   2.980 -0.0682 -0.6695  0.0673
 1794SOL     OW 7205   2.019   3.091   3.114 -0.5938  0.0392  0.5557
 1794SOL    HW2 7206   2.011   3.096   3.209 -0.6893 -1.4699  0.6363
 1794SOL    HW3 7207   1.958   3.157   3.081 -0.1089  0.9954  1.5481
 1794SOL    MW4 7208   2.010   3.100   3.122 -0.5424 -0.0338  0.6973
 1795SOL     OW 7209   1.827   3.258   2.998  0.3516  0.6324 -0.2438
 1795SOL    HW2 7210   1.747   3.207   3.005  0.1144  0.9384 -0.7117
 1795SOL    HW3 7211   1.840   3.269   2.904  1.1292  0.2889 -0.1834
 1795SOL    MW4 7212   1.818   3.252   2.986  0.4229  0.6275 -0.2975
 1796SOL     OW 7213   1.798   3.501   3.139 -0.0732  0.4020 -0.2493
 1796SOL    HW2 7214   1.792   3.413   3.102 -1.0869  0.1048  0.5910
 1796SOL    HW3 7215   1.732   3.551   3.091 -1.5742 -0.0495  1.2953
 1796SOL    MW4 7216   1.788   3.496   3.128 -0.4050  0.3032  0.0653
 1797SOL     OW 7217   2.025   3.623   3.037 -0.3468  0.0844  0.2864
 1797SOL    HW2 7218   2.049   3.711   3.066  0.1190  0.3091 -0.7612
 1797SOL    HW3 7219   1.948   3.601   3.089 -0.4503  1.0933  0.5782
 1797SOL    MW4 7220   2.018   3.632   3.048 -0.2990  0.2472  0.1867
 1798SOL     OW 7221   2.061   3.898   3.119  0.5809  0.0762  0.1508
 1798SOL    HW2 7222   2.055   3.911   3.213 -1.7197  0.5140 -0.0418
 1798SOL    HW3 7223   1.982   3.939   3.083  1.0407 -0.7486 -1.8950
 1798SOL    MW4 7224   2.050   3.905   3.126  0.3381  0.0252 -0.1445
 1799SOL     OW 7225   1.815   4.012   3.012 -0.2718  0.1602  0.0257
 1799SOL    HW2 7226   1.796   4.102   3.041 -0.7667 -0.2992  1.1421
 1799SOL    HW3 7227   1.791   4.012   2.919 -1.4909  0.8346  0.3190
 1799SOL    MW4 7228   1.809   4.024   3.004 -0.4979  0.1885  0.2117
 1800SOL     OW 7229   2.044   4.442   3.003  0.0825 -0.3110  0.1277
 1800SOL    HW2 7230   2.037   4.532   3.035  1.8485 -0.5488  1.2430
 1800SOL    HW3 7231   1.963   4.400   3.032 -0.0836  0.5277  0.9089
 1800SOL    MW4 7232   2.032   4.448   3.011  0.2936 -0.2317  0.3779
 1801SOL     OW 7233   2.060   4.428   2.715  0.0788  0.2943  0.2028
 1801SOL    HW2 7234   2.052   4.428   2.810  0.0351 -0.2891  0.2011
 1801SOL    HW3 7235   1.987   4.375   2.684  0.8122 -0.5697 -0.0826
 1801SOL    MW4 7236   2.049   4.421   2.723  0.1698  0.1033  0.1649
 1802SOL     OW 7237   2.488   4.660   3.106  0.0929  0.0324  0.2988
 1802SOL    HW2 7238   2.480   4.566   3.088 -0.1587 -0.0472  0.8313
 1802SOL    HW3 7239   2.410   4.699   3.067 -0.4219 -0.1336  1.1604
 1802SOL    MW4 7240   2.477   4.653   3.098 -0.0082 -0.0000  0.4828
 1803SOL     OW 7241   2.268   0.132   3.006  0.1402 -0.0669  0.1569
 1803SOL    HW2 7242   2.260   0.225   3.029 -1.7365  0.4123 -2.3060
 1803SOL    HW3 7243   2.188   0.092   3.040  0.3471 -0.5572  0.0689
 1803SOL    MW4 7244   2.257   0.139   3.014 -0.0801 -0.0684 -0.1797
 1804SOL     OW 7245   2.255   0.417   3.101 -0.0696 -0.0370  0.1912
 1804SOL    HW2 7246   2.251   0.408   3.197  0.7040  2.0772  0.4414
 1804SOL    HW3 7247   2.182   0.475   3.080 -0.0782 -0.2961 -0.4749
 1804SOL    MW4 7248   2.245   0.423   3.111  0.0313  0.2078  0.1363
 1805SOL     OW 7249   2.494   0.522   2.989  0.1970 -0.0752 -0.4882
 1805SOL    HW2 7250   2.413   0.478   3.013  1.3751 -2.2320 -0.3621
 1805SOL    HW3 7251   2.498   0.515   2.893  0.4371 -0.3588 -0.4588
 1805SOL    MW4 7252   2.484   0.515   2.979  0.3841 -0.3971 -0.4677
 1806SOL     OW 7253   2.497   0.764   3.139 -0.0861  0.0368 -0.2648
 1806SOL    HW2 7254   2.571   0.794   3.087 -0.6793  0.1156 -1.0761
 1806SOL    HW3 7255   2.472   0.681   3.100 -0.0301 -0.3009  0.4062
 1806SOL    MW4 7256   2.503   0.757   3.127 -0.1570  0.0026 -0.2833
 1807SOL     OW 7257   2.277   0.904   3.027 -0.3787  0.3667  0.3570
 1807SOL    HW2 7258   2.354   0.858   3.060 -0.3712  0.2144  0.1324
 1807SOL    HW3 7259   2.204   0.865   3.075 -0.3796  0.0653  0.1124
 1807SOL    MW4 7260   2.277   0.893   3.038 -0.3779  0.3069  0.2951
 1808SOL     OW 7261   2.257   1.173   3.104  0.0823  0.2772 -0.4106
 1808SOL    HW2 7262   2.231   1.166   3.195 -1.4970 -0.4503 -0.9015
 1808SOL    HW3 7263   2.276   1.083   3.077 -1.5090  0.2168 -1.3783
 1808SOL    MW4 7264   2.256   1.160   3.112 -0.3360  0.1732 -0.6030
 1809SOL     OW 7265   2.499   1.296   3.035  0.1712 -0.3105  0.0891
 1809SOL    HW2 7266   2.414   1.260   3.061 -0.5147  1.2679  0.0665
 1809SOL    HW3 7267   2.490   1.315   2.942  0.6867 -0.5107 -0.0032
 1809SOL    MW4 7268   2.487   1.294   3.026  0.1487 -0.1287  0.0740
 1810SOL     OW 7269   2.480   1.543   3.144 -0.0895  0.0325  0.4654
 1810SOL    HW2 7270   2.397   1.576   3.110 -0.2525  0.2758  1.0820
 1810SOL    HW3 7271   2.485   1.453   3.114 -0.8279 -0.1439  0.8610
 1810SOL    MW4 7272   2.469   1.536   3.136 -0.2084  0.0413  0.5989
 1811SOL     OW 7273   2.244   1.649   2.998  0.4267 -0.3071 -0.3671
 1811SOL    HW2 7274   2.167   1.607   3.037  1.8631 -2.6754  0.0158
 1811SOL    HW3 7275   2.232   1.638   2.904  0.0346 -0.1956 -0.3321
 1811SOL    MW4 7276   2.232   1.642   2.991  0.5645 -0.6048 -0.3120
 1812SOL     OW 7277   2.239   1.909   3.105 -0.9343 -0.8401  0.4309
 1812SOL    HW2 7278   2.321   1.948   3.074 -1.4102  0.2851  0.5654
 1812SOL    HW3 7279   2.231   1.828   3.056 -0.5974 -0.1261 -0.8271
 1812SOL    MW4 7280   2.249   1.904   3.095 -0.9526 -0.5974  0.2827
 1813SOL     OW 7281   2.488   2.017   3.023  0.0349 -0.2702  0.3275
 1813SOL    HW2 7282   2.572   1.975   3.044  0.2777  0.5095  0.9480
 1813SOL    HW3 7283   2.498   2.047   2.933 -0.4904 -2.3786 -0.4559
 1813SOL    MW4 7284   2.501   2.015   3.014 -0.0024 -0.4455  0.3060
 1814SOL     OW 7285   2.460   2.303   3.102  0.0054  0.0949 -0.4701
 1814SOL    HW2 7286   2.466   2.302   3.198 -0.9222 -0.2679 -0.4047
 1814SOL    HW3 7287   2.457   2.211   3.077 -0.9360  0.1926 -0.7527
 1814SOL    MW4 7288   2.460   2.291   3.111 -0.2412  0.0599 -0.4988
 1815SOL     OW 7289   2.217   2.430   2.996 -0.1287  0.1045 -0.4325
 1815SOL    HW2 7290   2.147   2.384   3.042  0.7747 -0.4734  0.4039
 1815SOL    HW3 7291   2.297   2.384   3.023  0.5846  0.8397 -1.2568
 1815SOL    MW4 7292   2.218   2.418   3.006  0.0846  0.1252 -0.4309
 1816SOL     OW 7293   2.252   2.703   3.102 -0.1132  0.2548 -0.2576
 1816SOL    HW2 7294   2.249   2.614   3.067 -0.5208  0.1831 -0.0358
 1816SOL    HW3 7295   2.173   2.745   3.068  0.2178  0.6193 -0.5889
 1816SOL    MW4 7296   2.242   2.697   3.093 -0.1233  0.2934 -0.2720
 1817SOL     OW 7297   2.457   2.843   2.980  0.3875  0.0098  0.0690
 1817SOL    HW2 7298   2.483   2.927   3.018 -0.2843  0.4610 -0.4351
 1817SOL    HW3 7299   2.387   2.812   3.037  0.3332  0.0086  0.0014
 1817SOL    MW4 7300   2.451   2.850   2.992  0.2917  0.0692 -0.0064
 1818SOL     OW 7301   2.511   3.079   3.105 -0.1733  0.5970 -0.5946
 1818SOL    HW2 7302   2.581   3.138   3.078 -0.5452  1.7772  0.9589
 1818SOL    HW3 7303   2.432   3.116   3.066 -0.2451  0.5349 -0.5089
 1818SOL    MW4 7304   2.510   3.092   3.096 -0.2318  0.7445 -0.3783
 1819SOL     OW 7305   2.270   3.178   3.017 -0.0712  0.5317 -0.1592
 1819SOL    HW2 7306   2.248   3.264   3.054  0.1118  1.0024 -1.1435
 1819SOL    HW3 7307   2.194   3.124   3.037 -0.5987  1.1839 -0.3809
 1819SOL    MW4 7308   2.257   3.182   3.025 -0.1167  0.6799 -0.3183
 1820SOL     OW 7309   2.231   3.458   3.124 -0.4276  0.0805  0.3783
 1820SOL    HW2 7310   2.302   3.496   3.072  0.0863 -0.3346  0.7694
 1820SOL    HW3 7311   2.152   3.502   3.093  0.0652  0.9314  0.2997
 1820SOL    MW4 7312   2.230   3.469   3.113 -0.2948  0.1380  0.4195
 1821SOL     OW 7313   2.464   3.600   2.999  0.4399 -0.1174  0.0277
 1821SOL    HW2 7314   2.548   3.571   3.035  1.2967  2.7595  0.4461
 1821SOL    HW3 7315   2.467   3.695   3.003 -1.8455  0.1212 -2.2636
 1821SOL    MW4 7316   2.475   3.609   3.004  0.2515  0.2936 -0.2194
 1822SOL     OW 7317   2.470   3.873   3.042  0.1027 -0.7771 -0.1942
 1822SOL    HW2 7318   2.461   3.856   3.135 -1.4916 -0.7007 -0.3102
 1822SOL    HW3 7319   2.563   3.890   3.029  0.4172 -1.2869  1.2872
 1822SOL    MW4 7320   2.481   3.873   3.052 -0.0661 -0.8343 -0.0140
 1823SOL     OW 7321   2.244   4.026   2.961 -0.0832  0.3009  0.3314
 1823SOL    HW2 7322   2.321   3.977   2.988 -0.2730 -0.3978 -0.3697
 1823SOL    HW3 7323   2.174   3.995   3.018  0.1271  0.8614  0.8997
 1823SOL    MW4 7324   2.245   4.016   2.972 -0.0805  0.2827  0.3139
 1824SOL     OW 7325   2.254   4.292   3.105  0.6081 -0.1714 -0.2161
 1824SOL    HW2 7326   2.240   4.204   3.069 -0.1764 -0.7106  1.3651
 1824SOL    HW3 7327   2.178   4.342   3.076 -0.0573 -0.6228  0.7375
 1824SOL    MW4 7328   2.242   4.287   3.096  0.4168 -0.3021  0.1184
 1825SOL     OW 7329   2.495   4.379   3.015 -0.4381 -0.1337  0.3904
 1825SOL    HW2 7330   2.414   4.346   3.053 -1.4900  1.6574 -0.2495
 1825SOL    HW3 7331   2.486   4.362   2.921 -0.3309  0.5750  0.2488
 1825SOL    MW4 7332   2.483   4.372   3.008 -0.5628  0.1961  0.2873
 1826SOL     OW 7333   2.934   4.630   3.130  0.1075  0.5634  0.5670
 1826SOL    HW2 7334   3.016   4.669   3.099  0.7203  0.3421  1.9074
 1826SOL    HW3 7335   2.928   4.547   3.084  0.4469  0.7488  0.1864
 1826SOL    MW4 7336   2.944   4.624   3.120  0.2332  0.5587  0.6936
 1827SOL     OW 7337   2.703   0.114   3.004 -0.6308  0.2107  0.4212
 1827SOL    HW2 7338   2.775   0.057   3.033  0.0421  0.2991 -1.0512
 1827SOL    HW3 7339   2.625   0.075   3.044 -0.0161 -1.0260  0.4496
 1827SOL    MW4 7340   2.702   0.101   3.013 -0.4609  0.0592  0.2307
 1828SOL     OW 7341   2.736   0.405   3.098 -0.1590 -0.3915 -0.5469
 1828SOL    HW2 7342   2.708   0.316   3.075  0.3857 -0.6280 -0.2961
 1828SOL    HW3 7343   2.663   0.461   3.071  0.4619 -0.6599 -2.8554
 1828SOL    MW4 7344   2.723   0.401   3.091 -0.0052 -0.4581 -0.8184
 1829SOL     OW 7345   2.983   0.493   2.979  0.4931  0.4588  0.1547
 1829SOL    HW2 7346   2.902   0.456   3.015  0.8872 -0.7624 -0.1948
 1829SOL    HW3 7347   2.962   0.510   2.887  0.9086 -0.7318 -0.1717
 1829SOL    MW4 7348   2.969   0.490   2.972  0.5999  0.1406  0.0656
 1830SOL     OW 7349   2.909   0.731   3.091 -0.1211 -0.0584  0.4744
 1830SOL    HW2 7350   2.916   0.723   3.187 -1.1066  0.3188  0.5777
 1830SOL    HW3 7351   2.935   0.645   3.059  0.3821 -0.1387  1.0744
 1830SOL    MW4 7352   2.913   0.718   3.100 -0.1847 -0.0192  0.5672
 1831SOL     OW 7353   2.692   0.863   2.985 -0.1354 -0.0594 -0.0570
 1831SOL    HW2 7354   2.699   0.945   3.034  1.1763  0.7940 -1.6108
 1831SOL    HW3 7355   2.766   0.811   3.017 -0.4273 -0.2774  0.2660
 1831SOL    MW4 7356   2.703   0.867   2.996 -0.0009  0.0244 -0.2194
 1832SOL     OW 7357   2.686   1.117   3.124 -0.4874 -0.4020  0.4070
 1832SOL    HW2 7358   2.772   1.144   3.093 -0.3762 -0.3221  0.7836
 1832SOL    HW3 7359   2.625   1.181   3.087 -0.6576 -1.6812 -1.6589
 1832SOL    MW4 7360   2.689   1.129   3.115 -0.4951 -0.5602  0.1841
 1833SOL     OW 7361   2.912   1.233   3.006  0.2364  0.0087  0.1081
 1833SOL    HW2 7362   2.995   1.188   3.018  0.8967  0.7905 -1.4743
 1833SOL    HW3 7363   2.923   1.316   3.053  0.3226  0.1009 -0.0791
 1833SOL    MW4 7364   2.924   1.238   3.014  0.3349  0.1240 -0.1254
 1834SOL     OW 7365   2.957   1.481   3.129 -0.4272 -0.5581  0.0543
 1834SOL    HW2 7366   2.964   1.502   3.222  1.6724 -0.9149  0.0031
 1834SOL    HW3 7367   3.035   1.521   3.089  0.0722 -2.5906 -1.0997
 1834SOL    MW4 7368   2.969   1.489   3.136 -0.0843 -0.8734 -0.1047
 1835SOL     OW 7369   2.748   1.641   3.035  0.2222 -0.0968  0.0862
 1835SOL    HW2 7370   2.813   1.585   3.076  0.3928 -1.5022 -2.0125
 1835SOL    HW3 7371   2.665   1.617   3.076  0.8368  0.9287  1.9814
 1835SOL    MW4 7372   2.745   1.631   3.046  0.3258 -0.1469  0.0593
 1836SOL     OW 7373   2.735   1.912   3.113  0.2694 -0.5405 -0.3692
 1836SOL    HW2 7374   2.818   1.951   3.085 -0.3269 -0.3592 -1.9325
 1836SOL    HW3 7375   2.741   1.820   3.085  0.4896 -0.8819  0.7476
 1836SOL    MW4 7376   2.747   1.905   3.106  0.2198 -0.5616 -0.4281
 1837SOL     OW 7377   2.950   2.049   2.992  0.2458  0.0866 -0.1990
 1837SOL    HW2 7378   2.939   2.141   3.017 -0.0248  0.1366 -0.4990
 1837SOL    HW3 7379   2.941   2.048   2.897 -0.5717 -0.3600 -0.1276
 1837SOL    MW4 7380   2.947   2.061   2.983  0.1023  0.0342 -0.2291
 1838SOL     OW 7381   2.904   2.301   3.081  0.2646 -0.1260  0.5647
 1838SOL    HW2 7382   2.974   2.363   3.059  0.1204 -0.6607 -1.5523
 1838SOL    HW3 7383   2.824   2.354   3.081  0.2507 -0.1386 -0.3758
 1838SOL    MW4 7384   2.903   2.316   3.078  0.2437 -0.1982  0.1613
 1839SOL     OW 7385   2.686   2.460   3.005 -0.0831  0.0643  0.0453
 1839SOL    HW2 7386   2.683   2.553   3.028  1.0540  0.0530  0.2467
 1839SOL    HW3 7387   2.612   2.421   3.051  0.6163  0.5139  1.5652
 1839SOL    MW4 7388   2.676   2.467   3.014  0.1592  0.1222  0.2724
 1840SOL     OW 7389   2.688   2.726   3.091  0.1119  0.0728  0.1618
 1840SOL    HW2 7390   2.695   2.734   3.187 -1.4432  0.4437  0.2623
 1840SOL    HW3 7391   2.604   2.767   3.070  0.1390 -0.5942 -1.3033
 1840SOL    MW4 7392   2.678   2.733   3.101 -0.0897  0.0337 -0.0182
 1841SOL     OW 7393   2.908   2.895   3.029 -0.4823  0.1015  0.6444
 1841SOL    HW2 7394   2.980   2.845   3.066 -0.2258 -0.1855 -0.2319
 1841SOL    HW3 7395   2.834   2.833   3.027  0.0129 -0.4666 -1.0535
 1841SOL    MW4 7396   2.907   2.880   3.034 -0.3831 -0.0113  0.3048
 1842SOL     OW 7397   2.902   3.149   3.144 -0.3550 -0.5343 -0.2372
 1842SOL    HW2 7398   2.829   3.197   3.103 -2.1279 -2.7178  0.2292
 1842SOL    HW3 7399   2.890   3.059   3.115  1.6747 -1.0970  0.5865
 1842SOL    MW4 7400   2.890   3.143   3.135 -0.3211 -0.8966 -0.0670
 1843SOL     OW 7401   2.661   3.278   3.029 -0.5784 -0.1372  0.3463
 1843SOL    HW2 7402   2.657   3.364   3.069 -2.0292 -0.1021  0.1325
 1843SOL    HW3 7403   2.669   3.296   2.935 -1.0325 -0.2349  0.2888
 1843SOL    MW4 7404   2.662   3.291   3.022 -0.8297 -0.1454  0.3105
 1844SOL     OW 7405   2.703   3.523   3.144  0.2464  0.4222 -0.0493
 1844SOL    HW2 7406   2.708   3.531   3.239  1.5723  1.2191 -0.1756
 1844SOL    HW3 7407   2.790   3.549   3.113 -0.1415  0.0729 -1.4729
 1844SOL    MW4 7408   2.715   3.527   3.153  0.3702  0.4813 -0.2538
 1845SOL     OW 7409   2.940   3.574   2.997 -0.2488 -0.1983  0.4155
 1845SOL    HW2 7410   3.005   3.515   3.034  1.4972  0.6972 -1.1640
 1845SOL    HW3 7411   2.961   3.660   3.033 -1.1492 -0.0704  0.6510
 1845SOL    MW4 7412   2.951   3.578   3.007 -0.1373 -0.0633  0.2382
 1846SOL     OW 7413   2.952   3.842   3.111 -0.3272  0.7371  0.2368
 1846SOL    HW2 7414   2.922   3.837   3.202 -1.2251 -0.1065 -0.0973
 1846SOL    HW3 7415   2.881   3.887   3.065 -0.2490  0.4241 -0.1993
 1846SOL    MW4 7416   2.939   3.847   3.117 -0.4353  0.5845  0.1352
 1847SOL     OW 7417   2.708   3.972   2.973 -0.5360 -0.0768  0.0876
 1847SOL    HW2 7418   2.699   4.059   3.012 -0.9776 -0.0136 -0.1483
 1847SOL    HW3 7419   2.710   3.988   2.879  1.8984 -0.1089  0.1033
 1847SOL    MW4 7420   2.707   3.986   2.966 -0.2731 -0.0727  0.0586
 1848SOL     OW 7421   2.720   4.216   3.091 -0.8295 -0.4321 -0.1982
 1848SOL    HW2 7422   2.734   4.221   3.186 -1.9927 -1.8615  0.0797
 1848SOL    HW3 7423   2.645   4.272   3.075  0.4602  1.2124 -0.5497
 1848SOL    MW4 7424   2.712   4.224   3.102 -0.8128 -0.4038 -0.2079
 1849SOL     OW 7425   2.929   4.371   3.001  0.3214 -0.1090 -0.3076
 1849SOL    HW2 7426   3.001   4.323   3.042 -1.2012 -0.1184  2.4560
 1849SOL    HW3 7427   2.852   4.319   3.021 -0.7505  1.0483 -1.3756
 1849SOL    MW4 7428   2.929   4.358   3.009 -0.0209  0.0424 -0.0839
 1850SOL     OW 7429   3.377   4.618   3.083 -0.0260  0.0720  0.4832
 1850SOL    HW2 7430   3.452   4.656   3.038 -0.6160 -0.4768 -1.0051
 1850SOL    HW3 7431   3.374   4.527   3.052 -2.0209  0.4243 -0.4543
 1850SOL    MW4 7432   3.386   4.611   3.073 -0.3670  0.0461  0.1632
 1851SOL     OW 7433   3.151   0.073   2.971 -0.0502 -0.0067 -0.1480
 1851SOL    HW2 7434   3.145   0.162   3.006 -0.9109  0.0030 -0.3001
 1851SOL    HW3 7435   3.221   0.032   3.021  0.4154  0.7876 -0.1390
 1851SOL    MW4 7436   3.159   0.080   2.982 -0.1023  0.0994 -0.1668
 1852SOL     OW 7437   3.149   0.325   3.116  0.0449  0.0523  0.3283
 1852SOL    HW2 7438   3.235   0.356   3.087  0.4462 -2.1635 -0.9995
 1852SOL    HW3 7439   3.087   0.382   3.070  0.7736  0.1579 -0.5566
 1852SOL    MW4 7440   3.152   0.337   3.106  0.1940 -0.2261  0.0364
 1853SOL     OW 7441   3.366   0.503   3.042 -0.1973 -0.2550 -0.2943
 1853SOL    HW2 7442   3.435   0.443   3.068 -2.2599 -1.9772  1.4172
 1853SOL    HW3 7443   3.384   0.523   2.950  1.9137 -1.5283 -0.1700
 1853SOL    MW4 7444   3.377   0.498   3.033 -0.1909 -0.6502 -0.0521
 1854SOL     OW 7445   3.341   0.767   3.127  0.0644  0.0195 -0.0233
 1854SOL    HW2 7446   3.366   0.779   3.218  0.5397 -1.5069  0.0637
 1854SOL    HW3 7447   3.345   0.672   3.113 -0.5209  0.1890 -1.4790
 1854SOL    MW4 7448   3.344   0.756   3.137  0.0499 -0.1596 -0.2039
 1855SOL     OW 7449   3.116   0.901   2.976 -0.2245 -0.0488 -0.3161
 1855SOL    HW2 7450   3.197   0.863   3.010  0.0002 -0.0297 -0.8175
 1855SOL    HW3 7451   3.047   0.839   3.003  0.3862 -1.9893 -2.9754
 1855SOL    MW4 7452   3.118   0.888   2.984 -0.1143 -0.3023 -0.7331
 1856SOL     OW 7453   3.140   1.134   3.118  0.0113  0.1841  0.0311
 1856SOL    HW2 7454   3.218   1.167   3.073 -0.1058  2.1150  1.1719
 1856SOL    HW3 7455   3.125   1.047   3.081  3.2764 -0.6260  0.5221
 1856SOL    MW4 7456   3.148   1.127   3.107  0.4267  0.3319  0.2464
 1857SOL     OW 7457   3.350   1.243   2.979 -0.2363  0.1682 -0.8862
 1857SOL    HW2 7458   3.424   1.193   3.014 -0.1792  0.5570 -0.4338
 1857SOL    HW3 7459   3.351   1.324   3.030 -1.6370 -0.2822 -0.1217
 1857SOL    MW4 7460   3.360   1.247   2.990 -0.4136  0.1600 -0.7256
 1858SOL     OW 7461   3.366   1.494   3.116 -0.0869  0.3144 -0.1196
 1858SOL    HW2 7462   3.356   1.516   3.208 -0.8192  0.6634 -0.2841
 1858SOL    HW3 7463   3.448   1.536   3.090 -0.4262  1.1016  0.0943
 1858SOL    MW4 7464   3.376   1.502   3.125 -0.2283  0.4643 -0.1131
 1859SOL     OW 7465   3.141   1.646   3.009  0.2790  0.3440 -0.4191
 1859SOL    HW2 7466   3.217   1.592   3.029  1.3167  1.6183 -0.8402
 1859SOL    HW3 7467   3.151   1.668   2.916 -0.2666  1.0111 -0.3231
 1859SOL    MW4 7468   3.152   1.642   2.999  0.3439  0.6002 -0.4620
 1860SOL     OW 7469   3.144   1.908   3.137 -0.2318 -0.2063 -0.0571
 1860SOL    HW2 7470   3.159   1.821   3.099 -0.0791  0.4262 -1.4496
 1860SOL    HW3 7471   3.074   1.946   3.085 -1.5732 -0.1749  1.6937
 1860SOL    MW4 7472   3.137   1.901   3.125 -0.3887 -0.1187 -0.0098
 1861SOL     OW 7473   3.338   2.068   3.016 -0.6265 -0.0745 -0.1354
 1861SOL    HW2 7474   3.411   2.018   3.051  0.5759  1.3838 -0.5247
 1861SOL    HW3 7475   3.260   2.028   3.055  0.3643 -1.6615  0.2427
 1861SOL    MW4 7476   3.337   2.056   3.026 -0.3372 -0.0914 -0.1369
 1862SOL     OW 7477   3.331   2.321   3.130  0.2134  0.1503  0.1113
 1862SOL    HW2 7478   3.346   2.300   3.222 -1.9182  0.1352  0.4834
 1862SOL    HW3 7479   3.334   2.236   3.085 -1.0845 -0.1273  0.5275
 1862SOL    MW4 7480   3.334   2.307   3.136 -0.2390  0.1117  0.2153
 1863SOL     OW 7481   3.116   2.474   3.009  0.0111  0.4632 -0.2841
 1863SOL    HW2 7482   3.181   2.421   3.057 -1.1211 -0.5458  0.1583
 1863SOL    HW3 7483   3.133   2.455   2.917  0.6713  0.5888 -0.1902
 1863SOL    MW4 7484   3.127   2.465   3.003 -0.0512  0.3466 -0.2134
 1864SOL     OW 7485   3.117   2.737   3.106  0.2436  0.0488 -0.0469
 1864SOL    HW2 7486   3.131   2.737   3.201 -0.0413 -0.1938 -0.0039
 1864SOL    HW3 7487   3.109   2.644   3.083  1.3676  0.0419 -0.4655
 1864SOL    MW4 7488   3.118   2.724   3.115  0.3543  0.0159 -0.0964
 1865SOL     OW 7489   3.357   2.798   2.983  0.3852  0.2245  0.0414
 1865SOL    HW2 7490   3.365   2.891   3.006  1.3208  0.1264  0.1290
 1865SOL    HW3 7491   3.272   2.772   3.019  0.0172  1.1026 -0.1827
 1865SOL    MW4 7492   3.347   2.807   2.991  0.4601  0.3274  0.0234
 1866SOL     OW 7493   3.372   3.044   3.110  0.1953  0.2015  0.3080
 1866SOL    HW2 7494   3.385   3.065   3.203  2.0319  2.5447 -0.4222
 1866SOL    HW3 7495   3.296   3.097   3.084  0.6451  0.7678  0.1215
 1866SOL    MW4 7496   3.363   3.054   3.119  0.4969  0.5854  0.1870
 1867SOL     OW 7497   3.159   3.198   3.025  0.4283 -0.2738 -0.1103
 1867SOL    HW2 7498   3.068   3.173   3.039  0.7898 -2.1834 -1.0008
 1867SOL    HW3 7499   3.169   3.197   2.930  1.3658 -0.0555 -0.0142
 1867SOL    MW4 7500   3.148   3.195   3.014  0.5997 -0.4970 -0.2151
 1868SOL     OW 7501   3.152   3.449   3.126  0.4775 -0.0495 -0.0047
 1868SOL    HW2 7502   3.220   3.485   3.069  2.2597 -1.4003  1.1940
 1868SOL    HW3 7503   3.141   3.359   3.097  0.2426 -0.2595  0.7269
 1868SOL    MW4 7504   3.160   3.442   3.115  0.6816 -0.2554  0.2500
 1869SOL     OW 7505   3.354   3.579   2.985  0.0880  0.0048  0.1153
 1869SOL    HW2 7506   3.422   3.548   3.045 -0.3438  1.5998  1.4689
 1869SOL    HW3 7507   3.326   3.662   3.023 -2.0894 -0.2805 -0.8405
 1869SOL    MW4 7508   3.359   3.586   2.998 -0.2562  0.1776  0.1678
 1870SOL     OW 7509   3.360   3.832   3.113  0.3445  0.1472 -0.1133
 1870SOL    HW2 7510   3.368   3.832   3.208 -0.2143 -3.3196 -0.0050
 1870SOL    HW3 7511   3.290   3.895   3.094 -0.4592 -0.1290  1.8535
 1870SOL    MW4 7512   3.352   3.841   3.123  0.1647 -0.3466  0.1605
 1871SOL     OW 7513   3.167   4.000   3.020 -0.2335  0.2800 -0.2738
 1871SOL    HW2 7514   3.093   3.945   3.047  0.0431  0.4428  0.8336
 1871SOL    HW3 7515   3.158   4.007   2.925 -0.3230 -1.6130 -0.4190
 1871SOL    MW4 7516   3.156   3.994   3.011 -0.2088  0.0518 -0.1469
 1872SOL     OW 7517   3.167   4.263   3.137 -0.3003  0.3604 -0.2881
 1872SOL    HW2 7518   3.191   4.249   3.228 -1.3596  0.4902  0.0093
 1872SOL    HW3 7519   3.163   4.175   3.099 -0.3550  0.2771 -0.0858
 1872SOL    MW4 7520   3.170   4.249   3.144 -0.4473  0.3665 -0.2221
 1873SOL     OW 7521   3.373   4.353   2.967 -0.2464 -0.3764  0.1292
 1873SOL    HW2 7522   3.451   4.319   3.012  0.0907  1.2186  0.7757
 1873SOL    HW3 7523   3.300   4.316   3.016  0.1123 -1.1301  0.0973
 1873SOL    MW4 7524   3.374   4.344   2.980 -0.1546 -0.2654  0.2103
 1874SOL     OW 7525   3.809   4.644   3.098  0.0147 -0.0567 -0.2108
 1874SOL    HW2 7526   3.804   4.551   3.075  0.5038 -0.0077 -0.5236
 1874SOL    HW3 7527   3.746   4.686   3.040 -0.4655 -0.2378  0.1780
 1874SOL    MW4 7528   3.800   4.637   3.087  0.0159 -0.0741 -0.2008
 1875SOL     OW 7529   3.591   0.086   2.973 -0.4448 -0.1287 -0.0084
 1875SOL    HW2 7530   3.579   0.176   3.005 -3.3954 -0.5166  0.1153
 1875SOL    HW3 7531   3.592   0.095   2.878 -1.9270 -0.0774 -0.0279
 1875SOL    MW4 7532   3.590   0.099   2.965 -1.0297 -0.1731  0.0054
 1876SOL     OW 7533   3.597   0.354   3.080  0.2251  0.3925 -0.2227
 1876SOL    HW2 7534   3.601   0.361   3.175 -1.0714  1.4451 -0.2343
 1876SOL    HW3 7535   3.674   0.402   3.049 -0.5217  1.9188  0.2359
 1876SOL    MW4 7536   3.608   0.361   3.088 -0.0445  0.7328 -0.1637
 1877SOL     OW 7537   3.831   0.529   3.001  0.1411 -0.0604  0.0669
 1877SOL    HW2 7538   3.894   0.476   3.050 -0.2305 -1.3495 -0.8374
 1877SOL    HW3 7539   3.845   0.618   3.034  2.8971 -0.2070 -0.5956
 1877SOL    MW4 7540   3.841   0.534   3.012  0.4557 -0.2498 -0.1398
 1878SOL     OW 7541   3.834   0.792   3.138  0.0329  0.3142  0.3018
 1878SOL    HW2 7542   3.843   0.774   3.232  2.3377 -3.2123 -0.5069
 1878SOL    HW3 7543   3.914   0.839   3.115  0.5187 -0.8138 -0.3188
 1878SOL    MW4 7544   3.846   0.796   3.148  0.4011 -0.2999  0.1132
 1879SOL     OW 7545   3.595   0.860   3.028  0.2748  0.1821  0.2382
 1879SOL    HW2 7546   3.671   0.819   3.070  0.0022  1.3027  1.8600
 1879SOL    HW3 7547   3.520   0.812   3.063  0.0937  0.6232  0.4586
 1879SOL    MW4 7548   3.595   0.848   3.039  0.2150  0.3881  0.4813
 1880SOL     OW 7549   3.577   1.128   3.094 -0.0711 -0.0342  0.2116
 1880SOL    HW2 7550   3.652   1.177   3.062  0.5951 -1.1713  0.0003
 1880SOL    HW3 7551   3.590   1.039   3.060 -0.8493 -0.5481  1.2280
 1880SOL    MW4 7552   3.588   1.122   3.085 -0.0859 -0.2521  0.3178
 1881SOL     OW 7553   3.794   1.277   3.017  0.0681  0.2642  0.5576
 1881SOL    HW2 7554   3.809   1.370   3.034  0.0572  0.3574  0.0518
 1881SOL    HW3 7555   3.806   1.267   2.923  0.7907 -0.3862  0.7122
 1881SOL    MW4 7556   3.798   1.288   3.007  0.1620  0.1907  0.5113
 1882SOL     OW 7557   3.824   1.526   3.101 -0.0040  0.1018 -0.5864
 1882SOL    HW2 7558   3.829   1.522   3.196  0.6073 -0.3614 -0.6358
 1882SOL    HW3 7559   3.747   1.581   3.083 -1.8752 -2.1544  0.1748
 1882SOL    MW4 7560   3.814   1.532   3.111 -0.1703 -0.2570 -0.4925
 1883SOL     OW 7561   3.605   1.656   3.016 -0.4953  0.7515 -0.2433
 1883SOL    HW2 7562   3.593   1.749   3.032  0.3394  1.1564 -1.8598
 1883SOL    HW3 7563   3.602   1.647   2.921 -1.3244 -0.9842 -0.0727
 1883SOL    MW4 7564   3.603   1.667   3.005 -0.4946  0.5759 -0.4340
 1884SOL     OW 7565   3.552   1.912   3.108  0.4346  0.3431  0.0900
 1884SOL    HW2 7566   3.551   1.921   3.203 -0.3946  0.8135  0.0411
 1884SOL    HW3 7567   3.627   1.964   3.080  0.4423  0.5283  0.4514
 1884SOL    MW4 7568   3.561   1.920   3.117  0.3262  0.4296  0.1312
 1885SOL     OW 7569   3.771   2.057   3.035 -0.0230 -0.1297 -0.5566
 1885SOL    HW2 7570   3.782   2.147   3.066  1.5592 -0.0049 -1.4229
 1885SOL    HW3 7571   3.796   2.060   2.943 -0.3105 -1.3924 -0.6909
 1885SOL    MW4 7572   3.776   2.069   3.027  0.1478 -0.2798 -0.6886
 1886SOL     OW 7573   3.809   2.327   3.138  0.3516 -0.2503  0.2537
 1886SOL    HW2 7574   3.793   2.341   3.231 -0.0846 -0.7498  0.2545
 1886SOL    HW3 7575   3.728   2.355   3.095 -0.2234 -2.0112  0.1880
 1886SOL    MW4 7576   3.796   2.333   3.144  0.2182 -0.5485  0.2451
 1887SOL     OW 7577   3.574   2.417   3.021 -0.3225 -0.0386  0.4009
 1887SOL    HW2 7578   3.576   2.507   3.052 -0.7955 -0.3316  1.2942
 1887SOL    HW3 7579   3.491   2.382   3.052 -0.3080 -0.6762 -0.2556
 1887SOL    MW4 7580   3.563   2.424   3.029 -0.3830 -0.1613  0.4321
 1888SOL     OW 7581   3.582   2.686   3.106  0.3178  0.2782 -0.2449
 1888SOL    HW2 7582   3.645   2.746   3.065 -0.7783  2.1210  0.6672
 1888SOL    HW3 7583   3.497   2.716   3.072 -0.1543 -1.5488 -0.6967
 1888SOL    MW4 7584   3.579   2.698   3.096  0.1109  0.2803 -0.1841
 1889SOL     OW 7585   3.816   2.807   3.015 -0.1096  0.2868 -0.2510
 1889SOL    HW2 7586   3.840   2.890   3.056  1.2538 -0.0465 -0.3554
 1889SOL    HW3 7587   3.827   2.822   2.921  1.2875 -0.3602 -0.2021
 1889SOL    MW4 7588   3.820   2.820   3.008  0.2546  0.1575 -0.2583
 1890SOL     OW 7589   3.854   3.078   3.086 -0.1087 -0.1279  0.0726
 1890SOL    HW2 7590   3.917   3.127   3.032 -0.7197 -0.2680 -0.7819
 1890SOL    HW3 7591   3.772   3.126   3.075 -0.2035 -0.0605  1.0329
 1890SOL    MW4 7592   3.852   3.091   3.077 -0.2018 -0.1375  0.0865
 1891SOL     OW 7593   3.593   3.166   3.019  0.2536  0.1459  0.2877
 1891SOL    HW2 7594   3.510   3.126   3.043  0.5451  0.1863  1.4052
 1891SOL    HW3 7595   3.594   3.163   2.923 -1.5948  1.3032  0.2081
 1891SOL    MW4 7596   3.582   3.160   3.009  0.0482  0.3039  0.4247
 1892SOL     OW 7597   3.562   3.480   3.136 -0.0539  0.0639  0.3996
 1892SOL    HW2 7598   3.647   3.516   3.110 -0.5505  1.4938  0.6926
 1892SOL    HW3 7599   3.560   3.392   3.098  0.9656  0.5533 -0.7982
 1892SOL    MW4 7600   3.573   3.473   3.128  0.0151  0.3171  0.2802
 1893SOL     OW 7601   3.777   3.609   3.024  0.1550  0.0469  0.2007
 1893SOL    HW2 7602   3.777   3.701   3.047 -1.6549 -0.0108  0.4959
 1893SOL    HW3 7603   3.768   3.607   2.929 -0.2584  0.1838  0.2344
 1893SOL    MW4 7604   3.776   3.621   3.015 -0.1383  0.0574  0.2441
 1894SOL     OW 7605   3.781   3.870   3.090 -0.1265  0.1600  0.1246
 1894SOL    HW2 7606   3.802   3.857   3.182 -0.0522 -1.1627 -0.0681
 1894SOL    HW3 7607   3.701   3.921   3.091 -0.4995 -0.4212  0.9411
 1894SOL    MW4 7608   3.773   3.875   3.102 -0.1659 -0.0912  0.2069
 1895SOL     OW 7609   3.553   4.006   3.003  0.5050 -0.4324 -0.1747
 1895SOL    HW2 7610   3.488   3.945   3.037  0.0128 -0.5121 -1.2470
 1895SOL    HW3 7611   3.546   3.999   2.908  1.0259  0.6815 -0.3076
 1895SOL    MW4 7612   3.544   3.997   2.995  0.5088 -0.2959 -0.3337
 1896SOL     OW 7613   3.575   4.255   3.125  0.0544  0.0204 -0.1327
 1896SOL    HW2 7614   3.657   4.292   3.093  0.8043 -0.4235  1.2440
 1896SOL    HW3 7615   3.576   4.165   3.092  0.3868 -0.1542  0.3478
 1896SOL    MW4 7616   3.586   4.248   3.116  0.1972 -0.0612  0.1123
 1897SOL     OW 7617   3.823   4.363   3.053 -0.0216 -0.0303 -0.0562
 1897SOL    HW2 7618   3.901   4.326   3.094 -0.1939  0.2437  0.5249
 1897SOL    HW3 7619   3.845   4.370   2.960  0.4886 -0.3536  0.0411
 1897SOL    MW4 7620   3.836   4.359   3.046  0.0230 -0.0368  0.0333
 1898SOL     OW 7621   4.275   4.649   3.075 -0.4425  0.3820 -0.5211
 1898SOL    HW2 7622   4.267   4.657   3.170 -0.3616  1.1326 -0.5713
 1898SOL    HW3 7623   4.276   4.555   3.059 -0.7372  0.2480  0.1981
 1898SOL    MW4 7624   4.274   4.638   3.086 -0.4707  0.4633 -0.4328
 1899SOL     OW 7625   4.036   0.132   2.995 -0.0411  0.2611 -0.1092
 1899SOL    HW2 7626   4.123   0.096   3.017  0.0979  0.4740 -0.3121
 1899SOL    HW3 7627   3.975   0.075   3.042  0.2833  1.1971  1.5218
 1899SOL    MW4 7628   4.040   0.119   3.004  0.0200  0.4127  0.0793
 1900SOL     OW 7629   4.053   0.396   3.116  0.3690 -0.0533  0.2623
 1900SOL    HW2 7630   4.133   0.445   3.100  1.1160 -1.7342 -1.1934
 1900SOL    HW3 7631   4.065   0.313   3.071 -2.3152 -0.2137 -0.2699
 1900SOL    MW4 7632   4.065   0.391   3.108  0.1134 -0.2963 -0.0000
 1901SOL     OW 7633   4.293   0.530   2.999 -0.5823  0.1439  0.2149
 1901SOL    HW2 7634   4.304   0.618   3.037 -0.7816  0.2545  0.0176
 1901SOL    HW3 7635   4.287   0.545   2.905  1.4482 -0.2657 -0.0071
 1901SOL    MW4 7636   4.294   0.544   2.992 -0.3407  0.1045  0.1596
 1902SOL     OW 7637   4.315   0.770   3.119  0.0855 -0.0413 -0.5892
 1902SOL    HW2 7638   4.239   0.798   3.068  0.0719 -1.1949 -1.2093
 1902SOL    HW3 7639   4.390   0.806   3.072  0.0107 -0.2294 -0.8535
 1902SOL    MW4 7640   4.315   0.778   3.106  0.0738 -0.2183 -0.7059
 1903SOL     OW 7641   4.080   0.867   2.989 -0.1422  0.5515 -0.4563
 1903SOL    HW2 7642   4.074   0.961   3.009 -1.1571  0.4166 -0.1067
 1903SOL    HW3 7643   4.049   0.860   2.899  1.4465  0.7502 -1.0332
 1903SOL    MW4 7644   4.075   0.879   2.980 -0.0665  0.5599 -0.4863
 1904SOL     OW 7645   4.031   1.129   3.084  0.4920 -0.1445  0.0379
 1904SOL    HW2 7646   4.031   1.123   3.180 -0.2054  1.7680  0.1946
 1904SOL    HW3 7647   3.953   1.181   3.064 -0.7323 -2.5509 -1.7385
 1904SOL    MW4 7648   4.020   1.135   3.094  0.2385 -0.2097 -0.1758
 1905SOL     OW 7649   4.254   1.235   2.958 -0.0992 -0.2810  0.1999
 1905SOL    HW2 7650   4.176   1.200   3.001  0.1576  0.5410  1.3688
 1905SOL    HW3 7651   4.252   1.198   2.870 -1.5576 -0.6376  0.3717
 1905SOL    MW4 7652   4.244   1.225   2.952 -0.2578 -0.2196  0.3768
 1906SOL     OW 7653   4.229   1.483   3.067 -0.0664  0.4448 -0.0001
 1906SOL    HW2 7654   4.154   1.536   3.041 -2.3442 -2.1235  1.0759
 1906SOL    HW3 7655   4.218   1.400   3.020  1.0701 -0.6566  1.6130
 1906SOL    MW4 7656   4.218   1.479   3.057 -0.2170 -0.0394  0.3547
 1907SOL     OW 7657   4.030   1.643   2.968 -0.4343 -0.5367  0.1626
 1907SOL    HW2 7658   4.027   1.734   2.996 -0.3347 -0.5738  0.2977
 1907SOL    HW3 7659   3.957   1.601   3.014 -0.6606 -0.4641 -0.1255
 1907SOL    MW4 7660   4.020   1.649   2.978 -0.4510 -0.5320  0.1424
 1908SOL     OW 7661   4.009   1.901   3.085 -0.2080 -0.1608 -0.0837
 1908SOL    HW2 7662   4.077   1.958   3.048  0.2413 -0.7617 -0.1958
 1908SOL    HW3 7663   3.927   1.945   3.062  0.0803 -0.2504 -1.3487
 1908SOL    MW4 7664   4.007   1.915   3.077 -0.1107 -0.2519 -0.2654
 1909SOL     OW 7665   4.249   1.993   2.989  0.4279 -0.4398  0.1168
 1909SOL    HW2 7666   4.256   2.084   3.016  1.7764 -0.4490 -0.1603
 1909SOL    HW3 7667   4.237   1.997   2.894 -2.9111 -0.4570  0.4659
 1909SOL    MW4 7668   4.249   2.005   2.980  0.1652 -0.4433  0.1263
 1910SOL     OW 7669   4.272   2.249   3.068  0.4609  0.0647 -0.3761
 1910SOL    HW2 7670   4.189   2.286   3.037  0.5474  0.2031 -0.4416
 1910SOL    HW3 7671   4.339   2.307   3.033  0.5461  0.3745  0.2992
 1910SOL    MW4 7672   4.270   2.261   3.059  0.4836  0.1238 -0.2957
 1911SOL     OW 7673   4.049   2.405   3.027  0.0857 -0.3425 -0.0854
 1911SOL    HW2 7674   4.045   2.500   3.035  0.5972 -0.2866 -0.4927
 1911SOL    HW3 7675   3.968   2.374   3.068 -1.1454  0.3764 -1.8915
 1911SOL    MW4 7676   4.037   2.414   3.034 -0.0093 -0.2403 -0.3774
 1912SOL     OW 7677   4.084   2.697   3.059  0.1959  0.1169 -0.0471
 1912SOL    HW2 7678   4.094   2.705   3.154 -0.1395 -0.3138  0.0295
 1912SOL    HW3 7679   3.993   2.724   3.043  0.3493  0.4952 -0.2858
 1912SOL    MW4 7680   4.073   2.702   3.070  0.1719  0.1100 -0.0685
 1913SOL     OW 7681   4.303   2.821   2.950 -0.3315  0.5424 -0.3856
 1913SOL    HW2 7682   4.236   2.766   2.990  0.1741  0.6488  0.6203
 1913SOL    HW3 7683   4.382   2.804   3.001 -0.0711  1.8993 -0.3259
 1913SOL    MW4 7684   4.304   2.811   2.962 -0.2304  0.7355 -0.2450
 1914SOL     OW 7685   4.293   3.087   3.056 -0.3847 -0.3562 -0.3107
 1914SOL    HW2 7686   4.222   3.135   3.016 -0.3728 -0.4003 -0.3841
 1914SOL    HW3 7687   4.304   3.009   3.001 -0.1088 -0.2204 -0.4486
 1914SOL    MW4 7688   4.285   3.083   3.044 -0.3467 -0.3441 -0.3386
 1915SOL     OW 7689   4.076   3.225   2.962  0.5358  0.6954  0.2016
 1915SOL    HW2 7690   4.065   3.310   3.004  0.5475  0.5813  0.4399
 1915SOL    HW3 7691   4.073   3.244   2.868 -0.4505  0.8302  0.2510
 1915SOL    MW4 7692   4.074   3.239   2.955  0.4072  0.6982  0.2396
 1916SOL     OW 7693   4.032   3.471   3.077 -0.0730  0.0799 -0.1008
 1916SOL    HW2 7694   4.020   3.463   3.172  0.1031  2.0288  0.1048
 1916SOL    HW3 7695   3.955   3.521   3.048  0.4643  0.4892 -0.8199
 1916SOL    MW4 7696   4.020   3.477   3.086  0.0211  0.3910 -0.1685
 1917SOL     OW 7697   4.256   3.612   2.965 -0.3062  0.0882 -0.3876
 1917SOL    HW2 7698   4.263   3.692   3.016 -0.7414  1.0121 -1.7384
 1917SOL    HW3 7699   4.183   3.564   3.005  0.5243 -0.0446  0.9647
 1917SOL    MW4 7700   4.247   3.616   2.977 -0.2541  0.1926 -0.3874
 1918SOL     OW 7701   4.277   3.856   3.101  0.2457  0.0579  0.2162
 1918SOL    HW2 7702   4.195   3.886   3.062 -0.0147  1.5070  1.8203
 1918SOL    HW3 7703   4.346   3.899   3.049  0.0008 -0.7279 -0.7831
 1918SOL    MW4 7704   4.275   3.866   3.089  0.1790  0.1454  0.2960
 1919SOL     OW 7705   4.028   3.957   3.019 -0.5952  0.1518  0.2822
 1919SOL    HW2 7706   4.038   4.048   3.046 -1.3120  0.2250  0.2975
 1919SOL    HW3 7707   3.936   3.936   3.036 -1.1176  0.2352 -2.2004
 1919SOL    MW4 7708   4.017   3.966   3.025 -0.7587  0.1724 -0.0434
 1920SOL     OW 7709   4.048   4.204   3.131 -0.8742  0.4032  0.2663
 1920SOL    HW2 7710   4.060   4.218   3.225  0.5399  1.5468 -0.0659
 1920SOL    HW3 7711   4.111   4.263   3.090  0.9778 -2.6066 -1.3563
 1920SOL    MW4 7712   4.058   4.214   3.138 -0.4433  0.1570  0.0084
 1921SOL     OW 7713   4.256   4.364   3.037  0.0729 -0.0242  0.0289
 1921SOL    HW2 7714   4.333   4.312   3.059  1.6622  1.9790 -0.5836
 1921SOL    HW3 7715   4.266   4.382   2.943  0.2060  2.3449  0.4634
 1921SOL    MW4 7716   4.267   4.360   3.027  0.3001  0.5527  0.0054
 1922SOL     OW 7717   0.195   4.656   3.394  0.0119  0.2822 -0.4606
 1922SOL    HW2 7718   0.275   4.701   3.421 -0.2322  0.0365  0.6729
 1922SOL    HW3 7719   0.196   4.574   3.443 -0.3340 -0.2635 -1.3507
 1922SOL    MW4 7720   0.206   4.652   3.404 -0.0660  0.1778 -0.4285
 1923SOL     OW 7721   4.480   0.139   3.499  0.5669  0.6369 -0.2648
 1923SOL    HW2 7722   4.492   0.216   3.443  0.7844  1.8106  1.3378
 1923SOL    HW3 7723   4.554   0.082   3.479 -0.2191  0.3076 -2.2991
 1923SOL    MW4 7724   4.491   0.142   3.489  0.4919  0.7483 -0.3218
 1924SOL     OW 7725   0.001   0.373   3.336  0.0902  0.2049  0.3141
 1924SOL    HW2 7726  -0.070   0.408   3.389 -1.2396  1.2361 -2.0558
 1924SOL    HW3 7727   0.081   0.397   3.382 -0.9655  2.6209  0.9209
 1924SOL    MW4 7728   0.002   0.381   3.349 -0.2246  0.6597  0.0815
 1925SOL     OW 7729   0.197   0.491   3.480 -0.6042  0.0794  0.1231
 1925SOL    HW2 7730   0.272   0.455   3.432 -0.1482 -0.8219  1.4860
 1925SOL    HW3 7731   0.188   0.580   3.446  1.6807  0.5362  0.5620
 1925SOL    MW4 7732   0.206   0.498   3.469 -0.2426  0.0207  0.3608
 1926SOL     OW 7733   0.210   0.752   3.384  0.4168 -0.3347 -0.3555
 1926SOL    HW2 7734   0.287   0.781   3.432 -0.1575  1.4511 -0.4576
 1926SOL    HW3 7735   0.138   0.800   3.424 -0.5457 -1.4060 -0.7657
 1926SOL    MW4 7736   0.211   0.762   3.395  0.2141 -0.2404 -0.4231
 1927SOL     OW 7737   0.009   0.894   3.490  0.2028  0.2310  0.1468
 1927SOL    HW2 7738   0.006   0.884   3.585  1.3820 -0.6266  0.1106
 1927SOL    HW3 7739  -0.011   0.986   3.474 -1.4388  0.0638  1.1343
 1927SOL    MW4 7740   0.006   0.905   3.500  0.1418  0.0958  0.2723
 1928SOL     OW 7741   4.450   1.149   3.400  0.2712 -0.4724 -0.6668
 1928SOL    HW2 7742   4.537   1.185   3.418 -0.9648  2.7722 -0.8772
 1928SOL    HW3 7743   4.447   1.139   3.305  0.3507 -0.3845 -0.6791
 1928SOL    MW4 7744   4.461   1.153   3.390  0.1186 -0.0327 -0.6962
 1929SOL     OW 7745   0.202   1.257   3.433 -0.1293 -0.1014  0.0771
 1929SOL    HW2 7746   0.289   1.225   3.410  0.3209  0.2115  1.2862
 1929SOL    HW3 7747   0.193   1.339   3.384 -0.5908 -1.1681 -1.6696
 1929SOL    MW4 7748   0.213   1.264   3.424 -0.1308 -0.2009  0.0061
 1930SOL     OW 7749   0.171   1.516   3.345  0.0253 -0.3246 -0.0488
 1930SOL    HW2 7750   0.245   1.563   3.383  0.7750 -1.0326 -0.6248
 1930SOL    HW3 7751   0.176   1.534   3.252 -0.5661 -0.3416 -0.0886
 1930SOL    MW4 7752   0.181   1.525   3.338  0.0462 -0.4203 -0.1300
 1931SOL     OW 7753   4.460   1.654   3.458  0.1142 -0.2687  0.5095
 1931SOL    HW2 7754   4.374   1.619   3.435 -0.2478  0.3288  0.9046
 1931SOL    HW3 7755   4.522   1.599   3.413 -0.5600  0.8762 -1.8958
 1931SOL    MW4 7756   4.457   1.642   3.449 -0.0225 -0.0388  0.2443
 1932SOL     OW 7757   4.487   1.923   3.375 -0.0083 -0.3165 -0.0913
 1932SOL    HW2 7758   4.471   1.832   3.399 -0.6440 -0.3127 -0.4995
 1932SOL    HW3 7759   4.491   1.923   3.280  1.4033 -0.1452 -0.0374
 1932SOL    MW4 7760   4.485   1.911   3.366  0.0941 -0.2934 -0.1380
 1933SOL     OW 7761   0.229   2.024   3.454 -0.0281  0.4823  0.0009
 1933SOL    HW2 7762   0.220   2.022   3.550 -1.2766 -0.0632 -0.1167
 1933SOL    HW3 7763   0.148   1.984   3.422  0.8965 -0.3925 -1.2709
 1933SOL    MW4 7764   0.217   2.019   3.463 -0.0708  0.2949 -0.1824
 1934SOL     OW 7765   0.225   2.290   3.358  0.0849 -0.1042 -0.2403
 1934SOL    HW2 7766   0.154   2.332   3.405  1.1569 -0.3002  1.5928
 1934SOL    HW3 7767   0.225   2.199   3.390  0.5941 -0.3406 -0.8828
 1934SOL    MW4 7768   0.216   2.283   3.368  0.2935 -0.1613 -0.0832
 1935SOL     OW 7769   0.020   2.412   3.484  0.0644 -0.1403 -0.0277
 1935SOL    HW2 7770   0.021   2.401   3.579 -1.3413 -0.2364 -0.0125
 1935SOL    HW3 7771  -0.063   2.374   3.457 -1.0764  2.8456 -0.9292
 1935SOL    MW4 7772   0.009   2.405   3.493 -0.2716  0.2410 -0.1446
 1936SOL     OW 7773   0.012   2.680   3.380 -0.0816 -0.2360  0.1847
 1936SOL    HW2 7774   0.088   2.719   3.423 -0.2150 -0.2069  0.3957
 1936SOL    HW3 7775   0.015   2.587   3.405  0.4355 -0.4385 -0.6061
 1936SOL    MW4 7776   0.022   2.673   3.389 -0.0310 -0.2589  0.1082
 1937SOL     OW 7777   0.231   2.825   3.480  0.1193 -0.3104  0.3764
 1937SOL    HW2 7778   0.310   2.784   3.444 -0.4926 -1.1733 -0.0023
 1937SOL    HW3 7779   0.229   2.912   3.438  0.0984 -0.8280 -0.7212
 1937SOL    MW4 7780   0.241   2.831   3.469  0.0358 -0.4925  0.1816
 1938SOL     OW 7781   0.277   3.070   3.348 -0.5689  0.1668 -0.3610
 1938SOL    HW2 7782   0.189   3.104   3.366 -1.7933 -2.4487 -1.1388
 1938SOL    HW3 7783   0.287   3.078   3.254 -0.5228 -0.8017 -0.4408
 1938SOL    MW4 7784   0.267   3.075   3.338 -0.7244 -0.3061 -0.4742
 1939SOL     OW 7785   4.490   3.182   3.407 -0.3283 -0.8246 -0.1051
 1939SOL    HW2 7786   4.405   3.147   3.383 -0.8524 -0.1177  0.6838
 1939SOL    HW3 7787   4.489   3.272   3.375 -0.7662 -0.0928  1.8619
 1939SOL    MW4 7788   4.479   3.189   3.400 -0.4552 -0.6348  0.2585
 1940SOL     OW 7789   0.028   3.449   3.324  0.0770 -0.2921  0.1440
 1940SOL    HW2 7790  -0.035   3.514   3.354  2.3679  2.4261 -0.8021
 1940SOL    HW3 7791   0.027   3.455   3.229  0.0309 -1.9528  0.0112
 1940SOL    MW4 7792   0.019   3.458   3.316  0.3732 -0.1526  0.0016
 1941SOL     OW 7793   0.234   3.635   3.434 -0.3920  0.6900  0.3086
 1941SOL    HW2 7794   0.212   3.635   3.528 -0.2577 -0.8651  0.3488
 1941SOL    HW3 7795   0.177   3.568   3.397  0.0846  0.7941 -0.6097
 1941SOL    MW4 7796   0.223   3.626   3.442 -0.3114  0.4986  0.1927
 1942SOL     OW 7797   0.202   3.910   3.359  0.0932 -0.4884  0.4477
 1942SOL    HW2 7798   0.135   3.940   3.420 -0.2227 -0.3085  0.0180
 1942SOL    HW3 7799   0.211   3.816   3.376 -0.5947 -0.6035  0.2017
 1942SOL    MW4 7800   0.195   3.902   3.369 -0.0392 -0.4798  0.3585
 1943SOL     OW 7801   4.471   3.969   3.519  0.1823 -0.6200 -0.1785
 1943SOL    HW2 7802   4.465   3.972   3.615  0.4421 -0.1816 -0.1733
 1943SOL    HW3 7803   4.455   4.060   3.492 -0.4713 -0.8494 -0.5854
 1943SOL    MW4 7804   4.468   3.982   3.528  0.1304 -0.5924 -0.2315
 1944SOL     OW 7805   0.000   4.240   3.405  0.5553 -0.7326  0.5486
 1944SOL    HW2 7806  -0.076   4.293   3.428  1.7011  1.4864 -0.6300
 1944SOL    HW3 7807   0.071   4.275   3.459  0.6333 -3.2106  2.1185
 1944SOL    MW4 7808  -0.000   4.252   3.415  0.7167 -0.7668  0.6002
 1945SOL     OW 7809   0.198   4.411   3.538 -0.2794 -0.5895 -0.5140
 1945SOL    HW2 7810   0.199   4.418   3.633 -1.5583 -1.1815 -0.4574
 1945SOL    HW3 7811   0.286   4.378   3.516  0.9545  2.0440  0.2357
 1945SOL    MW4 7812   0.210   4.408   3.547 -0.2853 -0.3202 -0.4076
 1946SOL     OW 7813   0.641   0.029   3.348 -0.4187  0.1791 -0.1672
 1946SOL    HW2 7814   0.729   0.044   3.381 -0.8957  1.2172  0.6582
 1946SOL    HW3 7815   0.651   0.021   3.254  0.5912 -0.0310 -0.0433
 1946SOL    MW4 7816   0.654   0.030   3.340 -0.3484  0.2883 -0.0419
 1947SOL     OW 7817   0.421   0.125   3.473  0.2886 -0.0913  0.0154
 1947SOL    HW2 7818   0.447   0.133   3.565  0.3936 -0.3409  0.0067
 1947SOL    HW3 7819   0.499   0.091   3.429  1.2150  2.7531 -0.6683
 1947SOL    MW4 7820   0.435   0.122   3.480  0.4247  0.2510 -0.0760
 1948SOL     OW 7821   0.397   0.366   3.340 -0.4601 -0.5267 -0.3558
 1948SOL    HW2 7822   0.473   0.415   3.372  0.1104 -0.8549 -1.1822
 1948SOL    HW3 7823   0.396   0.286   3.391 -0.3049 -0.4795 -0.2775
 1948SOL    MW4 7824   0.407   0.362   3.351 -0.3643 -0.5638 -0.4545
 1949SOL     OW 7825   0.629   0.496   3.448 -0.0517  0.2366  0.5858
 1949SOL    HW2 7826   0.642   0.503   3.543  1.2745 -0.4984  0.4719
 1949SOL    HW3 7827   0.709   0.453   3.416 -0.8763 -0.3427 -0.7470
 1949SOL    MW4 7828   0.642   0.491   3.456  0.0145  0.0632  0.3949
 1950SOL     OW 7829   0.676   0.760   3.387  0.0960  0.4234 -0.6782
 1950SOL    HW2 7830   0.602   0.813   3.416  0.5671  0.8928 -0.3331
 1950SOL    HW3 7831   0.645   0.669   3.396 -0.5153  0.6250 -0.7563
 1950SOL    MW4 7832   0.662   0.755   3.392  0.0775  0.5120 -0.6430
 1951SOL     OW 7833   0.444   0.864   3.491 -0.2023 -0.0928  0.2314
 1951SOL    HW2 7834   0.441   0.880   3.585  1.1645  1.5389  0.0213
 1951SOL    HW3 7835   0.434   0.950   3.451 -0.0298 -0.6749 -1.0964
 1951SOL    MW4 7836   0.442   0.877   3.498  0.0008  0.0457  0.0285
 1952SOL     OW 7837   0.429   1.138   3.373  0.1264  0.0684  0.1672
 1952SOL    HW2 7838   0.497   1.191   3.415  0.6165 -0.3024 -0.1550
 1952SOL    HW3 7839   0.440   1.154   3.280 -0.4531  0.2713  0.1320
 1952SOL    MW4 7840   0.440   1.147   3.367  0.1146  0.0462  0.1201
 1953SOL     OW 7841   0.635   1.283   3.507  0.3367  0.0468 -0.1009
 1953SOL    HW2 7842   0.712   1.237   3.474  0.0841  0.3921 -1.2063
 1953SOL    HW3 7843   0.636   1.367   3.461 -0.3225  0.3241  0.3864
 1953SOL    MW4 7844   0.645   1.288   3.496  0.2164  0.1289 -0.1824
 1954SOL     OW 7845   0.656   1.513   3.371  0.2086 -0.0085 -0.3422
 1954SOL    HW2 7846   0.713   1.573   3.420 -0.1532  0.5752 -0.6376
 1954SOL    HW3 7847   0.567   1.539   3.396  0.0349  0.0746 -1.0542
 1954SOL    MW4 7848   0.652   1.524   3.381  0.1380  0.0795 -0.4751
 1955SOL     OW 7849   0.415   1.647   3.454  0.0007 -0.0854 -0.2824
 1955SOL    HW2 7850   0.441   1.651   3.547 -1.3029  1.2857  0.0521
 1955SOL    HW3 7851   0.431   1.736   3.422  0.6158 -0.6089 -1.4399
 1955SOL    MW4 7852   0.421   1.659   3.462 -0.0901  0.0265 -0.3910
 1956SOL     OW 7853   0.477   1.900   3.349  0.0029 -0.0949 -0.4417
 1956SOL    HW2 7854   0.391   1.935   3.372  0.7371  0.4219  1.5519
 1956SOL    HW3 7855   0.475   1.893   3.253 -1.5250  1.7936 -0.5708
 1956SOL    MW4 7856   0.465   1.904   3.339 -0.1018  0.2225 -0.1957
 1957SOL     OW 7857   0.672   2.035   3.487  0.0155  0.1213  0.1579
 1957SOL    HW2 7858   0.661   2.025   3.581  0.8008  1.1179  0.3613
 1957SOL    HW3 7859   0.597   1.989   3.449 -0.4409 -0.0686  1.2727
 1957SOL    MW4 7860   0.661   2.028   3.494  0.0589  0.2277  0.3318
 1958SOL     OW 7861   0.665   2.289   3.366  0.1788 -0.1478 -0.3457
 1958SOL    HW2 7862   0.750   2.331   3.383  0.0999 -0.8997  2.0497
 1958SOL    HW3 7863   0.669   2.206   3.413 -1.2268 -1.0125 -1.7063
 1958SOL    MW4 7864   0.677   2.284   3.374 -0.0170 -0.3611 -0.2092
 1959SOL     OW 7865   0.454   2.429   3.476  0.1323  0.7196  0.0552
 1959SOL    HW2 7866   0.542   2.398   3.454  0.4910  0.3607  1.9297
 1959SOL    HW3 7867   0.396   2.379   3.418  1.0903  0.2660 -0.5247
 1959SOL    MW4 7868   0.458   2.418   3.465  0.3060  0.6124  0.2260
 1960SOL     OW 7869   0.458   2.692   3.412  0.2676  0.4059  0.0210
 1960SOL    HW2 7870   0.444   2.602   3.440 -0.1564  0.4215 -0.1202
 1960SOL    HW3 7871   0.462   2.687   3.317 -0.9441  0.6798 -0.0536
 1960SOL    MW4 7872   0.456   2.680   3.403  0.0518  0.4441 -0.0075
 1961SOL     OW 7873   0.694   2.848   3.433 -0.4327  0.1108  0.4684
 1961SOL    HW2 7874   0.775   2.802   3.411  0.6992  1.2231  2.1673
 1961SOL    HW3 7875   0.627   2.779   3.437  0.0595 -0.5780 -2.6378
 1961SOL    MW4 7876   0.696   2.833   3.431 -0.2184  0.1667  0.2827
 1962SOL     OW 7877   0.718   3.110   3.356  0.5283  0.3210  0.1456
 1962SOL    HW2 7878   0.642   3.156   3.391 -0.0254 -0.8858  0.5378
 1962SOL    HW3 7879   0.705   3.019   3.381  1.3982 -0.1324 -1.0154
 1962SOL    MW4 7880   0.707   3.104   3.364  0.5700  0.1020  0.0441
 1963SOL     OW 7881   0.470   3.218   3.458 -0.8213  0.3889 -0.0830
 1963SOL    HW2 7882   0.451   3.218   3.552 -0.9330 -0.6096 -0.0957
 1963SOL    HW3 7883   0.400   3.165   3.420  0.9315 -1.8647 -0.3339
 1963SOL    MW4 7884   0.459   3.211   3.466 -0.6048 -0.0402 -0.1178
 1964SOL     OW 7885   0.464   3.475   3.370  0.5414 -0.3807 -0.0978
 1964SOL    HW2 7886   0.471   3.388   3.409 -0.2827 -0.2334  0.3927
 1964SOL    HW3 7887   0.384   3.512   3.408  1.1201  0.7567  0.0311
 1964SOL    MW4 7888   0.454   3.469   3.380  0.5090 -0.2112 -0.0161
 1965SOL     OW 7889   0.661   3.682   3.477  0.5589  0.0078 -0.4537
 1965SOL    HW2 7890   0.733   3.632   3.439 -0.3258 -2.6776  1.2332
 1965SOL    HW3 7891   0.583   3.632   3.454 -0.6947  2.3848 -1.4509
 1965SOL    MW4 7892   0.660   3.668   3.469  0.2768 -0.0329 -0.3627
 1966SOL     OW 7893   0.657   3.960   3.396 -0.0552 -0.2615  0.3560
 1966SOL    HW2 7894   0.577   3.988   3.440 -0.4405  0.1734 -0.5996
 1966SOL    HW3 7895   0.670   3.870   3.425 -0.1306  0.1031  1.5809
 1966SOL    MW4 7896   0.648   3.952   3.406 -0.1160 -0.1560  0.3915
 1967SOL     OW 7897   0.398   4.045   3.511 -0.2524 -0.5151  0.3786
 1967SOL    HW2 7898   0.421   4.129   3.472  1.5196 -1.1825 -0.0472
 1967SOL    HW3 7899   0.355   3.997   3.440 -0.2144 -0.4104  0.2835
 1967SOL    MW4 7900   0.395   4.050   3.496 -0.0136 -0.5894  0.3099
 1968SOL     OW 7901   0.439   4.295   3.410 -0.1716  0.5184 -0.1934
 1968SOL    HW2 7902   0.506   4.350   3.448  0.2955 -0.1819  0.0038
 1968SOL    HW3 7903   0.459   4.294   3.316  0.1171  0.2828 -0.1304
 1968SOL    MW4 7904   0.450   4.302   3.402 -0.0719  0.3949 -0.1591
 1969SOL     OW 7905   0.646   4.445   3.519 -0.7948 -0.5001 -0.2973
 1969SOL    HW2 7906   0.723   4.407   3.476 -0.2814  1.1372 -0.8460
 1969SOL    HW3 7907   0.636   4.531   3.479 -1.7571  0.0876  1.1708
 1969SOL    MW4 7908   0.655   4.451   3.508 -0.8540 -0.2065 -0.1760
 1970SOL     OW 7909   1.131   0.007   3.348 -0.6042 -0.3053  0.2236
 1970SOL    HW2 7910   1.215   0.049   3.365 -0.3449 -0.5798 -0.3961
 1970SOL    HW3 7911   1.128  -0.005   3.253 -1.6261  0.3053  0.1735
 1970SOL    MW4 7912   1.141   0.011   3.338 -0.7048 -0.2609  0.1352
 1971SOL     OW 7913   0.899   0.091   3.451  0.3508  0.1572 -0.0320
 1971SOL    HW2 7914   0.914   0.080   3.545 -0.7965  1.4888  0.3230
 1971SOL    HW3 7915   0.982   0.065   3.410  1.3060  0.8487  1.4262
 1971SOL    MW4 7916   0.912   0.086   3.458  0.3255  0.4241  0.2072
 1972SOL     OW 7917   0.865   0.372   3.405  0.3817  0.1391  0.0637
 1972SOL    HW2 7918   0.952   0.405   3.427  1.0908 -1.8587  0.3415
 1972SOL    HW3 7919   0.864   0.282   3.437 -2.4844  0.7393  1.8303
 1972SOL    MW4 7920   0.876   0.365   3.412  0.0971 -0.0453  0.3334
 1973SOL     OW 7921   1.130   0.538   3.440 -0.1249  0.0206 -0.3683
 1973SOL    HW2 7922   1.121   0.546   3.535 -2.7155 -0.9098 -0.5003
 1973SOL    HW3 7923   1.136   0.629   3.409  0.2922  0.3392  0.6151
 1973SOL    MW4 7924   1.130   0.551   3.448 -0.4117 -0.0601 -0.2559
 1974SOL     OW 7925   1.149   0.810   3.347  0.1973  0.3635  0.5144
 1974SOL    HW2 7926   1.233   0.845   3.379  0.1894 -0.2224  1.2022
 1974SOL    HW3 7927   1.084   0.853   3.402  0.1640 -0.4385  1.1215
 1974SOL    MW4 7928   1.152   0.820   3.359  0.1919  0.1804  0.6853
 1975SOL     OW 7929   0.906   0.902   3.475 -0.0390 -0.6245 -0.7165
 1975SOL    HW2 7930   0.877   0.992   3.463 -0.1770 -0.3734  1.3592
 1975SOL    HW3 7931   0.830   0.849   3.449 -0.4366 -0.1097 -0.6100
 1975SOL    MW4 7932   0.892   0.907   3.470 -0.1097 -0.5234 -0.4286
 1976SOL     OW 7933   0.863   1.170   3.417  0.0198 -0.7798  0.3644
 1976SOL    HW2 7934   0.949   1.206   3.439  0.7475 -2.5178  0.4058
 1976SOL    HW3 7935   0.865   1.164   3.321  0.5051 -2.1733  0.4561
 1976SOL    MW4 7936   0.875   1.174   3.407  0.1798 -1.1929  0.3820
 1977SOL     OW 7937   1.095   1.306   3.482 -0.1330 -0.3881  0.1398
 1977SOL    HW2 7938   1.104   1.323   3.576  0.9164  0.5271 -0.1101
 1977SOL    HW3 7939   1.088   1.393   3.443  0.0653 -0.7413 -0.6921
 1977SOL    MW4 7940   1.095   1.320   3.489  0.0316 -0.3140 -0.0029
 1978SOL     OW 7941   1.087   1.584   3.369 -0.0525  0.0924 -0.3742
 1978SOL    HW2 7942   1.173   1.584   3.409  0.2867  0.1395 -1.1008
 1978SOL    HW3 7943   1.104   1.581   3.275 -0.8513 -1.3500 -0.4892
 1978SOL    MW4 7944   1.100   1.584   3.362 -0.1132 -0.0917 -0.4853
 1979SOL     OW 7945   0.855   1.676   3.481 -0.4188  0.0636  0.1374
 1979SOL    HW2 7946   0.845   1.762   3.439 -0.8032  0.0180  0.1345
 1979SOL    HW3 7947   0.927   1.635   3.434  1.4018  1.3432  1.7278
 1979SOL    MW4 7948   0.863   1.682   3.469 -0.2293  0.2264  0.3469
 1980SOL     OW 7949   0.892   1.919   3.352 -0.1488 -0.3179 -0.0111
 1980SOL    HW2 7950   0.976   1.949   3.387 -0.8427  0.8097  0.7461
 1980SOL    HW3 7951   0.827   1.973   3.398 -1.1184  0.8415 -2.6685
 1980SOL    MW4 7952   0.895   1.930   3.363 -0.3683 -0.0162 -0.2618
 1981SOL     OW 7953   1.114   2.019   3.498 -0.1950  0.3841  0.1390
 1981SOL    HW2 7954   1.185   1.967   3.460 -1.1996 -1.0068  0.1319
 1981SOL    HW3 7955   1.123   2.105   3.456 -0.0876 -0.5324 -1.8074
 1981SOL    MW4 7956   1.125   2.024   3.487 -0.3134  0.0797 -0.1187
 1982SOL     OW 7957   1.111   2.276   3.388 -0.3003 -0.0713 -0.5072
 1982SOL    HW2 7958   1.182   2.328   3.424 -0.8133  0.1679  0.1776
 1982SOL    HW3 7959   1.115   2.291   3.293  0.1865  0.4012 -0.4112
 1982SOL    MW4 7960   1.121   2.285   3.380 -0.3037  0.0226 -0.4042
 1983SOL     OW 7961   0.902   2.438   3.458 -0.2383  0.0848  0.7387
 1983SOL    HW2 7962   0.897   2.409   3.549 -0.2642 -0.7523  0.4770
 1983SOL    HW3 7963   0.974   2.388   3.421  1.6911  2.5600  1.0433
 1983SOL    MW4 7964   0.911   2.428   3.465  0.0128  0.3009  0.7443
 1984SOL     OW 7965   0.913   2.704   3.377 -0.1486 -0.1969 -0.5876
 1984SOL    HW2 7966   0.998   2.742   3.402  0.1342 -1.5625  0.5595
 1984SOL    HW3 7967   0.922   2.610   3.396 -1.0936 -0.7404 -2.6915
 1984SOL    MW4 7968   0.926   2.697   3.383 -0.2359 -0.4488 -0.7138
 1985SOL     OW 7969   1.134   2.826   3.447  0.0368 -0.0643 -0.5539
 1985SOL    HW2 7970   1.125   2.826   3.543  0.0503 -0.1960 -0.5534
 1985SOL    HW3 7971   1.215   2.778   3.430 -0.0239 -0.1377 -0.6375
 1985SOL    MW4 7972   1.143   2.820   3.458  0.0306 -0.0913 -0.5649
 1986SOL     OW 7973   1.195   3.082   3.372  0.1742  0.1410  0.1157
 1986SOL    HW2 7974   1.181   2.994   3.407  0.3103  0.0083 -0.1646
 1986SOL    HW3 7975   1.178   3.074   3.278  1.2341  0.1819 -0.0814
 1986SOL    MW4 7976   1.191   3.070   3.364  0.3320  0.1289  0.0527
 1987SOL     OW 7977   0.959   3.221   3.424 -0.1889  0.3798 -0.0161
 1987SOL    HW2 7978   1.033   3.171   3.392  0.4743  1.5131 -0.2833
 1987SOL    HW3 7979   0.883   3.165   3.406  0.7200 -1.4065  1.5860
 1987SOL    MW4 7980   0.958   3.207   3.417  0.0185  0.2936  0.1600
 1988SOL     OW 7981   0.900   3.510   3.386 -0.6571 -0.1459  0.2311
 1988SOL    HW2 7982   0.918   3.420   3.412  0.9347 -0.2385 -1.1122
 1988SOL    HW3 7983   0.901   3.508   3.290 -3.2143  0.7980  0.1611
 1988SOL    MW4 7984   0.903   3.498   3.377 -0.7845 -0.0336  0.0446
 1989SOL     OW 7985   1.102   3.659   3.510 -0.1170  0.0512 -0.1129
 1989SOL    HW2 7986   1.117   3.617   3.595  0.6088  0.2167 -0.1552
 1989SOL    HW3 7987   1.024   3.616   3.475 -0.8063  0.4345  0.9317
 1989SOL    MW4 7988   1.094   3.648   3.517 -0.1122  0.1236  0.0193
 1990SOL     OW 7989   1.101   3.907   3.365 -0.1106 -0.5619  0.4515
 1990SOL    HW2 7990   1.163   3.934   3.432  0.1761 -0.5211  0.1742
 1990SOL    HW3 7991   1.074   3.819   3.391  1.9610 -1.5924 -0.7315
 1990SOL    MW4 7992   1.105   3.899   3.377  0.2006 -0.6925  0.2588
 1991SOL     OW 7993   0.901   4.076   3.489 -0.0975  0.3725 -0.6635
 1991SOL    HW2 7994   0.962   4.029   3.433 -0.6147  0.0808 -0.9861
 1991SOL    HW3 7995   0.818   4.029   3.478  0.3335 -1.1862  2.1878
 1991SOL    MW4 7996   0.898   4.063   3.480 -0.1088  0.1284 -0.3299
 1992SOL     OW 7997   0.855   4.327   3.400 -0.0284 -0.1282 -0.4030
 1992SOL    HW2 7998   0.874   4.233   3.409 -1.8667 -0.5750 -0.9301
 1992SOL    HW3 7999   0.877   4.346   3.309 -0.6558 -0.3132 -0.6006
 1992SOL    MW4 8000   0.860   4.317   3.389 -0.3537 -0.2116 -0.4986
 1993SOL     OW 8001   1.116   4.421   3.475  0.3623  0.0450  0.4406
 1993SOL    HW2 8002   1.022   4.413   3.460  0.4532 -1.1685  0.4607
 1993SOL    HW3 8003   1.139   4.507   3.440 -0.6619  0.1304 -0.0369
 1993SOL    MW4 8004   1.107   4.431   3.469  0.2391 -0.1038  0.3803
 1994SOL     OW 8005   1.583   4.641   3.369  0.5256 -0.0610 -0.0203
 1994SOL    HW2 8006   1.515   4.707   3.372 -1.1281 -1.7960  1.6335
 1994SOL    HW3 8007   1.659   4.681   3.411 -0.7244  0.4903  1.7209
 1994SOL    MW4 8008   1.584   4.655   3.375  0.1425 -0.2172  0.4276
 1995SOL     OW 8009   1.364   0.147   3.419 -0.0150  0.3814  0.3210
 1995SOL    HW2 8010   1.345   0.152   3.512 -1.8352  0.5841 -0.0418
 1995SOL    HW3 8011   1.367   0.238   3.389 -0.3894  0.2838 -0.0117
 1995SOL    MW4 8012   1.362   0.160   3.427 -0.3045  0.3952  0.2292
 1996SOL     OW 8013   1.346   0.419   3.308  0.1933  0.0544 -0.1112
 1996SOL    HW2 8014   1.266   0.443   3.354 -0.0304 -0.8497 -0.0079
 1996SOL    HW3 8015   1.415   0.467   3.352 -0.3152  0.9972 -0.3238
 1996SOL    MW4 8016   1.344   0.428   3.320  0.0967  0.0595 -0.1256
 1997SOL     OW 8017   1.566   0.493   3.455 -0.4320  0.4351  0.0939
 1997SOL    HW2 8018   1.573   0.504   3.550 -1.0763 -0.1756  0.2155
 1997SOL    HW3 8019   1.645   0.446   3.430 -0.0831  0.9223  0.2753
 1997SOL    MW4 8020   1.577   0.488   3.464 -0.4709  0.4188  0.1339
 1998SOL     OW 8021   1.618   0.780   3.378  0.6180  0.4011 -0.4240
 1998SOL    HW2 8022   1.538   0.823   3.407  0.3122  0.1907 -0.9379
 1998SOL    HW3 8023   1.609   0.689   3.409  1.5807  0.8710  1.2664
 1998SOL    MW4 8024   1.606   0.773   3.386  0.7046  0.4353 -0.2688
 1999SOL     OW 8025   1.382   0.910   3.458 -0.0504 -0.5345 -0.1200
 1999SOL    HW2 8026   1.392   0.903   3.553  0.5744 -2.3290 -0.3092
 1999SOL    HW3 8027   1.386   1.004   3.441 -2.0230 -0.0370  1.8264
 1999SOL    MW4 8028   1.384   0.922   3.468 -0.2282 -0.7056  0.1119
 2000SOL     OW 8029   1.315   1.174   3.354  0.1821  0.3689  0.8431
 2000SOL    HW2 8030   1.401   1.206   3.383  1.2143 -2.3783  0.9249
 2000SOL    HW3 8031   1.253   1.216   3.414  1.5757  1.3147  1.6586
 2000SOL    MW4 8032   1.318   1.184   3.366  0.5022  0.1313  0.9615
 2001SOL     OW 8033   1.574   1.240   3.439  0.3881 -0.5479 -0.1219
 2001SOL    HW2 8034   1.584   1.258   3.533  0.2841 -0.7155 -0.0772
 2001SOL    HW3 8035   1.663   1.226   3.407  0.2956 -2.1931  0.3038
 2001SOL    MW4 8036   1.587   1.241   3.447  0.3621 -0.7871 -0.0598
 2002SOL     OW 8037   1.544   1.530   3.398 -0.5929 -0.5655  0.1208
 2002SOL    HW2 8038   1.543   1.436   3.418 -1.4764 -0.7135 -0.5899
 2002SOL    HW3 8039   1.530   1.535   3.303 -0.2597  0.2750  0.1084
 2002SOL    MW4 8040   1.542   1.518   3.388 -0.6655 -0.4741  0.0254
 2003SOL     OW 8041   1.308   1.626   3.512 -0.1741 -0.6327  0.4347
 2003SOL    HW2 8042   1.312   1.635   3.607 -0.5048 -0.9466  0.4795
 2003SOL    HW3 8043   1.395   1.596   3.487 -0.1380 -0.7094  0.6544
 2003SOL    MW4 8044   1.320   1.623   3.521 -0.2130 -0.6842  0.4696
 2004SOL     OW 8045   1.310   1.889   3.365 -0.1583 -0.2594  0.1115
 2004SOL    HW2 8046   1.385   1.938   3.399  1.0302 -1.5251 -0.6631
 2004SOL    HW3 8047   1.300   1.816   3.427 -0.1751 -0.6053 -0.3008
 2004SOL    MW4 8048   1.319   1.886   3.378 -0.0037 -0.4721 -0.0451
 2005SOL     OW 8049   1.515   2.058   3.454  0.0188 -0.4433 -0.1610
 2005SOL    HW2 8050   1.601   2.018   3.444  0.2705  0.2656 -0.8599
 2005SOL    HW3 8051   1.529   2.151   3.435 -1.1490 -0.5573 -1.6533
 2005SOL    MW4 8052   1.528   2.065   3.450 -0.1021 -0.3648 -0.4501
 2006SOL     OW 8053   1.562   2.313   3.403 -0.2722 -0.4125  0.0442
 2006SOL    HW2 8054   1.490   2.363   3.441 -0.6048  0.0935 -1.2315
 2006SOL    HW3 8055   1.565   2.341   3.311  0.2370 -1.9396 -0.4117
 2006SOL    MW4 8056   1.553   2.324   3.396 -0.2489 -0.5472 -0.1843
 2007SOL     OW 8057   1.320   2.448   3.486  0.7098  0.5653 -0.0090
 2007SOL    HW2 8058   1.314   2.465   3.580  1.7544 -1.0318  0.3745
 2007SOL    HW3 8059   1.331   2.534   3.447 -1.7457  1.4269  1.1367
 2007SOL    MW4 8060   1.321   2.461   3.493  0.5237  0.4682  0.1928
 2008SOL     OW 8061   1.372   2.709   3.380 -0.2552 -0.1045 -0.6248
 2008SOL    HW2 8062   1.444   2.764   3.410 -0.7809 -0.6749  1.7966
 2008SOL    HW3 8063   1.370   2.722   3.286  1.1651  2.1525 -0.3881
 2008SOL    MW4 8064   1.381   2.718   3.372 -0.1372  0.1180 -0.2741
 2009SOL     OW 8065   1.795   2.725   3.384  0.2938 -0.5558  0.8340
 2009SOL    HW2 8066   1.776   2.645   3.433  0.7887 -0.1899  1.6400
 2009SOL    HW3 8067   1.884   2.749   3.410  0.7644 -0.6467 -0.6568
 2009SOL    MW4 8068   1.804   2.718   3.394  0.4212 -0.5196  0.7436
 2010SOL     OW 8069   1.630   3.133   3.340  0.3983 -0.2007  0.2858
 2010SOL    HW2 8070   1.559   3.190   3.371  0.7837  0.1777  0.4871
 2010SOL    HW3 8071   1.703   3.151   3.400  0.8049 -0.2637 -0.1829
 2010SOL    MW4 8072   1.630   3.143   3.352  0.5028 -0.1591  0.2505
 2011SOL     OW 8073   1.402   3.285   3.434 -0.1486 -0.1071 -0.6480
 2011SOL    HW2 8074   1.397   3.286   3.530 -0.5619  2.5195 -0.6643
 2011SOL    HW3 8075   1.321   3.243   3.406 -0.3691 -0.2190  0.1447
 2011SOL    MW4 8076   1.391   3.279   3.443 -0.2323  0.2247 -0.5456
 2012SOL     OW 8077   1.342   3.536   3.386 -0.3219 -0.3732  0.1165
 2012SOL    HW2 8078   1.363   3.447   3.414 -0.1380 -0.4104 -0.1290
 2012SOL    HW3 8079   1.272   3.564   3.443  0.2362 -0.3471  0.7925
 2012SOL    MW4 8080   1.336   3.528   3.397 -0.2240 -0.3747  0.1733
 2013SOL     OW 8081   1.562   3.647   3.491  0.4825  0.3452  0.1944
 2013SOL    HW2 8082   1.537   3.649   3.584 -2.6783  1.6857 -0.6286
 2013SOL    HW3 8083   1.482   3.623   3.445  1.6515  1.0615 -2.3120
 2013SOL    MW4 8084   1.548   3.644   3.497  0.2197  0.6166 -0.2448
 2014SOL     OW 8085   1.577   3.907   3.388 -0.2508 -0.1830  0.3780
 2014SOL    HW2 8086   1.578   3.821   3.429 -0.5696 -0.4035 -0.0669
 2014SOL    HW3 8087   1.574   3.888   3.294  1.5127  0.3067  0.2009
 2014SOL    MW4 8088   1.577   3.893   3.381 -0.0602 -0.1475  0.2959
 2015SOL     OW 8089   1.341   4.014   3.495  0.3620 -0.1426  0.2178
 2015SOL    HW2 8090   1.343   4.105   3.467  0.9341 -0.2608 -0.1310
 2015SOL    HW3 8091   1.416   3.973   3.453 -1.0532 -1.2719 -1.2992
 2015SOL    MW4 8092   1.351   4.020   3.486  0.2508 -0.3072 -0.0284
 2016SOL     OW 8093   1.327   4.271   3.352 -0.2910 -0.0749 -0.3507
 2016SOL    HW2 8094   1.256   4.318   3.397 -0.8591  0.9513 -2.2773
 2016SOL    HW3 8095   1.407   4.304   3.393 -0.8708 -0.6148  1.2568
 2016SOL    MW4 8096   1.328   4.282   3.364 -0.4425 -0.0107 -0.3928
 2017SOL     OW 8097   1.804   4.312   3.380 -0.3128  0.2958  0.2222
 2017SOL    HW2 8098   1.822   4.228   3.421 -0.1277 -0.0000 -0.4512
 2017SOL    HW3 8099   1.718   4.338   3.412 -0.8478 -0.6719 -0.4088
 2017SOL    MW4 8100   1.795   4.305   3.389 -0.3589  0.1291  0.0501
 2018SOL     OW 8101   2.067   0.011   3.357  0.2873  0.0610 -0.0281
 2018SOL    HW2 8102   2.126   0.056   3.418 -1.4496  0.9661  1.0297
 2018SOL    HW3 8103   1.980   0.022   3.395 -0.7602  0.0289 -2.2942
 2018SOL    MW4 8104   2.063   0.019   3.370 -0.0800  0.1762 -0.1875
 2019SOL     OW 8105   1.829   0.073   3.468  0.1719  0.3506  0.0556
 2019SOL    HW2 8106   1.823   0.093   3.562 -0.8180  1.3637 -0.2131
 2019SOL    HW3 8107   1.820   0.158   3.425 -1.0344 -0.2996 -1.0152
 2019SOL    MW4 8108   1.827   0.087   3.475 -0.1178  0.3985 -0.1212
 2020SOL     OW 8109   1.811   0.347   3.390  1.0738  0.0671 -0.0215
 2020SOL    HW2 8110   1.895   0.386   3.413  0.9872  0.5318 -0.4859
 2020SOL    HW3 8111   1.798   0.370   3.298  0.0009  0.8121  0.3077
 2020SOL    MW4 8112   1.820   0.356   3.381  0.9208  0.2267 -0.0393
 2021SOL     OW 8113   2.038   0.481   3.498  0.0566  0.0520 -0.0175
 2021SOL    HW2 8114   2.039   0.574   3.474  1.5576  0.4597  1.5001
 2021SOL    HW3 8115   2.116   0.445   3.457 -0.6030 -0.5757 -0.7224
 2021SOL    MW4 8116   2.049   0.489   3.490  0.1676  0.0230  0.0897
 2022SOL     OW 8117   2.079   0.753   3.439 -0.2170 -0.1028  0.0584
 2022SOL    HW2 8118   2.152   0.802   3.476  0.4086 -1.1305  0.1940
 2022SOL    HW3 8119   2.087   0.765   3.345  1.3694 -1.9484 -0.0509
 2022SOL    MW4 8120   2.089   0.761   3.432  0.0748 -0.4819  0.0618
 2023SOL     OW 8121   1.865   0.896   3.507 -0.2573 -0.0615  0.0201
 2023SOL    HW2 8122   1.945   0.855   3.474  0.4542 -0.6647  2.3623
 2023SOL    HW3 8123   1.794   0.849   3.465  0.6095 -0.7121 -0.7232
 2023SOL    MW4 8124   1.866   0.885   3.497 -0.0491 -0.2269  0.2311
 2024SOL     OW 8125   1.816   1.144   3.391 -0.3374 -0.0766  0.2521
 2024SOL    HW2 8126   1.881   1.198   3.436  0.5427 -0.2663 -0.7574
 2024SOL    HW3 8127   1.822   1.059   3.434 -0.5306  0.1523  0.7327
 2024SOL    MW4 8128   1.826   1.140   3.402 -0.2468 -0.0715  0.1823
 2025SOL     OW 8129   1.989   1.284   3.528 -0.2546  0.3364 -0.2510
 2025SOL    HW2 8130   1.967   1.298   3.620 -0.0864  0.3649 -0.2161
 2025SOL    HW3 8131   1.988   1.372   3.489  1.8171  0.5853  0.1846
 2025SOL    MW4 8132   1.986   1.298   3.535  0.0409  0.3730 -0.1889
 2026SOL     OW 8133   2.023   1.521   3.388 -0.3401  0.0656  0.6239
 2026SOL    HW2 8134   2.106   1.563   3.406  0.3334 -1.5562  1.4493
 2026SOL    HW3 8135   1.957   1.586   3.412  0.6790  1.0591  0.7539
 2026SOL    MW4 8136   2.025   1.535   3.394 -0.1168 -0.0173  0.7499
 2027SOL     OW 8137   1.794   1.681   3.451 -0.3699 -0.6555 -0.1454
 2027SOL    HW2 8138   1.787   1.773   3.426  0.4371 -0.6589 -0.4219
 2027SOL    HW3 8139   1.705   1.647   3.447 -0.4477 -0.2917 -1.6061
 2027SOL    MW4 8140   1.782   1.688   3.447 -0.2736 -0.6079 -0.3746
 2028SOL     OW 8141   1.770   1.933   3.365 -0.1301  0.6615  0.0168
 2028SOL    HW2 8142   1.852   1.973   3.394 -0.0206  1.1307 -0.9281
 2028SOL    HW3 8143   1.762   1.959   3.273 -1.1163  0.2513 -0.0149
 2028SOL    MW4 8144   1.780   1.942   3.356 -0.2458  0.6693 -0.1120
 2029SOL     OW 8145   2.006   2.052   3.476 -0.3702  0.3935 -0.1126
 2029SOL    HW2 8146   2.075   1.989   3.453 -1.3010 -0.3337 -0.9511
 2029SOL    HW3 8147   2.005   2.054   3.571 -0.1287 -0.6358 -0.0893
 2029SOL    MW4 8148   2.015   2.044   3.485 -0.4611  0.1618 -0.2201
 2030SOL     OW 8149   1.999   2.322   3.387  0.2042 -0.3800  0.1634
 2030SOL    HW2 8150   2.076   2.379   3.395  0.5502 -0.8476  0.2120
 2030SOL    HW3 8151   2.020   2.247   3.442 -0.1233 -0.6931 -0.1407
 2030SOL    MW4 8152   2.012   2.320   3.395  0.2066 -0.4830  0.1297
 2031SOL     OW 8153   1.775   2.466   3.490  0.2799 -0.1763 -0.3401
 2031SOL    HW2 8154   1.850   2.410   3.469 -0.8560 -1.4681 -1.0003
 2031SOL    HW3 8155   1.699   2.418   3.457 -0.8618  1.0348  0.4832
 2031SOL    MW4 8156   1.775   2.452   3.483 -0.0206 -0.1869 -0.3186
 2032SOL     OW 8157   1.577   2.887   3.463 -0.0468 -0.3334  0.5820
 2032SOL    HW2 8158   1.591   2.968   3.413  0.4742 -0.4118  0.6041
 2032SOL    HW3 8159   1.649   2.829   3.436  0.4891 -0.2164  1.7558
 2032SOL    MW4 8160   1.588   2.890   3.453  0.0926 -0.3283  0.7398
 2033SOL     OW 8161   2.024   2.848   3.480 -0.0532 -0.1203 -0.5797
 2033SOL    HW2 8162   2.030   2.853   3.575 -0.5645 -1.4126 -0.4678
 2033SOL    HW3 8163   2.037   2.939   3.450  1.6336  0.0563  0.6108
 2033SOL    MW4 8164   2.026   2.861   3.489  0.1019 -0.2675 -0.4079
 2034SOL     OW 8165   2.030   3.103   3.393  0.0222 -0.2207 -0.3767
 2034SOL    HW2 8166   2.110   3.151   3.416 -0.5654  0.2330  0.7851
 2034SOL    HW3 8167   1.959   3.159   3.427 -0.7268 -1.2667 -0.2129
 2034SOL    MW4 8168   2.031   3.117   3.401 -0.1541 -0.2988 -0.2018
 2035SOL     OW 8169   1.826   3.265   3.508  0.0052 -0.0827  0.4359
 2035SOL    HW2 8170   1.819   3.270   3.603  0.5122  0.2096  0.4605
 2035SOL    HW3 8171   1.812   3.355   3.478  0.3207 -0.0889  0.2675
 2035SOL    MW4 8172   1.823   3.277   3.516  0.1137 -0.0450  0.4169
 2036SOL     OW 8173   1.803   3.513   3.420  0.2786 -0.0547  0.5936
 2036SOL    HW2 8174   1.717   3.549   3.441  0.6828  0.6520  1.0409
 2036SOL    HW3 8175   1.807   3.514   3.325 -1.0095 -1.9789  0.4827
 2036SOL    MW4 8176   1.792   3.518   3.410  0.1620 -0.2153  0.6380
 2037SOL     OW 8177   2.026   3.653   3.523  0.0743  0.2691 -0.0330
 2037SOL    HW2 8178   2.098   3.608   3.480 -0.2792 -0.4457  0.1168
 2037SOL    HW3 8179   1.949   3.600   3.503 -0.1330  0.0821  1.2392
 2037SOL    MW4 8180   2.025   3.640   3.515  0.0004  0.1501  0.1546
 2038SOL     OW 8181   2.027   3.913   3.396 -0.0812  0.0825 -0.2249
 2038SOL    HW2 8182   1.957   3.954   3.447  0.8006  1.7114 -0.3074
 2038SOL    HW3 8183   2.023   3.821   3.421 -0.1874  0.7093  2.2325
 2038SOL    MW4 8184   2.017   3.906   3.406  0.0211  0.3801  0.0884
 2039SOL     OW 8185   1.808   4.043   3.489 -0.1355  0.0734  0.6151
 2039SOL    HW2 8186   1.796   4.034   3.583 -1.6258  1.7690  0.6246
 2039SOL    HW3 8187   1.727   4.008   3.451 -0.2295  0.8841  0.0529
 2039SOL    MW4 8188   1.796   4.037   3.496 -0.3445  0.4041  0.5422
 2040SOL     OW 8189   1.813   4.286   3.087  0.0603  0.2268  0.0171
 2040SOL    HW2 8190   1.732   4.326   3.055  0.3167  0.4764 -0.3361
 2040SOL    HW3 8191   1.807   4.290   3.182 -0.0374  0.8713 -0.0133
 2040SOL    MW4 8192   1.802   4.292   3.095  0.0812  0.3447 -0.0335
 2041SOL     OW 8193   2.050   4.412   3.469 -0.0304  0.1746  0.2924
 2041SOL    HW2 8194   1.961   4.398   3.438  0.5472 -1.2294 -0.7935
 2041SOL    HW3 8195   2.074   4.499   3.435 -0.4905 -0.0456 -0.6176
 2041SOL    MW4 8196   2.041   4.422   3.460 -0.0149 -0.0397  0.0291
 2042SOL     OW 8197   2.501   0.005   3.385 -0.3356 -0.3150 -0.3487
 2042SOL    HW2 8198   2.493  -0.087   3.412 -0.8740 -0.0976  0.2479
 2042SOL    HW3 8199   2.498   0.002   3.290 -1.6219 -0.8185 -0.3119
 2042SOL    MW4 8200   2.499  -0.008   3.376 -0.5764 -0.3528 -0.2651
 2043SOL     OW 8201   2.274   0.128   3.488 -0.2372  0.3959  0.3488
 2043SOL    HW2 8202   2.352   0.081   3.459 -1.4459 -0.3229 -1.8727
 2043SOL    HW3 8203   2.264   0.105   3.580 -0.0136 -2.6615 -0.3393
 2043SOL    MW4 8204   2.283   0.119   3.496 -0.3672 -0.1023 -0.0351
 2044SOL     OW 8205   2.263   0.387   3.393  0.2115  0.3011 -0.2238
 2044SOL    HW2 8206   2.337   0.435   3.430 -0.2686  0.9104 -0.0429
 2044SOL    HW3 8207   2.271   0.299   3.429  1.1391  0.2265 -0.6153
 2044SOL    MW4 8208   2.274   0.382   3.403  0.2705  0.3716 -0.2516
 2045SOL     OW 8209   2.488   0.521   3.510  0.4003  0.3330  0.1009
 2045SOL    HW2 8210   2.576   0.498   3.481  0.7235  0.6176  0.8248
 2045SOL    HW3 8211   2.488   0.617   3.512 -0.1482  0.3518 -0.5539
 2045SOL    MW4 8212   2.499   0.531   3.507  0.3706  0.3730  0.1100
 2046SOL     OW 8213   2.470   0.801   3.422 -0.0567 -0.0550  0.1825
 2046SOL    HW2 8214   2.560   0.827   3.442  0.2120 -0.8924  0.0802
 2046SOL    HW3 8215   2.471   0.783   3.328 -0.7693  1.6688 -0.1810
 2046SOL    MW4 8216   2.482   0.802   3.412 -0.1153  0.0620  0.1210
 2047SOL     OW 8217   2.260   0.919   3.544 -0.3771  0.0933 -0.4869
 2047SOL    HW2 8218   2.226   1.002   3.511 -1.2325  0.5019  1.3453
 2047SOL    HW3 8219   2.333   0.898   3.486 -0.1113  2.1546 -0.9429
 2047SOL    MW4 8220   2.265   0.927   3.532 -0.4549  0.4192 -0.3053
 2048SOL     OW 8221   2.212   1.160   3.404 -0.1605  0.4856 -0.6886
 2048SOL    HW2 8222   2.286   1.215   3.431  0.1204 -0.4572  0.5200
 2048SOL    HW3 8223   2.137   1.197   3.451 -0.0868  0.2363 -0.3706
 2048SOL    MW4 8224   2.212   1.172   3.414 -0.1137  0.3283 -0.4872
 2049SOL     OW 8225   2.430   1.311   3.499  0.3228  0.4765  0.1590
 2049SOL    HW2 8226   2.423   1.313   3.594  1.3215  0.8105  0.2347
 2049SOL    HW3 8227   2.495   1.243   3.481 -0.7559 -0.4542 -0.3565
 2049SOL    MW4 8228   2.438   1.302   3.509  0.3123  0.3978  0.1010
 2050SOL     OW 8229   2.486   1.576   3.424 -0.0703 -0.2641 -0.0385
 2050SOL    HW2 8230   2.468   1.484   3.445  0.9908 -0.6851 -0.9501
 2050SOL    HW3 8231   2.489   1.579   3.329  0.5431  0.5916  0.0015
 2050SOL    MW4 8232   2.484   1.564   3.414  0.1506 -0.2068 -0.1535
 2051SOL     OW 8233   2.244   1.678   3.473 -0.3133 -0.2120  0.8426
 2051SOL    HW2 8234   2.241   1.678   3.569 -0.5068  0.2063  0.8366
 2051SOL    HW3 8235   2.332   1.646   3.452 -0.0443  0.3167  1.1670
 2051SOL    MW4 8236   2.255   1.674   3.483 -0.3033 -0.0870  0.8846
 2052SOL     OW 8237   2.242   1.943   3.375  0.3131 -0.3822  0.1196
 2052SOL    HW2 8238   2.250   1.850   3.398 -1.9486 -0.9597 -1.2601
 2052SOL    HW3 8239   2.246   1.944   3.279 -1.1721  0.7569  0.0523
 2052SOL    MW4 8240   2.244   1.931   3.365 -0.1813 -0.3081 -0.0713
 2053SOL     OW 8241   2.465   2.067   3.481  0.3339 -0.0725  0.0778
 2053SOL    HW2 8242   2.463   2.066   3.577  0.1220  1.3943  0.0986
 2053SOL    HW3 8243   2.383   2.026   3.455  0.2823 -0.2677  0.5335
 2053SOL    MW4 8244   2.454   2.062   3.490  0.2991  0.0953  0.1406
 2054SOL     OW 8245   2.462   2.320   3.374  0.0365 -0.5703  0.3720
 2054SOL    HW2 8246   2.536   2.367   3.411 -0.1043 -0.0193 -0.0410
 2054SOL    HW3 8247   2.460   2.237   3.422  0.9349 -0.5998  0.3563
 2054SOL    MW4 8248   2.471   2.315   3.386  0.1365 -0.5015  0.3154
 2055SOL     OW 8249   2.233   2.455   3.447 -0.1465 -0.4113 -0.1772
 2055SOL    HW2 8250   2.248   2.548   3.427 -0.4079 -0.8789 -2.8361
 2055SOL    HW3 8251   2.313   2.411   3.417 -0.2260 -1.0909  0.6013
 2055SOL    MW4 8252   2.245   2.461   3.440 -0.1914 -0.5627 -0.4253
 2056SOL     OW 8253   2.257   2.724   3.376  0.4434 -0.0537  0.0854
 2056SOL    HW2 8254   2.174   2.761   3.403  1.2723  0.9328  1.2967
 2056SOL    HW3 8255   2.253   2.723   3.280 -1.1989 -0.5899  0.1530
 2056SOL    MW4 8256   2.246   2.728   3.367  0.3361  0.0057  0.2541
 2057SOL     OW 8257   2.464   2.821   3.518 -0.1034  0.4035 -0.2652
 2057SOL    HW2 8258   2.469   2.911   3.486  0.4039 -0.1707 -1.8246
 2057SOL    HW3 8259   2.391   2.782   3.470  0.2898 -0.3036 -0.2926
 2057SOL    MW4 8260   2.455   2.828   3.508  0.0154  0.2344 -0.4746
 2058SOL     OW 8261   2.460   3.081   3.407 -0.5837 -0.5857 -0.3321
 2058SOL    HW2 8262   2.534   3.129   3.443  0.4126 -0.8873 -1.9377
 2058SOL    HW3 8263   2.478   3.076   3.313 -2.4616 -0.9683 -0.6885
 2058SOL    MW4 8264   2.472   3.086   3.400 -0.7000 -0.6760 -0.5909
 2059SOL     OW 8265   2.248   3.239   3.483  0.2741 -0.2521  0.2724
 2059SOL    HW2 8266   2.263   3.248   3.578  1.2680  1.7227 -0.0487
 2059SOL    HW3 8267   2.317   3.179   3.454  0.9299  0.3401  0.5687
 2059SOL    MW4 8268   2.259   3.232   3.492  0.4918  0.0865  0.2692
 2060SOL     OW 8269   2.254   3.519   3.380 -0.2015 -0.2925 -0.2834
 2060SOL    HW2 8270   2.266   3.434   3.422  0.0763  0.0135  0.2549
 2060SOL    HW3 8271   2.248   3.499   3.286  1.3822 -0.7490 -0.2890
 2060SOL    MW4 8272   2.255   3.505   3.373  0.0441 -0.3123 -0.2131
 2061SOL     OW 8273   2.461   3.655   3.513 -0.6036 -0.2039  0.0601
 2061SOL    HW2 8274   2.466   3.742   3.473 -0.6632  0.3075  1.1188
 2061SOL    HW3 8275   2.389   3.611   3.468  0.2053 -0.1420 -1.3062
 2061SOL    MW4 8276   2.452   3.661   3.502 -0.5047 -0.1283  0.0195
 2062SOL     OW 8277   2.483   3.882   3.329  0.2061  0.0402 -0.0815
 2062SOL    HW2 8278   2.555   3.937   3.358 -0.1788  0.9704 -0.8851
 2062SOL    HW3 8279   2.404   3.931   3.351 -0.1089  0.4125 -1.9643
 2062SOL    MW4 8280   2.482   3.896   3.336  0.1138  0.2120 -0.4359
 2063SOL     OW 8281   2.280   4.014   3.478  0.3424  0.6808  0.6998
 2063SOL    HW2 8282   2.257   4.103   3.450 -1.5850 -0.0274 -0.0940
 2063SOL    HW3 8283   2.197   3.966   3.475  1.2418 -0.9876  1.7403
 2063SOL    MW4 8284   2.266   4.019   3.474  0.2068  0.3673  0.7323
 2064SOL     OW 8285   2.269   4.288   3.406  0.0735  0.8122  0.1503
 2064SOL    HW2 8286   2.187   4.332   3.427  0.5159  1.1562  1.1969
 2064SOL    HW3 8287   2.284   4.307   3.314 -1.8751 -0.6371 -0.4998
 2064SOL    MW4 8288   2.260   4.296   3.397 -0.1252  0.6664  0.2026
 2065SOL     OW 8289   2.490   4.413   3.507  0.3824  0.4031  0.1549
 2065SOL    HW2 8290   2.476   4.415   3.602 -1.4794  1.3010 -0.1023
 2065SOL    HW3 8291   2.415   4.365   3.473  0.6963  0.6627 -0.9252
 2065SOL    MW4 8292   2.478   4.407   3.515  0.1782  0.5558 -0.0216
 2066SOL     OW 8293   2.933   4.651   3.412  0.0775  0.1205 -0.0001
 2066SOL    HW2 8294   2.859   4.707   3.434 -0.2878  0.0540 -1.0704
 2066SOL    HW3 8295   2.935   4.649   3.317  1.6398  0.3591  0.0128
 2066SOL    MW4 8296   2.923   4.658   3.403  0.2354  0.1432 -0.1396
 2067SOL     OW 8297   2.717   0.129   3.504  0.4851 -0.2182  0.2806
 2067SOL    HW2 8298   2.716   0.215   3.462  1.8809 -0.6588 -0.6964
 2067SOL    HW3 8299   2.642   0.083   3.466  1.3255 -0.3653 -1.2302
 2067SOL    MW4 8300   2.707   0.134   3.494  0.7802 -0.2957 -0.0476
 2068SOL     OW 8301   2.708   0.383   3.387  0.4211  0.2180  0.6235
 2068SOL    HW2 8302   2.796   0.414   3.411  0.5686  0.7744 -0.5811
 2068SOL    HW3 8303   2.706   0.390   3.292 -0.6055 -0.6950  0.5759
 2068SOL    MW4 8304   2.719   0.388   3.378  0.3051  0.1709  0.4583
 2069SOL     OW 8305   2.959   0.475   3.493 -0.3458  0.0170  0.0399
 2069SOL    HW2 8306   2.931   0.480   3.584 -2.1739 -0.7404 -0.4425
 2069SOL    HW3 8307   2.958   0.566   3.463  2.4139  0.5225  1.3434
 2069SOL    MW4 8308   2.955   0.488   3.501 -0.2229 -0.0163  0.1482
 2070SOL     OW 8309   2.932   0.755   3.371 -0.2909  0.4331 -0.0192
 2070SOL    HW2 8310   3.012   0.783   3.416  0.0655  1.3329 -1.1800
 2070SOL    HW3 8311   2.864   0.813   3.405 -0.1933  0.5208  0.0254
 2070SOL    MW4 8312   2.934   0.767   3.381 -0.2310  0.5634 -0.1665
 2071SOL     OW 8313   2.720   0.906   3.498  0.1628 -0.0161 -0.0566
 2071SOL    HW2 8314   2.708   0.905   3.593 -0.9367 -1.3827 -0.1940
 2071SOL    HW3 8315   2.702   0.996   3.472 -1.3300 -0.0453  0.8224
 2071SOL    MW4 8316   2.716   0.918   3.507 -0.1792 -0.2002  0.0413
 2072SOL     OW 8317   2.659   1.173   3.409  0.3399  0.4807  0.3659
 2072SOL    HW2 8318   2.738   1.215   3.442  0.4300  1.2299 -0.7453
 2072SOL    HW3 8319   2.667   1.179   3.314 -0.5941 -0.3102  0.2295
 2072SOL    MW4 8320   2.670   1.180   3.401  0.2285  0.4752  0.2013
 2073SOL     OW 8321   2.893   1.273   3.497 -0.1026 -0.3369  0.1405
 2073SOL    HW2 8322   2.899   1.260   3.591 -2.6712 -1.7050  0.1428
 2073SOL    HW3 8323   2.970   1.227   3.462 -0.1322 -1.3941  1.4355
 2073SOL    MW4 8324   2.904   1.265   3.505 -0.4454 -0.6569  0.3117
 2074SOL     OW 8325   2.946   1.543   3.394  0.0307  0.4500  0.0747
 2074SOL    HW2 8326   2.877   1.594   3.436 -0.0159  0.1843  0.3202
 2074SOL    HW3 8327   2.945   1.459   3.439 -0.2971  0.0105 -0.7365
 2074SOL    MW4 8328   2.937   1.539   3.405 -0.0187  0.3569  0.0001
 2075SOL     OW 8329   2.736   1.664   3.511 -0.0294 -0.2722 -0.0657
 2075SOL    HW2 8330   2.733   1.752   3.474  0.6364 -0.0438  0.4360
 2075SOL    HW3 8331   2.661   1.619   3.471  0.1654  0.2400 -1.0227
 2075SOL    MW4 8332   2.725   1.669   3.501  0.0842 -0.1745 -0.1257
 2076SOL     OW 8333   2.702   1.931   3.399 -0.6874 -0.0385  0.2750
 2076SOL    HW2 8334   2.621   1.980   3.416 -0.6822  0.7207 -1.7119
 2076SOL    HW3 8335   2.711   1.933   3.303  3.1986  2.3887  0.5850
 2076SOL    MW4 8336   2.692   1.938   3.388 -0.1740  0.3819  0.0538
 2077SOL     OW 8337   2.910   2.081   3.509  0.0240 -0.3701 -0.3557
 2077SOL    HW2 8338   2.903   2.074   3.604 -2.1671  0.3509 -0.4313
 2077SOL    HW3 8339   2.832   2.037   3.476  0.6826 -0.4699 -1.8075
 2077SOL    MW4 8340   2.899   2.075   3.517 -0.1782 -0.2882 -0.5572
 2078SOL     OW 8341   2.893   2.317   3.359  0.1370  0.2597 -0.5942
 2078SOL    HW2 8342   2.892   2.236   3.410  0.0074  0.4730 -0.2576
 2078SOL    HW3 8343   2.903   2.288   3.268 -1.2203 -0.1885 -0.6059
 2078SOL    MW4 8344   2.894   2.303   3.353 -0.0591  0.2287 -0.5513
 2079SOL     OW 8345   2.687   2.458   3.472 -0.0224  0.1397  0.1477
 2079SOL    HW2 8346   2.699   2.464   3.567 -0.0990 -2.0722  0.3332
 2079SOL    HW3 8347   2.764   2.411   3.441 -0.3115  0.2836 -0.7953
 2079SOL    MW4 8348   2.699   2.452   3.480 -0.0707 -0.1331  0.0477
 2080SOL     OW 8349   2.682   2.723   3.368 -0.2075 -0.1001  0.1973
 2080SOL    HW2 8350   2.694   2.632   3.395  1.1729  0.0875  0.2773
 2080SOL    HW3 8351   2.600   2.750   3.408 -0.6743 -1.3402  0.0946
 2080SOL    MW4 8352   2.673   2.715   3.377 -0.0870 -0.2389  0.1943
 2081SOL     OW 8353   2.896   2.861   3.471 -0.2039  0.1147  0.0853
 2081SOL    HW2 8354   2.892   2.854   3.566 -0.5699 -1.6434 -0.0423
 2081SOL    HW3 8355   2.813   2.824   3.441  0.2462 -0.0768 -0.9433
 2081SOL    MW4 8356   2.884   2.855   3.479 -0.1928 -0.1425 -0.0673
 2082SOL     OW 8357   2.902   3.150   3.435  0.7618  0.5872 -0.4842
 2082SOL    HW2 8358   2.909   3.056   3.452 -0.4460  0.8675  1.8072
 2082SOL    HW3 8359   2.897   3.157   3.340 -0.4484 -1.7564 -0.6320
 2082SOL    MW4 8360   2.903   3.138   3.425  0.4428  0.3150 -0.2014
 2083SOL     OW 8361   2.651   3.230   3.541 -0.5916  0.2708  0.4359
 2083SOL    HW2 8362   2.656   3.234   3.637 -0.1818 -1.6366  0.5200
 2083SOL    HW3 8363   2.737   3.196   3.515 -1.1493 -0.4013 -0.5269
 2083SOL    MW4 8364   2.663   3.226   3.550 -0.6111 -0.0696  0.3200
 2084SOL     OW 8365   2.692   3.492   3.427 -0.0957 -0.0909 -0.4412
 2084SOL    HW2 8366   2.676   3.402   3.458  0.1030 -0.1942 -0.6351
 2084SOL    HW3 8367   2.620   3.543   3.463  1.4751  0.2791  2.3564
 2084SOL    MW4 8368   2.680   3.487   3.436  0.1378 -0.0557 -0.0976
 2085SOL     OW 8369   2.926   3.594   3.510  0.1326 -0.0332  0.1405
 2085SOL    HW2 8370   2.923   3.681   3.471  2.2524 -1.0236 -2.4167
 2085SOL    HW3 8371   2.847   3.551   3.477 -0.8332  0.8300  1.2769
 2085SOL    MW4 8372   2.915   3.600   3.500  0.2849 -0.0500 -0.0469
 2086SOL     OW 8373   2.909   3.849   3.390 -0.4181  0.0962  0.5440
 2086SOL    HW2 8374   2.976   3.907   3.426 -0.9798  1.8964 -1.2329
 2086SOL    HW3 8375   2.828   3.879   3.430 -0.5190 -0.4077  0.7207
 2086SOL    MW4 8376   2.907   3.861   3.400 -0.5055  0.2672  0.3329
 2087SOL     OW 8377   2.695   3.991   3.483 -0.0502 -0.2099 -0.0349
 2087SOL    HW2 8378   2.681   3.992   3.578  1.2460  0.6608  0.1709
 2087SOL    HW3 8379   2.686   4.083   3.457 -0.1723 -0.4155 -0.7168
 2087SOL    MW4 8380   2.692   4.003   3.492  0.1047 -0.1222 -0.0977
 2088SOL     OW 8381   2.700   4.256   3.373 -0.0079  0.5626 -0.3230
 2088SOL    HW2 8382   2.781   4.272   3.422 -0.0724  0.1930 -0.0893
 2088SOL    HW3 8383   2.635   4.311   3.415 -0.3094 -0.5654  0.6931
 2088SOL    MW4 8384   2.702   4.265   3.385 -0.0562  0.3650 -0.1581
 2089SOL     OW 8385   2.936   4.377   3.505  0.3990  0.0978 -0.0517
 2089SOL    HW2 8386   2.932   4.378   3.601  1.4659 -1.4757  0.0355
 2089SOL    HW3 8387   2.946   4.469   3.480  4.2319  0.2146  1.5747
 2089SOL    MW4 8388   2.937   4.389   3.515  1.0454 -0.0944  0.1744
 2090SOL     OW 8389   3.367   4.628   3.375  0.3623 -0.0439  0.2270
 2090SOL    HW2 8390   3.286   4.664   3.411  0.9466  1.3595  0.1299
 2090SOL    HW3 8391   3.348   4.614   3.283 -0.1455 -0.8212  0.4404
 2090SOL    MW4 8392   3.354   4.631   3.368  0.3724  0.0387  0.2423
 2091SOL     OW 8393   3.167   0.076   3.512  0.1779  0.7489  0.2824
 2091SOL    HW2 8394   3.180   0.164   3.475 -0.2555  0.3722 -0.7861
 2091SOL    HW3 8395   3.080   0.050   3.480  0.1058  0.1284  0.9917
 2091SOL    MW4 8396   3.157   0.084   3.503  0.1112  0.6174  0.2350
 2092SOL     OW 8397   3.186   0.342   3.405 -0.4390  0.0254  0.2852
 2092SOL    HW2 8398   3.107   0.385   3.438  0.2326  1.0058  0.6216
 2092SOL    HW3 8399   3.173   0.338   3.311 -0.4163  1.1631  0.2267
 2092SOL    MW4 8400   3.174   0.347   3.397 -0.3474  0.3049  0.3219
 2093SOL     OW 8401   3.381   0.512   3.481 -0.2750  0.3012  0.2144
 2093SOL    HW2 8402   3.390   0.501   3.576 -0.8946  0.1358  0.2524
 2093SOL    HW3 8403   3.314   0.449   3.455 -0.9547  1.1569 -0.1548
 2093SOL    MW4 8404   3.373   0.503   3.490 -0.4464  0.3923  0.1707
 2094SOL     OW 8405   3.398   0.778   3.393  0.0557  0.0435 -0.6280
 2094SOL    HW2 8406   3.476   0.811   3.436 -0.2623  1.4192 -1.0664
 2094SOL    HW3 8407   3.375   0.699   3.441  1.5450 -0.2125 -0.3231
 2094SOL    MW4 8408   3.405   0.772   3.405  0.2102  0.1912 -0.6456
 2095SOL     OW 8409   3.148   0.890   3.478 -0.1469  0.3672 -0.7434
 2095SOL    HW2 8410   3.139   0.984   3.461  2.1828  1.0795  1.5025
 2095SOL    HW3 8411   3.233   0.867   3.439  0.6885 -0.1040  1.2928
 2095SOL    MW4 8412   3.158   0.900   3.471  0.2707  0.3990 -0.1785
 2096SOL     OW 8413   3.107   1.150   3.398 -0.2750  0.1830  0.1614
 2096SOL    HW2 8414   3.185   1.201   3.422 -0.1744  0.2792 -0.3568
 2096SOL    HW3 8415   3.120   1.130   3.305 -0.0411 -1.2779  0.4964
 2096SOL    MW4 8416   3.119   1.154   3.389 -0.2309  0.0029  0.1372
 2097SOL     OW 8417   3.315   1.291   3.492  0.4419  0.1730 -0.1621
 2097SOL    HW2 8418   3.388   1.248   3.447 -0.3571  0.1745 -1.4927
 2097SOL    HW3 8419   3.313   1.379   3.455  1.7635  1.2377  2.2004
 2097SOL    MW4 8420   3.324   1.297   3.481  0.5108  0.3137 -0.0260
 2098SOL     OW 8421   3.343   1.549   3.397  0.1856 -0.1308 -0.1675
 2098SOL    HW2 8422   3.427   1.590   3.420 -0.0662  0.6668 -0.6579
 2098SOL    HW3 8423   3.278   1.600   3.445 -0.0674 -0.4198 -0.2068
 2098SOL    MW4 8424   3.346   1.561   3.406  0.1190 -0.0637 -0.2374
 2099SOL     OW 8425   3.137   1.680   3.521 -0.7995  0.0747  0.2256
 2099SOL    HW2 8426   3.126   1.771   3.491 -0.8322  0.4352  1.3270
 2099SOL    HW3 8427   3.061   1.634   3.485 -0.5448  0.3808 -0.7237
 2099SOL    MW4 8428   3.126   1.686   3.512 -0.7702  0.1626  0.2457
 2100SOL     OW 8429   3.150   1.944   3.436  0.1816  0.1116 -0.0394
 2100SOL    HW2 8430   3.071   1.990   3.464  0.0561 -0.5994  0.7942
 2100SOL    HW3 8431   3.145   1.944   3.340 -0.0102  1.4786 -0.0435
 2100SOL    MW4 8432   3.139   1.950   3.427  0.1397  0.1982  0.0700
 2101SOL     OW 8433   3.359   2.063   3.552 -0.3779 -0.2417  0.1291
 2101SOL    HW2 8434   3.370   2.152   3.518 -1.3079 -0.2839 -0.2944
 2101SOL    HW3 8435   3.276   2.033   3.516 -0.4518 -0.9984  0.8932
 2101SOL    MW4 8436   3.349   2.071   3.543 -0.5103 -0.3471  0.1741
 2102SOL     OW 8437   3.361   2.293   3.405  0.4316  0.7102 -0.2808
 2102SOL    HW2 8438   3.429   2.358   3.418  0.2513  0.9266 -0.4130
 2102SOL    HW3 8439   3.281   2.335   3.437  0.0909  1.0251 -1.5255
 2102SOL    MW4 8440   3.359   2.307   3.411  0.3629  0.7803 -0.4625
 2103SOL     OW 8441   3.120   2.428   3.466 -0.0221 -0.0295  0.0084
 2103SOL    HW2 8442   3.117   2.520   3.439  0.2186 -0.3098 -0.9985
 2103SOL    HW3 8443   3.046   2.387   3.421  0.6050 -0.5802 -0.5255
 2103SOL    MW4 8444   3.110   2.435   3.456  0.0924 -0.1391 -0.1949
 2104SOL     OW 8445   3.106   2.691   3.400  0.0132  0.0273 -0.1611
 2104SOL    HW2 8446   3.185   2.720   3.444  0.7656 -0.9962 -0.8093
 2104SOL    HW3 8447   3.035   2.741   3.441  0.7811 -0.3248  1.6385
 2104SOL    MW4 8448   3.107   2.702   3.411  0.2138 -0.1542 -0.0092
 2105SOL     OW 8449   3.353   2.820   3.501  0.4603 -0.2169 -0.3167
 2105SOL    HW2 8450   3.433   2.787   3.459  0.5131 -0.7681  0.2046
 2105SOL    HW3 8451   3.347   2.911   3.474  0.8086 -0.4094 -1.0515
 2105SOL    MW4 8452   3.363   2.827   3.492  0.5133 -0.3150 -0.3449
 2106SOL     OW 8453   3.381   3.085   3.419  0.1573 -0.1072 -0.2323
 2106SOL    HW2 8454   3.455   3.139   3.448 -0.3475  0.0769  0.7258
 2106SOL    HW3 8455   3.303   3.135   3.445 -0.3032 -0.5176 -0.8279
 2106SOL    MW4 8456   3.381   3.099   3.427  0.0299 -0.1370 -0.1844
 2107SOL     OW 8457   3.170   3.238   3.500 -0.4916  0.0114  0.1105
 2107SOL    HW2 8458   3.174   3.328   3.468  0.9540  0.0181  0.2787
 2107SOL    HW3 8459   3.081   3.208   3.477 -1.4059  1.8607  1.1435
 2107SOL    MW4 8460   3.158   3.246   3.493 -0.4215  0.2563  0.2690
 2108SOL     OW 8461   3.162   3.497   3.395  0.2622  0.4359  0.4752
 2108SOL    HW2 8462   3.081   3.536   3.430  0.5393  1.3225  0.1321
 2108SOL    HW3 8463   3.156   3.510   3.301  0.9927  0.8534  0.4847
 2108SOL    MW4 8464   3.150   3.504   3.388  0.3951  0.6080  0.4312
 2109SOL     OW 8465   3.360   3.612   3.535 -0.4052 -0.0672  0.2875
 2109SOL    HW2 8466   3.372   3.698   3.495  0.7921 -0.3514 -0.0154
 2109SOL    HW3 8467   3.288   3.572   3.487 -0.0738  0.2495 -0.4770
 2109SOL    MW4 8468   3.352   3.618   3.523 -0.2035 -0.0629  0.1467
 2110SOL     OW 8469   3.379   3.861   3.386  0.3154  0.1694 -0.1283
 2110SOL    HW2 8470   3.442   3.917   3.431  0.6267  0.2658 -0.6735
 2110SOL    HW3 8471   3.294   3.898   3.409  0.4529 -0.0223  0.6926
 2110SOL    MW4 8472   3.376   3.873   3.395  0.3746  0.1568 -0.0920
 2111SOL     OW 8473   3.157   3.977   3.489  0.1236  0.2950 -0.1598
 2111SOL    HW2 8474   3.149   3.981   3.584  0.6211  0.3239 -0.1173
 2111SOL    HW3 8475   3.172   4.067   3.462 -2.4458  0.6515 -0.5042
 2111SOL    MW4 8476   3.158   3.989   3.498 -0.1497  0.3458 -0.1997
 2112SOL     OW 8477   3.168   4.245   3.411  0.4745  0.2940  0.4751
 2112SOL    HW2 8478   3.246   4.284   3.451  0.8990  0.3009 -0.3424
 2112SOL    HW3 8479   3.095   4.296   3.447  0.9380  1.1041  0.2906
 2112SOL    MW4 8480   3.169   4.257   3.421  0.5916  0.4018  0.3429
 2113SOL     OW 8481   3.372   4.390   3.518 -0.1403 -0.0195 -0.1784
 2113SOL    HW2 8482   3.372   4.402   3.613 -0.3983  1.7858 -0.3870
 2113SOL    HW3 8483   3.366   4.479   3.482 -2.6785 -0.8172 -1.8595
 2113SOL    MW4 8484   3.371   4.403   3.526 -0.5092  0.1134 -0.4277
 2114SOL     OW 8485   3.832   4.638   3.374  0.1237 -0.8654  0.1216
 2114SOL    HW2 8486   3.758   4.668   3.426  0.7291  0.0389  0.4851
 2114SOL    HW3 8487   3.802   4.645   3.284  0.3179  1.1344  0.1762
 2114SOL    MW4 8488   3.819   4.643   3.369  0.2292 -0.4823  0.1768
 2115SOL     OW 8489   3.611   0.098   3.483 -0.5730 -0.3200  0.3395
 2115SOL    HW2 8490   3.611   0.187   3.449 -0.7030  0.3027  1.9544
 2115SOL    HW3 8491   3.546   0.052   3.430  0.9408 -0.0087 -1.8648
 2115SOL    MW4 8492   3.602   0.104   3.472 -0.3904 -0.1968  0.2618
 2116SOL     OW 8493   3.600   0.377   3.373  0.5110 -0.8478  0.2078
 2116SOL    HW2 8494   3.680   0.418   3.406  0.9695  0.6034 -2.6143
 2116SOL    HW3 8495   3.531   0.412   3.430  1.2676  1.7066 -0.3921
 2116SOL    MW4 8496   3.601   0.387   3.385  0.6713 -0.3193 -0.2437
 2117SOL     OW 8497   3.835   0.485   3.496 -0.0636  0.2850 -0.2053
 2117SOL    HW2 8498   3.854   0.477   3.590  0.1547 -0.4836 -0.3168
 2117SOL    HW3 8499   3.908   0.441   3.453 -0.0391  0.8500 -0.7476
 2117SOL    MW4 8500   3.848   0.478   3.503 -0.0316  0.2582 -0.2916
 2118SOL     OW 8501   3.836   0.747   3.399  0.6199 -0.0122 -0.1382
 2118SOL    HW2 8502   3.917   0.783   3.434  0.3109  0.3893  0.1716
 2118SOL    HW3 8503   3.830   0.659   3.436  0.9716 -0.0883 -0.2588
 2118SOL    MW4 8504   3.846   0.740   3.408  0.6255  0.0307 -0.1132
 2119SOL     OW 8505   3.629   0.906   3.496 -0.2684 -0.4051 -0.1660
 2119SOL    HW2 8506   3.641   0.896   3.591 -1.7817 -1.1507 -0.0444
 2119SOL    HW3 8507   3.700   0.855   3.457 -0.7176 -1.6015  0.5572
 2119SOL    MW4 8508   3.640   0.898   3.503 -0.5273 -0.6614 -0.0545
 2120SOL     OW 8509   3.527   1.146   3.373 -0.0468  0.0781  0.1001
 2120SOL    HW2 8510   3.541   1.068   3.426 -1.1696  1.1886  2.1331
 2120SOL    HW3 8511   3.549   1.120   3.284 -0.0617 -2.4375  0.8050
 2120SOL    MW4 8512   3.531   1.132   3.368 -0.1969 -0.1073  0.4614
 2121SOL     OW 8513   3.782   1.239   3.451  0.4788  0.3916  0.5114
 2121SOL    HW2 8514   3.765   1.228   3.545 -1.0348 -1.1100  0.0809
 2121SOL    HW3 8515   3.700   1.213   3.409  1.9351 -1.3098 -1.3499
 2121SOL    MW4 8516   3.769   1.234   3.458  0.4712 -0.0310  0.2090
 2122SOL     OW 8517   3.807   1.524   3.385 -0.0214 -0.0497 -0.2328
 2122SOL    HW2 8518   3.880   1.571   3.426 -1.4164  1.4743  0.5544
 2122SOL    HW3 8519   3.811   1.436   3.423  0.5318  0.4651  0.9250
 2122SOL    MW4 8520   3.817   1.519   3.396 -0.1324  0.2193  0.0238
 2123SOL     OW 8521   3.571   1.682   3.504  0.5069 -0.3445  0.1630
 2123SOL    HW2 8522   3.574   1.772   3.471 -0.9541 -0.9741 -1.7719
 2123SOL    HW3 8523   3.648   1.640   3.465  1.1919  0.0327  1.0700
 2123SOL    MW4 8524   3.582   1.688   3.494  0.4045 -0.3778  0.0273
 2124SOL     OW 8525   3.544   1.941   3.387  0.5015  0.2979 -0.6346
 2124SOL    HW2 8526   3.617   2.001   3.404  0.1671  0.8558 -1.1475
 2124SOL    HW3 8527   3.473   1.975   3.441 -0.7284  2.3884 -3.4615
 2124SOL    MW4 8528   3.545   1.954   3.396  0.2951  0.6473 -1.0752
 2125SOL     OW 8529   3.797   2.082   3.450  0.4145 -0.2477  0.1248
 2125SOL    HW2 8530   3.805   2.082   3.545  1.5883  2.2932  0.0826
 2125SOL    HW3 8531   3.873   2.034   3.419  0.3058 -0.6339  0.4603
 2125SOL    MW4 8532   3.808   2.076   3.459  0.5550  0.0366  0.1635
 2126SOL     OW 8533   3.786   2.352   3.408  0.0879 -0.3750 -0.0497
 2126SOL    HW2 8534   3.880   2.368   3.419  0.6264 -2.6075 -1.1083
 2126SOL    HW3 8535   3.776   2.259   3.424 -1.9701 -0.1644  0.0122
 2126SOL    MW4 8536   3.797   2.342   3.411 -0.1126 -0.6418 -0.1812
 2127SOL     OW 8537   3.558   2.480   3.487 -0.4570 -0.5066 -0.0147
 2127SOL    HW2 8538   3.572   2.567   3.449 -0.9904 -0.5792 -0.3817
 2127SOL    HW3 8539   3.636   2.430   3.463 -0.8692 -0.6048 -1.1690
 2127SOL    MW4 8540   3.570   2.485   3.479 -0.5817 -0.5291 -0.2154
 2128SOL     OW 8541   3.579   2.737   3.369 -0.6943 -0.0557  0.2944
 2128SOL    HW2 8542   3.663   2.775   3.396 -0.5332  0.0141 -0.2939
 2128SOL    HW3 8543   3.586   2.729   3.274 -1.2807 -0.2329  0.2642
 2128SOL    MW4 8544   3.591   2.741   3.360 -0.7504 -0.0699  0.2128
 2129SOL     OW 8545   3.830   2.826   3.448  0.3607  0.1947  0.0006
 2129SOL    HW2 8546   3.828   2.820   3.543 -0.8759  0.0863 -0.0238
 2129SOL    HW3 8547   3.835   2.919   3.429  2.2641  0.1456  0.1825
 2129SOL    MW4 8548   3.831   2.837   3.458  0.4487  0.1739  0.0214
 2130SOL     OW 8549   3.818   3.089   3.358  0.2052 -0.1214  0.1081
 2130SOL    HW2 8550   3.886   3.141   3.401  0.6951  0.6710 -1.5796
 2130SOL    HW3 8551   3.849   3.078   3.269 -1.9123  0.3256 -0.7185
 2130SOL    MW4 8552   3.831   3.094   3.352 -0.0095  0.0421 -0.2236
 2131SOL     OW 8553   3.604   3.212   3.495  0.1093 -0.1111  0.1213
 2131SOL    HW2 8554   3.612   3.304   3.471  0.7690  0.1497  1.3153
 2131SOL    HW3 8555   3.681   3.170   3.456 -0.3938 -0.2340 -0.7509
 2131SOL    MW4 8556   3.616   3.219   3.487  0.1299 -0.0929  0.1637
 2132SOL     OW 8557   3.570   3.468   3.422 -0.2006  0.1632 -0.3297
 2132SOL    HW2 8558   3.515   3.527   3.474  0.2373  0.3408 -0.0634
 2132SOL    HW3 8559   3.530   3.469   3.335 -1.9874 -1.5319  0.4427
 2132SOL    MW4 8560   3.558   3.476   3.417 -0.3786 -0.0370 -0.1926
 2133SOL     OW 8561   3.825   3.576   3.488 -0.1168  0.0558  0.1971
 2133SOL    HW2 8562   3.827   3.577   3.584 -0.4752 -0.2227  0.2087
 2133SOL    HW3 8563   3.735   3.551   3.466  0.2500 -0.9558 -0.2006
 2133SOL    MW4 8564   3.813   3.573   3.498 -0.1157 -0.1144  0.1462
 2134SOL     OW 8565   3.792   3.816   3.365  0.0227 -0.1651 -0.0885
 2134SOL    HW2 8566   3.729   3.871   3.412  0.5488  0.5628 -0.2144
 2134SOL    HW3 8567   3.784   3.730   3.406 -1.2201 -0.1403 -0.2630
 2134SOL    MW4 8568   3.783   3.812   3.377 -0.0719 -0.0658 -0.1282
 2135SOL     OW 8569   3.611   3.981   3.501 -0.0107  0.1248  0.6158
 2135SOL    HW2 8570   3.588   3.990   3.593 -1.6656  1.1143  0.1133
 2135SOL    HW3 8571   3.603   4.069   3.465  1.0133 -0.1852 -0.3957
 2135SOL    MW4 8572   3.607   3.994   3.508 -0.0939  0.2145  0.4160
 2136SOL     OW 8573   3.579   4.252   3.408  0.1295 -0.2406 -0.0451
 2136SOL    HW2 8574   3.514   4.309   3.448  0.1758 -0.4597  0.3459
 2136SOL    HW3 8575   3.573   4.271   3.314 -1.5043 -1.3035 -0.1719
 2136SOL    MW4 8576   3.570   4.262   3.401 -0.0799 -0.4097 -0.0103
 2137SOL     OW 8577   3.808   4.379   3.494 -0.2375  0.2334 -0.1295
 2137SOL    HW2 8578   3.719   4.353   3.472 -0.0591 -0.1708 -0.3811
 2137SOL    HW3 8579   3.820   4.462   3.448  0.5301 -1.1597 -2.5903
 2137SOL    MW4 8580   3.798   4.387   3.485 -0.1127 -0.0037 -0.4874
 2138SOL     OW 8581   4.255   0.031   3.363 -0.2014  0.3318 -0.2445
 2138SOL    HW2 8582   4.268  -0.058   3.395  2.0412  1.1249  1.1813
 2138SOL    HW3 8583   4.316   0.084   3.415  0.2641  2.3388 -2.7629
 2138SOL    MW4 8584   4.265   0.027   3.374  0.1559  0.7013 -0.3886
 2139SOL     OW 8585   4.032   0.115   3.506 -0.0855 -0.2893 -0.7443
 2139SOL    HW2 8586   4.112   0.072   3.477 -0.2083 -0.4819 -0.7971
 2139SOL    HW3 8587   3.962   0.056   3.479 -0.3275  0.4631 -1.7798
 2139SOL    MW4 8588   4.033   0.102   3.499 -0.1336 -0.2154 -0.8879
 2140SOL     OW 8589   4.057   0.367   3.395  0.6891 -0.2409  0.4020
 2140SOL    HW2 8590   4.062   0.278   3.431 -0.5231 -1.0386 -1.3697
 2140SOL    HW3 8591   4.044   0.355   3.301 -0.7236  1.8004  0.3038
 2140SOL    MW4 8592   4.056   0.354   3.388  0.3428 -0.0768  0.1553
 2141SOL     OW 8593   4.287   0.493   3.517 -0.6581 -0.1822 -0.1833
 2141SOL    HW2 8594   4.286   0.580   3.478 -0.2854 -0.4778 -0.8455
 2141SOL    HW3 8595   4.218   0.445   3.471 -0.3747 -0.4583 -0.3149
 2141SOL    MW4 8596   4.278   0.498   3.506 -0.5715 -0.2576 -0.2880
 2142SOL     OW 8597   4.278   0.763   3.393  0.2878  0.5168  0.2947
 2142SOL    HW2 8598   4.366   0.794   3.412  1.4746 -2.2822 -0.4189
 2142SOL    HW3 8599   4.272   0.766   3.297  0.2189 -0.8899  0.2504
 2142SOL    MW4 8600   4.289   0.767   3.383  0.4353 -0.0381  0.1947
 2143SOL     OW 8601   4.052   0.886   3.508  0.5416  0.5206  0.2842
 2143SOL    HW2 8602   4.033   0.960   3.451  0.0678 -0.8648 -1.3639
 2143SOL    HW3 8603   4.135   0.852   3.477 -0.0059 -0.6042  0.0423
 2143SOL    MW4 8604   4.060   0.892   3.497  0.4069  0.1894  0.0348
 2144SOL     OW 8605   4.016   1.107   3.362  0.2255  0.4402  0.1013
 2144SOL    HW2 8606   4.077   1.160   3.414  0.7307  0.0233 -0.0673
 2144SOL    HW3 8607   3.929   1.131   3.395  0.5361  0.2712  1.0436
 2144SOL    MW4 8608   4.013   1.117   3.373  0.3331  0.3629  0.2034
 2145SOL     OW 8609   4.228   1.289   3.491 -0.0932  0.2382 -0.0626
 2145SOL    HW2 8610   4.227   1.377   3.453 -1.5515  0.2529 -0.0050
 2145SOL    HW3 8611   4.300   1.245   3.446 -0.4167  0.9361 -1.3008
 2145SOL    MW4 8612   4.237   1.295   3.480 -0.3283  0.3322 -0.2184
 2146SOL     OW 8613   4.215   1.550   3.358  0.4717 -0.2308 -0.2223
 2146SOL    HW2 8614   4.137   1.603   3.376  0.0130 -0.7362 -0.6576
 2146SOL    HW3 8615   4.208   1.530   3.265  1.1400 -0.2582 -0.2628
 2146SOL    MW4 8616   4.204   1.554   3.348  0.4994 -0.3011 -0.2851
 2147SOL     OW 8617   4.018   1.691   3.501  0.0402 -0.0555  0.2627
 2147SOL    HW2 8618   4.022   1.700   3.596 -0.0924  2.4149  0.0652
 2147SOL    HW3 8619   4.040   1.778   3.468 -2.5118 -0.1766 -1.9185
 2147SOL    MW4 8620   4.022   1.704   3.509 -0.3140  0.2545 -0.0512
 2148SOL     OW 8621   4.028   1.941   3.370  0.0611  0.3172 -0.1346
 2148SOL    HW2 8622   4.102   1.990   3.405  1.2638 -1.5510 -0.0055
 2148SOL    HW3 8623   4.040   1.943   3.275 -0.0348  0.4814 -0.1440
 2148SOL    MW4 8624   4.039   1.948   3.362  0.2072  0.0924 -0.1188
 2149SOL     OW 8625   4.279   2.059   3.499 -0.6264 -0.2583 -0.5175
 2149SOL    HW2 8626   4.274   2.150   3.469 -0.4248  0.2143  0.8354
 2149SOL    HW3 8627   4.359   2.025   3.458  1.0819  1.1727  1.5220
 2149SOL    MW4 8628   4.289   2.066   3.489 -0.3744 -0.0072 -0.0699
 2150SOL     OW 8629   4.278   2.296   3.362  0.0976 -0.2640 -0.5462
 2150SOL    HW2 8630   4.192   2.337   3.362  0.4603  0.5121 -0.9247
 2150SOL    HW3 8631   4.301   2.288   3.269  0.0557 -1.2761 -0.4717
 2150SOL    MW4 8632   4.270   2.300   3.350  0.1399 -0.2952 -0.5863
 2151SOL     OW 8633   4.034   2.440   3.463  0.4177  0.2486  0.2288
 2151SOL    HW2 8634   4.041   2.445   3.559 -1.3250 -0.3614  0.4132
 2151SOL    HW3 8635   4.027   2.531   3.435  0.8559  0.4272  0.7015
 2151SOL    MW4 8636   4.034   2.452   3.472  0.2456  0.1917  0.3155
 2152SOL     OW 8637   4.053   2.682   3.331 -0.3201 -0.0441 -0.2799
 2152SOL    HW2 8638   4.123   2.693   3.395 -0.0739 -1.5081 -0.2797
 2152SOL    HW3 8639   3.986   2.744   3.358  0.5401  0.6368  0.3281
 2152SOL    MW4 8640   4.054   2.692   3.343 -0.1741 -0.1474 -0.1997
 2153SOL     OW 8641   4.265   2.823   3.467  0.0232  0.0689 -0.1725
 2153SOL    HW2 8642   4.281   2.823   3.561  0.0971  1.5644 -0.1682
 2153SOL    HW3 8643   4.342   2.781   3.429  0.8269  1.0578  0.3227
 2153SOL    MW4 8644   4.277   2.818   3.474  0.1390  0.3967 -0.1066
 2154SOL     OW 8645   4.253   3.059   3.335  0.2391  0.2283 -0.5437
 2154SOL    HW2 8646   4.266   2.968   3.363 -1.8550 -0.3069 -1.2744
 2154SOL    HW3 8647   4.267   3.058   3.241  0.2057  0.6763 -0.5563
 2154SOL    MW4 8648   4.257   3.047   3.326 -0.0416  0.2168 -0.6417
 2155SOL     OW 8649   4.071   3.211   3.482  0.3474 -0.1178 -0.4129
 2155SOL    HW2 8650   4.056   3.296   3.441  0.3238  0.3051  0.4495
 2155SOL    HW3 8651   4.136   3.168   3.427  1.3942  1.0241 -0.0909
 2155SOL    MW4 8652   4.078   3.216   3.470  0.4824  0.0887 -0.2566
 2156SOL     OW 8653   4.022   3.447   3.344  0.3372 -0.6910 -0.2546
 2156SOL    HW2 8654   4.099   3.499   3.367  0.1919 -0.3845 -0.4558
 2156SOL    HW3 8655   3.950   3.487   3.392  0.3271 -1.0554  0.0315
 2156SOL    MW4 8656   4.023   3.459   3.353  0.3167 -0.6986 -0.2434
 2157SOL     OW 8657   4.258   3.580   3.436 -0.0600 -0.2808  0.3201
 2157SOL    HW2 8658   4.239   3.569   3.529  1.1000 -0.0393  0.5986
 2157SOL    HW3 8659   4.243   3.673   3.419  1.0564 -0.0420  0.5947
 2157SOL    MW4 8660   4.254   3.591   3.446  0.2404 -0.2174  0.3931
 2158SOL     OW 8661   4.245   3.868   3.387  0.2786 -0.5343  0.1535
 2158SOL    HW2 8662   4.324   3.909   3.424  0.2504  0.3677 -0.7614
 2158SOL    HW3 8663   4.266   3.855   3.295 -1.1018  0.9121 -0.3815
 2158SOL    MW4 8664   4.258   3.872   3.380  0.0927 -0.2245 -0.0378
 2159SOL     OW 8665   4.009   3.978   3.482 -0.0734  0.0778 -0.2962
 2159SOL    HW2 8666   4.097   3.950   3.458 -0.0528 -0.4111  0.3356
 2159SOL    HW3 8667   3.950   3.922   3.431 -0.0239 -0.5500  0.3241
 2159SOL    MW4 8668   4.013   3.967   3.472 -0.0642 -0.0695 -0.1310
 2160SOL     OW 8669   4.059   4.266   3.392 -0.3613  0.0417  0.3854
 2160SOL    HW2 8670   4.064   4.178   3.428 -0.3335 -0.1730 -0.1470
 2160SOL    HW3 8671   3.970   4.295   3.412 -0.0340  0.3010  1.5065
 2160SOL    MW4 8672   4.048   4.258   3.400 -0.3145  0.0476  0.4631
 2161SOL     OW 8673   4.295   4.433   3.453 -0.1380  0.3199  0.5185
 2161SOL    HW2 8674   4.311   4.412   3.545  0.7427  1.4725  0.6546
 2161SOL    HW3 8675   4.216   4.385   3.430  0.7826 -1.6212  1.2883
 2161SOL    MW4 8676   4.287   4.424   3.462  0.0996  0.2159  0.6380
 2162SOL     OW 8677   0.257   4.646   3.854 -0.4267 -0.4031  0.3476
 2162SOL    HW2 8678   0.262   4.657   3.949  0.0203  0.8180  0.1875
 2162SOL    HW3 8679   0.180   4.696   3.828  1.6391  2.5082 -0.3837
 2162SOL    MW4 8680   0.248   4.654   3.863 -0.0952  0.1421  0.2300
 2163SOL     OW 8681   0.048   0.137   3.778 -0.0577  0.0830  0.4678
 2163SOL    HW2 8682   0.034   0.223   3.819 -2.1320 -0.9345  2.0234
 2163SOL    HW3 8683   0.038   0.153   3.684 -1.7123  1.3394  0.8287
 2163SOL    MW4 8684   0.045   0.151   3.771 -0.5497  0.1145  0.7207
 2164SOL     OW 8685   0.025   0.379   3.912  0.4209 -0.1175 -0.5188
 2164SOL    HW2 8686  -0.053   0.416   3.873 -0.2927 -2.4871 -1.4318
 2164SOL    HW3 8687   0.096   0.437   3.884 -0.8832  1.6126 -0.3104
 2164SOL    MW4 8688   0.024   0.391   3.903  0.1547 -0.2019 -0.6118
 2165SOL     OW 8689   0.255   0.506   3.762  0.1287  0.3628  0.0703
 2165SOL    HW2 8690   0.240   0.598   3.782 -0.8424  0.4513 -0.9503
 2165SOL    HW3 8691   0.241   0.500   3.667 -1.8034 -1.1801  0.4038
 2165SOL    MW4 8692   0.251   0.517   3.752 -0.2544  0.1709 -0.0204
 2166SOL     OW 8693   0.252   0.754   3.868  0.0270 -0.0765  0.1699
 2166SOL    HW2 8694   0.251   0.731   3.960  0.2870 -2.0532 -0.2995
 2166SOL    HW3 8695   0.176   0.810   3.856 -1.4998 -1.9319  1.0553
 2166SOL    MW4 8696   0.242   0.758   3.878 -0.1402 -0.5821  0.2248
 2167SOL     OW 8697   0.024   0.898   3.766 -0.0371  0.2795 -0.3875
 2167SOL    HW2 8698  -0.056   0.866   3.807 -0.4470  1.5847 -0.1206
 2167SOL    HW3 8699   0.040   0.983   3.809  0.6813  0.6927 -1.4561
 2167SOL    MW4 8700   0.016   0.905   3.777  0.0036  0.5062 -0.4932
 2168SOL     OW 8701   0.033   1.150   3.879 -0.1437  0.0648 -0.7317
 2168SOL    HW2 8702  -0.052   1.188   3.856 -0.5079  0.2389  0.8601
 2168SOL    HW3 8703   0.095   1.195   3.821 -0.9417  1.0424 -0.8468
 2168SOL    MW4 8704   0.030   1.161   3.868 -0.2970  0.2168 -0.5369
 2169SOL     OW 8705   0.228   1.269   3.735  0.1187  0.8185 -0.4257
 2169SOL    HW2 8706   0.221   1.357   3.773  1.8167  0.9606 -0.4019
 2169SOL    HW3 8707   0.242   1.283   3.642  0.4098  0.5717 -0.4210
 2169SOL    MW4 8708   0.229   1.282   3.728  0.3812  0.8046 -0.4219
 2170SOL     OW 8709   0.248   1.523   3.839  0.4254 -0.1666 -0.1520
 2170SOL    HW2 8710   0.239   1.509   3.934 -0.0675  1.3524  0.0355
 2170SOL    HW3 8711   0.181   1.588   3.818  0.8416 -0.1585 -1.4763
 2170SOL    MW4 8712   0.238   1.529   3.849  0.4153  0.0349 -0.3020
 2171SOL     OW 8713   0.003   1.639   3.730 -0.0382 -0.3430 -0.1850
 2171SOL    HW2 8714   0.032   1.721   3.769 -0.3319  0.1234 -0.9317
 2171SOL    HW3 8715   0.003   1.656   3.636 -0.8250 -0.9593 -0.3019
 2171SOL    MW4 8716   0.007   1.652   3.723 -0.1807 -0.3627 -0.2990
 2172SOL     OW 8717   0.023   1.933   3.846  0.3470  0.6706  0.1870
 2172SOL    HW2 8718   0.016   1.954   3.939  0.4424  0.4486  0.2466
 2172SOL    HW3 8719  -0.057   1.967   3.807 -0.1783 -0.1505  0.5285
 2172SOL    MW4 8720   0.012   1.940   3.853  0.2903  0.5329  0.2399
 2173SOL     OW 8721   0.245   2.033   3.722 -0.0814  0.0673 -0.0362
 2173SOL    HW2 8722   0.250   2.127   3.744 -0.9631  0.1010  0.0215
 2173SOL    HW3 8723   0.174   2.000   3.776 -1.4768 -0.1132 -1.9464
 2173SOL    MW4 8724   0.236   2.041   3.732 -0.3818  0.0479 -0.2806
 2174SOL     OW 8725   0.253   2.294   3.829 -0.4335  0.5541  0.1615
 2174SOL    HW2 8726   0.251   2.298   3.924  0.2781 -1.5560  0.2925
 2174SOL    HW3 8727   0.166   2.321   3.801 -0.9684  0.1789  1.4611
 2174SOL    MW4 8728   0.241   2.298   3.838 -0.4102  0.2262  0.3503
 2175SOL     OW 8729   0.026   2.396   3.763  0.1067 -0.0846 -0.0926
 2175SOL    HW2 8730  -0.063   2.367   3.784  0.2931 -1.5270 -1.2832
 2175SOL    HW3 8731   0.030   2.486   3.796 -1.9826  0.2028 -0.5736
 2175SOL    MW4 8732   0.015   2.404   3.770 -0.1443 -0.2370 -0.3131
 2176SOL     OW 8733   0.002   2.659   3.862 -0.1608  0.4721  0.4653
 2176SOL    HW2 8734   0.003   2.662   3.958  1.7316  1.4360  0.4320
 2176SOL    HW3 8735   0.078   2.710   3.835  0.1367 -0.9424 -1.5302
 2176SOL    MW4 8736   0.012   2.666   3.871  0.1281  0.4126  0.1976
 2177SOL     OW 8737   0.242   2.768   3.755 -0.4886  0.4481 -0.3020
 2177SOL    HW2 8738   0.329   2.746   3.787 -0.8636 -2.3227 -1.0631
 2177SOL    HW3 8739   0.251   2.774   3.660 -1.0251  0.6486 -0.3448
 2177SOL    MW4 8740   0.255   2.766   3.747 -0.6088  0.1090 -0.4081
 2178SOL     OW 8741   0.210   3.058   3.776  0.2899 -0.2779 -0.2008
 2178SOL    HW2 8742   0.223   3.061   3.871  0.9877  0.2388 -0.3010
 2178SOL    HW3 8743   0.232   2.968   3.752  0.1463 -0.4008  0.1295
 2178SOL    MW4 8744   0.215   3.046   3.786  0.3631 -0.2260 -0.1705
 2179SOL     OW 8745   0.023   3.249   3.700 -0.4426 -0.0442  0.2919
 2179SOL    HW2 8746   0.084   3.180   3.727 -1.2094 -0.7943  0.1142
 2179SOL    HW3 8747   0.015   3.239   3.606  0.0105  0.7656  0.1555
 2179SOL    MW4 8748   0.030   3.239   3.691 -0.4840 -0.0363  0.2505
 2180SOL     OW 8749   4.464   3.506   3.804 -0.2724 -0.3130 -0.0683
 2180SOL    HW2 8750   4.544   3.549   3.773 -0.7673  0.9952  0.4473
 2180SOL    HW3 8751   4.473   3.415   3.776  1.3915 -0.1709 -0.0303
 2180SOL    MW4 8752   4.476   3.500   3.796 -0.1182 -0.1217  0.0047
 2181SOL     OW 8753   0.202   3.628   3.713 -0.2253 -0.0446  0.3137
 2181SOL    HW2 8754   0.279   3.588   3.754 -0.0981 -1.1148 -0.9411
 2181SOL    HW3 8755   0.195   3.714   3.755  0.8025 -0.5056  1.4645
 2181SOL    MW4 8756   0.212   3.634   3.724 -0.0729 -0.2466  0.3000
 2182SOL     OW 8757   0.202   3.867   3.871 -0.1369  0.2770  0.3777
 2182SOL    HW2 8758   0.210   3.859   3.966 -0.0101 -0.5744  0.3037
 2182SOL    HW3 8759   0.285   3.903   3.842  1.6588 -3.7827  0.1338
 2182SOL    MW4 8760   0.214   3.871   3.880  0.1167 -0.3710  0.3357
 2183SOL     OW 8761   4.441   3.984   3.795 -0.0141 -0.0620  0.1440
 2183SOL    HW2 8762   4.368   3.930   3.824  0.0001 -0.2874 -0.2392
 2183SOL    HW3 8763   4.517   3.949   3.841 -0.2931  0.7388  1.2229
 2183SOL    MW4 8764   4.442   3.973   3.805 -0.0490  0.0139  0.2358
 2184SOL     OW 8765   4.484   4.242   3.909 -0.6330 -0.1857  0.6629
 2184SOL    HW2 8766   4.564   4.274   3.866 -0.3735  0.2293  1.4424
 2184SOL    HW3 8767   4.465   4.159   3.865  0.1548 -0.2201  0.3750
 2184SOL    MW4 8768   4.492   4.235   3.898 -0.4949 -0.1355  0.7278
 2185SOL     OW 8769   0.211   4.381   3.810 -0.3483 -0.0359  0.0197
 2185SOL    HW2 8770   0.286   4.345   3.857  0.1729 -0.1199 -0.8745
 2185SOL    HW3 8771   0.210   4.474   3.835 -0.2260 -0.1313  0.3886
 2185SOL    MW4 8772   0.220   4.389   3.820 -0.2634 -0.0596 -0.0496
 2186SOL     OW 8773   0.703   4.665   3.832  0.2439 -0.1226 -0.5958
 2186SOL    HW2 8774   0.678   4.576   3.808 -0.8874  0.0813 -0.1949
 2186SOL    HW3 8775   0.628   4.719   3.807  1.4180  0.9018 -2.0238
 2186SOL    MW4 8776   0.690   4.661   3.825  0.2496  0.0394 -0.7313
 2187SOL     OW 8777   0.477   0.142   3.736  0.0108  0.6422 -0.1681
 2187SOL    HW2 8778   0.491   0.227   3.778  1.3309 -0.1750  1.0901
 2187SOL    HW3 8779   0.401   0.105   3.782 -0.3201  0.9680 -0.4503
 2187SOL    MW4 8780   0.468   0.149   3.748  0.1413  0.5774 -0.0393
 2188SOL     OW 8781   0.477   0.380   3.875 -0.4021  0.1432  0.1782
 2188SOL    HW2 8782   0.555   0.426   3.843  0.3670 -1.9209 -1.0197
 2188SOL    HW3 8783   0.404   0.429   3.838  0.3914  0.4971 -0.9569
 2188SOL    MW4 8784   0.478   0.393   3.866 -0.1959 -0.0825 -0.1296
 2189SOL     OW 8785   0.666   0.524   3.721  0.3906  0.4095 -0.9237
 2189SOL    HW2 8786   0.743   0.475   3.752 -0.4657  0.1906  0.9417
 2189SOL    HW3 8787   0.678   0.612   3.757  0.0963  0.5618 -1.1981
 2189SOL    MW4 8788   0.678   0.529   3.730  0.2388  0.4007 -0.7138
 2190SOL     OW 8789   0.675   0.766   3.853  0.3764  0.0456  0.2037
 2190SOL    HW2 8790   0.754   0.808   3.818  0.0757 -0.0736 -0.6036
 2190SOL    HW3 8791   0.603   0.822   3.824  0.0390 -0.6311 -0.2627
 2190SOL    MW4 8792   0.676   0.779   3.845  0.2922 -0.0594  0.0357
 2191SOL     OW 8793   0.446   0.913   3.754 -0.1360 -0.0358  0.3831
 2191SOL    HW2 8794   0.441   0.995   3.803  0.1892  1.0769 -1.4108
 2191SOL    HW3 8795   0.384   0.855   3.799 -1.5746  1.7035  0.6960
 2191SOL    MW4 8796   0.437   0.916   3.767 -0.2829  0.3405  0.1877
 2192SOL     OW 8797   0.430   1.147   3.877 -0.2667  0.1232 -0.0166
 2192SOL    HW2 8798   0.512   1.189   3.854  0.1326 -1.0974 -0.9070
 2192SOL    HW3 8799   0.363   1.194   3.827  0.1150 -0.0066 -0.6519
 2192SOL    MW4 8800   0.432   1.158   3.867 -0.1636 -0.0550 -0.2179
 2193SOL     OW 8801   0.700   1.276   3.788  0.2665  0.5998  0.0627
 2193SOL    HW2 8802   0.768   1.211   3.774 -0.2826 -0.0840  0.5503
 2193SOL    HW3 8803   0.666   1.294   3.700  1.4292  1.3445 -0.2459
 2193SOL    MW4 8804   0.704   1.270   3.774  0.3475  0.6079  0.0863
 2194SOL     OW 8805   0.676   1.523   3.907  0.4696 -0.0842  0.0733
 2194SOL    HW2 8806   0.751   1.568   3.867  0.0819  1.6530  1.2713
 2194SOL    HW3 8807   0.684   1.433   3.875  1.4535  0.7157 -2.1023
 2194SOL    MW4 8808   0.687   1.517   3.897  0.5482  0.2505 -0.0557
 2195SOL     OW 8809   0.475   1.648   3.741 -0.2018 -0.0137 -0.0985
 2195SOL    HW2 8810   0.545   1.604   3.789  1.0440 -0.9406 -2.6856
 2195SOL    HW3 8811   0.396   1.596   3.760  0.5012 -1.0522  0.0078
 2195SOL    MW4 8812   0.473   1.636   3.750  0.0553 -0.2730 -0.4258
 2196SOL     OW 8813   0.450   1.891   3.877 -0.3239  0.3429  0.1369
 2196SOL    HW2 8814   0.468   1.807   3.836 -1.1253 -0.5993  1.6539
 2196SOL    HW3 8815   0.379   1.928   3.825 -1.6595 -1.0556  0.9263
 2196SOL    MW4 8816   0.443   1.885   3.865 -0.6058  0.0341  0.4412
 2197SOL     OW 8817   0.646   2.051   3.744 -0.1164 -0.6125 -0.1765
 2197SOL    HW2 8818   0.610   2.135   3.772 -0.4055 -0.4445 -1.0519
 2197SOL    HW3 8819   0.595   1.986   3.793  1.0930 -0.2437  1.6176
 2197SOL    MW4 8820   0.634   2.053   3.754  0.0050 -0.5417 -0.0553
 2198SOL     OW 8821   0.670   2.321   3.894  0.2129 -0.1952 -0.3998
 2198SOL    HW2 8822   0.748   2.341   3.843  0.6763 -0.2113  0.2925
 2198SOL    HW3 8823   0.598   2.356   3.843  0.8462  1.5741 -0.1126
 2198SOL    MW4 8824   0.671   2.328   3.881  0.3576  0.0361 -0.2706
 2199SOL     OW 8825   0.472   2.440   3.758  0.3781 -0.2883 -0.0566
 2199SOL    HW2 8826   0.392   2.396   3.788  0.9840 -0.6096  1.1154
 2199SOL    HW3 8827   0.465   2.441   3.663 -0.6448 -1.0273  0.0087
 2199SOL    MW4 8828   0.461   2.434   3.750  0.3231 -0.4282  0.1067
 2200SOL     OW 8829   0.504   2.713   3.839  0.1636  0.2077 -0.1177
 2200SOL    HW2 8830   0.497   2.624   3.804  1.1748  0.0285  0.0982
 2200SOL    HW3 8831   0.578   2.751   3.791 -0.8006  1.2268 -0.8217
 2200SOL    MW4 8832   0.513   2.706   3.828  0.1698  0.3185 -0.1821
 2201SOL     OW 8833   0.720   2.842   3.714 -0.3612 -0.0809 -0.0825
 2201SOL    HW2 8834   0.802   2.805   3.749  0.9058  2.7864  0.1156
 2201SOL    HW3 8835   0.731   2.839   3.619 -0.7371 -1.1877 -0.1003
 2201SOL    MW4 8836   0.732   2.836   3.706 -0.2437  0.1513 -0.0587
 2202SOL     OW 8837   0.676   3.106   3.779  0.4977  0.1512 -0.0812
 2202SOL    HW2 8838   0.689   3.105   3.874  1.9811 -0.0877 -0.2837
 2202SOL    HW3 8839   0.693   3.016   3.751 -1.2584 -0.0962 -0.4175
 2202SOL    MW4 8840   0.680   3.094   3.788  0.4617  0.0871 -0.1523
 2203SOL     OW 8841   0.429   3.223   3.739  0.9424 -0.3713 -0.1823
 2203SOL    HW2 8842   0.513   3.182   3.758  0.7543 -0.4203  0.5456
 2203SOL    HW3 8843   0.364   3.155   3.760  0.5655  0.6307  2.0511
 2203SOL    MW4 8844   0.431   3.208   3.744  0.8679 -0.2456  0.2084
 2204SOL     OW 8845   0.439   3.498   3.807  0.2423 -0.7283 -0.2174
 2204SOL    HW2 8846   0.528   3.514   3.778  0.0281  0.3378 -0.2989
 2204SOL    HW3 8847   0.422   3.407   3.783  0.9463 -0.6197 -1.1341
 2204SOL    MW4 8848   0.448   3.488   3.800  0.3070 -0.5733 -0.3491
 2205SOL     OW 8849   0.690   3.621   3.755 -0.2370 -0.1486  0.3701
 2205SOL    HW2 8850   0.656   3.702   3.793  0.2318  0.6724 -0.9411
 2205SOL    HW3 8851   0.705   3.642   3.663  1.3905 -1.2513  0.3598
 2205SOL    MW4 8852   0.688   3.634   3.748  0.0396 -0.1858  0.1957
 2206SOL     OW 8853   0.653   3.882   3.859 -0.3563 -0.5438  0.1528
 2206SOL    HW2 8854   0.659   3.857   3.951  0.0313  0.2239  0.3367
 2206SOL    HW3 8855   0.738   3.920   3.839 -1.1791  1.2727  0.0717
 2206SOL    MW4 8856   0.665   3.884   3.869 -0.4137 -0.2029  0.1663
 2207SOL     OW 8857   0.415   4.024   3.802 -0.3579 -0.0388  0.1605
 2207SOL    HW2 8858   0.498   3.981   3.822 -0.8235 -1.4043 -0.7831
 2207SOL    HW3 8859   0.405   4.014   3.707 -1.4668  0.3493  0.2286
 2207SOL    MW4 8860   0.425   4.017   3.792 -0.5656 -0.1678  0.0450
 2208SOL     OW 8861   0.459   4.258   3.942 -0.1317 -0.1565 -0.1592
 2208SOL    HW2 8862   0.521   4.307   3.887  0.0823 -0.3406 -0.0826
 2208SOL    HW3 8863   0.447   4.175   3.896  0.3897 -0.4893  0.2936
 2208SOL    MW4 8864   0.466   4.254   3.929 -0.0347 -0.2247 -0.0894
 2209SOL     OW 8865   0.651   4.396   3.794  0.4942 -0.4976  0.8936
 2209SOL    HW2 8866   0.742   4.374   3.812  1.2078  0.8288 -1.0088
 2209SOL    HW3 8867   0.644   4.397   3.699 -1.1665  0.8199  1.0028
 2209SOL    MW4 8868   0.662   4.393   3.784  0.3692 -0.1488  0.6570
 2210SOL     OW 8869   1.140   0.013   3.871 -0.1079 -0.0354 -0.1663
 2210SOL    HW2 8870   1.202   0.059   3.814 -0.5533 -0.2473 -0.8221
 2210SOL    HW3 8871   1.132  -0.074   3.832  0.2620 -0.4720  0.7225
 2210SOL    MW4 8872   1.147   0.008   3.859 -0.1179 -0.1209 -0.1355
 2211SOL     OW 8873   0.933   0.099   3.724 -0.3660 -0.0768  0.2256
 2211SOL    HW2 8874   1.003   0.080   3.786 -0.2787  0.6730  0.3668
 2211SOL    HW3 8875   0.855   0.062   3.764 -0.2080 -0.1066  0.5079
 2211SOL    MW4 8876   0.932   0.092   3.737 -0.3336  0.0182  0.2815
 2212SOL     OW 8877   0.894   0.369   3.782 -0.0409  0.6157 -0.0549
 2212SOL    HW2 8878   0.900   0.364   3.877 -0.8606  1.1180  0.0342
 2212SOL    HW3 8879   0.894   0.278   3.753  0.0907  0.4595  0.4318
 2212SOL    MW4 8880   0.895   0.356   3.791 -0.1317  0.6613  0.0211
 2213SOL     OW 8881   1.104   0.545   3.707  0.2613  0.2683  0.3024
 2213SOL    HW2 8882   1.176   0.489   3.737 -0.8135 -0.3851  1.7097
 2213SOL    HW3 8883   1.027   0.489   3.712 -0.3782  1.0189 -1.0470
 2213SOL    MW4 8884   1.103   0.530   3.712  0.0352  0.2811  0.3101
 2214SOL     OW 8885   1.148   0.794   3.824  0.2800 -0.0173  0.3193
 2214SOL    HW2 8886   1.146   0.797   3.919  2.2585 -0.8731  0.4013
 2214SOL    HW3 8887   1.135   0.702   3.802  0.5619  0.0627 -0.2057
 2214SOL    MW4 8888   1.146   0.782   3.833  0.5782 -0.1197  0.2609
 2215SOL     OW 8889   0.905   0.890   3.742 -0.1624 -0.3149  0.2035
 2215SOL    HW2 8890   0.985   0.842   3.763  0.1740  0.2387  0.2061
 2215SOL    HW3 8891   0.894   0.879   3.648 -0.0464 -0.3366  0.1928
 2215SOL    MW4 8892   0.914   0.882   3.732 -0.1027 -0.2447  0.2024
 2216SOL     OW 8893   0.945   1.152   3.774 -0.2462  0.6577  0.1418
 2216SOL    HW2 8894   0.940   1.159   3.870  0.6607  0.5075  0.2106
 2216SOL    HW3 8895   0.932   1.059   3.756  0.6865  0.5025  0.2131
 2216SOL    MW4 8896   0.943   1.141   3.785 -0.0035  0.6174  0.1602
 2217SOL     OW 8897   1.115   1.367   3.752  0.1393 -0.1686  0.2934
 2217SOL    HW2 8898   1.080   1.439   3.804 -1.0018 -0.6744  0.2472
 2217SOL    HW3 8899   1.057   1.293   3.771  1.0043 -0.9471 -0.0304
 2217SOL    MW4 8900   1.103   1.366   3.761  0.1028 -0.3380  0.2446
 2218SOL     OW 8901   1.083   1.622   3.885  0.3390 -0.0306 -0.1203
 2218SOL    HW2 8902   1.086   1.602   3.978 -1.0407  2.0424  0.3994
 2218SOL    HW3 8903   1.174   1.613   3.856  0.6337 -1.5910  1.2035
 2218SOL    MW4 8904   1.096   1.618   3.893  0.1959  0.0371  0.1229
 2219SOL     OW 8905   0.841   1.701   3.770 -0.1067 -0.2655  0.0566
 2219SOL    HW2 8906   0.924   1.663   3.797  0.0904  0.4770  0.5057
 2219SOL    HW3 8907   0.847   1.708   3.675  0.2117 -0.5202  0.0578
 2219SOL    MW4 8908   0.852   1.697   3.761 -0.0387 -0.2011  0.1160
 2220SOL     OW 8909   0.878   1.966   3.872 -0.0484 -0.0235  0.0843
 2220SOL    HW2 8910   0.877   1.889   3.815 -0.2851 -0.4072  0.6039
 2220SOL    HW3 8911   0.798   2.014   3.849 -0.7102 -0.7472  0.8690
 2220SOL    MW4 8912   0.867   1.962   3.861 -0.1669 -0.1696  0.2564
 2221SOL     OW 8913   1.134   2.053   3.774 -0.3525  0.8763  0.4300
 2221SOL    HW2 8914   1.051   2.016   3.806  0.3950 -1.8025 -0.5564
 2221SOL    HW3 8915   1.128   2.045   3.679  1.1294  0.3946  0.3591
 2221SOL    MW4 8916   1.122   2.047   3.766 -0.0583  0.4593  0.2905
 2222SOL     OW 8917   1.128   2.304   3.893  0.3509 -0.3088  0.6634
 2222SOL    HW2 8918   1.150   2.224   3.846  2.2172  0.4595  0.1751
 2222SOL    HW3 8919   1.134   2.280   3.986 -1.6576 -1.3771  0.5526
 2222SOL    MW4 8920   1.132   2.290   3.899  0.3321 -0.3484  0.5844
 2223SOL     OW 8921   0.901   2.393   3.738  0.3413 -0.3131  0.2281
 2223SOL    HW2 8922   0.909   2.486   3.757 -0.9431 -0.2146  0.3520
 2223SOL    HW3 8923   0.978   2.353   3.778  0.6917  0.6428  0.5173
 2223SOL    MW4 8924   0.912   2.400   3.746  0.2181 -0.1740  0.2826
 2224SOL     OW 8925   0.953   2.659   3.813  0.2594 -0.2125  0.4425
 2224SOL    HW2 8926   0.940   2.664   3.908 -2.1169 -0.4352  0.1494
 2224SOL    HW3 8927   1.028   2.716   3.797  1.1825 -0.7703  2.5443
 2224SOL    MW4 8928   0.961   2.667   3.824  0.0676 -0.3154  0.6811
 2225SOL     OW 8929   1.160   2.873   3.733  0.0431  0.0689  0.0694
 2225SOL    HW2 8930   1.229   2.838   3.789 -0.1720  1.3401  1.1625
 2225SOL    HW3 8931   1.155   2.966   3.757 -0.7792  0.3958 -1.3078
 2225SOL    MW4 8932   1.169   2.881   3.744 -0.0938  0.2797  0.0320
 2226SOL     OW 8933   1.162   3.145   3.822  0.3158 -0.1871  0.3547
 2226SOL    HW2 8934   1.230   3.201   3.786  0.6901 -0.1888  1.0498
 2226SOL    HW3 8935   1.080   3.189   3.799  0.6330  1.0359  1.5196
 2226SOL    MW4 8936   1.160   3.158   3.814  0.4070 -0.0260  0.6001
 2227SOL     OW 8937   0.917   3.236   3.701  0.0708  0.4687  0.2086
 2227SOL    HW2 8938   0.838   3.183   3.698  0.7194 -0.5353  0.4154
 2227SOL    HW3 8939   0.955   3.228   3.613  0.4532  0.1384  0.4015
 2227SOL    MW4 8940   0.912   3.228   3.689  0.2068  0.2927  0.2613
 2228SOL     OW 8941   0.889   3.471   3.860 -0.2512 -0.4175 -0.1565
 2228SOL    HW2 8942   0.895   3.388   3.814  0.0584  0.3008 -1.4347
 2228SOL    HW3 8943   0.815   3.517   3.820 -1.1076 -0.5090  1.2758
 2228SOL    MW4 8944   0.880   3.466   3.849 -0.3233 -0.3348 -0.1361
 2229SOL     OW 8945   1.119   3.593   3.768 -0.3023 -0.6701  0.0263
 2229SOL    HW2 8946   1.117   3.683   3.801 -1.0477  0.4084 -2.7877
 2229SOL    HW3 8947   1.031   3.559   3.786 -0.3087 -0.5237  0.2715
 2229SOL    MW4 8948   1.107   3.600   3.775 -0.4015 -0.5085 -0.3126
 2230SOL     OW 8949   1.123   3.864   3.873  0.2970 -0.5219 -0.1377
 2230SOL    HW2 8950   1.194   3.919   3.839  1.3483 -2.1327 -0.5833
 2230SOL    HW3 8951   1.117   3.888   3.966  1.7050 -0.6749  0.0001
 2230SOL    MW4 8952   1.132   3.875   3.881  0.6215 -0.7546 -0.1783
 2231SOL     OW 8953   0.906   4.008   3.775 -0.3888  0.6768  0.4458
 2231SOL    HW2 8954   0.983   3.968   3.817  0.2559  1.7184  0.2787
 2231SOL    HW3 8955   0.933   4.022   3.684 -1.2013 -0.0368  0.0857
 2231SOL    MW4 8956   0.920   4.004   3.769 -0.4109  0.7201  0.3763
 2232SOL     OW 8957   0.898   4.280   3.852  0.4754 -0.5142 -0.1208
 2232SOL    HW2 8958   0.916   4.257   3.943  2.7245  1.4362 -0.0301
 2232SOL    HW3 8959   0.910   4.197   3.804 -1.5172 -1.7270  1.4062
 2232SOL    MW4 8960   0.902   4.266   3.857  0.5092 -0.4169  0.0926
 2233SOL     OW 8961   1.106   4.434   3.754  0.0038 -0.1830 -0.2354
 2233SOL    HW2 8962   1.029   4.380   3.771 -1.0676  1.4713  0.2553
 2233SOL    HW3 8963   1.118   4.428   3.659 -0.2355 -1.1043 -0.2129
 2233SOL    MW4 8964   1.098   4.426   3.744 -0.1691 -0.0863 -0.1677
 2234SOL     OW 8965   1.533   4.418   3.755 -0.0343  0.3328 -0.3692
 2234SOL    HW2 8966   1.534   4.501   3.803 -0.0228  0.1289 -0.0236
 2234SOL    HW3 8967   1.614   4.374   3.781  0.5150  0.7141 -1.4164
 2234SOL    MW4 8968   1.544   4.423   3.765  0.0397  0.3562 -0.4617
 2235SOL     OW 8969   1.343   0.163   3.691 -0.0565 -0.2629  0.5487
 2235SOL    HW2 8970   1.330   0.247   3.736  0.2499  0.1389 -0.0966
 2235SOL    HW3 8971   1.418   0.123   3.736  2.1501  1.4584 -1.4244
 2235SOL    MW4 8972   1.352   0.169   3.703  0.2751  0.0172  0.2032
 2236SOL     OW 8973   1.312   0.401   3.797  0.1561 -0.3959 -0.3473
 2236SOL    HW2 8974   1.324   0.382   3.890  0.2261 -1.0669 -0.4952
 2236SOL    HW3 8975   1.393   0.445   3.771 -0.3401  0.8615  0.1854
 2236SOL    MW4 8976   1.324   0.404   3.806  0.0999 -0.3185 -0.2965
 2237SOL     OW 8977   1.578   0.500   3.730 -0.0770  0.0656 -0.1753
 2237SOL    HW2 8978   1.644   0.446   3.773 -1.0069 -0.5745  0.4606
 2237SOL    HW3 8979   1.598   0.589   3.757  2.1069  0.2082 -2.0476
 2237SOL    MW4 8980   1.590   0.504   3.739  0.0884 -0.0000 -0.3384
 2238SOL     OW 8981   1.603   0.778   3.842  0.3111  0.3721 -0.1289
 2238SOL    HW2 8982   1.673   0.839   3.819  1.1605 -1.0249 -1.3144
 2238SOL    HW3 8983   1.523   0.828   3.826  1.0068  1.5574  0.0181
 2238SOL    MW4 8984   1.602   0.793   3.837  0.5149  0.3442 -0.2659
 2239SOL     OW 8985   1.383   0.925   3.738  0.0699 -0.2709 -0.4498
 2239SOL    HW2 8986   1.365   1.011   3.776 -1.0655 -1.1740  1.0834
 2239SOL    HW3 8987   1.310   0.871   3.765  1.2176 -1.9606 -0.6706
 2239SOL    MW4 8988   1.371   0.929   3.746  0.0715 -0.6130 -0.2766
 2240SOL     OW 8989   1.333   1.182   3.823  0.2737  0.0578  0.1010
 2240SOL    HW2 8990   1.403   1.231   3.781 -1.2455  0.6163 -1.8749
 2240SOL    HW3 8991   1.254   1.232   3.803 -0.7469 -0.7439  1.9866
 2240SOL    MW4 8992   1.332   1.195   3.815 -0.0614  0.0257  0.0891
 2241SOL     OW 8993   1.546   1.306   3.711  0.2676  0.1586  0.1661
 2241SOL    HW2 8994   1.596   1.249   3.769 -0.3031 -0.9351 -0.4138
 2241SOL    HW3 8995   1.559   1.394   3.748  0.4250 -0.4390  1.5747
 2241SOL    MW4 8996   1.554   1.310   3.724  0.2130 -0.0645  0.2754
 2242SOL     OW 8997   1.596   1.544   3.831 -0.0951  0.3444  0.2165
 2242SOL    HW2 8998   1.596   1.572   3.922  0.8209 -1.6081  0.8533
 2242SOL    HW3 8999   1.667   1.593   3.790  0.7185 -0.1572  1.0143
 2242SOL    MW4 9000   1.605   1.554   3.837  0.1331  0.0206  0.4058
 2243SOL     OW 9001   1.352   1.652   3.795  0.0941 -0.2139  0.0008
 2243SOL    HW2 9002   1.345   1.733   3.845 -0.8508 -1.3834  1.8015
 2243SOL    HW3 9003   1.443   1.624   3.805  0.1116 -0.0151  0.3788
 2243SOL    MW4 9004   1.363   1.659   3.803 -0.0283 -0.3420  0.2882
 2244SOL     OW 9005   1.352   1.913   3.875 -0.2540 -0.0935 -0.6012
 2244SOL    HW2 9006   1.342   1.913   3.970  0.9895  2.1857 -0.4392
 2244SOL    HW3 9007   1.274   1.958   3.843 -0.0515  0.2757 -0.5764
 2244SOL    MW4 9008   1.340   1.919   3.884 -0.0632  0.2559 -0.5765
 2245SOL     OW 9009   1.540   2.064   3.756 -0.0200 -0.0765 -0.1008
 2245SOL    HW2 9010   1.463   2.017   3.788 -0.4901 -0.0529 -1.1534
 2245SOL    HW3 9011   1.542   2.044   3.662  0.8470  0.5062 -0.2086
 2245SOL    MW4 9012   1.530   2.055   3.748  0.0324  0.0035 -0.2539
 2246SOL     OW 9013   1.334   2.466   3.759 -0.3601 -0.3968 -0.6084
 2246SOL    HW2 9014   1.408   2.418   3.797 -1.1286 -0.5123  0.7861
 2246SOL    HW3 9015   1.257   2.419   3.791 -1.0621  0.4874 -1.0024
 2246SOL    MW4 9016   1.334   2.453   3.769 -0.5541 -0.2954 -0.4764
 2247SOL     OW 9017   1.359   2.732   3.853 -0.3089  0.0481 -0.4365
 2247SOL    HW2 9018   1.341   2.638   3.841  1.4336 -0.2952 -0.5243
 2247SOL    HW3 9019   1.362   2.744   3.948 -1.9682  0.3055 -0.4160
 2247SOL    MW4 9020   1.357   2.721   3.864 -0.2980  0.0368 -0.4454
 2248SOL     OW 9021   2.284   2.248   4.242 -0.3294 -0.6469  0.4859
 2248SOL    HW2 9022   2.209   2.293   4.204  0.4512 -0.6990 -1.1373
 2248SOL    HW3 9023   2.329   2.316   4.292 -0.6543 -0.2785  0.2885
 2248SOL    MW4 9024   2.280   2.263   4.244 -0.2692 -0.6052  0.2457
 2249SOL     OW 9025   1.581   2.872   3.768 -0.0156  0.2833 -0.6563
 2249SOL    HW2 9026   1.570   2.880   3.673  0.1673 -0.8615 -0.7738
 2249SOL    HW3 9027   1.505   2.822   3.797  0.4151 -0.1818 -0.3248
 2249SOL    MW4 9028   1.569   2.867   3.759  0.0654  0.0709 -0.6281
 2250SOL     OW 9029   1.592   3.142   3.855 -0.5001  0.4161 -0.0480
 2250SOL    HW2 9030   1.595   3.129   3.950 -0.4353  1.5820  0.1197
 2250SOL    HW3 9031   1.588   3.053   3.818 -1.2925 -0.0200  1.0646
 2250SOL    MW4 9032   1.592   3.128   3.863 -0.5961  0.5124  0.1209
 2251SOL     OW 9033   1.392   3.266   3.721 -0.5662 -0.1138 -0.0502
 2251SOL    HW2 9034   1.384   3.335   3.787  2.2763 -0.3694  0.6323
 2251SOL    HW3 9035   1.467   3.215   3.749 -1.0122 -1.9161 -2.0026
 2251SOL    MW4 9036   1.401   3.269   3.733 -0.2500 -0.3853 -0.2178
 2252SOL     OW 9037   1.339   3.474   3.881 -0.2179  0.0850 -0.5088
 2252SOL    HW2 9038   1.406   3.537   3.854 -0.2699  0.1040 -0.5920
 2252SOL    HW3 9039   1.257   3.512   3.851 -0.2876  0.1622 -0.2211
 2252SOL    MW4 9040   1.337   3.488   3.874 -0.2340  0.0977 -0.4818
 2253SOL     OW 9041   1.552   3.663   3.773  0.1690 -0.1366  0.2508
 2253SOL    HW2 9042   1.629   3.632   3.821 -0.6613 -0.4834  1.3742
 2253SOL    HW3 9043   1.539   3.752   3.805  0.2527  0.0144 -0.1326
 2253SOL    MW4 9044   1.561   3.671   3.784  0.0705 -0.1624  0.3484
 2254SOL     OW 9045   1.538   3.931   3.900 -0.4374 -0.3721 -0.1752
 2254SOL    HW2 9046   1.545   3.941   3.995 -0.1912 -1.0337 -0.1236
 2254SOL    HW3 9047   1.462   3.985   3.876  0.2953  0.8567  0.2232
 2254SOL    MW4 9048   1.529   3.939   3.909 -0.3082 -0.2973 -0.1158
 2255SOL     OW 9049   1.309   4.050   3.782 -0.0096  0.5950 -0.4479
 2255SOL    HW2 9050   1.311   4.141   3.813  1.5689  0.4232 -0.0347
 2255SOL    HW3 9051   1.323   4.056   3.688  1.1511  0.7092 -0.2705
 2255SOL    MW4 9052   1.311   4.063   3.774  0.3518  0.5874 -0.3700
 2256SOL     OW 9053   1.320   4.299   3.881  0.0874  0.4578 -0.6745
 2256SOL    HW2 9054   1.399   4.338   3.843  0.0950  0.1862 -0.9404
 2256SOL    HW3 9055   1.250   4.358   3.854  0.1863  0.6518 -0.5111
 2256SOL    MW4 9056   1.321   4.312   3.872  0.1014  0.4476 -0.6880
 2257SOL     OW 9057   1.559   4.387   3.464  0.5320 -0.1178  0.3160
 2257SOL    HW2 9058   1.553   4.473   3.421  2.7010 -0.2357 -0.2509
 2257SOL    HW3 9059   1.551   4.407   3.557  0.9009  0.6949  0.1790
 2257SOL    MW4 9060   1.557   4.401   3.470  0.8669 -0.0261  0.2231
 2258SOL     OW 9061   1.798   0.106   3.733  0.0561  0.0057  0.1230
 2258SOL    HW2 9062   1.816   0.200   3.738 -0.0237  0.0653 -0.6159
 2258SOL    HW3 9063   1.862   0.067   3.792  0.7213  0.4540 -0.2773
 2258SOL    MW4 9064   1.809   0.113   3.741  0.1334  0.0727 -0.0273
 2259SOL     OW 9065   1.548   0.021   3.823 -0.2095  0.1018 -0.1306
 2259SOL    HW2 9066   1.635   0.050   3.798 -0.4164  0.8957  0.0611
 2259SOL    HW3 9067   1.544   0.032   3.918  0.2541 -2.0549  0.1731
 2259SOL    MW4 9068   1.559   0.026   3.832 -0.1756 -0.0780 -0.0652
 2260SOL     OW 9069   1.800   0.361   4.120  0.5221 -0.0375  0.2592
 2260SOL    HW2 9070   1.871   0.394   4.175  1.0027 -2.1760  0.9948
 2260SOL    HW3 9071   1.771   0.282   4.165 -0.7866 -0.4354 -1.2582
 2260SOL    MW4 9072   1.805   0.355   4.133  0.4128 -0.3722  0.1561
 2261SOL     OW 9073   2.020   0.502   3.758 -0.0882  0.1256  0.2662
 2261SOL    HW2 9074   2.089   0.450   3.800  0.4681  0.1670 -0.6028
 2261SOL    HW3 9075   2.033   0.489   3.664 -1.0835  0.3698  0.0824
 2261SOL    MW4 9076   2.031   0.493   3.751 -0.1461  0.1633  0.1273
 2262SOL     OW 9077   1.993   0.747   3.882  0.3194 -0.1621 -0.2051
 2262SOL    HW2 9078   2.006   0.738   3.976 -0.1007  0.0416 -0.1234
 2262SOL    HW3 9079   2.003   0.658   3.848 -0.2228 -0.3562  0.1258
 2262SOL    MW4 9080   1.996   0.734   3.890  0.1924 -0.1609 -0.1507
 2263SOL     OW 9081   1.814   0.930   3.794 -0.0086 -0.2500 -0.0456
 2263SOL    HW2 9082   1.863   0.859   3.834  0.4413 -0.0870 -0.3022
 2263SOL    HW3 9083   1.819   0.913   3.700 -1.0482 -0.6247 -0.0340
 2263SOL    MW4 9084   1.821   0.918   3.786 -0.0864 -0.2779 -0.0779
 2264SOL     OW 9085   1.710   1.177   3.880 -0.1060  0.6281  0.1822
 2264SOL    HW2 9086   1.704   1.173   3.975 -1.0098  0.1365  0.1175
 2264SOL    HW3 9087   1.741   1.091   3.854  0.9446  1.0333  0.0787
 2264SOL    MW4 9088   1.713   1.166   3.889 -0.0866  0.6167  0.1600
 2265SOL     OW 9089   1.963   1.275   3.837  0.1852  0.4793  0.5182
 2265SOL    HW2 9090   2.033   1.220   3.872  0.5028 -0.4146 -1.4574
 2265SOL    HW3 9091   1.883   1.228   3.857  0.3917 -0.2301 -0.2905
 2265SOL    MW4 9092   1.962   1.262   3.844  0.2543  0.2677  0.1509
 2266SOL     OW 9093   2.012   1.537   3.860  0.0026  0.6154 -0.0352
 2266SOL    HW2 9094   1.936   1.585   3.827 -1.6780 -1.0034  1.4101
 2266SOL    HW3 9095   1.996   1.446   3.835  0.5695 -0.0273  1.8644
 2266SOL    MW4 9096   2.000   1.532   3.852 -0.1444  0.3170  0.4061
 2267SOL     OW 9097   1.814   1.679   3.723  0.0760 -0.4750 -0.0083
 2267SOL    HW2 9098   1.782   1.764   3.754 -0.0699 -0.5043 -0.0773
 2267SOL    HW3 9099   1.807   1.685   3.627 -0.6872 -0.8586  0.0161
 2267SOL    MW4 9100   1.809   1.691   3.714 -0.0439 -0.5295 -0.0142
 2268SOL     OW 9101   1.759   1.929   3.845 -0.2810 -0.0388 -0.1163
 2268SOL    HW2 9102   1.683   1.986   3.831 -0.3417  0.0931  0.7037
 2268SOL    HW3 9103   1.775   1.933   3.939  1.1306  0.4057 -0.3653
 2268SOL    MW4 9104   1.751   1.937   3.855 -0.1027  0.0372 -0.0409
 2269SOL     OW 9105   1.981   2.069   3.751  0.5180  0.3999 -0.1129
 2269SOL    HW2 9106   1.905   2.030   3.793  1.0787 -2.6639 -1.8182
 2269SOL    HW3 9107   2.001   2.146   3.804 -2.5537  0.1489  1.4962
 2269SOL    MW4 9108   1.973   2.074   3.763  0.1867 -0.0374 -0.1256
 2270SOL     OW 9109   1.811   2.475   3.775 -0.2430 -0.2873 -0.0325
 2270SOL    HW2 9110   1.835   2.481   3.683 -0.3036  0.0687 -0.0247
 2270SOL    HW3 9111   1.793   2.565   3.801  0.4697 -0.2924  0.5059
 2270SOL    MW4 9112   1.812   2.487   3.766 -0.1570 -0.2410  0.0396
 2271SOL     OW 9113   2.018   2.318   3.884 -0.1240  0.3302 -0.2236
 2271SOL    HW2 9114   2.076   2.370   3.828 -0.1154  0.1501 -0.3833
 2271SOL    HW3 9115   1.930   2.350   3.863 -0.2376 -0.6141 -1.2908
 2271SOL    MW4 9116   2.014   2.329   3.874 -0.1378  0.1818 -0.3855
 2272SOL     OW 9117   1.144   3.377   4.598 -0.3697 -0.2430  0.0437
 2272SOL    HW2 9118   1.126   3.385   4.692 -1.2200 -0.5017 -0.0872
 2272SOL    HW3 9119   1.167   3.466   4.570 -0.0936 -0.1696  0.5051
 2272SOL    MW4 9120   1.144   3.390   4.607 -0.4455 -0.2675  0.0873
 2273SOL     OW 9121   1.804   2.740   3.859  0.1358  0.0478 -0.0472
 2273SOL    HW2 9122   1.729   2.792   3.829 -0.4975 -1.8825 -1.9713
 2273SOL    HW3 9123   1.880   2.789   3.828 -0.4364  0.1738 -1.3246
 2273SOL    MW4 9124   1.804   2.753   3.851 -0.0232 -0.1903 -0.4696
 2274SOL     OW 9125   2.057   2.866   3.766  0.2023 -0.3782  0.2551
 2274SOL    HW2 9126   2.051   2.952   3.807  1.7771 -0.5025  0.7713
 2274SOL    HW3 9127   2.120   2.818   3.820 -0.0618 -1.5889 -0.4956
 2274SOL    MW4 9128   2.065   2.871   3.778  0.3752 -0.5543  0.2241
 2275SOL     OW 9129   1.810   3.266   3.782 -0.4597  0.3387  0.3577
 2275SOL    HW2 9130   1.886   3.216   3.812 -0.8749 -1.8525 -2.0540
 2275SOL    HW3 9131   1.735   3.224   3.825 -0.6351  0.0725 -0.2011
 2275SOL    MW4 9132   1.810   3.254   3.792 -0.5376  0.0145 -0.0342
 2276SOL     OW 9133   1.778   3.540   3.892  0.2161 -0.6033 -0.4549
 2276SOL    HW2 9134   1.848   3.599   3.864 -0.3343  0.1052 -0.3657
 2276SOL    HW3 9135   1.795   3.458   3.846  1.3258 -0.5619 -0.1291
 2276SOL    MW4 9136   1.790   3.537   3.882  0.2899 -0.5044 -0.4002
 2277SOL     OW 9137   1.988   3.679   3.804  0.2342 -0.1630  0.1223
 2277SOL    HW2 9138   2.054   3.622   3.843  0.0322  0.2882  1.1402
 2277SOL    HW3 9139   1.996   3.664   3.709  1.1431 -0.8142  0.2965
 2277SOL    MW4 9140   1.998   3.670   3.796  0.3275 -0.1894  0.2796
 2278SOL     OW 9141   1.993   3.926   3.937 -0.2990  0.0193 -0.7217
 2278SOL    HW2 9142   2.064   3.973   3.893 -0.6601  0.3699 -0.9399
 2278SOL    HW3 9143   1.998   3.837   3.903  0.0869  0.0201 -0.6723
 2278SOL    MW4 9144   2.003   3.920   3.927 -0.2957  0.0657 -0.7440
 2279SOL     OW 9145   1.761   4.001   3.756 -0.1432 -0.3061  0.2242
 2279SOL    HW2 9146   1.833   3.968   3.809  0.0294 -0.4133 -0.0806
 2279SOL    HW3 9147   1.683   3.963   3.796  0.0164 -0.6775  0.1822
 2279SOL    MW4 9148   1.760   3.992   3.768 -0.0993 -0.3693  0.1784
 2280SOL     OW 9149   1.773   4.273   3.830  0.2954 -0.1261  0.2843
 2280SOL    HW2 9150   1.855   4.306   3.795  0.5558 -1.2569 -0.2029
 2280SOL    HW3 9151   1.768   4.183   3.798 -1.4814  0.1682 -0.3015
 2280SOL    MW4 9152   1.783   4.265   3.821  0.0953 -0.2365  0.1427
 2281SOL     OW 9153   2.003   4.409   3.745  0.4765  0.1080  0.0389
 2281SOL    HW2 9154   2.077   4.370   3.791  0.4094 -1.5964 -1.2295
 2281SOL    HW3 9155   2.030   4.411   3.653 -0.2999  1.2746 -0.1784
 2281SOL    MW4 9156   2.016   4.404   3.739  0.3652  0.0370 -0.1571
 2282SOL     OW 9157   2.445   0.008   3.868  0.3311 -0.4422 -0.0609
 2282SOL    HW2 9158   2.468   0.013   3.961 -0.7507  3.7416  0.0927
 2282SOL    HW3 9159   2.517   0.054   3.824 -0.2516 -0.4912 -1.0643
 2282SOL    MW4 9160   2.458   0.015   3.875  0.1115  0.1034 -0.1730
 2283SOL     OW 9161   2.212   0.106   3.758 -0.3340  0.0522 -0.1780
 2283SOL    HW2 9162   2.137   0.056   3.791  0.6436 -2.1497 -1.2112
 2283SOL    HW3 9163   2.288   0.068   3.802  0.5264 -0.0256 -1.7113
 2283SOL    MW4 9164   2.212   0.094   3.768 -0.0915 -0.2486 -0.5166
 2284SOL     OW 9165   2.212   0.359   3.876 -0.4195 -0.2383 -0.0225
 2284SOL    HW2 9166   2.210   0.354   3.971 -1.7155  0.1170 -0.0229
 2284SOL    HW3 9167   2.209   0.268   3.847 -2.1775 -0.2995  0.2629
 2284SOL    MW4 9168   2.211   0.347   3.885 -0.8224 -0.1995  0.0151
 2285SOL     OW 9169   2.442   0.517   3.796 -0.2395  0.1410  0.0179
 2285SOL    HW2 9170   2.367   0.468   3.829 -0.7303  0.4831 -0.5807
 2285SOL    HW3 9171   2.439   0.505   3.701  0.1767  0.5670 -0.0514
 2285SOL    MW4 9172   2.432   0.509   3.788 -0.2494  0.2423 -0.0702
 2286SOL     OW 9173   2.472   0.771   3.901 -0.0999  0.1838  0.0260
 2286SOL    HW2 9174   2.391   0.819   3.880  0.0457 -0.4142 -1.9991
 2286SOL    HW3 9175   2.455   0.682   3.872  1.2506  0.0295 -0.3269
 2286SOL    MW4 9176   2.459   0.766   3.895  0.0975  0.0845 -0.2878
 2287SOL     OW 9177   2.223   0.872   3.807 -0.0320  0.1154  0.4838
 2287SOL    HW2 9178   2.131   0.848   3.814 -0.5435  1.6717 -0.6840
 2287SOL    HW3 9179   2.237   0.886   3.714  1.2947  0.2643  0.6985
 2287SOL    MW4 9180   2.213   0.871   3.796  0.0756  0.3404  0.3580
 2288SOL     OW 9181   2.209   1.149   3.861  0.0502 -0.2200  0.7944
 2288SOL    HW2 9182   2.209   1.151   3.956 -2.1659 -1.3828  0.8727
 2288SOL    HW3 9183   2.207   1.055   3.839  0.3580  0.0367 -0.3715
 2288SOL    MW4 9184   2.209   1.137   3.870 -0.2016 -0.3396  0.6509
 2289SOL     OW 9185   2.438   1.296   3.763 -0.3090 -0.0370  0.1416
 2289SOL    HW2 9186   2.426   1.372   3.819 -2.0624  0.3993 -0.7785
 2289SOL    HW3 9187   2.354   1.249   3.769 -0.1025 -0.5916 -1.1891
 2289SOL    MW4 9188   2.425   1.300   3.771 -0.5131 -0.0526 -0.1553
 2290SOL     OW 9189   2.415   1.533   3.879  0.1378 -0.0420 -0.1729
 2290SOL    HW2 9190   2.490   1.579   3.843  1.4719 -1.3767  0.8380
 2290SOL    HW3 9191   2.339   1.585   3.852  1.5898  2.6945  0.8548
 2290SOL    MW4 9192   2.415   1.546   3.871  0.5054  0.1430  0.0961
 2291SOL     OW 9193   2.214   1.668   3.740 -0.0777 -0.2038  0.3333
 2291SOL    HW2 9194   2.211   1.762   3.760  0.7065 -0.1973  0.4025
 2291SOL    HW3 9195   2.133   1.634   3.778 -0.8537  0.6146 -0.5582
 2291SOL    MW4 9196   2.203   1.676   3.748 -0.0766 -0.0950  0.2248
 2292SOL     OW 9197   2.210   1.923   3.842  0.3640 -0.4643  0.4809
 2292SOL    HW2 9198   2.149   1.991   3.814  2.4744  1.3624  0.1443
 2292SOL    HW3 9199   2.214   1.932   3.937  0.2606 -0.4303  0.4818
 2292SOL    MW4 9200   2.203   1.934   3.851  0.6288 -0.2188  0.4366
 2293SOL     OW 9201   2.434   2.076   3.752  0.3818 -0.1136  0.3165
 2293SOL    HW2 9202   2.436   2.163   3.792  0.1785  0.3595 -0.6866
 2293SOL    HW3 9203   2.358   2.034   3.791  1.6583 -0.6005  2.3513
 2293SOL    MW4 9204   2.424   2.082   3.762  0.5234 -0.1154  0.4526
 2294SOL     OW 9205   2.430   2.346   3.864  0.0200  0.3868  0.1825
 2294SOL    HW2 9206   2.496   2.400   3.821  0.3211 -0.2965 -0.2225
 2294SOL    HW3 9207   2.442   2.364   3.957 -0.7381  1.9909 -0.0186
 2294SOL    MW4 9208   2.440   2.356   3.871 -0.0403  0.5083  0.1025
 2295SOL     OW 9209   2.207   2.457   3.748 -0.2105  0.4952 -0.1274
 2295SOL    HW2 9210   2.293   2.430   3.781 -0.5423  0.1494  0.4680
 2295SOL    HW3 9211   2.206   2.429   3.656  0.8940  1.8671 -0.5687
 2295SOL    MW4 9212   2.218   2.450   3.740 -0.1086  0.6306 -0.1071
 2296SOL     OW 9213   2.237   2.696   3.905  0.0207  0.4126 -0.1336
 2296SOL    HW2 9214   2.219   2.620   3.850 -1.1639  0.0866  0.6687
 2296SOL    HW3 9215   2.253   2.659   3.992  0.3896  1.0136  0.0557
 2296SOL    MW4 9216   2.237   2.681   3.909 -0.0869  0.4489 -0.0028
 2297SOL     OW 9217   2.436   2.867   3.821  0.2910 -0.1975 -0.3643
 2297SOL    HW2 9218   2.370   2.812   3.863  0.3520  0.0580  0.0734
 2297SOL    HW3 9219   2.432   2.844   3.728 -0.2321 -0.3655 -0.2979
 2297SOL    MW4 9220   2.427   2.857   3.814  0.2300 -0.1859 -0.2978
 2298SOL     OW 9221   2.466   3.137   3.932  0.5593 -0.1217 -0.1029
 2298SOL    HW2 9222   2.449   3.119   4.025  0.6197 -0.3297 -0.1296
 2298SOL    HW3 9223   2.458   3.051   3.890 -0.7352  0.1785 -0.4912
 2298SOL    MW4 9224   2.463   3.123   3.939  0.3965 -0.1095 -0.1576
 2299SOL     OW 9225   2.238   3.252   3.776  0.0293 -0.1158 -0.0043
 2299SOL    HW2 9226   2.229   3.343   3.803 -0.2586  0.1236 -0.8999
 2299SOL    HW3 9227   2.297   3.213   3.841 -0.3902  0.5337  0.7666
 2299SOL    MW4 9228   2.244   3.259   3.788 -0.0641  0.0015 -0.0208
 2300SOL     OW 9229   2.192   3.506   3.884  0.4653  0.4996  0.0048
 2300SOL    HW2 9230   2.199   3.509   3.980 -0.6518  0.5867  0.0909
 2300SOL    HW3 9231   2.276   3.540   3.853  1.5138 -1.1247  0.9389
 2300SOL    MW4 9232   2.204   3.511   3.893  0.4563  0.2968  0.1394
 2301SOL     OW 9233   2.448   3.624   3.774  0.3817  0.2416 -0.1576
 2301SOL    HW2 9234   2.535   3.599   3.805  0.2109  0.1314  0.2391
 2301SOL    HW3 9235   2.458   3.635   3.680  1.3597  2.4092  0.1481
 2301SOL    MW4 9236   2.460   3.622   3.766  0.4882  0.5130 -0.0649
 2302SOL     OW 9237   2.425   3.892   3.866  0.1520  0.1125 -0.2932
 2302SOL    HW2 9238   2.431   3.802   3.834  0.1750  0.0335 -0.0647
 2302SOL    HW3 9239   2.514   3.926   3.859 -0.1183  0.5717 -1.7074
 2302SOL    MW4 9240   2.437   3.885   3.861  0.1194  0.1626 -0.4496
 2303SOL     OW 9241   2.226   4.058   3.749 -0.3060 -0.2094  0.2699
 2303SOL    HW2 9242   2.292   4.004   3.791 -0.5469 -0.6189  0.1263
 2303SOL    HW3 9243   2.248   4.056   3.656 -1.3349 -1.5047  0.0377
 2303SOL    MW4 9244   2.237   4.051   3.742 -0.4735 -0.4343  0.2203
 2304SOL     OW 9245   2.208   4.288   3.877 -0.4449 -0.0613 -0.0689
 2304SOL    HW2 9246   2.193   4.260   3.967 -1.7514  0.5177 -0.0941
 2304SOL    HW3 9247   2.228   4.208   3.830  2.3722 -0.1415  1.1274
 2304SOL    MW4 9248   2.209   4.274   3.883 -0.2456  0.0045  0.0856
 2305SOL     OW 9249   2.419   4.415   3.773  0.5739 -0.7663 -0.1419
 2305SOL    HW2 9250   2.347   4.371   3.818  0.1739 -0.3693 -0.3847
 2305SOL    HW3 9251   2.414   4.506   3.802 -0.6128 -0.1655 -2.1117
 2305SOL    MW4 9252   2.409   4.421   3.783  0.3646 -0.6347 -0.4338
 2306SOL     OW 9253   2.868   4.657   3.885  0.1122 -0.2817  0.1100
 2306SOL    HW2 9254   2.892   4.664   3.977  0.9553 -3.2766  0.1867
 2306SOL    HW3 9255   2.947   4.680   3.837 -0.4257  1.6122  0.1020
 2306SOL    MW4 9256   2.881   4.661   3.890  0.1525 -0.4270  0.1191
 2307SOL     OW 9257   2.661   0.152   3.782 -0.1440  0.1451 -0.0289
 2307SOL    HW2 9258   2.725   0.098   3.828 -0.0959  1.2817  1.2904
 2307SOL    HW3 9259   2.681   0.141   3.690  1.4687 -0.1283  0.3451
 2307SOL    MW4 9260   2.672   0.144   3.776  0.0751  0.2590  0.1945
 2308SOL     OW 9261   2.677   0.402   3.887 -0.5463 -0.0061  0.1585
 2308SOL    HW2 9262   2.681   0.322   3.836  0.5035  0.2240 -0.1410
 2308SOL    HW3 9263   2.593   0.442   3.863 -0.0024  0.1622 -1.4844
 2308SOL    MW4 9264   2.666   0.397   3.877 -0.3360  0.0465 -0.0978
 2309SOL     OW 9265   2.917   0.519   3.790 -0.1459  0.6124 -0.2054
 2309SOL    HW2 9266   2.986   0.454   3.807 -1.0148 -0.9603 -2.4801
 2309SOL    HW3 9267   2.839   0.483   3.832 -0.3450  0.7793 -0.4336
 2309SOL    MW4 9268   2.916   0.506   3.797 -0.2868  0.4269 -0.5357
 2310SOL     OW 9269   2.909   0.776   3.885 -0.1248 -0.3315  0.0011
 2310SOL    HW2 9270   2.987   0.818   3.847  0.9586 -0.1007  2.4248
 2310SOL    HW3 9271   2.910   0.687   3.850  0.8494 -0.1371 -0.4808
 2310SOL    MW4 9272   2.919   0.770   3.875  0.1467 -0.2754  0.2573
 2311SOL     OW 9273   2.672   0.905   3.775 -0.2468 -0.2450  0.4155
 2311SOL    HW2 9274   2.746   0.859   3.815 -0.6471 -1.6428 -0.4267
 2311SOL    HW3 9275   2.595   0.858   3.806 -0.6015 -0.8951 -1.3927
 2311SOL    MW4 9276   2.672   0.893   3.784 -0.3464 -0.5152  0.0658
 2312SOL     OW 9277   2.681   1.174   3.852 -0.1769 -0.3280  0.0666
 2312SOL    HW2 9278   2.675   1.081   3.833 -0.9168 -0.4774  0.9659
 2312SOL    HW3 9279   2.608   1.213   3.803  0.5508 -0.1198 -0.8661
 2312SOL    MW4 9280   2.671   1.167   3.843 -0.1785 -0.3202  0.0622
 2313SOL     OW 9281   2.909   1.305   3.812  0.0088  0.6067 -0.2074
 2313SOL    HW2 9282   2.910   1.394   3.847  1.2757  0.1319  0.9823
 2313SOL    HW3 9283   2.822   1.271   3.835 -0.1990  1.2586 -0.0147
 2313SOL    MW4 9284   2.897   1.313   3.820  0.1485  0.6300 -0.0250
 2314SOL     OW 9285   2.906   1.592   3.880 -0.0270  0.3195  0.1365
 2314SOL    HW2 9286   2.926   1.586   3.974  0.5361 -0.8594 -0.0480
 2314SOL    HW3 9287   2.987   1.625   3.841  0.0206  0.0124 -0.0302
 2314SOL    MW4 9288   2.920   1.596   3.887  0.0535  0.1235  0.0902
 2315SOL     OW 9289   2.644   1.665   3.769  0.1658 -0.1770  0.2473
 2315SOL    HW2 9290   2.715   1.625   3.819 -0.7861 -2.1246  0.0969
 2315SOL    HW3 9291   2.672   1.661   3.678  0.3862  0.1609  0.3008
 2315SOL    MW4 9292   2.657   1.660   3.764  0.0693 -0.3894  0.2345
 2316SOL     OW 9293   2.653   1.918   3.865  0.5443  0.2579 -0.1522
 2316SOL    HW2 9294   2.660   1.825   3.841  0.7325  0.2355 -0.0205
 2316SOL    HW3 9295   2.577   1.950   3.818  0.1774 -0.0894  0.2011
 2316SOL    MW4 9296   2.644   1.910   3.856  0.5207  0.2091 -0.0882
 2317SOL     OW 9297   2.896   2.055   3.790 -0.1738  0.1716 -0.2779
 2317SOL    HW2 9298   2.885   2.148   3.813 -3.3597 -0.1470 -0.2333
 2317SOL    HW3 9299   2.827   2.010   3.838  1.2044 -2.2264 -0.4656
 2317SOL    MW4 9300   2.885   2.062   3.799 -0.4123 -0.1868 -0.2968
 2318SOL     OW 9301   2.870   2.344   3.855  0.4749 -0.0547 -0.4748
 2318SOL    HW2 9302   2.865   2.357   3.950  0.4246  0.5957 -0.5637
 2318SOL    HW3 9303   2.958   2.373   3.832  1.1452 -1.9174 -0.3761
 2318SOL    MW4 9304   2.881   2.349   3.865  0.5567 -0.2147 -0.4735
 2319SOL     OW 9305   2.654   2.477   3.760 -0.1981 -0.2096 -0.2877
 2319SOL    HW2 9306   2.657   2.558   3.811 -0.2937  0.1917 -0.9095
 2319SOL    HW3 9307   2.730   2.427   3.789  0.1986  0.3642 -0.3182
 2319SOL    MW4 9308   2.664   2.481   3.770 -0.1583 -0.0810 -0.3737
 2320SOL     OW 9309   2.661   2.713   3.907 -0.3940 -0.0014  0.1999
 2320SOL    HW2 9310   2.667   2.715   4.003 -2.7634 -1.2540  0.4077
 2320SOL    HW3 9311   2.579   2.757   3.887  1.2513  2.4447 -1.4495
 2320SOL    MW4 9312   2.651   2.719   3.917 -0.4896  0.1561  0.0097
 2321SOL     OW 9313   2.865   2.842   3.751 -0.3009 -0.1185  0.4345
 2321SOL    HW2 9314   2.865   2.927   3.795 -1.4132  0.2702 -0.2883
 2321SOL    HW3 9315   2.792   2.795   3.792 -0.0656 -0.5046  0.4087
 2321SOL    MW4 9316   2.855   2.847   3.762 -0.4166 -0.1182  0.3357
 2322SOL     OW 9317   2.893   3.092   3.874  0.1916 -0.1355 -0.4299
 2322SOL    HW2 9318   2.970   3.132   3.833  0.5713 -0.5006 -0.0696
 2322SOL    HW3 9319   2.821   3.152   3.853  0.6857  0.5360 -0.2254
 2322SOL    MW4 9320   2.893   3.105   3.866  0.3069 -0.0951 -0.3554
 2323SOL     OW 9321   2.691   3.259   3.818 -0.1238 -0.0760  0.0640
 2323SOL    HW2 9322   2.695   3.353   3.831  0.1173 -0.0923  0.0996
 2323SOL    HW3 9323   2.607   3.233   3.857  0.6879 -0.1532  1.8298
 2323SOL    MW4 9324   2.680   3.268   3.825  0.0151 -0.0884  0.3017
 2324SOL     OW 9325   2.696   3.538   3.871 -0.0770 -0.1651 -0.0757
 2324SOL    HW2 9326   2.714   3.552   3.964  1.4651 -1.5063 -0.1530
 2324SOL    HW3 9327   2.770   3.578   3.826 -0.7274  0.3191 -0.7225
 2324SOL    MW4 9328   2.708   3.545   3.877  0.0406 -0.2781 -0.1712
 2325SOL     OW 9329   2.943   3.657   3.778  0.0246 -0.0411 -0.2789
 2325SOL    HW2 9330   3.009   3.604   3.823 -0.7342 -1.4251 -0.7485
 2325SOL    HW3 9331   2.942   3.622   3.689 -0.5368  0.7257 -0.5728
 2325SOL    MW4 9332   2.951   3.645   3.772 -0.1496 -0.1225 -0.3797
 2326SOL     OW 9333   2.842   3.911   3.837  0.3090 -0.0978 -0.4733
 2326SOL    HW2 9334   2.859   3.912   3.931 -4.2187 -1.9614  0.4953
 2326SOL    HW3 9335   2.875   3.826   3.808 -0.8772 -0.7286  0.0036
 2326SOL    MW4 9336   2.849   3.900   3.846 -0.4449 -0.4269 -0.2826
 2327SOL     OW 9337   2.619   4.042   3.740 -0.0287  0.7898 -0.2008
 2327SOL    HW2 9338   2.615   4.124   3.790  0.2853  0.7153 -0.0518
 2327SOL    HW3 9339   2.703   4.003   3.765  0.5858  1.2308 -1.5341
 2327SOL    MW4 9340   2.630   4.048   3.750  0.0938  0.8382 -0.3571
 2328SOL     OW 9341   2.651   4.264   3.886 -0.2892  0.2101  0.3693
 2328SOL    HW2 9342   2.721   4.311   3.840 -0.8695 -0.5757 -1.3238
 2328SOL    HW3 9343   2.571   4.311   3.864 -0.7550 -1.0106 -0.6131
 2328SOL    MW4 9344   2.650   4.276   3.877 -0.4272 -0.0546  0.0163
 2329SOL     OW 9345   2.868   4.397   3.790  0.0993 -0.1702  0.3103
 2329SOL    HW2 9346   2.940   4.347   3.828  0.7651 -0.5305 -1.3600
 2329SOL    HW3 9347   2.871   4.482   3.833  3.3924  0.8641 -1.7671
 2329SOL    MW4 9348   2.878   4.401   3.801  0.6216 -0.0813 -0.1841
 2330SOL     OW 9349   3.328   4.631   3.914  0.0155 -0.1115  0.0634
 2330SOL    HW2 9350   3.351   4.637   4.006 -0.5575  0.6402  0.1652
 2330SOL    HW3 9351   3.402   4.671   3.868  0.7815 -1.4420  0.1258
 2330SOL    MW4 9352   3.340   4.637   3.920  0.0409 -0.1879  0.0851
 2331SOL     OW 9353   3.109   0.062   3.776  0.4175 -0.2124 -0.0459
 2331SOL    HW2 9354   3.191   0.042   3.823  0.1553 -0.0847  0.4636
 2331SOL    HW3 9355   3.131   0.048   3.684  0.4791 -2.1075  0.2200
 2331SOL    MW4 9356   3.123   0.057   3.770  0.3910 -0.4456  0.0564
 2332SOL     OW 9357   3.142   0.338   3.851 -0.3711 -0.3628 -0.3208
 2332SOL    HW2 9358   3.142   0.326   3.947 -1.9424  0.5104 -0.1976
 2332SOL    HW3 9359   3.120   0.251   3.817 -1.9956 -0.1807  0.2084
 2332SOL    MW4 9360   3.139   0.325   3.859 -0.7928 -0.2236 -0.2347
 2333SOL     OW 9361   3.386   0.451   3.766 -0.0393 -0.3681  0.1130
 2333SOL    HW2 9362   3.459   0.401   3.802 -0.2754  0.1935  1.3792
 2333SOL    HW3 9363   3.308   0.407   3.800 -0.3213 -1.2073 -1.5559
 2333SOL    MW4 9364   3.385   0.438   3.775 -0.1077 -0.4048  0.0599
 2334SOL     OW 9365   3.359   0.725   3.875 -0.0943 -0.6236 -0.0416
 2334SOL    HW2 9366   3.338   0.697   3.964  1.3293 -1.5929  0.0069
 2334SOL    HW3 9367   3.377   0.643   3.828 -0.5716 -0.1018 -1.1594
 2334SOL    MW4 9368   3.358   0.710   3.880  0.0306 -0.6826 -0.1827
 2335SOL     OW 9369   3.135   0.889   3.762  0.0809 -0.0439  0.0876
 2335SOL    HW2 9370   3.204   0.826   3.784  0.5424  0.1021 -0.9457
 2335SOL    HW3 9371   3.133   0.891   3.667 -1.4760 -0.1689  0.1098
 2335SOL    MW4 9372   3.144   0.881   3.753 -0.0636 -0.0412 -0.0458
 2336SOL     OW 9373   3.142   1.145   3.850  0.4594 -0.0377 -0.5508
 2336SOL    HW2 9374   3.140   1.055   3.819 -0.0337 -0.0645 -0.4472
 2336SOL    HW3 9375   3.060   1.183   3.817  0.6009  0.3334 -0.4797
 2336SOL    MW4 9376   3.131   1.138   3.841  0.4130  0.0077 -0.5278
 2337SOL     OW 9377   3.369   1.280   3.784  0.0386  0.5268  0.0154
 2337SOL    HW2 9378   3.291   1.234   3.815  0.7278 -0.5243  0.2280
 2337SOL    HW3 9379   3.359   1.281   3.689  0.2766 -0.5744 -0.0350
 2337SOL    MW4 9380   3.357   1.274   3.775  0.1609  0.2429  0.0368
 2338SOL     OW 9381   3.384   1.545   3.881 -0.1721 -0.0272  0.0992
 2338SOL    HW2 9382   3.305   1.591   3.852 -0.7591 -0.3139  1.2154
 2338SOL    HW3 9383   3.375   1.457   3.846 -0.2394  0.0012  0.0449
 2338SOL    MW4 9384   3.372   1.540   3.872 -0.2585 -0.0613  0.2393
 2339SOL     OW 9385   3.156   1.683   3.793 -0.3243 -0.0814  0.3772
 2339SOL    HW2 9386   3.166   1.776   3.808  0.4473  0.0376 -0.7543
 2339SOL    HW3 9387   3.144   1.675   3.698  3.6429 -1.4023 -0.1257
 2339SOL    MW4 9388   3.156   1.694   3.782  0.3009 -0.2400  0.1616
 2340SOL     OW 9389   3.133   1.931   3.888 -0.1404  0.1976 -0.1676
 2340SOL    HW2 9390   3.134   1.911   3.981 -0.7209 -3.2397 -0.8360
 2340SOL    HW3 9391   3.048   1.972   3.872 -0.4343 -0.0901  0.6563
 2340SOL    MW4 9392   3.122   1.934   3.898 -0.2558 -0.2938 -0.1471
 2341SOL     OW 9393   3.346   2.073   3.816  0.1479 -0.1367 -0.0333
 2341SOL    HW2 9394   3.268   2.022   3.839  0.8898 -1.2991 -0.0339
 2341SOL    HW3 9395   3.352   2.067   3.721 -0.5744  1.1777 -0.1695
 2341SOL    MW4 9396   3.336   2.065   3.807  0.1505 -0.1166 -0.0514
 2342SOL     OW 9397   3.342   2.356   3.857 -0.2348  0.3678 -0.1376
 2342SOL    HW2 9398   3.265   2.382   3.806  0.9178  0.0614 -2.0872
 2342SOL    HW3 9399   3.356   2.264   3.835 -0.9444 -0.3753  2.3791
 2342SOL    MW4 9400   3.333   2.348   3.847 -0.1763  0.2293 -0.0628
 2343SOL     OW 9401   3.102   2.427   3.738 -0.4982 -0.0721  0.1981
 2343SOL    HW2 9402   3.092   2.517   3.768  0.3122 -0.4439  1.5877
 2343SOL    HW3 9403   3.120   2.435   3.644  0.1943  1.2251  0.4391
 2343SOL    MW4 9404   3.103   2.440   3.729 -0.2999  0.0500  0.4133
 2344SOL     OW 9405   3.103   2.685   3.821 -0.1643 -0.4411  0.2168
 2344SOL    HW2 9406   3.111   2.691   3.916  0.5036 -0.1392  0.1480
 2344SOL    HW3 9407   3.020   2.729   3.801 -0.1896 -0.2959  0.6400
 2344SOL    MW4 9408   3.093   2.692   3.831 -0.0795 -0.3821  0.2636
 2345SOL     OW 9409   3.321   2.843   3.771  0.6008 -0.2638  0.0848
 2345SOL    HW2 9410   3.246   2.786   3.788  0.1379  0.4296  0.3842
 2345SOL    HW3 9411   3.342   2.827   3.679 -2.2325  2.2065 -1.0710
 2345SOL    MW4 9412   3.314   2.834   3.761  0.1659  0.1536 -0.0282
 2346SOL     OW 9413   3.345   3.094   3.918  0.1044 -0.0022  0.0764
 2346SOL    HW2 9414   3.415   3.135   3.867  1.0186  0.0037  1.3274
 2346SOL    HW3 9415   3.349   3.002   3.892  2.6552 -0.6324  2.4046
 2346SOL    MW4 9416   3.355   3.087   3.908  0.5616 -0.0846  0.5486
 2347SOL     OW 9417   3.145   3.209   3.780  0.0329 -0.2836 -0.2684
 2347SOL    HW2 9418   3.211   3.159   3.830  0.3298  0.4018  0.0274
 2347SOL    HW3 9419   3.175   3.203   3.689  0.3013 -0.2956 -0.1824
 2347SOL    MW4 9420   3.158   3.201   3.775  0.1075 -0.1948 -0.2180
 2348SOL     OW 9421   3.140   3.474   3.883 -0.0732  0.2298 -0.3099
 2348SOL    HW2 9422   3.222   3.520   3.864  0.3171  0.0182  0.8282
 2348SOL    HW3 9423   3.144   3.395   3.830  0.0288  0.6715 -0.9748
 2348SOL    MW4 9424   3.152   3.470   3.874 -0.0082  0.2602 -0.2475
 2349SOL     OW 9425   3.371   3.628   3.816 -0.1890 -0.3486  0.8156
 2349SOL    HW2 9426   3.356   3.717   3.849  0.4022 -0.3462  1.0713
 2349SOL    HW3 9427   3.359   3.636   3.721 -1.1284 -0.1999  0.9390
 2349SOL    MW4 9428   3.367   3.641   3.808 -0.2350 -0.3287  0.8656
 2350SOL     OW 9429   3.340   3.886   3.896  0.0182 -0.3668 -0.4804
 2350SOL    HW2 9430   3.416   3.928   3.856  0.0081 -0.2449 -0.3721
 2350SOL    HW3 9431   3.265   3.929   3.856 -0.0173 -1.5433 -1.7345
 2350SOL    MW4 9432   3.340   3.897   3.885  0.0122 -0.5059 -0.6316
 2351SOL     OW 9433   3.132   4.007   3.768  0.2685 -0.1870 -0.1519
 2351SOL    HW2 9434   3.112   4.099   3.784  0.6776 -0.0507 -0.4088
 2351SOL    HW3 9435   3.047   3.963   3.772 -0.0134  0.3019 -0.6875
 2351SOL    MW4 9436   3.119   4.013   3.770  0.2853 -0.1045 -0.2565
 2352SOL     OW 9437   3.114   4.261   3.867 -0.1535  0.6861 -0.1800
 2352SOL    HW2 9438   3.123   4.254   3.962  1.5004  1.1446 -0.2989
 2352SOL    HW3 9439   3.197   4.298   3.837  0.2757 -1.6581 -2.0370
 2352SOL    MW4 9440   3.126   4.265   3.876  0.1214  0.4373 -0.4407
 2353SOL     OW 9441   3.354   4.377   3.801  0.1257  0.1775 -0.7313
 2353SOL    HW2 9442   3.430   4.334   3.841  0.2562  0.0994 -1.0630
 2353SOL    HW3 9443   3.345   4.459   3.849  1.3634  0.9032 -1.7099
 2353SOL    MW4 9444   3.363   4.382   3.812  0.3062  0.2630 -0.9041
 2354SOL     OW 9445   3.797   4.611   3.869 -0.2823  0.5285 -0.1036
 2354SOL    HW2 9446   3.872   4.663   3.841 -0.9817  1.7238  0.1660
 2354SOL    HW3 9447   3.828   4.521   3.870  0.9530  0.9424 -0.6193
 2354SOL    MW4 9448   3.811   4.606   3.865 -0.2116  0.7408 -0.1360
 2355SOL     OW 9449   3.550   0.060   3.763 -0.1628  0.2603  0.4592
 2355SOL    HW2 9450   3.631   0.013   3.783 -0.7028 -0.6539  0.5237
 2355SOL    HW3 9451   3.557   0.081   3.670  0.8380  1.5532  0.8083
 2355SOL    MW4 9452   3.561   0.057   3.753 -0.1020  0.3103  0.5138
 2356SOL     OW 9453   3.597   0.299   3.876 -0.7102  0.3474 -0.0612
 2356SOL    HW2 9454   3.666   0.337   3.821 -1.6920  0.4106 -1.2863
 2356SOL    HW3 9455   3.584   0.211   3.840 -0.0082 -0.3450  1.3366
 2356SOL    MW4 9456   3.605   0.292   3.864 -0.7471  0.2643 -0.0384
 2357SOL     OW 9457   3.799   0.452   3.762  0.0318 -0.2709 -0.2852
 2357SOL    HW2 9458   3.871   0.408   3.806  0.5840  0.9181  0.0105
 2357SOL    HW3 9459   3.788   0.535   3.810 -0.6725  0.1357 -1.1297
 2357SOL    MW4 9460   3.807   0.457   3.774  0.0117 -0.0604 -0.3577
 2358SOL     OW 9461   3.832   0.706   3.865 -0.4350 -0.0624 -0.3433
 2358SOL    HW2 9462   3.903   0.762   3.834  0.6216 -0.0989  1.9064
 2358SOL    HW3 9463   3.752   0.757   3.850  0.3065  1.0693 -0.4663
 2358SOL    MW4 9464   3.831   0.720   3.859 -0.1978  0.0821 -0.0627
 2359SOL     OW 9465   3.605   0.850   3.803 -0.2760  0.7357 -0.4401
 2359SOL    HW2 9466   3.620   0.944   3.815 -0.6989  0.7228  0.2121
 2359SOL    HW3 9467   3.518   0.835   3.839  0.0059  0.0003 -0.0594
 2359SOL    MW4 9468   3.596   0.860   3.809 -0.2946  0.6369 -0.3038
 2360SOL     OW 9469   3.598   1.134   3.856 -0.2409  0.0691 -0.5023
 2360SOL    HW2 9470   3.661   1.195   3.817 -0.7593  0.6465 -0.4479
 2360SOL    HW3 9471   3.513   1.176   3.842 -0.5354 -0.3048  0.1712
 2360SOL    MW4 9472   3.595   1.147   3.849 -0.3481  0.0959 -0.4063
 2361SOL     OW 9473   3.815   1.267   3.733 -0.0533 -0.1468  0.0639
 2361SOL    HW2 9474   3.884   1.216   3.774 -0.2799 -0.4758  0.0377
 2361SOL    HW3 9475   3.828   1.356   3.766  1.6182  0.2194 -1.4891
 2361SOL    MW4 9476   3.826   1.272   3.743  0.1374 -0.1419 -0.1444
 2362SOL     OW 9477   3.824   1.518   3.849  0.0884  0.4980 -0.5454
 2362SOL    HW2 9478   3.814   1.500   3.943  0.6444 -2.2057 -0.9554
 2362SOL    HW3 9479   3.754   1.580   3.829 -0.9778 -0.0399  1.3706
 2362SOL    MW4 9480   3.813   1.523   3.859  0.0211  0.0703 -0.3467
 2363SOL     OW 9481   3.606   1.683   3.776 -0.6449 -0.0029  0.8647
 2363SOL    HW2 9482   3.528   1.639   3.812  0.0615 -0.9264  1.2930
 2363SOL    HW3 9483   3.595   1.677   3.681 -1.1850  0.0240  0.9222
 2363SOL    MW4 9484   3.594   1.677   3.768 -0.6229 -0.1212  0.9288
 2364SOL     OW 9485   3.596   1.934   3.900 -0.0957 -0.3495  0.2004
 2364SOL    HW2 9486   3.605   1.849   3.858  1.7011  1.1015 -2.4803
 2364SOL    HW3 9487   3.511   1.966   3.871  0.4229 -0.0603 -0.9965
 2364SOL    MW4 9488   3.586   1.927   3.891  0.2098 -0.1199 -0.3112
 2365SOL     OW 9489   3.808   2.049   3.742 -0.1000  0.0012  0.3205
 2365SOL    HW2 9490   3.880   2.011   3.793 -0.0654  0.9798  1.0197
 2365SOL    HW3 9491   3.729   2.010   3.781 -0.0392  0.2756  0.7264
 2365SOL    MW4 9492   3.807   2.039   3.754 -0.0874  0.1665  0.4663
 2366SOL     OW 9493   3.800   2.303   3.816 -0.5810 -0.3674 -0.4404
 2366SOL    HW2 9494   3.731   2.344   3.763 -2.1634 -1.4501  0.7322
 2366SOL    HW3 9495   3.802   2.212   3.785 -1.6418 -1.0548  1.4550
 2366SOL    MW4 9496   3.791   2.296   3.805 -0.9297 -0.6009 -0.0356
 2367SOL     OW 9497   3.573   2.464   3.767 -0.3674 -0.1783 -0.3454
 2367SOL    HW2 9498   3.486   2.441   3.802 -0.5394  0.3262 -0.4393
 2367SOL    HW3 9499   3.560   2.468   3.673  0.1847 -1.9072 -0.5206
 2367SOL    MW4 9500   3.560   2.461   3.759 -0.3173 -0.3399 -0.3809
 2368SOL     OW 9501   3.579   2.715   3.908 -0.0233  0.4254  0.0946
 2368SOL    HW2 9502   3.577   2.630   3.863 -0.5792  0.8536 -0.6971
 2368SOL    HW3 9503   3.517   2.769   3.860 -0.5141  0.9442  1.2860
 2368SOL    MW4 9504   3.570   2.711   3.896 -0.1614  0.5504  0.1473
 2369SOL     OW 9505   3.809   2.861   3.746 -0.1438  0.2368  0.1086
 2369SOL    HW2 9506   3.892   2.814   3.741 -0.3475 -0.1523  0.3636
 2369SOL    HW3 9507   3.760   2.815   3.813 -0.8460  0.0423 -0.5430
 2369SOL    MW4 9508   3.814   2.849   3.754 -0.2634  0.1598  0.0563
 2370SOL     OW 9509   3.810   3.112   3.819  0.0011 -0.3062 -0.1767
 2370SOL    HW2 9510   3.728   3.158   3.800  0.2117  0.4062  0.5812
 2370SOL    HW3 9511   3.797   3.024   3.784  0.3009  0.8662 -3.4187
 2370SOL    MW4 9512   3.797   3.107   3.812  0.0685 -0.0575 -0.5045
 2371SOL     OW 9513   3.553   3.212   3.760 -0.1166  0.1065 -0.0428
 2371SOL    HW2 9514   3.565   3.306   3.776  0.3490 -0.0128  0.3319
 2371SOL    HW3 9515   3.571   3.201   3.667  0.8274  0.2389  0.1160
 2371SOL    MW4 9516   3.557   3.223   3.750  0.0694  0.1083  0.0276
 2372SOL     OW 9517   3.605   3.473   3.847  0.4890  0.2620  0.4648
 2372SOL    HW2 9518   3.601   3.454   3.941  0.0186  0.8398  0.5673
 2372SOL    HW3 9519   3.529   3.529   3.831  0.1879 -0.3862 -0.3945
 2372SOL    MW4 9520   3.595   3.478   3.857  0.3872  0.2527  0.3649
 2373SOL     OW 9521   3.821   3.601   3.764  0.2540  0.5940 -0.1666
 2373SOL    HW2 9522   3.809   3.689   3.799 -0.5325  0.0225  1.0085
 2373SOL    HW3 9523   3.746   3.551   3.795  0.6870 -0.5025 -0.8271
 2373SOL    MW4 9524   3.810   3.606   3.773  0.2074  0.3739 -0.0987
 2374SOL     OW 9525   3.793   3.849   3.860 -0.6298  0.0311  0.2120
 2374SOL    HW2 9526   3.807   3.846   3.955 -1.1413  0.3146  0.2979
 2374SOL    HW3 9527   3.868   3.897   3.827 -1.1600  1.1572  0.6250
 2374SOL    MW4 9528   3.805   3.855   3.868 -0.7672  0.2170  0.2778
 2375SOL     OW 9529   3.562   4.011   3.769 -0.1514  0.2201 -0.0719
 2375SOL    HW2 9530   3.572   4.103   3.792  0.7100  0.4577 -1.3652
 2375SOL    HW3 9531   3.642   3.969   3.802 -1.0030 -0.2638  1.4344
 2375SOL    MW4 9532   3.574   4.017   3.777 -0.1501  0.1876 -0.0438
 2376SOL     OW 9533   3.583   4.264   3.877  0.0547 -0.4069 -0.1258
 2376SOL    HW2 9534   3.575   4.274   3.972  0.7744 -0.2821 -0.0801
 2376SOL    HW3 9535   3.671   4.293   3.857 -1.1499  2.6432 -1.2583
 2376SOL    MW4 9536   3.593   4.269   3.887 -0.0092  0.0120 -0.2692
 2377SOL     OW 9537   3.830   4.334   3.804 -0.2082  0.0728  0.0099
 2377SOL    HW2 9538   3.921   4.314   3.828 -0.1866  0.6964  0.4627
 2377SOL    HW3 9539   3.835   4.360   3.712  0.1144  0.3906  0.1142
 2377SOL    MW4 9540   3.843   4.335   3.795 -0.1628  0.1970  0.0834
 2378SOL     OW 9541   4.301   0.005   3.821 -0.1602  0.3389  0.1540
 2378SOL    HW2 9542   4.295   0.017   3.916 -1.9088  0.0772  0.0831
 2378SOL    HW3 9543   4.386   0.042   3.798 -0.1030  1.2051  1.6996
 2378SOL    MW4 9544   4.311   0.011   3.831 -0.3833  0.4187  0.3486
 2379SOL     OW 9545   4.031   0.103   3.783  0.1596  0.0811 -0.2098
 2379SOL    HW2 9546   4.115   0.063   3.806 -1.3424 -3.0757  0.1006
 2379SOL    HW3 9547   4.037   0.121   3.690  2.4097  3.0959  0.4648
 2379SOL    MW4 9548   4.043   0.100   3.774  0.2583  0.0623 -0.0798
 2380SOL     OW 9549   4.059   0.361   3.864 -0.0148  0.1754 -0.1973
 2380SOL    HW2 9550   4.022   0.379   3.950 -0.6123 -0.2282 -0.3683
 2380SOL    HW3 9551   4.058   0.266   3.857  0.8533  0.1692 -0.2957
 2380SOL    MW4 9552   4.054   0.351   3.874  0.0209  0.1213 -0.2329
 2381SOL     OW 9553   4.283   0.505   3.794  0.2695  0.0856  0.0232
 2381SOL    HW2 9554   4.209   0.452   3.822  1.5148 -1.8562 -0.2566
 2381SOL    HW3 9555   4.279   0.502   3.698  0.7359 -0.0396  0.0087
 2381SOL    MW4 9556   4.272   0.498   3.785  0.4953 -0.1872 -0.0156
 2382SOL     OW 9557   4.279   0.780   3.851 -0.2577 -0.0814 -0.6034
 2382SOL    HW2 9558   4.194   0.805   3.815 -0.4296 -0.8647 -0.7321
 2382SOL    HW3 9559   4.289   0.688   3.830  1.4192  0.4168 -2.1678
 2382SOL    MW4 9560   4.269   0.771   3.843 -0.0592 -0.1190 -0.8268
 2383SOL     OW 9561   4.033   0.882   3.787 -0.2550  0.2692  0.5407
 2383SOL    HW2 9562   4.049   0.969   3.825 -0.1444  0.6429 -0.3389
 2383SOL    HW3 9563   4.043   0.895   3.692 -1.6476 -0.4003  0.2878
 2383SOL    MW4 9564   4.037   0.895   3.779 -0.4241  0.2302  0.3913
 2384SOL     OW 9565   4.028   1.146   3.879  0.0598  0.4169  0.4880
 2384SOL    HW2 9566   4.014   1.149   3.973  0.1615 -0.8441  0.5530
 2384SOL    HW3 9567   4.109   1.195   3.864  0.4896 -0.0756  1.1620
 2384SOL    MW4 9568   4.037   1.153   3.889  0.1299  0.1855  0.5855
 2385SOL     OW 9569   4.293   1.263   3.783 -0.0643  0.2468 -0.3823
 2385SOL    HW2 9570   4.296   1.343   3.835 -0.2634 -0.1805  0.2951
 2385SOL    HW3 9571   4.285   1.293   3.693 -3.5150  0.9594  0.1196
 2385SOL    MW4 9572   4.293   1.277   3.778 -0.5458  0.2844 -0.2267
 2386SOL     OW 9573   4.284   1.517   3.870  0.1741 -0.0782  0.2991
 2386SOL    HW2 9574   4.212   1.564   3.826 -0.2335 -0.4379  0.5820
 2386SOL    HW3 9575   4.363   1.563   3.841  0.0863 -1.4281 -2.2843
 2386SOL    MW4 9576   4.285   1.529   3.860  0.1087 -0.3037 -0.0045
 2387SOL     OW 9577   4.051   1.661   3.777  0.0632  0.0178  0.2540
 2387SOL    HW2 9578   4.032   1.738   3.831 -1.1349 -0.1235  0.0541
 2387SOL    HW3 9579   3.975   1.604   3.789  0.7327 -0.9321  0.0331
 2387SOL    MW4 9580   4.039   1.663   3.786 -0.0065 -0.1262  0.1985
 2388SOL     OW 9581   4.028   1.937   3.864  0.7577 -0.1655  0.0243
 2388SOL    HW2 9582   4.018   1.940   3.959 -0.1093 -0.9184 -0.0344
 2388SOL    HW3 9583   4.108   1.987   3.846  1.5093 -0.9302  1.2370
 2388SOL    MW4 9584   4.037   1.944   3.874  0.7425 -0.3657  0.1766
 2389SOL     OW 9585   4.263   2.067   3.776 -0.2503 -0.0819 -0.2777
 2389SOL    HW2 9586   4.271   2.157   3.806 -0.8072 -0.4509  1.0034
 2389SOL    HW3 9587   4.277   2.072   3.681  1.8441  1.0541  0.0629
 2389SOL    MW4 9588   4.266   2.079   3.767 -0.0474  0.0193 -0.0638
 2390SOL     OW 9589   4.275   2.317   3.869 -0.0972  0.2516 -0.3341
 2390SOL    HW2 9590   4.282   2.322   3.964 -2.2971  1.3670 -0.2037
 2390SOL    HW3 9591   4.193   2.362   3.848 -0.7611 -1.8691 -2.5738
 2390SOL    MW4 9592   4.265   2.324   3.879 -0.4750  0.1190 -0.6124
 2391SOL     OW 9593   4.029   2.443   3.761  0.0797 -0.0533  0.2481
 2391SOL    HW2 9594   4.029   2.534   3.790  1.7768 -0.1073  0.4798
 2391SOL    HW3 9595   3.947   2.407   3.794  0.1304  0.9742  1.5295
 2391SOL    MW4 9596   4.019   2.450   3.769  0.3103  0.0752  0.4477
 2392SOL     OW 9597   4.032   2.704   3.846 -0.2009 -0.2215  0.1741
 2392SOL    HW2 9598   4.029   2.696   3.942  0.5208  0.8591  0.2936
 2392SOL    HW3 9599   4.119   2.739   3.828 -0.6556  0.4029 -0.8246
 2392SOL    MW4 9600   4.043   2.708   3.856 -0.1657  0.0035  0.0581
 2393SOL     OW 9601   4.275   2.804   3.757  0.0469 -0.2022  0.2482
 2393SOL    HW2 9602   4.299   2.893   3.783 -0.6146  0.5415 -1.5436
 2393SOL    HW3 9603   4.347   2.749   3.788  0.2337  0.8800  1.7908
 2393SOL    MW4 9604   4.287   2.809   3.764 -0.0157  0.0387  0.2153
 2394SOL     OW 9605   4.319   3.068   3.822  0.0580  0.2330 -0.0102
 2394SOL    HW2 9606   4.231   3.099   3.798 -0.5709 -0.7405  1.0062
 2394SOL    HW3 9607   4.378   3.128   3.777 -1.1338  1.3260 -0.1518
 2394SOL    MW4 9608   4.315   3.080   3.813 -0.1822  0.2488  0.1052
 2395SOL     OW 9609   4.066   3.190   3.755 -0.2792 -0.1996  0.7187
 2395SOL    HW2 9610   3.983   3.146   3.769 -1.6085  2.0712  0.2621
 2395SOL    HW3 9611   4.077   3.193   3.660 -0.0984  0.2830  0.7524
 2395SOL    MW4 9612   4.057   3.185   3.744 -0.4307  0.1637  0.6629
 2396SOL     OW 9613   4.027   3.450   3.855 -0.0325 -0.0141  0.5749
 2396SOL    HW2 9614   4.031   3.361   3.822  0.7110 -0.2633  1.3225
 2396SOL    HW3 9615   3.961   3.493   3.801  0.5946 -0.6315 -0.7096
 2396SOL    MW4 9616   4.019   3.444   3.843  0.1483 -0.1284  0.5041
 2397SOL     OW 9617   4.214   3.585   3.710 -0.0386 -0.2708 -0.2222
 2397SOL    HW2 9618   4.158   3.548   3.779  0.3581 -0.7193 -0.1415
 2397SOL    HW3 9619   4.303   3.562   3.737  0.2287  0.8804 -0.0821
 2397SOL    MW4 9620   4.218   3.577   3.723  0.0490 -0.1781 -0.1931
 2398SOL     OW 9621   4.230   3.833   3.850  0.3854  0.5066  0.3999
 2398SOL    HW2 9622   4.157   3.891   3.827 -1.8764 -0.7851  3.8587
 2398SOL    HW3 9623   4.226   3.762   3.786 -1.8998  0.0631  1.0083
 2398SOL    MW4 9624   4.220   3.832   3.838 -0.2145  0.2776  0.9365
 2399SOL     OW 9625   4.031   4.006   3.764  0.5169 -0.4692  0.0866
 2399SOL    HW2 9626   4.049   4.099   3.778 -2.2846  0.1782 -0.2007
 2399SOL    HW3 9627   4.008   4.000   3.672  0.0461 -1.3377  0.2557
 2399SOL    MW4 9628   4.030   4.018   3.754  0.0851 -0.4984  0.0710
 2400SOL     OW 9629   4.094   4.286   3.853 -0.1159 -0.2684  0.0470
 2400SOL    HW2 9630   4.107   4.297   3.947 -0.4030  0.5771 -0.0114
 2400SOL    HW3 9631   4.164   4.338   3.813  0.8802 -1.7577 -0.2029
 2400SOL    MW4 9632   4.105   4.294   3.860 -0.0223 -0.3533  0.0063
 2401SOL     OW 9633   4.308   4.401   3.749  0.5651 -0.0576  0.1617
 2401SOL    HW2 9634   4.316   4.492   3.777 -0.2494 -0.7465  2.7282
 2401SOL    HW3 9635   4.378   4.355   3.795  1.5142 -0.6358 -1.7695
 2401SOL    MW4 9636   4.318   4.407   3.758  0.5829 -0.2248  0.2456
 2402SOL     OW 9637   0.013   4.279   4.173 -0.4163  0.6267 -0.3267
 2402SOL    HW2 9638  -0.014   4.281   4.081 -1.5639 -0.6004 -0.0321
 2402SOL    HW3 9639  -0.039   4.348   4.215 -0.9973  0.1805 -0.3127
 2402SOL    MW4 9640   0.002   4.289   4.167 -0.6444  0.4059 -0.2860
 2403SOL     OW 9641   0.036   0.859   4.227 -0.0587 -0.5916  0.5289
 2403SOL    HW2 9642  -0.048   0.824   4.197  0.5593 -2.0289  0.4702
 2403SOL    HW3 9643   0.101   0.798   4.194  1.0511  0.7084  0.2831
 2403SOL    MW4 9644   0.033   0.846   4.219  0.1693 -0.6097  0.4887
 2404SOL     OW 9645   0.027   0.376   4.195  0.1259 -0.1377 -0.1710
 2404SOL    HW2 9646   0.033   0.376   4.099  0.6870  0.6286 -0.1459
 2404SOL    HW3 9647   0.018   0.284   4.218 -1.4731 -0.2145 -1.0416
 2404SOL    MW4 9648   0.027   0.364   4.185 -0.0110 -0.0467 -0.2825
 2405SOL     OW 9649   0.290   0.441   4.260 -0.6887 -0.0567 -0.0579
 2405SOL    HW2 9650   0.292   0.481   4.347  0.5694  0.4392 -0.3047
 2405SOL    HW3 9651   0.202   0.405   4.253 -1.3499  1.3455  0.7651
 2405SOL    MW4 9652   0.279   0.442   4.271 -0.6099  0.1938  0.0182
 2406SOL     OW 9653   0.239   0.685   4.139 -0.1361 -0.2444  0.1527
 2406SOL    HW2 9654   0.313   0.733   4.175 -0.5104  0.2116  0.3210
 2406SOL    HW3 9655   0.256   0.593   4.161  0.2199 -0.1044  0.4582
 2406SOL    MW4 9656   0.251   0.679   4.146 -0.1386 -0.1658  0.2152
 2407SOL     OW 9657   4.490   1.121   4.156 -0.1010  0.1032  0.4018
 2407SOL    HW2 9658   4.505   1.030   4.183  0.7953  0.3152  0.6563
 2407SOL    HW3 9659   4.509   1.121   4.062  1.0283  0.2565  0.6202
 2407SOL    MW4 9660   4.495   1.109   4.147  0.1662  0.1514  0.4642
 2408SOL     OW 9661   3.577   0.286   4.545 -0.3009  0.7220  0.3203
 2408SOL    HW2 9662   3.658   0.336   4.555 -0.1305  0.2772  1.2208
 2408SOL    HW3 9663   3.509   0.352   4.535 -0.0872  1.1384  1.5382
 2408SOL    MW4 9664   3.579   0.301   4.545 -0.2502  0.7183  0.5998
 2409SOL     OW 9665   3.623   1.809   4.412  0.2303 -0.5862  0.2476
 2409SOL    HW2 9666   3.611   1.715   4.395  1.3764 -0.4921 -1.2261
 2409SOL    HW3 9667   3.631   1.848   4.325  1.3661  0.6553  0.8924
 2409SOL    MW4 9668   3.622   1.802   4.398  0.5314 -0.4100  0.1382
 2410SOL     OW 9669   0.509   1.183   4.585  0.2731 -0.1774 -0.1145
 2410SOL    HW2 9670   0.453   1.244   4.536  0.6827  0.9182  0.7382
 2410SOL    HW3 9671   0.571   1.240   4.631  0.9682 -1.2793  0.3304
 2410SOL    MW4 9672   0.510   1.199   4.585  0.4189 -0.1783  0.0567
 2411SOL     OW 9673   4.476   1.946   4.126 -0.0897 -0.4038  0.3627
 2411SOL    HW2 9674   4.478   1.862   4.170  1.5643  0.3088  1.6900
 2411SOL    HW3 9675   4.397   1.989   4.160  0.3699 -0.4564  1.4859
 2411SOL    MW4 9676   4.466   1.941   4.136  0.1891 -0.3167  0.6860
 2412SOL     OW 9677   0.195   2.090   4.249 -0.2717  0.4694  0.0343
 2412SOL    HW2 9678   0.269   2.031   4.235  0.6363  1.6650 -0.2599
 2412SOL    HW3 9679   0.119   2.041   4.217  0.2902 -0.9943  0.8794
 2412SOL    MW4 9680   0.195   2.076   4.243 -0.0778  0.4340  0.1070
 2413SOL     OW 9681   3.798   3.575   4.205  0.1578  0.1076  0.1771
 2413SOL    HW2 9682   3.803   3.666   4.174  0.6696 -0.5758 -1.8141
 2413SOL    HW3 9683   3.758   3.582   4.291 -2.4771  1.9650 -1.1291
 2413SOL    MW4 9684   3.793   3.588   4.212 -0.1223  0.2625 -0.2579
 2414SOL     OW 9685   3.381   1.247   4.227  0.1470  0.2195  0.4974
 2414SOL    HW2 9686   3.304   1.203   4.190  0.7583  0.1300 -0.6986
 2414SOL    HW3 9687   3.374   1.233   4.321 -0.7414 -0.7094  0.3013
 2414SOL    MW4 9688   3.370   1.239   4.234  0.1104  0.0851  0.3137
 2415SOL     OW 9689   1.990   2.895   4.256  0.1669  0.1651 -0.4888
 2415SOL    HW2 9690   1.929   2.850   4.198 -0.5727  2.0247 -1.2049
 2415SOL    HW3 9691   1.949   2.892   4.342  0.3586 -0.9443 -0.4381
 2415SOL    MW4 9692   1.977   2.889   4.260  0.0946  0.2641 -0.5766
 2416SOL     OW 9693   3.814   1.488   4.125 -0.0035  0.0166 -0.3509
 2416SOL    HW2 9694   3.887   1.543   4.155 -0.8062  1.6536 -1.2890
 2416SOL    HW3 9695   3.740   1.516   4.179 -0.2843 -0.5507 -0.4465
 2416SOL    MW4 9696   3.814   1.499   4.136 -0.1465  0.1578 -0.4872
 2417SOL     OW 9697   3.380   2.048   4.227 -0.2135 -0.0434  0.1200
 2417SOL    HW2 9698   3.352   2.071   4.315 -1.0579  0.7593 -0.3480
 2417SOL    HW3 9699   3.350   2.121   4.172  0.7117 -0.3046 -0.7570
 2417SOL    MW4 9700   3.372   2.061   4.231 -0.2028  0.0280 -0.0575
 2418SOL     OW 9701   3.139   0.888   4.260 -0.2903  0.2713  0.4577
 2418SOL    HW2 9702   3.129   0.975   4.220 -0.2114 -0.0449 -0.2451
 2418SOL    HW3 9703   3.066   0.837   4.226  0.9453 -0.6099 -0.9061
 2418SOL    MW4 9704   3.128   0.893   4.251 -0.1169  0.1133  0.1850
 2419SOL     OW 9705   3.809   0.470   4.295  0.7398 -0.1888 -0.3081
 2419SOL    HW2 9706   3.732   0.437   4.248  0.5586 -1.0495  0.5627
 2419SOL    HW3 9707   3.817   0.561   4.268 -0.9060  0.0557 -0.0091
 2419SOL    MW4 9708   3.800   0.477   4.286  0.4987 -0.2701 -0.1538
 2420SOL     OW 9709   4.276   3.630   4.255  0.0117 -0.3179  0.2278
 2420SOL    HW2 9710   4.351   3.589   4.212  0.1308 -1.8191  1.8375
 2420SOL    HW3 9711   4.200   3.585   4.216 -0.0120  0.3293 -0.4874
 2420SOL    MW4 9712   4.276   3.619   4.244  0.0243 -0.4306  0.3458
 2421SOL     OW 9713   0.876   3.999   4.243  0.1545 -0.5159  0.2220
 2421SOL    HW2 9714   0.801   3.956   4.203  0.0123 -0.4673  0.4346
 2421SOL    HW3 9715   0.882   4.084   4.198 -0.9344  0.1716  1.3507
 2421SOL    MW4 9716   0.867   4.004   4.232 -0.0079 -0.4188  0.3990
 2422SOL     OW 9717   0.217   3.851   4.151 -0.0962  0.5348 -0.1418
 2422SOL    HW2 9718   0.153   3.915   4.182 -1.5867 -0.2575 -1.4864
 2422SOL    HW3 9719   0.296   3.869   4.202 -1.0744  2.1949  0.8348
 2422SOL    MW4 9720   0.219   3.862   4.162 -0.4219  0.6493 -0.1903
 2423SOL     OW 9721   2.930   1.557   4.156  0.7567 -0.6488  0.1611
 2423SOL    HW2 9722   2.884   1.612   4.219 -0.8652 -1.4088 -0.3235
 2423SOL    HW3 9723   3.023   1.567   4.178  0.4473  1.7860  0.4487
 2423SOL    MW4 9724   2.937   1.565   4.167  0.5019 -0.4278  0.1351
 2424SOL     OW 9725   0.198   0.015   4.132  0.1694 -0.7669  0.4812
 2424SOL    HW2 9726   0.287   0.050   4.148 -0.0962 -0.3091  1.0110
 2424SOL    HW3 9727   0.205  -0.078   4.152  0.8867 -1.0163 -0.9140
 2424SOL    MW4 9728   0.211   0.008   4.137  0.2290 -0.7394  0.3670
 2425SOL     OW 9729   0.009   4.644   4.640 -0.1658  0.2583  0.2914
 2425SOL    HW2 9730   0.077   4.650   4.708 -0.4264 -1.5694  0.7471
 2425SOL    HW3 9731   0.007   4.731   4.601  2.0023  0.5314  0.7016
 2425SOL    MW4 9732   0.018   4.656   4.644  0.0859  0.0532  0.4056
 2426SOL     OW 9733   0.737   4.658   4.092  0.3630  0.0755  0.0323
 2426SOL    HW2 9734   0.704   4.647   4.003  0.4606  0.4868 -0.0551
 2426SOL    HW3 9735   0.737   4.569   4.128 -0.7245  0.0588  0.0053
 2426SOL    MW4 9736   0.733   4.645   4.085  0.2324  0.1275  0.0172
 2427SOL     OW 9737   1.612   0.276   4.514 -0.1410 -0.0931 -0.2235
 2427SOL    HW2 9738   1.691   0.328   4.528 -0.3845  0.0665  0.5900
 2427SOL    HW3 9739   1.557   0.331   4.459  0.5855 -0.4829 -1.3583
 2427SOL    MW4 9740   1.615   0.290   4.509 -0.0773 -0.1235 -0.2659
 2428SOL     OW 9741   0.515   0.359   4.144 -0.2250  0.9909  0.6199
 2428SOL    HW2 9742   0.432   0.388   4.181 -0.2714  1.1145  0.4144
 2428SOL    HW3 9743   0.512   0.385   4.052  0.5559  2.0838  0.8966
 2428SOL    MW4 9744   0.503   0.366   4.137 -0.1281  1.1514  0.6293
 2429SOL     OW 9745   1.128   4.132   4.662 -0.3325  0.4514 -0.3471
 2429SOL    HW2 9746   1.116   4.084   4.744  0.2006  1.5363  0.3805
 2429SOL    HW3 9747   1.050   4.110   4.610 -0.8333  0.0163  0.5705
 2429SOL    MW4 9748   1.116   4.123   4.666 -0.3282  0.5371 -0.1301
 2430SOL     OW 9749   0.742   0.509   4.194  0.1824  0.1949  0.2434
 2430SOL    HW2 9750   0.720   0.601   4.178 -1.3167 -0.0683  0.6997
 2430SOL    HW3 9751   0.663   0.461   4.171  1.7855 -1.2602 -2.5034
 2430SOL    MW4 9752   0.729   0.515   4.189  0.1961 -0.0318 -0.0588
 2431SOL     OW 9753   3.518   4.309   4.492 -0.2807  0.1467 -0.1458
 2431SOL    HW2 9754   3.545   4.382   4.547 -0.4175  0.7482 -0.8706
 2431SOL    HW3 9755   3.451   4.346   4.434 -0.6869 -0.6656 -0.1984
 2431SOL    MW4 9756   3.512   4.323   4.491 -0.3523  0.1189 -0.2484
 2432SOL     OW 9757   0.446   1.105   4.138  0.0366  0.1625 -0.1155
 2432SOL    HW2 9758   0.533   1.137   4.160 -0.3815  0.4475  1.1601
 2432SOL    HW3 9759   0.435   1.127   4.045  1.1826  0.4311 -0.1913
 2432SOL    MW4 9760   0.456   1.112   4.128  0.1326  0.2356  0.0428
 2433SOL     OW 9761   0.624   1.498   4.194 -0.4833 -0.0051 -0.1122
 2433SOL    HW2 9762   0.622   1.403   4.183 -0.9695 -0.0270  0.1571
 2433SOL    HW3 9763   0.642   1.532   4.107 -0.7303 -0.3274 -0.2885
 2433SOL    MW4 9764   0.626   1.490   4.181 -0.5801 -0.0505 -0.1000
 2434SOL     OW 9765   0.393   1.655   4.234 -0.7165 -0.1502 -0.0469
 2434SOL    HW2 9766   0.468   1.598   4.217  0.3687  1.6655 -1.6124
 2434SOL    HW3 9767   0.318   1.610   4.194 -0.1522 -1.1579  0.0180
 2434SOL    MW4 9768   0.393   1.642   4.227 -0.4989 -0.0436 -0.2449
 2435SOL     OW 9769   0.729   2.889   4.198  0.1653 -0.3785 -0.1548
 2435SOL    HW2 9770   0.656   2.834   4.167  0.7718 -1.2829  0.0108
 2435SOL    HW3 9771   0.806   2.834   4.187  0.6052 -0.0787  1.3643
 2435SOL    MW4 9772   0.729   2.874   4.192  0.3033 -0.4583  0.0674
 2436SOL     OW 9773   0.412   1.917   4.154 -0.1914 -0.0183 -0.4436
 2436SOL    HW2 9774   0.397   1.827   4.181 -0.8032  0.4375  0.7549
 2436SOL    HW3 9775   0.406   1.915   4.058  0.3822 -1.3472 -0.4553
 2436SOL    MW4 9776   0.409   1.905   4.145 -0.1964 -0.1335 -0.2870
 2437SOL     OW 9777   3.465   3.887   4.652 -0.1717 -0.1766  0.1959
 2437SOL    HW2 9778   3.398   3.954   4.638 -0.5768 -0.7418 -0.6101
 2437SOL    HW3 9779   3.416   3.808   4.672  0.1345 -1.1645 -2.7053
 2437SOL    MW4 9780   3.450   3.886   4.653 -0.1847 -0.3815 -0.2932
 2438SOL     OW 9781   4.259   1.264   4.282  0.0286  0.0622  0.0596
 2438SOL    HW2 9782   4.265   1.256   4.377  1.5076  0.6968  0.0364
 2438SOL    HW3 9783   4.321   1.199   4.249 -0.1432  0.1575 -0.4603
 2438SOL    MW4 9784   4.268   1.254   4.290  0.2011  0.1585 -0.0121
 2439SOL     OW 9785   0.245   2.336   4.109 -0.4101  0.0381 -0.4271
 2439SOL    HW2 9786   0.261   2.252   4.152  0.4934 -0.8292 -2.3943
 2439SOL    HW3 9787   0.322   2.389   4.128 -0.0154 -0.3411 -0.9831
 2439SOL    MW4 9788   0.257   2.332   4.117 -0.2388 -0.1263 -0.7600
 2440SOL     OW 9789   1.578   2.340   3.845 -0.1474 -0.1155 -0.7427
 2440SOL    HW2 9790   1.572   2.257   3.798 -0.1764 -0.4261 -0.1957
 2440SOL    HW3 9791   1.665   2.374   3.824  0.7975 -1.4203  0.8998
 2440SOL    MW4 9792   1.589   2.334   3.836 -0.0266 -0.3287 -0.4538
 2441SOL     OW 9793   0.705   2.325   4.170 -0.2742 -0.4079  0.6296
 2441SOL    HW2 9794   0.701   2.310   4.075  0.3109 -0.4800  0.6153
 2441SOL    HW3 9795   0.706   2.237   4.208  0.6528 -0.3942  0.6513
 2441SOL    MW4 9796   0.704   2.311   4.162 -0.0747 -0.4156  0.6306
 2442SOL     OW 9797   3.606   3.044   4.663  0.0926 -0.0657  0.4771
 2442SOL    HW2 9798   3.646   3.073   4.745  0.4502  0.6840  0.0397
 2442SOL    HW3 9799   3.647   2.959   4.645  0.2885 -0.0558  0.8753
 2442SOL    MW4 9800   3.616   3.037   4.672  0.1656  0.0345  0.4720
 2443SOL     OW 9801   1.139   3.615   4.248  0.0492 -0.6677  0.1201
 2443SOL    HW2 9802   1.074   3.553   4.217  2.2502 -1.7115 -2.6245
 2443SOL    HW3 9803   1.125   3.693   4.193  0.8808 -0.7859 -0.2653
 2443SOL    MW4 9804   1.129   3.617   4.237  0.4493 -0.8210 -0.2928
 2444SOL     OW 9805   0.211   3.563   4.190 -0.2755  0.2698  0.1575
 2444SOL    HW2 9806   0.220   3.658   4.180  2.4415  0.1163  0.6929
 2444SOL    HW3 9807   0.145   3.538   4.125  0.8319  2.1959 -1.7633
 2444SOL    MW4 9808   0.203   3.573   4.180  0.2290  0.5037 -0.0253
 2445SOL     OW 9809   0.462   3.492   4.095  0.3468  0.3673 -0.1457
 2445SOL    HW2 9810   0.459   3.507   4.000  0.1325 -1.1801 -0.3984
 2445SOL    HW3 9811   0.386   3.541   4.128  0.1273  0.5118 -0.8358
 2445SOL    MW4 9812   0.451   3.501   4.087  0.2896  0.1822 -0.2701
 2446SOL     OW 9813   1.612   2.849   4.467 -0.3795 -0.0877 -0.5746
 2446SOL    HW2 9814   1.532   2.882   4.508  0.3462  1.7858 -0.5756
 2446SOL    HW3 9815   1.597   2.860   4.373 -0.1009  0.3708 -0.5706
 2446SOL    MW4 9816   1.599   2.855   4.460 -0.2470  0.2200 -0.5742
 2447SOL     OW 9817   2.449   1.810   4.688  0.2465 -0.5892  0.1660
 2447SOL    HW2 9818   2.424   1.853   4.606  0.5589 -0.9565 -0.1247
 2447SOL    HW3 9819   2.467   1.719   4.663  2.8058 -0.1111  0.1846
 2447SOL    MW4 9820   2.448   1.804   4.674  0.6254 -0.5746  0.1301
 2448SOL     OW 9821   0.322   1.357   4.457  0.2690  0.6155  0.2920
 2448SOL    HW2 9822   0.332   1.452   4.463 -0.6518  0.7282  0.0799
 2448SOL    HW3 9823   0.271   1.343   4.378 -0.0808 -0.0280  0.6284
 2448SOL    MW4 9824   0.317   1.368   4.447  0.1013  0.5454  0.3084
 2449SOL     OW 9825   0.502   4.277   4.209  0.1676  0.0658  0.1109
 2449SOL    HW2 9826   0.423   4.332   4.218 -0.2806 -0.5639  0.0171
 2449SOL    HW3 9827   0.498   4.243   4.120  0.3856 -0.2192  0.2102
 2449SOL    MW4 9828   0.491   4.280   4.198  0.1372 -0.0549  0.1117
 2450SOL     OW 9829   1.127   4.655   4.150 -0.0737  0.2626 -0.1408
 2450SOL    HW2 9830   1.131   4.675   4.056 -0.0753  0.2368 -0.1462
 2450SOL    HW3 9831   1.067   4.721   4.185  0.5932  0.8030 -0.0121
 2450SOL    MW4 9832   1.119   4.666   4.142  0.0141  0.3305 -0.1246
 2451SOL     OW 9833   1.833   2.181   4.694 -0.3319  0.2663  0.0104
 2451SOL    HW2 9834   1.826   2.107   4.634  0.7733  0.7485 -0.7313
 2451SOL    HW3 9835   1.901   2.156   4.756  0.1779  0.7277 -0.3540
 2451SOL    MW4 9836   1.841   2.168   4.694 -0.1189  0.3908 -0.1355
 2452SOL     OW 9837   0.937   0.382   4.047 -0.2309 -0.6009 -0.4132
 2452SOL    HW2 9838   0.858   0.412   4.090 -0.3808  0.0924 -1.1616
 2452SOL    HW3 9839   1.005   0.445   4.073  0.2020 -1.5131  0.6779
 2452SOL    MW4 9840   0.936   0.394   4.056 -0.1936 -0.6298 -0.3680
 2453SOL     OW 9841   1.111   3.886   4.154  0.0784 -0.4478 -0.0887
 2453SOL    HW2 9842   1.030   3.930   4.181 -0.5224 -2.0029  0.6718
 2453SOL    HW3 9843   1.179   3.930   4.204 -0.6450 -1.1039  1.5021
 2453SOL    MW4 9844   1.109   3.898   4.164 -0.0964 -0.7395  0.2215
 2454SOL     OW 9845   1.129   0.806   4.104 -0.0984  0.5956  0.1251
 2454SOL    HW2 9846   1.122   0.712   4.120 -1.1431  0.7447  0.5919
 2454SOL    HW3 9847   1.210   0.832   4.148 -0.6309  0.1868  1.3904
 2454SOL    MW4 9848   1.139   0.797   4.112 -0.3065  0.5613  0.3537
 2455SOL     OW 9849   1.188   3.648   4.526  0.2215 -0.0321 -0.1396
 2455SOL    HW2 9850   1.177   3.654   4.431 -0.3120  0.5395 -0.0432
 2455SOL    HW3 9851   1.126   3.712   4.561  0.3751 -0.2893  0.5958
 2455SOL    MW4 9852   1.178   3.657   4.518  0.1713  0.0094 -0.0298
 2456SOL     OW 9853   0.926   1.146   4.047 -0.3329 -0.0340 -0.1244
 2456SOL    HW2 9854   0.987   1.198   4.100  0.9454 -1.8037  0.2147
 2456SOL    HW3 9855   0.920   1.063   4.094 -0.6568 -0.9585 -1.7703
 2456SOL    MW4 9856   0.934   1.142   4.060 -0.2069 -0.3895 -0.2968
 2457SOL     OW 9857   1.173   2.305   4.184  0.3274 -0.2651  0.0626
 2457SOL    HW2 9858   1.253   2.353   4.208 -0.0029  0.7744 -0.9098
 2457SOL    HW3 9859   1.102   2.359   4.218 -0.0710  0.2264 -1.5226
 2457SOL    MW4 9860   1.175   2.319   4.192  0.2312 -0.0631 -0.2748
 2458SOL     OW 9861   2.688   1.916   4.159 -0.3372  0.0162 -0.1879
 2458SOL    HW2 9862   2.619   1.978   4.183 -0.1282 -0.0566  0.6335
 2458SOL    HW3 9863   2.665   1.888   4.071 -0.6483  0.9674 -0.4232
 2458SOL    MW4 9864   2.676   1.921   4.151 -0.3506  0.1321 -0.1106
 2459SOL     OW 9865   3.044   0.109   4.542 -0.3400 -0.0729  0.3094
 2459SOL    HW2 9866   3.079   0.196   4.561 -0.1477 -0.1546  0.3234
 2459SOL    HW3 9867   3.085   0.084   4.460 -1.1429  0.2638 -0.2035
 2459SOL    MW4 9868   3.054   0.118   4.534 -0.4206 -0.0393  0.2436
 2460SOL     OW 9869   0.880   1.924   4.154  0.1384 -0.0927  0.4047
 2460SOL    HW2 9870   0.795   1.960   4.179 -0.6470 -1.6110 -0.0478
 2460SOL    HW3 9871   0.883   1.933   4.059  0.0792 -0.9215  0.3238
 2460SOL    MW4 9872   0.869   1.930   4.145  0.0270 -0.4024  0.3344
 2461SOL     OW 9873   1.805   2.490   4.228 -0.0272  0.1167 -0.1703
 2461SOL    HW2 9874   1.741   2.421   4.211 -0.6226  0.9397 -1.3571
 2461SOL    HW3 9875   1.831   2.476   4.319  0.1796 -1.9032 -0.5239
 2461SOL    MW4 9876   1.800   2.479   4.238 -0.0785 -0.0412 -0.3736
 2462SOL     OW 9877   1.804   4.123   4.584 -0.1611  0.1195 -0.2544
 2462SOL    HW2 9878   1.728   4.171   4.616  0.0977  0.4869 -0.1915
 2462SOL    HW3 9879   1.780   4.031   4.593 -1.4206  0.2275 -2.1712
 2462SOL    MW4 9880   1.791   4.117   4.590 -0.2931  0.1822 -0.4990
 2463SOL     OW 9881   4.079   0.117   4.255 -0.3149 -0.2432 -0.5544
 2463SOL    HW2 9882   4.074   0.107   4.350  0.7212 -0.9092 -0.5679
 2463SOL    HW3 9883   4.067   0.211   4.241 -0.2159 -0.1014  0.2561
 2463SOL    MW4 9884   4.077   0.128   4.266 -0.1651 -0.3123 -0.4492
 2464SOL     OW 9885   0.733   3.128   4.065 -0.3131  0.1342  0.6727
 2464SOL    HW2 9886   0.726   3.044   4.110 -1.3603  0.2058  0.6706
 2464SOL    HW3 9887   0.647   3.169   4.079  0.0930  1.0709  0.4248
 2464SOL    MW4 9888   0.721   3.122   4.073 -0.3977  0.2672  0.6397
 2465SOL     OW 9889   1.654   1.507   4.538 -0.2877 -0.2992 -0.0486
 2465SOL    HW2 9890   1.682   1.595   4.510 -0.4330  0.2524  1.4830
 2465SOL    HW3 9891   1.735   1.465   4.568 -0.1357 -0.8761 -1.2508
 2465SOL    MW4 9892   1.669   1.513   4.539 -0.2868 -0.3025 -0.0051
 2466SOL     OW 9893   2.918   2.861   4.240  0.1570  0.0644  0.3721
 2466SOL    HW2 9894   2.841   2.806   4.232  0.5204 -0.2893 -0.7470
 2466SOL    HW3 9895   2.960   2.834   4.322  0.0198 -0.9162  0.1131
 2466SOL    MW4 9896   2.914   2.850   4.250  0.1869 -0.1116  0.1902
 2467SOL     OW 9897   3.365   0.487   4.274 -0.5938 -0.3161 -0.5049
 2467SOL    HW2 9898   3.336   0.566   4.229  0.9387  0.8486  0.5109
 2467SOL    HW3 9899   3.434   0.451   4.218  1.1464  1.0030  0.7335
 2467SOL    MW4 9900   3.370   0.493   4.261 -0.1620  0.0116 -0.2075
 2468SOL     OW 9901   3.934   2.481   4.451  0.2952 -0.2380  0.0033
 2468SOL    HW2 9902   4.028   2.475   4.464  0.1273 -0.4308  1.1224
 2468SOL    HW3 9903   3.923   2.474   4.356  1.3920 -0.3013 -0.1262
 2468SOL    MW4 9904   3.945   2.480   4.440  0.4178 -0.2718  0.1339
 2469SOL     OW 9905   1.370   3.220   4.244 -0.1416 -0.8751  0.4668
 2469SOL    HW2 9906   1.313   3.166   4.189 -0.4627 -0.7078  0.6368
 2469SOL    HW3 9907   1.355   3.309   4.213 -0.4339 -0.7651  0.9292
 2469SOL    MW4 9908   1.361   3.224   4.233 -0.2225 -0.8385  0.5502
 2470SOL     OW 9909   1.324   4.024   4.269 -0.3253 -0.2467  0.1689
 2470SOL    HW2 9910   1.335   4.111   4.230 -0.7583 -0.5184 -0.5543
 2470SOL    HW3 9911   1.338   4.038   4.363 -0.0747  0.5453  0.0155
 2470SOL    MW4 9912   1.328   4.037   4.276 -0.3494 -0.1781  0.0532
 2471SOL     OW 9913   0.936   4.240   4.137 -0.4279 -0.0616  0.0557
 2471SOL    HW2 9914   0.868   4.301   4.166  0.7363  1.7279 -0.9271
 2471SOL    HW3 9915   1.017   4.274   4.173  0.4931  0.0368 -2.0111
 2471SOL    MW4 9916   0.937   4.252   4.145 -0.1528  0.1875 -0.3467
 2472SOL     OW 9917   1.229   0.664   4.751  0.1037  0.5618  0.9280
 2472SOL    HW2 9918   1.306   0.694   4.798  1.6993  0.0118 -1.2786
 2472SOL    HW3 9919   1.193   0.743   4.712  0.7358  0.5160  0.2520
 2472SOL    MW4 9920   1.234   0.678   4.752  0.3976  0.4832  0.5477
 2473SOL     OW 9921   2.288   0.007   4.508 -0.1812 -0.0503  0.4785
 2473SOL    HW2 9922   2.196  -0.018   4.519 -0.1169 -0.2605  0.5477
 2473SOL    HW3 9923   2.334  -0.076   4.494  0.1707 -0.0607  1.6581
 2473SOL    MW4 9924   2.282  -0.007   4.508 -0.1263 -0.0794  0.6433
 2474SOL     OW 9925   0.448   1.745   4.753 -0.2116 -0.2619 -0.0347
 2474SOL    HW2 9926   0.395   1.711   4.825 -1.3071 -0.7672 -1.0574
 2474SOL    HW3 9927   0.414   1.833   4.737 -0.6466 -0.5252 -0.5843
 2474SOL    MW4 9928   0.437   1.752   4.760 -0.4135 -0.3633 -0.2421
 2475SOL     OW 9929   1.533   4.474   4.253 -0.7774 -0.0867 -0.2056
 2475SOL    HW2 9930   1.450   4.429   4.239 -1.0342 -0.2301  1.6900
 2475SOL    HW3 9931   1.600   4.407   4.235 -1.0999 -0.4160 -0.1774
 2475SOL    MW4 9932   1.531   4.459   4.249 -0.8538 -0.1491  0.0482
 2476SOL     OW 9933   1.360   0.349   4.058  0.5394  0.0563  0.3643
 2476SOL    HW2 9934   1.348   0.289   4.132  0.2529 -1.0949 -0.5918
 2476SOL    HW3 9935   1.442   0.393   4.076  0.9411 -0.8982  0.9145
 2476SOL    MW4 9936   1.369   0.347   4.070  0.5546 -0.2215  0.3108
 2477SOL     OW 9937   0.705   1.664   4.647  0.5518 -0.1936  0.5040
 2477SOL    HW2 9938   0.623   1.676   4.696  1.8135  0.4256  2.4829
 2477SOL    HW3 9939   0.742   1.752   4.640  0.5928 -0.3247 -1.2586
 2477SOL    MW4 9940   0.699   1.677   4.653  0.7237 -0.1292  0.5325
 2478SOL     OW 9941   1.372   0.907   4.209  0.1113 -0.2135  0.2922
 2478SOL    HW2 9942   1.374   0.920   4.303 -0.3965 -0.6292  0.3684
 2478SOL    HW3 9943   1.369   0.995   4.172  0.2252 -0.0521  0.6641
 2478SOL    MW4 9944   1.372   0.920   4.216  0.0593 -0.2470  0.3513
 2479SOL     OW 9945   1.208   1.265   4.497 -0.1521 -0.2362 -0.0368
 2479SOL    HW2 9946   1.256   1.347   4.494 -0.0842 -0.2940 -0.8537
 2479SOL    HW3 9947   1.120   1.289   4.526 -0.0996  0.1117 -0.1616
 2479SOL    MW4 9948   1.202   1.279   4.500 -0.1362 -0.1980 -0.1611
 2480SOL     OW 9949   1.520   1.759   4.331 -0.0450  0.2629  0.2272
 2480SOL    HW2 9950   1.599   1.758   4.386  0.3419 -0.8422 -0.3390
 2480SOL    HW3 9951   1.545   1.710   4.252 -1.4644 -0.5372  0.2639
 2480SOL    MW4 9952   1.534   1.753   4.328 -0.1812  0.0115  0.1573
 2481SOL     OW 9953   1.740   1.789   4.732  0.3132 -0.3879 -0.1563
 2481SOL    HW2 9954   1.730   1.780   4.637 -0.5614  1.0514 -0.2249
 2481SOL    HW3 9955   1.694   1.713   4.768 -0.2654 -0.3835 -0.8630
 2481SOL    MW4 9956   1.733   1.778   4.724  0.1215 -0.1974 -0.2586
 2482SOL     OW 9957   3.630   2.551   4.699 -0.1549 -0.0746 -0.6226
 2482SOL    HW2 9958   3.541   2.519   4.714  0.4256 -0.9042  1.1643
 2482SOL    HW3 9959   3.676   2.476   4.662  0.3099 -0.2269  0.2734
 2482SOL    MW4 9960   3.624   2.537   4.696 -0.0170 -0.2042 -0.2686
 2483SOL     OW 9961   0.433   0.938   4.682  0.2254 -0.1567  0.1740
 2483SOL    HW2 9962   0.450   0.949   4.776  0.9352 -1.0904  0.1625
 2483SOL    HW3 9963   0.458   1.021   4.643  0.1825  0.1426  0.7748
 2483SOL    MW4 9964   0.438   0.950   4.689  0.3134 -0.2404  0.2517
 2484SOL     OW 9965   3.775   2.327   4.087  0.3295 -0.1215  0.3075
 2484SOL    HW2 9966   3.787   2.320   3.992 -0.2432 -1.8788  0.3467
 2484SOL    HW3 9967   3.853   2.372   4.118  0.7101  0.0936 -0.9500
 2484SOL    MW4 9968   3.787   2.332   4.078  0.3041 -0.3250  0.1468
 2485SOL     OW 9969   3.130   4.011   4.202 -0.4658 -0.0555  0.0649
 2485SOL    HW2 9970   3.109   3.997   4.294  1.7264 -0.3547  0.5287
 2485SOL    HW3 9971   3.219   3.977   4.191  0.0941  1.8536 -1.6826
 2485SOL    MW4 9972   3.139   4.005   4.213 -0.1027  0.1569 -0.1045
 2486SOL     OW 9973   1.774   1.922   4.123  0.1147 -0.6197 -0.4217
 2486SOL    HW2 9974   1.844   1.977   4.157  0.3327 -0.0656 -1.7274
 2486SOL    HW3 9975   1.786   1.838   4.166  1.0265 -0.2521  0.0434
 2486SOL    MW4 9976   1.785   1.918   4.133  0.2638 -0.4981 -0.5326
 2487SOL     OW 9977   2.270   2.559   4.149  0.1339 -0.1601  0.4378
 2487SOL    HW2 9978   2.264   2.619   4.223  1.0837  0.0145  0.3796
 2487SOL    HW3 9979   2.187   2.510   4.151 -0.8074  1.3923  0.2699
 2487SOL    MW4 9980   2.258   2.560   4.159  0.1350  0.0677  0.4080
 2488SOL     OW 9981   3.550   0.998   4.651  0.3353  0.1499  0.3247
 2488SOL    HW2 9982   3.505   1.041   4.724 -0.1093  0.7635 -0.3042
 2488SOL    HW3 9983   3.643   1.014   4.667  0.1345  2.2658 -0.4538
 2488SOL    MW4 9984   3.556   1.006   4.663  0.2501  0.5100  0.1390
 2489SOL     OW 9985   0.692   3.759   4.702  0.3122 -0.2059 -0.2652
 2489SOL    HW2 9986   0.625   3.767   4.770  0.4811  0.2980 -0.1599
 2489SOL    HW3 9987   0.654   3.699   4.638 -0.1891 -0.0199 -0.1417
 2489SOL    MW4 9988   0.678   3.752   4.702  0.2684 -0.1149 -0.2350
 2490SOL     OW 9989   4.258   0.409   4.507 -0.4133  0.4709  0.1159
 2490SOL    HW2 9990   4.193   0.390   4.575 -0.6296 -1.3708 -0.5860
 2490SOL    HW3 9991   4.329   0.347   4.524  0.1497  0.9347 -0.5050
 2490SOL    MW4 9992   4.259   0.398   4.518 -0.3676  0.2891 -0.0587
 2491SOL     OW 9993   0.969   2.466   4.282  0.0607 -0.0519 -0.0252
 2491SOL    HW2 9994   0.883   2.440   4.249 -0.5736  0.9623  0.7844
 2491SOL    HW3 9995   0.969   2.439   4.374  0.7687 -0.3977 -0.1154
 2491SOL    MW4 9996   0.958   2.459   4.290  0.0704  0.0363  0.0697
 2492SOL     OW 9997   2.730   0.351   4.619 -0.0016 -0.4212 -0.3175
 2492SOL    HW2 9998   2.754   0.260   4.603  0.2977 -0.6611  1.4636
 2492SOL    HW3 9999   2.813   0.398   4.611  0.1325 -0.5287  0.4703
 2492SOL    MW410000   2.744   0.345   4.616  0.0556 -0.4670  0.0214
 2493SOL     OW10001   3.733   2.806   4.650  0.1965 -0.4961 -0.1886
 2493SOL    HW210002   3.702   2.719   4.675  0.2168 -0.7926 -1.1578
 2493SOL    HW310003   3.814   2.789   4.601 -0.8364 -0.0654 -2.0821
 2493SOL    MW410004   3.740   2.792   4.646  0.0629 -0.4784 -0.5663
 2494SOL     OW10005   1.567   3.903   4.185  0.3232  0.2017  0.0041
 2494SOL    HW210006   1.491   3.942   4.226 -0.2191 -1.7020  0.8952
 2494SOL    HW310007   1.642   3.947   4.225 -0.2859  1.7271 -0.5164
 2494SOL    MW410008   1.567   3.914   4.196  0.1713  0.1517  0.0530
 2495SOL     OW10009   0.614   2.005   4.487  0.0202 -0.1920  0.2416
 2495SOL    HW210010   0.695   1.967   4.519  0.2531  0.4963  0.4708
 2495SOL    HW310011   0.615   2.095   4.519 -1.0121 -0.2927  0.5760
 2495SOL    MW410012   0.625   2.012   4.496 -0.0853 -0.1145  0.3160
 2496SOL     OW10013   1.361   4.279   4.155 -0.1179 -0.1378 -0.3561
 2496SOL    HW210014   1.357   4.292   4.060 -0.4700  1.5749 -0.1212
 2496SOL    HW310015   1.275   4.307   4.187  0.2923  0.1184  0.5490
 2496SOL    MW410016   1.349   4.285   4.146 -0.1102  0.1220 -0.2057
 2497SOL     OW10017   1.782   0.105   4.238  0.1371 -0.1065  0.5624
 2497SOL    HW210018   1.743   0.092   4.325 -1.0223  1.3748  0.2982
 2497SOL    HW310019   1.711   0.086   4.177  0.8279 -0.7295 -0.0537
 2497SOL    MW410020   1.767   0.101   4.241  0.0752  0.0067  0.4462
 2498SOL     OW10021   1.042   3.466   4.854  0.1215 -0.3037 -0.2113
 2498SOL    HW210022   1.045   3.406   4.928 -0.9541 -0.8224 -0.5838
 2498SOL    HW310023   0.950   3.489   4.846  0.5659  1.8122  0.2551
 2498SOL    MW410024   1.030   3.461   4.863  0.0382 -0.0930 -0.1989
 2499SOL     OW10025   0.479   4.129   4.449  0.4808  0.3603  0.4674
 2499SOL    HW210026   0.489   4.190   4.377 -0.5510  0.9402  0.8114
 2499SOL    HW310027   0.386   4.130   4.470  0.6905 -0.1419  1.5017
 2499SOL    MW410028   0.468   4.137   4.443  0.3723  0.3705  0.6493
 2500SOL     OW10029   1.805   0.373   3.841  0.1339  0.2823 -0.0047
 2500SOL    HW210030   1.884   0.423   3.824 -0.1155  0.7141  0.1022
 2500SOL    HW310031   1.800   0.365   3.936  0.2796 -0.1194 -0.0289
 2500SOL    MW410032   1.815   0.378   3.851  0.1203  0.2863  0.0062
 2501SOL     OW10033   2.020   4.640   4.158 -0.5419 -0.5491  0.1221
 2501SOL    HW210034   2.008   4.557   4.204 -1.6309  0.2069  1.2641
 2501SOL    HW310035   1.944   4.692   4.185  0.3382  0.9486 -0.2561
 2501SOL    MW410036   2.008   4.636   4.168 -0.5695 -0.2517  0.2229
 2502SOL     OW10037   2.662   4.477   4.618  0.1086 -0.3330 -0.0533
 2502SOL    HW210038   2.697   4.564   4.600 -0.4876  0.1502  1.0551
 2502SOL    HW310039   2.731   4.416   4.590  0.8094  0.5149 -0.1709
 2502SOL    MW410040   2.675   4.480   4.612  0.1224 -0.1574  0.0774
 2503SOL     OW10041   2.455   3.679   4.928  0.1417 -0.0141  0.3411
 2503SOL    HW210042   2.395   3.609   4.900  1.0629 -0.5569 -0.3207
 2503SOL    HW310043   2.441   3.687   5.022 -2.1022  0.9550 -0.0536
 2503SOL    MW410044   2.445   3.671   4.936 -0.0328  0.0422  0.2017
 2504SOL     OW10045   1.595   1.610   4.098  0.1786 -0.0382 -0.2074
 2504SOL    HW210046   1.685   1.622   4.131 -0.1302  0.0822  0.5996
 2504SOL    HW310047   1.565   1.529   4.139 -0.5450  0.6059  0.5519
 2504SOL    MW410048   1.603   1.600   4.108  0.0424  0.0627 -0.0008
 2505SOL     OW10049   2.960   0.461   4.262  0.0623 -0.0201  0.3074
 2505SOL    HW210050   2.877   0.431   4.226  0.1251  0.1847 -0.0114
 2505SOL    HW310051   2.960   0.555   4.245  0.5610 -0.0944 -0.1009
 2505SOL    MW410052   2.949   0.469   4.255  0.1364 -0.0029  0.2115
 2506SOL     OW10053   2.779   1.710   4.586  0.3278 -0.7039  0.0751
 2506SOL    HW210054   2.768   1.716   4.491 -2.2520  0.3078  0.3774
 2506SOL    HW310055   2.721   1.638   4.612  0.0101 -0.1162  1.0157
 2506SOL    MW410056   2.770   1.701   4.577 -0.0545 -0.4929  0.2391
 2507SOL     OW10057   2.859   2.333   4.123  0.4604 -0.2867 -0.3865
 2507SOL    HW210058   2.876   2.245   4.158  1.7149  0.7828  1.7695
 2507SOL    HW310059   2.926   2.388   4.162 -0.5275  1.7329 -1.4523
 2507SOL    MW410060   2.870   2.329   4.132  0.4956  0.1209 -0.2427
 2508SOL     OW10061   2.847   2.544   4.551 -0.4334  0.1069 -0.1384
 2508SOL    HW210062   2.793   2.504   4.482 -0.2130  1.1573 -0.9342
 2508SOL    HW310063   2.931   2.499   4.545 -0.3315  0.3782 -0.7266
 2508SOL    MW410064   2.851   2.533   4.541 -0.3909  0.2813 -0.3210
 2509SOL     OW10065   2.059   2.394   4.150 -0.6785  0.0969 -0.0149
 2509SOL    HW210066   1.974   2.424   4.183 -0.3454  2.1887 -1.0347
 2509SOL    HW310067   2.042   2.367   4.060 -0.0035  1.8963 -0.7080
 2509SOL    MW410068   2.046   2.394   4.143 -0.5455  0.6103 -0.2409
 2510SOL     OW10069   0.669   3.332   4.579 -0.3583 -0.3420  0.0444
 2510SOL    HW210070   0.750   3.302   4.538  0.3352  1.4409  0.0604
 2510SOL    HW310071   0.604   3.267   4.552  0.6556 -0.7314 -1.5993
 2510SOL    MW410072   0.671   3.319   4.570 -0.1331 -0.1581 -0.1704
 2511SOL     OW10073   1.001   1.745   4.322  0.7983 -0.1685  0.4276
 2511SOL    HW210074   0.931   1.683   4.343  0.1507  0.9574  1.6601
 2511SOL    HW310075   0.962   1.804   4.257  1.0575 -0.3635  0.0898
 2511SOL    MW410076   0.986   1.744   4.316  0.7470 -0.0457  0.5456
 2512SOL     OW10077   1.644   2.351   4.578 -0.5213 -0.5181  0.4508
 2512SOL    HW210078   1.576   2.293   4.545  0.6689 -1.9230  0.4291
 2512SOL    HW310079   1.704   2.294   4.625  1.9566  0.3021 -1.6107
 2512SOL    MW410080   1.643   2.336   4.580 -0.0373 -0.5952  0.1759
 2513SOL     OW10081   4.341   2.659   4.532 -0.0643 -0.4016  0.5211
 2513SOL    HW210082   4.392   2.635   4.609 -0.6482 -0.4294  0.8993
 2513SOL    HW310083   4.322   2.575   4.490  0.0493 -0.4032  0.4708
 2513SOL    MW410084   4.345   2.645   4.537 -0.1264 -0.4055  0.5644
 2514SOL     OW10085   2.028   3.123   3.888 -0.5137 -0.4254 -0.4053
 2514SOL    HW210086   2.093   3.178   3.844  0.0404 -1.9011 -1.4644
 2514SOL    HW310087   2.032   3.150   3.979  0.5359  0.5239 -0.7210
 2514SOL    MW410088   2.037   3.134   3.894 -0.3021 -0.4949 -0.5867
 2515SOL     OW10089   0.926   2.702   4.102  0.4143 -0.5449 -0.4979
 2515SOL    HW210090   0.994   2.764   4.130  0.3991 -0.4151 -0.7542
 2515SOL    HW310091   0.949   2.620   4.147  0.0650 -0.1816  0.3621
 2515SOL    MW410092   0.938   2.699   4.112  0.3662 -0.4799 -0.4183
 2516SOL     OW10093   1.813   3.545   4.170  0.1464 -0.0882 -0.1946
 2516SOL    HW210094   1.802   3.541   4.075  1.2756  0.2101 -0.3425
 2516SOL    HW310095   1.727   3.569   4.203 -0.0289  0.6968 -1.2107
 2516SOL    MW410096   1.800   3.548   4.162  0.2722  0.0547 -0.3482
 2517SOL     OW10097   1.331   2.711   4.110  0.2661  0.4294 -0.1357
 2517SOL    HW210098   1.359   2.620   4.123 -0.5480  0.2591  0.4285
 2517SOL    HW310099   1.402   2.763   4.148  0.3071  0.0173  0.3492
 2517SOL    MW410100   1.344   2.706   4.117  0.1641  0.3526  0.0027
 2518SOL     OW10101   2.013   3.970   4.237 -0.7794 -0.4311  0.6391
 2518SOL    HW210102   2.008   3.960   4.142  0.7191  0.4843  0.4527
 2518SOL    HW310103   1.927   4.004   4.262 -1.0414 -0.3008 -0.4295
 2518SOL    MW410104   2.001   3.973   4.228 -0.6163 -0.2931  0.4735
 2519SOL     OW10105   1.245   0.464   4.527  0.0531  0.3920  0.2006
 2519SOL    HW210106   1.331   0.476   4.487 -0.1781  1.1014 -0.0938
 2519SOL    HW310107   1.249   0.515   4.608  0.0152  0.1746  0.3393
 2519SOL    MW410108   1.257   0.473   4.532  0.0176  0.4569  0.1801
 2520SOL     OW10109   2.250   0.090   4.237 -0.4144 -0.3529  0.0750
 2520SOL    HW210110   2.167   0.056   4.202 -0.6566 -0.2453  0.5369
 2520SOL    HW310111   2.254   0.054   4.326 -0.4555  0.4635  0.4062
 2520SOL    MW410112   2.239   0.080   4.244 -0.4518 -0.2310  0.1796
 2521SOL     OW10113   3.154   1.895   4.157  0.1976  0.1432  0.1621
 2521SOL    HW210114   3.234   1.931   4.195  1.1537 -0.9210 -0.7893
 2521SOL    HW310115   3.142   1.812   4.203  0.5032 -0.4186 -0.7587
 2521SOL    MW410116   3.163   1.888   4.168  0.3641 -0.0713 -0.0849
 2522SOL     OW10117   0.213   4.166   4.510 -0.5399  0.1022 -0.1773
 2522SOL    HW210118   0.120   4.148   4.517 -0.2558 -2.3550 -2.0519
 2522SOL    HW310119   0.221   4.259   4.531 -3.5941  0.7047 -1.3673
 2522SOL    MW410120   0.202   4.176   4.513 -0.9054 -0.1425 -0.5817
 2523SOL     OW10121   1.520   1.365   4.223  0.2655  0.1285 -0.3047
 2523SOL    HW210122   1.450   1.314   4.182  1.1733 -2.3292  1.1004
 2523SOL    HW310123   1.478   1.407   4.298 -0.2238  0.5427 -0.8050
 2523SOL    MW410124   1.505   1.363   4.228  0.3207 -0.1411 -0.1853
 2524SOL     OW10125   2.706   0.867   4.214 -0.1489  0.1987 -0.2405
 2524SOL    HW210126   2.704   0.888   4.307  0.4543  0.5978 -0.3106
 2524SOL    HW310127   2.630   0.810   4.200 -1.1102  1.3750  0.1864
 2524SOL    MW410128   2.696   0.862   4.224 -0.1961  0.4065 -0.1934
 2525SOL     OW10129   2.929   4.629   4.142 -0.7155  0.0928  0.2616
 2525SOL    HW210130   3.002   4.668   4.191 -1.2810  0.4871  0.7994
 2525SOL    HW310131   2.852   4.675   4.175 -1.1826 -0.1776 -0.4576
 2525SOL    MW410132   2.929   4.640   4.153 -0.8518  0.1092  0.2377
 2526SOL     OW10133   2.533   2.474   4.111  0.0058  0.3083 -0.3169
 2526SOL    HW210134   2.547   2.424   4.192 -0.0985 -1.9378 -1.6513
 2526SOL    HW310135   2.451   2.521   4.127  0.3046  0.3728  1.1190
 2526SOL    MW410136   2.524   2.473   4.124  0.0314  0.0204 -0.3035
 2527SOL     OW10137   2.238   0.370   4.160 -0.3981  0.1028 -0.4646
 2527SOL    HW210138   2.323   0.398   4.195 -0.4470 -0.2410 -0.0751
 2527SOL    HW310139   2.238   0.275   4.171  0.1092 -0.1572 -2.5479
 2527SOL    MW410140   2.249   0.362   4.166 -0.3376  0.0231 -0.6880
 2528SOL     OW10141   2.477   4.645   4.138  0.1917  0.5369 -0.1902
 2528SOL    HW210142   2.483   4.558   4.178  1.4075  0.9243  0.5152
 2528SOL    HW310143   2.395   4.681   4.171 -0.4219 -0.4186 -0.6538
 2528SOL    MW410144   2.467   4.638   4.148  0.2712  0.4620 -0.1583
 2529SOL     OW10145   2.936   0.731   4.170 -0.1227 -0.1902  0.4779
 2529SOL    HW210146   2.858   0.778   4.199  1.0534  1.9066  0.3544
 2529SOL    HW310147   2.937   0.742   4.075  0.2637 -0.2756  0.4694
 2529SOL    MW410148   2.926   0.739   4.161  0.0835  0.0752  0.4604
 2530SOL     OW10149   2.183   1.220   4.152  0.0799  0.1707  0.7207
 2530SOL    HW210150   2.121   1.207   4.223  0.0313  0.4890  0.7382
 2530SOL    HW310151   2.192   1.315   4.145 -2.4381  0.2883 -1.8853
 2530SOL    MW410152   2.176   1.231   4.161 -0.2587  0.2282  0.3792
 2531SOL     OW10153   2.314   0.729   4.559 -0.1421  0.5451  0.3060
 2531SOL    HW210154   2.370   0.795   4.599 -0.6857  0.4515  1.2386
 2531SOL    HW310155   2.369   0.650   4.556  0.6933  1.1649 -1.3140
 2531SOL    MW410156   2.329   0.727   4.564 -0.1036  0.6145  0.2153
 2532SOL     OW10157   3.107   2.719   4.095 -0.4333 -0.1030 -0.2787
 2532SOL    HW210158   3.190   2.755   4.126 -0.4376  0.8651 -1.3341
 2532SOL    HW310159   3.041   2.773   4.137 -0.4836 -0.0825 -0.3812
 2532SOL    MW410160   3.109   2.731   4.104 -0.4405  0.0274 -0.4315
 2533SOL     OW10161   0.007   2.429   4.259 -0.4339  0.6379 -0.1560
 2533SOL    HW210162   0.037   2.426   4.350  0.2623 -0.1263 -0.4015
 2533SOL    HW310163   0.082   2.400   4.208 -1.1362  0.0845 -0.8983
 2533SOL    MW410164   0.021   2.425   4.265 -0.4347  0.4641 -0.2864
 2534SOL     OW10165   1.472   0.500   4.400 -0.3444 -0.3850  0.2993
 2534SOL    HW210166   1.513   0.501   4.313 -1.9026 -1.5717 -0.4650
 2534SOL    HW310167   1.494   0.586   4.437  1.4692 -0.3749 -0.7133
 2534SOL    MW410168   1.481   0.511   4.394 -0.3107 -0.5402  0.0648
 2535SOL     OW10169   2.115   3.367   4.557  0.1717 -0.0905  0.2151
 2535SOL    HW210170   2.184   3.363   4.623 -1.6506  0.3111  2.2175
 2535SOL    HW310171   2.094   3.460   4.550 -1.0640 -0.3160  0.6529
 2535SOL    MW410172   2.121   3.379   4.565 -0.2317 -0.0673  0.5370
 2536SOL     OW10173   2.538   1.548   4.612 -0.3512  0.2936  0.1660
 2536SOL    HW210174   2.568   1.528   4.523  0.9090  0.7836  0.4807
 2536SOL    HW310175   2.497   1.466   4.642  0.9093 -0.4838 -0.1758
 2536SOL    MW410176   2.537   1.534   4.604 -0.0186  0.2557  0.1624
 2537SOL     OW10177   2.498   0.973   4.597 -0.5743 -0.2180 -0.0663
 2537SOL    HW210178   2.434   1.020   4.543  0.3332 -0.7656 -1.6407
 2537SOL    HW310179   2.572   0.958   4.539 -0.1816 -2.1430  0.9032
 2537SOL    MW410180   2.499   0.978   4.582 -0.4028 -0.5442 -0.1461
 2538SOL     OW10181   1.790   3.267   4.236  0.0872  0.4063  0.1610
 2538SOL    HW210182   1.801   3.359   4.209 -0.9847  0.6469  0.5344
 2538SOL    HW310183   1.800   3.269   4.331  0.1960  0.1176  0.1539
 2538SOL    MW410184   1.793   3.279   4.245 -0.0398  0.4000  0.2093
 2539SOL     OW10185   2.439   2.180   4.681  0.1493 -0.3694 -0.6043
 2539SOL    HW210186   2.355   2.135   4.675 -0.0617 -0.1778  0.7085
 2539SOL    HW310187   2.492   2.125   4.739  0.3060  0.4214  0.0225
 2539SOL    MW410188   2.435   2.167   4.688  0.1422 -0.2398 -0.3484
 2540SOL     OW10189   2.228   3.494   4.168  0.1265  0.2717 -0.2376
 2540SOL    HW210190   2.238   3.413   4.219 -1.8122 -0.5936 -1.1489
 2540SOL    HW310191   2.153   3.538   4.208  0.8961  1.4057 -0.0314
 2540SOL    MW410192   2.219   3.489   4.180 -0.0277  0.3072 -0.3306
 2541SOL     OW10193   1.069   4.404   4.499  0.1295  0.0153 -0.4935
 2541SOL    HW210194   1.051   4.336   4.563  0.6014 -0.6612 -1.0664
 2541SOL    HW310195   1.151   4.444   4.528  0.4720 -0.4546 -0.8068
 2541SOL    MW410196   1.078   4.401   4.511  0.2369 -0.1360 -0.6104
 2542SOL     OW10197   2.274   4.039   4.331 -0.3273 -0.3018 -0.4033
 2542SOL    HW210198   2.332   3.987   4.275  0.1058 -1.3177  0.9428
 2542SOL    HW310199   2.188   4.000   4.319  0.2830 -2.5322  1.9012
 2542SOL    MW410200   2.270   4.027   4.322 -0.1897 -0.7301  0.0784
 2543SOL     OW10201   4.423   1.442   4.638 -0.6993  0.0234 -0.0209
 2543SOL    HW210202   4.440   1.460   4.730 -1.0651  0.5428 -0.0485
 2543SOL    HW310203   4.471   1.362   4.619 -0.3861  0.0775  0.5455
 2543SOL    MW410204   4.431   1.434   4.648 -0.7062  0.0991  0.0502
 2544SOL     OW10205   2.011   3.665   4.529 -0.5712 -0.0484 -0.5566
 2544SOL    HW210206   2.022   3.664   4.434 -1.3953  1.6047 -0.6813
 2544SOL    HW310207   1.918   3.650   4.543 -0.3885 -0.6978  0.0167
 2544SOL    MW410208   2.001   3.662   4.519 -0.6558  0.0840 -0.4974
 2545SOL     OW10209   1.125   3.901   4.827  0.5743 -0.3363 -0.2855
 2545SOL    HW210210   1.118   3.840   4.901 -0.3509 -1.7619 -1.5376
 2545SOL    HW310211   1.076   3.860   4.756  2.7936  0.2359 -2.2236
 2545SOL    MW410212   1.118   3.888   4.828  0.7451 -0.4489 -0.7064
 2546SOL     OW10213   1.809   0.940   4.228  0.0062 -0.2248  0.1958
 2546SOL    HW210214   1.736   0.888   4.194 -0.7213  0.8930  0.0302
 2546SOL    HW310215   1.787   1.030   4.205  1.4452  0.1267  0.1298
 2546SOL    MW410216   1.797   0.945   4.220  0.1001 -0.0310  0.1653
 2547SOL     OW10217   1.610   0.777   4.123 -0.0043  0.1280  0.3794
 2547SOL    HW210218   1.602   0.781   4.028 -1.1838 -0.4733  0.4425
 2547SOL    HW310219   1.529   0.816   4.156  0.7400  1.0413  1.1516
 2547SOL    MW410220   1.598   0.783   4.115 -0.0617  0.1692  0.4896
 2548SOL     OW10221   3.594   0.113   4.292 -0.4583  0.2702  0.2218
 2548SOL    HW210222   3.595   0.155   4.378 -1.2412 -0.8328  0.7658
 2548SOL    HW310223   3.676   0.063   4.289  0.1737  1.3049 -0.1812
 2548SOL    MW410224   3.605   0.112   4.303 -0.4782  0.2612  0.2404
 2549SOL     OW10225   3.319   4.394   4.329  0.2658 -0.0932  0.1545
 2549SOL    HW210226   3.265   4.414   4.405 -0.5313  2.0641 -0.9145
 2549SOL    HW310227   3.263   4.342   4.272  0.8449 -1.6647  1.0052
 2549SOL    MW410228   3.304   4.390   4.331  0.2370 -0.0159  0.1257
 2550SOL     OW10229   2.494   0.462   4.556 -0.2809 -0.4186 -0.0367
 2550SOL    HW210230   2.576   0.424   4.588 -0.8557 -1.6953 -0.0300
 2550SOL    HW310231   2.430   0.392   4.568 -0.9545 -0.1504 -1.9720
 2550SOL    MW410232   2.496   0.448   4.562 -0.4456 -0.5517 -0.2912
 2551SOL     OW10233   3.842   2.853   4.260 -0.2454  0.5069 -0.2888
 2551SOL    HW210234   3.768   2.805   4.225 -0.8111  0.1861  1.3164
 2551SOL    HW310235   3.838   2.939   4.217 -2.2299  0.9011  0.6574
 2551SOL    MW410236   3.832   2.858   4.250 -0.5819  0.5166  0.0478
 2552SOL     OW10237   2.605   3.417   4.663  0.2669 -0.0298 -0.2628
 2552SOL    HW210238   2.571   3.486   4.606  1.4591  0.6302 -0.1928
 2552SOL    HW310239   2.669   3.370   4.609  1.1474  0.3798  0.4028
 2552SOL    MW410240   2.609   3.420   4.648  0.5404  0.1113 -0.1657
 2553SOL     OW10241   0.777   3.488   4.781  0.0427 -0.1855 -0.3170
 2553SOL    HW210242   0.762   3.570   4.734  1.2671  0.1095 -0.1971
 2553SOL    HW310243   0.736   3.421   4.726  0.0446  0.3622 -0.9934
 2553SOL    MW410244   0.769   3.490   4.768  0.2045 -0.0743 -0.3904
 2554SOL     OW10245   1.139   4.403   4.238 -0.2872 -0.6531 -0.0463
 2554SOL    HW210246   1.137   4.495   4.214  0.0156 -0.7848 -0.5947
 2554SOL    HW310247   1.115   4.401   4.330  1.7091  0.1605  0.5118
 2554SOL    MW410248   1.136   4.415   4.247  0.0161 -0.5631 -0.0450
 2555SOL     OW10249   2.716   2.393   4.355 -0.2228  0.2414  0.3441
 2555SOL    HW210250   2.770   2.388   4.277 -0.5300 -1.3463  0.2282
 2555SOL    HW310251   2.682   2.304   4.368 -1.4436  0.8278  1.3754
 2555SOL    MW410252   2.718   2.381   4.347 -0.4244  0.1093  0.4649
 2556SOL     OW10253   2.682   2.693   4.202  0.2860 -0.3015  0.0226
 2556SOL    HW210254   2.633   2.615   4.174 -0.1225 -0.0083 -0.0877
 2556SOL    HW310255   2.619   2.743   4.254  0.4256  0.1520 -0.2452
 2556SOL    MW410256   2.667   2.689   4.205  0.2505 -0.2029 -0.0273
 2557SOL     OW10257   3.338   2.991   4.610 -0.0936  0.0838  0.2300
 2557SOL    HW210258   3.432   2.993   4.626 -0.2618  0.7874  1.1639
 2557SOL    HW310259   3.317   3.079   4.578 -0.4102 -0.1176 -0.1298
 2557SOL    MW410260   3.348   3.003   4.608 -0.1576  0.1501  0.3057
 2558SOL     OW10261   1.129   0.837   4.566 -0.3754  0.2050  0.0679
 2558SOL    HW210262   1.194   0.899   4.532 -0.8145  1.0173  0.6944
 2558SOL    HW310263   1.129   0.766   4.502  0.6665  0.4975 -0.2800
 2558SOL    MW410264   1.138   0.836   4.553 -0.2959  0.3508  0.1047
 2559SOL     OW10265   0.235   0.030   4.774 -0.2956 -0.1955 -0.0959
 2559SOL    HW210266   0.253   0.124   4.779  0.8443 -0.4847  1.4310
 2559SOL    HW310267   0.316  -0.009   4.742 -0.6559 -0.7017 -0.4052
 2559SOL    MW410268   0.248   0.037   4.771 -0.1927 -0.3004  0.0648
 2560SOL     OW10269   2.232   3.265   4.312 -0.0486 -0.3992 -0.6475
 2560SOL    HW210270   2.214   3.284   4.404 -0.3322  1.8114 -1.1345
 2560SOL    HW310271   2.159   3.210   4.284 -2.0529  2.1195 -0.5547
 2560SOL    MW410272   2.220   3.260   4.321 -0.3505  0.2248 -0.6995
 2561SOL     OW10273   3.927   1.568   4.495 -0.2533  0.7980 -0.1587
 2561SOL    HW210274   3.897   1.640   4.551  0.7702 -0.0043  1.4730
 2561SOL    HW310275   3.879   1.492   4.527  0.5427  0.2814 -0.1672
 2561SOL    MW410276   3.917   1.568   4.507 -0.0133  0.6240  0.0554
 2562SOL     OW10277   2.905   3.132   4.158  0.3063  0.1205 -0.1795
 2562SOL    HW210278   2.910   3.041   4.187  1.1927  0.5075  0.8839
 2562SOL    HW310279   2.891   3.126   4.064 -1.5500 -1.1395  0.1384
 2562SOL    MW410280   2.904   3.119   4.150  0.1784  0.0053  0.0028
 2563SOL     OW10281   3.608   2.735   4.192 -0.6494  0.2699  0.1035
 2563SOL    HW210282   3.587   2.650   4.230  0.7833  0.2014  0.7934
 2563SOL    HW310283   3.600   2.722   4.097  1.4534 -1.2045  0.0816
 2563SOL    MW410284   3.604   2.722   4.184 -0.1829  0.0663  0.1916
 2564SOL     OW10285   2.721   3.532   4.157 -0.0109  0.1328 -0.2436
 2564SOL    HW210286   2.712   3.440   4.183 -0.6154  0.2563 -0.0034
 2564SOL    HW310287   2.807   3.558   4.191  0.2726 -0.4130 -0.5368
 2564SOL    MW410288   2.731   3.523   4.165 -0.0533  0.0770 -0.2506
 2565SOL     OW10289   3.650   3.515   4.454 -0.1560 -0.0123 -0.4754
 2565SOL    HW210290   3.666   3.422   4.472  0.2717 -0.1966 -1.7517
 2565SOL    HW310291   3.558   3.528   4.475 -0.1914 -0.7065 -0.1920
 2565SOL    MW410292   3.640   3.504   4.459 -0.1043 -0.1282 -0.6064
 2566SOL     OW10293   1.506   2.578   4.479  0.2829 -0.4213 -0.7935
 2566SOL    HW210294   1.558   2.658   4.479 -0.3526  0.0073 -0.0032
 2566SOL    HW310295   1.567   2.509   4.505  0.5762 -0.0077 -0.3844
 2566SOL    MW410296   1.521   2.580   4.483  0.2377 -0.3102 -0.6352
 2567SOL     OW10297   3.358   2.480   4.596 -0.0900 -0.0067 -0.0333
 2567SOL    HW210298   3.362   2.570   4.565  0.7623 -0.4257 -1.1819
 2567SOL    HW310299   3.268   2.453   4.577 -0.1697  0.4048 -0.2479
 2567SOL    MW410300   3.346   2.488   4.589  0.0119 -0.0077 -0.2132
 2568SOL     OW10301   4.059   3.214   4.235 -0.2221  0.0898 -0.7277
 2568SOL    HW210302   4.056   3.300   4.192 -1.3117  0.0164 -0.8208
 2568SOL    HW310303   3.989   3.164   4.193  0.0068 -0.6490 -0.2474
 2568SOL    MW410304   4.049   3.219   4.224 -0.3357 -0.0173 -0.6766
 2569SOL     OW10305   0.979   3.814   4.622 -0.1725 -0.2110  0.2024
 2569SOL    HW210306   0.901   3.765   4.650  0.6450 -0.0773  2.7585
 2569SOL    HW310307   0.943   3.895   4.585 -1.2910 -0.4230  0.7832
 2569SOL    MW410308   0.964   3.818   4.621 -0.2122 -0.2213  0.6163
 2570SOL     OW10309   2.904   4.310   4.513  0.0015 -0.2316 -0.0541
 2570SOL    HW210310   2.912   4.315   4.418 -0.6171 -0.6289 -0.1281
 2570SOL    HW310311   2.894   4.217   4.532  0.6134 -0.1995  0.4431
 2570SOL    MW410312   2.904   4.299   4.503  0.0006 -0.2798  0.0017
 2571SOL     OW10313   2.820   3.258   4.529  0.1262 -0.4567  0.5752
 2571SOL    HW210314   2.820   3.167   4.559 -1.0986 -0.4438  0.6198
 2571SOL    HW310315   2.803   3.252   4.435  0.1106 -0.2697  0.5670
 2571SOL    MW410316   2.818   3.245   4.521 -0.0374 -0.4304  0.5800
 2572SOL     OW10317   0.639   3.590   4.492 -0.0667 -0.7751  0.0671
 2572SOL    HW210318   0.639   3.498   4.521 -0.9385 -0.2931  1.5890
 2572SOL    HW310319   0.548   3.617   4.496 -0.3332 -0.7860 -3.5655
 2572SOL    MW410320   0.627   3.581   4.496 -0.2169 -0.7129 -0.2114
 2573SOL     OW10321   3.956   2.761   4.475 -0.2286  0.0122  0.0344
 2573SOL    HW210322   3.940   2.668   4.463  1.3951 -0.2134 -0.5615
 2573SOL    HW310323   3.920   2.802   4.397 -2.3292  0.0633  1.0112
 2573SOL    MW410324   3.949   2.755   4.463 -0.2915 -0.0108  0.0847
 2574SOL     OW10325   4.137   1.080   4.662 -0.0577  0.0340  0.4644
 2574SOL    HW210326   4.171   1.162   4.626 -0.2759  0.7614  1.8505
 2574SOL    HW310327   4.215   1.030   4.685  0.0899  0.5458  1.1082
 2574SOL    MW410328   4.151   1.084   4.660 -0.0671  0.1975  0.7322
 2575SOL     OW10329   3.346   0.740   4.167 -0.0891  0.1200  0.1934
 2575SOL    HW210330   3.424   0.754   4.220  0.7097  0.5850 -1.0711
 2575SOL    HW310331   3.280   0.798   4.204 -0.0706 -0.8153  1.7322
 2575SOL    MW410332   3.348   0.750   4.179  0.0187  0.0580  0.2296
 2576SOL     OW10333   3.159   4.273   4.139  0.3441 -0.0979 -0.2596
 2576SOL    HW210334   3.071   4.303   4.165  0.7661  0.3309  0.6803
 2576SOL    HW310335   3.157   4.178   4.154  0.1506 -0.0425  0.0719
 2576SOL    MW410336   3.147   4.264   4.145  0.3743 -0.0340 -0.0918
 2577SOL     OW10337   0.819   2.550   4.646  0.4839  0.4318  0.4740
 2577SOL    HW210338   0.875   2.480   4.612 -0.1484 -0.3366  0.9935
 2577SOL    HW310339   0.870   2.589   4.717  0.2173 -0.5127  1.1900
 2577SOL    MW410340   0.833   2.546   4.651  0.3653  0.2058  0.6370
 2578SOL     OW10341   3.407   1.520   4.152 -0.2500  0.4449 -0.2712
 2578SOL    HW210342   3.400   1.426   4.171  1.1486  0.1543 -1.1429
 2578SOL    HW310343   3.390   1.527   4.058 -0.1421  1.0384 -0.2471
 2578SOL    MW410344   3.404   1.509   4.142 -0.0512  0.4848 -0.3830
 2579SOL     OW10345   4.418   1.949   4.516  0.5667  0.5160 -0.0266
 2579SOL    HW210346   4.503   1.985   4.544 -0.2591  0.1175  3.1985
 2579SOL    HW310347   4.426   1.855   4.529 -0.7568  0.5879  1.5251
 2579SOL    MW410348   4.430   1.942   4.522  0.2831  0.4729  0.6036
 2580SOL     OW10349   2.241   0.843   4.297 -0.0100 -0.7481  0.4091
 2580SOL    HW210350   2.249   0.827   4.391 -0.6636  0.9345  0.7717
 2580SOL    HW310351   2.249   0.938   4.288 -1.0608 -0.7826 -1.1153
 2580SOL    MW410352   2.243   0.853   4.308 -0.2349 -0.5306  0.2558
 2581SOL     OW10353   2.727   0.364   4.165  0.3056  0.5194  0.2423
 2581SOL    HW210354   2.704   0.370   4.072  1.9621 -0.8121 -0.2832
 2581SOL    HW310355   2.647   0.386   4.211 -0.9121 -0.1386 -1.5076
 2581SOL    MW410356   2.714   0.368   4.159  0.3635  0.2569 -0.0580
 2582SOL     OW10357   3.293   2.318   4.121  0.2418 -0.0757 -0.6512
 2582SOL    HW210358   3.368   2.367   4.156 -0.7002  0.8788  0.0607
 2582SOL    HW310359   3.297   2.334   4.026  1.9212 -1.4372 -0.8275
 2582SOL    MW410360   3.303   2.327   4.113  0.3391 -0.1294 -0.5805
 2583SOL     OW10361   0.918   3.225   4.506 -0.1974 -0.1749 -0.6670
 2583SOL    HW210362   1.001   3.265   4.532 -1.2611  2.7902 -1.6226
 2583SOL    HW310363   0.929   3.204   4.413 -0.1629 -0.7133 -0.5416
 2583SOL    MW410364   0.930   3.228   4.497 -0.3332  0.1453 -0.7766
 2584SOL     OW10365   3.786   1.336   4.547 -0.1050  0.2443  0.0420
 2584SOL    HW210366   3.695   1.347   4.571  0.5220  1.1701  2.0614
 2584SOL    HW310367   3.783   1.310   4.455 -2.4300 -0.7348  0.3629
 2584SOL    MW410368   3.774   1.334   4.538 -0.3290  0.2372  0.3508
 2585SOL     OW10369   2.094   2.229   4.436 -0.2934 -0.1440 -0.2577
 2585SOL    HW210370   2.047   2.163   4.385 -2.4512  0.9176  0.2969
 2585SOL    HW310371   2.166   2.256   4.379  1.0088 -3.3837 -0.2377
 2585SOL    MW410372   2.097   2.224   4.422 -0.4063 -0.4314 -0.1819
 2586SOL     OW10373   3.362   3.079   4.187  0.1200  0.2964  0.0820
 2586SOL    HW210374   3.348   3.081   4.092 -0.3015  1.6143  0.1562
 2586SOL    HW310375   3.450   3.114   4.198 -0.2744  1.2345  0.2519
 2586SOL    MW410376   3.372   3.084   4.176  0.0124  0.5941  0.1142
 2587SOL     OW10377   2.002   0.225   4.613 -0.2504 -0.0488  0.1603
 2587SOL    HW210378   2.006   0.129   4.613  1.1670 -0.0031  1.0185
 2587SOL    HW310379   2.093   0.252   4.624 -0.7944  1.3935  1.1396
 2587SOL    MW410380   2.015   0.216   4.614 -0.1351  0.1475  0.4027
 2588SOL     OW10381   0.626   4.398   4.638  0.0183  0.1489  0.1641
 2588SOL    HW210382   0.710   4.439   4.616  0.4737 -0.8433  0.0028
 2588SOL    HW310383   0.649   4.307   4.656 -1.0208 -0.1041  0.2183
 2588SOL    MW410384   0.640   4.391   4.638 -0.0587 -0.0154  0.1500
 2589SOL     OW10385   4.319   4.456   4.262  0.4515 -0.0565 -0.1601
 2589SOL    HW210386   4.281   4.474   4.348 -0.5077 -1.5832 -0.2354
 2589SOL    HW310387   4.249   4.412   4.213  1.2442  0.0754 -1.4532
 2589SOL    MW410388   4.305   4.452   4.267  0.4295 -0.2405 -0.3407
 2590SOL     OW10389   2.285   3.454   4.920 -0.0389 -0.0894 -0.2321
 2590SOL    HW210390   2.319   3.386   4.862 -2.6406 -0.9958 -0.7738
 2590SOL    HW310391   2.226   3.505   4.865  0.2720  1.3252  0.7190
 2590SOL    MW410392   2.282   3.452   4.905 -0.3412 -0.0224 -0.1781
 2591SOL     OW10393   3.662   1.948   4.780 -0.1167 -0.0431  0.0529
 2591SOL    HW210394   3.577   1.940   4.735 -0.6667  0.6031  0.9648
 2591SOL    HW310395   3.694   2.035   4.756 -0.4993  0.3759  1.0654
 2591SOL    MW410396   3.655   1.958   4.771 -0.2398  0.0975  0.3068
 2592SOL     OW10397   3.062   1.611   4.561 -0.4302 -0.1439  0.1821
 2592SOL    HW210398   3.032   1.521   4.551 -2.5818  0.6088 -0.3865
 2592SOL    HW310399   2.984   1.660   4.588  0.6523  1.5887  0.2573
 2592SOL    MW410400   3.048   1.606   4.563 -0.5712  0.1840  0.1170
 2593SOL     OW10401   2.031   3.674   4.260 -0.0293  0.3504 -0.0427
 2593SOL    HW210402   2.011   3.768   4.256 -0.0918  0.3111 -0.8619
 2593SOL    HW310403   1.950   3.631   4.236 -0.0009  0.0857  0.3424
 2593SOL    MW410404   2.018   3.681   4.256 -0.0338  0.3103 -0.0999
 2594SOL     OW10405   3.666   4.506   4.642  0.2377 -0.2510  0.0478
 2594SOL    HW210406   3.713   4.456   4.710 -1.4189 -0.9479  0.6980
 2594SOL    HW310407   3.734   4.529   4.579  1.3410 -1.8721  0.6076
 2594SOL    MW410408   3.681   4.502   4.643  0.1647 -0.5568  0.2075
 2595SOL     OW10409   3.591   0.359   4.148 -0.3553 -0.2393  0.3505
 2595SOL    HW210410   3.590   0.274   4.193 -2.9789 -0.5986 -0.3225
 2595SOL    HW310411   3.603   0.337   4.056 -0.2960  0.1748  0.2589
 2595SOL    MW410412   3.593   0.345   4.142 -0.6936 -0.2320  0.2496
 2596SOL     OW10413   3.836   0.426   4.562  0.1138  0.6395  0.0976
 2596SOL    HW210414   3.858   0.512   4.597  0.4116  0.7618 -0.3771
 2596SOL    HW310415   3.834   0.439   4.467 -0.7197  0.3246  0.0717
 2596SOL    MW410416   3.839   0.439   4.554  0.0431  0.6141  0.0316
 2597SOL     OW10417   3.217   3.721   4.632 -1.0638 -0.1387  0.6235
 2597SOL    HW210418   3.149   3.719   4.699 -2.7610 -0.1801 -1.0578
 2597SOL    HW310419   3.193   3.794   4.574  0.8469  0.4563  0.5303
 2597SOL    MW410420   3.205   3.730   4.633 -1.0356 -0.0657  0.3894
 2598SOL     OW10421   3.831   0.716   4.165  0.0773  0.2918 -0.2077
 2598SOL    HW210422   3.898   0.782   4.186  0.2595  0.3131 -0.8269
 2598SOL    HW310423   3.830   0.713   4.069 -0.7531  0.2287 -0.2000
 2598SOL    MW410424   3.840   0.724   4.155 -0.0082  0.2863 -0.2883
 2599SOL     OW10425   4.477   0.243   4.535 -0.2780 -0.2686 -0.2461
 2599SOL    HW210426   4.485   0.200   4.450  0.6885 -0.6377  0.0251
 2599SOL    HW310427   4.565   0.277   4.553 -0.1130 -1.4296  1.2359
 2599SOL    MW410428   4.490   0.242   4.526 -0.1287 -0.4704 -0.0148
 2600SOL     OW10429   3.607   1.112   4.145  0.2929 -0.0183  0.1200
 2600SOL    HW210430   3.611   1.131   4.051 -0.1501  0.8978  0.2840
 2600SOL    HW310431   3.525   1.150   4.174  0.7770  0.3537  1.0310
 2600SOL    MW410432   3.597   1.120   4.136  0.2984  0.1517  0.2619
 2601SOL     OW10433   4.029   1.149   4.175  0.1698 -0.0906  0.3365
 2601SOL    HW210434   4.103   1.194   4.215  0.1902  0.3596 -0.2054
 2601SOL    HW310435   3.952   1.183   4.222  0.2507 -0.0613  0.4483
 2601SOL    MW410436   4.028   1.159   4.187  0.1831 -0.0273  0.2798
 2602SOL     OW10437   2.430   2.017   4.201 -0.4208 -0.2805 -0.1414
 2602SOL    HW210438   2.411   1.977   4.286 -0.9188 -0.2867 -0.2558
 2602SOL    HW310439   2.385   2.102   4.204 -0.4620 -0.2934 -0.4121
 2602SOL    MW410440   2.422   2.023   4.213 -0.4919 -0.2830 -0.1922
 2603SOL     OW10441   3.468   0.050   4.653 -0.4097 -0.0261 -0.2701
 2603SOL    HW210442   3.510   0.134   4.634  0.0132 -0.2537 -0.3540
 2603SOL    HW310443   3.541  -0.013   4.657 -0.7718 -0.4916 -0.7906
 2603SOL    MW410444   3.483   0.053   4.651 -0.4017 -0.1175 -0.3498
 2604SOL     OW10445   3.845   3.856   4.142  0.5763 -0.1122 -0.2551
 2604SOL    HW210446   3.774   3.909   4.179  1.0613  0.0459  0.4600
 2604SOL    HW310447   3.922   3.912   4.149  0.9556 -0.6420 -0.1448
 2604SOL    MW410448   3.846   3.871   4.148  0.6903 -0.1612 -0.1462
 2605SOL     OW10449   3.623   1.943   4.175  0.2583  0.1192 -0.2178
 2605SOL    HW210450   3.542   1.990   4.199 -0.9066 -2.2219  0.5923
 2605SOL    HW310451   3.615   1.929   4.081  0.0222  0.4694 -0.2517
 2605SOL    MW410452   3.611   1.948   4.166  0.0734 -0.1434 -0.1154
 2606SOL     OW10453   2.754   1.691   4.307  0.2821  0.0950  0.3258
 2606SOL    HW210454   2.670   1.644   4.307 -0.0591  0.7033 -0.3007
 2606SOL    HW310455   2.738   1.769   4.254  0.5058  1.5695  2.4151
 2606SOL    MW410456   2.741   1.695   4.300  0.2666  0.3698  0.5188
 2607SOL     OW10457   0.650   2.039   4.217 -0.4449 -0.4941 -0.6695
 2607SOL    HW210458   0.636   2.044   4.312 -0.2745 -1.4307 -0.5872
 2607SOL    HW310459   0.572   1.995   4.184 -0.6293  0.0772 -1.0027
 2607SOL    MW410460   0.638   2.034   4.225 -0.4468 -0.5423 -0.7026
 2608SOL     OW10461   2.126   2.598   4.554 -0.0870  0.1664 -0.2010
 2608SOL    HW210462   2.040   2.557   4.551 -0.0612  0.0828  0.1278
 2608SOL    HW310463   2.176   2.544   4.615  0.1250  0.3506 -0.2115
 2608SOL    MW410464   2.121   2.585   4.562 -0.0556  0.1797 -0.1590
 2609SOL     OW10465   3.707   3.248   4.493 -0.1051  0.1999  0.3350
 2609SOL    HW210466   3.662   3.187   4.552  1.4267 -1.4427 -0.1241
 2609SOL    HW310467   3.798   3.216   4.491  0.4688  1.8443 -0.8055
 2609SOL    MW410468   3.713   3.236   4.501  0.1727  0.2001  0.1239
 2610SOL     OW10469   4.451   3.488   4.087 -0.0085  0.0917  0.0730
 2610SOL    HW210470   4.485   3.399   4.100 -1.1344 -0.1778  1.2935
 2610SOL    HW310471   4.425   3.490   3.995  0.0003 -0.8563  0.0433
 2610SOL    MW410472   4.452   3.476   4.076 -0.1559 -0.0689  0.2301
 2611SOL     OW10473   1.390   2.961   4.596  0.2213 -0.1484  0.3081
 2611SOL    HW210474   1.402   2.943   4.690  0.4075 -0.4998  0.2203
 2611SOL    HW310475   1.371   3.054   4.591  2.8026  0.4145  0.4641
 2611SOL    MW410476   1.389   2.971   4.608  0.5864 -0.1205  0.3171
 2612SOL     OW10477   3.293   4.125   4.590 -0.6622  0.5451 -0.0368
 2612SOL    HW210478   3.254   4.210   4.610  0.2789  1.9968 -4.0321
 2612SOL    HW310479   3.381   4.145   4.559 -1.0160 -1.7061 -2.7232
 2612SOL    MW410480   3.300   4.139   4.589 -0.5847  0.4396 -0.9184
 2613SOL     OW10481   1.653   3.365   4.622  0.2438  0.0292  0.2722
 2613SOL    HW210482   1.649   3.365   4.718  0.8685 -1.7687  0.3167
 2613SOL    HW310483   1.575   3.317   4.595  0.5614 -0.2902 -0.0836
 2613SOL    MW410484   1.642   3.359   4.631  0.3681 -0.2502  0.2311
 2614SOL     OW10485   4.281   3.869   4.127  0.1100  0.1544 -0.3120
 2614SOL    HW210486   4.267   3.847   4.035 -1.0411  0.2436 -0.1744
 2614SOL    HW310487   4.267   3.787   4.174 -0.8461  0.4405 -0.0878
 2614SOL    MW410488   4.277   3.856   4.121 -0.1680  0.2039 -0.2643
 2615SOL     OW10489   3.627   4.277   4.201  0.4497  0.1335  0.0093
 2615SOL    HW210490   3.576   4.297   4.280  2.0994 -0.3604  1.2176
 2615SOL    HW310491   3.641   4.182   4.205  0.0303  0.0140 -1.1975
 2615SOL    MW410492   3.622   4.267   4.212  0.6120  0.0526  0.0095
 2616SOL     OW10493   3.912   4.513   4.526  0.1740 -0.2668 -0.2931
 2616SOL    HW210494   3.941   4.447   4.589  0.2949 -1.5915 -1.6994
 2616SOL    HW310495   3.916   4.468   4.441 -1.8640  0.8733 -1.0151
 2616SOL    MW410496   3.917   4.498   4.523 -0.0790 -0.2911 -0.5739
 2617SOL     OW10497   3.207   4.625   4.725 -0.0611 -0.7357  0.6377
 2617SOL    HW210498   3.152   4.664   4.657  0.2427 -3.0026 -0.9364
 2617SOL    HW310499   3.294   4.662   4.709 -0.1608 -0.6441  0.2944
 2617SOL    MW410500   3.212   4.635   4.714 -0.0342 -1.0227  0.3847
 2618SOL     OW10501   4.292   0.027   4.107 -0.0015 -0.0512 -0.2971
 2618SOL    HW210502   4.319  -0.053   4.151 -1.0872 -0.3514 -0.1596
 2618SOL    HW310503   4.217   0.058   4.158  1.0313  1.5876  0.2382
 2618SOL    MW410504   4.285   0.021   4.119 -0.0085  0.1254 -0.2083
 2619SOL     OW10505   3.884   4.406   4.255 -0.0932  0.2410 -0.2405
 2619SOL    HW210506   3.876   4.496   4.223 -0.8461 -0.3646 -1.8129
 2619SOL    HW310507   3.806   4.361   4.223  0.3844 -1.0312  0.3236
 2619SOL    MW410508   3.873   4.412   4.246 -0.1295 -0.0067 -0.3735
 2620SOL     OW10509   4.014   0.385   4.128 -0.1515 -0.1060 -0.0382
 2620SOL    HW210510   4.097   0.430   4.145 -0.4727  0.2675  0.5359
 2620SOL    HW310511   3.950   0.430   4.183 -0.8496 -0.0447 -0.8801
 2620SOL    MW410512   4.017   0.397   4.137 -0.2860 -0.0486 -0.0735
 2621SOL     OW10513   4.282   0.508   4.252 -0.1507  0.4986  0.4807
 2621SOL    HW210514   4.262   0.480   4.341 -0.1077  0.4893  0.4873
 2621SOL    HW310515   4.371   0.475   4.236 -0.3606  0.0446  0.2462
 2621SOL    MW410516   4.291   0.500   4.261 -0.1727  0.4375  0.4506
 2622SOL     OW10517   4.277   0.770   4.130  0.0436  0.1402  0.3364
 2622SOL    HW210518   4.283   0.767   4.034 -0.0842 -0.8247  0.3490
 2622SOL    HW310519   4.262   0.679   4.155 -0.0854  0.4177  1.2677
 2622SOL    MW410520   4.276   0.757   4.121  0.0097  0.0495  0.4610
 2623SOL     OW10521   4.168   1.326   4.536 -0.2963  0.1860  0.0899
 2623SOL    HW210522   4.212   1.399   4.580  0.1177  0.1567 -0.2654
 2623SOL    HW310523   4.090   1.365   4.498  0.9195  0.8876 -1.7684
 2623SOL    MW410524   4.164   1.341   4.536 -0.0812  0.2747 -0.2021
 2624SOL     OW10525   0.029   1.681   4.520 -0.3421  0.5241  0.0066
 2624SOL    HW210526   0.003   1.601   4.565  0.3653  0.1332 -0.2778
 2624SOL    HW310527   0.124   1.675   4.513 -0.4547  0.4244 -1.8175
 2624SOL    MW410528   0.038   1.670   4.525 -0.2636  0.4594 -0.2716
 2625SOL     OW10529   0.703   1.222   4.197  0.0413  0.2958 -0.1438
 2625SOL    HW210530   0.775   1.201   4.138  0.1345 -0.0132  0.0795
 2625SOL    HW310531   0.731   1.191   4.283 -0.3532  0.1758 -0.0533
 2625SOL    MW410532   0.716   1.215   4.201  0.0015  0.2392 -0.1024
 2626SOL     OW10533   4.229   1.524   4.159 -0.3135  0.6040 -0.4683
 2626SOL    HW210534   4.234   1.442   4.208  0.8232  0.8798 -0.1070
 2626SOL    HW310535   4.236   1.499   4.067 -0.0349  0.2960 -0.3621
 2626SOL    MW410536   4.230   1.510   4.154 -0.1268  0.5997 -0.4066
 2627SOL     OW10537   4.428   4.078   4.526 -0.5425  0.2759 -0.4356
 2627SOL    HW210538   4.440   4.052   4.435  0.2694  0.6924 -0.4514
 2627SOL    HW310539   4.429   3.997   4.575 -0.8179  0.0627 -0.7820
 2627SOL    MW410540   4.430   4.064   4.520 -0.4718  0.3027 -0.4834
 2628SOL     OW10541   4.027   1.940   4.135 -0.1086  0.0601  0.1683
 2628SOL    HW210542   4.007   1.848   4.155 -0.2134 -0.1942 -1.0641
 2628SOL    HW310543   3.968   1.990   4.191  0.5391 -0.5963  1.4834
 2628SOL    MW410544   4.017   1.934   4.145 -0.0370 -0.0601  0.1792
 2629SOL     OW10545   4.481   1.675   4.241  0.2630  0.2896 -0.0212
 2629SOL    HW210546   4.501   1.682   4.334 -0.9378  0.9734  0.1962
 2629SOL    HW310547   4.393   1.636   4.238  0.8047 -0.9038 -0.8991
 2629SOL    MW410548   4.472   1.671   4.253  0.1761  0.2224 -0.1083
 2630SOL     OW10549   4.260   2.058   4.232 -0.2228  0.2620  0.1015
 2630SOL    HW210550   4.177   2.026   4.196 -0.7525  1.6820  0.0152
 2630SOL    HW310551   4.242   2.070   4.326  0.5377 -1.4619  0.4911
 2630SOL    MW410552   4.247   2.056   4.240 -0.1923  0.2219  0.1415
 2631SOL     OW10553   3.352   3.509   4.513 -0.1773 -0.2369  0.1192
 2631SOL    HW210554   3.315   3.423   4.533  0.1068  0.0152  1.7448
 2631SOL    HW310555   3.298   3.571   4.562 -0.4625  0.5445 -1.1457
 2631SOL    MW410556   3.340   3.506   4.522 -0.1774 -0.1005  0.1668
 2632SOL     OW10557   4.048   2.705   4.117 -0.3076  0.1524 -0.5566
 2632SOL    HW210558   3.973   2.754   4.152 -0.0277 -1.0378  1.8312
 2632SOL    HW310559   4.124   2.741   4.162  0.0960 -1.2764 -0.0655
 2632SOL    MW410560   4.048   2.716   4.127 -0.2174 -0.1931 -0.1768
 2633SOL     OW10561   2.955   1.295   4.243 -0.6828 -0.0713 -0.0424
 2633SOL    HW210562   2.883   1.240   4.215 -0.2793  0.3668 -2.0723
 2633SOL    HW310563   2.941   1.378   4.197  0.4270  0.4422  0.5189
 2633SOL    MW410564   2.944   1.299   4.233 -0.4832  0.0543 -0.2362
 2634SOL     OW10565   4.294   3.078   4.109  0.0770 -0.0367 -0.0695
 2634SOL    HW210566   4.220   3.136   4.126  0.6562  0.6716  0.0807
 2634SOL    HW310567   4.309   3.085   4.015 -0.7138 -1.0051 -0.2754
 2634SOL    MW410568   4.287   3.087   4.099  0.0491 -0.0710 -0.0769
 2635SOL     OW10569   1.071   0.633   4.406  0.0114 -0.3714  0.4966
 2635SOL    HW210570   0.978   0.617   4.422  0.1353 -0.6156  0.9913
 2635SOL    HW310571   1.116   0.580   4.472  0.4542  1.6077  1.8189
 2635SOL    MW410572   1.065   0.624   4.416  0.0861 -0.1425  0.7363
 2636SOL     OW10573   3.750   4.138   4.549 -0.1014 -0.5698 -0.4403
 2636SOL    HW210574   3.716   4.050   4.533  0.6773 -1.2558  1.5024
 2636SOL    HW310575   3.690   4.196   4.503 -0.5389 -2.1275 -1.8794
 2636SOL    MW410576   3.738   4.134   4.541 -0.0564 -0.8658 -0.3738
 2637SOL     OW10577   0.222   3.098   4.056  0.1365  0.1389 -0.3502
 2637SOL    HW210578   0.224   3.007   4.086  0.4042  0.1342 -0.3815
 2637SOL    HW310579   0.165   3.142   4.119 -0.4437 -0.1663 -0.6583
 2637SOL    MW410580   0.215   3.091   4.068  0.0953  0.0981 -0.3950
 2638SOL     OW10581   3.127   1.121   4.617 -0.0067  0.1934 -0.3193
 2638SOL    HW210582   3.056   1.084   4.669 -0.2307  0.6463 -0.2990
 2638SOL    HW310583   3.176   1.045   4.585 -1.9097 -0.2293 -2.3316
 2638SOL    MW410584   3.124   1.106   4.619 -0.2873  0.1974 -0.5821
 2639SOL     OW10585   0.666   4.110   4.651  0.0738 -0.4582  0.3875
 2639SOL    HW210586   0.647   4.041   4.714 -0.8449  0.2962  0.9553
 2639SOL    HW310587   0.591   4.111   4.592  0.3613 -0.3467  0.0169
 2639SOL    MW410588   0.654   4.101   4.651 -0.0095 -0.3439  0.4135
 2640SOL     OW10589   3.677   3.853   4.487 -0.7965 -0.0563  0.3240
 2640SOL    HW210590   3.606   3.865   4.549  0.0302 -1.0457  1.4838
 2640SOL    HW310591   3.703   3.761   4.497 -1.0714 -0.4240 -1.9466
 2640SOL    MW410592   3.671   3.843   4.496 -0.7237 -0.2353  0.1775
 2641SOL     OW10593   0.315   1.651   4.504  0.0662 -0.3238  0.2626
 2641SOL    HW210594   0.374   1.678   4.574 -0.1920  0.0056  0.3544
 2641SOL    HW310595   0.356   1.684   4.424  1.3604 -2.3663  0.0478
 2641SOL    MW410596   0.328   1.659   4.502  0.2029 -0.5498  0.2464
 2642SOL     OW10597   1.104   1.302   4.204  0.3888  0.3720 -0.2417
 2642SOL    HW210598   1.114   1.285   4.297 -2.7814 -0.3679  0.0171
 2642SOL    HW310599   1.122   1.396   4.195  0.6108  0.4703  1.1008
 2642SOL    MW410600   1.108   1.312   4.215 -0.0002  0.2874 -0.0304
 2643SOL     OW10601   0.468   2.452   4.179 -0.3588 -0.3971  0.3094
 2643SOL    HW210602   0.484   2.544   4.155 -0.2479  0.2814  2.7975
 2643SOL    HW310603   0.555   2.417   4.198 -0.5036 -0.7369  0.3491
 2643SOL    MW410604   0.482   2.460   4.178 -0.3633 -0.3524  0.6429
 2644SOL     OW10605   0.488   3.143   4.401  0.1800  0.1198 -0.0161
 2644SOL    HW210606   0.491   3.153   4.306 -0.0839  0.6252  0.0300
 2644SOL    HW310607   0.542   3.066   4.418  0.0930 -0.0712 -0.5903
 2644SOL    MW410608   0.496   3.134   4.391  0.1337  0.1613 -0.0858
 2645SOL     OW10609   2.467   3.894   4.159  0.4814  0.0414 -0.6868
 2645SOL    HW210610   2.461   3.801   4.181 -0.4379  0.5137  1.1356
 2645SOL    HW310611   2.440   3.899   4.067 -1.0718 -1.3083 -0.3318
 2645SOL    MW410612   2.462   3.883   4.150  0.1551 -0.0744 -0.3995
 2646SOL     OW10613   2.367   1.096   4.354 -0.3196 -0.1581  0.0460
 2646SOL    HW210614   2.454   1.133   4.336 -0.4851  0.4078  0.3980
 2646SOL    HW310615   2.311   1.129   4.284 -0.1968 -0.7154 -0.3136
 2646SOL    MW410616   2.371   1.106   4.343 -0.3252 -0.1570  0.0450
 2647SOL     OW10617   1.330   1.016   4.480  0.1883  0.1142  0.3551
 2647SOL    HW210618   1.287   1.100   4.495 -0.2402 -0.0203 -0.1014
 2647SOL    HW310619   1.422   1.032   4.502  0.1197  0.7142  0.2138
 2647SOL    MW410620   1.336   1.029   4.485  0.1227  0.1756  0.2762
 2648SOL     OW10621   3.338   1.648   4.627  0.0597 -0.9279 -0.1159
 2648SOL    HW210622   3.356   1.741   4.611  1.1822 -1.0206  0.5896
 2648SOL    HW310623   3.242   1.643   4.634 -0.0529  0.0568 -0.8755
 2648SOL    MW410624   3.327   1.660   4.626  0.1929 -0.8102 -0.1230
 2649SOL     OW10625   4.482   3.794   4.652 -0.1741  0.2077  0.1338
 2649SOL    HW210626   4.452   3.768   4.739  0.5480 -0.5422  0.1633
 2649SOL    HW310627   4.457   3.722   4.594  1.0070 -0.1459  0.0542
 2649SOL    MW410628   4.475   3.781   4.656  0.0770  0.0621  0.1272
 2650SOL     OW10629   2.640   1.121   4.799 -0.1259 -0.7184 -0.0317
 2650SOL    HW210630   2.575   1.184   4.829 -0.5130 -1.6121  1.0002
 2650SOL    HW310631   2.589   1.052   4.757  0.0362 -2.2089  2.1901
 2650SOL    MW410632   2.625   1.120   4.797 -0.1556 -1.0329  0.3976
 2651SOL     OW10633   0.630   2.912   4.458 -0.0222 -0.3000  0.0188
 2651SOL    HW210634   0.709   2.917   4.511  0.4710 -0.5366 -0.7003
 2651SOL    HW310635   0.660   2.884   4.372 -0.9526 -0.9672 -0.0999
 2651SOL    MW410636   0.644   2.909   4.454 -0.0799 -0.4192 -0.0917
 2652SOL     OW10637   0.915   1.315   4.484  0.2482  0.1268 -0.2011
 2652SOL    HW210638   0.894   1.397   4.440  1.0418  0.3076 -0.2514
 2652SOL    HW310639   0.851   1.253   4.450  0.3506  0.4574 -1.0127
 2652SOL    MW410640   0.903   1.318   4.474  0.3664  0.1943 -0.3148
 2653SOL     OW10641   0.181   1.523   4.111 -0.0386 -0.4891  0.1717
 2653SOL    HW210642   0.103   1.570   4.140  1.9731  2.0315  1.8087
 2653SOL    HW310643   0.175   1.438   4.154 -0.8136  0.5125  2.1331
 2653SOL    MW410644   0.170   1.518   4.121  0.1246 -0.0244  0.6464
 2654SOL     OW10645   2.431   2.419   4.410  0.2411  0.1707  0.3947
 2654SOL    HW210646   2.406   2.416   4.502  0.4283  0.8754  0.4747
 2654SOL    HW310647   2.527   2.416   4.411  0.2292 -0.4536  0.1885
 2654SOL    MW410648   2.441   2.418   4.422  0.2642  0.1813  0.3781
 2655SOL     OW10649   3.009   2.776   4.478 -0.0354  0.0791  0.3853
 2655SOL    HW210650   3.095   2.751   4.511 -0.4708 -1.2828  0.5272
 2655SOL    HW310651   2.949   2.711   4.516 -0.6450 -1.1186 -2.4759
 2655SOL    MW410652   3.013   2.764   4.488 -0.1733 -0.2586  0.0265
 2656SOL     OW10653   1.382   1.474   4.440  0.0492  0.4365 -0.0824
 2656SOL    HW210654   1.466   1.470   4.485  0.1588 -1.2776 -0.4145
 2656SOL    HW310655   1.352   1.564   4.453  1.0241  0.5188  1.6733
 2656SOL    MW410656   1.389   1.485   4.447  0.1923  0.2212  0.1054
 2657SOL     OW10657   3.602   3.204   4.230 -0.4370 -0.0188  0.0237
 2657SOL    HW210658   3.625   3.217   4.322 -1.8632 -1.5958  0.6278
 2657SOL    HW310659   3.573   3.291   4.201 -1.3866  0.1739  1.4735
 2657SOL    MW410660   3.601   3.217   4.239 -0.7504 -0.2015  0.2947
 2658SOL     OW10661   2.503   2.842   4.349 -0.1079 -0.0146  0.1517
 2658SOL    HW210662   2.516   2.835   4.444 -0.9817  0.3729  0.3090
 2658SOL    HW310663   2.411   2.817   4.336 -0.1152  0.3738 -0.5472
 2658SOL    MW410664   2.493   2.837   4.360 -0.2241  0.0877  0.0802
 2659SOL     OW10665   1.331   0.188   4.525  0.1031  0.2620 -0.0241
 2659SOL    HW210666   1.279   0.267   4.539  0.2996  0.8554 -2.3843
 2659SOL    HW310667   1.417   0.208   4.562 -0.7549 -0.0420  2.2106
 2659SOL    MW410668   1.335   0.201   4.531  0.0158  0.3002 -0.0406
 2660SOL     OW10669   1.762   4.067   4.297 -0.0042 -0.5202 -0.1374
 2660SOL    HW210670   1.768   4.103   4.386 -0.9639 -1.7277  0.4250
 2660SOL    HW310671   1.740   4.143   4.243  2.1933  0.5471  0.3813
 2660SOL    MW410672   1.760   4.082   4.302  0.1591 -0.5387  0.0053
 2661SOL     OW10673   1.347   0.136   4.243 -1.3009 -0.0131 -0.3695
 2661SOL    HW210674   1.278   0.074   4.220 -1.4199 -0.5144  1.2566
 2661SOL    HW310675   1.339   0.147   4.338  1.2710 -0.6101 -0.0341
 2661SOL    MW410676   1.337   0.129   4.253 -0.9772 -0.1580 -0.1107
 2662SOL     OW10677   2.374   3.895   4.744  0.6093 -0.2987 -0.1461
 2662SOL    HW210678   2.417   3.874   4.826  2.1236  1.3149 -0.4913
 2662SOL    HW310679   2.312   3.823   4.729  2.6879 -2.3036  0.7231
 2662SOL    MW410680   2.371   3.882   4.753  1.0834 -0.3503 -0.0769
 2663SOL     OW10681   2.633   3.826   4.623  0.0638  0.1284  0.2797
 2663SOL    HW210682   2.666   3.759   4.684  0.0898 -0.3005 -0.1991
 2663SOL    HW310683   2.551   3.855   4.662  0.3198  0.2038  0.7688
 2663SOL    MW410684   2.627   3.821   4.636  0.1010  0.0818  0.2810
 2664SOL     OW10685   0.452   3.874   4.291  0.3025 -0.1102  0.4601
 2664SOL    HW210686   0.449   3.962   4.329 -0.5467 -0.1171  0.4046
 2664SOL    HW310687   0.433   3.815   4.365  0.0573 -0.2016  0.3241
 2664SOL    MW410688   0.449   3.878   4.306  0.1581 -0.1232  0.4348
 2665SOL     OW10689   2.775   0.075   4.531  0.0400  0.0671 -0.4603
 2665SOL    HW210690   2.869   0.095   4.532 -0.1278  0.8963 -0.2859
 2665SOL    HW310691   2.751   0.078   4.438  0.4330 -1.3870 -0.6153
 2665SOL    MW410692   2.784   0.078   4.519  0.0697 -0.0153 -0.4577
 2666SOL     OW10693   1.145   0.533   4.134  0.0990 -0.4178 -0.5026
 2666SOL    HW210694   1.227   0.485   4.123  0.1041 -0.5480  0.0927
 2666SOL    HW310695   1.137   0.546   4.228 -0.8993 -0.9850 -0.5051
 2666SOL    MW410696   1.155   0.528   4.145 -0.0320 -0.5098 -0.4244
 2667SOL     OW10697   1.927   1.412   4.164  0.0433 -0.5285  0.3177
 2667SOL    HW210698   1.924   1.445   4.075  1.6964  0.1645  0.4962
 2667SOL    HW310699   1.890   1.483   4.217 -2.4310 -1.5628  0.0554
 2667SOL    MW410700   1.922   1.426   4.160 -0.0651 -0.5735  0.3067
 2668SOL     OW10701   3.074   2.463   4.241 -0.8370  0.7726  0.0723
 2668SOL    HW210702   3.137   2.409   4.193 -0.7345  0.2037  0.8350
 2668SOL    HW310703   3.073   2.546   4.194 -0.6421  0.2684 -0.8390
 2668SOL    MW410704   3.082   2.467   4.229 -0.7977  0.6310  0.0527
 2669SOL     OW10705   1.146   2.835   4.499  0.1288  0.5373 -0.0968
 2669SOL    HW210706   1.231   2.874   4.518 -0.0657  0.5578  0.7285
 2669SOL    HW310707   1.136   2.845   4.404  1.0346  0.5499 -0.1932
 2669SOL    MW410708   1.156   2.842   4.489  0.2226  0.5417 -0.0006
 2670SOL     OW10709   0.230   2.976   4.435  0.2878  0.1988  0.0667
 2670SOL    HW210710   0.312   3.025   4.427 -0.3615  0.9859 -2.1387
 2670SOL    HW310711   0.166   3.041   4.462 -0.1745  0.1768 -0.9556
 2670SOL    MW410712   0.233   2.991   4.438  0.1412  0.2998 -0.3591
 2671SOL     OW10713   0.229   1.269   4.197 -0.0123  0.0885  0.1703
 2671SOL    HW210714   0.304   1.216   4.168  0.9265  0.6403  1.5696
 2671SOL    HW310715   0.153   1.214   4.178  0.7234 -0.4103 -1.4379
 2671SOL    MW410716   0.229   1.255   4.190  0.2086  0.0955  0.1427
 2672SOL     OW10717   0.265   0.281   4.562  0.5718  0.2631  0.6436
 2672SOL    HW210718   0.286   0.373   4.548 -0.1333  0.4583  0.8182
 2672SOL    HW310719   0.334   0.233   4.516  0.1010  0.8829 -0.7553
 2672SOL    MW410720   0.277   0.287   4.554  0.4166  0.3707  0.4820
 2673SOL     OW10721   1.163   1.582   4.182  0.0591  0.0684  0.5213
 2673SOL    HW210722   1.238   1.639   4.167 -0.3100  0.5914  0.6746
 2673SOL    HW310723   1.110   1.627   4.247 -0.1060 -0.5670  0.8390
 2673SOL    MW410724   1.166   1.595   4.189 -0.0114  0.0536  0.5835
 2674SOL     OW10725   3.150   0.050   4.281 -0.5724 -0.2290  0.6564
 2674SOL    HW210726   3.223   0.001   4.244  0.0639  0.1061  1.4608
 2674SOL    HW310727   3.158   0.138   4.244 -1.1016 -0.4363  0.0369
 2674SOL    MW410728   3.160   0.055   4.271 -0.5583 -0.2122  0.6808
 2675SOL     OW10729   2.131   2.869   4.642 -0.0124 -0.2410 -0.0527
 2675SOL    HW210730   2.053   2.910   4.604  0.8699  2.1119  0.5905
 2675SOL    HW310731   2.120   2.776   4.625 -2.8261  0.0817 -0.2430
 2675SOL    MW410732   2.119   2.862   4.635 -0.2672  0.1120  0.0071
 2676SOL     OW10733   0.385   3.687   4.492 -0.1950 -0.0390  0.0370
 2676SOL    HW210734   0.350   3.753   4.551  1.4509  0.1508  0.8357
 2676SOL    HW310735   0.315   3.623   4.483 -1.2233  0.9927  0.5145
 2676SOL    MW410736   0.371   3.688   4.498 -0.1135  0.1222  0.2054
 2677SOL     OW10737   3.840   3.078   4.104  0.1646  0.2354 -0.0919
 2677SOL    HW210738   3.770   3.132   4.140 -0.8003 -0.9987 -0.0901
 2677SOL    HW310739   3.829   3.084   4.009  0.9716  1.2202 -0.1297
 2677SOL    MW410740   3.830   3.086   4.096  0.1438  0.2025 -0.0967
 2678SOL     OW10741   1.756   0.040   4.495  0.4305  0.6732 -0.6277
 2678SOL    HW210742   1.698   0.114   4.512 -0.1044 -0.2961  2.0964
 2678SOL    HW310743   1.701  -0.038   4.509  1.6462 -0.2419 -0.8029
 2678SOL    MW410744   1.741   0.039   4.499  0.5203  0.4246 -0.2914
 2679SOL     OW10745   1.365   3.487   4.143 -0.1318 -0.3118 -0.6897
 2679SOL    HW210746   1.291   3.542   4.168  0.6580  0.6112 -0.3532
 2679SOL    HW310747   1.360   3.483   4.047 -0.5982 -0.2389 -0.6706
 2679SOL    MW410748   1.355   3.494   4.133 -0.0891 -0.1804 -0.6428
 2680SOL     OW10749   2.471   3.627   4.509  0.0140  0.1433  0.2094
 2680SOL    HW210750   2.524   3.704   4.530 -2.3146  2.0968 -0.8168
 2680SOL    HW310751   2.467   3.626   4.413 -0.4116 -0.9479  0.2354
 2680SOL    MW410752   2.478   3.637   4.499 -0.3494  0.2571  0.0774
 2681SOL     OW10753   4.004   2.440   4.173 -0.2134 -0.2564  0.2413
 2681SOL    HW210754   4.084   2.393   4.147 -0.1235  0.1010 -0.1469
 2681SOL    HW310755   4.018   2.529   4.141 -0.6592 -0.1289  0.4007
 2681SOL    MW410756   4.017   2.446   4.165 -0.2603 -0.1924  0.2111
 2682SOL     OW10757   0.054   2.583   4.701  0.4018  0.2367 -0.2020
 2682SOL    HW210758   0.066   2.567   4.794 -1.4515 -0.9041 -0.1332
 2682SOL    HW310759   0.126   2.641   4.677  0.5879  0.9732  2.0426
 2682SOL    MW410760   0.065   2.589   4.710  0.1819  0.1833  0.1032
 2683SOL     OW10761   2.473   3.642   4.219 -0.1770 -0.3736  0.3444
 2683SOL    HW210762   2.397   3.589   4.195 -0.0549 -0.4101  0.0363
 2683SOL    HW310763   2.548   3.591   4.188 -0.0431 -0.1785  0.3461
 2683SOL    MW410764   2.473   3.628   4.212 -0.1433 -0.3527  0.3040
 2684SOL     OW10765   1.571   0.492   4.134 -0.4615  0.0446 -0.2092
 2684SOL    HW210766   1.580   0.585   4.110  2.5496 -0.1580 -0.0652
 2684SOL    HW310767   1.656   0.454   4.112 -0.5880 -2.0319  2.6470
 2684SOL    MW410768   1.584   0.500   4.128 -0.0809 -0.2561  0.1867
 2685SOL     OW10769   2.417   1.330   4.752  0.5031 -0.3148 -0.4459
 2685SOL    HW210770   2.349   1.312   4.687 -0.7523 -0.7005  0.9475
 2685SOL    HW310771   2.386   1.408   4.799  1.3268 -0.1213 -0.2185
 2685SOL    MW410772   2.404   1.338   4.750  0.4461 -0.3402 -0.2321
 2686SOL     OW10773   4.124   4.304   4.133 -0.0680 -0.2049  0.1953
 2686SOL    HW210774   4.043   4.338   4.170  0.0202 -1.6232  1.7593
 2686SOL    HW310775   4.115   4.209   4.138  1.4572 -0.3927 -0.1413
 2686SOL    MW410776   4.112   4.296   4.138  0.1448 -0.4168  0.3572
 2687SOL     OW10777   2.213   2.062   4.620 -0.0281 -0.1472 -0.1142
 2687SOL    HW210778   2.177   2.133   4.566  0.9392  0.0624 -0.4871
 2687SOL    HW310779   2.136   2.010   4.645 -0.8165  1.2718  0.5280
 2687SOL    MW410780   2.198   2.065   4.616 -0.0045  0.0676 -0.0787
 2688SOL     OW10781   2.413   4.414   4.519 -0.4057  0.0296 -0.2541
 2688SOL    HW210782   2.366   4.361   4.583 -0.1936  0.3245  0.1558
 2688SOL    HW310783   2.496   4.435   4.562 -0.4373  0.5881 -0.4512
 2688SOL    MW410784   2.418   4.410   4.533 -0.3818  0.1422 -0.2260
 2689SOL     OW10785   3.824   4.652   4.174 -0.0970 -0.1789 -0.1882
 2689SOL    HW210786   3.899   4.709   4.191 -1.3583  1.4616  0.0104
 2689SOL    HW310787   3.816   4.650   4.079  0.1497 -0.2989 -0.2065
 2689SOL    MW410788   3.833   4.659   4.164 -0.2308  0.0217 -0.1644
 2690SOL     OW10789   0.821   1.549   4.386  0.3035 -0.2506  0.1193
 2690SOL    HW210790   0.758   1.517   4.321  1.9275 -1.9663 -0.6524
 2690SOL    HW310791   0.766   1.581   4.459 -1.4583 -0.9829 -0.8450
 2690SOL    MW410792   0.805   1.549   4.387  0.2854 -0.5736 -0.1098
 2691SOL     OW10793   3.177   0.310   4.176  0.1033 -0.0351 -0.5876
 2691SOL    HW210794   3.251   0.348   4.224  0.2322  1.6375 -2.0503
 2691SOL    HW310795   3.105   0.371   4.191 -0.2445 -0.2503 -1.3368
 2691SOL    MW410796   3.177   0.323   4.184  0.0744  0.1571 -0.8795
 2692SOL     OW10797   2.598   2.589   4.706 -0.6571 -0.6073 -0.1646
 2692SOL    HW210798   2.585   2.682   4.689 -0.7974 -0.4419  0.8059
 2692SOL    HW310799   2.689   2.573   4.682 -1.0443 -0.5481 -1.7217
 2692SOL    MW410800   2.609   2.599   4.701 -0.7267 -0.5777 -0.2420
 2693SOL     OW10801   0.273   3.901   4.631 -0.1751  0.0016 -0.4188
 2693SOL    HW210802   0.181   3.881   4.647 -0.0930 -0.3646 -0.3921
 2693SOL    HW310803   0.272   3.982   4.581 -0.5223 -0.1440 -0.6458
 2693SOL    MW410804   0.261   3.909   4.627 -0.2101 -0.0660 -0.4452
 2694SOL     OW10805   0.698   0.789   4.146  0.3663  0.2790 -0.3215
 2694SOL    HW210806   0.705   0.791   4.051  1.7725 -1.2804 -0.2643
 2694SOL    HW310807   0.769   0.844   4.177  0.2748  0.3041 -0.1527
 2694SOL    MW410808   0.708   0.796   4.138  0.5398  0.0766 -0.2917
 2695SOL     OW10809   0.990   2.367   4.557 -0.1566  0.7010 -0.0605
 2695SOL    HW210810   1.023   2.277   4.551  0.9813  1.2431 -2.4147
 2695SOL    HW310811   1.066   2.420   4.577 -0.6240  1.2876  0.1816
 2695SOL    MW410812   1.004   2.362   4.559 -0.0681  0.8499 -0.3392
 2696SOL     OW10813   3.931   2.071   4.528 -0.1036 -0.5688 -0.2746
 2696SOL    HW210814   3.879   2.084   4.449 -0.5555  0.0992  0.1336
 2696SOL    HW310815   3.915   1.980   4.552 -0.8261 -0.4598 -0.3375
 2696SOL    MW410816   3.922   2.061   4.521 -0.2585 -0.4663 -0.2290
 2697SOL     OW10817   2.015   0.769   4.153 -0.0635 -0.3255  0.2497
 2697SOL    HW210818   2.091   0.808   4.196  0.5485 -1.3112  0.0683
 2697SOL    HW310819   1.941   0.822   4.184  0.4851 -0.3875  1.7318
 2697SOL    MW410820   2.015   0.781   4.163  0.0896 -0.4638  0.4213
 2698SOL     OW10821   3.204   0.868   4.533  0.2509  0.1122 -0.3720
 2698SOL    HW210822   3.293   0.831   4.530 -0.3140 -1.2795 -0.1907
 2698SOL    HW310823   3.177   0.873   4.441  0.6497  0.8978 -0.4547
 2698SOL    MW410824   3.212   0.864   4.521  0.2290  0.0323 -0.3590
 2699SOL     OW10825   4.006   4.085   4.452 -0.2445  0.1263  0.2780
 2699SOL    HW210826   4.065   4.148   4.493  0.1645  1.0880 -1.7289
 2699SOL    HW310827   3.920   4.106   4.488  0.1259  0.8671  0.7333
 2699SOL    MW410828   4.002   4.096   4.462 -0.1417  0.3509  0.0733
 2700SOL     OW10829   0.710   3.553   4.217  0.5222  0.0832  0.5984
 2700SOL    HW210830   0.688   3.561   4.310 -0.1683  0.6287  0.3951
 2700SOL    HW310831   0.626   3.547   4.173  0.9011 -3.6216  0.2838
 2700SOL    MW410832   0.696   3.553   4.224  0.4811 -0.3336  0.5301
 2701SOL     OW10833   0.479   3.198   4.131  0.4502  0.6511  0.3116
 2701SOL    HW210834   0.395   3.168   4.096  0.9699 -0.1558 -0.2586
 2701SOL    HW310835   0.470   3.293   4.137 -1.0330  0.4456  1.6829
 2701SOL    MW410836   0.467   3.206   4.127  0.3231  0.5175  0.4173
 2702SOL     OW10837   0.292   2.741   4.639 -0.0645 -0.3709  0.0822
 2702SOL    HW210838   0.382   2.711   4.625  0.2664  0.8743 -0.5392
 2702SOL    HW310839   0.280   2.811   4.575 -1.2707 -0.0930  0.6023
 2702SOL    MW410840   0.302   2.746   4.629 -0.1800 -0.1699  0.0689
 2703SOL     OW10841   3.805   1.253   4.276 -0.7454 -0.1298  0.3343
 2703SOL    HW210842   3.736   1.193   4.246 -1.3751  0.7969 -0.0733
 2703SOL    HW310843   3.797   1.329   4.219  1.1671 -0.3563 -0.2641
 2703SOL    MW410844   3.795   1.255   4.264 -0.5761 -0.0374  0.2016
 2704SOL     OW10845   4.237   4.517   4.518  0.3124 -0.1909  0.4541
 2704SOL    HW210846   4.184   4.596   4.507  0.1620 -0.3369  0.1314
 2704SOL    HW310847   4.316   4.547   4.562  0.6261  0.2805 -0.4349
 2704SOL    MW410848   4.240   4.531   4.523  0.3339 -0.1480  0.2942
 2705SOL     OW10849   0.955   3.199   4.214  0.2698 -0.4865  0.0204
 2705SOL    HW210850   0.867   3.183   4.179 -0.5507  1.2837  1.2017
 2705SOL    HW310851   0.974   3.290   4.189  0.4714  0.1627  2.4707
 2705SOL    MW410852   0.946   3.209   4.206  0.1882 -0.1673  0.4996
 2706SOL     OW10853   1.178   3.083   4.106 -0.3791 -0.2554  0.2787
 2706SOL    HW210854   1.160   3.084   4.012 -1.9047 -1.5159  0.5386
 2706SOL    HW310855   1.103   3.129   4.145  0.8835  1.4017  0.7900
 2706SOL    MW410856   1.166   3.089   4.099 -0.4138 -0.2031  0.3805
 2707SOL     OW10857   3.834   1.060   4.660 -0.3820  0.2249  0.1184
 2707SOL    HW210858   3.929   1.052   4.673 -0.5175 -0.8776  0.4611
 2707SOL    HW310859   3.820   1.154   4.644  0.6954  0.4760  0.6025
 2707SOL    MW410860   3.845   1.072   4.660 -0.2577  0.1126  0.2275
 2708SOL     OW10861   2.186   1.953   4.112  0.0763  0.1162  0.1344
 2708SOL    HW210862   2.180   1.858   4.123 -0.5951  0.3035  1.5523
 2708SOL    HW310863   2.274   1.976   4.141  0.4997 -0.1540 -0.9185
 2708SOL    MW410864   2.197   1.944   4.117  0.0436  0.1053  0.1826
 2709SOL     OW10865   1.567   4.501   4.519 -0.4835  0.2535  0.4973
 2709SOL    HW210866   1.565   4.500   4.424 -0.4341 -0.5313  0.5051
 2709SOL    HW310867   1.566   4.409   4.545  0.4623  0.4398  1.2374
 2709SOL    MW410868   1.567   4.489   4.510 -0.3522  0.1745  0.5960
 2710SOL     OW10869   0.790   0.154   4.456 -0.2779  0.0515 -0.1131
 2710SOL    HW210870   0.813   0.230   4.510 -2.0145  0.2794  0.3308
 2710SOL    HW310871   0.846   0.161   4.379  0.3684  1.1646  0.4528
 2710SOL    MW410872   0.800   0.165   4.453 -0.4218  0.2285  0.0201
 2711SOL     OW10873   2.921   4.369   4.235 -0.0106 -0.1561  0.3314
 2711SOL    HW210874   2.835   4.343   4.203 -0.4141  0.9482  0.4976
 2711SOL    HW310875   2.920   4.465   4.231  1.4871 -0.1649 -0.3800
 2711SOL    MW410876   2.909   4.379   4.231  0.1337 -0.0116  0.2595
 2712SOL     OW10877   0.257   4.416   4.231  0.1813  0.5341  0.1813
 2712SOL    HW210878   0.198   4.346   4.205  0.9327 -0.8216  2.0058
 2712SOL    HW310879   0.228   4.441   4.319 -0.2251  2.6962 -0.5381
 2712SOL    MW410880   0.246   4.410   4.239  0.2268  0.6405  0.3271
 2713SOL     OW10881   1.587   3.097   4.118 -0.3652  0.0122  0.3831
 2713SOL    HW210882   1.518   3.144   4.164  0.0694  1.9280 -0.8699
 2713SOL    HW310883   1.668   3.128   4.158 -0.0224  1.1222 -1.1220
 2713SOL    MW410884   1.589   3.107   4.129 -0.2626  0.4114  0.0192
 2714SOL     OW10885   2.353   1.902   4.428  0.1549 -0.5832  0.5597
 2714SOL    HW210886   2.297   1.827   4.407  0.6995 -1.0028  0.5736
 2714SOL    HW310887   2.297   1.960   4.480 -0.0923 -1.2685  1.0673
 2714SOL    MW410888   2.338   1.899   4.432  0.1941 -0.7290  0.6285
 2715SOL     OW10889   4.206   2.886   4.472  0.0980 -0.1941  0.4753
 2715SOL    HW210890   4.255   2.809   4.501 -0.2821 -0.3858  0.6153
 2715SOL    HW310891   4.114   2.861   4.482 -0.0421 -0.1736 -0.6621
 2715SOL    MW410892   4.200   2.872   4.477  0.0294 -0.2167  0.3437
 2716SOL     OW10893   0.002   0.128   4.285 -0.2259  0.2278 -0.0385
 2716SOL    HW210894   0.067   0.080   4.233  0.2960 -0.6023  1.3603
 2716SOL    HW310895  -0.081   0.115   4.239 -0.1159 -2.1632  0.4152
 2716SOL    MW410896  -0.000   0.120   4.272 -0.1425 -0.1972  0.2059
 2717SOL     OW10897   1.213   2.560   4.565 -0.0908 -0.0946  0.1085
 2717SOL    HW210898   1.177   2.648   4.555 -0.9822 -0.4917 -0.2421
 2717SOL    HW310899   1.307   2.573   4.569 -0.1933  0.8333 -0.4413
 2717SOL    MW410900   1.220   2.574   4.564 -0.2219 -0.0245 -0.0103
 2718SOL     OW10901   2.239   3.635   4.680  0.3172 -0.1055 -0.1619
 2718SOL    HW210902   2.156   3.669   4.647  0.4902  1.0556  0.5687
 2718SOL    HW310903   2.292   3.620   4.602 -0.1816  0.2208 -0.5645
 2718SOL    MW410904   2.235   3.637   4.666  0.2743  0.0907 -0.1186
 2719SOL     OW10905   1.976   2.023   4.289  0.2133  0.3134 -0.1186
 2719SOL    HW210906   2.044   2.013   4.222 -0.0822  0.9336 -0.5135
 2719SOL    HW310907   1.962   1.935   4.322  0.4470  0.0150 -0.8001
 2719SOL    MW410908   1.983   2.010   4.284  0.2051  0.3558 -0.2606
 2720SOL     OW10909   3.902   4.310   4.727  0.0142  0.2248  0.1522
 2720SOL    HW210910   3.987   4.267   4.736  0.9446  1.6719 -1.4119
 2720SOL    HW310911   3.848   4.246   4.681  1.2284  0.4456 -1.6706
 2720SOL    MW410912   3.906   4.296   4.722  0.2971  0.4449 -0.2947
 2721SOL     OW10913   1.549   4.240   4.622  0.6013 -0.8168 -0.0727
 2721SOL    HW210914   1.498   4.169   4.583  0.3210  1.0125 -3.2365
 2721SOL    HW310915   1.509   4.253   4.709 -0.6293 -3.1397 -0.2298
 2721SOL    MW410916   1.537   4.232   4.628  0.4020 -0.8819 -0.5109
 2722SOL     OW10917   0.927   0.940   4.239  0.3075  0.4583  0.2210
 2722SOL    HW210918   0.933   0.918   4.332 -0.3797  1.7023  0.5729
 2722SOL    HW310919   0.995   0.887   4.198 -0.9608 -1.9078  1.0969
 2722SOL    MW410920   0.937   0.930   4.246  0.0495  0.3103  0.3830
 2723SOL     OW10921   3.513   1.432   4.562  0.2250  0.4608 -0.5785
 2723SOL    HW210922   3.460   1.354   4.548 -0.2782  0.5381  0.8991
 2723SOL    HW310923   3.451   1.502   4.581  0.7356  1.0094 -0.8752
 2723SOL    MW410924   3.498   1.431   4.562  0.2260  0.5434 -0.4227
 2724SOL     OW10925   2.758   1.195   4.529  0.3037 -0.3601 -0.1552
 2724SOL    HW210926   2.822   1.266   4.524  0.0058 -0.1455 -0.9286
 2724SOL    HW310927   2.721   1.203   4.618  2.1349 -1.1771  0.6877
 2724SOL    MW410928   2.761   1.206   4.540  0.5060 -0.4396 -0.1460
 2725SOL     OW10929   1.963   4.368   4.241 -0.3242 -0.0132 -0.3145
 2725SOL    HW210930   2.042   4.321   4.215 -0.1186  0.5437 -0.7130
 2725SOL    HW310931   1.946   4.340   4.331  0.4974  0.0952 -0.1232
 2725SOL    MW410932   1.971   4.358   4.249 -0.1887  0.0746 -0.3419
 2726SOL     OW10933   2.765   0.930   4.475 -0.1613 -0.0158 -0.0867
 2726SOL    HW210934   2.838   0.884   4.515 -0.0777 -0.8525 -1.1836
 2726SOL    HW310935   2.766   1.017   4.515  0.2363 -0.6645  1.3239
 2726SOL    MW410936   2.775   0.935   4.486 -0.0978 -0.2118 -0.0453
 2727SOL     OW10937   1.741   2.018   4.450 -0.1219  0.5361 -0.4295
 2727SOL    HW210938   1.742   1.922   4.447 -0.1787  0.5147  0.1350
 2727SOL    HW310939   1.803   2.045   4.383  0.7686  0.0829  0.2116
 2727SOL    MW410940   1.749   2.009   4.441 -0.0119  0.4735 -0.2704
 2728SOL     OW10941   2.347   2.444   4.662  0.4784 -0.3530 -0.7623
 2728SOL    HW210942   2.372   2.355   4.686  1.5942  0.0705 -0.3022
 2728SOL    HW310943   2.421   2.498   4.690 -0.0893  0.6917 -1.2375
 2728SOL    MW410944   2.360   2.440   4.669  0.5507 -0.1593 -0.7643
 2729SOL     OW10945   4.046   0.890   4.253  0.3276  0.1939 -0.0844
 2729SOL    HW210946   4.130   0.860   4.219  0.9186  0.7780  0.8304
 2729SOL    HW310947   4.040   0.981   4.224 -0.6290 -0.2470 -1.3183
 2729SOL    MW410948   4.057   0.898   4.245  0.2793  0.2128 -0.1265
 2730SOL     OW10949   3.835   1.812   4.598 -0.1480  0.2203 -0.3780
 2730SOL    HW210950   3.785   1.843   4.674 -1.2026  0.2790 -1.0900
 2730SOL    HW310951   3.771   1.811   4.527  0.9897  0.7657 -1.4073
 2730SOL    MW410952   3.820   1.816   4.599 -0.1370  0.3000 -0.6077
 2731SOL     OW10953   2.978   1.353   4.516 -0.4923  0.5595  0.2733
 2731SOL    HW210954   3.029   1.278   4.546  2.0411  2.1544  0.1559
 2731SOL    HW310955   2.968   1.340   4.422  0.4007  0.6280  0.1685
 2731SOL    MW410956   2.983   1.342   4.507 -0.0402  0.7789  0.2440
 2732SOL     OW10957   0.877   0.891   4.512  0.1336 -0.1107  0.3658
 2732SOL    HW210958   0.963   0.874   4.550  1.4438  0.2847 -2.3230
 2732SOL    HW310959   0.839   0.803   4.499  0.3915 -0.3073  0.9271
 2732SOL    MW410960   0.883   0.877   4.516  0.3405 -0.0844  0.0851
 2733SOL     OW10961   0.902   4.059   4.514  0.5280 -0.4612 -0.1137
 2733SOL    HW210962   0.816   4.090   4.542  1.3221  1.1095  0.7057
 2733SOL    HW310963   0.890   4.032   4.423 -1.1360 -1.5756  0.4276
 2733SOL    MW410964   0.889   4.060   4.505  0.4132 -0.4010  0.0658
 2734SOL     OW10965   0.892   2.950   4.602  0.2787 -0.1636 -0.1562
 2734SOL    HW210966   0.968   2.902   4.569  0.2779  0.6301 -1.3687
 2734SOL    HW310967   0.898   3.036   4.560  0.5008  1.0615  2.2745
 2734SOL    MW410968   0.903   2.955   4.592  0.3079  0.1027  0.0045
 2735SOL     OW10969   3.004   3.579   4.766  0.2374  0.1487 -0.2883
 2735SOL    HW210970   2.910   3.587   4.782  0.4655 -0.1489  1.2534
 2735SOL    HW310971   3.018   3.485   4.750  0.4237  0.0190  0.5855
 2735SOL    MW410972   2.993   3.568   4.766  0.2921  0.0924  0.0304
 2736SOL     OW10973   0.678   3.836   4.133  0.1788 -0.1036 -0.3112
 2736SOL    HW210974   0.608   3.859   4.193  0.9187  1.5102 -0.0557
 2736SOL    HW310975   0.701   3.746   4.156 -0.4631  0.0404  0.9017
 2736SOL    MW410976   0.672   3.827   4.144  0.1918  0.1284 -0.1175
 2737SOL     OW10977   3.154   3.498   4.171 -0.3219 -0.2969  0.3328
 2737SOL    HW210978   3.159   3.412   4.212 -1.5234 -0.8818 -0.7261
 2737SOL    HW310979   3.169   3.481   4.078 -1.2540  0.5461  0.0216
 2737SOL    MW410980   3.157   3.485   4.164 -0.6034 -0.2629  0.1520
 2738SOL     OW10981   1.375   4.061   4.544 -0.1969 -0.0351 -0.0386
 2738SOL    HW210982   1.293   4.097   4.576 -0.0962  0.1717 -0.0110
 2738SOL    HW310983   1.377   3.971   4.576  0.0419  0.2596  0.7755
 2738SOL    MW410984   1.365   4.054   4.552 -0.1521  0.0311  0.0724
 2739SOL     OW10985   1.515   2.068   4.189 -0.3173 -0.5636 -0.5025
 2739SOL    HW210986   1.593   2.012   4.187  0.2234  0.1603  0.2170
 2739SOL    HW310987   1.493   2.074   4.282  0.3876  1.4789 -0.4486
 2739SOL    MW410988   1.522   2.061   4.201 -0.1530 -0.1986 -0.4005
 2740SOL     OW10989   3.259   3.246   4.526  0.4743 -0.2583 -0.0633
 2740SOL    HW210990   3.226   3.243   4.436  2.3635 -0.3337 -0.7724
 2740SOL    HW310991   3.185   3.279   4.577 -0.3898  0.5156 -1.7587
 2740SOL    MW410992   3.245   3.250   4.521  0.6096 -0.1662 -0.3805
 2741SOL     OW10993   3.770   2.333   4.598  0.1834 -0.5038 -0.1056
 2741SOL    HW210994   3.813   2.249   4.612 -0.1344 -0.7725 -0.7290
 2741SOL    HW310995   3.831   2.383   4.544  0.2682 -0.4159  0.0690
 2741SOL    MW410996   3.783   2.328   4.593  0.1526 -0.5277 -0.1648
 2742SOL     OW10997   3.461   0.743   4.517 -0.1024  0.2792  0.0345
 2742SOL    HW210998   3.508   0.802   4.577  0.7058  0.0240 -0.3407
 2742SOL    HW310999   3.509   0.750   4.434 -1.2686  0.7003 -0.6236
 2742SOL    MW411000   3.474   0.752   4.514 -0.1496  0.3011 -0.1018
 2743SOL     OW11001   1.991   4.637   3.881 -0.2274 -0.1432  0.0929
 2743SOL    HW211002   1.990   4.547   3.849 -0.3184 -0.2388  0.3551
 2743SOL    HW311003   2.005   4.628   3.976 -1.7381  0.0497  0.3385
 2743SOL    MW411004   1.993   4.624   3.890 -0.4387 -0.1304  0.1599
 2744SOL     OW11005   2.021   4.288   4.543 -0.5488 -0.2747 -0.0147
 2744SOL    HW211006   1.949   4.229   4.565 -0.8110 -0.0253 -0.2046
 2744SOL    HW311007   2.100   4.237   4.560 -0.7779 -0.7420 -0.3421
 2744SOL    MW411008   2.022   4.274   4.548 -0.6136 -0.3035 -0.0830
 2745SOL     OW11009   2.303   0.259   4.627  0.8848 -0.2647 -0.0134
 2745SOL    HW211010   2.326   0.240   4.718 -0.7292 -1.0515  0.2493
 2745SOL    HW311011   2.309   0.174   4.583  3.1582  0.3783 -0.9977
 2745SOL    MW411012   2.307   0.245   4.634  0.9718 -0.2836 -0.1086
 2746SOL     OW11013   1.364   3.821   4.693 -0.2184 -0.4747  0.1304
 2746SOL    HW211014   1.284   3.851   4.737 -0.2697  0.3095 -0.4729
 2746SOL    HW311015   1.335   3.749   4.637 -0.5029 -0.2317 -0.0417
 2746SOL    MW411016   1.350   3.816   4.691 -0.2627 -0.3392  0.0281
 2747SOL     OW11017   0.482   0.081   4.179  0.2489  0.0962  0.4212
 2747SOL    HW211018   0.565   0.039   4.158  0.7402  0.4512  1.5930
 2747SOL    HW311019   0.492   0.171   4.148 -0.5848 -0.4724 -1.5572
 2747SOL    MW411020   0.494   0.087   4.172  0.2037  0.0680  0.3148
 2748SOL     OW11021   2.027   4.588   4.533 -0.1624  0.6469  0.2553
 2748SOL    HW211022   2.033   4.493   4.524  0.4026  0.7927 -1.1287
 2748SOL    HW311023   1.934   4.607   4.539 -0.2866  0.0229  0.2790
 2748SOL    MW411024   2.016   4.578   4.532 -0.1043  0.5838  0.0758
 2749SOL     OW11025   1.720   4.290   4.130 -0.1548 -0.1526  0.1752
 2749SOL    HW211026   1.734   4.269   4.037  0.5724  1.2878 -0.0608
 2749SOL    HW311027   1.807   4.305   4.165 -0.4313 -0.7022  1.1008
 2749SOL    MW411028   1.733   4.289   4.122 -0.0954 -0.0351  0.2662
 2750SOL     OW11029   3.346   1.139   4.812  0.0581  0.0807 -0.3822
 2750SOL    HW211030   3.261   1.152   4.769 -0.0386  1.8669  0.2972
 2750SOL    HW311031   3.344   1.199   4.887  0.8205 -1.8981  1.2376
 2750SOL    MW411032   3.335   1.149   4.816  0.1459  0.0553 -0.0788
 2751SOL     OW11033   3.138   3.235   4.265 -0.7191 -0.0956  0.1973
 2751SOL    HW211034   3.211   3.179   4.239 -0.2279  0.3453  0.6087
 2751SOL    HW311035   3.067   3.210   4.208  0.2593  0.6582 -1.3855
 2751SOL    MW411036   3.139   3.225   4.254 -0.5252  0.0620  0.0428
 2752SOL     OW11037   3.347   2.809   4.228  0.2615 -0.0606  0.1000
 2752SOL    HW211038   3.439   2.787   4.214  0.8543  1.3695  1.6647
 2752SOL    HW311039   3.345   2.904   4.236 -1.0901 -0.1890  1.7648
 2752SOL    MW411040   3.359   2.818   4.227  0.1613  0.1111  0.5261
 2753SOL     OW11041   3.392   4.615   4.184  0.1875  0.3003  0.1577
 2753SOL    HW211042   3.463   4.653   4.235 -1.5011 -0.0471  2.8509
 2753SOL    HW311043   3.376   4.530   4.224 -1.1320 -0.0283 -1.0186
 2753SOL    MW411044   3.399   4.609   4.196 -0.2093  0.2111  0.3578
 2754SOL     OW11045   0.569   2.652   4.556 -0.1110  0.3750 -0.0912
 2754SOL    HW211046   0.588   2.742   4.530  0.8308 -0.2856 -1.7353
 2754SOL    HW311047   0.652   2.619   4.590 -0.0826 -0.3288 -0.8378
 2754SOL    MW411048   0.582   2.659   4.557  0.0170  0.1950 -0.4066
 2755SOL     OW11049   2.022   3.154   4.169  0.0822  0.2719  0.0480
 2755SOL    HW211050   2.011   3.064   4.199 -0.2370  0.3255  0.0824
 2755SOL    HW311051   1.942   3.199   4.194  0.1031  0.4863 -0.2645
 2755SOL    MW411052   2.010   3.148   4.176  0.0429  0.3072  0.0113
 2756SOL     OW11053   3.373   3.891   4.174  0.0079 -0.3209  0.2819
 2756SOL    HW211054   3.359   3.887   4.079 -1.3628  0.3281  0.4454
 2756SOL    HW311055   3.374   3.799   4.202 -0.5370 -0.4911 -0.2337
 2756SOL    MW411056   3.371   3.878   4.165 -0.2448 -0.2577  0.2354
 2757SOL     OW11057   4.056   0.319   4.683 -0.7024  0.2915 -0.1658
 2757SOL    HW211058   3.977   0.362   4.650 -0.8874 -0.1872 -0.3633
 2757SOL    HW311059   4.047   0.321   4.778 -0.0021  1.9876 -0.1244
 2757SOL    MW411060   4.044   0.325   4.691 -0.6344  0.4521 -0.1864
 2758SOL     OW11061   2.900   3.886   4.102  0.1065  0.0493  0.0782
 2758SOL    HW211062   2.975   3.935   4.134 -0.8730  0.5669  1.6471
 2758SOL    HW311063   2.908   3.800   4.143  0.8662 -0.5470 -1.2782
 2758SOL    MW411064   2.911   3.881   4.112  0.0775  0.0389  0.1062
 2759SOL     OW11065   2.687   3.273   4.246  0.7361 -0.1911 -0.4866
 2759SOL    HW211066   2.606   3.223   4.234  0.7304 -0.0316 -1.1720
 2759SOL    HW311067   2.755   3.217   4.209  0.9662 -0.3989  0.2429
 2759SOL    MW411068   2.685   3.259   4.239  0.7657 -0.1975 -0.4808
 2760SOL     OW11069   2.712   3.996   4.259  0.4612 -0.6692 -0.1148
 2760SOL    HW211070   2.772   3.961   4.192  1.0233  0.6872 -0.3331
 2760SOL    HW311071   2.625   3.965   4.231  0.9796 -2.2588 -0.0503
 2760SOL    MW411072   2.708   3.987   4.246  0.6037 -0.7000 -0.1351
 2761SOL     OW11073   1.580   3.615   4.279  0.1305 -0.6710 -0.5749
 2761SOL    HW211074   1.513   3.561   4.236  1.4414 -0.4027 -3.0163
 2761SOL    HW311075   1.562   3.704   4.249  2.1896 -0.7428 -2.0948
 2761SOL    MW411076   1.569   3.619   4.269  0.5752 -0.6450 -1.0975
 2762SOL     OW11077   2.444   4.379   4.238  0.0746 -0.1601  0.2134
 2762SOL    HW211078   2.415   4.371   4.329  1.1400 -0.8441  0.5163
 2762SOL    HW311079   2.525   4.327   4.235 -0.0622 -0.3105 -1.1750
 2762SOL    MW411080   2.451   4.371   4.250  0.1971 -0.2702  0.0702
 2763SOL     OW11081   2.229   1.655   4.383  0.3270  0.4902  0.0105
 2763SOL    HW211082   2.217   1.588   4.315  1.2002  1.6541 -1.3346
 2763SOL    HW311083   2.146   1.701   4.385 -0.1270 -0.3570  0.6227
 2763SOL    MW411084   2.217   1.652   4.374  0.3823  0.5320 -0.0862
 2764SOL     OW11085   0.314   0.552   4.532  0.1164 -0.1529 -0.0076
 2764SOL    HW211086   0.392   0.606   4.544 -0.3752  0.5603  0.0232
 2764SOL    HW311087   0.244   0.615   4.516 -0.4403 -0.7927 -0.1039
 2764SOL    MW411088   0.315   0.567   4.531 -0.0219 -0.1432 -0.0162
 2765SOL     OW11089   4.060   4.035   4.189  0.2345  0.0956 -0.2090
 2765SOL    HW211090   4.049   4.039   4.284 -2.1224 -0.2573 -0.4288
 2765SOL    HW311091   4.128   3.970   4.175  0.6668  0.2156  1.2404
 2765SOL    MW411092   4.067   4.027   4.199 -0.0194  0.0649 -0.0468
 2766SOL     OW11093   3.294   2.112   4.482 -0.1441  0.2019  0.0032
 2766SOL    HW211094   3.204   2.140   4.497 -0.3784 -0.8287  0.5866
 2766SOL    HW311095   3.347   2.191   4.494 -1.0910  1.1132 -1.7160
 2766SOL    MW411096   3.289   2.126   4.486 -0.2999  0.1861 -0.1467
 2767SOL     OW11097   3.392   1.194   4.512  0.2390  0.1018  0.1070
 2767SOL    HW211098   3.308   1.199   4.557  0.3928 -2.7577  0.8196
 2767SOL    HW311099   3.436   1.118   4.552  2.9501  1.2355 -0.5789
 2767SOL    MW411100   3.387   1.184   4.523  0.6170 -0.1259  0.1105
 2768SOL     OW11101   3.898   0.692   4.667 -0.4626  0.1895 -0.1278
 2768SOL    HW211102   3.982   0.720   4.630  0.0327 -1.1425 -0.0471
 2768SOL    HW311103   3.853   0.774   4.687  0.4340  0.9318 -1.0253
 2768SOL    MW411104   3.903   0.707   4.664 -0.2790  0.1117 -0.2355
 2769SOL     OW11105   0.933   0.163   4.211  0.0061 -0.0731 -0.4946
 2769SOL    HW211106   0.873   0.108   4.160  0.3655  0.2938 -1.3295
 2769SOL    HW311107   0.936   0.246   4.163 -0.7138  0.7577  0.8804
 2769SOL    MW411108   0.926   0.167   4.198 -0.0415  0.0850 -0.4234
 2770SOL     OW11109   2.855   4.017   4.501  0.1257  0.1798  0.4845
 2770SOL    HW211110   2.815   4.029   4.415 -0.0363 -1.0725  0.3750
 2770SOL    HW311111   2.788   3.970   4.552  1.3760 -1.7781  0.3614
 2770SOL    MW411112   2.841   4.013   4.497  0.2693 -0.2437  0.4538
 2771SOL     OW11113   3.166   1.629   4.269  0.4369 -0.3343 -0.4075
 2771SOL    HW211114   3.259   1.613   4.254  0.4183 -0.9698  0.1660
 2771SOL    HW311115   3.157   1.633   4.364  0.1512  1.3421 -0.4828
 2771SOL    MW411116   3.177   1.628   4.280  0.3967 -0.1969 -0.3417
 2772SOL     OW11117   3.616   1.528   4.339  0.1392 -0.2823 -0.0448
 2772SOL    HW211118   3.570   1.485   4.412 -0.8544 -0.5400 -0.8192
 2772SOL    HW311119   3.552   1.532   4.269  1.2005 -0.3294 -1.0313
 2772SOL    MW411120   3.602   1.523   4.340  0.1481 -0.3225 -0.2771
 2773SOL     OW11121   2.356   3.005   4.744  0.0619  0.6622 -0.2525
 2773SOL    HW211122   2.343   2.999   4.839 -0.1702  1.3765 -0.2390
 2773SOL    HW311123   2.289   2.948   4.707 -0.3053  0.9386 -0.0119
 2773SOL    MW411124   2.345   2.997   4.752 -0.0171  0.7929 -0.2189
 2774SOL     OW11125   1.550   0.042   4.091 -0.0290 -0.1696 -0.1975
 2774SOL    HW211126   1.474   0.084   4.130  1.2104 -0.0070  2.1409
 2774SOL    HW311127   1.551  -0.047   4.127  1.7074  0.3008  0.9746
 2774SOL    MW411128   1.540   0.035   4.101  0.3636 -0.0861  0.2657
 2775SOL     OW11129   2.524   1.549   4.332  0.1013  0.0267 -0.0121
 2775SOL    HW211130   2.433   1.578   4.332  0.7912  2.2675 -0.1084
 2775SOL    HW311131   2.522   1.464   4.289 -1.7620  0.6717 -1.2703
 2775SOL    MW411132   2.512   1.542   4.327 -0.0535  0.4074 -0.1908
 2776SOL     OW11133   0.709   1.358   4.670 -0.2641  0.0925 -0.2455
 2776SOL    HW211134   0.721   1.450   4.694  1.0421 -0.4657  1.3191
 2776SOL    HW311135   0.787   1.336   4.619  0.0434 -0.5010  0.4789
 2776SOL    MW411136   0.721   1.367   4.666 -0.0512 -0.0595  0.0565
 2777SOL     OW11137   3.106   3.023   4.819  0.2313  0.0044  0.0154
 2777SOL    HW211138   3.177   2.979   4.774 -0.2188 -1.0114  0.2872
 2777SOL    HW311139   3.146   3.057   4.899  0.2993 -1.0223  0.4238
 2777SOL    MW411140   3.120   3.022   4.824  0.1809 -0.2651  0.1051
 2778SOL     OW11141   0.504   0.174   4.456  0.7456  0.6356  0.1716
 2778SOL    HW211142   0.503   0.141   4.367 -1.6730 -0.9829  0.7494
 2778SOL    HW311143   0.597   0.187   4.477  1.5839 -3.0281 -1.0869
 2778SOL    MW411144   0.516   0.172   4.447  0.5371 -0.0613  0.0818
 2779SOL     OW11145   2.206   4.253   4.164  0.3858  0.2591 -0.4053
 2779SOL    HW211146   2.225   4.179   4.221 -0.8991 -0.3338 -0.7381
 2779SOL    HW311147   2.280   4.313   4.176  0.7245 -0.4310  0.9313
 2779SOL    MW411148   2.218   4.251   4.173  0.2610  0.0899 -0.2729
 2780SOL     OW11149   1.789   2.740   4.122 -0.4189  0.0044  0.3022
 2780SOL    HW211150   1.795   2.742   4.027  0.3283 -0.4627  0.3394
 2780SOL    HW311151   1.791   2.647   4.145 -0.4121  0.1204  0.7887
 2780SOL    MW411152   1.790   2.728   4.112 -0.3194 -0.0419  0.3713
 2781SOL     OW11153   3.575   0.859   4.275 -0.2392 -0.3961 -0.2592
 2781SOL    HW211154   3.652   0.814   4.241 -0.7257 -0.3455 -1.4348
 2781SOL    HW311155   3.586   0.950   4.246 -0.3886 -0.2381  0.1780
 2781SOL    MW411156   3.587   0.865   4.267 -0.3231 -0.3686 -0.3566
 2782SOL     OW11157   2.771   1.977   4.658  0.2444 -0.6769  0.7104
 2782SOL    HW211158   2.710   1.985   4.731 -0.0411 -0.3558  0.4344
 2782SOL    HW311159   2.777   1.882   4.642 -0.1177 -0.7119  0.7899
 2782SOL    MW411160   2.764   1.965   4.665  0.1590 -0.6392  0.6845
 2783SOL     OW11161   2.079   1.672   4.094 -0.1062  0.1649  0.4564
 2783SOL    HW211162   1.999   1.679   4.146 -0.2895  0.8839  0.0981
 2783SOL    HW311163   2.054   1.619   4.018 -0.3712  0.7411  0.1302
 2783SOL    MW411164   2.065   1.666   4.091 -0.1653  0.3358  0.3661
 2784SOL     OW11165   2.000   0.497   4.271  0.1969 -0.3123  0.0182
 2784SOL    HW211166   2.005   0.588   4.241  0.4340  0.3717  2.0544
 2784SOL    HW311167   2.088   0.462   4.258  0.2501 -0.0783 -0.2453
 2784SOL    MW411168   2.012   0.504   4.266  0.2352 -0.1912  0.2521
 2785SOL     OW11169   1.119   2.838   4.227 -0.6398 -0.1914 -0.2816
 2785SOL    HW211170   1.187   2.772   4.216 -0.3618 -0.1803  1.2742
 2785SOL    HW311171   1.158   2.919   4.193 -0.5157 -0.5506 -0.9977
 2785SOL    MW411172   1.133   2.840   4.221 -0.5868 -0.2373 -0.1708
 2786SOL     OW11173   3.369   0.468   4.544  0.2095 -0.3737  0.0569
 2786SOL    HW211174   3.366   0.482   4.449 -1.7447  2.3481  0.4574
 2786SOL    HW311175   3.395   0.552   4.580  1.1563 -1.4474  1.9428
 2786SOL    MW411176   3.372   0.481   4.536  0.0766 -0.1562  0.3586
 2787SOL     OW11177   4.259   3.176   4.474  0.0598 -0.2546  0.2717
 2787SOL    HW211178   4.239   3.083   4.473 -1.0628 -0.0210  0.4070
 2787SOL    HW311179   4.201   3.214   4.408  1.0821  0.2377 -0.3658
 2787SOL    MW411180   4.249   3.169   4.465  0.0465 -0.1588  0.2054
 2788SOL     OW11181   3.050   3.300   4.690  0.0796 -0.4553 -0.3526
 2788SOL    HW211182   3.051   3.216   4.735 -1.4520 -1.1553 -1.6081
 2788SOL    HW311183   2.992   3.288   4.615 -1.3832  2.1501  0.2883
 2788SOL    MW411184   3.043   3.288   4.686 -0.3155 -0.2039 -0.4337
 2789SOL     OW11185   1.326   1.174   4.127  0.2159  0.1196 -0.0706
 2789SOL    HW211186   1.329   1.150   4.034  0.7979 -0.5794  0.1216
 2789SOL    HW311187   1.242   1.218   4.138  0.6812  1.2945 -1.1916
 2789SOL    MW411188   1.315   1.176   4.116  0.3541  0.1824 -0.1931
 2790SOL     OW11189   2.270   1.487   4.158  0.3321 -0.2622 -0.5222
 2790SOL    HW211190   2.192   1.537   4.133  0.0709  0.0898  0.9763
 2790SOL    HW311191   2.334   1.506   4.089 -0.1548  1.2211 -0.5763
 2790SOL    MW411192   2.268   1.496   4.145  0.2334 -0.0201 -0.3317
 2791SOL     OW11193   2.344   3.282   4.695 -0.1247  0.1727  0.2478
 2791SOL    HW211194   2.432   3.308   4.669  0.3586  0.3175  1.9842
 2791SOL    HW311195   2.346   3.186   4.696  0.5304  0.1955  1.9789
 2791SOL    MW411196   2.356   3.272   4.692  0.0255  0.1948  0.7053
 2792SOL     OW11197   1.306   1.854   4.139 -0.5987  0.5703  0.3661
 2792SOL    HW211198   1.393   1.865   4.177  0.0880 -0.2844 -0.9121
 2792SOL    HW311199   1.252   1.920   4.182  1.4022  3.1969 -1.0310
 2792SOL    MW411200   1.310   1.864   4.150 -0.2441  0.8041  0.0131
 2793SOL     OW11201   0.161   0.957   4.641 -0.3699 -0.3572  0.1514
 2793SOL    HW211202   0.248   0.954   4.679 -0.3605 -0.0389  0.1573
 2793SOL    HW311203   0.155   0.878   4.587  0.0532 -0.1932 -0.1322
 2793SOL    MW411204   0.171   0.946   4.638 -0.3129 -0.2935  0.1148
 2794SOL     OW11205   1.666   3.877   4.634  0.3631  0.0549  0.2233
 2794SOL    HW211206   1.684   3.790   4.597 -1.6219 -0.3420  0.1240
 2794SOL    HW311207   1.580   3.868   4.675  0.7565  1.6054  1.4310
 2794SOL    MW411208   1.657   3.864   4.635  0.1531  0.2071  0.3696
 2795SOL     OW11209   3.186   4.373   4.589 -0.8349 -0.0971  0.1746
 2795SOL    HW211210   3.090   4.379   4.581 -0.8344  1.7406  1.2157
 2795SOL    HW311211   3.210   4.451   4.640  1.1693 -0.7980  0.3203
 2795SOL    MW411212   3.176   4.384   4.595 -0.5704  0.0529  0.3312
 2796SOL     OW11213   2.946   3.647   4.256 -0.2035  0.1329 -0.1373
 2796SOL    HW211214   2.976   3.684   4.339 -0.3743  0.3817 -0.1859
 2796SOL    HW311215   3.009   3.577   4.237  0.1358  0.4139 -0.0588
 2796SOL    MW411216   2.958   3.643   4.265 -0.1813  0.2028 -0.1333
 2797SOL     OW11217   2.758   1.133   4.136 -0.4769 -0.0589 -0.1482
 2797SOL    HW211218   2.743   1.039   4.146  1.7770 -0.5026 -0.6103
 2797SOL    HW311219   2.742   1.151   4.043 -2.2123  0.2888  0.2029
 2797SOL    MW411220   2.754   1.123   4.125 -0.4085 -0.0716 -0.1629
 2798SOL     OW11221   2.977   2.138   4.485 -0.1233 -0.5648 -0.3528
 2798SOL    HW211222   2.912   2.104   4.547 -0.2331  0.0189 -0.1409
 2798SOL    HW311223   2.943   2.115   4.399 -0.0029 -1.3263 -0.2019
 2798SOL    MW411224   2.964   2.131   4.482 -0.1219 -0.5883 -0.3049
 2799SOL     OW11225   4.219   2.402   4.424 -0.1596  0.1687  0.1188
 2799SOL    HW211226   4.246   2.378   4.335  3.2733  2.0571  0.5733
 2799SOL    HW311227   4.203   2.318   4.467 -0.2289 -0.8338 -1.8061
 2799SOL    MW411228   4.221   2.388   4.418  0.2842  0.2856 -0.0752
 2800SOL     OW11229   3.440   1.907   4.607  0.3566  0.0826  0.3767
 2800SOL    HW211230   3.494   1.878   4.535 -0.3949 -0.4273  0.0118
 2800SOL    HW311231   3.396   1.986   4.574 -1.2134 -1.0517 -0.3049
 2800SOL    MW411232   3.441   1.914   4.593  0.0503 -0.1343  0.2386
 2801SOL     OW11233   2.676   4.262   4.168  0.0336  0.0362 -0.4104
 2801SOL    HW211234   2.659   4.246   4.075 -0.3359 -1.3153 -0.1313
 2801SOL    HW311235   2.691   4.174   4.204 -0.0227  0.5349  0.8379
 2801SOL    MW411236   2.675   4.248   4.160 -0.0226 -0.0763 -0.2089
 2802SOL     OW11237   1.997   1.878   4.649  0.2450 -0.8262 -0.1752
 2802SOL    HW211238   1.919   1.838   4.688  0.3350 -1.4252 -0.6057
 2802SOL    HW311239   1.996   1.849   4.558  0.2567  0.2412 -0.5220
 2802SOL    MW411240   1.986   1.869   4.642  0.2584 -0.7644 -0.2778
 2803SOL     OW11241   2.489   0.461   4.274 -0.4351  0.0234 -0.0790
 2803SOL    HW211242   2.484   0.550   4.241 -1.1778  0.0082 -0.0003
 2803SOL    HW311243   2.500   0.471   4.368  0.3433  0.0410 -0.1642
 2803SOL    MW411244   2.490   0.474   4.282 -0.4304  0.0237 -0.0798
 2804SOL     OW11245   2.910   2.059   4.235  0.0397  0.0433  0.1082
 2804SOL    HW211246   2.984   2.001   4.214 -0.1275  0.3265 -1.3537
 2804SOL    HW311247   2.833   2.006   4.218 -0.1012 -0.1935  1.4647
 2804SOL    MW411248   2.910   2.044   4.230 -0.0010  0.0494  0.0943
 2805SOL     OW11249   0.008   4.020   4.254  0.3245 -0.0209 -0.1197
 2805SOL    HW211250  -0.065   3.977   4.211 -1.4240  2.6521  0.0327
 2805SOL    HW311251   0.012   4.107   4.214  2.7207  0.2813  0.6537
 2805SOL    MW411252  -0.001   4.026   4.243  0.4100  0.3716  0.0025
 2806SOL     OW11253   3.092   2.407   4.502  0.6207  0.2873  0.4665
 2806SOL    HW211254   3.048   2.322   4.508 -1.0402  1.1938  1.3332
 2806SOL    HW311255   3.092   2.427   4.408 -1.6830  0.7125  0.5283
 2806SOL    MW411256   3.086   2.398   4.490  0.0976  0.4630  0.5890
 2807SOL     OW11257   4.089   0.834   4.523  0.2384  0.1305  0.0748
 2807SOL    HW211258   4.064   0.852   4.433  1.0277  0.5880 -0.0535
 2807SOL    HW311259   4.083   0.919   4.567 -0.8761 -0.2190  0.6393
 2807SOL    MW411260   4.085   0.848   4.517  0.1955  0.1448  0.1323
 2808SOL     OW11261   0.148   3.484   4.441 -0.0784  0.4606  0.0934
 2808SOL    HW211262   0.061   3.521   4.456 -0.6220 -0.5472 -0.4890
 2808SOL    HW311263   0.167   3.504   4.349 -0.1441 -0.2058 -0.0701
 2808SOL    MW411264   0.139   3.491   4.430 -0.1588  0.2397 -0.0050
 2809SOL     OW11265   3.327   2.737   4.495 -0.5097  0.0321  0.4263
 2809SOL    HW211266   3.338   2.821   4.538  1.0484  0.1484 -0.1755
 2809SOL    HW311267   3.318   2.758   4.402 -1.9901 -0.3514  0.4558
 2809SOL    MW411268   3.327   2.751   4.488 -0.4995 -0.0032  0.3508
 2810SOL     OW11269   1.721   3.627   4.520 -0.3877  0.0080 -0.2583
 2810SOL    HW211270   1.670   3.637   4.439 -1.4997 -1.3236  0.2652
 2810SOL    HW311271   1.706   3.537   4.547  0.3443  0.3088  1.2073
 2810SOL    MW411272   1.712   3.617   4.513 -0.4378 -0.1280  0.0042
 2811SOL     OW11273   1.729   1.202   4.174 -0.0441 -0.0667 -0.1270
 2811SOL    HW211274   1.651   1.254   4.194  0.7509  0.4083  1.8968
 2811SOL    HW311275   1.802   1.264   4.183  0.7396 -1.0310  0.2124
 2811SOL    MW411276   1.729   1.217   4.178  0.1642 -0.1312  0.1848
 2812SOL     OW11277   0.375   1.989   4.664 -0.5204 -0.4155  0.1196
 2812SOL    HW211278   0.300   2.038   4.630 -1.0054 -0.7737  0.6810
 2812SOL    HW311279   0.441   1.997   4.595 -1.0546 -0.0695 -0.3590
 2812SOL    MW411280   0.374   1.997   4.650 -0.6549 -0.4171  0.1305
 2813SOL     OW11281   1.113   2.035   4.248  0.2021 -0.1145 -0.2139
 2813SOL    HW211282   1.123   2.128   4.225 -0.5104  0.1755  0.6306
 2813SOL    HW311283   1.028   2.010   4.212 -0.2965 -0.0235  0.8799
 2813SOL    MW411284   1.103   2.044   4.240  0.0423 -0.0642  0.0419
 2814SOL     OW11285   3.131   3.933   4.469 -0.0566  0.8974 -0.1804
 2814SOL    HW211286   3.039   3.953   4.489 -0.3085 -0.5558  0.1602
 2814SOL    HW311287   3.180   4.003   4.513 -0.9729  1.4490 -0.0118
 2814SOL    MW411288   3.125   3.945   4.478 -0.2107  0.7784 -0.1132
 2815SOL     OW11289   2.945   0.525   4.536 -0.0096  0.5281 -0.2791
 2815SOL    HW211290   2.955   0.503   4.443 -1.0065  1.3907 -0.5890
 2815SOL    HW311291   3.018   0.479   4.578 -0.7651 -1.5904 -1.1989
 2815SOL    MW411292   2.956   0.516   4.529 -0.2408  0.3624 -0.4413
 2816SOL     OW11293   0.817   4.510   4.476  0.1432  0.3966  0.3050
 2816SOL    HW211294   0.811   4.603   4.455  0.8789  0.0181 -1.7295
 2816SOL    HW311295   0.910   4.489   4.465  0.0378 -0.4934  1.0990
 2816SOL    MW411296   0.829   4.519   4.471  0.2263  0.2293  0.1414
 2817SOL     OW11297   2.583   1.266   4.325 -0.0363  0.5964  0.0115
 2817SOL    HW211298   2.628   1.227   4.250 -3.5878 -2.5478 -0.6688
 2817SOL    HW311299   2.634   1.238   4.401  1.7336  1.0107 -1.0152
 2817SOL    MW411300   2.596   1.257   4.325 -0.2713  0.2362 -0.2137
 2818SOL     OW11301   1.505   2.118   4.466  0.3810  0.2580  0.7146
 2818SOL    HW211302   1.594   2.085   4.457 -0.4486 -1.5682 -1.2703
 2818SOL    HW311303   1.460   2.052   4.519 -0.2485  0.2480  0.1773
 2818SOL    MW411304   1.510   2.105   4.472  0.1885  0.0158  0.3818
 2819SOL     OW11305   0.237   2.852   4.183  0.6035  0.6208  0.0981
 2819SOL    HW211306   0.162   2.792   4.181  0.8334  0.3861 -1.6190
 2819SOL    HW311307   0.232   2.893   4.270  0.8522 -2.3920  1.5855
 2819SOL    MW411308   0.226   2.850   4.194  0.6666  0.1923  0.0678
 2820SOL     OW11309   2.955   0.780   4.621  0.0725  0.2886 -0.1474
 2820SOL    HW211310   2.937   0.688   4.603  0.9638 -0.3936  2.3166
 2820SOL    HW311311   3.043   0.795   4.587  1.1829 -0.6268  2.2095
 2820SOL    MW411312   2.964   0.770   4.614  0.3366  0.0778  0.4887
 2821SOL     OW11313   1.555   2.834   4.197  0.0744  0.2908  0.4553
 2821SOL    HW211314   1.572   2.926   4.178  1.2982  0.0570  0.3652
 2821SOL    HW311315   1.641   2.792   4.189 -0.6068 -0.9954 -0.3223
 2821SOL    MW411316   1.569   2.840   4.193  0.1460  0.0903  0.3409
 2822SOL     OW11317   4.044   3.473   4.129  0.4548  0.4682  0.2913
 2822SOL    HW211318   4.034   3.453   4.036 -0.9505  0.1310  0.5068
 2822SOL    HW311319   3.956   3.495   4.158  1.0012  1.2417  1.3938
 2822SOL    MW411320   4.031   3.473   4.120  0.3415  0.5258  0.4652
 2823SOL     OW11321   1.403   2.461   4.257 -0.8307 -0.0727 -0.1193
 2823SOL    HW211322   1.474   2.405   4.225 -1.2495 -0.2013 -0.8492
 2823SOL    HW311323   1.443   2.514   4.325  0.3056  0.8014 -1.4490
 2823SOL    MW411324   1.417   2.460   4.261 -0.7360  0.0257 -0.3910
 2824SOL     OW11325   1.372   1.918   4.630 -0.2041  0.3115 -0.0529
 2824SOL    HW211326   1.317   1.853   4.586 -0.3643  0.3672  0.0639
 2824SOL    HW311327   1.410   1.871   4.704 -0.6210  0.4502  0.2556
 2824SOL    MW411328   1.370   1.903   4.634 -0.2803  0.3372  0.0032
 2825SOL     OW11329   0.121   0.719   4.461  0.1320  0.1793 -0.1541
 2825SOL    HW211330   0.038   0.701   4.506  0.9482  0.8048  1.6253
 2825SOL    HW311331   0.096   0.778   4.390 -0.9967  0.2104  0.2429
 2825SOL    MW411332   0.107   0.724   4.458  0.0907  0.2659  0.1331
 2826SOL     OW11333   0.498   2.731   4.132  0.0008  0.3094 -0.2969
 2826SOL    HW211334   0.490   2.745   4.038 -1.9345 -1.0411 -0.3584
 2826SOL    HW311335   0.429   2.786   4.170  0.6969  0.7557  0.3382
 2826SOL    MW411336   0.487   2.740   4.125 -0.1627  0.1901 -0.2212
 2827SOL     OW11337   2.626   2.155   4.471  0.3872 -0.0127  0.4991
 2827SOL    HW211338   2.676   2.086   4.516 -0.0045 -0.2353  0.5955
 2827SOL    HW311339   2.550   2.169   4.526 -0.4163 -0.7328 -0.4081
 2827SOL    MW411340   2.623   2.148   4.484  0.2295 -0.1371  0.3921
 2828SOL     OW11341   4.337   0.695   4.566  0.0293 -0.0793  0.1048
 2828SOL    HW211342   4.309   0.603   4.568  0.3236 -0.1823 -0.4346
 2828SOL    HW311343   4.258   0.744   4.543  0.2240 -0.3461 -1.1650
 2828SOL    MW411344   4.323   0.689   4.563  0.0938 -0.1281 -0.1339
 2829SOL     OW11345   2.219   2.749   4.344 -0.2305  0.0516 -0.0157
 2829SOL    HW211346   2.190   2.696   4.418  0.2733  0.2536  0.3320
 2829SOL    HW311347   2.141   2.795   4.315 -0.5971 -0.6271 -0.1083
 2829SOL    MW411348   2.205   2.748   4.350 -0.2124 -0.0113  0.0180
 2830SOL     OW11349   0.535   0.751   4.501  0.0919  0.0898  0.0703
 2830SOL    HW211350   0.500   0.793   4.579  1.0614  0.4836  0.3002
 2830SOL    HW311351   0.485   0.788   4.428 -1.1412 -0.6263  0.5286
 2830SOL    MW411352   0.524   0.761   4.501  0.0571  0.0473  0.1611
 2831SOL     OW11353   2.464   3.109   4.239 -0.2620  0.5149  0.1634
 2831SOL    HW211354   2.384   3.150   4.274 -0.5342 -0.5908  0.9040
 2831SOL    HW311355   2.475   3.030   4.293  0.5485 -0.0816 -0.8549
 2831SOL    MW411356   2.455   3.104   4.251 -0.1910  0.2903  0.1268
 2832SOL     OW11357   2.866   2.993   4.603  0.3299  0.2806  0.1769
 2832SOL    HW211358   2.906   2.920   4.556  0.8027  0.3280  0.4958
 2832SOL    HW311359   2.917   3.000   4.684  0.9787  1.6331 -0.3279
 2832SOL    MW411360   2.878   2.984   4.608  0.4779  0.4653  0.1524
 2833SOL     OW11361   3.558   3.448   4.124 -0.3276 -0.2037  0.0380
 2833SOL    HW211362   3.642   3.480   4.158 -0.3132  0.5217 -0.6465
 2833SOL    HW311363   3.493   3.496   4.175 -0.3090  0.5459 -0.6325
 2833SOL    MW411364   3.561   3.459   4.136 -0.3233 -0.0091 -0.1408
 2834SOL     OW11365   1.303   4.557   4.547  0.0347 -0.0448 -0.2542
 2834SOL    HW211366   1.291   4.652   4.558 -1.8413 -0.3601  0.5606
 2834SOL    HW311367   1.396   4.547   4.526  0.4278  1.9138  0.4464
 2834SOL    MW411368   1.313   4.568   4.546 -0.1609  0.1720 -0.0543
 2835SOL     OW11369   0.503   3.951   4.837 -0.1095 -0.1059  0.6244
 2835SOL    HW211370   0.450   3.921   4.763  0.4257 -0.4338  0.3715
 2835SOL    HW311371   0.439   3.972   4.905 -0.6197  0.4570 -0.0251
 2835SOL    MW411372   0.487   3.950   4.837 -0.1062 -0.0749  0.5054
 2836SOL     OW11373   2.470   0.708   4.180  0.5891  0.2449  0.5495
 2836SOL    HW211374   2.395   0.748   4.224 -0.7652 -1.3751 -0.2144
 2836SOL    HW311375   2.456   0.727   4.087  0.8474 -0.4910  0.3577
 2836SOL    MW411376   2.458   0.715   4.174  0.4445 -0.0659  0.4234
 2837SOL     OW11377   3.138   1.129   4.126  0.0566 -0.2820 -0.0341
 2837SOL    HW211378   3.087   1.205   4.155  0.0170 -1.0538  1.9528
 2837SOL    HW311379   3.147   1.142   4.031  1.0048  2.8026  0.3987
 2837SOL    MW411380   3.132   1.141   4.117  0.1765  0.0232  0.2852
 2838SOL     OW11381   0.049   3.194   4.471  0.1210  0.1259 -0.2342
 2838SOL    HW211382   0.088   3.281   4.480  0.4443 -0.2029  1.6739
 2838SOL    HW311383  -0.045   3.209   4.481  0.1345  0.3264 -0.4121
 2838SOL    MW411384   0.042   3.207   4.474  0.1655  0.1090 -0.0059
 2839SOL     OW11385   3.994   1.675   4.248  0.5738  0.0983 -0.3462
 2839SOL    HW211386   4.078   1.630   4.233  1.3804  1.1791  0.8274
 2839SOL    HW311387   3.972   1.655   4.339  0.2615  0.9703 -0.2302
 2839SOL    MW411388   4.002   1.667   4.258  0.6391  0.3560 -0.1760
 2840SOL     OW11389   1.098   2.087   4.551  0.1171  0.3257 -0.1935
 2840SOL    HW211390   1.108   2.075   4.457 -0.9889 -2.4217 -0.0128
 2840SOL    HW311391   1.187   2.077   4.586  0.4670  0.9482 -0.9012
 2840SOL    MW411392   1.111   2.084   4.543  0.0173  0.0453 -0.2630
 2841SOL     OW11393   0.030   3.232   4.205 -0.0800 -0.2736 -0.3608
 2841SOL    HW211394  -0.055   3.195   4.185 -0.1225 -0.8738  0.8865
 2841SOL    HW311395   0.042   3.216   4.299  1.4669 -0.3372 -0.5545
 2841SOL    MW411396   0.021   3.225   4.215  0.1185 -0.3612 -0.2218
 2842SOL     OW11397   3.367   3.619   4.252 -0.5293  0.6607  0.3714
 2842SOL    HW211398   3.363   3.588   4.343  1.6349 -0.9031 -0.0417
 2842SOL    HW311399   3.289   3.580   4.211 -1.1243  0.7783  1.3761
 2842SOL    MW411400   3.356   3.610   4.258 -0.3223  0.4699  0.4495
 2843SOL     OW11401   2.709   0.103   4.254  0.1071 -0.3265  0.3308
 2843SOL    HW211402   2.625   0.064   4.230  0.1577 -0.4997  0.4335
 2843SOL    HW311403   2.700   0.196   4.233  0.2403 -0.5180 -0.6133
 2843SOL    MW411404   2.697   0.110   4.248  0.1313 -0.3746  0.2198
 2844SOL     OW11405   0.202   4.462   4.524  0.3774  0.3650 -0.2311
 2844SOL    HW211406   0.134   4.519   4.559  0.5388 -1.1126  2.6335
 2844SOL    HW311407   0.284   4.500   4.555  0.7771  1.0726 -2.0868
 2844SOL    MW411408   0.204   4.474   4.533  0.4514  0.2634 -0.0980
 2845SOL     OW11409   1.852   0.419   4.491 -0.2497 -0.1999 -0.5620
 2845SOL    HW211410   1.904   0.362   4.547 -0.9057  0.8857  1.1946
 2845SOL    HW311411   1.908   0.434   4.414  1.2529 -0.5813  0.4295
 2845SOL    MW411412   1.866   0.414   4.488 -0.1380 -0.1070 -0.1994
 2846SOL     OW11413   0.408   2.456   4.471 -0.0785 -0.1528 -0.2143
 2846SOL    HW211414   0.479   2.513   4.499 -1.3956  1.1168  0.6409
 2846SOL    HW311415   0.407   2.464   4.376  1.5919 -1.0160 -0.3113
 2846SOL    MW411416   0.417   2.464   4.462 -0.0319 -0.0992 -0.1143
 2847SOL     OW11417   4.275   2.327   4.146  0.0474 -0.1576  0.0744
 2847SOL    HW211418   4.355   2.367   4.181 -0.0139  0.4571 -0.4791
 2847SOL    HW311419   4.281   2.235   4.173 -0.3019  0.4195  2.2214
 2847SOL    MW411420   4.286   2.320   4.154 -0.0068 -0.0003  0.2846
 2848SOL     OW11421   4.068   0.071   4.520 -0.1730 -0.0273 -0.1979
 2848SOL    HW211422   4.008  -0.002   4.535  0.4399 -0.5219 -0.1315
 2848SOL    HW311423   4.056   0.128   4.596 -1.7141  0.6806 -0.9616
 2848SOL    MW411424   4.059   0.069   4.532 -0.2954  0.0009 -0.2899
 2849SOL     OW11425   1.883   2.943   4.512 -0.0298 -0.6751 -1.0906
 2849SOL    HW211426   1.875   3.038   4.521  1.4624 -0.2732 -3.3924
 2849SOL    HW311427   1.793   2.911   4.511 -0.4928  0.3781  2.4403
 2849SOL    MW411428   1.870   2.951   4.513  0.1060 -0.4831 -0.9284
 2850SOL     OW11429   0.013   2.681   4.142 -0.1948  0.2935  0.5534
 2850SOL    HW211430  -0.068   2.726   4.165 -0.4367  0.2363 -0.1598
 2850SOL    HW311431   0.014   2.603   4.197 -0.1875  0.7412  1.1976
 2850SOL    MW411432   0.003   2.677   4.152 -0.2258  0.3450  0.5443
 2851SOL     OW11433   3.623   3.998   4.241  0.1976 -0.2068  0.1262
 2851SOL    HW211434   3.531   3.975   4.224  0.0606  1.1777 -1.1116
 2851SOL    HW311435   3.642   3.958   4.326 -2.0281  0.7158  1.1284
 2851SOL    MW411436   3.613   3.990   4.250 -0.1141  0.0976  0.0951
 2852SOL     OW11437   1.608   2.321   4.138  0.3948  0.5230 -0.6028
 2852SOL    HW211438   1.562   2.242   4.165  1.2807  0.4289  0.6593
 2852SOL    HW311439   1.594   2.325   4.043  1.4982 -1.8980 -0.9040
 2852SOL    MW411440   1.600   2.311   4.129  0.6572  0.1912 -0.4761
 2853SOL     OW11441   2.706   3.628   4.804  0.1762 -0.1166  0.1709
 2853SOL    HW211442   2.691   3.545   4.759  1.3616 -0.3886  0.2686
 2853SOL    HW311443   2.623   3.647   4.847 -0.2001 -1.0859 -0.1135
 2853SOL    MW411444   2.693   3.620   4.803  0.2829 -0.2804  0.1463
 2854SOL     OW11445   0.894   1.886   4.544 -0.4748  0.6302 -0.1995
 2854SOL    HW211446   0.934   1.844   4.467 -0.6106 -1.0240  0.6097
 2854SOL    HW311447   0.953   1.958   4.565  0.6871 -0.1860 -0.6079
 2854SOL    MW411448   0.907   1.890   4.536 -0.3394  0.3042 -0.1466
 2855SOL     OW11449   3.148   0.364   4.650 -0.0127 -0.0631  0.0839
 2855SOL    HW211450   3.228   0.393   4.606  0.2075 -2.4573 -1.1994
 2855SOL    HW311451   3.179   0.311   4.723 -0.4074 -1.5191 -0.7884
 2855SOL    MW411452   3.162   0.361   4.654 -0.0357 -0.5711 -0.2005
 2856SOL     OW11453   0.605   2.276   4.563  0.3783  0.3026  0.0311
 2856SOL    HW211454   0.532   2.332   4.539  1.1247  1.0613 -0.5009
 2856SOL    HW311455   0.658   2.330   4.622  0.9958  0.0784 -0.3183
 2856SOL    MW411456   0.602   2.290   4.568  0.5582  0.3732 -0.0852
 2857SOL     OW11457   0.145   2.401   4.515 -0.0274 -0.2711 -0.4520
 2857SOL    HW211458   0.115   2.471   4.574  0.0970 -1.1872  0.7178
 2857SOL    HW311459   0.235   2.426   4.493  0.0564 -0.1193  0.0523
 2857SOL    MW411460   0.153   2.414   4.520  0.0001 -0.3719 -0.2312
 2858SOL     OW11461   1.855   3.229   4.499  0.1368 -0.0190 -0.2127
 2858SOL    HW211462   1.785   3.272   4.548  0.2271 -0.6140  0.4449
 2858SOL    HW311463   1.936   3.264   4.536  0.2147 -0.9333  0.5032
 2858SOL    MW411464   1.857   3.239   4.510  0.1590 -0.2181 -0.0315
 2859SOL     OW11465   0.150   2.115   4.555  0.0044 -0.2612  0.1220
 2859SOL    HW211466   0.160   2.110   4.460 -2.0985 -2.0334 -0.0559
 2859SOL    HW311467   0.134   2.207   4.574 -0.2693 -0.0099 -1.3241
 2859SOL    MW411468   0.149   2.126   4.545 -0.3092 -0.4619 -0.0922
 2860SOL     OW11469   3.804   2.111   4.278  0.3204 -0.1260 -0.2941
 2860SOL    HW211470   3.749   2.042   4.243 -0.4538  0.1699  0.3334
 2860SOL    HW311471   3.788   2.186   4.221  0.9842 -0.3859 -0.8335
 2860SOL    MW411472   3.795   2.112   4.266  0.3059 -0.1212 -0.2825
 2861SOL     OW11473   4.282   2.834   4.223 -0.2478  0.0200 -0.0564
 2861SOL    HW211474   4.266   2.841   4.318 -0.2356  0.3750 -0.0794
 2861SOL    HW311475   4.283   2.924   4.193  0.1048 -0.0804 -0.3385
 2861SOL    MW411476   4.280   2.847   4.232 -0.1997  0.0536 -0.0967
 2862SOL     OW11477   2.269   4.152   4.608 -0.5636  0.2826  0.2202
 2862SOL    HW211478   2.305   4.088   4.669 -1.3689  1.5645  2.0748
 2862SOL    HW311479   2.295   4.119   4.522  0.4884 -1.6221  1.2160
 2862SOL    MW411480   2.277   4.139   4.605 -0.5310  0.2004  0.5963
 2863SOL     OW11481   0.776   0.632   4.443 -0.1303  0.3323  0.0956
 2863SOL    HW211482   0.690   0.650   4.481 -1.3538  0.4701 -2.6325
 2863SOL    HW311483   0.758   0.578   4.366  2.2662  0.0546 -0.3228
 2863SOL    MW411484   0.763   0.628   4.438  0.0245  0.3138 -0.3196
 2864SOL     OW11485   0.750   4.410   4.222  0.6093  0.1938 -0.1686
 2864SOL    HW211486   0.663   4.371   4.227  1.0456 -0.8451 -0.5845
 2864SOL    HW311487   0.773   4.432   4.312 -0.0935  0.4943 -0.0655
 2864SOL    MW411488   0.742   4.408   4.234  0.5741  0.0964 -0.2099
 2865SOL     OW11489   1.393   3.250   4.553 -0.1374  0.3345  0.4521
 2865SOL    HW211490   1.397   3.248   4.457  0.6712  1.1584  0.4543
 2865SOL    HW311491   1.312   3.297   4.572 -0.1133  0.4949  0.1680
 2865SOL    MW411492   1.383   3.256   4.543 -0.0276  0.4644  0.4149
 2866SOL     OW11493   0.106   1.212   4.566  0.3715 -0.5282 -0.6225
 2866SOL    HW211494   0.151   1.130   4.589 -0.3531 -1.2818 -1.8342
 2866SOL    HW311495   0.173   1.262   4.518  1.0657 -0.0627  0.8203
 2866SOL    MW411496   0.121   1.208   4.562  0.3675 -0.5662 -0.5920
 2867SOL     OW11497   1.263   1.715   4.471  0.5565 -0.2188 -0.0800
 2867SOL    HW211498   1.331   1.757   4.418  0.0839  0.0338 -0.4900
 2867SOL    HW311499   1.183   1.726   4.420  0.0035  0.4753  0.9207
 2867SOL    MW411500   1.261   1.722   4.457  0.4212 -0.0939 -0.0021
 2868SOL     OW11501   4.383   0.953   4.714  0.4129 -0.2414 -0.2433
 2868SOL    HW211502   4.474   0.977   4.699  0.2278 -0.7347 -2.2404
 2868SOL    HW311503   4.371   0.871   4.667 -1.0952 -0.1373 -0.0673
 2868SOL    MW411504   4.393   0.946   4.706  0.1895 -0.2928 -0.4836
 2869SOL     OW11505   0.445   0.850   4.249  0.3140  0.4677 -0.0478
 2869SOL    HW211506   0.433   0.943   4.230  0.2455  0.5667  0.4897
 2869SOL    HW311507   0.529   0.829   4.209 -0.0377  0.5697 -0.8595
 2869SOL    MW411508   0.455   0.860   4.241  0.2585  0.4942 -0.0840
 2870SOL     OW11509   2.910   1.027   4.769  0.5625  0.1740  0.0111
 2870SOL    HW211510   2.908   0.932   4.761  1.2997 -0.1786  3.2173
 2870SOL    HW311511   2.818   1.053   4.768  0.3767 -0.4978 -1.4325
 2870SOL    MW411512   2.898   1.018   4.768  0.6353  0.0389  0.2436
 2871SOL     OW11513   3.530   2.300   4.471 -0.1363  0.3863  0.3017
 2871SOL    HW211514   3.478   2.371   4.508 -0.7161 -0.1848  0.5919
 2871SOL    HW311515   3.618   2.313   4.509  0.2106  1.9272 -0.9650
 2871SOL    MW411516   3.535   2.311   4.481 -0.1670  0.5143  0.1729
 2872SOL     OW11517   2.544   1.999   4.873  0.0871  0.2586 -0.0578
 2872SOL    HW211518   2.505   1.933   4.816 -0.4322 -0.0000  0.5972
 2872SOL    HW311519   2.532   1.965   4.961  1.1336  0.5272  0.1973
 2872SOL    MW411520   2.537   1.986   4.877  0.1567  0.2599  0.0623
 2873SOL     OW11521   4.389   3.586   4.504  0.2102  0.4423  0.1764
 2873SOL    HW211522   4.343   3.515   4.549 -1.4618  2.4656  1.7962
 2873SOL    HW311523   4.340   3.600   4.424  0.5471 -0.2287 -0.1501
 2873SOL    MW411524   4.376   3.579   4.500  0.0341  0.6207  0.3471
 2874SOL     OW11525   0.959   3.453   4.122  0.1870 -0.2342 -0.0738
 2874SOL    HW211526   0.874   3.472   4.163  0.5342  0.7377  0.2153
 2874SOL    HW311527   0.938   3.438   4.030 -0.1630  1.1337 -0.2268
 2874SOL    MW411528   0.945   3.454   4.116  0.1866  0.0745 -0.0558
 2875SOL     OW11529   4.192   4.259   4.606 -0.1687 -0.6204 -0.2440
 2875SOL    HW211530   4.214   4.344   4.567 -0.8169 -0.3550 -0.0216
 2875SOL    HW311531   4.270   4.205   4.590  0.4413  0.1656  0.0659
 2875SOL    MW411532   4.205   4.263   4.599 -0.1737 -0.4817 -0.1738
 2876SOL     OW11533   0.729   1.104   4.447 -0.4862 -0.1905  0.2173
 2876SOL    HW211534   0.652   1.123   4.501 -0.1257  0.0462  0.6552
 2876SOL    HW311535   0.763   1.021   4.482 -0.1759  0.0309  0.4418
 2876SOL    MW411536   0.723   1.095   4.459 -0.3977 -0.1300  0.3047
 2877SOL     OW11537   4.197   2.129   4.507  0.2835 -0.3262 -0.1578
 2877SOL    HW211538   4.112   2.088   4.523 -0.1063  0.9012  1.0070
 2877SOL    HW311539   4.261   2.068   4.545 -0.4551  1.2871  3.8344
 2877SOL    MW411540   4.195   2.115   4.514  0.1346  0.0486  0.5226
 2878SOL     OW11541   0.434   4.577   4.604 -0.2030  0.1645  0.4810
 2878SOL    HW211542   0.474   4.648   4.554 -0.1707 -0.0414  0.2062
 2878SOL    HW311543   0.505   4.514   4.618 -0.1035  0.4362  1.1900
 2878SOL    MW411544   0.449   4.578   4.599 -0.1856  0.1732  0.5382
 2879SOL     OW11545   1.913   2.434   4.491  0.2704 -0.1189  0.2226
 2879SOL    HW211546   1.840   2.396   4.539  0.0588 -2.0809 -1.5847
 2879SOL    HW311547   1.975   2.362   4.480  1.6047  1.0178 -0.0182
 2879SOL    MW411548   1.912   2.420   4.496  0.4185 -0.2278 -0.0476
 2880SOL     OW11549   3.540   2.452   4.236 -0.0278 -0.4189  0.1900
 2880SOL    HW211550   3.536   2.390   4.309  0.0531 -0.1939  0.3842
 2880SOL    HW311551   3.598   2.410   4.172 -0.0700 -0.5978  0.2687
 2880SOL    MW411552   3.547   2.438   4.237 -0.0227 -0.4128  0.2260
 2881SOL     OW11553   2.592   2.860   4.609  0.3395 -0.0940  0.0030
 2881SOL    HW211554   2.528   2.919   4.649  0.3867 -0.4491  0.6029
 2881SOL    HW311555   2.666   2.916   4.587 -0.8953  0.6595 -2.3585
 2881SOL    MW411556   2.593   2.875   4.612  0.1828 -0.0414 -0.2294
 2882NA      NA11557   2.686   3.947   0.685  0.3238 -0.6139  0.1091
 2883NA      NA11558   0.240   2.836   0.417 -0.5537 -0.1969 -0.3366
   4.49070   4.66690  10.00000
