Gromacs Runs On Most of All Computer Systems in water
11622
    1U      O5'    1   3.161   2.159   4.097 -0.6801 -0.5747 -0.3239
    1U      H5T    2   3.126   2.202   4.175  0.6222 -1.1869  0.6124
    1U      C5'    3   3.067   2.169   3.987 -0.5314  0.3294  0.5176
    1U     H5'1    4   3.115   2.158   3.890 -0.5420 -1.8014  0.7330
    1U     H5'2    5   3.019   2.266   4.001 -3.1549 -1.1056  2.0314
    1U      C4'    6   2.948   2.066   3.995 -0.0567  0.0555 -0.0394
    1U      H4'    7   2.876   2.087   3.916 -1.8312 -1.0922  1.2359
    1U      O4'    8   3.003   1.932   3.968  0.1208  0.0412  0.0756
    1U      C1'    9   2.914   1.845   4.030  0.2378 -0.0995  0.2116
    1U      H1'   10   2.837   1.813   3.960  0.0448 -0.8661  0.7691
    1U       N1   11   2.996   1.723   4.066 -0.5843 -0.6930 -0.2534
    1U       C6   12   3.121   1.735   4.126 -0.6638  0.5206  0.3173
    1U       H6   13   3.167   1.831   4.144  0.0223  0.1551  0.5422
    1U       C5   14   3.198   1.622   4.148  0.0734 -0.3334 -0.5192
    1U       H5   15   3.298   1.627   4.189  0.0626 -0.4519 -0.4799
    1U       C4   16   3.145   1.492   4.120 -1.1506  0.5445 -0.7019
    1U       O4   17   3.209   1.386   4.138 -0.2941  0.0994 -0.3755
    1U       N3   18   3.020   1.489   4.062 -0.1736 -0.2247 -0.1131
    1U       H3   19   2.980   1.398   4.046 -0.3909  0.0741 -1.3237
    1U       C2   20   2.934   1.597   4.040 -0.0329  0.1453  0.3811
    1U       O2   21   2.818   1.585   3.996 -0.0781  0.6006 -0.1670
    1U      C3'   22   2.870   2.060   4.128 -0.2397 -0.2004  0.2037
    1U      H3'   23   2.923   2.098   4.216 -0.0357 -0.4300  0.1807
    1U      C2'   24   2.854   1.912   4.152 -0.4736  1.1781 -0.4443
    1U     H2'1   25   2.898   1.873   4.244 -1.1316  2.8903  0.6439
    1U      O2'   26   2.720   1.873   4.162  0.5588  0.6589 -0.2447
    1U     HO'2   27   2.680   1.911   4.241 -1.1242  0.2694 -0.8882
    1U      O3'   28   2.753   2.132   4.116  0.0506 -0.2925 -0.2970
    2RG3      P   29   2.680   2.204   4.241 -0.3120  0.2493  0.1492
    2RG3    O1P   30   2.579   2.302   4.195  0.0584  0.8295  0.3966
    2RG3    O2P   31   2.784   2.256   4.332 -0.1098 -0.1091 -0.1337
    2RG3    O5'   32   2.604   2.082   4.308  0.4960 -0.2182 -0.1423
    2RG3    C5'   33   2.469   2.053   4.293 -0.0749  0.4091  0.9430
    2RG3   H5'1   34   2.444   2.041   4.188  0.4063 -0.8525  0.9713
    2RG3   H5'2   35   2.407   2.137   4.324  0.1665  0.1541  2.1534
    2RG3    C4'   36   2.429   1.922   4.367 -0.1920  0.0989 -0.0973
    2RG3    H4'   37   2.320   1.920   4.373 -0.1295 -1.3801  0.8394
    2RG3    O4'   38   2.488   1.808   4.303  0.0329 -0.0690 -0.7099
    2RG3    C1'   39   2.486   1.706   4.399  0.1858 -0.0065 -0.1953
    2RG3    H1'   40   2.399   1.642   4.390 -0.4634  0.5575  1.8797
    2RG3     N9   41   2.613   1.633   4.384 -0.0397  0.0237  0.0134
    2RG3     C8   42   2.637   1.521   4.308  0.3298 -0.3316  0.1501
    2RG3     H8   43   2.562   1.466   4.253 -0.4733  0.5150  0.3937
    2RG3     N7   44   2.758   1.477   4.317 -0.0672  0.1727  0.1462
    2RG3     C5   45   2.821   1.569   4.399  0.2991 -0.1325  0.4460
    2RG3     C6   46   2.957   1.577   4.448 -0.0630  0.1992 -0.1691
    2RG3     O6   47   3.057   1.508   4.438 -0.5886 -0.4437 -0.0866
    2RG3     N1   48   2.974   1.689   4.533 -0.2192  0.5799 -0.5473
    2RG3     H1   49   3.068   1.727   4.532 -1.3384  3.4529 -0.2247
    2RG3     C2   50   2.880   1.781   4.556  0.3879  0.1612 -0.0382
    2RG3     N2   51   2.917   1.888   4.619  0.0360  0.1280  0.3529
    2RG3    H21   52   3.014   1.899   4.645  0.5445  1.0248 -1.7667
    2RG3    H22   53   2.856   1.969   4.620  2.0792  1.7824 -1.3063
    2RG3     N3   54   2.760   1.780   4.513 -0.4936  0.4695  0.6370
    2RG3     C4   55   2.733   1.668   4.441 -0.3832  0.4008 -0.0542
    2RG3    C3'   56   2.473   1.914   4.517  0.3293  0.2498  1.0851
    2RG3    H3'   57   2.578   1.938   4.535  0.7390 -0.6065 -0.0722
    2RG3    C2'   58   2.465   1.763   4.540  0.2534  0.4521 -0.2466
    2RG3   H2'1   59   2.537   1.725   4.612 -1.5656  1.0791  1.9271
    2RG3    O2'   60   2.334   1.741   4.582  0.1269 -0.3245  0.4113
    2RG3   HO'2   61   2.318   1.812   4.645  2.6869  0.7083 -0.0291
    2RG3    O3'   62   2.395   1.987   4.608 -0.3977 -0.4172 -0.1919
    2RG3    H3T   63   2.447   2.066   4.623 -0.4525 -0.4219  0.0255
    3RG35     P   64   3.151   2.650   4.364  0.0025 -0.1291  0.0786
    3RG35   O1P   65   3.204   2.748   4.462  0.2787 -0.2681  0.1479
    3RG35   O2P   66   3.080   2.707   4.250  0.5138 -0.0648 -0.3395
    3RG35   O5'   67   3.271   2.582   4.297 -0.9021 -0.0811 -0.2972
    3RG35   C5'   68   3.369   2.656   4.230 -0.0609  0.0135  0.0413
    3RG35  H5'1   69   3.445   2.694   4.299  0.3047  0.2935 -0.5123
    3RG35  H5'2   70   3.316   2.742   4.188 -0.7424 -0.7943 -0.7880
    3RG35   C4'   71   3.432   2.577   4.116 -0.2173 -0.2594  0.1701
    3RG35   H4'   72   3.480   2.645   4.046 -1.5581  0.2966 -0.2242
    3RG35   O4'   73   3.523   2.484   4.168  0.0667 -0.1048 -0.1959
    3RG35   C1'   74   3.512   2.362   4.097  0.0014 -0.6478  0.3761
    3RG35   H1'   75   3.609   2.336   4.055 -0.4142 -0.1968 -0.8885
    3RG35    N9   76   3.464   2.244   4.175 -0.2446  0.2169  0.2843
    3RG35    C8   77   3.374   2.246   4.275 -0.0088  0.1895  0.3180
    3RG35    H8   78   3.322   2.334   4.309  0.4088  0.4256  0.3464
    3RG35    N7   79   3.364   2.129   4.332 -0.2287  0.2941 -0.4787
    3RG35    C5   80   3.448   2.041   4.258  0.1957  0.4361  0.0050
    3RG35    C6   81   3.468   1.897   4.262  0.1874 -0.4542  0.4268
    3RG35    O6   82   3.407   1.812   4.326 -0.1632  0.4742 -0.2808
    3RG35    N1   83   3.567   1.857   4.173 -0.2003 -0.8020  0.7032
    3RG35    H1   84   3.603   1.763   4.180  1.1218 -0.1951  2.4955
    3RG35    C2   85   3.628   1.943   4.090  0.6650  0.9942  0.5837
    3RG35    N2   86   3.717   1.891   4.015  0.7489 -0.1844  0.1809
    3RG35   H21   87   3.729   1.791   4.007 -2.9555 -0.7442  0.4268
    3RG35   H22   88   3.762   1.960   3.956  0.7918  0.6823  1.2018
    3RG35    N3   89   3.603   2.068   4.070  0.6870  0.5787 -0.3948
    3RG35    C4   90   3.508   2.112   4.157  0.2073 -0.2957  0.2017
    3RG35   C3'   91   3.340   2.505   4.018 -0.1989 -0.2544  0.6934
    3RG35   H3'   92   3.247   2.477   4.068 -0.8489  1.9523  0.7844
    3RG35   C2'   93   3.422   2.382   3.975  0.2994  0.1626  0.7562
    3RG35  H2'1   94   3.361   2.294   3.953  0.4837  0.5058 -1.2552
    3RG35   O2'   95   3.510   2.415   3.870 -0.5662  0.1016 -0.8008
    3RG35  HO'2   96   3.464   2.468   3.804 -2.5768 -0.2098  0.2978
    3RG35   O3'   97   3.307   2.595   3.911  0.0606 -0.2702 -0.4381
    3RG35   H3T   98   3.248   2.667   3.935 -0.2548 -1.4042  2.4229
    3RG35   O3P   99   3.085   2.543   4.433  0.2480  0.0452  0.4053
    7SOL     OW  100   3.158   3.104   0.525  0.2210  0.1572 -0.6408
    7SOL    HW2  101   3.146   3.077   0.434  0.5051 -0.0864 -0.6085
    7SOL    HW3  102   3.243   3.147   0.526 -0.6236  1.8715 -0.8674
    7SOL    MW4  103   3.167   3.106   0.513  0.1471  0.3514 -0.6665
    8SOL     OW  104   3.544   2.739   0.283 -0.1379  0.0565  0.1766
    8SOL    HW2  105   3.556   2.699   0.370 -0.0167  1.6149  0.8946
    8SOL    HW3  106   3.630   2.735   0.243 -0.2636 -0.9659 -0.0146
    8SOL    MW4  107   3.557   2.733   0.289 -0.1385  0.1271  0.2461
    9SOL     OW  108   4.162   4.049   0.368 -0.4316  0.3453 -0.3053
    9SOL    HW2  109   4.102   4.002   0.310 -0.8153 -0.6044  0.8595
    9SOL    HW3  110   4.249   4.022   0.340 -0.6681 -1.7152  0.9008
    9SOL    MW4  111   4.165   4.040   0.357 -0.5136 -0.0520  0.0076
   10SOL     OW  112   0.445   1.413   0.594  0.0936 -0.5371  0.0963
   10SOL    HW2  113   0.349   1.416   0.599  0.0708  0.0694 -0.5909
   10SOL    HW3  114   0.464   1.434   0.502  0.9144  0.0572  0.4091
   10SOL    MW4  115   0.435   1.416   0.582  0.1988 -0.3787  0.0470
   11SOL     OW  116   0.504   1.480   0.330  0.1838  0.2028 -0.0239
   11SOL    HW2  117   0.572   1.413   0.320 -1.8048 -1.8072 -0.4937
   11SOL    HW3  118   0.544   1.560   0.295  2.6240 -0.7069  0.6061
   11SOL    MW4  119   0.518   1.481   0.324  0.2435 -0.1824 -0.0028
   12SOL     OW  120   1.100   1.037   0.614 -0.0919 -0.5390 -0.4099
   12SOL    HW2  121   1.026   1.087   0.651  0.7288 -0.9603  1.8446
   12SOL    HW3  122   1.083   0.947   0.641  0.2167 -0.9561 -1.6020
   12SOL    MW4  123   1.088   1.032   0.622  0.0570 -0.6496 -0.2697
   13SOL     OW  124   0.193   4.357   0.272  0.4945  0.5011 -0.1629
   13SOL    HW2  125   0.132   4.409   0.220  1.2572  1.8029  0.2363
   13SOL    HW3  126   0.183   4.268   0.238 -0.2460  1.0404 -1.3829
   13SOL    MW4  127   0.184   4.352   0.261  0.4975  0.7439 -0.2713
   14SOL     OW  128   2.937   3.199   0.695 -0.4117  0.3922 -0.3670
   14SOL    HW2  129   2.857   3.171   0.650 -0.6951 -0.3412  0.5823
   14SOL    HW3  130   3.008   3.170   0.638 -0.6466 -3.3491  1.1241
   14SOL    MW4  131   2.936   3.192   0.681 -0.4799 -0.1979 -0.0450
   15SOL     OW  132   1.152   3.090   1.008  0.2343 -1.2644 -0.2221
   15SOL    HW2  133   1.187   3.079   0.920  2.8609 -1.0810  0.7622
   15SOL    HW3  134   1.148   3.000   1.043  0.3991 -1.2203 -0.0890
   15SOL    MW4  135   1.156   3.076   1.001  0.6026 -1.2343 -0.0746
   16SOL     OW  136   4.240   3.083   0.691 -0.3837  0.4081  0.3840
   16SOL    HW2  137   4.290   3.070   0.771 -0.1647  0.6035  0.2810
   16SOL    HW3  138   4.251   3.002   0.642 -0.3570  0.3623  0.4660
   16SOL    MW4  139   4.248   3.071   0.695 -0.3510  0.4275  0.3813
   17SOL     OW  140   0.298   2.974   0.374 -0.0432  0.1117 -0.2656
   17SOL    HW2  141   0.335   3.059   0.355  0.9250 -0.2732 -0.1125
   17SOL    HW3  142   0.283   2.974   0.469  1.6115 -0.5351  0.0087
   17SOL    MW4  143   0.301   2.985   0.384  0.3029 -0.0241 -0.2092
   18SOL     OW  144   0.358   1.836   0.670  0.1615 -0.0214 -0.4095
   18SOL    HW2  145   0.299   1.762   0.656  0.4980 -0.2403 -0.6731
   18SOL    HW3  146   0.302   1.913   0.662  0.1485 -0.1721 -1.9352
   18SOL    MW4  147   0.343   1.836   0.667  0.2041 -0.0701 -0.6456
   19SOL     OW  148   0.683   4.414   1.116 -0.1832 -0.0810  0.0343
   19SOL    HW2  149   0.678   4.394   1.209  0.0399 -0.0288  0.0601
   19SOL    HW3  150   0.608   4.370   1.077  0.4783 -1.2303  0.0437
   19SOL    MW4  151   0.673   4.406   1.123 -0.0665 -0.2260  0.0390
   20SOL     OW  152   2.122   2.377   0.156 -0.4670  0.3406 -0.1343
   20SOL    HW2  153   2.030   2.351   0.166 -0.8207  1.7027  0.2439
   20SOL    HW3  154   2.122   2.472   0.170  0.9357  0.4198 -0.5736
   20SOL    MW4  155   2.110   2.386   0.159 -0.3285  0.5305 -0.1424
   21SOL     OW  156   0.800   3.893   0.256 -0.3001  0.1024 -0.2857
   21SOL    HW2  157   0.729   3.831   0.275 -0.1139  0.2764  1.0136
   21SOL    HW3  158   0.759   3.979   0.269 -0.2481  0.2263 -0.9650
   21SOL    MW4  159   0.785   3.896   0.260 -0.2687  0.1416 -0.2039
   22SOL     OW  160   3.970   3.390   0.696 -0.0909  0.1211 -0.3711
   22SOL    HW2  161   4.031   3.455   0.662  0.4859  0.2434  0.8838
   22SOL    HW3  162   3.889   3.438   0.709  0.2932  0.5729  0.4192
   22SOL    MW4  163   3.968   3.405   0.693  0.0358  0.1967 -0.1013
   23SOL     OW  164   1.147   4.631   0.969  0.3191  0.2146  0.5950
   23SOL    HW2  165   1.151   4.605   0.877 -1.1284 -1.6813  1.0398
   23SOL    HW3  166   1.065   4.681   0.977  0.3422  0.2064  0.9011
   23SOL    MW4  167   1.137   4.634   0.958  0.1311 -0.0362  0.6940
   24SOL     OW  168   2.667   4.505   0.584  0.1386  0.3052  0.4745
   24SOL    HW2  169   2.600   4.570   0.602 -1.5109 -0.1895 -3.2936
   24SOL    HW3  170   2.653   4.437   0.650 -2.5012  0.6617  0.3276
   24SOL    MW4  171   2.657   4.504   0.595 -0.4272  0.2871 -0.0420
   25SOL     OW  172   1.843   0.644   0.635  0.0102 -0.1267 -0.3915
   25SOL    HW2  173   1.759   0.681   0.663  0.4170  0.6763 -0.2372
   25SOL    HW3  174   1.837   0.552   0.661 -0.2006  0.2740  1.0412
   25SOL    MW4  175   1.831   0.636   0.642  0.0360  0.0321 -0.1822
   26SOL     OW  176   1.011   3.762   0.616  0.0885  0.2523  0.4561
   26SOL    HW2  177   1.076   3.820   0.655  0.1226  0.4850  0.0534
   26SOL    HW3  178   1.045   3.674   0.631 -0.4522  0.2828  1.9599
   26SOL    MW4  179   1.024   3.758   0.623  0.0217  0.2871  0.6014
   27SOL     OW  180   1.906   4.072   0.315 -0.2620  0.2614 -0.1423
   27SOL    HW2  181   1.816   4.091   0.291 -0.4984  0.9785  1.2079
   27SOL    HW3  182   1.933   4.148   0.366  0.8547 -0.2868  0.0999
   27SOL    MW4  183   1.898   4.085   0.319 -0.1458  0.2837  0.0678
   28SOL     OW  184   0.755   4.299   0.698 -0.0810 -0.3077  0.0381
   28SOL    HW2  185   0.660   4.292   0.699  0.0449 -2.8224 -1.1059
   28SOL    HW3  186   0.782   4.286   0.789 -0.8700  1.5814  0.5609
   28SOL    MW4  187   0.746   4.296   0.710 -0.1685 -0.3901 -0.0439
   29SOL     OW  188   2.635   3.564   0.312  0.2509  0.5444 -0.1311
   29SOL    HW2  189   2.715   3.593   0.355 -0.2519 -1.1786  2.0827
   29SOL    HW3  190   2.664   3.523   0.231  1.6072 -0.1086  0.6737
   29SOL    MW4  191   2.649   3.562   0.307  0.3636  0.2308  0.2671
   30SOL     OW  192   3.844   3.672   0.362 -0.2148  0.1158  0.0745
   30SOL    HW2  193   3.770   3.695   0.305  1.3142  0.1701 -1.9627
   30SOL    HW3  194   3.848   3.576   0.358 -0.9075  0.0351  1.1592
   30SOL    MW4  195   3.835   3.662   0.354 -0.1044  0.1123 -0.0512
   31SOL     OW  196   0.157   1.224   0.269  0.4780 -0.0621  0.1830
   31SOL    HW2  197   0.159   1.133   0.299  1.5399 -0.4438 -1.0239
   31SOL    HW3  198   0.237   1.235   0.218 -1.0700  0.6888 -2.1873
   31SOL    MW4  199   0.168   1.214   0.266  0.4138 -0.0134 -0.2890
   32SOL     OW  200   2.411   3.134   0.282  0.0672 -0.1583  0.4640
   32SOL    HW2  201   2.497   3.096   0.301 -0.2196 -0.5159  1.0660
   32SOL    HW3  202   2.353   3.059   0.274 -0.1365  0.0717 -0.2139
   32SOL    MW4  203   2.415   3.119   0.284  0.0021 -0.1752  0.4540
   33SOL     OW  204   0.270   0.727   0.695  0.5381 -0.0049 -0.1987
   33SOL    HW2  205   0.253   0.814   0.658 -0.0983  0.0147  0.1363
   33SOL    HW3  206   0.244   0.733   0.786 -0.5908 -0.8683 -0.4491
   33SOL    MW4  207   0.264   0.739   0.702  0.3051 -0.1162 -0.1875
   34SOL     OW  208   4.483   1.165   0.674 -0.6623 -0.0277 -0.2029
   34SOL    HW2  209   4.553   1.103   0.654 -1.6106 -1.7553  1.6330
   34SOL    HW3  210   4.469   1.155   0.768 -1.3709  2.4327 -0.0343
   34SOL    MW4  211   4.490   1.155   0.683 -0.8807  0.0689  0.0616
   35SOL     OW  212   2.503   0.519   1.102  0.0425  0.1147  0.2558
   35SOL    HW2  213   2.573   0.472   1.056  0.0934 -0.1558  0.6096
   35SOL    HW3  214   2.502   0.481   1.189 -1.2176 -0.5866 -0.0589
   35SOL    MW4  215   2.512   0.508   1.107 -0.1171 -0.0136  0.2608
   36SOL     OW  216   0.408   4.513   0.366 -0.2938  0.3288  0.3034
   36SOL    HW2  217   0.333   4.460   0.340  1.7339 -2.2844 -0.3852
   36SOL    HW3  218   0.401   4.520   0.461 -0.9182 -0.6524  0.3326
   36SOL    MW4  219   0.397   4.507   0.375 -0.1086 -0.1459  0.2164
   37SOL     OW  220   3.758   0.736   0.986  0.5399 -0.1918  0.1851
   37SOL    HW2  221   3.837   0.788   1.004  0.6054  0.0327 -0.7537
   37SOL    HW3  222   3.781   0.647   1.014 -0.0696  0.5257  3.1953
   37SOL    MW4  223   3.772   0.731   0.992  0.4680 -0.0674  0.4584
   38SOL     OW  224   3.425   3.560   0.426 -0.3999  0.1886  0.5514
   38SOL    HW2  225   3.382   3.585   0.508 -0.1588 -0.2778  0.8165
   38SOL    HW3  226   3.480   3.486   0.449 -0.1522  0.2064  0.0140
   38SOL    MW4  227   3.426   3.554   0.440 -0.3357  0.1295  0.5155
   39SOL     OW  228   0.916   2.720   0.960  0.3555  0.2924  0.3512
   39SOL    HW2  229   0.920   2.625   0.969  0.6135  0.0972 -1.6010
   39SOL    HW3  230   0.998   2.751   1.000  1.2161 -0.4668 -0.7860
   39SOL    MW4  231   0.928   2.712   0.967  0.5031  0.1667 -0.0564
   40SOL     OW  232   3.168   1.338   0.598 -0.2782  0.2727 -0.0621
   40SOL    HW2  233   3.178   1.249   0.630  0.6784  0.4566  0.1753
   40SOL    HW3  234   3.074   1.354   0.600 -0.4575 -0.7420 -0.1543
   40SOL    MW4  235   3.157   1.329   0.602 -0.1757  0.1631 -0.0429
   41SOL     OW  236   0.783   2.409   0.682 -0.1047  0.1783  0.0084
   41SOL    HW2  237   0.821   2.496   0.690  0.4096 -0.0989  0.6281
   41SOL    HW3  238   0.854   2.355   0.645  0.2402 -0.4206  1.5100
   41SOL    MW4  239   0.798   2.413   0.678  0.0088  0.0627  0.2882
   42SOL     OW  240   3.552   2.453   1.050  0.0022  0.2201  0.0142
   42SOL    HW2  241   3.634   2.405   1.040 -0.0326  0.3822 -1.1209
   42SOL    HW3  242   3.536   2.454   1.145  0.8885 -0.5054  0.1785
   42SOL    MW4  243   3.560   2.447   1.062  0.1144  0.1459 -0.1138
   43SOL     OW  244   1.551   3.304   0.180  0.6230 -0.0907 -0.2202
   43SOL    HW2  245   1.485   3.372   0.196  1.1392  0.2539  0.4518
   43SOL    HW3  246   1.627   3.332   0.230  0.4260 -1.8054  1.0992
   43SOL    MW4  247   1.552   3.316   0.188  0.6651 -0.2716  0.0425
   44SOL     OW  248   2.710   3.416   0.085 -0.4629  0.0543  0.0101
   44SOL    HW2  249   2.625   3.374   0.070 -0.4556  0.0266  0.0486
   44SOL    HW3  250   2.767   3.346   0.116 -0.6059  0.2106  0.6367
   44SOL    MW4  251   2.706   3.401   0.087 -0.4809  0.0713  0.0979
   45SOL     OW  252   2.669   0.575   0.585  0.0144 -0.0902  0.2282
   45SOL    HW2  253   2.672   0.493   0.633 -0.7289  0.3119  0.9762
   45SOL    HW3  254   2.755   0.614   0.597  0.3189 -0.6936 -0.0062
   45SOL    MW4  255   2.681   0.569   0.593 -0.0434 -0.1167  0.2960
   46SOL     OW  256   0.969   0.496   0.351  0.7153 -0.0336 -0.4487
   46SOL    HW2  257   0.879   0.477   0.326  0.6511 -1.4676  0.7637
   46SOL    HW3  258   1.013   0.411   0.347  1.6725  0.4164  0.2890
   46SOL    MW4  259   0.963   0.482   0.347  0.8332 -0.1634 -0.1914
   47SOL     OW  260   2.309   0.179   1.371 -0.6084 -0.1101  0.0020
   47SOL    HW2  261   2.300   0.154   1.279  1.8720 -2.0815  0.2450
   47SOL    HW3  262   2.252   0.118   1.418 -0.9098  0.0895 -0.1000
   47SOL    MW4  263   2.300   0.168   1.365 -0.3209 -0.3439  0.0206
   48SOL     OW  264   0.464   0.614   0.532  0.0310  0.2039  0.3329
   48SOL    HW2  265   0.536   0.665   0.570  0.0496 -0.6475  1.4506
   48SOL    HW3  266   0.393   0.622   0.595  0.1960 -1.5700  0.7681
   48SOL    MW4  267   0.464   0.622   0.545  0.0552 -0.1425  0.5378
   49SOL     OW  268   1.953   2.445   0.576  0.1783 -0.1115  0.2424
   49SOL    HW2  269   1.967   2.368   0.631 -1.2029  0.1001  0.9008
   49SOL    HW3  270   1.897   2.414   0.505  0.7549 -0.0321 -0.2512
   49SOL    MW4  271   1.948   2.431   0.574  0.0722 -0.0730  0.2642
   50SOL     OW  272   0.218   2.836   1.082  0.4098 -0.1147  0.2772
   50SOL    HW2  273   0.218   2.836   1.177 -1.1407  1.9644  0.3048
   50SOL    HW3  274   0.146   2.777   1.057 -0.8344  1.3290  0.4285
   50SOL    MW4  275   0.209   2.828   1.091  0.0411  0.3502  0.3006
   51SOL     OW  276   0.893   3.377   0.707 -0.2747  0.2759 -0.2821
   51SOL    HW2  277   0.832   3.431   0.657 -1.6291  0.4560  1.5572
   51SOL    HW3  278   0.866   3.287   0.689 -1.1916  0.3617  0.6783
   51SOL    MW4  279   0.881   3.372   0.698 -0.5744  0.3111  0.0873
   52SOL     OW  280   1.472   3.587   0.531 -0.5533 -0.6524  0.0618
   52SOL    HW2  281   1.568   3.589   0.526 -0.3495 -0.3297  3.0755
   52SOL    HW3  282   1.453   3.515   0.591 -2.2213 -0.7691 -0.5824
   52SOL    MW4  283   1.482   3.577   0.538 -0.7465 -0.6251  0.3744
   53SOL     OW  284   3.361   3.617   1.350  0.8254  0.0031  0.4008
   53SOL    HW2  285   3.275   3.579   1.370  0.5156  1.3056  1.7128
   53SOL    HW3  286   3.358   3.635   1.256 -1.1550  1.9374  0.7894
   53SOL    MW4  287   3.349   3.614   1.340  0.5233  0.4301  0.6253
   54SOL     OW  288   3.843   0.093   0.731  0.3002 -0.5049 -0.1685
   54SOL    HW2  289   3.803   0.173   0.695 -0.2009 -0.5566  0.2620
   54SOL    HW3  290   3.932   0.094   0.698  0.7172  0.9507  0.9453
   54SOL    MW4  291   3.849   0.104   0.722  0.2890 -0.3196  0.0353
   55SOL     OW  292   4.104   0.537   0.283  0.6095 -0.3578  0.5001
   55SOL    HW2  293   4.111   0.530   0.378  0.4877  0.0481  0.5420
   55SOL    HW3  294   4.132   0.452   0.250  1.6811 -0.1445  0.8492
   55SOL    MW4  295   4.108   0.525   0.291  0.7348 -0.2761  0.5517
   56SOL     OW  296   0.460   2.413   1.084 -0.2026  0.3145 -0.2985
   56SOL    HW2  297   0.379   2.385   1.042  0.1427  0.6245 -1.1905
   56SOL    HW3  298   0.440   2.413   1.177 -1.1542  0.1564 -0.4965
   56SOL    MW4  299   0.447   2.409   1.091 -0.2825  0.3347 -0.4423
   57SOL     OW  300   1.093   1.554   0.729  0.4054  0.2540  0.4390
   57SOL    HW2  301   1.171   1.513   0.693  0.5141  1.2415 -0.4844
   57SOL    HW3  302   1.102   1.546   0.824  0.0239 -2.5540  0.2762
   57SOL    MW4  303   1.104   1.548   0.737  0.3694  0.0138  0.2956
   58SOL     OW  304   1.739   1.679   0.255  0.6608  0.2121 -0.1629
   58SOL    HW2  305   1.730   1.765   0.215  0.5679  0.2277 -0.1093
   58SOL    HW3  306   1.666   1.673   0.317  1.2396  0.4926  0.5568
   58SOL    MW4  307   1.728   1.689   0.258  0.7250  0.2512 -0.0609
   59SOL     OW  308   0.641   4.382   0.355  0.1599 -0.3607 -0.0889
   59SOL    HW2  309   0.556   4.427   0.352 -0.2438 -1.1535 -0.9472
   59SOL    HW3  310   0.706   4.452   0.359 -0.5877  0.2514  2.6833
   59SOL    MW4  311   0.638   4.397   0.355  0.0080 -0.3848  0.1636
   60SOL     OW  312   4.263   0.740   0.186 -0.3607  0.0966 -0.2302
   60SOL    HW2  313   4.206   0.674   0.226  0.2453  0.4861  1.3125
   60SOL    HW3  314   4.243   0.820   0.233 -0.7013  0.9122 -1.7401
   60SOL    MW4  315   4.253   0.742   0.197 -0.3252  0.2556 -0.2259
   61SOL     OW  316   2.647   0.286   0.217  0.0463  0.3179 -0.8966
   61SOL    HW2  317   2.655   0.191   0.220  0.5563  0.3346 -1.5727
   61SOL    HW3  318   2.556   0.303   0.241 -0.1127 -0.3557 -1.0085
   61SOL    MW4  319   2.636   0.275   0.221  0.0925  0.2312 -1.0006
   62SOL     OW  320   2.760   0.029   0.179  0.1572  0.1921 -0.1278
   62SOL    HW2  321   2.750   0.002   0.087  0.8950 -0.1724 -0.1007
   62SOL    HW3  322   2.727  -0.046   0.229 -0.5326  0.5135 -0.0986
   62SOL    MW4  323   2.754   0.016   0.173  0.1638  0.1863 -0.1204
   63SOL     OW  324   0.473   0.738   0.052 -0.2215 -0.0751  0.0759
   63SOL    HW2  325   0.412   0.677   0.011 -0.7796  1.2200 -1.0808
   63SOL    HW3  326   0.560   0.707   0.027 -0.5153 -0.1816 -0.8372
   63SOL    MW4  327   0.476   0.726   0.043 -0.3339  0.0817 -0.1972
   64SOL     OW  328   1.998   3.640   1.062 -0.4779 -0.0806 -0.5529
   64SOL    HW2  329   1.988   3.643   1.157 -0.2749 -0.2135 -0.5264
   64SOL    HW3  330   1.921   3.592   1.032 -0.9510  0.6587 -0.5267
   64SOL    MW4  331   1.986   3.634   1.071 -0.5137 -0.0005 -0.5460
   65SOL     OW  332   3.161   2.692   0.955 -0.6299 -0.2384  0.2645
   65SOL    HW2  333   3.137   2.609   0.995  0.3627 -0.0561  1.2822
   65SOL    HW3  334   3.088   2.751   0.976 -0.3939 -0.3093  1.3010
   65SOL    MW4  335   3.148   2.689   0.963 -0.4678 -0.2239  0.5355
   66SOL     OW  336   1.841   0.115   1.091  0.1346  0.1779 -0.2986
   66SOL    HW2  337   1.757   0.075   1.071  0.3458  0.1742 -1.2213
   66SOL    HW3  338   1.833   0.205   1.060  1.1425 -0.3688 -2.3120
   66SOL    MW4  339   1.829   0.121   1.084  0.2955  0.1053 -0.6859
   67SOL     OW  340   1.104   0.008   0.252 -0.0771  0.0014  0.3200
   67SOL    HW2  341   1.083  -0.033   0.168 -0.6946 -0.7935  0.8469
   67SOL    HW3  342   1.192  -0.023   0.273 -0.5822 -1.1721  0.7667
   67SOL    MW4  343   1.113  -0.002   0.244 -0.2252 -0.2583  0.4485
   68SOL     OW  344   3.631   4.256   0.678  0.4103  0.4591  0.1873
   68SOL    HW2  345   3.631   4.260   0.774  1.0629  1.8026  0.1328
   68SOL    HW3  346   3.632   4.347   0.650  0.5951  0.0683 -1.1048
   68SOL    MW4  347   3.631   4.269   0.687  0.5205  0.5851  0.0096
   69SOL     OW  348   2.917   3.247   0.188 -0.0942 -0.2971 -0.2290
   69SOL    HW2  349   2.919   3.315   0.256 -0.0356  1.5852 -2.0725
   69SOL    HW3  350   2.846   3.188   0.215  0.4953 -0.0748  1.9110
   69SOL    MW4  351   2.908   3.248   0.201 -0.0086 -0.0196 -0.1899
   70SOL     OW  352   0.183   1.576   0.919  0.3929  0.1511 -0.0397
   70SOL    HW2  353   0.183   1.597   0.825  0.9749  1.2516  0.1903
   70SOL    HW3  354   0.271   1.599   0.948 -0.1662  0.9921  1.0178
   70SOL    MW4  355   0.194   1.582   0.910  0.3960  0.4071  0.1302
   71SOL     OW  356   4.485   2.763   0.709  0.4716  0.1685 -0.1046
   71SOL    HW2  357   4.531   2.710   0.644 -0.2768  0.6503 -1.0320
   71SOL    HW3  358   4.518   2.731   0.793  2.3515  0.3827 -0.7450
   71SOL    MW4  359   4.496   2.752   0.712  0.6209  0.2601 -0.3114
   72SOL     OW  360   0.544   2.836   0.358 -0.0819  0.0077 -0.0312
   72SOL    HW2  361   0.461   2.881   0.377  0.5477  0.5986  1.4297
   72SOL    HW3  362   0.590   2.894   0.298 -0.6853 -0.2752 -0.7700
   72SOL    MW4  363   0.539   2.850   0.353 -0.0785  0.0484  0.0641
   73SOL     OW  364   4.350   1.175   0.231 -0.0811 -0.2890 -0.1801
   73SOL    HW2  365   4.321   1.266   0.227  1.3554  0.2114  0.6802
   73SOL    HW3  366   4.444   1.180   0.242 -0.1088 -1.8782  0.9400
   73SOL    MW4  367   4.358   1.188   0.232  0.1049 -0.4327  0.0812
   74SOL     OW  368   4.042   1.906   0.447 -0.3677  0.3278  0.1740
   74SOL    HW2  369   4.005   1.884   0.533  0.0057 -1.4610 -0.1015
   74SOL    HW3  370   3.978   1.965   0.408 -1.9123 -1.0418  0.5811
   74SOL    MW4  371   4.029   1.911   0.453 -0.5221 -0.0889  0.1913
   75SOL     OW  372   2.145   1.046   0.551  0.5040  0.0737  0.0798
   75SOL    HW2  373   2.147   0.970   0.610  2.0822 -0.3466 -0.4868
   75SOL    HW3  374   2.184   1.014   0.470 -0.9098  0.8811 -0.9375
   75SOL    MW4  375   2.150   1.032   0.548  0.5260  0.1247 -0.1292
   76SOL     OW  376   3.851   3.052   0.357 -0.6927  0.4160 -0.4571
   76SOL    HW2  377   3.935   3.085   0.325 -0.5074 -0.9026 -1.3461
   76SOL    HW3  378   3.871   3.011   0.441 -0.5232  0.4565 -0.4782
   76SOL    MW4  379   3.864   3.051   0.364 -0.6459  0.2472 -0.5772
   77SOL     OW  380   1.669   2.342   9.977  0.0157  0.2039 -1.0284
   77SOL    HW2  381   1.642   2.323   9.887 -0.2199 -1.8409 -0.5611
   77SOL    HW3  382   1.594   2.387  10.016 -0.2363  0.2758 -1.5880
   77SOL    MW4  383   1.656   2.345   9.970 -0.0488 -0.0565 -1.0405
   78SOL     OW  384   1.376   0.383   0.679 -0.0832 -0.1052  0.3004
   78SOL    HW2  385   1.375   0.475   0.653 -0.3693 -0.0319  0.5666
   78SOL    HW3  386   1.458   0.349   0.644  0.3015  0.3982  0.7030
   78SOL    MW4  387   1.386   0.390   0.671 -0.0703 -0.0291  0.3886
   79SOL     OW  388   3.625   2.629   0.514 -0.2155  0.3295  0.1656
   79SOL    HW2  389   3.717   2.608   0.496 -0.4098  0.7301 -1.3489
   79SOL    HW3  390   3.629   2.692   0.586  0.7207  0.7436 -0.2348
   79SOL    MW4  391   3.638   2.634   0.522 -0.1178  0.4370 -0.0871
   80SOL     OW  392   4.047   2.660   0.664 -0.2283  0.3539 -0.3283
   80SOL    HW2  393   4.061   2.676   0.757  0.5449 -0.0937 -0.3670
   80SOL    HW3  394   3.991   2.733   0.635 -1.7000 -0.3119  0.7963
   80SOL    MW4  395   4.042   2.672   0.672 -0.3204  0.2072 -0.1851
   81SOL     OW  396   4.053   2.693   0.930  0.3252 -0.4309 -0.0279
   81SOL    HW2  397   4.130   2.735   0.969 -0.3690  1.9447 -1.1211
   81SOL    HW3  398   3.979   2.728   0.979 -0.2470 -0.6977 -0.6912
   81SOL    MW4  399   4.054   2.703   0.941  0.1583 -0.1523 -0.2597
   82SOL     OW  400   2.852   3.676   0.069  0.0737 -0.0871  0.2675
   82SOL    HW2  401   2.799   3.598   0.054  1.4474 -1.1379  0.8081
   82SOL    HW3  402   2.793   3.749   0.050 -0.9962 -1.2592 -0.9627
   82SOL    MW4  403   2.837   3.676   0.065  0.1137 -0.3808  0.1766
   83SOL     OW  404   2.265   0.930   1.093  0.5737 -0.0726 -0.4035
   83SOL    HW2  405   2.279   1.017   1.055  0.5213  0.1258  0.0281
   83SOL    HW3  406   2.180   0.903   1.059  0.3553  0.2648 -0.1282
   83SOL    MW4  407   2.256   0.938   1.083  0.5379 -0.0019 -0.3102
   84SOL     OW  408   2.221   1.951   1.009 -0.4158  0.1001 -0.4908
   84SOL    HW2  409   2.206   1.935   0.916 -0.3232 -1.7050 -0.2071
   84SOL    HW3  410   2.144   2.001   1.038 -1.5933 -1.3812 -1.0219
   84SOL    MW4  411   2.209   1.955   1.001 -0.5589 -0.3335 -0.5234
   85SOL     OW  412   3.872   4.346   0.384  0.1426  0.1181 -0.6667
   85SOL    HW2  413   3.791   4.397   0.382  0.3894  0.4968 -2.1398
   85SOL    HW3  414   3.843   4.255   0.390 -0.4186  0.2373 -1.4219
   85SOL    MW4  415   3.858   4.340   0.384  0.1013  0.1841 -0.9607
   86SOL     OW  416   1.884   3.201   0.536  0.1304 -0.2911 -0.3475
   86SOL    HW2  417   1.955   3.162   0.587 -0.0197 -0.3072 -0.1556
   86SOL    HW3  418   1.805   3.155   0.564  0.0492 -0.3092 -0.6000
   86SOL    MW4  419   1.883   3.190   0.546  0.0999 -0.2956 -0.3554
   87SOL     OW  420   1.809   0.386   0.744  0.2103 -0.9153 -0.1803
   87SOL    HW2  421   1.886   0.340   0.712  0.3385 -2.4948  2.2472
   87SOL    HW3  422   1.735   0.343   0.700  0.5739 -0.7480 -0.9653
   87SOL    MW4  423   1.809   0.374   0.734  0.2753 -1.1017  0.0365
   88SOL     OW  424   1.790   2.878   0.549 -0.5829  0.0147 -0.2328
   88SOL    HW2  425   1.734   2.953   0.529 -1.4898 -0.9058 -1.1940
   88SOL    HW3  426   1.835   2.859   0.466  0.7508  0.4082  0.3885
   88SOL    MW4  427   1.789   2.885   0.535 -0.5265 -0.0548 -0.2776
   89SOL     OW  428   3.851   2.767   0.251 -0.3167 -0.1627 -0.1182
   89SOL    HW2  429   3.850   2.861   0.269  1.4386 -0.1467 -0.0295
   89SOL    HW3  430   3.867   2.727   0.337 -2.8311 -0.6500  0.1532
   89SOL    MW4  431   3.853   2.774   0.265 -0.4170 -0.2251 -0.0707
   90SOL     OW  432   1.352   0.684   0.313 -0.0798  0.0782  0.1462
   90SOL    HW2  433   1.439   0.714   0.288  0.2244 -0.0281  1.0426
   90SOL    HW3  434   1.348   0.594   0.281  0.2249  0.0123  0.2855
   90SOL    MW4  435   1.363   0.676   0.306  0.0006  0.0556  0.2829
   91SOL     OW  436   0.703   3.864   0.995 -0.4499  0.2505 -0.2557
   91SOL    HW2  437   0.689   3.773   1.022  0.9938 -0.6532 -2.4623
   91SOL    HW3  438   0.791   3.884   1.025  0.1566  0.1042 -1.8944
   91SOL    MW4  439   0.712   3.855   1.003 -0.1794  0.1121 -0.7629
   92SOL     OW  440   3.676   1.272   0.437  0.3602  0.2825  0.4575
   92SOL    HW2  441   3.626   1.237   0.363  0.2840  0.5724  0.3725
   92SOL    HW3  442   3.762   1.293   0.401  0.1817  0.8411  0.3468
   92SOL    MW4  443   3.681   1.270   0.423  0.3266  0.3946  0.4317
   93SOL     OW  444   2.049   1.922   0.315  0.2634  0.1765  0.0398
   93SOL    HW2  445   2.070   2.014   0.334 -2.3347  1.0007 -0.8490
   93SOL    HW3  446   2.028   1.884   0.400 -1.6243  1.2314  0.0761
   93SOL    MW4  447   2.049   1.929   0.329 -0.3283  0.4243 -0.0727
   94SOL     OW  448   3.651   4.498   0.393  0.0690 -0.0078 -0.2879
   94SOL    HW2  449   3.664   4.538   0.479  0.3488 -0.5437 -0.0792
   94SOL    HW3  450   3.720   4.537   0.339 -0.9241  1.3091 -0.6091
   94SOL    MW4  451   3.662   4.508   0.397 -0.0253  0.0958 -0.3028
   95SOL     OW  452   2.222   0.982   0.278  0.0681  0.1423 -1.1114
   95SOL    HW2  453   2.173   1.039   0.220  2.1800  2.6610 -0.5120
   95SOL    HW3  454   2.313   0.994   0.252  0.7753 -0.8749  0.8251
   95SOL    MW4  455   2.228   0.991   0.267  0.4399  0.3405 -0.7768
   96SOL     OW  456   3.300   0.430   0.717 -0.2821 -0.2760 -0.3590
   96SOL    HW2  457   3.211   0.438   0.682 -0.2447 -0.7185 -0.5549
   96SOL    HW3  458   3.340   0.361   0.664  0.4594  0.5333 -0.8636
   96SOL    MW4  459   3.293   0.422   0.705 -0.1795 -0.2276 -0.4514
   97SOL     OW  460   2.930   1.625   0.715 -0.1164  0.1486 -0.0077
   97SOL    HW2  461   2.901   1.600   0.803  0.0922 -0.1041 -0.0061
   97SOL    HW3  462   2.936   1.542   0.668  1.1259  0.1272  0.1589
   97SOL    MW4  463   2.927   1.610   0.721  0.0751  0.1125  0.0144
   98SOL     OW  464   1.412   3.848   0.607  0.4483  0.1770  0.3114
   98SOL    HW2  465   1.334   3.854   0.662 -1.8169 -1.1624 -2.5525
   98SOL    HW3  466   1.423   3.754   0.593  1.7234  0.4389 -0.4865
   98SOL    MW4  467   1.403   3.836   0.612  0.3176  0.0348 -0.1717
   99SOL     OW  468   0.233   0.496   1.050  0.4017  0.0964  0.2164
   99SOL    HW2  469   0.157   0.467   1.000 -0.0692  0.9168  0.4412
   99SOL    HW3  470   0.243   0.589   1.028  1.3049  0.0068  0.2279
   99SOL    MW4  471   0.224   0.505   1.041  0.4587  0.1928  0.2477
  100SOL     OW  472   3.414   3.870   0.923  0.5315  0.3991 -0.0527
  100SOL    HW2  473   3.336   3.909   0.962 -0.6328 -0.8080 -1.0929
  100SOL    HW3  474   3.487   3.918   0.961 -0.7099  1.3787  1.1452
  100SOL    MW4  475   3.413   3.881   0.933  0.2141  0.3691 -0.0318
  101SOL     OW  476   1.538   0.173   0.324  0.1075  0.4819  0.4353
  101SOL    HW2  477   1.476   0.103   0.304 -0.0997  0.9150 -0.4912
  101SOL    HW3  478   1.624   0.134   0.308 -0.0528  0.8324 -1.4658
  101SOL    MW4  479   1.541   0.159   0.319  0.0589  0.5853  0.0623
  102SOL     OW  480   3.019   3.966   0.759  0.2986  0.7401  0.4152
  102SOL    HW2  481   2.993   3.952   0.850 -1.2177 -0.6998 -0.2091
  102SOL    HW3  482   2.970   4.044   0.732 -1.3432 -0.3857  0.0595
  102SOL    MW4  483   3.009   3.975   0.768 -0.1180  0.4015  0.2860
  103SOL     OW  484   2.513   2.295   0.690 -0.6661  0.7173 -0.3892
  103SOL    HW2  485   2.559   2.378   0.703  1.0149 -0.0745 -1.0784
  103SOL    HW3  486   2.496   2.263   0.779  1.0507  0.5428 -0.0976
  103SOL    MW4  487   2.517   2.302   0.704 -0.2179  0.5901 -0.4416
  104SOL     OW  488   3.993   0.867   1.064  0.0539  0.0346  0.1548
  104SOL    HW2  489   4.008   0.861   1.158  0.2813 -0.9472  0.0623
  104SOL    HW3  490   4.068   0.822   1.025  0.6577  1.6341 -0.5361
  104SOL    MW4  491   4.005   0.860   1.071  0.1636  0.1161  0.0513
  105SOL     OW  492   2.103   3.928   0.155  0.2884 -0.4263  0.3260
  105SOL    HW2  493   2.051   3.996   0.197  0.5325 -0.5770  0.8722
  105SOL    HW3  494   2.038   3.874   0.109  0.1210  0.3609 -0.3949
  105SOL    MW4  495   2.087   3.930   0.154  0.2987 -0.3424  0.3029
  106SOL     OW  496   2.171   1.426   0.304 -0.0835  0.4650  0.0741
  106SOL    HW2  497   2.186   1.511   0.263 -0.2921  1.2638  1.5849
  106SOL    HW3  498   2.175   1.445   0.398 -0.5829 -1.1183  0.4232
  106SOL    MW4  499   2.174   1.440   0.311 -0.1769  0.3614  0.3195
  107SOL     OW  500   1.147   4.634   0.696  0.3808  0.1396  0.2411
  107SOL    HW2  501   1.133   4.727   0.680 -1.0705 -0.1543 -0.3251
  107SOL    HW3  502   1.064   4.593   0.669 -0.2605 -0.9550  3.6469
  107SOL    MW4  503   1.134   4.641   0.690  0.1047 -0.0439  0.6158
  108SOL     OW  504   2.697   1.680   0.292 -0.7121 -0.1052  0.0336
  108SOL    HW2  505   2.673   1.681   0.385 -1.3814  0.6660 -0.1450
  108SOL    HW3  506   2.622   1.719   0.247 -0.2760 -0.2201 -0.8078
  108SOL    MW4  507   2.684   1.685   0.299 -0.7429 -0.0186 -0.1010
  109SOL     OW  508   1.049   3.831   0.349  0.6687 -0.2637 -0.4752
  109SOL    HW2  509   0.961   3.860   0.325  0.3024 -0.8619  0.1218
  109SOL    HW3  510   1.045   3.820   0.444  1.5733  0.3219 -0.3641
  109SOL    MW4  511   1.037   3.834   0.358  0.7398 -0.2654 -0.3818
  110SOL     OW  512   1.475   2.292   0.404  0.4841  0.6396  0.3663
  110SOL    HW2  513   1.428   2.213   0.379 -0.3084  0.9352  0.8960
  110SOL    HW3  514   1.423   2.329   0.475  0.6038  1.8849 -0.1852
  110SOL    MW4  515   1.462   2.287   0.410  0.3954  0.8430  0.3634
  111SOL     OW  516   4.261   4.507   0.792  0.0346 -0.2370 -0.6136
  111SOL    HW2  517   4.288   4.531   0.881 -1.3700 -1.7553  0.2621
  111SOL    HW3  518   4.192   4.570   0.770 -0.4849 -0.6221 -0.1143
  111SOL    MW4  519   4.255   4.518   0.801 -0.2193 -0.4878 -0.4322
  112SOL     OW  520   0.179   3.421   0.486  0.2355  0.2563 -0.2289
  112SOL    HW2  521   0.097   3.372   0.492 -0.2099  1.0620  0.4430
  112SOL    HW3  522   0.205   3.434   0.577  1.1476 -0.0479 -0.4420
  112SOL    MW4  523   0.171   3.416   0.499  0.2971  0.3223 -0.1684
  113SOL     OW  524   1.399   4.569   0.586  0.0620 -0.1108  0.0521
  113SOL    HW2  525   1.465   4.613   0.639  2.3649 -0.6526 -2.2765
  113SOL    HW3  526   1.315   4.594   0.625  1.5535  2.2184  1.8286
  113SOL    MW4  527   1.396   4.578   0.598  0.5625  0.1249 -0.0207
  114SOL     OW  528   1.828   1.417   0.624 -0.2161 -0.4075  0.1216
  114SOL    HW2  529   1.839   1.412   0.529 -2.1199  0.3218 -0.1691
  114SOL    HW3  530   1.735   1.437   0.636 -0.4326 -2.4944  2.2068
  114SOL    MW4  531   1.817   1.419   0.613 -0.4958 -0.5867  0.3584
  115SOL     OW  532   1.838   3.238   1.111 -0.3170  0.4024 -0.0329
  115SOL    HW2  533   1.757   3.197   1.079 -0.6033  1.9127 -1.2945
  115SOL    HW3  534   1.823   3.249   1.205 -0.2380 -2.3332  0.3355
  115SOL    MW4  535   1.825   3.234   1.120 -0.3442  0.2406 -0.1506
  116SOL     OW  536   2.945   2.325   0.200  0.0606  0.3440 -0.3153
  116SOL    HW2  537   2.904   2.412   0.191 -0.9568 -0.0072  0.7191
  116SOL    HW3  538   2.924   2.299   0.290  1.9792 -0.1682 -0.0104
  116SOL    MW4  539   2.937   2.333   0.211  0.1795  0.2298 -0.1386
  117SOL     OW  540   3.575   1.117   1.007 -0.1004  0.6746  0.4369
  117SOL    HW2  541   3.499   1.172   1.026  0.8841  1.9425  0.7881
  117SOL    HW3  542   3.650   1.172   1.029  0.9290 -0.4396 -0.2460
  117SOL    MW4  543   3.575   1.131   1.013  0.1655  0.6949  0.3930
  118SOL     OW  544   0.651   1.529   0.719 -0.3238  0.2312  0.1661
  118SOL    HW2  545   0.568   1.499   0.684 -0.0161 -0.3280 -0.0934
  118SOL    HW3  546   0.661   1.618   0.685 -1.4905  0.8394  1.3619
  118SOL    MW4  547   0.642   1.537   0.710 -0.4371  0.2376  0.2896
  119SOL     OW  548   4.053   0.533   0.578  0.1824  0.6341 -0.0976
  119SOL    HW2  549   4.080   0.621   0.603  1.7633 -0.5145  2.3649
  119SOL    HW3  550   3.957   0.535   0.581  0.2316  2.0180  0.8422
  119SOL    MW4  551   4.043   0.545   0.582  0.3972  0.6652  0.3513
  120SOL     OW  552   3.026   2.803   0.142  0.6525 -0.1525 -0.2470
  120SOL    HW2  553   3.046   2.892   0.170  0.4962 -0.4436  0.8268
  120SOL    HW3  554   3.105   2.753   0.161  0.4305 -0.4199 -0.0121
  120SOL    MW4  555   3.039   2.808   0.148  0.6022 -0.2260 -0.0743
  121SOL     OW  556   3.851   4.654   0.997 -0.9648 -0.3152 -0.3639
  121SOL    HW2  557   3.850   4.669   0.903  0.5399  0.7579 -0.2253
  121SOL    HW3  558   3.765   4.682   1.027 -1.0808  0.3072 -1.2690
  121SOL    MW4  559   3.840   4.660   0.989 -0.7815 -0.0915 -0.4650
  122SOL     OW  560   0.476   4.271   0.986 -0.3970  0.2399 -0.2827
  122SOL    HW2  561   0.479   4.187   1.032  1.0223  1.4901  2.0600
  122SOL    HW3  562   0.400   4.316   1.022  0.4630  1.0479  0.5813
  122SOL    MW4  563   0.466   4.266   0.997 -0.0963  0.5116  0.1404
  123SOL     OW  564   2.334   3.369   0.750 -0.3343 -0.3524 -0.1153
  123SOL    HW2  565   2.382   3.446   0.719  1.6090 -1.2851  0.5136
  123SOL    HW3  566   2.280   3.401   0.822  1.4667  0.1854  1.0290
  123SOL    MW4  567   2.333   3.384   0.755  0.1597 -0.4044  0.1187
  124SOL     OW  568   0.653   0.775   0.923  0.2868  0.1383 -0.0959
  124SOL    HW2  569   0.574   0.820   0.951  1.2031  1.3636  0.5333
  124SOL    HW3  570   0.646   0.688   0.963 -0.3353  0.5205  0.6452
  124SOL    MW4  571   0.642   0.769   0.932  0.3257  0.3504  0.0849
  125SOL     OW  572   1.372   4.324   0.717  0.1643  0.4695  0.1048
  125SOL    HW2  573   1.289   4.283   0.693  0.1475 -0.6814  2.0237
  125SOL    HW3  574   1.366   4.412   0.680 -0.3921 -0.7328 -2.8292
  125SOL    MW4  575   1.360   4.330   0.709  0.0886  0.1588 -0.0291
  126SOL     OW  576   2.889   1.302   1.131 -0.4442  0.0319 -0.9386
  126SOL    HW2  577   2.917   1.315   1.222 -1.8121 -3.5184  0.0601
  126SOL    HW3  578   2.961   1.254   1.090 -0.7623 -0.2839 -1.1297
  126SOL    MW4  579   2.902   1.297   1.138 -0.6666 -0.4784 -0.8320
  127SOL     OW  580   3.964   4.391   0.636  0.5142 -0.0023  0.3777
  127SOL    HW2  581   3.887   4.428   0.678 -0.3233 -0.8328 -0.4267
  127SOL    HW3  582   3.940   4.382   0.544  1.3488 -0.8377  0.2339
  127SOL    MW4  583   3.951   4.394   0.630  0.5140 -0.2217  0.2526
  128SOL     OW  584   4.272   2.296   0.670 -0.3367  0.3520  0.3770
  128SOL    HW2  585   4.188   2.279   0.628  0.0239  0.4959 -0.4171
  128SOL    HW3  586   4.317   2.211   0.671  0.4697  0.7411 -1.3645
  128SOL    MW4  587   4.267   2.282   0.665 -0.1826  0.4225  0.0424
  129SOL     OW  588   3.193   3.525   1.018  0.1446  0.1107  0.1732
  129SOL    HW2  589   3.188   3.432   1.043  0.8234  0.3833  1.3817
  129SOL    HW3  590   3.206   3.524   0.924  0.1953 -1.0300  0.1839
  129SOL    MW4  591   3.194   3.512   1.009  0.2408 -0.0036  0.3341
  130SOL     OW  592   3.727   3.492   0.740  0.1798 -0.7987  0.6716
  130SOL    HW2  593   3.685   3.478   0.825  0.8169 -0.4572  1.0487
  130SOL    HW3  594   3.703   3.582   0.716 -0.2215 -0.9854  0.3575
  130SOL    MW4  595   3.718   3.502   0.748  0.2110 -0.7784  0.6800
  131SOL     OW  596   4.391   0.115   0.361  0.6061 -0.3144  0.3402
  131SOL    HW2  597   4.425   0.156   0.441 -0.4469  0.5718  0.3401
  131SOL    HW3  598   4.467   0.111   0.302  0.8410  1.1423  0.5293
  131SOL    MW4  599   4.406   0.120   0.364  0.4983 -0.0053  0.3651
  132SOL     OW  600   2.061   0.820   0.718 -0.2909 -0.2224  0.2752
  132SOL    HW2  601   2.056   0.812   0.813  0.5611 -1.6298  0.1986
  132SOL    HW3  602   1.991   0.764   0.685  0.3105 -0.8241  0.0225
  132SOL    MW4  603   2.051   0.812   0.726 -0.0992 -0.4875  0.2317
  133SOL     OW  604   2.417   0.242   0.592  0.5294 -0.2934  0.4391
  133SOL    HW2  605   2.411   0.156   0.633 -0.0173 -0.5461 -0.1643
  133SOL    HW3  606   2.363   0.298   0.648 -0.5649 -0.7303 -0.1724
  133SOL    MW4  607   2.409   0.238   0.605  0.3128 -0.3844  0.2788
  134SOL     OW  608   2.879   2.024   1.072  0.3200 -0.2522  0.1245
  134SOL    HW2  609   2.893   2.029   1.166 -2.5341  1.1368  0.5204
  134SOL    HW3  610   2.959   1.984   1.038  2.7131  2.0958  2.7617
  134SOL    MW4  611   2.891   2.019   1.080  0.2592  0.2410  0.5246
  135SOL     OW  612   3.369   4.521   0.336  0.0470  0.6050 -0.2680
  135SOL    HW2  613   3.357   4.433   0.301 -2.1208  0.3745  0.9495
  135SOL    HW3  614   3.463   4.528   0.354  0.0440 -1.9727  0.9169
  135SOL    MW4  615   3.380   4.510   0.334 -0.2394  0.2346  0.0489
  136SOL     OW  616   1.278   2.635   0.236  0.3440 -0.6848 -0.2278
  136SOL    HW2  617   1.214   2.587   0.289 -0.4396 -0.5357 -1.0345
  136SOL    HW3  618   1.345   2.569   0.215  2.1248 -0.1199  3.2205
  136SOL    MW4  619   1.279   2.620   0.240  0.4754 -0.5908  0.1207
  137SOL     OW  620   0.288   2.434   0.244 -0.4456  0.2013  0.1130
  137SOL    HW2  621   0.207   2.384   0.237 -0.1176 -0.1128 -1.5338
  137SOL    HW3  622   0.259   2.523   0.266 -1.0948 -0.3725  1.6617
  137SOL    MW4  623   0.273   2.439   0.246 -0.4880  0.0842  0.1001
  138SOL     OW  624   3.066   0.548   0.340 -0.3151  0.0301 -0.5005
  138SOL    HW2  625   2.973   0.531   0.322 -0.5377  0.2962  0.3677
  138SOL    HW3  626   3.111   0.470   0.309 -0.6885  0.4314 -2.1060
  138SOL    MW4  627   3.060   0.535   0.334 -0.3934  0.1183 -0.5978
  139SOL     OW  628   2.487   1.305   0.362 -0.3587 -0.0268 -0.1980
  139SOL    HW2  629   2.457   1.237   0.302 -1.1119 -0.1242  0.2821
  139SOL    HW3  630   2.411   1.362   0.373 -0.3526 -0.2358  0.9816
  139SOL    MW4  631   2.473   1.304   0.355 -0.4570 -0.0674  0.0210
  140SOL     OW  632   1.419   3.067   0.326 -0.1086 -0.5372 -0.4147
  140SOL    HW2  633   1.329   3.090   0.346  0.2284  0.9151 -0.5130
  140SOL    HW3  634   1.449   3.136   0.267  0.7998 -1.4785 -1.0774
  140SOL    MW4  635   1.411   3.079   0.321  0.0557 -0.4697 -0.5151
  141SOL     OW  636   3.000   1.264   0.219 -0.0968 -0.5135 -0.1475
  141SOL    HW2  637   2.931   1.305   0.272  0.8109  1.5002 -0.4621
  141SOL    HW3  638   2.965   1.264   0.130 -0.2085 -0.6653 -0.1031
  141SOL    MW4  639   2.986   1.270   0.214  0.0086 -0.2679 -0.1831
  142SOL     OW  640   3.146   1.984   0.369 -0.0307 -0.2811  0.4269
  142SOL    HW2  641   3.107   2.013   0.287 -0.2396  0.2541  0.7154
  142SOL    HW3  642   3.118   1.893   0.377 -1.6184  0.2320  0.8657
  142SOL    MW4  643   3.137   1.976   0.359 -0.2680 -0.1428  0.5228
  143SOL     OW  644   1.567   2.358   0.970 -0.5145  0.5572  0.2805
  143SOL    HW2  645   1.608   2.392   0.891 -1.5581  1.5673  0.1574
  143SOL    HW3  646   1.627   2.379   1.041  0.1724  0.1186 -0.1681
  143SOL    MW4  647   1.580   2.365   0.969 -0.5615  0.6325  0.2052
  144SOL     OW  648   2.166   2.642   0.285  0.2307 -0.6466 -0.5463
  144SOL    HW2  649   2.201   2.731   0.276 -1.4156  0.1350  0.4457
  144SOL    HW3  650   2.195   2.614   0.372 -1.0540 -0.2358  0.0217
  144SOL    MW4  651   2.174   2.650   0.296 -0.1559 -0.4892 -0.3405
  145SOL     OW  652   0.794   0.632   0.047  0.1014 -0.2667  0.0798
  145SOL    HW2  653   0.842   0.693   0.103 -1.0153  0.7320 -0.0302
  145SOL    HW3  654   0.829   0.647  -0.041 -0.6021  0.6458 -0.0424
  145SOL    MW4  655   0.805   0.642   0.043 -0.1388 -0.0145  0.0492
  146SOL     OW  656   4.295   3.882   0.736  0.5114  0.7523  0.0290
  146SOL    HW2  657   4.200   3.874   0.724  0.6834  0.5812 -1.2699
  146SOL    HW3  658   4.313   3.975   0.724  0.6004  0.6757 -0.4460
  146SOL    MW4  659   4.285   3.893   0.733  0.5455  0.7195 -0.2051
  147SOL     OW  660   1.465   3.175   0.757  0.3452 -0.0164  0.1063
  147SOL    HW2  661   1.421   3.261   0.756 -0.1114 -0.2487 -0.8156
  147SOL    HW3  662   1.495   3.164   0.847 -0.4734  0.6757  0.4705
  147SOL    MW4  663   1.463   3.185   0.769  0.1770  0.0441  0.0328
  148SOL     OW  664   0.050   3.755   0.621 -0.1242  0.1075 -0.2034
  148SOL    HW2  665  -0.017   3.815   0.654  0.1607  0.5078 -0.3617
  148SOL    HW3  666   0.041   3.759   0.526 -0.3171 -0.3420 -0.2077
  148SOL    MW4  667   0.040   3.763   0.613 -0.1121  0.1009 -0.2249
  149SOL     OW  668   0.699   2.303   0.966  0.1632  0.2683 -0.4398
  149SOL    HW2  669   0.614   2.339   0.991 -0.2667  0.6772 -2.3866
  149SOL    HW3  670   0.708   2.326   0.874  1.6215 -1.2925 -0.7010
  149SOL    MW4  671   0.689   2.311   0.957  0.2989  0.1163 -0.7312
  150SOL     OW  672   3.437   0.210   0.596 -0.3128 -0.6806  0.3258
  150SOL    HW2  673   3.444   0.117   0.619 -1.1985 -1.2411 -1.5649
  150SOL    HW3  674   3.421   0.210   0.501 -3.9495  1.2265  0.8402
  150SOL    MW4  675   3.435   0.198   0.586 -0.9096 -0.5029  0.1442
  151SOL     OW  676   1.533   1.022   0.598 -0.1697 -0.6683  0.0463
  151SOL    HW2  677   1.619   1.060   0.615 -1.1105  1.2398  0.6474
  151SOL    HW3  678   1.522   1.029   0.504  1.0035 -2.4281 -0.2450
  151SOL    MW4  679   1.543   1.028   0.588 -0.1392 -0.6487  0.0871
  152SOL     OW  680   3.330   0.750   1.049  0.1699 -0.3055  0.1874
  152SOL    HW2  681   3.343   0.741   0.954 -1.1299  0.9849 -0.1331
  152SOL    HW3  682   3.399   0.809   1.077 -0.4160  0.6043 -0.2466
  152SOL    MW4  683   3.341   0.757   1.040 -0.0789 -0.0152  0.0879
  153SOL     OW  684   3.714   3.734   0.618 -0.4212  0.3107  0.2484
  153SOL    HW2  685   3.740   3.735   0.526  0.2693 -1.2337  0.4190
  153SOL    HW3  686   3.669   3.818   0.630  1.6791  1.6456 -0.8483
  153SOL    MW4  687   3.711   3.745   0.607 -0.0529  0.2832  0.1262
  154SOL     OW  688   3.270   2.564   0.723 -0.0774 -0.0673 -0.0146
  154SOL    HW2  689   3.218   2.609   0.789  1.8096  2.6520 -0.2538
  154SOL    HW3  690   3.355   2.550   0.764  0.2002 -0.9919 -0.8811
  154SOL    MW4  691   3.275   2.568   0.737  0.2081  0.1698 -0.1605
  155SOL     OW  692   1.630   4.141   0.292  0.3108  0.1322  0.1112
  155SOL    HW2  693   1.575   4.065   0.277 -0.6356  0.9758 -0.7402
  155SOL    HW3  694   1.629   4.153   0.387 -2.2637  1.0743 -0.0080
  155SOL    MW4  695   1.623   4.133   0.303 -0.1537  0.3681 -0.0169
  156SOL     OW  696   0.546   2.554   0.328 -0.2472 -0.3951 -0.1440
  156SOL    HW2  697   0.545   2.646   0.302  1.2390 -0.9379 -2.2188
  156SOL    HW3  698   0.470   2.516   0.285  0.3563 -0.5975 -1.0285
  156SOL    MW4  699   0.536   2.561   0.319  0.0286 -0.4938 -0.5345
  157SOL     OW  700   3.785   1.514   0.991 -0.4555 -0.7983 -0.1090
  157SOL    HW2  701   3.704   1.556   1.019 -0.6847 -1.2684 -0.0777
  157SOL    HW3  702   3.853   1.578   1.013 -0.7262 -0.7782  0.6753
  157SOL    MW4  703   3.784   1.528   0.998 -0.5212 -0.8577 -0.0014
  158SOL     OW  704   3.242   3.437   0.226 -0.2166 -0.0115  0.1770
  158SOL    HW2  705   3.312   3.472   0.281 -0.2814  1.2965 -0.5334
  158SOL    HW3  706   3.278   3.357   0.188  1.4350  1.4192 -1.3221
  158SOL    MW4  707   3.256   3.431   0.228 -0.0074  0.3498 -0.1145
  159SOL     OW  708   3.016   2.051   0.138  0.1723  0.5701  0.1131
  159SOL    HW2  709   2.990   2.141   0.155 -3.1957 -0.1758 -0.5643
  159SOL    HW3  710   3.039   2.049   0.045 -1.1210  0.4812 -0.2202
  159SOL    MW4  711   3.015   2.062   0.128 -0.4427  0.4601 -0.0203
  160SOL     OW  712   2.907   2.832   1.041 -0.5385  0.2437  0.1577
  160SOL    HW2  713   2.895   2.813   1.134 -0.2908  0.1261  0.1656
  160SOL    HW3  714   2.851   2.768   0.997  0.4516 -0.6505  0.1777
  160SOL    MW4  715   2.898   2.821   1.048 -0.3753  0.1101  0.1614
  161SOL     OW  716   4.003   2.210   0.558  0.3071 -0.0976 -0.1203
  161SOL    HW2  717   4.010   2.247   0.471  0.4436 -0.1658 -0.1392
  161SOL    HW3  718   3.991   2.116   0.544 -1.9545  0.1609 -0.1202
  161SOL    MW4  719   4.003   2.202   0.545  0.0267 -0.0725 -0.1227
  162SOL     OW  720   2.697   3.062   0.309 -0.1821 -0.2771  0.3663
  162SOL    HW2  721   2.710   3.088   0.400  0.0657 -0.1144  0.2847
  162SOL    HW3  722   2.722   2.969   0.307 -2.6880 -1.0111  1.0176
  162SOL    MW4  723   2.702   3.053   0.321 -0.4802 -0.3524  0.4415
  163SOL     OW  724   0.484   4.009   1.084 -0.0629  0.3692 -0.5402
  163SOL    HW2  725   0.557   3.961   1.046 -0.0957  1.2195 -1.7106
  163SOL    HW3  726   0.406   3.968   1.048 -0.1492  0.0256  0.0264
  163SOL    MW4  727   0.483   3.998   1.075 -0.0786  0.4358 -0.6198
  164SOL     OW  728   0.437   2.812   0.747  0.1060  0.3052  0.2223
  164SOL    HW2  729   0.429   2.809   0.843 -1.5014 -0.2804  0.0961
  164SOL    HW3  730   0.361   2.863   0.719  1.7571  2.3691 -0.6290
  164SOL    MW4  731   0.426   2.818   0.756  0.1118  0.5002  0.0933
  165SOL     OW  732   4.254   2.311   0.952  0.2818  0.0492 -0.2092
  165SOL    HW2  733   4.257   2.302   0.857 -1.8158 -1.6616 -0.1749
  165SOL    HW3  734   4.170   2.353   0.969  0.0271 -0.9042  0.9368
  165SOL    MW4  735   4.243   2.315   0.942 -0.0281 -0.3021 -0.0535
  166SOL     OW  736   2.194   3.492   0.354  0.2523 -0.3861  0.0444
  166SOL    HW2  737   2.164   3.498   0.445  0.5939 -0.6914  0.1815
  166SOL    HW3  738   2.279   3.449   0.361  2.1936  3.2072 -0.0117
  166SOL    MW4  739   2.202   3.487   0.367  0.5534  0.0479  0.0551
  167SOL     OW  740   2.674   0.308   0.690  0.3193 -0.7278  0.3742
  167SOL    HW2  741   2.743   0.302   0.624 -0.1755 -2.1847 -0.0186
  167SOL    HW3  742   2.596   0.274   0.647 -0.3458 -0.2935  1.2325
  167SOL    MW4  743   2.673   0.303   0.676  0.1662 -0.8627  0.4357
  168SOL     OW  744   2.270   4.455   0.734 -0.2966  0.2556 -0.2432
  168SOL    HW2  745   2.260   4.404   0.814  0.7062  1.5824  0.7307
  168SOL    HW3  746   2.248   4.393   0.664  0.6975 -1.4586  0.9276
  168SOL    MW4  747   2.266   4.440   0.735 -0.0329  0.2046  0.0398
  169SOL     OW  748   3.813   0.491   0.302 -0.0619 -0.2245  0.9056
  169SOL    HW2  749   3.785   0.581   0.288 -0.5253  0.0307  3.2676
  169SOL    HW3  750   3.907   0.491   0.283  0.1177  0.9703  1.7774
  169SOL    MW4  751   3.822   0.503   0.298 -0.0994 -0.0332  1.3322
  170SOL     OW  752   0.679   0.183   0.292  0.3154 -0.0908 -0.1936
  170SOL    HW2  753   0.589   0.157   0.275  0.2896  0.6872 -1.3415
  170SOL    HW3  754   0.683   0.274   0.262  1.0125  0.4623  1.5248
  170SOL    MW4  755   0.668   0.192   0.286  0.4040  0.0848 -0.1183
  171SOL     OW  756   1.143   3.116   0.281 -0.0058  0.6398  0.2135
  171SOL    HW2  757   1.065   3.098   0.333  0.7990 -1.7500  0.6917
  171SOL    HW3  758   1.141   3.050   0.212  1.0328  1.2302 -0.3871
  171SOL    MW4  759   1.132   3.105   0.279  0.2375  0.4022  0.1974
  172SOL     OW  760   0.870   1.963   0.718 -0.5622 -0.0913 -0.5712
  172SOL    HW2  761   0.876   1.939   0.810 -0.8076  0.1585 -0.4887
  172SOL    HW3  762   0.934   1.906   0.674 -0.5723 -0.3344 -0.2738
  172SOL    MW4  763   0.880   1.952   0.724 -0.5959 -0.0904 -0.5211
  173SOL     OW  764   0.786   3.905   0.739 -0.1382  0.2224 -0.0011
  173SOL    HW2  765   0.753   3.894   0.828  0.2193  0.4421  0.1625
  173SOL    HW3  766   0.863   3.849   0.735  0.9140  1.6094  0.4164
  173SOL    MW4  767   0.792   3.896   0.750  0.0479  0.4346  0.0756
  174SOL     OW  768   2.796   1.863   0.693  0.1221  0.2777  0.2300
  174SOL    HW2  769   2.758   1.884   0.778 -1.7873  1.9734 -0.9606
  174SOL    HW3  770   2.839   1.779   0.705 -2.5097 -0.8473  2.1706
  174SOL    MW4  771   2.796   1.855   0.706 -0.4771  0.3531  0.3290
  175SOL     OW  772   0.657   0.014   0.699 -0.4493 -0.3067 -0.1128
  175SOL    HW2  773   0.740  -0.023   0.672  0.3753  0.7740  0.8894
  175SOL    HW3  774   0.660   0.015   0.795 -1.7007 -0.4545 -0.0566
  175SOL    MW4  775   0.668   0.010   0.708 -0.5056 -0.1836  0.0269
  176SOL     OW  776   1.270   3.730   0.175 -0.2602  0.0824  0.0598
  176SOL    HW2  777   1.255   3.780   0.095 -0.5708 -2.3981 -1.4873
  176SOL    HW3  778   1.201   3.759   0.235 -0.4896  1.3890 -0.8240
  176SOL    MW4  779   1.259   3.740   0.173 -0.3315 -0.0725 -0.2609
  177SOL     OW  780   1.789   1.138   0.677  0.0110 -0.4034 -0.2534
  177SOL    HW2  781   1.783   1.232   0.660 -1.0597 -0.3704  0.3041
  177SOL    HW3  782   1.839   1.104   0.602  0.8754  0.6767 -0.1836
  177SOL    MW4  783   1.795   1.146   0.665 -0.0163 -0.2565 -0.1706
  178SOL     OW  784   0.412   0.116   0.327 -0.1016  0.7136  0.1250
  178SOL    HW2  785   0.389   0.151   0.413 -1.5712 -1.9001  0.8306
  178SOL    HW3  786   0.414   0.021   0.339  0.5993  0.3540 -2.5121
  178SOL    MW4  787   0.409   0.108   0.340 -0.2030  0.3213 -0.1298
  179SOL     OW  788   1.367   4.612   0.318  0.3056 -0.3720  0.2567
  179SOL    HW2  789   1.385   4.525   0.282 -2.5632 -1.2317  0.7682
  179SOL    HW3  790   1.368   4.599   0.413 -0.7197  0.0137  0.3265
  179SOL    MW4  791   1.369   4.599   0.326 -0.2083 -0.4349  0.3334
  180SOL     OW  792   2.603   1.712   0.545  0.1205  0.2105  0.3224
  180SOL    HW2  793   2.556   1.651   0.601  0.4950 -0.0843  0.3164
  180SOL    HW3  794   2.655   1.766   0.605 -1.0971  1.2863  0.4113
  180SOL    MW4  795   2.604   1.711   0.560  0.0093  0.3135  0.3334
  181SOL     OW  796   4.159   3.582   0.626 -0.0156 -0.4563 -0.1694
  181SOL    HW2  797   4.118   3.652   0.677 -0.4770  0.5012 -1.8259
  181SOL    HW3  798   4.237   3.559   0.676  0.0049  1.0571  0.5294
  181SOL    MW4  799   4.164   3.588   0.640 -0.0739 -0.1304 -0.2958
  182SOL     OW  800   2.619   4.072   0.316 -0.1697  0.3079  0.5882
  182SOL    HW2  801   2.709   4.043   0.302 -0.6259 -0.4434 -0.8665
  182SOL    HW3  802   2.565   3.996   0.293 -1.1997  0.9697  0.7740
  182SOL    MW4  803   2.624   4.058   0.311 -0.3657  0.2961  0.4207
  183SOL     OW  804   0.648   1.494   1.010 -0.0865 -0.1842  0.3884
  183SOL    HW2  805   0.667   1.484   0.917 -1.7227 -1.8210  0.2216
  183SOL    HW3  806   0.564   1.540   1.013  0.7217  1.3056  1.0964
  183SOL    MW4  807   0.640   1.499   0.998 -0.1957 -0.2035  0.4597
  184SOL     OW  808   1.787   1.693   1.096  0.4196  0.2448  0.0148
  184SOL    HW2  809   1.731   1.630   1.050  0.8690  0.6245 -1.0666
  184SOL    HW3  810   1.777   1.775   1.046  0.1358  0.9269  1.1872
  184SOL    MW4  811   1.778   1.696   1.083  0.4416  0.3849  0.0268
  185SOL     OW  812   3.028   0.458   0.612 -0.0276  0.1647  0.1825
  185SOL    HW2  813   3.036   0.471   0.518  0.4380 -0.5749  0.1150
  185SOL    HW3  814   2.998   0.542   0.646 -1.1586  0.1403 -0.7445
  185SOL    MW4  815   3.025   0.471   0.604 -0.1152  0.0639  0.0513
  186SOL     OW  816   2.854   0.959   0.612 -0.1081 -0.0624  0.1881
  186SOL    HW2  817   2.899   0.977   0.529 -1.0047 -0.5900 -0.4200
  186SOL    HW3  818   2.885   0.872   0.637  0.0823  0.0526  0.3468
  186SOL    MW4  819   2.864   0.950   0.604 -0.2017 -0.1168  0.1288
  187SOL     OW  820   2.461   3.282   0.061 -0.0204 -0.3011 -0.7650
  187SOL    HW2  821   2.381   3.283   0.008 -0.3166  2.3720 -0.3291
  187SOL    HW3  822   2.442   3.217   0.130 -1.4330 -0.3936 -1.2138
  187SOL    MW4  823   2.448   3.273   0.063 -0.2458  0.0393 -0.7667
  188SOL     OW  824   0.324   3.808   0.731 -0.2883 -0.3550 -0.5021
  188SOL    HW2  825   0.311   3.831   0.823  0.6942 -0.5255 -0.3083
  188SOL    HW3  826   0.236   3.802   0.694 -0.7583 -1.9687  0.8442
  188SOL    MW4  827   0.311   3.811   0.738 -0.2206 -0.5901 -0.2989
  189SOL     OW  828   3.583   3.981   0.393 -0.4319  0.0969 -0.0547
  189SOL    HW2  829   3.548   3.964   0.481 -0.6615  0.0131 -0.1609
  189SOL    HW3  830   3.515   4.033   0.350 -0.3733  0.0344 -0.2239
  189SOL    MW4  831   3.569   3.985   0.399 -0.4542  0.0777 -0.0911
  190SOL     OW  832   2.935   3.637   1.070 -0.2758 -0.1498 -0.2291
  190SOL    HW2  833   2.858   3.596   1.031 -0.2823 -1.4036  1.0941
  190SOL    HW3  834   3.009   3.585   1.038  0.0790  1.1765 -1.6677
  190SOL    MW4  835   2.934   3.625   1.060 -0.2301 -0.1402 -0.2445
  191SOL     OW  836   3.879   4.663   0.313  0.1898  0.4900  0.5209
  191SOL    HW2  837   3.923   4.709   0.242  0.8384 -1.2970 -0.2468
  191SOL    HW3  838   3.950   4.630   0.368 -0.0914 -3.1476 -1.1802
  191SOL    MW4  839   3.894   4.665   0.311  0.2379 -0.2265  0.1952
  192SOL     OW  840   2.483   3.103   0.963  0.1960  0.3194  0.0882
  192SOL    HW2  841   2.412   3.155   1.002  0.1524  0.8630 -0.7135
  192SOL    HW3  842   2.563   3.146   0.994  0.1619  0.6999 -0.3490
  192SOL    MW4  843   2.484   3.116   0.972  0.1857  0.4413 -0.0752
  193SOL     OW  844   1.512   1.035   0.320 -0.0185  0.3252  0.1126
  193SOL    HW2  845   1.587   1.081   0.284 -0.6292  1.1587 -0.1059
  193SOL    HW3  846   1.437   1.090   0.297 -0.6293 -0.1913  0.8595
  193SOL    MW4  847   1.512   1.048   0.312 -0.1796  0.3672  0.1823
  194SOL     OW  848   2.921   2.765   0.531 -0.3552 -1.0565  0.5931
  194SOL    HW2  849   3.009   2.787   0.562 -0.0294  0.0221 -1.0425
  194SOL    HW3  850   2.863   2.802   0.598  0.3997 -0.6496  1.0328
  194SOL    MW4  851   2.925   2.773   0.544 -0.2124 -0.8605  0.4353
  195SOL     OW  852   1.141   0.257   0.624  0.3173  0.1383  0.1903
  195SOL    HW2  853   1.158   0.229   0.534 -0.5616  0.9322 -0.2300
  195SOL    HW3  854   1.218   0.308   0.649  0.9174 -0.7405  0.1763
  195SOL    MW4  855   1.154   0.260   0.616  0.2805  0.1271  0.1330
  196SOL     OW  856   1.192   3.929   0.749  0.3842  0.2684 -0.2924
  196SOL    HW2  857   1.177   3.925   0.844  1.9230 -0.9524 -0.0709
  196SOL    HW3  858   1.183   4.022   0.728 -0.9113  0.4319  0.8811
  196SOL    MW4  859   1.189   3.941   0.759  0.4164  0.1287 -0.1084
  197SOL     OW  860   1.696   2.641   0.267 -0.3070  0.1506  0.5925
  197SOL    HW2  861   1.774   2.691   0.291  0.1887 -0.0679 -0.5573
  197SOL    HW3  862   1.624   2.704   0.273  0.1595  0.7207  0.2281
  197SOL    MW4  863   1.697   2.656   0.271 -0.1800  0.1969  0.3928
  198SOL     OW  864   1.737   3.595   0.503 -0.8931  0.3218  0.4758
  198SOL    HW2  865   1.785   3.549   0.572  0.3809 -2.1228 -1.9468
  198SOL    HW3  866   1.759   3.687   0.516  0.7227 -0.2804  2.2563
  198SOL    MW4  867   1.746   3.601   0.514 -0.5118 -0.0806  0.3910
  199SOL     OW  868   0.752   3.504   0.109 -0.0300  0.1294 -0.0487
  199SOL    HW2  869   0.789   3.509   0.197  0.1917 -0.4210 -0.1070
  199SOL    HW3  870   0.734   3.595   0.085 -1.5614  0.1604  1.1673
  199SOL    MW4  871   0.755   3.517   0.118 -0.2028  0.0608  0.1040
  200SOL     OW  872   0.329   4.052   0.602  0.1833  0.4027 -0.3566
  200SOL    HW2  873   0.343   3.970   0.648 -3.0274 -0.3531 -0.5720
  200SOL    HW3  874   0.362   4.036   0.513  1.2910  0.0010  0.1243
  200SOL    MW4  875   0.335   4.039   0.596 -0.0941  0.2499 -0.3216
  201SOL     OW  876   3.104   4.285   0.769  0.2464 -0.9948  0.2258
  201SOL    HW2  877   3.175   4.227   0.741  0.7669 -0.6460  0.8311
  201SOL    HW3  878   3.127   4.371   0.735  0.5495 -0.7024  1.1542
  201SOL    MW4  879   3.116   4.288   0.761  0.3550 -0.9103  0.4281
  202SOL     OW  880   3.839   0.480   1.096  0.2174 -0.5363 -0.6753
  202SOL    HW2  881   3.921   0.452   1.055  1.1381  2.3000 -0.9046
  202SOL    HW3  882   3.863   0.498   1.187  0.0787  1.0366 -0.9250
  202SOL    MW4  883   3.853   0.479   1.103  0.3204  0.0455 -0.7385
  203SOL     OW  884   3.105   0.884   1.094 -0.2719 -0.1896 -0.1128
  203SOL    HW2  885   3.182   0.829   1.080  1.6258  2.5315 -0.7168
  203SOL    HW3  886   3.097   0.891   1.189  0.6016  0.0189 -0.0511
  203SOL    MW4  887   3.114   0.878   1.105  0.0937  0.1969 -0.1844
  204SOL     OW  888   2.471   0.006   1.004 -0.2237  0.1170 -0.2885
  204SOL    HW2  889   2.398   0.040   1.056 -0.8710 -0.2471 -0.9417
  204SOL    HW3  890   2.479  -0.086   1.031  1.0917  0.5917  0.9955
  204SOL    MW4  891   2.463  -0.002   1.014 -0.1357  0.1316 -0.2053
  205SOL     OW  892   3.246   2.664   0.295 -0.2922  0.2422  0.2107
  205SOL    HW2  893   3.262   2.709   0.378  0.4630  1.0004 -0.3284
  205SOL    HW3  894   3.332   2.661   0.253 -0.6686 -0.1364 -0.5432
  205SOL    MW4  895   3.260   2.670   0.301 -0.2422  0.2923  0.0401
  206SOL     OW  896   3.704   4.532   0.659  0.2953 -0.2336  0.2790
  206SOL    HW2  897   3.733   4.622   0.677  0.1244 -0.0665 -0.2826
  206SOL    HW3  898   3.613   4.531   0.689  0.3218 -0.2425  0.3601
  206SOL    MW4  899   3.696   4.544   0.666  0.2763 -0.2127  0.2156
  207SOL     OW  900   2.567   2.392   0.388 -0.0295  0.5267  0.2399
  207SOL    HW2  901   2.560   2.462   0.323 -1.7735  0.9582  0.8734
  207SOL    HW3  902   2.478   2.379   0.420  0.1363 -2.4729 -0.3559
  207SOL    MW4  903   2.555   2.400   0.384 -0.2379  0.1879  0.2449
  208SOL     OW  904   0.927   1.346   0.362 -0.0933  0.2065 -0.5201
  208SOL    HW2  905   0.899   1.373   0.450 -0.8004 -0.1271 -0.6396
  208SOL    HW3  906   0.861   1.283   0.334 -0.8849  1.6530 -2.0209
  208SOL    MW4  907   0.914   1.341   0.370 -0.2910  0.3533 -0.7339
  209SOL     OW  908   1.821   4.576   0.625 -0.3440 -0.3270 -0.4602
  209SOL    HW2  909   1.812   4.487   0.658  0.1591 -0.9867 -2.0624
  209SOL    HW3  910   1.905   4.606   0.658  0.3524 -1.1406 -1.4679
  209SOL    MW4  911   1.831   4.568   0.633 -0.1857 -0.5212 -0.8045
  210SOL     OW  912   2.925   0.713   0.963  0.1733 -0.2307 -0.2024
  210SOL    HW2  913   2.998   0.768   0.992 -0.2589  0.4723 -0.4234
  210SOL    HW3  914   2.918   0.645   1.030  0.4432  0.2314  0.3012
  210SOL    MW4  915   2.934   0.711   0.976  0.1519 -0.0770 -0.1651
  211SOL     OW  916   0.878   3.244   0.161  0.4411 -0.1776 -0.0964
  211SOL    HW2  917   0.971   3.263   0.178  0.6642  0.4390 -1.9486
  211SOL    HW3  918   0.845   3.323   0.118 -0.6665 -0.8626 -0.5158
  211SOL    MW4  919   0.886   3.257   0.158  0.3244 -0.1867 -0.3961
  212SOL     OW  920   2.541   2.643   0.268 -0.1572 -0.3392 -0.1773
  212SOL    HW2  921   2.479   2.662   0.198 -2.0021  1.9559  1.9427
  212SOL    HW3  922   2.614   2.702   0.251 -1.0557  0.9617  0.3447
  212SOL    MW4  923   2.542   2.653   0.257 -0.5190  0.1352  0.1713
  213SOL     OW  924   3.535   1.921   0.025  0.2640  0.0176 -0.2231
  213SOL    HW2  925   3.623   1.884   0.021  0.3706  0.1502  0.7554
  213SOL    HW3  926   3.491   1.871   0.094  0.0562  0.9592  0.3389
  213SOL    MW4  927   3.541   1.909   0.034  0.2506  0.1595 -0.0198
  214SOL     OW  928   0.233   2.320   0.972 -1.0045 -0.0825  0.2781
  214SOL    HW2  929   0.229   2.306   0.878  0.7645 -0.4196  0.2345
  214SOL    HW3  930   0.155   2.373   0.992 -1.9187 -0.8393 -1.2027
  214SOL    MW4  931   0.222   2.325   0.962 -0.8917 -0.2270  0.0769
  215SOL     OW  932   3.978   0.955   0.377  0.2543 -0.1200  0.0665
  215SOL    HW2  933   3.931   0.975   0.458 -0.7962  2.8176 -1.1884
  215SOL    HW3  934   3.915   0.904   0.325 -1.5358  3.3483 -1.3872
  215SOL    MW4  935   3.963   0.951   0.381 -0.1204  0.7253 -0.2909
  216SOL     OW  936   2.082   0.313   0.376  0.0418  0.0948  0.0812
  216SOL    HW2  937   2.083   0.408   0.365 -0.0233  0.2493  1.3937
  216SOL    HW3  938   2.168   0.284   0.344  0.8458  0.8096  1.5470
  216SOL    MW4  939   2.093   0.322   0.370  0.1392  0.2095  0.4478
  217SOL     OW  940   2.200   1.475   0.579  0.2673  0.1072  0.0654
  217SOL    HW2  941   2.138   1.530   0.628  0.2922  0.3734 -0.2046
  217SOL    HW3  942   2.192   1.389   0.621 -1.3075 -0.2268 -0.8728
  217SOL    MW4  943   2.191   1.471   0.591  0.0629  0.0983 -0.0940
  218SOL     OW  944   0.314   3.533   0.709  0.1915 -0.2050 -0.5442
  218SOL    HW2  945   0.314   3.628   0.722 -1.5469 -0.4074  1.2488
  218SOL    HW3  946   0.363   3.498   0.783  0.3809 -0.7358 -0.9154
  218SOL    MW4  947   0.320   3.541   0.720 -0.0129 -0.3016 -0.3566
  219SOL     OW  948   4.340   4.161   0.796  0.1400  0.0004  0.0340
  219SOL    HW2  949   4.412   4.158   0.733  0.6784 -0.0707  0.6468
  219SOL    HW3  950   4.380   4.194   0.876 -0.8760  1.5765 -0.0889
  219SOL    MW4  951   4.355   4.165   0.798  0.0772  0.1988  0.0986
  220SOL     OW  952   0.862   1.150   0.720 -0.0018  0.3173  0.2493
  220SOL    HW2  953   0.882   1.242   0.705 -0.7401  0.3245 -0.7717
  220SOL    HW3  954   0.794   1.130   0.655  0.4063 -1.0338  0.2288
  220SOL    MW4  955   0.856   1.159   0.709 -0.0453  0.1401  0.1120
  221SOL     OW  956   0.455   0.561   0.256  0.6686  0.3706  0.0717
  221SOL    HW2  957   0.460   0.593   0.346 -0.1948 -0.2997  0.3648
  221SOL    HW3  958   0.454   0.641   0.202 -0.5154  0.8248  0.7424
  221SOL    MW4  959   0.456   0.576   0.260  0.3985  0.3421  0.1989
  222SOL     OW  960   2.885   1.557   0.984 -0.0731  0.4785 -0.1180
  222SOL    HW2  961   2.960   1.591   1.033 -1.8026  1.2341  2.0821
  222SOL    HW3  962   2.875   1.467   1.015  0.3719  0.1207 -0.9863
  222SOL    MW4  963   2.894   1.550   0.994 -0.2427  0.5310  0.0577
  223SOL     OW  964   4.086   3.140   0.279 -0.2552 -0.5029  0.2075
  223SOL    HW2  965   4.139   3.060   0.278  0.0874 -0.2888  1.0818
  223SOL    HW3  966   4.149   3.211   0.268 -0.4916 -0.3045  0.1138
  223SOL    MW4  967   4.101   3.139   0.277 -0.2413 -0.4485  0.3105
  224SOL     OW  968   2.818   3.822   0.642 -0.5055  0.0895 -0.0204
  224SOL    HW2  969   2.900   3.853   0.680 -1.0426 -0.9969  2.0675
  224SOL    HW3  970   2.845   3.775   0.563  0.6797  1.6683 -0.6041
  224SOL    MW4  971   2.832   3.820   0.637 -0.4201  0.1545  0.1781
  225SOL     OW  972   4.463   1.966   0.980 -0.2560 -0.1851 -0.3007
  225SOL    HW2  973   4.540   2.013   1.014 -0.8994 -0.3575  1.4217
  225SOL    HW3  974   4.390   1.998   1.033 -0.9001 -2.2406  0.1016
  225SOL    MW4  975   4.464   1.977   0.992 -0.4263 -0.4790 -0.0204
  226SOL     OW  976   0.264   3.871   1.004 -0.0527  0.2724  0.1186
  226SOL    HW2  977   0.180   3.908   1.033  0.1227 -0.7258  1.9849
  226SOL    HW3  978   0.272   3.789   1.053  2.0091  0.3704 -0.0330
  226SOL    MW4  979   0.254   3.865   1.014  0.2425  0.1538  0.3449
  227SOL     OW  980   2.721   3.568   0.677  0.2416 -0.5793  0.4453
  227SOL    HW2  981   2.747   3.657   0.651 -0.6225 -0.3421  0.3740
  227SOL    HW3  982   2.723   3.569   0.773 -0.0957 -0.3880  0.4486
  227SOL    MW4  983   2.725   3.580   0.686  0.0830 -0.5229  0.4364
  228SOL     OW  984   0.071   0.761   9.965 -0.0161 -0.5095 -0.1025
  228SOL    HW2  985  -0.021   0.759   9.942 -0.1879 -0.2922  0.5561
  228SOL    HW3  986   0.072   0.777  10.059  0.7195  1.6088 -0.4334
  228SOL    MW4  987   0.059   0.763   9.974  0.0583 -0.2013 -0.0591
  229SOL     OW  988   2.510   1.032   0.250  0.2609 -0.0245 -0.6323
  229SOL    HW2  989   2.534   1.000   0.337  0.0726 -0.4865 -0.7524
  229SOL    HW3  990   2.575   0.994   0.191 -0.5174 -0.9354 -0.9014
  229SOL    MW4  991   2.522   1.023   0.253  0.1333 -0.2056 -0.6837
  230SOL     OW  992   4.470   4.018   0.347  0.4181 -0.2200  0.0534
  230SOL    HW2  993   4.527   4.054   0.279 -1.3002 -1.3572 -2.0456
  230SOL    HW3  994   4.488   3.924   0.346 -0.3633 -0.3788  0.4578
  230SOL    MW4  995   4.480   4.011   0.338  0.0882 -0.3905 -0.1702
  231SOL     OW  996   1.322   2.443   1.058 -0.1487  0.4974  0.0403
  231SOL    HW2  997   1.404   2.414   1.017 -0.6996 -0.3317 -0.4978
  231SOL    HW3  998   1.343   2.455   1.150  0.3325 -0.6570  0.0755
  231SOL    MW4  999   1.336   2.441   1.065 -0.1580  0.2356 -0.0261
  232SOL     OW 1000   1.279   1.761   0.379  0.1562 -0.2306  0.7449
  232SOL    HW2 1001   1.214   1.754   0.449  0.8250 -0.1584  1.3831
  232SOL    HW3 1002   1.250   1.698   0.313 -0.4957 -0.2825  1.0742
  232SOL    MW4 1003   1.267   1.752   0.380  0.1583 -0.2280  0.8726
  233SOL     OW 1004   2.771   2.817   0.305  0.8828  0.2428 -0.4860
  233SOL    HW2 1005   2.812   2.791   0.387  3.1267  1.2053 -1.2262
  233SOL    HW3 1006   2.843   2.817   0.242 -0.4853  1.0039 -2.0976
  233SOL    MW4 1007   2.786   2.814   0.307  0.9980  0.4704 -0.7963
  234SOL     OW 1008   2.106   3.135   0.692 -0.1334  0.1945  0.3235
  234SOL    HW2 1009   2.195   3.169   0.686  0.3938 -0.9525  1.3126
  234SOL    HW3 1010   2.082   3.145   0.784  0.4027 -2.8790  0.8734
  234SOL    MW4 1011   2.115   3.141   0.703  0.0067 -0.3622  0.5265
  235SOL     OW 1012   1.374   3.504   0.287  0.6956  0.0860 -0.5098
  235SOL    HW2 1013   1.340   3.582   0.244  0.3025  0.5306  0.5934
  235SOL    HW3 1014   1.435   3.537   0.353  0.5433 -0.5371 -0.0495
  235SOL    MW4 1015   1.378   3.519   0.290  0.6236  0.0625 -0.3035
  236SOL     OW 1016   1.555   2.072   1.070 -0.5581  0.0855  0.1616
  236SOL    HW2 1017   1.476   2.022   1.049 -0.8917  0.6799 -0.0030
  236SOL    HW3 1018   1.549   2.151   1.016  1.0176 -0.6729 -1.1659
  236SOL    MW4 1019   1.543   2.076   1.060 -0.3942  0.0639 -0.0353
  237SOL     OW 1020   3.487   0.914   0.246 -0.1995  0.0285  0.1696
  237SOL    HW2 1021   3.400   0.875   0.242 -0.0539 -0.2699 -0.0486
  237SOL    HW3 1022   3.495   0.945   0.336 -0.3485 -0.3605  0.3175
  237SOL    MW4 1023   3.477   0.913   0.257 -0.1998 -0.0622  0.1604
  238SOL     OW 1024   4.091   3.210   1.087 -0.1250  0.1394 -0.1914
  238SOL    HW2 1025   4.005   3.169   1.077 -0.3705  0.1820  1.4901
  238SOL    HW3 1026   4.078   3.300   1.057 -0.8420  0.3126  0.5885
  238SOL    MW4 1027   4.078   3.216   1.082 -0.2518  0.1678  0.1334
  239SOL     OW 1028   2.926   0.685   0.680  0.7218 -0.3678  0.2575
  239SOL    HW2 1029   3.014   0.720   0.667  0.7507  0.0085  1.3971
  239SOL    HW3 1030   2.916   0.679   0.775 -0.5956 -0.1161  0.1505
  239SOL    MW4 1031   2.936   0.688   0.691  0.5517 -0.2850  0.3939
  240SOL     OW 1032   3.257   2.775   0.565 -0.0973 -0.8263  0.3247
  240SOL    HW2 1033   3.274   2.848   0.626  1.8080 -0.9316 -0.0336
  240SOL    HW3 1034   3.278   2.697   0.615  0.5109 -0.9657 -0.1367
  240SOL    MW4 1035   3.262   2.774   0.580  0.2344 -0.8585  0.2165
  241SOL     OW 1036   2.416   3.858   0.692  0.0848 -0.2590  0.2331
  241SOL    HW2 1037   2.421   3.770   0.654 -0.5943 -0.2715  0.1621
  241SOL    HW3 1038   2.489   3.905   0.652 -0.7632 -0.1986 -1.2865
  241SOL    MW4 1039   2.426   3.852   0.682 -0.1163 -0.2527  0.0232
  242SOL     OW 1040   0.442   2.565   0.611  0.2694  0.0873  0.0974
  242SOL    HW2 1041   0.485   2.599   0.533  1.1996 -0.4530  0.3695
  242SOL    HW3 1042   0.440   2.639   0.672  0.3245  0.2617 -0.1148
  242SOL    MW4 1043   0.447   2.579   0.609  0.3994  0.0391  0.1054
  243SOL     OW 1044   0.056   0.728   0.265  0.0169 -0.4361  0.2051
  243SOL    HW2 1045  -0.038   0.721   0.250 -0.1199 -1.0285  1.2580
  243SOL    HW3 1046   0.069   0.691   0.353  1.1042  0.5050  0.4483
  243SOL    MW4 1047   0.045   0.722   0.275  0.1423 -0.3901  0.3761
  244SOL     OW 1048   0.015   0.197   0.597 -0.1258  0.4536 -0.3311
  244SOL    HW2 1049   0.107   0.206   0.570  0.6255  0.4954  2.0563
  244SOL    HW3 1050   0.007   0.104   0.620 -0.0761  0.8786  1.4593
  244SOL    MW4 1051   0.026   0.186   0.596 -0.0201  0.5152  0.2201
  245SOL     OW 1052   3.828   2.816   1.051  0.1329 -0.0667 -0.3922
  245SOL    HW2 1053   3.746   2.791   1.010 -0.8998  1.8652  0.4624
  245SOL    HW3 1054   3.816   2.797   1.144  0.2321  1.3015 -0.0954
  245SOL    MW4 1055   3.816   2.810   1.058  0.0098  0.3686 -0.2403
  246SOL     OW 1056   2.692   3.517   0.948  0.1204  0.0613 -0.2447
  246SOL    HW2 1057   2.606   3.552   0.971  0.6606  1.0086  0.3868
  246SOL    HW3 1058   2.684   3.422   0.959 -0.5284  0.2417  0.9002
  246SOL    MW4 1059   2.680   3.509   0.952  0.1063  0.2103 -0.0103
  247SOL     OW 1060   2.461   1.776   0.178  0.2778 -0.2963  0.1822
  247SOL    HW2 1061   2.451   1.870   0.195 -1.4972 -0.5182  0.4850
  247SOL    HW3 1062   2.373   1.741   0.188  1.2023 -2.2568  1.6373
  247SOL    MW4 1063   2.448   1.784   0.181  0.1655 -0.5841  0.4141
  248SOL     OW 1064   3.197   1.596   0.300  0.0178  0.1107 -0.3415
  248SOL    HW2 1065   3.245   1.513   0.301  2.2307  1.3724  0.7825
  248SOL    HW3 1066   3.265   1.663   0.296 -1.7715  1.8723 -2.1374
  248SOL    MW4 1067   3.212   1.594   0.299  0.0734  0.5095 -0.4302
  249SOL     OW 1068   0.417   1.629   1.034 -0.6128  0.1084 -0.2787
  249SOL    HW2 1069   0.399   1.637   1.128 -0.7211 -0.2644 -0.2659
  249SOL    HW3 1070   0.431   1.719   1.005  2.4494  0.0008  0.6957
  249SOL    MW4 1071   0.416   1.642   1.043 -0.2231  0.0449 -0.1484
  250SOL     OW 1072   1.832   4.310   0.702  0.0084  0.1100 -0.1023
  250SOL    HW2 1073   1.759   4.253   0.679 -0.5962  0.8692 -0.1022
  250SOL    HW3 1074   1.846   4.296   0.796  0.7258 -1.0024 -0.3657
  250SOL    MW4 1075   1.825   4.301   0.711  0.0234  0.0634 -0.1370
  251SOL     OW 1076   2.267   0.374   1.011  0.2318  0.2879 -0.1928
  251SOL    HW2 1077   2.260   0.390   0.916 -0.2077  2.2530  0.1504
  251SOL    HW3 1078   2.348   0.416   1.036 -0.5727  1.3663  0.6192
  251SOL    MW4 1079   2.276   0.381   1.002  0.0675  0.6894 -0.0404
  252SOL     OW 1080   1.403   4.320   0.289  0.4822 -0.1040  0.0141
  252SOL    HW2 1081   1.470   4.252   0.276 -0.1447 -0.5498 -1.0241
  252SOL    HW3 1082   1.322   4.271   0.300  0.2832  0.4431  0.9579
  252SOL    MW4 1083   1.402   4.305   0.288  0.3734 -0.0901  0.0017
  253SOL     OW 1084   2.864   3.692   0.388 -0.0447 -0.4334  1.0311
  253SOL    HW2 1085   2.934   3.627   0.398 -0.8412 -1.4878 -0.0810
  253SOL    HW3 1086   2.867   3.717   0.295 -0.3736  0.3998  1.2394
  253SOL    MW4 1087   2.873   3.686   0.377 -0.1934 -0.4628  0.9118
  254SOL     OW 1088   0.049   4.365   0.505 -0.4197 -0.6505 -0.2539
  254SOL    HW2 1089   0.042   4.281   0.549  0.7923  0.2359  1.7146
  254SOL    HW3 1090   0.111   4.351   0.434  2.0168 -0.7343  1.8467
  254SOL    MW4 1091   0.056   4.352   0.501  0.0617 -0.5445  0.2830
  255SOL     OW 1092   1.881   1.021   0.449  0.0435  0.3835  0.2774
  255SOL    HW2 1093   1.876   0.932   0.414 -0.3921  0.3978  0.2991
  255SOL    HW3 1094   1.973   1.033   0.471  0.0240 -0.2210  0.6888
  255SOL    MW4 1095   1.893   1.011   0.447 -0.0167  0.3057  0.3345
  256SOL     OW 1096   1.596   4.183   0.586 -0.5073  0.3399  0.0827
  256SOL    HW2 1097   1.516   4.231   0.608 -0.3285  0.3495  0.7160
  256SOL    HW3 1098   1.599   4.111   0.649 -0.1051  0.2426 -0.0484
  256SOL    MW4 1099   1.585   4.180   0.597 -0.4306  0.3281  0.1490
  257SOL     OW 1100   0.916   0.576   0.612  0.2420 -0.4729  0.1910
  257SOL    HW2 1101   0.914   0.492   0.656  2.0057 -0.5711  0.1361
  257SOL    HW3 1102   0.922   0.554   0.519 -0.7894 -0.2769  0.0743
  257SOL    MW4 1103   0.917   0.562   0.605  0.3386 -0.4600  0.1684
  258SOL     OW 1104   2.680   4.264   0.742 -0.2505 -0.5933 -0.5215
  258SOL    HW2 1105   2.763   4.246   0.699 -0.6441 -0.1900 -1.4621
  258SOL    HW3 1106   2.625   4.189   0.721  0.0883 -1.1895  0.6736
  258SOL    MW4 1107   2.683   4.252   0.733 -0.2577 -0.6185 -0.4879
  259SOL     OW 1108   4.455   1.530   0.313  0.2068 -0.7566  0.5972
  259SOL    HW2 1109   4.445   1.592   0.385 -0.7262  0.3326 -0.4533
  259SOL    HW3 1110   4.547   1.536   0.288  0.5130 -1.0782  1.6339
  259SOL    MW4 1111   4.466   1.539   0.319  0.1245 -0.6552  0.5954
  260SOL     OW 1112   0.016   4.588   0.674 -0.1450  0.7621 -0.1771
  260SOL    HW2 1113  -0.073   4.576   0.707 -0.2586  0.5180 -0.5725
  260SOL    HW3 1114   0.037   4.506   0.630  0.6492  0.4465  0.7810
  260SOL    MW4 1115   0.007   4.576   0.673 -0.0548  0.6886 -0.1029
  261SOL     OW 1116   2.458   1.565   0.974 -0.6317 -0.6258  0.1935
  261SOL    HW2 1117   2.476   1.558   0.880 -1.0280 -1.2041  0.1589
  261SOL    HW3 1118   2.467   1.476   1.007  1.4998 -0.1071  1.0713
  261SOL    MW4 1119   2.461   1.552   0.966 -0.4029 -0.6337  0.3048
  262SOL     OW 1120   3.063   2.077   0.601 -0.3857 -0.2909  0.0802
  262SOL    HW2 1121   3.085   2.170   0.593 -2.2483  0.1345 -0.4283
  262SOL    HW3 1122   3.089   2.039   0.516  1.7831 -0.5609  0.8435
  262SOL    MW4 1123   3.069   2.084   0.588 -0.3452 -0.2701  0.1138
  263SOL     OW 1124   0.895   1.408   0.623  0.3905 -0.1746 -0.4544
  263SOL    HW2 1125   0.818   1.459   0.652  1.0487  0.2160  0.6511
  263SOL    HW3 1126   0.970   1.460   0.652  1.0774 -0.4747 -1.6850
  263SOL    MW4 1127   0.894   1.422   0.631  0.5679 -0.1626 -0.4709
  264SOL     OW 1128   1.868   0.746   0.367  0.4735  0.1468 -0.4261
  264SOL    HW2 1129   1.858   0.698   0.449 -1.3971 -0.7899 -1.1724
  264SOL    HW3 1130   1.960   0.735   0.343  0.6713 -0.8206  0.7808
  264SOL    MW4 1131   1.879   0.739   0.374  0.2527 -0.1044 -0.3653
  265SOL     OW 1132   2.803   1.210   0.722  0.6077  0.1333 -0.3027
  265SOL    HW2 1133   2.837   1.124   0.700  0.9968  0.2850 -0.3130
  265SOL    HW3 1134   2.764   1.199   0.809  1.8562  0.2543  0.2836
  265SOL    MW4 1135   2.803   1.197   0.731  0.8240  0.1692 -0.2266
  266SOL     OW 1136   4.030   3.834   0.216 -0.1857  0.3895  0.2936
  266SOL    HW2 1137   3.974   3.780   0.272  1.1938 -0.8868  0.4843
  266SOL    HW3 1138   3.990   3.828   0.129 -0.6312 -0.0921  0.5295
  266SOL    MW4 1139   4.017   3.826   0.212 -0.0629  0.1576  0.3499
  267SOL     OW 1140   3.382   3.161   0.130  0.1461 -0.2325  0.3862
  267SOL    HW2 1141   3.447   3.118   0.185  0.7298  2.2311  1.7238
  267SOL    HW3 1142   3.429   3.184   0.050  0.6806  0.6192  0.9315
  267SOL    MW4 1143   3.396   3.158   0.127  0.2935  0.2050  0.6346
  268SOL     OW 1144   2.444   3.385   0.403 -0.6775 -0.6415 -0.5553
  268SOL    HW2 1145   2.514   3.430   0.356  0.5876 -1.9789  0.0002
  268SOL    HW3 1146   2.444   3.296   0.365  0.0393 -1.5870  1.5854
  268SOL    MW4 1147   2.453   3.379   0.392 -0.4160 -0.9427 -0.1996
  269SOL     OW 1148   0.632   2.170   0.371 -0.6609 -0.1907 -0.3854
  269SOL    HW2 1149   0.569   2.205   0.434 -0.9913  0.7246 -1.2115
  269SOL    HW3 1150   0.700   2.237   0.366 -0.1910 -0.6612 -0.3541
  269SOL    MW4 1151   0.633   2.183   0.379 -0.6425 -0.1321 -0.4903
  270SOL     OW 1152   2.079   1.189   0.127 -0.1429  0.0377  0.0399
  270SOL    HW2 1153   1.993   1.207   0.089  0.3277 -0.5630 -1.3313
  270SOL    HW3 1154   2.103   1.271   0.170 -0.6374  0.7873 -1.0823
  270SOL    MW4 1155   2.071   1.203   0.128 -0.1462  0.0572 -0.2891
  271SOL     OW 1156   2.468   2.286   0.975  0.7153 -0.1754  0.0826
  271SOL    HW2 1157   2.537   2.330   1.025  0.4321 -0.0074  0.3286
  271SOL    HW3 1158   2.461   2.200   1.014  0.9311 -0.2705 -0.0827
  271SOL    MW4 1159   2.476   2.281   0.987  0.7067 -0.1655  0.0933
  272SOL     OW 1160   0.447   0.358   0.954 -0.3151 -0.5695 -0.2078
  272SOL    HW2 1161   0.448   0.368   0.858  0.7621 -0.9832 -0.2406
  272SOL    HW3 1162   0.374   0.413   0.982  0.1779  0.6036 -1.1574
  272SOL    MW4 1163   0.438   0.367   0.945 -0.1079 -0.4693 -0.3374
  273SOL     OW 1164   1.603   4.663   1.025 -0.1257  0.1369  0.4232
  273SOL    HW2 1165   1.584   4.576   1.062  2.3582 -0.6399 -0.0166
  273SOL    HW3 1166   1.521   4.711   1.034 -0.9436 -1.5685  2.6131
  273SOL    MW4 1167   1.590   4.658   1.031  0.0939 -0.1906  0.6541
  274SOL     OW 1168   3.562   3.747   0.258  0.5497 -0.5410  0.0492
  274SOL    HW2 1169   3.504   3.694   0.313  1.0433 -0.2633  0.8653
  274SOL    HW3 1170   3.559   3.834   0.298 -0.5663  0.1450 -1.5233
  274SOL    MW4 1171   3.554   3.752   0.271  0.4675 -0.4139 -0.0505
  275SOL     OW 1172   4.179   0.305   0.703 -0.2105  0.3944 -0.5355
  275SOL    HW2 1173   4.142   0.381   0.658 -0.7138  1.3955  1.5010
  275SOL    HW3 1174   4.274   0.316   0.693 -0.2491  1.7620  0.4583
  275SOL    MW4 1175   4.187   0.317   0.696 -0.2818  0.7069 -0.1357
  276SOL     OW 1176   0.190   0.759   0.960  0.2831 -0.0610  0.4693
  276SOL    HW2 1177   0.108   0.793   0.997 -0.4328 -1.2411  0.0240
  276SOL    HW3 1178   0.259   0.811   1.002 -0.7488  1.8028 -0.0680
  276SOL    MW4 1179   0.188   0.770   0.970  0.0526  0.0292  0.3397
  277SOL     OW 1180   2.027   1.557   1.023  0.0858  0.0697 -0.2458
  277SOL    HW2 1181   2.102   1.613   1.043  0.3493 -0.0380 -0.9078
  277SOL    HW3 1182   1.954   1.598   1.069  0.3507  0.7581 -0.4324
  277SOL    MW4 1183   2.027   1.570   1.031  0.1554  0.1464 -0.3577
  278SOL     OW 1184   1.626   3.945   0.727 -0.2506  0.1387  0.4803
  278SOL    HW2 1185   1.623   3.926   0.820 -1.6655  0.8110  0.5793
  278SOL    HW3 1186   1.546   3.907   0.691  0.1342  0.1535 -0.4121
  278SOL    MW4 1187   1.615   3.938   0.734 -0.3865  0.2296  0.3756
  279SOL     OW 1188   2.179   1.697   0.190  0.0625 -0.0253 -0.0921
  279SOL    HW2 1189   2.141   1.775   0.229  1.0656  1.3159 -1.7342
  279SOL    HW3 1190   2.135   1.687   0.105  1.1704 -0.2185 -0.6598
  279SOL    MW4 1191   2.168   1.706   0.184  0.3409  0.1262 -0.3836
  280SOL     OW 1192   3.802   2.018   0.379 -0.1685 -0.3064  0.6082
  280SOL    HW2 1193   3.776   2.093   0.325  0.7491 -1.0452 -0.8898
  280SOL    HW3 1194   3.768   1.942   0.332  0.6379 -0.9620  1.0784
  280SOL    MW4 1195   3.794   2.018   0.365  0.0589 -0.4904  0.4726
  281SOL     OW 1196   1.342   1.168   1.022 -0.3674  0.0186 -0.1252
  281SOL    HW2 1197   1.350   1.078   1.053  0.5418  0.3349  0.6025
  281SOL    HW3 1198   1.331   1.160   0.927  0.1436 -0.8456 -0.1215
  281SOL    MW4 1199   1.342   1.155   1.013 -0.1800 -0.0536 -0.0287
  282SOL     OW 1200   3.882   3.382   0.422  0.0447 -0.2995 -0.2826
  282SOL    HW2 1201   3.913   3.367   0.511 -1.1733  1.6732  0.4904
  282SOL    HW3 1202   3.923   3.313   0.371  2.4271 -0.2258  1.4463
  282SOL    MW4 1203   3.892   3.371   0.427  0.1984 -0.0296  0.0475
  283SOL     OW 1204   4.356   0.883   0.591 -0.0111  0.1306  0.3851
  283SOL    HW2 1205   4.332   0.918   0.505  0.7667  0.1042  0.1518
  283SOL    HW3 1206   4.384   0.960   0.641  1.4282 -0.1005 -0.0358
  283SOL    MW4 1207   4.357   0.898   0.586  0.2818  0.0967  0.2987
  284SOL     OW 1208   3.620   3.488   0.989  0.5871  0.1844  0.3016
  284SOL    HW2 1209   3.607   3.401   1.027 -0.0597 -0.2280 -0.8430
  284SOL    HW3 1210   3.546   3.540   1.021  0.2079 -0.0786 -0.1468
  284SOL    MW4 1211   3.609   3.484   0.999  0.4518  0.0951  0.0915
  285SOL     OW 1212   1.931   2.793   0.320  0.7353 -0.0322 -0.0228
  285SOL    HW2 1213   1.952   2.873   0.271 -0.4500  0.2195 -0.1371
  285SOL    HW3 1214   2.011   2.741   0.317  2.0089  1.8197  1.3497
  285SOL    MW4 1215   1.944   2.797   0.313  0.7470  0.2453  0.1432
  286SOL     OW 1216   3.808   1.066   0.586 -0.1359 -0.5260 -0.1195
  286SOL    HW2 1217   3.754   1.142   0.562 -0.8179 -0.5680  1.2348
  286SOL    HW3 1218   3.879   1.104   0.637 -0.2215 -0.7467  0.1614
  286SOL    MW4 1219   3.810   1.081   0.590 -0.2372 -0.5606  0.0962
  287SOL     OW 1220   1.831   2.732   1.015 -0.3247  0.3656  0.2432
  287SOL    HW2 1221   1.848   2.725   0.921  1.7984 -1.4007  0.7013
  287SOL    HW3 1222   1.908   2.777   1.050  0.4883 -1.9311  1.5357
  287SOL    MW4 1223   1.844   2.737   1.007  0.0626 -0.1705  0.4742
  288SOL     OW 1224   1.588   0.759   0.988  0.4126  0.1816 -0.7138
  288SOL    HW2 1225   1.594   0.674   1.030  1.4066  0.2531 -0.7045
  288SOL    HW3 1226   1.656   0.812   1.030 -0.4489  1.1056 -0.4403
  288SOL    MW4 1227   1.598   0.755   0.999  0.4300  0.3130 -0.6765
  289SOL     OW 1228   1.084   1.799   0.613 -0.0787 -0.0843 -0.1078
  289SOL    HW2 1229   1.083   1.720   0.668 -2.3575  0.6128  0.9145
  289SOL    HW3 1230   1.017   1.783   0.547 -1.5233  1.5084  0.9172
  289SOL    MW4 1231   1.075   1.786   0.612 -0.5699  0.2178  0.1623
  290SOL     OW 1232   2.897   0.211   0.533 -0.1232 -0.1255  0.3297
  290SOL    HW2 1233   2.906   0.136   0.592  0.7622 -1.2587 -1.2138
  290SOL    HW3 1234   2.964   0.273   0.563  0.7203 -0.9430  0.1515
  290SOL    MW4 1235   2.907   0.209   0.545  0.1049 -0.3829  0.1025
  291SOL     OW 1236   3.590   1.531   0.226 -0.4941  0.5096 -0.1541
  291SOL    HW2 1237   3.579   1.517   0.320 -0.3880  1.1465 -0.0438
  291SOL    HW3 1238   3.597   1.443   0.189  0.0044  0.2736  0.4991
  291SOL    MW4 1239   3.590   1.518   0.234 -0.4144  0.5625 -0.0534
  292SOL     OW 1240   3.452   1.115   0.740 -0.3417  0.0486  0.3617
  292SOL    HW2 1241   3.495   1.057   0.677 -0.1722 -0.5294  0.9941
  292SOL    HW3 1242   3.506   1.108   0.819 -1.0507  0.0666  0.8508
  292SOL    MW4 1243   3.465   1.106   0.742 -0.4132 -0.0253  0.5097
  293SOL     OW 1244   4.076   4.068   0.632 -0.4575  0.5607 -0.5328
  293SOL    HW2 1245   3.988   4.062   0.595 -0.7024  0.1016  0.1266
  293SOL    HW3 1246   4.132   4.028   0.565 -0.9552 -0.6865 -0.2175
  293SOL    MW4 1247   4.072   4.062   0.618 -0.5550  0.3352 -0.4042
  294SOL     OW 1248   3.004   3.460   0.380 -0.3788  0.4479 -0.1174
  294SOL    HW2 1249   3.089   3.434   0.346 -0.9119  0.1750 -1.2719
  294SOL    HW3 1250   3.006   3.435   0.472  0.8994  0.7304 -0.0652
  294SOL    MW4 1251   3.015   3.453   0.388 -0.2806  0.4492 -0.2629
  295SOL     OW 1252   2.913   4.293   0.336 -0.0444 -0.0673  0.1262
  295SOL    HW2 1253   2.832   4.330   0.300  0.1044 -1.2137 -1.4014
  295SOL    HW3 1254   2.973   4.368   0.341  0.1138  0.0254 -2.5245
  295SOL    MW4 1255   2.910   4.308   0.332 -0.0038 -0.2065 -0.4251
  296SOL     OW 1256   0.910   3.212   1.116  0.0886 -0.2194 -0.2554
  296SOL    HW2 1257   0.989   3.172   1.081  0.4052  0.4169 -0.2816
  296SOL    HW3 1258   0.838   3.163   1.076  0.4434 -2.7080  1.9698
  296SOL    MW4 1259   0.911   3.200   1.106  0.1772 -0.4637  0.0347
  297SOL     OW 1260   1.974   1.836   0.556  0.1299 -0.2383 -0.1852
  297SOL    HW2 1261   1.997   1.757   0.605 -0.1063 -0.7156 -0.8307
  297SOL    HW3 1262   1.909   1.880   0.611 -0.7768 -1.2136 -0.4500
  297SOL    MW4 1263   1.968   1.831   0.569 -0.0207 -0.4300 -0.3053
  298SOL     OW 1264   3.167   1.083   0.725 -0.1332 -0.1353 -0.4257
  298SOL    HW2 1265   3.261   1.093   0.740 -0.3215 -0.5630  1.1504
  298SOL    HW3 1266   3.155   0.988   0.714 -0.5753 -0.2633  0.9755
  298SOL    MW4 1267   3.178   1.072   0.726 -0.2162 -0.2087 -0.0328
  299SOL     OW 1268   1.800   1.978   0.696 -0.9066 -0.0243 -0.0440
  299SOL    HW2 1269   1.835   2.064   0.721  0.4374 -0.4190 -0.4983
  299SOL    HW3 1270   1.738   1.997   0.626  0.0693  0.5160 -0.7900
  299SOL    MW4 1271   1.797   1.992   0.690 -0.6005 -0.0051 -0.2024
  300SOL     OW 1272   0.701   3.067   0.965 -0.5759  0.1207 -0.2033
  300SOL    HW2 1273   0.695   2.991   1.023  0.5815  0.1988  0.0298
  300SOL    HW3 1274   0.619   3.114   0.979 -0.7766 -0.4412  0.5696
  300SOL    MW4 1275   0.689   3.063   0.975 -0.4497  0.0570 -0.0706
  301SOL     OW 1276   2.459   1.539   0.702  0.4762  0.9326 -0.0284
  301SOL    HW2 1277   2.367   1.534   0.676  0.3309  1.1204  0.4368
  301SOL    HW3 1278   2.493   1.451   0.687 -0.5135  0.0862  2.4412
  301SOL    MW4 1279   2.452   1.527   0.697  0.3264  0.8458  0.3589
  302SOL     OW 1280   2.469   3.597   0.598  0.1963 -0.0177  0.7791
  302SOL    HW2 1281   2.460   3.530   0.530  1.6057 -0.0120  0.5659
  302SOL    HW3 1282   2.558   3.587   0.630 -0.0815  0.7582  1.8148
  302SOL    MW4 1283   2.480   3.587   0.593  0.3457  0.0854  0.8877
  303SOL     OW 1284   3.996   3.767   0.753  0.0791 -0.2713 -0.0880
  303SOL    HW2 1285   3.950   3.798   0.831  0.8750  0.5373  0.0745
  303SOL    HW3 1286   3.928   3.756   0.687 -0.5047 -0.2565  0.5098
  303SOL    MW4 1287   3.981   3.770   0.755  0.1068 -0.1624  0.0123
  304SOL     OW 1288   0.217   3.566   0.241  0.1631  0.1047  0.0881
  304SOL    HW2 1289   0.311   3.564   0.222 -0.0772  1.5802 -1.4258
  304SOL    HW3 1290   0.208   3.525   0.327  2.2540  0.4160  0.4760
  304SOL    MW4 1291   0.228   3.561   0.250  0.4072  0.3402 -0.0605
  305SOL     OW 1292   0.620   3.252   0.520 -0.1771  0.0975  0.3499
  305SOL    HW2 1293   0.661   3.212   0.597  1.1149 -0.7506 -0.7736
  305SOL    HW3 1294   0.631   3.346   0.534  2.1510 -0.1120  0.0666
  305SOL    MW4 1295   0.626   3.259   0.532  0.3006 -0.0424  0.1643
  306SOL     OW 1296   3.783   1.641   0.732  0.1548  0.3771 -0.0210
  306SOL    HW2 1297   3.810   1.589   0.656  1.0416  0.9517 -0.1065
  306SOL    HW3 1298   3.787   1.580   0.806 -0.2973 -0.0717 -0.3586
  306SOL    MW4 1299   3.787   1.626   0.731  0.2122  0.3936 -0.0769
  307SOL     OW 1300   2.770   2.176   0.746 -0.5635  0.0156 -0.2831
  307SOL    HW2 1301   2.822   2.230   0.805 -0.4646 -0.2298 -0.1466
  307SOL    HW3 1302   2.680   2.187   0.776 -0.6344  0.7179 -0.7363
  307SOL    MW4 1303   2.765   2.185   0.758 -0.5598  0.0761 -0.3249
  308SOL     OW 1304   1.117   3.500   0.615  0.2702  0.1082  0.0348
  308SOL    HW2 1305   1.050   3.443   0.651 -1.8864  2.3091 -0.3721
  308SOL    HW3 1306   1.136   3.464   0.529 -1.6834  0.4457 -0.5638
  308SOL    MW4 1307   1.111   3.488   0.608 -0.2722  0.4432 -0.0979
  309SOL     OW 1308   2.230   2.916   0.318 -0.0586  0.2012 -0.0389
  309SOL    HW2 1309   2.148   2.966   0.313 -0.8351 -1.2223 -2.5143
  309SOL    HW3 1310   2.250   2.912   0.411 -2.8727  0.4772  0.6231
  309SOL    MW4 1311   2.222   2.922   0.330 -0.5324  0.0496 -0.2781
  310SOL     OW 1312   3.411   4.651   0.933  0.1820  0.2081 -0.0106
  310SOL    HW2 1313   3.473   4.692   0.993 -1.6034  1.1627  1.2462
  310SOL    HW3 1314   3.328   4.695   0.951 -1.0198 -1.5310 -1.1371
  310SOL    MW4 1315   3.408   4.662   0.944 -0.2122  0.1044  0.0067
  311SOL     OW 1316   2.254   1.234   0.717  0.2469 -0.3160  0.0664
  311SOL    HW2 1317   2.348   1.239   0.698  0.1746  0.4877 -0.0926
  311SOL    HW3 1318   2.220   1.171   0.654  0.6430 -0.4305 -0.0356
  311SOL    MW4 1319   2.262   1.226   0.706  0.2897 -0.2249  0.0319
  312SOL     OW 1320   0.666   1.112   0.528  0.5991 -0.3754  0.2618
  312SOL    HW2 1321   0.681   1.030   0.481  1.9127 -0.5019  0.8636
  312SOL    HW3 1322   0.587   1.096   0.580  0.5626 -1.0889 -0.0066
  312SOL    MW4 1323   0.658   1.099   0.529  0.7675 -0.4863  0.3058
  313SOL     OW 1324   3.694   2.023   0.634 -0.2781  0.3977  0.0184
  313SOL    HW2 1325   3.712   2.026   0.540 -0.8162  2.1644 -0.0427
  313SOL    HW3 1326   3.766   1.971   0.670  0.9952  1.3129 -1.1219
  313SOL    MW4 1327   3.706   2.016   0.626 -0.1810  0.7520 -0.1401
  314SOL     OW 1328   0.917   2.458   1.055  0.2165 -0.0953 -0.0571
  314SOL    HW2 1329   0.915   2.439   1.148  0.0102  1.0981  0.1904
  314SOL    HW3 1330   0.845   2.407   1.018  0.7427 -1.1167  0.3219
  314SOL    MW4 1331   0.907   2.449   1.062  0.2587 -0.0727  0.0256
  315SOL     OW 1332   3.094   4.513   0.388  0.0888 -0.5128  0.0564
  315SOL    HW2 1333   3.047   4.588   0.353 -0.4657 -0.5966  0.6093
  315SOL    HW3 1334   3.183   4.522   0.355  0.3751  1.1134  1.2132
  315SOL    MW4 1335   3.100   4.524   0.379  0.0536 -0.3090  0.2820
  316SOL     OW 1336   0.937   3.050   0.463 -0.0814 -0.4010  0.0831
  316SOL    HW2 1337   0.914   3.070   0.554 -0.1120  0.6797 -0.1596
  316SOL    HW3 1338   0.853   3.050   0.417  0.0678  0.2922 -0.1852
  316SOL    MW4 1339   0.923   3.053   0.469 -0.0657 -0.1671  0.0157
  317SOL     OW 1340   0.026   0.654   0.539  0.4022  0.3463 -0.4989
  317SOL    HW2 1341   0.107   0.671   0.588 -0.3581  0.0241  0.8824
  317SOL    HW3 1342  -0.029   0.731   0.555  0.5148  0.6897 -1.6558
  317SOL    MW4 1343   0.030   0.667   0.547  0.3167  0.3490 -0.4694
  318SOL     OW 1344   2.490   0.763   0.691 -0.4741  0.1659  0.0810
  318SOL    HW2 1345   2.555   0.695   0.674  0.7585  1.6588 -1.2778
  318SOL    HW3 1346   2.487   0.770   0.786  0.7086 -0.5303  0.1779
  318SOL    MW4 1347   2.498   0.755   0.701 -0.1557  0.2710 -0.0855
  319SOL     OW 1348   0.039   2.306   0.264 -0.0305  0.2177  0.0691
  319SOL    HW2 1349   0.029   2.333   0.356 -0.9597 -0.8939  0.3164
  319SOL    HW3 1350   0.054   2.211   0.269  0.8814  0.3060 -0.8832
  319SOL    MW4 1351   0.039   2.297   0.277 -0.0327  0.0825 -0.0239
  320SOL     OW 1352   3.632   4.005   1.022 -0.2255 -0.2757  0.0824
  320SOL    HW2 1353   3.713   3.959   0.997  0.1612  0.6929 -0.4587
  320SOL    HW3 1354   3.632   4.001   1.118  0.2157 -0.7099  0.0695
  320SOL    MW4 1355   3.643   3.998   1.032 -0.1159 -0.2050  0.0093
  321SOL     OW 1356   3.270   3.551   0.729  0.2865  0.0553 -0.0859
  321SOL    HW2 1357   3.263   3.644   0.705  0.3677 -0.1137 -0.7652
  321SOL    HW3 1358   3.183   3.515   0.715  0.3789 -0.0866 -0.2938
  321SOL    MW4 1359   3.258   3.559   0.724  0.3095  0.0143 -0.2030
  322SOL     OW 1360   0.821   4.605   0.327  0.2006 -0.0476 -0.4767
  322SOL    HW2 1361   0.913   4.626   0.310  0.3901 -1.1171 -0.7633
  322SOL    HW3 1362   0.774   4.685   0.304  0.9826  0.2515 -1.0496
  322SOL    MW4 1363   0.827   4.618   0.322  0.3287 -0.1493 -0.5901
  323SOL     OW 1364   2.689   4.453   0.313  0.4643 -0.0220  0.3160
  323SOL    HW2 1365   2.691   4.474   0.407  0.8283 -2.7081  0.9457
  323SOL    HW3 1366   2.612   4.398   0.302  0.0120  0.8674 -1.1295
  323SOL    MW4 1367   2.679   4.449   0.324  0.4528 -0.2594  0.2083
  324SOL     OW 1368   1.838   0.068   0.364  0.0820 -0.4399 -0.2194
  324SOL    HW2 1369   1.821   0.045   0.455 -0.6425  0.1142 -0.2054
  324SOL    HW3 1370   1.890   0.148   0.369 -0.9294  0.2434 -0.2824
  324SOL    MW4 1371   1.842   0.076   0.377 -0.1471 -0.2766 -0.2258
  325SOL     OW 1372   4.113   0.047   0.700 -0.1057 -0.4860 -0.1930
  325SOL    HW2 1373   4.128   0.020   0.610  1.7477 -0.6437  0.1510
  325SOL    HW3 1374   4.139   0.139   0.702  0.6179 -0.7055  0.3789
  325SOL    MW4 1375   4.118   0.056   0.689  0.2341 -0.5358 -0.0722
  326SOL     OW 1376   3.459   2.243   0.352  0.2642 -0.0615 -0.2972
  326SOL    HW2 1377   3.368   2.273   0.347 -0.8143 -2.6259  2.9441
  326SOL    HW3 1378   3.495   2.289   0.428  1.4017  0.1202 -0.9305
  326SOL    MW4 1379   3.452   2.253   0.361  0.2723 -0.3757  0.0469
  327SOL     OW 1380   3.605   3.230   1.078 -0.3277 -0.0878  0.4661
  327SOL    HW2 1381   3.595   3.213   1.171  0.6582  0.0019  0.5981
  327SOL    HW3 1382   3.670   3.166   1.049  1.7799  1.9478  0.5144
  327SOL    MW4 1383   3.613   3.219   1.086  0.0806  0.1929  0.4901
  328SOL     OW 1384   3.576   3.034   0.340  0.1888  0.1960 -0.6603
  328SOL    HW2 1385   3.671   3.045   0.348  0.1925  0.8610 -1.4603
  328SOL    HW3 1386   3.564   2.940   0.325  0.6639  0.0029  0.1202
  328SOL    MW4 1387   3.587   3.023   0.339  0.2520  0.2582 -0.6628
  329SOL     OW 1388   0.439   3.988   0.335 -0.5012  0.1090 -0.2854
  329SOL    HW2 1389   0.517   4.039   0.357 -1.1122 -0.2608  2.9321
  329SOL    HW3 1390   0.469   3.897   0.334 -0.6513  0.0575 -0.1660
  329SOL    MW4 1391   0.453   3.983   0.338 -0.6016  0.0532  0.1549
  330SOL     OW 1392   3.751   1.768   0.242 -0.2111  0.4636 -0.0981
  330SOL    HW2 1393   3.840   1.732   0.253  0.3050  1.2138 -1.6971
  330SOL    HW3 1394   3.699   1.693   0.214  0.1144  0.2008 -0.0107
  330SOL    MW4 1395   3.756   1.753   0.240 -0.1001  0.5277 -0.2975
  331SOL     OW 1396   2.759   1.393   0.329 -0.0282 -0.2344 -0.0507
  331SOL    HW2 1397   2.669   1.360   0.336 -0.0016 -0.3089 -0.0641
  331SOL    HW3 1398   2.748   1.487   0.316 -0.1506 -0.3947 -1.2466
  331SOL    MW4 1399   2.745   1.401   0.328 -0.0408 -0.2654 -0.2102
  332SOL     OW 1400   3.682   0.221   0.319  0.3096  0.8721  0.3813
  332SOL    HW2 1401   3.747   0.152   0.305  0.1316  0.6307  0.7442
  332SOL    HW3 1402   3.724   0.300   0.283  1.1357  0.8729  1.3011
  332SOL    MW4 1403   3.696   0.223   0.313  0.3953  0.8403  0.5506
  333SOL     OW 1404   2.990   3.467   0.681  0.0356 -0.1581 -0.0218
  333SOL    HW2 1405   2.984   3.373   0.697 -0.4934  0.2895  2.7081
  333SOL    HW3 1406   2.901   3.499   0.693  0.3026  0.7690 -0.4386
  333SOL    MW4 1407   2.977   3.459   0.685  0.0010  0.0231  0.2834
  334SOL     OW 1408   1.214   2.207   0.710  0.2844 -0.2788  0.3475
  334SOL    HW2 1409   1.186   2.231   0.799  1.1729  0.0542  0.5435
  334SOL    HW3 1410   1.258   2.285   0.677  2.8916 -1.4704  0.8614
  334SOL    MW4 1411   1.216   2.220   0.718  0.7457 -0.3922  0.4411
  335SOL     OW 1412   3.426   3.642   1.082 -0.1418 -0.0561  0.1572
  335SOL    HW2 1413   3.340   3.604   1.065  0.2209 -0.8588  0.0993
  335SOL    HW3 1414   3.430   3.720   1.027 -0.7354 -0.1557 -0.0226
  335SOL    MW4 1415   3.415   3.647   1.073 -0.1719 -0.1752  0.1258
  336SOL     OW 1416   0.505   3.493   0.241 -0.1574 -0.3819  0.2064
  336SOL    HW2 1417   0.476   3.417   0.292 -0.1756 -0.5229 -0.0094
  336SOL    HW3 1418   0.582   3.461   0.193 -0.6166 -0.4920 -0.4698
  336SOL    MW4 1419   0.511   3.479   0.241 -0.2204 -0.4148  0.0888
  337SOL     OW 1420   3.188   2.398   0.311 -0.0792  0.1064 -0.2530
  337SOL    HW2 1421   3.112   2.381   0.256 -0.2396  0.2129 -0.0632
  337SOL    HW3 1422   3.205   2.491   0.301  1.3385 -0.3046 -1.9878
  337SOL    MW4 1423   3.181   2.408   0.303  0.0865  0.0663 -0.4568
  338SOL     OW 1424   0.018   2.362   0.534 -0.2604 -0.3321  0.5226
  338SOL    HW2 1425   0.038   2.452   0.557 -2.9036  0.4044  0.0939
  338SOL    HW3 1426  -0.054   2.338   0.592 -0.9691 -1.4653 -0.7880
  338SOL    MW4 1427   0.011   2.370   0.545 -0.7026 -0.3843  0.2931
  339SOL     OW 1428   2.724   0.776   0.238  0.0451 -0.0070  0.0439
  339SOL    HW2 1429   2.676   0.805   0.315 -0.1051  0.5638 -0.2627
  339SOL    HW3 1430   2.750   0.686   0.258 -2.8327 -1.0349 -0.5544
  339SOL    MW4 1431   2.721   0.768   0.251 -0.3543 -0.0673 -0.0755
  340SOL     OW 1432   3.572   0.928   0.544  0.0820 -0.0647 -0.2104
  340SOL    HW2 1433   3.664   0.954   0.545  0.4672 -1.3702 -0.0044
  340SOL    HW3 1434   3.567   0.856   0.606 -1.2584  0.5470  0.4076
  340SOL    MW4 1435   3.583   0.922   0.552 -0.0441 -0.1562 -0.1017
  341SOL     OW 1436   1.126   4.358   1.063 -0.0386 -0.2031  0.0650
  341SOL    HW2 1437   1.128   4.450   1.038 -2.7613 -0.2705 -0.6078
  341SOL    HW3 1438   1.121   4.359   1.158  1.4896  0.2891  0.1507
  341SOL    MW4 1439   1.125   4.370   1.072 -0.1960 -0.1469 -0.0126
  342SOL     OW 1440   2.698   3.902   0.056  0.3182 -0.8933 -0.2976
  342SOL    HW2 1441   2.647   3.920  -0.023 -0.6013  0.3624  0.5695
  342SOL    HW3 1442   2.635   3.860   0.115  0.2292  0.7587  0.8188
  342SOL    MW4 1443   2.683   3.899   0.053  0.1850 -0.5097 -0.0359
  343SOL     OW 1444   4.255   0.947   0.356  0.1337  0.3162  0.1476
  343SOL    HW2 1445   4.163   0.958   0.377  0.2817 -0.7289  1.3556
  343SOL    HW3 1446   4.277   1.026   0.305 -1.6600  0.0715 -1.0644
  343SOL    MW4 1447   4.246   0.959   0.352 -0.0834  0.1460  0.1470
  344SOL     OW 1448   1.544   1.674   0.460  0.1389 -0.0595 -0.0206
  344SOL    HW2 1449   1.452   1.687   0.437  0.3284  2.2477  0.3253
  344SOL    HW3 1450   1.581   1.762   0.458  2.4263 -1.0031 -0.4893
  344SOL    MW4 1451   1.537   1.688   0.457  0.4655  0.1203 -0.0367
  345SOL     OW 1452   0.169   1.351   0.534 -0.2058  0.0830 -0.0463
  345SOL    HW2 1453   0.172   1.315   0.446 -0.2132  0.4290 -0.1906
  345SOL    HW3 1454   0.099   1.302   0.578  0.5686 -0.8794  0.1261
  345SOL    MW4 1455   0.160   1.340   0.528 -0.1046  0.0015 -0.0426
  346SOL     OW 1456   3.787   2.318   0.989  0.2656  0.4582  0.0595
  346SOL    HW2 1457   3.791   2.312   0.894  1.9207 -2.4573  0.2382
  346SOL    HW3 1458   3.878   2.332   1.016  0.4197 -2.5900  1.3366
  346SOL    MW4 1459   3.800   2.319   0.980  0.5043 -0.3285  0.2517
  347SOL     OW 1460   0.604   2.089   0.756  0.3418 -0.0900 -0.1529
  347SOL    HW2 1461   0.591   2.124   0.844 -0.8888  0.2053 -0.4490
  347SOL    HW3 1462   0.691   2.049   0.759  0.9762  1.3085  0.7446
  347SOL    MW4 1463   0.614   2.089   0.768  0.2632  0.1333 -0.0735
  348SOL     OW 1464   0.871   4.553   0.607 -0.3094 -0.1240 -0.3086
  348SOL    HW2 1465   0.845   4.551   0.515 -2.7200  1.4188  0.2793
  348SOL    HW3 1466   0.838   4.471   0.643  0.5818 -0.7019 -0.7789
  348SOL    MW4 1467   0.863   4.542   0.600 -0.5098  0.0033 -0.2930
  349SOL     OW 1468   0.679   2.881   0.597 -0.4480 -0.0536 -0.3992
  349SOL    HW2 1469   0.608   2.857   0.657 -0.4462  0.9491  0.0151
  349SOL    HW3 1470   0.642   2.871   0.510 -0.6819 -0.8069 -0.2187
  349SOL    MW4 1471   0.665   2.877   0.593 -0.4786 -0.0203 -0.3206
  350SOL     OW 1472   0.875   1.898   0.991  0.5172  0.4522 -0.4551
  350SOL    HW2 1473   0.798   1.941   1.027  0.6712 -0.8499  1.5299
  350SOL    HW3 1474   0.949   1.946   1.029  0.6839 -1.0911  1.2397
  350SOL    MW4 1475   0.875   1.910   1.001  0.5594  0.0768  0.0304
  351SOL     OW 1476   4.451   1.151   0.951  0.4901  0.6643  0.3595
  351SOL    HW2 1477   4.446   1.065   0.991  0.9496  0.6730  0.4404
  351SOL    HW3 1478   4.377   1.199   0.988 -0.7230 -0.1985 -0.9191
  351SOL    MW4 1479   4.440   1.146   0.961  0.3910  0.5517  0.2015
  352SOL     OW 1480   1.566   1.472   0.653 -0.4468 -0.2325  0.0231
  352SOL    HW2 1481   1.557   1.552   0.602 -1.1326 -0.0497  0.4262
  352SOL    HW3 1482   1.483   1.426   0.640 -0.2481 -0.6468  0.1953
  352SOL    MW4 1483   1.554   1.476   0.644 -0.5111 -0.2631  0.0990
  353SOL     OW 1484   0.476   4.272   0.705 -0.0327  0.2642 -0.4876
  353SOL    HW2 1485   0.460   4.271   0.800  0.9852  0.4608 -0.3021
  353SOL    HW3 1486   0.422   4.201   0.671 -1.2949  0.9289  0.0891
  353SOL    MW4 1487   0.467   4.262   0.713 -0.0649  0.3777 -0.3870
  354SOL     OW 1488   2.184   2.610   0.572 -0.5511  0.5721 -0.3388
  354SOL    HW2 1489   2.182   2.678   0.640 -0.1583  0.8468 -0.6040
  354SOL    HW3 1490   2.099   2.567   0.580  0.0588 -0.3902  1.3364
  354SOL    MW4 1491   2.173   2.614   0.582 -0.4187  0.4811 -0.1528
  355SOL     OW 1492   0.212   4.070   0.189 -0.0169 -0.7553 -0.1745
  355SOL    HW2 1493   0.281   4.059   0.254  1.1236  1.6500 -0.9358
  355SOL    HW3 1494   0.257   4.061   0.105 -0.9637 -0.9782 -0.6619
  355SOL    MW4 1495   0.227   4.067   0.187  0.0087 -0.4673 -0.3392
  356SOL     OW 1496   3.388   0.688   0.787 -0.7913 -0.0403 -0.2409
  356SOL    HW2 1497   3.483   0.686   0.784 -0.7939  0.4087 -0.7129
  356SOL    HW3 1498   3.361   0.601   0.759 -0.5187 -0.2334  0.0871
  356SOL    MW4 1499   3.397   0.677   0.783 -0.7555 -0.0066 -0.2599
  357SOL     OW 1500   0.218   2.280   0.710 -0.0124 -0.2669 -0.3484
  357SOL    HW2 1501   0.303   2.287   0.667 -0.5481 -0.1371 -1.4024
  357SOL    HW3 1502   0.158   2.328   0.653 -0.9163 -0.9178  0.0393
  357SOL    MW4 1503   0.221   2.287   0.697 -0.2024 -0.3357 -0.4364
  358SOL     OW 1504   4.418   3.286   0.528  0.3355  0.1519 -0.2504
  358SOL    HW2 1505   4.369   3.308   0.449 -0.8041 -0.7843  0.1835
  358SOL    HW3 1506   4.354   3.244   0.586  1.1423  0.8249  1.1768
  358SOL    MW4 1507   4.403   3.284   0.525  0.2918  0.1175 -0.0049
  359SOL     OW 1508   4.271   3.391   0.296 -0.3013  0.2600 -0.0642
  359SOL    HW2 1509   4.327   3.392   0.218 -0.1909 -0.6598 -0.0069
  359SOL    HW3 1510   4.255   3.483   0.316 -0.6739  0.5012 -1.4221
  359SOL    MW4 1511   4.276   3.403   0.289 -0.3362  0.1707 -0.2358
  360SOL     OW 1512   4.255   4.380   0.522 -0.2421  0.2662  0.3290
  360SOL    HW2 1513   4.348   4.369   0.501 -0.3034  0.8873 -0.3050
  360SOL    HW3 1514   4.211   4.367   0.438 -0.8407 -1.2628  0.8551
  360SOL    MW4 1515   4.262   4.377   0.508 -0.3285  0.1459  0.3147
  361SOL     OW 1516   2.188   2.162   0.355 -0.4705  0.2487 -0.3369
  361SOL    HW2 1517   2.162   2.222   0.285 -0.2615  1.3357  0.5059
  361SOL    HW3 1518   2.228   2.218   0.421  0.0716 -0.8697  0.3033
  361SOL    MW4 1519   2.190   2.177   0.354 -0.3715  0.2444 -0.1412
  362SOL     OW 1520   2.419   2.031   0.270 -0.2267 -0.8035  0.2603
  362SOL    HW2 1521   2.347   2.094   0.262  0.2291 -0.4580 -1.2509
  362SOL    HW3 1522   2.489   2.080   0.313 -0.0912 -0.4530 -0.3543
  362SOL    MW4 1523   2.418   2.046   0.275 -0.1488 -0.7117 -0.0202
  363SOL     OW 1524   2.310   2.349   0.503 -0.2001 -0.2488  0.4894
  363SOL    HW2 1525   2.366   2.346   0.581  0.5965 -0.1296 -0.0613
  363SOL    HW3 1526   2.256   2.427   0.515 -0.0716 -0.2243  0.9160
  363SOL    MW4 1527   2.311   2.359   0.515 -0.0782 -0.2298  0.4730
  364SOL     OW 1528   2.351   1.883   0.526 -0.1027  0.1083 -0.5249
  364SOL    HW2 1529   2.319   1.907   0.439 -0.2862 -1.7950 -1.0053
  364SOL    HW3 1530   2.421   1.819   0.509 -0.6113 -0.7955  0.7425
  364SOL    MW4 1531   2.356   1.877   0.512 -0.1943 -0.2621 -0.4210
  365SOL     OW 1532   0.726   0.238   0.565 -0.4349 -0.0664  0.1427
  365SOL    HW2 1533   0.722   0.225   0.470  0.6982  0.6932 -0.0191
  365SOL    HW3 1534   0.687   0.159   0.602 -0.8832 -0.3673 -0.9549
  365SOL    MW4 1535   0.720   0.226   0.557 -0.3446 -0.0059 -0.0235
  366SOL     OW 1536   0.215   3.064   0.934 -0.4618  0.4223  0.4347
  366SOL    HW2 1537   0.214   2.987   0.991 -0.7220  1.1107  1.3818
  366SOL    HW3 1538   0.302   3.102   0.948 -0.5167  0.5811  0.3410
  366SOL    MW4 1539   0.227   3.059   0.944 -0.5033  0.5341  0.5473
  367SOL     OW 1540   0.210   0.957   0.319 -0.0196  0.1604 -0.2692
  367SOL    HW2 1541   0.150   0.886   0.296 -1.4529  1.6232 -1.1485
  367SOL    HW3 1542   0.293   0.933   0.278  0.0725 -2.0018  1.1454
  367SOL    MW4 1543   0.213   0.945   0.310 -0.1966  0.0681 -0.1985
  368SOL     OW 1544   2.715   2.853   0.684 -0.2307 -0.2086 -0.4435
  368SOL    HW2 1545   2.731   2.791   0.756  0.1588 -0.3283 -0.6342
  368SOL    HW3 1546   2.634   2.822   0.643  0.5070 -1.1684 -1.1606
  368SOL    MW4 1547   2.706   2.841   0.688 -0.0820 -0.3507 -0.5633
  369SOL     OW 1548   0.006   3.386   0.128 -0.2649  0.2475  0.4520
  369SOL    HW2 1549   0.073   3.443   0.164  0.6980 -1.3570  1.2324
  369SOL    HW3 1550   0.048   3.301   0.119 -1.4511 -0.1815 -1.4134
  369SOL    MW4 1551   0.020   3.382   0.131 -0.2943 -0.0207  0.3088
  370SOL     OW 1552   2.685   1.668   1.122 -0.3558 -0.0798 -0.3892
  370SOL    HW2 1553   2.608   1.633   1.077  0.0525  0.1286 -1.2626
  370SOL    HW3 1554   2.757   1.613   1.092 -0.0738  0.0727  0.0029
  370SOL    MW4 1555   2.684   1.656   1.112 -0.2649 -0.0322 -0.4528
  371SOL     OW 1556   2.028   3.331   0.198  0.0440 -0.3342  0.1757
  371SOL    HW2 1557   2.096   3.386   0.236 -0.4610 -0.2714  1.0044
  371SOL    HW3 1558   1.947   3.377   0.217 -0.2030 -0.2156 -1.1536
  371SOL    MW4 1559   2.026   3.344   0.206 -0.0553 -0.3104  0.1097
  372SOL     OW 1560   4.163   4.614   0.429 -0.1450 -0.2225  0.3116
  372SOL    HW2 1561   4.230   4.683   0.421 -0.1497 -0.3609 -1.0151
  372SOL    HW3 1562   4.208   4.541   0.471  0.5376 -0.3059 -0.5610
  372SOL    MW4 1563   4.178   4.614   0.433 -0.0558 -0.2518  0.0215
  373SOL     OW 1564   2.484   2.815   1.038  0.6205 -0.4803 -0.4238
  373SOL    HW2 1565   2.487   2.832   1.132  1.9530  0.1232 -0.5686
  373SOL    HW3 1566   2.466   2.901   0.999 -0.1112 -0.7605 -0.7211
  373SOL    MW4 1567   2.482   2.828   1.046  0.6998 -0.4377 -0.4821
  374SOL     OW 1568   2.310   2.883   0.590  0.0272  0.1731  0.5851
  374SOL    HW2 1569   2.260   2.855   0.667  0.2384 -2.1363 -0.0844
  374SOL    HW3 1570   2.350   2.966   0.617 -1.5286  0.4258  2.2516
  374SOL    MW4 1571   2.308   2.890   0.604 -0.1502 -0.0982  0.7166
  375SOL     OW 1572   1.789   4.297   0.987  0.5166 -0.4390  0.0603
  375SOL    HW2 1573   1.705   4.338   1.008  0.7944  0.3362 -0.3350
  375SOL    HW3 1574   1.777   4.205   1.011 -0.3066 -0.2500  0.3964
  375SOL    MW4 1575   1.776   4.290   0.993  0.4445 -0.3119  0.0525
  376SOL     OW 1576   1.864   2.268   0.178 -0.0740 -0.0128 -0.6252
  376SOL    HW2 1577   1.825   2.306   0.257 -0.4275 -0.2274 -0.6948
  376SOL    HW3 1578   1.807   2.298   0.107 -0.5720 -0.9844 -0.6350
  376SOL    MW4 1579   1.851   2.277   0.179 -0.1864 -0.1693 -0.6357
  377SOL     OW 1580   0.654   1.817   0.602  0.9930  0.0786 -0.1193
  377SOL    HW2 1581   0.718   1.887   0.610  1.9003 -0.9761  2.1956
  377SOL    HW3 1582   0.570   1.859   0.621  1.4504  0.6899  0.5887
  377SOL    MW4 1583   0.651   1.832   0.605  1.1731  0.0201  0.2795
  378SOL     OW 1584   1.782   3.386   0.318 -0.0554 -0.2311  0.0331
  378SOL    HW2 1585   1.776   3.447   0.391 -1.7619 -1.1009  0.6481
  378SOL    HW3 1586   1.835   3.314   0.352 -0.0764 -0.2157  0.0980
  378SOL    MW4 1587   1.788   3.385   0.332 -0.2832 -0.3433  0.1228
  379SOL     OW 1588   3.647   4.268   0.969  0.0945 -0.3564  0.4973
  379SOL    HW2 1589   3.730   4.302   1.003  0.4800 -0.4130 -0.3757
  379SOL    HW3 1590   3.652   4.174   0.985 -0.6574 -0.1284  2.2410
  379SOL    MW4 1591   3.658   4.260   0.976  0.0465 -0.3338  0.6123
  380SOL     OW 1592   2.483   3.805   0.235  0.2569  0.1542  0.1473
  380SOL    HW2 1593   2.486   3.710   0.247  0.2589  0.4136  2.3038
  380SOL    HW3 1594   2.401   3.832   0.276  0.6457  1.1865  0.2620
  380SOL    MW4 1595   2.472   3.796   0.242  0.3085  0.3250  0.4469
  381SOL     OW 1596   0.886   3.450   0.978  0.1386  0.0810  0.0083
  381SOL    HW2 1597   0.882   3.363   1.017 -0.4956 -0.1701 -0.6114
  381SOL    HW3 1598   0.911   3.434   0.887 -0.4032  0.5227 -0.2155
  381SOL    MW4 1599   0.889   3.436   0.971 -0.0165  0.1063 -0.1030
  382SOL     OW 1600   1.592   3.149   1.002 -0.0410  0.0058 -0.3085
  382SOL    HW2 1601   1.513   3.174   1.050  1.8915 -0.2043  3.1675
  382SOL    HW3 1602   1.598   3.054   1.014  1.1130  0.1198  0.1540
  382SOL    MW4 1603   1.583   3.140   1.010  0.3662 -0.0069  0.2112
  383SOL     OW 1604   4.047   1.106   0.709 -0.2181  0.1016 -0.0485
  383SOL    HW2 1605   4.103   1.173   0.670 -2.3565  1.6200 -0.5760
  383SOL    HW3 1606   4.037   1.133   0.800 -1.5854  0.8878 -0.4108
  383SOL    MW4 1607   4.053   1.119   0.716 -0.6814  0.4059 -0.1659
  384SOL     OW 1608   2.017   3.892   0.939  0.0008  0.0830 -0.5715
  384SOL    HW2 1609   2.018   3.803   0.975  1.5320  0.2622 -0.0985
  384SOL    HW3 1610   2.023   3.880   0.845 -0.3199 -0.3289 -0.5410
  384SOL    MW4 1611   2.018   3.879   0.931  0.1602  0.0522 -0.5050
  385SOL     OW 1612   0.164   0.190   0.259 -0.2427  0.0859  0.3943
  385SOL    HW2 1613   0.253   0.154   0.265 -0.6962 -0.9536  0.8660
  385SOL    HW3 1614   0.177   0.278   0.223  0.7149 -1.2176 -2.6181
  385SOL    MW4 1615   0.178   0.197   0.255 -0.1762 -0.2233  0.0591
  386SOL     OW 1616   1.966   2.211   0.726 -0.0503  0.1306  0.0611
  386SOL    HW2 1617   1.968   2.252   0.812 -0.2620 -0.9607  0.5886
  386SOL    HW3 1618   2.053   2.175   0.713  0.3557  1.3504 -0.7110
  386SOL    MW4 1619   1.977   2.212   0.735 -0.0247  0.1478  0.0288
  387SOL     OW 1620   4.311   1.925   0.472  0.1569 -0.0676  0.0609
  387SOL    HW2 1621   4.215   1.930   0.473  0.1930  0.5360  0.2382
  387SOL    HW3 1622   4.338   1.955   0.558  0.5728  1.1070 -0.4718
  387SOL    MW4 1623   4.302   1.929   0.483  0.2165  0.1670  0.0140
  388SOL     OW 1624   0.662   1.259   0.292  0.3927 -0.6948 -0.2013
  388SOL    HW2 1625   0.646   1.233   0.383  0.8955  0.0871  0.1078
  388SOL    HW3 1626   0.628   1.185   0.241 -0.5440 -0.8314  0.5892
  388SOL    MW4 1627   0.655   1.246   0.297  0.3355 -0.6096 -0.0562
  389SOL     OW 1628   3.420   1.995   0.451  0.1730  0.4042 -0.3463
  389SOL    HW2 1629   3.327   2.010   0.432  0.2188  1.2694  0.0740
  389SOL    HW3 1630   3.465   2.069   0.410  0.7499 -0.3744 -1.1420
  389SOL    MW4 1631   3.414   2.007   0.443  0.2549  0.4156 -0.3958
  390SOL     OW 1632   1.738   2.391   0.402  0.1219  0.1711 -0.2081
  390SOL    HW2 1633   1.715   2.479   0.372 -1.1847  0.1076  0.5573
  390SOL    HW3 1634   1.655   2.351   0.425  0.7518 -1.1162 -0.1067
  390SOL    MW4 1635   1.724   2.397   0.401  0.0327 -0.0069 -0.0937
  391SOL     OW 1636   2.047   4.554   0.353  0.8899  0.3865 -0.2257
  391SOL    HW2 1637   1.989   4.630   0.353  0.7975  0.3161 -0.1794
  391SOL    HW3 1638   2.032   4.512   0.269 -1.2261 -1.2366  0.9294
  391SOL    MW4 1639   2.037   4.558   0.342  0.5987  0.1631 -0.0672
  392SOL     OW 1640   0.513   0.139   1.109 -0.1872  0.2225  0.1492
  392SOL    HW2 1641   0.504   0.221   1.062 -1.5190  0.2791  0.4680
  392SOL    HW3 1642   0.573   0.087   1.057 -1.0285  0.5848 -1.1944
  392SOL    MW4 1643   0.520   0.143   1.096 -0.4739  0.2778  0.0141
  393SOL     OW 1644   1.137   3.891   1.017 -0.0686  0.1230 -0.2066
  393SOL    HW2 1645   1.059   3.926   1.060 -0.0745 -0.7846  0.5093
  393SOL    HW3 1646   1.128   3.796   1.023  0.4758 -0.0011 -1.2308
  393SOL    MW4 1647   1.125   3.883   1.023  0.0025 -0.0134 -0.2474
  394SOL     OW 1648   3.213   3.805   0.617  0.2244 -0.2050 -0.2899
  394SOL    HW2 1649   3.174   3.837   0.536 -0.1569 -0.7631 -0.3273
  394SOL    HW3 1650   3.171   3.856   0.686  2.1421  1.8322 -0.5853
  394SOL    MW4 1651   3.202   3.816   0.615  0.4270 -0.0100 -0.3338
  395SOL     OW 1652   2.712   0.378   0.966  0.3023  0.5968  0.2658
  395SOL    HW2 1653   2.717   0.357   0.872  0.3815 -0.3360  0.4672
  395SOL    HW3 1654   2.695   0.293   1.008 -2.0027  1.3537  0.9028
  395SOL    MW4 1655   2.711   0.364   0.959  0.0088  0.5736  0.3763
  396SOL     OW 1656   3.987   3.116   0.784  0.3515 -0.1756 -0.0417
  396SOL    HW2 1657   4.080   3.112   0.762  0.2999 -1.1597 -0.0905
  396SOL    HW3 1658   3.959   3.203   0.755  0.4190 -1.1994 -3.2853
  396SOL    MW4 1659   3.996   3.127   0.777  0.3536 -0.4408 -0.4761
  397SOL     OW 1660   0.867   1.122   1.009 -0.3429  0.0924 -0.4937
  397SOL    HW2 1661   0.868   1.141   0.915  2.0205 -1.0222 -0.7227
  397SOL    HW3 1662   0.942   1.170   1.043  0.0108 -1.1356  0.4812
  397SOL    MW4 1663   0.877   1.131   1.001  0.0156 -0.2166 -0.3953
  398SOL     OW 1664   2.493   3.908   0.964 -0.4532 -0.0212 -0.0274
  398SOL    HW2 1665   2.412   3.936   1.006 -0.6118  0.7910 -0.8500
  398SOL    HW3 1666   2.471   3.903   0.871  0.3194 -0.2379 -0.2014
  398SOL    MW4 1667   2.480   3.911   0.957 -0.3722  0.0575 -0.1588
  399SOL     OW 1668   1.337   1.149   0.739  0.5531 -0.0805 -0.3210
  399SOL    HW2 1669   1.254   1.112   0.707  1.2800 -1.1157 -1.0397
  399SOL    HW3 1670   1.404   1.106   0.685  1.5471  0.8380  0.1793
  399SOL    MW4 1671   1.335   1.139   0.727  0.7801 -0.0960 -0.3498
  400SOL     OW 1672   0.180   2.038   0.598 -0.3843 -0.0199 -0.1680
  400SOL    HW2 1673   0.199   2.122   0.640 -1.9802 -0.0048  0.5495
  400SOL    HW3 1674   0.158   2.060   0.507  0.6149  0.1879 -0.3638
  400SOL    MW4 1675   0.180   2.052   0.591 -0.4630  0.0095 -0.0992
  401SOL     OW 1676   4.004   1.662   0.311 -0.0879 -0.0210 -0.1078
  401SOL    HW2 1677   3.961   1.627   0.389  0.0929  1.0806  0.5031
  401SOL    HW3 1678   4.026   1.752   0.335  0.1153  0.2729 -1.3783
  401SOL    MW4 1679   4.001   1.669   0.325 -0.0372  0.1630 -0.1948
  402SOL     OW 1680   0.969   0.768   0.247 -0.2546  0.1683 -0.0307
  402SOL    HW2 1681   1.003   0.684   0.279 -0.6462 -0.5959 -1.5658
  402SOL    HW3 1682   1.036   0.832   0.271  0.6190 -0.7780  0.0907
  402SOL    MW4 1683   0.982   0.765   0.254 -0.1910 -0.0573 -0.2173
  403SOL     OW 1684   2.142   0.703   0.332 -0.0600 -0.5353 -0.5418
  403SOL    HW2 1685   2.179   0.785   0.299 -1.7289  0.8023  0.8049
  403SOL    HW3 1686   2.202   0.676   0.402  0.0439 -0.0186 -0.4298
  403SOL    MW4 1687   2.155   0.710   0.337 -0.2663 -0.2906 -0.3493
  404SOL     OW 1688   1.665   2.441   0.703  0.0513 -0.0243  0.1245
  404SOL    HW2 1689   1.714   2.421   0.623 -1.6798 -0.1646 -0.9129
  404SOL    HW3 1690   1.625   2.527   0.686 -1.3506 -0.6235  0.3317
  404SOL    MW4 1691   1.666   2.450   0.690 -0.3619 -0.1218  0.0149
  405SOL     OW 1692   1.372   0.653   0.605 -0.0927 -0.0389 -0.5050
  405SOL    HW2 1693   1.384   0.668   0.511  0.6751  1.6225 -0.1534
  405SOL    HW3 1694   1.444   0.699   0.647  1.3560 -3.3126  0.7797
  405SOL    MW4 1695   1.383   0.661   0.598  0.1997 -0.2516 -0.2892
  406SOL     OW 1696   1.127   3.378   0.340  0.1500 -0.2584  0.2265
  406SOL    HW2 1697   1.145   3.286   0.322 -0.7145 -0.0405 -1.8510
  406SOL    HW3 1698   1.208   3.424   0.316  0.3172 -0.3802  0.5495
  406SOL    MW4 1699   1.140   3.372   0.335  0.0579 -0.2458 -0.0049
  407SOL     OW 1700   3.497   1.227   0.197 -0.2523  0.1385  0.0305
  407SOL    HW2 1701   3.483   1.132   0.189 -0.6789  0.2408 -0.4595
  407SOL    HW3 1702   3.412   1.262   0.223 -0.4907  0.5618 -1.2734
  407SOL    MW4 1703   3.484   1.219   0.199 -0.3400  0.2078 -0.2062
  408SOL     OW 1704   3.781   0.560   0.566 -0.4023 -0.0200  0.2269
  408SOL    HW2 1705   3.735   0.486   0.604 -0.6285  0.1987  0.3753
  408SOL    HW3 1706   3.793   0.536   0.474  1.9000 -1.4317  0.8397
  408SOL    MW4 1707   3.777   0.547   0.559 -0.1283 -0.1774  0.3273
  409SOL     OW 1708   3.767   0.778   0.275  0.4577  0.0099  0.0274
  409SOL    HW2 1709   3.773   0.776   0.180  0.2597 -0.1191  0.0173
  409SOL    HW3 1710   3.674   0.782   0.293  0.4867 -0.1377  0.2178
  409SOL    MW4 1711   3.756   0.778   0.265  0.4351 -0.0266  0.0512
  410SOL     OW 1712   2.708   3.122   0.592 -0.5699  0.1438  0.3379
  410SOL    HW2 1713   2.623   3.157   0.618 -0.3633 -0.3497  1.6747
  410SOL    HW3 1714   2.715   3.038   0.637  0.7157  0.2659  0.3941
  410SOL    MW4 1715   2.698   3.115   0.601 -0.3731  0.0947  0.5217
  411SOL     OW 1716   0.501   0.376   0.685  0.3021 -0.0803 -0.5779
  411SOL    HW2 1717   0.491   0.448   0.622 -0.5340  0.7106  0.4439
  411SOL    HW3 1718   0.588   0.342   0.668  0.3260  0.5317 -1.7501
  411SOL    MW4 1719   0.511   0.381   0.675  0.1949  0.1048 -0.5978
  412SOL     OW 1720   1.086   1.566   0.246  0.2858 -0.3374  0.4238
  412SOL    HW2 1721   1.067   1.552   0.154  1.3186 -0.7931  0.2773
  412SOL    HW3 1722   1.042   1.493   0.291  2.7272 -2.1363 -0.0298
  412SOL    MW4 1723   1.078   1.554   0.240  0.7443 -0.6348  0.3446
  413SOL     OW 1724   1.786   2.469   1.113 -0.3286 -0.1370 -0.1515
  413SOL    HW2 1725   1.790   2.560   1.084  0.7994 -0.2090 -0.2061
  413SOL    HW3 1726   1.865   2.429   1.078  0.1434 -0.6688  1.4744
  413SOL    MW4 1727   1.797   2.476   1.105 -0.1174 -0.2167  0.0558
  414SOL     OW 1728   0.914   4.015   1.100  0.4899  0.1300 -0.1221
  414SOL    HW2 1729   0.880   4.092   1.054  2.2807 -0.0897 -1.9002
  414SOL    HW3 1730   0.919   4.041   1.192 -2.1505  0.9534 -0.1788
  414SOL    MW4 1731   0.910   4.028   1.106  0.3778  0.2093 -0.3643
  415SOL     OW 1732   4.325   3.087   0.983 -0.1130 -0.3687  0.2283
  415SOL    HW2 1733   4.252   3.137   1.018 -0.6779 -2.2900  1.8804
  415SOL    HW3 1734   4.403   3.129   1.020 -0.4361  0.8318 -0.4353
  415SOL    MW4 1735   4.326   3.099   0.992 -0.2303 -0.4635  0.3587
  416SOL     OW 1736   4.289   3.872   1.004 -0.0467  0.0618 -0.2119
  416SOL    HW2 1737   4.311   3.863   0.911  0.4828 -0.5846 -0.0330
  416SOL    HW3 1738   4.272   3.782   1.033  1.8249  0.0069  0.7996
  416SOL    MW4 1739   4.290   3.859   0.995  0.2699 -0.0303 -0.0549
  417SOL     OW 1740   4.049   0.081   0.094  0.0703  0.3716 -0.3167
  417SOL    HW2 1741   4.107   0.008   0.116 -0.1576  0.3537  0.2452
  417SOL    HW3 1742   4.007   0.054   0.013 -1.4791 -1.0255  0.8886
  417SOL    MW4 1743   4.051   0.068   0.087 -0.1645  0.1849 -0.0836
  418SOL     OW 1744   2.474   1.310   1.084 -0.1339  0.0875 -0.0294
  418SOL    HW2 1745   2.389   1.274   1.057  0.0423 -0.3848  0.0491
  418SOL    HW3 1746   2.538   1.260   1.034 -0.0141  2.2061 -2.0873
  418SOL    MW4 1747   2.471   1.299   1.074 -0.0947  0.3047 -0.2905
  419SOL     OW 1748   2.533   1.263   0.629  0.1252  0.1931 -0.2824
  419SOL    HW2 1749   2.613   1.211   0.636  0.0952 -0.0758 -1.7309
  419SOL    HW3 1750   2.511   1.261   0.535 -2.8137 -1.6526  0.3443
  419SOL    MW4 1751   2.540   1.256   0.617 -0.2663 -0.0859 -0.3908
  420SOL     OW 1752   1.117   0.752   0.657  0.3700  0.0977  0.1192
  420SOL    HW2 1753   1.046   0.689   0.640  0.1945 -0.0541  1.3195
  420SOL    HW3 1754   1.197   0.704   0.636  0.2606 -0.6980  1.4606
  420SOL    MW4 1755   1.118   0.737   0.652  0.3325 -0.0274  0.4546
  421SOL     OW 1756   2.973   4.426   1.103  0.0750  0.0335  0.1641
  421SOL    HW2 1757   2.897   4.379   1.069 -0.4459  0.6160  0.4996
  421SOL    HW3 1758   3.048   4.376   1.073 -0.3571  0.6779 -2.0830
  421SOL    MW4 1759   2.973   4.414   1.095 -0.0508  0.1960 -0.0881
  422SOL     OW 1760   3.141   3.906   0.359  0.2445  0.3802 -0.0366
  422SOL    HW2 1761   3.052   3.942   0.357  0.5829  1.1247 -2.0214
  422SOL    HW3 1762   3.140   3.837   0.293  0.6936 -0.7199  1.0915
  422SOL    MW4 1763   3.129   3.902   0.350  0.3483  0.3331 -0.1497
  423SOL     OW 1764   4.003   1.952   0.977 -0.0130  0.0344 -0.0391
  423SOL    HW2 1765   3.926   1.997   1.011  0.4040  0.6877  0.0546
  423SOL    HW3 1766   3.988   1.859   0.997 -2.0290 -0.1967 -2.4336
  423SOL    MW4 1767   3.991   1.946   0.984 -0.2244  0.0901 -0.3427
  424SOL     OW 1768   2.618   0.910   0.472 -0.9916 -0.0091 -0.0556
  424SOL    HW2 1769   2.694   0.917   0.530 -1.4328  0.5711  0.4594
  424SOL    HW3 1770   2.559   0.850   0.517 -0.5555 -0.9879 -0.7745
  424SOL    MW4 1771   2.620   0.903   0.485 -0.9923 -0.0617 -0.0826
  425SOL     OW 1772   3.745   2.046   1.058  0.1597  0.5455 -0.6196
  425SOL    HW2 1773   3.749   2.036   1.153  0.6407 -2.1486 -0.8704
  425SOL    HW3 1774   3.743   2.140   1.043 -0.0842  0.9960  2.0647
  425SOL    MW4 1775   3.745   2.057   1.068  0.1907  0.2494 -0.2986
  426SOL     OW 1776   3.919   1.488   0.528 -0.5424  0.5886  0.2389
  426SOL    HW2 1777   4.007   1.493   0.566 -0.4168  0.4886 -0.0332
  426SOL    HW3 1778   3.919   1.405   0.479 -0.7878  0.5874  0.2419
  426SOL    MW4 1779   3.931   1.477   0.526 -0.5579  0.5752  0.2034
  427SOL     OW 1780   0.391   2.174   0.100 -0.4911  0.2206 -0.0745
  427SOL    HW2 1781   0.371   2.250   0.156 -0.7608  0.7293 -0.8485
  427SOL    HW3 1782   0.354   2.198   0.015 -0.3263 -0.6704 -0.3915
  427SOL    MW4 1783   0.384   2.187   0.096 -0.5050  0.1702 -0.2184
  428SOL     OW 1784   3.162   0.811   0.646 -0.1938 -0.5342 -0.6274
  428SOL    HW2 1785   3.243   0.773   0.680  0.1194 -0.1812 -0.9569
  428SOL    HW3 1786   3.176   0.815   0.551 -0.3441  0.1029 -0.6244
  428SOL    MW4 1787   3.175   0.807   0.638 -0.1721 -0.4035 -0.6704
  429SOL     OW 1788   2.215   3.797   0.367 -0.0344 -0.0374  0.0020
  429SOL    HW2 1789   2.200   3.705   0.346 -3.4888  0.5456 -0.4841
  429SOL    HW3 1790   2.174   3.845   0.295  2.3582  1.8862 -0.1257
  429SOL    MW4 1791   2.207   3.791   0.355 -0.1745  0.2930 -0.0790
  430SOL     OW 1792   2.621   4.020   0.596  0.0442  0.3099 -0.0154
  430SOL    HW2 1793   2.689   3.964   0.635 -1.0842 -2.1925 -1.5683
  430SOL    HW3 1794   2.646   4.026   0.504 -1.3131  0.1831 -0.3882
  430SOL    MW4 1795   2.634   4.013   0.589 -0.2837 -0.0367 -0.2694
  431SOL     OW 1796   2.685   1.175   0.971  0.5799 -0.2441 -0.3957
  431SOL    HW2 1797   2.692   1.084   1.001  1.9654 -0.4304 -1.2042
  431SOL    HW3 1798   2.749   1.223   1.024  0.5127  0.0803 -0.6041
  431SOL    MW4 1799   2.694   1.169   0.982  0.7539 -0.2259 -0.5299
  432SOL     OW 1800   1.613   1.525   0.956  0.1266 -0.8433 -0.1654
  432SOL    HW2 1801   1.526   1.561   0.969  0.5914  0.3042 -0.2174
  432SOL    HW3 1802   1.619   1.509   0.862  0.2102 -0.3091 -0.2505
  432SOL    MW4 1803   1.602   1.528   0.946  0.1990 -0.6214 -0.1835
  433SOL     OW 1804   1.191   2.895   0.098 -0.0545  0.5444 -0.4806
  433SOL    HW2 1805   1.247   2.898   0.020  1.6093 -0.0526  0.6607
  433SOL    HW3 1806   1.200   2.805   0.130 -1.7198  0.4275 -0.3068
  433SOL    MW4 1807   1.199   2.883   0.092 -0.0547  0.4504 -0.3071
  434SOL     OW 1808   0.028   4.277   1.024  0.1226  0.6946  0.0565
  434SOL    HW2 1809   0.044   4.190   1.061  0.5218  0.1065 -1.4780
  434SOL    HW3 1810   0.111   4.322   1.033  0.3456  0.3988 -0.5502
  434SOL    MW4 1811   0.041   4.271   1.030  0.2047  0.5779 -0.2260
  435SOL     OW 1812   0.676   0.761   0.629  0.2831 -0.3108 -0.4646
  435SOL    HW2 1813   0.746   0.697   0.637  1.1621  0.6469 -0.4103
  435SOL    HW3 1814   0.657   0.787   0.720 -0.5054 -0.9449 -0.4401
  435SOL    MW4 1815   0.682   0.756   0.642  0.2949 -0.2681 -0.4542
  436SOL     OW 1816   2.962   3.103   0.981 -0.5861 -0.2140 -0.0024
  436SOL    HW2 1817   2.946   3.119   0.888  0.3667 -0.5492 -0.2261
  436SOL    HW3 1818   2.931   3.014   0.996  0.4987 -0.6391 -0.2965
  436SOL    MW4 1819   2.955   3.094   0.971 -0.3171 -0.3145 -0.0707
  437SOL     OW 1820   3.144   4.533   0.655  0.1047  0.1816  0.4785
  437SOL    HW2 1821   3.061   4.568   0.686  0.0829 -0.8286  1.5895
  437SOL    HW3 1822   3.136   4.532   0.560 -1.4333 -0.5721  0.6102
  437SOL    MW4 1823   3.132   4.538   0.647 -0.1011 -0.0510  0.6425
  438SOL     OW 1824   3.380   2.949   0.749  0.1595 -0.0358 -0.4122
  438SOL    HW2 1825   3.391   3.027   0.694  0.0152 -0.2351 -0.7274
  438SOL    HW3 1826   3.373   2.983   0.838  1.1622  0.2412 -0.4357
  438SOL    MW4 1827   3.381   2.964   0.753  0.2728 -0.0257 -0.4568
  439SOL     OW 1828   3.221   1.889   0.722 -0.0301 -0.1129 -0.5695
  439SOL    HW2 1829   3.179   1.965   0.681 -1.5430  0.2532  1.6032
  439SOL    HW3 1830   3.182   1.814   0.677  1.2693  0.3374 -2.5377
  439SOL    MW4 1831   3.211   1.889   0.710 -0.0584 -0.0052 -0.5425
  440SOL     OW 1832   0.578   3.740   0.327 -0.0662  0.2488  0.1923
  440SOL    HW2 1833   0.542   3.657   0.298 -2.8755  1.7553 -0.8895
  440SOL    HW3 1834   0.587   3.730   0.422 -3.3984 -0.2759  0.5294
  440SOL    MW4 1835   0.574   3.728   0.336 -0.8764  0.3781  0.0941
  441SOL     OW 1836   3.390   2.176   0.714 -0.0604 -0.0996 -0.6108
  441SOL    HW2 1837   3.440   2.248   0.674 -0.3169  0.6576  0.4254
  441SOL    HW3 1838   3.361   2.210   0.798  0.0877 -1.5414  0.0418
  441SOL    MW4 1839   3.393   2.190   0.720 -0.0746 -0.1898 -0.3880
  442SOL     OW 1840   2.266   4.268   0.954 -0.4472 -0.2115 -0.0484
  442SOL    HW2 1841   2.191   4.295   1.007 -0.0759 -0.9425  0.8695
  442SOL    HW3 1842   2.268   4.172   0.961  0.7327 -0.1879  0.1820
  442SOL    MW4 1843   2.257   4.259   0.962 -0.2427 -0.3047  0.1031
  443SOL     OW 1844   2.832   1.933   0.340 -0.1503  0.1047  0.3550
  443SOL    HW2 1845   2.861   1.977   0.260 -1.3390  1.2919  0.5690
  443SOL    HW3 1846   2.805   1.846   0.310  0.6053  0.0978 -0.3375
  443SOL    MW4 1847   2.833   1.927   0.325 -0.2077  0.2604  0.2919
  444SOL     OW 1848   2.505   2.714   0.565  0.4898  0.3295 -0.0325
  444SOL    HW2 1849   2.428   2.769   0.572  2.4054  2.8633  1.8475
  444SOL    HW3 1850   2.514   2.697   0.471 -2.8358 -0.8116 -0.2118
  444SOL    MW4 1851   2.496   2.719   0.554  0.3035  0.5131  0.1919
  445SOL     OW 1852   3.406   0.169   0.326  0.2023  0.0137 -0.3542
  445SOL    HW2 1853   3.384   0.078   0.308  0.2383 -0.2044  0.7030
  445SOL    HW3 1854   3.501   0.173   0.316  0.1043  0.1398 -1.2814
  445SOL    MW4 1855   3.416   0.158   0.322  0.1941  0.0015 -0.3371
  446SOL     OW 1856   2.892   2.497   0.584  0.1147  0.1907  0.1240
  446SOL    HW2 1857   2.922   2.582   0.552  0.1733  0.7199  1.5268
  446SOL    HW3 1858   2.971   2.454   0.616 -0.1721  0.4043  1.1622
  446SOL    MW4 1859   2.906   2.503   0.584  0.0844  0.2887  0.4461
  447SOL     OW 1860   0.678   4.108   0.385  0.0594  0.8414 -0.2334
  447SOL    HW2 1861   0.672   4.203   0.375  0.1523  1.0460  1.5537
  447SOL    HW3 1862   0.742   4.094   0.455  0.7162 -0.5695 -1.0833
  447SOL    MW4 1863   0.686   4.118   0.393  0.1583  0.6824 -0.1097
  448SOL     OW 1864   3.523   1.504   0.508 -0.3133 -0.0394 -0.2463
  448SOL    HW2 1865   3.577   1.426   0.499  0.4321  0.3985  0.4037
  448SOL    HW3 1866   3.470   1.489   0.586  1.4665  1.0518  1.2257
  448SOL    MW4 1867   3.523   1.492   0.517  0.0198  0.1625  0.0337
  449SOL     OW 1868   3.544   1.655   1.049 -0.2276 -0.2997 -0.2226
  449SOL    HW2 1869   3.519   1.739   1.011  0.6054 -0.0261 -0.1827
  449SOL    HW3 1870   3.481   1.592   1.014 -0.1364  0.1393 -1.1938
  449SOL    MW4 1871   3.533   1.658   1.039 -0.1059 -0.2058 -0.3455
  450SOL     OW 1872   1.379   2.716   0.970 -0.0850 -0.0594 -0.1747
  450SOL    HW2 1873   1.364   2.705   0.876  0.7160 -0.7379 -0.2267
  450SOL    HW3 1874   1.361   2.630   1.007 -0.6634  0.2751  0.3394
  450SOL    MW4 1875   1.374   2.704   0.962 -0.0556 -0.1049 -0.1137
  451SOL     OW 1876   2.152   2.782   0.779  0.3796  0.3635 -0.1590
  451SOL    HW2 1877   2.058   2.768   0.769  0.4498  0.1237 -0.4780
  451SOL    HW3 1878   2.171   2.755   0.869  0.5050 -1.5602 -0.7517
  451SOL    MW4 1879   2.142   2.777   0.790  0.4055  0.0780 -0.2793
  452SOL     OW 1880   3.132   3.711   0.171  0.2908  0.0159 -0.0975
  452SOL    HW2 1881   3.047   3.708   0.127  0.2016 -0.2901  0.0896
  452SOL    HW3 1882   3.166   3.622   0.162  1.0809  0.4111 -1.1284
  452SOL    MW4 1883   3.125   3.699   0.164  0.3831  0.0274 -0.2088
  453SOL     OW 1884   1.135   0.273   0.352 -0.3536  0.2370 -0.1464
  453SOL    HW2 1885   1.130   0.189   0.306  0.4090  0.3891 -0.5105
  453SOL    HW3 1886   1.214   0.314   0.319  0.1552  0.3973  1.2328
  453SOL    MW4 1887   1.145   0.267   0.342 -0.1860  0.2782 -0.0125
  454SOL     OW 1888   4.171   2.859   0.295 -0.7534 -0.4012  0.6554
  454SOL    HW2 1889   4.077   2.846   0.286 -0.9005  0.5854  0.8174
  454SOL    HW3 1890   4.187   2.854   0.389 -0.7687  0.3054  0.6968
  454SOL    MW4 1891   4.161   2.856   0.306 -0.7744 -0.1776  0.6822
  455SOL     OW 1892   2.055   4.647   0.735 -0.0257 -0.0596 -0.0176
  455SOL    HW2 1893   2.048   4.639   0.830 -1.4867 -0.3493 -0.1458
  455SOL    HW3 1894   2.132   4.594   0.712 -0.5133 -1.1568  0.8398
  455SOL    MW4 1895   2.064   4.639   0.744 -0.2830 -0.2426  0.0787
  456SOL     OW 1896   0.390   3.244   0.383  0.4264  0.7192 -0.0194
  456SOL    HW2 1897   0.324   3.299   0.424  1.2726  0.3674  1.8655
  456SOL    HW3 1898   0.463   3.242   0.445  1.3828 -0.5815 -1.1223
  456SOL    MW4 1899   0.391   3.251   0.396  0.6642  0.5012  0.0838
  457SOL     OW 1900   3.132   2.365   0.585 -0.0143  0.0275  0.1830
  457SOL    HW2 1901   3.151   2.391   0.495 -0.5687  1.2105  0.3997
  457SOL    HW3 1902   3.195   2.414   0.638 -1.0845  0.9875  0.5970
  457SOL    MW4 1903   3.143   2.375   0.580 -0.2286  0.3104  0.2663
  458SOL     OW 1904   3.321   1.502   0.988  0.2794 -0.4040 -0.0524
  458SOL    HW2 1905   3.326   1.479   0.895  0.2878 -1.5156  0.2237
  458SOL    HW3 1906   3.303   1.420   1.033 -1.0039  0.3259  0.8227
  458SOL    MW4 1907   3.319   1.488   0.981  0.1111 -0.4543  0.0995
  459SOL     OW 1908   2.728   4.306   1.013 -0.2015 -0.3224  0.0429
  459SOL    HW2 1909   2.712   4.296   0.919  1.9327 -1.1364 -0.2571
  459SOL    HW3 1910   2.731   4.216   1.047 -0.8039 -0.0372  0.8704
  459SOL    MW4 1911   2.726   4.293   1.005  0.0007 -0.3924  0.1125
  460SOL     OW 1912   1.188   3.118   0.715 -0.0724  0.4431  0.4474
  460SOL    HW2 1913   1.283   3.131   0.709 -0.1167  0.9644  0.8253
  460SOL    HW3 1914   1.174   3.029   0.684  0.6023  0.1622  0.9361
  460SOL    MW4 1915   1.199   3.108   0.710  0.0107  0.4749  0.5617
  461SOL     OW 1916   1.084   2.035   1.096 -0.2471 -0.3764  0.2261
  461SOL    HW2 1917   1.088   2.115   1.042 -2.7237 -0.3667 -0.0133
  461SOL    HW3 1918   1.107   2.065   1.184  1.0124  0.1696 -0.2766
  461SOL    MW4 1919   1.088   2.050   1.100 -0.4076 -0.3030  0.1283
  462SOL     OW 1920   0.299   1.847   0.391 -0.4756  0.3324  0.3177
  462SOL    HW2 1921   0.321   1.865   0.483  0.7017 -1.1080  0.3451
  462SOL    HW3 1922   0.365   1.896   0.341 -0.3892  0.1705  0.2725
  462SOL    MW4 1923   0.311   1.856   0.396 -0.3089  0.1211  0.3154
  463SOL     OW 1924   3.595   2.712   0.976  0.2593  0.4521  0.2905
  463SOL    HW2 1925   3.598   2.624   1.014  1.6896  0.7759  0.9466
  463SOL    HW3 1926   3.524   2.755   1.023 -0.9046 -0.5465 -0.5043
  463SOL    MW4 1927   3.586   2.706   0.987  0.2944  0.3631  0.2722
  464SOL     OW 1928   2.909   4.192   0.614  0.1335  0.4868  0.0631
  464SOL    HW2 1929   2.903   4.229   0.526 -0.7042  1.6582  0.5987
  464SOL    HW3 1930   2.985   4.237   0.653  0.4775  0.0004 -0.0447
  464SOL    MW4 1931   2.918   4.203   0.607  0.0682  0.5774  0.1195
  465SOL     OW 1932   3.528   1.904   0.915  0.0237  0.6166 -0.0991
  465SOL    HW2 1933   3.466   1.946   0.975  0.7235 -0.8417  1.6439
  465SOL    HW3 1934   3.613   1.938   0.940  0.4106 -0.5989  0.2566
  465SOL    MW4 1935   3.531   1.914   0.926  0.1669  0.2638  0.1778
  466SOL     OW 1936   1.356   3.424   0.726 -0.1900  0.1403  0.7299
  466SOL    HW2 1937   1.352   3.442   0.820 -0.1444  1.6999  0.4457
  466SOL    HW3 1938   1.269   3.445   0.693  0.3805  1.5352  0.0973
  466SOL    MW4 1939   1.344   3.429   0.734 -0.1088  0.5300  0.6089
  467SOL     OW 1940   0.917   0.331   0.749 -0.0946 -0.3163  0.8550
  467SOL    HW2 1941   0.859   0.290   0.684  1.0992  0.1086 -0.4987
  467SOL    HW3 1942   1.005   0.322   0.712  0.7038 -0.8427  2.8373
  467SOL    MW4 1943   0.921   0.325   0.736  0.1683 -0.3297  0.9380
  468SOL     OW 1944   0.198   0.480   0.186  0.2926 -0.5524  0.0302
  468SOL    HW2 1945   0.281   0.510   0.224  0.2931 -0.7888  0.2227
  468SOL    HW3 1946   0.134   0.547   0.212  0.0183 -1.4265  1.6533
  468SOL    MW4 1947   0.200   0.493   0.195  0.2565 -0.6989  0.2698
  469SOL     OW 1948   4.255   3.614   1.096  0.1964 -0.0490  0.3630
  469SOL    HW2 1949   4.327   3.576   1.046  0.1531 -2.0055  1.7097
  469SOL    HW3 1950   4.177   3.571   1.061 -0.1242  0.5847  0.2825
  469SOL    MW4 1951   4.254   3.603   1.084  0.1483 -0.2236  0.5300
  470SOL     OW 1952   3.007   0.093   0.299  0.2163 -0.0774  0.1381
  470SOL    HW2 1953   2.966   0.139   0.373 -0.5885 -0.6553  0.0634
  470SOL    HW3 1954   2.935   0.080   0.237  0.0408 -2.9280  0.8786
  470SOL    MW4 1955   2.992   0.097   0.301  0.0868 -0.5298  0.2259
  471SOL     OW 1956   2.078   4.607   1.010  0.1045 -0.1347  0.0635
  471SOL    HW2 1957   2.002   4.653   1.044  0.5159  0.6410 -0.0597
  471SOL    HW3 1958   2.070   4.518   1.045 -0.0691  0.3386  1.2448
  471SOL    MW4 1959   2.067   4.601   1.019  0.1354  0.0300  0.2031
  472SOL     OW 1960   2.664   2.537   0.718 -0.1772 -0.5330 -0.0109
  472SOL    HW2 1961   2.750   2.521   0.678  0.9218  3.8011  0.4137
  472SOL    HW3 1962   2.617   2.588   0.652 -1.3373 -0.3706  0.9406
  472SOL    MW4 1963   2.669   2.542   0.704 -0.1855  0.0603  0.1707
  473SOL     OW 1964   0.595   3.751   0.623  0.7700 -0.2554 -0.6759
  473SOL    HW2 1965   0.651   3.820   0.658 -0.0478  0.2048 -0.2411
  473SOL    HW3 1966   0.507   3.775   0.652  0.5554 -1.8115  0.0148
  473SOL    MW4 1967   0.591   3.763   0.632  0.6338 -0.4001 -0.5274
  474SOL     OW 1968   2.703   0.891   1.083  0.1436 -0.4637 -0.1745
  474SOL    HW2 1969   2.783   0.843   1.060  0.6085 -0.8976  2.2158
  474SOL    HW3 1970   2.635   0.852   1.028  1.4112 -0.5933 -1.7003
  474SOL    MW4 1971   2.704   0.879   1.073  0.3719 -0.5381 -0.0604
  475SOL     OW 1972   4.224   2.075   1.094  0.4415  0.5978  0.7035
  475SOL    HW2 1973   4.157   2.026   1.047  1.9031 -0.7988 -0.0027
  475SOL    HW3 1974   4.237   2.154   1.042  0.7532 -0.0804 -0.2774
  475SOL    MW4 1975   4.217   2.079   1.081  0.6757  0.3240  0.4810
  476SOL     OW 1976   1.589   0.034   0.739 -0.6183  0.1842 -0.2777
  476SOL    HW2 1977   1.667  -0.011   0.707 -1.9061 -1.1744 -1.5525
  476SOL    HW3 1978   1.591   0.020   0.833  0.6011  0.0561 -0.3062
  476SOL    MW4 1979   1.600   0.026   0.747 -0.6274 -0.0119 -0.4497
  477SOL     OW 1980   0.877   2.674   0.694  0.2721  0.1237 -0.4123
  477SOL    HW2 1981   0.804   2.728   0.666 -0.4898  0.5136  2.1869
  477SOL    HW3 1982   0.890   2.697   0.786  1.2480 -2.6437  0.1853
  477SOL    MW4 1983   0.869   2.684   0.703  0.3003 -0.1900  0.0094
  478SOL     OW 1984   0.725   0.872   0.380 -0.2890  0.0070 -0.4451
  478SOL    HW2 1985   0.805   0.840   0.338 -0.5532 -0.4072 -0.6314
  478SOL    HW3 1986   0.722   0.827   0.464  0.0833  0.6129 -0.1021
  478SOL    MW4 1987   0.735   0.862   0.385 -0.2747  0.0322 -0.4244
  479SOL     OW 1988   4.345   1.673   0.533 -0.0512  0.1389 -0.7475
  479SOL    HW2 1989   4.321   1.764   0.517  0.1710  0.2566 -0.4108
  479SOL    HW3 1990   4.273   1.638   0.587  1.2107  0.8905  1.4842
  479SOL    MW4 1991   4.332   1.680   0.538  0.1450  0.2536 -0.4086
  480SOL     OW 1992   1.147   4.183   0.611  0.0656 -0.8215 -0.3082
  480SOL    HW2 1993   1.054   4.159   0.600 -0.2747  0.4344 -0.2427
  480SOL    HW3 1994   1.186   4.166   0.526 -1.3269  3.3957 -1.9138
  480SOL    MW4 1995   1.140   4.178   0.599 -0.1631 -0.0992 -0.5113
  481SOL     OW 1996   4.285   2.429   0.171  0.1561 -0.3530 -0.0597
  481SOL    HW2 1997   4.295   2.430   0.076  1.1273 -0.6520  0.0322
  481SOL    HW3 1998   4.363   2.382   0.202 -0.8485 -1.4727  0.7912
  481SOL    MW4 1999   4.297   2.423   0.162  0.1521 -0.5400  0.0647
  482SOL     OW 2000   2.021   1.300   1.099 -0.2967 -0.4652 -0.3630
  482SOL    HW2 2001   2.031   1.389   1.067  0.8191 -0.1899  0.7127
  482SOL    HW3 2002   1.952   1.262   1.044 -0.4906  0.9188 -1.0919
  482SOL    MW4 2003   2.013   1.306   1.087 -0.1752 -0.2463 -0.3172
  483SOL     OW 2004   1.866   1.437   0.330 -0.2466  0.4088  0.1827
  483SOL    HW2 2005   1.832   1.520   0.296 -0.0758  0.4759  0.1777
  483SOL    HW3 2006   1.961   1.446   0.327 -0.2240  0.8445  1.6921
  483SOL    MW4 2007   1.874   1.449   0.325 -0.2210  0.4752  0.3812
  484SOL     OW 2008   3.889   2.304   0.082  0.1528  0.0891  0.3765
  484SOL    HW2 2009   3.870   2.322  -0.010  1.8497 -0.1581 -0.0292
  484SOL    HW3 2010   3.819   2.243   0.109  0.7261 -1.3334 -1.2782
  484SOL    MW4 2011   3.877   2.298   0.073  0.4525 -0.1311  0.1046
  485SOL     OW 2012   2.352   0.250   0.320 -0.5546 -0.0902  0.0628
  485SOL    HW2 2013   2.366   0.239   0.414 -1.1325 -0.9249  0.0595
  485SOL    HW3 2014   2.347   0.161   0.286  0.2909  0.2137 -0.8609
  485SOL    MW4 2015   2.353   0.237   0.328 -0.5193 -0.1602 -0.0595
  486SOL     OW 2016   2.245   1.186   0.994  0.0265  0.1145 -0.0555
  486SOL    HW2 2017   2.162   1.214   1.032 -0.2638 -0.3920 -0.3119
  486SOL    HW3 2018   2.235   1.203   0.900 -1.1907 -3.3821 -0.6047
  486SOL    MW4 2019   2.233   1.192   0.986 -0.1726 -0.4137 -0.1617
  487SOL     OW 2020   0.296   4.655   1.054 -0.1365 -0.1342 -0.1595
  487SOL    HW2 2021   0.364   4.712   1.089 -0.3214 -0.0400  0.0449
  487SOL    HW3 2022   0.292   4.676   0.960  1.1930 -1.2416 -0.4691
  487SOL    MW4 2023   0.304   4.665   1.046  0.0145 -0.2680 -0.1733
  488SOL     OW 2024   3.135   3.062   0.234  0.0573 -0.3617 -0.5321
  488SOL    HW2 2025   3.219   3.088   0.196  0.0323  1.5165  0.6571
  488SOL    HW3 2026   3.074   3.132   0.210 -0.2412  0.2657  1.9320
  488SOL    MW4 2027   3.138   3.075   0.226  0.0148 -0.0310 -0.0501
  489SOL     OW 2028   3.888   2.565   0.462 -0.3136 -0.1251  0.1502
  489SOL    HW2 2029   3.934   2.516   0.394 -0.9687 -0.0338 -0.3754
  489SOL    HW3 2030   3.946   2.564   0.537  0.0827 -0.9015 -0.1663
  489SOL    MW4 2031   3.902   2.558   0.463 -0.3479 -0.2153  0.0391
  490SOL     OW 2032   4.489   0.360   0.963 -0.3655 -0.0190 -0.2982
  490SOL    HW2 2033   4.407   0.393   1.000 -0.0388  0.4580  0.0111
  490SOL    HW3 2034   4.487   0.387   0.871 -0.8553 -0.5871 -0.4612
  490SOL    MW4 2035   4.478   0.368   0.956 -0.3872 -0.0310 -0.2789
  491SOL     OW 2036   3.373   3.864   0.089  0.0649 -0.3231  0.2093
  491SOL    HW2 2037   3.290   3.818   0.104  0.2364 -0.0597  2.0009
  491SOL    HW3 2038   3.439   3.809   0.132  1.0082 -1.0874 -2.0807
  491SOL    MW4 2039   3.371   3.850   0.097  0.2122 -0.3891  0.1435
  492SOL     OW 2040   4.276   0.487   1.054  0.0788  0.1582 -0.5071
  492SOL    HW2 2041   4.285   0.465   1.147  1.1165 -0.4506 -0.7358
  492SOL    HW3 2042   4.196   0.443   1.026 -0.1536  0.2211  0.0707
  492SOL    MW4 2043   4.267   0.478   1.062  0.1855  0.0862 -0.4612
  493SOL     OW 2044   4.435   0.874   1.046  0.0138  0.0053 -0.4059
  493SOL    HW2 2045   4.438   0.870   1.142 -0.4287  1.4979 -0.3282
  493SOL    HW3 2046   4.353   0.830   1.023 -0.4635  0.6974 -0.0374
  493SOL    MW4 2047   4.425   0.868   1.056 -0.1078  0.2936 -0.3469
  494SOL     OW 2048   0.176   1.321   1.052 -0.0920 -0.1427  0.2786
  494SOL    HW2 2049   0.199   1.399   1.002  2.5197 -1.0982 -0.0579
  494SOL    HW3 2050   0.102   1.283   1.004  0.8214  0.2854 -1.5053
  494SOL    MW4 2051   0.169   1.326   1.039  0.3731 -0.2122 -0.0011
  495SOL     OW 2052   1.993   3.066   0.292  0.0975 -0.0759  0.0795
  495SOL    HW2 2053   2.015   3.146   0.245  2.8083 -0.3810  0.7562
  495SOL    HW3 2054   1.958   3.095   0.376  0.4256  0.4147  0.0445
  495SOL    MW4 2055   1.992   3.080   0.297  0.4985 -0.0515  0.1642
  496SOL     OW 2056   4.436   1.697   1.030  0.4360 -0.2076  0.2747
  496SOL    HW2 2057   4.449   1.791   1.015 -0.2271 -0.2019 -0.2858
  496SOL    HW3 2058   4.511   1.655   0.986 -0.6586 -0.0898 -1.7540
  496SOL    MW4 2059   4.448   1.704   1.022  0.2041 -0.1915 -0.0669
  497SOL     OW 2060   4.173   1.435   0.333 -0.0412  0.2351  0.0417
  497SOL    HW2 2061   4.257   1.475   0.312  0.8328 -0.4365  2.1498
  497SOL    HW3 2062   4.112   1.509   0.339  0.9824  1.0056  1.1995
  497SOL    MW4 2063   4.176   1.450   0.331  0.2093  0.2481  0.4726
  498SOL     OW 2064   0.655   1.734   0.322  0.3867 -0.1208  0.1422
  498SOL    HW2 2065   0.651   1.749   0.416 -2.3271 -0.0769  0.0811
  498SOL    HW3 2066   0.614   1.812   0.284  1.1874 -0.2750 -1.0587
  498SOL    MW4 2067   0.649   1.746   0.329  0.1343 -0.1353 -0.0243
  499SOL     OW 2068   3.429   1.767   0.257 -0.0629 -0.3284  0.3752
  499SOL    HW2 2069   3.451   1.825   0.330 -0.0944 -0.4559  0.4862
  499SOL    HW3 2070   3.488   1.693   0.266 -0.9771 -0.9936  1.0675
  499SOL    MW4 2071   3.439   1.765   0.268 -0.1876 -0.4330  0.4812
  500SOL     OW 2072   0.460   2.704   1.020 -0.3284  0.0614 -0.0955
  500SOL    HW2 2073   0.367   2.728   1.024 -0.0996  0.9755 -0.2033
  500SOL    HW3 2074   0.461   2.609   1.034 -1.2659  0.0725  0.0636
  500SOL    MW4 2075   0.448   2.694   1.022 -0.4219  0.1833 -0.0888
  501SOL     OW 2076   0.412   1.907   0.953 -0.2546 -0.4194 -0.0992
  501SOL    HW2 2077   0.499   1.945   0.967 -0.0039 -0.5130 -1.3681
  501SOL    HW3 2078   0.404   1.899   0.858 -1.8246 -0.0170 -0.0136
  501SOL    MW4 2079   0.422   1.911   0.942 -0.4286 -0.3787 -0.2553
  502SOL     OW 2080   3.427   4.604   0.668 -0.4415 -0.2752  0.1264
  502SOL    HW2 2081   3.337   4.576   0.651 -0.7281  1.8966 -2.2563
  502SOL    HW3 2082   3.426   4.634   0.759 -2.0575 -0.5090  0.2002
  502SOL    MW4 2083   3.415   4.604   0.678 -0.6924 -0.0191 -0.1782
  503SOL     OW 2084   0.027   3.236   1.074  0.3265 -0.8462  0.1752
  503SOL    HW2 2085   0.103   3.201   1.029  0.5058 -0.6464  0.3208
  503SOL    HW3 2086   0.049   3.229   1.167  0.6673  0.3375  0.1836
  503SOL    MW4 2087   0.040   3.230   1.080  0.3951 -0.6638  0.1953
  504SOL     OW 2088   3.259   1.326   0.313  0.8141 -0.2746  0.0428
  504SOL    HW2 2089   3.239   1.323   0.407  0.0037 -1.9857 -0.1695
  504SOL    HW3 2090   3.175   1.307   0.270  0.7181  2.4878 -1.0923
  504SOL    MW4 2091   3.245   1.323   0.320  0.6945 -0.1359 -0.1350
  505SOL     OW 2092   2.463   4.291   0.282  0.2050  0.1244  0.0142
  505SOL    HW2 2093   2.521   4.215   0.291 -0.3521 -0.3458 -0.3321
  505SOL    HW3 2094   2.384   4.266   0.332  0.4185  0.8833  0.7406
  505SOL    MW4 2095   2.460   4.277   0.290  0.1593  0.1621  0.0644
  506SOL     OW 2096   0.430   3.469   0.966  0.8040 -0.1988  0.2746
  506SOL    HW2 2097   0.360   3.492   1.027  0.1504  1.1446 -0.9538
  506SOL    HW3 2098   0.508   3.510   1.003  0.4022  0.6660  0.1588
  506SOL    MW4 2099   0.431   3.477   0.979  0.6648  0.0925  0.0972
  507SOL     OW 2100   0.035   4.003   1.105  0.0490  0.2282 -0.3885
  507SOL    HW2 2101  -0.049   3.962   1.086 -0.8698  1.3421  1.1790
  507SOL    HW3 2102   0.040   4.005   1.200  1.8992  0.0966 -0.4566
  507SOL    MW4 2103   0.025   3.998   1.115  0.1719  0.3576 -0.1906
  508SOL     OW 2104   4.276   3.888   1.459  0.3487  0.0818 -0.6756
  508SOL    HW2 2105   4.199   3.940   1.436 -0.1120  0.0572  0.7234
  508SOL    HW3 2106   4.351   3.942   1.433 -0.1172 -0.2647 -2.8471
  508SOL    MW4 2107   4.276   3.902   1.453  0.2260  0.0327 -0.7775
  509SOL     OW 2108   0.704   4.656   0.965 -0.0629  0.5032  0.5297
  509SOL    HW2 2109   0.790   4.693   0.984  0.7649 -0.6323 -0.8775
  509SOL    HW3 2110   0.700   4.575   1.016 -0.4518  0.7348  0.8722
  509SOL    MW4 2111   0.714   4.650   0.974 -0.0049  0.3840  0.3892
  510SOL     OW 2112   1.217   4.099   0.352 -0.1239  0.2030  0.1480
  510SOL    HW2 2113   1.295   4.044   0.355 -1.0768 -1.1263  2.1582
  510SOL    HW3 2114   1.144   4.036   0.357 -1.2522  1.5922  1.6164
  510SOL    MW4 2115   1.217   4.083   0.353 -0.3984  0.2117  0.6069
  511SOL     OW 2116   0.928   0.122   1.057 -0.1990 -0.2952  0.6694
  511SOL    HW2 2117   0.922   0.103   1.150  1.3484  0.1491  0.8779
  511SOL    HW3 2118   0.933   0.218   1.052  0.8360 -0.3670  0.2169
  511SOL    MW4 2119   0.928   0.132   1.068  0.1417 -0.2461  0.6373
  512SOL     OW 2120   0.860   4.264   0.961 -0.1909 -0.5776  0.2716
  512SOL    HW2 2121   0.950   4.280   0.993 -0.1349 -1.4564  0.5710
  512SOL    HW3 2122   0.806   4.324   1.012  0.2340 -0.0106  0.0599
  512SOL    MW4 2123   0.865   4.274   0.972 -0.1274 -0.6185  0.2832
  513SOL     OW 2124   0.431   1.148   0.666  0.2887  0.6402 -0.3516
  513SOL    HW2 2125   0.447   1.242   0.659 -1.0171  0.7694 -1.6613
  513SOL    HW3 2126   0.418   1.133   0.760  0.4806  1.7581 -0.1406
  513SOL    MW4 2127   0.432   1.158   0.678  0.1417  0.8047 -0.4965
  514SOL     OW 2128   1.133   0.523   1.060 -0.5186  0.2831  0.0175
  514SOL    HW2 2129   1.134   0.539   1.155  1.7033  0.2109  0.0443
  514SOL    HW3 2130   1.129   0.610   1.021 -1.1182  0.3293  0.1909
  514SOL    MW4 2131   1.133   0.536   1.068 -0.3045  0.2797  0.0440
  515SOL     OW 2132   0.651   0.535   1.040  0.5393 -0.0177  0.2823
  515SOL    HW2 2133   0.731   0.483   1.026  0.4620  0.3555 -1.6115
  515SOL    HW3 2134   0.580   0.473   1.024  0.4538  0.1072  0.1766
  515SOL    MW4 2135   0.652   0.520   1.036  0.5178  0.0480  0.0185
  516SOL     OW 2136   0.419   0.904   1.049 -0.1892  0.0285  0.4094
  516SOL    HW2 2137   0.439   0.897   1.143  1.8398  0.8713  0.0651
  516SOL    HW3 2138   0.425   0.997   1.030 -0.5276 -0.1475 -0.5802
  516SOL    MW4 2139   0.422   0.915   1.059  0.0338  0.1165  0.2335
  517SOL     OW 2140   1.196   0.907   0.336 -0.0755  0.1304 -0.2235
  517SOL    HW2 2141   1.172   0.908   0.429 -1.8376  0.0650 -0.6523
  517SOL    HW3 2142   1.257   0.834   0.328 -1.0121 -0.7632  0.6315
  517SOL    MW4 2143   1.201   0.897   0.347 -0.4317  0.0040 -0.1673
  518SOL     OW 2144   0.619   1.222   1.110  0.0024 -0.6494  0.2989
  518SOL    HW2 2145   0.631   1.312   1.079 -0.3491 -0.1838  1.4852
  518SOL    HW3 2146   0.695   1.175   1.077 -0.1561 -0.0793 -0.9198
  518SOL    MW4 2147   0.631   1.228   1.102 -0.0649 -0.5127  0.2947
  519SOL     OW 2148   2.242   0.416   0.737 -0.1325  0.0598  0.4787
  519SOL    HW2 2149   2.170   0.361   0.705  0.5366 -0.6332  0.1501
  519SOL    HW3 2150   2.224   0.503   0.700 -0.0201 -0.4527 -0.8119
  519SOL    MW4 2151   2.230   0.420   0.728 -0.0293 -0.0993  0.2650
  520SOL     OW 2152   4.489   3.500   1.000  0.4767 -0.0846  0.0798
  520SOL    HW2 2153   4.465   3.411   1.027  0.8478 -0.2098  0.0011
  520SOL    HW3 2154   4.479   3.500   0.905 -0.2497  0.1809  0.1532
  520SOL    MW4 2155   4.484   3.488   0.991  0.4301 -0.0660  0.0790
  521SOL     OW 2156   0.218   2.038   1.087  0.4683  0.6012 -0.2430
  521SOL    HW2 2157   0.231   2.129   1.058  1.4165  0.5991  0.1598
  521SOL    HW3 2158   0.286   1.988   1.043 -0.9713 -0.1758 -1.6157
  521SOL    MW4 2159   0.229   2.044   1.078  0.4035  0.4985 -0.3709
  522SOL     OW 2160   0.662   2.006   1.313 -0.0671  0.1272  0.1061
  522SOL    HW2 2161   0.741   1.984   1.364  0.0414  1.8576  0.7002
  522SOL    HW3 2162   0.590   1.976   1.368  0.1322 -0.5893 -0.0109
  522SOL    MW4 2163   0.663   1.999   1.327 -0.0265  0.2609  0.1692
  523SOL     OW 2164   0.652   2.038   1.044 -0.1271  0.2122 -0.1240
  523SOL    HW2 2165   0.634   2.015   1.135 -0.8311 -0.3517 -0.4006
  523SOL    HW3 2166   0.686   2.127   1.047  1.8771 -0.5486  0.9027
  523SOL    MW4 2167   0.654   2.046   1.056  0.0443  0.0374 -0.0250
  524SOL     OW 2168   2.887   4.013   0.272 -0.0641 -0.2521 -0.0119
  524SOL    HW2 2169   2.851   3.994   0.185  2.3546 -0.9484 -0.9049
  524SOL    HW3 2170   2.912   4.105   0.269 -2.4121  0.4382  0.8682
  524SOL    MW4 2171   2.885   4.022   0.260 -0.0551 -0.2532 -0.0136
  525SOL     OW 2172   0.882   4.098   0.575  0.4204  0.4324 -0.4237
  525SOL    HW2 2173   0.845   4.027   0.627 -1.1862  0.0919 -1.9848
  525SOL    HW3 2174   0.849   4.178   0.617 -0.0484  0.1755 -0.2983
  525SOL    MW4 2175   0.873   4.099   0.587  0.1466  0.3538 -0.6132
  526SOL     OW 2176   1.085   2.488   0.372 -0.1972  0.1500  0.4267
  526SOL    HW2 2177   0.990   2.486   0.363 -0.1468  1.6262 -0.5564
  526SOL    HW3 2178   1.114   2.402   0.339 -1.2494 -0.7171  1.7185
  526SOL    MW4 2179   1.076   2.476   0.366 -0.3293  0.2301  0.4674
  527SOL     OW 2180   3.935   1.263   0.349  0.2969 -0.3967 -0.2545
  527SOL    HW2 2181   4.027   1.281   0.332  0.9185 -0.3667  2.8938
  527SOL    HW3 2182   3.929   1.168   0.353  0.1801 -0.3985 -0.4401
  527SOL    MW4 2183   3.946   1.253   0.347  0.3636 -0.3930  0.1364
  528SOL     OW 2184   1.474   2.798   0.330 -0.3761  0.5475 -0.2960
  528SOL    HW2 2185   1.460   2.892   0.319 -0.1131  0.8725  1.9167
  528SOL    HW3 2186   1.402   2.757   0.283 -0.2551  1.8331 -1.6389
  528SOL    MW4 2187   1.463   2.805   0.323 -0.3254  0.7601 -0.1812
  529SOL     OW 2188   2.171   1.961   0.713 -0.1237 -0.3876  0.1645
  529SOL    HW2 2189   2.248   1.927   0.668 -0.6282 -0.7392 -0.4340
  529SOL    HW3 2190   2.097   1.933   0.660 -0.5383  2.3088 -0.7762
  529SOL    MW4 2191   2.171   1.953   0.700 -0.2451 -0.0782 -0.0386
  530SOL     OW 2192   0.462   3.173   1.017 -0.6097  0.5447  0.0870
  530SOL    HW2 2193   0.454   3.267   1.003 -0.5022  0.7036  1.1008
  530SOL    HW3 2194   0.445   3.160   1.110  0.2187 -0.3371  0.1278
  530SOL    MW4 2195   0.459   3.184   1.027 -0.4862  0.4494  0.2261
  531SOL     OW 2196   2.577   2.053   0.516 -0.0994 -0.1373 -0.2191
  531SOL    HW2 2197   2.503   1.993   0.531  0.3606 -0.3344  1.4273
  531SOL    HW3 2198   2.555   2.131   0.567 -0.0128  0.5254 -1.1943
  531SOL    MW4 2199   2.564   2.055   0.525 -0.0272 -0.0761 -0.1305
  532SOL     OW 2200   2.445   3.124   0.692  0.1417  0.3683  0.3612
  532SOL    HW2 2201   2.408   3.210   0.712  1.5981  0.8002  1.3458
  532SOL    HW3 2202   2.483   3.095   0.775  0.7203 -0.6874 -0.2636
  532SOL    MW4 2203   2.445   3.131   0.706  0.4098  0.2861  0.4086
  533SOL     OW 2204   1.316   2.694   0.699 -0.2792 -0.2071  0.2246
  533SOL    HW2 2205   1.256   2.751   0.652 -1.6272 -1.2069  0.6864
  533SOL    HW3 2206   1.402   2.709   0.658 -0.7014  1.7743  0.0435
  533SOL    MW4 2207   1.320   2.704   0.687 -0.5127 -0.0777  0.2617
  534SOL     OW 2208   1.806   3.460   0.950  0.5089  0.4940  0.6514
  534SOL    HW2 2209   1.834   3.437   0.861  1.5403 -0.5940  1.2481
  534SOL    HW3 2210   1.818   3.380   1.001  2.2527  1.7738  2.3071
  534SOL    MW4 2211   1.811   3.447   0.945  0.8751  0.5193  0.9485
  535SOL     OW 2212   1.115   0.783   0.947 -0.1653 -0.5044  0.2602
  535SOL    HW2 2213   1.097   0.760   0.856 -0.2608  1.8536 -0.3438
  535SOL    HW3 2214   1.029   0.787   0.989 -0.1975 -0.6011  0.2021
  535SOL    MW4 2215   1.101   0.781   0.941 -0.1819 -0.2061  0.1727
  536SOL     OW 2216   3.698   0.316   0.677 -0.2890 -0.1269  0.2586
  536SOL    HW2 2217   3.696   0.323   0.772 -0.6473 -1.3999  0.3587
  536SOL    HW3 2218   3.607   0.299   0.652 -0.0429 -0.7697 -0.2226
  536SOL    MW4 2219   3.686   0.314   0.686 -0.3040 -0.3797  0.2083
  537SOL     OW 2220   4.249   1.258   0.542  0.2266  0.1737  0.2817
  537SOL    HW2 2221   4.249   1.319   0.469  0.2719  0.3615  0.4364
  537SOL    HW3 2222   4.341   1.240   0.558  0.1959 -0.2398 -0.0165
  537SOL    MW4 2223   4.261   1.264   0.535  0.2289  0.1440  0.2627
  538SOL     OW 2224   0.890   0.405   1.005 -0.5295  0.3819  0.2615
  538SOL    HW2 2225   0.975   0.446   1.021 -0.0293  0.1063 -1.5381
  538SOL    HW3 2226   0.895   0.375   0.914 -2.2009 -0.4912  0.4396
  538SOL    MW4 2227   0.902   0.406   0.995 -0.6840  0.2304  0.0475
  539SOL     OW 2228   1.349   0.384   0.956 -0.5417 -0.3987  0.2948
  539SOL    HW2 2229   1.273   0.434   0.987 -1.8909 -3.1345  1.5391
  539SOL    HW3 2230   1.352   0.401   0.861 -0.4153  2.6904  0.8022
  539SOL    MW4 2231   1.339   0.393   0.947 -0.7030 -0.3521  0.5259
  540SOL     OW 2232   0.880   0.847   1.070 -0.3544 -0.1252 -0.5373
  540SOL    HW2 2233   0.892   0.941   1.061  0.8086 -0.2447 -0.3663
  540SOL    HW3 2234   0.796   0.829   1.028 -1.2080  1.1574  0.6037
  540SOL    MW4 2235   0.871   0.857   1.063 -0.3136  0.0283 -0.3642
  541SOL     OW 2236   2.901   1.406   0.553 -0.4900  0.3467  0.5159
  541SOL    HW2 2237   2.875   1.327   0.602  1.5248 -1.1690 -0.8091
  541SOL    HW3 2238   2.848   1.402   0.473  1.1398 -0.8401 -0.5362
  541SOL    MW4 2239   2.890   1.395   0.549 -0.0091 -0.0098  0.2023
  542SOL     OW 2240   1.381   1.649   1.063  0.2317  0.5877  0.1510
  542SOL    HW2 2241   1.294   1.622   1.035  0.0073  0.0621  1.3456
  542SOL    HW3 2242   1.384   1.743   1.047 -0.3518  0.5118 -0.4197
  542SOL    MW4 2243   1.370   1.658   1.057  0.1251  0.5085  0.2334
  543SOL     OW 2244   1.089   1.281   1.079  0.1296 -0.3439  0.3247
  543SOL    HW2 2245   1.164   1.224   1.065 -0.3165 -0.8597 -0.0301
  543SOL    HW3 2246   1.073   1.278   1.173 -1.9397 -3.5014 -0.0427
  543SOL    MW4 2247   1.097   1.273   1.089 -0.2022 -0.8286  0.2294
  544SOL     OW 2248   1.863   2.712   0.737 -0.2593  0.5324  0.5637
  544SOL    HW2 2249   1.853   2.631   0.687  0.9820  0.5629  0.2528
  544SOL    HW3 2250   1.845   2.782   0.674 -0.5611  0.5182  0.6347
  544SOL    MW4 2251   1.859   2.711   0.722 -0.1354  0.5345  0.5321
  545SOL     OW 2252   4.219   4.550   0.162  0.0728  0.3746  0.2002
  545SOL    HW2 2253   4.175   4.465   0.161 -0.1162  0.4647  0.5586
  545SOL    HW3 2254   4.223   4.574   0.255 -0.1000  0.8675  0.0860
  545SOL    MW4 2255   4.214   4.542   0.174  0.0253  0.4516  0.2325
  546SOL     OW 2256   4.064   4.025   1.087 -0.2796  0.1442  0.2575
  546SOL    HW2 2257   4.136   3.972   1.056 -0.1946 -0.5424  1.6136
  546SOL    HW3 2258   4.078   4.111   1.046  0.0519 -0.6198 -1.2440
  546SOL    MW4 2259   4.075   4.030   1.078 -0.2246 -0.0472  0.2383
  547SOL     OW 2260   1.147   2.810   1.072 -0.4108  0.1898 -0.1589
  547SOL    HW2 2261   1.139   2.787   1.165 -1.0070  0.5807 -0.1064
  547SOL    HW3 2262   1.222   2.760   1.041  0.2418  0.6180  0.7106
  547SOL    MW4 2263   1.156   2.800   1.080 -0.4034  0.2980 -0.0373
  548SOL     OW 2264   0.902   3.568   0.337  0.1302 -0.0919  0.1280
  548SOL    HW2 2265   0.952   3.649   0.351  1.3366 -0.4473 -1.9697
  548SOL    HW3 2266   0.968   3.499   0.338 -0.2739 -0.5784 -2.6742
  548SOL    MW4 2267   0.918   3.570   0.339  0.2360 -0.2031 -0.5185
  549SOL     OW 2268   4.415   2.043   0.709 -0.4110 -0.6483  0.1097
  549SOL    HW2 2269   4.423   2.000   0.794  0.0234 -1.0856 -0.1470
  549SOL    HW3 2270   4.503   2.039   0.672 -0.1092  1.4590  0.5437
  549SOL    MW4 2271   4.428   2.037   0.715 -0.3133 -0.4280  0.1331
  550SOL     OW 2272   0.707   2.830   1.109  0.6255  0.5241 -0.3210
  550SOL    HW2 2273   0.776   2.780   1.066  0.5125  0.8438 -0.8663
  550SOL    HW3 2274   0.626   2.797   1.070  0.4994  0.5731 -0.1051
  550SOL    MW4 2275   0.705   2.819   1.098  0.5940  0.5727 -0.3644
  551SOL     OW 2276   2.051   0.254   0.646 -0.0350 -0.1366 -0.0406
  551SOL    HW2 2277   2.074   0.263   0.553  0.9127 -1.0460  0.0900
  551SOL    HW3 2278   2.065   0.161   0.665 -1.1732 -0.1505  0.7718
  551SOL    MW4 2279   2.056   0.243   0.636 -0.0603 -0.2584  0.0838
  552SOL     OW 2280   1.341   0.882   1.064 -0.1353 -0.2413  0.2159
  552SOL    HW2 2281   1.414   0.848   1.013  0.4610 -0.4203  1.1794
  552SOL    HW3 2282   1.263   0.839   1.028  0.2184  0.0498 -0.8966
  552SOL    MW4 2283   1.340   0.872   1.052 -0.0098 -0.2265  0.1962
  553SOL     OW 2284   0.664   3.595   1.089  0.1275  0.2524  0.2296
  553SOL    HW2 2285   0.652   3.598   1.184 -0.0064  2.0278  0.1750
  553SOL    HW3 2286   0.744   3.544   1.076 -0.6457 -1.2424  1.2140
  553SOL    MW4 2287   0.673   3.589   1.100  0.0079  0.2894  0.3523
  554SOL     OW 2288   4.177   1.515   0.673  0.3237  0.1368 -0.1717
  554SOL    HW2 2289   4.189   1.531   0.767 -0.2946  0.7689 -0.1929
  554SOL    HW3 2290   4.212   1.428   0.659  0.4629  0.0534  0.6438
  554SOL    MW4 2291   4.183   1.506   0.684  0.2604  0.2091 -0.0669
  555SOL     OW 2292   1.106   3.606   1.079  0.2094 -0.5067 -0.1714
  555SOL    HW2 2293   1.184   3.559   1.047  0.5004 -0.0383 -0.1587
  555SOL    HW3 2294   1.033   3.549   1.056  0.6340 -1.4311  0.6933
  555SOL    MW4 2295   1.107   3.592   1.072  0.3037 -0.5667 -0.0557
  556SOL     OW 2296   0.043   3.750   0.343 -0.0088 -0.1332  0.1822
  556SOL    HW2 2297   0.107   3.703   0.290 -0.9281 -0.5874 -0.5417
  556SOL    HW3 2298  -0.040   3.707   0.324 -0.8634  1.7800 -0.4775
  556SOL    MW4 2299   0.041   3.738   0.334 -0.2429  0.0589 -0.0004
  557SOL     OW 2300   1.602   1.992   0.494 -0.7319 -0.4292  0.2752
  557SOL    HW2 2301   1.514   2.016   0.465 -0.0694  0.7194 -0.8642
  557SOL    HW3 2302   1.659   2.020   0.422  0.8619  1.4928  2.2049
  557SOL    MW4 2303   1.598   1.999   0.481 -0.4343 -0.0241  0.3794
  558SOL     OW 2304   1.355   4.232   0.992  0.2310 -0.1115 -0.2049
  558SOL    HW2 2305   1.268   4.263   1.016 -0.0598 -0.2817 -0.9999
  558SOL    HW3 2306   1.370   4.268   0.905  1.1798  0.3484  0.1425
  558SOL    MW4 2307   1.345   4.240   0.984  0.3178 -0.0739 -0.2640
  559SOL     OW 2308   1.563   0.496   1.098  0.1910  0.7642 -0.1502
  559SOL    HW2 2309   1.644   0.450   1.073 -0.4881 -0.0015 -0.9774
  559SOL    HW3 2310   1.496   0.460   1.040 -0.7369  1.4513  0.4769
  559SOL    MW4 2311   1.565   0.485   1.087 -0.0210  0.7538 -0.1765
  560SOL     OW 2312   1.376   0.138   1.065  0.2131  0.1249 -0.1312
  560SOL    HW2 2313   1.363   0.217   1.014 -1.0923  0.3934  0.6055
  560SOL    HW3 2314   1.300   0.083   1.044  0.1589 -0.1545  0.7728
  560SOL    MW4 2315   1.364   0.141   1.056  0.0337  0.1234  0.0852
  561SOL     OW 2316   4.036   2.351   0.320 -0.1473 -0.6070  0.3723
  561SOL    HW2 2317   4.121   2.381   0.289  0.4072 -1.2219  1.2556
  561SOL    HW3 2318   3.980   2.351   0.243  0.6828 -0.2875 -0.2309
  561SOL    MW4 2319   4.040   2.355   0.306  0.0353 -0.6459  0.4092
  562SOL     OW 2320   1.115   1.531   1.001 -0.0325  0.0022  0.3285
  562SOL    HW2 2321   1.126   1.450   1.050  0.8962  1.3000  2.3810
  562SOL    HW3 2322   1.029   1.564   1.028  0.2186  0.4182  0.6342
  562SOL    MW4 2323   1.105   1.525   1.011  0.1233  0.2283  0.6396
  563SOL     OW 2324   3.891   2.920   0.596 -0.0891  0.1344 -0.8411
  563SOL    HW2 2325   3.805   2.895   0.630  0.1150 -0.6975 -0.9259
  563SOL    HW3 2326   3.926   2.980   0.661 -0.3818 -0.1844 -0.3899
  563SOL    MW4 2327   3.884   2.924   0.609 -0.1009 -0.0174 -0.7927
  564SOL     OW 2328   1.833   1.154   0.954 -0.0447  0.0556 -0.4409
  564SOL    HW2 2329   1.842   1.153   0.859 -1.1753 -0.2695 -0.5568
  564SOL    HW3 2330   1.740   1.173   0.969  0.3082  1.0458  0.6105
  564SOL    MW4 2331   1.822   1.156   0.944 -0.1473  0.1435 -0.3174
  565SOL     OW 2332   3.815   4.076   0.528 -0.5687  0.3938  0.4704
  565SOL    HW2 2333   3.777   4.138   0.591 -2.2354  0.6608 -0.7616
  565SOL    HW3 2334   3.746   4.063   0.463  0.3424 -1.5687 -0.1328
  565SOL    MW4 2335   3.801   4.083   0.528 -0.6688  0.1698  0.2282
  566SOL     OW 2336   1.594   1.259   1.054 -0.3555  0.2591 -0.3472
  566SOL    HW2 2337   1.613   1.349   1.027  0.5437 -0.0931 -0.9129
  566SOL    HW3 2338   1.501   1.248   1.038  0.0731  0.1847 -2.9727
  566SOL    MW4 2339   1.584   1.269   1.048 -0.1801  0.2028 -0.7682
  567SOL     OW 2340   1.775   1.954   0.966  0.2784 -0.0975  0.0474
  567SOL    HW2 2341   1.691   1.994   0.986 -0.0965 -1.1703  0.6386
  567SOL    HW3 2342   1.789   1.971   0.873  0.1736  1.4772  0.3005
  567SOL    MW4 2343   1.766   1.962   0.956  0.2151 -0.0314  0.1588
  568SOL     OW 2344   4.238   3.667   0.369  0.0422 -0.1757 -0.6252
  568SOL    HW2 2345   4.197   3.655   0.455  0.9532  0.1229 -0.1432
  568SOL    HW3 2346   4.188   3.738   0.329 -1.1198 -1.0716 -0.8135
  568SOL    MW4 2347   4.226   3.675   0.375  0.0095 -0.2546 -0.5865
  569SOL     OW 2348   0.217   2.946   0.661  0.3154 -0.3110 -0.1197
  569SOL    HW2 2349   0.138   2.892   0.670  0.7038 -1.0703 -1.2104
  569SOL    HW3 2350   0.206   3.016   0.726 -1.5264 -0.0637 -0.6896
  569SOL    MW4 2351   0.205   2.948   0.671  0.1236 -0.3786 -0.3387
  570SOL     OW 2352   4.416   3.511   0.725 -0.2519 -0.2701  0.0396
  570SOL    HW2 2353   4.420   3.447   0.653 -0.4122 -0.1370 -0.0880
  570SOL    HW3 2354   4.466   3.586   0.693 -0.3931 -0.1785  0.0341
  570SOL    MW4 2355   4.423   3.512   0.711 -0.2913 -0.2403  0.0221
  571SOL     OW 2356   3.565   2.357   0.572  0.0561 -0.2516  0.3649
  571SOL    HW2 2357   3.646   2.339   0.620  0.7518  0.6345 -0.4792
  571SOL    HW3 2358   3.575   2.446   0.539 -1.1460 -0.2321  0.0117
  571SOL    MW4 2359   3.577   2.366   0.574 -0.0107 -0.1321  0.2069
  572SOL     OW 2360   3.873   4.383   1.060 -0.0183 -0.2632 -0.5719
  572SOL    HW2 2361   3.887   4.476   1.041  0.7032 -0.4316 -0.8524
  572SOL    HW3 2362   3.870   4.379   1.156 -2.2034  0.3618 -0.5919
  572SOL    MW4 2363   3.875   4.395   1.070 -0.2117 -0.2031 -0.6117
  573SOL     OW 2364   3.179   0.311   0.289  0.4440  0.1868 -0.1537
  573SOL    HW2 2365   3.121   0.235   0.281 -0.5246  0.8200  0.6372
  573SOL    HW3 2366   3.267   0.274   0.293 -0.0448 -0.9274  0.6597
  573SOL    MW4 2367   3.183   0.296   0.289  0.2518  0.1233  0.0580
  574SOL     OW 2368   2.055   2.850   1.115  0.1120 -0.1497  0.6195
  574SOL    HW2 2369   2.051   2.850   1.210  0.7291 -1.6966  0.6555
  574SOL    HW3 2370   2.119   2.782   1.093 -0.5193 -0.2765 -0.9040
  574SOL    MW4 2371   2.063   2.841   1.125  0.1101 -0.3707  0.4233
  575SOL     OW 2372   0.144   1.638   0.631  0.1038 -0.2519 -0.2201
  575SOL    HW2 2373   0.158   1.582   0.555  0.8034 -0.7738  0.2931
  575SOL    HW3 2374   0.049   1.654   0.633  0.1447  0.1665 -1.4808
  575SOL    MW4 2375   0.133   1.633   0.621  0.2015 -0.2655 -0.3188
  576SOL     OW 2376   1.352   3.228   1.125 -0.0307 -0.2294  0.0256
  576SOL    HW2 2377   1.340   3.234   1.220  0.9620  0.0907  0.1307
  576SOL    HW3 2378   1.286   3.164   1.097 -0.4650 -0.1769  0.8977
  576SOL    MW4 2379   1.342   3.220   1.134  0.0429 -0.1805  0.1545
  577SOL     OW 2380   3.172   3.258   1.081 -0.1413  0.0246  0.2625
  577SOL    HW2 2381   3.158   3.238   1.174 -0.9921 -1.0403 -0.0874
  577SOL    HW3 2382   3.102   3.212   1.036  0.7017 -0.0607 -0.9819
  577SOL    MW4 2383   3.161   3.249   1.088 -0.1423 -0.1273  0.0521
  578SOL     OW 2384   3.857   3.872   0.979  0.0202  0.1765 -0.3378
  578SOL    HW2 2385   3.924   3.929   1.019 -0.1915 -1.0914  1.8723
  578SOL    HW3 2386   3.862   3.791   1.028 -0.5494 -1.3145 -2.6670
  578SOL    MW4 2387   3.867   3.869   0.990 -0.0827 -0.1874 -0.3534
  579SOL     OW 2388   0.507   1.955   0.235 -0.3259  0.2360  0.4723
  579SOL    HW2 2389   0.464   2.003   0.164  0.9199  1.0412  0.2576
  579SOL    HW3 2390   0.557   2.021   0.282  3.0159 -1.1648 -1.0167
  579SOL    MW4 2391   0.508   1.970   0.232  0.2794  0.1575  0.2476
  580SOL     OW 2392   1.367   3.991   1.119  0.0215 -0.2122  0.3486
  580SOL    HW2 2393   1.283   3.963   1.082  0.0044 -0.6647  0.7281
  580SOL    HW3 2394   1.393   4.065   1.064 -0.0470 -0.8204 -0.5298
  580SOL    MW4 2395   1.359   3.997   1.107  0.0103 -0.3521  0.2828
  581SOL     OW 2396   0.078   2.031   0.343 -0.1117  0.1590 -0.2004
  581SOL    HW2 2397  -0.011   2.001   0.361 -0.0245 -0.8026 -1.3287
  581SOL    HW3 2398   0.130   1.951   0.337  1.1674  0.7936  2.1267
  581SOL    MW4 2399   0.073   2.017   0.344  0.0686  0.1159 -0.0423
  582SOL     OW 2400   1.561   4.398   1.112  0.2028 -0.0826  0.1926
  582SOL    HW2 2401   1.569   4.381   1.206 -1.0354 -0.3500  0.2534
  582SOL    HW3 2402   1.510   4.325   1.077  1.4298 -0.4553 -0.8542
  582SOL    MW4 2403   1.555   4.386   1.120  0.2013 -0.1669  0.0626
  583SOL     OW 2404   4.414   2.697   0.231  0.2319 -0.0129 -0.3617
  583SOL    HW2 2405   4.374   2.617   0.198  0.3080 -0.3250  0.2936
  583SOL    HW3 2406   4.342   2.760   0.237  0.2969  0.1674 -1.5088
  583SOL    MW4 2407   4.400   2.695   0.228  0.2503 -0.0303 -0.4266
  584SOL     OW 2408   0.246   1.579   0.344 -0.1784 -0.2698 -0.3388
  584SOL    HW2 2409   0.270   1.672   0.345  0.0523 -0.3343  1.6700
  584SOL    HW3 2410   0.329   1.534   0.327 -0.4926 -0.0786 -2.5297
  584SOL    MW4 2411   0.260   1.586   0.341 -0.1895 -0.2532 -0.3628
  585SOL     OW 2412   1.603   0.783   0.712 -0.3431  0.6759 -0.1013
  585SOL    HW2 2413   1.601   0.803   0.806 -0.2589 -0.7878  0.2224
  585SOL    HW3 2414   1.559   0.858   0.671 -0.7274  1.1478  1.1336
  585SOL    MW4 2415   1.597   0.796   0.719 -0.3825  0.5450  0.1042
  586SOL     OW 2416   1.290   1.941   0.753  0.3767  0.4782  0.2671
  586SOL    HW2 2417   1.222   1.889   0.710 -0.3215  0.1015  1.8126
  586SOL    HW3 2418   1.285   2.027   0.711 -1.2425  0.5340  0.5570
  586SOL    MW4 2419   1.281   1.945   0.741  0.0709  0.4359  0.5093
  587SOL     OW 2420   4.112   0.803   0.674 -0.2057  0.2330 -0.0876
  587SOL    HW2 2421   4.204   0.812   0.648 -0.1835  0.0528 -0.0725
  587SOL    HW3 2422   4.086   0.891   0.701 -0.5931  0.6832 -1.8989
  587SOL    MW4 2423   4.121   0.816   0.674 -0.2546  0.2686 -0.3247
  588SOL     OW 2424   2.049   0.526   1.096 -0.1666 -0.5606  0.2918
  588SOL    HW2 2425   2.117   0.461   1.080 -0.4004 -1.3065  2.1580
  588SOL    HW3 2426   2.053   0.543   1.190  0.5522  2.9053 -0.2936
  588SOL    MW4 2427   2.058   0.520   1.107 -0.1028 -0.2018  0.4609
  589SOL     OW 2428   1.812   0.896   1.078 -0.0392  0.7599 -0.1863
  589SOL    HW2 2429   1.813   0.918   1.172 -0.5627  0.5307 -0.1232
  589SOL    HW3 2430   1.847   0.974   1.035  2.5195 -0.0114  0.3635
  589SOL    MW4 2431   1.817   0.909   1.085  0.2291  0.6279 -0.1054
  590SOL     OW 2432   2.247   4.027   0.532  0.1983 -0.5724  0.4292
  590SOL    HW2 2433   2.240   3.968   0.457 -2.3238 -2.0603  1.7785
  590SOL    HW3 2434   2.304   3.982   0.594  1.0756 -0.0136  0.0364
  590SOL    MW4 2435   2.253   4.013   0.530 -0.0186 -0.6957  0.5554
  591SOL     OW 2436   1.092   2.838   0.609 -0.7538  0.2137  0.0663
  591SOL    HW2 2437   1.055   2.897   0.544 -0.2050  0.1513 -0.3065
  591SOL    HW3 2438   1.018   2.785   0.638 -0.6742 -0.9262 -1.7485
  591SOL    MW4 2439   1.077   2.839   0.604 -0.6709  0.0551 -0.2223
  592SOL     OW 2440   3.654   0.730   0.744 -0.0169  0.4806  0.0888
  592SOL    HW2 2441   3.701   0.685   0.674 -0.7139  0.6517 -0.5005
  592SOL    HW3 2442   3.708   0.717   0.822  0.7502  0.2585 -0.4720
  592SOL    MW4 2443   3.667   0.723   0.745 -0.0076  0.4738 -0.0630
  593SOL     OW 2444   1.629   3.112   0.536 -0.2187  0.5276  0.0669
  593SOL    HW2 2445   1.565   3.134   0.604 -1.0453  0.2718 -0.6123
  593SOL    HW3 2446   1.578   3.116   0.454  0.3041 -1.0626 -0.3483
  593SOL    MW4 2447   1.614   3.116   0.534 -0.2588  0.2840 -0.0775
  594SOL     OW 2448   1.333   1.920   1.024 -0.0805  0.0092  0.3269
  594SOL    HW2 2449   1.242   1.927   1.054 -0.6866 -0.2827 -1.3990
  594SOL    HW3 2450   1.328   1.929   0.929  1.5543 -1.2317  0.0995
  594SOL    MW4 2451   1.320   1.922   1.015  0.0553 -0.1931  0.0694
  595SOL     OW 2452   2.468   2.043   1.091  0.7175 -0.2420  0.1441
  595SOL    HW2 2453   2.384   2.002   1.074  1.3675 -1.8628  0.7045
  595SOL    HW3 2454   2.532   1.987   1.046  1.5257  0.7986 -0.0350
  595SOL    MW4 2455   2.466   2.030   1.083  0.9100 -0.3185  0.1944
  596SOL     OW 2456   1.990   2.342   0.978 -0.3427 -0.0581  0.0593
  596SOL    HW2 2457   1.992   2.261   1.029  1.8319 -0.4047 -0.5350
  596SOL    HW3 2458   2.078   2.379   0.988 -0.2955  0.5363 -2.3990
  596SOL    MW4 2459   2.002   2.337   0.986 -0.0496 -0.0253 -0.3434
  597SOL     OW 2460   1.771   2.013   0.256  0.0965  0.4702 -0.2509
  597SOL    HW2 2461   1.803   2.097   0.221  0.5607  0.5309  0.3139
  597SOL    HW3 2462   1.851   1.963   0.273 -0.1329  0.4143  0.6681
  597SOL    MW4 2463   1.786   2.017   0.253  0.1276  0.4709 -0.0551
  598SOL     OW 2464   1.332   2.040   0.355 -0.6474 -0.3432 -0.2700
  598SOL    HW2 2465   1.327   1.945   0.365 -0.4462 -0.2725  0.5015
  598SOL    HW3 2466   1.241   2.069   0.354 -0.7392 -0.6248 -1.3630
  598SOL    MW4 2467   1.319   2.031   0.356 -0.6330 -0.3710 -0.3124
  599SOL     OW 2468   0.391   1.167   0.960 -0.3385  0.0231 -0.1092
  599SOL    HW2 2469   0.313   1.208   0.997 -0.4585 -0.6990  0.4481
  599SOL    HW3 2470   0.463   1.198   1.015 -0.5563 -1.3120  0.9816
  599SOL    MW4 2471   0.390   1.176   0.972 -0.3831 -0.2483  0.1082
  600SOL     OW 2472   1.562   3.579   1.049  0.2937 -0.3778 -0.2042
  600SOL    HW2 2473   1.648   3.541   1.030  0.3232  0.4417 -1.7813
  600SOL    HW3 2474   1.566   3.668   1.013 -1.3692 -0.5030 -0.7552
  600SOL    MW4 2475   1.574   3.586   1.042  0.0781 -0.2863 -0.4849
  601SOL     OW 2476   1.332   3.464   1.004 -0.1235  0.6562  0.1457
  601SOL    HW2 2477   1.335   3.375   1.040  0.7387  0.4005 -0.5364
  601SOL    HW3 2478   1.417   3.501   1.026 -0.4546  1.2777  0.3560
  601SOL    MW4 2479   1.344   3.457   1.011 -0.0535  0.7048  0.0834
  602SOL     OW 2480   4.142   4.305   0.282 -0.1212  0.1496  0.7359
  602SOL    HW2 2481   4.052   4.320   0.312 -1.1133 -0.3807 -1.8292
  602SOL    HW3 2482   4.155   4.211   0.295  0.4600  0.4193  2.1239
  602SOL    MW4 2483   4.132   4.294   0.287 -0.1755  0.1159  0.5805
  603SOL     OW 2484   2.213   3.473   1.380 -0.4399  0.1114  0.5380
  603SOL    HW2 2485   2.217   3.488   1.475 -1.7268  0.7828  0.4919
  603SOL    HW3 2486   2.284   3.527   1.345 -0.7174  0.7984  1.0139
  603SOL    MW4 2487   2.223   3.482   1.388 -0.6464  0.2909  0.5946
  604SOL     OW 2488   1.774   4.019   1.017  0.2615 -0.0517  0.1856
  604SOL    HW2 2489   1.774   4.021   1.113  1.9578  1.6527  0.1732
  604SOL    HW3 2490   1.851   3.967   0.994  0.7172  0.8019 -0.2491
  604SOL    MW4 2491   1.784   4.012   1.027  0.5455  0.2861  0.1265
  605SOL     OW 2492   2.251   0.655   0.592 -0.0712  0.8963 -0.5883
  605SOL    HW2 2493   2.190   0.718   0.629 -0.1775  0.7897 -0.5814
  605SOL    HW3 2494   2.337   0.695   0.603 -0.0746  0.7349  0.0339
  605SOL    MW4 2495   2.254   0.668   0.598 -0.0856  0.8609 -0.5053
  606SOL     OW 2496   2.033   4.342   1.108 -0.1743 -0.2259  0.5199
  606SOL    HW2 2497   1.954   4.319   1.060 -0.2839  0.7851  0.1909
  606SOL    HW3 2498   2.002   4.358   1.198 -0.5293  1.1968  0.1597
  606SOL    MW4 2499   2.018   4.341   1.114 -0.2356  0.0949  0.4289
  607SOL     OW 2500   4.440   0.438   0.700 -0.2383  0.1621 -0.1395
  607SOL    HW2 2501   4.476   0.364   0.652 -0.5915  0.1454 -0.3736
  607SOL    HW3 2502   4.453   0.513   0.642  0.6900  0.3975  0.3500
  607SOL    MW4 2503   4.447   0.438   0.686 -0.1621  0.1910 -0.1059
  608SOL     OW 2504   2.052   0.784   0.996  0.0589 -0.5431  0.1618
  608SOL    HW2 2505   2.071   0.691   1.009 -0.2904 -1.0039 -2.5080
  608SOL    HW3 2506   1.964   0.796   1.031 -0.3369 -1.4666 -0.5021
  608SOL    MW4 2507   2.043   0.774   1.002 -0.0396 -0.7258 -0.2781
  609SOL     OW 2508   1.808   0.387   1.024 -0.3999  0.6636 -0.3418
  609SOL    HW2 2509   1.883   0.439   1.054  0.9085 -1.8783  0.9045
  609SOL    HW3 2510   1.814   0.390   0.929  1.3342  0.4110 -0.2499
  609SOL    MW4 2511   1.819   0.394   1.016  0.0014  0.2949 -0.1652
  610SOL     OW 2512   0.488   0.934   0.255 -0.0175  0.5528 -0.5271
  610SOL    HW2 2513   0.568   0.924   0.307 -1.5671  0.7374  1.9497
  610SOL    HW3 2514   0.497   0.868   0.186  1.4311 -0.7211  0.8144
  610SOL    MW4 2515   0.500   0.924   0.253 -0.0309  0.4091 -0.0233
  611SOL     OW 2516   0.703   3.510   0.538 -0.0995 -0.2524 -0.1000
  611SOL    HW2 2517   0.666   3.586   0.582  1.7294 -0.3855  1.7228
  611SOL    HW3 2518   0.758   3.548   0.468 -0.4198  0.0478 -0.1917
  611SOL    MW4 2519   0.705   3.525   0.534  0.0995 -0.2301  0.1284
  612SOL     OW 2520   0.422   4.538   0.644  0.3608 -0.3595 -0.4061
  612SOL    HW2 2521   0.507   4.580   0.654  0.8139 -1.1652 -0.7959
  612SOL    HW3 2522   0.438   4.446   0.664 -0.2877 -0.6221 -1.0762
  612SOL    MW4 2523   0.435   4.531   0.648  0.3350 -0.5007 -0.5459
  613SOL     OW 2524   1.484   2.473   0.169 -0.5725 -0.4455 -0.1739
  613SOL    HW2 2525   1.566   2.520   0.182 -1.4380  1.1395 -0.2880
  613SOL    HW3 2526   1.480   2.410   0.242 -0.1014  0.7024  0.8551
  613SOL    MW4 2527   1.494   2.471   0.180 -0.6244 -0.0849 -0.0532
  614SOL     OW 2528   2.982   0.968   0.349  0.3650 -0.4956  0.0714
  614SOL    HW2 2529   2.920   0.923   0.291  0.8097 -0.5346 -0.3829
  614SOL    HW3 2530   3.010   1.045   0.299 -0.4742  0.3466  0.8878
  614SOL    MW4 2531   2.978   0.972   0.334  0.3130 -0.3897  0.1192
  615SOL     OW 2532   1.574   3.852   0.989 -0.1728 -0.0129  0.3356
  615SOL    HW2 2533   1.494   3.894   1.021 -0.6519 -0.9944  0.4581
  615SOL    HW3 2534   1.645   3.907   1.021 -0.7519  0.2686  1.1642
  615SOL    MW4 2535   1.572   3.864   0.997 -0.3124 -0.1051  0.4612
  616SOL     OW 2536   3.606   3.370   0.528  0.0703  0.0180  0.0777
  616SOL    HW2 2537   3.689   3.351   0.484  0.5261 -2.3843  1.9001
  616SOL    HW3 2538   3.632   3.415   0.609 -0.3690 -1.1010  0.8459
  616SOL    MW4 2539   3.621   3.374   0.533  0.0727 -0.4463  0.4196
  617SOL     OW 2540   1.979   2.093   1.088  0.0085 -0.0239 -0.3745
  617SOL    HW2 2541   1.969   2.084   1.182 -0.5341  0.2326 -0.4103
  617SOL    HW3 2542   1.900   2.055   1.051  0.1135  0.0876 -0.7194
  617SOL    MW4 2543   1.968   2.087   1.095 -0.0495  0.0248 -0.4247
  618SOL     OW 2544   1.100   2.198   0.351  0.3686  0.0744 -0.2237
  618SOL    HW2 2545   1.050   2.181   0.271 -0.4504 -0.3649  0.3762
  618SOL    HW3 2546   1.033   2.216   0.417  0.9938 -0.9168  0.6853
  618SOL    MW4 2547   1.084   2.198   0.349  0.3431 -0.1142 -0.0246
  619SOL     OW 2548   2.209   3.473   0.963  0.4865 -0.3095  0.0809
  619SOL    HW2 2549   2.128   3.523   0.977 -0.0987 -1.3499  0.4944
  619SOL    HW3 2550   2.279   3.535   0.984 -0.2325  0.2393  0.9269
  619SOL    MW4 2551   2.208   3.488   0.968  0.3147 -0.3743  0.2471
  620SOL     OW 2552   2.243   2.421   1.058  0.2633 -0.1005 -0.2997
  620SOL    HW2 2553   2.252   2.435   1.152 -1.1218 -0.8098 -0.0457
  620SOL    HW3 2554   2.321   2.372   1.033  0.7648  0.3176  0.4219
  620SOL    MW4 2555   2.255   2.417   1.067  0.1469 -0.1388 -0.1711
  621SOL     OW 2556   0.296   0.579   9.929  0.5563  0.0084  0.2002
  621SOL    HW2 2557   0.270   0.507   9.986  1.1691  0.2597  0.7985
  621SOL    HW3 2558   0.216   0.629   9.916 -0.2263 -1.6152 -1.4506
  621SOL    MW4 2559   0.282   0.576   9.935  0.5339 -0.1727  0.0620
  622SOL     OW 2560   2.243   2.685   1.006  0.0681  0.2824  0.5906
  622SOL    HW2 2561   2.249   2.590   1.011 -0.1347  0.0486 -2.5774
  622SOL    HW3 2562   2.331   2.715   1.029  0.9240 -0.8422 -1.1086
  622SOL    MW4 2563   2.256   2.676   1.009  0.1543  0.1035 -0.0517
  623SOL     OW 2564   1.441   3.930   0.338 -0.4718 -0.1561  0.3893
  623SOL    HW2 2565   1.430   3.909   0.431 -1.3900  0.0612  0.3270
  623SOL    HW3 2566   1.418   3.850   0.292 -1.3292  0.1520  0.2827
  623SOL    MW4 2567   1.437   3.917   0.345 -0.7060 -0.0865  0.3670
  624SOL     OW 2568   2.049   3.103   0.987  0.0873  0.0725 -0.2003
  624SOL    HW2 2569   1.976   3.146   1.031 -0.0125  0.2860 -0.5704
  624SOL    HW3 2570   2.060   3.020   1.033  0.9660  0.9501  1.2230
  624SOL    MW4 2571   2.041   3.098   0.999  0.1903  0.2165 -0.0613
  625SOL     OW 2572   2.153   3.586   0.621  0.3674  0.1382 -0.6652
  625SOL    HW2 2573   2.101   3.666   0.623  2.0134  1.2137 -0.7358
  625SOL    HW3 2574   2.243   3.615   0.630  0.9532 -1.7437 -0.2625
  625SOL    MW4 2575   2.158   3.600   0.623  0.6621  0.0317 -0.6214
  626SOL     OW 2576   2.438   3.642   1.033  0.0345 -0.2178  0.0377
  626SOL    HW2 2577   2.447   3.641   1.128  0.4546 -0.7250 -0.0082
  626SOL    HW3 2578   2.444   3.735   1.009 -0.9739 -0.0096  0.5903
  626SOL    MW4 2579   2.440   3.654   1.042 -0.0429 -0.2573  0.1044
  627SOL     OW 2580   0.474   2.282   0.594 -0.2982  0.2826 -0.2137
  627SOL    HW2 2581   0.540   2.254   0.657 -0.8642 -1.3491 -0.3347
  627SOL    HW3 2582   0.471   2.378   0.604 -0.5447  0.0520  2.3998
  627SOL    MW4 2583   0.483   2.291   0.604 -0.4053  0.0370  0.1152
  628SOL     OW 2584   2.247   3.994   1.049 -0.1616 -0.6217  0.8408
  628SOL    HW2 2585   2.173   3.966   0.995  0.1818  0.8474 -0.4518
  628SOL    HW3 2586   2.209   4.008   1.136 -0.8225 -2.5557  0.8724
  628SOL    MW4 2587   2.232   3.992   1.053 -0.2036 -0.6831  0.6744
  629SOL     OW 2588   3.934   1.886   0.702  0.2235  0.0937  0.0687
  629SOL    HW2 2589   3.890   1.805   0.728  0.8628  0.0763  1.0985
  629SOL    HW3 2590   3.985   1.912   0.778  1.2547  0.6305 -0.7835
  629SOL    MW4 2591   3.935   1.879   0.715  0.4439  0.1622  0.0921
  630SOL     OW 2592   2.711   0.136   1.083 -0.0370 -0.8837 -0.4239
  630SOL    HW2 2593   2.722   0.123   1.178  0.3080 -1.2702 -0.5153
  630SOL    HW3 2594   2.634   0.083   1.061 -0.2335 -0.6391 -0.3255
  630SOL    MW4 2595   2.703   0.127   1.093 -0.0174 -0.9024 -0.4230
  631SOL     OW 2596   1.735   1.196   0.244 -0.1028 -0.0480  0.1576
  631SOL    HW2 2597   1.767   1.286   0.249  0.0461 -0.0420 -0.7616
  631SOL    HW3 2598   1.785   1.149   0.311  0.2867  0.4130  0.1924
  631SOL    MW4 2599   1.746   1.202   0.254 -0.0316  0.0137  0.0409
  632SOL     OW 2600   2.935   0.473   1.108 -0.0731  0.1446  0.1389
  632SOL    HW2 2601   2.860   0.441   1.056  0.3662  0.1400 -0.4917
  632SOL    HW3 2602   3.012   0.441   1.061  0.3328  0.3312  0.6753
  632SOL    MW4 2603   2.935   0.464   1.095  0.0384  0.1686  0.1265
  633SOL     OW 2604   2.034   3.825   0.674  0.6151 -0.0896  0.2139
  633SOL    HW2 2605   1.950   3.843   0.631 -0.2590  1.1724  2.3748
  633SOL    HW3 2606   2.100   3.856   0.612 -0.5294 -0.1922 -1.0977
  633SOL    MW4 2607   2.031   3.831   0.660  0.3488  0.0632  0.3260
  634SOL     OW 2608   0.711   3.077   0.307 -0.4159  0.0555 -0.0473
  634SOL    HW2 2609   0.666   3.143   0.360  0.3433  0.0256  0.6395
  634SOL    HW3 2610   0.754   3.128   0.238  1.0185  0.3927  1.0809
  634SOL    MW4 2611   0.711   3.093   0.305 -0.1264  0.0956  0.1923
  635SOL     OW 2612   2.466   0.771   0.978  0.5941 -0.4103  0.4494
  635SOL    HW2 2613   2.489   0.692   1.026  0.7554 -0.6269  0.0186
  635SOL    HW3 2614   2.400   0.814   1.032  2.1550  0.3255  1.8111
  635SOL    MW4 2615   2.460   0.767   0.991  0.8214 -0.3418  0.5723
  636SOL     OW 2616   3.161   0.100   1.009 -0.2593 -0.0401  0.1604
  636SOL    HW2 2617   3.074   0.063   0.995 -0.5746  1.2639 -1.4195
  636SOL    HW3 2618   3.175   0.093   1.104 -0.8756 -2.8982  0.0785
  636SOL    MW4 2619   3.152   0.094   1.020 -0.3822 -0.2452 -0.0588
  637SOL     OW 2620   2.682   2.426   1.095 -0.4342 -0.5266  0.1008
  637SOL    HW2 2621   2.688   2.434   1.190  1.3573 -1.1689  0.0611
  637SOL    HW3 2622   2.705   2.513   1.062  1.8299 -1.0430  0.2009
  637SOL    MW4 2623   2.686   2.439   1.103  0.1006 -0.6793  0.1087
  638SOL     OW 2624   0.711   0.464   0.237  0.4280  0.0904  0.3397
  638SOL    HW2 2625   0.752   0.508   0.162 -0.8577  0.0992 -0.3709
  638SOL    HW3 2626   0.623   0.501   0.241  0.5100  0.1357  1.9060
  638SOL    MW4 2627   0.705   0.474   0.228  0.2692  0.0975  0.4526
  639SOL     OW 2628   2.314   4.623   0.267 -0.1124  0.1014  0.0685
  639SOL    HW2 2629   2.368   4.546   0.284 -0.3880 -0.0197  0.4057
  639SOL    HW3 2630   2.232   4.606   0.315 -0.1033  0.6833  0.2922
  639SOL    MW4 2631   2.310   4.610   0.275 -0.1473  0.1616  0.1425
  640SOL     OW 2632   1.970   4.319   0.441  0.1524  0.4471  0.3705
  640SOL    HW2 2633   1.924   4.315   0.524 -0.1116  0.2081  0.2148
  640SOL    HW3 2634   1.974   4.412   0.419 -0.1164  0.4790  0.4623
  640SOL    MW4 2635   1.965   4.331   0.449  0.0820  0.4196  0.3621
  641SOL     OW 2636   0.038   0.109   1.086  0.1095  0.0386  0.1468
  641SOL    HW2 2637   0.130   0.091   1.071 -0.1482 -0.2118 -1.1505
  641SOL    HW3 2638   0.019   0.187   1.035 -1.0030 -1.3924 -1.6995
  641SOL    MW4 2639   0.047   0.117   1.077 -0.0712 -0.1833 -0.2680
  642SOL     OW 2640   3.425   3.164   0.556  0.2083 -0.1547  0.4692
  642SOL    HW2 2641   3.463   3.099   0.496 -1.0732 -0.0109 -0.5284
  642SOL    HW3 2642   3.488   3.236   0.557  0.4874 -0.3828 -0.3270
  642SOL    MW4 2643   3.438   3.165   0.548  0.0761 -0.1657  0.2325
  643SOL     OW 2644   2.882   2.286   0.975  0.4005 -0.3624 -0.4792
  643SOL    HW2 2645   2.827   2.336   1.035  2.1719  0.4245  0.4990
  643SOL    HW3 2646   2.871   2.195   1.003 -0.5375 -0.2326 -0.4128
  643SOL    MW4 2647   2.873   2.280   0.986  0.5102 -0.2413 -0.3414
  644SOL     OW 2648   3.101   2.445   1.061  0.3546 -0.3724  0.3064
  644SOL    HW2 2649   3.098   2.449   1.157  1.1083 -2.4119  0.4388
  644SOL    HW3 2650   3.037   2.378   1.038  1.3504 -1.0565 -0.5078
  644SOL    MW4 2651   3.093   2.436   1.071  0.5853 -0.7315  0.2165
  645SOL     OW 2652   2.672   1.879   0.951  0.2663  0.2246  0.2785
  645SOL    HW2 2653   2.732   1.946   0.984  0.7540  0.0091 -0.1614
  645SOL    HW3 2654   2.686   1.803   1.008  1.0530 -0.1218 -0.3662
  645SOL    MW4 2655   2.682   1.878   0.963  0.4344  0.1504  0.1354
  646SOL     OW 2656   3.467   3.907   0.646 -0.1968  0.2718  0.4421
  646SOL    HW2 2657   3.382   3.871   0.621 -0.2424  1.3550 -1.0372
  646SOL    HW3 2658   3.474   3.889   0.740 -1.2683 -1.4063  0.2251
  646SOL    MW4 2659   3.456   3.900   0.655 -0.3440  0.1934  0.2183
  647SOL     OW 2660   1.283   1.387   0.600 -0.0254  0.4450  0.1383
  647SOL    HW2 2661   1.252   1.353   0.516 -1.6754  0.2715  0.7967
  647SOL    HW3 2662   1.280   1.312   0.658  3.3137  0.0097 -0.1829
  647SOL    MW4 2663   1.278   1.373   0.596  0.1973  0.3647  0.1827
  648SOL     OW 2664   2.712   3.234   1.023 -0.2556 -0.3806  0.4967
  648SOL    HW2 2665   2.798   3.201   0.998  0.3636  0.9413  0.8424
  648SOL    HW3 2666   2.718   3.248   1.117 -1.7449 -2.8952  0.9863
  648SOL    MW4 2667   2.724   3.232   1.032 -0.3703 -0.5379  0.6070
  649SOL     OW 2668   0.959   2.212   0.601  0.0749 -0.2054  0.0505
  649SOL    HW2 2669   1.049   2.201   0.630  0.7354  0.3930 -1.7445
  649SOL    HW3 2670   0.919   2.126   0.613  0.7470 -0.3622  1.2689
  649SOL    MW4 2671   0.965   2.200   0.607  0.2508 -0.1471 -0.0256
  650SOL     OW 2672   1.983   1.603   0.749  0.2734  0.4096  0.5092
  650SOL    HW2 2673   1.987   1.591   0.844 -0.1657 -0.1096  0.4667
  650SOL    HW3 2674   1.929   1.530   0.719  0.4560  0.5483 -0.1438
  650SOL    MW4 2675   1.976   1.592   0.758  0.2396  0.3593  0.4174
  651SOL     OW 2676   2.948   3.905   1.008 -0.1807 -0.2061  0.0861
  651SOL    HW2 2677   2.958   3.811   1.015  0.7481 -0.0941  0.3115
  651SOL    HW3 2678   3.033   3.941   1.035 -0.2029  0.6520 -0.9282
  651SOL    MW4 2679   2.961   3.898   1.013 -0.0610 -0.0780 -0.0180
  652SOL     OW 2680   2.714   4.038   1.095 -0.2233 -0.2077  0.2550
  652SOL    HW2 2681   2.796   3.994   1.074  0.0590 -0.0458  0.9870
  652SOL    HW3 2682   2.647   3.992   1.044  0.0543 -1.5255  1.0617
  652SOL    MW4 2683   2.716   4.026   1.086 -0.1495 -0.3605  0.4581
  653SOL     OW 2684   4.237   2.833   0.547 -0.5015  0.2935 -0.5980
  653SOL    HW2 2685   4.184   2.762   0.583 -0.7834  0.8682  0.1394
  653SOL    HW3 2686   4.326   2.814   0.578 -0.7078  0.6769  0.2694
  653SOL    MW4 2687   4.242   2.821   0.556 -0.5660  0.4199 -0.3862
  654SOL     OW 2688   2.912   4.654   0.961 -0.0743 -0.1196  0.0416
  654SOL    HW2 2689   2.851   4.713   1.005 -1.2829 -1.6107  0.4059
  654SOL    HW3 2690   2.926   4.583   1.024  2.4473  0.4162  0.1722
  654SOL    MW4 2691   2.906   4.652   0.975  0.0989 -0.2457  0.1068
  655SOL     OW 2692   3.359   4.095   0.232 -0.0098  0.1765 -0.1529
  655SOL    HW2 2693   3.276   4.081   0.279  1.1438 -1.8357  1.3345
  655SOL    HW3 2694   3.364   4.022   0.170  1.1374 -0.2913  0.4829
  655SOL    MW4 2695   3.348   4.084   0.230  0.2935 -0.1507  0.1272
  656SOL     OW 2696   2.727   0.143   1.344 -0.1113 -0.3588  0.0457
  656SOL    HW2 2697   2.647   0.090   1.349 -1.2901  1.2794 -0.9049
  656SOL    HW3 2698   2.705   0.224   1.390  1.7146 -0.7121  1.5879
  656SOL    MW4 2699   2.713   0.147   1.351 -0.0265 -0.1893  0.1239
  657SOL     OW 2700   3.374   4.165   0.718 -0.1620 -0.6006 -0.1911
  657SOL    HW2 2701   3.396   4.072   0.715 -1.4529 -0.8951 -0.7477
  657SOL    HW3 2702   3.458   4.210   0.710  0.3201 -1.7069 -1.3660
  657SOL    MW4 2703   3.388   4.159   0.717 -0.2687 -0.7854 -0.4196
  658SOL     OW 2704   3.182   0.387   0.970  0.0836 -0.6779  0.7993
  658SOL    HW2 2705   3.167   0.293   0.982  1.8753 -1.0937  0.0459
  658SOL    HW3 2706   3.224   0.393   0.884 -1.6060  0.9952  0.0565
  658SOL    MW4 2707   3.186   0.375   0.960  0.0970 -0.5120  0.6019
  659SOL     OW 2708   3.560   0.880   1.143  0.3561  0.3084  0.0010
  659SOL    HW2 2709   3.578   0.961   1.094  0.0069  0.8292  0.7211
  659SOL    HW3 2710   3.616   0.814   1.102 -0.9704  0.3922 -2.0486
  659SOL    MW4 2711   3.570   0.882   1.131  0.1349  0.3882 -0.1744
  660SOL     OW 2712   3.088   1.160   0.994  0.0247 -0.3216  0.0630
  660SOL    HW2 2713   3.076   1.073   1.033  0.5236 -0.3948  0.0555
  660SOL    HW3 2714   3.125   1.142   0.907 -0.8786 -0.1504 -0.3625
  660SOL    MW4 2715   3.092   1.146   0.987 -0.0286 -0.3088  0.0059
  661SOL     OW 2716   4.182   0.280   0.227  0.4297  0.1008  0.2501
  661SOL    HW2 2717   4.142   0.211   0.172  1.3145  0.0464 -0.3316
  661SOL    HW3 2718   4.272   0.251   0.240  0.3903  0.4125  1.2556
  661SOL    MW4 2719   4.188   0.267   0.221  0.5417  0.1348  0.3060
  662SOL     OW 2720   3.795   1.270   1.095 -0.2181 -0.1828 -0.3810
  662SOL    HW2 2721   3.794   1.282   1.190  0.7463 -1.2771 -0.2182
  662SOL    HW3 2722   3.808   1.358   1.060  0.1350  0.1326  0.5247
  662SOL    MW4 2723   3.797   1.283   1.103 -0.0443 -0.2856 -0.2401
  663SOL     OW 2724   1.580   2.694   0.577 -0.0118  0.4350 -0.0043
  663SOL    HW2 2725   1.654   2.754   0.571  1.1730 -1.1032 -1.5823
  663SOL    HW3 2726   1.529   2.712   0.498  0.0530 -0.2538 -0.2028
  663SOL    MW4 2727   1.583   2.704   0.566  0.1531  0.1411 -0.2387
  664SOL     OW 2728   0.947   2.155   0.115  0.7352 -0.2993 -0.4938
  664SOL    HW2 2729   0.866   2.116   0.150  0.7619  1.0709  1.1315
  664SOL    HW3 2730   0.976   2.092   0.048  0.0260 -2.3931  1.0881
  664SOL    MW4 2731   0.940   2.141   0.110  0.6452 -0.3946 -0.0707
  665SOL     OW 2732   4.095   4.270   0.951 -0.1704  0.1592  0.0599
  665SOL    HW2 2733   4.168   4.305   1.002  0.2650  0.8254 -0.9910
  665SOL    HW3 2734   4.018   4.312   0.988  0.2386  1.3892 -0.4328
  665SOL    MW4 2735   4.095   4.280   0.962 -0.0591  0.4096 -0.1438
  666SOL     OW 2736   2.239   1.686   1.085  0.2917  0.4464  0.5147
  666SOL    HW2 2737   2.314   1.650   1.038 -0.2495 -1.4176  1.0591
  666SOL    HW3 2738   2.241   1.780   1.064  1.7732  0.1396 -0.8212
  666SOL    MW4 2739   2.249   1.694   1.076  0.4158  0.1600  0.4102
  667SOL     OW 2740   3.207   0.789   0.376  0.0947 -0.0694  0.2802
  667SOL    HW2 2741   3.162   0.704   0.366 -1.7083  0.8504  0.3810
  667SOL    HW3 2742   3.140   0.854   0.354  1.5486  1.3307 -0.0801
  667SOL    MW4 2743   3.192   0.786   0.371  0.0486  0.2367  0.2460
  668SOL     OW 2744   3.320   2.317   0.951  0.1508 -0.2471 -0.0475
  668SOL    HW2 2745   3.247   2.361   0.994 -0.1276 -1.9886  1.3472
  668SOL    HW3 2746   3.398   2.358   0.987 -0.0819 -1.5323  2.0271
  668SOL    MW4 2747   3.321   2.328   0.962  0.0834 -0.6466  0.4102
  669SOL     OW 2748   1.804   3.856   0.494  0.1397 -0.2230 -0.2811
  669SOL    HW2 2749   1.849   3.919   0.438 -0.0399  0.2352  0.0933
  669SOL    HW3 2750   1.741   3.908   0.543 -0.8500 -0.8829 -0.8435
  669SOL    MW4 2751   1.802   3.871   0.493 -0.0147 -0.2496 -0.3059
  670SOL     OW 2752   3.383   2.817   1.107 -0.4043 -0.2865  0.5384
  670SOL    HW2 2753   3.315   2.777   1.053 -0.1139  0.3314 -0.3016
  670SOL    HW3 2754   3.374   2.911   1.091  1.0520 -0.2288 -0.0830
  670SOL    MW4 2755   3.373   2.824   1.097 -0.1738 -0.1974  0.3456
  671SOL     OW 2756   3.787   2.272   0.714 -0.6331 -0.1361 -0.1176
  671SOL    HW2 2757   3.738   2.192   0.694 -1.1405 -0.0282  0.6742
  671SOL    HW3 2758   3.863   2.268   0.656 -1.0234 -0.8369 -0.5947
  671SOL    MW4 2759   3.791   2.261   0.704 -0.7515 -0.2143 -0.0761
  672SOL     OW 2760   2.226   4.293   0.518  0.1215 -0.2140 -0.1489
  672SOL    HW2 2761   2.145   4.316   0.472  0.9348  0.6162 -1.1671
  672SOL    HW3 2762   2.231   4.197   0.509 -0.4761 -0.2136 -0.5325
  672SOL    MW4 2763   2.216   4.283   0.511  0.1500 -0.1044 -0.3339
  673SOL     OW 2764   3.392   3.075   1.030  0.3867 -0.0278  0.4266
  673SOL    HW2 2765   3.463   3.139   1.042 -1.1423  1.6408  0.7512
  673SOL    HW3 2766   3.312   3.126   1.042 -0.8794 -1.8343 -0.2400
  673SOL    MW4 2767   3.391   3.090   1.033  0.0179 -0.0463  0.3815
  674SOL     OW 2768   3.847   3.626   1.086 -0.2787  0.3604  0.4054
  674SOL    HW2 2769   3.773   3.575   1.051 -0.7240  1.6581 -0.6032
  674SOL    HW3 2770   3.830   3.631   1.180 -1.2157  0.2313  0.2487
  674SOL    MW4 2771   3.835   3.620   1.094 -0.4611  0.5147  0.2517
  675SOL     OW 2772   3.196   4.004   1.068 -0.3980  0.1223  0.5804
  675SOL    HW2 2773   3.202   4.098   1.053  3.5718 -0.1983 -0.2091
  675SOL    HW3 2774   3.189   3.995   1.163  2.0415  1.1137  0.8722
  675SOL    MW4 2775   3.196   4.015   1.079  0.4478  0.2108  0.5147
  676SOL     OW 2776   3.091   1.729   0.519  0.4023 -0.5779 -0.5409
  676SOL    HW2 2777   3.045   1.672   0.580  1.1263 -0.2088  0.3763
  676SOL    HW3 2778   3.131   1.670   0.456 -0.4724 -0.9579 -0.7403
  676SOL    MW4 2779   3.091   1.714   0.519  0.3824 -0.5792 -0.4462
  677SOL     OW 2780   0.786   2.408   0.408 -0.1932  0.0531  0.5598
  677SOL    HW2 2781   0.705   2.449   0.378 -0.9303 -0.4140  1.8788
  677SOL    HW3 2782   0.775   2.400   0.502  1.8286  0.9298  0.9010
  677SOL    MW4 2783   0.774   2.413   0.416 -0.0237  0.1073  0.7789
  678SOL     OW 2784   3.425   4.399   1.084 -0.2353 -0.0359 -0.4301
  678SOL    HW2 2785   3.500   4.348   1.053  1.5777  2.2704 -0.0375
  678SOL    HW3 2786   3.415   4.468   1.018 -0.7325  0.8349  0.5437
  678SOL    MW4 2787   3.434   4.401   1.071 -0.0618  0.3834 -0.2497
  679SOL     OW 2788   4.102   0.104   1.105  0.2256  0.0721  0.1337
  679SOL    HW2 2789   4.105   0.098   1.200  1.4653 -0.9898  0.0481
  679SOL    HW3 2790   4.019   0.062   1.081  0.8187 -1.4422  0.6470
  679SOL    MW4 2791   4.091   0.098   1.114  0.4673 -0.2678  0.1904
  680SOL     OW 2792   3.607   0.102   1.090  0.3642 -0.2185 -0.4971
  680SOL    HW2 2793   3.619   0.121   1.183  0.2627 -0.8764 -0.3458
  680SOL    HW3 2794   3.614   0.187   1.047  0.2846  0.1064  0.1259
  680SOL    MW4 2795   3.610   0.116   1.097  0.3405 -0.2624 -0.3949
  681SOL     OW 2796   3.411   0.490   1.099  0.7710 -0.3924  0.1293
  681SOL    HW2 2797   3.335   0.443   1.067  0.4242 -0.6950  1.3688
  681SOL    HW3 2798   3.402   0.578   1.064  0.3013 -0.6628 -0.4247
  681SOL    MW4 2799   3.400   0.495   1.090  0.6630 -0.4680  0.2198
  682SOL     OW 2800   4.209   0.735   0.948 -0.8246 -0.2976 -0.5164
  682SOL    HW2 2801   4.184   0.732   0.856  0.4694 -0.2888 -0.8697
  682SOL    HW3 2802   4.249   0.650   0.965  3.2096  1.3362 -1.2163
  682SOL    MW4 2803   4.211   0.723   0.938 -0.1216 -0.0809 -0.6554
  683SOL     OW 2804   3.615   0.343   0.974 -0.0389 -0.3756  0.4160
  683SOL    HW2 2805   3.541   0.388   1.014 -0.7535  0.0968 -1.3767
  683SOL    HW3 2806   3.692   0.376   1.021 -0.8266  0.2913  1.2568
  683SOL    MW4 2807   3.616   0.353   0.985 -0.2375 -0.2252  0.2903
  684SOL     OW 2808   3.385   1.397   0.725 -0.1258  0.2625  0.0681
  684SOL    HW2 2809   3.310   1.387   0.667 -1.0208  1.6364  0.9637
  684SOL    HW3 2810   3.421   1.308   0.733 -0.4020 -0.0637 -1.9886
  684SOL    MW4 2811   3.380   1.384   0.718 -0.2804  0.4007 -0.0851
  685SOL     OW 2812   0.250   0.007   0.781 -0.0680 -0.1284  0.2809
  685SOL    HW2 2813   0.162  -0.023   0.756  0.0915  0.1175 -0.5893
  685SOL    HW3 2814   0.309  -0.057   0.740  0.1957  0.2747  0.0274
  685SOL    MW4 2815   0.246  -0.006   0.772 -0.0122 -0.0429  0.1326
  686SOL     OW 2816   0.218   0.990   0.591 -0.0968 -0.5256  0.4103
  686SOL    HW2 2817   0.218   0.980   0.495 -1.0578 -1.3013  0.4750
  686SOL    HW3 2818   0.278   1.063   0.608 -0.6434  0.2469 -0.8607
  686SOL    MW4 2819   0.226   0.999   0.580 -0.2957 -0.5260  0.2511
  687SOL     OW 2820   3.340   1.245   1.084  0.4260 -0.3460 -0.1006
  687SOL    HW2 2821   3.347   1.254   1.179 -0.9171  2.1844 -0.1896
  687SOL    HW3 2822   3.247   1.228   1.069  0.5213 -0.0994 -0.9997
  687SOL    MW4 2823   3.328   1.244   1.095  0.2613  0.0204 -0.2309
  688SOL     OW 2824   3.108   1.649   1.085  0.0028  0.3824  0.1236
  688SOL    HW2 2825   3.175   1.596   1.043 -1.4040 -1.6482  0.3814
  688SOL    HW3 2826   3.135   1.655   1.176 -0.5443 -1.1015  0.3986
  688SOL    MW4 2827   3.120   1.643   1.091 -0.2546 -0.0812  0.1937
  689SOL     OW 2828   0.019   4.509   0.152 -0.2955 -0.3653 -0.1547
  689SOL    HW2 2829   0.051   4.599   0.150 -0.1445 -0.3576  1.7135
  689SOL    HW3 2830  -0.074   4.516   0.133  0.0573  0.0017 -1.7777
  689SOL    MW4 2831   0.011   4.522   0.149 -0.2290 -0.3161 -0.1223
  690SOL     OW 2832   2.827   2.256   0.445  0.7443 -0.2838 -0.4031
  690SOL    HW2 2833   2.868   2.327   0.494  1.3711  0.9730 -2.6338
  690SOL    HW3 2834   2.743   2.292   0.417  0.5187 -0.8759 -0.4898
  690SOL    MW4 2835   2.821   2.270   0.447  0.7973 -0.1960 -0.7089
  691SOL     OW 2836   2.478   4.651   0.730  0.5723 -0.7479  0.1466
  691SOL    HW2 2837   2.404   4.591   0.722 -1.3100  1.2940  2.0353
  691SOL    HW3 2838   2.493   4.660   0.824  1.4798  0.9630 -0.1366
  691SOL    MW4 2839   2.470   4.644   0.741  0.4435 -0.2528  0.3585
  692SOL     OW 2840   3.341   2.018   1.071 -0.2581 -0.2493 -0.5285
  692SOL    HW2 2841   3.332   2.102   1.025  0.5192 -1.0924 -2.2348
  692SOL    HW3 2842   3.264   1.968   1.045  0.5539 -1.0035 -1.5208
  692SOL    MW4 2843   3.330   2.023   1.061 -0.0484 -0.4599 -0.8844
  693SOL     OW 2844   0.767   3.113   0.701  0.6991  0.1955  0.0192
  693SOL    HW2 2845   0.748   3.111   0.795  1.0093 -0.1663  0.0729
  693SOL    HW3 2846   0.737   3.028   0.669 -1.6818  1.2239 -0.6492
  693SOL    MW4 2847   0.760   3.102   0.709  0.4259  0.2832 -0.0618
  694SOL     OW 2848   4.269   2.827   1.060  0.5628 -0.4649 -0.0306
  694SOL    HW2 2849   4.302   2.914   1.040 -0.0686 -0.1564  0.2762
  694SOL    HW3 2850   4.270   2.822   1.156 -0.4744 -0.3695 -0.0028
  694SOL    MW4 2851   4.273   2.837   1.070  0.3424 -0.4115  0.0136
  695SOL     OW 2852   3.675   2.144   0.157 -0.0885  0.1913 -0.0403
  695SOL    HW2 2853   3.624   2.074   0.117  0.5697  0.7868 -1.9568
  695SOL    HW3 2854   3.611   2.196   0.206 -0.8543 -0.7208 -0.0794
  695SOL    MW4 2855   3.660   2.142   0.158 -0.1030  0.1497 -0.2983
  696SOL     OW 2856   1.907   3.443   0.679  0.3826  0.0433 -0.2966
  696SOL    HW2 2857   1.999   3.461   0.658 -0.2388  1.1216 -2.3392
  696SOL    HW3 2858   1.890   3.357   0.640  0.5779 -0.2675  0.2962
  696SOL    MW4 2859   1.917   3.434   0.671  0.3265  0.1447 -0.4879
  697SOL     OW 2860   3.116   1.901   0.978  0.3236  0.3286  0.0787
  697SOL    HW2 2861   3.153   1.884   0.892  0.0482  0.1576 -0.0047
  697SOL    HW3 2862   3.104   1.815   1.017 -0.6406  0.3531 -0.1672
  697SOL    MW4 2863   3.119   1.888   0.972  0.1600  0.3092  0.0351
  698SOL     OW 2864   0.860   1.634   1.094  0.0746 -0.3260 -0.2396
  698SOL    HW2 2865   0.787   1.578   1.069  0.7339 -0.3794 -2.1721
  698SOL    HW3 2866   0.836   1.721   1.062 -0.0304  0.0664  0.9022
  698SOL    MW4 2867   0.847   1.638   1.086  0.1478 -0.2812 -0.3439
  699SOL     OW 2868   1.261   1.187   0.324  0.0651  0.1096 -0.1753
  699SOL    HW2 2869   1.237   1.098   0.350 -0.8457 -0.1877 -2.0171
  699SOL    HW3 2870   1.231   1.195   0.234  0.2045  2.2676 -0.0473
  699SOL    MW4 2871   1.254   1.176   0.316 -0.0366  0.3551 -0.4014
  700SOL     OW 2872   1.109   2.289   0.964  0.1301 -0.2832  0.5469
  700SOL    HW2 2873   1.186   2.329   1.004 -0.1911 -0.5118  1.3912
  700SOL    HW3 2874   1.038   2.352   0.981 -0.0703 -0.5256  0.6007
  700SOL    MW4 2875   1.110   2.303   0.971  0.0613 -0.3455  0.6654
  701SOL     OW 2876   2.780   0.518   0.326  0.3445  0.1247 -0.4628
  701SOL    HW2 2877   2.748   0.439   0.282  1.0918 -0.8730  0.7505
  701SOL    HW3 2878   2.723   0.529   0.402  1.2809 -0.2084  0.2974
  701SOL    MW4 2879   2.769   0.509   0.330  0.5667 -0.0510 -0.2025
  702SOL     OW 2880   0.163   2.601   0.567  0.1892  0.1487  0.2798
  702SOL    HW2 2881   0.255   2.586   0.589 -0.3880 -3.4622  0.5066
  702SOL    HW3 2882   0.166   2.643   0.481  2.0170 -2.4798 -1.0092
  702SOL    MW4 2883   0.176   2.605   0.559  0.3542 -0.6747  0.1396
  703SOL     OW 2884   3.180   4.270   1.049 -0.0640 -0.3838 -0.3337
  703SOL    HW2 2885   3.164   4.274   0.955  0.8050  0.0414 -0.4711
  703SOL    HW3 2886   3.260   4.321   1.062 -0.2441 -0.3317  0.6532
  703SOL    MW4 2887   3.188   4.278   1.038  0.0267 -0.3209 -0.2217
  704SOL     OW 2888   4.333   4.607   1.046  0.2772  0.0576 -0.4764
  704SOL    HW2 2889   4.411   4.659   1.063  0.5269 -0.4007 -0.2020
  704SOL    HW3 2890   4.261   4.657   1.087  0.6187 -0.1690  0.4192
  704SOL    MW4 2891   4.333   4.621   1.054  0.3548 -0.0324 -0.3220
  705SOL     OW 2892   1.385   0.413   0.261 -0.0127  0.4794  0.0406
  705SOL    HW2 2893   1.397   0.398   0.167 -0.9522 -0.2217  0.0243
  705SOL    HW3 2894   1.455   0.363   0.303 -0.0658  0.1648 -0.2500
  705SOL    MW4 2895   1.396   0.404   0.254 -0.1435  0.3454  0.0001
  706SOL     OW 2896   1.617   0.259   0.584  0.2926  0.6192 -0.3868
  706SOL    HW2 2897   1.594   0.186   0.642  1.4389  0.7693  0.2795
  706SOL    HW3 2898   1.601   0.226   0.496  1.6574 -0.7610 -0.1361
  706SOL    MW4 2899   1.612   0.245   0.580  0.6238  0.4569 -0.2658
  707SOL     OW 2900   4.024   1.139   1.011 -0.0964 -0.5393  0.4223
  707SOL    HW2 2901   3.948   1.181   1.051 -0.7337 -0.7397 -0.5528
  707SOL    HW3 2902   4.012   1.045   1.028  0.1345 -0.5367  0.6028
  707SOL    MW4 2903   4.013   1.132   1.018 -0.1493 -0.5655  0.3176
  708SOL     OW 2904   4.061   0.346   0.967 -0.1553  0.4945 -0.2855
  708SOL    HW2 2905   4.068   0.261   1.010  3.2318  1.0526  0.4147
  708SOL    HW3 2906   4.080   0.328   0.875  0.7723  0.5030 -0.1009
  708SOL    MW4 2907   4.065   0.332   0.961  0.4144  0.5693 -0.1688
  709SOL     OW 2908   3.645   2.836   0.703 -0.1805 -0.1919 -0.2947
  709SOL    HW2 2909   3.559   2.877   0.705 -0.0759 -0.0066  0.4516
  709SOL    HW3 2910   3.655   2.797   0.790  1.1967  1.2292  0.2039
  709SOL    MW4 2911   3.635   2.836   0.714  0.0150  0.0203 -0.1304
  710SOL     OW 2912   4.250   1.324   1.043 -0.0316  0.2926  0.0643
  710SOL    HW2 2913   4.260   1.317   1.138 -0.2161 -2.3500 -0.0664
  710SOL    HW3 2914   4.176   1.267   1.022  0.4270  0.3211 -1.7371
  710SOL    MW4 2915   4.241   1.315   1.053  0.0048 -0.0522 -0.1906
  711SOL     OW 2916   4.217   1.573   0.937 -0.3640 -0.5011  0.0597
  711SOL    HW2 2917   4.235   1.495   0.990  0.5618 -0.5135 -0.2580
  711SOL    HW3 2918   4.288   1.634   0.959 -2.8816  1.6043  2.8345
  711SOL    MW4 2919   4.229   1.571   0.947 -0.5746 -0.2249  0.3839
  712SOL     OW 2920   3.984   1.674   1.045  0.4896  0.7277 -0.0914
  712SOL    HW2 2921   4.004   1.674   1.139  2.6106  2.4739 -0.5002
  712SOL    HW3 2922   4.063   1.642   1.004  0.5732  2.6028 -1.4459
  712SOL    MW4 2923   3.997   1.670   1.052  0.7801  1.2054 -0.3240
  713SOL     OW 2924   1.596   0.786   0.262 -0.1545  0.4990 -0.4842
  713SOL    HW2 2925   1.687   0.785   0.294  0.0065  0.2811 -0.9438
  713SOL    HW3 2926   1.564   0.873   0.284  0.0313  0.4336  0.0579
  713SOL    MW4 2927   1.604   0.797   0.269 -0.1087  0.4617 -0.4733
  714SOL     OW 2928   4.022   2.442   1.045 -0.1851 -0.1035 -0.0070
  714SOL    HW2 2929   4.023   2.452   1.140 -0.0962 -1.6692  0.1727
  714SOL    HW3 2930   4.042   2.529   1.011  0.2277  0.3619  1.4121
  714SOL    MW4 2931   4.024   2.455   1.053 -0.1187 -0.2487  0.2040
  715SOL     OW 2932   1.599   2.877   1.037  0.0661 -0.5501  0.1943
  715SOL    HW2 2933   1.679   2.824   1.040  0.3888 -0.0246  1.2605
  715SOL    HW3 2934   1.535   2.821   0.994  0.9736 -1.0249 -0.5718
  715SOL    MW4 2935   1.601   2.863   1.032  0.2285 -0.5438  0.2338
  716SOL     OW 2936   1.290   2.448   0.593  0.8757  0.3274 -0.0704
  716SOL    HW2 2937   1.311   2.536   0.624 -1.4067  0.5256  0.9445
  716SOL    HW3 2938   1.217   2.460   0.533 -0.0526 -0.9708  0.7675
  716SOL    MW4 2939   1.283   2.461   0.589  0.4519  0.1822  0.1741
  717SOL     OW 2940   0.048   4.113   0.595 -0.2148 -0.3966  0.1776
  717SOL    HW2 2941   0.136   4.081   0.615  0.4241  0.6894 -0.8139
  717SOL    HW3 2942   0.029   4.078   0.508 -1.4084 -1.9137  1.0289
  717SOL    MW4 2943   0.057   4.104   0.586 -0.2880 -0.4539  0.1591
  718SOL     OW 2944   4.484   2.417   1.056 -0.6954  1.0596 -0.1869
  718SOL    HW2 2945   4.403   2.376   1.027  0.2984 -0.3035 -1.1024
  718SOL    HW3 2946   4.468   2.441   1.147 -1.7781 -0.0941 -0.0659
  718SOL    MW4 2947   4.471   2.415   1.064 -0.7071  0.7279 -0.2918
  719SOL     OW 2948   3.540   1.728   0.659  0.0440  0.5125 -0.1473
  719SOL    HW2 2949   3.618   1.711   0.711  0.2175 -0.6232 -0.7478
  719SOL    HW3 2950   3.545   1.664   0.587 -2.3692 -0.8504  0.8430
  719SOL    MW4 2951   3.551   1.717   0.656 -0.2515  0.1826 -0.0959
  720SOL     OW 2952   0.030   2.679   0.965  0.0106  0.0975  0.4681
  720SOL    HW2 2953   0.018   2.587   0.986 -0.9603 -0.2823 -1.6736
  720SOL    HW3 2954  -0.054   2.720   0.985 -0.5825 -0.0758 -1.5694
  720SOL    MW4 2955   0.018   2.673   0.971 -0.1960  0.0246 -0.0833
  721SOL     OW 2956   2.721   2.662   0.958  0.2712  0.2208 -0.2571
  721SOL    HW2 2957   2.711   2.594   0.892  1.2457 -0.7719  0.6064
  721SOL    HW3 2958   2.633   2.699   0.968 -0.3087 -1.0649 -0.5530
  721SOL    MW4 2959   2.708   2.658   0.950  0.3231 -0.0796 -0.1823
  722SOL     OW 2960   0.220   3.610   1.108 -0.0634 -0.2468 -0.3265
  722SOL    HW2 2961   0.212   3.608   1.203  0.5703  2.1567 -0.2036
  722SOL    HW3 2962   0.137   3.574   1.076 -0.9824  0.5634  1.1075
  722SOL    MW4 2963   0.208   3.605   1.116 -0.1011  0.1774 -0.1210
  723SOL     OW 2964   0.315   0.188   0.590  0.1108  0.1224  0.2072
  723SOL    HW2 2965   0.372   0.252   0.633  0.5117  0.1423 -0.3455
  723SOL    HW3 2966   0.290   0.127   0.659 -0.0917  0.7457  0.6941
  723SOL    MW4 2967   0.319   0.189   0.605  0.1370  0.2072  0.1985
  724SOL     OW 2968   4.049   3.454   0.979  0.1609 -0.2099 -0.6732
  724SOL    HW2 2969   3.977   3.511   1.005 -0.6402 -1.4924  0.0235
  724SOL    HW3 2970   4.024   3.421   0.893  0.9710  1.0422 -1.3975
  724SOL    MW4 2971   4.036   3.457   0.972  0.1626 -0.2141 -0.6768
  725SOL     OW 2972   4.277   4.357   1.127  0.2162  0.1528 -0.0275
  725SOL    HW2 2973   4.360   4.314   1.103  1.0430  1.0405  1.1613
  725SOL    HW3 2974   4.293   4.450   1.111 -0.7307  0.2842 -0.2380
  725SOL    MW4 2975   4.290   4.364   1.122  0.2003  0.2871  0.1016
  726SOL     OW 2976   0.916   1.749   0.387  0.3187  0.1341  0.1379
  726SOL    HW2 2977   0.829   1.731   0.351  0.3146 -0.4947  0.4672
  726SOL    HW3 2978   0.976   1.704   0.328  0.3466 -0.4494  0.6122
  726SOL    MW4 2979   0.912   1.741   0.374  0.3219 -0.0257  0.2439
  727SOL     OW 2980   0.253   4.664   1.519 -0.6349  0.0073  0.1812
  727SOL    HW2 2981   0.332   4.698   1.478 -0.7650  0.1954  0.0904
  727SOL    HW3 2982   0.182   4.713   1.480 -0.8156 -0.3066  0.1114
  727SOL    MW4 2983   0.254   4.675   1.508 -0.6759 -0.0093  0.1600
  728SOL     OW 2984   4.328   0.003   1.489 -0.0207 -0.5468  0.5129
  728SOL    HW2 2985   4.335   0.002   1.584 -0.0338  0.3151  0.5348
  728SOL    HW3 2986   4.325  -0.089   1.463  1.1486 -0.8052  1.2649
  728SOL    MW4 2987   4.329  -0.009   1.498  0.1321 -0.4673  0.6151
  729SOL     OW 2988   0.070   0.139   1.374  0.2658 -0.2315 -0.5725
  729SOL    HW2 2989  -0.008   0.095   1.408 -0.3703  0.5183 -1.0231
  729SOL    HW3 2990   0.070   0.120   1.280 -0.1530  0.9038 -0.8169
  729SOL    MW4 2991   0.060   0.131   1.366  0.1267  0.0172 -0.6642
  730SOL     OW 2992   0.020   0.404   1.453 -0.1366 -0.2779  0.2939
  730SOL    HW2 2993  -0.002   0.396   1.545 -0.5715 -1.3378  0.1077
  730SOL    HW3 2994   0.032   0.314   1.423 -0.2434  0.0427 -0.7424
  730SOL    MW4 2995   0.019   0.391   1.461 -0.2081 -0.3755  0.1326
  731SOL     OW 2996   0.198   0.784   1.393  0.5674  0.0248 -0.0932
  731SOL    HW2 2997   0.276   0.829   1.361  0.5858 -0.7004 -1.1304
  731SOL    HW3 2998   0.218   0.691   1.381  0.0005 -0.2033  0.7270
  731SOL    MW4 2999   0.211   0.778   1.387  0.4950 -0.1009 -0.1218
  732SOL     OW 3000   4.455   0.901   1.312 -0.2766 -0.1962 -0.2913
  732SOL    HW2 3001   4.456   0.982   1.363  0.7336 -0.2959 -0.1413
  732SOL    HW3 3002   4.537   0.858   1.334 -0.6598 -1.1152 -0.6190
  732SOL    MW4 3003   4.466   0.906   1.322 -0.1941 -0.3307 -0.3147
  733SOL     OW 3004   4.484   1.139   1.429 -0.1090  0.1784 -0.0479
  733SOL    HW2 3005   4.501   1.135   1.523 -0.4109 -0.5434 -0.0200
  733SOL    HW3 3006   4.557   1.190   1.394 -0.1103  0.6340  0.6015
  733SOL    MW4 3007   4.496   1.145   1.437 -0.1490  0.1434  0.0415
  734SOL     OW 3008   0.236   1.284   1.328 -0.3061  0.2521  0.1329
  734SOL    HW2 3009   0.234   1.372   1.366 -2.3986  0.5101 -0.5103
  734SOL    HW3 3010   0.224   1.298   1.234  2.2348 -0.5496 -0.3473
  734SOL    MW4 3011   0.234   1.297   1.320 -0.2469  0.1802 -0.0153
  735SOL     OW 3012   0.220   1.534   1.431  0.6300  0.8848  0.1921
  735SOL    HW2 3013   0.214   1.541   1.527  1.0583  1.9142  0.1480
  735SOL    HW3 3014   0.154   1.595   1.399 -0.0465 -0.0336 -0.1676
  735SOL    MW4 3015   0.210   1.543   1.440  0.5973  0.8993  0.1388
  736SOL     OW 3016   4.488   1.671   1.305  0.3867  0.6250 -0.1661
  736SOL    HW2 3017   4.467   1.760   1.333 -0.7797  0.5748 -0.8579
  736SOL    HW3 3018   4.472   1.671   1.211  0.0650 -0.4051 -0.1136
  736SOL    MW4 3019   4.483   1.683   1.296  0.1898  0.4826 -0.2503
  737SOL     OW 3020   4.449   1.919   1.445 -0.2847 -0.0791  0.8646
  737SOL    HW2 3021   4.452   1.922   1.540 -1.6412  0.1583  0.9090
  737SOL    HW3 3022   4.381   1.982   1.421 -0.3092 -0.5106 -0.2321
  737SOL    MW4 3023   4.441   1.928   1.454 -0.4673 -0.1045  0.7257
  738SOL     OW 3024   0.198   1.995   1.376  0.0064  0.4061  0.1415
  738SOL    HW2 3025   0.114   1.957   1.402  0.0544 -0.0037 -0.2893
  738SOL    HW3 3026   0.187   2.013   1.282  0.8996 -1.0016 -0.2532
  738SOL    MW4 3027   0.185   1.992   1.367  0.1306  0.1663  0.0327
  739SOL     OW 3028   0.160   2.266   1.453 -0.3398 -0.4511  0.4441
  739SOL    HW2 3029   0.182   2.281   1.545  2.2729 -0.2297 -0.1834
  739SOL    HW3 3030   0.171   2.172   1.441 -0.1692 -0.4048  0.2407
  739SOL    MW4 3031   0.164   2.256   1.464  0.0274 -0.4158  0.3345
  740SOL     OW 3032   4.453   2.505   1.351  0.0668  0.0554 -0.1060
  740SOL    HW2 3033   4.371   2.456   1.362  0.9527 -1.3066  0.5528
  740SOL    HW3 3034   4.521   2.446   1.383  1.4871  0.5927 -2.0121
  740SOL    MW4 3035   4.451   2.491   1.357  0.3710 -0.0534 -0.2705
  741SOL     OW 3036   0.006   2.756   1.432  0.1644  0.0642  0.0867
  741SOL    HW2 3037  -0.009   2.663   1.415 -0.7448  0.0151  1.1276
  741SOL    HW3 3038   0.002   2.764   1.527 -1.5830  1.4651 -0.0697
  741SOL    MW4 3039   0.003   2.745   1.442 -0.1855  0.2427  0.2034
  742SOL     OW 3040   0.271   2.841   1.390  0.4241  0.2856  0.0246
  742SOL    HW2 3041   0.324   2.771   1.428  0.8595  1.3220  1.3563
  742SOL    HW3 3042   0.180   2.813   1.404  0.5937  0.0825  0.7261
  742SOL    MW4 3043   0.266   2.828   1.397  0.5040  0.3958  0.2929
  743SOL     OW 3044   0.244   3.106   1.476  0.1695  0.0672  0.4057
  743SOL    HW2 3045   0.179   3.151   1.422  1.5806  0.8203 -0.6989
  743SOL    HW3 3046   0.255   3.020   1.434 -1.4041 -0.7367  1.6253
  743SOL    MW4 3047   0.237   3.101   1.463  0.1481  0.0606  0.4209
  744SOL     OW 3048   0.047   3.255   1.361 -0.0199  0.2232  0.1946
  744SOL    HW2 3049   0.041   3.338   1.409 -1.8348 -0.8866  1.9513
  744SOL    HW3 3050  -0.032   3.207   1.385  1.2102 -2.2243 -0.4602
  744SOL    MW4 3051   0.036   3.260   1.370 -0.0971 -0.2460  0.3400
  745SOL     OW 3052   0.016   3.493   1.481  0.3453 -0.4052  0.4354
  745SOL    HW2 3053  -0.059   3.527   1.432 -0.5049 -1.3014  1.0935
  745SOL    HW3 3054  -0.007   3.505   1.573  1.0743 -0.5475  0.6457
  745SOL    MW4 3055   0.003   3.499   1.486  0.3293 -0.5422  0.5500
  746SOL     OW 3056   0.204   3.643   1.381 -0.9893 -0.0450  0.5095
  746SOL    HW2 3057   0.196   3.726   1.429 -2.1409 -0.0166  0.2622
  746SOL    HW3 3058   0.148   3.582   1.429  2.2956 -1.5493  2.5858
  746SOL    MW4 3059   0.196   3.646   1.394 -0.7078 -0.2396  0.7509
  747SOL     OW 3060   0.226   3.891   1.496 -0.1222  0.4324 -0.4953
  747SOL    HW2 3061   0.237   3.891   1.591  0.9012  0.0823 -0.6070
  747SOL    HW3 3062   0.311   3.920   1.462  0.0671 -1.1033 -1.3579
  747SOL    MW4 3063   0.239   3.895   1.504  0.0378  0.1838 -0.6238
  748SOL     OW 3064   0.019   4.037   1.374 -0.0140 -0.1893  0.4867
  748SOL    HW2 3065   0.098   3.994   1.408  1.0668 -0.2037 -1.9340
  748SOL    HW3 3066   0.024   4.126   1.407  1.4403  0.0318 -0.2843
  748SOL    MW4 3067   0.030   4.043   1.383  0.3205 -0.1621  0.0656
  749SOL     OW 3068   0.289   4.406   1.413  0.1400 -0.6142  0.1583
  749SOL    HW2 3069   0.210   4.365   1.450  1.0172 -1.1198  1.5193
  749SOL    HW3 3070   0.298   4.488   1.463 -0.3267  0.1618 -1.0005
  749SOL    MW4 3071   0.280   4.412   1.425  0.1941 -0.5779  0.1849
  750SOL     OW 3072   0.280   4.390   1.109  0.0481 -0.0410  0.3256
  750SOL    HW2 3073   0.276   4.483   1.088  1.1784  0.2766  1.4382
  750SOL    HW3 3074   0.274   4.386   1.205  1.4244 -0.9928  0.3958
  750SOL    MW4 3075   0.279   4.402   1.119  0.3788 -0.1245  0.4816
  751SOL     OW 3076   0.705   4.642   1.485 -0.5020  0.0641  0.3492
  751SOL    HW2 3077   0.779   4.683   1.440 -1.2131  0.4624 -0.4678
  751SOL    HW3 3078   0.633   4.703   1.474 -1.7751 -1.7387 -1.5401
  751SOL    MW4 3079   0.705   4.655   1.478 -0.7638 -0.1216 -0.0080
  752SOL     OW 3080   0.466   0.122   1.408 -0.2983 -0.1488 -0.7730
  752SOL    HW2 3081   0.475   0.215   1.432  1.8042 -0.6022  0.3581
  752SOL    HW3 3082   0.471   0.121   1.313  0.6060  0.8182 -0.7416
  752SOL    MW4 3083   0.468   0.134   1.399  0.0984 -0.0811 -0.6196
  753SOL     OW 3084   0.253   0.512   1.344 -0.0944 -0.1404 -0.2170
  753SOL    HW2 3085   0.244   0.492   1.251  0.3236 -1.9467  0.1101
  753SOL    HW3 3086   0.173   0.478   1.384 -0.9825  1.9898 -0.0902
  753SOL    MW4 3087   0.241   0.505   1.337 -0.1564 -0.0976 -0.1571
  754SOL     OW 3088   0.726   0.522   1.319 -0.1745 -0.1643  0.5086
  754SOL    HW2 3089   0.695   0.609   1.347 -2.3003 -0.7585  0.1136
  754SOL    HW3 3090   0.710   0.520   1.225  1.9984 -0.1557  0.1244
  754SOL    MW4 3091   0.719   0.534   1.310 -0.1683 -0.2416  0.4057
  755SOL     OW 3092   0.643   0.744   1.442 -0.0280  0.2049 -0.0601
  755SOL    HW2 3093   0.660   0.727   1.535  0.7446 -1.7624 -0.5413
  755SOL    HW3 3094   0.720   0.792   1.413  0.3836 -0.4048  0.0034
  755SOL    MW4 3095   0.656   0.748   1.451  0.1282 -0.1351 -0.1152
  756SOL     OW 3096   0.446   0.884   1.317  0.6126  0.0822  0.1010
  756SOL    HW2 3097   0.441   0.969   1.359  0.0469  0.1598 -0.1204
  756SOL    HW3 3098   0.511   0.835   1.368  0.0530  0.2276  0.9527
  756SOL    MW4 3099   0.454   0.889   1.329  0.4641  0.1117  0.1842
  757SOL     OW 3100   0.425   1.130   1.442  0.0119 -0.1156 -0.4938
  757SOL    HW2 3101   0.502   1.181   1.418 -0.4134  0.3264 -0.9018
  757SOL    HW3 3102   0.351   1.176   1.403 -0.5529 -0.0638  0.6182
  757SOL    MW4 3103   0.426   1.143   1.434 -0.1187 -0.0504 -0.4009
  758SOL     OW 3104   0.661   1.256   1.388 -0.2434  0.1223 -0.0221
  758SOL    HW2 3105   0.660   1.350   1.404 -0.4401  0.2948 -1.0054
  758SOL    HW3 3106   0.644   1.247   1.294  0.6899 -0.8575 -0.1082
  758SOL    MW4 3107   0.658   1.267   1.377 -0.1462  0.0157 -0.1633
  759SOL     OW 3108   0.684   1.533   1.467  0.4923  0.4962  0.3987
  759SOL    HW2 3109   0.754   1.588   1.434  0.2105 -0.3466 -1.7189
  759SOL    HW3 3110   0.604   1.568   1.426  0.4015 -1.8525 -1.5652
  759SOL    MW4 3111   0.682   1.545   1.457  0.4432  0.0751 -0.1397
  760SOL     OW 3112   0.464   1.625   1.337  0.0259  0.3437  0.6468
  760SOL    HW2 3113   0.467   1.715   1.371 -1.0569  1.4940 -2.1424
  760SOL    HW3 3114   0.379   1.591   1.367  0.4838  0.1912  1.7979
  760SOL    MW4 3115   0.453   1.632   1.346 -0.0566  0.4754  0.4307
  761SOL     OW 3116   0.452   1.905   1.710  0.2122 -0.1150  0.3916
  761SOL    HW2 3117   0.445   1.824   1.761  2.6930  0.7816  2.2544
  761SOL    HW3 3118   0.384   1.962   1.747 -0.2008 -0.6399  0.4457
  761SOL    MW4 3119   0.442   1.902   1.722  0.4851 -0.0659  0.6447
  762SOL     OW 3120   0.439   1.876   1.453  0.2216 -0.4474  0.2000
  762SOL    HW2 3121   0.434   1.887   1.548  1.2222 -0.9562  0.3080
  762SOL    HW3 3122   0.355   1.910   1.422 -1.2557 -2.7302  1.4989
  762SOL    MW4 3123   0.427   1.882   1.462  0.1587 -0.8157  0.3856
  763SOL     OW 3124   0.659   2.276   1.383 -0.2235 -0.0315  0.3404
  763SOL    HW2 3125   0.572   2.311   1.362 -0.8882 -1.4313  0.6832
  763SOL    HW3 3126   0.662   2.192   1.338  1.9335  1.0870 -1.7027
  763SOL    MW4 3127   0.648   2.270   1.374 -0.0266 -0.0689  0.1161
  764SOL     OW 3128   0.390   2.390   1.344  0.5313  0.1436  0.1015
  764SOL    HW2 3129   0.397   2.475   1.388  1.2239  0.4306 -0.5529
  764SOL    HW3 3130   0.314   2.348   1.384  1.3051  0.2914  1.7509
  764SOL    MW4 3131   0.381   2.396   1.355  0.7247  0.2010  0.2327
  765SOL     OW 3132   0.424   2.623   1.489  0.2856 -0.2104  0.1226
  765SOL    HW2 3133   0.409   2.649   1.579  0.3166 -0.5355  0.2219
  765SOL    HW3 3134   0.498   2.677   1.460 -0.3427  0.5807 -0.0117
  765SOL    MW4 3135   0.432   2.633   1.497  0.2068 -0.1488  0.1180
  766SOL     OW 3136   0.648   2.788   1.380 -0.2981  0.0060  0.0876
  766SOL    HW2 3137   0.676   2.868   1.423  2.1986 -0.6658 -0.2176
  766SOL    HW3 3138   0.662   2.804   1.287 -1.7270 -0.0547 -0.1483
  766SOL    MW4 3139   0.654   2.801   1.373 -0.1572 -0.0901  0.0162
  767SOL     OW 3140   0.683   3.045   1.502 -0.2504 -0.1382 -0.1744
  767SOL    HW2 3141   0.761   3.090   1.470  0.7192 -0.8850  1.0522
  767SOL    HW3 3142   0.610   3.090   1.461  0.7848  1.2621 -0.5057
  767SOL    MW4 3143   0.684   3.057   1.492  0.0141 -0.0522 -0.0564
  768SOL     OW 3144   0.474   3.208   1.335  0.6584 -0.4415 -0.9261
  768SOL    HW2 3145   0.395   3.178   1.381  0.9359  0.0168 -0.1367
  768SOL    HW3 3146   0.485   3.298   1.364  1.3369 -0.4269 -1.2343
  768SOL    MW4 3147   0.465   3.216   1.345  0.7846 -0.3791 -0.8626
  769SOL     OW 3148   0.429   3.471   1.438 -0.2490  0.3047 -0.2399
  769SOL    HW2 3149   0.431   3.462   1.533 -0.6087  0.1304 -0.2487
  769SOL    HW3 3150   0.355   3.530   1.421  0.1400  0.7543 -0.3775
  769SOL    MW4 3151   0.419   3.478   1.448 -0.2451  0.3409 -0.2593
  770SOL     OW 3152   0.672   3.607   1.375 -0.1103 -0.0194  0.3325
  770SOL    HW2 3153   0.744   3.564   1.421  0.0173 -0.3414 -0.1632
  770SOL    HW3 3154   0.594   3.558   1.400 -0.3322  1.0807  1.8315
  770SOL    MW4 3155   0.671   3.595   1.384 -0.1227  0.0832  0.4649
  771SOL     OW 3156   0.691   3.867   1.469 -0.5343 -0.0204 -0.2481
  771SOL    HW2 3157   0.765   3.908   1.424  0.6324 -1.8220 -0.0250
  771SOL    HW3 3158   0.683   3.781   1.427 -4.5147  1.2983 -2.4532
  771SOL    MW4 3159   0.700   3.861   1.457 -0.9056 -0.0842 -0.5096
  772SOL     OW 3160   0.448   3.974   1.370  0.3077 -0.1751 -0.2942
  772SOL    HW2 3161   0.532   3.940   1.400 -0.2195 -1.0818  0.1675
  772SOL    HW3 3162   0.459   3.985   1.275  0.9336 -0.3480 -0.2399
  772SOL    MW4 3163   0.460   3.971   1.361  0.3207 -0.3176 -0.2260
  773SOL     OW 3164   0.466   4.236   1.492 -0.2842 -0.2458  0.5276
  773SOL    HW2 3165   0.459   4.156   1.440  1.2356  0.3289 -0.5742
  773SOL    HW3 3166   0.395   4.292   1.460 -1.0854 -0.9541  1.0098
  773SOL    MW4 3167   0.455   4.233   1.481 -0.1894 -0.2632  0.4458
  774SOL     OW 3168   0.684   4.390   1.390 -0.5766  0.2946  0.4028
  774SOL    HW2 3169   0.612   4.339   1.428  0.3784 -0.3389  1.4096
  774SOL    HW3 3170   0.678   4.475   1.434 -2.2008  1.0869 -1.3136
  774SOL    MW4 3171   0.674   4.395   1.401 -0.6649  0.3157  0.3091
  775SOL     OW 3172   1.141   4.640   1.429  0.3581 -0.3889  0.1858
  775SOL    HW2 3173   1.128   4.642   1.524  0.9443  0.5922  0.2533
  775SOL    HW3 3174   1.224   4.687   1.415 -0.3965  0.6512 -0.9158
  775SOL    MW4 3175   1.150   4.647   1.439  0.3361 -0.1221  0.0494
  776SOL     OW 3176   0.908   0.111   1.335 -0.2377  0.0232 -0.7539
  776SOL    HW2 3177   0.915   0.196   1.379 -1.0976 -0.2669 -0.0331
  776SOL    HW3 3178   0.990   0.066   1.358  0.0556  0.5150 -0.8305
  776SOL    MW4 3179   0.920   0.117   1.344 -0.3125  0.0498 -0.6689
  777SOL     OW 3180   0.908   0.374   1.442 -0.5366 -0.0667  0.2135
  777SOL    HW2 3181   0.904   0.385   1.537 -0.0205 -0.2771  0.2632
  777SOL    HW3 3182   0.838   0.430   1.408 -0.3053  0.5143  0.6807
  777SOL    MW4 3183   0.899   0.383   1.450 -0.4380 -0.0178  0.2817
  778SOL     OW 3184   1.134   0.519   1.338  0.0355  0.0730  0.2158
  778SOL    HW2 3185   1.130   0.606   1.377  0.5106  0.0855  0.2432
  778SOL    HW3 3186   1.047   0.482   1.353  0.3537 -0.1023  1.7324
  778SOL    MW4 3187   1.122   0.525   1.345  0.1401  0.0515  0.4195
  779SOL     OW 3188   1.121   0.784   1.444 -0.0969  0.3418 -0.4551
  779SOL    HW2 3189   1.123   0.772   1.539 -0.3274  1.2921 -0.3234
  779SOL    HW3 3190   1.212   0.802   1.421  0.0822 -0.6362 -0.5180
  779SOL    MW4 3191   1.133   0.785   1.454 -0.1036  0.3381 -0.4461
  780SOL     OW 3192   0.865   0.861   1.350  0.0076 -0.4110  0.0109
  780SOL    HW2 3193   0.953   0.851   1.384  0.6004  1.6401 -0.8454
  780SOL    HW3 3194   0.874   0.848   1.256 -0.2696  1.6755 -0.3143
  780SOL    MW4 3195   0.878   0.858   1.342  0.0492  0.1349 -0.1450
  781SOL     OW 3196   0.877   1.119   1.475  0.1211 -0.0094 -0.7580
  781SOL    HW2 3197   0.859   1.029   1.450 -0.1921 -0.2461  0.3059
  781SOL    HW3 3198   0.803   1.169   1.440  0.4668 -0.1041 -1.6446
  781SOL    MW4 3199   0.865   1.114   1.467  0.1253 -0.0532 -0.7346
  782SOL     OW 3200   1.105   1.250   1.363 -0.1020 -0.4899  0.1390
  782SOL    HW2 3201   1.185   1.199   1.376 -0.7996 -1.6437 -0.0554
  782SOL    HW3 3202   1.041   1.210   1.421 -0.4574  0.6586  0.5561
  782SOL    MW4 3203   1.107   1.238   1.372 -0.2408 -0.4905  0.1684
  783SOL     OW 3204   1.116   1.518   1.447 -0.0613  0.3969  0.4078
  783SOL    HW2 3205   1.190   1.548   1.395 -1.4765  0.9543 -1.3558
  783SOL    HW3 3206   1.111   1.424   1.431 -0.6754  0.6162 -0.7348
  783SOL    MW4 3207   1.125   1.510   1.438 -0.3290  0.4994  0.0244
  784SOL     OW 3208   0.916   1.686   1.365 -0.2323  0.2197  0.3577
  784SOL    HW2 3209   0.989   1.630   1.388 -0.4228  0.1684  0.8519
  784SOL    HW3 3210   0.895   1.664   1.274  0.2866  0.1543  0.2555
  784SOL    MW4 3211   0.923   1.676   1.356 -0.1889  0.2043  0.4095
  785SOL     OW 3212   0.870   1.937   1.469  0.0696  0.1477  0.3199
  785SOL    HW2 3213   0.946   1.987   1.441 -1.1766  1.1915 -1.2980
  785SOL    HW3 3214   0.882   1.850   1.431  0.5865  0.2363  0.2870
  785SOL    MW4 3215   0.881   1.932   1.461 -0.0266  0.2972  0.1019
  786SOL     OW 3216   1.089   2.067   1.381  0.1102  0.1172 -1.0044
  786SOL    HW2 3217   1.168   2.013   1.388 -0.5788 -0.9234 -1.0497
  786SOL    HW3 3218   1.119   2.156   1.398  0.8901 -0.5592  1.3728
  786SOL    MW4 3219   1.103   2.072   1.384  0.1223 -0.1094 -0.6967
  787SOL     OW 3220   1.147   2.340   1.445  0.2343 -0.2194 -0.3022
  787SOL    HW2 3221   1.221   2.390   1.410  1.3156 -2.8830 -1.9566
  787SOL    HW3 3222   1.070   2.377   1.401  0.9919  0.1556 -1.3415
  787SOL    MW4 3223   1.146   2.352   1.434  0.4770 -0.5214 -0.6577
  788SOL     OW 3224   0.899   2.429   1.340 -0.3856 -0.2475  0.8007
  788SOL    HW2 3225   0.888   2.502   1.401 -1.2175  0.4008 -0.1064
  788SOL    HW3 3226   0.823   2.373   1.357 -0.0760 -0.5890  1.0639
  788SOL    MW4 3227   0.888   2.431   1.350 -0.4545 -0.2069  0.7157
  789SOL     OW 3228   0.900   2.690   1.468  0.0083  0.3699  0.4403
  789SOL    HW2 3229   0.882   2.708   1.561  0.4343 -1.2958  0.8538
  789SOL    HW3 3230   0.825   2.726   1.422 -0.3692  0.9215  1.4592
  789SOL    MW4 3231   0.888   2.697   1.474  0.0147  0.2229  0.6293
  790SOL     OW 3232   1.114   2.822   1.357  0.2906 -0.0138 -0.0421
  790SOL    HW2 3233   1.107   2.907   1.401 -0.0218 -0.5973  1.0769
  790SOL    HW3 3234   1.036   2.774   1.387 -0.0293 -0.3601 -1.4065
  790SOL    MW4 3235   1.102   2.827   1.367  0.2072 -0.1369 -0.0744
  791SOL     OW 3236   1.098   3.079   1.469  0.1639 -0.1521  0.4663
  791SOL    HW2 3237   1.089   3.092   1.563 -1.5244  0.0171  0.2997
  791SOL    HW3 3238   1.180   3.121   1.446  0.8441 -0.6444  1.9522
  791SOL    MW4 3239   1.107   3.086   1.478  0.0309 -0.1948  0.6404
  792SOL     OW 3240   0.869   3.222   1.392 -0.2073 -0.0411 -0.1719
  792SOL    HW2 3241   0.946   3.179   1.430 -1.5412 -0.9125  1.6170
  792SOL    HW3 3242   0.890   3.231   1.299  2.3664  0.4309  0.4111
  792SOL    MW4 3243   0.882   3.217   1.385 -0.0437 -0.0939  0.1411
  793SOL     OW 3244   0.889   3.483   1.479  0.7654 -0.8494 -0.3182
  793SOL    HW2 3245   0.963   3.520   1.431 -0.4506  0.4857 -1.1723
  793SOL    HW3 3246   0.883   3.393   1.447  3.4101 -1.7036  1.4086
  793SOL    MW4 3247   0.898   3.476   1.468  0.9540 -0.7858 -0.2031
  794SOL     OW 3248   1.084   3.596   1.344  0.3312  0.4077 -0.2549
  794SOL    HW2 3249   1.162   3.553   1.379 -1.0397 -2.5993 -0.7439
  794SOL    HW3 3250   1.091   3.583   1.249 -0.6821  0.2402 -0.3060
  794SOL    MW4 3251   1.095   3.589   1.336  0.0168 -0.0110 -0.3263
  795SOL     OW 3252   1.092   3.852   1.456 -0.7981  0.0175 -0.1106
  795SOL    HW2 3253   1.178   3.883   1.428 -1.6325  2.5916  0.1022
  795SOL    HW3 3254   1.088   3.762   1.423  0.7014  0.9076 -2.9087
  795SOL    MW4 3255   1.103   3.844   1.448 -0.7102  0.4747 -0.4517
  796SOL     OW 3256   0.903   4.021   1.372  0.0286 -0.0532  0.0726
  796SOL    HW2 3257   0.921   4.101   1.422 -1.4838 -0.0119  0.5611
  796SOL    HW3 3258   0.968   3.958   1.403 -0.3667  0.2265  1.5020
  796SOL    MW4 3259   0.914   4.024   1.383 -0.2230 -0.0110  0.3257
  797SOL     OW 3260   0.900   4.275   1.485 -0.0030 -0.5498  0.0326
  797SOL    HW2 3261   0.885   4.303   1.575  0.1296  1.7438 -0.6158
  797SOL    HW3 3262   0.829   4.317   1.436  0.2043 -1.3835 -0.9876
  797SOL    MW4 3263   0.888   4.285   1.490  0.0418 -0.3576 -0.1875
  798SOL     OW 3264   1.115   4.379   1.356  0.2117 -0.4089 -0.4376
  798SOL    HW2 3265   1.036   4.350   1.403  0.6129 -0.7359  0.0428
  798SOL    HW3 3266   1.133   4.466   1.391 -0.2765 -0.0928 -0.9747
  798SOL    MW4 3267   1.107   4.386   1.367  0.2000 -0.4101 -0.4449
  799SOL     OW 3268   1.612   0.016   1.431 -0.1031 -0.1823  0.6792
  799SOL    HW2 3269   1.613   0.021   1.526 -0.2548  2.2780  0.5719
  799SOL    HW3 3270   1.525   0.045   1.405  0.8766  1.9557 -0.3250
  799SOL    MW4 3271   1.601   0.020   1.440  0.0063  0.4249  0.5326
  800SOL     OW 3272   1.371   0.138   1.367 -0.1132  0.5809 -0.1101
  800SOL    HW2 3273   1.330   0.221   1.392 -0.2326 -0.0109  1.8140
  800SOL    HW3 3274   1.376   0.141   1.272 -1.8855  1.9657 -0.1966
  800SOL    MW4 3275   1.366   0.149   1.358 -0.3628  0.6855  0.1323
  801SOL     OW 3276   1.329   0.387   1.474 -0.7172  0.6601  0.2752
  801SOL    HW2 3277   1.409   0.429   1.443 -0.2385 -0.1823  0.3585
  801SOL    HW3 3278   1.258   0.435   1.430 -0.1913  1.5929  0.4205
  801SOL    MW4 3279   1.330   0.399   1.464 -0.5846  0.6721  0.3054
  802SOL     OW 3280   1.565   0.495   1.380 -0.1845  0.4051 -0.7514
  802SOL    HW2 3281   1.647   0.452   1.404  0.9238  2.0865 -1.4156
  802SOL    HW3 3282   1.559   0.483   1.285 -0.2396  1.0659 -0.8332
  802SOL    MW4 3283   1.575   0.488   1.371 -0.0454  0.7141 -0.8497
  803SOL     OW 3284   1.618   0.774   1.443  0.0868  0.3373  0.1456
  803SOL    HW2 3285   1.602   0.788   1.536 -1.5688  0.4072 -0.1216
  803SOL    HW3 3286   1.609   0.679   1.431  1.6102  0.1665  0.2751
  803SOL    MW4 3287   1.614   0.763   1.454  0.0694  0.3240  0.1274
  804SOL     OW 3288   1.365   0.863   1.346 -0.1008  0.6611  0.4310
  804SOL    HW2 3289   1.447   0.817   1.364 -0.4457  0.1224  0.6118
  804SOL    HW3 3290   1.343   0.839   1.256 -0.7319 -0.2218  0.8133
  804SOL    MW4 3291   1.373   0.854   1.336 -0.2296  0.4736  0.5052
  805SOL     OW 3292   1.355   1.120   1.418  0.5342  0.1671 -0.5104
  805SOL    HW2 3293   1.376   1.134   1.511 -0.8249 -0.0935 -0.1466
  805SOL    HW3 3294   1.363   1.026   1.405 -1.0953 -0.0412 -0.1671
  805SOL    MW4 3295   1.359   1.110   1.429  0.1401  0.1051 -0.4171
  806SOL     OW 3296   1.612   1.279   1.348  0.3061 -0.1731  0.0481
  806SOL    HW2 3297   1.540   1.219   1.364 -0.6986  1.2111  0.7345
  806SOL    HW3 3298   1.628   1.272   1.254 -0.8846 -0.3027 -0.1484
  806SOL    MW4 3299   1.605   1.270   1.337  0.0163 -0.0076  0.1128
  807SOL     OW 3300   1.576   1.544   1.454 -0.4491 -0.0053  0.2547
  807SOL    HW2 3301   1.556   1.562   1.546  0.1247  0.6892  0.2483
  807SOL    HW3 3302   1.588   1.449   1.450  1.1846  0.1327  1.2427
  807SOL    MW4 3303   1.575   1.534   1.465 -0.1580  0.1045  0.3841
  808SOL     OW 3304   1.341   1.646   1.340  0.3441  0.6312 -0.1705
  808SOL    HW2 3305   1.427   1.614   1.365  0.1855 -0.7442 -1.3774
  808SOL    HW3 3306   1.341   1.646   1.245 -1.0329  0.4920 -0.1840
  808SOL    MW4 3307   1.352   1.642   1.331  0.1416  0.4313 -0.3316
  809SOL     OW 3308   1.321   1.924   1.443  0.0352 -0.0480  0.1571
  809SOL    HW2 3309   1.324   1.927   1.538  1.1166  0.3666  0.1204
  809SOL    HW3 3310   1.322   1.830   1.422 -0.9550 -0.1504  0.5679
  809SOL    MW4 3311   1.321   1.912   1.453  0.0473 -0.0068  0.2064
  810SOL     OW 3312   1.535   2.087   1.349 -0.1442  0.5775  0.5065
  810SOL    HW2 3313   1.541   2.082   1.253  0.2692  1.0267  0.5113
  810SOL    HW3 3314   1.468   2.023   1.371  0.4019 -0.1927 -0.0156
  810SOL    MW4 3315   1.527   2.078   1.339 -0.0176  0.5350  0.4382
  811SOL     OW 3316   1.567   2.317   1.479  0.0471  0.7080 -0.3191
  811SOL    HW2 3317   1.650   2.351   1.446  0.7220  0.5519  1.1857
  811SOL    HW3 3318   1.555   2.235   1.432  0.9442  0.5335 -0.2572
  811SOL    MW4 3319   1.576   2.311   1.469  0.2546  0.6642 -0.1124
  812SOL     OW 3320   1.368   2.459   1.339 -0.1957  0.3079 -0.4512
  812SOL    HW2 3321   1.368   2.544   1.383 -0.8779 -0.4077  1.0024
  812SOL    HW3 3322   1.444   2.413   1.375  0.9253  0.7749 -2.2025
  812SOL    MW4 3323   1.378   2.464   1.350 -0.1378  0.2751 -0.4903
  813SOL     OW 3324   1.349   2.701   1.460 -0.3242  0.1903 -0.0591
  813SOL    HW2 3325   1.416   2.760   1.425 -0.1225  0.1007  0.1730
  813SOL    HW3 3326   1.267   2.733   1.422  0.0414 -0.7254 -1.7040
  813SOL    MW4 3327   1.347   2.713   1.450 -0.2494  0.0577 -0.2456
  814SOL     OW 3328   1.527   2.891   1.340 -0.0505  0.1518  0.0619
  814SOL    HW2 3329   1.598   2.856   1.394 -1.2356 -0.4429  1.2937
  814SOL    HW3 3330   1.561   2.888   1.251  0.9755 -1.4260  0.4699
  814SOL    MW4 3331   1.541   2.886   1.336 -0.0715 -0.1347  0.2782
  815SOL     OW 3332   1.553   3.137   1.454 -0.4279  0.0535  0.2155
  815SOL    HW2 3333   1.547   3.053   1.410 -0.3879  1.1298 -1.9004
  815SOL    HW3 3334   1.568   3.115   1.546  0.1103 -2.2343 -0.3889
  815SOL    MW4 3335   1.554   3.123   1.461 -0.3514 -0.1063 -0.1434
  816SOL     OW 3336   1.306   3.248   1.400  0.3944  0.2536  0.2395
  816SOL    HW2 3337   1.290   3.339   1.424  1.3989 -0.1559  2.6293
  816SOL    HW3 3338   1.399   3.234   1.420  0.7925 -0.7253 -2.0976
  816SOL    MW4 3339   1.316   3.258   1.405  0.5794  0.0703  0.2465
  817SOL     OW 3340   1.308   3.508   1.456  0.0753  0.0476 -0.2687
  817SOL    HW2 3341   1.328   3.490   1.547 -1.0942  0.6104  0.1017
  817SOL    HW3 3342   1.389   3.545   1.421  0.6210 -0.4520  0.4569
  817SOL    MW4 3343   1.321   3.510   1.463 -0.0072  0.0558 -0.1241
  818SOL     OW 3344   1.536   3.621   1.318  0.0257 -0.0019 -0.5024
  818SOL    HW2 3345   1.557   3.712   1.342 -0.6803 -0.1274  0.6189
  818SOL    HW3 3346   1.559   3.615   1.225  2.3701  0.6358  0.0012
  818SOL    MW4 3347   1.542   3.632   1.309  0.2419  0.0658 -0.2881
  819SOL     OW 3348   1.578   3.876   1.428  0.1321  0.1447 -0.1850
  819SOL    HW2 3349   1.589   3.868   1.523  0.1013 -2.0470 -0.3434
  819SOL    HW3 3350   1.492   3.917   1.418  0.6043  1.4115  0.7306
  819SOL    MW4 3351   1.568   3.881   1.439  0.1904  0.0229 -0.0849
  820SOL     OW 3352   1.315   3.986   1.393  0.3131  0.0890  0.0436
  820SOL    HW2 3353   1.313   4.074   1.431  1.6828  0.8316 -1.5438
  820SOL    HW3 3354   1.328   4.001   1.299  2.6850 -1.8544  0.0276
  820SOL    MW4 3355   1.317   4.000   1.386  0.8067 -0.0696 -0.1678
  821SOL     OW 3356   1.351   4.261   1.465  0.5588 -0.1822  0.1507
  821SOL    HW2 3357   1.423   4.316   1.436  0.2775  0.7764  1.2184
  821SOL    HW3 3358   1.273   4.302   1.428  0.4050 -0.2692  0.3786
  821SOL    MW4 3359   1.350   4.274   1.456  0.5013 -0.0672  0.3215
  822SOL     OW 3360   1.567   4.404   1.386 -0.1780  0.2422  0.2671
  822SOL    HW2 3361   1.647   4.359   1.410  0.5000  0.6668 -1.1625
  822SOL    HW3 3362   1.583   4.496   1.409 -0.5290  0.2169  0.6318
  822SOL    MW4 3363   1.580   4.410   1.392 -0.1349  0.2947  0.1265
  823SOL     OW 3364   2.079   4.638   1.485 -0.0350  0.0690 -0.1351
  823SOL    HW2 3365   2.071   4.641   1.580 -0.0890  0.0486 -0.1388
  823SOL    HW3 3366   2.010   4.697   1.453 -0.1997 -0.1405 -0.1686
  823SOL    MW4 3367   2.069   4.646   1.493 -0.0637  0.0387 -0.1401
  824SOL     OW 3368   1.857   0.123   1.387  0.4011  0.0336 -0.1134
  824SOL    HW2 3369   1.767   0.092   1.396  1.4901 -3.8511 -1.5144
  824SOL    HW3 3370   1.871   0.129   1.293  1.2373  1.8394  0.1094
  824SOL    MW4 3371   1.847   0.119   1.376  0.6549 -0.2407 -0.2688
  825SOL     OW 3372   1.806   0.374   1.489 -0.4853 -0.1103  0.8119
  825SOL    HW2 3373   1.839   0.285   1.478 -1.6459 -0.4041 -0.5261
  825SOL    HW3 3374   1.871   0.429   1.446 -0.9942 -0.5547 -0.5624
  825SOL    MW4 3375   1.819   0.369   1.482 -0.7056 -0.2077  0.4539
  826SOL     OW 3376   2.039   0.535   1.377 -0.1169 -0.2380 -0.1634
  826SOL    HW2 3377   2.100   0.490   1.436  0.1804 -0.4910 -0.6590
  826SOL    HW3 3378   2.049   0.627   1.399  0.0716 -0.3203  0.1090
  826SOL    MW4 3379   2.049   0.541   1.388 -0.0527 -0.2822 -0.1928
  827SOL     OW 3380   2.046   0.812   1.451 -0.0664 -0.0301 -0.0171
  827SOL    HW2 3381   2.121   0.858   1.413  0.6826 -0.5410  0.8224
  827SOL    HW3 3382   1.970   0.856   1.414  0.6447  1.1945 -0.0658
  827SOL    MW4 3383   2.046   0.824   1.441  0.1259  0.0641  0.0871
  828SOL     OW 3384   1.829   0.926   1.358 -0.1910  0.0265 -0.0886
  828SOL    HW2 3385   1.816   1.002   1.415  0.5149 -0.6762  1.0325
  828SOL    HW3 3386   1.754   0.870   1.376 -0.4615  0.2363 -0.5597
  828SOL    MW4 3387   1.817   0.929   1.368 -0.1334 -0.0386 -0.0029
  829SOL     OW 3388   1.817   1.170   1.469  0.4834 -0.3348  0.2120
  829SOL    HW2 3389   1.902   1.214   1.465  0.8743 -1.2250 -2.0465
  829SOL    HW3 3390   1.756   1.229   1.425  0.0121  0.0651  1.3693
  829SOL    MW4 3391   1.820   1.184   1.463  0.4728 -0.3995  0.0665
  830SOL     OW 3392   2.030   1.331   1.373  0.0036  0.4107  0.6532
  830SOL    HW2 3393   2.046   1.422   1.398 -0.1214  0.2735  1.2505
  830SOL    HW3 3394   2.020   1.333   1.278 -0.3511  1.0708  0.7050
  830SOL    MW4 3395   2.031   1.343   1.364 -0.0596  0.4797  0.7390
  831SOL     OW 3396   2.027   1.582   1.470 -0.1311  0.1234  0.1176
  831SOL    HW2 3397   2.107   1.623   1.439  0.1193  0.5386  1.3071
  831SOL    HW3 3398   1.957   1.641   1.442  0.1752  1.0178  1.2298
  831SOL    MW4 3399   2.028   1.595   1.462 -0.0577  0.2961  0.4213
  832SOL     OW 3400   1.797   1.714   1.369  0.2334  0.2300  0.3299
  832SOL    HW2 3401   1.719   1.664   1.390  0.4693 -0.2600  0.0498
  832SOL    HW3 3402   1.797   1.720   1.273 -0.6304  2.1161  0.4199
  832SOL    MW4 3403   1.787   1.709   1.359  0.1504  0.4143  0.3048
  833SOL     OW 3404   1.758   1.959   1.488 -0.1837  0.4668  0.2789
  833SOL    HW2 3405   1.773   1.872   1.450  0.4533 -0.1024  1.7749
  833SOL    HW3 3406   1.690   1.998   1.433 -0.9646 -1.2588 -0.0138
  833SOL    MW4 3407   1.751   1.952   1.476 -0.2027  0.1639  0.4376
  834SOL     OW 3408   1.976   2.077   1.365 -0.1955  0.3827  0.5205
  834SOL    HW2 3409   2.059   2.031   1.381 -0.4915 -0.2856  0.1717
  834SOL    HW3 3410   1.913   2.035   1.423 -0.3909  0.5954  0.4652
  834SOL    MW4 3411   1.979   2.065   1.375 -0.2604  0.3226  0.4672
  835SOL     OW 3412   2.006   2.366   1.438 -0.0032 -0.6807  0.2525
  835SOL    HW2 3413   2.026   2.377   1.531  0.8789 -0.0041  0.0044
  835SOL    HW3 3414   1.992   2.272   1.427  1.1935 -0.9429  0.8316
  835SOL    MW4 3415   2.007   2.355   1.449  0.2708 -0.6261  0.2964
  836SOL     OW 3416   1.766   2.484   1.383 -0.2728 -0.2860 -0.3591
  836SOL    HW2 3417   1.851   2.440   1.397  0.3575  0.9492 -0.2425
  836SOL    HW3 3418   1.751   2.477   1.289  0.5345  0.5107 -0.5585
  836SOL    MW4 3419   1.775   2.477   1.373 -0.0832 -0.0181 -0.3699
  837SOL     OW 3420   1.754   2.768   1.474  0.3088  0.1415  0.4627
  837SOL    HW2 3421   1.783   2.764   1.566  1.4276 -0.6464  0.0929
  837SOL    HW3 3422   1.755   2.676   1.445 -0.5752  0.3339 -0.1769
  837SOL    MW4 3423   1.758   2.755   1.482  0.3397  0.0629  0.3296
  838SOL     OW 3424   2.004   2.856   1.381 -0.6447  0.2150 -0.3161
  838SOL    HW2 3425   1.998   2.950   1.399  1.9494 -0.1156  2.6953
  838SOL    HW3 3426   1.926   2.819   1.421 -0.1886  0.7886  1.1678
  838SOL    MW4 3427   1.993   2.864   1.389 -0.2421  0.2472  0.2769
  839SOL     OW 3428   2.004   3.149   1.470 -0.0246  0.3353 -0.1546
  839SOL    HW2 3429   2.092   3.165   1.438 -0.1263 -2.8858 -2.1968
  839SOL    HW3 3430   2.017   3.108   1.556  0.4802 -0.1248 -0.4463
  839SOL    MW4 3431   2.017   3.146   1.477  0.0286 -0.1504 -0.4625
  840SOL     OW 3432   1.771   3.273   1.375  0.0659  0.2377  0.4704
  840SOL    HW2 3433   1.846   3.224   1.409  0.3719 -1.0964 -1.9974
  840SOL    HW3 3434   1.695   3.226   1.408  0.3303  0.6381  1.6506
  840SOL    MW4 3435   1.771   3.260   1.383  0.1411  0.1147  0.3004
  841SOL     OW 3436   1.774   3.530   1.448  0.3191 -0.2592  0.1437
  841SOL    HW2 3437   1.690   3.559   1.413  0.3565 -0.7234 -0.3377
  841SOL    HW3 3438   1.778   3.436   1.427  1.2920 -0.0769 -0.4941
  841SOL    MW4 3439   1.763   3.521   1.441  0.4523 -0.2964 -0.0039
  842SOL     OW 3440   1.987   3.621   1.325 -0.7317  0.0145  0.2313
  842SOL    HW2 3441   2.057   3.557   1.340 -0.2677  0.0966 -1.4780
  842SOL    HW3 3442   1.912   3.586   1.373 -0.1503 -1.2469  0.2440
  842SOL    MW4 3443   1.986   3.608   1.333 -0.5937 -0.1411  0.0074
  843SOL     OW 3444   1.969   3.888   1.435  0.0077  0.0785  0.0071
  843SOL    HW2 3445   1.989   3.894   1.528 -0.2816 -0.0980  0.0798
  843SOL    HW3 3446   1.996   3.799   1.411 -1.2616 -0.3750  0.2404
  843SOL    MW4 3447   1.975   3.877   1.444 -0.1979 -0.0043  0.0474
  844SOL     OW 3448   1.759   4.031   1.296  0.2188 -0.3434 -0.2303
  844SOL    HW2 3449   1.831   3.984   1.337  0.7329 -0.7484 -1.5652
  844SOL    HW3 3450   1.682   4.007   1.348  0.8754 -0.6930  0.6009
  844SOL    MW4 3451   1.758   4.022   1.308  0.3732 -0.4435 -0.2967
  845SOL     OW 3452   1.797   4.272   1.460  0.3264 -0.1323 -0.0385
  845SOL    HW2 3453   1.887   4.302   1.452  0.3356 -0.4765 -1.2523
  845SOL    HW3 3454   1.791   4.195   1.404 -1.0415  0.5952 -0.9316
  845SOL    MW4 3455   1.808   4.266   1.452  0.1471 -0.0815 -0.3165
  846SOL     OW 3456   2.033   4.397   1.371  0.2801 -0.2507 -0.1161
  846SOL    HW2 3457   2.113   4.348   1.389  0.7546  0.2501 -0.8841
  846SOL    HW3 3458   2.049   4.484   1.407 -0.3761 -0.4961  0.7969
  846SOL    MW4 3459   2.045   4.402   1.379  0.2561 -0.2170 -0.0970
  847SOL     OW 3460   2.486   4.392   1.349  0.8308  0.6218 -0.3363
  847SOL    HW2 3461   2.495   4.482   1.379  2.3949  0.7305 -1.1048
  847SOL    HW3 3462   2.496   4.397   1.254  1.1503 -0.3977 -0.3599
  847SOL    MW4 3463   2.488   4.405   1.340  1.0793  0.5016 -0.4408
  848SOL     OW 3464   2.254   0.129   1.113  0.0248  0.2273 -0.2311
  848SOL    HW2 3465   2.182   0.071   1.087  2.1122 -1.0863 -3.4414
  848SOL    HW3 3466   2.239   0.209   1.062 -1.3512  1.5521  2.1655
  848SOL    MW4 3467   2.242   0.132   1.103  0.1187  0.2288 -0.3383
  849SOL     OW 3468   2.267   0.416   1.512  0.2055 -0.7806  0.1331
  849SOL    HW2 3469   2.270   0.393   1.605 -0.2049  0.7553  0.5428
  849SOL    HW3 3470   2.282   0.334   1.466 -1.6860 -1.9455  1.5386
  849SOL    MW4 3471   2.269   0.402   1.518 -0.0982 -0.7317  0.3725
  850SOL     OW 3472   2.502   0.526   1.377  0.0236  0.0739  0.5586
  850SOL    HW2 3473   2.572   0.477   1.421 -0.8508 -0.1677  1.7011
  850SOL    HW3 3474   2.421   0.496   1.419 -0.9331 -0.9410 -1.9510
  850SOL    MW4 3475   2.501   0.516   1.388 -0.2182 -0.0918  0.3783
  851SOL     OW 3476   2.493   0.763   1.504  0.6291  0.3120  0.1752
  851SOL    HW2 3477   2.405   0.795   1.482  1.4151  2.3565 -0.0994
  851SOL    HW3 3478   2.502   0.682   1.455  0.0379  1.6668 -2.2383
  851SOL    MW4 3479   2.482   0.757   1.495  0.6547  0.7605 -0.1794
  852SOL     OW 3480   2.282   0.915   1.368 -0.3951  0.2284 -0.5270
  852SOL    HW2 3481   2.289   0.920   1.272 -0.4666  1.2720 -0.4752
  852SOL    HW3 3482   2.282   1.006   1.397 -0.0871 -0.0966  0.4926
  852SOL    MW4 3483   2.283   0.927   1.359 -0.3638  0.3231 -0.3855
  853SOL     OW 3484   2.275   1.183   1.456 -0.1029 -0.3560  0.1833
  853SOL    HW2 3485   2.277   1.178   1.551 -0.6363 -1.4287  0.1504
  853SOL    HW3 3486   2.188   1.218   1.435 -0.0248 -0.2149  0.0957
  853SOL    MW4 3487   2.264   1.187   1.466 -0.1628 -0.4789  0.1674
  854SOL     OW 3488   2.493   1.307   1.359 -0.0350 -0.1322  0.1324
  854SOL    HW2 3489   2.420   1.257   1.394  0.5246 -0.2555  1.1284
  854SOL    HW3 3490   2.468   1.326   1.268 -2.3835  1.9356  1.1775
  854SOL    MW4 3491   2.480   1.303   1.351 -0.2706  0.1245  0.4017
  855SOL     OW 3492   2.482   1.545   1.472  0.1457 -0.4380  0.1265
  855SOL    HW2 3493   2.564   1.582   1.439  1.2202 -2.5242  0.3950
  855SOL    HW3 3494   2.480   1.456   1.439 -1.0092 -1.0917  1.8718
  855SOL    MW4 3495   2.492   1.538   1.463  0.1349 -0.7995  0.3923
  856SOL     OW 3496   2.256   1.698   1.370 -0.1581 -0.4430  0.3838
  856SOL    HW2 3497   2.332   1.654   1.408  0.2742  0.9972  1.2342
  856SOL    HW3 3498   2.256   1.670   1.278  0.4759 -1.6793  0.7415
  856SOL    MW4 3499   2.266   1.688   1.363 -0.0176 -0.4160  0.5432
  857SOL     OW 3500   2.214   1.964   1.459 -0.3158 -0.0936 -0.0111
  857SOL    HW2 3501   2.228   1.969   1.553 -0.0747 -0.3122 -0.0349
  857SOL    HW3 3502   2.232   1.872   1.437 -1.7756 -0.3985 -0.0336
  857SOL    MW4 3503   2.218   1.952   1.468 -0.4766 -0.1628 -0.0173
  858SOL     OW 3504   2.440   2.082   1.359  0.1492  0.5051 -0.2889
  858SOL    HW2 3505   2.353   2.044   1.370 -0.1542  1.1091 -0.5614
  858SOL    HW3 3506   2.464   2.061   1.269  0.1929  0.5315 -0.2835
  858SOL    MW4 3507   2.432   2.074   1.349  0.1149  0.5879 -0.3240
  859SOL     OW 3508   2.447   2.345   1.444 -0.3225 -0.6523 -0.4086
  859SOL    HW2 3509   2.455   2.325   1.537 -2.0655 -0.7972 -0.2704
  859SOL    HW3 3510   2.435   2.259   1.403 -1.7814 -0.4142 -0.5031
  859SOL    MW4 3511   2.447   2.331   1.451 -0.7448 -0.6402 -0.4029
  860SOL     OW 3512   2.230   2.469   1.335 -0.1583  0.4276 -0.0392
  860SOL    HW2 3513   2.305   2.421   1.370  0.3967 -1.1230 -3.1848
  860SOL    HW3 3514   2.154   2.429   1.377  0.6420  0.7721  1.7728
  860SOL    MW4 3515   2.230   2.457   1.345  0.0205  0.2682 -0.2152
  861SOL     OW 3516   2.238   2.717   1.457  0.1127  0.1021  0.5970
  861SOL    HW2 3517   2.231   2.632   1.413  0.3736 -0.3778  1.4739
  861SOL    HW3 3518   2.159   2.764   1.430  0.3585 -0.1073 -0.5347
  861SOL    MW4 3519   2.227   2.712   1.448  0.1795  0.0110  0.5634
  862SOL     OW 3520   2.455   2.834   1.318  0.4599 -0.0848 -0.0351
  862SOL    HW2 3521   2.464   2.927   1.342 -1.5858 -0.1421  0.9804
  862SOL    HW3 3522   2.381   2.803   1.368  0.4133 -2.0062 -1.2557
  862SOL    MW4 3523   2.447   2.842   1.328  0.1838 -0.3457 -0.0622
  863SOL     OW 3524   2.496   3.126   1.444 -0.1990 -0.3871  0.2566
  863SOL    HW2 3525   2.484   3.109   1.538 -0.7182  0.9793  0.4479
  863SOL    HW3 3526   2.415   3.170   1.417 -0.6325 -2.0049 -1.1454
  863SOL    MW4 3527   2.484   3.129   1.453 -0.3247 -0.4203  0.0969
  864SOL     OW 3528   2.278   3.239   1.077 -0.5573 -0.4682  0.5208
  864SOL    HW2 3529   2.197   3.192   1.060 -0.4957  0.1264 -1.5153
  864SOL    HW3 3530   2.258   3.330   1.057  0.2550 -0.1240  1.2453
  864SOL    MW4 3531   2.265   3.245   1.072 -0.4418 -0.3445  0.3476
  865SOL     OW 3532   2.253   3.210   1.349  0.1309  0.1216 -0.1113
  865SOL    HW2 3533   2.228   3.298   1.377  0.2433  0.4924 -1.1461
  865SOL    HW3 3534   2.265   3.218   1.254  0.0113 -1.0401 -0.2261
  865SOL    MW4 3535   2.252   3.223   1.340  0.1297  0.0172 -0.2631
  866SOL     OW 3536   2.438   3.606   1.307 -0.2900 -0.0749 -0.3652
  866SOL    HW2 3537   2.499   3.555   1.359 -0.3778  0.5008  0.3112
  866SOL    HW3 3538   2.424   3.686   1.358  1.1310  1.3815 -2.1547
  866SOL    MW4 3539   2.444   3.610   1.321 -0.1140  0.1934 -0.5121
  867SOL     OW 3540   2.402   3.854   1.430  0.3715  0.2512  0.1774
  867SOL    HW2 3541   2.404   3.872   1.524 -0.5943  0.0233  0.2465
  867SOL    HW3 3542   2.482   3.894   1.396  0.6146  0.5221  1.0626
  867SOL    MW4 3543   2.413   3.862   1.438  0.2759  0.2568  0.3035
  868SOL     OW 3544   2.206   4.017   1.334  0.0562  0.1071 -0.2254
  868SOL    HW2 3545   2.130   3.991   1.386  0.1733  2.4346  1.2155
  868SOL    HW3 3546   2.278   3.964   1.369 -0.3671 -0.1248  0.3063
  868SOL    MW4 3547   2.206   4.007   1.345  0.0160  0.3834  0.0348
  869SOL     OW 3548   2.258   4.272   1.451  0.3460 -0.6311  0.7079
  869SOL    HW2 3549   2.331   4.314   1.406 -0.4504 -0.3190 -0.3093
  869SOL    HW3 3550   2.253   4.184   1.412 -1.7826  0.4081 -1.4977
  869SOL    MW4 3551   2.267   4.266   1.440 -0.0398 -0.4525  0.2828
  870SOL     OW 3552   2.489   4.418   1.074  0.0156  0.0765  0.0397
  870SOL    HW2 3553   2.568   4.368   1.055  0.0882 -0.0245  0.6073
  870SOL    HW3 3554   2.425   4.385   1.010  0.2888 -0.1774 -0.1075
  870SOL    MW4 3555   2.491   4.407   1.063  0.0613  0.0300  0.0952
  871SOL     OW 3556   2.975   4.657   1.429 -0.2463 -0.0520 -0.0047
  871SOL    HW2 3557   2.976   4.651   1.524 -0.4251  0.1715  0.0115
  871SOL    HW3 3558   2.898   4.711   1.409 -0.5666 -0.6207 -0.3038
  871SOL    MW4 3559   2.965   4.664   1.439 -0.3123 -0.0976 -0.0420
  872SOL     OW 3560   2.519   4.656   1.440  0.5219  0.0330  0.1276
  872SOL    HW2 3561   2.454   4.720   1.410 -1.7071 -2.7865 -1.2095
  872SOL    HW3 3562   2.520   4.668   1.535 -0.4691  1.4855 -0.0072
  872SOL    MW4 3563   2.510   4.666   1.449  0.0970 -0.1473 -0.0666
  873SOL     OW 3564   2.681   0.362   1.501  0.5024 -0.3156 -0.1985
  873SOL    HW2 3565   2.691   0.362   1.597 -0.7025  0.1786 -0.0611
  873SOL    HW3 3566   2.758   0.410   1.470 -0.1130  1.3076  0.6677
  873SOL    MW4 3567   2.693   0.369   1.510  0.2623 -0.0362 -0.0662
  874SOL     OW 3568   2.911   0.453   1.388 -0.6532 -0.1788  0.0260
  874SOL    HW2 3569   2.899   0.465   1.294  0.3792  0.5539 -0.0183
  874SOL    HW3 3570   2.913   0.541   1.424  2.0019 -0.3151  0.3304
  874SOL    MW4 3571   2.910   0.466   1.381 -0.1667 -0.1001  0.0604
  875SOL     OW 3572   2.901   0.716   1.464  0.1403 -0.1112 -0.1102
  875SOL    HW2 3573   2.914   0.718   1.559  0.5219 -0.1483 -0.1578
  875SOL    HW3 3574   2.845   0.791   1.445 -0.2235 -0.3079  0.1859
  875SOL    MW4 3575   2.895   0.726   1.474  0.1428 -0.1420 -0.0774
  876SOL     OW 3576   2.721   0.896   1.352 -0.0720 -0.4281  0.2726
  876SOL    HW2 3577   2.640   0.851   1.372  0.2438 -1.8026 -1.3854
  876SOL    HW3 3578   2.723   0.901   1.256  1.7620 -0.4108  0.2765
  876SOL    MW4 3579   2.711   0.891   1.342  0.2117 -0.6072  0.0542
  877SOL     OW 3580   2.698   1.153   1.474 -0.6889  0.3720 -0.3597
  877SOL    HW2 3581   2.700   1.065   1.437  1.6196  1.1496 -2.2364
  877SOL    HW3 3582   2.630   1.198   1.423 -0.0844  0.3851 -1.1737
  877SOL    MW4 3583   2.689   1.147   1.462 -0.3045  0.4764 -0.7147
  878SOL     OW 3584   2.929   1.297   1.407  0.4243 -0.0196 -0.0837
  878SOL    HW2 3585   3.003   1.243   1.434 -0.5209 -1.3299 -0.0676
  878SOL    HW3 3586   2.852   1.246   1.432 -0.4736  0.9019 -0.9447
  878SOL    MW4 3587   2.929   1.283   1.414  0.1810 -0.0708 -0.1951
  879SOL     OW 3588   2.936   1.556   1.514  0.0323 -0.2997  0.3421
  879SOL    HW2 3589   2.867   1.613   1.480 -0.7262 -0.5360  1.4433
  879SOL    HW3 3590   2.926   1.474   1.466 -0.2364 -0.2152  0.2522
  879SOL    MW4 3591   2.925   1.553   1.503 -0.1030 -0.3198  0.4755
  880SOL     OW 3592   2.708   1.680   1.391 -0.1094 -0.0118 -0.1535
  880SOL    HW2 3593   2.686   1.771   1.413 -2.0322 -0.5954  0.4393
  880SOL    HW3 3594   2.691   1.673   1.297  3.2164  1.1005 -0.9019
  880SOL    MW4 3595   2.703   1.691   1.382  0.0756  0.0579 -0.1739
  881SOL     OW 3596   2.676   1.949   1.468 -0.3547 -0.0156  0.7782
  881SOL    HW2 3597   2.682   1.947   1.563  0.1851  1.7085  0.8030
  881SOL    HW3 3598   2.587   1.980   1.450 -0.4721 -0.3848  0.7139
  881SOL    MW4 3599   2.665   1.953   1.478 -0.2990  0.1631  0.7731
  882SOL     OW 3600   2.934   2.045   1.333  0.1832  0.1542 -0.1987
  882SOL    HW2 3601   2.925   2.139   1.343 -1.6025  0.1569 -1.5193
  882SOL    HW3 3602   2.853   2.009   1.369  0.7850 -0.8644  0.1588
  882SOL    MW4 3603   2.922   2.052   1.339  0.0272  0.0200 -0.3257
  883SOL     OW 3604   2.905   2.293   1.438  0.0719 -0.0950  0.1108
  883SOL    HW2 3605   2.906   2.301   1.534 -2.4101 -0.4535  0.2022
  883SOL    HW3 3606   2.828   2.343   1.411  0.0883 -0.9781 -1.6276
  883SOL    MW4 3607   2.895   2.301   1.447 -0.2532 -0.2587 -0.1066
  884SOL     OW 3608   2.693   2.449   1.363 -0.5606 -0.3649 -0.4684
  884SOL    HW2 3609   2.690   2.544   1.375  0.0319 -0.3253 -0.5846
  884SOL    HW3 3610   2.611   2.417   1.400  0.1043  0.0014  1.4044
  884SOL    MW4 3611   2.682   2.457   1.369 -0.3946 -0.3116 -0.2365
  885SOL     OW 3612   2.672   2.713   1.407 -0.4430 -0.1866 -0.0766
  885SOL    HW2 3613   2.748   2.761   1.375 -1.1007 -0.0495 -1.4453
  885SOL    HW3 3614   2.597   2.753   1.363 -1.0895 -1.8647 -0.5258
  885SOL    MW4 3615   2.672   2.724   1.397 -0.6151 -0.3898 -0.3165
  886SOL     OW 3616   2.898   2.811   1.319  0.2351 -0.0005  0.2258
  886SOL    HW2 3617   2.976   2.775   1.362  0.3744 -0.2326 -0.2148
  886SOL    HW3 3618   2.890   2.899   1.354  0.8768  0.1315  0.0416
  886SOL    MW4 3619   2.907   2.818   1.329  0.3383 -0.0136  0.1434
  887SOL     OW 3620   2.900   3.079   1.413 -0.0308 -0.0371  0.3762
  887SOL    HW2 3621   2.889   3.100   1.505 -1.0379  1.4880 -0.0797
  887SOL    HW3 3622   2.989   3.109   1.392  0.0007  0.1004  0.7041
  887SOL    MW4 3623   2.911   3.085   1.422 -0.1593  0.1822  0.3592
  888SOL     OW 3624   2.702   3.245   1.315  0.2775 -0.0377 -0.0637
  888SOL    HW2 3625   2.639   3.194   1.364  0.3744 -0.7652 -0.6754
  888SOL    HW3 3626   2.784   3.194   1.321  0.4087  0.1097 -0.5618
  888SOL    MW4 3627   2.705   3.231   1.322  0.3076 -0.1144 -0.2100
  889SOL     OW 3628   2.661   3.483   1.443  0.0171 -0.2618 -0.2573
  889SOL    HW2 3629   2.655   3.451   1.533  0.6244 -1.0306 -0.4779
  889SOL    HW3 3630   2.664   3.403   1.390 -1.7788  0.1879 -1.0668
  889SOL    MW4 3631   2.661   3.468   1.448 -0.1392 -0.3035 -0.3934
  890SOL     OW 3632   2.906   3.586   1.374  0.3769  0.2248 -0.3641
  890SOL    HW2 3633   2.822   3.550   1.402  0.7625 -1.0713 -0.8278
  890SOL    HW3 3634   2.895   3.603   1.280  0.5299  0.3261 -0.3643
  890SOL    MW4 3635   2.893   3.583   1.365  0.4480  0.0672 -0.4253
  891SOL     OW 3636   2.857   3.844   1.457 -0.4175  0.1982 -0.3484
  891SOL    HW2 3637   2.784   3.885   1.412  1.0613  0.1202 -2.9167
  891SOL    HW3 3638   2.860   3.755   1.421  0.5363  0.0033  0.1949
  891SOL    MW4 3639   2.848   3.837   1.446 -0.0968  0.1624 -0.6156
  892SOL     OW 3640   2.656   3.995   1.357  0.3541 -0.3743 -0.2702
  892SOL    HW2 3641   2.661   4.081   1.398 -1.4300 -0.5975  0.4634
  892SOL    HW3 3642   2.677   4.012   1.265 -0.1127  0.8776 -0.1631
  892SOL    MW4 3643   2.660   4.009   1.350  0.0575 -0.2384 -0.1593
  893SOL     OW 3644   2.691   4.246   1.446  0.3920 -0.0040 -0.6121
  893SOL    HW2 3645   2.770   4.291   1.415 -1.5497  2.3800 -2.3610
  893SOL    HW3 3646   2.618   4.299   1.411 -1.9833 -2.3200  0.6325
  893SOL    MW4 3647   2.691   4.259   1.437 -0.1776  0.0052 -0.6784
  894SOL     OW 3648   2.932   4.384   1.375 -0.3878 -0.3164 -0.1310
  894SOL    HW2 3649   2.925   4.474   1.405  0.0651 -0.2665 -0.1708
  894SOL    HW3 3650   2.961   4.391   1.284  1.7747 -0.5431  0.5154
  894SOL    MW4 3651   2.935   4.397   1.367 -0.0424 -0.3390 -0.0509
  895SOL     OW 3652   3.401   0.004   1.447  0.0335 -0.3427  0.3775
  895SOL    HW2 3653   3.399   0.005   1.542  1.1215  0.1606  0.3985
  895SOL    HW3 3654   3.404  -0.089   1.424  0.9648 -0.4413  0.8632
  895SOL    MW4 3655   3.401  -0.008   1.456  0.2999 -0.2894  0.4445
  896SOL     OW 3656   3.180   0.102   1.303  0.0963 -0.6922  0.0856
  896SOL    HW2 3657   3.261   0.070   1.344  0.1574  1.1994  1.5173
  896SOL    HW3 3658   3.111   0.047   1.341  0.6549 -2.1987 -1.0100
  896SOL    MW4 3659   3.182   0.090   1.314  0.1779 -0.6414  0.1299
  897SOL     OW 3660   3.154   0.347   1.433 -0.2228 -0.3949  0.0165
  897SOL    HW2 3661   3.167   0.261   1.394  0.4083 -0.5051  0.4489
  897SOL    HW3 3662   3.068   0.374   1.404 -0.1060 -0.8404 -0.7506
  897SOL    MW4 3663   3.145   0.339   1.424 -0.1242 -0.4682 -0.0277
  898SOL     OW 3664   3.382   0.494   1.388  0.4826  0.2078  0.0662
  898SOL    HW2 3665   3.297   0.453   1.406 -0.1749  1.1086 -0.9054
  898SOL    HW3 3666   3.379   0.515   1.295  1.6842  0.4832  0.0831
  898SOL    MW4 3667   3.370   0.491   1.379  0.5541  0.3630 -0.0596
  899SOL     OW 3668   3.331   0.750   1.461  0.1257  0.6196  0.7147
  899SOL    HW2 3669   3.361   0.755   1.552 -0.4711 -0.3073  0.9685
  899SOL    HW3 3670   3.332   0.657   1.441 -0.6507  0.7462  0.0747
  899SOL    MW4 3671   3.335   0.738   1.471 -0.0556  0.5140  0.6639
  900SOL     OW 3672   3.095   0.870   1.361 -0.1770  0.2380  0.1105
  900SOL    HW2 3673   3.177   0.830   1.393  0.1240  0.9496  0.2398
  900SOL    HW3 3674   3.026   0.812   1.394  0.2961 -0.6070 -0.3637
  900SOL    MW4 3675   3.097   0.857   1.370 -0.0749  0.2204  0.0650
  901SOL     OW 3676   3.150   1.113   1.454 -0.1405 -0.4483  0.2873
  901SOL    HW2 3677   3.167   1.096   1.547 -1.1874 -0.5954  0.4590
  901SOL    HW3 3678   3.135   1.026   1.417  0.8256 -0.4384 -0.1376
  901SOL    MW4 3679   3.151   1.099   1.462 -0.1516 -0.4665  0.2539
  902SOL     OW 3680   3.367   1.291   1.357  0.3745  0.2394  0.1315
  902SOL    HW2 3681   3.445   1.251   1.396  0.1536 -0.8512 -0.5246
  902SOL    HW3 3682   3.294   1.243   1.396  0.1749 -1.6927 -2.4656
  902SOL    MW4 3683   3.367   1.280   1.367  0.3192 -0.1594 -0.2978
  903SOL     OW 3684   3.347   1.542   1.482  0.3177 -0.0092  0.4038
  903SOL    HW2 3685   3.368   1.520   1.573  1.5756  0.5345  0.2595
  903SOL    HW3 3686   3.352   1.459   1.435  1.5296 -0.0021  0.5011
  903SOL    MW4 3687   3.350   1.528   1.488  0.6437  0.0635  0.3977
  904SOL     OW 3688   3.140   1.662   1.353 -0.3297 -0.1193  0.0309
  904SOL    HW2 3689   3.069   1.625   1.405 -1.1171  1.4635  0.1136
  904SOL    HW3 3690   3.220   1.637   1.401 -1.0521  1.5206  2.2040
  904SOL    MW4 3691   3.141   1.654   1.366 -0.5288  0.3059  0.3287
  905SOL     OW 3692   3.159   1.919   1.471  0.5480  0.6232  0.0147
  905SOL    HW2 3693   3.167   1.840   1.418  0.5987  0.3664  0.3973
  905SOL    HW3 3694   3.094   1.972   1.425 -1.6488 -0.8956  1.2464
  905SOL    MW4 3695   3.152   1.915   1.458  0.2646  0.3890  0.2277
  906SOL     OW 3696   3.361   2.066   1.357 -0.5950 -0.1998 -0.0318
  906SOL    HW2 3697   3.294   2.014   1.401 -0.1468 -0.5190  0.2774
  906SOL    HW3 3698   3.345   2.052   1.263 -1.6093  0.5563  0.0229
  906SOL    MW4 3699   3.350   2.058   1.350 -0.6695 -0.1426  0.0162
  907SOL     OW 3700   3.309   2.333   1.408  0.0208  0.0729  0.1179
  907SOL    HW2 3701   3.388   2.382   1.386  0.8879 -1.4662 -0.2973
  907SOL    HW3 3702   3.325   2.245   1.372 -0.9682 -0.8574  1.9032
  907SOL    MW4 3703   3.322   2.328   1.400  0.0045 -0.2525  0.2987
  908SOL     OW 3704   3.083   2.462   1.332 -0.7679  0.0933 -0.0543
  908SOL    HW2 3705   3.164   2.425   1.367 -0.7092  1.4645  1.3230
  908SOL    HW3 3706   3.014   2.408   1.368 -0.5702  0.1181  0.3644
  908SOL    MW4 3707   3.085   2.450   1.341 -0.7341  0.2775  0.1827
  909SOL     OW 3708   3.083   2.703   1.468 -0.4860  0.1064  0.5784
  909SOL    HW2 3709   3.171   2.732   1.441 -0.7684 -0.5644 -1.1460
  909SOL    HW3 3710   3.073   2.618   1.425 -1.8044 -0.0173  1.1432
  909SOL    MW4 3711   3.094   2.696   1.459 -0.6976  0.0012  0.4253
  910SOL     OW 3712   3.336   2.812   1.383 -0.1549  0.1213  0.3610
  910SOL    HW2 3713   3.359   2.901   1.411  2.7627 -0.7131  0.7397
  910SOL    HW3 3714   3.359   2.810   1.290 -1.1287  0.0362  0.1163
  910SOL    MW4 3715   3.342   2.824   1.374  0.1018 -0.0002  0.3785
  911SOL     OW 3716   3.390   3.072   1.432 -0.0758 -0.0219 -0.2962
  911SOL    HW2 3717   3.396   3.081   1.528  0.4642 -0.0506 -0.3234
  911SOL    HW3 3718   3.465   3.122   1.399  0.1370 -0.5830 -0.6689
  911SOL    MW4 3719   3.401   3.080   1.441  0.0234 -0.0999 -0.3490
  912SOL     OW 3720   3.132   3.185   1.338 -0.1430  0.0742  0.5404
  912SOL    HW2 3721   3.207   3.137   1.371  0.6659  0.4616 -0.6982
  912SOL    HW3 3722   3.143   3.274   1.372  0.7299  0.4919 -0.8062
  912SOL    MW4 3723   3.143   3.191   1.347  0.0789  0.1802  0.1992
  913SOL     OW 3724   3.139   3.470   1.434 -0.1398 -0.0524  0.3027
  913SOL    HW2 3725   3.145   3.467   1.530  0.5978  1.3880  0.3031
  913SOL    HW3 3726   3.054   3.511   1.417  0.2758  0.8279  0.3440
  913SOL    MW4 3727   3.128   3.475   1.444  0.0124  0.2537  0.3083
  914SOL     OW 3728   3.606   3.493   1.439  0.2193  0.2564 -0.6065
  914SOL    HW2 3729   3.676   3.549   1.407  0.2480 -1.1611 -3.1588
  914SOL    HW3 3730   3.525   3.537   1.411  0.1454  0.8746  0.5806
  914SOL    MW4 3731   3.604   3.506   1.431  0.2134  0.1509 -0.7867
  915SOL     OW 3732   3.399   3.890   1.383  0.1718 -0.1702  0.1963
  915SOL    HW2 3733   3.308   3.918   1.375  0.4277  0.6772  0.0824
  915SOL    HW3 3734   3.397   3.796   1.370 -0.8297 -0.3117  1.3133
  915SOL    MW4 3735   3.387   3.882   1.380  0.0734 -0.0770  0.3287
  916SOL     OW 3736   3.130   3.941   1.348  0.0813  0.0427 -0.5121
  916SOL    HW2 3737   3.111   4.029   1.380  0.4257  0.5741 -1.7193
  916SOL    HW3 3738   3.050   3.891   1.364  0.5794  0.0175  2.0382
  916SOL    MW4 3739   3.117   3.946   1.354  0.1926  0.1097 -0.3349
  917SOL     OW 3740   3.160   4.228   1.430  0.1778  0.2934 -0.2287
  917SOL    HW2 3741   3.168   4.227   1.525  0.8270 -0.9004 -0.2848
  917SOL    HW3 3742   3.079   4.276   1.413  0.4332  1.1330  0.8952
  917SOL    MW4 3743   3.151   4.234   1.440  0.2975  0.2465 -0.0879
  918SOL     OW 3744   3.381   4.383   1.349  0.1812 -0.0460 -0.0916
  918SOL    HW2 3745   3.312   4.318   1.363 -0.3780  0.8414  1.3371
  918SOL    HW3 3746   3.387   4.391   1.253 -1.3676 -0.4703 -0.2393
  918SOL    MW4 3747   3.373   4.375   1.338 -0.0970  0.0157  0.0774
  919SOL     OW 3748   3.856   4.659   1.467  0.2358 -0.2067  0.3797
  919SOL    HW2 3749   3.843   4.651   1.561 -0.4601  0.5865  0.3592
  919SOL    HW3 3750   3.775   4.699   1.435  0.1367 -1.2022 -0.6636
  919SOL    MW4 3751   3.844   4.663   1.475  0.1309 -0.2337  0.2395
  920SOL     OW 3752   3.637   0.130   1.385 -0.8013 -0.0672 -0.1083
  920SOL    HW2 3753   3.637   0.217   1.424 -1.1302 -0.4928  0.8450
  920SOL    HW3 3754   3.551   0.093   1.408  0.0670 -1.3698  1.1254
  920SOL    MW4 3755   3.625   0.137   1.393 -0.7300 -0.2952  0.1804
  921SOL     OW 3756   3.633   0.394   1.478 -0.4996 -0.1728  0.2089
  921SOL    HW2 3757   3.633   0.383   1.573 -0.6483 -2.4314 -0.0058
  921SOL    HW3 3758   3.544   0.418   1.457 -0.3346  0.8721  0.6954
  921SOL    MW4 3759   3.622   0.395   1.488 -0.4971 -0.3329  0.2446
  922SOL     OW 3760   3.848   0.551   1.388  0.4425 -0.1723  0.2725
  922SOL    HW2 3761   3.766   0.507   1.409  1.0515 -1.6535 -0.4038
  922SOL    HW3 3762   3.914   0.505   1.439  1.0234  0.2606 -0.0837
  922SOL    MW4 3763   3.846   0.539   1.397  0.5991 -0.3105  0.1363
  923SOL     OW 3764   3.809   0.786   1.508  0.2402 -0.0169 -0.8097
  923SOL    HW2 3765   3.729   0.826   1.473  0.9372  0.4033 -1.9553
  923SOL    HW3 3766   3.817   0.704   1.459  1.4205  0.7483 -1.9285
  923SOL    MW4 3767   3.799   0.780   1.497  0.4878  0.1395 -1.1084
  924SOL     OW 3768   3.570   0.879   1.418 -0.5435  0.5439  0.3955
  924SOL    HW2 3769   3.487   0.842   1.448 -0.1868 -0.7114 -0.1622
  924SOL    HW3 3770   3.562   0.881   1.322 -0.3002  1.3124  0.3844
  924SOL    MW4 3771   3.558   0.874   1.409 -0.4644  0.4797  0.3204
  925SOL     OW 3772   3.579   1.152   1.462 -0.2949  0.2382 -0.1071
  925SOL    HW2 3773   3.656   1.185   1.415  0.0978 -0.8795 -0.2627
  925SOL    HW3 3774   3.575   1.059   1.439 -1.3228  0.1535  0.4089
  925SOL    MW4 3775   3.589   1.144   1.453 -0.3788  0.0796 -0.0595
  926SOL     OW 3776   3.860   1.290   1.400  0.2861  0.1375 -0.0991
  926SOL    HW2 3777   3.938   1.250   1.436  0.2469  0.4224  0.3075
  926SOL    HW3 3778   3.860   1.380   1.434 -1.1536 -0.3909  1.3549
  926SOL    MW4 3779   3.870   1.297   1.409  0.0908  0.1055  0.1464
  927SOL     OW 3780   3.819   1.570   1.454 -0.1227 -0.5394 -0.0857
  927SOL    HW2 3781   3.829   1.595   1.546 -1.2162  0.3341 -0.1988
  927SOL    HW3 3782   3.728   1.589   1.433 -0.3161 -2.2423 -0.9095
  927SOL    MW4 3783   3.808   1.576   1.463 -0.2925 -0.6489 -0.2092
  928SOL     OW 3784   3.563   1.664   1.350  0.4992  0.5432  0.1978
  928SOL    HW2 3785   3.486   1.624   1.390  0.1018  1.1331  0.0414
  928SOL    HW3 3786   3.557   1.640   1.257  0.1655  1.1063  0.0719
  928SOL    MW4 3787   3.552   1.656   1.343  0.4027  0.6953  0.1605
  929SOL     OW 3788   3.607   1.912   1.455  0.5231 -1.1312 -0.6967
  929SOL    HW2 3789   3.594   1.823   1.422  1.2481 -0.9116 -1.5863
  929SOL    HW3 3790   3.523   1.955   1.440 -0.6262 -2.3328  1.9292
  929SOL    MW4 3791   3.594   1.906   1.449  0.4671 -1.2608 -0.4678
  930SOL     OW 3792   3.823   2.058   1.362  0.1584  0.0060  0.1773
  930SOL    HW2 3793   3.799   2.151   1.371  0.4894  0.1414 -0.3390
  930SOL    HW3 3794   3.748   2.011   1.398  0.3989  0.4930  1.3612
  930SOL    MW4 3795   3.810   2.064   1.368  0.2337  0.0880  0.2655
  931SOL     OW 3796   3.783   2.334   1.397 -0.1597  0.7023  0.7094
  931SOL    HW2 3797   3.858   2.389   1.372  1.3668 -1.3522  0.6553
  931SOL    HW3 3798   3.785   2.334   1.493 -1.1521  2.0453  0.7412
  931SOL    MW4 3799   3.793   2.341   1.406 -0.0894  0.6089  0.7066
  932SOL     OW 3800   3.544   2.458   1.326  0.1658  0.2644  0.5928
  932SOL    HW2 3801   3.550   2.549   1.356  2.4536  0.0607  0.8436
  932SOL    HW3 3802   3.622   2.416   1.361  0.3440 -1.2161 -1.4853
  932SOL    MW4 3803   3.555   2.465   1.334  0.4909  0.0422  0.3515
  933SOL     OW 3804   3.580   2.704   1.447 -0.5123 -0.3094  0.3096
  933SOL    HW2 3805   3.583   2.699   1.543 -0.8317 -0.7825  0.2942
  933SOL    HW3 3806   3.489   2.728   1.427 -0.6843 -1.1209  0.0866
  933SOL    MW4 3807   3.568   2.707   1.457 -0.5772 -0.4792  0.2781
  934SOL     OW 3808   3.788   2.845   1.343  0.3321  0.7154  0.2875
  934SOL    HW2 3809   3.873   2.823   1.382  0.9189 -1.1960 -1.9470
  934SOL    HW3 3810   3.725   2.792   1.392  0.7383  0.3638  0.4355
  934SOL    MW4 3811   3.791   2.835   1.354  0.4632  0.4168  0.0123
  935SOL     OW 3812   4.056   3.231   1.356  0.7576 -0.5053  0.1086
  935SOL    HW2 3813   4.056   3.318   1.397  1.8831 -0.6840  0.4978
  935SOL    HW3 3814   4.061   3.250   1.262 -0.6466 -0.1253  0.0909
  935SOL    MW4 3815   4.056   3.245   1.349  0.7210 -0.4787  0.1578
  936SOL     OW 3816   3.827   3.112   1.479  0.1000 -0.1250 -0.4866
  936SOL    HW2 3817   3.896   3.171   1.447  0.6400 -0.8262 -0.6180
  936SOL    HW3 3818   3.823   3.042   1.414 -1.5965  0.5489 -1.1332
  936SOL    MW4 3819   3.836   3.111   1.467 -0.0525 -0.1285 -0.5894
  937SOL     OW 3820   3.616   3.214   1.353  0.3410  0.4497  0.2165
  937SOL    HW2 3821   3.608   3.308   1.371  0.8578  0.7319 -0.9743
  937SOL    HW3 3822   3.687   3.185   1.411  1.8562  1.3090 -1.1685
  937SOL    MW4 3823   3.624   3.223   1.363  0.6092  0.6001 -0.1234
  938SOL     OW 3824   3.829   3.635   1.359 -0.0384 -0.4784  0.1186
  938SOL    HW2 3825   3.839   3.718   1.406  1.8857  0.1986 -1.3930
  938SOL    HW3 3826   3.904   3.582   1.388 -0.0794 -0.8771 -0.4854
  938SOL    MW4 3827   3.840   3.639   1.369  0.2100 -0.4416 -0.1605
  939SOL     OW 3828   3.832   3.908   1.466  0.4126 -0.2856  0.0555
  939SOL    HW2 3829   3.909   3.961   1.445  0.1184 -0.0631 -0.4482
  939SOL    HW3 3830   3.760   3.950   1.420 -0.0005 -0.5436  0.4657
  939SOL    MW4 3831   3.833   3.920   1.457  0.3195 -0.2902  0.0430
  940SOL     OW 3832   3.636   4.038   1.293 -0.5313  0.1113 -0.2277
  940SOL    HW2 3833   3.622   4.130   1.317  1.7043 -0.1280  2.2239
  940SOL    HW3 3834   3.551   3.996   1.308 -1.0703  1.4171  0.4916
  940SOL    MW4 3835   3.623   4.045   1.298 -0.3073  0.2527  0.1906
  941SOL     OW 3836   3.636   4.306   1.441 -0.2582 -0.4724  0.2566
  941SOL    HW2 3837   3.630   4.282   1.533  0.4774 -2.2185 -0.1406
  941SOL    HW3 3838   3.546   4.330   1.417 -0.4322  0.1103  1.4364
  941SOL    MW4 3839   3.623   4.306   1.450 -0.1843 -0.6261  0.3598
  942SOL     OW 3840   3.874   4.409   1.339  0.1226  0.3745  0.2750
  942SOL    HW2 3841   3.793   4.367   1.369  0.0313  0.2070 -0.2012
  942SOL    HW3 3842   3.872   4.497   1.376  0.0179  0.1603  0.7735
  942SOL    MW4 3843   3.863   4.415   1.348  0.0970  0.3242  0.2781
  943SOL     OW 3844   4.321   4.412   1.401 -0.2498  0.2408  0.3684
  943SOL    HW2 3845   4.239   4.375   1.432 -0.6334  0.5498 -0.2627
  943SOL    HW3 3846   4.320   4.397   1.306  1.4207 -1.7246  0.6359
  943SOL    MW4 3847   4.310   4.405   1.392 -0.0796  0.0224  0.3204
  944SOL     OW 3848   4.075   0.148   1.389  0.6486 -0.2940 -0.0961
  944SOL    HW2 3849   3.992   0.107   1.415  0.1614  0.9224  0.3065
  944SOL    HW3 3850   4.142   0.092   1.427 -0.0092 -0.6636  0.5358
  944SOL    MW4 3851   4.073   0.135   1.397  0.4973 -0.1823  0.0404
  945SOL     OW 3852   4.069   0.394   1.486  0.1615  0.4842 -0.0763
  945SOL    HW2 3853   4.061   0.383   1.581 -1.1922  0.5007 -0.1783
  945SOL    HW3 3854   4.079   0.305   1.452  1.0005  0.5032  0.1012
  945SOL    MW4 3855   4.069   0.381   1.494  0.0935  0.4889 -0.0663
  946SOL     OW 3856   4.277   0.487   1.333  0.3062 -0.1356 -0.1873
  946SOL    HW2 3857   4.211   0.441   1.385  0.7076  0.7333  1.1272
  946SOL    HW3 3858   4.359   0.471   1.379  0.5363  1.3526 -0.0410
  946SOL    MW4 3859   4.279   0.479   1.346  0.3896  0.1754  0.0055
  947SOL     OW 3860   4.251   0.746   1.463 -0.0109  0.1575 -0.4431
  947SOL    HW2 3861   4.241   0.661   1.420 -0.1786  0.9600 -2.0400
  947SOL    HW3 3862   4.315   0.793   1.409  1.0985  0.5746  1.1788
  947SOL    MW4 3863   4.258   0.741   1.450  0.1135  0.3185 -0.4398
  948SOL     OW 3864   4.031   0.873   1.356  0.2557 -0.2420 -0.1936
  948SOL    HW2 3865   4.107   0.828   1.392  0.7216  0.3884 -0.3680
  948SOL    HW3 3866   3.961   0.858   1.420  0.3167 -1.4710 -0.4194
  948SOL    MW4 3867   4.031   0.865   1.369  0.3252 -0.3210 -0.2464
  949SOL     OW 3868   4.070   1.126   1.455  0.1697 -0.2568  0.0198
  949SOL    HW2 3869   4.066   1.117   1.550 -0.2191 -2.1252 -0.1611
  949SOL    HW3 3870   4.054   1.038   1.422  1.6484  0.1250 -1.7571
  949SOL    MW4 3871   4.067   1.113   1.463  0.3133 -0.4529 -0.2385
  950SOL     OW 3872   4.259   1.272   1.315 -0.2462  0.2687  0.3916
  950SOL    HW2 3873   4.203   1.205   1.355 -1.5019  0.9756 -0.1844
  950SOL    HW3 3874   4.348   1.242   1.333 -0.8008 -1.3397  0.5125
  950SOL    MW4 3875   4.264   1.259   1.323 -0.4854  0.1500  0.3316
  951SOL     OW 3876   4.240   1.546   1.375 -0.2441  0.0456  0.2395
  951SOL    HW2 3877   4.254   1.456   1.345 -0.1286  0.6797 -1.7144
  951SOL    HW3 3878   4.327   1.584   1.377 -0.4092  0.4478 -0.0957
  951SOL    MW4 3879   4.253   1.539   1.371 -0.2503  0.1823 -0.0625
  952SOL     OW 3880   4.025   1.716   1.333  0.2666 -0.0538  0.3612
  952SOL    HW2 3881   4.100   1.660   1.352  1.1432  0.8713 -0.3034
  952SOL    HW3 3882   3.950   1.670   1.371  1.0416 -1.4252  0.2620
  952SOL    MW4 3883   4.025   1.703   1.340  0.4849 -0.1128  0.2605
  953SOL     OW 3884   4.044   1.944   1.477  0.2925  0.1901  0.1282
  953SOL    HW2 3885   4.041   1.856   1.438  2.0990  0.6876 -1.2202
  953SOL    HW3 3886   3.967   1.989   1.441 -0.3568 -0.6619  0.4227
  953SOL    MW4 3887   4.033   1.938   1.467  0.4454  0.1433 -0.0108
  954SOL     OW 3888   4.254   2.098   1.380 -0.2284  0.1403 -0.2375
  954SOL    HW2 3889   4.184   2.043   1.416 -1.4491  0.8127 -1.5451
  954SOL    HW3 3890   4.239   2.096   1.285  1.3717  0.5195 -0.5084
  954SOL    MW4 3891   4.242   2.090   1.372 -0.1779  0.2789 -0.4457
  955SOL     OW 3892   4.233   2.359   1.445 -0.5806 -0.3913  0.9124
  955SOL    HW2 3893   4.245   2.356   1.540 -0.2865 -0.4692  0.8736
  955SOL    HW3 3894   4.249   2.269   1.416 -1.2833 -0.4983  0.8616
  955SOL    MW4 3895   4.237   2.347   1.454 -0.6342 -0.4156  0.9006
  956SOL     OW 3896   4.007   2.484   1.310  0.7400 -0.1684  0.1919
  956SOL    HW2 3897   3.999   2.567   1.356 -1.1127 -0.4211  0.3391
  956SOL    HW3 3898   4.071   2.434   1.361  2.5207  1.4552 -0.3728
  956SOL    MW4 3899   4.014   2.488   1.323  0.7305  0.0126  0.1369
  957SOL     OW 3900   4.033   2.730   1.434  0.6617 -0.1771 -0.0681
  957SOL    HW2 3901   4.042   2.739   1.529  0.3247 -0.5349 -0.0045
  957SOL    HW3 3902   4.111   2.773   1.399  0.3222  0.7787  0.3380
  957SOL    MW4 3903   4.045   2.737   1.442  0.5722 -0.0982 -0.0061
  958SOL     OW 3904   4.263   2.855   1.349 -0.0321  0.2223 -0.4323
  958SOL    HW2 3905   4.274   2.948   1.367 -1.4526  0.5118 -0.9990
  958SOL    HW3 3906   4.348   2.816   1.371  1.0475  1.8615 -1.5669
  958SOL    MW4 3907   4.276   2.862   1.354 -0.0772  0.4768 -0.6567
  959SOL     OW 3908   4.301   3.122   1.421 -0.1011  0.1596 -0.0362
  959SOL    HW2 3909   4.217   3.147   1.382 -1.1236 -3.9938 -0.7750
  959SOL    HW3 3910   4.284   3.119   1.515 -0.5077  0.3141 -0.1024
  959SOL    MW4 3911   4.287   3.125   1.428 -0.2894 -0.3681 -0.1425
  960SOL     OW 3912   4.046   3.489   1.447 -0.2944 -0.0910 -0.4002
  960SOL    HW2 3913   4.030   3.491   1.541  0.5232 -1.8322 -0.2012
  960SOL    HW3 3914   4.137   3.518   1.437 -0.2966 -0.1601 -0.6237
  960SOL    MW4 3915   4.056   3.493   1.458 -0.1864 -0.3302 -0.4033
  961SOL     OW 3916   4.283   3.609   1.388 -0.3103  0.5300 -0.0981
  961SOL    HW2 3917   4.291   3.700   1.418  0.8482  0.7000 -0.8954
  961SOL    HW3 3918   4.274   3.616   1.293 -1.2634 -0.1400 -0.0590
  961SOL    MW4 3919   4.283   3.622   1.379 -0.2823  0.4642 -0.1980
  962SOL     OW 3920   3.858   3.098   1.016 -0.1961 -0.7228 -0.1917
  962SOL    HW2 3921   3.897   3.117   0.930 -0.9667  0.1194 -0.3576
  962SOL    HW3 3922   3.874   3.004   1.029  1.0223 -0.6038 -0.6963
  962SOL    MW4 3923   3.866   3.088   1.006 -0.1373 -0.5960 -0.2801
  963SOL     OW 3924   4.046   4.047   1.372 -0.0878  0.1734 -0.1462
  963SOL    HW2 3925   4.057   4.141   1.391 -2.7168  0.5864 -0.4497
  963SOL    HW3 3926   4.047   4.042   1.277  1.4783 -0.3196 -0.1136
  963SOL    MW4 3927   4.048   4.059   1.362 -0.2284  0.1631 -0.1818
  964SOL     OW 3928   0.188   2.721   0.323  0.2049  0.1975  0.3638
  964SOL    HW2 3929   0.209   2.814   0.324 -0.8869  0.4459  0.3974
  964SOL    HW3 3930   0.100   2.716   0.286 -0.0025 -0.7684  0.9611
  964SOL    MW4 3931   0.180   2.733   0.319  0.0335  0.1030  0.4471
  965SOL     OW 3932   4.084   4.296   1.483 -0.0758  0.5585  0.4537
  965SOL    HW2 3933   4.061   4.295   1.576  0.6106 -0.1194  0.6187
  965SOL    HW3 3934   4.013   4.344   1.442 -0.4135  0.8192  1.3247
  965SOL    MW4 3935   4.072   4.302   1.490 -0.0300  0.5035  0.5904
  966SOL     OW 3936   0.066   4.292   1.496  0.2441  0.3129  0.2479
  966SOL    HW2 3937   0.032   4.265   1.581  0.0805 -0.6021 -0.1080
  966SOL    HW3 3938  -0.008   4.334   1.453  0.0029 -0.2504  0.1067
  966SOL    MW4 3939   0.052   4.294   1.502  0.1907  0.1178  0.1823
  967SOL     OW 3940   0.240   0.024   1.799 -0.1522  0.1418 -0.1207
  967SOL    HW2 3941   0.321   0.063   1.833  0.3109 -0.7049 -0.2282
  967SOL    HW3 3942   0.250   0.027   1.704 -0.7694  1.1135 -0.1526
  967SOL    MW4 3943   0.252   0.029   1.791 -0.1725  0.1583 -0.1391
  968SOL     OW 3944   4.303   4.650   1.760 -0.3170  0.1487  0.5016
  968SOL    HW2 3945   4.216   4.669   1.796 -0.2780  1.4915 -0.0521
  968SOL    HW3 3946   4.360   4.717   1.797  0.5112 -0.7838  0.9346
  968SOL    MW4 3947   4.299   4.662   1.769 -0.2027  0.2027  0.4857
  969SOL     OW 3948   4.477   0.393   1.736  0.1280 -0.0009  0.2854
  969SOL    HW2 3949   4.412   0.444   1.784  0.8509 -0.1205  1.4011
  969SOL    HW3 3950   4.561   0.429   1.764  0.5775 -0.4693 -0.4453
  969SOL    MW4 3951   4.480   0.405   1.746  0.2828 -0.0785  0.3363
  970SOL     OW 3952   0.487   0.384   1.714 -0.1050  0.2427 -0.0629
  970SOL    HW2 3953   0.551   0.424   1.772  0.3538 -1.1179  0.3991
  970SOL    HW3 3954   0.511   0.414   1.626  0.2785  0.8853  0.2569
  970SOL    MW4 3955   0.498   0.393   1.710  0.0061  0.1480  0.0402
  971SOL     OW 3956   0.194   0.717   1.696 -0.4911 -0.4214  0.1285
  971SOL    HW2 3957   0.261   0.775   1.733  0.0019 -1.0213  0.1754
  971SOL    HW3 3958   0.175   0.755   1.610  0.7805 -0.9287 -0.3838
  971SOL    MW4 3959   0.200   0.730   1.690 -0.2583 -0.5675  0.0671
  972SOL     OW 3960   0.005   0.851   1.838  0.2247 -0.0563  0.2910
  972SOL    HW2 3961  -0.081   0.820   1.808 -0.3914  0.6308  1.2923
  972SOL    HW3 3962   0.068   0.794   1.794 -0.7583 -0.7693 -0.2218
  972SOL    MW4 3963   0.002   0.840   1.828  0.0138 -0.0598  0.3554
  973SOL     OW 3964   4.469   1.098   1.709  0.0674 -0.4308 -0.3436
  973SOL    HW2 3965   4.394   1.151   1.737  1.5988  0.4755  2.1483
  973SOL    HW3 3966   4.454   1.012   1.748  0.5869 -0.0837  0.6434
  973SOL    MW4 3967   4.457   1.094   1.717  0.3376 -0.2656  0.1154
  974SOL     OW 3968   0.182   1.255   1.824 -0.1833  0.1313 -0.0322
  974SOL    HW2 3969   0.165   1.330   1.768  0.4617  0.4812  0.2364
  974SOL    HW3 3970   0.111   1.194   1.805 -0.1787  0.4085 -0.9472
  974SOL    MW4 3971   0.171   1.257   1.814 -0.0976  0.2141 -0.1175
  975SOL     OW 3972   0.184   1.523   1.711 -0.4455 -0.2108  0.1653
  975SOL    HW2 3973   0.267   1.549   1.751  0.0372 -1.0784 -0.2575
  975SOL    HW3 3974   0.118   1.572   1.759  0.4090  1.5426 -0.3991
  975SOL    MW4 3975   0.186   1.533   1.722 -0.2691 -0.0941  0.0349
  976SOL     OW 3976   4.236   1.569   1.690  0.1290  0.5315 -0.0828
  976SOL    HW2 3977   4.241   1.478   1.719 -2.0007  0.5096  0.2524
  976SOL    HW3 3978   4.209   1.564   1.598  1.0453  0.8015 -0.3733
  976SOL    MW4 3979   4.233   1.556   1.682 -0.0310  0.5642 -0.0769
  977SOL     OW 3980   4.460   1.685   1.819  0.1518 -0.1566  0.1117
  977SOL    HW2 3981   4.375   1.651   1.791  0.2416 -0.0165 -0.3351
  977SOL    HW3 3982   4.462   1.670   1.913 -0.2257 -0.4740  0.0698
  977SOL    MW4 3983   4.449   1.679   1.827  0.1135 -0.1800  0.0471
  978SOL     OW 3984   4.489   1.926   1.726  0.1986 -0.2417  0.0336
  978SOL    HW2 3985   4.417   1.972   1.770  1.4925  0.3444  1.6049
  978SOL    HW3 3986   4.491   1.839   1.766  0.9211  0.0537  0.6758
  978SOL    MW4 3987   4.480   1.921   1.737  0.4644 -0.1254  0.3256
  979SOL     OW 3988   0.219   2.303   1.732  0.1576  0.1276  0.1390
  979SOL    HW2 3989   0.293   2.362   1.749  1.0547 -0.5141 -1.4467
  979SOL    HW3 3990   0.142   2.359   1.741  0.9130  1.1480  0.3926
  979SOL    MW4 3991   0.219   2.318   1.735  0.3756  0.1774 -0.0367
  980SOL     OW 3992   4.482   2.481   1.802 -0.3431 -0.6805  0.0301
  980SOL    HW2 3993   4.486   2.483   1.898  1.4051  0.1938 -0.0392
  980SOL    HW3 3994   4.468   2.572   1.777 -2.5569 -1.1430 -0.5084
  980SOL    MW4 3995   4.480   2.493   1.811 -0.4046 -0.6263 -0.0502
  981SOL     OW 3996   4.476   2.755   1.708  0.0188 -0.7608  0.5495
  981SOL    HW2 3997   4.547   2.804   1.748  0.0197 -0.2478 -0.0659
  981SOL    HW3 3998   4.396   2.794   1.744  0.0622 -1.7782  1.7472
  981SOL    MW4 3999   4.475   2.767   1.718  0.0248 -0.8273  0.6263
  982SOL     OW 4000   0.210   2.891   1.828 -0.2757  0.1838  0.1679
  982SOL    HW2 4001   0.196   2.854   1.916 -0.9432  0.1203  0.0397
  982SOL    HW3 4002   0.278   2.835   1.790 -2.2562 -1.8360 -0.5442
  982SOL    MW4 4003   0.217   2.878   1.835 -0.6250 -0.0913  0.0571
  983SOL     OW 4004   0.180   3.149   1.738  0.4109 -0.1701  0.2177
  983SOL    HW2 4005   0.180   3.059   1.771  1.0756  0.2501  1.3662
  983SOL    HW3 4006   0.201   3.139   1.645  1.2246 -1.1460  0.4957
  983SOL    MW4 4007   0.183   3.136   1.730  0.6060 -0.2434  0.4059
  984SOL     OW 4008   4.444   3.233   1.836  0.0365 -0.0178 -0.0070
  984SOL    HW2 4009   4.375   3.176   1.801 -0.4684  0.8225 -0.3890
  984SOL    HW3 4010   4.524   3.200   1.796 -0.3585  0.0394 -0.8642
  984SOL    MW4 4011   4.445   3.221   1.826 -0.0825  0.1004 -0.1704
  985SOL     OW 4012   4.475   3.494   1.764 -0.3240 -0.5245  0.3277
  985SOL    HW2 4013   4.469   3.403   1.795  2.3162 -0.1051  2.3009
  985SOL    HW3 4014   4.567   3.518   1.779 -0.3380  1.6089 -2.6878
  985SOL    MW4 4015   4.487   3.485   1.770  0.0225 -0.1876  0.1903
  986SOL     OW 4016   0.232   3.624   1.839 -0.1619  0.0900  0.2278
  986SOL    HW2 4017   0.221   3.605   1.932  0.2329  1.4542  0.5683
  986SOL    HW3 4018   0.319   3.590   1.817  0.0863  0.5096  0.5616
  986SOL    MW4 4019   0.242   3.617   1.848 -0.0771  0.3254  0.3169
  987SOL     OW 4020   0.244   3.889   1.767  0.2276 -0.1143  0.0731
  987SOL    HW2 4021   0.313   3.921   1.826 -0.5499 -0.5471  1.2414
  987SOL    HW3 4022   0.242   3.795   1.780 -0.0825 -0.1933 -0.5107
  987SOL    MW4 4023   0.253   3.881   1.777  0.0841 -0.1819  0.1503
  988SOL     OW 4024   4.487   3.968   1.869  0.0175 -0.3166  0.2119
  988SOL    HW2 4025   4.483   4.055   1.829 -1.1298 -0.4453  0.0111
  988SOL    HW3 4026   4.572   3.934   1.845  0.2915  0.5679 -0.1098
  988SOL    MW4 4027   4.498   3.975   1.861 -0.0973 -0.2172  0.1431
  989SOL     OW 4028   0.021   4.239   1.769 -0.0773 -0.2472 -0.3293
  989SOL    HW2 4029  -0.062   4.282   1.790 -0.2374 -0.5184 -0.4022
  989SOL    HW3 4030   0.089   4.300   1.799 -0.3033  0.1158 -0.5604
  989SOL    MW4 4031   0.019   4.253   1.776 -0.1292 -0.2351 -0.3694
  990SOL     OW 4032   0.232   4.429   1.850  0.3674  0.4233 -0.2247
  990SOL    HW2 4033   0.239   4.426   1.946 -1.1339  0.9190 -0.0925
  990SOL    HW3 4034   0.232   4.523   1.829  0.2985  0.3231 -0.6788
  990SOL    MW4 4035   0.233   4.441   1.860  0.1602  0.4754 -0.2671
  991SOL     OW 4036   0.695   0.032   1.764 -0.0735 -0.8192  0.5311
  991SOL    HW2 4037   0.711  -0.049   1.811  0.4781 -0.5624  0.7943
  991SOL    HW3 4038   0.691   0.005   1.672 -1.4365 -1.3563  0.7419
  991SOL    MW4 4039   0.697   0.018   1.758 -0.1806 -0.8559  0.5938
  992SOL     OW 4040   0.481   0.158   1.873  0.5441 -0.0976  0.0274
  992SOL    HW2 4041   0.477   0.240   1.823  0.8584  0.3134  0.6692
  992SOL    HW3 4042   0.560   0.114   1.842 -0.1290 -0.6154 -1.0040
  992SOL    MW4 4043   0.491   0.163   1.862  0.4968 -0.1117 -0.0241
  993SOL     OW 4044   0.489   0.410   1.433 -0.1713 -0.4094 -0.4127
  993SOL    HW2 4045   0.559   0.457   1.388 -1.2662 -0.0422 -1.7450
  993SOL    HW3 4046   0.408   0.448   1.398 -1.0509 -0.0466  1.9201
  993SOL    MW4 4047   0.488   0.421   1.423 -0.4318 -0.3131 -0.2809
  994SOL     OW 4048   0.683   0.528   1.830 -0.1401 -0.0992  0.7230
  994SOL    HW2 4049   0.697   0.524   1.924  0.3316 -0.5469  0.6361
  994SOL    HW3 4050   0.757   0.481   1.792 -0.7726 -0.6644  0.1623
  994SOL    MW4 4051   0.694   0.522   1.837 -0.1613 -0.2328  0.6377
  995SOL     OW 4052   0.661   0.761   1.720 -0.0011 -0.2154  0.2467
  995SOL    HW2 4053   0.734   0.821   1.736  0.1080 -0.1802 -0.3629
  995SOL    HW3 4054   0.682   0.683   1.772  0.2063 -0.0017  0.4870
  995SOL    MW4 4055   0.673   0.759   1.729  0.0407 -0.1826  0.1980
  996SOL     OW 4056   0.405   0.863   1.806 -0.1530 -0.3387 -0.0766
  996SOL    HW2 4057   0.401   0.958   1.796  0.6449 -0.2943 -0.0040
  996SOL    HW3 4058   0.483   0.836   1.757 -0.5673 -0.9942 -0.3817
  996SOL    MW4 4059   0.415   0.872   1.798 -0.1024 -0.4194 -0.1075
  997SOL     OW 4060   0.420   1.137   1.736  0.2467  0.4375  0.2760
  997SOL    HW2 4061   0.333   1.169   1.758 -0.0082 -0.6943  0.9122
  997SOL    HW3 4062   0.417   1.125   1.641  0.2702  2.0263  0.0486
  997SOL    MW4 4063   0.409   1.140   1.726  0.2162  0.4978  0.3300
  998SOL     OW 4064   0.675   1.251   1.809  0.5932 -0.0032  0.0092
  998SOL    HW2 4065   0.668   1.256   1.904  0.0206 -0.9193  0.0261
  998SOL    HW3 4066   0.594   1.207   1.782  0.8725  0.0201 -0.8745
  998SOL    MW4 4067   0.663   1.246   1.818  0.5545 -0.1211 -0.1050
  999SOL     OW 4068   0.687   1.524   1.745 -0.4238 -0.0114  0.3006
  999SOL    HW2 4069   0.685   1.431   1.768  2.5177 -0.2816 -0.3885
  999SOL    HW3 4070   0.696   1.524   1.650  1.5703  0.9357  0.4727
  999SOL    MW4 4071   0.688   1.512   1.735  0.2274  0.0780  0.2323
 1000SOL     OW 4072   0.415   1.648   1.823  0.4719  0.2237 -0.3365
 1000SOL    HW2 4073   0.440   1.659   1.915  0.8721  1.4972 -0.5847
 1000SOL    HW3 4074   0.496   1.625   1.778  0.6196  1.3584 -0.6564
 1000SOL    MW4 4075   0.429   1.646   1.829  0.5442  0.5414 -0.4114
 1001SOL     OW 4076   0.249   2.047   1.833 -0.3514 -0.5372  0.4719
 1001SOL    HW2 4077   0.170   2.005   1.798  0.1148 -1.7295  0.8246
 1001SOL    HW3 4078   0.240   2.138   1.807 -2.1450 -0.5199  1.0281
 1001SOL    MW4 4079   0.237   2.053   1.825 -0.5265 -0.6921  0.5918
 1002SOL     OW 4080   0.644   2.078   1.806 -0.4700  0.4501 -0.0309
 1002SOL    HW2 4081   0.664   2.074   1.900  0.7294 -0.7207 -0.3042
 1002SOL    HW3 4082   0.581   2.007   1.793 -0.5607  0.5482 -0.1128
 1002SOL    MW4 4083   0.639   2.068   1.817 -0.3237  0.3088 -0.0777
 1003SOL     OW 4084   0.655   2.320   1.677 -0.0866  0.4893  0.1476
 1003SOL    HW2 4085   0.644   2.231   1.709 -0.6990  0.5484  0.1111
 1003SOL    HW3 4086   0.674   2.310   1.584  0.5418  0.3691  0.2860
 1003SOL    MW4 4087   0.656   2.307   1.669 -0.0845  0.4811  0.1609
 1004SOL     OW 4088   0.445   2.442   1.814 -0.3347  0.3538  0.0718
 1004SOL    HW2 4089   0.452   2.425   1.908  1.1281 -1.3633 -0.3064
 1004SOL    HW3 4090   0.518   2.393   1.775 -0.4175  1.7008 -1.8875
 1004SOL    MW4 4091   0.456   2.433   1.821 -0.1526  0.3052 -0.2365
 1005SOL     OW 4092   0.396   2.714   1.753  0.2726  0.2253 -0.4520
 1005SOL    HW2 4093   0.402   2.626   1.789  1.8478  0.2537 -0.5794
 1005SOL    HW3 4094   0.470   2.761   1.793 -0.0535  1.2447 -1.0280
 1005SOL    MW4 4095   0.407   2.709   1.763  0.4374  0.3633 -0.5447
 1006SOL     OW 4096   0.630   2.826   1.849 -0.4174 -0.0289  0.1558
 1006SOL    HW2 4097   0.628   2.812   1.944 -1.4333 -0.1344  0.1209
 1006SOL    HW3 4098   0.623   2.921   1.838  1.1505  0.1129  0.2212
 1006SOL    MW4 4099   0.629   2.837   1.860 -0.3446 -0.0241  0.1597
 1007SOL     OW 4100   0.617   3.090   1.779 -0.1345  0.1013 -0.3797
 1007SOL    HW2 4101   0.698   3.135   1.801 -0.7552  1.3129 -0.5604
 1007SOL    HW3 4102   0.628   3.065   1.687  0.7588 -1.3241  0.0940
 1007SOL    MW4 4103   0.629   3.092   1.769 -0.0985  0.0732 -0.3411
 1008SOL     OW 4104   0.418   3.247   1.860 -0.4806  0.0461  0.0299
 1008SOL    HW2 4105   0.340   3.201   1.827 -0.1421 -0.4068 -0.1376
 1008SOL    HW3 4106   0.490   3.187   1.843 -0.1484  0.2914  0.5707
 1008SOL    MW4 4107   0.417   3.233   1.854 -0.3921  0.0188  0.0790
 1009SOL     OW 4108   0.474   3.494   1.732  0.4430 -0.1288  0.1532
 1009SOL    HW2 4109   0.483   3.408   1.774 -0.4340  0.3557  1.3635
 1009SOL    HW3 4110   0.545   3.546   1.768  0.4894 -0.1045  0.0269
 1009SOL    MW4 4111   0.485   3.489   1.742  0.3334 -0.0618  0.2961
 1010SOL     OW 4112   0.659   3.646   1.866 -0.0326 -0.2938 -0.2063
 1010SOL    HW2 4113   0.663   3.735   1.830 -0.5946 -1.0035 -2.0964
 1010SOL    HW3 4114   0.745   3.609   1.845  0.6387  0.1688  1.6299
 1010SOL    MW4 4115   0.671   3.653   1.859 -0.0182 -0.3264 -0.2135
 1011SOL     OW 4116   0.688   3.908   1.761 -0.5690  0.2805  0.5782
 1011SOL    HW2 4117   0.756   3.975   1.772  0.3085 -0.7913  1.8278
 1011SOL    HW3 4118   0.697   3.880   1.670 -0.1946  1.0685  0.3663
 1011SOL    MW4 4119   0.698   3.913   1.751 -0.4038  0.2432  0.7150
 1012SOL     OW 4120   0.476   4.033   1.886  0.1659 -0.2501  0.0598
 1012SOL    HW2 4121   0.462   4.115   1.838 -1.5266 -0.5179  0.0777
 1012SOL    HW3 4122   0.563   4.004   1.858 -0.1013  0.4578 -1.5849
 1012SOL    MW4 4123   0.486   4.040   1.876 -0.0927 -0.1926 -0.1546
 1013SOL     OW 4124   0.466   4.297   1.779 -0.0720 -0.0669 -0.3224
 1013SOL    HW2 4125   0.382   4.341   1.794  0.5370  1.1783 -0.4840
 1013SOL    HW3 4126   0.468   4.280   1.685  0.3030  0.8620 -0.4914
 1013SOL    MW4 4127   0.455   4.301   1.769  0.0578  0.2203 -0.3660
 1014SOL     OW 4128   0.667   4.449   1.884 -0.0949  0.6130  0.1602
 1014SOL    HW2 4129   0.736   4.413   1.829 -0.3984  1.4103 -0.7574
 1014SOL    HW3 4130   0.588   4.403   1.857 -0.9284  3.5290 -2.6677
 1014SOL    MW4 4131   0.666   4.438   1.873 -0.2449  1.1029 -0.3339
 1015SOL     OW 4132   1.123   0.001   1.725 -0.0384 -0.0244 -0.8642
 1015SOL    HW2 4133   1.201   0.047   1.756  0.3831 -0.2238 -1.6109
 1015SOL    HW3 4134   1.121  -0.079   1.777 -0.1793  0.3337 -0.3069
 1015SOL    MW4 4135   1.133  -0.003   1.736 -0.0013 -0.0034 -0.8891
 1016SOL     OW 4136   0.918   0.138   1.860  0.0672  0.3149 -0.1049
 1016SOL    HW2 4137   0.983   0.093   1.807 -0.5613 -0.4842 -0.2036
 1016SOL    HW3 4138   0.835   0.096   1.838 -0.4085  0.9698  0.4087
 1016SOL    MW4 4139   0.916   0.126   1.850 -0.0785  0.2959 -0.0503
 1017SOL     OW 4140   0.890   0.384   1.717  0.5179  0.0029 -0.0859
 1017SOL    HW2 4141   0.969   0.426   1.750  0.0119 -0.0598  1.2157
 1017SOL    HW3 4142   0.879   0.306   1.772  0.1513 -0.5666 -0.9551
 1017SOL    MW4 4143   0.899   0.379   1.729  0.4029 -0.0806 -0.0288
 1018SOL     OW 4144   1.101   0.520   1.855  0.0011  0.7548 -0.1044
 1018SOL    HW2 4145   1.181   0.475   1.830 -1.0752 -1.2776  0.0325
 1018SOL    HW3 4146   1.107   0.605   1.810  1.1675 -0.2507 -1.9228
 1018SOL    MW4 4147   1.112   0.525   1.845  0.0130  0.3540 -0.3264
 1019SOL     OW 4148   1.119   0.757   1.730  0.1269  0.2557 -0.2640
 1019SOL    HW2 4149   1.194   0.813   1.753 -0.2510 -0.2653  2.4090
 1019SOL    HW3 4150   1.044   0.815   1.736  0.0777  0.2420 -0.7459
 1019SOL    MW4 4151   1.119   0.772   1.734  0.0706  0.1851  0.0252
 1020SOL     OW 4152   0.896   0.906   1.780 -0.4399 -0.0226 -0.3635
 1020SOL    HW2 4153   0.907   0.912   1.875  1.2385  2.1758 -0.6564
 1020SOL    HW3 4154   0.899   0.996   1.750  1.1070 -0.8035 -2.6965
 1020SOL    MW4 4155   0.898   0.918   1.789 -0.0144  0.1644 -0.7100
 1021SOL     OW 4156   0.930   1.189   1.734 -0.4966  0.6673 -0.0794
 1021SOL    HW2 4157   0.843   1.221   1.758 -1.7853 -2.2663 -0.5834
 1021SOL    HW3 4158   0.922   1.164   1.642  0.9021  0.4652 -0.1588
 1021SOL    MW4 4159   0.917   1.190   1.725 -0.4821  0.2537 -0.1564
 1022SOL     OW 4160   1.162   1.310   1.810  0.4900  0.5066 -0.1086
 1022SOL    HW2 4161   1.157   1.398   1.773  1.7987  0.3634 -0.6806
 1022SOL    HW3 4162   1.073   1.277   1.805 -0.5743  2.8073  2.7303
 1022SOL    MW4 4163   1.150   1.317   1.804  0.5221  0.7911  0.1904
 1023SOL     OW 4164   1.164   1.560   1.707 -0.0144 -0.4155  0.0422
 1023SOL    HW2 4165   1.079   1.603   1.721  1.2889  2.2032  0.3082
 1023SOL    HW3 4166   1.165   1.539   1.614 -1.0387 -0.6340  0.0771
 1023SOL    MW4 4167   1.153   1.563   1.697  0.0223 -0.0988  0.0820
 1024SOL     OW 4168   0.922   1.677   1.807  0.2819 -0.6107 -0.0309
 1024SOL    HW2 4169   0.908   1.767   1.775  2.6362 -0.5473 -0.9603
 1024SOL    HW3 4170   0.836   1.637   1.803 -0.6703  1.3881 -0.3262
 1024SOL    MW4 4171   0.909   1.684   1.803  0.4669 -0.3386 -0.1924
 1025SOL     OW 4172   0.898   1.956   1.760 -0.7086 -0.3542 -0.4304
 1025SOL    HW2 4173   0.814   2.002   1.766 -0.6661 -0.2008 -0.9837
 1025SOL    HW3 4174   0.901   1.924   1.670 -0.6502 -1.2766 -0.1108
 1025SOL    MW4 4175   0.887   1.958   1.749 -0.6952 -0.4557 -0.4613
 1026SOL     OW 4176   1.114   2.095   1.850 -0.1691  0.5454  0.2449
 1026SOL    HW2 4177   1.098   2.173   1.795 -0.2313  0.0760 -0.4091
 1026SOL    HW3 4178   1.043   2.036   1.828  0.1103  0.1362  0.4436
 1026SOL    MW4 4179   1.103   2.098   1.840 -0.1404  0.4294  0.1848
 1027SOL     OW 4180   1.103   2.331   1.715  0.6354  0.3203 -0.0257
 1027SOL    HW2 4181   1.182   2.376   1.745 -0.0087  0.5801  1.3241
 1027SOL    HW3 4182   1.111   2.328   1.619  1.4036  1.9650 -0.0245
 1027SOL    MW4 4183   1.114   2.337   1.706  0.6517  0.5715  0.1523
 1028SOL     OW 4184   0.862   2.426   1.833 -0.2413 -0.4550 -0.1749
 1028SOL    HW2 4185   0.938   2.387   1.790  0.8824  1.7044 -0.2030
 1028SOL    HW3 4186   0.788   2.402   1.778  0.8603  0.1550 -1.9640
 1028SOL    MW4 4187   0.862   2.418   1.820  0.0523 -0.0899 -0.4148
 1029SOL     OW 4188   0.870   2.701   1.735  0.4942  0.0855 -0.8282
 1029SOL    HW2 4189   0.878   2.611   1.767  0.5603 -0.1062 -1.3792
 1029SOL    HW3 4190   0.785   2.731   1.768 -0.1094 -0.6197 -1.7309
 1029SOL    MW4 4191   0.860   2.693   1.744  0.4233 -0.0331 -1.0201
 1030SOL     OW 4192   1.110   2.817   1.839  0.3188  0.1903  0.7432
 1030SOL    HW2 4193   1.103   2.814   1.934  0.6077 -1.3940  0.7260
 1030SOL    HW3 4194   1.025   2.785   1.808  1.1048 -1.7482  0.4951
 1030SOL    MW4 4195   1.098   2.812   1.847  0.4604 -0.2747  0.7082
 1031SOL     OW 4196   1.086   3.076   1.743 -0.1199 -0.4138 -0.4146
 1031SOL    HW2 4197   1.153   3.131   1.783 -0.9397 -0.2852  0.8196
 1031SOL    HW3 4198   1.093   2.992   1.788 -2.1789  0.2584  1.2497
 1031SOL    MW4 4199   1.096   3.072   1.754 -0.4997 -0.3083 -0.0322
 1032SOL     OW 4200   0.854   3.237   1.818  0.3973  0.0805  0.2106
 1032SOL    HW2 4201   0.869   3.237   1.912  1.9041  0.9751  0.0001
 1032SOL    HW3 4202   0.929   3.190   1.782 -0.7691 -1.2803 -0.4740
 1032SOL    MW4 4203   0.866   3.231   1.826  0.4423  0.0188  0.0925
 1033SOL     OW 4204   0.876   3.514   1.755 -0.1261 -0.5903  0.2161
 1033SOL    HW2 4205   0.876   3.424   1.786 -3.3523 -0.3226  1.2335
 1033SOL    HW3 4206   0.887   3.507   1.660  1.6453 -1.9161  0.5054
 1033SOL    MW4 4207   0.877   3.502   1.747 -0.3181 -0.7298  0.3886
 1034SOL     OW 4208   1.130   3.642   1.816 -0.1684  0.0248  0.1922
 1034SOL    HW2 4209   1.121   3.641   1.912 -0.1231 -1.1452  0.1971
 1034SOL    HW3 4210   1.043   3.617   1.784 -0.3052  0.8518 -0.0859
 1034SOL    MW4 4211   1.117   3.639   1.825 -0.1807 -0.0207  0.1560
 1035SOL     OW 4212   1.134   3.910   1.734 -0.6584 -0.3497 -0.0288
 1035SOL    HW2 4213   1.125   3.817   1.758 -0.0560 -0.7047 -1.1393
 1035SOL    HW3 4214   1.120   3.911   1.639  1.3635  0.4143 -0.3376
 1035SOL    MW4 4215   1.131   3.898   1.725 -0.3121 -0.2959 -0.2161
 1036SOL     OW 4216   0.929   4.077   1.830 -0.3505 -0.6169 -0.3373
 1036SOL    HW2 4217   0.922   4.052   1.922  0.8516  1.2835  0.2947
 1036SOL    HW3 4218   1.011   4.037   1.801 -0.0880 -0.1775 -0.2168
 1036SOL    MW4 4219   0.939   4.068   1.838 -0.1573 -0.3090 -0.2381
 1037SOL     OW 4220   0.875   4.333   1.747 -0.0814  0.0723  0.2278
 1037SOL    HW2 4221   0.960   4.373   1.767 -0.6415  1.1790  0.3985
 1037SOL    HW3 4222   0.888   4.240   1.766  1.2495  0.1420 -0.2244
 1037SOL    MW4 4223   0.888   4.326   1.752  0.0203  0.2270  0.1906
 1038SOL     OW 4224   1.110   4.423   1.852 -0.1607 -0.0175  0.0945
 1038SOL    HW2 4225   1.091   4.418   1.946 -1.7185 -0.2797 -0.2108
 1038SOL    HW3 4226   1.178   4.358   1.837 -0.8875 -0.9532  0.8160
 1038SOL    MW4 4227   1.116   4.414   1.862 -0.4621 -0.1755  0.1494
 1039SOL     OW 4228   1.595   0.009   1.728  0.8134 -0.0594  0.0992
 1039SOL    HW2 4229   1.675   0.051   1.759  0.6726 -0.3251  0.8317
 1039SOL    HW3 4230   1.600  -0.081   1.760 -0.1580  0.1450  0.8567
 1039SOL    MW4 4231   1.606   0.003   1.736  0.6666 -0.0672  0.2959
 1040SOL     OW 4232   1.348   0.106   1.827 -0.1249  0.1592 -0.1064
 1040SOL    HW2 4233   1.353   0.109   1.923  1.0874  0.9645 -0.1785
 1040SOL    HW3 4234   1.427   0.059   1.801 -0.4784 -0.1012 -0.7194
 1040SOL    MW4 4235   1.359   0.100   1.836 -0.0117  0.2311 -0.1968
 1041SOL     OW 4236   1.312   0.363   1.741  0.3354 -0.2107 -0.4954
 1041SOL    HW2 4237   1.322   0.269   1.758  1.2709 -0.4366 -2.1512
 1041SOL    HW3 4238   1.310   0.370   1.646  0.9652  1.5130 -0.3977
 1041SOL    MW4 4239   1.313   0.351   1.731  0.5419 -0.0131 -0.7011
 1042SOL     OW 4240   1.558   0.502   1.808 -0.0705  0.1069  0.1561
 1042SOL    HW2 4241   1.635   0.450   1.784 -0.2124 -0.1783  0.3168
 1042SOL    HW3 4242   1.483   0.449   1.782 -0.2189  0.1397  0.5075
 1042SOL    MW4 4243   1.558   0.489   1.801 -0.1087  0.0736  0.2235
 1043SOL     OW 4244   1.569   0.771   1.736 -0.2609  0.1462 -0.1461
 1043SOL    HW2 4245   1.642   0.789   1.795  1.0726 -0.0026 -1.7129
 1043SOL    HW3 4246   1.546   0.680   1.754 -0.8984  0.5772  1.2428
 1043SOL    MW4 4247   1.576   0.761   1.746 -0.1692  0.1834 -0.1695
 1044SOL     OW 4248   1.338   0.909   1.836  0.2901 -0.3874 -0.1281
 1044SOL    HW2 4249   1.355   0.917   1.929  1.0929  1.3943 -0.4119
 1044SOL    HW3 4250   1.412   0.859   1.802  1.8028  1.9231 -0.3399
 1044SOL    MW4 4251   1.350   0.904   1.843  0.5956  0.1525 -0.1936
 1045SOL     OW 4252   1.354   1.144   1.694 -0.4788 -0.3062  0.5806
 1045SOL    HW2 4253   1.339   1.064   1.743 -0.1438 -0.5959  0.2132
 1045SOL    HW3 4254   1.287   1.205   1.727 -0.3915 -0.5609  1.2378
 1045SOL    MW4 4255   1.343   1.142   1.705 -0.4230 -0.3779  0.6187
 1046SOL     OW 4256   1.567   1.285   1.823  0.1610  0.5791 -0.0938
 1046SOL    HW2 4257   1.560   1.377   1.801 -0.3144  0.5341 -0.1522
 1046SOL    HW3 4258   1.501   1.242   1.769 -0.3976  0.3542  0.7454
 1046SOL    MW4 4259   1.557   1.291   1.813  0.0246  0.5436  0.0093
 1047SOL     OW 4260   1.561   1.580   1.738  0.3268  0.1846 -0.7792
 1047SOL    HW2 4261   1.647   1.602   1.772  0.4828 -1.1795 -0.2715
 1047SOL    HW3 4262   1.500   1.632   1.791  0.7039 -0.3987  0.2433
 1047SOL    MW4 4263   1.564   1.589   1.749  0.3970 -0.0722 -0.5774
 1048SOL     OW 4264   1.356   1.722   1.858  0.4116  0.1783  0.3783
 1048SOL    HW2 4265   1.361   1.712   1.953 -0.1303 -0.6456  0.3301
 1048SOL    HW3 4266   1.292   1.656   1.831  0.9820  0.0269 -0.6206
 1048SOL    MW4 4267   1.348   1.712   1.867  0.4153  0.0496  0.2401
 1049SOL     OW 4268   1.333   1.959   1.712 -0.3329 -0.3860 -0.2733
 1049SOL    HW2 4269   1.340   1.875   1.757 -2.3688 -0.0850  0.6825
 1049SOL    HW3 4270   1.256   2.001   1.752  0.5173  1.8321 -0.8787
 1049SOL    MW4 4271   1.323   1.954   1.723 -0.4895 -0.0536 -0.2271
 1050SOL     OW 4272   1.562   2.044   1.844 -0.1771  0.3447  0.1308
 1050SOL    HW2 4273   1.579   2.136   1.825  0.4009 -0.0580 -1.2984
 1050SOL    HW3 4274   1.488   2.021   1.789 -1.1141  0.2671  1.3900
 1050SOL    MW4 4275   1.554   2.053   1.834 -0.2245  0.2811  0.1084
 1051SOL     OW 4276   1.576   2.311   1.768 -0.1154  0.1419  0.1346
 1051SOL    HW2 4277   1.653   2.363   1.789 -0.8770  1.8499 -1.1236
 1051SOL    HW3 4278   1.580   2.300   1.673 -0.2934 -1.6039  0.3151
 1051SOL    MW4 4279   1.587   2.316   1.758 -0.2393  0.1369 -0.0076
 1052SOL     OW 4280   1.340   2.444   1.843  0.1050  0.0531 -0.1189
 1052SOL    HW2 4281   1.341   2.532   1.805 -0.0014 -0.0203 -0.2948
 1052SOL    HW3 4282   1.415   2.400   1.804  0.9301  0.4773  0.9659
 1052SOL    MW4 4283   1.350   2.450   1.833  0.1997  0.0994  0.0012
 1053SOL     OW 4284   1.338   2.697   1.740  0.0243 -0.2134 -0.5232
 1053SOL    HW2 4285   1.262   2.751   1.764  1.1975  0.4679  1.7821
 1053SOL    HW3 4286   1.352   2.716   1.647 -0.3090  2.5889 -0.0482
 1053SOL    MW4 4287   1.330   2.706   1.731  0.1351  0.2458 -0.1563
 1054SOL     OW 4288   1.558   2.851   1.848  0.0186  0.5479 -0.1866
 1054SOL    HW2 4289   1.559   2.840   1.943  0.8763 -0.7654 -0.3443
 1054SOL    HW3 4290   1.487   2.794   1.818  0.5727 -0.0126 -0.4465
 1054SOL    MW4 4291   1.548   2.842   1.856  0.2049  0.3006 -0.2416
 1055SOL     OW 4292   1.556   3.110   1.742  0.2289 -0.0743  0.2065
 1055SOL    HW2 4293   1.565   3.025   1.784  1.2526  0.2992  0.7629
 1055SOL    HW3 4294   1.642   3.152   1.753  0.0008  0.6880 -0.8051
 1055SOL    MW4 4295   1.569   3.105   1.749  0.3337  0.0753  0.1465
 1056SOL     OW 4296   1.295   3.210   1.833 -0.4075  0.0053 -0.0035
 1056SOL    HW2 4297   1.376   3.171   1.804 -0.7385 -1.3457  0.8564
 1056SOL    HW3 4298   1.291   3.295   1.788  1.3435 -0.0248 -0.2218
 1056SOL    MW4 4299   1.305   3.216   1.823 -0.2203 -0.1771  0.0813
 1057SOL     OW 4300   1.336   3.466   1.742 -0.2299 -0.0951 -0.1856
 1057SOL    HW2 4301   1.270   3.532   1.766 -0.9568 -0.1028 -2.1075
 1057SOL    HW3 4302   1.418   3.502   1.776 -0.8158  1.2135 -0.1156
 1057SOL    MW4 4303   1.338   3.480   1.750 -0.4030  0.0765 -0.4299
 1058SOL     OW 4304   1.560   3.604   1.820 -0.0636  0.3272 -0.4059
 1058SOL    HW2 4305   1.572   3.638   1.909 -0.8630 -1.5543  0.4507
 1058SOL    HW3 4306   1.647   3.570   1.796  0.3373  1.5094 -0.6378
 1058SOL    MW4 4307   1.573   3.604   1.829 -0.1162  0.2351 -0.3235
 1059SOL     OW 4308   1.603   3.850   1.709  0.4617  0.1211 -0.4335
 1059SOL    HW2 4309   1.678   3.890   1.753  0.7867 -0.7712 -0.1696
 1059SOL    HW3 4310   1.598   3.761   1.746 -0.2803 -0.0685 -0.9785
 1059SOL    MW4 4311   1.612   3.843   1.720  0.4067 -0.0217 -0.4708
 1060SOL     OW 4312   1.402   3.997   1.824 -0.3642  0.1177  0.0265
 1060SOL    HW2 4313   1.456   3.934   1.776 -0.9483  0.5969 -1.2614
 1060SOL    HW3 4314   1.312   3.969   1.808 -0.6397  1.4077 -0.7486
 1060SOL    MW4 4315   1.397   3.985   1.816 -0.4776  0.3512 -0.2457
 1061SOL     OW 4316   1.327   4.245   1.752  0.1294 -0.2177 -0.4022
 1061SOL    HW2 4317   1.371   4.163   1.776  1.0098  0.5165  0.5239
 1061SOL    HW3 4318   1.327   4.244   1.656  0.3822 -1.1702 -0.3997
 1061SOL    MW4 4319   1.333   4.234   1.742  0.2787 -0.2465 -0.2797
 1062SOL     OW 4320   1.578   4.385   1.800 -0.0228  0.3307  0.3420
 1062SOL    HW2 4321   1.580   4.389   1.896  0.5795  2.1044  0.2699
 1062SOL    HW3 4322   1.491   4.351   1.780 -0.4278  0.6617  1.4913
 1062SOL    MW4 4323   1.567   4.381   1.810  0.0032  0.6084  0.4841
 1063SOL     OW 4324   1.999   4.641   1.774 -0.5610 -0.0294 -0.0252
 1063SOL    HW2 4325   2.076   4.678   1.816 -0.6534  1.3214 -1.0158
 1063SOL    HW3 4326   2.006   4.546   1.788  0.8026  0.1746  0.6555
 1063SOL    MW4 4327   2.010   4.633   1.781 -0.3934  0.1760 -0.0660
 1064SOL     OW 4328   1.800   0.145   1.865  0.3593 -0.1010 -0.5603
 1064SOL    HW2 4329   1.808   0.133   1.960 -0.3162 -0.1724 -0.5107
 1064SOL    HW3 4330   1.871   0.093   1.828  1.0879  0.5212 -0.0587
 1064SOL    MW4 4331   1.810   0.137   1.873  0.3664 -0.0283 -0.4877
 1065SOL     OW 4332   1.806   0.398   1.749  0.2360  0.3174 -0.0919
 1065SOL    HW2 4333   1.804   0.308   1.783 -0.0608  0.7035  0.9165
 1065SOL    HW3 4334   1.813   0.387   1.654 -1.0610 -0.7997 -0.0791
 1065SOL    MW4 4335   1.807   0.384   1.741  0.0256  0.2210  0.0429
 1066SOL     OW 4336   2.033   0.512   1.858 -0.0872 -0.1899 -0.4683
 1066SOL    HW2 4337   2.037   0.596   1.811 -0.6958 -0.5326 -1.1425
 1066SOL    HW3 4338   1.948   0.476   1.834 -0.3471 -0.4251  0.8199
 1066SOL    MW4 4339   2.023   0.518   1.848 -0.2017 -0.2661 -0.3872
 1067SOL     OW 4340   2.057   0.757   1.722  0.6182  0.0811 -0.2347
 1067SOL    HW2 4341   2.127   0.806   1.767  1.0037 -1.1275  0.5033
 1067SOL    HW3 4342   2.056   0.794   1.634 -1.1264  3.5293  1.1136
 1067SOL    MW4 4343   2.066   0.769   1.716  0.4392  0.3765  0.0407
 1068SOL     OW 4344   1.822   0.839   1.864 -0.4784  0.0852 -0.1148
 1068SOL    HW2 4345   1.810   0.931   1.839  0.3641  0.6270  1.3792
 1068SOL    HW3 4346   1.902   0.812   1.820 -1.1677 -0.1823 -1.2094
 1068SOL    MW4 4347   1.831   0.848   1.855 -0.4582  0.1214 -0.0620
 1069SOL     OW 4348   1.784   1.092   1.755  0.0604  0.1356  0.3290
 1069SOL    HW2 4349   1.717   1.153   1.786  0.2455  1.4224 -1.7497
 1069SOL    HW3 4350   1.796   1.113   1.663  2.0926 -1.2461  0.2368
 1069SOL    MW4 4351   1.777   1.103   1.747  0.3530  0.1229  0.0428
 1070SOL     OW 4352   2.000   1.275   1.796 -0.1148 -0.1074  0.1123
 1070SOL    HW2 4353   2.085   1.245   1.763  0.5451 -0.8341  2.3578
 1070SOL    HW3 4354   1.938   1.209   1.767 -0.2155  1.2127 -2.8597
 1070SOL    MW4 4355   2.003   1.263   1.788 -0.0410 -0.0291  0.0165
 1071SOL     OW 4356   2.008   1.548   1.738  0.0587 -0.1224  0.2213
 1071SOL    HW2 4357   2.004   1.455   1.760  0.5607 -0.1919  0.0202
 1071SOL    HW3 4358   2.014   1.549   1.643 -0.9614  0.1461  0.1598
 1071SOL    MW4 4359   2.008   1.536   1.729 -0.0098 -0.0962  0.1867
 1072SOL     OW 4360   1.797   1.680   1.841  0.6711 -0.3221  0.3317
 1072SOL    HW2 4361   1.795   1.764   1.796 -0.4899 -1.2729 -1.4750
 1072SOL    HW3 4362   1.877   1.638   1.811 -0.6962 -1.4483 -1.8366
 1072SOL    MW4 4363   1.807   1.686   1.831  0.3375 -0.5962 -0.1928
 1073SOL     OW 4364   1.817   1.956   1.754 -0.2079  0.0553 -0.3521
 1073SOL    HW2 4365   1.729   1.982   1.783  0.4568  2.0153  0.0064
 1073SOL    HW3 4366   1.811   1.959   1.658 -0.6477 -0.1981 -0.3351
 1073SOL    MW4 4367   1.804   1.960   1.745 -0.1782  0.2805 -0.3027
 1074SOL     OW 4368   2.044   2.094   1.843 -0.1331  0.1323 -0.4535
 1074SOL    HW2 4369   2.120   2.043   1.813  0.4796  0.4184  0.5969
 1074SOL    HW3 4370   1.969   2.038   1.825  0.1701  0.4606 -2.9335
 1074SOL    MW4 4371   2.044   2.080   1.836 -0.0124  0.2131 -0.6419
 1075SOL     OW 4372   2.056   2.358   1.720  0.3151 -0.0856 -0.1266
 1075SOL    HW2 4373   2.135   2.394   1.761  0.0199  0.6498 -0.1920
 1075SOL    HW3 4374   2.051   2.267   1.751  1.3960 -0.2511 -0.4295
 1075SOL    MW4 4375   2.066   2.351   1.729  0.4189 -0.0105 -0.1752
 1076SOL     OW 4376   1.817   2.437   1.838 -0.2486  0.7439 -0.3244
 1076SOL    HW2 4377   1.848   2.441   1.928 -0.2143 -0.2815 -0.2797
 1076SOL    HW3 4378   1.893   2.410   1.787 -0.1064  1.9360 -0.7574
 1076SOL    MW4 4379   1.831   2.434   1.843 -0.2252  0.7658 -0.3755
 1077SOL     OW 4380   1.795   2.711   1.747 -0.6473  0.1389  0.0395
 1077SOL    HW2 4381   1.797   2.619   1.773 -1.3618  0.2902  0.6664
 1077SOL    HW3 4382   1.720   2.747   1.795 -1.9959  0.4323 -2.1972
 1077SOL    MW4 4383   1.785   2.704   1.757 -0.9195  0.1974 -0.1729
 1078SOL     OW 4384   2.021   2.826   1.822 -0.1483  0.0986  0.4731
 1078SOL    HW2 4385   1.996   2.836   1.914 -0.9686  2.3189  0.0388
 1078SOL    HW3 4386   1.946   2.781   1.782 -0.4410  0.4864  0.5842
 1078SOL    MW4 4387   2.007   2.821   1.829 -0.2952  0.4425  0.4306
 1079SOL     OW 4388   2.010   3.074   1.716 -0.3619  0.4012  0.2413
 1079SOL    HW2 4389   2.081   3.128   1.751  0.4124  0.5702 -1.5060
 1079SOL    HW3 4390   2.019   2.989   1.759  0.7626  0.4968  0.1919
 1079SOL    MW4 4391   2.020   3.070   1.726 -0.1113  0.4363  0.0043
 1080SOL     OW 4392   1.797   3.227   1.805  0.1710 -0.0668  0.0216
 1080SOL    HW2 4393   1.789   3.234   1.900 -2.1606 -1.6402  0.0030
 1080SOL    HW3 4394   1.870   3.167   1.791 -0.4912 -1.0884  0.8753
 1080SOL    MW4 4395   1.805   3.220   1.816 -0.2240 -0.4089  0.1317
 1081SOL     OW 4396   1.803   3.500   1.720  0.0854 -0.1461 -0.0918
 1081SOL    HW2 4397   1.807   3.410   1.754 -0.4730 -0.6262 -1.2804
 1081SOL    HW3 4398   1.799   3.490   1.625  1.3286  1.1872 -0.3070
 1081SOL    MW4 4399   1.803   3.487   1.712  0.1756 -0.0334 -0.2770
 1082SOL     OW 4400   2.028   3.615   1.806  0.2264 -0.3476 -0.4906
 1082SOL    HW2 4401   1.953   3.570   1.768  0.2687 -1.6074  0.9144
 1082SOL    HW3 4402   2.017   3.607   1.900  0.6612  1.8994 -0.2115
 1082SOL    MW4 4403   2.017   3.608   1.813  0.2892 -0.2177 -0.2685
 1083SOL     OW 4404   2.038   3.867   1.708 -0.1037  0.5634 -0.2654
 1083SOL    HW2 4405   2.095   3.907   1.774  0.7806  0.4963 -0.9868
 1083SOL    HW3 4406   2.024   3.778   1.740 -0.0142  0.6629  0.0527
 1083SOL    MW4 4407   2.044   3.860   1.721  0.0248  0.5677 -0.3185
 1084SOL     OW 4408   1.809   3.981   1.834  0.0827  0.2070  0.1865
 1084SOL    HW2 4409   1.803   4.065   1.790 -0.2025  0.3927  0.5754
 1084SOL    HW3 4410   1.883   3.936   1.792  0.3443  0.7205  0.0972
 1084SOL    MW4 4411   1.818   3.986   1.823  0.0796  0.2992  0.2261
 1085SOL     OW 4412   1.793   4.233   1.728  0.7116  0.2961  0.0916
 1085SOL    HW2 4413   1.717   4.288   1.747  0.7719  0.6178 -0.5913
 1085SOL    HW3 4414   1.797   4.230   1.633  0.4234 -1.2661  0.1041
 1085SOL    MW4 4415   1.783   4.240   1.718  0.6815  0.1326  0.0031
 1086SOL     OW 4416   1.994   4.361   1.856 -0.2845 -0.5522  0.4227
 1086SOL    HW2 4417   2.070   4.341   1.802 -0.7956  1.7999 -1.2602
 1086SOL    HW3 4418   1.919   4.332   1.804 -0.6614 -0.4453  0.9012
 1086SOL    MW4 4419   1.994   4.354   1.842 -0.4016 -0.2284  0.2638
 1087SOL     OW 4420   2.487   4.631   1.723 -0.1131 -0.3414 -0.3791
 1087SOL    HW2 4421   2.567   4.669   1.761 -1.4765  1.3819  0.8350
 1087SOL    HW3 4422   2.480   4.545   1.765  0.0306  0.3272  1.0476
 1087SOL    MW4 4423   2.497   4.625   1.734 -0.2739 -0.0262 -0.0306
 1088SOL     OW 4424   2.267   0.082   1.847  0.0183  0.4726  0.4429
 1088SOL    HW2 4425   2.298   0.096   1.936  0.8867  1.9578 -0.0674
 1088SOL    HW3 4426   2.344   0.049   1.800  0.2407  2.0231 -0.3096
 1088SOL    MW4 4427   2.281   0.079   1.852  0.1624  0.8732  0.2764
 1089SOL     OW 4428   2.265   0.371   1.795  0.2350  0.2787  0.0298
 1089SOL    HW2 4429   2.260   0.285   1.837 -0.0248  0.4392  0.3306
 1089SOL    HW3 4430   2.188   0.418   1.828 -0.2092  0.2515 -0.9701
 1089SOL    MW4 4431   2.254   0.366   1.805  0.1421  0.2963 -0.0625
 1090SOL     OW 4432   2.502   0.505   1.859 -0.2151 -0.0778 -0.3728
 1090SOL    HW2 4433   2.489   0.521   1.952  1.3405  0.2583 -0.2000
 1090SOL    HW3 4434   2.423   0.459   1.831 -0.5079 -0.5513  1.1930
 1090SOL    MW4 4435   2.489   0.501   1.867 -0.0486 -0.0960 -0.1434
 1091SOL     OW 4436   2.483   0.777   1.797 -0.0397  0.1704 -0.4244
 1091SOL    HW2 4437   2.494   0.685   1.822 -0.4289  0.1787 -0.2157
 1091SOL    HW3 4438   2.488   0.777   1.701  2.9339  0.3330 -0.3085
 1091SOL    MW4 4439   2.485   0.765   1.788  0.3011  0.1929 -0.3815
 1092SOL     OW 4440   2.239   0.900   1.867  0.5176  0.1926 -0.0404
 1092SOL    HW2 4441   2.240   0.898   1.962 -0.3760  0.4483 -0.0264
 1092SOL    HW3 4442   2.324   0.863   1.842  1.0189  0.7192  0.8563
 1092SOL    MW4 4443   2.250   0.894   1.876  0.4656  0.2957  0.0798
 1093SOL     OW 4444   2.249   1.177   1.756 -0.3659  0.1719  0.6870
 1093SOL    HW2 4445   2.321   1.229   1.792  1.8808 -1.8621 -0.6609
 1093SOL    HW3 4446   2.240   1.104   1.817 -0.2017 -0.4181  0.0063
 1093SOL    MW4 4447   2.258   1.174   1.769 -0.0479 -0.1744  0.4193
 1094SOL     OW 4448   2.484   1.271   1.857  0.7771 -0.0485  0.4564
 1094SOL    HW2 4449   2.485   1.282   1.953  0.7748  0.5618  0.3842
 1094SOL    HW3 4450   2.472   1.359   1.823 -3.7380 -0.7238  0.0151
 1094SOL    MW4 4451   2.482   1.284   1.865  0.1814 -0.0571  0.3886
 1095SOL     OW 4452   2.486   1.516   1.751 -0.2478  0.6308 -0.1720
 1095SOL    HW2 4453   2.413   1.568   1.784 -0.2590  1.9697 -2.2451
 1095SOL    HW3 4454   2.478   1.520   1.656  0.2606 -2.4923 -0.3835
 1095SOL    MW4 4455   2.476   1.524   1.743 -0.1822  0.3955 -0.4735
 1096SOL     OW 4456   2.278   1.683   1.845  0.2850  0.3257 -0.1084
 1096SOL    HW2 4457   2.280   1.674   1.940 -0.0004 -1.8791 -0.2782
 1096SOL    HW3 4458   2.193   1.645   1.819  0.5473  0.5020 -1.2735
 1096SOL    MW4 4459   2.267   1.677   1.854  0.2818  0.0579 -0.2844
 1097SOL     OW 4460   2.262   1.977   1.739 -0.2915  0.1049 -0.3692
 1097SOL    HW2 4461   2.333   2.014   1.791 -2.4126  1.9576  1.3332
 1097SOL    HW3 4462   2.255   1.887   1.769  0.2309  0.4045  0.6995
 1097SOL    MW4 4463   2.270   1.970   1.750 -0.5021  0.3889 -0.0035
 1098SOL     OW 4464   2.470   2.105   1.867 -0.5658 -0.0176 -0.4609
 1098SOL    HW2 4465   2.547   2.063   1.829  0.1685  0.5684  0.3388
 1098SOL    HW3 4466   2.461   2.187   1.818  0.9754  1.2099  1.2291
 1098SOL    MW4 4467   2.479   2.110   1.855 -0.2658  0.2217 -0.1324
 1099SOL     OW 4468   2.483   2.331   1.718  0.1435 -0.4471 -0.7222
 1099SOL    HW2 4469   2.552   2.387   1.752  0.3609 -1.4472  0.5439
 1099SOL    HW3 4470   2.402   2.373   1.746  0.2732  0.0513 -1.1027
 1099SOL    MW4 4471   2.481   2.344   1.727  0.1893 -0.5133 -0.6053
 1100SOL     OW 4472   2.258   2.450   1.851 -0.0411  0.1323 -0.6682
 1100SOL    HW2 4473   2.256   2.454   1.947  0.6644 -0.2735 -0.6373
 1100SOL    HW3 4474   2.255   2.542   1.824  1.4677  0.3231 -0.2276
 1100SOL    MW4 4475   2.257   2.463   1.860  0.2511  0.1042 -0.6059
 1101SOL     OW 4476   2.259   2.708   1.732 -0.1642 -0.1616 -0.0875
 1101SOL    HW2 4477   2.175   2.746   1.759  0.1398  0.7634 -0.4286
 1101SOL    HW3 4478   2.255   2.707   1.636  0.4718  0.4822 -0.1226
 1101SOL    MW4 4479   2.247   2.713   1.723 -0.0403  0.0453 -0.1372
 1102SOL     OW 4480   2.512   2.854   1.808 -0.1180  0.1494 -0.2604
 1102SOL    HW2 4481   2.436   2.803   1.778  0.2026  0.0057 -0.8224
 1102SOL    HW3 4482   2.587   2.812   1.767  0.3060  0.0781  0.5764
 1102SOL    MW4 4483   2.512   2.842   1.799 -0.0198  0.1209 -0.2241
 1103SOL     OW 4484   2.463   3.109   1.721  0.1741 -0.4071 -0.0777
 1103SOL    HW2 4485   2.386   3.152   1.758 -0.3550 -1.2580 -0.1564
 1103SOL    HW3 4486   2.462   3.021   1.760  0.8981 -0.5451 -0.3626
 1103SOL    MW4 4487   2.453   3.103   1.731  0.1998 -0.5374 -0.1256
 1104SOL     OW 4488   2.241   3.223   1.813 -0.2746 -0.1822  0.0637
 1104SOL    HW2 4489   2.246   3.244   1.907 -1.0779  0.2608  0.0181
 1104SOL    HW3 4490   2.231   3.308   1.770  0.8381 -0.3262 -0.4880
 1104SOL    MW4 4491   2.240   3.237   1.820 -0.2339 -0.1426 -0.0153
 1105SOL     OW 4492   2.238   3.485   1.668  0.5648 -0.1663  0.3862
 1105SOL    HW2 4493   2.317   3.517   1.712 -0.0934  0.2263  1.3150
 1105SOL    HW3 4494   2.166   3.529   1.714 -0.2071 -0.7572 -0.2421
 1105SOL    MW4 4495   2.239   3.495   1.680  0.3757 -0.1924  0.4257
 1106SOL     OW 4496   2.457   3.591   1.780  0.0605 -0.1466 -0.3290
 1106SOL    HW2 4497   2.461   3.582   1.875 -1.7100  1.0704 -0.1079
 1106SOL    HW3 4498   2.533   3.543   1.748  0.9129 -0.2252  1.7184
 1106SOL    MW4 4499   2.467   3.584   1.788 -0.0608  0.0036 -0.0298
 1107SOL     OW 4500   2.446   3.878   1.703 -0.4717 -0.4730 -0.3084
 1107SOL    HW2 4501   2.373   3.929   1.739  1.1909  1.1032  0.9551
 1107SOL    HW3 4502   2.442   3.794   1.749 -1.3483 -0.3063 -0.0787
 1107SOL    MW4 4503   2.436   3.874   1.714 -0.3679 -0.2429 -0.1115
 1108SOL     OW 4504   2.227   4.034   1.820  0.1375  0.5480 -0.2940
 1108SOL    HW2 4505   2.223   4.124   1.787  0.9458  0.6472 -0.1431
 1108SOL    HW3 4506   2.225   4.045   1.916 -1.0596  0.3297 -0.2918
 1108SOL    MW4 4507   2.226   4.048   1.829  0.0863  0.5322 -0.2738
 1109SOL     OW 4508   2.234   4.302   1.738 -0.0892  0.0751 -0.1032
 1109SOL    HW2 4509   2.321   4.327   1.769 -0.5508  0.9350  0.5371
 1109SOL    HW3 4510   2.241   4.301   1.643  1.2891 -2.3769 -0.0239
 1109SOL    MW4 4511   2.246   4.305   1.730  0.0317 -0.1345 -0.0082
 1110SOL     OW 4512   2.501   4.379   1.847 -0.1169  0.3119 -0.1289
 1110SOL    HW2 4513   2.515   4.367   1.941  1.3207  0.7221 -0.2695
 1110SOL    HW3 4514   2.579   4.341   1.807 -1.1846 -0.7472 -1.2144
 1110SOL    MW4 4515   2.513   4.372   1.854 -0.0679  0.2260 -0.2906
 1111SOL     OW 4516   2.971   4.651   1.712 -0.1539  0.5062 -0.0180
 1111SOL    HW2 4517   3.051   4.696   1.739 -0.2532  0.7589 -0.1497
 1111SOL    HW3 4518   2.978   4.564   1.752  0.2713  0.4680 -0.1835
 1111SOL    MW4 4519   2.982   4.645   1.721 -0.1106  0.5345 -0.0572
 1112SOL     OW 4520   2.717   0.082   1.800  0.3068  0.4341 -0.1567
 1112SOL    HW2 4521   2.717   0.067   1.894  1.0158 -0.3007 -0.2658
 1112SOL    HW3 4522   2.807   0.062   1.773 -0.3893 -1.2146 -1.2832
 1112SOL    MW4 4523   2.729   0.077   1.809  0.3085  0.1196 -0.3198
 1113SOL     OW 4524   2.728   0.371   1.769  0.0894  0.1249 -0.1070
 1113SOL    HW2 4525   2.713   0.277   1.769  0.5210  0.0553  0.3322
 1113SOL    HW3 4526   2.645   0.409   1.799  0.0061 -0.1272 -0.0173
 1113SOL    MW4 4527   2.715   0.364   1.773  0.1354  0.0825 -0.0371
 1114SOL     OW 4528   2.965   0.510   1.829 -0.2325  0.0040  0.1835
 1114SOL    HW2 4529   2.946   0.602   1.811  0.3177 -0.0855 -0.8900
 1114SOL    HW3 4530   2.886   0.463   1.802  0.5755 -0.1256 -1.9849
 1114SOL    MW4 4531   2.952   0.516   1.823 -0.0532 -0.0249 -0.2443
 1115SOL     OW 4532   2.941   0.768   1.728 -0.0294 -0.0875 -0.2110
 1115SOL    HW2 4533   3.017   0.817   1.760 -0.0324 -0.7681  0.8842
 1115SOL    HW3 4534   2.866   0.811   1.770  0.0341 -1.5297  1.4317
 1115SOL    MW4 4535   2.941   0.780   1.738 -0.0215 -0.3677  0.1502
 1116SOL     OW 4536   2.730   0.924   1.834 -0.0990  0.1653  0.4215
 1116SOL    HW2 4537   2.713   1.009   1.794  0.7309 -0.1859 -0.7152
 1116SOL    HW3 4538   2.646   0.879   1.833 -0.1747  0.3106 -0.6044
 1116SOL    MW4 4539   2.717   0.929   1.829  0.0007  0.1382  0.1363
 1117SOL     OW 4540   2.720   1.181   1.756 -0.0575 -0.8859  0.4583
 1117SOL    HW2 4541   2.639   1.222   1.786  0.2553  0.9861 -1.1880
 1117SOL    HW3 4542   2.710   1.175   1.661  0.7972 -2.7401  0.4586
 1117SOL    MW4 4543   2.708   1.185   1.748  0.0968 -0.8836  0.2410
 1118SOL     OW 4544   2.939   1.274   1.899 -0.2751  0.2905  0.1847
 1118SOL    HW2 4545   2.942   1.364   1.868  1.7715 -0.0469 -0.6735
 1118SOL    HW3 4546   2.870   1.233   1.847 -0.3477  1.0380 -0.3097
 1118SOL    MW4 4547   2.930   1.280   1.888 -0.0148  0.3445  0.0063
 1119SOL     OW 4548   2.924   1.521   1.799 -0.1434 -0.1210 -0.0287
 1119SOL    HW2 4549   2.998   1.571   1.834 -0.5240 -0.8049  1.8085
 1119SOL    HW3 4550   2.926   1.538   1.705  1.6910  0.7381  0.1416
 1119SOL    MW4 4551   2.934   1.530   1.791  0.0484 -0.0979  0.2360
 1120SOL     OW 4552   2.687   1.681   1.832 -0.1131  0.0738 -0.2838
 1120SOL    HW2 4553   2.760   1.629   1.798 -0.8545 -0.8511 -0.4735
 1120SOL    HW3 4554   2.609   1.631   1.810 -0.8699  1.3814 -0.6706
 1120SOL    MW4 4555   2.686   1.668   1.825 -0.3109  0.1242 -0.3599
 1121SOL     OW 4556   2.681   1.946   1.741 -0.3559  0.0752  0.1139
 1121SOL    HW2 4557   2.766   1.972   1.777  0.1279 -0.8726 -0.3233
 1121SOL    HW3 4558   2.674   1.852   1.762 -0.9538 -0.0250 -0.5191
 1121SOL    MW4 4559   2.691   1.937   1.749 -0.3710 -0.0632 -0.0273
 1122SOL     OW 4560   2.908   2.059   1.827  0.0711 -0.1827  0.0585
 1122SOL    HW2 4561   2.900   2.063   1.922  1.2873  0.2062  0.1579
 1122SOL    HW3 4562   2.976   1.994   1.811 -0.9504 -1.0994 -0.5961
 1122SOL    MW4 4563   2.916   2.051   1.837  0.0968 -0.2522 -0.0149
 1123SOL     OW 4564   2.920   2.308   1.717 -0.4322 -0.2918  0.2838
 1123SOL    HW2 4565   3.004   2.344   1.746 -0.1747 -0.1019 -0.6705
 1123SOL    HW3 4566   2.918   2.220   1.753  0.2252 -0.3373  0.2108
 1123SOL    MW4 4567   2.931   2.301   1.726 -0.3119 -0.2725  0.1483
 1124SOL     OW 4568   2.723   2.467   1.825  0.0869  0.0258  0.1353
 1124SOL    HW2 4569   2.725   2.472   1.920  0.1645  0.9164  0.0989
 1124SOL    HW3 4570   2.794   2.407   1.802  1.3546  1.3256  0.5612
 1124SOL    MW4 4571   2.733   2.460   1.834  0.2644  0.3145  0.1866
 1125SOL     OW 4572   2.709   2.723   1.680 -0.0439  0.3411 -0.1484
 1125SOL    HW2 4573   2.725   2.639   1.724  2.6785  0.6644 -0.4366
 1125SOL    HW3 4574   2.702   2.700   1.587 -1.5409  0.1879 -0.0139
 1125SOL    MW4 4575   2.710   2.709   1.673  0.1178  0.3638 -0.1687
 1126SOL     OW 4576   2.905   2.872   1.842  0.5517  0.1181  0.0340
 1126SOL    HW2 4577   2.897   2.963   1.813 -0.4159  0.7990  2.3417
 1126SOL    HW3 4578   2.843   2.824   1.787  0.5449  0.9622 -0.7095
 1126SOL    MW4 4579   2.896   2.877   1.831  0.4232  0.3195  0.2403
 1127SOL     OW 4580   2.703   3.193   1.845  0.0511  0.1017  0.0051
 1127SOL    HW2 4581   2.635   3.140   1.804 -0.2572  0.2942  0.2671
 1127SOL    HW3 4582   2.688   3.183   1.939 -0.5906  1.3883  0.0536
 1127SOL    MW4 4583   2.692   3.185   1.852 -0.0741  0.2966  0.0461
 1128SOL     OW 4584   2.921   3.118   1.700  0.5828 -0.5194  0.0865
 1128SOL    HW2 4585   2.996   3.151   1.749  0.6703  0.2392 -0.5525
 1128SOL    HW3 4586   2.845   3.156   1.744  0.6498 -0.0675 -0.1757
 1128SOL    MW4 4587   2.921   3.127   1.712  0.6030 -0.3595 -0.0324
 1129SOL     OW 4588   2.655   3.428   1.709 -0.2331 -0.9399  0.1710
 1129SOL    HW2 4589   2.668   3.347   1.759  0.7854 -0.6209  0.4532
 1129SOL    HW3 4590   2.731   3.482   1.731 -0.9778  0.1592  0.1048
 1129SOL    MW4 4591   2.667   3.425   1.718 -0.1967 -0.7527  0.1996
 1130SOL     OW 4592   2.862   3.554   1.832  0.3352 -0.4076 -0.6580
 1130SOL    HW2 4593   2.885   3.564   1.925 -0.4830 -1.5050 -0.3236
 1130SOL    HW3 4594   2.945   3.534   1.789  0.4666 -1.5618  0.1055
 1130SOL    MW4 4595   2.876   3.552   1.839  0.2444 -0.7045 -0.5131
 1131SOL     OW 4596   2.889   3.836   1.738 -0.1615 -0.5803  0.3842
 1131SOL    HW2 4597   2.862   3.744   1.746  0.8954 -0.9513 -0.2526
 1131SOL    HW3 4598   2.877   3.856   1.645  1.8318 -0.7865  0.0646
 1131SOL    MW4 4599   2.884   3.826   1.727  0.2410 -0.6564  0.2581
 1132SOL     OW 4600   2.695   4.010   1.835  0.0862 -0.7728 -0.0930
 1132SOL    HW2 4601   2.774   3.968   1.803  0.5299  0.6905 -0.9523
 1132SOL    HW3 4602   2.623   3.960   1.796  0.5924 -1.1777 -0.5077
 1132SOL    MW4 4603   2.696   3.998   1.826  0.2115 -0.6332 -0.2611
 1133SOL     OW 4604   2.741   4.265   1.729  0.2789 -0.0742 -0.2071
 1133SOL    HW2 4605   2.720   4.175   1.754 -0.5467  0.0035 -0.6118
 1133SOL    HW3 4606   2.735   4.265   1.634  0.2536  0.4123 -0.2048
 1133SOL    MW4 4607   2.737   4.253   1.720  0.1667  0.0000 -0.2602
 1134SOL     OW 4608   2.977   4.372   1.827  0.2012  0.3488  0.1097
 1134SOL    HW2 4609   2.969   4.367   1.922  0.5364 -0.4948  0.0993
 1134SOL    HW3 4610   2.893   4.339   1.794  0.2711  0.1761  0.1054
 1134SOL    MW4 4611   2.965   4.367   1.835  0.2546  0.2141  0.1078
 1135SOL     OW 4612   3.403   4.653   1.719  0.3954  0.2027  0.3230
 1135SOL    HW2 4613   3.421   4.565   1.753 -1.2772 -0.1956  0.2295
 1135SOL    HW3 4614   3.319   4.677   1.759  0.1846  1.2038 -0.7058
 1135SOL    MW4 4615   3.394   4.644   1.729  0.1469  0.2823  0.1750
 1136SOL     OW 4616   3.177   0.121   1.783  0.4469 -0.2914 -0.2562
 1136SOL    HW2 4617   3.170   0.134   1.877 -0.7055 -0.0188 -0.3732
 1136SOL    HW3 4618   3.176   0.209   1.746 -0.8841 -0.4419 -0.6262
 1136SOL    MW4 4619   3.176   0.134   1.790  0.1194 -0.2753 -0.3204
 1137SOL     OW 4620   3.184   0.401   1.715  0.5020  0.4042  0.1307
 1137SOL    HW2 4621   3.110   0.439   1.762  0.7318  0.9439  0.0649
 1137SOL    HW3 4622   3.155   0.395   1.624  1.3121  2.7002 -0.3149
 1137SOL    MW4 4623   3.170   0.406   1.709  0.6392  0.7783  0.0633
 1138SOL     OW 4624   3.428   0.519   1.812  0.4226 -0.5968  0.0570
 1138SOL    HW2 4625   3.504   0.465   1.790 -0.4162 -1.7091 -0.1697
 1138SOL    HW3 4626   3.353   0.461   1.799 -0.4543  0.4208  0.4905
 1138SOL    MW4 4627   3.428   0.504   1.807  0.1960 -0.6093  0.0844
 1139SOL     OW 4628   3.410   0.787   1.726 -0.1800 -0.4143 -0.3674
 1139SOL    HW2 4629   3.327   0.822   1.758 -0.1210  0.8462 -1.5591
 1139SOL    HW3 4630   3.414   0.697   1.761 -1.8718 -0.3595 -0.0273
 1139SOL    MW4 4631   3.400   0.779   1.735 -0.3955 -0.2408 -0.4797
 1140SOL     OW 4632   3.179   0.904   1.831  0.0918  0.0583  0.2898
 1140SOL    HW2 4633   3.198   0.903   1.925 -1.0204  0.5372  0.5274
 1140SOL    HW3 4634   3.166   0.996   1.810  0.6632 -0.0113 -0.4137
 1140SOL    MW4 4635   3.180   0.916   1.841  0.0203  0.1123  0.2284
 1141SOL     OW 4636   3.132   1.148   1.719 -0.8404 -0.2808  0.1103
 1141SOL    HW2 4637   3.214   1.184   1.752 -0.2382 -1.9292  0.4695
 1141SOL    HW3 4638   3.065   1.182   1.778 -0.0937 -1.0696  1.4135
 1141SOL    MW4 4639   3.134   1.157   1.731 -0.6626 -0.6024  0.3296
 1142SOL     OW 4640   3.363   1.264   1.814 -0.3010  0.1768 -0.2565
 1142SOL    HW2 4641   3.365   1.261   1.910 -1.5587 -0.3563 -0.2322
 1142SOL    HW3 4642   3.376   1.356   1.792  2.5985 -0.0417  0.3207
 1142SOL    MW4 4643   3.365   1.276   1.824 -0.0844  0.0776 -0.1771
 1143SOL     OW 4644   3.386   1.545   1.769 -0.6906 -0.4046  0.0013
 1143SOL    HW2 4645   3.461   1.603   1.784  0.0485 -1.1913 -0.5989
 1143SOL    HW3 4646   3.318   1.579   1.826  0.3103 -0.0275  0.9924
 1143SOL    MW4 4647   3.387   1.557   1.778 -0.4609 -0.4587  0.0527
 1144SOL     OW 4648   3.152   1.688   1.875 -0.3914  0.3597 -0.0135
 1144SOL    HW2 4649   3.141   1.718   1.965 -1.0802  3.1099 -0.9868
 1144SOL    HW3 4650   3.134   1.765   1.821  1.7207 -0.7959 -2.4665
 1144SOL    MW4 4651   3.148   1.702   1.880 -0.2038  0.5701 -0.4656
 1145SOL     OW 4652   3.140   1.932   1.761  0.7844 -0.2194  0.9329
 1145SOL    HW2 4653   3.223   1.976   1.780  1.0100 -0.2429  0.0362
 1145SOL    HW3 4654   3.140   1.921   1.666 -1.0145  1.2718  0.7284
 1145SOL    MW4 4655   3.151   1.936   1.751  0.5770 -0.0256  0.7874
 1146SOL     OW 4656   3.369   2.067   1.875 -0.2060 -0.0400 -0.2120
 1146SOL    HW2 4657   3.448   2.019   1.851 -0.5663 -0.0737 -1.4104
 1146SOL    HW3 4658   3.372   2.147   1.822 -1.5267 -0.5789 -1.1297
 1146SOL    MW4 4659   3.380   2.071   1.865 -0.4280 -0.1156 -0.4911
 1147SOL     OW 4660   3.379   2.320   1.703  0.4192 -0.2018 -0.3052
 1147SOL    HW2 4661   3.296   2.358   1.731 -0.0930 -0.4616 -1.4212
 1147SOL    HW3 4662   3.370   2.311   1.608  1.8836  0.1572 -0.4962
 1147SOL    MW4 4663   3.367   2.324   1.694  0.5450 -0.1886 -0.4777
 1148SOL     OW 4664   3.150   2.440   1.802 -0.3122 -0.1898  0.1502
 1148SOL    HW2 4665   3.156   2.446   1.897 -1.0179  0.6323  0.1550
 1148SOL    HW3 4666   3.142   2.531   1.773 -0.1601 -0.4365 -0.6898
 1148SOL    MW4 4667   3.149   2.453   1.811 -0.3850 -0.1142  0.0399
 1149SOL     OW 4668   3.122   2.709   1.762 -0.4407  0.1716 -0.0475
 1149SOL    HW2 4669   3.053   2.753   1.811 -1.8115 -0.8778 -0.9882
 1149SOL    HW3 4670   3.106   2.732   1.671  1.5516  1.3790 -0.1037
 1149SOL    MW4 4671   3.111   2.718   1.756 -0.3586  0.1922 -0.1789
 1150SOL     OW 4672   3.353   2.817   1.839  0.1192  0.1836  0.2772
 1150SOL    HW2 4673   3.343   2.833   1.933  1.0806  0.0579  0.4049
 1150SOL    HW3 4674   3.274   2.771   1.814 -0.1277  0.1875  1.0357
 1150SOL    MW4 4675   3.341   2.813   1.848  0.2136  0.1676  0.3942
 1151SOL     OW 4676   3.352   3.070   1.709  0.3154  0.1504  0.9175
 1151SOL    HW2 4677   3.422   3.110   1.760  1.9787 -0.4575 -0.8174
 1151SOL    HW3 4678   3.336   2.985   1.750  2.0784 -0.6016  0.0759
 1151SOL    MW4 4679   3.359   3.064   1.721  0.7675 -0.0288  0.5777
 1152SOL     OW 4680   3.145   3.223   1.814  0.3649  0.7258 -0.0867
 1152SOL    HW2 4681   3.150   3.208   1.908  1.2150  1.5908  0.0133
 1152SOL    HW3 4682   3.212   3.167   1.776 -0.8785 -0.6428 -0.3141
 1152SOL    MW4 4683   3.154   3.214   1.821  0.3133  0.6592 -0.1036
 1153SOL     OW 4684   3.110   3.489   1.722 -0.6435 -0.1037 -0.0091
 1153SOL    HW2 4685   3.126   3.407   1.769  0.0342 -0.3838 -0.7293
 1153SOL    HW3 4686   3.174   3.550   1.757 -0.4633 -0.1725 -0.2226
 1153SOL    MW4 4687   3.120   3.486   1.733 -0.5302 -0.1497 -0.1323
 1154SOL     OW 4688   3.344   3.616   1.819  0.3457 -0.5182  0.3816
 1154SOL    HW2 4689   3.424   3.570   1.795  0.6614  0.5515 -0.6250
 1154SOL    HW3 4690   3.353   3.704   1.782 -0.6523  0.0867  1.5012
 1154SOL    MW4 4691   3.356   3.622   1.811  0.2553 -0.2973  0.3966
 1155SOL     OW 4692   3.367   3.883   1.676 -0.1637 -0.0892  0.2390
 1155SOL    HW2 4693   3.291   3.940   1.686 -0.5185 -0.3374 -0.9524
 1155SOL    HW3 4694   3.371   3.865   1.582  1.7035  0.3792  0.2117
 1155SOL    MW4 4695   3.358   3.888   1.665  0.0358 -0.0601  0.0782
 1156SOL     OW 4696   3.127   3.974   1.776  0.1829  0.7551 -0.2517
 1156SOL    HW2 4697   3.145   3.967   1.870  0.9998  1.1106 -0.3807
 1156SOL    HW3 4698   3.056   3.912   1.761 -0.3638  1.1402  0.7147
 1156SOL    MW4 4699   3.120   3.965   1.787  0.2184  0.8528 -0.1414
 1157SOL     OW 4700   3.189   4.238   1.701 -0.3056  0.2584 -0.2773
 1157SOL    HW2 4701   3.166   4.151   1.733  0.9235  0.4876  1.2749
 1157SOL    HW3 4702   3.117   4.294   1.730 -0.4480  0.0149 -0.1577
 1157SOL    MW4 4703   3.176   4.234   1.709 -0.1621  0.2561 -0.0569
 1158SOL     OW 4704   3.405   4.377   1.826 -0.2410 -0.3875 -0.0807
 1158SOL    HW2 4705   3.487   4.340   1.793  0.3036  0.1568  0.6409
 1158SOL    HW3 4706   3.336   4.330   1.779  0.3986 -2.9569  1.4748
 1158SOL    MW4 4707   3.407   4.366   1.816 -0.0849 -0.6552  0.2198
 1159SOL     OW 4708   3.851   4.629   1.730 -0.0610 -0.1425 -0.0217
 1159SOL    HW2 4709   3.861   4.538   1.760 -0.1071 -0.3055 -0.4936
 1159SOL    HW3 4710   3.775   4.662   1.779 -0.3855 -0.5347 -0.2588
 1159SOL    MW4 4711   3.842   4.621   1.741 -0.1097 -0.2160 -0.1154
 1160SOL     OW 4712   3.635   0.086   1.843  0.4166  0.0206 -0.1102
 1160SOL    HW2 4713   3.616   0.106   1.935 -0.9300 -1.6240 -0.0092
 1160SOL    HW3 4714   3.552   0.052   1.809  1.1955 -0.3438 -1.6647
 1160SOL    MW4 4715   3.621   0.084   1.851  0.3419 -0.2444 -0.3020
 1161SOL     OW 4716   3.634   0.346   1.753  0.1721  0.1799  0.3548
 1161SOL    HW2 4717   3.641   0.254   1.780 -0.5708 -0.2454 -0.8449
 1161SOL    HW3 4718   3.697   0.392   1.807 -0.8838 -0.7287  2.3945
 1161SOL    MW4 4719   3.643   0.340   1.763 -0.0653  0.0039  0.4655
 1162SOL     OW 4720   3.859   0.477   1.868 -0.1019 -0.0475  0.4515
 1162SOL    HW2 4721   3.866   0.567   1.836 -0.1274  0.0435  0.7045
 1162SOL    HW3 4722   3.841   0.486   1.961  2.6930 -0.3424  1.0538
 1162SOL    MW4 4723   3.857   0.490   1.876  0.2632 -0.0744  0.5645
 1163SOL     OW 4724   3.851   0.741   1.782 -0.2755  0.4261  0.1236
 1163SOL    HW2 4725   3.776   0.791   1.815 -1.3072 -1.0880  0.1223
 1163SOL    HW3 4726   3.844   0.748   1.687  0.0893  1.0168  0.1404
 1163SOL    MW4 4727   3.840   0.748   1.774 -0.3633  0.3042  0.1255
 1164SOL     OW 4728   3.639   0.921   1.845  0.1507  0.0060  0.3456
 1164SOL    HW2 4729   3.642   1.008   1.806 -0.3562 -0.5005 -0.8440
 1164SOL    HW3 4730   3.568   0.876   1.799  0.3197 -0.9950  1.0340
 1164SOL    MW4 4731   3.630   0.926   1.834  0.1059 -0.1928  0.2795
 1165SOL     OW 4732   3.625   1.175   1.725 -0.6820 -0.1249  0.4654
 1165SOL    HW2 4733   3.541   1.203   1.762 -1.2474  0.2546 -1.1021
 1165SOL    HW3 4734   3.610   1.168   1.631  1.4300  1.3348 -0.0170
 1165SOL    MW4 4735   3.612   1.177   1.718 -0.4778  0.1177  0.1949
 1166SOL     OW 4736   4.086   1.144   1.741  0.0082  0.4743 -0.2215
 1166SOL    HW2 4737   4.093   1.066   1.797  2.4058  0.4380 -0.5183
 1166SOL    HW3 4738   3.996   1.174   1.753 -0.7601 -1.9459  0.4336
 1166SOL    MW4 4739   4.075   1.137   1.750  0.2232  0.1502 -0.1742
 1167SOL     OW 4740   3.810   1.591   1.723  0.1044  0.1019  0.0176
 1167SOL    HW2 4741   3.887   1.633   1.759  0.3065  0.2825 -0.6190
 1167SOL    HW3 4742   3.821   1.498   1.744 -0.4188  0.3858  1.5566
 1167SOL    MW4 4743   3.821   1.584   1.730  0.0620  0.1632  0.1367
 1168SOL     OW 4744   3.603   1.713   1.871  0.8332 -0.5073  0.1274
 1168SOL    HW2 4745   3.607   1.796   1.824 -0.8116  0.6009  1.8797
 1168SOL    HW3 4746   3.668   1.658   1.827  1.9934  1.7017 -1.0395
 1168SOL    MW4 4747   3.612   1.717   1.859  0.7694 -0.0696  0.2048
 1169SOL     OW 4748   3.609   1.959   1.731 -0.2028  0.1737  0.2608
 1169SOL    HW2 4749   3.696   1.997   1.745  0.1578 -0.2597 -0.7591
 1169SOL    HW3 4750   3.611   1.927   1.641 -1.1733 -0.5121  0.4738
 1169SOL    MW4 4751   3.620   1.960   1.721 -0.2832  0.0260  0.1544
 1170SOL     OW 4752   3.826   2.088   1.804  0.2211  0.5010 -0.3238
 1170SOL    HW2 4753   3.910   2.045   1.786  0.7211  1.0033  0.6821
 1170SOL    HW3 4754   3.828   2.167   1.751 -0.0367  0.0318 -1.0314
 1170SOL    MW4 4755   3.838   2.093   1.795  0.2530  0.5052 -0.2844
 1171SOL     OW 4756   3.804   2.323   1.667 -0.1630 -0.3714 -0.4518
 1171SOL    HW2 4757   3.733   2.346   1.728 -0.9580 -0.4641 -1.3301
 1171SOL    HW3 4758   3.880   2.371   1.699 -1.2048  1.5980 -0.8694
 1171SOL    MW4 4759   3.804   2.332   1.679 -0.4055 -0.1237 -0.6227
 1172SOL     OW 4760   3.609   2.428   1.835 -0.0258  0.2503  0.4839
 1172SOL    HW2 4761   3.592   2.515   1.800 -0.6669 -0.0350  0.0763
 1172SOL    HW3 4762   3.537   2.374   1.801  0.3289 -0.4182  0.7878
 1172SOL    MW4 4763   3.597   2.432   1.826 -0.0634  0.1245  0.4702
 1173SOL     OW 4764   3.563   2.680   1.734  0.4762 -0.4887  0.1070
 1173SOL    HW2 4765   3.643   2.717   1.770 -0.4296  0.6872  0.9315
 1173SOL    HW3 4766   3.492   2.735   1.768 -0.6195 -0.9516 -1.3392
 1173SOL    MW4 4767   3.564   2.692   1.743  0.2122 -0.3946  0.0250
 1174SOL     OW 4768   3.803   2.784   1.832 -0.1336  0.0712  0.4133
 1174SOL    HW2 4769   3.788   2.789   1.926 -0.2846 -0.5513  0.4258
 1174SOL    HW3 4770   3.800   2.875   1.802  2.4919  0.5205  1.3952
 1174SOL    MW4 4771   3.800   2.797   1.841  0.1929  0.0484  0.5445
 1175SOL     OW 4772   3.822   3.063   1.759  0.1400  0.4487 -0.5958
 1175SOL    HW2 4773   3.747   3.117   1.784 -0.0243  0.0570 -0.2288
 1175SOL    HW3 4774   3.832   3.078   1.665 -0.1337  0.8340 -0.5621
 1175SOL    MW4 4775   3.813   3.072   1.750  0.0823  0.4480 -0.5430
 1176SOL     OW 4776   3.585   3.217   1.866  0.2585 -0.6455  0.0474
 1176SOL    HW2 4777   3.592   3.215   1.961  0.0980 -2.4309  0.0420
 1176SOL    HW3 4778   3.571   3.309   1.845  0.6137 -0.1867  1.7199
 1176SOL    MW4 4779   3.584   3.229   1.876  0.2842 -0.8206  0.2673
 1177SOL     OW 4780   3.580   3.500   1.763 -0.1320 -0.2061  0.2504
 1177SOL    HW2 4781   3.659   3.550   1.785  1.5267 -2.0997 -1.1767
 1177SOL    HW3 4782   3.587   3.484   1.669 -2.4485 -0.0367  0.0256
 1177SOL    MW4 4783   3.591   3.504   1.753 -0.2186 -0.4334  0.0323
 1178SOL     OW 4784   3.801   3.640   1.848  0.4712 -0.0119  0.2773
 1178SOL    HW2 4785   3.880   3.599   1.813  0.1821  0.4353 -0.9311
 1178SOL    HW3 4786   3.794   3.723   1.800 -0.2177  0.3776  1.0422
 1178SOL    MW4 4787   3.811   3.645   1.837  0.3424  0.0985  0.2190
 1179SOL     OW 4788   3.811   3.900   1.738  0.1734  0.0845  0.0721
 1179SOL    HW2 4789   3.724   3.916   1.773 -0.2568 -0.2515 -0.8409
 1179SOL    HW3 4790   3.799   3.898   1.643  1.0363 -0.7593 -0.0278
 1179SOL    MW4 4791   3.798   3.902   1.730  0.2308 -0.0710 -0.0616
 1180SOL     OW 4792   3.574   4.003   1.850  0.6083 -0.0521  0.0964
 1180SOL    HW2 4793   3.569   4.011   1.945  0.2228 -0.4051  0.1037
 1180SOL    HW3 4794   3.500   3.948   1.826 -0.2490  1.3563 -0.5740
 1180SOL    MW4 4795   3.564   3.997   1.859  0.4442  0.0865  0.0088
 1181SOL     OW 4796   3.623   4.236   1.715 -0.5457  0.1050 -0.7220
 1181SOL    HW2 4797   3.694   4.275   1.765 -0.1867 -0.0826 -1.0799
 1181SOL    HW3 4798   3.605   4.153   1.760 -2.3457  1.3621  0.9501
 1181SOL    MW4 4799   3.630   4.230   1.728 -0.7358  0.2460 -0.5487
 1182SOL     OW 4800   3.833   4.394   1.849 -0.3681  0.0875  0.0295
 1182SOL    HW2 4801   3.838   4.384   1.944  0.8722 -1.7589 -0.1830
 1182SOL    HW3 4802   3.903   4.337   1.816 -2.2675 -1.1325 -2.0709
 1182SOL    MW4 4803   3.843   4.385   1.857 -0.4547 -0.3171 -0.2756
 1183SOL     OW 4804   4.303   4.367   1.833  0.3547 -0.2683  0.1357
 1183SOL    HW2 4805   4.302   4.462   1.823  0.9843 -0.3541 -0.8209
 1183SOL    HW3 4806   4.305   4.353   1.928  0.0677  0.6638  0.2858
 1183SOL    MW4 4807   4.303   4.377   1.844  0.4001 -0.1564  0.0292
 1184SOL     OW 4808   4.066   0.073   1.858 -0.0277  0.6584  0.4129
 1184SOL    HW2 4809   4.035   0.080   1.949  0.6113 -0.6684  0.7536
 1184SOL    HW3 4810   3.997   0.024   1.813  0.1696  0.3237  0.4664
 1184SOL    MW4 4811   4.053   0.067   1.864  0.0830  0.4392  0.4648
 1185SOL     OW 4812   4.082   0.348   1.763 -0.1119 -0.5197 -0.4247
 1185SOL    HW2 4813   4.079   0.253   1.777  0.1258 -0.6712 -1.3655
 1185SOL    HW3 4814   4.003   0.381   1.805 -0.0434 -1.0979  0.1741
 1185SOL    MW4 4815   4.071   0.340   1.770 -0.0715 -0.6160 -0.4697
 1186SOL     OW 4816   4.260   0.528   1.857  0.6525  0.2783 -0.1417
 1186SOL    HW2 4817   4.272   0.503   1.948  0.0209  0.9258  0.1231
 1186SOL    HW3 4818   4.194   0.467   1.824  1.4036 -0.4144 -0.3636
 1186SOL    MW4 4819   4.253   0.517   1.865  0.6685  0.2723 -0.1360
 1187SOL     OW 4820   4.253   0.778   1.738 -0.0063  0.3113 -0.0299
 1187SOL    HW2 4821   4.251   0.690   1.777  2.7663  0.3480  0.2935
 1187SOL    HW3 4822   4.239   0.762   1.645 -0.0741 -0.4018  0.0928
 1187SOL    MW4 4823   4.251   0.764   1.731  0.3500  0.2220  0.0290
 1188SOL     OW 4824   4.035   1.187   2.175  0.0612 -0.0114 -0.1500
 1188SOL    HW2 4825   3.953   1.215   2.136 -0.5530 -0.9815  0.4300
 1188SOL    HW3 4826   4.021   1.195   2.269  0.7261  0.0775 -0.0554
 1188SOL    MW4 4827   4.023   1.192   2.182  0.0677 -0.1277 -0.0610
 1189SOL     OW 4828   4.054   0.911   1.892 -0.4713  0.1591 -0.2809
 1189SOL    HW2 4829   4.133   0.869   1.857  0.1233 -0.8807  2.2415
 1189SOL    HW3 4830   3.982   0.860   1.855  0.1069 -0.4160 -0.6453
 1189SOL    MW4 4831   4.055   0.899   1.882 -0.3166 -0.0541  0.0038
 1190SOL     OW 4832   4.285   1.260   2.074  0.7613  0.1030 -0.1535
 1190SOL    HW2 4833   4.351   1.225   2.134 -0.3677 -0.3954  0.8308
 1190SOL    HW3 4834   4.201   1.232   2.112  0.0432 -0.8628 -2.3634
 1190SOL    MW4 4835   4.282   1.252   2.087  0.5174 -0.0902 -0.3152
 1191SOL     OW 4836   4.294   1.319   1.818 -0.1331 -0.3122 -0.0325
 1191SOL    HW2 4837   4.294   1.302   1.912  0.0197 -0.4130 -0.0509
 1191SOL    HW3 4838   4.212   1.281   1.787  0.7430 -2.0724 -0.2632
 1191SOL    MW4 4839   4.283   1.312   1.826  0.0024 -0.5577 -0.0653
 1192SOL     OW 4840   4.025   1.697   1.846  0.2774 -0.4762 -0.0755
 1192SOL    HW2 4841   4.025   1.681   1.940  2.8627 -0.0603  0.0261
 1192SOL    HW3 4842   4.097   1.643   1.812 -0.1519 -0.0630 -1.7019
 1192SOL    MW4 4843   4.035   1.688   1.854  0.5622 -0.3669 -0.2768
 1193SOL     OW 4844   4.064   1.947   1.751  0.0686  0.1067 -0.0673
 1193SOL    HW2 4845   4.048   1.859   1.787  1.4552 -0.0051  0.3031
 1193SOL    HW3 4846   4.064   1.934   1.657 -0.1482 -0.2178 -0.0247
 1193SOL    MW4 4847   4.062   1.933   1.744  0.2227  0.0491 -0.0129
 1194SOL     OW 4848   4.280   2.073   1.841 -0.2165 -0.4002 -0.0206
 1194SOL    HW2 4849   4.272   2.082   1.937  0.0043 -2.4706  0.2035
 1194SOL    HW3 4850   4.194   2.042   1.813  0.0616 -0.8542 -0.3681
 1194SOL    MW4 4851   4.268   2.070   1.850 -0.1507 -0.7334 -0.0368
 1195SOL     OW 4852   4.260   2.326   1.726 -0.4525 -0.2146 -0.3792
 1195SOL    HW2 4853   4.254   2.251   1.786 -1.3879  1.1310  1.2545
 1195SOL    HW3 4854   4.340   2.372   1.754 -0.6040  0.1252 -0.5093
 1195SOL    MW4 4855   4.270   2.322   1.738 -0.5960  0.0079 -0.1808
 1196SOL     OW 4856   4.021   2.447   1.765 -0.3774 -0.2066  0.0828
 1196SOL    HW2 4857   4.014   2.443   1.861 -0.5584  2.7787  0.2482
 1196SOL    HW3 4858   4.101   2.400   1.745  0.2311  0.0529  1.8172
 1196SOL    MW4 4859   4.030   2.440   1.775 -0.3209  0.2213  0.3334
 1197SOL     OW 4860   4.036   2.720   1.711 -0.2627 -0.0287  0.6170
 1197SOL    HW2 4861   4.045   2.625   1.718 -0.8292 -0.1788 -0.6714
 1197SOL    HW3 4862   3.961   2.741   1.766 -0.3238 -0.3565  0.6601
 1197SOL    MW4 4863   4.027   2.711   1.719 -0.3462 -0.0916  0.4528
 1198SOL     OW 4864   4.247   2.842   1.827  0.2192  0.4576  0.1934
 1198SOL    HW2 4865   4.254   2.809   1.916  2.1159  1.5732  0.4873
 1198SOL    HW3 4866   4.177   2.790   1.787  0.5030 -1.1889  1.8094
 1198SOL    MW4 4867   4.238   2.831   1.833  0.5064  0.3877  0.4452
 1199SOL     OW 4868   4.225   3.089   1.698 -0.1809 -0.2172  0.1245
 1199SOL    HW2 4869   4.161   3.148   1.739  0.5272  0.0724  0.8347
 1199SOL    HW3 4870   4.220   3.009   1.750 -0.6321 -0.5251 -0.3966
 1199SOL    MW4 4871   4.216   3.086   1.711 -0.1469 -0.2196  0.1494
 1200SOL     OW 4872   4.021   3.231   1.839 -0.4493 -0.3343  0.5338
 1200SOL    HW2 4873   4.040   3.218   1.932 -3.4691 -0.0940  1.2314
 1200SOL    HW3 4874   3.957   3.163   1.817  1.1672 -1.1931 -1.7290
 1200SOL    MW4 4875   4.015   3.220   1.849 -0.6347 -0.4158  0.3273
 1201SOL     OW 4876   4.011   3.485   1.738  0.2288  0.3819 -0.2073
 1201SOL    HW2 4877   4.089   3.515   1.785 -0.5044  0.3863  1.0417
 1201SOL    HW3 4878   4.002   3.393   1.762  0.7901 -0.0607 -1.6742
 1201SOL    MW4 4879   4.020   3.477   1.748  0.2060  0.3240 -0.2360
 1202SOL     OW 4880   4.239   3.626   1.838 -0.4398 -0.0115  0.0177
 1202SOL    HW2 4881   4.256   3.719   1.820  0.5297 -0.2831 -0.5348
 1202SOL    HW3 4882   4.318   3.582   1.808 -1.6212 -1.2051 -1.4185
 1202SOL    MW4 4883   4.252   3.633   1.831 -0.4678 -0.2053 -0.2446
 1203SOL     OW 4884   4.253   3.878   1.739  0.2199 -0.2618 -0.0556
 1203SOL    HW2 4885   4.334   3.921   1.766  0.9603 -1.6499  0.0210
 1203SOL    HW3 4886   4.265   3.862   1.645  0.0470 -0.4800 -0.0413
 1203SOL    MW4 4887   4.265   3.881   1.730  0.2952 -0.4735 -0.0436
 1204SOL     OW 4888   4.040   3.961   1.879  0.5156  0.2665  0.0776
 1204SOL    HW2 4889   4.116   3.921   1.837  1.1229  2.7248 -1.3051
 1204SOL    HW3 4890   3.965   3.936   1.825  0.8297  0.6056 -0.5182
 1204SOL    MW4 4891   4.040   3.953   1.867  0.6371  0.6354 -0.1836
 1205SOL     OW 4892   4.031   4.218   1.761  0.0765 -0.8124 -0.3026
 1205SOL    HW2 4893   4.125   4.238   1.764  0.4360 -2.2865 -0.9744
 1205SOL    HW3 4894   4.025   4.127   1.793 -1.2934 -0.2342  1.1496
 1205SOL    MW4 4895   4.043   4.208   1.766 -0.0563 -0.9308 -0.1997
 1206SOL     OW 4896   4.299   4.362   2.125  0.2344  0.4156 -0.0964
 1206SOL    HW2 4897   4.384   4.325   2.150  1.0587  1.9821 -0.5038
 1206SOL    HW3 4898   4.301   4.452   2.158 -1.5955  0.2353  0.5793
 1206SOL    MW4 4899   4.311   4.369   2.133  0.1016  0.5989 -0.0610
 1207SOL     OW 4900   0.239   0.006   2.253  0.0330 -0.1880  0.1706
 1207SOL    HW2 4901   0.248   0.003   2.348  1.2097  2.4956  0.1959
 1207SOL    HW3 4902   0.322   0.041   2.221 -0.6701 -0.1782 -1.7681
 1207SOL    MW4 4903   0.251   0.010   2.261  0.0955  0.1674 -0.0818
 1208SOL     OW 4904   0.013   0.115   2.137 -0.4485 -0.0129  0.1901
 1208SOL    HW2 4905   0.013   0.133   2.043 -1.5585 -0.0233  0.1893
 1208SOL    HW3 4906   0.105   0.097   2.158  0.1179  1.8603 -0.5426
 1208SOL    MW4 4907   0.025   0.115   2.127 -0.5198  0.2329  0.0932
 1209SOL     OW 4908   0.015   0.369   2.227  0.1270 -0.4520  0.0462
 1209SOL    HW2 4909   0.073   0.416   2.166  0.8764 -0.5955  0.6445
 1209SOL    HW3 4910   0.019   0.278   2.198 -1.5065 -0.1342 -1.2576
 1209SOL    MW4 4911   0.023   0.363   2.215  0.0100 -0.4290 -0.0470
 1210SOL     OW 4912   0.239   0.480   1.810 -0.4676 -0.0990 -0.0191
 1210SOL    HW2 4913   0.320   0.452   1.769 -1.1542 -0.8494 -0.8897
 1210SOL    HW3 4914   0.222   0.567   1.773 -1.0047 -0.7059 -1.2451
 1210SOL    MW4 4915   0.247   0.487   1.800 -0.6291 -0.2781 -0.2958
 1211SOL     OW 4916   0.202   0.480   2.079  0.1255  0.4251  0.0617
 1211SOL    HW2 4917   0.288   0.465   2.118  0.4285 -1.7232 -1.3662
 1211SOL    HW3 4918   0.217   0.472   1.984 -1.6111  0.2775 -0.2141
 1211SOL    MW4 4919   0.215   0.477   2.071 -0.0636  0.1221 -0.1633
 1212SOL     OW 4920   0.238   0.730   2.186  0.3929 -0.1461 -0.3070
 1212SOL    HW2 4921   0.248   0.730   2.281 -1.6229 -0.7736 -0.0573
 1212SOL    HW3 4922   0.202   0.643   2.166  0.3521  0.1566 -1.5870
 1212SOL    MW4 4923   0.234   0.718   2.195  0.1215 -0.1889 -0.4430
 1213SOL     OW 4924   0.001   0.865   2.112 -0.4337 -0.9215  0.1882
 1213SOL    HW2 4925   0.089   0.832   2.134  0.5556  1.3967 -0.1340
 1213SOL    HW3 4926  -0.007   0.850   2.018  0.3802  0.5488 -0.1272
 1213SOL    MW4 4927   0.012   0.859   2.103 -0.1960 -0.4218  0.1040
 1214SOL     OW 4928   0.228   1.281   2.091  0.4602  0.0727  0.0836
 1214SOL    HW2 4929   0.165   1.217   2.122  2.3493 -2.1233 -0.5087
 1214SOL    HW3 4930   0.214   1.286   1.997  1.7866 -1.1504 -0.1947
 1214SOL    MW4 4931   0.218   1.273   2.083  0.8845 -0.3784 -0.0312
 1215SOL     OW 4932   0.256   1.550   2.179 -0.2983  0.1388 -0.2394
 1215SOL    HW2 4933   0.246   1.533   2.273  0.3993  0.3349 -0.1291
 1215SOL    HW3 4934   0.243   1.464   2.138 -0.6012  0.0530  0.0354
 1215SOL    MW4 4935   0.252   1.536   2.186 -0.2462  0.1533 -0.1886
 1216SOL     OW 4936   0.003   1.664   2.112  0.3181 -0.0562  0.2435
 1216SOL    HW2 4937   0.001   1.758   2.130 -0.9709 -0.2590  1.1480
 1216SOL    HW3 4938   0.096   1.641   2.120  0.3448  0.6681  2.4421
 1216SOL    MW4 4939   0.015   1.674   2.115  0.1516  0.0126  0.6530
 1217SOL     OW 4940   4.479   1.924   2.222  0.2003  0.1788  0.4445
 1217SOL    HW2 4941   4.402   1.974   2.194  0.3111 -0.4183 -0.9553
 1217SOL    HW3 4942   4.553   1.977   2.193  0.3168 -0.7425 -0.9891
 1217SOL    MW4 4943   4.478   1.938   2.214  0.2303 -0.0216  0.0706
 1218SOL     OW 4944   0.206   2.025   2.096  0.2796 -0.5824  0.0640
 1218SOL    HW2 4945   0.287   1.986   2.130  0.8958  0.8160  0.2209
 1218SOL    HW3 4946   0.220   2.030   2.002  0.5275  0.0128  0.1336
 1218SOL    MW4 4947   0.219   2.020   2.088  0.3936 -0.3197  0.0939
 1219SOL     OW 4948   0.168   2.310   2.188  0.5576 -0.0335  0.3026
 1219SOL    HW2 4949   0.183   2.291   2.281  2.0855 -1.2712 -0.1606
 1219SOL    HW3 4950   0.180   2.226   2.145  2.1471  0.9463 -1.2561
 1219SOL    MW4 4951   0.172   2.296   2.195  0.9689 -0.0675  0.0358
 1220SOL     OW 4952   4.464   2.464   2.093  0.1967 -0.1778 -0.2632
 1220SOL    HW2 4953   4.459   2.541   2.149 -2.8296 -0.9157  0.5850
 1220SOL    HW3 4954   4.536   2.412   2.130  0.1395  0.7095  1.1358
 1220SOL    MW4 4955   4.473   2.467   2.106 -0.2108 -0.1581  0.0331
 1221SOL     OW 4956   4.479   2.715   2.190  0.0433  0.3489 -0.4202
 1221SOL    HW2 4957   4.506   2.727   2.281 -0.1836  0.3704 -0.3543
 1221SOL    HW3 4958   4.550   2.752   2.138 -0.3036  1.2710 -0.2310
 1221SOL    MW4 4959   4.492   2.721   2.195 -0.0324  0.4735 -0.3867
 1222SOL     OW 4960   0.209   2.843   2.100 -0.2780 -0.0565 -0.0876
 1222SOL    HW2 4961   0.216   2.932   2.136 -1.0256 -0.0308  0.0048
 1222SOL    HW3 4962   0.291   2.801   2.125 -0.5354  0.1431  1.1558
 1222SOL    MW4 4963   0.221   2.849   2.108 -0.4106 -0.0265  0.0885
 1223SOL     OW 4964   0.235   3.086   2.215 -0.2301 -0.8617 -0.2266
 1223SOL    HW2 4965   0.146   3.115   2.194  0.1380  0.0581 -0.5238
 1223SOL    HW3 4966   0.237   3.083   2.311 -0.8845 -1.8532 -0.2353
 1223SOL    MW4 4967   0.224   3.089   2.225 -0.2679 -0.8712 -0.2670
 1224SOL     OW 4968   0.012   3.186   2.094 -0.4060  0.4346  1.0604
 1224SOL    HW2 4969  -0.021   3.265   2.136  0.7248  1.4017  0.1483
 1224SOL    HW3 4970  -0.006   3.198   2.001  0.6425  0.0468  0.8005
 1224SOL    MW4 4971   0.005   3.198   2.088 -0.1184  0.5112  0.9058
 1225SOL     OW 4972   4.438   3.445   2.193  0.2173  0.0390  0.1771
 1225SOL    HW2 4973   4.428   3.445   2.288 -0.3801  0.3369  0.1154
 1225SOL    HW3 4974   4.377   3.512   2.162  0.5871  0.1134 -0.3990
 1225SOL    MW4 4975   4.428   3.454   2.201  0.1874  0.0882  0.0930
 1226SOL     OW 4976   0.183   3.572   2.110  0.6250  0.3366 -0.4928
 1226SOL    HW2 4977   0.260   3.531   2.148  0.7292  0.5288 -0.4946
 1226SOL    HW3 4978   0.112   3.510   2.126  0.9071 -0.1392 -1.0826
 1226SOL    MW4 4979   0.184   3.559   2.117  0.6760  0.2992 -0.5708
 1227SOL     OW 4980   0.214   3.847   2.213  0.3341  0.1768  0.3676
 1227SOL    HW2 4981   0.134   3.897   2.196  0.6305  0.7027  0.5225
 1227SOL    HW3 4982   0.197   3.761   2.175 -0.0975  0.4572 -0.0751
 1227SOL    MW4 4983   0.201   3.842   2.206  0.3162  0.2832  0.3297
 1228SOL     OW 4984   4.483   4.007   2.137 -0.0777  0.2859 -0.0122
 1228SOL    HW2 4985   4.477   4.100   2.161 -0.1113 -0.1884  1.8748
 1228SOL    HW3 4986   4.487   4.008   2.042  0.2716  2.2550 -0.0121
 1228SOL    MW4 4987   4.483   4.020   2.128 -0.0358  0.4821  0.2365
 1229SOL     OW 4988   0.019   4.257   2.259 -0.0584 -0.1443 -0.0979
 1229SOL    HW2 4989   0.017   4.252   2.355  0.3810  0.5558 -0.0541
 1229SOL    HW3 4990   0.099   4.305   2.239 -0.4539  0.2216 -0.7991
 1229SOL    MW4 4991   0.029   4.262   2.269 -0.0526 -0.0038 -0.1845
 1230SOL     OW 4992   0.237   4.424   2.127 -0.0893 -0.1761  0.6127
 1230SOL    HW2 4993   0.295   4.364   2.175  0.2200  0.4552  1.0302
 1230SOL    HW3 4994   0.226   4.499   2.185  0.0518  0.4638 -0.1805
 1230SOL    MW4 4995   0.243   4.426   2.141 -0.0299 -0.0086  0.5631
 1231SOL     OW 4996   0.684   4.641   2.235 -0.6997 -0.0036  0.2946
 1231SOL    HW2 4997   0.681   4.647   2.330 -0.7264  0.9826  0.2342
 1231SOL    HW3 4998   0.764   4.686   2.210 -0.1984 -1.0892 -0.0885
 1231SOL    MW4 4999   0.694   4.648   2.244 -0.6371 -0.0167  0.2363
 1232SOL     OW 5000   0.495   0.152   2.148  0.6009  0.2139  0.5489
 1232SOL    HW2 5001   0.560   0.089   2.179  1.3172  0.9601  0.5893
 1232SOL    HW3 5002   0.504   0.150   2.053  0.3349 -0.0390  0.5269
 1232SOL    MW4 5003   0.505   0.143   2.139  0.6602  0.2790  0.5515
 1233SOL     OW 5004   0.423   0.423   2.225  0.1217  0.0043  0.2141
 1233SOL    HW2 5005   0.404   0.409   2.317  0.3748 -0.5520  0.1812
 1233SOL    HW3 5006   0.456   0.339   2.194 -0.3975  0.0594 -0.4937
 1233SOL    MW4 5007   0.425   0.410   2.233  0.0866 -0.0618  0.1168
 1234SOL     OW 5008   0.676   0.508   2.108 -0.6731 -0.2204  0.0721
 1234SOL    HW2 5009   0.687   0.602   2.124 -0.0972 -0.4959  1.4439
 1234SOL    HW3 5010   0.589   0.488   2.143 -1.6980  0.1843 -2.1669
 1234SOL    MW4 5011   0.666   0.518   2.115 -0.7324 -0.2034 -0.0424
 1235SOL     OW 5012   0.703   0.787   2.192 -0.1990  0.2073 -0.4847
 1235SOL    HW2 5013   0.701   0.780   2.288  1.1599  3.4465 -0.1666
 1235SOL    HW3 5014   0.617   0.819   2.168  0.2966  1.8683 -0.0866
 1235SOL    MW4 5015   0.692   0.790   2.202  0.0458  0.8538 -0.3901
 1236SOL     OW 5016   0.464   0.855   2.055  0.2388  0.2573 -0.1026
 1236SOL    HW2 5017   0.380   0.825   2.088 -0.5799  0.5278 -1.8946
 1236SOL    HW3 5018   0.455   0.853   1.959  3.1098 -2.1473 -0.3966
 1236SOL    MW4 5019   0.452   0.851   2.046  0.5096 -0.0243 -0.3779
 1237SOL     OW 5020   0.454   1.148   2.190  0.5456  0.1604 -0.0508
 1237SOL    HW2 5021   0.444   1.072   2.132 -0.2871 -0.5909  1.0663
 1237SOL    HW3 5022   0.392   1.212   2.156  0.8950  0.1693 -0.6907
 1237SOL    MW4 5023   0.445   1.147   2.178  0.4818  0.0623  0.0124
 1238SOL     OW 5024   0.688   1.270   2.080  0.0371  0.2317  1.0078
 1238SOL    HW2 5025   0.678   1.357   2.119  0.6173  0.1750  1.2836
 1238SOL    HW3 5026   0.628   1.214   2.129 -0.1705  0.4261  0.9786
 1238SOL    MW4 5027   0.679   1.274   2.092  0.0862  0.2500  1.0405
 1239SOL     OW 5028   0.679   1.524   2.202 -0.2374 -0.1991  0.1778
 1239SOL    HW2 5029   0.680   1.495   2.293 -0.3333  0.5096  0.4095
 1239SOL    HW3 5030   0.767   1.556   2.186 -0.1872 -0.4329 -0.0171
 1239SOL    MW4 5031   0.690   1.524   2.212 -0.2434 -0.1364  0.1829
 1240SOL     OW 5032   0.482   1.679   2.082 -0.4298 -0.4075 -0.9450
 1240SOL    HW2 5033   0.556   1.630   2.119  0.9794  0.0051 -3.1187
 1240SOL    HW3 5034   0.405   1.633   2.114  0.6976 -0.1225  2.4005
 1240SOL    MW4 5035   0.482   1.667   2.091 -0.0951 -0.3155 -0.7904
 1241SOL     OW 5036   0.443   1.937   2.198  0.3884 -0.0827  0.1496
 1241SOL    HW2 5037   0.510   1.994   2.159  0.0906 -0.0089 -0.2533
 1241SOL    HW3 5038   0.455   1.853   2.155  0.2246 -0.0718  0.0836
 1241SOL    MW4 5039   0.454   1.934   2.187  0.3275 -0.0715  0.0877
 1242SOL     OW 5040   0.686   2.057   2.085  0.1059  0.2312 -0.1588
 1242SOL    HW2 5041   0.755   2.004   2.125 -0.0486  0.0402 -0.1453
 1242SOL    HW3 5042   0.698   2.144   2.123 -0.2392 -0.0277  0.5464
 1242SOL    MW4 5043   0.697   2.061   2.095  0.0399  0.1719 -0.0639
 1243SOL     OW 5044   0.670   2.326   2.171  0.2849 -0.0298 -0.5204
 1243SOL    HW2 5045   0.665   2.309   2.265 -0.3337 -0.8551 -0.6903
 1243SOL    HW3 5046   0.746   2.383   2.161  0.2936  0.1523  0.4896
 1243SOL    MW4 5047   0.680   2.331   2.182  0.2044 -0.1147 -0.4096
 1244SOL     OW 5048   0.405   2.411   2.108  0.1855  0.2450 -0.0889
 1244SOL    HW2 5049   0.489   2.373   2.134  0.2617 -1.2285 -2.3230
 1244SOL    HW3 5050   0.339   2.356   2.150  0.3239 -0.7966 -1.2090
 1244SOL    MW4 5051   0.408   2.399   2.117  0.2138 -0.0870 -0.5314
 1245SOL     OW 5052   0.436   2.665   2.193 -0.4788  0.1075 -0.1384
 1245SOL    HW2 5053   0.423   2.664   2.288  1.4776 -0.9428  0.1476
 1245SOL    HW3 5054   0.413   2.577   2.164 -0.7575  0.3289 -0.6046
 1245SOL    MW4 5055   0.431   2.653   2.202 -0.2574 -0.0019 -0.1621
 1246SOL     OW 5056   0.636   2.828   2.111  0.2532 -0.2811  0.3034
 1246SOL    HW2 5057   0.718   2.799   2.151  0.6009 -0.4602 -0.5435
 1246SOL    HW3 5058   0.568   2.784   2.162  0.6602  0.1464  1.2407
 1246SOL    MW4 5059   0.638   2.819   2.123  0.3527 -0.2484  0.3154
 1247SOL     OW 5060   0.680   3.078   2.227 -0.0211  0.1838 -0.3144
 1247SOL    HW2 5061   0.601   3.123   2.197 -0.4157  0.4765  1.1683
 1247SOL    HW3 5062   0.671   2.990   2.190 -1.5809 -0.1199  0.7262
 1247SOL    MW4 5063   0.668   3.072   2.218 -0.2789  0.1822  0.0184
 1248SOL     OW 5064   0.461   3.224   2.135  0.3230  0.8734  0.2716
 1248SOL    HW2 5065   0.381   3.182   2.167  0.4980  0.7061  0.4837
 1248SOL    HW3 5066   0.444   3.238   2.042  1.0041 -1.3871 -0.2136
 1248SOL    MW4 5067   0.448   3.221   2.127  0.4359  0.5534  0.2353
 1249SOL     OW 5068   0.417   3.484   2.231  0.0208  0.2599  0.3437
 1249SOL    HW2 5069   0.485   3.542   2.196 -1.9857  0.4490 -3.4626
 1249SOL    HW3 5070   0.436   3.398   2.193 -1.5068  0.1759 -0.2557
 1249SOL    MW4 5071   0.428   3.480   2.222 -0.4455  0.2735 -0.2375
 1250SOL     OW 5072   0.630   3.638   2.141 -0.3107  0.1734  0.2062
 1250SOL    HW2 5073   0.650   3.724   2.177  1.1073 -0.0023 -0.1049
 1250SOL    HW3 5074   0.637   3.649   2.046 -0.7783 -0.1295  0.1346
 1250SOL    MW4 5075   0.634   3.651   2.133 -0.1853  0.1104  0.1557
 1251SOL     OW 5076   0.685   3.880   2.245  0.0483 -0.6428 -0.2724
 1251SOL    HW2 5077   0.684   3.865   2.340 -0.5846 -1.1226 -0.3541
 1251SOL    HW3 5078   0.603   3.925   2.227  1.0484  1.1954 -0.3160
 1251SOL    MW4 5079   0.674   3.884   2.255  0.0967 -0.4640 -0.2890
 1252SOL     OW 5080   0.435   4.005   2.153 -0.1092 -0.0073 -0.0848
 1252SOL    HW2 5081   0.356   3.951   2.163 -0.4621  0.5218 -0.0023
 1252SOL    HW3 5082   0.444   4.015   2.058 -0.6202  0.6307 -0.0685
 1252SOL    MW4 5083   0.426   3.999   2.142 -0.2232  0.1464 -0.0718
 1253SOL     OW 5084   0.431   4.266   2.249 -0.6279 -0.2517 -0.1886
 1253SOL    HW2 5085   0.515   4.310   2.238 -1.6432  1.9497  0.4401
 1253SOL    HW3 5086   0.441   4.181   2.206  1.7324  0.1955 -0.5439
 1253SOL    MW4 5087   0.443   4.261   2.242 -0.4505  0.0973 -0.1526
 1254SOL     OW 5088   0.658   4.379   2.160  0.2146 -0.0448 -0.3667
 1254SOL    HW2 5089   0.668   4.467   2.196  2.8863 -0.5873  0.3347
 1254SOL    HW3 5090   0.663   4.392   2.065  0.9242  0.5286 -0.2564
 1254SOL    MW4 5091   0.660   4.393   2.152  0.6607 -0.0410 -0.2596
 1255SOL     OW 5092   1.163   4.635   2.234 -0.0167 -0.7203  0.2328
 1255SOL    HW2 5093   1.167   4.652   2.328  0.1897 -0.0050  0.0914
 1255SOL    HW3 5094   1.087   4.685   2.203 -0.8887 -1.9952  0.2380
 1255SOL    MW4 5095   1.154   4.644   2.242 -0.1044 -0.7944  0.2148
 1256SOL     OW 5096   0.922   0.098   2.149  0.4657 -0.6385  0.1548
 1256SOL    HW2 5097   0.904   0.189   2.172  0.7840 -0.3185 -0.8471
 1256SOL    HW3 5098   0.938   0.099   2.055  2.6185 -1.4092  0.4907
 1256SOL    MW4 5099   0.921   0.110   2.140  0.7917 -0.6980  0.0670
 1257SOL     OW 5100   0.875   0.351   2.251  0.0268 -0.1688 -0.1803
 1257SOL    HW2 5101   0.789   0.387   2.230 -0.2108 -0.6963 -0.1080
 1257SOL    HW3 5102   0.937   0.408   2.206 -0.2024  2.0152  2.1371
 1257SOL    MW4 5103   0.872   0.363   2.243 -0.0348  0.0498  0.1349
 1258SOL     OW 5104   1.071   0.501   2.126 -0.0766  0.3732 -0.0643
 1258SOL    HW2 5105   1.155   0.456   2.137 -0.6104 -0.3751  0.8805
 1258SOL    HW3 5106   1.060   0.506   2.031 -0.2785 -1.9650 -0.1817
 1258SOL    MW4 5107   1.081   0.496   2.115 -0.1736 -0.0341  0.0448
 1259SOL     OW 5108   1.095   0.771   2.196  0.3006 -0.1252 -0.2613
 1259SOL    HW2 5109   1.046   0.803   2.121  0.0856 -0.2373 -0.1675
 1259SOL    HW3 5110   1.104   0.677   2.180 -0.6695 -0.3317  0.3810
 1259SOL    MW4 5111   1.090   0.763   2.184  0.1442 -0.1673 -0.1643
 1260SOL     OW 5112   0.915   0.908   2.044 -0.0275 -0.4563 -0.0262
 1260SOL    HW2 5113   0.923   0.995   2.082 -1.9904 -0.6803  0.9775
 1260SOL    HW3 5114   0.836   0.872   2.084  0.0905 -2.2324 -1.3424
 1260SOL    MW4 5115   0.905   0.915   2.054 -0.2710 -0.7202 -0.0675
 1261SOL     OW 5116   0.927   1.149   2.173 -0.3471  0.0442 -0.1831
 1261SOL    HW2 5117   0.993   1.215   2.158 -0.8390  0.4654 -0.5045
 1261SOL    HW3 5118   0.845   1.190   2.146 -0.7520 -0.4395  0.2912
 1261SOL    MW4 5119   0.925   1.163   2.167 -0.4655  0.0360 -0.1626
 1262SOL     OW 5120   1.142   1.315   2.089 -0.2613  0.4496  0.4353
 1262SOL    HW2 5121   1.211   1.260   2.126  0.1656  0.5345 -0.2290
 1262SOL    HW3 5122   1.154   1.307   1.994 -1.5081  0.0280  0.3097
 1262SOL    MW4 5123   1.153   1.306   2.081 -0.3695  0.4051  0.3312
 1263SOL     OW 5124   1.144   1.559   2.210  0.2818 -0.1074  0.0140
 1263SOL    HW2 5125   1.073   1.602   2.162  0.6057 -0.7176 -1.0267
 1263SOL    HW3 5126   1.155   1.475   2.166  0.1501 -0.9660  1.5672
 1263SOL    MW4 5127   1.136   1.554   2.198  0.3072 -0.3011  0.0818
 1264SOL     OW 5128   0.916   1.655   2.098  0.0284 -0.0742 -0.9996
 1264SOL    HW2 5129   0.897   1.741   2.134 -2.0274 -0.1641 -1.7870
 1264SOL    HW3 5130   0.926   1.670   2.004  1.3293 -0.4487 -0.9296
 1264SOL    MW4 5131   0.915   1.668   2.090 -0.0712 -0.1353 -1.0941
 1265SOL     OW 5132   0.900   1.916   2.211 -0.0657 -0.1015  0.0247
 1265SOL    HW2 5133   0.912   1.926   2.305  0.9451 -0.4789 -0.0479
 1265SOL    HW3 5134   0.974   1.962   2.172  0.3433 -1.1838 -0.5269
 1265SOL    MW4 5135   0.911   1.923   2.218  0.1215 -0.2941 -0.0575
 1266SOL     OW 5136   1.127   2.045   2.130  0.0621  0.2642 -0.3861
 1266SOL    HW2 5137   1.216   2.014   2.147  0.2047  0.5310 -0.6413
 1266SOL    HW3 5138   1.129   2.072   2.039 -0.2408  0.4125 -0.3473
 1266SOL    MW4 5139   1.139   2.045   2.120  0.0409  0.3190 -0.4148
 1267SOL     OW 5140   1.137   2.314   2.228 -0.0813 -0.2584 -0.0798
 1267SOL    HW2 5141   1.214   2.352   2.187  0.3934 -0.3375  0.7342
 1267SOL    HW3 5142   1.134   2.224   2.195  0.8760 -0.6321  0.8562
 1267SOL    MW4 5143   1.147   2.307   2.218  0.1076 -0.3183  0.1512
 1268SOL     OW 5144   0.907   2.461   2.103 -0.3601 -0.5972  0.5678
 1268SOL    HW2 5145   0.992   2.420   2.119 -0.4362 -0.5842  1.0122
 1268SOL    HW3 5146   0.892   2.450   2.009  0.3689 -0.1482  0.3914
 1268SOL    MW4 5147   0.916   2.454   2.093 -0.2740 -0.5364  0.6032
 1269SOL     OW 5148   0.869   2.714   2.209 -0.1624  0.5931 -0.2306
 1269SOL    HW2 5149   0.857   2.699   2.303  0.0792 -0.8760 -0.4170
 1269SOL    HW3 5150   0.883   2.627   2.173 -0.1699  1.1592 -1.6265
 1269SOL    MW4 5151   0.869   2.700   2.217 -0.1316  0.4740 -0.4394
 1270SOL     OW 5152   1.116   2.842   2.137  0.0496 -0.1354  0.5984
 1270SOL    HW2 5153   1.190   2.786   2.162 -1.0787 -1.2466  1.4833
 1270SOL    HW3 5154   1.039   2.795   2.166 -1.0460  0.8968 -0.5776
 1270SOL    MW4 5155   1.116   2.829   2.144 -0.2438 -0.1457  0.5598
 1271SOL     OW 5156   1.127   3.112   2.202 -0.1263 -0.3340  0.1580
 1271SOL    HW2 5157   1.044   3.157   2.187 -0.2462 -0.1807  1.2449
 1271SOL    HW3 5158   1.111   3.022   2.173 -0.5256 -0.1887 -0.0679
 1271SOL    MW4 5159   1.114   3.106   2.196 -0.1948 -0.2949  0.2716
 1272SOL     OW 5160   0.884   3.240   2.078 -0.1173  0.8243 -0.2177
 1272SOL    HW2 5161   0.866   3.323   2.122  2.0628  0.1210  2.1117
 1272SOL    HW3 5162   0.826   3.177   2.121  0.5486  0.5265  0.2503
 1272SOL    MW4 5163   0.874   3.243   2.089  0.2582  0.6924  0.1514
 1273SOL     OW 5164   0.859   3.507   2.188 -0.1788  0.0088 -0.3993
 1273SOL    HW2 5165   0.864   3.484   2.280 -0.7302 -0.7200 -0.5402
 1273SOL    HW3 5166   0.774   3.550   2.178  0.0470  0.4306 -0.4884
 1273SOL    MW4 5167   0.848   3.510   2.199 -0.2218 -0.0315 -0.4296
 1274SOL     OW 5168   1.099   3.618   2.100 -0.2750  0.4087  0.4205
 1274SOL    HW2 5169   1.161   3.557   2.141 -0.3582 -1.1373 -1.6931
 1274SOL    HW3 5170   1.013   3.583   2.124 -0.3391  1.2649  1.4665
 1274SOL    MW4 5171   1.096   3.605   2.109 -0.2944  0.3178  0.2797
 1275SOL     OW 5172   1.124   3.861   2.196 -0.1464 -0.1801 -0.0123
 1275SOL    HW2 5173   1.210   3.887   2.164  0.1779 -0.6691  0.4621
 1275SOL    HW3 5174   1.106   3.778   2.150 -0.1296 -0.3545  0.2975
 1275SOL    MW4 5175   1.133   3.853   2.185 -0.1013 -0.2677  0.0913
 1276SOL     OW 5176   0.914   4.023   2.112 -0.2918 -0.1122  0.0685
 1276SOL    HW2 5177   0.984   3.967   2.144  0.3330  0.3909 -0.4001
 1276SOL    HW3 5178   0.833   3.982   2.144  0.2577 -0.2014  1.3784
 1276SOL    MW4 5179   0.912   4.011   2.121 -0.1369 -0.0572  0.1793
 1277SOL     OW 5180   0.876   4.257   2.255  0.4820 -0.2077  0.0853
 1277SOL    HW2 5181   0.899   4.173   2.214  1.1404 -0.9372  1.8930
 1277SOL    HW3 5182   0.789   4.277   2.221 -0.8073 -2.9452  1.5621
 1277SOL    MW4 5183   0.867   4.248   2.245  0.3988 -0.6657  0.5186
 1278SOL     OW 5184   1.100   4.391   2.128  0.4629  0.7836  0.2797
 1278SOL    HW2 5185   1.022   4.356   2.170  0.1364  0.1878 -0.7796
 1278SOL    HW3 5186   1.118   4.473   2.174 -1.6446  1.6657 -0.3985
 1278SOL    MW4 5187   1.092   4.397   2.139  0.1419  0.8216  0.0505
 1279SOL     OW 5188   1.586   4.603   2.199  0.7242  0.1124  0.6471
 1279SOL    HW2 5189   1.662   4.655   2.171  1.0817 -0.2542  0.9423
 1279SOL    HW3 5190   1.511   4.654   2.168  1.1095 -0.4606 -1.3318
 1279SOL    MW4 5191   1.586   4.617   2.191  0.8221 -0.0114  0.4249
 1280SOL     OW 5192   1.363   0.102   2.113  0.5397 -0.1718 -0.4898
 1280SOL    HW2 5193   1.332   0.189   2.137 -0.1167 -0.7058  0.6372
 1280SOL    HW3 5194   1.303   0.042   2.157  0.9099 -1.1979 -1.3564
 1280SOL    MW4 5195   1.351   0.106   2.122  0.5019 -0.3776 -0.4556
 1281SOL     OW 5196   1.304   0.382   2.196 -0.1722 -0.1452 -0.3974
 1281SOL    HW2 5197   1.303   0.379   2.292  0.3642 -1.8593 -0.4410
 1281SOL    HW3 5198   1.393   0.411   2.175 -0.2047 -0.0418 -0.3963
 1281SOL    MW4 5199   1.316   0.386   2.206 -0.1056 -0.3577 -0.4032
 1282SOL     OW 5200   1.571   0.525   2.092 -0.4674  0.3748  0.1919
 1282SOL    HW2 5201   1.646   0.469   2.117 -1.8887 -1.4439  0.4733
 1282SOL    HW3 5202   1.571   0.524   1.997 -0.4102 -0.0135  0.1950
 1282SOL    MW4 5203   1.581   0.517   2.083 -0.6473  0.0836  0.2294
 1283SOL     OW 5204   1.562   0.755   2.229  0.1505  0.6236  0.3730
 1283SOL    HW2 5205   1.636   0.803   2.192 -1.3739  0.8206 -2.5553
 1283SOL    HW3 5206   1.564   0.670   2.185  0.1086 -0.3056  2.1346
 1283SOL    MW4 5207   1.572   0.750   2.219 -0.0563  0.5270  0.2191
 1284SOL     OW 5208   1.346   0.895   2.125 -0.1934 -0.2300  0.6118
 1284SOL    HW2 5209   1.421   0.859   2.174  0.4601 -1.1907 -1.0379
 1284SOL    HW3 5210   1.272   0.840   2.151  0.2177 -0.9498  0.2910
 1284SOL    MW4 5211   1.346   0.883   2.135 -0.0529 -0.4517  0.3519
 1285SOL     OW 5212   1.339   1.162   2.202  0.1751  0.3000  0.2928
 1285SOL    HW2 5213   1.354   1.158   2.296 -0.9234  0.2826  0.4717
 1285SOL    HW3 5214   1.327   1.071   2.175 -0.2803  0.3705  0.2607
 1285SOL    MW4 5215   1.340   1.150   2.211 -0.0299  0.3070  0.3121
 1286SOL     OW 5216   1.571   1.292   2.093 -0.2003 -0.1473 -0.0169
 1286SOL    HW2 5217   1.483   1.268   2.122 -0.5153  0.8094 -0.1691
 1286SOL    HW3 5218   1.565   1.293   1.997 -0.0319 -0.0572 -0.0264
 1286SOL    MW4 5219   1.559   1.289   2.084 -0.2197 -0.0093 -0.0381
 1287SOL     OW 5220   1.627   1.540   2.237  0.0907 -0.2011 -0.2383
 1287SOL    HW2 5221   1.704   1.586   2.206 -0.2963  0.1080 -0.7515
 1287SOL    HW3 5222   1.626   1.458   2.186  0.4893 -0.5426  0.3004
 1287SOL    MW4 5223   1.637   1.535   2.226  0.0923 -0.2054 -0.2348
 1288SOL     OW 5224   1.397   1.665   2.123 -0.1780  0.0713  0.0849
 1288SOL    HW2 5225   1.480   1.629   2.155 -0.4467 -2.0827 -1.5698
 1288SOL    HW3 5226   1.331   1.603   2.153 -0.9243  0.4622 -0.7304
 1288SOL    MW4 5227   1.399   1.652   2.131 -0.3120 -0.1613 -0.2413
 1289SOL     OW 5228   1.352   1.920   2.208 -0.0244 -0.0248  0.0355
 1289SOL    HW2 5229   1.433   1.961   2.178 -0.8854  1.0666 -0.8573
 1289SOL    HW3 5230   1.360   1.828   2.182  1.6671 -0.3041  1.5050
 1289SOL    MW4 5231   1.363   1.913   2.200  0.0851  0.0824  0.1118
 1290SOL     OW 5232   1.572   2.066   2.120  0.3223  0.0117 -0.4792
 1290SOL    HW2 5233   1.652   2.019   2.143  0.2850  0.2310  0.0910
 1290SOL    HW3 5234   1.565   2.056   2.025  1.4249  0.6080 -0.6268
 1290SOL    MW4 5235   1.581   2.059   2.110  0.4628  0.1194 -0.4234
 1291SOL     OW 5236   1.624   2.337   2.182 -0.3744  0.3330  0.3032
 1291SOL    HW2 5237   1.609   2.336   2.276 -0.3233  0.3300  0.3111
 1291SOL    HW3 5238   1.610   2.247   2.154 -1.0382  0.4653  0.2081
 1291SOL    MW4 5239   1.620   2.325   2.191 -0.4551  0.3500  0.2921
 1292SOL     OW 5240   1.360   2.414   2.112  0.1552 -0.0036 -0.2789
 1292SOL    HW2 5241   1.449   2.385   2.133 -0.2490 -0.7508  0.4262
 1292SOL    HW3 5242   1.355   2.410   2.017  0.9050  0.1219 -0.3291
 1292SOL    MW4 5243   1.372   2.410   2.102  0.2009 -0.0856 -0.1929
 1293SOL     OW 5244   1.344   2.671   2.204  0.2488 -0.1565  0.2371
 1293SOL    HW2 5245   1.416   2.723   2.169  0.3511 -0.7049 -0.3752
 1293SOL    HW3 5246   1.352   2.586   2.160 -0.2555 -0.5001  0.8031
 1293SOL    MW4 5247   1.354   2.667   2.193  0.1957 -0.2739  0.2310
 1294SOL     OW 5248   1.576   2.831   2.117  0.4984  0.1681  0.4147
 1294SOL    HW2 5249   1.568   2.919   2.153  1.8214  0.3282  0.3559
 1294SOL    HW3 5250   1.652   2.794   2.162 -0.4612 -1.2058  0.9611
 1294SOL    MW4 5251   1.585   2.838   2.128  0.5463  0.0081  0.4792
 1295SOL     OW 5252   1.559   3.093   2.185  0.0048 -0.0284  0.0057
 1295SOL    HW2 5253   1.554   3.109   2.279  0.4401 -0.4474  0.1005
 1295SOL    HW3 5254   1.480   3.133   2.150 -0.1166  0.2047  0.5399
 1295SOL    MW4 5255   1.548   3.100   2.193  0.0463 -0.0529  0.0889
 1296SOL     OW 5256   1.338   3.243   2.100 -0.0638  0.6247 -0.4325
 1296SOL    HW2 5257   1.262   3.192   2.131 -0.4172  1.1320 -0.4650
 1296SOL    HW3 5258   1.327   3.246   2.005  0.9090 -0.7499 -0.6050
 1296SOL    MW4 5259   1.326   3.236   2.092  0.0180  0.5105 -0.4597
 1297SOL     OW 5260   1.344   3.501   2.241  0.4582  0.1335  0.0617
 1297SOL    HW2 5261   1.331   3.493   2.336  0.8199  0.8840  0.1815
 1297SOL    HW3 5262   1.344   3.411   2.209  1.0399 -0.1625  0.8726
 1297SOL    MW4 5263   1.342   3.488   2.249  0.5826  0.1934  0.1848
 1298SOL     OW 5264   1.563   3.632   2.112 -0.5902  0.2185 -0.1433
 1298SOL    HW2 5265   1.579   3.712   2.161  1.1385 -0.6814  0.8296
 1298SOL    HW3 5266   1.481   3.598   2.147 -1.1042  1.3366 -0.2638
 1298SOL    MW4 5267   1.554   3.638   2.123 -0.4297  0.2475 -0.0308
 1299SOL     OW 5268   1.599   3.904   2.236  0.6374 -1.1123  0.0200
 1299SOL    HW2 5269   1.608   3.928   2.328  1.3952 -1.5005  0.0534
 1299SOL    HW3 5270   1.671   3.949   2.192  0.5046 -1.2327 -0.3231
 1299SOL    MW4 5271   1.610   3.913   2.242  0.7197 -1.1797 -0.0207
 1300SOL     OW 5272   1.375   3.988   2.117 -0.3375 -0.5578 -0.3580
 1300SOL    HW2 5273   1.455   3.975   2.168  0.6238  4.0121 -0.4497
 1300SOL    HW3 5274   1.404   3.989   2.026 -0.9463 -1.6111 -0.5694
 1300SOL    MW4 5275   1.389   3.986   2.112 -0.2910 -0.0937 -0.3979
 1301SOL     OW 5276   1.337   4.258   2.199 -0.2463  0.1552  0.5025
 1301SOL    HW2 5277   1.336   4.173   2.154  1.3402  0.3057  0.1557
 1301SOL    HW3 5278   1.258   4.302   2.167 -0.1462 -0.4867 -0.6907
 1301SOL    MW4 5279   1.326   4.253   2.189 -0.0237  0.0911  0.2995
 1302SOL     OW 5280   1.583   4.363   2.072  0.4237  0.5414  0.1945
 1302SOL    HW2 5281   1.504   4.328   2.113  0.1399  0.6215 -0.2747
 1302SOL    HW3 5282   1.588   4.453   2.104  0.1467  0.6357 -0.0272
 1302SOL    MW4 5283   1.573   4.370   2.081  0.3498  0.5641  0.1032
 1303SOL     OW 5284   2.046   0.001   2.234  0.0785  0.3987 -0.5918
 1303SOL    HW2 5285   2.136   0.024   2.211  1.2294 -1.5574  1.7546
 1303SOL    HW3 5286   2.037  -0.090   2.206 -0.9372  0.3611 -0.1537
 1303SOL    MW4 5287   2.057  -0.008   2.228  0.0963  0.1357 -0.2246
 1304SOL     OW 5288   1.798   0.108   2.140  0.0980  0.4776  0.2727
 1304SOL    HW2 5289   1.782   0.196   2.174 -0.4466  0.1912  0.7811
 1304SOL    HW3 5290   1.878   0.080   2.183  0.3685  0.7899 -0.0233
 1304SOL    MW4 5291   1.806   0.116   2.150  0.0618  0.4810  0.3004
 1305SOL     OW 5292   1.741   0.358   2.228  0.2349 -0.5879  0.4413
 1305SOL    HW2 5293   1.727   0.360   2.323 -0.2272 -0.4963  0.3728
 1305SOL    HW3 5294   1.818   0.412   2.214 -0.1029 -0.0407  0.6929
 1305SOL    MW4 5295   1.750   0.365   2.239  0.1293 -0.5036  0.4654
 1306SOL     OW 5296   2.014   0.489   2.154 -0.1611  0.1154 -0.6326
 1306SOL    HW2 5297   2.030   0.568   2.205 -0.9338 -0.7107  0.9589
 1306SOL    HW3 5298   2.011   0.518   2.063 -1.1268  2.0081 -0.0125
 1306SOL    MW4 5299   2.016   0.503   2.149 -0.3905  0.2561 -0.3412
 1307SOL     OW 5300   2.017   0.757   2.252  0.4709  0.0768 -0.5675
 1307SOL    HW2 5301   2.096   0.797   2.215  0.0374  0.2905 -1.2521
 1307SOL    HW3 5302   1.945   0.795   2.202 -0.0435 -0.3699 -0.1605
 1307SOL    MW4 5303   2.018   0.767   2.240  0.3457  0.0460 -0.6042
 1308SOL     OW 5304   1.799   0.873   2.125 -0.0354  0.1561  0.1194
 1308SOL    HW2 5305   1.795   0.967   2.143 -0.9108  0.3749 -1.1864
 1308SOL    HW3 5306   1.801   0.866   2.030 -0.3173 -1.1590  0.1939
 1308SOL    MW4 5307   1.799   0.885   2.115 -0.1882  0.0114 -0.0429
 1309SOL     OW 5308   1.782   1.136   2.211  0.2281  0.2968  0.1816
 1309SOL    HW2 5309   1.861   1.174   2.171  1.3428  0.5718  2.5492
 1309SOL    HW3 5310   1.710   1.185   2.173  1.3644  1.6965 -0.2020
 1309SOL    MW4 5311   1.783   1.147   2.201  0.5251  0.5177  0.4435
 1310SOL     OW 5312   2.007   1.257   2.084  0.0348 -0.0924  0.0102
 1310SOL    HW2 5313   2.019   1.349   2.105 -0.3533  0.0290 -0.3013
 1310SOL    HW3 5314   2.000   1.255   1.988 -0.6700 -0.3648  0.0679
 1310SOL    MW4 5315   2.008   1.269   2.074 -0.1097 -0.1123 -0.0234
 1311SOL     OW 5316   2.052   1.521   2.200  0.3460 -0.0310  0.0651
 1311SOL    HW2 5317   2.043   1.524   2.295 -0.4168  0.9864 -0.0237
 1311SOL    HW3 5318   1.968   1.555   2.167  0.2925 -1.1437 -0.9690
 1311SOL    MW4 5319   2.039   1.526   2.208  0.2384 -0.0436 -0.0832
 1312SOL     OW 5320   1.833   1.684   2.114 -0.0802  0.7364  0.2670
 1312SOL    HW2 5321   1.807   1.765   2.158  0.2438  1.2574 -0.4948
 1312SOL    HW3 5322   1.812   1.699   2.022  1.4621  0.5859 -0.1321
 1312SOL    MW4 5323   1.827   1.697   2.108  0.1659  0.7851  0.1140
 1313SOL     OW 5324   1.795   1.940   2.201 -0.4271 -0.0907 -0.0211
 1313SOL    HW2 5325   1.779   1.951   2.295  0.3652 -1.4435  0.2888
 1313SOL    HW3 5326   1.877   1.987   2.185  0.2192 -1.1128  0.2647
 1313SOL    MW4 5327   1.804   1.948   2.212 -0.2371 -0.4041  0.0575
 1314SOL     OW 5328   2.014   2.092   2.108 -0.0039  0.1850 -0.2403
 1314SOL    HW2 5329   2.075   2.023   2.135  1.3034  1.2389 -0.4613
 1314SOL    HW3 5330   2.024   2.097   2.013  1.0212  1.6942 -0.0691
 1314SOL    MW4 5331   2.024   2.083   2.099  0.3035  0.5231 -0.2468
 1315SOL     OW 5332   2.060   2.315   2.253  0.5915 -0.2784  0.2509
 1315SOL    HW2 5333   2.135   2.358   2.211 -0.7442  0.8899 -1.0356
 1315SOL    HW3 5334   2.040   2.241   2.195 -0.7156  0.8261 -0.7442
 1315SOL    MW4 5335   2.067   2.311   2.240  0.2427  0.0215 -0.0503
 1316SOL     OW 5336   1.857   2.476   2.126  0.1435 -0.2462 -0.3029
 1316SOL    HW2 5337   1.923   2.429   2.176  0.5463  0.3299 -0.2860
 1316SOL    HW3 5338   1.774   2.434   2.149  0.4714 -0.7842 -0.1029
 1316SOL    MW4 5339   1.855   2.464   2.135  0.2398 -0.2413 -0.2742
 1317SOL     OW 5340   1.810   2.723   2.220 -0.5265 -0.1113 -0.4724
 1317SOL    HW2 5341   1.802   2.712   2.315 -0.5277  1.4298 -0.2835
 1317SOL    HW3 5342   1.833   2.636   2.188 -1.3261 -0.8182  0.8500
 1317SOL    MW4 5343   1.812   2.710   2.228 -0.6322 -0.0014 -0.2732
 1318SOL     OW 5344   2.015   2.832   2.096  0.0716 -0.0960 -0.1280
 1318SOL    HW2 5345   2.083   2.767   2.114 -0.4130 -0.2520  1.1860
 1318SOL    HW3 5346   1.939   2.801   2.144 -0.2596  1.2846  0.2439
 1318SOL    MW4 5347   2.014   2.819   2.104 -0.0360  0.0656  0.0947
 1319SOL     OW 5348   2.031   3.101   2.172 -0.1434  0.0669 -0.2266
 1319SOL    HW2 5349   2.114   3.148   2.164 -0.2125  0.0011 -1.4512
 1319SOL    HW3 5350   2.048   3.016   2.130 -0.8583  0.0860 -0.5555
 1319SOL    MW4 5351   2.044   3.096   2.165 -0.2470  0.0610 -0.4315
 1320SOL     OW 5352   1.803   3.261   2.077  0.8250  0.1319 -0.2626
 1320SOL    HW2 5353   1.892   3.227   2.089  0.7305  0.5183  1.8361
 1320SOL    HW3 5354   1.749   3.204   2.131  0.0186  0.8515 -0.3070
 1320SOL    MW4 5355   1.808   3.249   2.086  0.7062  0.2778  0.0086
 1321SOL     OW 5356   1.780   3.507   2.193 -0.1175  0.4093 -0.0708
 1321SOL    HW2 5357   1.777   3.422   2.149 -0.8837  0.1552  0.4679
 1321SOL    HW3 5358   1.703   3.554   2.161  0.4366  0.9979 -0.5537
 1321SOL    MW4 5359   1.770   3.502   2.183 -0.1456  0.4532 -0.0637
 1322SOL     OW 5360   2.003   3.615   2.100 -0.8149 -0.4253 -0.1268
 1322SOL    HW2 5361   1.928   3.576   2.147 -0.6305 -1.5708 -0.7617
 1322SOL    HW3 5362   2.080   3.580   2.145 -0.6419  1.3351  0.9949
 1322SOL    MW4 5363   2.003   3.605   2.112 -0.7677 -0.3443 -0.0627
 1323SOL     OW 5364   2.040   3.884   2.204 -0.0909  0.0490  0.2635
 1323SOL    HW2 5365   2.023   3.877   2.298  0.8902 -0.3498  0.4134
 1323SOL    HW3 5366   2.033   3.794   2.173  0.2541  0.0888  0.0712
 1323SOL    MW4 5367   2.037   3.871   2.212  0.0839  0.0014  0.2577
 1324SOL     OW 5368   1.816   4.032   2.097  0.0136 -0.3426  0.0963
 1324SOL    HW2 5369   1.882   3.973   2.133  0.4909 -0.4234 -0.8806
 1324SOL    HW3 5370   1.806   4.003   2.006  0.7095  1.4694 -0.5736
 1324SOL    MW4 5371   1.824   4.020   2.090  0.1684 -0.1149 -0.1211
 1325SOL     OW 5372   1.800   4.277   2.228  0.3524 -0.2952 -0.1383
 1325SOL    HW2 5373   1.825   4.198   2.181  1.6885  0.3590 -0.5378
 1325SOL    HW3 5374   1.724   4.311   2.179  0.3054 -0.8617 -0.4585
 1325SOL    MW4 5375   1.793   4.271   2.215  0.5224 -0.2837 -0.2334
 1326SOL     OW 5376   2.027   4.417   2.141 -0.2387 -0.5216  0.1615
 1326SOL    HW2 5377   1.953   4.373   2.183 -1.1782  0.8249 -0.0761
 1326SOL    HW3 5378   2.014   4.404   2.047 -1.3489  1.5373  0.0068
 1326SOL    MW4 5379   2.015   4.409   2.134 -0.5090 -0.0720  0.1097
 1327SOL     OW 5380   2.546   4.625   2.245 -0.3590  0.1212  0.4515
 1327SOL    HW2 5381   2.619   4.663   2.197 -1.7692  0.8645 -1.1664
 1327SOL    HW3 5382   2.527   4.543   2.200 -0.4462 -0.1243  0.9342
 1327SOL    MW4 5383   2.553   4.619   2.233 -0.5565  0.1874  0.3016
 1328SOL     OW 5384   2.316   0.122   2.119 -0.4057 -0.0579  0.1940
 1328SOL    HW2 5385   2.306   0.208   2.162  0.7066 -0.1786  0.7116
 1328SOL    HW3 5386   2.392   0.083   2.162 -1.1154 -1.4580  0.2005
 1328SOL    MW4 5387   2.325   0.128   2.130 -0.3524 -0.2586  0.2630
 1329SOL     OW 5388   2.258   0.359   2.238 -0.2391 -0.1209 -0.1228
 1329SOL    HW2 5389   2.322   0.414   2.192  0.1132 -1.3079 -1.0894
 1329SOL    HW3 5390   2.173   0.386   2.204  0.1544 -2.5198 -3.2158
 1329SOL    MW4 5391   2.256   0.370   2.227 -0.1407 -0.5940 -0.6585
 1330SOL     OW 5392   2.450   0.527   2.130  0.3165 -0.3528  0.0262
 1330SOL    HW2 5393   2.523   0.475   2.162 -1.1130 -1.0941  2.1923
 1330SOL    HW3 5394   2.478   0.618   2.143  1.1456 -0.6172  0.1253
 1330SOL    MW4 5395   2.463   0.533   2.136  0.2372 -0.4855  0.3250
 1331SOL     OW 5396   2.497   0.806   2.197 -0.3169 -0.1170  0.3093
 1331SOL    HW2 5397   2.572   0.860   2.174  0.7960 -1.1314  1.4814
 1331SOL    HW3 5398   2.498   0.803   2.293 -1.6666 -0.3940  0.3237
 1331SOL    MW4 5399   2.507   0.813   2.207 -0.3483 -0.2874  0.4659
 1332SOL     OW 5400   2.237   0.886   2.144  0.1954  0.1017 -0.1412
 1332SOL    HW2 5401   2.246   0.975   2.179  0.5563  0.4806 -1.1903
 1332SOL    HW3 5402   2.325   0.847   2.155  0.1372 -0.0020 -0.0335
 1332SOL    MW4 5403   2.250   0.892   2.150  0.2353  0.1380 -0.2654
 1333SOL     OW 5404   2.224   1.135   2.250  0.2078 -0.6810  0.5977
 1333SOL    HW2 5405   2.306   1.176   2.225  0.2662 -0.9560  0.3280
 1333SOL    HW3 5406   2.161   1.165   2.184  0.8777 -3.2650 -1.3229
 1333SOL    MW4 5407   2.226   1.144   2.238  0.3040 -1.0582  0.3088
 1334SOL     OW 5408   2.477   1.294   2.146  0.2718 -0.4639  0.0583
 1334SOL    HW2 5409   2.549   1.249   2.191  1.9493  1.5903 -0.5258
 1334SOL    HW3 5410   2.482   1.384   2.177 -0.6648  0.1931 -1.6614
 1334SOL    MW4 5411   2.488   1.300   2.156  0.3698 -0.1062 -0.2456
 1335SOL     OW 5412   2.512   1.559   2.232 -0.6277 -0.1034  0.3160
 1335SOL    HW2 5413   2.513   1.571   2.327 -0.1834  1.8941  0.0833
 1335SOL    HW3 5414   2.589   1.607   2.201 -0.2045 -1.5732 -0.9749
 1335SOL    MW4 5415   2.522   1.567   2.240 -0.5131 -0.0336  0.1152
 1336SOL     OW 5416   2.266   1.671   2.141 -0.4202 -0.4898  0.0434
 1336SOL    HW2 5417   2.344   1.628   2.175 -0.3607 -0.3395  0.0941
 1336SOL    HW3 5418   2.194   1.616   2.172 -0.3557 -0.4562  0.2564
 1336SOL    MW4 5419   2.267   1.658   2.149 -0.4036 -0.4656  0.0782
 1337SOL     OW 5420   2.192   1.928   2.241 -0.2885 -0.0892 -0.0468
 1337SOL    HW2 5421   2.265   1.983   2.214  0.0248  0.0630  1.0905
 1337SOL    HW3 5422   2.216   1.840   2.213 -0.4183  0.2209 -1.1383
 1337SOL    MW4 5423   2.205   1.924   2.234 -0.2642 -0.0283 -0.0408
 1338SOL     OW 5424   2.427   2.070   2.147 -0.0905 -0.4573 -0.1257
 1338SOL    HW2 5425   2.508   2.027   2.175 -1.2875 -3.3701 -0.8940
 1338SOL    HW3 5426   2.435   2.077   2.052 -0.8292 -0.9545 -0.2260
 1338SOL    MW4 5427   2.439   2.065   2.138 -0.3459 -0.9069 -0.2403
 1339SOL     OW 5428   2.481   2.317   2.261  0.1157 -0.4606 -0.3093
 1339SOL    HW2 5429   2.540   2.360   2.199 -0.1362  0.8238  0.3276
 1339SOL    HW3 5430   2.462   2.232   2.220  2.3685 -0.8932 -0.5386
 1339SOL    MW4 5431   2.486   2.311   2.247  0.3796 -0.3481 -0.2556
 1340SOL     OW 5432   2.268   2.462   2.132  0.1618  0.5124 -0.1558
 1340SOL    HW2 5433   2.258   2.552   2.162  1.6600  0.5016  0.3916
 1340SOL    HW3 5434   2.355   2.436   2.161 -0.4478 -1.2850  0.1191
 1340SOL    MW4 5435   2.278   2.470   2.140  0.2792  0.2737 -0.0472
 1341SOL     OW 5436   2.247   2.723   2.199 -0.0111  0.5376 -0.1550
 1341SOL    HW2 5437   2.252   2.756   2.288  0.1003  0.8515 -0.2764
 1341SOL    HW3 5438   2.323   2.760   2.155 -0.3415  0.7988 -0.5145
 1341SOL    MW4 5439   2.258   2.732   2.205 -0.0398  0.6137 -0.2186
 1342SOL     OW 5440   2.470   2.825   2.099  0.5317 -0.2004 -0.0166
 1342SOL    HW2 5441   2.536   2.772   2.142  0.2108 -1.2399 -0.7950
 1342SOL    HW3 5442   2.498   2.829   2.007  0.6074  1.0517  0.0511
 1342SOL    MW4 5443   2.483   2.819   2.092  0.4995 -0.1724 -0.1101
 1343SOL     OW 5444   2.459   3.084   2.183  0.2551 -0.6116  0.0729
 1343SOL    HW2 5445   2.469   2.997   2.144 -0.4997 -0.5854 -0.1789
 1343SOL    HW3 5446   2.456   3.067   2.277  0.5405 -0.8143  0.0490
 1343SOL    MW4 5447   2.460   3.070   2.190  0.1931 -0.6347  0.0362
 1344SOL     OW 5448   2.260   3.238   2.097 -0.3054 -0.4524 -0.0461
 1344SOL    HW2 5449   2.261   3.319   2.148  0.4723 -0.1717 -0.4889
 1344SOL    HW3 5450   2.328   3.184   2.138 -1.7343 -1.4305  1.0941
 1344SOL    MW4 5451   2.269   3.241   2.109 -0.3915 -0.5443  0.0460
 1345SOL     OW 5452   2.231   3.494   2.193  0.1025  0.0534 -0.3680
 1345SOL    HW2 5453   2.253   3.507   2.286 -2.0475  2.0287 -0.0938
 1345SOL    HW3 5454   2.301   3.539   2.146  1.1252 -0.8209  0.2774
 1345SOL    MW4 5455   2.244   3.502   2.199 -0.0463  0.1988 -0.2468
 1346SOL     OW 5456   2.442   3.606   2.065 -0.3260  0.1554 -0.0176
 1346SOL    HW2 5457   2.443   3.691   2.109 -1.7420  0.2842 -0.2203
 1346SOL    HW3 5458   2.523   3.563   2.094 -0.5846  0.7665  1.6617
 1346SOL    MW4 5459   2.453   3.612   2.075 -0.5469  0.2530  0.1771
 1347SOL     OW 5460   2.436   3.859   2.207 -0.3346 -0.1362  0.1146
 1347SOL    HW2 5461   2.429   3.845   2.301 -2.3536 -1.8886 -0.2640
 1347SOL    HW3 5462   2.380   3.934   2.189  1.4156  1.3161  0.5096
 1347SOL    MW4 5463   2.428   3.867   2.217 -0.3700 -0.1757  0.1171
 1348SOL     OW 5464   2.247   4.040   2.094 -0.3069  0.5610  0.4771
 1348SOL    HW2 5465   2.256   4.123   2.141 -0.8646  0.9367 -0.0649
 1348SOL    HW3 5466   2.164   4.004   2.126  0.6494 -0.5147  1.8168
 1348SOL    MW4 5467   2.237   4.046   2.105 -0.2542  0.4687  0.5825
 1349SOL     OW 5468   2.275   4.284   2.217  0.2711 -0.3222 -0.0279
 1349SOL    HW2 5469   2.270   4.274   2.313  0.4353  2.3216  0.2860
 1349SOL    HW3 5470   2.194   4.328   2.193  0.5986 -0.2332 -0.9984
 1349SOL    MW4 5471   2.264   4.289   2.227  0.3362  0.0381 -0.1144
 1350SOL     OW 5472   2.522   4.395   2.116 -0.1577  0.1381  0.0085
 1350SOL    HW2 5473   2.591   4.336   2.147 -0.4749 -0.4082 -0.3058
 1350SOL    HW3 5474   2.443   4.363   2.160 -0.1174  1.1304  0.8285
 1350SOL    MW4 5475   2.521   4.383   2.126 -0.1943  0.1974  0.0751
 1351SOL     OW 5476   2.936   4.643   2.214  0.5347  0.2031 -0.1627
 1351SOL    HW2 5477   2.996   4.677   2.148 -0.1035 -1.7036 -1.7578
 1351SOL    HW3 5478   2.931   4.549   2.197 -1.4092  0.0230  1.1634
 1351SOL    MW4 5479   2.943   4.635   2.203  0.1938 -0.0722 -0.1981
 1352SOL     OW 5480   2.718   0.096   2.092  0.7098 -0.4971  0.0018
 1352SOL    HW2 5481   2.705   0.188   2.115  0.3467 -0.9793  1.7847
 1352SOL    HW3 5482   2.805   0.074   2.127  0.7110 -0.8780 -0.2346
 1352SOL    MW4 5483   2.728   0.105   2.100  0.6621 -0.6110  0.2058
 1353SOL     OW 5484   2.673   0.379   2.202  0.0877  0.4003 -0.3143
 1353SOL    HW2 5485   2.670   0.391   2.297  0.6617  0.5315 -0.3106
 1353SOL    HW3 5486   2.746   0.433   2.174 -0.6870  1.1192 -0.9542
 1353SOL    MW4 5487   2.682   0.388   2.211  0.0608  0.5125 -0.3984
 1354SOL     OW 5488   2.923   0.485   2.105 -0.1941  0.3482  0.0022
 1354SOL    HW2 5489   2.938   0.574   2.136 -0.6461  0.4568 -0.0989
 1354SOL    HW3 5490   2.926   0.492   2.009 -1.3753  0.4518 -0.0309
 1354SOL    MW4 5491   2.926   0.498   2.096 -0.4094  0.3762 -0.0155
 1355SOL     OW 5492   2.942   0.734   2.187 -0.0909  0.0429  0.2452
 1355SOL    HW2 5493   2.941   0.713   2.281 -1.7079 -0.1505  0.2030
 1355SOL    HW3 5494   2.869   0.794   2.176  0.7539  0.9002 -0.7181
 1355SOL    MW4 5495   2.932   0.739   2.198 -0.1926  0.1305  0.1128
 1356SOL     OW 5496   2.749   0.928   2.150 -0.2253  0.3544  0.4054
 1356SOL    HW2 5497   2.741   1.019   2.178 -0.3805  0.7802 -0.9659
 1356SOL    HW3 5498   2.764   0.933   2.056 -1.4177 -1.0695  0.1129
 1356SOL    MW4 5499   2.750   0.940   2.141 -0.4032  0.2227  0.1860
 1357SOL     OW 5500   2.706   1.188   2.260 -0.2686  0.7172  0.3555
 1357SOL    HW2 5501   2.699   1.170   2.354 -0.0836  0.1158  0.2576
 1357SOL    HW3 5502   2.795   1.222   2.249  0.0041  0.0060  0.2825
 1357SOL    MW4 5503   2.717   1.190   2.271 -0.2084  0.5441  0.3331
 1358SOL     OW 5504   2.950   1.279   2.166  0.2130  0.5932 -0.1265
 1358SOL    HW2 5505   3.030   1.237   2.196  0.2008  0.5786 -0.1148
 1358SOL    HW3 5506   2.952   1.270   2.071 -1.1256 -1.8592  0.0358
 1358SOL    MW4 5507   2.961   1.272   2.158  0.0346  0.2677 -0.1035
 1359SOL     OW 5508   2.939   1.561   2.219  0.1330 -0.4064  0.4603
 1359SOL    HW2 5509   2.919   1.552   2.312 -1.4665 -0.9105  0.0739
 1359SOL    HW3 5510   2.961   1.472   2.191 -1.5029 -0.6505 -0.1098
 1359SOL    MW4 5511   2.939   1.548   2.228 -0.2940 -0.5051  0.3338
 1360SOL     OW 5512   2.735   1.718   2.107  0.1263 -0.5277  0.2058
 1360SOL    HW2 5513   2.803   1.655   2.130  0.7122 -0.0569 -0.2247
 1360SOL    HW3 5514   2.713   1.698   2.016 -1.2802 -1.5559  0.7617
 1360SOL    MW4 5515   2.741   1.707   2.098  0.0181 -0.6013  0.2222
 1361SOL     OW 5516   2.681   1.971   2.216 -0.0105  0.1099  0.2207
 1361SOL    HW2 5517   2.674   1.954   2.310  0.5529 -1.6389 -0.0325
 1361SOL    HW3 5518   2.680   1.884   2.176 -0.0945  0.8337 -1.3838
 1361SOL    MW4 5519   2.680   1.957   2.223  0.0525 -0.0254 -0.0246
 1362SOL     OW 5520   2.909   2.078   2.101 -0.1611  0.3469  0.4002
 1362SOL    HW2 5521   2.972   2.031   2.156  0.6615  0.1527 -0.6927
 1362SOL    HW3 5522   2.823   2.050   2.133  0.3214 -0.5457  0.9185
 1362SOL    MW4 5523   2.906   2.068   2.112  0.0110  0.2036  0.3242
 1363SOL     OW 5524   2.927   2.329   2.194  0.0123  0.0465 -0.0265
 1363SOL    HW2 5525   2.909   2.335   2.288 -0.3812  1.2826 -0.1689
 1363SOL    HW3 5526   2.920   2.236   2.174 -1.2012 -0.0789  0.9168
 1363SOL    MW4 5527   2.924   2.318   2.203 -0.1998  0.1931  0.0792
 1364SOL     OW 5528   2.679   2.442   2.129 -0.2309  0.0086 -0.2281
 1364SOL    HW2 5529   2.674   2.527   2.171 -0.2750  0.1449 -0.5067
 1364SOL    HW3 5530   2.763   2.406   2.158  0.5533  0.8379 -1.3925
 1364SOL    MW4 5531   2.690   2.448   2.138 -0.1335  0.1364 -0.4184
 1365SOL     OW 5532   2.687   2.696   2.231 -0.1153 -0.7447  0.2983
 1365SOL    HW2 5533   2.769   2.737   2.205 -0.5990 -0.1385 -0.3004
 1365SOL    HW3 5534   2.685   2.706   2.327 -0.6494  1.4919  0.0995
 1365SOL    MW4 5535   2.697   2.703   2.240 -0.2496 -0.3693  0.1929
 1366SOL     OW 5536   2.888   2.834   2.124  0.2134 -0.0384  0.3953
 1366SOL    HW2 5537   2.897   2.920   2.167  0.2405 -0.0024  0.3167
 1366SOL    HW3 5538   2.895   2.853   2.031  1.4503 -0.2930  0.4333
 1366SOL    MW4 5539   2.890   2.848   2.118  0.3803 -0.0672  0.3901
 1367SOL     OW 5540   2.928   3.078   2.229 -0.3500 -0.4005 -0.6524
 1367SOL    HW2 5541   2.863   3.138   2.194  0.4451  0.4744 -0.6475
 1367SOL    HW3 5542   2.930   3.096   2.323 -0.0833 -0.4081 -0.6557
 1367SOL    MW4 5543   2.920   3.088   2.237 -0.2098 -0.2861 -0.6521
 1368SOL     OW 5544   2.728   3.232   2.137 -0.1334  0.0205 -0.0777
 1368SOL    HW2 5545   2.647   3.185   2.153  0.8506 -1.0555  1.9538
 1368SOL    HW3 5546   2.711   3.321   2.167 -1.2335  0.3782 -1.7072
 1368SOL    MW4 5547   2.715   3.238   2.143 -0.1488 -0.0744 -0.0248
 1369SOL     OW 5548   2.689   3.499   2.171 -0.3507  0.2145 -0.3771
 1369SOL    HW2 5549   2.770   3.527   2.128  0.5721  0.1725  1.3118
 1369SOL    HW3 5550   2.702   3.521   2.263 -1.5614 -1.4125  0.1944
 1369SOL    MW4 5551   2.702   3.506   2.178 -0.3886 -0.0057 -0.0789
 1370SOL     OW 5552   2.945   3.597   2.096 -0.4999 -0.4011  0.5458
 1370SOL    HW2 5553   3.024   3.552   2.126 -0.0718 -1.0940 -1.5423
 1370SOL    HW3 5554   2.960   3.688   2.119 -0.3746 -0.9615  2.7737
 1370SOL    MW4 5555   2.958   3.603   2.103 -0.4268 -0.5665  0.5641
 1371SOL     OW 5556   2.955   3.862   2.175  0.2476  0.4219  0.5345
 1371SOL    HW2 5557   2.939   3.847   2.268  0.1842 -1.1316  0.2760
 1371SOL    HW3 5558   2.868   3.880   2.139  0.3309  1.5194  0.8464
 1371SOL    MW4 5559   2.941   3.863   2.183  0.2501  0.3614  0.5412
 1372SOL     OW 5560   2.693   3.928   2.116 -0.3166 -0.8748 -0.2358
 1372SOL    HW2 5561   2.613   3.888   2.150 -0.8422  0.3033 -0.0705
 1372SOL    HW3 5562   2.677   3.938   2.022 -0.6861  0.0695 -0.0827
 1372SOL    MW4 5563   2.680   3.924   2.108 -0.4344 -0.5946 -0.1941
 1373SOL     OW 5564   2.724   4.206   2.168 -0.2161  0.0707  0.1761
 1373SOL    HW2 5565   2.704   4.215   2.261 -3.1893  0.7256 -0.4903
 1373SOL    HW3 5566   2.712   4.112   2.150  0.0859 -0.0092  0.4056
 1373SOL    MW4 5567   2.720   4.195   2.178 -0.5686  0.1464  0.1183
 1374SOL     OW 5568   2.938   4.365   2.098 -0.2210 -0.4464 -0.0000
 1374SOL    HW2 5569   3.020   4.321   2.119 -0.0168 -1.9639 -3.6555
 1374SOL    HW3 5570   2.870   4.302   2.125 -0.1750  0.0847  1.4139
 1374SOL    MW4 5571   2.940   4.351   2.104 -0.1879 -0.5765 -0.2956
 1375SOL     OW 5572   3.384   4.631   2.159  0.5451  0.1988 -0.0045
 1375SOL    HW2 5573   3.384   4.630   2.255 -0.6072  0.2736  0.0075
 1375SOL    HW3 5574   3.457   4.688   2.136  0.2173  0.9798  0.8437
 1375SOL    MW4 5575   3.393   4.638   2.169  0.3498  0.3119  0.1090
 1376SOL     OW 5576   3.147   0.104   2.069 -0.1005 -0.0105 -0.3825
 1376SOL    HW2 5577   3.153   0.186   2.119  1.2341 -0.8758  0.9240
 1376SOL    HW3 5578   3.215   0.049   2.107  0.8062 -0.7785 -3.0823
 1376SOL    MW4 5579   3.156   0.108   2.081  0.1953 -0.2260 -0.5662
 1377SOL     OW 5580   3.133   0.353   2.220  0.2329  0.5023 -0.1702
 1377SOL    HW2 5581   3.200   0.409   2.180 -1.1761  1.1401 -1.6936
 1377SOL    HW3 5582   3.050   0.386   2.185 -0.8495 -0.5459  1.3651
 1377SOL    MW4 5583   3.131   0.365   2.210 -0.0958  0.4482 -0.1686
 1378SOL     OW 5584   3.351   0.492   2.086  0.0560 -0.1146  0.2141
 1378SOL    HW2 5585   3.424   0.448   2.130  0.0934  1.1899  1.4929
 1378SOL    HW3 5586   3.383   0.508   1.997  1.3906  0.5649  0.8026
 1378SOL    MW4 5587   3.365   0.489   2.080  0.2370  0.1471  0.4604
 1379SOL     OW 5588   3.392   0.729   2.221 -0.0879 -0.0042  0.0399
 1379SOL    HW2 5589   3.452   0.777   2.163 -0.1506 -0.1468 -0.1444
 1379SOL    HW3 5590   3.386   0.642   2.181  0.0413 -0.1723  0.3827
 1379SOL    MW4 5591   3.399   0.724   2.208 -0.0789 -0.0453  0.0610
 1380SOL     OW 5592   3.186   0.867   2.104 -0.2245  0.0036 -0.1085
 1380SOL    HW2 5593   3.258   0.808   2.126 -0.0251 -0.1747 -1.2269
 1380SOL    HW3 5594   3.107   0.817   2.125 -0.0689  1.0985  3.5469
 1380SOL    MW4 5595   3.185   0.853   2.110 -0.1776  0.1245  0.2260
 1381SOL     OW 5596   3.175   1.124   2.230  0.2861  0.1961 -0.0197
 1381SOL    HW2 5597   3.249   1.162   2.184  1.2821 -0.8199  0.7343
 1381SOL    HW3 5598   3.154   1.044   2.181 -0.7243  0.7949 -0.5977
 1381SOL    MW4 5599   3.182   1.119   2.218  0.2842  0.1410  0.0036
 1382SOL     OW 5600   3.379   1.268   2.099  0.0327 -0.0502  0.2103
 1382SOL    HW2 5601   3.472   1.249   2.104 -0.0048 -0.2225  0.2551
 1382SOL    HW3 5602   3.370   1.355   2.137  0.2463  0.1803 -0.2663
 1382SOL    MW4 5603   3.390   1.277   2.104  0.0560 -0.0426  0.1531
 1383SOL     OW 5604   3.381   1.552   2.194  0.3867 -0.2151 -0.0101
 1383SOL    HW2 5605   3.376   1.549   2.290  0.4533  0.4267  0.0144
 1383SOL    HW3 5606   3.308   1.608   2.167 -1.2737 -2.5601 -0.5050
 1383SOL    MW4 5607   3.371   1.559   2.203  0.1764 -0.4398 -0.0722
 1384SOL     OW 5608   3.153   1.685   2.141  0.0387 -0.1073 -0.1312
 1384SOL    HW2 5609   3.148   1.776   2.171  1.2826 -0.0786  0.0056
 1384SOL    HW3 5610   3.089   1.639   2.195  0.6886  0.3574  1.0467
 1384SOL    MW4 5611   3.144   1.691   2.152  0.2887 -0.0423  0.0422
 1385SOL     OW 5612   3.099   1.953   2.248 -0.2585 -0.4660  0.2805
 1385SOL    HW2 5613   3.111   1.936   2.341 -0.2609  0.1918  0.4019
 1385SOL    HW3 5614   3.172   2.010   2.224 -0.0984 -0.8626 -0.1831
 1385SOL    MW4 5615   3.110   1.958   2.257 -0.2375 -0.4315  0.2356
 1386SOL     OW 5616   3.330   2.078   2.145 -0.2757  0.1448 -0.2034
 1386SOL    HW2 5617   3.409   2.027   2.162 -1.6946 -1.9399  0.3986
 1386SOL    HW3 5618   3.323   2.080   2.049  0.0127 -0.4920 -0.2417
 1386SOL    MW4 5619   3.339   2.072   2.134 -0.4249 -0.2146 -0.1287
 1387SOL     OW 5620   3.366   2.348   2.203 -0.0711 -0.5704 -0.4931
 1387SOL    HW2 5621   3.293   2.399   2.168  1.4697  1.7489 -0.4821
 1387SOL    HW3 5622   3.343   2.257   2.185 -3.4407  0.0074  0.4626
 1387SOL    MW4 5623   3.353   2.343   2.196 -0.3126 -0.1881 -0.3657
 1388SOL     OW 5624   3.132   2.476   2.091  0.1470  0.0024  0.9036
 1388SOL    HW2 5625   3.124   2.563   2.129  0.0776 -0.2764  1.5322
 1388SOL    HW3 5626   3.051   2.431   2.115 -0.0129 -0.0908  0.1987
 1388SOL    MW4 5627   3.121   2.481   2.099  0.1171 -0.0467  0.8936
 1389SOL     OW 5628   3.131   2.724   2.238  0.2695 -0.1430 -0.5980
 1389SOL    HW2 5629   3.111   2.701   2.328 -0.3494  0.9372 -0.4537
 1389SOL    HW3 5630   3.051   2.764   2.205 -0.1089 -2.1139 -2.1795
 1389SOL    MW4 5631   3.118   2.726   2.245  0.1378 -0.2601 -0.7880
 1390SOL     OW 5632   3.363   2.819   2.115  0.1123  0.1838 -0.0178
 1390SOL    HW2 5633   3.373   2.908   2.149 -1.6542  0.2253  0.4005
 1390SOL    HW3 5634   3.292   2.781   2.166  1.1458 -1.6377  0.1102
 1390SOL    MW4 5635   3.355   2.826   2.126  0.0160 -0.0510  0.0544
 1391SOL     OW 5636   3.356   3.078   2.206  0.2318  0.0959 -0.3973
 1391SOL    HW2 5637   3.431   3.131   2.178  0.7056 -0.4865 -0.2465
 1391SOL    HW3 5638   3.280   3.121   2.166  0.7262  0.2258 -1.2092
 1391SOL    MW4 5639   3.356   3.091   2.197  0.3593  0.0360 -0.4842
 1392SOL     OW 5640   3.133   3.204   2.096 -0.3098  0.1490 -0.0005
 1392SOL    HW2 5641   3.141   3.292   2.133  0.9850 -0.5923  1.5526
 1392SOL    HW3 5642   3.059   3.165   2.144 -0.6960  0.2945 -0.4800
 1392SOL    MW4 5643   3.124   3.210   2.107 -0.1898  0.0706  0.1411
 1393SOL     OW 5644   3.144   3.448   2.235  0.2323 -0.1597  0.1515
 1393SOL    HW2 5645   3.133   3.467   2.328  0.3691 -0.4481  0.2269
 1393SOL    HW3 5646   3.227   3.489   2.212 -0.7701  1.6790 -0.3256
 1393SOL    MW4 5647   3.153   3.456   2.245  0.1180  0.0448  0.0985
 1394SOL     OW 5648   3.359   3.614   2.092 -0.3206 -0.3736  0.6517
 1394SOL    HW2 5649   3.434   3.562   2.122  0.6336  0.8202  0.3880
 1394SOL    HW3 5650   3.366   3.613   1.997 -0.4205  0.0305  0.6365
 1394SOL    MW4 5651   3.370   3.607   2.084 -0.2077 -0.1628  0.6151
 1395SOL     OW 5652   3.375   3.861   2.203 -0.4120  0.2118 -0.1382
 1395SOL    HW2 5653   3.454   3.908   2.175 -0.9910  1.1239 -0.2834
 1395SOL    HW3 5654   3.377   3.779   2.153  0.5123  0.1719 -0.0382
 1395SOL    MW4 5655   3.386   3.857   2.192 -0.3664  0.3269 -0.1442
 1396SOL     OW 5656   3.174   3.974   2.060 -0.1197  0.2225  0.0029
 1396SOL    HW2 5657   3.246   3.939   2.114 -0.7758  0.7554  1.2424
 1396SOL    HW3 5658   3.095   3.945   2.104 -0.6730  0.6507 -0.6991
 1396SOL    MW4 5659   3.173   3.965   2.073 -0.2789  0.3490  0.0739
 1397SOL     OW 5660   3.159   4.246   2.175 -0.1369 -0.1121  0.5034
 1397SOL    HW2 5661   3.252   4.266   2.164 -0.0559 -0.6394  0.2247
 1397SOL    HW3 5662   3.149   4.157   2.143 -0.8656  0.1785 -0.1011
 1397SOL    MW4 5663   3.170   4.237   2.170 -0.2222 -0.1435  0.3867
 1398SOL     OW 5664   3.404   4.362   2.096 -0.2388  0.4345 -0.1165
 1398SOL    HW2 5665   3.403   4.453   2.128  0.1100  0.2462  0.4353
 1398SOL    HW3 5666   3.405   4.370   2.001 -0.5791  1.0079 -0.0751
 1398SOL    MW4 5667   3.404   4.375   2.088 -0.2377  0.4849 -0.0384
 1399SOL     OW 5668   3.808   4.639   2.224 -0.1128  0.0122 -0.5116
 1399SOL    HW2 5669   3.823   4.614   2.315 -0.5287 -0.7748 -0.6523
 1399SOL    HW3 5670   3.886   4.689   2.199 -0.4320  1.0681  0.5605
 1399SOL    MW4 5671   3.820   4.642   2.233 -0.2096  0.0477 -0.3889
 1400SOL     OW 5672   3.595   0.141   2.105  0.5082 -0.1050  0.5056
 1400SOL    HW2 5673   3.576   0.227   2.143  0.0826 -0.4301  1.0433
 1400SOL    HW3 5674   3.673   0.112   2.151  1.0495  0.2859 -0.1590
 1400SOL    MW4 5675   3.603   0.149   2.116  0.5233 -0.0963  0.4890
 1401SOL     OW 5676   3.579   0.385   2.229  0.0778  0.1937  0.0403
 1401SOL    HW2 5677   3.602   0.378   2.321  1.2804  3.2470  0.0434
 1401SOL    HW3 5678   3.657   0.422   2.187 -0.1371 -1.9283 -2.3727
 1401SOL    MW4 5679   3.592   0.389   2.235  0.2081  0.3166 -0.2780
 1402SOL     OW 5680   3.805   0.512   2.149 -0.0339 -0.2622  0.1019
 1402SOL    HW2 5681   3.820   0.599   2.187 -2.1197 -0.5909  1.7852
 1402SOL    HW3 5682   3.885   0.464   2.169 -0.2666  0.2198  2.3063
 1402SOL    MW4 5683   3.818   0.517   2.157 -0.3397 -0.2421  0.6146
 1403SOL     OW 5684   3.824   0.803   2.204 -0.3710  0.6511  0.0795
 1403SOL    HW2 5685   3.802   0.787   2.295  1.7715  0.6058  0.6085
 1403SOL    HW3 5686   3.906   0.852   2.207 -1.0138  1.9208 -1.7908
 1403SOL    MW4 5687   3.832   0.808   2.216 -0.1729  0.8126 -0.0975
 1404SOL     OW 5688   3.588   0.872   2.099 -0.1842 -0.2424 -0.1254
 1404SOL    HW2 5689   3.674   0.846   2.131 -0.0997 -1.2340 -1.1282
 1404SOL    HW3 5690   3.603   0.898   2.008 -0.7168  0.8680  0.0924
 1404SOL    MW4 5691   3.601   0.872   2.091 -0.2432 -0.2267 -0.2291
 1405SOL     OW 5692   3.619   1.135   2.199  0.3539  0.2904  0.1729
 1405SOL    HW2 5693   3.592   1.124   2.290  0.0153  0.2707  0.0701
 1405SOL    HW3 5694   3.602   1.050   2.158  0.3972  0.3349  0.0607
 1405SOL    MW4 5695   3.614   1.122   2.206  0.3150  0.2937  0.1445
 1406SOL     OW 5696   3.853   1.300   1.801 -0.0074 -0.5202  0.0701
 1406SOL    HW2 5697   3.838   1.313   1.894  0.4136 -1.5774  0.2862
 1406SOL    HW3 5698   3.776   1.252   1.770  0.1271 -0.6852 -0.0090
 1406SOL    MW4 5699   3.841   1.295   1.809  0.0660 -0.6815  0.0881
 1407SOL     OW 5700   3.826   1.533   2.230 -0.6757  0.1728 -0.1549
 1407SOL    HW2 5701   3.809   1.502   2.319 -0.5190  1.3658  0.3017
 1407SOL    HW3 5702   3.757   1.597   2.213  0.2168  1.1277 -0.2787
 1407SOL    MW4 5703   3.815   1.537   2.239 -0.5369  0.4562 -0.1111
 1408SOL     OW 5704   3.604   1.689   2.139  0.3017  0.4160  0.3017
 1408SOL    HW2 5705   3.526   1.635   2.149  0.8428 -0.4365 -0.0284
 1408SOL    HW3 5706   3.611   1.705   2.045  0.1343  1.0878  0.3969
 1408SOL    MW4 5707   3.594   1.684   2.128  0.3507  0.3922  0.2706
 1409SOL     OW 5708   3.552   1.942   2.204  0.0487 -0.4417 -0.5230
 1409SOL    HW2 5709   3.630   1.984   2.167 -0.9650  1.1924 -0.8501
 1409SOL    HW3 5710   3.561   1.850   2.181  2.1136 -0.3439 -0.1754
 1409SOL    MW4 5711   3.564   1.936   2.196  0.1874 -0.2133 -0.5205
 1410SOL     OW 5712   3.793   2.050   2.083  0.0404 -0.0187 -0.3951
 1410SOL    HW2 5713   3.860   1.987   2.111  0.1119 -0.6388 -1.9196
 1410SOL    HW3 5714   3.810   2.063   1.990 -0.9851  1.0335 -0.4394
 1410SOL    MW4 5715   3.804   2.043   2.074 -0.0851  0.0384 -0.6025
 1411SOL     OW 5716   3.813   2.297   2.201 -0.3041 -0.0673  0.0159
 1411SOL    HW2 5717   3.734   2.347   2.179 -0.5443 -0.7266 -0.6397
 1411SOL    HW3 5718   3.800   2.213   2.159  1.1817  0.1432 -0.8884
 1411SOL    MW4 5719   3.801   2.293   2.193 -0.1397 -0.1266 -0.1900
 1412SOL     OW 5720   3.596   2.465   2.099 -0.1797  0.0660 -0.4495
 1412SOL    HW2 5721   3.510   2.431   2.125 -1.2549  2.1566 -1.1192
 1412SOL    HW3 5722   3.601   2.448   2.005  0.7698 -1.3050 -0.1726
 1412SOL    MW4 5723   3.585   2.458   2.090 -0.1962  0.1607 -0.5012
 1413SOL     OW 5724   3.597   2.699   2.219  0.0536 -0.0100  0.2528
 1413SOL    HW2 5725   3.595   2.610   2.185 -0.7303 -0.7426  2.1652
 1413SOL    HW3 5726   3.526   2.744   2.172 -0.7352 -0.8815  0.6043
 1413SOL    MW4 5727   3.587   2.693   2.208 -0.1538 -0.2217  0.5517
 1414SOL     OW 5728   3.811   2.837   2.112  0.0254 -0.2393 -0.1058
 1414SOL    HW2 5729   3.799   2.926   2.146 -1.7977 -0.7708  0.7310
 1414SOL    HW3 5730   3.742   2.786   2.154  1.2050 -2.1209 -0.3755
 1414SOL    MW4 5731   3.800   2.842   2.122 -0.0594 -0.5574 -0.0310
 1415SOL     OW 5732   3.797   3.090   2.209  0.1514  0.4271 -0.2923
 1415SOL    HW2 5733   3.813   3.079   2.303 -1.7882 -0.6913 -0.0709
 1415SOL    HW3 5734   3.881   3.119   2.174  0.9615  0.6451  1.7498
 1415SOL    MW4 5735   3.810   3.093   2.217  0.0026  0.3085  0.0064
 1416SOL     OW 5736   3.579   3.211   2.134 -0.3183  0.3140  0.6263
 1416SOL    HW2 5737   3.580   3.295   2.178  0.4177 -0.6779  2.5556
 1416SOL    HW3 5738   3.663   3.170   2.156 -0.2786 -0.5711 -1.0069
 1416SOL    MW4 5739   3.590   3.217   2.143 -0.2160  0.0665  0.6652
 1417SOL     OW 5740   3.564   3.465   2.210  0.1391  0.1738 -0.4227
 1417SOL    HW2 5741   3.563   3.465   2.306 -1.1482  0.6862 -0.4221
 1417SOL    HW3 5742   3.638   3.521   2.187  0.8060 -0.4185  0.2736
 1417SOL    MW4 5743   3.573   3.472   2.220  0.0572  0.1633 -0.3307
 1418SOL     OW 5744   3.791   3.608   2.132  0.0772 -0.1856  0.0252
 1418SOL    HW2 5745   3.806   3.695   2.171 -0.8576  0.2102 -0.4963
 1418SOL    HW3 5746   3.787   3.625   2.038  0.5143 -0.8944 -0.1234
 1418SOL    MW4 5747   3.793   3.622   2.125  0.0114 -0.2270 -0.0632
 1419SOL     OW 5748   3.835   3.856   2.213 -0.2994 -0.6445 -0.3269
 1419SOL    HW2 5749   3.828   3.842   2.307  0.8350 -3.0112 -0.5649
 1419SOL    HW3 5750   3.916   3.907   2.203 -0.6569 -0.0040 -0.0018
 1419SOL    MW4 5751   3.845   3.861   2.224 -0.1972 -0.8721 -0.3154
 1420SOL     OW 5752   3.607   4.000   2.125 -0.1268 -0.2519  0.4747
 1420SOL    HW2 5753   3.616   4.084   2.171 -0.0947 -0.2449  0.4556
 1420SOL    HW3 5754   3.689   3.954   2.144  0.7692  0.5705 -1.2309
 1420SOL    MW4 5755   3.619   4.005   2.134 -0.0041 -0.1421  0.2470
 1421SOL     OW 5756   3.609   4.250   2.233 -0.3488  0.3266  0.2651
 1421SOL    HW2 5757   3.690   4.279   2.192 -0.2615 -0.9119 -0.4614
 1421SOL    HW3 5758   3.541   4.304   2.194 -0.2120 -0.5353 -1.2015
 1421SOL    MW4 5759   3.611   4.261   2.222 -0.3190  0.0486 -0.0243
 1422SOL     OW 5760   3.836   4.378   2.119  0.2687 -0.0474 -0.4542
 1422SOL    HW2 5761   3.915   4.346   2.163 -1.2419  0.1151  2.4720
 1422SOL    HW3 5762   3.826   4.468   2.151 -1.1345 -0.0929 -0.7507
 1422SOL    MW4 5763   3.845   4.386   2.129 -0.1159 -0.0319 -0.1073
 1423SOL     OW 5764   4.486   0.152   1.860  0.1116  0.4377 -0.1816
 1423SOL    HW2 5765   4.567   0.113   1.826  0.2970 -0.2764  1.0503
 1423SOL    HW3 5766   4.478   0.235   1.813  1.3869  0.3649 -0.5551
 1423SOL    MW4 5767   4.496   0.158   1.849  0.3043  0.3339 -0.0684
 1424SOL     OW 5768   4.035   0.080   2.118  0.1438 -0.6905  0.0022
 1424SOL    HW2 5769   4.050   0.173   2.137 -0.5573 -1.0812  2.5493
 1424SOL    HW3 5770   4.118   0.038   2.141  0.2270 -0.7991 -0.4911
 1424SOL    MW4 5771   4.048   0.087   2.123  0.0625 -0.7563  0.2730
 1425SOL     OW 5772   4.016   0.353   2.241  0.4996 -0.4271  0.2206
 1425SOL    HW2 5773   4.098   0.398   2.216 -0.1117  1.3284  1.3097
 1425SOL    HW3 5774   4.017   0.353   2.336 -0.6776 -0.5873  0.2318
 1425SOL    MW4 5775   4.027   0.359   2.250  0.2637 -0.2167  0.3660
 1426SOL     OW 5776   4.467   0.322   2.502  0.0877 -0.0855  0.2696
 1426SOL    HW2 5777   4.539   0.367   2.547 -0.7157  0.4294  1.0717
 1426SOL    HW3 5778   4.469   0.357   2.413  0.4982  0.3243  0.4380
 1426SOL    MW4 5779   4.477   0.333   2.496  0.0358  0.0365  0.3977
 1427SOL     OW 5780   4.268   0.472   2.130  0.1028 -0.2420 -0.2111
 1427SOL    HW2 5781   4.275   0.554   2.178  1.0217 -0.6818  0.4056
 1427SOL    HW3 5782   4.350   0.426   2.147 -0.4530 -1.3508 -0.4379
 1427SOL    MW4 5783   4.280   0.476   2.138  0.1507 -0.4463 -0.1595
 1428SOL     OW 5784   4.073   0.908   2.173  0.2672  0.0188 -0.1910
 1428SOL    HW2 5785   4.088   0.907   2.078 -0.7695 -1.6294 -0.3639
 1428SOL    HW3 5786   4.058   1.000   2.194 -1.0116  0.2371 -1.9017
 1428SOL    MW4 5787   4.073   0.920   2.163 -0.0381 -0.1699 -0.4394
 1429SOL     OW 5788   3.805   1.308   2.077  0.1973 -0.3096  0.2518
 1429SOL    HW2 5789   3.749   1.247   2.125  0.1128 -1.0309 -0.7553
 1429SOL    HW3 5790   3.811   1.384   2.134  0.0220 -1.1174  1.3732
 1429SOL    MW4 5791   3.798   1.310   2.091  0.1628 -0.5112  0.2670
 1430SOL     OW 5792   0.014   1.138   2.205  0.5993 -0.3349  0.2708
 1430SOL    HW2 5793   0.010   1.044   2.186  0.8880 -0.4644  0.8248
 1430SOL    HW3 5794  -0.002   1.143   2.300 -0.0791  0.2283  0.1235
 1430SOL    MW4 5795   0.011   1.126   2.215  0.5479 -0.2776  0.3245
 1431SOL     OW 5796   4.280   1.517   2.212 -0.3860 -0.3091 -0.2781
 1431SOL    HW2 5797   4.285   1.430   2.174  0.4012 -0.5439  0.3308
 1431SOL    HW3 5798   4.361   1.560   2.184 -0.0496 -0.3026  0.6597
 1431SOL    MW4 5799   4.292   1.511   2.203 -0.2379 -0.3393 -0.0739
 1432SOL     OW 5800   4.036   1.646   2.120 -0.6048 -0.2765  0.1523
 1432SOL    HW2 5801   4.113   1.598   2.152 -1.1264 -0.8945  0.4965
 1432SOL    HW3 5802   3.962   1.602   2.162 -1.2255 -0.4061 -1.0644
 1432SOL    MW4 5803   4.036   1.634   2.130 -0.7558 -0.3753  0.0370
 1433SOL     OW 5804   4.038   1.924   2.166  0.3210  0.2228  0.5145
 1433SOL    HW2 5805   4.025   1.930   2.260  1.7964 -0.4202  0.7803
 1433SOL    HW3 5806   4.051   1.831   2.149 -1.6549  0.1180 -0.5811
 1433SOL    MW4 5807   4.038   1.913   2.176  0.2546  0.1241  0.4051
 1434SOL     OW 5808   4.254   2.087   2.106  0.2303 -0.3539  0.2583
 1434SOL    HW2 5809   4.243   2.170   2.153 -0.9208 -0.1417 -0.3427
 1434SOL    HW3 5810   4.182   2.032   2.138  0.1506 -0.6213 -0.3696
 1434SOL    MW4 5811   4.243   2.091   2.116  0.0682 -0.3612  0.0961
 1435SOL     OW 5812   4.210   2.343   2.226 -0.3825  0.1450  0.0247
 1435SOL    HW2 5813   4.134   2.375   2.177 -0.9952 -1.0696  0.1518
 1435SOL    HW3 5814   4.286   2.381   2.181 -1.1251  2.6746  0.8678
 1435SOL    MW4 5815   4.210   2.352   2.213 -0.5617  0.3185  0.1528
 1436SOL     OW 5816   4.014   2.425   2.049 -0.0603  0.4195  0.2812
 1436SOL    HW2 5817   4.026   2.501   2.106  1.5570  0.2979  0.1278
 1436SOL    HW3 5818   3.938   2.380   2.084  0.8025  0.4390  2.2478
 1436SOL    MW4 5819   4.006   2.429   2.061  0.2666  0.4060  0.5205
 1437SOL     OW 5820   4.032   2.677   2.193 -0.0072  0.3475 -0.1103
 1437SOL    HW2 5821   4.021   2.690   2.287 -0.3261  0.1682 -0.1204
 1437SOL    HW3 5822   3.969   2.737   2.153  0.0522  0.3447 -0.2070
 1437SOL    MW4 5823   4.022   2.687   2.200 -0.0410  0.3233 -0.1247
 1438SOL     OW 5824   4.252   2.834   2.120 -0.0532 -0.5033  0.3880
 1438SOL    HW2 5825   4.183   2.774   2.148 -1.2376  1.1967  1.1673
 1438SOL    HW3 5826   4.333   2.793   2.153 -0.7006 -2.2772 -0.1423
 1438SOL    MW4 5827   4.253   2.820   2.128 -0.2952 -0.5131  0.4208
 1439SOL     OW 5828   4.276   3.083   2.220  0.4052  0.1024  0.2198
 1439SOL    HW2 5829   4.259   2.995   2.188 -0.8791 -0.2636  1.8297
 1439SOL    HW3 5830   4.352   3.113   2.170 -0.7476 -0.9217 -2.1739
 1439SOL    MW4 5831   4.284   3.075   2.209  0.0839 -0.0808  0.1163
 1440SOL     OW 5832   4.041   3.196   2.098 -0.0847 -0.4931 -0.2196
 1440SOL    HW2 5833   4.021   3.284   2.130 -1.6136 -0.7400 -0.4284
 1440SOL    HW3 5834   4.107   3.163   2.158  0.0005  0.5394  0.2745
 1440SOL    MW4 5835   4.047   3.203   2.110 -0.2751 -0.3896 -0.1819
 1441SOL     OW 5836   3.999   3.432   2.221  0.3147 -0.3684  0.2520
 1441SOL    HW2 5837   4.081   3.472   2.191  0.3706 -0.0007  0.8886
 1441SOL    HW3 5838   3.933   3.499   2.205  0.3136 -0.2453  0.7696
 1441SOL    MW4 5839   4.001   3.446   2.215  0.3223 -0.3037  0.4044
 1442SOL     OW 5840   4.198   3.608   2.108 -0.4125 -0.7563  0.7106
 1442SOL    HW2 5841   4.219   3.688   2.156 -0.8967 -0.9473  1.2526
 1442SOL    HW3 5842   4.230   3.624   2.019  0.0910 -0.2241  0.9850
 1442SOL    MW4 5843   4.205   3.620   2.102 -0.4101 -0.7114  0.8183
 1443SOL     OW 5844   4.282   3.840   2.237  0.3934  0.2855 -0.0578
 1443SOL    HW2 5845   4.303   3.851   2.330  0.3640 -1.0594  0.1227
 1443SOL    HW3 5846   4.346   3.894   2.191  0.0636  1.3892  0.7705
 1443SOL    MW4 5847   4.293   3.849   2.243  0.3457  0.2537  0.0753
 1444SOL     OW 5848   4.070   4.004   2.156 -0.4688 -0.1463 -0.0253
 1444SOL    HW2 5849   4.147   3.956   2.186 -0.4005  0.4737  0.8100
 1444SOL    HW3 5850   4.067   3.988   2.061 -0.5041 -1.8616  0.2433
 1444SOL    MW4 5851   4.080   3.996   2.147 -0.4644 -0.2906  0.1202
 1445SOL     OW 5852   4.061   4.270   2.235 -0.1191  0.4925 -0.0178
 1445SOL    HW2 5853   4.142   4.311   2.203 -1.0008  2.0701 -0.2748
 1445SOL    HW3 5854   4.061   4.183   2.194  1.1733  0.6767 -0.4527
 1445SOL    MW4 5855   4.072   4.264   2.225 -0.0648  0.7248 -0.1090
 1446SOL     OW 5856   4.265   4.629   2.216  0.0135 -0.2174 -0.3708
 1446SOL    HW2 5857   4.263   4.612   2.310  0.0099  1.6814 -0.0024
 1446SOL    HW3 5858   4.348   4.674   2.201  0.3746 -1.2068 -1.4165
 1446SOL    MW4 5859   4.275   4.633   2.226  0.0606 -0.0968 -0.4601
 1447SOL     OW 5860   0.223   4.639   2.534 -0.2121  0.0812 -0.3116
 1447SOL    HW2 5861   0.222   4.549   2.564  0.1912  0.0741 -0.3223
 1447SOL    HW3 5862   0.140   4.676   2.566  1.3919  0.8425  3.1266
 1447SOL    MW4 5863   0.212   4.632   2.542  0.0528  0.1807  0.1409
 1448SOL     OW 5864   4.472   0.065   2.615  0.2053  0.3647  0.1155
 1448SOL    HW2 5865   4.451   0.079   2.708 -0.4813 -0.1019  0.0321
 1448SOL    HW3 5866   4.466   0.152   2.576 -0.6129  0.3859  0.2849
 1448SOL    MW4 5867   4.468   0.078   2.622  0.0068  0.3059  0.1268
 1449SOL     OW 5868   4.263   0.448   2.926 -0.1652 -0.1479 -0.0159
 1449SOL    HW2 5869   4.275   0.543   2.929 -0.1957 -0.1623  0.5583
 1449SOL    HW3 5870   4.247   0.429   2.833  1.1285  0.2484 -0.3313
 1449SOL    MW4 5871   4.263   0.458   2.914  0.0019 -0.0975  0.0184
 1450SOL     OW 5872   4.249   0.449   2.645 -0.5844  0.6719 -0.3757
 1450SOL    HW2 5873   4.232   0.532   2.602 -1.8919  0.2371 -0.7222
 1450SOL    HW3 5874   4.316   0.407   2.590  1.0694  2.0358  0.5342
 1450SOL    MW4 5875   4.256   0.454   2.632 -0.5388  0.7945 -0.3016
 1451SOL     OW 5876   0.217   0.735   2.470 -0.1292  0.2808  0.2202
 1451SOL    HW2 5877   0.281   0.773   2.530 -2.2781  0.3355  2.6241
 1451SOL    HW3 5878   0.205   0.645   2.503 -0.9285  0.1227 -0.4856
 1451SOL    MW4 5879   0.224   0.728   2.483 -0.5182  0.2671  0.4444
 1452SOL     OW 5880   4.486   0.870   2.550  0.1177  0.0528 -1.0280
 1452SOL    HW2 5881   4.408   0.816   2.534  0.5445  0.2664 -4.3374
 1452SOL    HW3 5882   4.558   0.819   2.513  1.1971  0.8945 -0.1086
 1452SOL    MW4 5883   4.485   0.856   2.543  0.3157  0.1920 -1.3433
 1453SOL     OW 5884   4.455   1.137   2.479 -0.2083  0.0630 -0.4725
 1453SOL    HW2 5885   4.538   1.174   2.508  1.0814 -0.8244 -2.8727
 1453SOL    HW3 5886   4.463   1.043   2.495 -0.7069 -0.0364 -0.7912
 1453SOL    MW4 5887   4.467   1.129   2.485 -0.1040 -0.0671 -0.8314
 1454SOL     OW 5888   0.192   1.236   2.592  0.2880  0.2168 -0.2194
 1454SOL    HW2 5889   0.273   1.190   2.570 -0.4212 -0.9284 -0.4650
 1454SOL    HW3 5890   0.207   1.326   2.561  1.3854 -0.0277 -0.4327
 1454SOL    MW4 5891   0.205   1.242   2.585  0.3392  0.0334 -0.2799
 1455SOL     OW 5892   0.228   1.495   2.489  0.0393 -0.2635 -0.2812
 1455SOL    HW2 5893   0.305   1.550   2.506  0.0389 -0.3811  0.1054
 1455SOL    HW3 5894   0.153   1.551   2.508  0.0320 -0.1981 -0.5048
 1455SOL    MW4 5895   0.228   1.509   2.494  0.0383 -0.2702 -0.2599
 1456SOL     OW 5896   0.002   1.655   2.588  0.3654  0.3332 -0.1122
 1456SOL    HW2 5897  -0.017   1.662   2.682 -1.1130  0.7311 -0.4223
 1456SOL    HW3 5898  -0.011   1.744   2.555 -0.9008 -0.1702 -0.9950
 1456SOL    MW4 5899  -0.002   1.668   2.596  0.0029  0.3192 -0.2697
 1457SOL     OW 5900   4.436   1.918   2.508  0.1092 -0.5637 -0.1000
 1457SOL    HW2 5901   4.445   1.921   2.412 -2.0851 -1.0764 -0.3543
 1457SOL    HW3 5902   4.521   1.945   2.541  1.4202 -1.9680 -2.2163
 1457SOL    MW4 5903   4.448   1.922   2.499 -0.0076 -0.8166 -0.4129
 1458SOL     OW 5904   0.203   2.022   2.593  0.5642 -0.3648 -0.0158
 1458SOL    HW2 5905   0.272   1.971   2.550  0.5993 -0.2045 -0.1481
 1458SOL    HW3 5906   0.202   2.105   2.547 -0.0749 -0.5601 -0.3576
 1458SOL    MW4 5907   0.212   2.026   2.581  0.4845 -0.3693 -0.0784
 1459SOL     OW 5908   0.178   2.262   2.456  0.5252 -0.0511 -0.1593
 1459SOL    HW2 5909   0.258   2.299   2.493  0.2283  0.1697  0.2692
 1459SOL    HW3 5910   0.109   2.322   2.483  0.0718 -0.7888  0.3434
 1459SOL    MW4 5911   0.179   2.274   2.464  0.4262 -0.1190 -0.0362
 1460SOL     OW 5912   4.465   2.411   2.546  1.0971  0.2305  0.1951
 1460SOL    HW2 5913   4.480   2.421   2.641 -0.0602 -1.2646  0.5449
 1460SOL    HW3 5914   4.384   2.361   2.540  1.4343 -0.1093 -1.6034
 1460SOL    MW4 5915   4.456   2.406   2.558  0.9890 -0.0114  0.0038
 1461SOL     OW 5916   4.484   2.679   2.472 -0.1907 -0.2336 -0.5556
 1461SOL    HW2 5917   4.393   2.704   2.491 -0.0473 -1.5584  2.1566
 1461SOL    HW3 5918   4.487   2.585   2.489  1.6719 -0.2074 -0.6525
 1461SOL    MW4 5919   4.472   2.670   2.477  0.0739 -0.4051 -0.2105
 1462SOL     OW 5920   0.214   2.809   2.605 -0.4442 -0.2565 -0.0960
 1462SOL    HW2 5921   0.207   2.896   2.564 -0.4777 -0.2648 -0.1075
 1462SOL    HW3 5922   0.134   2.764   2.579  0.6010 -1.0773 -1.9192
 1462SOL    MW4 5923   0.203   2.815   2.596 -0.3107 -0.3662 -0.3383
 1463SOL     OW 5924   0.207   3.082   2.503 -0.2278  0.1848 -0.0159
 1463SOL    HW2 5925   0.143   3.150   2.519  1.1240  1.2392  1.0145
 1463SOL    HW3 5926   0.289   3.116   2.539  1.3538 -0.3205 -2.9174
 1463SOL    MW4 5927   0.209   3.095   2.510  0.1592  0.2573 -0.2625
 1464SOL     OW 5928   4.474   3.221   2.632  0.2667  0.2261  0.0940
 1464SOL    HW2 5929   4.401   3.169   2.600  1.3476 -0.6925 -0.9148
 1464SOL    HW3 5930   4.474   3.299   2.576  1.7248 -1.0528 -1.7542
 1464SOL    MW4 5931   4.464   3.225   2.621  0.6013 -0.0637 -0.2828
 1465SOL     OW 5932   4.466   3.448   2.468  0.1171  0.0410  0.7539
 1465SOL    HW2 5933   4.405   3.506   2.513  0.9129 -0.1766  2.1373
 1465SOL    HW3 5934   4.553   3.474   2.499  0.7474  0.3409 -1.1874
 1465SOL    MW4 5935   4.470   3.459   2.478  0.3057  0.0517  0.6802
 1466SOL     OW 5936   0.206   3.585   2.588 -0.2807  0.4587 -0.2450
 1466SOL    HW2 5937   0.207   3.610   2.680  0.1588  2.6112 -0.7965
 1466SOL    HW3 5938   0.293   3.550   2.571 -0.5554 -0.4935  0.2927
 1466SOL    MW4 5939   0.217   3.584   2.598 -0.2590  0.6170 -0.2470
 1467SOL     OW 5940   0.199   3.846   2.501  0.0565  0.1183  0.2956
 1467SOL    HW2 5941   0.201   3.752   2.521  1.1790  0.0569 -0.0591
 1467SOL    HW3 5942   0.210   3.851   2.406 -1.1877  0.5698  0.1636
 1467SOL    MW4 5943   0.201   3.834   2.491  0.0405  0.1698  0.2313
 1468SOL     OW 5944   0.013   3.987   2.648 -0.4123  0.1372 -0.1166
 1468SOL    HW2 5945   0.089   3.938   2.616 -1.5440 -0.3672 -2.1333
 1468SOL    HW3 5946   0.022   4.073   2.606 -0.7254  0.2301  0.0101
 1468SOL    MW4 5947   0.024   3.992   2.638 -0.6029  0.0832 -0.3660
 1469SOL     OW 5948   0.030   4.242   2.537 -0.0484 -0.2963  0.1577
 1469SOL    HW2 5949  -0.048   4.280   2.577  0.3931  1.0076 -0.1760
 1469SOL    HW3 5950   0.103   4.289   2.579  0.4323  0.9519 -1.9724
 1469SOL    MW4 5951   0.030   4.254   2.548  0.0732  0.0396 -0.1671
 1470SOL     OW 5952   0.232   4.391   2.646 -0.0643  0.7193  0.0025
 1470SOL    HW2 5953   0.228   4.383   2.741 -0.9206  3.3000  0.1972
 1470SOL    HW3 5954   0.308   4.337   2.621  1.4338  1.6537  2.3504
 1470SOL    MW4 5955   0.242   4.383   2.655  0.0204  1.1835  0.3378
 1471SOL     OW 5956   0.680   4.641   2.504 -0.0080  0.3316  0.5524
 1471SOL    HW2 5957   0.755   4.696   2.524  0.9371 -1.1698  1.1662
 1471SOL    HW3 5958   0.604   4.692   2.532  0.9317  0.7623  2.3251
 1471SOL    MW4 5959   0.680   4.655   2.510  0.2406  0.1907  0.8674
 1472SOL     OW 5960   0.455   0.112   2.604 -0.3563 -0.0188 -0.2486
 1472SOL    HW2 5961   0.457   0.115   2.700  0.6731 -0.5195 -0.2491
 1472SOL    HW3 5962   0.373   0.066   2.584  0.9127 -2.7715  0.4884
 1472SOL    MW4 5963   0.444   0.106   2.614 -0.0531 -0.4481 -0.1514
 1473SOL     OW 5964   0.416   0.359   2.499 -0.4175  0.4444  0.8487
 1473SOL    HW2 5965   0.485   0.413   2.538  1.3634 -2.0503  1.2793
 1473SOL    HW3 5966   0.419   0.277   2.549 -3.3726  0.0744  0.5358
 1473SOL    MW4 5967   0.425   0.356   2.511 -0.5724  0.0664  0.8645
 1474SOL     OW 5968   0.623   0.486   2.612  0.0018  0.1899 -0.3083
 1474SOL    HW2 5969   0.629   0.488   2.708 -1.1614 -1.3002 -0.1805
 1474SOL    HW3 5970   0.708   0.452   2.583 -0.2519 -0.9768  0.2928
 1474SOL    MW4 5971   0.635   0.482   2.621 -0.1852 -0.1606 -0.2122
 1475SOL     OW 5972   0.657   0.722   2.488 -0.4495  0.1503 -0.0552
 1475SOL    HW2 5973   0.726   0.778   2.524  0.3143  0.0516 -1.3584
 1475SOL    HW3 5974   0.666   0.640   2.536 -0.3134  0.4632  0.4704
 1475SOL    MW4 5975   0.667   0.719   2.499 -0.3308  0.1786 -0.1578
 1476SOL     OW 5976   0.426   0.853   2.615 -0.0429 -0.3981 -0.5822
 1476SOL    HW2 5977   0.423   0.941   2.576 -1.5986 -0.6409 -1.0500
 1476SOL    HW3 5978   0.504   0.813   2.578 -0.6066 -0.0454 -2.1952
 1476SOL    MW4 5979   0.436   0.860   2.605 -0.3225 -0.3836 -0.8569
 1477SOL     OW 5980   0.409   1.104   2.488 -0.3315  0.0578  0.1042
 1477SOL    HW2 5981   0.494   1.131   2.521 -0.2912  0.7911 -0.5889
 1477SOL    HW3 5982   0.421   1.097   2.393 -1.0721  0.2947 -0.0138
 1477SOL    MW4 5983   0.421   1.106   2.480 -0.4239  0.1857 -0.0026
 1478SOL     OW 5984   0.642   1.191   2.591  0.0249  0.2185 -0.0576
 1478SOL    HW2 5985   0.665   1.198   2.684  0.5590 -2.1995  0.0282
 1478SOL    HW3 5986   0.726   1.187   2.546 -0.2351  1.5481 -0.6737
 1478SOL    MW4 5987   0.656   1.191   2.597  0.0610  0.0749 -0.1276
 1479SOL     OW 5988   0.678   1.455   2.509  0.6653  0.4503 -0.6242
 1479SOL    HW2 5989   0.617   1.528   2.508  2.1957  1.7625 -0.8743
 1479SOL    HW3 5990   0.627   1.381   2.541 -1.2166  1.3493 -1.4767
 1479SOL    MW4 5991   0.664   1.455   2.513  0.6189  0.7421 -0.7696
 1480SOL     OW 5992   0.493   1.643   2.560 -0.3163  0.1462  0.1887
 1480SOL    HW2 5993   0.489   1.654   2.655 -0.7644 -0.1370  0.2010
 1480SOL    HW3 5994   0.467   1.728   2.525  1.0631  0.6507  0.3211
 1480SOL    MW4 5995   0.489   1.656   2.568 -0.1934  0.1754  0.2077
 1481SOL     OW 5996   0.428   1.886   2.463  0.0658  0.0717 -0.1806
 1481SOL    HW2 5997   0.489   1.946   2.506 -0.2108  0.1515  0.0989
 1481SOL    HW3 5998   0.441   1.901   2.369 -0.5058  1.0705 -0.1036
 1481SOL    MW4 5999   0.438   1.896   2.456 -0.0461  0.2141 -0.1335
 1482SOL     OW 6000   0.627   2.049   2.576  0.1996  0.2853  0.0394
 1482SOL    HW2 6001   0.626   2.047   2.672 -1.2717 -2.0686  0.0108
 1482SOL    HW3 6002   0.712   2.014   2.552  0.4265  0.5218  0.4970
 1482SOL    MW4 6003   0.638   2.044   2.586  0.0355  0.0057  0.0958
 1483SOL     OW 6004   0.662   2.305   2.449 -0.4472  0.3673  0.1370
 1483SOL    HW2 6005   0.733   2.346   2.498  1.4650 -0.9389 -1.4515
 1483SOL    HW3 6006   0.651   2.219   2.491  0.0611 -0.0889 -0.6501
 1483SOL    MW4 6007   0.670   2.299   2.461 -0.1278  0.1345 -0.1767
 1484SOL     OW 6008   0.394   2.380   2.576  0.1421  0.0685 -0.5165
 1484SOL    HW2 6009   0.368   2.470   2.556  0.5877  0.3954  0.3318
 1484SOL    HW3 6010   0.471   2.365   2.521 -1.5832 -0.7902 -2.7870
 1484SOL    MW4 6011   0.401   2.390   2.566 -0.0267 -0.0017 -0.7041
 1485SOL     OW 6012   0.410   2.657   2.476 -0.0123  0.5748 -0.3182
 1485SOL    HW2 6013   0.488   2.698   2.512 -1.0009  1.4180  0.8948
 1485SOL    HW3 6014   0.337   2.704   2.516 -1.1785 -2.0614  0.7610
 1485SOL    MW4 6015   0.411   2.668   2.486 -0.2967  0.3383 -0.0155
 1486SOL     OW 6016   0.642   2.840   2.566 -0.6543  0.0969 -0.0413
 1486SOL    HW2 6017   0.662   2.840   2.659 -1.2794  0.8817  0.1091
 1486SOL    HW3 6018   0.648   2.932   2.541  0.0973 -0.1877 -0.9093
 1486SOL    MW4 6019   0.645   2.853   2.575 -0.6375  0.1628 -0.1359
 1487SOL     OW 6020   0.675   3.123   2.496  0.1175  0.0407  0.3995
 1487SOL    HW2 6021   0.760   3.143   2.535  0.0210 -2.5552  2.0917
 1487SOL    HW3 6022   0.695   3.094   2.407  0.9590  0.1849  0.5375
 1487SOL    MW4 6023   0.689   3.121   2.489  0.2158 -0.2828  0.6409
 1488SOL     OW 6024   0.429   3.222   2.595 -0.0434 -0.4173  0.0748
 1488SOL    HW2 6025   0.429   3.210   2.690 -0.8469 -0.2520  0.1031
 1488SOL    HW3 6026   0.512   3.186   2.566  0.4091 -0.0416  0.8955
 1488SOL    MW4 6027   0.440   3.216   2.604 -0.0897 -0.3457  0.1867
 1489SOL     OW 6028   0.446   3.475   2.494  0.0811  0.0800 -0.2322
 1489SOL    HW2 6029   0.450   3.383   2.520  0.2726 -0.3174 -1.6541
 1489SOL    HW3 6030   0.419   3.473   2.403  2.2468  1.3335 -0.9441
 1489SOL    MW4 6031   0.443   3.463   2.485  0.3922  0.1929 -0.5136
 1490SOL     OW 6032   0.683   3.589   2.594  0.7436  0.3880  0.2326
 1490SOL    HW2 6033   0.670   3.600   2.688  0.6565  1.5067  0.0935
 1490SOL    HW3 6034   0.601   3.551   2.563  1.1571 -0.9685  0.7644
 1490SOL    MW4 6035   0.670   3.585   2.602  0.7867  0.3569  0.2844
 1491SOL     OW 6036   0.674   3.856   2.518 -0.0219  0.3671  0.1191
 1491SOL    HW2 6037   0.588   3.881   2.552  0.3220  1.5468  0.1446
 1491SOL    HW3 6038   0.686   3.765   2.547 -1.4125  0.0619 -0.2022
 1491SOL    MW4 6039   0.664   3.847   2.526 -0.1600  0.4823  0.0801
 1492SOL     OW 6040   0.438   3.953   2.612  0.0061  0.6081 -0.3587
 1492SOL    HW2 6041   0.432   4.046   2.590  1.5646  0.5110 -1.3549
 1492SOL    HW3 6042   0.372   3.911   2.557 -0.0303  1.0197 -0.6347
 1492SOL    MW4 6043   0.429   3.960   2.602  0.2069  0.6495 -0.5262
 1493SOL     OW 6044   0.412   4.221   2.532  0.1183 -0.2506  0.1296
 1493SOL    HW2 6045   0.500   4.246   2.560 -0.0253  1.9605 -1.2439
 1493SOL    HW3 6046   0.410   4.243   2.438 -1.3406 -1.8818 -0.2407
 1493SOL    MW4 6047   0.423   4.227   2.523 -0.0931 -0.1740 -0.1004
 1494SOL     OW 6048   0.635   4.400   2.615 -0.3724  0.0552  0.3066
 1494SOL    HW2 6049   0.719   4.363   2.588  0.3872  0.7304  1.6756
 1494SOL    HW3 6050   0.631   4.485   2.572  0.4261  0.7473  1.5901
 1494SOL    MW4 6051   0.645   4.406   2.606 -0.1668  0.2360  0.6564
 1495SOL     OW 6052   1.135   4.635   2.502  0.1793  0.3612 -0.4227
 1495SOL    HW2 6053   1.199   4.691   2.546  1.4216 -0.6771 -0.8644
 1495SOL    HW3 6054   1.145   4.550   2.544  0.4781 -0.3108 -1.8407
 1495SOL    MW4 6055   1.145   4.631   2.513  0.3825  0.1359 -0.6678
 1496SOL     OW 6056   0.898   0.102   2.589 -0.0384 -0.1511 -0.4161
 1496SOL    HW2 6057   0.895   0.075   2.681  0.6848  0.1243 -0.3139
 1496SOL    HW3 6058   0.969   0.050   2.552 -0.0557  0.0516 -0.7280
 1496SOL    MW4 6059   0.907   0.091   2.596  0.0547 -0.0880 -0.4435
 1497SOL     OW 6060   0.859   0.373   2.526  0.2804  0.2541 -0.1401
 1497SOL    HW2 6061   0.865   0.282   2.557 -0.5902  0.3845  0.4392
 1497SOL    HW3 6062   0.881   0.368   2.433 -1.3703 -0.8081 -0.4930
 1497SOL    MW4 6063   0.863   0.360   2.518 -0.0523  0.1312 -0.1101
 1498SOL     OW 6064   1.080   0.519   2.620 -0.0172 -0.0456  0.4070
 1498SOL    HW2 6065   1.087   0.599   2.567  1.4621 -0.7266 -0.4623
 1498SOL    HW3 6066   0.999   0.477   2.590 -0.1988  0.5555  0.0514
 1498SOL    MW4 6067   1.070   0.524   2.609  0.1540 -0.0561  0.2453
 1499SOL     OW 6068   1.091   0.751   2.474  0.1885 -0.0172  0.0648
 1499SOL    HW2 6069   1.168   0.805   2.492  0.7120 -0.7469  0.0364
 1499SOL    HW3 6070   1.085   0.750   2.379 -0.3398  0.7050  0.0832
 1499SOL    MW4 6071   1.101   0.758   2.464  0.1878 -0.0182  0.0634
 1500SOL     OW 6072   0.861   0.864   2.576 -0.2981  0.2606  0.2400
 1500SOL    HW2 6073   0.859   0.844   2.670 -0.7760 -1.2201 -0.0615
 1500SOL    HW3 6074   0.941   0.822   2.545 -0.4443  0.2443 -0.1101
 1500SOL    MW4 6075   0.871   0.856   2.585 -0.3805  0.0632  0.1545
 1501SOL     OW 6076   0.918   1.118   2.450 -0.3755  0.5826  0.0577
 1501SOL    HW2 6077   0.912   1.025   2.473 -0.7407  0.8384  1.0504
 1501SOL    HW3 6078   0.930   1.119   2.355  0.1929 -0.4944  0.1115
 1501SOL    MW4 6079   0.918   1.106   2.441 -0.3487  0.4742  0.1957
 1502SOL     OW 6080   1.122   1.264   2.578  0.6647  0.1621 -0.0527
 1502SOL    HW2 6081   1.115   1.353   2.543  0.3497 -0.0408 -0.5123
 1502SOL    HW3 6082   1.054   1.215   2.531 -0.3789  0.0948  1.4855
 1502SOL    MW4 6083   1.112   1.269   2.567  0.4854  0.1266  0.0899
 1503SOL     OW 6084   1.143   1.528   2.499 -0.1355 -0.6158 -0.0182
 1503SOL    HW2 6085   1.056   1.563   2.516 -1.0140 -2.8554  0.1610
 1503SOL    HW3 6086   1.154   1.537   2.404  0.2476  1.4482  0.1958
 1503SOL    MW4 6087   1.133   1.534   2.488 -0.2010 -0.6391  0.0336
 1504SOL     OW 6088   0.870   1.637   2.575 -0.5126  0.2268 -0.2228
 1504SOL    HW2 6089   0.884   1.634   2.670 -0.2692  1.0350 -0.2321
 1504SOL    HW3 6090   0.812   1.563   2.557  1.7010 -1.6926  0.1626
 1504SOL    MW4 6091   0.864   1.627   2.585 -0.1885  0.0802 -0.1733
 1505SOL     OW 6092   0.859   1.919   2.485  0.0365 -0.1809  0.4161
 1505SOL    HW2 6093   0.932   1.965   2.525 -0.3735  1.1818 -0.3835
 1505SOL    HW3 6094   0.859   1.833   2.527  1.3273  0.2449  1.3076
 1505SOL    MW4 6095   0.868   1.914   2.496  0.1527  0.0550  0.4280
 1506SOL     OW 6096   1.099   2.043   2.578  0.2449 -0.1310  0.1047
 1506SOL    HW2 6097   1.183   2.000   2.557 -0.3521  0.2723 -3.4053
 1506SOL    HW3 6098   1.103   2.127   2.532 -1.7633  0.2394  0.5700
 1506SOL    MW4 6099   1.111   2.048   2.569 -0.0987 -0.0291 -0.2968
 1507SOL     OW 6100   1.092   2.310   2.512  0.4856  0.1914  0.5217
 1507SOL    HW2 6101   1.178   2.348   2.530  0.1517  1.5461 -0.7123
 1507SOL    HW3 6102   1.088   2.303   2.416 -0.6037 -0.2951  0.5903
 1507SOL    MW4 6103   1.103   2.314   2.502  0.2978  0.3061  0.3679
 1508SOL     OW 6104   0.861   2.424   2.612  0.0571  0.3135 -0.1978
 1508SOL    HW2 6105   0.856   2.512   2.575 -0.8060  0.0692 -0.6660
 1508SOL    HW3 6106   0.948   2.392   2.584  0.9026  1.4735  1.0488
 1508SOL    MW4 6107   0.872   2.431   2.603  0.0547  0.4342 -0.0951
 1509SOL     OW 6108   0.861   2.687   2.489 -0.1141 -0.1343  0.0142
 1509SOL    HW2 6109   0.938   2.741   2.507 -0.1174  0.1890 -0.9467
 1509SOL    HW3 6110   0.787   2.747   2.492 -0.2278 -0.2707 -0.0302
 1509SOL    MW4 6111   0.861   2.702   2.492 -0.1295 -0.1094 -0.1180
 1510SOL     OW 6112   1.083   2.832   2.565  0.0000  0.0000 -0.2348
 1510SOL    HW2 6113   1.106   2.825   2.658  0.0000  0.0000 -0.2362
 1510SOL    HW3 6114   1.158   2.795   2.519  0.0000  0.0000 -0.2392
 1510SOL    MW4 6115   1.096   2.826   2.571  0.0000  0.0000 -0.2353
 1511SOL     OW 6116   1.148   3.096   2.473  0.0000  0.0000  0.1148
 1511SOL    HW2 6117   1.122   3.007   2.496  0.0000  0.0000  0.1131
 1511SOL    HW3 6118   1.136   3.101   2.378  0.0000  0.0000  0.1148
 1511SOL    MW4 6119   1.143   3.085   2.464  0.0000  0.0000  0.1144
 1512SOL     OW 6120   0.919   3.208   2.598  0.0000  0.0000 -0.1880
 1512SOL    HW2 6121   0.902   3.287   2.547  0.0000  0.0000 -0.2029
 1512SOL    HW3 6122   1.006   3.179   2.568  0.0000  0.0000 -0.1757
 1512SOL    MW4 6123   0.928   3.215   2.587  0.0000  0.0000 -0.1881
 1513SOL     OW 6124   0.887   3.462   2.485  0.0000  0.0000  0.3698
 1513SOL    HW2 6125   0.961   3.508   2.526  0.0000  0.0000  0.3439
 1513SOL    HW3 6126   0.810   3.511   2.515  0.0000  0.0000  0.3973
 1513SOL    MW4 6127   0.887   3.475   2.494  0.0000  0.0000  0.3700
 1514SOL     OW 6128   1.102   3.599   2.593  0.0000  0.0000 -0.5594
 1514SOL    HW2 6129   1.101   3.626   2.685  0.0000  0.0000 -0.5616
 1514SOL    HW3 6130   1.100   3.681   2.544  0.0000  0.0000 -0.5657
 1514SOL    MW4 6131   1.102   3.613   2.599  0.0000  0.0000 -0.5608
 1515SOL     OW 6132   1.098   3.851   2.480  0.0000  0.0000  0.6587
 1515SOL    HW2 6133   1.178   3.889   2.518  0.0000  0.0000  0.6634
 1515SOL    HW3 6134   1.110   3.859   2.386  0.0000  0.0000  0.6593
 1515SOL    MW4 6135   1.110   3.857   2.473  0.0000  0.0000  0.6597
 1516SOL     OW 6136   0.893   4.008   2.603  0.0000  0.0000 -0.0382
 1516SOL    HW2 6137   0.958   3.964   2.548  0.0000  0.0000 -0.0233
 1516SOL    HW3 6138   0.809   3.970   2.576  0.0000  0.0000 -0.0619
 1516SOL    MW4 6139   0.891   3.997   2.592  0.0000  0.0000 -0.0391
 1517SOL     OW 6140   0.888   4.266   2.520  0.0000  0.0000  0.1324
 1517SOL    HW2 6141   0.892   4.174   2.545  0.0000  0.0000  0.1303
 1517SOL    HW3 6142   0.884   4.265   2.425  0.0000  0.0000  0.1323
 1517SOL    MW4 6143   0.888   4.254   2.511  0.0000  0.0000  0.1321
 1518SOL     OW 6144   1.144   4.351   2.600  0.0000  0.0000  0.5270
 1518SOL    HW2 6145   1.137   4.378   2.692  0.0000  0.0000  0.5265
 1518SOL    HW3 6146   1.055   4.327   2.575  0.0000  0.0000  0.5220
 1518SOL    MW4 6147   1.131   4.351   2.609  0.0000  0.0000  0.5264
 1519SOL     OW 6148   1.546   4.664   2.470 -0.3698 -0.3892 -0.0049
 1519SOL    HW2 6149   1.561   4.579   2.511  1.1488 -0.1042  0.0474
 1519SOL    HW3 6150   1.562   4.649   2.377 -2.8203 -0.7946 -0.3922
 1519SOL    MW4 6151   1.550   4.651   2.463 -0.4929 -0.4048 -0.0489
 1520SOL     OW 6152   1.352   0.147   2.600  0.3065 -0.2158  0.4471
 1520SOL    HW2 6153   1.343   0.227   2.548 -1.2139 -1.2915 -0.9872
 1520SOL    HW3 6154   1.433   0.107   2.569 -0.1160 -0.3791 -0.4822
 1520SOL    MW4 6155   1.361   0.152   2.589  0.0502 -0.3793  0.1354
 1521SOL     OW 6156   1.279   0.381   2.467  0.4017 -0.0554  0.0179
 1521SOL    HW2 6157   1.356   0.422   2.505  0.2734  0.8680 -0.6882
 1521SOL    HW3 6158   1.206   0.413   2.520  0.1945  1.4381 -1.1299
 1521SOL    MW4 6159   1.279   0.390   2.479  0.3575  0.2635 -0.2267
 1522SOL     OW 6160   1.503   0.447   2.612  0.2994  0.3615 -0.3845
 1522SOL    HW2 6161   1.589   0.413   2.588  0.6497  0.3802  0.8021
 1522SOL    HW3 6162   1.509   0.541   2.596  0.2886  0.2667 -0.9281
 1522SOL    MW4 6163   1.515   0.455   2.607  0.3443  0.3515 -0.2997
 1523SOL     OW 6164   1.542   0.727   2.525  0.2126  0.2177 -0.0351
 1523SOL    HW2 6165   1.479   0.796   2.546  0.5453  0.2400  0.9271
 1523SOL    HW3 6166   1.559   0.737   2.432  0.0311  1.2560  0.0383
 1523SOL    MW4 6167   1.536   0.738   2.516  0.2326  0.3576  0.1011
 1524SOL     OW 6168   1.340   0.898   2.572 -0.2655 -0.1384  0.2563
 1524SOL    HW2 6169   1.340   0.899   2.668  0.4350  0.9380  0.2592
 1524SOL    HW3 6170   1.356   0.989   2.547  1.7524 -0.7542 -0.8675
 1524SOL    MW4 6171   1.342   0.910   2.581  0.0932 -0.0777  0.1085
 1525SOL     OW 6172   1.369   1.173   2.489 -0.1009  0.2921 -0.3830
 1525SOL    HW2 6173   1.285   1.206   2.521  0.1557  0.9051 -0.3176
 1525SOL    HW3 6174   1.433   1.235   2.523  0.6561 -1.5906  1.6962
 1525SOL    MW4 6175   1.366   1.186   2.498  0.0328  0.1247 -0.1001
 1526SOL     OW 6176   1.618   1.290   2.595  0.0135 -0.2866 -0.0343
 1526SOL    HW2 6177   1.619   1.273   2.690 -0.4608 -0.0917  0.0064
 1526SOL    HW3 6178   1.686   1.232   2.560 -0.3213 -0.9128  0.3349
 1526SOL    MW4 6179   1.627   1.280   2.603 -0.0932 -0.3434  0.0196
 1527SOL     OW 6180   1.568   1.560   2.500 -0.4909  0.2394  0.4402
 1527SOL    HW2 6181   1.590   1.474   2.535 -0.2352  1.1122  2.5523
 1527SOL    HW3 6182   1.570   1.549   2.405  0.6107 -1.8100  0.6640
 1527SOL    MW4 6183   1.571   1.547   2.492 -0.3119  0.0840  0.7482
 1528SOL     OW 6184   1.353   1.689   2.597 -0.0566  0.3326  0.1967
 1528SOL    HW2 6185   1.423   1.643   2.550  0.3855  1.0659  0.1435
 1528SOL    HW3 6186   1.273   1.643   2.570  0.3380 -0.1436 -0.1823
 1528SOL    MW4 6187   1.352   1.677   2.587  0.0539  0.3664  0.1395
 1529SOL     OW 6188   1.364   1.947   2.494 -0.0501 -0.1081 -0.2624
 1529SOL    HW2 6189   1.368   1.854   2.514  0.0019 -0.0982 -0.2261
 1529SOL    HW3 6190   1.345   1.951   2.400 -1.2744 -0.1572 -0.0258
 1529SOL    MW4 6191   1.362   1.935   2.484 -0.2048 -0.1132 -0.2265
 1530SOL     OW 6192   1.585   2.063   2.613 -0.0500  0.4343 -0.6826
 1530SOL    HW2 6193   1.651   2.004   2.576 -0.8985 -1.3157  0.5636
 1530SOL    HW3 6194   1.505   2.043   2.564  0.2735  2.5143 -2.1512
 1530SOL    MW4 6195   1.583   2.053   2.601 -0.1192  0.4778 -0.7119
 1531SOL     OW 6196   1.593   2.313   2.462  0.3267  0.7499  0.4785
 1531SOL    HW2 6197   1.659   2.354   2.518  1.8000 -0.2676 -0.4554
 1531SOL    HW3 6198   1.583   2.225   2.499 -0.2174  0.7700  0.3751
 1531SOL    MW4 6199   1.601   2.307   2.474  0.4492  0.6182  0.3412
 1532SOL     OW 6200   1.354   2.402   2.586 -0.4826 -0.6493 -0.1391
 1532SOL    HW2 6201   1.348   2.492   2.555 -0.1261 -0.3212  0.7258
 1532SOL    HW3 6202   1.433   2.367   2.544  0.2348 -0.0764  0.7180
 1532SOL    MW4 6203   1.364   2.409   2.577 -0.3409 -0.5305  0.0885
 1533SOL     OW 6204   1.307   2.668   2.481 -0.4063  0.4613 -0.2619
 1533SOL    HW2 6205   1.384   2.724   2.496 -1.4001  1.7252  0.1680
 1533SOL    HW3 6206   1.310   2.648   2.388  0.2091  0.8506 -0.3342
 1533SOL    MW4 6207   1.318   2.673   2.471 -0.4562  0.6790 -0.2146
 1534SOL     OW 6208   1.523   2.858   2.550  0.1951 -0.3963  0.2338
 1534SOL    HW2 6209   1.535   2.854   2.645  1.7075  1.8296  0.1638
 1534SOL    HW3 6210   1.594   2.804   2.514 -0.0705 -0.8140  0.3259
 1534SOL    MW4 6211   1.534   2.850   2.557  0.3597 -0.1576  0.2367
 1535SOL     OW 6212   1.530   3.112   2.457 -0.3323  0.2402  0.0959
 1535SOL    HW2 6213   1.456   3.152   2.501  0.9462  0.0028  2.5128
 1535SOL    HW3 6214   1.532   3.022   2.490 -0.4009 -0.4855 -1.7944
 1535SOL    MW4 6215   1.520   3.106   2.467 -0.1727  0.1132  0.1655
 1536SOL     OW 6216   1.324   3.221   2.634  0.0396  0.3538  0.0821
 1536SOL    HW2 6217   1.265   3.183   2.570 -2.0234  2.0622  0.9023
 1536SOL    HW3 6218   1.335   3.312   2.606  0.1059  0.7809  1.4376
 1536SOL    MW4 6219   1.318   3.228   2.622 -0.2239  0.6356  0.3691
 1537SOL     OW 6220   1.340   3.464   2.517 -0.2006  0.0107 -0.0619
 1537SOL    HW2 6221   1.417   3.520   2.529  0.5485 -0.4787 -2.3823
 1537SOL    HW3 6222   1.267   3.515   2.552  0.7035  1.7860 -0.7199
 1537SOL    MW4 6223   1.341   3.478   2.523  0.0175  0.1805 -0.4549
 1538SOL     OW 6224   1.549   3.639   2.565  0.2145 -0.0519  0.1418
 1538SOL    HW2 6225   1.628   3.587   2.550  1.0604  0.9100  1.2179
 1538SOL    HW3 6226   1.531   3.628   2.659 -0.0990  0.9129  0.1930
 1538SOL    MW4 6227   1.557   3.630   2.576  0.2847  0.2024  0.2904
 1539SOL     OW 6228   1.585   3.912   2.506  0.3902 -0.3429 -0.1289
 1539SOL    HW2 6229   1.494   3.934   2.526  0.5798  0.1830  0.1785
 1539SOL    HW3 6230   1.593   3.819   2.527 -0.2529 -0.5507 -0.7886
 1539SOL    MW4 6231   1.574   3.903   2.511  0.3304 -0.3009 -0.1752
 1540SOL     OW 6232   1.310   3.978   2.580 -0.1025 -0.2199 -0.2516
 1540SOL    HW2 6233   1.339   3.987   2.671  0.0646  1.0101 -0.4193
 1540SOL    HW3 6234   1.323   4.064   2.542  1.0928 -1.0562 -1.8159
 1540SOL    MW4 6235   1.316   3.990   2.587  0.0771 -0.1681 -0.4802
 1541SOL     OW 6236   1.359   4.233   2.489  0.3712  0.6515 -0.2103
 1541SOL    HW2 6237   1.277   4.263   2.529  0.0882 -0.6274  0.1851
 1541SOL    HW3 6238   1.346   4.245   2.395 -0.6623 -0.4773 -0.2225
 1541SOL    MW4 6239   1.346   4.238   2.482  0.1974  0.3338 -0.1600
 1542SOL     OW 6240   1.543   4.411   2.597 -0.2313  0.1543  0.2839
 1542SOL    HW2 6241   1.527   4.424   2.690  1.4616  0.1292  0.6007
 1542SOL    HW3 6242   1.483   4.340   2.573 -2.4436  1.7900  0.7579
 1542SOL    MW4 6243   1.533   4.403   2.606 -0.2998  0.3672  0.3884
 1543SOL     OW 6244   2.012   4.647   2.508 -0.4354  0.1794  0.2480
 1543SOL    HW2 6245   2.082   4.695   2.551  0.2609 -1.8235  1.4563
 1543SOL    HW3 6246   2.023   4.666   2.415  0.9739  0.8251  0.5358
 1543SOL    MW4 6247   2.023   4.655   2.502 -0.1578  0.0003  0.4451
 1544SOL     OW 6248   1.767   0.113   2.595 -0.5622 -0.1934  0.1147
 1544SOL    HW2 6249   1.842   0.056   2.579 -0.1500  0.7051 -1.1118
 1544SOL    HW3 6250   1.696   0.073   2.545 -0.5591 -0.2407  0.1474
 1544SOL    MW4 6251   1.767   0.100   2.587 -0.5074 -0.0811 -0.0427
 1545SOL     OW 6252   1.735   0.360   2.506  0.8080 -0.2480 -0.1156
 1545SOL    HW2 6253   1.812   0.399   2.549  1.2097 -1.7697  0.5452
 1545SOL    HW3 6254   1.743   0.266   2.522  1.1477 -0.9153 -3.7747
 1545SOL    MW4 6255   1.746   0.353   2.513  0.9059 -0.5368 -0.5112
 1546SOL     OW 6256   1.968   0.463   2.599 -0.2724  0.8025  0.0732
 1546SOL    HW2 6257   2.047   0.414   2.576 -0.8689 -0.0255 -0.2349
 1546SOL    HW3 6258   1.994   0.555   2.593  0.8021  0.5230  0.4753
 1546SOL    MW4 6259   1.982   0.469   2.595 -0.2095  0.6563  0.0856
 1547SOL     OW 6260   2.030   0.735   2.527 -0.1382 -0.0254 -0.1511
 1547SOL    HW2 6261   1.949   0.778   2.552 -0.1963  0.3367 -0.9586
 1547SOL    HW3 6262   2.029   0.734   2.432  0.0520 -1.4561 -0.1514
 1547SOL    MW4 6263   2.019   0.740   2.518 -0.1206 -0.1664 -0.2577
 1548SOL     OW 6264   1.785   0.843   2.619  0.0377  0.1276  0.4011
 1548SOL    HW2 6265   1.778   0.935   2.593 -2.5256  0.3063  1.5960
 1548SOL    HW3 6266   1.714   0.799   2.573  1.3384 -1.3169 -0.2792
 1548SOL    MW4 6267   1.775   0.850   2.610 -0.1289 -0.0394  0.4692
 1549SOL     OW 6268   1.823   1.094   2.497  0.2748  0.3889 -0.1955
 1549SOL    HW2 6269   1.894   1.155   2.517  1.4595 -0.5811 -1.3734
 1549SOL    HW3 6270   1.816   1.096   2.402  0.3902 -1.3559 -0.2604
 1549SOL    MW4 6271   1.831   1.102   2.487  0.4462  0.0308 -0.3595
 1550SOL     OW 6272   1.999   1.283   2.595 -0.1602 -0.3025 -0.1636
 1550SOL    HW2 6273   1.981   1.298   2.688 -1.3640 -0.1917 -0.4061
 1550SOL    HW3 6274   2.089   1.249   2.593 -0.0429 -0.0852  1.0143
 1550SOL    MW4 6275   2.009   1.280   2.607 -0.3035 -0.2593 -0.0401
 1551SOL     OW 6276   2.038   1.527   2.477  0.4353  0.3989  0.2557
 1551SOL    HW2 6277   1.972   1.592   2.502  0.0758  0.0170  0.3055
 1551SOL    HW3 6278   2.003   1.444   2.511  0.9003  0.1848  0.2068
 1551SOL    MW4 6279   2.025   1.525   2.485  0.4492  0.3202  0.2561
 1552SOL     OW 6280   1.803   1.689   2.587  0.2053  0.2973  0.3284
 1552SOL    HW2 6281   1.796   1.678   2.682 -0.8301  1.3128  0.3748
 1552SOL    HW3 6282   1.729   1.639   2.552 -0.0610  0.8299  0.1230
 1552SOL    MW4 6283   1.792   1.681   2.595  0.0335  0.5016  0.3073
 1553SOL     OW 6284   1.804   1.950   2.492 -0.0524  0.0189 -0.2479
 1553SOL    HW2 6285   1.877   1.999   2.530 -0.6947  1.2690 -0.6123
 1553SOL    HW3 6286   1.821   1.859   2.518  1.8457  0.2218 -0.6747
 1553SOL    MW4 6287   1.816   1.944   2.501  0.1134  0.2106 -0.3524
 1554SOL     OW 6288   2.027   2.061   2.597 -0.1048  0.0992  0.0137
 1554SOL    HW2 6289   2.007   2.045   2.689  1.4693  1.0787  0.5523
 1554SOL    HW3 6290   2.034   2.156   2.590  0.0526  0.0179 -1.0666
 1554SOL    MW4 6291   2.025   2.071   2.608  0.1237  0.2179 -0.0577
 1555SOL     OW 6292   2.008   2.337   2.534 -0.3822 -0.3058  0.5256
 1555SOL    HW2 6293   2.080   2.395   2.560 -1.0161  0.8861 -0.2993
 1555SOL    HW3 6294   2.030   2.311   2.445  0.1240 -1.7150  1.0510
 1555SOL    MW4 6295   2.021   2.341   2.526 -0.3989 -0.3345  0.4859
 1556SOL     OW 6296   1.767   2.480   2.597  0.0883  0.0224 -0.3580
 1556SOL    HW2 6297   1.753   2.470   2.691 -0.8241  2.1962 -0.2287
 1556SOL    HW3 6298   1.853   2.440   2.581  1.8141  2.6186  1.9866
 1556SOL    MW4 6299   1.777   2.473   2.608  0.1955  0.6521 -0.0317
 1557SOL     OW 6300   1.772   2.740   2.498 -0.3277 -0.3263 -0.0184
 1557SOL    HW2 6301   1.771   2.653   2.538 -0.5886  0.1822  1.1183
 1557SOL    HW3 6302   1.852   2.780   2.530  0.3553 -0.5365 -1.4253
 1557SOL    MW4 6303   1.782   2.734   2.508 -0.2719 -0.2868 -0.0541
 1558SOL     OW 6304   2.017   2.856   2.570 -0.4830  0.3008  0.1665
 1558SOL    HW2 6305   2.006   2.949   2.551 -0.8761  0.0138 -1.0680
 1558SOL    HW3 6306   2.022   2.851   2.665  2.5810  1.9060  0.1451
 1558SOL    MW4 6307   2.016   2.868   2.580 -0.1309  0.4749  0.0010
 1559SOL     OW 6308   2.020   3.113   2.451  0.1484 -0.4911 -0.0039
 1559SOL    HW2 6309   1.930   3.135   2.474  0.4265 -0.0730  0.6868
 1559SOL    HW3 6310   2.020   3.111   2.355 -0.9980 -2.1724  0.0120
 1559SOL    MW4 6311   2.008   3.116   2.441  0.0339 -0.6576  0.0892
 1560SOL     OW 6312   1.767   3.224   2.547 -0.0255  0.1624  0.4294
 1560SOL    HW2 6313   1.757   3.308   2.502  0.1582  0.0403  0.1562
 1560SOL    HW3 6314   1.682   3.181   2.537 -0.5358  0.8628  1.7057
 1560SOL    MW4 6315   1.755   3.229   2.540 -0.0687  0.2384  0.5617
 1561SOL     OW 6316   1.767   3.497   2.468  0.3323 -1.0167  0.3203
 1561SOL    HW2 6317   1.853   3.533   2.493  0.3969 -0.4752 -0.6900
 1561SOL    HW3 6318   1.768   3.496   2.373 -0.4183 -1.9200  0.3119
 1561SOL    MW4 6319   1.779   3.501   2.459  0.2418 -1.0643  0.1857
 1562SOL     OW 6320   2.018   3.623   2.539 -0.0720  0.1404  0.3023
 1562SOL    HW2 6321   2.004   3.614   2.633 -1.2217  0.0154  0.1324
 1562SOL    HW3 6322   2.108   3.594   2.525 -0.0296 -0.2342  1.3078
 1562SOL    MW4 6323   2.028   3.618   2.549 -0.2182  0.0746  0.4125
 1563SOL     OW 6324   2.011   3.888   2.479  0.3660 -0.2580  0.2297
 1563SOL    HW2 6325   1.933   3.932   2.512  0.1593 -0.1526 -0.3992
 1563SOL    HW3 6326   2.001   3.797   2.505 -0.4187 -0.4323 -0.6608
 1563SOL    MW4 6327   1.999   3.882   2.486  0.2354 -0.2675  0.0293
 1564SOL     OW 6328   1.819   4.016   2.614 -0.2486 -0.9533 -0.1952
 1564SOL    HW2 6329   1.824   4.109   2.596 -1.3247 -0.8108  0.1899
 1564SOL    HW3 6330   1.731   3.991   2.586  0.3645 -2.0475 -1.1847
 1564SOL    MW4 6331   1.808   4.025   2.608 -0.3096 -1.0791 -0.2749
 1565SOL     OW 6332   1.792   4.286   2.516 -0.1941  0.1259 -0.5498
 1565SOL    HW2 6333   1.712   4.335   2.537 -0.6434 -1.2002  0.8721
 1565SOL    HW3 6334   1.789   4.277   2.421 -1.3911  0.6819 -0.5841
 1565SOL    MW4 6335   1.781   4.291   2.506 -0.4115  0.0243 -0.3667
 1566SOL     OW 6336   2.034   4.390   2.613 -0.0530 -0.5472 -0.1765
 1566SOL    HW2 6337   1.946   4.364   2.586  0.5508 -2.2003 -0.5917
 1566SOL    HW3 6338   2.041   4.482   2.586 -2.4838  0.3308  2.0056
 1566SOL    MW4 6339   2.023   4.399   2.606 -0.2937 -0.6499  0.0565
 1567SOL     OW 6340   2.479   4.606   2.525 -0.3060  0.2118 -0.3880
 1567SOL    HW2 6341   2.557   4.660   2.537 -1.5310  2.3676 -1.9091
 1567SOL    HW3 6342   2.463   4.607   2.430 -1.7132 -0.8946 -0.1883
 1567SOL    MW4 6343   2.487   4.613   2.514 -0.6533  0.3505 -0.5624
 1568SOL     OW 6344   2.255   0.085   2.595  0.1247  0.2321 -0.3279
 1568SOL    HW2 6345   2.271   0.094   2.689 -0.5774  0.1769 -0.2019
 1568SOL    HW3 6346   2.334   0.041   2.561 -0.4393 -1.4801  0.5408
 1568SOL    MW4 6347   2.268   0.081   2.603 -0.0424 -0.0011 -0.1967
 1569SOL     OW 6348   2.227   0.362   2.507 -0.4245  0.3658  0.1041
 1569SOL    HW2 6349   2.254   0.272   2.525 -0.9702  0.0827 -0.4820
 1569SOL    HW3 6350   2.225   0.369   2.412 -0.7140  0.9023  0.1434
 1569SOL    MW4 6351   2.231   0.351   2.497 -0.5348  0.3993  0.0319
 1570SOL     OW 6352   2.452   0.507   2.576 -0.1923  0.0109 -0.0495
 1570SOL    HW2 6353   2.469   0.491   2.669  1.3582 -0.3188 -0.3649
 1570SOL    HW3 6354   2.378   0.451   2.556  0.8702 -1.6458  0.4854
 1570SOL    MW4 6355   2.445   0.497   2.586  0.1523 -0.2511 -0.0205
 1571SOL     OW 6356   2.462   0.767   2.467  0.1050  0.3713  0.0824
 1571SOL    HW2 6357   2.383   0.801   2.510 -0.1763 -0.8554  0.5767
 1571SOL    HW3 6358   2.473   0.679   2.505  1.7706  0.5811  0.0842
 1571SOL    MW4 6359   2.453   0.760   2.478  0.2878  0.2371  0.1481
 1572SOL     OW 6360   2.256   0.895   2.581  0.2699 -0.6097  0.1902
 1572SOL    HW2 6361   2.261   0.881   2.676 -1.0129  0.4783  0.4293
 1572SOL    HW3 6362   2.177   0.848   2.554  0.2898 -0.3985 -0.2382
 1572SOL    MW4 6363   2.246   0.887   2.590  0.1032 -0.4382  0.1652
 1573SOL     OW 6364   2.235   1.165   2.522  0.0130  0.3573  0.5691
 1573SOL    HW2 6365   2.235   1.076   2.556  0.3455  0.0145 -0.3136
 1573SOL    HW3 6366   2.214   1.155   2.429 -0.2542  1.2246  0.5315
 1573SOL    MW4 6367   2.232   1.152   2.514  0.0217  0.4267  0.4478
 1574SOL     OW 6368   2.468   1.266   2.619 -0.1220  0.4796 -0.3642
 1574SOL    HW2 6369   2.535   1.204   2.588 -0.1330  1.3838 -2.3174
 1574SOL    HW3 6370   2.387   1.234   2.579 -0.8533 -0.5318  1.8896
 1574SOL    MW4 6371   2.466   1.253   2.609 -0.2198  0.4653 -0.3247
 1575SOL     OW 6372   2.514   1.531   2.511  0.3158  0.4050 -0.1994
 1575SOL    HW2 6373   2.426   1.557   2.539  0.8969  1.4587  0.6596
 1575SOL    HW3 6374   2.527   1.445   2.550 -0.9904 -0.5169 -1.7304
 1575SOL    MW4 6375   2.504   1.523   2.520  0.2203  0.4224 -0.2880
 1576SOL     OW 6376   2.252   1.617   2.606  0.1974  0.3299  0.4701
 1576SOL    HW2 6377   2.243   1.708   2.577 -1.3061 -0.1348 -0.6013
 1576SOL    HW3 6378   2.183   1.570   2.559  1.0659 -1.4014  0.8774
 1576SOL    MW4 6379   2.242   1.623   2.596  0.1135  0.0402  0.3822
 1577SOL     OW 6380   2.221   1.885   2.516 -0.3939  0.0037 -0.1219
 1577SOL    HW2 6381   2.153   1.936   2.560 -0.0271  0.9634 -0.6594
 1577SOL    HW3 6382   2.210   1.904   2.423 -0.0355 -0.6298 -0.2970
 1577SOL    MW4 6383   2.211   1.894   2.510 -0.2985  0.0466 -0.2158
 1578SOL     OW 6384   2.422   2.038   2.639  0.4398  0.2160 -0.0017
 1578SOL    HW2 6385   2.413   2.118   2.588 -1.1150 -0.7336 -1.2580
 1578SOL    HW3 6386   2.343   1.988   2.619  1.4143 -1.6559  0.7376
 1578SOL    MW4 6387   2.411   2.042   2.630  0.3631 -0.1562 -0.0696
 1579SOL     OW 6388   2.409   2.297   2.512 -0.5854  0.3092  0.4448
 1579SOL    HW2 6389   2.487   2.343   2.543  0.9145 -2.0921  0.3726
 1579SOL    HW3 6390   2.411   2.308   2.417 -0.9499  1.1581  0.5282
 1579SOL    MW4 6391   2.420   2.304   2.504 -0.4351  0.1044  0.4461
 1580SOL     OW 6392   2.238   2.502   2.602 -0.2694  0.9795  0.8019
 1580SOL    HW2 6393   2.239   2.510   2.698  0.6525 -1.3366  1.0025
 1580SOL    HW3 6394   2.301   2.434   2.583 -0.6508  1.2362 -1.4711
 1580SOL    MW4 6395   2.246   2.494   2.612 -0.1979  0.7076  0.5286
 1581SOL     OW 6396   2.261   2.743   2.472 -0.1289 -0.3933  0.0419
 1581SOL    HW2 6397   2.249   2.653   2.503 -1.3809 -0.6835 -1.2143
 1581SOL    HW3 6398   2.175   2.784   2.484  0.4824  0.6778  0.7469
 1581SOL    MW4 6399   2.248   2.736   2.478 -0.2131 -0.2904 -0.0310
 1582SOL     OW 6400   2.461   2.851   2.613 -0.7636  0.0829 -0.4518
 1582SOL    HW2 6401   2.470   2.940   2.579 -0.9261 -0.6042 -2.3611
 1582SOL    HW3 6402   2.380   2.818   2.574 -1.1523 -0.6242  0.9164
 1582SOL    MW4 6403   2.452   2.858   2.604 -0.8361 -0.1013 -0.5231
 1583SOL     OW 6404   2.473   3.096   2.469 -0.0283 -0.6378 -0.5601
 1583SOL    HW2 6405   2.405   3.154   2.503 -0.2701 -1.3203  0.1344
 1583SOL    HW3 6406   2.554   3.130   2.506 -0.3986 -1.9850  1.5671
 1583SOL    MW4 6407   2.474   3.108   2.478 -0.1092 -0.9055 -0.1879
 1584SOL     OW 6408   2.241   3.243   2.556 -0.0979  0.0461  0.0858
 1584SOL    HW2 6409   2.242   3.235   2.651 -0.9236  0.0061  0.0956
 1584SOL    HW3 6410   2.164   3.193   2.528  0.2609 -0.1209 -0.6213
 1584SOL    MW4 6411   2.231   3.235   2.565 -0.1595  0.0184 -0.0060
 1585SOL     OW 6412   2.263   3.511   2.482  0.3253  0.1145 -0.6453
 1585SOL    HW2 6413   2.337   3.544   2.533 -1.5208  0.5363  1.8564
 1585SOL    HW3 6414   2.263   3.417   2.498 -0.4340  0.2878  0.3862
 1585SOL    MW4 6415   2.273   3.503   2.491 -0.0184  0.1929 -0.1791
 1586SOL     OW 6416   2.495   3.615   2.605 -0.0291  0.1648 -0.0861
 1586SOL    HW2 6417   2.478   3.614   2.700 -0.7746 -1.3774 -0.2136
 1586SOL    HW3 6418   2.491   3.707   2.581  0.4790  0.6015  1.4414
 1586SOL    MW4 6419   2.492   3.627   2.615 -0.0603  0.0191  0.0987
 1587SOL     OW 6420   2.444   3.860   2.493  0.0187 -0.0754  0.0215
 1587SOL    HW2 6421   2.524   3.911   2.507  0.2083  0.4410 -2.7967
 1587SOL    HW3 6422   2.374   3.916   2.528  0.4602  1.1955 -1.1168
 1587SOL    MW4 6423   2.445   3.874   2.500  0.1020  0.1605 -0.5007
 1588SOL     OW 6424   2.244   3.999   2.591 -0.0411  0.0405  0.4461
 1588SOL    HW2 6425   2.241   4.001   2.687  0.2980 -0.6828  0.4735
 1588SOL    HW3 6426   2.159   3.962   2.566 -0.4667  1.0005  0.4317
 1588SOL    MW4 6427   2.232   3.994   2.600 -0.0525  0.0718  0.4480
 1589SOL     OW 6428   2.259   4.260   2.490  0.5308 -0.0015  0.2047
 1589SOL    HW2 6429   2.240   4.171   2.520 -0.0027  0.1646  0.3560
 1589SOL    HW3 6430   2.193   4.314   2.532  0.7795  0.4523  0.0113
 1589SOL    MW4 6431   2.248   4.255   2.500  0.4933  0.0806  0.1993
 1590SOL     OW 6432   2.482   4.347   2.639 -0.2158  0.0265  0.0772
 1590SOL    HW2 6433   2.401   4.310   2.604 -0.1667  0.3537 -0.3888
 1590SOL    HW3 6434   2.488   4.433   2.598 -0.3964  0.6107  1.2461
 1590SOL    MW4 6435   2.472   4.354   2.629 -0.2332  0.1464  0.1700
 1591SOL     OW 6436   2.923   0.005   2.492 -0.3372  0.6846  0.2285
 1591SOL    HW2 6437   3.009   0.047   2.501  0.5487 -0.8082 -0.9518
 1591SOL    HW3 6438   2.904   0.012   2.398 -1.9266  1.8078  0.6328
 1591SOL    MW4 6439   2.932   0.011   2.481 -0.4301  0.6356  0.1261
 1592SOL     OW 6440   2.688   0.120   2.596  0.5029 -0.0149  0.3726
 1592SOL    HW2 6441   2.684   0.122   2.692  2.1138 -0.4684  0.4680
 1592SOL    HW3 6442   2.779   0.095   2.577  0.0567 -0.4022 -1.2675
 1592SOL    MW4 6443   2.700   0.117   2.607  0.6564 -0.1258  0.1693
 1593SOL     OW 6444   2.661   0.379   2.493  0.2334  0.5326 -0.4274
 1593SOL    HW2 6445   2.645   0.288   2.516  0.9739 -0.4739 -3.6511
 1593SOL    HW3 6446   2.585   0.426   2.528 -0.3672 -1.3337  0.8991
 1593SOL    MW4 6447   2.649   0.373   2.501  0.2518  0.1535 -0.6776
 1594SOL     OW 6448   2.908   0.469   2.589  0.2326  0.1763 -0.3500
 1594SOL    HW2 6449   2.908   0.557   2.552 -1.0054 -0.8491 -2.9010
 1594SOL    HW3 6450   2.818   0.439   2.579  0.4096 -1.0296  1.4435
 1594SOL    MW4 6451   2.896   0.477   2.583  0.0925 -0.1181 -0.4499
 1595SOL     OW 6452   2.923   0.721   2.471 -0.2527 -0.2088 -0.2581
 1595SOL    HW2 6453   3.004   0.770   2.484 -0.0074 -0.3696 -1.1111
 1595SOL    HW3 6454   2.856   0.772   2.515  0.5512 -0.7897  1.6667
 1595SOL    MW4 6455   2.925   0.734   2.478 -0.1144 -0.3067 -0.1166
 1596SOL     OW 6456   2.696   0.857   2.590  0.1440  0.2825 -0.3011
 1596SOL    HW2 6457   2.695   0.841   2.684 -0.7216  3.8462  0.3698
 1596SOL    HW3 6458   2.607   0.837   2.561  0.5852 -1.4600 -0.5347
 1596SOL    MW4 6459   2.684   0.852   2.598  0.0880  0.5228 -0.2434
 1597SOL     OW 6460   2.703   1.131   2.542 -0.1298 -0.0005 -0.5019
 1597SOL    HW2 6461   2.782   1.178   2.569 -0.8644  0.5756  0.7157
 1597SOL    HW3 6462   2.725   1.039   2.552  0.1348  0.1708  0.6365
 1597SOL    MW4 6463   2.716   1.125   2.547 -0.1917  0.0980 -0.1910
 1598SOL     OW 6464   2.918   1.320   2.619  0.0859  0.3631  0.2637
 1598SOL    HW2 6465   2.932   1.314   2.714  0.4433  1.2381  0.2684
 1598SOL    HW3 6466   2.995   1.279   2.581 -0.7216 -1.2726  0.3601
 1598SOL    MW4 6467   2.930   1.314   2.627  0.0265  0.2627  0.2768
 1599SOL     OW 6468   2.890   1.576   2.502 -0.1751 -0.1246  0.4714
 1599SOL    HW2 6469   2.819   1.627   2.542 -0.8740 -0.7933  0.1049
 1599SOL    HW3 6470   2.883   1.490   2.543  0.4707 -0.1779  0.4760
 1599SOL    MW4 6471   2.880   1.571   2.513 -0.1819 -0.2198  0.4237
 1600SOL     OW 6472   2.695   1.719   2.618  0.6363 -0.9919  0.0089
 1600SOL    HW2 6473   2.707   1.707   2.712 -0.5175 -1.1523  0.1526
 1600SOL    HW3 6474   2.626   1.657   2.595 -0.7719  0.7069 -0.4833
 1600SOL    MW4 6475   2.687   1.709   2.627  0.2983 -0.7889 -0.0370
 1601SOL     OW 6476   2.650   1.962   2.500  0.0882  0.0138  0.3457
 1601SOL    HW2 6477   2.677   1.879   2.541 -1.0920 -0.6110 -0.1129
 1601SOL    HW3 6478   2.578   1.993   2.555 -0.5256 -0.0847 -0.3866
 1601SOL    MW4 6479   2.644   1.955   2.512 -0.1481 -0.0817  0.1884
 1602SOL     OW 6480   2.869   2.074   2.626  0.2557  0.1881 -0.3878
 1602SOL    HW2 6481   2.787   2.034   2.597  0.1524  1.3564 -1.7991
 1602SOL    HW3 6482   2.869   2.064   2.721 -0.4636 -1.8035 -0.5764
 1602SOL    MW4 6483   2.859   2.068   2.634  0.1471  0.0799 -0.5989
 1603SOL     OW 6484   2.863   2.318   2.471 -0.4711  0.4203  0.4086
 1603SOL    HW2 6485   2.874   2.230   2.507 -1.0544  0.1217 -0.1258
 1603SOL    HW3 6486   2.782   2.350   2.509 -0.6121  0.4617  0.0799
 1603SOL    MW4 6487   2.854   2.311   2.480 -0.5667  0.3865  0.2947
 1604SOL     OW 6488   2.640   2.423   2.593  0.2200  0.2315 -0.2028
 1604SOL    HW2 6489   2.656   2.414   2.687 -2.1307  1.0027  0.2986
 1604SOL    HW3 6490   2.647   2.517   2.576  1.3734  0.0168 -0.9530
 1604SOL    MW4 6491   2.643   2.434   2.603  0.0620  0.3049 -0.2356
 1605SOL     OW 6492   2.679   2.690   2.522  0.1564  0.2331  0.4258
 1605SOL    HW2 6493   2.753   2.740   2.557 -0.3706  1.9257 -0.8911
 1605SOL    HW3 6494   2.602   2.742   2.543 -0.2680  0.7883 -2.3284
 1605SOL    MW4 6495   2.679   2.703   2.530  0.0308  0.5298 -0.1113
 1606SOL     OW 6496   2.885   2.869   2.599 -0.3413  0.3351  0.1360
 1606SOL    HW2 6497   2.888   2.883   2.694 -0.4517  0.7441  0.0803
 1606SOL    HW3 6498   2.958   2.809   2.582  0.8439  1.7303  0.2317
 1606SOL    MW4 6499   2.895   2.863   2.609 -0.1996  0.5729  0.1411
 1607SOL     OW 6500   2.926   3.122   2.505 -0.4672  0.0311 -0.0346
 1607SOL    HW2 6501   2.902   3.033   2.533  2.0906 -0.9744 -0.8960
 1607SOL    HW3 6502   2.852   3.176   2.531 -1.8427 -2.2746  0.9911
 1607SOL    MW4 6503   2.913   3.117   2.512 -0.3111 -0.4058 -0.0131
 1608SOL     OW 6504   2.697   3.240   2.565 -0.2399  0.3208  0.3834
 1608SOL    HW2 6505   2.707   3.329   2.529 -0.9170  0.3537  0.2730
 1608SOL    HW3 6506   2.697   3.253   2.660  1.3118  0.2590  0.4066
 1608SOL    MW4 6507   2.698   3.254   2.573 -0.1245  0.3169  0.3719
 1609SOL     OW 6508   2.710   3.493   2.469 -0.0419  0.8507  0.1086
 1609SOL    HW2 6509   2.629   3.520   2.513 -0.4704  0.5555 -0.4984
 1609SOL    HW3 6510   2.780   3.532   2.522 -0.5702  0.9080  0.7725
 1609SOL    MW4 6511   2.709   3.502   2.482 -0.1683  0.8194  0.1161
 1610SOL     OW 6512   2.908   3.637   2.621 -0.8551 -0.3431  0.1891
 1610SOL    HW2 6513   2.892   3.620   2.714  1.8185 -0.3598  0.6849
 1610SOL    HW3 6514   2.979   3.577   2.598 -1.1687 -0.0041 -1.7498
 1610SOL    MW4 6515   2.915   3.627   2.630 -0.5436 -0.3004 -0.0010
 1611SOL     OW 6516   2.943   3.879   2.466 -0.5263  0.5073  0.1391
 1611SOL    HW2 6517   3.020   3.925   2.499  0.2960 -0.2914 -0.6347
 1611SOL    HW3 6518   2.925   3.811   2.531 -2.2238  2.3801  1.6928
 1611SOL    MW4 6519   2.950   3.876   2.479 -0.6416  0.6492  0.2422
 1612SOL     OW 6520   2.712   4.016   2.576 -0.3999 -0.1620 -0.2486
 1612SOL    HW2 6521   2.697   4.098   2.528 -0.6543  0.7056  1.3010
 1612SOL    HW3 6522   2.789   3.978   2.534 -1.1097  0.1573 -1.9094
 1612SOL    MW4 6523   2.720   4.022   2.564 -0.5271 -0.0052 -0.2632
 1613SOL     OW 6524   2.655   4.252   2.427 -0.2099 -0.2778 -0.0874
 1613SOL    HW2 6525   2.588   4.279   2.490  0.2506 -0.2599  0.3989
 1613SOL    HW3 6526   2.730   4.310   2.446 -0.2992  0.1668 -1.0795
 1613SOL    MW4 6527   2.656   4.264   2.438 -0.1607 -0.2170 -0.1540
 1614SOL     OW 6528   2.896   4.404   2.536  0.2826  0.0198  0.0106
 1614SOL    HW2 6529   2.909   4.398   2.631  0.9288  0.1210 -0.0663
 1614SOL    HW3 6530   2.892   4.498   2.518 -1.1235 -0.0141  0.0975
 1614SOL    MW4 6531   2.897   4.415   2.546  0.1822  0.0286  0.0119
 1615SOL     OW 6532   3.411   4.619   2.441 -0.2178  0.8837  0.0774
 1615SOL    HW2 6533   3.393   4.541   2.493 -2.4924 -0.1271 -2.1216
 1615SOL    HW3 6534   3.344   4.682   2.469 -0.7741  0.7033 -0.8137
 1615SOL    MW4 6535   3.400   4.617   2.452 -0.5913  0.7262 -0.3304
 1616SOL     OW 6536   3.195   0.084   2.564  0.7897 -0.2158 -0.2344
 1616SOL    HW2 6537   3.182   0.064   2.657 -2.1788 -2.6190 -1.0926
 1616SOL    HW3 6538   3.182   0.179   2.559 -1.7137 -0.4042  1.4468
 1616SOL    MW4 6539   3.191   0.094   2.576  0.0677 -0.5577 -0.1256
 1617SOL     OW 6540   3.154   0.361   2.513 -0.3491  0.0159 -0.3819
 1617SOL    HW2 6541   3.071   0.388   2.554 -0.7171 -0.3378 -0.8969
 1617SOL    HW3 6542   3.139   0.368   2.419  0.6312  1.2042 -0.4593
 1617SOL    MW4 6543   3.141   0.365   2.506 -0.2685  0.1260 -0.4601
 1618SOL     OW 6544   3.412   0.474   2.595  0.2829 -0.1215 -0.0422
 1618SOL    HW2 6545   3.408   0.567   2.571 -0.0037 -0.5562 -1.7996
 1618SOL    HW3 6546   3.329   0.438   2.564  0.6280 -1.0778  0.1238
 1618SOL    MW4 6547   3.401   0.482   2.587  0.2906 -0.3051 -0.2522
 1619SOL     OW 6548   3.365   0.715   2.497 -0.3658 -0.1111 -0.2478
 1619SOL    HW2 6549   3.417   0.785   2.536  1.5539 -1.9515  0.5886
 1619SOL    HW3 6550   3.402   0.702   2.410 -1.2774  0.4794 -0.7306
 1619SOL    MW4 6551   3.376   0.723   2.491 -0.2327 -0.2760 -0.2010
 1620SOL     OW 6552   3.135   0.881   2.565  0.5053 -0.0150 -0.1752
 1620SOL    HW2 6553   3.140   0.884   2.660 -1.4864  1.1887 -0.0852
 1620SOL    HW3 6554   3.218   0.841   2.538  1.3218  0.1188  2.0257
 1620SOL    MW4 6555   3.147   0.876   2.574  0.3500  0.1615  0.1271
 1621SOL     OW 6556   3.114   1.171   2.507  0.0059 -0.6965 -0.5164
 1621SOL    HW2 6557   3.141   1.090   2.549 -1.7112 -2.2206 -2.2908
 1621SOL    HW3 6558   3.129   1.157   2.413  1.4020  1.7108 -0.7076
 1621SOL    MW4 6559   3.119   1.159   2.500 -0.0362 -0.5800 -0.7756
 1622SOL     OW 6560   3.359   1.309   2.604 -0.4532  0.1239  0.2234
 1622SOL    HW2 6561   3.345   1.305   2.698 -1.4362  0.3196  0.0913
 1622SOL    HW3 6562   3.278   1.274   2.566  0.5665 -1.4729 -0.5221
 1622SOL    MW4 6563   3.346   1.304   2.611 -0.4485 -0.0610  0.1075
 1623SOL     OW 6564   3.386   1.547   2.471  0.1342 -0.3274 -0.1098
 1623SOL    HW2 6565   3.314   1.581   2.524 -0.8106 -3.0379  0.4083
 1623SOL    HW3 6566   3.410   1.465   2.513  2.7396 -0.0502 -1.0030
 1623SOL    MW4 6567   3.379   1.541   2.483  0.3533 -0.6485 -0.1593
 1624SOL     OW 6568   3.144   1.665   2.587  0.0880 -0.0384  0.5979
 1624SOL    HW2 6569   3.120   1.758   2.590  0.2629  0.0258 -0.0156
 1624SOL    HW3 6570   3.064   1.621   2.560  0.5023  0.1272 -0.9631
 1624SOL    MW4 6571   3.130   1.672   2.584  0.1657 -0.0080  0.3111
 1625SOL     OW 6572   3.101   1.932   2.534  0.3327  0.2576 -0.4275
 1625SOL    HW2 6573   3.178   1.978   2.569  0.4239  0.4107 -0.8310
 1625SOL    HW3 6574   3.027   1.985   2.563  0.2984 -0.4906  0.9226
 1625SOL    MW4 6575   3.102   1.945   2.543  0.3402  0.1791 -0.3028
 1626SOL     OW 6576   3.345   2.039   2.592  0.3859 -0.6385  0.0186
 1626SOL    HW2 6577   3.365   2.049   2.685  2.0414 -0.7658 -0.3026
 1626SOL    HW3 6578   3.338   2.128   2.558 -1.6237 -0.5778  0.5288
 1626SOL    MW4 6579   3.347   2.052   2.599  0.3390 -0.6473  0.0434
 1627SOL     OW 6580   3.349   2.302   2.486  0.2397 -0.0180 -0.5652
 1627SOL    HW2 6581   3.415   2.338   2.545  1.4989 -1.4348 -1.0958
 1627SOL    HW3 6582   3.368   2.343   2.401  0.9467 -1.0609 -0.9060
 1627SOL    MW4 6583   3.360   2.312   2.482  0.4992 -0.3426 -0.6802
 1628SOL     OW 6584   3.103   2.418   2.603  0.5630  0.0174 -0.2666
 1628SOL    HW2 6585   3.023   2.394   2.556  1.4878 -0.5097 -1.6254
 1628SOL    HW3 6586   3.174   2.392   2.543  1.8218 -1.7283  1.9251
 1628SOL    MW4 6587   3.102   2.412   2.589  0.8512 -0.2823 -0.1566
 1629SOL     OW 6588   3.073   2.674   2.508  0.8625  0.2651  0.1441
 1629SOL    HW2 6589   3.154   2.719   2.531  1.8386 -0.6702 -1.3937
 1629SOL    HW3 6590   3.085   2.585   2.542  0.5746  0.0573 -0.3035
 1629SOL    MW4 6591   3.085   2.668   2.516  0.9532  0.1140 -0.1178
 1630SOL     OW 6592   3.305   2.820   2.569  0.0783  0.0946  0.5031
 1630SOL    HW2 6593   3.294   2.820   2.664 -1.3229  0.1348  0.3467
 1630SOL    HW3 6594   3.386   2.770   2.555  0.6617  0.6640  1.7449
 1630SOL    MW4 6595   3.314   2.813   2.580 -0.0293  0.1752  0.6461
 1631SOL     OW 6596   3.354   3.091   2.495  0.3808  0.2726 -0.0138
 1631SOL    HW2 6597   3.341   3.001   2.527 -1.7270  1.0861  1.5882
 1631SOL    HW3 6598   3.339   3.085   2.401 -0.9487 -0.8801  0.2474
 1631SOL    MW4 6599   3.350   3.078   2.487 -0.0730  0.2277  0.2322
 1632SOL     OW 6600   3.140   3.225   2.624 -0.3222  0.4959 -0.0122
 1632SOL    HW2 6601   3.214   3.184   2.580  1.0470  2.0882  0.7337
 1632SOL    HW3 6602   3.063   3.193   2.577  0.9581  0.3776 -2.1013
 1632SOL    MW4 6603   3.140   3.215   2.612  0.0272  0.6902 -0.1898
 1633SOL     OW 6604   3.134   3.492   2.519  0.3204  0.2642 -0.3083
 1633SOL    HW2 6605   3.114   3.409   2.562 -2.3947  1.8249  1.5947
 1633SOL    HW3 6606   3.205   3.529   2.571  0.9196 -0.4234 -0.6201
 1633SOL    MW4 6607   3.141   3.486   2.532  0.0412  0.3793 -0.0985
 1634SOL     OW 6608   3.363   3.604   2.605 -0.0580 -0.4157  0.0669
 1634SOL    HW2 6609   3.367   3.604   2.701 -2.6584 -0.5449  0.1982
 1634SOL    HW3 6610   3.363   3.697   2.582  0.5582 -0.3845  0.1763
 1634SOL    MW4 6611   3.364   3.616   2.615 -0.3200 -0.4287  0.0989
 1635SOL     OW 6612   3.332   3.854   2.500 -0.5378 -0.2746  0.1940
 1635SOL    HW2 6613   3.414   3.892   2.531 -0.5821 -0.6651  0.8143
 1635SOL    HW3 6614   3.341   3.850   2.405  0.5765 -1.2669  0.3269
 1635SOL    MW4 6615   3.344   3.859   2.492 -0.3970 -0.4573  0.2935
 1636SOL     OW 6616   3.134   4.034   2.593  0.2073 -0.0387 -0.0496
 1636SOL    HW2 6617   3.143   4.117   2.546 -0.3304  0.5825  0.9396
 1636SOL    HW3 6618   3.206   3.980   2.559  0.7012  0.9061 -0.5324
 1636SOL    MW4 6619   3.145   4.037   2.582  0.2015  0.1674  0.0172
 1637SOL     OW 6620   3.134   4.273   2.455  0.3562  0.0178  0.0674
 1637SOL    HW2 6621   3.049   4.312   2.476  0.1770 -0.9306  1.1857
 1637SOL    HW3 6622   3.142   4.283   2.360  0.0456  2.1619  0.2572
 1637SOL    MW4 6623   3.124   4.279   2.445  0.2918  0.1755  0.2401
 1638SOL     OW 6624   3.386   4.359   2.577 -0.0382  0.4686 -0.0517
 1638SOL    HW2 6625   3.361   4.359   2.670 -0.5108 -1.5157 -0.1589
 1638SOL    HW3 6626   3.309   4.325   2.532 -0.5959  3.3740 -1.4422
 1638SOL    MW4 6627   3.372   4.355   2.583 -0.1740  0.5903 -0.2489
 1639SOL     OW 6628   3.837   4.602   2.498 -0.4946 -0.1523 -0.0575
 1639SOL    HW2 6629   3.852   4.514   2.534 -1.2453 -0.2777 -0.0373
 1639SOL    HW3 6630   3.763   4.636   2.548  0.3054  0.8186  0.4832
 1639SOL    MW4 6631   3.829   4.595   2.509 -0.4880 -0.0410  0.0167
 1640SOL     OW 6632   3.606   0.073   2.594  0.2368  0.2441  0.0669
 1640SOL    HW2 6633   3.615   0.160   2.555  1.2989  0.5073  0.8924
 1640SOL    HW3 6634   3.536   0.032   2.543 -1.2719  2.0828  0.5658
 1640SOL    MW4 6635   3.598   0.079   2.582  0.1779  0.5214  0.2415
 1641SOL     OW 6636   3.635   0.346   2.487  0.2053 -0.0188  0.3030
 1641SOL    HW2 6637   3.708   0.401   2.516  0.3337 -0.4494  0.7963
 1641SOL    HW3 6638   3.557   0.391   2.522  0.2507  0.3090 -0.0170
 1641SOL    MW4 6639   3.634   0.359   2.496  0.2279 -0.0324  0.3259
 1642SOL     OW 6640   3.861   0.533   2.566  0.3722 -0.4316  0.2555
 1642SOL    HW2 6641   3.829   0.529   2.656  0.9393  0.3572  0.4955
 1642SOL    HW3 6642   3.941   0.480   2.567  1.5473  1.3074  0.7277
 1642SOL    MW4 6643   3.867   0.525   2.578  0.6018 -0.0981  0.3495
 1643SOL     OW 6644   3.811   0.784   2.476 -0.1090  0.1437 -0.4763
 1643SOL    HW2 6645   3.728   0.812   2.516 -0.7203 -0.4126 -1.3376
 1643SOL    HW3 6646   3.832   0.702   2.520  0.5542  0.8346  0.5096
 1643SOL    MW4 6647   3.803   0.777   2.487 -0.1020  0.1614 -0.4599
 1644SOL     OW 6648   3.571   0.862   2.586 -0.6826  0.2150 -0.1964
 1644SOL    HW2 6649   3.569   0.880   2.680  1.4805  1.2630 -0.3263
 1644SOL    HW3 6650   3.560   0.948   2.545  1.2448  0.1517 -0.8786
 1644SOL    MW4 6651   3.569   0.876   2.593 -0.1431  0.3449 -0.3033
 1645SOL     OW 6652   3.567   1.121   2.489  0.4265 -0.4522 -0.0726
 1645SOL    HW2 6653   3.643   1.171   2.519  0.5843 -0.6012 -0.2250
 1645SOL    HW3 6654   3.491   1.170   2.523  0.5269  0.7952 -1.5757
 1645SOL    MW4 6655   3.567   1.134   2.498  0.4606 -0.3072 -0.2913
 1646SOL     OW 6656   3.794   1.257   2.592  0.1059  0.0349 -0.0474
 1646SOL    HW2 6657   3.867   1.211   2.551 -0.1704 -0.4055 -0.0465
 1646SOL    HW3 6658   3.809   1.350   2.572  0.3061 -0.1189 -0.6035
 1646SOL    MW4 6659   3.806   1.264   2.584  0.0961 -0.0436 -0.1204
 1647SOL     OW 6660   3.802   1.534   2.525 -0.2170  0.5895 -0.3233
 1647SOL    HW2 6661   3.883   1.584   2.541 -0.2216  0.9421 -1.3765
 1647SOL    HW3 6662   3.732   1.597   2.540 -0.2958  0.3270  0.4291
 1647SOL    MW4 6663   3.804   1.549   2.529 -0.2282  0.6014 -0.3629
 1648SOL     OW 6664   3.585   1.687   2.589 -0.2279  0.0766  0.1701
 1648SOL    HW2 6665   3.595   1.781   2.574 -0.3655  0.1872  0.7554
 1648SOL    HW3 6666   3.512   1.662   2.533 -1.9093  0.8262  1.9500
 1648SOL    MW4 6667   3.577   1.696   2.580 -0.4678  0.1899  0.4821
 1649SOL     OW 6668   3.592   1.941   2.467 -0.0309 -0.1351  0.6112
 1649SOL    HW2 6669   3.511   1.984   2.495  0.5398  1.5465 -0.2626
 1649SOL    HW3 6670   3.586   1.941   2.371  0.7312 -0.5695  0.5639
 1649SOL    MW4 6671   3.580   1.946   2.458  0.1450  0.0294  0.4895
 1650SOL     OW 6672   3.813   2.046   2.594 -0.6551 -0.1777 -0.3715
 1650SOL    HW2 6673   3.881   1.995   2.550  0.2890  0.4862  0.3275
 1650SOL    HW3 6674   3.732   2.017   2.552  0.0976 -0.5851 -1.5716
 1650SOL    MW4 6675   3.811   2.035   2.583 -0.4311 -0.1440 -0.4375
 1651SOL     OW 6676   3.787   2.328   2.518  0.2863 -0.5070  0.5244
 1651SOL    HW2 6677   3.806   2.236   2.538 -1.3660 -1.2510 -1.1081
 1651SOL    HW3 6678   3.778   2.329   2.422 -1.9462  0.8987  0.7195
 1651SOL    MW4 6679   3.789   2.316   2.508 -0.2265 -0.4196  0.3350
 1652SOL     OW 6680   3.552   2.433   2.612 -0.2336  0.1424 -0.0312
 1652SOL    HW2 6681   3.564   2.437   2.707  1.2075  2.4307 -0.2764
 1652SOL    HW3 6682   3.635   2.398   2.579 -0.8044 -0.8400 -0.4533
 1652SOL    MW4 6683   3.565   2.429   2.620 -0.1190  0.3147 -0.1192
 1653SOL     OW 6684   3.536   2.690   2.494  0.4745  0.2784  0.2088
 1653SOL    HW2 6685   3.532   2.596   2.509  2.7250  0.2585  0.7810
 1653SOL    HW3 6686   3.555   2.698   2.401 -1.7853  0.2238 -0.2829
 1653SOL    MW4 6687   3.538   2.679   2.484  0.4733  0.2685  0.2196
 1654SOL     OW 6688   3.774   2.798   2.602 -0.2398  0.4398 -0.1723
 1654SOL    HW2 6689   3.836   2.772   2.534 -1.3784 -0.2126 -0.9837
 1654SOL    HW3 6690   3.693   2.754   2.578 -0.4131 -0.5656  2.1436
 1654SOL    MW4 6691   3.771   2.789   2.590 -0.4127  0.2213  0.0262
 1655SOL     OW 6692   3.798   3.055   2.515 -0.3605 -0.1452 -0.0438
 1655SOL    HW2 6693   3.724   3.111   2.536  0.0803  0.7778 -0.9211
 1655SOL    HW3 6694   3.766   2.966   2.533 -1.2780  0.3285  0.7096
 1655SOL    MW4 6695   3.784   3.050   2.520 -0.4234  0.0391 -0.0601
 1656SOL     OW 6696   3.586   3.217   2.580 -0.0124 -0.0909 -0.2708
 1656SOL    HW2 6697   3.500   3.184   2.555  0.5355 -0.7790 -1.2669
 1656SOL    HW3 6698   3.588   3.208   2.676 -1.2070  0.3608 -0.1949
 1656SOL    MW4 6699   3.575   3.212   2.590 -0.0975 -0.1218 -0.3922
 1657SOL     OW 6700   3.592   3.475   2.483  0.4964 -0.0618 -0.3720
 1657SOL    HW2 6701   3.596   3.380   2.494  1.9576 -0.0412 -0.6829
 1657SOL    HW3 6702   3.513   3.501   2.531  0.0814 -1.4249 -0.2918
 1657SOL    MW4 6703   3.582   3.466   2.491  0.6344 -0.2391 -0.4022
 1658SOL     OW 6704   3.828   3.565   2.622 -0.4210  0.0741  0.1667
 1658SOL    HW2 6705   3.751   3.528   2.580  0.0852 -1.4882  0.5708
 1658SOL    HW3 6706   3.813   3.550   2.716  1.0179 -1.5624  0.1578
 1658SOL    MW4 6707   3.816   3.558   2.629 -0.1647 -0.3479  0.2184
 1659SOL     OW 6708   3.602   3.980   2.565  0.2927  0.2975 -0.9454
 1659SOL    HW2 6709   3.619   4.072   2.547  0.1434  0.3007 -1.0659
 1659SOL    HW3 6710   3.689   3.940   2.568  0.4363  0.6927  0.4352
 1659SOL    MW4 6711   3.616   3.987   2.563  0.2921  0.3502 -0.7789
 1660SOL     OW 6712   3.827   3.824   2.513 -0.5831  0.1326  0.1430
 1660SOL    HW2 6713   3.817   3.735   2.548 -0.6658  0.6975  1.5591
 1660SOL    HW3 6714   3.904   3.860   2.557 -0.5585  0.7747 -0.4119
 1660SOL    MW4 6715   3.836   3.817   2.523 -0.5906  0.2921  0.2565
 1661SOL     OW 6716   3.626   4.255   2.518  0.1957  0.3358  0.1067
 1661SOL    HW2 6717   3.542   4.291   2.546 -0.2050 -0.4542 -0.0653
 1661SOL    HW3 6718   3.623   4.259   2.422 -0.5079 -1.6139  0.0360
 1661SOL    MW4 6719   3.615   4.260   2.509  0.0501 -0.0257  0.0746
 1662SOL     OW 6720   3.877   4.363   2.614  0.1330 -0.1101 -0.1885
 1662SOL    HW2 6721   3.952   4.308   2.592  0.8516 -0.4136  2.8905
 1662SOL    HW3 6722   3.801   4.313   2.585  1.0294 -0.3136 -2.2764
 1662SOL    MW4 6723   3.877   4.349   2.607  0.3459 -0.1764 -0.0579
 1663SOL     OW 6724   4.280   4.563   2.487 -0.0804  0.0294  0.2031
 1663SOL    HW2 6725   4.203   4.608   2.523 -1.4115  0.6098 -3.1577
 1663SOL    HW3 6726   4.355   4.612   2.520 -1.3190  1.7515  0.5162
 1663SOL    MW4 6727   4.280   4.575   2.497 -0.4196  0.3333 -0.1993
 1664SOL     OW 6728   4.066   0.050   2.579 -0.2535 -0.0694  0.3171
 1664SOL    HW2 6729   4.061   0.077   2.671  0.5432 -0.5806  0.5195
 1664SOL    HW3 6730   3.978   0.021   2.558 -0.3709 -0.2366  1.0138
 1664SOL    MW4 6731   4.054   0.050   2.588 -0.1640 -0.1589  0.4358
 1665SOL     OW 6732   4.047   0.334   2.508  0.5162  0.2489 -0.2887
 1665SOL    HW2 6733   4.119   0.372   2.557 -0.1929 -0.7038  1.5393
 1665SOL    HW3 6734   4.060   0.239   2.514 -0.0207  0.1061 -1.2540
 1665SOL    MW4 6735   4.058   0.326   2.515  0.3519  0.1043 -0.1748
 1666SOL     OW 6736   4.255   0.724   2.518  0.0319  0.0781  0.1057
 1666SOL    HW2 6737   4.257   0.727   2.422 -0.1676  0.0920  0.1018
 1666SOL    HW3 6738   4.179   0.778   2.542 -0.2568 -0.3887  0.2498
 1666SOL    MW4 6739   4.245   0.731   2.508 -0.0329  0.0184  0.1242
 1667SOL     OW 6740   4.271   0.733   2.242 -0.0662  0.2708 -0.4644
 1667SOL    HW2 6741   4.196   0.787   2.216 -0.7807 -0.1884  0.6241
 1667SOL    HW3 6742   4.347   0.784   2.214 -0.7405  1.5071 -0.1106
 1667SOL    MW4 6743   4.271   0.747   2.235 -0.2494  0.3732 -0.2742
 1668SOL     OW 6744   4.042   0.906   2.559  0.3637 -0.0412  0.5185
 1668SOL    HW2 6745   4.043   0.892   2.654 -0.3642 -0.5320  0.4489
 1668SOL    HW3 6746   3.961   0.866   2.529  0.2267  0.7703 -0.2182
 1668SOL    MW4 6747   4.032   0.899   2.568  0.2494  0.0011  0.4120
 1669SOL     OW 6748   4.021   1.160   2.466 -0.0625  0.0758 -0.1042
 1669SOL    HW2 6749   4.101   1.196   2.504  0.8759  0.0216 -1.9974
 1669SOL    HW3 6750   4.022   1.068   2.490  0.0110  0.2460  0.5661
 1669SOL    MW4 6751   4.032   1.153   2.474  0.0710  0.0910 -0.2658
 1670SOL     OW 6752   4.246   1.278   2.584 -0.1886  0.3025 -0.2186
 1670SOL    HW2 6753   4.256   1.372   2.571 -0.3830  0.3938  0.2515
 1670SOL    HW3 6754   4.323   1.239   2.543  0.6231  0.7706  0.8258
 1670SOL    MW4 6755   4.257   1.286   2.577 -0.1073  0.3762 -0.0188
 1671SOL     OW 6756   4.255   1.541   2.517 -0.0182  0.8408 -0.0255
 1671SOL    HW2 6757   4.333   1.592   2.541  1.6205 -0.8422 -1.6236
 1671SOL    HW3 6758   4.268   1.518   2.425 -1.3959 -1.2609  0.2578
 1671SOL    MW4 6759   4.267   1.545   2.508  0.0167  0.3414 -0.1988
 1672SOL     OW 6760   4.026   1.672   2.592  0.3351  0.3127  0.5917
 1672SOL    HW2 6761   4.032   1.672   2.688  1.2744  2.0498  0.5524
 1672SOL    HW3 6762   4.104   1.625   2.563  1.1071  1.5519  0.6418
 1672SOL    MW4 6763   4.037   1.665   2.601  0.5608  0.7054  0.5929
 1673SOL     OW 6764   3.988   1.905   2.441 -0.2134 -0.2205 -0.2588
 1673SOL    HW2 6765   4.053   1.961   2.483 -0.1945  0.4640 -1.1831
 1673SOL    HW3 6766   4.003   1.818   2.479  1.6744 -0.2144 -0.9249
 1673SOL    MW4 6767   3.999   1.901   2.452  0.0381 -0.1293 -0.4687
 1674SOL     OW 6768   4.191   2.019   2.600  0.7032  0.3339  0.4965
 1674SOL    HW2 6769   4.265   1.962   2.576 -0.2456 -0.5027 -0.5492
 1674SOL    HW3 6770   4.217   2.106   2.568  0.0140 -0.5183 -2.5570
 1674SOL    MW4 6771   4.205   2.023   2.592  0.4873  0.1111 -0.0441
 1675SOL     OW 6772   4.234   2.287   2.504 -0.1781 -0.1948 -0.0647
 1675SOL    HW2 6773   4.165   2.335   2.550 -1.7083 -1.4492 -1.0140
 1675SOL    HW3 6774   4.232   2.321   2.415  0.4426 -0.2172 -0.0862
 1675SOL    MW4 6775   4.224   2.297   2.499 -0.2980 -0.3633 -0.1926
 1676SOL     OW 6776   4.029   2.443   2.595  0.1185 -0.4196  0.1897
 1676SOL    HW2 6777   4.010   2.447   2.689  1.1687 -2.6322  0.5150
 1676SOL    HW3 6778   3.953   2.401   2.557 -0.7024  1.2709 -0.1110
 1676SOL    MW4 6779   4.016   2.438   2.603  0.1488 -0.4888  0.1931
 1677SOL     OW 6780   4.008   2.697   2.466 -0.3781 -0.2725  0.6512
 1677SOL    HW2 6781   4.094   2.735   2.484 -0.3330  0.1026 -0.3208
 1677SOL    HW3 6782   4.010   2.611   2.509  1.1698 -1.0448 -0.8870
 1677SOL    MW4 6783   4.020   2.690   2.474 -0.1678 -0.3247  0.3202
 1678SOL     OW 6784   4.242   2.807   2.551 -0.1704  0.1968 -0.0615
 1678SOL    HW2 6785   4.212   2.789   2.640 -1.9294 -0.4128 -0.7705
 1678SOL    HW3 6786   4.261   2.901   2.551 -0.4322  0.2583  0.8683
 1678SOL    MW4 6787   4.241   2.817   2.563 -0.4363  0.1245 -0.0322
 1679SOL     OW 6788   4.303   3.071   2.493  0.0807  0.1275  0.2104
 1679SOL    HW2 6789   4.214   3.091   2.522 -0.3852 -0.1092 -1.0141
 1679SOL    HW3 6790   4.299   3.074   2.397  0.8363 -2.1423  0.0503
 1679SOL    MW4 6791   4.291   3.074   2.484  0.1192 -0.2031  0.0274
 1680SOL     OW 6792   4.059   3.167   2.572 -0.2021  0.3307 -0.4270
 1680SOL    HW2 6793   4.048   3.262   2.567 -0.6709  0.3764  1.2540
 1680SOL    HW3 6794   3.970   3.133   2.565 -0.1720  0.0823  0.4057
 1680SOL    MW4 6795   4.046   3.175   2.570 -0.2599  0.3042 -0.0954
 1681SOL     OW 6796   4.047   3.436   2.495 -0.5431 -0.9506 -0.6140
 1681SOL    HW2 6797   3.969   3.475   2.535  0.5485 -0.2215  0.8605
 1681SOL    HW3 6798   4.023   3.425   2.403 -1.8427  0.7352 -0.5166
 1681SOL    MW4 6799   4.034   3.440   2.488 -0.5703 -0.6320 -0.4067
 1682SOL     OW 6800   4.280   3.605   2.582 -0.0632 -0.4836  0.0321
 1682SOL    HW2 6801   4.199   3.559   2.559  0.1602 -0.8165 -0.1130
 1682SOL    HW3 6802   4.291   3.591   2.676 -0.8376  0.6476  0.2938
 1682SOL    MW4 6803   4.271   3.597   2.591 -0.1359 -0.3781  0.0472
 1683SOL     OW 6804   4.294   3.871   2.529 -0.3124 -0.0372  0.1093
 1683SOL    HW2 6805   4.299   3.779   2.555 -0.9882 -0.3619 -0.8700
 1683SOL    HW3 6806   4.375   3.910   2.562  0.2611 -1.1238  0.0064
 1683SOL    MW4 6807   4.305   3.864   2.537 -0.3257 -0.2236 -0.0334
 1684SOL     OW 6808   4.035   3.942   2.631  0.0561 -0.3382 -0.0974
 1684SOL    HW2 6809   4.037   3.950   2.726  1.8969  0.8547 -0.2112
 1684SOL    HW3 6810   4.124   3.918   2.606 -0.2955 -0.2075 -1.5589
 1684SOL    MW4 6811   4.047   3.940   2.640  0.2532 -0.1636 -0.3054
 1685SOL     OW 6812   4.070   4.203   2.495 -0.4260  0.4220 -0.1630
 1685SOL    HW2 6813   4.058   4.108   2.506  1.8586  0.2985  1.6391
 1685SOL    HW3 6814   4.071   4.216   2.401  1.7307 -1.7443 -0.5143
 1685SOL    MW4 6815   4.069   4.192   2.484  0.1602  0.1197  0.0284
 1686SOL     OW 6816   4.273   4.327   2.656 -0.3434  0.0558  0.4211
 1686SOL    HW2 6817   4.215   4.267   2.608 -0.5095  1.0154 -0.5895
 1686SOL    HW3 6818   4.280   4.404   2.600  2.2286 -0.1944  0.3299
 1686SOL    MW4 6819   4.267   4.329   2.642 -0.0262  0.1493  0.2759
 1687SOL     OW 6820   0.193   4.628   2.984 -0.0300 -0.1985 -0.0277
 1687SOL    HW2 6821   0.183   4.649   3.077 -0.8173 -1.3455  0.1565
 1687SOL    HW3 6822   0.129   4.683   2.940  1.3174  1.4087 -0.0592
 1687SOL    MW4 6823   0.184   4.638   2.991  0.0439 -0.1383 -0.0074
 1688SOL     OW 6824   4.482   0.127   2.890 -0.0138  0.2494  0.2594
 1688SOL    HW2 6825   4.499   0.211   2.933 -0.8788  0.4796  0.1564
 1688SOL    HW3 6826   4.400   0.097   2.927  0.3524 -0.6131  0.3788
 1688SOL    MW4 6827   4.473   0.134   2.900 -0.0796  0.1660  0.2615
 1689SOL     OW 6828   0.223   0.505   2.871 -0.1566 -0.1708 -0.4032
 1689SOL    HW2 6829   0.301   0.463   2.906 -0.3230 -1.9027 -2.0225
 1689SOL    HW3 6830   0.151   0.463   2.918 -0.1636  0.6447  0.3120
 1689SOL    MW4 6831   0.224   0.494   2.882 -0.1794 -0.2917 -0.5224
 1690SOL     OW 6832   0.203   0.485   2.602 -0.1111 -0.1376  0.0020
 1690SOL    HW2 6833   0.275   0.430   2.573 -0.6323 -0.1355 -1.3493
 1690SOL    HW3 6834   0.208   0.484   2.697  1.1113 -0.8731 -0.0663
 1690SOL    MW4 6835   0.213   0.478   2.611 -0.0186 -0.2344 -0.1855
 1691SOL     OW 6836   0.190   0.775   2.957 -0.3592 -0.0913  0.2195
 1691SOL    HW2 6837   0.179   0.760   3.050 -1.8715 -0.4213 -0.0057
 1691SOL    HW3 6838   0.178   0.689   2.917  1.3780 -0.1625 -0.2023
 1691SOL    MW4 6839   0.187   0.762   2.964 -0.3295 -0.1442  0.1340
 1692SOL     OW 6840   4.488   0.939   2.811  0.3533  0.1707  0.0709
 1692SOL    HW2 6841   4.567   0.916   2.860 -0.1648 -1.9651 -0.0742
 1692SOL    HW3 6842   4.504   0.906   2.723 -0.1641  0.9159 -0.3096
 1692SOL    MW4 6843   4.501   0.932   2.806  0.2170 -0.0128  0.0012
 1693SOL     OW 6844   4.428   1.134   2.981  0.6656 -0.1526 -0.4723
 1693SOL    HW2 6845   4.359   1.192   2.949 -0.5483 -1.2444  0.1006
 1693SOL    HW3 6846   4.439   1.070   2.910  0.6083 -0.3684 -0.2876
 1693SOL    MW4 6847   4.420   1.133   2.967  0.4978 -0.3251 -0.3724
 1694SOL     OW 6848   0.197   1.232   2.863  0.2721 -0.2174 -0.0142
 1694SOL    HW2 6849   0.124   1.185   2.902 -0.0222 -0.9499 -1.4183
 1694SOL    HW3 6850   0.176   1.238   2.770  1.6513  0.1972 -0.3215
 1694SOL    MW4 6851   0.185   1.227   2.856  0.4153 -0.2594 -0.2398
 1695SOL     OW 6852   0.251   1.524   2.927 -0.5612 -0.0692 -0.1024
 1695SOL    HW2 6853   0.176   1.583   2.921 -1.0534 -0.6835 -0.1585
 1695SOL    HW3 6854   0.217   1.440   2.894 -0.3987 -0.8434  1.6408
 1695SOL    MW4 6855   0.237   1.520   2.922 -0.6047 -0.2524  0.1202
 1696SOL     OW 6856   0.016   1.657   2.876 -0.0498  0.5791  0.7691
 1696SOL    HW2 6857  -0.066   1.616   2.906 -0.1260  0.7986  0.8636
 1696SOL    HW3 6858   0.005   1.750   2.898  0.2141  0.6114  0.7555
 1696SOL    MW4 6859   0.003   1.664   2.883 -0.0248  0.6124  0.7796
 1697SOL     OW 6860   4.450   1.907   2.944 -0.0685  0.0941 -0.3711
 1697SOL    HW2 6861   4.383   1.967   2.911  1.0437  1.1534 -0.7059
 1697SOL    HW3 6862   4.533   1.948   2.921  0.7097 -1.2947 -0.0985
 1697SOL    MW4 6863   4.452   1.920   2.936  0.1807  0.0507 -0.3796
 1698SOL     OW 6864   0.201   2.033   2.903 -0.5346  0.2034 -0.1465
 1698SOL    HW2 6865   0.196   2.122   2.937 -0.7687  0.1117  0.0596
 1698SOL    HW3 6866   0.204   2.043   2.808  2.1167  0.5564 -0.0589
 1698SOL    MW4 6867   0.201   2.046   2.895 -0.2157  0.2377 -0.1080
 1699SOL     OW 6868   0.182   2.297   2.942  0.5116  0.1117 -0.1486
 1699SOL    HW2 6869   0.188   2.311   3.036 -0.3159 -1.6927  0.1975
 1699SOL    HW3 6870   0.265   2.329   2.907  0.0319  2.6788  0.9293
 1699SOL    MW4 6871   0.193   2.303   2.950  0.3391  0.2120  0.0391
 1700SOL     OW 6872   4.444   2.475   2.830 -0.0647 -0.2041  0.2639
 1700SOL    HW2 6873   4.432   2.552   2.886 -0.6956 -1.1173  1.4089
 1700SOL    HW3 6874   4.513   2.425   2.872 -0.4991 -0.8681  0.1960
 1700SOL    MW4 6875   4.452   2.479   2.843 -0.2050 -0.4122  0.4058
 1701SOL     OW 6876   4.447   2.727   2.949 -0.2597 -0.3194 -0.2130
 1701SOL    HW2 6877   4.453   2.716   3.044 -1.1423 -0.2906 -0.1482
 1701SOL    HW3 6878   4.526   2.775   2.925  0.0474 -0.4706  0.4825
 1701SOL    MW4 6879   4.458   2.732   2.958 -0.3362 -0.3352 -0.1125
 1702SOL     OW 6880   0.209   2.824   2.893 -0.5022 -0.1826  0.3600
 1702SOL    HW2 6881   0.284   2.767   2.910  0.4192  1.3486  1.6015
 1702SOL    HW3 6882   0.206   2.832   2.797  0.2199 -1.1683  0.2517
 1702SOL    MW4 6883   0.218   2.817   2.882 -0.2854 -0.1106  0.5095
 1703SOL     OW 6884   0.190   3.067   3.005  0.2471  0.4922  0.3453
 1703SOL    HW2 6885   0.107   3.106   2.977  0.9158  1.7690  0.0923
 1703SOL    HW3 6886   0.185   2.976   2.975 -0.8555  0.6945 -0.1067
 1703SOL    MW4 6887   0.179   3.061   2.997  0.1898  0.6874  0.2522
 1704SOL     OW 6888   4.470   3.193   2.911 -0.0689 -0.2320  0.1881
 1704SOL    HW2 6889   4.484   3.195   2.816  1.7827 -1.0528  0.4243
 1704SOL    HW3 6890   4.382   3.158   2.921 -0.0863 -0.6326 -1.2143
 1704SOL    MW4 6891   4.460   3.189   2.899  0.1736 -0.3934  0.0343
 1705SOL     OW 6892   0.051   3.468   3.006 -0.3313  0.0103  0.4017
 1705SOL    HW2 6893  -0.023   3.509   2.961  0.4537 -0.3471 -1.2417
 1705SOL    HW3 6894   0.045   3.376   2.984  0.3361 -0.0926  0.6437
 1705SOL    MW4 6895   0.041   3.462   2.998 -0.1396 -0.0503  0.2167
 1706SOL     OW 6896   0.229   3.634   2.860 -0.1049 -0.4725  0.2555
 1706SOL    HW2 6897   0.221   3.717   2.908 -0.8187 -0.3135 -0.1387
 1706SOL    HW3 6898   0.163   3.577   2.901  1.0763 -1.1846  1.2139
 1706SOL    MW4 6899   0.219   3.637   2.872 -0.0432 -0.5455  0.3300
 1707SOL     OW 6900   0.265   3.863   3.010  0.0239 -0.0223 -0.1078
 1707SOL    HW2 6901   0.271   3.865   3.105  1.3215 -0.8933 -0.1536
 1707SOL    HW3 6902   0.344   3.909   2.980 -1.0860  1.5213 -0.7740
 1707SOL    MW4 6903   0.276   3.869   3.018  0.0486  0.0663 -0.2019
 1708SOL     OW 6904   0.011   3.982   2.935  0.3494  0.1745  0.4696
 1708SOL    HW2 6905   0.100   3.950   2.948  0.9192  1.8586  0.7809
 1708SOL    HW3 6906   0.005   3.996   2.840  0.8816  1.3876  0.6113
 1708SOL    MW4 6907   0.022   3.979   2.924  0.4948  0.5567  0.5291
 1709SOL     OW 6908   4.487   4.263   3.001 -0.2198  0.2500 -0.3511
 1709SOL    HW2 6909   4.470   4.284   3.093  0.4963 -0.1925 -0.1192
 1709SOL    HW3 6910   4.501   4.168   3.000  1.1504  0.4432 -0.7017
 1709SOL    MW4 6911   4.487   4.253   3.013  0.0558  0.2174 -0.3667
 1710SOL     OW 6912   0.248   4.361   2.918  0.1660  0.4066 -0.4142
 1710SOL    HW2 6913   0.169   4.324   2.958  1.5669 -1.6055  0.5413
 1710SOL    HW3 6914   0.244   4.454   2.940 -1.3716  0.1241  0.5780
 1710SOL    MW4 6915   0.237   4.369   2.926  0.1479  0.1035 -0.1576
 1711SOL     OW 6916   0.682   0.016   3.009 -0.0768  0.1299 -0.1154
 1711SOL    HW2 6917   0.680  -0.067   2.961  0.1682  0.5608 -0.8732
 1711SOL    HW3 6918   0.598   0.057   2.988  0.9515  1.3215 -1.9663
 1711SOL    MW4 6919   0.671   0.010   3.000  0.0912  0.3443 -0.4597
 1712SOL     OW 6920   0.431   0.091   2.890 -0.5207 -0.5670 -0.4883
 1712SOL    HW2 6921   0.425   0.179   2.927  1.4126 -0.4907 -0.2932
 1712SOL    HW3 6922   0.354   0.045   2.922 -0.5025  0.4526  1.0357
 1712SOL    MW4 6923   0.420   0.096   2.899 -0.2632 -0.4224 -0.2615
 1713SOL     OW 6924   0.450   0.355   2.993  0.2000  0.4444 -0.4035
 1713SOL    HW2 6925   0.449   0.362   3.089 -0.5219 -0.4585 -0.3388
 1713SOL    HW3 6926   0.516   0.419   2.965 -0.1052  1.2371  0.6498
 1713SOL    MW4 6927   0.459   0.364   3.002  0.0645  0.4299 -0.2561
 1714SOL     OW 6928   0.652   0.532   2.872  0.5423  0.1140 -0.3658
 1714SOL    HW2 6929   0.734   0.496   2.906 -0.1404 -0.0132  1.2336
 1714SOL    HW3 6930   0.654   0.625   2.896 -0.4728 -0.2278  1.1408
 1714SOL    MW4 6931   0.663   0.539   2.880  0.3183  0.0520  0.0441
 1715SOL     OW 6932   0.678   0.777   2.980 -0.1456  0.1638 -0.1682
 1715SOL    HW2 6933   0.674   0.775   3.076 -0.0599  2.5114 -0.0775
 1715SOL    HW3 6934   0.595   0.818   2.953  0.3969  0.7244 -1.0148
 1715SOL    MW4 6935   0.667   0.782   2.989 -0.0627  0.5475 -0.2680
 1716SOL     OW 6936   0.435   0.866   2.895 -0.4050 -0.5950 -0.4935
 1716SOL    HW2 6937   0.346   0.839   2.918 -0.6106  0.9080  0.5565
 1716SOL    HW3 6938   0.438   0.861   2.800 -1.5689 -0.7760 -0.5277
 1716SOL    MW4 6939   0.424   0.862   2.886 -0.5857 -0.4206 -0.3593
 1717SOL     OW 6940   0.456   1.143   2.966 -0.4081 -0.1355 -0.5692
 1717SOL    HW2 6941   0.439   1.054   2.935 -1.2604 -0.1763 -0.0139
 1717SOL    HW3 6942   0.385   1.195   2.930  1.1830  0.7218 -2.5429
 1717SOL    MW4 6943   0.444   1.138   2.957 -0.3106 -0.0278 -0.7560
 1718SOL     OW 6944   0.683   1.239   2.858 -0.4060  0.7104  0.0058
 1718SOL    HW2 6945   0.756   1.190   2.896 -0.7962  0.4127  0.3851
 1718SOL    HW3 6946   0.606   1.203   2.901 -1.1078 -1.4671 -2.9295
 1718SOL    MW4 6947   0.683   1.228   2.868 -0.5501  0.3839 -0.3316
 1719SOL     OW 6948   0.669   1.523   2.913  0.8167  0.0130  0.1165
 1719SOL    HW2 6949   0.673   1.523   3.009  0.6435 -0.0585  0.1239
 1719SOL    HW3 6950   0.668   1.431   2.889  1.4536  0.0321  0.0191
 1719SOL    MW4 6951   0.669   1.511   2.923  0.8779  0.0062  0.1047
 1720SOL     OW 6952   0.469   1.676   2.820 -0.3836  0.0533  0.0508
 1720SOL    HW2 6953   0.537   1.622   2.860 -0.2239 -0.2034 -0.5579
 1720SOL    HW3 6954   0.386   1.636   2.848 -0.2648 -0.5629 -0.4703
 1720SOL    MW4 6955   0.467   1.663   2.829 -0.3468 -0.0620 -0.0982
 1721SOL     OW 6956   0.413   1.897   2.975  0.0964  0.1750  0.1953
 1721SOL    HW2 6957   0.427   1.832   2.907 -0.6576  0.4145 -0.1984
 1721SOL    HW3 6958   0.343   1.953   2.941 -0.7826 -0.1343  1.4619
 1721SOL    MW4 6959   0.405   1.896   2.962 -0.1191  0.1658  0.3107
 1722SOL     OW 6960   0.665   2.036   2.871  0.0739  0.2069 -0.0963
 1722SOL    HW2 6961   0.743   1.986   2.896  0.2486  0.2880 -0.4906
 1722SOL    HW3 6962   0.595   1.997   2.924  0.5504  0.7531  0.9493
 1722SOL    MW4 6963   0.666   2.024   2.882  0.1598  0.2897 -0.0100
 1723SOL     OW 6964   0.665   2.289   2.975 -0.2958  0.0860 -0.1721
 1723SOL    HW2 6965   0.648   2.271   3.067  0.5483  1.0282  0.1797
 1723SOL    HW3 6966   0.680   2.204   2.935  1.7197 -0.1360  1.0503
 1723SOL    MW4 6967   0.664   2.276   2.982  0.0814  0.1812  0.0355
 1724SOL     OW 6968   0.426   2.408   2.845 -0.2213 -0.2646  0.3832
 1724SOL    HW2 6969   0.507   2.370   2.878  0.6449  1.3480  0.1916
 1724SOL    HW3 6970   0.425   2.386   2.752  0.9120  1.2332  0.0038
 1724SOL    MW4 6971   0.437   2.400   2.837  0.0426  0.1459  0.3078
 1725SOL     OW 6972   0.437   2.694   2.959  0.0202 -0.3221  0.3656
 1725SOL    HW2 6973   0.519   2.738   2.937  0.5669 -0.8102  1.3933
 1725SOL    HW3 6974   0.451   2.602   2.934 -0.0232 -0.5083  1.0053
 1725SOL    MW4 6975   0.449   2.687   2.953  0.0866 -0.4110  0.5853
 1726SOL     OW 6976   0.673   2.831   2.842  0.1735 -0.0485 -0.4155
 1726SOL    HW2 6977   0.756   2.795   2.874 -0.2972 -1.1580 -0.4237
 1726SOL    HW3 6978   0.670   2.919   2.878  1.2496 -0.0879 -0.2169
 1726SOL    MW4 6979   0.684   2.838   2.851  0.2534 -0.2003 -0.3903
 1727SOL     OW 6980   0.670   3.100   2.973 -0.3701 -0.0770  0.2952
 1727SOL    HW2 6981   0.672   3.098   3.069 -1.6031 -0.6448  0.3249
 1727SOL    HW3 6982   0.585   3.139   2.952  0.4198  1.2247 -0.5734
 1727SOL    MW4 6983   0.659   3.105   2.983 -0.4286  0.0198  0.1845
 1728SOL     OW 6984   0.432   3.183   2.869  0.0660  0.3627  0.1232
 1728SOL    HW2 6985   0.438   3.275   2.897  0.2272  0.6966 -0.9739
 1728SOL    HW3 6986   0.351   3.151   2.909  0.9213  0.4502  1.9811
 1728SOL    MW4 6987   0.422   3.191   2.878  0.2001  0.4184  0.2236
 1729SOL     OW 6988   0.445   3.449   2.946 -0.1413  0.3572  0.6240
 1729SOL    HW2 6989   0.448   3.444   3.041 -0.5166  0.1127  0.6251
 1729SOL    HW3 6990   0.382   3.519   2.927 -0.5862 -0.0584  0.5530
 1729SOL    MW4 6991   0.437   3.457   2.956 -0.2495  0.2699  0.6151
 1730SOL     OW 6992   0.662   3.629   2.884 -0.1080  0.0782 -0.2517
 1730SOL    HW2 6993   0.742   3.584   2.914  1.5998  2.0387 -1.7286
 1730SOL    HW3 6994   0.592   3.566   2.901  1.5497 -1.1484  2.3857
 1730SOL    MW4 6995   0.664   3.615   2.890  0.3361  0.1750 -0.0985
 1731SOL     OW 6996   0.696   3.875   2.983  0.0311  0.3724  0.0438
 1731SOL    HW2 6997   0.696   3.873   3.079  0.6899  1.5989  0.0820
 1731SOL    HW3 6998   0.688   3.784   2.957  3.1954 -0.3009  1.2685
 1731SOL    MW4 6999   0.695   3.863   2.992  0.5354  0.4454  0.2105
 1732SOL     OW 7000   0.471   3.994   2.889  0.4206 -0.3777 -0.1181
 1732SOL    HW2 7001   0.545   3.945   2.925  0.7096 -0.5654 -0.9385
 1732SOL    HW3 7002   0.464   3.963   2.799  0.1521  0.5712 -0.4337
 1732SOL    MW4 7003   0.480   3.983   2.882  0.4233 -0.2773 -0.2677
 1733SOL     OW 7004   0.458   4.240   3.023 -0.1388 -0.3900  0.0529
 1733SOL    HW2 7005   0.463   4.153   2.983  2.1261 -0.2141 -0.1076
 1733SOL    HW3 7006   0.377   4.277   2.988  0.3859 -1.2799 -2.2588
 1733SOL    MW4 7007   0.448   4.233   3.013  0.2292 -0.4840 -0.2730
 1734SOL     OW 7008   0.650   4.424   2.903  0.1012 -0.3591  0.1382
 1734SOL    HW2 7009   0.581   4.377   2.949 -1.0973  1.2894  0.0554
 1734SOL    HW3 7010   0.622   4.424   2.811  0.4241 -0.0809  0.0383
 1734SOL    MW4 7011   0.637   4.418   2.897 -0.0143 -0.1049  0.1140
 1735SOL     OW 7012   1.142   4.648   2.974  0.1891 -0.3245 -0.6370
 1735SOL    HW2 7013   1.220   4.672   2.924  0.8236 -1.3446 -0.1485
 1735SOL    HW3 7014   1.073   4.707   2.941  0.2109 -1.9967 -3.8348
 1735SOL    MW4 7015   1.143   4.659   2.963  0.2757 -0.6790 -0.9947
 1736SOL     OW 7016   0.897   0.131   2.880  0.2325 -0.2871  0.1803
 1736SOL    HW2 7017   0.885   0.223   2.906 -0.5315  0.1488 -1.6590
 1736SOL    HW3 7018   0.822   0.086   2.920  1.2161 -0.3365  2.0363
 1736SOL    MW4 7019   0.885   0.137   2.889  0.2614 -0.2361  0.1826
 1737SOL     OW 7020   0.876   0.401   2.972 -0.0036  0.0594  0.7781
 1737SOL    HW2 7021   0.880   0.404   3.067  1.4520  0.8270  0.6968
 1737SOL    HW3 7022   0.961   0.435   2.942 -0.0219 -1.1628 -0.7699
 1737SOL    MW4 7023   0.888   0.406   2.980  0.1861 -0.0006  0.5631
 1738SOL     OW 7024   1.119   0.492   2.889 -0.3993  0.1091  0.9971
 1738SOL    HW2 7025   1.191   0.437   2.920  0.6204  1.5723  1.2829
 1738SOL    HW3 7026   1.137   0.504   2.796 -0.3325  0.3756  1.0438
 1738SOL    MW4 7027   1.131   0.486   2.881 -0.2559  0.3373  1.0412
 1739SOL     OW 7028   1.142   0.738   2.972  0.2583  0.7374  0.1079
 1739SOL    HW2 7029   1.127   0.744   3.066  3.7447  0.1844  0.7577
 1739SOL    HW3 7030   1.137   0.644   2.952  1.3060  0.6866  0.0725
 1739SOL    MW4 7031   1.139   0.726   2.982  0.8564  0.6577  0.1891
 1740SOL     OW 7032   0.900   0.841   2.845 -0.3377  0.0956  0.0067
 1740SOL    HW2 7033   0.979   0.815   2.892  0.3428  0.3800 -0.9834
 1740SOL    HW3 7034   0.828   0.801   2.895  0.3059  1.2045  1.8650
 1740SOL    MW4 7035   0.901   0.832   2.858 -0.1630  0.2795  0.1209
 1741SOL     OW 7036   0.911   1.110   2.948 -0.2586  0.2045 -0.1395
 1741SOL    HW2 7037   0.994   1.144   2.914  1.3100  0.0144  3.2134
 1741SOL    HW3 7038   0.906   1.021   2.913  0.2724  0.6777 -1.4542
 1741SOL    MW4 7039   0.922   1.103   2.939  0.0185  0.2419  0.1295
 1742SOL     OW 7040   1.149   1.233   2.851 -0.0374  0.6568 -0.2744
 1742SOL    HW2 7041   1.240   1.213   2.872 -0.1567 -0.2533 -0.5920
 1742SOL    HW3 7042   1.147   1.236   2.755 -0.5167 -0.1627 -0.2877
 1742SOL    MW4 7043   1.161   1.231   2.841 -0.1165  0.4286 -0.3183
 1743SOL     OW 7044   1.102   1.494   2.970  0.1853  0.1958  0.3777
 1743SOL    HW2 7045   1.175   1.550   2.945 -1.2422  2.1133  0.3955
 1743SOL    HW3 7046   1.128   1.406   2.941  1.2447  1.3239 -2.2501
 1743SOL    MW4 7047   1.115   1.490   2.963  0.1366  0.5976  0.0334
 1744SOL     OW 7048   0.906   1.647   2.843  0.5768 -0.0341 -0.3057
 1744SOL    HW2 7049   0.987   1.609   2.877  0.6720  0.2995 -0.1583
 1744SOL    HW3 7050   0.837   1.592   2.878  0.7619 -0.5051 -0.6821
 1744SOL    MW4 7051   0.908   1.635   2.852  0.6139 -0.0523 -0.3362
 1745SOL     OW 7052   0.888   1.899   2.947 -0.1125  0.6106  0.1747
 1745SOL    HW2 7053   0.879   1.890   3.042  0.2390  0.2033  0.1720
 1745SOL    HW3 7054   0.891   1.809   2.915 -0.1047  0.7476 -0.2094
 1745SOL    MW4 7055   0.888   1.886   2.955 -0.0651  0.5751  0.1240
 1746SOL     OW 7056   1.097   2.057   2.866 -0.6061 -0.2550  0.2725
 1746SOL    HW2 7057   1.027   1.998   2.892 -1.7559  1.0126  0.0910
 1746SOL    HW3 7058   1.093   2.059   2.770 -1.0381  0.6685  0.3060
 1746SOL    MW4 7059   1.088   2.049   2.857 -0.8148  0.0341  0.2530
 1747SOL     OW 7060   1.120   2.314   2.972 -0.2872  0.1805  0.2245
 1747SOL    HW2 7061   1.033   2.352   2.963  0.2095  1.4987  0.7323
 1747SOL    HW3 7062   1.110   2.222   2.947 -1.9309  0.1879  0.8162
 1747SOL    MW4 7063   1.108   2.307   2.968 -0.4386  0.3550  0.3698
 1748SOL     OW 7064   0.878   2.451   2.900  0.0433 -0.2938 -0.1998
 1748SOL    HW2 7065   0.803   2.407   2.940  0.4389 -0.4489  0.3780
 1748SOL    HW3 7066   0.868   2.434   2.806 -2.1113  1.9544 -0.4364
 1748SOL    MW4 7067   0.867   2.443   2.893 -0.1888 -0.0179 -0.1547
 1749SOL     OW 7068   0.903   2.728   2.956  0.4763 -0.6365 -0.0357
 1749SOL    HW2 7069   0.897   2.746   3.050  1.0449 -1.1048  0.0923
 1749SOL    HW3 7070   0.904   2.632   2.950  0.2589 -0.6105 -0.5348
 1749SOL    MW4 7071   0.902   2.717   2.967  0.5226 -0.6945 -0.0844
 1750SOL     OW 7072   1.131   2.838   2.842  0.1231 -0.3262  0.7907
 1750SOL    HW2 7073   1.123   2.929   2.870 -1.0454 -0.4634  0.9025
 1750SOL    HW3 7074   1.051   2.795   2.873  0.3931 -1.2587  0.2372
 1750SOL    MW4 7075   1.120   2.844   2.849  0.0046 -0.4673  0.7327
 1751SOL     OW 7076   1.120   3.073   2.993 -0.8457  0.2592 -0.0791
 1751SOL    HW2 7077   1.200   3.121   2.971 -0.3616 -1.1540 -1.4997
 1751SOL    HW3 7078   1.049   3.132   2.970 -0.2479  2.1147  2.5386
 1751SOL    MW4 7079   1.121   3.087   2.987 -0.7030  0.3176  0.0789
 1752SOL     OW 7080   0.912   3.232   2.872  0.2487  0.6536  0.3755
 1752SOL    HW2 7081   0.828   3.190   2.889  1.0189 -1.0516  0.0626
 1752SOL    HW3 7082   0.932   3.211   2.781  1.0796  0.9346  0.4858
 1752SOL    MW4 7083   0.903   3.224   2.863  0.4599  0.4656  0.3486
 1753SOL     OW 7084   0.879   3.472   2.976  0.5064  0.0023 -0.1328
 1753SOL    HW2 7085   0.953   3.515   2.934  0.8237  0.5956  1.0350
 1753SOL    HW3 7086   0.866   3.392   2.925  0.6742  0.8810 -1.5597
 1753SOL    MW4 7087   0.887   3.467   2.964  0.5703  0.1967 -0.1669
 1754SOL     OW 7088   1.080   3.635   2.876  0.3560  0.0531  0.8367
 1754SOL    HW2 7089   1.153   3.594   2.922  1.1236  2.4904  1.8090
 1754SOL    HW3 7090   1.084   3.727   2.900 -0.6900  0.9561 -2.2125
 1754SOL    MW4 7091   1.090   3.641   2.885  0.3192  0.4935  0.5624
 1755SOL     OW 7092   1.109   3.903   2.954 -0.0984  0.1991 -0.0411
 1755SOL    HW2 7093   1.113   3.896   3.049 -0.4353 -0.6380 -0.0873
 1755SOL    HW3 7094   1.028   3.951   2.936  0.5019  1.3044  0.1308
 1755SOL    MW4 7095   1.099   3.908   2.964 -0.0635  0.2344 -0.0243
 1756SOL     OW 7096   0.887   4.044   2.887 -0.1955  0.0256  0.0279
 1756SOL    HW2 7097   0.818   3.988   2.922 -0.0830  0.2826  0.6684
 1756SOL    HW3 7098   0.890   4.023   2.794 -1.0983 -0.0356  0.0066
 1756SOL    MW4 7099   0.878   4.034   2.879 -0.2998  0.0520  0.1092
 1757SOL     OW 7100   0.885   4.304   2.988 -0.0894  0.0162 -0.2403
 1757SOL    HW2 7101   0.882   4.212   2.963  0.2899  0.3718 -1.6565
 1757SOL    HW3 7102   0.823   4.347   2.929  1.6373  1.0459 -1.3735
 1757SOL    MW4 7103   0.876   4.297   2.977  0.1884  0.1988 -0.5765
 1758SOL     OW 7104   1.130   4.377   2.901  0.4166  0.3254  0.1199
 1758SOL    HW2 7105   1.048   4.333   2.923 -0.1155 -0.0710 -2.5064
 1758SOL    HW3 7106   1.118   4.467   2.932 -0.3752 -0.1449  1.1859
 1758SOL    MW4 7107   1.118   4.383   2.908  0.2419  0.2112 -0.0861
 1759SOL     OW 7108   1.577   0.015   3.039 -0.1972 -0.2475 -0.1705
 1759SOL    HW2 7109   1.572   0.008   3.134  0.2069 -0.2551 -0.1513
 1759SOL    HW3 7110   1.490   0.048   3.013 -0.3518 -0.3738  0.1854
 1759SOL    MW4 7111   1.565   0.019   3.048 -0.1642 -0.2651 -0.1211
 1760SOL     OW 7112   1.374   0.089   2.864 -0.1133 -0.2650 -0.1044
 1760SOL    HW2 7113   1.352   0.169   2.912 -0.1007 -0.7881  0.7992
 1760SOL    HW3 7114   1.352   0.108   2.773 -0.4107  0.6515  0.1518
 1760SOL    MW4 7115   1.368   0.102   2.859 -0.1509 -0.2131  0.0486
 1761SOL     OW 7116   1.303   0.323   3.000  0.3528 -0.1199  0.1771
 1761SOL    HW2 7117   1.320   0.338   3.093  2.0385 -0.0538 -0.1327
 1761SOL    HW3 7118   1.366   0.378   2.954  0.2530 -0.9781 -1.0134
 1761SOL    MW4 7119   1.313   0.332   3.006  0.5621 -0.2244 -0.0207
 1762SOL     OW 7120   1.540   0.453   2.903  0.3784 -0.0631  0.0564
 1762SOL    HW2 7121   1.539   0.544   2.933  1.1043 -0.1250  0.2687
 1762SOL    HW3 7122   1.553   0.459   2.809 -0.5525  0.0834 -0.0698
 1762SOL    MW4 7123   1.541   0.466   2.895  0.3514 -0.0519  0.0677
 1763SOL     OW 7124   1.582   0.736   2.968 -0.0912 -0.1030  0.2241
 1763SOL    HW2 7125   1.572   0.756   3.061 -0.2749 -1.5740  0.5364
 1763SOL    HW3 7126   1.508   0.781   2.926 -1.2162 -1.1456  1.0552
 1763SOL    MW4 7127   1.571   0.745   2.975 -0.2638 -0.4346  0.3750
 1764SOL     OW 7128   1.354   0.849   2.838 -0.0711  0.0762  0.6387
 1764SOL    HW2 7129   1.366   0.939   2.869  0.1934  0.0493  0.6222
 1764SOL    HW3 7130   1.268   0.823   2.870  0.0940  0.1343  1.1389
 1764SOL    MW4 7131   1.344   0.857   2.846 -0.0144  0.0803  0.7026
 1765SOL     OW 7132   1.400   1.090   2.951  0.0654  0.2530  0.4591
 1765SOL    HW2 7133   1.386   1.120   3.041 -0.5526 -1.9497  1.1321
 1765SOL    HW3 7134   1.466   1.150   2.916  1.0546  0.5464  2.7232
 1765SOL    MW4 7135   1.407   1.102   2.959  0.1143  0.0011  0.8466
 1766SOL     OW 7136   1.590   1.257   2.857 -0.3180 -0.2584  0.1146
 1766SOL    HW2 7137   1.661   1.217   2.907 -1.0559 -0.4045  1.0656
 1766SOL    HW3 7138   1.568   1.336   2.906 -0.1412  0.3102 -0.7211
 1766SOL    MW4 7139   1.597   1.262   2.870 -0.3922 -0.2025  0.1299
 1767SOL     OW 7140   1.558   1.514   2.967 -0.5600 -0.1789 -0.2728
 1767SOL    HW2 7141   1.631   1.562   2.927  0.0604 -0.3279  0.6661
 1767SOL    HW3 7142   1.480   1.561   2.938  0.0270  1.3207  0.4981
 1767SOL    MW4 7143   1.558   1.527   2.958 -0.4007 -0.0006 -0.0472
 1768SOL     OW 7144   1.323   1.646   2.871 -0.2394 -0.1739  0.2632
 1768SOL    HW2 7145   1.345   1.737   2.893  1.0935 -0.5522  0.5504
 1768SOL    HW3 7146   1.323   1.644   2.775 -0.2583  0.1267  0.2561
 1768SOL    MW4 7147   1.326   1.658   2.861 -0.0660 -0.1841  0.3002
 1769SOL     OW 7148   1.347   1.925   2.945  0.0883  0.1359 -0.0259
 1769SOL    HW2 7149   1.343   1.905   3.038  0.0035  0.8911  0.1348
 1769SOL    HW3 7150   1.264   1.967   2.926  0.3350  0.4951 -0.3210
 1769SOL    MW4 7151   1.336   1.928   2.955  0.1096  0.2830 -0.0436
 1770SOL     OW 7152   1.568   2.048   2.888 -0.1351 -0.1702 -0.1566
 1770SOL    HW2 7153   1.480   2.012   2.895 -1.0701  2.0589  0.0949
 1770SOL    HW3 7154   1.585   2.052   2.794 -0.0460 -1.2255 -0.1818
 1770SOL    MW4 7155   1.558   2.044   2.876 -0.2465 -0.0153 -0.1266
 1771SOL     OW 7156   1.567   2.309   2.994 -0.0893  0.2613 -0.2690
 1771SOL    HW2 7157   1.500   2.360   2.948 -0.1052  1.8135  1.4753
 1771SOL    HW3 7158   1.548   2.218   2.968 -2.4225  0.7401 -0.3723
 1771SOL    MW4 7159   1.556   2.303   2.984 -0.3992  0.5293 -0.0527
 1772SOL     OW 7160   1.346   2.430   2.864  0.0728 -0.1114 -0.1938
 1772SOL    HW2 7161   1.264   2.391   2.893 -1.2328  2.8440  0.1629
 1772SOL    HW3 7162   1.347   2.416   2.770 -0.3567 -1.0364 -0.0666
 1772SOL    MW4 7163   1.336   2.423   2.856 -0.1560  0.1566 -0.1302
 1773SOL     OW 7164   1.353   2.698   2.967  0.3290  0.0083 -0.8097
 1773SOL    HW2 7165   1.361   2.607   2.938  1.2491  0.3266 -1.5970
 1773SOL    HW3 7166   1.266   2.725   2.938 -0.3443 -0.9231  0.3119
 1773SOL    MW4 7167   1.343   2.689   2.960  0.3617 -0.0725 -0.7656
 1774SOL     OW 7168   1.555   2.836   2.830 -0.0113  0.7951 -0.4328
 1774SOL    HW2 7169   1.626   2.791   2.876 -1.1197  0.6090  1.1334
 1774SOL    HW3 7170   1.476   2.811   2.878 -0.9620  2.2508 -1.2136
 1774SOL    MW4 7171   1.554   2.827   2.842 -0.2829  0.9627 -0.3290
 1775SOL     OW 7172   1.579   3.098   2.951 -0.2853  0.7379 -0.3482
 1775SOL    HW2 7173   1.570   3.088   3.046 -0.5510  0.2938 -0.4155
 1775SOL    HW3 7174   1.562   3.010   2.917 -1.3470  1.1515 -0.8929
 1775SOL    MW4 7175   1.576   3.085   2.959 -0.4604  0.7339 -0.4289
 1776SOL     OW 7176   1.326   3.220   2.908 -0.3211  0.2700  0.1404
 1776SOL    HW2 7177   1.417   3.198   2.928  0.0987  1.7572 -0.0593
 1776SOL    HW3 7178   1.318   3.205   2.814 -0.2549  0.1835  0.1484
 1776SOL    MW4 7179   1.337   3.215   2.898 -0.2569  0.4549  0.1149
 1777SOL     OW 7180   1.319   3.497   2.968 -0.0498 -0.1198 -0.0250
 1777SOL    HW2 7181   1.323   3.488   3.063 -1.0396  1.3173  0.1643
 1777SOL    HW3 7182   1.311   3.408   2.935 -2.4489 -0.4401  1.3760
 1777SOL    MW4 7183   1.319   3.484   2.976 -0.4971  0.0277  0.1848
 1778SOL     OW 7184   1.557   3.582   2.837 -0.5173 -0.4834 -0.4192
 1778SOL    HW2 7185   1.495   3.539   2.895 -0.6222 -0.2075 -0.3272
 1778SOL    HW3 7186   1.643   3.563   2.874 -0.6877  1.8622  1.3199
 1778SOL    MW4 7187   1.560   3.574   2.849 -0.5537 -0.1376 -0.1779
 1779SOL     OW 7188   1.568   3.832   2.980 -0.1562 -0.2912 -0.1445
 1779SOL    HW2 7189   1.634   3.894   2.948 -0.2587  0.3028  0.7695
 1779SOL    HW3 7190   1.574   3.757   2.920  1.1316 -0.1135 -0.2489
 1779SOL    MW4 7191   1.577   3.830   2.968  0.0001 -0.1895 -0.0377
 1780SOL     OW 7192   1.376   4.005   2.847  0.1366 -0.1089  0.1074
 1780SOL    HW2 7193   1.447   3.954   2.887  0.5962  0.7352  0.3853
 1780SOL    HW3 7194   1.296   3.968   2.883  0.5206  0.1742  1.2637
 1780SOL    MW4 7195   1.375   3.993   2.857  0.2478  0.0398  0.2966
 1781SOL     OW 7196   1.357   4.247   2.984  0.2186  0.0858 -0.5520
 1781SOL    HW2 7197   1.353   4.160   2.944 -0.6341 -0.4197  0.6040
 1781SOL    HW3 7198   1.274   4.288   2.961  0.3137  0.3210 -0.4787
 1781SOL    MW4 7199   1.345   4.240   2.976  0.1186  0.0501 -0.3898
 1782SOL     OW 7200   1.550   4.421   2.894  0.3070 -0.0861 -0.1863
 1782SOL    HW2 7201   1.481   4.365   2.929  0.5872  0.1088  0.6861
 1782SOL    HW3 7202   1.534   4.507   2.935 -0.3370  0.5657 -1.7785
 1782SOL    MW4 7203   1.539   4.425   2.904  0.2590  0.0257 -0.2811
 1783SOL     OW 7204   2.032   0.007   2.968  0.5279 -0.0016  0.0788
 1783SOL    HW2 7205   2.032   0.011   3.064  2.0254  1.0920  0.0539
 1783SOL    HW3 7206   1.954   0.055   2.941  0.2689 -0.0448  0.7439
 1783SOL    MW4 7207   2.022   0.014   2.978  0.6914  0.1373  0.1633
 1784SOL     OW 7208   1.778   0.136   2.885  0.5049 -0.0342 -0.4370
 1784SOL    HW2 7209   1.718   0.075   2.927  0.0316  0.6946 -0.0333
 1784SOL    HW3 7210   1.741   0.150   2.798 -0.3744  1.0416  0.0972
 1784SOL    MW4 7211   1.765   0.130   2.879  0.3264  0.2039 -0.3130
 1785SOL     OW 7212   1.777   0.372   3.024 -0.1472  0.1426 -0.2407
 1785SOL    HW2 7213   1.776   0.283   2.989  0.9542  0.7551 -1.8952
 1785SOL    HW3 7214   1.699   0.413   2.989 -0.1302  0.1325 -0.2899
 1785SOL    MW4 7215   1.767   0.366   3.015  0.0005  0.2221 -0.4656
 1786SOL     OW 7216   1.996   0.459   2.883  0.0367 -0.4161 -0.1202
 1786SOL    HW2 7217   1.922   0.421   2.928 -0.8134  1.6301  0.2561
 1786SOL    HW3 7218   1.981   0.440   2.790  0.3553 -2.1784  0.1753
 1786SOL    MW4 7219   1.985   0.451   2.876 -0.0335 -0.3787 -0.0312
 1787SOL     OW 7220   2.048   0.707   2.961  0.3423 -0.2325 -0.1846
 1787SOL    HW2 7221   1.973   0.765   2.947  1.6544  1.2722 -1.1560
 1787SOL    HW3 7222   2.021   0.624   2.921 -0.6673  0.4060 -0.8605
 1787SOL    MW4 7223   2.035   0.704   2.954  0.3822  0.0503 -0.4017
 1788SOL     OW 7224   1.827   0.853   2.916 -0.4478  0.0661 -0.0498
 1788SOL    HW2 7225   1.796   0.844   2.826 -1.7153 -1.0495  0.4785
 1788SOL    HW3 7226   1.765   0.801   2.968  3.1136 -3.4398  0.9093
 1788SOL    MW4 7227   1.814   0.845   2.911 -0.1452 -0.5437  0.1464
 1789SOL     OW 7228   1.817   1.134   2.978  0.2129 -0.3365  0.2624
 1789SOL    HW2 7229   1.794   1.148   3.069 -0.7754 -0.4903  0.0387
 1789SOL    HW3 7230   1.812   1.039   2.966 -0.8984 -0.2162 -0.2714
 1789SOL    MW4 7231   1.814   1.123   2.988 -0.0641 -0.3411  0.1624
 1790SOL     OW 7232   2.018   1.318   2.886  0.1922 -0.1305 -0.1328
 1790SOL    HW2 7233   2.108   1.298   2.914  0.4993  0.1578 -0.9066
 1790SOL    HW3 7234   1.967   1.242   2.915  0.8376 -0.7000 -0.4662
 1790SOL    MW4 7235   2.023   1.305   2.894  0.3178 -0.1677 -0.2789
 1791SOL     OW 7236   1.987   1.563   3.014 -0.4793 -0.4429 -0.1269
 1791SOL    HW2 7237   1.983   1.559   3.110 -3.7646 -0.1449 -0.1934
 1791SOL    HW3 7238   1.993   1.472   2.986  2.2339 -0.4561  0.3673
 1791SOL    MW4 7239   1.987   1.551   3.023 -0.5548 -0.4054 -0.0703
 1792SOL     OW 7240   1.770   1.646   2.855 -0.3503 -0.3721  0.0726
 1792SOL    HW2 7241   1.767   1.736   2.888  0.6576 -0.2721 -0.0843
 1792SOL    HW3 7242   1.834   1.602   2.911  0.8888 -0.3738 -1.3205
 1792SOL    MW4 7243   1.778   1.652   2.867 -0.0540 -0.3592 -0.1318
 1793SOL     OW 7244   1.776   1.887   2.975  0.2225 -0.4370  0.2409
 1793SOL    HW2 7245   1.844   1.949   2.947 -1.0333  0.1536 -1.6233
 1793SOL    HW3 7246   1.694   1.929   2.950 -0.7686 -1.7536  1.2227
 1793SOL    MW4 7247   1.774   1.901   2.968 -0.0738 -0.5327  0.1245
 1794SOL     OW 7248   1.984   2.020   2.872  0.2060 -0.5412  0.2513
 1794SOL    HW2 7249   2.056   1.965   2.903 -0.6483 -1.8550 -0.0699
 1794SOL    HW3 7250   2.007   2.108   2.902  0.1207 -1.5196  3.4573
 1794SOL    MW4 7251   1.996   2.024   2.880  0.0819 -0.8438  0.6318
 1795SOL     OW 7252   2.029   2.288   2.943  0.3746 -0.2896  0.1971
 1795SOL    HW2 7253   2.099   2.344   2.910 -0.0530 -0.6771 -1.4092
 1795SOL    HW3 7254   1.949   2.339   2.930  0.3189  0.0742  1.8478
 1795SOL    MW4 7255   2.028   2.302   2.937  0.3109 -0.2928  0.2031
 1796SOL     OW 7256   1.790   2.417   2.895 -0.2214  0.6370  0.2418
 1796SOL    HW2 7257   1.790   2.510   2.919 -2.6565  1.1266 -1.4473
 1796SOL    HW3 7258   1.709   2.383   2.933  0.4965 -0.7608  0.5738
 1796SOL    MW4 7259   1.779   2.425   2.903 -0.4479  0.5171  0.0627
 1797SOL     OW 7260   1.783   2.687   2.934  0.0836 -0.4253 -0.1486
 1797SOL    HW2 7261   1.780   2.692   3.030 -0.6311 -0.3183 -0.1772
 1797SOL    HW3 7262   1.861   2.737   2.910 -1.0815  1.6005  0.2185
 1797SOL    MW4 7263   1.793   2.694   2.944 -0.1644 -0.1440 -0.1042
 1798SOL     OW 7264   2.008   2.842   2.851 -0.1712 -0.4397 -0.1117
 1798SOL    HW2 7265   2.007   2.936   2.870  1.8201 -0.2566 -0.7807
 1798SOL    HW3 7266   2.074   2.807   2.911 -1.0474 -1.4446  0.2657
 1798SOL    MW4 7267   2.017   2.850   2.861 -0.0241 -0.5481 -0.1500
 1799SOL     OW 7268   2.004   3.109   2.927  0.1438  0.2584 -0.0188
 1799SOL    HW2 7269   1.985   3.101   3.021  0.2007 -0.5889 -0.0778
 1799SOL    HW3 7270   1.923   3.143   2.889  0.8731  2.8664  0.6704
 1799SOL    MW4 7271   1.991   3.112   2.935  0.2477  0.4907  0.0641
 1800SOL     OW 7272   1.775   3.275   2.825 -0.1452  0.0608  0.0448
 1800SOL    HW2 7273   1.697   3.236   2.865  0.1872 -0.4551  0.1973
 1800SOL    HW3 7274   1.771   3.247   2.734 -0.4293  0.4891 -0.0715
 1800SOL    MW4 7275   1.764   3.266   2.818 -0.1388  0.0491  0.0496
 1801SOL     OW 7276   1.791   3.511   2.966  0.2712  0.2495 -0.0865
 1801SOL    HW2 7277   1.800   3.433   2.911  0.3528  0.5206 -0.4568
 1801SOL    HW3 7278   1.867   3.565   2.945 -0.3333  0.9076 -0.6044
 1801SOL    MW4 7279   1.802   3.508   2.956  0.2023  0.3719 -0.2036
 1802SOL     OW 7280   2.000   3.623   2.814  0.3655 -0.2532  0.4486
 1802SOL    HW2 7281   2.012   3.701   2.867  0.6442 -0.8796  1.3194
 1802SOL    HW3 7282   2.074   3.567   2.837 -0.8065 -1.5364  1.1810
 1802SOL    MW4 7283   2.011   3.626   2.824  0.2472 -0.5052  0.6602
 1803SOL     OW 7284   1.997   3.851   2.955  0.1323 -0.4518 -0.3916
 1803SOL    HW2 7285   2.017   3.841   3.048  1.6636  0.2634 -0.6343
 1803SOL    HW3 7286   1.913   3.898   2.953  1.3763  1.8697  0.6122
 1803SOL    MW4 7287   1.988   3.856   2.967  0.4983 -0.0510 -0.2911
 1804SOL     OW 7288   1.775   3.987   2.888 -0.1816  0.4017 -0.2886
 1804SOL    HW2 7289   1.776   4.074   2.927 -0.6474 -0.3263  1.3746
 1804SOL    HW3 7290   1.797   4.002   2.796  1.6986  2.0581  0.4065
 1804SOL    MW4 7291   1.778   4.000   2.881  0.0049  0.5238  0.0226
 1805SOL     OW 7292   1.754   4.253   2.969  0.2404  0.4896 -0.4187
 1805SOL    HW2 7293   1.829   4.309   2.951  0.4440 -0.1879 -1.7384
 1805SOL    HW3 7294   1.678   4.308   2.951  0.4366  0.4522 -1.3793
 1805SOL    MW4 7295   1.754   4.267   2.965  0.2930  0.3953 -0.7193
 1806SOL     OW 7296   1.947   4.427   2.878 -0.4946  0.5167 -0.1857
 1806SOL    HW2 7297   1.971   4.515   2.907  1.0820 -0.1370  0.5350
 1806SOL    HW3 7298   1.978   4.422   2.787 -0.6510  0.7246 -0.2509
 1806SOL    MW4 7299   1.954   4.438   2.870 -0.3071  0.4578 -0.0992
 1807SOL     OW 7300   2.472   4.652   3.009  0.1747 -0.1744  0.0889
 1807SOL    HW2 7301   2.471   4.559   2.987  1.0540 -0.4278  1.0792
 1807SOL    HW3 7302   2.403   4.690   2.955  0.9662 -1.0990 -1.6370
 1807SOL    MW4 7303   2.463   4.644   2.999  0.3951 -0.3300 -0.0081
 1808SOL     OW 7304   2.277   0.138   2.877 -0.2143 -0.1014 -0.0454
 1808SOL    HW2 7305   2.287   0.219   2.926  0.3498 -0.2265  0.0480
 1808SOL    HW3 7306   2.202   0.094   2.918  0.5376 -0.4266  1.0151
 1808SOL    MW4 7307   2.268   0.143   2.889 -0.0410 -0.1608  0.1068
 1809SOL     OW 7308   2.237   0.381   3.020 -0.0712 -0.5598 -0.4332
 1809SOL    HW2 7309   2.227   0.395   3.114  0.1648  0.0680 -0.4992
 1809SOL    HW3 7310   2.168   0.434   2.980  1.6691  1.5311 -0.7465
 1809SOL    MW4 7311   2.227   0.390   3.027  0.1893 -0.2011 -0.4833
 1810SOL     OW 7312   2.444   0.486   2.873 -0.0057  0.4765 -0.0709
 1810SOL    HW2 7313   2.371   0.451   2.925 -0.3214  0.2540 -0.6638
 1810SOL    HW3 7314   2.522   0.451   2.916 -0.2461  0.7080  0.5619
 1810SOL    MW4 7315   2.445   0.477   2.886 -0.0792  0.4777 -0.0656
 1811SOL     OW 7316   2.441   0.717   3.005 -0.6844 -0.1383 -0.1513
 1811SOL    HW2 7317   2.528   0.747   2.980 -0.1108 -1.3114  0.4106
 1811SOL    HW3 7318   2.433   0.630   2.965 -1.6305 -0.0024 -0.2773
 1811SOL    MW4 7319   2.451   0.709   2.996 -0.7334 -0.2751 -0.0935
 1812SOL     OW 7320   2.258   0.852   2.858  0.5894 -0.1369 -0.0685
 1812SOL    HW2 7321   2.338   0.814   2.894  0.3319  0.6076  1.3627
 1812SOL    HW3 7322   2.188   0.793   2.887  0.2944  0.8745  1.3467
 1812SOL    MW4 7323   2.259   0.839   2.867  0.5167  0.0947  0.3071
 1813SOL     OW 7324   2.229   1.157   2.969 -0.1482  0.2080  0.3454
 1813SOL    HW2 7325   2.225   1.158   3.065  0.9927 -0.9805  0.4181
 1813SOL    HW3 7326   2.211   1.067   2.945  0.3316  0.3387 -0.5216
 1813SOL    MW4 7327   2.226   1.146   2.978  0.0653  0.0685  0.2406
 1814SOL     OW 7328   2.465   1.264   2.891  0.1712 -0.3988 -0.4546
 1814SOL    HW2 7329   2.384   1.214   2.906  0.0298 -0.4122 -1.2431
 1814SOL    HW3 7330   2.476   1.264   2.796  1.4651 -0.9699 -0.3115
 1814SOL    MW4 7331   2.456   1.257   2.881  0.3233 -0.4759 -0.5395
 1815SOL     OW 7332   2.481   1.520   2.964  0.2905  0.0751  0.2149
 1815SOL    HW2 7333   2.398   1.566   2.955  1.1881  1.5187 -0.9173
 1815SOL    HW3 7334   2.463   1.431   2.934 -0.6942  0.5595 -0.6602
 1815SOL    MW4 7335   2.468   1.514   2.959  0.2792  0.3295 -0.0501
 1816SOL     OW 7336   2.230   1.622   2.888  0.0275 -0.0997  0.0798
 1816SOL    HW2 7337   2.144   1.594   2.919 -0.0370 -1.0680 -0.9370
 1816SOL    HW3 7338   2.229   1.603   2.794  1.1068  0.5075 -0.0659
 1816SOL    MW4 7339   2.218   1.616   2.880  0.1616 -0.1473 -0.0737
 1817SOL     OW 7340   2.201   1.883   2.990 -0.5193  0.3777 -0.3801
 1817SOL    HW2 7341   2.276   1.934   2.960 -0.0194 -0.1862 -0.0991
 1817SOL    HW3 7342   2.219   1.794   2.958 -0.7364  0.0979  0.2775
 1817SOL    MW4 7343   2.213   1.878   2.982 -0.4821  0.2663 -0.2563
 1818SOL     OW 7344   2.418   2.026   2.910  0.0175 -0.5241  0.2602
 1818SOL    HW2 7345   2.503   1.992   2.939  0.3375  0.6380  0.7299
 1818SOL    HW3 7346   2.426   2.035   2.815  0.9238  0.8886  0.4503
 1818SOL    MW4 7347   2.431   2.023   2.902  0.1793 -0.1845  0.3471
 1819SOL     OW 7348   2.438   2.317   2.941 -0.7662 -0.1547  0.0964
 1819SOL    HW2 7349   2.456   2.310   3.035  0.5278  0.6475 -0.0938
 1819SOL    HW3 7350   2.429   2.226   2.912 -1.4386 -0.3962  1.0485
 1819SOL    MW4 7351   2.439   2.304   2.950 -0.6840 -0.0808  0.1969
 1820SOL     OW 7352   2.228   2.462   2.861 -0.2119 -0.2788  0.0459
 1820SOL    HW2 7353   2.205   2.539   2.913  0.0648 -1.1813  1.5185
 1820SOL    HW3 7354   2.309   2.429   2.900 -0.9083 -1.9458  0.1310
 1820SOL    MW4 7355   2.235   2.468   2.873 -0.2675 -0.6175  0.2515
 1821SOL     OW 7356   2.203   2.711   2.979 -0.0372 -0.4552 -0.3318
 1821SOL    HW2 7357   2.279   2.752   2.938  0.1541 -0.5706 -0.0893
 1821SOL    HW3 7358   2.215   2.727   3.073 -1.3700  1.3744 -0.4428
 1821SOL    MW4 7359   2.214   2.719   2.986 -0.1879 -0.2291 -0.3147
 1822SOL     OW 7360   2.452   2.849   2.887 -0.1252  0.2967 -0.3007
 1822SOL    HW2 7361   2.452   2.937   2.924  1.3593  0.0990  0.2102
 1822SOL    HW3 7362   2.455   2.862   2.793 -2.4918  0.7992 -0.3113
 1822SOL    MW4 7363   2.453   2.862   2.880 -0.2418  0.3371 -0.2346
 1823SOL     OW 7364   2.451   3.123   2.986  0.2641  0.2259 -0.1609
 1823SOL    HW2 7365   2.526   3.152   2.934 -0.4047  1.8371 -0.2469
 1823SOL    HW3 7366   2.377   3.173   2.951 -0.7053 -0.7397  0.4745
 1823SOL    MW4 7367   2.451   3.133   2.974  0.0479  0.3111 -0.0882
 1824SOL     OW 7368   2.257   3.255   2.838  0.0963 -0.8075 -0.0941
 1824SOL    HW2 7369   2.246   3.342   2.875  0.8967 -0.3659 -0.8694
 1824SOL    HW3 7370   2.178   3.207   2.865 -1.4978  0.8530 -1.6510
 1824SOL    MW4 7371   2.245   3.260   2.846 -0.0086 -0.5298 -0.4020
 1825SOL     OW 7372   2.206   3.496   2.948  0.1232 -0.1031  0.7495
 1825SOL    HW2 7373   2.283   3.544   2.917  2.3023 -4.3876 -1.1015
 1825SOL    HW3 7374   2.221   3.484   3.041  1.3121 -0.1337  0.5701
 1825SOL    MW4 7375   2.218   3.500   2.956  0.5674 -0.6726  0.4818
 1826SOL     OW 7376   2.452   3.612   2.881 -0.2093  0.3143 -0.2035
 1826SOL    HW2 7377   2.523   3.557   2.914  0.3485  0.4837 -1.0958
 1826SOL    HW3 7378   2.468   3.698   2.919 -0.8343 -0.0239  0.8455
 1826SOL    MW4 7379   2.463   3.616   2.890 -0.2182  0.2921 -0.1824
 1827SOL     OW 7380   2.474   3.890   2.958 -0.1761 -0.2050  0.2084
 1827SOL    HW2 7381   2.471   3.890   3.053 -1.5341  1.6423  0.2015
 1827SOL    HW3 7382   2.552   3.942   2.936 -1.1261  1.3316  0.3460
 1827SOL    MW4 7383   2.484   3.897   2.968 -0.4807  0.2415  0.2255
 1828SOL     OW 7384   2.232   4.010   2.854 -0.3727  0.3335  0.1355
 1828SOL    HW2 7385   2.311   3.966   2.886 -1.1030  0.0316  1.5608
 1828SOL    HW3 7386   2.161   3.974   2.906 -1.1257  2.4398  0.6327
 1828SOL    MW4 7387   2.233   4.000   2.865 -0.5684  0.5717  0.3891
 1829SOL     OW 7388   2.214   4.272   2.977  0.1138  0.2234  0.3886
 1829SOL    HW2 7389   2.224   4.186   2.936  0.7074  1.4044 -2.0272
 1829SOL    HW3 7390   2.132   4.307   2.941  0.6798  1.3139  0.1339
 1829SOL    MW4 7391   2.204   4.265   2.967  0.2668  0.5231  0.0365
 1830SOL     OW 7392   2.452   4.391   2.910 -0.3227  0.2259  0.2155
 1830SOL    HW2 7393   2.370   4.349   2.936  0.7399 -2.0862 -0.0470
 1830SOL    HW3 7394   2.452   4.385   2.814  1.3882 -2.3169  0.3191
 1830SOL    MW4 7395   2.441   4.384   2.901  0.0434 -0.4139  0.1945
 1831SOL     OW 7396   2.905   4.663   2.956  0.1790 -0.3531  0.0561
 1831SOL    HW2 7397   2.927   4.659   3.049  0.6140 -1.9490 -0.0932
 1831SOL    HW3 7398   2.915   4.573   2.925 -1.2438 -0.0895 -1.2521
 1831SOL    MW4 7399   2.909   4.651   2.964  0.0484 -0.5283 -0.1364
 1832SOL     OW 7400   2.677   0.125   2.875 -0.1628 -0.1022 -0.2152
 1832SOL    HW2 7401   2.764   0.101   2.906  0.0534  1.0323  0.0583
 1832SOL    HW3 7402   2.617   0.075   2.930  0.2934 -0.1705  0.2198
 1832SOL    MW4 7403   2.680   0.115   2.886 -0.0741  0.0385 -0.1216
 1833SOL     OW 7404   2.674   0.377   2.995 -0.0589 -0.1684 -0.2041
 1833SOL    HW2 7405   2.679   0.286   2.965 -0.7093 -0.2518 -0.0569
 1833SOL    HW3 7406   2.753   0.418   2.960  0.1092 -0.7274 -0.4814
 1833SOL    MW4 7407   2.685   0.370   2.986 -0.1225 -0.2531 -0.2213
 1834SOL     OW 7408   2.903   0.482   2.891 -0.0832  0.2151  0.3121
 1834SOL    HW2 7409   2.988   0.439   2.891 -0.1927 -0.0033  0.5783
 1834SOL    HW3 7410   2.884   0.498   2.799  1.0805  1.9435  0.3563
 1834SOL    MW4 7411   2.912   0.479   2.879  0.0560  0.4143  0.3531
 1835SOL     OW 7412   2.911   0.757   2.981  0.0754 -0.1242 -0.2846
 1835SOL    HW2 7413   2.922   0.763   3.076  0.7630 -1.0224 -0.3116
 1835SOL    HW3 7414   2.902   0.664   2.963 -0.7141  0.0831 -1.0358
 1835SOL    MW4 7415   2.911   0.746   2.991  0.0620 -0.2154 -0.3874
 1836SOL     OW 7416   2.680   0.861   2.870 -0.5109  0.0008 -0.2401
 1836SOL    HW2 7417   2.658   0.952   2.890  0.2797  0.2007 -0.2976
 1836SOL    HW3 7418   2.758   0.843   2.922 -1.2663 -0.9642  0.5830
 1836SOL    MW4 7419   2.687   0.870   2.880 -0.5062 -0.1001 -0.1390
 1837SOL     OW 7420   2.697   1.123   2.966 -0.4747  0.5699 -0.5964
 1837SOL    HW2 7421   2.620   1.181   2.963  0.0869  1.3351 -0.4374
 1837SOL    HW3 7422   2.722   1.121   3.058 -0.5032  0.0604 -0.6016
 1837SOL    MW4 7423   2.690   1.131   2.977 -0.4044  0.6037 -0.5760
 1838SOL     OW 7424   2.921   1.254   2.876  0.9705  0.4607  0.2181
 1838SOL    HW2 7425   2.909   1.347   2.892  1.3387  0.5339  0.0738
 1838SOL    HW3 7426   2.836   1.214   2.898  0.2805  1.0356 -1.3632
 1838SOL    MW4 7427   2.908   1.261   2.881  0.9279  0.5463 -0.0095
 1839SOL     OW 7428   2.913   1.512   2.968  0.2210  0.1896 -0.4180
 1839SOL    HW2 7429   2.928   1.533   3.060  0.9272  0.0152 -0.4954
 1839SOL    HW3 7430   2.981   1.561   2.921  0.3735 -0.3769 -0.7817
 1839SOL    MW4 7431   2.924   1.521   2.974  0.3340  0.0918 -0.4764
 1840SOL     OW 7432   2.704   1.666   2.884  0.1354  0.0153  0.6542
 1840SOL    HW2 7433   2.775   1.606   2.905  0.4785  0.2570  0.2071
 1840SOL    HW3 7434   2.625   1.622   2.915  0.5652  0.1335  1.9408
 1840SOL    MW4 7435   2.703   1.652   2.891  0.2375  0.0628  0.7651
 1841SOL     OW 7436   2.653   1.917   2.992  0.2537 -0.5356  0.1395
 1841SOL    HW2 7437   2.726   1.963   2.950  0.5955  0.1046  1.3928
 1841SOL    HW3 7438   2.663   1.826   2.965  0.4479 -0.1283 -1.1648
 1841SOL    MW4 7439   2.664   1.911   2.983  0.3245 -0.3973  0.1326
 1842SOL     OW 7440   2.894   2.040   2.895  0.4805  0.0844 -0.4499
 1842SOL    HW2 7441   2.904   2.132   2.920  0.1880 -0.0227  0.0540
 1842SOL    HW3 7442   2.967   1.995   2.938 -0.6577 -0.2771  1.1191
 1842SOL    MW4 7443   2.905   2.046   2.904  0.2916  0.0226 -0.1762
 1843SOL     OW 7444   2.871   2.295   3.050  0.1506 -0.1560  0.0417
 1843SOL    HW2 7445   2.957   2.321   3.016  0.0784 -0.9076 -0.7380
 1843SOL    HW3 7446   2.808   2.339   2.993  0.0241 -0.5840 -0.1494
 1843SOL    MW4 7447   2.874   2.304   3.038  0.1245 -0.3114 -0.0863
 1844SOL     OW 7448   2.691   2.400   2.872 -0.2374  0.1059 -0.3362
 1844SOL    HW2 7449   2.693   2.496   2.876  0.2397  0.1551 -1.6504
 1844SOL    HW3 7450   2.604   2.377   2.906 -0.1560  0.9642  0.4835
 1844SOL    MW4 7451   2.679   2.410   2.877 -0.1636  0.2255 -0.4015
 1845SOL     OW 7452   2.668   2.675   2.949  0.2447  0.0604 -0.3827
 1845SOL    HW2 7453   2.663   2.668   3.044 -1.6162 -1.5583 -0.5744
 1845SOL    HW3 7454   2.585   2.715   2.923 -0.3423 -1.7851 -1.4907
 1845SOL    MW4 7455   2.656   2.679   2.958 -0.0784 -0.3965 -0.5541
 1846SOL     OW 7456   2.912   2.804   2.881 -0.1339 -0.0536 -0.0453
 1846SOL    HW2 7457   2.978   2.741   2.909  0.4189  0.8223  0.6491
 1846SOL    HW3 7458   2.828   2.762   2.901  0.2506  0.3930  2.5935
 1846SOL    MW4 7459   2.910   2.790   2.887 -0.0103  0.1209  0.3946
 1847SOL     OW 7460   2.897   3.075   2.941 -0.0769  0.0649 -0.6554
 1847SOL    HW2 7461   2.883   3.077   3.035 -0.5434  1.8379 -0.7327
 1847SOL    HW3 7462   2.918   2.984   2.921  2.4682  0.1160  1.5023
 1847SOL    MW4 7463   2.898   3.064   2.950  0.1974  0.3054 -0.3810
 1848SOL     OW 7464   2.686   3.242   2.852  0.2779 -0.5710  0.4568
 1848SOL    HW2 7465   2.691   3.322   2.904  0.6258 -0.8582  0.8649
 1848SOL    HW3 7466   2.754   3.186   2.888  1.2647 -0.3613 -1.0154
 1848SOL    MW4 7467   2.695   3.246   2.864  0.4542 -0.5810  0.3164
 1849SOL     OW 7468   2.667   3.479   2.993  0.0363 -0.1669 -0.5495
 1849SOL    HW2 7469   2.653   3.504   3.085 -2.6115  0.0062 -0.9752
 1849SOL    HW3 7470   2.743   3.531   2.966 -0.4709  1.4039  0.9388
 1849SOL    MW4 7471   2.675   3.489   3.002 -0.3800  0.0632 -0.4094
 1850SOL     OW 7472   2.894   3.624   2.897 -0.2374  0.2851 -0.7219
 1850SOL    HW2 7473   2.977   3.581   2.915 -1.1829 -0.7789  1.2946
 1850SOL    HW3 7474   2.909   3.716   2.919  1.1791  0.6428 -3.0451
 1850SOL    MW4 7475   2.907   3.630   2.902 -0.1750  0.1922 -0.7622
 1851SOL     OW 7476   2.926   3.899   2.961  0.3810 -0.1355  0.5154
 1851SOL    HW2 7477   2.919   3.892   3.056 -0.7861  0.9178  0.5305
 1851SOL    HW3 7478   2.849   3.951   2.936  2.3458  2.2712 -0.6745
 1851SOL    MW4 7479   2.915   3.905   2.970  0.4861  0.3209  0.3605
 1852SOL     OW 7480   2.710   4.034   2.853  0.0161  0.1063 -0.5147
 1852SOL    HW2 7481   2.710   4.126   2.879 -1.6666  0.5413 -1.9238
 1852SOL    HW3 7482   2.720   4.036   2.758 -1.0991 -1.1076 -0.6750
 1852SOL    MW4 7483   2.711   4.046   2.844 -0.3529  0.0033 -0.7217
 1853SOL     OW 7484   2.896   4.389   2.831  0.2200 -0.1411  0.3109
 1853SOL    HW2 7485   2.975   4.353   2.873  0.0051 -1.6452 -0.5149
 1853SOL    HW3 7486   2.824   4.363   2.889  0.0979 -0.7757 -0.1199
 1853SOL    MW4 7487   2.897   4.381   2.844  0.1755 -0.4230  0.1452
 1854SOL     OW 7488   3.119   4.284   2.982 -0.4785  0.6111  0.2932
 1854SOL    HW2 7489   3.110   4.192   2.956  0.9719  0.7795 -0.9263
 1854SOL    HW3 7490   3.122   4.282   3.078 -0.0244 -0.6761  0.2642
 1854SOL    MW4 7491   3.118   4.271   2.991 -0.2275  0.4635  0.1285
 1855SOL     OW 7492   3.395   4.599   2.970 -0.0873 -0.1601 -0.1645
 1855SOL    HW2 7493   3.474   4.638   2.932  0.0507  0.1957  0.4869
 1855SOL    HW3 7494   3.394   4.509   2.936  0.5552 -0.1461 -0.2273
 1855SOL    MW4 7495   3.405   4.592   2.960  0.0160 -0.1111 -0.0868
 1856SOL     OW 7496   3.161   0.077   2.868 -0.2616  0.1049 -0.0226
 1856SOL    HW2 7497   3.232   0.034   2.916  0.0144  1.4052  0.7442
 1856SOL    HW3 7498   3.082   0.042   2.908 -0.0701 -1.5526 -1.0559
 1856SOL    MW4 7499   3.160   0.067   2.880 -0.2000  0.0577 -0.0579
 1857SOL     OW 7500   3.148   0.367   2.928 -0.1160 -0.7072 -0.3428
 1857SOL    HW2 7501   3.232   0.401   2.896  0.8682 -1.0343  1.8432
 1857SOL    HW3 7502   3.150   0.274   2.903  0.3770 -0.8228  0.1247
 1857SOL    MW4 7503   3.159   0.359   2.920  0.0789 -0.7656  0.0074
 1858SOL     OW 7504   3.393   0.501   2.866  0.1017 -0.1143 -0.0901
 1858SOL    HW2 7505   3.457   0.445   2.910 -0.0487 -0.2185 -0.0062
 1858SOL    HW3 7506   3.406   0.484   2.773 -1.4548 -1.9527 -0.0060
 1858SOL    MW4 7507   3.403   0.491   2.860 -0.1235 -0.3706 -0.0679
 1859SOL     OW 7508   3.348   0.764   2.963 -0.4027  0.0579  0.2348
 1859SOL    HW2 7509   3.341   0.754   3.058  1.9679 -0.6613  0.3665
 1859SOL    HW3 7510   3.373   0.677   2.931 -0.1127  0.5548 -0.9374
 1859SOL    MW4 7511   3.350   0.751   2.971 -0.0517  0.0286  0.0978
 1860SOL     OW 7512   3.133   0.878   2.835  0.5631  0.0210 -0.3621
 1860SOL    HW2 7513   3.210   0.844   2.881 -0.3850  0.4873  1.6354
 1860SOL    HW3 7514   3.061   0.823   2.866 -0.1965  0.7701 -0.7981
 1860SOL    MW4 7515   3.134   0.866   2.845  0.3378  0.1814 -0.1562
 1861SOL     OW 7516   3.127   1.128   2.980 -0.4189  0.3979 -0.0396
 1861SOL    HW2 7517   3.057   1.170   2.931 -0.4781  0.2241 -0.1064
 1861SOL    HW3 7518   3.139   1.043   2.936 -1.1940 -0.2029  0.8887
 1861SOL    MW4 7519   3.119   1.122   2.968 -0.5291  0.2958  0.0741
 1862SOL     OW 7520   3.363   1.263   2.877  0.0837  0.0562 -0.6071
 1862SOL    HW2 7521   3.293   1.215   2.922  0.4807  0.6511  0.6530
 1862SOL    HW3 7522   3.366   1.348   2.921  0.5824  0.5946 -1.6656
 1862SOL    MW4 7523   3.354   1.268   2.888  0.2019  0.2058 -0.5803
 1863SOL     OW 7524   3.339   1.546   2.958 -0.2061  0.5947 -0.0492
 1863SOL    HW2 7525   3.344   1.581   3.047  0.2798  0.1079  0.1166
 1863SOL    HW3 7526   3.414   1.583   2.913 -0.4281  0.8082 -0.2497
 1863SOL    MW4 7527   3.349   1.555   2.964 -0.1714  0.5587 -0.0536
 1864SOL     OW 7528   3.110   1.652   2.854 -0.6225  0.0758  0.4797
 1864SOL    HW2 7529   3.193   1.612   2.879 -1.8882 -2.4698  0.7786
 1864SOL    HW3 7530   3.114   1.659   2.758 -0.5766 -1.2457  0.3802
 1864SOL    MW4 7531   3.121   1.648   2.845 -0.7834 -0.4344  0.5062
 1865SOL     OW 7532   3.132   1.901   2.989 -0.1258  0.6212 -0.0786
 1865SOL    HW2 7533   3.134   1.893   3.084  0.2747 -0.1553 -0.1411
 1865SOL    HW3 7534   3.104   1.814   2.959  0.0639  0.7649 -0.6773
 1865SOL    MW4 7535   3.128   1.888   2.997 -0.0482  0.5379 -0.1662
 1866SOL     OW 7536   3.347   2.031   2.870 -0.3155 -0.1953 -0.1024
 1866SOL    HW2 7537   3.421   1.977   2.897 -0.1433  0.0325 -0.1128
 1866SOL    HW3 7538   3.271   1.990   2.912 -0.0770  0.0272  0.5633
 1866SOL    MW4 7539   3.347   2.019   2.879 -0.2613 -0.1357 -0.0160
 1867SOL     OW 7540   3.327   2.281   2.959  0.1285  0.5163 -0.1757
 1867SOL    HW2 7541   3.335   2.267   3.053 -2.9861  1.3082  0.2582
 1867SOL    HW3 7542   3.344   2.195   2.921 -1.0840 -0.4042  1.2925
 1867SOL    MW4 7543   3.330   2.268   2.966 -0.4425  0.4990  0.0751
 1868SOL     OW 7544   3.084   2.387   2.882  0.0323  0.4903  0.0917
 1868SOL    HW2 7545   3.173   2.356   2.902  0.2717  0.8754 -0.3595
 1868SOL    HW3 7546   3.079   2.383   2.787 -1.5155 -2.4878  0.2409
 1868SOL    MW4 7547   3.095   2.382   2.872 -0.1404  0.1483  0.0520
 1869SOL     OW 7548   3.116   2.647   2.957  0.3010  0.0222  0.0823
 1869SOL    HW2 7549   3.114   2.557   2.925 -0.0718 -0.0419  0.2764
 1869SOL    HW3 7550   3.104   2.639   3.052  0.3644  0.2704  0.1116
 1869SOL    MW4 7551   3.114   2.634   2.965  0.2604  0.0465  0.1118
 1870SOL     OW 7552   3.313   2.810   2.852  0.1032  0.2767  0.5357
 1870SOL    HW2 7553   3.310   2.896   2.895 -1.4928  1.0422 -1.0444
 1870SOL    HW3 7554   3.251   2.756   2.901  1.2837 -0.0672  1.6803
 1870SOL    MW4 7555   3.305   2.814   2.864  0.0484  0.3326  0.4783
 1871SOL     OW 7556   3.337   3.051   2.978  0.4179  0.2434  0.4933
 1871SOL    HW2 7557   3.364   3.064   3.069  0.7273  1.9343  0.1772
 1871SOL    HW3 7558   3.263   3.110   2.965  1.2249  1.0369 -0.7151
 1871SOL    MW4 7559   3.331   3.061   2.988  0.5655  0.5710  0.2921
 1872SOL     OW 7560   3.133   3.220   2.893  0.1992 -0.0792 -0.0987
 1872SOL    HW2 7561   3.050   3.177   2.911  0.2992 -0.2588 -0.0697
 1872SOL    HW3 7562   3.148   3.206   2.799 -0.0336  0.3533 -0.2024
 1872SOL    MW4 7563   3.124   3.213   2.883  0.1814 -0.0458 -0.1082
 1873SOL     OW 7564   3.129   3.483   2.963  0.3133 -0.1767  0.1929
 1873SOL    HW2 7565   3.143   3.483   3.058  2.3598  0.4950 -0.0831
 1873SOL    HW3 7566   3.106   3.393   2.942 -1.7917  0.0162  1.5308
 1873SOL    MW4 7567   3.128   3.471   2.973  0.3054 -0.0627  0.3331
 1874SOL     OW 7568   3.580   3.462   2.965 -0.3277 -0.2264 -0.4983
 1874SOL    HW2 7569   3.507   3.519   2.941 -0.8159 -0.4384  0.4587
 1874SOL    HW3 7570   3.560   3.378   2.922 -1.1199 -0.5581  0.4862
 1874SOL    MW4 7571   3.567   3.458   2.957 -0.4966 -0.2978 -0.2422
 1875SOL     OW 7572   3.362   3.624   2.883 -0.3135 -0.1079  0.0013
 1875SOL    HW2 7573   3.278   3.583   2.901 -0.2209 -0.4412 -0.3058
 1875SOL    HW3 7574   3.348   3.717   2.898 -0.4744 -0.2704  0.9070
 1875SOL    MW4 7575   3.349   3.631   2.887 -0.3226 -0.1731  0.0803
 1876SOL     OW 7576   3.360   3.876   2.948  0.2940 -0.3678  0.4359
 1876SOL    HW2 7577   3.354   3.876   3.044  0.5448  0.3497  0.4557
 1876SOL    HW3 7578   3.285   3.928   2.919  0.5967 -0.0170  0.2753
 1876SOL    MW4 7579   3.350   3.883   2.957  0.3669 -0.2267  0.4172
 1877SOL     OW 7580   3.151   4.025   2.867 -0.1369  0.0630  0.2811
 1877SOL    HW2 7581   3.067   3.986   2.892  0.6144 -1.5454  0.3407
 1877SOL    HW3 7582   3.150   4.023   2.771  0.1011 -0.5595  0.2885
 1877SOL    MW4 7583   3.139   4.019   2.857 -0.0062 -0.2317  0.2899
 1878SOL     OW 7584   3.366   4.344   2.859 -0.0126 -0.6590 -0.3299
 1878SOL    HW2 7585   3.440   4.311   2.910  1.0363  0.4637 -1.1067
 1878SOL    HW3 7586   3.289   4.311   2.905  0.9762 -3.5588 -0.6281
 1878SOL    MW4 7587   3.365   4.335   2.872  0.2563 -0.8936 -0.4718
 1879SOL     OW 7588   3.833   4.630   3.043 -0.1201 -0.6022 -0.1162
 1879SOL    HW2 7589   3.848   4.543   3.006  0.5889  0.1613 -1.6705
 1879SOL    HW3 7590   3.769   4.670   2.985  0.6424  0.4332 -0.2642
 1879SOL    MW4 7591   3.827   4.624   3.031  0.0739 -0.3648 -0.3409
 1880SOL     OW 7592   3.636   0.070   2.873 -0.2693  0.0710 -0.3219
 1880SOL    HW2 7593   3.605   0.161   2.871 -0.7171 -0.0999 -1.6247
 1880SOL    HW3 7594   3.653   0.049   2.782 -0.6565 -1.3284 -0.0789
 1880SOL    MW4 7595   3.634   0.079   2.861 -0.3798 -0.1361 -0.4616
 1881SOL     OW 7596   3.613   0.336   2.952 -0.0164 -0.2067 -0.0288
 1881SOL    HW2 7597   3.607   0.337   3.047  0.2702 -0.6359 -0.0025
 1881SOL    HW3 7598   3.685   0.396   2.932  0.6152 -0.9199  0.0875
 1881SOL    MW4 7599   3.622   0.344   2.962  0.1049 -0.3574 -0.0103
 1882SOL     OW 7600   3.819   0.507   2.849 -0.3134 -0.3714 -0.7880
 1882SOL    HW2 7601   3.892   0.462   2.893 -0.8511 -1.1445 -0.6705
 1882SOL    HW3 7602   3.816   0.593   2.891 -1.9078 -1.6861  1.9761
 1882SOL    MW4 7603   3.829   0.512   2.860 -0.5949 -0.6468 -0.4079
 1883SOL     OW 7604   3.816   0.764   2.950 -0.1159  0.1312 -0.3752
 1883SOL    HW2 7605   3.732   0.796   2.918  0.3037  0.4301 -1.1911
 1883SOL    HW3 7606   3.806   0.760   3.045 -0.8115  0.8538 -0.4170
 1883SOL    MW4 7607   3.804   0.768   2.958 -0.1523  0.2659 -0.4883
 1884SOL     OW 7608   3.583   0.884   2.864  0.2201 -0.2463  0.4180
 1884SOL    HW2 7609   3.604   0.964   2.912 -0.4033  1.5800 -2.2343
 1884SOL    HW3 7610   3.505   0.850   2.907  0.4323  0.6074  1.5183
 1884SOL    MW4 7611   3.575   0.890   2.876  0.1662  0.1073  0.2134
 1885SOL     OW 7612   3.578   1.132   2.988  0.0099 -0.4153  0.2544
 1885SOL    HW2 7613   3.500   1.173   2.950 -1.0494  0.2394  3.0292
 1885SOL    HW3 7614   3.651   1.178   2.947 -1.0405 -0.5243 -1.8241
 1885SOL    MW4 7615   3.578   1.144   2.978 -0.2685 -0.3434  0.3462
 1886SOL     OW 7616   3.787   1.264   2.877  1.0428 -0.0853  0.2721
 1886SOL    HW2 7617   3.787   1.278   2.782  1.2417 -0.0956  0.2707
 1886SOL    HW3 7618   3.782   1.353   2.914 -0.3514 -0.1327  0.2464
 1886SOL    MW4 7619   3.786   1.278   2.869  0.8848 -0.0929  0.2685
 1887SOL     OW 7620   3.789   1.518   2.981 -0.2088 -0.1099 -0.0133
 1887SOL    HW2 7621   3.763   1.534   3.072 -3.2718 -0.8528 -0.6900
 1887SOL    HW3 7622   3.724   1.567   2.929  1.1010 -0.2384 -1.8132
 1887SOL    MW4 7623   3.777   1.527   2.986 -0.4401 -0.2249 -0.3402
 1888SOL     OW 7624   3.572   1.645   2.862 -0.0959  0.3345 -0.2042
 1888SOL    HW2 7625   3.571   1.733   2.899 -0.9790  0.6565 -0.9797
 1888SOL    HW3 7626   3.564   1.659   2.768  2.0915 -0.4704 -0.5403
 1888SOL    MW4 7627   3.571   1.659   2.854  0.0763  0.2707 -0.3510
 1889SOL     OW 7628   3.569   1.902   2.981 -0.5105  0.2001 -0.1705
 1889SOL    HW2 7629   3.572   1.912   3.076 -1.4409 -0.0144 -0.1156
 1889SOL    HW3 7630   3.647   1.948   2.949 -1.2676  1.9983  0.5531
 1889SOL    MW4 7631   3.580   1.909   2.989 -0.7334  0.4091 -0.0679
 1890SOL     OW 7632   3.789   2.044   2.881  0.0055  0.2752  0.3412
 1890SOL    HW2 7633   3.802   2.046   2.786  2.2966  0.6399  0.6356
 1890SOL    HW3 7634   3.802   2.135   2.908 -0.3070  0.1114  1.0472
 1890SOL    MW4 7635   3.793   2.057   2.872  0.2666  0.3021  0.4730
 1891SOL     OW 7636   3.794   2.301   2.996 -0.4597 -0.4708 -0.1282
 1891SOL    HW2 7637   3.786   2.301   3.091 -1.5171 -1.6547 -0.2003
 1891SOL    HW3 7638   3.712   2.340   2.965  0.7182  1.7933 -0.5266
 1891SOL    MW4 7639   3.782   2.306   3.004 -0.4437 -0.3283 -0.1905
 1892SOL     OW 7640   3.545   2.440   2.892  0.6578  0.7210  0.7411
 1892SOL    HW2 7641   3.542   2.534   2.910  0.3865  0.5760  1.4520
 1892SOL    HW3 7642   3.456   2.410   2.906  0.6634  0.4162  0.1507
 1892SOL    MW4 7643   3.533   2.449   2.896  0.6230  0.6618  0.7572
 1893SOL     OW 7644   3.542   2.720   2.981 -0.0871 -0.2718 -0.1840
 1893SOL    HW2 7645   3.613   2.778   2.954  0.7134 -2.1838 -2.3954
 1893SOL    HW3 7646   3.465   2.753   2.935  0.3321 -0.8285 -1.3094
 1893SOL    MW4 7647   3.542   2.732   2.972  0.0739 -0.5975 -0.6244
 1894SOL     OW 7648   3.778   2.832   2.889 -0.7266  0.0945 -0.2982
 1894SOL    HW2 7649   3.792   2.926   2.902  2.2550 -0.2178 -0.7088
 1894SOL    HW3 7650   3.789   2.819   2.795 -0.0240 -0.8076 -0.0974
 1894SOL    MW4 7651   3.782   2.842   2.878 -0.2408 -0.0656 -0.3259
 1895SOL     OW 7652   3.795   3.112   2.967 -0.3639 -0.0283  0.1535
 1895SOL    HW2 7653   3.877   3.149   2.935 -0.6259  0.5297  0.1296
 1895SOL    HW3 7654   3.805   3.110   3.062 -0.9672  1.5659  0.2604
 1895SOL    MW4 7655   3.807   3.116   2.976 -0.4780  0.2558  0.1647
 1896SOL     OW 7656   3.552   3.192   2.852 -0.0367 -0.1288  0.0474
 1896SOL    HW2 7657   3.480   3.143   2.891  0.0038  0.1894  0.5297
 1896SOL    HW3 7658   3.628   3.172   2.907 -0.1449  0.9171  0.6031
 1896SOL    MW4 7659   3.553   3.183   2.864 -0.0458  0.0513  0.1845
 1897SOL     OW 7660   3.594   3.485   3.266 -0.2340  0.2043  0.5735
 1897SOL    HW2 7661   3.591   3.474   3.171  3.6127 -0.8732  0.4910
 1897SOL    HW3 7662   3.580   3.397   3.300 -0.7870  0.4501  0.9787
 1897SOL    MW4 7663   3.592   3.472   3.258  0.2005  0.0947  0.6158
 1898SOL     OW 7664   3.818   3.550   2.893 -0.0679 -0.0620  0.3330
 1898SOL    HW2 7665   3.804   3.644   2.898 -0.8743 -0.1310 -0.4598
 1898SOL    HW3 7666   3.741   3.512   2.934  0.9394 -0.3621  1.9643
 1898SOL    MW4 7667   3.806   3.557   2.899 -0.0412 -0.1106  0.4439
 1899SOL     OW 7668   3.796   3.836   2.933  0.0097  0.9022 -0.0300
 1899SOL    HW2 7669   3.780   3.833   3.027  0.2734  0.3993  0.0022
 1899SOL    HW3 7670   3.723   3.886   2.897 -0.4560  0.5097  0.3660
 1899SOL    MW4 7671   3.784   3.842   2.940 -0.0169  0.7844  0.0265
 1900SOL     OW 7672   3.591   4.008   2.837 -0.1511 -0.1212 -0.0886
 1900SOL    HW2 7673   3.518   3.959   2.874  0.4365 -1.0043 -0.0686
 1900SOL    HW3 7674   3.580   4.001   2.742 -0.3850  0.1922 -0.0839
 1900SOL    MW4 7675   3.580   4.001   2.830 -0.1042 -0.1969 -0.0851
 1901SOL     OW 7676   3.607   4.269   2.985  0.0710  0.1361  0.2144
 1901SOL    HW2 7677   3.681   4.313   2.943  0.9601 -1.1789  0.3803
 1901SOL    HW3 7678   3.610   4.180   2.951 -1.1147 -0.0670  0.6459
 1901SOL    MW4 7679   3.617   4.263   2.975  0.0319 -0.0639  0.2933
 1902SOL     OW 7680   3.839   4.377   2.884  0.6960 -0.0333 -0.0936
 1902SOL    HW2 7681   3.899   4.307   2.910  1.9576  0.8774 -0.5251
 1902SOL    HW3 7682   3.846   4.381   2.789 -2.0507 -1.6803 -0.4491
 1902SOL    MW4 7683   3.848   4.369   2.875  0.5000 -0.1307 -0.1974
 1903SOL     OW 7684   4.258   0.007   2.982 -0.3020 -0.5431  0.3040
 1903SOL    HW2 7685   4.252  -0.020   3.074 -2.5370  0.2030  0.4002
 1903SOL    HW3 7686   4.251  -0.074   2.932 -1.6324 -0.7030  0.7355
 1903SOL    MW4 7687   4.257  -0.007   2.988 -0.7720 -0.4657  0.3736
 1904SOL     OW 7688   4.016   0.114   2.872 -0.0020  0.0773  0.3775
 1904SOL    HW2 7689   4.098   0.078   2.908  0.5262  0.2767 -0.5886
 1904SOL    HW3 7690   3.947   0.075   2.925  0.7424  0.1911  1.4467
 1904SOL    MW4 7691   4.018   0.104   2.884  0.1659  0.1186  0.3910
 1905SOL     OW 7692   4.009   0.380   2.979 -0.6621 -0.2633 -0.6137
 1905SOL    HW2 7693   4.017   0.302   2.923 -0.0232  0.1122 -1.0501
 1905SOL    HW3 7694   4.097   0.416   2.983 -0.7382 -0.1840  0.5010
 1905SOL    MW4 7695   4.022   0.374   2.972 -0.5875 -0.2033 -0.5243
 1906SOL     OW 7696   0.025   0.383   3.010 -0.1421  0.0901 -0.1619
 1906SOL    HW2 7697   0.025   0.365   3.104  0.6418 -1.5685 -0.4665
 1906SOL    HW3 7698  -0.066   0.408   2.991 -0.5375 -0.5211  0.8537
 1906SOL    MW4 7699   0.013   0.384   3.020 -0.0908 -0.2094 -0.0679
 1907SOL     OW 7700   4.289   0.736   2.943 -0.3229  0.2415  0.3192
 1907SOL    HW2 7701   4.207   0.768   2.904 -1.1235 -0.5868  1.2987
 1907SOL    HW3 7702   4.356   0.793   2.906 -1.2504  0.4939 -1.0490
 1907SOL    MW4 7703   4.287   0.748   2.933 -0.5507  0.1655  0.2677
 1908SOL     OW 7704   4.043   0.862   2.832  0.7318 -0.0620 -0.0049
 1908SOL    HW2 7705   4.026   0.948   2.869  0.9145  0.3755 -0.9394
 1908SOL    HW3 7706   3.969   0.808   2.863 -0.4599  0.9293 -1.0636
 1908SOL    MW4 7707   4.031   0.866   2.841  0.5989  0.1264 -0.2680
 1909SOL     OW 7708   4.023   1.129   2.964  0.2943 -0.2104 -0.2035
 1909SOL    HW2 7709   3.998   1.120   3.056 -0.3678 -0.3505 -0.3958
 1909SOL    HW3 7710   3.948   1.172   2.923  0.5560 -0.2174 -0.6951
 1909SOL    MW4 7711   4.010   1.134   2.971  0.2413 -0.2298 -0.2937
 1910SOL     OW 7712   4.232   1.276   2.870 -0.3053 -0.7675  0.1906
 1910SOL    HW2 7713   4.155   1.223   2.894 -0.2785 -1.2621 -0.8060
 1910SOL    HW3 7714   4.243   1.262   2.776  1.0055 -0.6981  0.3228
 1910SOL    MW4 7715   4.223   1.267   2.861 -0.1283 -0.8235  0.0763
 1911SOL     OW 7716   4.254   1.550   2.942  0.4672  0.1086 -0.0662
 1911SOL    HW2 7717   4.170   1.588   2.917  0.8823  0.7456 -0.5238
 1911SOL    HW3 7718   4.245   1.456   2.925 -0.8616 -0.1433  1.8725
 1911SOL    MW4 7719   4.242   1.543   2.937  0.3467  0.1594  0.1292
 1912SOL     OW 7720   4.008   1.658   2.880  0.3841  0.0094  0.5625
 1912SOL    HW2 7721   3.990   1.747   2.910 -0.5952  0.2422 -0.6367
 1912SOL    HW3 7722   3.939   1.605   2.920 -0.5193  0.2125 -0.6684
 1912SOL    MW4 7723   3.996   1.662   2.889  0.1359  0.0669  0.2418
 1913SOL     OW 7724   3.993   1.910   2.996 -0.2948  0.1009  0.5894
 1913SOL    HW2 7725   4.065   1.967   2.970 -0.7023  0.4175  0.1408
 1913SOL    HW3 7726   3.914   1.962   2.979 -0.7007 -0.8097 -0.3720
 1913SOL    MW4 7727   3.992   1.924   2.990 -0.4025  0.0225  0.4036
 1914SOL     OW 7728   4.213   2.058   2.888  0.1099 -0.0663 -0.0493
 1914SOL    HW2 7729   4.187   2.149   2.902 -1.1221 -0.5327  0.8039
 1914SOL    HW3 7730   4.231   2.052   2.795  0.4435  1.1111 -0.0695
 1914SOL    MW4 7731   4.212   2.069   2.878 -0.0091  0.0274  0.0606
 1915SOL     OW 7732   4.210   2.332   2.938  0.1072  0.1676  0.1952
 1915SOL    HW2 7733   4.133   2.382   2.910  1.0301  1.9250  0.7372
 1915SOL    HW3 7734   4.284   2.378   2.898  0.9873 -0.6490  0.8720
 1915SOL    MW4 7735   4.210   2.345   2.929  0.3452  0.2918  0.3560
 1916SOL     OW 7736   3.979   2.433   2.855 -0.3835  0.3513  0.1434
 1916SOL    HW2 7737   3.988   2.522   2.890 -1.2769  0.6612 -0.3742
 1916SOL    HW3 7738   3.913   2.392   2.911 -0.5404  0.2767 -0.0958
 1916SOL    MW4 7739   3.972   2.440   2.867 -0.5221  0.3822  0.0434
 1917SOL     OW 7740   3.985   2.674   2.984  0.2399  0.1202 -0.3448
 1917SOL    HW2 7741   3.977   2.679   3.079 -1.2099  1.1690 -0.5109
 1917SOL    HW3 7742   3.914   2.728   2.950 -0.3933 -1.6960 -2.0489
 1917SOL    MW4 7743   3.975   2.681   2.992 -0.0350  0.0191 -0.5918
 1918SOL     OW 7744   4.195   2.777   2.829 -0.1181 -0.4153  0.1593
 1918SOL    HW2 7745   4.132   2.746   2.894 -0.6422  1.4430  0.5654
 1918SOL    HW3 7746   4.279   2.739   2.857 -0.1315  1.2507  2.5856
 1918SOL    MW4 7747   4.198   2.768   2.841 -0.1888  0.0496  0.5329
 1919SOL     OW 7748   4.244   3.028   2.964  0.1294 -0.0104 -0.2711
 1919SOL    HW2 7749   4.166   3.073   2.931 -1.0892 -1.1558  0.9654
 1919SOL    HW3 7750   4.240   2.941   2.924  0.5372 -0.2234  0.1482
 1919SOL    MW4 7751   4.233   3.022   2.955  0.0224 -0.1895 -0.0527
 1920SOL     OW 7752   4.041   3.178   2.852 -0.0150  0.5118 -0.4389
 1920SOL    HW2 7753   4.036   3.265   2.891 -0.4965  0.5274 -0.5305
 1920SOL    HW3 7754   4.046   3.194   2.758  1.0511  0.4720 -0.3956
 1920SOL    MW4 7755   4.041   3.192   2.845  0.0620  0.5085 -0.4454
 1921SOL     OW 7756   4.062   3.447   2.943  0.2919 -0.2071 -0.6029
 1921SOL    HW2 7757   4.077   3.447   3.037  0.6274 -0.7812 -0.6559
 1921SOL    HW3 7758   3.985   3.503   2.931  0.8354  0.6599 -0.0893
 1921SOL    MW4 7759   4.054   3.454   2.954  0.4082 -0.1686 -0.5417
 1922SOL     OW 7760   4.298   3.567   2.865 -0.1249 -0.3321  0.4228
 1922SOL    HW2 7761   4.296   3.654   2.904 -1.5032 -0.3134  0.3396
 1922SOL    HW3 7762   4.214   3.527   2.889 -0.5551 -0.7256 -1.5723
 1922SOL    MW4 7763   4.287   3.573   2.873 -0.3633 -0.3817  0.1488
 1923SOL     OW 7764   4.289   3.820   3.004 -0.4026 -0.0400 -0.0597
 1923SOL    HW2 7765   4.202   3.851   2.978 -1.0236 -1.3942  0.3482
 1923SOL    HW3 7766   4.350   3.878   2.960 -1.5258  0.9398 -0.3335
 1923SOL    MW4 7767   4.285   3.832   2.995 -0.6323 -0.0892 -0.0422
 1924SOL     OW 7768   4.060   3.951   2.911 -0.1282  0.4751  0.1825
 1924SOL    HW2 7769   4.070   4.043   2.937  0.8988  0.4088  0.0242
 1924SOL    HW3 7770   3.966   3.934   2.921 -0.3235  1.5366  0.2217
 1924SOL    MW4 7771   4.049   3.961   2.916 -0.0186  0.6063  0.1669
 1925SOL     OW 7772   4.037   4.220   2.988 -0.4041  0.3693 -0.1667
 1925SOL    HW2 7773   4.042   4.217   3.083 -1.4877  0.3276 -0.1049
 1925SOL    HW3 7774   4.096   4.291   2.963 -1.7650  1.8242  0.6796
 1925SOL    MW4 7775   4.046   4.229   2.997 -0.7267  0.5555 -0.0470
 1926SOL     OW 7776   4.252   4.396   2.909 -0.4497 -0.6454 -0.8798
 1926SOL    HW2 7777   4.322   4.344   2.949 -1.3494 -0.4125  1.0287
 1926SOL    HW3 7778   4.259   4.377   2.815  1.7278 -1.1536 -0.6501
 1926SOL    MW4 7779   4.262   4.387   2.902 -0.2809 -0.6819 -0.5977
 1927SOL     OW 7780   0.186   4.635   3.263 -0.4763  0.0947  0.5962
 1927SOL    HW2 7781   0.265   4.684   3.289 -0.5166  0.7153 -0.4496
 1927SOL    HW3 7782   0.205   4.545   3.289  0.7789  0.1503 -0.0731
 1927SOL    MW4 7783   0.199   4.630   3.270 -0.3160  0.1841  0.3695
 1928SOL     OW 7784   4.465   0.082   3.416  0.2288 -0.3179  0.2826
 1928SOL    HW2 7785   4.459   0.166   3.370  0.9358  0.0278  0.8168
 1928SOL    HW3 7786   4.543   0.041   3.379 -0.1346 -0.7584 -0.0013
 1928SOL    MW4 7787   4.475   0.088   3.405  0.2741 -0.3304  0.3159
 1929SOL     OW 7788   4.462   0.347   3.269 -0.6174  0.0228  0.2626
 1929SOL    HW2 7789   4.377   0.383   3.295 -1.0533 -1.8196  1.4803
 1929SOL    HW3 7790   4.527   0.404   3.310 -1.2717  0.8075  0.2094
 1929SOL    MW4 7791   4.459   0.359   3.278 -0.7612 -0.1167  0.4160
 1930SOL     OW 7792   0.206   0.507   3.375  0.0474 -0.7723 -0.2565
 1930SOL    HW2 7793   0.291   0.476   3.344  0.4748  0.1361 -0.0048
 1930SOL    HW3 7794   0.196   0.593   3.335 -1.2119 -1.2904 -1.1003
 1930SOL    MW4 7795   0.216   0.514   3.365 -0.0624 -0.7207 -0.3343
 1931SOL     OW 7796   0.147   0.750   3.234  0.8428 -0.0548 -0.1830
 1931SOL    HW2 7797   0.227   0.793   3.265  0.3446  0.0803  0.9548
 1931SOL    HW3 7798   0.076   0.805   3.268  0.2655 -0.1901 -1.1599
 1931SOL    MW4 7799   0.148   0.763   3.243  0.7009 -0.0549 -0.1616
 1932SOL     OW 7800   4.431   0.875   3.373  0.4005 -0.1843  0.2024
 1932SOL    HW2 7801   4.424   0.880   3.468  1.0688 -0.4863  0.2621
 1932SOL    HW3 7802   4.419   0.966   3.344 -1.7504 -0.3586  0.4404
 1932SOL    MW4 7803   4.428   0.888   3.382  0.2050 -0.2471  0.2418
 1933SOL     OW 7804   4.432   1.129   3.267  0.1830 -0.1340 -0.1337
 1933SOL    HW2 7805   4.524   1.154   3.263  0.2633 -0.3868  0.1412
 1933SOL    HW3 7806   4.404   1.124   3.175 -0.2037  2.3288 -0.1856
 1933SOL    MW4 7807   4.441   1.132   3.254  0.1426  0.1575 -0.1044
 1934SOL     OW 7808   0.201   1.225   3.318 -0.4500  0.3903  0.3388
 1934SOL    HW2 7809   0.283   1.184   3.291  0.0795  0.3996  1.8544
 1934SOL    HW3 7810   0.209   1.316   3.289 -0.3191  0.1690 -0.3281
 1934SOL    MW4 7811   0.213   1.231   3.311 -0.3629  0.3623  0.4506
 1935SOL     OW 7812   0.229   1.509   3.234  0.4136  0.3270 -0.3196
 1935SOL    HW2 7813   0.300   1.562   3.269  0.9547  0.7468 -2.0147
 1935SOL    HW3 7814   0.238   1.516   3.139 -0.5828 -1.3730 -0.5590
 1935SOL    MW4 7815   0.239   1.517   3.226  0.3535  0.1581 -0.5748
 1936SOL     OW 7816   0.032   1.692   3.284  0.0403  0.2386 -0.3914
 1936SOL    HW2 7817   0.014   1.693   3.379 -1.8452 -1.9587 -0.6738
 1936SOL    HW3 7818   0.102   1.628   3.274 -0.3170 -0.1252 -0.5663
 1936SOL    MW4 7819   0.039   1.684   3.296 -0.2556 -0.0993 -0.4520
 1937SOL     OW 7820   0.038   1.946   3.210  0.3874  0.3591  0.4380
 1937SOL    HW2 7821   0.040   1.853   3.235 -0.2167  0.2519  0.1088
 1937SOL    HW3 7822  -0.013   1.947   3.128  1.1424  0.8749 -0.0242
 1937SOL    MW4 7823   0.031   1.934   3.202  0.4077  0.4131  0.3335
 1938SOL     OW 7824   0.235   2.106   3.316 -0.1041  0.0513 -0.0337
 1938SOL    HW2 7825   0.210   2.113   3.408 -1.1602  1.9935 -0.4359
 1938SOL    HW3 7826   0.176   2.039   3.280 -0.9675  0.6183  0.3004
 1938SOL    MW4 7827   0.224   2.098   3.323 -0.3574  0.3824 -0.0424
 1939SOL     OW 7828   0.196   2.362   3.208  0.0817  0.8051  0.0652
 1939SOL    HW2 7829   0.121   2.412   3.240 -0.7829  0.8190 -1.8938
 1939SOL    HW3 7830   0.192   2.279   3.256 -0.8992  0.9920  0.3258
 1939SOL    MW4 7831   0.185   2.358   3.219 -0.1618  0.8316 -0.1588
 1940SOL     OW 7832   4.455   2.478   3.327  0.0911 -0.0586  0.5233
 1940SOL    HW2 7833   4.440   2.481   3.421 -0.9916  1.3472  0.3159
 1940SOL    HW3 7834   4.378   2.435   3.291 -0.2964  0.9552  0.1204
 1940SOL    MW4 7835   4.443   2.473   3.335 -0.1030  0.2608  0.4427
 1941SOL     OW 7836   4.464   2.724   3.221  0.0484 -0.2022  0.0876
 1941SOL    HW2 7837   4.542   2.771   3.251 -0.6153  0.6484  0.5412
 1941SOL    HW3 7838   4.468   2.640   3.265  0.1568  0.2528  0.9585
 1941SOL    MW4 7839   4.475   2.719   3.231 -0.0248 -0.0296  0.2623
 1942SOL     OW 7840   0.221   2.830   3.346 -0.1552  0.0321 -0.2423
 1942SOL    HW2 7841   0.309   2.795   3.328 -0.1251  0.2983 -0.6253
 1942SOL    HW3 7842   0.229   2.924   3.327 -0.6630 -0.0373 -0.7943
 1942SOL    MW4 7843   0.234   2.838   3.341 -0.2182  0.0582 -0.3655
 1943SOL     OW 7844   0.235   3.111   3.284  0.4183 -0.1018  0.5336
 1943SOL    HW2 7845   0.156   3.159   3.310  0.6518  0.8232 -0.4341
 1943SOL    HW3 7846   0.227   3.101   3.189  1.8650  0.7650  0.3051
 1943SOL    MW4 7847   0.224   3.116   3.275  0.6400  0.1347  0.3757
 1944SOL     OW 7848   4.486   3.217   3.390  0.6117  0.2356  0.8251
 1944SOL    HW2 7849   4.415   3.185   3.335  1.0118  0.1923  0.3265
 1944SOL    HW3 7850   4.491   3.311   3.370  0.7763  0.2141  0.7657
 1944SOL    MW4 7851   4.477   3.226   3.380  0.6866  0.2272  0.7515
 1945SOL     OW 7852   0.046   3.493   3.313 -0.1168 -0.1891 -0.5404
 1945SOL    HW2 7853  -0.032   3.536   3.348  0.8102  1.6807 -0.7414
 1945SOL    HW3 7854   0.036   3.499   3.218  0.8589  1.1262 -0.5592
 1945SOL    MW4 7855   0.034   3.500   3.305  0.1342  0.2313 -0.5698
 1946SOL     OW 7856   0.280   3.615   3.397 -0.3949  0.0927 -0.3848
 1946SOL    HW2 7857   0.261   3.618   3.491 -0.7960  2.9766 -0.5173
 1946SOL    HW3 7858   0.203   3.573   3.358 -0.6401 -0.2520  0.4569
 1946SOL    MW4 7859   0.267   3.610   3.405 -0.4801  0.4280 -0.2913
 1947SOL     OW 7860   0.277   3.882   3.314  0.0391 -0.1293 -0.1253
 1947SOL    HW2 7861   0.189   3.916   3.328 -0.5597 -0.2785 -3.1182
 1947SOL    HW3 7862   0.277   3.797   3.358 -0.9337  0.3479  0.8345
 1947SOL    MW4 7863   0.265   3.875   3.321 -0.1683 -0.0863 -0.3934
 1948SOL     OW 7864   0.035   4.006   3.367 -0.1251 -0.2360  0.0235
 1948SOL    HW2 7865   0.021   4.011   3.462 -0.7575  0.0405 -0.0830
 1948SOL    HW3 7866  -0.006   4.085   3.333 -0.1007 -0.4516 -0.5082
 1948SOL    MW4 7867   0.028   4.017   3.375 -0.2053 -0.2289 -0.0606
 1949SOL     OW 7868   4.443   4.279   3.269  0.2023  0.0497  0.0643
 1949SOL    HW2 7869   4.376   4.305   3.332  1.6958  2.3251  0.7663
 1949SOL    HW3 7870   4.523   4.323   3.298  1.6332 -1.2499 -1.7153
 1949SOL    MW4 7871   4.445   4.288   3.281  0.5879  0.1788 -0.0780
 1950SOL     OW 7872   0.218   4.382   3.378 -0.1925  0.2193  0.2948
 1950SOL    HW2 7873   0.216   4.382   3.474 -0.6344 -1.8253  0.3027
 1950SOL    HW3 7874   0.292   4.325   3.356  0.1868  1.0328 -0.5956
 1950SOL    MW4 7875   0.228   4.375   3.388 -0.2008  0.0572  0.1783
 1951SOL     OW 7876   0.660   0.062   3.271  0.0270 -0.1793  0.1379
 1951SOL    HW2 7877   0.748   0.062   3.307  0.3125  1.7538 -0.5162
 1951SOL    HW3 7878   0.672   0.053   3.176 -0.4494  0.4286  0.0132
 1951SOL    MW4 7879   0.673   0.061   3.263  0.0018  0.1560  0.0350
 1952SOL     OW 7880   0.409   0.106   3.360  0.0949  0.3608  0.0051
 1952SOL    HW2 7881   0.411   0.118   3.455  1.2326  0.7403 -0.0619
 1952SOL    HW3 7882   0.501   0.096   3.334 -0.0126  2.3808 -1.3108
 1952SOL    MW4 7883   0.421   0.107   3.369  0.2308  0.6774 -0.1776
 1953SOL     OW 7884   0.427   0.375   3.266 -0.5186 -0.3110  0.1444
 1953SOL    HW2 7885   0.509   0.407   3.302  0.2758 -0.5390 -1.4123
 1953SOL    HW3 7886   0.418   0.287   3.301 -0.0995 -0.2901  0.3057
 1953SOL    MW4 7887   0.437   0.368   3.275 -0.3585 -0.3383 -0.0398
 1954SOL     OW 7888   0.666   0.488   3.352  0.1629  0.4487 -0.9862
 1954SOL    HW2 7889   0.680   0.480   3.447 -1.7901 -1.6801 -0.8270
 1954SOL    HW3 7890   0.747   0.454   3.313 -0.2039 -1.4837 -0.0885
 1954SOL    MW4 7891   0.679   0.483   3.360 -0.1432 -0.0871 -0.8469
 1955SOL     OW 7892   0.642   0.751   3.256 -0.1425  0.1379 -0.0516
 1955SOL    HW2 7893   0.555   0.784   3.278  0.5809  2.5524 -0.6716
 1955SOL    HW3 7894   0.642   0.660   3.287 -2.5983  0.3535  0.6597
 1955SOL    MW4 7895   0.631   0.743   3.263 -0.3711  0.4850 -0.0396
 1956SOL     OW 7896   0.400   0.846   3.332  0.2700 -0.5107 -0.3502
 1956SOL    HW2 7897   0.396   0.857   3.427  0.8421  0.2723 -0.4214
 1956SOL    HW3 7898   0.395   0.935   3.297 -0.1247 -0.8104 -1.0640
 1956SOL    MW4 7899   0.398   0.859   3.340  0.2934 -0.4469 -0.4539
 1957SOL     OW 7900   0.454   1.106   3.257 -0.1421 -0.1022 -0.0720
 1957SOL    HW2 7901   0.536   1.150   3.281 -0.3855  0.5561 -0.4219
 1957SOL    HW3 7902   0.450   1.113   3.162 -0.5852 -0.1634 -0.0606
 1957SOL    MW4 7903   0.464   1.113   3.248 -0.2327 -0.0235 -0.1168
 1958SOL     OW 7904   0.677   1.263   3.336  0.3463 -0.5971  0.2173
 1958SOL    HW2 7905   0.743   1.221   3.279  0.6406  0.4806 -0.2602
 1958SOL    HW3 7906   0.668   1.351   3.300 -0.3057 -0.2703  1.1714
 1958SOL    MW4 7907   0.685   1.269   3.323  0.2991 -0.4117  0.2801
 1959SOL     OW 7908   0.663   1.514   3.215  0.3036 -0.2805 -0.4195
 1959SOL    HW2 7909   0.727   1.571   3.259 -0.0711  0.7066 -1.1278
 1959SOL    HW3 7910   0.579   1.544   3.248  0.1089 -0.4543 -0.7603
 1959SOL    MW4 7911   0.661   1.525   3.225  0.2285 -0.1732 -0.5581
 1960SOL     OW 7912   0.445   1.629   3.350 -0.4945 -0.1783 -0.2914
 1960SOL    HW2 7913   0.462   1.618   3.444 -0.1828  0.7305 -0.2363
 1960SOL    HW3 7914   0.423   1.722   3.340 -0.8321 -0.3386 -1.0717
 1960SOL    MW4 7915   0.444   1.640   3.361 -0.4980 -0.0795 -0.3872
 1961SOL     OW 7916   0.415   1.898   3.251  0.7906 -0.0700  0.1350
 1961SOL    HW2 7917   0.362   1.977   3.257  0.9711 -0.0105  0.9970
 1961SOL    HW3 7918   0.415   1.875   3.158 -1.1004 -0.3214  0.1933
 1961SOL    MW4 7919   0.408   1.905   3.239  0.5649 -0.0954  0.2563
 1962SOL     OW 7920   0.658   2.028   3.364  0.0982 -0.5934 -0.0013
 1962SOL    HW2 7921   0.643   2.035   3.458 -1.5048 -0.9498 -0.2170
 1962SOL    HW3 7922   0.580   1.983   3.331  0.3260  0.1696 -1.5953
 1962SOL    MW4 7923   0.646   2.023   3.372 -0.0832 -0.5398 -0.2401
 1963SOL     OW 7924   0.639   2.269   3.246 -0.2277 -0.2597 -0.0065
 1963SOL    HW2 7925   0.725   2.306   3.267  0.8890 -1.9316 -1.4676
 1963SOL    HW3 7926   0.643   2.179   3.280 -1.4102 -0.3315 -0.0542
 1963SOL    MW4 7927   0.651   2.262   3.253 -0.2365 -0.4897 -0.2058
 1964SOL     OW 7928   0.438   2.431   3.328  0.4109  0.0891 -0.2468
 1964SOL    HW2 7929   0.501   2.363   3.304 -0.7419 -1.4775  1.0615
 1964SOL    HW3 7930   0.359   2.409   3.278  0.2184  0.8170 -0.2668
 1964SOL    MW4 7931   0.436   2.419   3.318  0.2334 -0.0215 -0.0768
 1965SOL     OW 7932   0.453   2.696   3.263  0.3110  0.7175  0.0705
 1965SOL    HW2 7933   0.450   2.604   3.288 -0.2269  0.7750  0.2369
 1965SOL    HW3 7934   0.444   2.696   3.168  0.6682  0.5819  0.0367
 1965SOL    MW4 7935   0.451   2.684   3.254  0.2872  0.7074  0.0880
 1966SOL     OW 7936   0.669   2.850   3.357 -0.0875 -0.3642  1.0615
 1966SOL    HW2 7937   0.745   2.807   3.315  0.2594  1.2970 -0.0491
 1966SOL    HW3 7938   0.594   2.800   3.325  0.2765  0.0911 -0.5793
 1966SOL    MW4 7939   0.669   2.838   3.347  0.0063 -0.0849  0.6986
 1967SOL     OW 7940   0.692   3.088   3.247  0.1698 -0.5828  0.2136
 1967SOL    HW2 7941   0.616   3.131   3.286 -0.0192 -1.6438  1.0289
 1967SOL    HW3 7942   0.688   2.998   3.279  2.6059 -0.2647  1.5365
 1967SOL    MW4 7943   0.682   3.082   3.256  0.4662 -0.6809  0.4959
 1968SOL     OW 7944   0.479   3.230   3.368  0.1877 -0.7312 -0.4741
 1968SOL    HW2 7945   0.484   3.256   3.460 -0.4510 -0.4438 -0.5160
 1968SOL    HW3 7946   0.387   3.207   3.355  0.3046 -0.9052 -1.0056
 1968SOL    MW4 7947   0.468   3.230   3.378  0.1189 -0.7162 -0.5498
 1969SOL     OW 7948   0.491   3.483   3.253  0.6026 -0.4089 -0.6876
 1969SOL    HW2 7949   0.499   3.404   3.306 -1.2930 -0.8909 -1.0595
 1969SOL    HW3 7950   0.422   3.534   3.296  0.1769 -0.0566 -1.7581
 1969SOL    MW4 7951   0.483   3.480   3.266  0.2964 -0.4263 -0.8776
 1970SOL     OW 7952   0.702   3.636   3.360  0.1282 -0.1715  0.2600
 1970SOL    HW2 7953   0.784   3.597   3.331 -0.5237 -0.9104 -0.5986
 1970SOL    HW3 7954   0.635   3.593   3.307 -0.8326  0.2557  1.1228
 1970SOL    MW4 7955   0.704   3.625   3.349 -0.0846 -0.2127  0.2604
 1971SOL     OW 7956   0.702   3.897   3.294 -0.3044  0.3933 -0.2965
 1971SOL    HW2 7957   0.627   3.938   3.337 -1.1732 -0.9157 -0.5369
 1971SOL    HW3 7958   0.697   3.805   3.319 -0.3682 -0.2464 -2.5168
 1971SOL    MW4 7959   0.691   3.890   3.303 -0.4275  0.1361 -0.6211
 1972SOL     OW 7960   0.492   4.042   3.409 -0.0581 -0.6921 -0.1225
 1972SOL    HW2 7961   0.482   4.124   3.361  1.7484 -0.2832  0.1637
 1972SOL    HW3 7962   0.421   3.986   3.377  0.1920  0.1177 -2.1415
 1972SOL    MW4 7963   0.481   4.045   3.398  0.2132 -0.5312 -0.3507
 1973SOL     OW 7964   0.454   4.271   3.295 -0.1249 -0.2850 -0.2582
 1973SOL    HW2 7965   0.494   4.355   3.316 -0.9980  0.5948 -2.0137
 1973SOL    HW3 7966   0.458   4.265   3.200 -0.6921 -1.9206 -0.2005
 1973SOL    MW4 7967   0.459   4.281   3.285 -0.3149 -0.3848 -0.4821
 1974SOL     OW 7968   0.674   4.445   3.359  0.9673 -0.0571 -0.0693
 1974SOL    HW2 7969   0.746   4.386   3.337  0.7297  0.1706 -1.5204
 1974SOL    HW3 7970   0.687   4.521   3.302 -0.2494  0.1129 -0.1297
 1974SOL    MW4 7971   0.685   4.447   3.349  0.7755 -0.0048 -0.2685
 1975SOL     OW 7972   1.141   4.627   3.264  0.4466  0.2252  0.1023
 1975SOL    HW2 7973   1.207   4.684   3.305 -2.3129  3.2042  0.5771
 1975SOL    HW3 7974   1.145   4.650   3.171 -0.4688  0.9698  0.2494
 1975SOL    MW4 7975   1.150   4.638   3.257 -0.0381  0.7167  0.1845
 1976SOL     OW 7976   0.914   0.140   3.399  0.2274 -0.5286  0.1403
 1976SOL    HW2 7977   0.896   0.137   3.493  1.5491  1.8983  0.5014
 1976SOL    HW3 7978   0.993   0.087   3.389  1.1226  0.7019  0.6653
 1976SOL    MW4 7979   0.922   0.132   3.410  0.5198 -0.0461  0.2570
 1977SOL     OW 7980   0.904   0.396   3.245 -0.0802 -0.1244  0.0447
 1977SOL    HW2 7981   0.974   0.441   3.292  0.4814 -2.0816  1.1648
 1977SOL    HW3 7982   0.908   0.306   3.278 -1.6739 -0.7968 -1.5343
 1977SOL    MW4 7983   0.914   0.390   3.256 -0.2164 -0.4713 -0.0160
 1978SOL     OW 7984   1.135   0.511   3.361 -0.1142  0.4310 -0.3103
 1978SOL    HW2 7985   1.136   0.524   3.456  0.8936  1.0972 -0.4079
 1978SOL    HW3 7986   1.124   0.598   3.324 -1.4641  0.0724 -0.8048
 1978SOL    MW4 7987   1.134   0.524   3.369 -0.1594  0.4716 -0.3884
 1979SOL     OW 7988   1.089   0.752   3.257  0.0097  0.1348  1.1074
 1979SOL    HW2 7989   1.154   0.817   3.283 -0.3889  0.2840  1.7564
 1979SOL    HW3 7990   1.005   0.789   3.285 -0.6262  0.9817 -1.7266
 1979SOL    MW4 7991   1.086   0.765   3.264 -0.1267  0.2662  0.8194
 1980SOL     OW 7992   0.871   0.906   3.357  0.2322 -0.4620  0.0959
 1980SOL    HW2 7993   0.867   0.989   3.309 -0.0393 -2.2461 -3.1276
 1980SOL    HW3 7994   0.794   0.858   3.326  0.8891 -2.2635  1.2240
 1980SOL    MW4 7995   0.860   0.911   3.346  0.2830 -0.9350 -0.1805
 1981SOL     OW 7996   0.884   1.132   3.209  0.1558  0.4211 -0.0952
 1981SOL    HW2 7997   0.952   1.191   3.242 -1.3928  1.9307  0.4794
 1981SOL    HW3 7998   0.898   1.129   3.115  0.0805  1.9272 -0.1605
 1981SOL    MW4 7999   0.895   1.139   3.201 -0.0584  0.8190 -0.0281
 1982SOL     OW 8000   1.117   1.244   3.331  0.0262  0.2150  0.2444
 1982SOL    HW2 8001   1.117   1.254   3.426  1.7857  0.4509  0.2391
 1982SOL    HW3 8002   1.128   1.333   3.297 -0.8760  0.1640 -0.1839
 1982SOL    MW4 8003   1.119   1.257   3.339  0.1395  0.2395  0.1874
 1983SOL     OW 8004   1.103   1.537   3.251 -0.6120 -0.2494 -0.5070
 1983SOL    HW2 8005   1.194   1.562   3.270 -0.3478 -1.0607 -0.7085
 1983SOL    HW3 8006   1.102   1.522   3.157 -1.0009 -0.0878 -0.5302
 1983SOL    MW4 8007   1.115   1.539   3.241 -0.6285 -0.3350 -0.5367
 1984SOL     OW 8008   0.855   1.635   3.376  0.2575  0.4434 -0.0861
 1984SOL    HW2 8009   0.846   1.728   3.354 -0.1618 -0.1652 -2.6051
 1984SOL    HW3 8010   0.944   1.612   3.350  0.4260  0.1611  0.7115
 1984SOL    MW4 8011   0.865   1.644   3.370  0.2244  0.3258 -0.3130
 1985SOL     OW 8012   0.850   1.881   3.248  0.2035 -0.3632  0.0788
 1985SOL    HW2 8013   0.934   1.919   3.274 -1.0660  2.2315  0.5377
 1985SOL    HW3 8014   0.785   1.934   3.293 -1.6996 -2.3330 -0.2899
 1985SOL    MW4 8015   0.853   1.893   3.257 -0.2151 -0.2809  0.0906
 1986SOL     OW 8016   1.082   2.015   3.305  0.2306  0.0910 -0.0009
 1986SOL    HW2 8017   1.167   1.975   3.291 -0.1046  0.5155 -3.6839
 1986SOL    HW3 8018   1.097   2.109   3.298 -0.4326  0.2015 -0.0405
 1986SOL    MW4 8019   1.095   2.022   3.302  0.0989  0.1614 -0.4921
 1987SOL     OW 8020   1.117   2.288   3.260 -0.1927 -0.0735 -0.0385
 1987SOL    HW2 8021   1.194   2.344   3.271  1.6425 -2.6643  0.8837
 1987SOL    HW3 8022   1.110   2.276   3.165  0.4106  0.3508 -0.1411
 1987SOL    MW4 8023   1.127   2.294   3.249  0.1290 -0.3598  0.0696
 1988SOL     OW 8024   0.872   2.406   3.333  0.2501  0.0876  0.4105
 1988SOL    HW2 8025   0.870   2.419   3.427 -1.2924  2.1024  0.1220
 1988SOL    HW3 8026   0.964   2.385   3.314  0.7315  0.4503  2.2568
 1988SOL    MW4 8027   0.884   2.405   3.343  0.1101  0.4010  0.6161
 1989SOL     OW 8028   0.868   2.711   3.238 -0.0875  0.1771  0.2765
 1989SOL    HW2 8029   0.949   2.730   3.285 -0.8374  1.3585  1.1027
 1989SOL    HW3 8030   0.851   2.618   3.255  0.0728  0.3974  1.6723
 1989SOL    MW4 8031   0.877   2.701   3.246 -0.1653  0.3622  0.5693
 1990SOL     OW 8032   1.092   2.794   3.370 -0.0156  0.0828 -0.3712
 1990SOL    HW2 8033   1.112   2.798   3.464  0.1132 -0.1152 -0.3901
 1990SOL    HW3 8034   1.173   2.762   3.330 -0.4497 -0.9989 -0.4171
 1990SOL    MW4 8035   1.105   2.790   3.377 -0.0559 -0.0861 -0.3798
 1991SOL     OW 8036   1.112   3.083   3.295 -0.1888  0.0682 -0.0588
 1991SOL    HW2 8037   1.087   3.002   3.338 -1.4077  0.8058  0.6434
 1991SOL    HW3 8038   1.098   3.066   3.202 -1.3638 -0.2065  0.1642
 1991SOL    MW4 8039   1.107   3.070   3.288 -0.5047  0.1290  0.0629
 1992SOL     OW 8040   0.893   3.242   3.369 -0.3337  0.1043 -0.8127
 1992SOL    HW2 8041   0.967   3.190   3.337 -0.3044  0.1332 -0.7924
 1992SOL    HW3 8042   0.817   3.208   3.322 -0.3322 -0.0318 -0.7152
 1992SOL    MW4 8043   0.893   3.231   3.359 -0.3297  0.0901 -0.7970
 1993SOL     OW 8044   0.923   3.510   3.255 -0.7973 -0.0629  0.1350
 1993SOL    HW2 8045   0.926   3.424   3.297 -1.8862 -0.2746 -0.1994
 1993SOL    HW3 8046   0.910   3.491   3.162 -0.0061  0.4410 -0.0833
 1993SOL    MW4 8047   0.921   3.496   3.248 -0.8366 -0.0241  0.0620
 1994SOL     OW 8048   1.144   3.626   3.379 -0.0416 -0.2284 -0.1373
 1994SOL    HW2 8049   1.149   3.600   3.471 -0.2136  1.1438  0.2743
 1994SOL    HW3 8050   1.069   3.578   3.344 -0.2761 -0.3796  0.5662
 1994SOL    MW4 8051   1.135   3.616   3.387 -0.0951 -0.0675  0.0100
 1995SOL     OW 8052   1.152   3.893   3.247 -0.0120  0.1946 -0.0685
 1995SOL    HW2 8053   1.233   3.923   3.286 -1.4286  0.9585  2.3587
 1995SOL    HW3 8054   1.148   3.800   3.267 -0.4411  0.4602  1.0805
 1995SOL    MW4 8055   1.162   3.885   3.255 -0.2557  0.3302  0.4032
 1996SOL     OW 8056   0.937   4.034   3.368  0.0417 -1.0068  0.2690
 1996SOL    HW2 8057   1.014   4.001   3.322 -0.7120 -0.8324 -1.1318
 1996SOL    HW3 8058   0.866   3.977   3.341 -0.6498 -0.1597  0.2819
 1996SOL    MW4 8059   0.938   4.022   3.358 -0.1490 -0.8712  0.0856
 1997SOL     OW 8060   0.871   4.285   3.276 -0.3836 -0.5093 -0.2259
 1997SOL    HW2 8061   0.882   4.192   3.296 -0.7451 -0.6602 -0.7233
 1997SOL    HW3 8062   0.876   4.290   3.180 -0.5558 -0.0441 -0.2134
 1997SOL    MW4 8063   0.873   4.273   3.266 -0.4540 -0.4683 -0.2899
 1998SOL     OW 8064   1.135   4.375   3.354 -0.3443 -0.0520  0.3714
 1998SOL    HW2 8065   1.138   4.463   3.317  0.4359 -0.2922 -0.1443
 1998SOL    HW3 8066   1.043   4.350   3.346 -0.3414  0.2286 -0.6489
 1998SOL    MW4 8067   1.123   4.383   3.348 -0.2409 -0.0463  0.1688
 1999SOL     OW 8068   1.573   0.007   3.308 -0.0198 -0.1718  0.0863
 1999SOL    HW2 8069   1.579  -0.088   3.324 -0.8199 -0.3664 -0.7349
 1999SOL    HW3 8070   1.487   0.031   3.341  0.8164  0.5863  1.7801
 1999SOL    MW4 8071   1.563  -0.003   3.314 -0.0149 -0.0975  0.2012
 2000SOL     OW 8072   1.326   0.073   3.443  0.1307 -0.2986  0.0590
 2000SOL    HW2 8073   1.310   0.068   3.537  1.1197 -0.8050  0.2088
 2000SOL    HW3 8074   1.306   0.164   3.420  1.1608  0.1874  1.0125
 2000SOL    MW4 8075   1.322   0.085   3.452  0.3971 -0.3013  0.2046
 2001SOL     OW 8076   1.301   0.302   3.276 -0.2685  0.0954 -0.1021
 2001SOL    HW2 8077   1.386   0.344   3.292 -0.3321  0.6555 -1.2040
 2001SOL    HW3 8078   1.237   0.368   3.304 -0.3490  0.1649 -0.4473
 2001SOL    MW4 8079   1.304   0.317   3.282 -0.2874  0.1785 -0.2933
 2002SOL     OW 8080   1.502   0.479   3.345  0.1108  0.0635  0.2527
 2002SOL    HW2 8081   1.502   0.491   3.440 -0.5814 -1.6456  0.4784
 2002SOL    HW3 8082   1.588   0.441   3.326  0.2821  0.4826  0.1653
 2002SOL    MW4 8083   1.514   0.476   3.355  0.0421 -0.1067  0.2711
 2003SOL     OW 8084   1.559   0.747   3.243 -0.3407  0.6913  0.0431
 2003SOL    HW2 8085   1.482   0.802   3.259 -0.0949  1.1862 -0.4575
 2003SOL    HW3 8086   1.538   0.663   3.285 -1.0504  0.9009  0.1111
 2003SOL    MW4 8087   1.546   0.743   3.251 -0.4019  0.7843 -0.0141
 2004SOL     OW 8088   1.298   0.918   3.345 -0.6152  0.1676  0.8800
 2004SOL    HW2 8089   1.292   0.923   3.440  0.4714  0.8099  0.9244
 2004SOL    HW3 8090   1.319   1.007   3.317 -1.4668  0.0989 -0.0025
 2004SOL    MW4 8091   1.300   0.931   3.354 -0.5840  0.2432  0.7691
 2005SOL     OW 8092   1.349   1.178   3.218 -0.2550 -0.2695  0.4619
 2005SOL    HW2 8093   1.407   1.229   3.273  0.1084 -1.2200  0.9728
 2005SOL    HW3 8094   1.263   1.186   3.259 -0.3469  0.5167  0.1292
 2005SOL    MW4 8095   1.345   1.186   3.231 -0.2192 -0.2912  0.4852
 2006SOL     OW 8096   1.550   1.285   3.367  0.2075 -0.2476 -0.0506
 2006SOL    HW2 8097   1.549   1.290   3.462  1.3410  2.0600 -0.1146
 2006SOL    HW3 8098   1.618   1.221   3.347 -0.0317 -0.7334  0.7027
 2006SOL    MW4 8099   1.559   1.277   3.377  0.3254 -0.0073  0.0403
 2007SOL     OW 8100   1.609   1.525   3.248 -0.2855  0.3133  0.2471
 2007SOL    HW2 8101   1.582   1.438   3.278  0.8881 -0.8093 -1.8602
 2007SOL    HW3 8102   1.589   1.525   3.154  0.9390  1.8292 -0.0275
 2007SOL    MW4 8103   1.603   1.514   3.239  0.0309  0.3650 -0.0670
 2008SOL     OW 8104   1.344   1.648   3.330 -0.4267  0.1829  0.0461
 2008SOL    HW2 8105   1.344   1.644   3.425 -0.6444 -0.9254  0.0081
 2008SOL    HW3 8106   1.433   1.624   3.304 -0.7253 -0.8638 -0.0614
 2008SOL    MW4 8107   1.356   1.644   3.339 -0.4948 -0.1014  0.0272
 2009SOL     OW 8108   1.324   1.897   3.234  0.4529  0.1924  0.0698
 2009SOL    HW2 8109   1.396   1.951   3.265  0.6027 -0.1683  0.3407
 2009SOL    HW3 8110   1.329   1.816   3.285  2.1975 -1.4312 -2.5637
 2009SOL    MW4 8111   1.334   1.894   3.245  0.7029 -0.0694 -0.2418
 2010SOL     OW 8112   1.542   2.058   3.345 -0.1424 -0.1771  0.2809
 2010SOL    HW2 8113   1.625   2.022   3.313  0.7113  0.6017  1.5857
 2010SOL    HW3 8114   1.545   2.150   3.319 -0.8665 -0.2710 -0.1611
 2010SOL    MW4 8115   1.554   2.065   3.337 -0.1253 -0.0868  0.3948
 2011SOL     OW 8116   1.555   2.320   3.262 -0.0340 -0.3123 -0.0049
 2011SOL    HW2 8117   1.470   2.355   3.289  0.1239  0.1345 -0.0721
 2011SOL    HW3 8118   1.555   2.330   3.167  0.0716 -0.3613 -0.0095
 2011SOL    MW4 8119   1.544   2.326   3.253  0.0007 -0.2599 -0.0143
 2012SOL     OW 8120   1.321   2.442   3.371 -0.2576  0.4364  0.5788
 2012SOL    HW2 8121   1.327   2.444   3.467 -0.2686 -1.4468  0.6378
 2012SOL    HW3 8122   1.342   2.531   3.344 -0.6163  1.0904  2.3584
 2012SOL    MW4 8123   1.324   2.454   3.380 -0.3064  0.2742  0.8211
 2013SOL     OW 8124   1.323   2.726   3.250  0.5003 -0.4413  0.7969
 2013SOL    HW2 8125   1.409   2.753   3.282  0.6468 -0.4328  0.3967
 2013SOL    HW3 8126   1.338   2.701   3.159  0.3253 -1.6796  1.1033
 2013SOL    MW4 8127   1.336   2.726   3.242  0.4964 -0.6037  0.7844
 2014SOL     OW 8128   1.569   2.792   3.328  0.0942 -0.0941  0.8350
 2014SOL    HW2 8129   1.651   2.758   3.291 -1.4539 -1.8079 -1.1347
 2014SOL    HW3 8130   1.568   2.884   3.301  1.1212 -0.1988  0.4082
 2014SOL    MW4 8131   1.580   2.800   3.319  0.0255 -0.3340  0.5190
 2015SOL     OW 8132   1.558   3.050   3.237  0.2934  0.2958  0.0363
 2015SOL    HW2 8133   1.634   3.094   3.274  0.5513 -0.5254  0.4896
 2015SOL    HW3 8134   1.483   3.101   3.268  0.7559  2.3731 -2.1665
 2015SOL    MW4 8135   1.558   3.062   3.246  0.3884  0.4613 -0.1943
 2016SOL     OW 8136   1.365   3.211   3.327 -0.6488 -0.3484 -0.1360
 2016SOL    HW2 8137   1.378   3.222   3.421  1.2276 -0.7905 -0.3289
 2016SOL    HW3 8138   1.279   3.171   3.320 -0.7630 -0.4189  1.3947
 2016SOL    MW4 8139   1.356   3.207   3.339 -0.4163 -0.4163  0.0405
 2017SOL     OW 8140   1.333   3.490   3.245  0.3496 -0.5039  0.2909
 2017SOL    HW2 8141   1.342   3.399   3.273  0.3301 -0.0089  1.9646
 2017SOL    HW3 8142   1.264   3.526   3.300 -0.9689  0.0449 -1.6432
 2017SOL    MW4 8143   1.325   3.483   3.256  0.1730 -0.3660  0.2563
 2018SOL     OW 8144   1.565   3.607   3.360  0.2711 -0.1584  0.3372
 2018SOL    HW2 8145   1.557   3.601   3.455 -1.9372  0.9068  0.2485
 2018SOL    HW3 8146   1.477   3.587   3.327  0.6233  1.0544 -1.4110
 2018SOL    MW4 8147   1.552   3.604   3.368  0.0262  0.1419  0.0949
 2019SOL     OW 8148   1.603   3.858   3.251  0.1505 -0.5997  0.1341
 2019SOL    HW2 8149   1.599   3.774   3.297  0.8436 -0.5087  0.3593
 2019SOL    HW3 8150   1.592   3.836   3.159 -0.0806 -0.8980  0.2328
 2019SOL    MW4 8151   1.601   3.844   3.245  0.2115 -0.6270  0.1767
 2020SOL     OW 8152   1.390   3.987   3.365 -0.2112  0.4384  0.0786
 2020SOL    HW2 8153   1.381   4.077   3.332 -0.1821  0.8666  1.2439
 2020SOL    HW3 8154   1.456   3.948   3.308  0.5214  1.4728  0.2109
 2020SOL    MW4 8155   1.398   3.994   3.353 -0.1107  0.6316  0.2499
 2021SOL     OW 8156   1.361   4.253   3.274  0.2391  0.2654  0.4890
 2021SOL    HW2 8157   1.275   4.289   3.299 -0.4330 -0.2926 -0.9413
 2021SOL    HW3 8158   1.359   4.252   3.178  2.2664  1.2043  0.4268
 2021SOL    MW4 8159   1.349   4.258   3.265  0.4178  0.3157  0.2923
 2022SOL     OW 8160   1.580   4.412   3.370  0.0880 -0.9646 -0.1923
 2022SOL    HW2 8161   1.661   4.371   3.340  0.2910 -0.0663 -0.8846
 2022SOL    HW3 8162   1.512   4.349   3.347  0.4681 -1.2265 -0.6177
 2022SOL    MW4 8163   1.582   4.398   3.363  0.1649 -0.8798 -0.3397
 2023SOL     OW 8164   2.053   0.004   3.247  0.3249 -0.2541 -0.4513
 2023SOL    HW2 8165   2.129   0.044   3.291  0.5649 -1.3339  0.1213
 2023SOL    HW3 8166   1.978   0.047   3.288  0.6100  0.4495 -0.6528
 2023SOL    MW4 8167   2.053   0.015   3.258  0.3943 -0.3037 -0.4022
 2024SOL     OW 8168   1.832   0.146   3.383  0.2683  0.1481  0.1671
 2024SOL    HW2 8169   1.843   0.158   3.477  1.6823 -2.1132  0.3101
 2024SOL    HW3 8170   1.749   0.099   3.374  0.9551 -1.1100  0.3919
 2024SOL    MW4 8171   1.823   0.141   3.394  0.5456 -0.3162  0.2155
 2025SOL     OW 8172   1.762   0.415   3.283 -0.2734 -0.3430  0.0016
 2025SOL    HW2 8173   1.785   0.331   3.323  0.0090 -0.3571 -0.1946
 2025SOL    HW3 8174   1.764   0.398   3.189  0.2071 -0.0072 -0.0500
 2025SOL    MW4 8175   1.765   0.402   3.276 -0.1727 -0.3006 -0.0308
 2026SOL     OW 8176   2.000   0.539   3.399  0.4099 -0.1001 -0.3238
 2026SOL    HW2 8177   2.004   0.531   3.494  1.4234  1.4524 -0.2289
 2026SOL    HW3 8178   1.912   0.509   3.376  0.3644 -1.0324  1.0430
 2026SOL    MW4 8179   1.989   0.534   3.408  0.5376 -0.0184 -0.1311
 2027SOL     OW 8180   2.021   0.771   3.273  0.0547 -0.0321  0.6841
 2027SOL    HW2 8181   2.003   0.694   3.326 -1.7509  0.0181  0.1803
 2027SOL    HW3 8182   2.023   0.739   3.183 -1.1394  0.5761  0.4358
 2027SOL    MW4 8183   2.019   0.757   3.268 -0.3414  0.0548  0.5848
 2028SOL     OW 8184   1.785   0.900   3.345  0.2478  0.1234  0.1914
 2028SOL    HW2 8185   1.867   0.851   3.348 -0.0009 -0.2464  1.5902
 2028SOL    HW3 8186   1.719   0.834   3.322  0.4795  0.6330 -2.0126
 2028SOL    MW4 8187   1.787   0.885   3.342  0.2456  0.1418  0.0854
 2029SOL     OW 8188   1.768   1.149   3.249  0.0269  0.3570 -0.3126
 2029SOL    HW2 8189   1.838   1.200   3.291  0.5354  0.0893 -0.8320
 2029SOL    HW3 8190   1.779   1.060   3.283  0.1836  0.2293 -0.6904
 2029SOL    MW4 8191   1.778   1.144   3.259  0.1147  0.3048 -0.4311
 2030SOL     OW 8192   1.973   1.286   3.381 -0.3436  0.3953  0.1496
 2030SOL    HW2 8193   1.958   1.287   3.475 -1.2372 -0.4772  0.0285
 2030SOL    HW3 8194   1.992   1.377   3.358 -1.2761  0.8060  0.9855
 2030SOL    MW4 8195   1.973   1.298   3.390 -0.5846  0.3343  0.2439
 2031SOL     OW 8196   2.021   1.550   3.298  0.7965 -0.2509  0.5967
 2031SOL    HW2 8197   2.106   1.591   3.313  0.2574  1.0134  0.2276
 2031SOL    HW3 8198   1.957   1.611   3.336 -0.1401  0.1445 -1.5278
 2031SOL    MW4 8199   2.024   1.563   3.305  0.6020 -0.0318  0.2675
 2032SOL     OW 8200   1.794   1.693   3.390  1.2105  0.4121 -0.7241
 2032SOL    HW2 8201   1.786   1.784   3.362  0.2768  0.6382  0.2702
 2032SOL    HW3 8202   1.738   1.644   3.329  1.9272  0.4676 -1.4274
 2032SOL    MW4 8203   1.785   1.698   3.378  1.1818  0.4493 -0.6857
 2033SOL     OW 8204   1.787   1.938   3.271 -0.3122  0.2394  0.3286
 2033SOL    HW2 8205   1.869   1.986   3.287  0.4848 -0.8058 -0.6190
 2033SOL    HW3 8206   1.787   1.919   3.178  0.1997 -3.0804  0.9418
 2033SOL    MW4 8207   1.798   1.942   3.261 -0.1396 -0.3366  0.2844
 2034SOL     OW 8208   2.018   2.062   3.348  0.7326 -0.1722  0.1142
 2034SOL    HW2 8209   2.087   2.001   3.322  2.3843  0.9116  1.8460
 2034SOL    HW3 8210   2.035   2.142   3.299 -1.3960 -1.0277 -2.1041
 2034SOL    MW4 8211   2.029   2.064   3.338  0.6695 -0.1421  0.0498
 2035SOL     OW 8212   2.022   2.302   3.217 -0.3066 -0.0891 -0.2240
 2035SOL    HW2 8213   2.095   2.358   3.242 -1.2538  1.4658 -0.8496
 2035SOL    HW3 8214   2.022   2.303   3.121 -1.0903 -0.1582 -0.2308
 2035SOL    MW4 8215   2.032   2.309   3.208 -0.5352  0.1070 -0.3076
 2036SOL     OW 8216   1.793   2.452   3.299 -0.3389  0.4948  0.2846
 2036SOL    HW2 8217   1.849   2.384   3.264  0.2308  1.1978 -0.1875
 2036SOL    HW3 8218   1.705   2.428   3.270 -0.2128 -0.3454  0.6106
 2036SOL    MW4 8219   1.788   2.440   3.290 -0.2470  0.4768  0.2654
 2037SOL     OW 8220   1.818   2.699   3.211 -0.4221 -0.5719 -0.3541
 2037SOL    HW2 8221   1.898   2.742   3.240 -1.5190  1.8241 -0.7610
 2037SOL    HW3 8222   1.826   2.609   3.242  1.5738  0.1232  1.2395
 2037SOL    MW4 8223   1.829   2.693   3.219 -0.3035 -0.1640 -0.1974
 2038SOL     OW 8224   2.030   2.844   3.330  0.0383 -0.1175  0.1395
 2038SOL    HW2 8225   2.034   2.857   3.425 -0.2861  0.2635  0.1043
 2038SOL    HW3 8226   2.016   2.931   3.294  0.7616 -0.1791 -0.3042
 2038SOL    MW4 8227   2.029   2.857   3.338  0.0908 -0.0753  0.0763
 2039SOL     OW 8228   2.009   3.100   3.230 -0.1052  0.3073 -0.5251
 2039SOL    HW2 8229   2.070   3.155   3.279 -0.5613  0.7093 -0.3973
 2039SOL    HW3 8230   1.923   3.124   3.264 -0.3164 -0.4223 -0.5384
 2039SOL    MW4 8231   2.005   3.111   3.241 -0.1934  0.2642 -0.5100
 2040SOL     OW 8232   1.769   3.189   3.337 -0.0578 -0.3928 -0.0236
 2040SOL    HW2 8233   1.793   3.206   3.429 -1.7795 -0.2485  0.4212
 2040SOL    HW3 8234   1.770   3.276   3.296  0.4507 -0.4204 -0.0622
 2040SOL    MW4 8235   1.772   3.203   3.344 -0.2180 -0.3777  0.0298
 2041SOL     OW 8236   1.759   3.462   3.226 -0.0669  0.3272 -0.2370
 2041SOL    HW2 8237   1.697   3.527   3.258 -0.2352  0.2869 -0.4854
 2041SOL    HW3 8238   1.762   3.474   3.132 -0.9578 -0.7730 -0.4151
 2041SOL    MW4 8239   1.752   3.472   3.218 -0.2067  0.1767 -0.2935
 2042SOL     OW 8240   1.971   3.597   3.334 -0.5875 -0.3148 -0.1087
 2042SOL    HW2 8241   2.045   3.550   3.296 -0.8315  0.0409 -1.0539
 2042SOL    HW3 8242   1.894   3.557   3.294 -0.8135  0.5666 -0.5647
 2042SOL    MW4 8243   1.971   3.586   3.324 -0.6496 -0.1514 -0.2935
 2043SOL     OW 8244   2.003   3.867   3.236  0.5836 -0.1497 -0.5468
 2043SOL    HW2 8245   1.935   3.923   3.274  0.9108 -0.4380  0.4770
 2043SOL    HW3 8246   1.993   3.783   3.281  1.7745 -0.1225 -0.2129
 2043SOL    MW4 8247   1.993   3.863   3.247  0.7837 -0.1845 -0.3676
 2044SOL     OW 8248   1.812   4.018   3.349 -0.0425  0.2457  0.3975
 2044SOL    HW2 8249   1.806   4.003   3.443 -0.1043 -0.8475  0.2204
 2044SOL    HW3 8250   1.741   3.965   3.311  2.3493 -2.3672 -0.5916
 2044SOL    MW4 8251   1.802   4.009   3.356  0.2650 -0.2432  0.2437
 2045SOL     OW 8252   1.793   4.286   3.246 -0.2759 -0.4522  0.4645
 2045SOL    HW2 8253   1.792   4.196   3.279 -0.0016 -0.2736  0.9664
 2045SOL    HW3 8254   1.782   4.277   3.152 -1.3362 -0.9606  0.6250
 2045SOL    MW4 8255   1.791   4.273   3.238 -0.3794 -0.4954  0.5517
 2046SOL     OW 8256   2.033   4.399   3.373  0.5668 -0.3632 -0.5179
 2046SOL    HW2 8257   1.950   4.364   3.341  0.3255  0.9605 -1.3824
 2046SOL    HW3 8258   2.037   4.488   3.337  1.7527  0.0436  0.5874
 2046SOL    MW4 8259   2.023   4.406   3.364  0.6917 -0.1345 -0.4861
 2047SOL     OW 8260   2.469   4.664   3.275  0.6514  0.5328 -0.2127
 2047SOL    HW2 8261   2.463   4.572   3.301 -0.1589  0.3269 -1.1199
 2047SOL    HW3 8262   2.450   4.664   3.181 -1.0995  1.8201  0.1170
 2047SOL    MW4 8263   2.466   4.652   3.266  0.3138  0.6757 -0.2887
 2048SOL     OW 8264   2.254   0.155   3.370  0.0441 -0.0907  0.0631
 2048SOL    HW2 8265   2.254   0.245   3.338  0.1361 -0.6792 -1.6496
 2048SOL    HW3 8266   2.336   0.118   3.336  0.4237 -0.5713  1.4793
 2048SOL    MW4 8267   2.265   0.162   3.361  0.1061 -0.2318  0.0243
 2049SOL     OW 8268   2.218   0.408   3.292  0.1348  0.4842 -0.4837
 2049SOL    HW2 8269   2.293   0.442   3.341  1.3156 -2.7537  0.0734
 2049SOL    HW3 8270   2.142   0.436   3.343  1.1076  1.1982  0.6124
 2049SOL    MW4 8271   2.218   0.417   3.305  0.4189  0.1512 -0.2658
 2050SOL     OW 8272   2.436   0.497   3.430 -0.0144 -0.0101  0.2502
 2050SOL    HW2 8273   2.515   0.450   3.407  0.9993  1.0681  1.4528
 2050SOL    HW3 8274   2.452   0.587   3.402  0.0600  0.6799  2.3904
 2050SOL    MW4 8275   2.448   0.503   3.424  0.1292  0.2233  0.6917
 2051SOL     OW 8276   2.463   0.734   3.277  0.3527  0.2226 -0.2673
 2051SOL    HW2 8277   2.540   0.790   3.293  1.6679 -1.0868 -1.8869
 2051SOL    HW3 8278   2.453   0.733   3.182 -1.8916  0.6160 -0.0644
 2051SOL    MW4 8279   2.472   0.742   3.267  0.2301  0.1017 -0.4544
 2052SOL     OW 8280   2.252   0.919   3.358 -0.2912  0.0842 -0.3647
 2052SOL    HW2 8281   2.175   0.873   3.324  0.5836 -0.4080 -1.6841
 2052SOL    HW3 8282   2.326   0.863   3.335  0.6516  1.4424 -0.6876
 2052SOL    MW4 8283   2.251   0.906   3.351 -0.0515  0.1985 -0.5813
 2053SOL     OW 8284   2.227   1.173   3.272 -0.1173  0.3531  0.2447
 2053SOL    HW2 8285   2.220   1.081   3.297  0.2851  0.2011 -0.1872
 2053SOL    HW3 8286   2.154   1.216   3.316  0.1928 -0.0199  1.1377
 2053SOL    MW4 8287   2.217   1.166   3.281 -0.0231  0.2837  0.3054
 2054SOL     OW 8288   2.885   3.849   4.033  0.0524 -0.5378 -0.3056
 2054SOL    HW2 8289   2.892   3.944   4.043  0.9782 -0.6466  0.2052
 2054SOL    HW3 8290   2.865   3.836   3.941  0.6352  0.1335 -0.5330
 2054SOL    MW4 8291   2.884   3.860   4.022  0.2511 -0.4635 -0.2685
 2055SOL     OW 8292   2.417   1.510   3.249  0.5978  0.0543 -0.0569
 2055SOL    HW2 8293   2.435   1.421   3.281  2.5540  0.3795 -0.1757
 2055SOL    HW3 8294   2.429   1.504   3.154 -0.1842  0.2375 -0.1667
 2055SOL    MW4 8295   2.421   1.497   3.241  0.7529  0.1214 -0.0870
 2056SOL     OW 8296   2.238   1.652   3.420 -0.0239 -0.5336 -0.4720
 2056SOL    HW2 8297   2.224   1.741   3.387  0.1633 -0.6176 -0.7775
 2056SOL    HW3 8298   2.307   1.616   3.364  0.3708 -0.6407  0.0732
 2056SOL    MW4 8299   2.245   1.659   3.408  0.0529 -0.5589 -0.4401
 2057SOL     OW 8300   2.216   1.892   3.275  0.2791 -0.3382 -0.1287
 2057SOL    HW2 8301   2.288   1.953   3.292 -0.1460  0.6775 -1.8081
 2057SOL    HW3 8302   2.216   1.882   3.180 -1.5587 -0.6218 -0.1123
 2057SOL    MW4 8303   2.226   1.899   3.264 -0.0193 -0.2415 -0.3481
 2058SOL     OW 8304   0.885   2.190   4.111  0.0889  0.0459 -0.3424
 2058SOL    HW2 8305   0.810   2.213   4.055  1.1810  1.1757 -1.3562
 2058SOL    HW3 8306   0.869   2.238   4.192  0.2588  1.1443 -0.9498
 2058SOL    MW4 8307   0.873   2.199   4.114  0.2554  0.3400 -0.5560
 2059SOL     OW 8308   2.469   2.322   3.225  0.0727 -0.1768  0.2085
 2059SOL    HW2 8309   2.531   2.370   3.279 -0.6065  0.1028  0.7549
 2059SOL    HW3 8310   2.468   2.234   3.263  0.4648 -0.2997 -0.0733
 2059SOL    MW4 8311   2.477   2.316   3.237  0.0350 -0.1562  0.2434
 2060SOL     OW 8312   2.223   2.456   3.291  0.1210 -0.1650 -0.4296
 2060SOL    HW2 8313   2.304   2.412   3.263  1.5413  2.0578  0.0771
 2060SOL    HW3 8314   2.218   2.439   3.385  1.0858  1.3521 -0.0862
 2060SOL    MW4 8315   2.233   2.448   3.300  0.4358  0.3285 -0.3176
 2061SOL     OW 8316   2.252   2.746   3.247  0.3353 -0.4008 -0.0445
 2061SOL    HW2 8317   2.169   2.787   3.274  0.6363  0.4205 -0.3719
 2061SOL    HW3 8318   2.242   2.654   3.273 -0.8666 -0.4111 -0.4894
 2061SOL    MW4 8319   2.239   2.739   3.254  0.2160 -0.2935 -0.1464
 2062SOL     OW 8320   2.460   2.876   3.390 -0.0659 -0.2973 -0.1759
 2062SOL    HW2 8321   2.446   2.961   3.347 -0.1590 -0.6410 -0.8399
 2062SOL    HW3 8322   2.387   2.822   3.359 -0.0679 -0.5875  0.3328
 2062SOL    MW4 8323   2.448   2.880   3.380 -0.0782 -0.3805 -0.1965
 2063SOL     OW 8324   2.434   3.128   3.281  0.0981  1.0316  0.1053
 2063SOL    HW2 8325   2.517   3.160   3.316 -0.0964  1.1947  0.4219
 2063SOL    HW3 8326   2.443   3.135   3.186  0.2276  1.6017  0.1610
 2063SOL    MW4 8327   2.446   3.133   3.273  0.0896  1.1282  0.1543
 2064SOL     OW 8328   2.199   3.237   3.356  0.2587 -0.6179  0.2400
 2064SOL    HW2 8329   2.201   3.209   3.448  0.7284 -0.6900  0.2112
 2064SOL    HW3 8330   2.285   3.214   3.322  0.1922 -0.3230 -0.1401
 2064SOL    MW4 8331   2.211   3.231   3.364  0.3119 -0.5887  0.1862
 2065SOL     OW 8332   2.213   3.475   3.227  0.0303  0.0524  0.5531
 2065SOL    HW2 8333   2.214   3.395   3.279  0.1818  0.1243  0.6582
 2065SOL    HW3 8334   2.282   3.530   3.265  0.1011  0.1278  0.3174
 2065SOL    MW4 8335   2.222   3.471   3.239  0.0594  0.0718  0.5360
 2066SOL     OW 8336   2.421   3.612   3.346 -0.1797  0.0611 -0.4511
 2066SOL    HW2 8337   2.441   3.702   3.320 -1.5495 -0.1176 -2.1721
 2066SOL    HW3 8338   2.418   3.615   3.442 -1.1386  2.0377 -0.5249
 2066SOL    MW4 8339   2.423   3.625   3.355 -0.4871  0.2983 -0.6878
 2067SOL     OW 8340   2.456   3.881   3.236 -0.1573 -0.0587 -0.0362
 2067SOL    HW2 8341   2.536   3.916   3.275 -0.6757  0.4431  0.5789
 2067SOL    HW3 8342   2.388   3.943   3.262 -1.1936 -1.8099  1.5203
 2067SOL    MW4 8343   2.458   3.894   3.244 -0.3622 -0.2236  0.2503
 2068SOL     OW 8344   2.236   4.017   3.347 -0.0839 -0.2509  0.2100
 2068SOL    HW2 8345   2.234   4.109   3.325  2.4808  0.2551  1.8272
 2068SOL    HW3 8346   2.161   3.979   3.302 -0.5813  2.4229 -1.2825
 2068SOL    MW4 8347   2.226   4.024   3.338  0.1886  0.1688  0.2267
 2069SOL     OW 8348   2.254   4.292   3.259 -0.0095  0.1047 -0.1664
 2069SOL    HW2 8349   2.170   4.321   3.294 -0.1780  0.9007 -1.2110
 2069SOL    HW3 8350   2.241   4.288   3.164  0.7556 -0.9907 -0.2404
 2069SOL    MW4 8351   2.241   4.295   3.251  0.0689  0.0653 -0.3142
 2070SOL     OW 8352   2.507   4.383   3.368  0.4223  0.3534  0.4542
 2070SOL    HW2 8353   2.497   4.405   3.461 -0.4947  1.6281  0.0637
 2070SOL    HW3 8354   2.430   4.332   3.347 -0.7177  2.3176 -0.2496
 2070SOL    MW4 8355   2.496   4.379   3.378  0.1509  0.7811  0.3097
 2071SOL     OW 8356   2.940   4.638   3.226 -0.0234 -0.2478 -0.0612
 2071SOL    HW2 8357   2.871   4.699   3.254  0.6336  0.3582  0.2725
 2071SOL    HW3 8358   2.928   4.561   3.281  0.0241  0.1565  0.5293
 2071SOL    MW4 8359   2.929   4.636   3.237  0.0691 -0.1144  0.0606
 2072SOL     OW 8360   2.723   0.093   3.330  0.2157  0.1423  0.4820
 2072SOL    HW2 8361   2.711   0.188   3.327 -0.8461  0.0443  1.3686
 2072SOL    HW3 8362   2.637   0.057   3.309  0.7708 -0.6436 -0.5078
 2072SOL    MW4 8363   2.710   0.101   3.327  0.1488  0.0257  0.4683
 2073SOL     OW 8364   2.641   0.365   3.284 -0.2971 -0.5122 -0.0120
 2073SOL    HW2 8365   2.718   0.422   3.281  0.5044 -1.4878  1.1707
 2073SOL    HW3 8366   2.618   0.350   3.193  0.6983  0.1025 -0.3679
 2073SOL    MW4 8367   2.648   0.370   3.272 -0.0601 -0.5598  0.0973
 2074SOL     OW 8368   2.900   0.481   3.322 -0.1385 -0.1866  0.2025
 2074SOL    HW2 8369   2.898   0.466   3.416  1.5045  0.6977  0.4042
 2074SOL    HW3 8370   2.907   0.576   3.313 -0.6227 -0.2396 -0.8131
 2074SOL    MW4 8371   2.901   0.492   3.333  0.0143 -0.0769  0.0951
 2075SOL     OW 8372   2.935   0.748   3.258 -0.1718  0.6354 -0.1179
 2075SOL    HW2 8373   2.998   0.812   3.293 -1.6432  0.9828  1.9959
 2075SOL    HW3 8374   2.849   0.782   3.285 -1.2304 -0.2220 -2.3051
 2075SOL    MW4 8375   2.932   0.761   3.266 -0.5054  0.5681 -0.1278
 2076SOL     OW 8376   2.700   0.862   3.345  0.1498 -0.0285 -0.3125
 2076SOL    HW2 8377   2.708   0.851   3.439  1.1666 -0.4726 -0.4494
 2076SOL    HW3 8378   2.699   0.957   3.331  0.4777  0.0341  0.1022
 2076SOL    MW4 8379   2.701   0.873   3.355  0.3271 -0.0789 -0.2759
 2077SOL     OW 8380   2.710   1.131   3.253 -0.0009  0.2443  0.5995
 2077SOL    HW2 8381   2.790   1.172   3.284  0.1157 -1.0819  2.1517
 2077SOL    HW3 8382   2.640   1.188   3.285  0.3137  1.1053 -0.2755
 2077SOL    MW4 8383   2.711   1.144   3.262  0.0563  0.1829  0.6888
 2078SOL     OW 8384   2.915   1.271   3.367  0.0945 -0.6567  0.3134
 2078SOL    HW2 8385   2.929   1.303   3.456  1.8457  2.2023 -0.9357
 2078SOL    HW3 8386   2.994   1.220   3.347  0.2402 -0.3044 -0.0174
 2078SOL    MW4 8387   2.927   1.268   3.376  0.3450 -0.2331  0.1049
 2079SOL     OW 8388   2.930   1.529   3.240 -0.0048  0.1779 -0.7236
 2079SOL    HW2 8389   2.858   1.582   3.274  0.7471  1.1818 -0.6676
 2079SOL    HW3 8390   2.921   1.444   3.284 -0.0422  0.9112  0.6876
 2079SOL    MW4 8391   2.920   1.524   3.250  0.0894  0.4070 -0.5300
 2080SOL     OW 8392   2.659   1.639   3.341 -0.6609  0.5851 -0.1853
 2080SOL    HW2 8393   2.645   1.658   3.433  0.0560  0.8891 -0.1405
 2080SOL    HW3 8394   2.576   1.601   3.312 -0.8463  0.3693  0.6089
 2080SOL    MW4 8395   2.646   1.636   3.349 -0.5910  0.5966 -0.0749
 2081SOL     OW 8396   2.174   0.907   3.635 -0.1532  0.6047 -0.3953
 2081SOL    HW2 8397   2.187   0.917   3.541  0.8580  4.3609  0.0551
 2081SOL    HW3 8398   2.251   0.859   3.665  0.0323  0.3115 -1.3259
 2081SOL    MW4 8399   2.186   0.902   3.627  0.0045  1.0617 -0.4587
 2082SOL     OW 8400   2.634   2.476   3.629  0.1828  0.0380 -0.4383
 2082SOL    HW2 8401   2.703   2.424   3.670  0.9019  0.1566 -1.4649
 2082SOL    HW3 8402   2.650   2.565   3.661  0.3066  0.0096 -0.4180
 2082SOL    MW4 8403   2.646   2.481   3.639  0.2940  0.0498 -0.5710
 2083SOL     OW 8404   2.876   2.272   3.335 -0.0332  0.0920  0.4288
 2083SOL    HW2 8405   2.885   2.276   3.240 -1.0646 -0.4345  0.3089
 2083SOL    HW3 8406   2.873   2.178   3.355  0.3218  0.1955  1.0031
 2083SOL    MW4 8407   2.877   2.260   3.325 -0.1223  0.0360  0.4888
 2084SOL     OW 8408   3.952   1.736   4.208  0.1810  0.3582 -0.3006
 2084SOL    HW2 8409   3.976   1.669   4.143 -1.8075 -0.3692 -0.3077
 2084SOL    HW3 8410   3.886   1.694   4.262  1.3092  1.2159  1.7805
 2084SOL    MW4 8411   3.947   1.722   4.206  0.0675  0.3752 -0.0272
 2085SOL     OW 8412   2.901   2.800   3.317 -0.3116  0.6256  0.1898
 2085SOL    HW2 8413   2.818   2.760   3.291 -0.6094  1.6626 -0.4630
 2085SOL    HW3 8414   2.888   2.824   3.409  0.0412 -1.2098  0.7351
 2085SOL    MW4 8415   2.889   2.798   3.326 -0.3045  0.5202  0.1757
 2086SOL     OW 8416   3.535   2.014   3.760  0.1921 -0.0927  0.8254
 2086SOL    HW2 8417   3.575   2.101   3.760  1.4448 -0.6577  1.5921
 2086SOL    HW3 8418   3.483   2.012   3.840  0.0143  0.0091  0.7138
 2086SOL    MW4 8419   3.534   2.025   3.770  0.3338 -0.1540  0.9122
 2087SOL     OW 8420   2.858   3.075   3.225  0.4478  0.6630  0.6118
 2087SOL    HW2 8421   2.864   2.988   3.264  2.1576 -0.1406 -1.3357
 2087SOL    HW3 8422   2.940   3.118   3.250  0.1419  1.2865  0.5605
 2087SOL    MW4 8423   2.870   3.069   3.233  0.6330  0.6390  0.3483
 2088SOL     OW 8424   2.673   3.225   3.377 -0.4979 -1.1206 -0.0485
 2088SOL    HW2 8425   2.690   3.236   3.471  1.1194 -0.9023 -0.3559
 2088SOL    HW3 8426   2.742   3.165   3.347  1.5337  2.0126 -1.9070
 2088SOL    MW4 8427   2.685   3.218   3.385 -0.0167 -0.6785 -0.3343
 2089SOL     OW 8428   2.677   3.497   3.308 -0.1367  0.1339  0.4749
 2089SOL    HW2 8429   2.663   3.404   3.328  0.0513  0.0334  0.1351
 2089SOL    HW3 8430   2.593   3.538   3.329 -0.2480 -0.1246  0.5470
 2089SOL    MW4 8431   2.664   3.490   3.314 -0.1264  0.0865  0.4396
 2090SOL     OW 8432   2.915   3.613   3.351 -0.0157 -0.7928 -0.1481
 2090SOL    HW2 8433   2.895   3.698   3.314  0.6924 -0.4388  0.2742
 2090SOL    HW3 8434   2.844   3.556   3.320 -0.8216  0.0801  0.0792
 2090SOL    MW4 8435   2.903   3.616   3.342 -0.0286 -0.6311 -0.0625
 2091SOL     OW 8436   2.912   3.868   3.233  0.1693 -0.0904 -0.0915
 2091SOL    HW2 8437   2.985   3.919   3.266  0.4247 -0.0467 -0.7294
 2091SOL    HW3 8438   2.834   3.913   3.265  0.4249 -0.7537  1.5260
 2091SOL    MW4 8439   2.911   3.881   3.241  0.2367 -0.1721  0.0377
 2092SOL     OW 8440   2.684   3.981   3.337 -0.2451  0.1174  0.2098
 2092SOL    HW2 8441   2.704   3.983   3.431 -2.6194  0.4308  0.7339
 2092SOL    HW3 8442   2.701   4.070   3.307  0.8418 -0.0650  0.2535
 2092SOL    MW4 8443   2.689   3.993   3.346 -0.4151  0.1347  0.2847
 2093SOL     OW 8444   2.696   4.278   2.970 -0.2870 -0.1840 -0.5035
 2093SOL    HW2 8445   2.706   4.277   3.065  0.4107 -1.0153 -0.5821
 2093SOL    HW3 8446   2.621   4.336   2.954 -0.9080 -0.6849  0.5851
 2093SOL    MW4 8447   2.688   4.286   2.981 -0.2768 -0.3600 -0.3705
 2094SOL     OW 8448   2.722   4.238   3.250 -0.1853  0.1647  0.0060
 2094SOL    HW2 8449   2.790   4.277   3.305 -1.5867  0.1770  1.7659
 2094SOL    HW3 8450   2.641   4.280   3.278 -1.0949 -0.7246 -1.2302
 2094SOL    MW4 8451   2.720   4.248   3.261 -0.4900  0.0486  0.0751
 2095SOL     OW 8452   3.379   4.606   3.238 -0.4169 -0.3586 -0.0192
 2095SOL    HW2 8453   3.303   4.665   3.240  0.6234  1.0480 -0.5682
 2095SOL    HW3 8454   3.403   4.603   3.145 -0.4547 -1.6621  0.0144
 2095SOL    MW4 8455   3.372   4.614   3.226 -0.2849 -0.3452 -0.0873
 2096SOL     OW 8456   3.173   0.110   3.288 -0.5991 -0.4622  0.0312
 2096SOL    HW2 8457   3.140   0.194   3.257 -0.9337 -0.4087  0.5256
 2096SOL    HW3 8458   3.111   0.046   3.252 -1.4424 -0.3364  1.2183
 2096SOL    MW4 8459   3.161   0.113   3.279 -0.7544 -0.4385  0.2532
 2097SOL     OW 8460   3.121   0.360   3.219 -0.4954 -0.2181  0.3913
 2097SOL    HW2 8461   3.051   0.410   3.263 -1.4200 -0.0535 -1.2411
 2097SOL    HW3 8462   3.120   0.391   3.129  0.3866 -1.6419 -0.1245
 2097SOL    MW4 8463   3.111   0.371   3.213 -0.5012 -0.3842  0.1080
 2098SOL     OW 8464   3.357   0.477   3.310  0.1634  0.1388  0.4093
 2098SOL    HW2 8465   3.374   0.460   3.403  1.0748  1.1795  0.4297
 2098SOL    HW3 8466   3.273   0.434   3.294 -0.5244  0.8461  1.9803
 2098SOL    MW4 8467   3.348   0.469   3.320  0.1929  0.3694  0.6196
 2099SOL     OW 8468   3.343   0.753   3.233  0.0794  0.4896 -0.0545
 2099SOL    HW2 8469   3.427   0.791   3.257  0.1536  0.2990 -0.0107
 2099SOL    HW3 8470   3.349   0.662   3.262 -0.2703  0.5660  0.2589
 2099SOL    MW4 8471   3.355   0.746   3.240  0.0432  0.4745 -0.0074
 2100SOL     OW 8472   3.144   0.872   3.378  0.3500 -0.2845  0.3586
 2100SOL    HW2 8473   3.134   0.959   3.338  0.0209 -0.9361 -1.0286
 2100SOL    HW3 8474   3.223   0.837   3.337  0.3383 -0.7413  0.7301
 2100SOL    MW4 8475   3.153   0.879   3.367  0.3049 -0.4306  0.2248
 2101SOL     OW 8476   3.109   1.129   3.245 -0.2374 -0.5570 -0.4202
 2101SOL    HW2 8477   3.177   1.186   3.283 -0.0001 -1.0855 -0.0456
 2101SOL    HW3 8478   3.127   1.130   3.151  0.6394 -1.1418 -0.2658
 2101SOL    MW4 8479   3.121   1.137   3.238 -0.0904 -0.7038 -0.3505
 2102SOL     OW 8480   3.328   1.304   3.311  0.3659  0.0511  0.3935
 2102SOL    HW2 8481   3.347   1.396   3.293  0.9693  0.1981  1.7328
 2102SOL    HW3 8482   3.412   1.260   3.300  0.1751 -0.2716  0.2271
 2102SOL    MW4 8483   3.342   1.310   3.307  0.4203  0.0280  0.5481
 2103SOL     OW 8484   3.366   1.583   3.225  0.0823  0.2287  0.2467
 2103SOL    HW2 8485   3.440   1.616   3.275 -0.6329 -0.9026  2.1712
 2103SOL    HW3 8486   3.289   1.612   3.275 -0.6828 -0.3619 -0.5704
 2103SOL    MW4 8487   3.365   1.591   3.238 -0.1128  0.0014  0.3927
 2104SOL     OW 8488   3.132   1.645   3.373  0.2063  0.0346 -0.2901
 2104SOL    HW2 8489   3.063   1.601   3.323  0.3985  1.3911 -1.7905
 2104SOL    HW3 8490   3.094   1.658   3.460 -0.1833 -2.2375 -0.0727
 2104SOL    MW4 8491   3.118   1.641   3.378  0.1802 -0.0862 -0.4594
 2105SOL     OW 8492   2.899   1.987   3.372  0.4022  0.5210 -0.1898
 2105SOL    HW2 8493   2.819   1.953   3.333  0.7762  0.5929 -1.0417
 2105SOL    HW3 8494   2.881   1.990   3.466 -0.3773 -0.0262 -0.3154
 2105SOL    MW4 8495   2.886   1.983   3.379  0.3486  0.4582 -0.3188
 2106SOL     OW 8496   3.343   2.038   3.337  0.1969 -0.0809 -0.2835
 2106SOL    HW2 8497   3.337   2.044   3.433  1.1561  0.9728 -0.2869
 2106SOL    HW3 8498   3.265   1.987   3.312 -0.6522  0.5779  0.9498
 2106SOL    MW4 8499   3.332   2.032   3.347  0.2112  0.1450 -0.1214
 2107SOL     OW 8500   3.330   2.304   3.256  0.1736  0.0960 -0.3860
 2107SOL    HW2 8501   3.407   2.343   3.297 -0.0074 -0.3478  0.4026
 2107SOL    HW3 8502   3.340   2.210   3.270 -0.5122  0.0354 -0.2548
 2107SOL    MW4 8503   3.341   2.297   3.264  0.0594  0.0293 -0.2646
 2108SOL     OW 8504   2.553   1.589   4.026  0.2598 -0.3254  0.0966
 2108SOL    HW2 8505   2.646   1.582   4.046  0.0691 -0.2089  1.0238
 2108SOL    HW3 8506   2.538   1.683   4.018  0.1558 -0.3287  0.2556
 2108SOL    MW4 8507   2.563   1.601   4.027  0.2210 -0.3104  0.2398
 2109SOL     OW 8508   3.106   2.634   3.229  0.2220 -0.1053  0.2083
 2109SOL    HW2 8509   3.102   2.554   3.281 -0.5178  0.9250  1.7623
 2109SOL    HW3 8510   3.048   2.695   3.274  0.2668  1.1008 -1.3294
 2109SOL    MW4 8511   3.098   2.632   3.242  0.1304  0.1895  0.2105
 2110SOL     OW 8512   3.329   2.817   3.286 -0.5665  0.4305  0.2308
 2110SOL    HW2 8513   3.415   2.780   3.268 -0.9834  0.4832 -1.9810
 2110SOL    HW3 8514   3.267   2.751   3.255 -1.3297  1.0014  0.5078
 2110SOL    MW4 8515   3.332   2.803   3.280 -0.7222  0.5126 -0.0246
 2111SOL     OW 8516   3.340   3.100   3.252 -0.0933  0.3729 -0.1495
 2111SOL    HW2 8517   3.329   3.010   3.285  1.6779  0.2509  0.1407
 2111SOL    HW3 8518   3.251   3.136   3.252 -0.6812 -1.0188  0.7557
 2111SOL    MW4 8519   3.327   3.093   3.257  0.0627  0.1731  0.0083
 2112SOL     OW 8520   3.089   3.210   3.302  0.0432  0.2477 -0.2156
 2112SOL    HW2 8521   3.104   3.206   3.396  0.8823 -0.0492 -0.3521
 2112SOL    HW3 8522   3.104   3.302   3.279  1.2378  0.0542 -0.2682
 2112SOL    MW4 8523   3.093   3.222   3.311  0.3114  0.1831 -0.2401
 2113SOL     OW 8524   3.146   3.486   3.254  0.5566 -0.2192  0.1834
 2113SOL    HW2 8525   3.067   3.534   3.278  0.3396 -0.0036 -0.9316
 2113SOL    HW3 8526   3.218   3.537   3.290  0.4101  1.6433 -2.0520
 2113SOL    MW4 8527   3.145   3.499   3.262  0.5085  0.0548 -0.2587
 2114SOL     OW 8528   3.392   3.646   3.350 -0.0362 -0.5074 -0.0889
 2114SOL    HW2 8529   3.472   3.597   3.330 -0.2894 -1.2236  0.6214
 2114SOL    HW3 8530   3.390   3.651   3.446 -0.4487  0.1614 -0.1304
 2114SOL    MW4 8531   3.402   3.640   3.360 -0.1240 -0.5138 -0.0007
 2115SOL     OW 8532   3.376   3.881   3.221 -0.3827  0.5214 -0.3940
 2115SOL    HW2 8533   3.450   3.931   3.255 -1.1972  0.6201  1.2959
 2115SOL    HW3 8534   3.379   3.798   3.268 -0.9982  0.3040 -0.7347
 2115SOL    MW4 8535   3.386   3.877   3.232 -0.5715  0.5057 -0.2160
 2116SOL     OW 8536   3.140   3.988   3.360 -0.0277 -0.0662  0.0898
 2116SOL    HW2 8537   3.148   3.969   3.453  0.0761 -0.6859 -0.0396
 2116SOL    HW3 8538   3.216   3.945   3.320  0.7442  1.4426 -0.1078
 2116SOL    MW4 8539   3.151   3.980   3.367  0.0877  0.0513  0.0467
 2117SOL     OW 8540   3.126   4.245   3.285  0.1686 -0.1441 -0.0837
 2117SOL    HW2 8541   3.207   4.276   3.325  1.1634 -0.5569 -1.6780
 2117SOL    HW3 8542   3.118   4.154   3.315 -0.2074  0.1936  0.8299
 2117SOL    MW4 8543   3.136   4.237   3.294  0.2503 -0.1535 -0.1736
 2118SOL     OW 8544   3.368   4.351   3.361 -0.0894 -0.1895  0.4399
 2118SOL    HW2 8545   3.361   4.363   3.456  0.4282 -0.8251  0.5615
 2118SOL    HW3 8546   3.362   4.440   3.325  1.2863  0.2122  1.1641
 2118SOL    MW4 8547   3.367   4.364   3.369  0.1607 -0.2203  0.5512
 2119SOL     OW 8548   3.819   4.628   3.319  0.4480  0.5106 -0.1389
 2119SOL    HW2 8549   3.739   4.671   3.347  0.6069  0.3804  0.5204
 2119SOL    HW3 8550   3.821   4.641   3.224 -0.0133  1.0814 -0.0740
 2119SOL    MW4 8551   3.809   4.635   3.310  0.4079  0.5689 -0.0434
 2120SOL     OW 8552   3.587   0.101   3.346 -0.1618 -0.3800 -0.1266
 2120SOL    HW2 8553   3.577   0.173   3.284  0.4575 -0.5757 -0.4637
 2120SOL    HW3 8554   3.519   0.038   3.322 -0.4233 -0.1067 -0.1077
 2120SOL    MW4 8555   3.577   0.102   3.335 -0.1147 -0.3697 -0.1683
 2121SOL     OW 8556   3.599   0.353   3.240  0.5102 -0.3109  0.2147
 2121SOL    HW2 8557   3.664   0.403   3.291  1.3564 -0.7310 -0.4489
 2121SOL    HW3 8558   3.516   0.397   3.259  0.8223 -0.4041  1.8971
 2121SOL    MW4 8559   3.597   0.365   3.250  0.6628 -0.3786  0.3490
 2122SOL     OW 8560   3.783   0.534   3.382  0.3660 -0.0859  0.1415
 2122SOL    HW2 8561   3.783   0.538   3.478  0.6021  2.2087  0.0727
 2122SOL    HW3 8562   3.863   0.486   3.360  0.4382 -0.4113  1.0913
 2122SOL    MW4 8563   3.793   0.528   3.392  0.4067  0.1739  0.2577
 2123SOL     OW 8564   3.817   0.771   3.220 -0.2041 -0.1404  0.0016
 2123SOL    HW2 8565   3.895   0.816   3.254  0.4505 -0.0337 -1.5648
 2123SOL    HW3 8566   3.817   0.687   3.265  0.9450 -0.2125 -0.0930
 2123SOL    MW4 8567   3.828   0.766   3.230  0.0336 -0.1359 -0.2177
 2124SOL     OW 8568   3.556   0.886   3.324 -0.1276 -0.1320  0.3909
 2124SOL    HW2 8569   3.561   0.889   3.420  1.1304  0.8502  0.3059
 2124SOL    HW3 8570   3.641   0.851   3.297 -0.1679  0.3809 -0.4015
 2124SOL    MW4 8571   3.568   0.881   3.333  0.0331  0.0652  0.2749
 2125SOL     OW 8572   3.555   1.155   3.266  0.5871 -0.4339 -0.4926
 2125SOL    HW2 8573   3.559   1.064   3.293  0.2222 -0.2915  0.0579
 2125SOL    HW3 8574   3.564   1.153   3.171 -0.0787 -1.0890 -0.5404
 2125SOL    MW4 8575   3.557   1.143   3.257  0.4511 -0.5015 -0.4265
 2126SOL     OW 8576   3.792   1.278   3.352 -0.2557 -0.0939 -0.4100
 2126SOL    HW2 8577   3.792   1.282   3.447 -0.6064 -0.0013 -0.4110
 2126SOL    HW3 8578   3.703   1.249   3.329 -0.3596  0.4623 -0.7279
 2126SOL    MW4 8579   3.780   1.274   3.361 -0.3157 -0.0085 -0.4523
 2127SOL     OW 8580   3.776   1.535   3.254 -0.5515  0.1656  0.2120
 2127SOL    HW2 8581   3.860   1.577   3.273 -1.1204  0.8547  1.2443
 2127SOL    HW3 8582   3.791   1.443   3.275  0.3902  0.0140 -1.0606
 2127SOL    MW4 8583   3.789   1.528   3.259 -0.5023  0.2366  0.1802
 2128SOL     OW 8584   3.562   1.677   3.377  0.2072 -0.7234  0.4721
 2128SOL    HW2 8585   3.622   1.611   3.341  1.7255  0.6212  0.4907
 2128SOL    HW3 8586   3.578   1.755   3.323  2.5202  1.3498  3.9731
 2128SOL    MW4 8587   3.572   1.678   3.365  0.7126 -0.2725  0.9363
 2129SOL     OW 8588   3.586   1.923   3.262  0.2935 -0.5478 -0.1771
 2129SOL    HW2 8589   3.508   1.962   3.302 -0.7666 -0.8331 -1.9256
 2129SOL    HW3 8590   3.660   1.963   3.309 -0.8572  0.9892  0.3547
 2129SOL    MW4 8591   3.586   1.934   3.273  0.0019 -0.3827 -0.3376
 2130SOL     OW 8592   3.820   2.026   3.381 -0.0357  0.3496 -0.1292
 2130SOL    HW2 8593   3.856   2.035   3.469 -0.1199  0.1972 -0.0794
 2130SOL    HW3 8594   3.887   1.976   3.333  0.2574  0.9024 -0.3021
 2130SOL    MW4 8595   3.834   2.021   3.386 -0.0081  0.4025 -0.1454
 2131SOL     OW 8596   3.788   2.286   3.260  0.3172  0.1520  0.0893
 2131SOL    HW2 8597   3.801   2.202   3.305  0.3179  0.9882  1.6944
 2131SOL    HW3 8598   3.848   2.346   3.305 -0.2802  1.2045 -0.5042
 2131SOL    MW4 8599   3.798   2.283   3.272  0.2384  0.4013  0.2229
 2132SOL     OW 8600   3.555   2.422   3.370 -0.6719  0.1595 -0.0606
 2132SOL    HW2 8601   3.637   2.385   3.337 -0.6661  0.6148 -0.5677
 2132SOL    HW3 8602   3.549   2.508   3.328 -0.7925  0.6482  0.9320
 2132SOL    MW4 8603   3.565   2.428   3.360 -0.6871  0.2840  0.0033
 2133SOL     OW 8604   3.566   2.669   3.248  0.6615 -0.0567 -0.3049
 2133SOL    HW2 8605   3.635   2.731   3.275 -0.3210  0.5127  0.9723
 2133SOL    HW3 8606   3.557   2.683   3.154  0.9751  1.2385 -0.1632
 2133SOL    MW4 8607   3.574   2.679   3.239  0.5732  0.1895 -0.1175
 2134SOL     OW 8608   3.782   2.822   3.343  0.5211  0.1226  0.3808
 2134SOL    HW2 8609   3.777   2.822   3.439 -0.4432 -0.8123  0.3316
 2134SOL    HW3 8610   3.786   2.915   3.320 -1.3626  0.4424  1.2161
 2134SOL    MW4 8611   3.782   2.834   3.353  0.1454  0.0415  0.4845
 2135SOL     OW 8612   3.803   3.092   3.260  0.3284 -0.1681  0.1763
 2135SOL    HW2 8613   3.884   3.118   3.304  0.7395 -1.9683  0.5162
 2135SOL    HW3 8614   3.734   3.134   3.311  0.9797  0.4503  0.5628
 2135SOL    MW4 8615   3.805   3.101   3.273  0.4683 -0.3240  0.2720
 2136SOL     OW 8616   3.599   3.182   3.649  0.5623  0.6260 -0.4543
 2136SOL    HW2 8617   3.511   3.149   3.671  1.0651  0.6617  1.7582
 2136SOL    HW3 8618   3.594   3.276   3.668  1.2072  0.5448  0.1224
 2136SOL    MW4 8619   3.587   3.190   3.655  0.7138  0.6199 -0.0865
 2137SOL     OW 8620   3.554   3.222   3.384 -0.4409 -0.1339  0.2428
 2137SOL    HW2 8621   3.546   3.204   3.478  0.5638  2.0462  0.7704
 2137SOL    HW3 8622   3.482   3.174   3.345 -0.5674 -1.5180  2.0640
 2137SOL    MW4 8623   3.544   3.213   3.391 -0.3250 -0.0288  0.5527
 2138SOL     OW 8624   3.833   3.570   3.343 -0.2486 -0.4647 -0.2711
 2138SOL    HW2 8625   3.752   3.523   3.321  0.0385 -0.8381 -0.5419
 2138SOL    HW3 8626   3.827   3.585   3.437 -1.4442  1.0657 -0.5803
 2138SOL    MW4 8627   3.822   3.566   3.352 -0.3686 -0.3121 -0.3476
 2139SOL     OW 8628   3.793   3.820   3.218 -0.0375 -0.3247  0.0568
 2139SOL    HW2 8629   3.723   3.875   3.254  0.4537  0.2711  0.1066
 2139SOL    HW3 8630   3.800   3.747   3.278  0.5551  0.5004  1.0019
 2139SOL    MW4 8631   3.785   3.818   3.230  0.1054 -0.1371  0.1881
 2140SOL     OW 8632   3.612   4.008   3.329  0.2537 -0.2050 -0.4071
 2140SOL    HW2 8633   3.593   4.022   3.422 -0.5926  0.6495 -0.6923
 2140SOL    HW3 8634   3.618   4.096   3.293 -0.7435 -0.5379 -1.4154
 2140SOL    MW4 8635   3.610   4.022   3.337  0.0107 -0.1364 -0.5777
 2141SOL     OW 8636   3.596   4.263   3.264  0.0244  0.9792  0.3355
 2141SOL    HW2 8637   3.511   4.299   3.292 -0.8303 -0.3721 -0.5106
 2141SOL    HW3 8638   3.594   4.269   3.169  1.0198  1.2201  0.3265
 2141SOL    MW4 8639   3.585   4.269   3.255  0.0429  0.8330  0.2227
 2142SOL     OW 8640   3.807   4.367   3.404  0.0539  0.2795  0.1504
 2142SOL    HW2 8641   3.734   4.332   3.352  1.0667 -0.2449 -0.9283
 2142SOL    HW3 8642   3.821   4.455   3.369  0.4992  0.0590 -0.2353
 2142SOL    MW4 8643   3.799   4.374   3.392  0.2463  0.1817 -0.0427
 2143SOL     OW 8644   4.279   4.647   3.255 -0.3670  0.0295  0.1550
 2143SOL    HW2 8645   4.262   4.559   3.288 -0.8890 -0.0755 -0.3721
 2143SOL    HW3 8646   4.354   4.678   3.305  0.3631 -1.0443 -0.2754
 2143SOL    MW4 8647   4.286   4.640   3.266 -0.3395 -0.1259  0.0286
 2144SOL     OW 8648   4.056   0.131   3.363  0.2564  0.1678 -0.3121
 2144SOL    HW2 8649   4.131   0.084   3.327  0.5995 -0.6024  1.3614
 2144SOL    HW3 8650   3.980   0.076   3.341  0.1592  0.9091 -1.9378
 2144SOL    MW4 8651   4.056   0.117   3.355  0.2890  0.1640 -0.3059
 2145SOL     OW 8652   3.974   0.373   3.251  0.0541 -0.0749  0.3109
 2145SOL    HW2 8653   4.012   0.291   3.282  0.9311  0.6548  1.1969
 2145SOL    HW3 8654   3.976   0.366   3.156  2.1718 -0.1776  0.3298
 2145SOL    MW4 8655   3.979   0.361   3.243  0.4494  0.0078  0.4301
 2146SOL     OW 8656   4.222   0.493   3.303 -0.2471 -0.3848  0.2359
 2146SOL    HW2 8657   4.219   0.586   3.281  0.6544 -0.3766  0.1202
 2146SOL    HW3 8658   4.142   0.457   3.267 -0.4657  0.3000  0.0361
 2146SOL    MW4 8659   4.211   0.500   3.295 -0.1569 -0.2934  0.1943
 2147SOL     OW 8660   4.215   0.767   3.230 -0.6959  0.1564  0.3953
 2147SOL    HW2 8661   4.284   0.811   3.280  0.2515  0.1581 -0.8835
 2147SOL    HW3 8662   4.245   0.771   3.139 -2.0527 -0.4650 -0.0953
 2147SOL    MW4 8663   4.228   0.773   3.224 -0.7501  0.0747  0.1619
 2148SOL     OW 8664   4.011   0.888   3.355  0.2664 -0.0234  0.2401
 2148SOL    HW2 8665   4.002   0.976   3.318  0.3848  0.0350  0.3495
 2148SOL    HW3 8666   4.089   0.852   3.314  0.1986 -0.0915  0.1690
 2148SOL    MW4 8667   4.020   0.895   3.345  0.2732 -0.0247  0.2451
 2149SOL     OW 8668   4.025   1.144   3.249 -0.1791  0.2462  0.0450
 2149SOL    HW2 8669   4.094   1.197   3.287  0.1345  0.5173 -0.8887
 2149SOL    HW3 8670   3.944   1.187   3.277  0.0674  1.1775 -0.6317
 2149SOL    MW4 8671   4.023   1.157   3.257 -0.1054  0.4050 -0.1674
 2150SOL     OW 8672   4.227   1.305   3.348  0.2138  0.1181  0.0896
 2150SOL    HW2 8673   4.304   1.249   3.352  0.2006  0.1602  0.8669
 2150SOL    HW3 8674   4.254   1.381   3.297  0.2678 -0.5284 -0.8751
 2150SOL    MW4 8675   4.241   1.308   3.342  0.2189  0.0383  0.0648
 2151SOL     OW 8676   4.293   1.544   3.231  0.3480 -0.2732 -0.3612
 2151SOL    HW2 8677   4.381   1.579   3.245  0.3768 -0.1517 -0.8484
 2151SOL    HW3 8678   4.276   1.556   3.137  0.2609 -1.3369 -0.4879
 2151SOL    MW4 8679   4.302   1.550   3.220  0.3405 -0.3974 -0.4420
 2152SOL     OW 8680   4.032   1.632   3.339 -0.5189  0.0458 -0.1278
 2152SOL    HW2 8681   4.050   1.719   3.303  0.2369  0.4921  1.2811
 2152SOL    HW3 8682   4.113   1.584   3.327 -0.8957 -0.4276 -0.7872
 2152SOL    MW4 8683   4.045   1.637   3.333 -0.4687  0.0423 -0.0293
 2153SOL     OW 8684   4.067   1.897   3.262  0.0788 -0.1935 -0.0848
 2153SOL    HW2 8685   4.144   1.951   3.277 -0.4081  0.6752 -0.6678
 2153SOL    HW3 8686   4.054   1.897   3.167 -0.2744 -0.8519 -0.0468
 2153SOL    MW4 8687   4.075   1.904   3.251 -0.0315 -0.1657 -0.1566
 2154SOL     OW 8688   4.295   2.055   3.333  0.4780 -0.0523 -0.2069
 2154SOL    HW2 8689   4.282   2.135   3.281 -0.0700  0.2972  0.4624
 2154SOL    HW3 8690   4.381   2.022   3.305  1.7909  2.0657  1.2504
 2154SOL    MW4 8691   4.305   2.061   3.322  0.5784  0.2730  0.0737
 2155SOL     OW 8692   4.239   2.329   3.230  0.0689 -0.2253 -0.5422
 2155SOL    HW2 8693   4.155   2.341   3.274  0.7631  0.9591  0.4853
 2155SOL    HW3 8694   4.220   2.337   3.137 -0.9462  0.0660 -0.3049
 2155SOL    MW4 8695   4.226   2.332   3.224  0.0267 -0.0305 -0.3750
 2156SOL     OW 8696   4.011   2.418   3.370  0.2241 -0.1398 -0.5442
 2156SOL    HW2 8697   4.023   2.435   3.463 -0.3063 -0.0760 -0.4855
 2156SOL    HW3 8698   4.006   2.505   3.330  0.5236 -0.1672 -0.6417
 2156SOL    MW4 8699   4.012   2.432   3.377  0.1931 -0.1352 -0.5491
 2157SOL     OW 8700   4.011   2.675   3.262  0.0695 -0.6317  0.1296
 2157SOL    HW2 8701   4.083   2.739   3.264 -0.3585 -0.1597  0.6929
 2157SOL    HW3 8702   3.934   2.724   3.292 -0.4647 -1.1652 -0.3538
 2157SOL    MW4 8703   4.010   2.690   3.266 -0.0577 -0.6397  0.1397
 2158SOL     OW 8704   4.230   2.820   3.313 -0.2536  0.1417  0.3937
 2158SOL    HW2 8705   4.224   2.820   3.409 -0.7093 -1.3020  0.3873
 2158SOL    HW3 8706   4.317   2.783   3.295 -1.2959 -2.3343  0.2430
 2158SOL    MW4 8707   4.241   2.815   3.324 -0.4511 -0.3753  0.3731
 2159SOL     OW 8708   4.285   3.076   3.233 -0.0390  0.0274 -0.0066
 2159SOL    HW2 8709   4.270   2.989   3.270  1.3320 -0.9777 -1.7175
 2159SOL    HW3 8710   4.276   3.064   3.138  0.9026  1.5943 -0.3226
 2159SOL    MW4 8711   4.281   3.063   3.225  0.2661  0.1016 -0.2739
 2160SOL     OW 8712   4.046   3.168   3.333 -0.4715 -0.0247 -0.1756
 2160SOL    HW2 8713   4.052   3.259   3.302  2.0346  0.4053  1.4033
 2160SOL    HW3 8714   4.129   3.128   3.305 -0.7000 -1.2483  0.8803
 2160SOL    MW4 8715   4.058   3.175   3.325 -0.1707 -0.1295  0.1719
 2161SOL     OW 8716   4.038   3.448   3.222 -0.2326  0.1155  0.0384
 2161SOL    HW2 8717   4.117   3.493   3.252 -0.3073 -0.0406  0.4728
 2161SOL    HW3 8718   3.967   3.489   3.272 -0.3102 -0.4325  0.3812
 2161SOL    MW4 8719   4.039   3.459   3.232 -0.2527  0.0222  0.1409
 2162SOL     OW 8720   4.256   3.582   3.325  0.1635  0.3969 -0.3921
 2162SOL    HW2 8721   4.230   3.569   3.416  1.6776 -0.2847 -0.0408
 2162SOL    HW3 8722   4.256   3.677   3.313 -0.9286  0.4584  0.0439
 2162SOL    MW4 8723   4.253   3.593   3.335  0.2193  0.3150 -0.2880
 2163SOL     OW 8724   4.286   3.848   3.294 -0.2552 -0.4483 -0.6129
 2163SOL    HW2 8725   4.360   3.906   3.310  0.0707 -1.0828  0.1869
 2163SOL    HW3 8726   4.270   3.857   3.200 -0.1115  0.8110 -0.5249
 2163SOL    MW4 8727   4.294   3.857   3.283 -0.1931 -0.3657 -0.4954
 2164SOL     OW 8728   4.011   3.962   3.355 -0.3509 -0.2230  0.0322
 2164SOL    HW2 8729   3.942   3.929   3.298 -0.1823  0.3785 -0.5128
 2164SOL    HW3 8730   4.090   3.917   3.326 -0.5832 -1.2409  0.9396
 2164SOL    MW4 8731   4.012   3.952   3.344 -0.3595 -0.2780  0.0799
 2165SOL     OW 8732   4.024   4.238   3.281  0.0157  0.1225  0.3641
 2165SOL    HW2 8733   4.016   4.155   3.328 -1.5993  0.7573  1.2193
 2165SOL    HW3 8734   3.952   4.292   3.313  0.3099  1.4287 -1.0884
 2165SOL    MW4 8735   4.014   4.234   3.291 -0.1588  0.3791  0.2854
 2166SOL     OW 8736   4.226   4.398   3.398  0.7547 -0.2251 -0.4305
 2166SOL    HW2 8737   4.220   4.407   3.494  2.1778 -0.4661 -0.3010
 2166SOL    HW3 8738   4.155   4.339   3.375 -0.5133  0.9660  0.2972
 2166SOL    MW4 8739   4.216   4.392   3.408  0.7749 -0.0997 -0.3176
 2167SOL     OW 8740   0.249   4.654   3.786  0.2385 -0.1695 -0.2341
 2167SOL    HW2 8741   0.164   4.693   3.764 -1.0503 -2.7949 -0.1210
 2167SOL    HW3 8742   0.246   4.643   3.881  0.6802 -0.3460 -0.2416
 2167SOL    MW4 8743   0.237   4.658   3.796  0.1267 -0.5393 -0.2203
 2168SOL     OW 8744   0.002   0.098   3.692 -0.5561 -0.3261  0.0816
 2168SOL    HW2 8745  -0.002   0.193   3.708 -3.0674 -0.5782  1.3131
 2168SOL    HW3 8746  -0.014   0.089   3.598 -0.9191  0.4501  0.0614
 2168SOL    MW4 8747  -0.001   0.109   3.682 -0.9353 -0.2569  0.2415
 2169SOL     OW 8748   4.377   1.148   3.707  0.1641  0.1109 -0.0422
 2169SOL    HW2 8749   4.391   1.151   3.802 -0.9563  0.0045  0.1316
 2169SOL    HW3 8750   4.455   1.188   3.670  0.2023  0.9934  0.9702
 2169SOL    MW4 8751   4.389   1.154   3.715  0.0210  0.2133  0.1140
 2170SOL     OW 8752   0.217   0.496   3.681 -0.0868 -0.3100 -0.0731
 2170SOL    HW2 8753   0.206   0.587   3.709 -0.8667 -0.5034  0.2767
 2170SOL    HW3 8754   0.226   0.500   3.586  0.4115  0.1745 -0.0067
 2170SOL    MW4 8755   0.217   0.508   3.672 -0.1239 -0.2717 -0.0181
 2171SOL     OW 8756   0.187   0.765   3.754 -0.3954  0.2759 -0.5915
 2171SOL    HW2 8757   0.180   0.763   3.849 -0.8560  1.5693 -0.5794
 2171SOL    HW3 8758   0.112   0.817   3.725  0.2633  0.7066 -1.5833
 2171SOL    MW4 8759   0.176   0.772   3.763 -0.3693  0.5034 -0.7207
 2172SOL     OW 8760   4.452   0.895   3.647 -0.5421  0.4897  0.1601
 2172SOL    HW2 8761   4.382   0.847   3.692 -0.3608 -0.3141 -0.4051
 2172SOL    HW3 8762   4.441   0.985   3.676 -1.1470  0.1814  0.9158
 2172SOL    MW4 8763   4.441   0.900   3.657 -0.5984  0.3430  0.1850
 2173SOL     OW 8764   2.264   4.501   4.123 -0.2686 -0.0542  0.0195
 2173SOL    HW2 8765   2.279   4.536   4.210  1.5076  0.0772 -0.3136
 2173SOL    HW3 8766   2.340   4.530   4.072 -0.5367 -1.3881 -1.1813
 2173SOL    MW4 8767   2.276   4.509   4.128 -0.0694 -0.2127 -0.1826
 2174SOL     OW 8768   0.385   1.131   3.681  0.0488 -0.0309  0.1372
 2174SOL    HW2 8769   0.368   1.139   3.775  1.3674 -0.2250  0.3933
 2174SOL    HW3 8770   0.302   1.156   3.640 -0.6862 -0.4287  1.3591
 2174SOL    MW4 8771   0.372   1.136   3.688  0.1259 -0.1091  0.3321
 2175SOL     OW 8772   1.122   4.415   4.447  0.1675 -0.0431  0.0961
 2175SOL    HW2 8773   1.099   4.326   4.424  1.7959 -0.7954  1.2599
 2175SOL    HW3 8774   1.170   4.448   4.372 -0.9164  0.0579 -0.5619
 2175SOL    MW4 8775   1.125   4.408   4.434  0.2395 -0.1297  0.1626
 2176SOL     OW 8776   0.151   1.511   3.679 -0.1646  0.3255  0.0083
 2176SOL    HW2 8777   0.095   1.575   3.636 -1.1793 -1.2196 -1.0547
 2176SOL    HW3 8778   0.136   1.524   3.773 -0.5648  1.4275 -0.2034
 2176SOL    MW4 8779   0.142   1.521   3.686 -0.3513  0.2670 -0.1597
 2177SOL     OW 8780   3.976   0.358   4.229 -0.2999  0.3892 -0.3482
 2177SOL    HW2 8781   3.991   0.369   4.135 -0.1982 -0.1755 -0.3958
 2177SOL    HW3 8782   3.885   0.327   4.235 -0.3332  0.5026 -0.2510
 2177SOL    MW4 8783   3.966   0.355   4.217 -0.2911  0.3296 -0.3414
 2178SOL     OW 8784   0.190   2.053   3.591  0.1523 -0.1708 -0.1729
 2178SOL    HW2 8785   0.190   2.132   3.645 -1.1099 -0.7297  0.6669
 2178SOL    HW3 8786   0.104   2.014   3.606  0.4851 -1.3071 -1.1698
 2178SOL    MW4 8787   0.178   2.059   3.600  0.0297 -0.3943 -0.1936
 2179SOL     OW 8788   0.680   3.336   4.139  0.1893 -0.4952  0.0396
 2179SOL    HW2 8789   0.598   3.380   4.117 -0.0405 -0.4410  0.9688
 2179SOL    HW3 8790   0.682   3.258   4.083 -0.9458 -0.9980  0.6864
 2179SOL    MW4 8791   0.669   3.332   4.129  0.0092 -0.5546  0.2480
 2180SOL     OW 8792   4.448   2.777   3.750  0.2505 -0.1173 -0.0699
 2180SOL    HW2 8793   4.378   2.792   3.686  0.3996 -0.4337 -0.3067
 2180SOL    HW3 8794   4.528   2.805   3.704  0.3275 -0.1188  0.0653
 2180SOL    MW4 8795   4.449   2.783   3.735  0.2804 -0.1595 -0.0832
 2181SOL     OW 8796   2.195   3.495   3.707  0.7277  0.2649  0.1841
 2181SOL    HW2 8797   2.191   3.490   3.803 -1.6574  2.3437  0.2333
 2181SOL    HW3 8798   2.280   3.537   3.689 -0.4854  3.4951  1.5883
 2181SOL    MW4 8799   2.206   3.500   3.718  0.2530  0.9654  0.3757
 2182SOL     OW 8800   0.193   2.836   3.611  0.0163  0.4051 -0.1667
 2182SOL    HW2 8801   0.269   2.795   3.653 -0.7507 -0.4687  0.3863
 2182SOL    HW3 8802   0.214   2.836   3.518  1.0511  0.9105  0.0672
 2182SOL    MW4 8803   0.206   2.830   3.604  0.0516  0.3567 -0.0629
 2183SOL     OW 8804   0.450   3.256   3.666  0.7434  0.1224  0.2765
 2183SOL    HW2 8805   0.373   3.200   3.674  0.0191  0.8418 -1.3970
 2183SOL    HW3 8806   0.523   3.199   3.688 -0.2773 -0.4376  2.4115
 2183SOL    MW4 8807   0.449   3.241   3.670  0.5132  0.1433  0.3374
 2184SOL     OW 8808   4.456   3.213   3.651  0.3971 -0.4565 -0.5820
 2184SOL    HW2 8809   4.455   3.209   3.556  1.1319  0.2487 -0.6159
 2184SOL    HW3 8810   4.545   3.189   3.676  0.6293  0.8116 -0.1419
 2184SOL    MW4 8811   4.467   3.209   3.642  0.5250 -0.1962 -0.5286
 2185SOL     OW 8812   4.473   3.498   3.773 -0.1146  0.1848 -0.3929
 2185SOL    HW2 8813   4.462   3.494   3.868 -0.9342  1.1781 -0.4401
 2185SOL    HW3 8814   4.481   3.406   3.746  0.6645 -0.0766  0.6876
 2185SOL    MW4 8815   4.473   3.485   3.782 -0.1202  0.2813 -0.2568
 2186SOL     OW 8816   0.202   3.640   3.649  0.7620  0.2179  0.1575
 2186SOL    HW2 8817   0.277   3.594   3.687  0.5613 -0.0736  0.2081
 2186SOL    HW3 8818   0.126   3.599   3.691  0.5942  0.7831  0.4004
 2186SOL    MW4 8819   0.202   3.628   3.660  0.7134  0.2542  0.1965
 2187SOL     OW 8820   1.553   4.213   4.347  0.5653 -0.5302  0.0194
 2187SOL    HW2 8821   1.517   4.166   4.422 -0.2112  0.0047 -0.0226
 2187SOL    HW3 8822   1.639   4.242   4.377 -0.2060  0.6681  1.0907
 2187SOL    MW4 8823   1.560   4.210   4.361  0.3612 -0.3014  0.1554
 2188SOL     OW 8824   0.211   3.899   3.762  0.0213 -0.2012  0.1640
 2188SOL    HW2 8825   0.220   3.808   3.732  0.3582 -0.0179 -0.2937
 2188SOL    HW3 8826   0.296   3.938   3.744  0.0641  0.0416  0.9166
 2188SOL    MW4 8827   0.223   3.892   3.755  0.0714 -0.1450  0.2029
 2189SOL     OW 8828   4.456   4.269   3.769  0.0631  0.0215  0.6821
 2189SOL    HW2 8829   4.466   4.178   3.742  1.4298  0.2164  0.4875
 2189SOL    HW3 8830   4.536   4.312   3.738  0.5248  0.7756  2.8238
 2189SOL    MW4 8831   4.468   4.263   3.761  0.3042  0.1464  0.9389
 2190SOL     OW 8832   3.782   2.621   4.008  0.3367  0.1250 -0.3193
 2190SOL    HW2 8833   3.872   2.654   3.998  0.3904  0.0631 -0.0529
 2190SOL    HW3 8834   3.784   2.570   4.089  0.1750 -0.2704 -0.5622
 2190SOL    MW4 8835   3.794   2.619   4.017  0.3223  0.0648 -0.3161
 2191SOL     OW 8836   0.637   4.667   3.735 -0.0433 -0.0629 -0.4271
 2191SOL    HW2 8837   0.567   4.700   3.678 -1.0055 -0.5268  0.4513
 2191SOL    HW3 8838   0.642   4.574   3.713 -0.1401 -0.1581 -0.0519
 2191SOL    MW4 8839   0.628   4.659   3.725 -0.1830 -0.1369 -0.2615
 2192SOL     OW 8840   0.428   0.129   3.620 -0.0971  0.1142 -0.4417
 2192SOL    HW2 8841   0.433   0.213   3.665 -0.2422 -0.3683  0.4825
 2192SOL    HW3 8842   0.366   0.078   3.672  1.5442 -1.2729  0.1767
 2192SOL    MW4 8843   0.421   0.134   3.633  0.1003 -0.1325 -0.2382
 2193SOL     OW 8844   0.466   0.350   3.805 -0.1181 -0.2155 -0.1591
 2193SOL    HW2 8845   0.399   0.415   3.785 -0.7477 -0.9319 -0.4237
 2193SOL    HW3 8846   0.546   0.384   3.764 -1.0040 -0.8158 -2.5064
 2193SOL    MW4 8847   0.468   0.363   3.797 -0.3181 -0.3892 -0.5038
 2194SOL     OW 8848   0.674   0.461   3.651 -0.3075  0.1960  0.0267
 2194SOL    HW2 8849   0.763   0.432   3.675 -1.2895 -0.8267  2.6167
 2194SOL    HW3 8850   0.674   0.555   3.670  0.1256  0.1265  0.3918
 2194SOL    MW4 8851   0.686   0.470   3.657 -0.3799  0.0519  0.4165
 2195SOL     OW 8852   0.646   0.729   3.734  0.0393  0.1360 -0.0327
 2195SOL    HW2 8853   0.720   0.781   3.704 -0.0831  1.2662  1.5725
 2195SOL    HW3 8854   0.571   0.763   3.685  0.1543  0.6729  0.1674
 2195SOL    MW4 8855   0.646   0.740   3.724  0.0383  0.3560  0.2055
 2196SOL     OW 8856   0.419   0.865   3.620  0.1321  0.0517  0.2813
 2196SOL    HW2 8857   0.420   0.960   3.627  1.1894 -0.0030  0.9072
 2196SOL    HW3 8858   0.352   0.837   3.682 -0.2539  0.3890  0.0216
 2196SOL    MW4 8859   0.411   0.874   3.629  0.2207  0.0890  0.3295
 2197SOL     OW 8860   0.631   1.047   4.072  0.2317  0.2326  0.3801
 2197SOL    HW2 8861   0.634   1.029   4.166 -1.5032 -1.7829  0.0812
 2197SOL    HW3 8862   0.718   1.083   4.052  2.3781 -3.8283  1.8554
 2197SOL    MW4 8863   0.643   1.049   4.082  0.2860 -0.5692  0.5355
 2198SOL     OW 8864   0.621   1.273   3.611  0.0886 -0.0044  0.0418
 2198SOL    HW2 8865   0.631   1.274   3.516 -1.2279 -0.9666 -0.1155
 2198SOL    HW3 8866   0.548   1.213   3.627  1.0232 -0.7341  1.7157
 2198SOL    MW4 8867   0.613   1.265   3.601  0.0381 -0.2278  0.2420
 2199SOL     OW 8868   0.601   1.518   3.764 -0.3216  0.4823 -0.7683
 2199SOL    HW2 8869   0.665   1.577   3.725 -0.7392  1.3725 -0.1377
 2199SOL    HW3 8870   0.607   1.438   3.713  2.2258  0.0838  0.0849
 2199SOL    MW4 8871   0.611   1.515   3.752 -0.0407  0.5472 -0.5727
 2200SOL     OW 8872   0.387   1.620   3.630 -0.2558  0.1119 -0.0447
 2200SOL    HW2 8873   0.306   1.572   3.642 -0.2782 -0.0220 -0.6916
 2200SOL    HW3 8874   0.451   1.575   3.684 -0.6364  0.2778  0.5439
 2200SOL    MW4 8875   0.385   1.608   3.639 -0.3090  0.1161 -0.0522
 2201SOL     OW 8876   0.382   1.890   3.731  0.2271  0.4717  0.1719
 2201SOL    HW2 8877   0.383   1.806   3.685  1.1042  0.6998 -0.2363
 2201SOL    HW3 8878   0.322   1.944   3.680  0.6543  0.5016 -0.2943
 2201SOL    MW4 8879   0.374   1.886   3.718  0.3992  0.5058  0.0565
 2202SOL     OW 8880   0.611   2.034   3.641  0.5777 -0.5886  0.2316
 2202SOL    HW2 8881   0.676   1.978   3.683 -1.0266 -2.4273  0.3788
 2202SOL    HW3 8882   0.529   1.986   3.652 -0.5153  0.8470 -1.4628
 2202SOL    MW4 8883   0.609   2.020   3.648  0.2218 -0.6416  0.0272
 2203SOL     OW 8884   0.616   2.308   3.709  0.3610  0.0173  0.2361
 2203SOL    HW2 8885   0.633   2.217   3.685  2.2578 -0.0655  1.7709
 2203SOL    HW3 8886   0.686   2.358   3.667  2.3805  0.1227  3.5536
 2203SOL    MW4 8887   0.627   2.303   3.700  0.8777  0.0205  0.8762
 2204SOL     OW 8888   0.392   2.435   3.607 -0.1388 -0.2189  0.0988
 2204SOL    HW2 8889   0.463   2.377   3.634  0.3134  0.0869 -0.4177
 2204SOL    HW3 8890   0.396   2.434   3.511 -0.6214  0.0519  0.0778
 2204SOL    MW4 8891   0.402   2.427   3.598 -0.1429 -0.1428  0.0281
 2205SOL     OW 8892   0.422   2.697   3.728  0.4003 -0.0397  0.2934
 2205SOL    HW2 8893   0.508   2.730   3.702 -0.5639 -0.3041 -3.4376
 2205SOL    HW3 8894   0.425   2.603   3.707 -0.0915 -0.4949  2.1577
 2205SOL    MW4 8895   0.434   2.689   3.722  0.2082 -0.1347  0.0470
 2206SOL     OW 8896   0.657   2.837   3.638  0.0415  0.3053 -0.2968
 2206SOL    HW2 8897   0.731   2.778   3.653 -0.2816 -0.1693 -0.5475
 2206SOL    HW3 8898   0.654   2.849   3.543  1.1374  2.0769 -0.1331
 2206SOL    MW4 8899   0.667   2.831   3.627  0.1434  0.4764 -0.3085
 2207SOL     OW 8900   0.886   3.203   3.641 -0.1001  0.8182 -0.3697
 2207SOL    HW2 8901   0.890   3.292   3.675 -1.7614  0.8633 -0.2681
 2207SOL    HW3 8902   0.900   3.213   3.546 -0.3642  1.1874 -0.3678
 2207SOL    MW4 8903   0.889   3.216   3.633 -0.3542  0.8729 -0.3560
 2208SOL     OW 8904   0.654   3.101   3.740  0.0976  0.0563 -0.0569
 2208SOL    HW2 8905   0.730   3.142   3.697  0.5018 -1.1926 -0.5505
 2208SOL    HW3 8906   0.665   3.008   3.724 -0.4803 -0.3080  1.6040
 2208SOL    MW4 8907   0.666   3.094   3.732  0.0747 -0.1564  0.0970
 2209SOL     OW 8908   2.760   2.151   4.604  0.3327  0.1348 -0.9126
 2209SOL    HW2 8909   2.834   2.175   4.659 -1.0263  0.1876  0.9430
 2209SOL    HW3 8910   2.781   2.187   4.518  2.1228  0.7506 -0.2351
 2209SOL    MW4 8911   2.773   2.159   4.600  0.3893  0.2229 -0.5789
 2210SOL     OW 8912   0.438   3.516   3.746 -0.2099 -0.5680  0.0074
 2210SOL    HW2 8913   0.522   3.545   3.712 -0.8180 -0.0526 -1.0616
 2210SOL    HW3 8914   0.432   3.424   3.721 -0.6285 -0.2068 -1.2456
 2210SOL    MW4 8915   0.448   3.508   3.738 -0.3453 -0.4523 -0.2990
 2211SOL     OW 8916   0.898   4.008   3.628  0.1561  0.0628  0.2315
 2211SOL    HW2 8917   0.926   4.024   3.538 -0.8187 -0.5560 -0.1861
 2211SOL    HW3 8918   0.973   3.966   3.670  0.2636 -0.5280 -0.5571
 2211SOL    MW4 8919   0.912   4.004   3.622  0.0417 -0.0973  0.0720
 2212SOL     OW 8920   0.459   4.022   3.671 -0.3722  0.2141  0.3687
 2212SOL    HW2 8921   0.531   3.965   3.696  0.3759  1.2724  0.6527
 2212SOL    HW3 8922   0.462   4.024   3.575 -0.5705 -0.4291  0.3468
 2212SOL    MW4 8923   0.469   4.015   3.662 -0.2997  0.2685  0.4032
 2213SOL     OW 8924   0.197   4.401   3.669 -0.1080  0.6714 -0.0073
 2213SOL    HW2 8925   0.211   4.485   3.714  2.2811  0.4041 -0.1977
 2213SOL    HW3 8926   0.271   4.347   3.697 -0.6457 -0.7565 -1.3310
 2213SOL    MW4 8927   0.209   4.405   3.679  0.1363  0.4478 -0.2074
 2214SOL     OW 8928   0.681   4.406   3.634 -0.4868 -0.0478  0.1420
 2214SOL    HW2 8929   0.759   4.364   3.671 -0.2651 -0.9070 -1.2420
 2214SOL    HW3 8930   0.702   4.417   3.541 -1.7906  0.2481 -0.1275
 2214SOL    MW4 8931   0.694   4.402   3.627 -0.6296 -0.1221 -0.0761
 2215SOL     OW 8932   3.341   0.684   3.973  0.1168  0.0934  0.1147
 2215SOL    HW2 8933   3.373   0.596   3.993  0.6017  0.2037 -0.1610
 2215SOL    HW3 8934   3.387   0.741   4.036  0.4774  0.2526 -0.2833
 2215SOL    MW4 8935   3.351   0.680   3.984  0.2282  0.1289  0.0260
 2216SOL     OW 8936   0.869   0.140   3.667  0.2712  0.1857  0.3094
 2216SOL    HW2 8937   0.939   0.081   3.697  0.0669  0.2285  0.8724
 2216SOL    HW3 8938   0.789   0.089   3.679  0.2187  0.0805 -0.4813
 2216SOL    MW4 8939   0.868   0.126   3.673  0.2373  0.1775  0.2794
 2217SOL     OW 8940   0.937   0.369   3.791 -0.0646 -0.3453 -0.2426
 2217SOL    HW2 8941   0.897   0.366   3.878 -2.2825 -1.3793 -1.2639
 2217SOL    HW3 8942   0.931   0.279   3.759  2.4099 -0.3414 -0.7532
 2217SOL    MW4 8943   0.931   0.357   3.799 -0.0308 -0.4812 -0.4447
 2218SOL     OW 8944   1.137   0.502   3.637 -0.1391 -0.2756 -0.5477
 2218SOL    HW2 8945   1.209   0.449   3.671  0.5428  0.6780 -0.4871
 2218SOL    HW3 8946   1.059   0.465   3.677  0.3992 -0.8007  0.0277
 2218SOL    MW4 8947   1.136   0.490   3.647  0.0219 -0.2190 -0.4637
 2219SOL     OW 8948   1.095   0.787   3.724  0.2683  0.2529  0.3228
 2219SOL    HW2 8949   1.087   0.806   3.817 -1.1753  0.0469  0.2468
 2219SOL    HW3 8950   1.100   0.692   3.718  1.3407  0.3069  0.2536
 2219SOL    MW4 8951   1.094   0.777   3.735  0.2193  0.2329  0.3037
 2220SOL     OW 8952   0.859   0.874   3.625 -0.2698 -0.0486  0.0557
 2220SOL    HW2 8953   0.879   0.882   3.531  0.9452  0.4125  0.3573
 2220SOL    HW3 8954   0.941   0.848   3.665 -0.5423  0.7341  1.1385
 2220SOL    MW4 8955   0.872   0.872   3.618 -0.1456  0.1155  0.2387
 2221SOL     OW 8956   0.864   1.142   3.740  0.4121 -0.0215  0.2789
 2221SOL    HW2 8957   0.789   1.184   3.699 -0.0624 -0.3721  0.7854
 2221SOL    HW3 8958   0.865   1.054   3.703 -0.2823 -0.4824  1.3524
 2221SOL    MW4 8959   0.854   1.136   3.730  0.2578 -0.1285  0.4873
 2222SOL     OW 8960   1.075   1.281   3.603  0.0799  0.4110  0.4313
 2222SOL    HW2 8961   0.999   1.239   3.643  0.5799 -0.7627  0.1484
 2222SOL    HW3 8962   1.146   1.267   3.666  0.3636  0.4268  0.1161
 2222SOL    MW4 8963   1.075   1.274   3.617  0.1832  0.2583  0.3521
 2223SOL     OW 8964   0.694   2.072   4.467  0.3743 -0.1231 -0.0608
 2223SOL    HW2 8965   0.719   1.986   4.432  1.0144 -0.3403  0.9093
 2223SOL    HW3 8966   0.762   2.093   4.531  0.2862  1.1759 -0.3837
 2223SOL    MW4 8967   0.706   2.063   4.471  0.4472  0.0196  0.0238
 2224SOL     OW 8968   0.797   1.641   3.646  1.0041 -0.1666 -0.4438
 2224SOL    HW2 8969   0.784   1.639   3.551  0.1782 -1.4721 -0.3117
 2224SOL    HW3 8970   0.874   1.586   3.661  1.1136  0.0114 -0.3436
 2224SOL    MW4 8971   0.805   1.634   3.635  0.9096 -0.3154 -0.4132
 2225SOL     OW 8972   0.856   1.900   3.727 -0.2489  0.0671  0.4570
 2225SOL    HW2 8973   0.837   1.812   3.696  2.0399 -0.5185  0.6122
 2225SOL    HW3 8974   0.894   1.888   3.814  0.1487  1.1993  0.4524
 2225SOL    MW4 8975   0.859   1.887   3.734  0.1054  0.1392  0.4766
 2226SOL     OW 8976   1.029   2.056   3.586  0.0193 -0.0669  0.2043
 2226SOL    HW2 8977   0.967   1.987   3.608  1.6040 -1.7910 -0.6191
 2226SOL    HW3 8978   1.048   2.043   3.493 -0.2996  1.9979 -0.1725
 2226SOL    MW4 8979   1.024   2.045   3.577  0.1863 -0.0219  0.0460
 2227SOL     OW 8980   1.089   2.309   3.698  0.3266 -0.4658  0.0890
 2227SOL    HW2 8981   1.055   2.222   3.676  0.1326 -0.3602 -0.0300
 2227SOL    HW3 8982   1.096   2.308   3.794 -0.5830 -0.2791  0.1584
 2227SOL    MW4 8983   1.085   2.297   3.708  0.1810 -0.4272  0.0825
 2228SOL     OW 8984   0.845   2.413   3.615  0.4161  0.5083 -0.2103
 2228SOL    HW2 8985   0.861   2.506   3.628  0.4930  0.6757 -1.4197
 2228SOL    HW3 8986   0.925   2.370   3.648  0.3270  0.8495  0.4644
 2228SOL    MW4 8987   0.858   2.420   3.621  0.4146  0.5755 -0.2809
 2229SOL     OW 8988   0.895   2.686   3.692 -0.0655 -0.2157  0.4215
 2229SOL    HW2 8989   0.898   2.680   3.787  0.4793 -1.3533  0.3450
 2229SOL    HW3 8990   0.982   2.715   3.666  0.1719 -1.1151  0.1973
 2229SOL    MW4 8991   0.906   2.689   3.701  0.0376 -0.4847  0.3819
 2230SOL     OW 8992   1.132   2.817   3.643 -0.0483 -0.2169  0.4787
 2230SOL    HW2 8993   1.217   2.791   3.678  0.6051  0.8715 -0.2652
 2230SOL    HW3 8994   1.128   2.911   3.659 -1.1063 -0.2519  0.4652
 2230SOL    MW4 8995   1.142   2.826   3.650 -0.1017 -0.0777  0.3791
 2231SOL     OW 8996   1.364   3.251   3.604  0.2907  0.1180  0.2155
 2231SOL    HW2 8997   1.351   3.318   3.671 -0.3142  0.9823 -0.7619
 2231SOL    HW3 8998   1.433   3.195   3.640 -0.3056  0.3340  1.7347
 2231SOL    MW4 8999   1.372   3.253   3.618  0.1322  0.2608  0.2871
 2232SOL     OW 9000   1.150   3.090   3.706 -0.2465 -0.2363 -0.1075
 2232SOL    HW2 9001   1.222   3.129   3.656 -0.7813 -0.0717 -0.7601
 2232SOL    HW3 9002   1.077   3.151   3.695 -1.3746 -1.8308 -1.9020
 2232SOL    MW4 9003   1.150   3.103   3.698 -0.4659 -0.4246 -0.4303
 2233SOL     OW 9004   0.683   3.593   3.634  0.4457 -0.4293  0.0828
 2233SOL    HW2 9005   0.693   3.687   3.651 -2.0457 -0.1670  0.1731
 2233SOL    HW3 9006   0.687   3.586   3.538 -3.3018  0.2877 -0.1726
 2233SOL    MW4 9007   0.685   3.604   3.623 -0.3774 -0.2997  0.0610
 2234SOL     OW 9008   1.140   3.592   3.647 -0.3987 -0.0430  0.2005
 2234SOL    HW2 9009   1.210   3.553   3.699 -0.0131  1.1527  0.6011
 2234SOL    HW3 9010   1.063   3.538   3.665 -0.2948  0.3993  2.0975
 2234SOL    MW4 9011   1.139   3.580   3.656 -0.3341  0.1731  0.5033
 2235SOL     OW 9012   1.106   3.856   3.739  0.2829 -0.1714 -0.4019
 2235SOL    HW2 9013   1.091   3.775   3.691  0.6895 -0.2457 -0.4044
 2235SOL    HW3 9014   1.184   3.894   3.699 -0.0363  0.3299 -0.5452
 2235SOL    MW4 9015   1.115   3.851   3.728  0.2944 -0.1152 -0.4213
 2236SOL     OW 9016   3.354   3.610   3.641 -0.0660 -0.1390 -0.1940
 2236SOL    HW2 9017   3.434   3.562   3.660 -0.2320 -0.1234  0.5507
 2236SOL    HW3 9018   3.368   3.696   3.681 -0.3339 -0.0427 -0.3093
 2236SOL    MW4 9019   3.366   3.615   3.649 -0.1233 -0.1242 -0.1109
 2237SOL     OW 9020   0.896   4.244   3.769 -0.2622  0.1441 -0.1764
 2237SOL    HW2 9021   0.879   4.162   3.724 -1.1723  0.2914 -0.0949
 2237SOL    HW3 9022   0.987   4.266   3.744  0.0230 -0.9319 -0.0972
 2237SOL    MW4 9023   0.906   4.236   3.760 -0.3448  0.0215 -0.1552
 2238SOL     OW 9024   1.970   0.219   4.431 -0.3293 -0.1780 -0.2169
 2238SOL    HW2 9025   1.884   0.198   4.395 -0.6824  0.4489  0.2464
 2238SOL    HW3 9026   1.951   0.274   4.507  0.4498 -0.6654  0.3270
 2238SOL    MW4 9027   1.956   0.224   4.436 -0.2731 -0.1596 -0.0839
 2239SOL     OW 9028   1.321   0.053   3.715 -0.5663 -0.5868  0.2376
 2239SOL    HW2 9029   1.321   0.145   3.742 -1.5454 -0.5090 -0.0035
 2239SOL    HW3 9030   1.242   0.017   3.754  0.5168 -1.6676  1.4369
 2239SOL    MW4 9031   1.311   0.061   3.723 -0.5527 -0.7191  0.3638
 2240SOL     OW 9032   1.590   4.633   3.775  0.2306 -0.1136  0.0665
 2240SOL    HW2 9033   1.507   4.673   3.750  0.5834  2.2680  2.4322
 2240SOL    HW3 9034   1.594   4.551   3.725 -3.3589 -0.1052 -0.3321
 2240SOL    MW4 9035   1.580   4.627   3.765 -0.1965  0.2022  0.3259
 2241SOL     OW 9036   1.338   0.344   3.764  0.0307 -0.1788 -0.4474
 2241SOL    HW2 9037   1.357   0.342   3.858  0.8768  1.2344 -0.5748
 2241SOL    HW3 9038   1.418   0.378   3.724 -0.4592 -0.4099 -1.6492
 2241SOL    MW4 9039   1.351   0.348   3.771  0.0777 -0.0228 -0.6230
 2242SOL     OW 9040   1.021   2.330   4.504  0.0578 -0.7715  0.2637
 2242SOL    HW2 9041   1.090   2.271   4.475 -0.0855 -0.3524 -0.9814
 2242SOL    HW3 9042   1.054   2.418   4.482 -0.3553 -0.4902  0.7527
 2242SOL    MW4 9043   1.034   2.334   4.497 -0.0157 -0.6790  0.1640
 2243SOL     OW 9044   1.552   0.470   3.651 -0.0140 -0.2618  0.1372
 2243SOL    HW2 9045   1.633   0.444   3.695  1.6256  0.5953 -2.2848
 2243SOL    HW3 9046   1.547   0.564   3.663 -1.0956 -0.4106  0.9455
 2243SOL    MW4 9047   1.562   0.479   3.658  0.0596 -0.1683 -0.0758
 2244SOL     OW 9048   1.324   0.945   3.657  0.5595  0.1435  0.0896
 2244SOL    HW2 9049   1.309   1.033   3.692  0.3226  0.1837 -0.1051
 2244SOL    HW3 9050   1.246   0.896   3.683  0.1813  0.2936 -0.7537
 2244SOL    MW4 9051   1.312   0.950   3.665  0.4783  0.1685 -0.0474
 2245SOL     OW 9052   2.455   1.290   3.644 -0.1733  0.4750  0.4330
 2245SOL    HW2 9053   2.374   1.247   3.670 -0.1831  0.4427  0.3503
 2245SOL    HW3 9054   2.449   1.378   3.680 -0.2676  0.4886  0.3826
 2245SOL    MW4 9055   2.444   1.296   3.652 -0.1872  0.4725  0.4153
 2246SOL     OW 9056   1.526   1.289   3.672  0.1017  0.2533  0.0536
 2246SOL    HW2 9057   1.593   1.232   3.710  0.3303  0.0148 -0.6956
 2246SOL    HW3 9058   1.526   1.367   3.728  0.1709 -0.2454  0.7595
 2246SOL    MW4 9059   1.534   1.292   3.685  0.1410  0.1559  0.0479
 2247SOL     OW 9060   1.737   1.655   3.656 -0.0881  0.5280  0.0283
 2247SOL    HW2 9061   1.738   1.742   3.696 -1.4378  0.0763  1.0999
 2247SOL    HW3 9062   1.768   1.669   3.566  1.3445  1.8278  0.6971
 2247SOL    MW4 9063   1.741   1.668   3.649 -0.0769  0.6399  0.2582
 2248SOL     OW 9064   1.290   1.650   3.606  0.3813 -0.1028  0.3320
 2248SOL    HW2 9065   1.281   1.740   3.637  0.5266 -0.0669  0.2721
 2248SOL    HW3 9066   1.352   1.610   3.667  0.4859 -0.0991  0.2292
 2248SOL    MW4 9067   1.297   1.656   3.618  0.4144 -0.0975  0.3104
 2249SOL     OW 9068   1.775   0.391   3.781 -0.0599  0.3022 -0.4388
 2249SOL    HW2 9069   1.762   0.398   3.876  0.3739 -0.9446 -0.2746
 2249SOL    HW3 9070   1.759   0.299   3.761 -0.8559  0.6999 -1.6986
 2249SOL    MW4 9071   1.771   0.380   3.791 -0.1076  0.1901 -0.5834
 2250SOL     OW 9072   1.513   2.065   3.635 -0.4840 -0.3520 -0.0743
 2250SOL    HW2 9073   1.423   2.038   3.653 -1.6040  2.9699 -0.3943
 2250SOL    HW3 9074   1.518   2.069   3.540 -0.3944  0.7191 -0.0274
 2250SOL    MW4 9075   1.502   2.062   3.625 -0.6200  0.2277 -0.1104
 2251SOL     OW 9076   1.572   2.308   3.774 -0.2554 -0.0777 -0.6567
 2251SOL    HW2 9077   1.615   2.349   3.698 -2.0376  0.9075 -1.1732
 2251SOL    HW3 9078   1.532   2.229   3.738 -2.1874  1.0495 -1.0594
 2251SOL    MW4 9079   1.572   2.303   3.759 -0.7455  0.2012 -0.7780
 2252SOL     OW 9080   1.349   2.433   3.668 -0.3532 -0.0887 -0.1955
 2252SOL    HW2 9081   1.411   2.400   3.733  0.4934  0.1879 -0.8481
 2252SOL    HW3 9082   1.267   2.386   3.686  0.3235 -1.1880  0.0283
 2252SOL    MW4 9083   1.346   2.423   3.679 -0.1522 -0.1969 -0.2520
 2253SOL     OW 9084   1.370   2.703   3.719  0.7472 -0.3326  0.1835
 2253SOL    HW2 9085   1.337   2.693   3.808 -0.5574 -0.0790 -0.2633
 2253SOL    HW3 9086   1.356   2.618   3.678 -0.2094  0.0504 -0.2889
 2253SOL    MW4 9087   1.364   2.691   3.726  0.4488 -0.2489  0.0622
 2254SOL     OW 9088   1.588   2.829   3.607  0.1180 -0.2288  0.3206
 2254SOL    HW2 9089   1.505   2.785   3.624 -0.3090  0.0243 -1.0564
 2254SOL    HW3 9090   1.610   2.807   3.516  0.8788  0.7823  0.2365
 2254SOL    MW4 9091   1.580   2.821   3.597  0.1621 -0.0620  0.1278
 2255SOL     OW 9092   1.573   3.079   3.696  0.8694 -0.3538  0.4052
 2255SOL    HW2 9093   1.585   3.071   3.791  0.5534 -2.3007  0.3063
 2255SOL    HW3 9094   1.574   2.989   3.664  0.4195  0.2519 -1.3846
 2255SOL    MW4 9095   1.574   3.066   3.704  0.7684 -0.5307  0.1557
 2256SOL     OW 9096   1.339   3.454   3.798 -0.1798  0.3563 -0.2191
 2256SOL    HW2 9097   1.387   3.525   3.756 -0.6063  1.6051  1.3728
 2256SOL    HW3 9098   1.341   3.475   3.891 -0.7017 -1.4873  0.2260
 2256SOL    MW4 9099   1.345   3.466   3.805 -0.3049  0.2782  0.0496
 2257SOL     OW 9100   2.507   3.855   3.995  0.1774  0.0522 -0.1505
 2257SOL    HW2 9101   2.460   3.932   4.025  0.6060  0.1462  0.2805
 2257SOL    HW3 9102   2.563   3.830   4.069 -1.9190 -2.2496  0.7413
 2257SOL    MW4 9103   2.508   3.862   4.009 -0.0427 -0.2391  0.0243
 2258SOL     OW 9104   1.529   3.597   3.643 -0.3713 -0.2838  0.1851
 2258SOL    HW2 9105   1.600   3.543   3.678  0.8218  1.0671 -0.1290
 2258SOL    HW3 9106   1.538   3.681   3.687 -1.0407  0.2904 -0.7588
 2258SOL    MW4 9107   1.539   3.601   3.653 -0.3022 -0.0298  0.0191
 2259SOL     OW 9108   1.567   3.836   3.773 -0.5353 -0.2834 -0.3705
 2259SOL    HW2 9109   1.547   3.822   3.866 -0.4807 -0.9531 -0.4591
 2259SOL    HW3 9110   1.487   3.873   3.736 -0.7273 -0.4979 -0.1670
 2259SOL    MW4 9111   1.554   3.839   3.780 -0.5535 -0.4003 -0.3552
 2260SOL     OW 9112   1.355   3.955   3.647 -0.1259 -0.4558  0.1938
 2260SOL    HW2 9113   1.352   3.960   3.552  0.9543  0.0363  0.1843
 2260SOL    HW3 9114   1.352   4.046   3.677 -1.5825 -0.6461  0.6734
 2260SOL    MW4 9115   1.354   3.967   3.639 -0.1756 -0.4158  0.2556
 2261SOL     OW 9116   3.824   1.293   3.620 -0.1771 -0.0456 -0.1391
 2261SOL    HW2 9117   3.833   1.383   3.648 -1.4513 -0.2575  0.9876
 2261SOL    HW3 9118   3.864   1.241   3.689 -0.9817 -0.4292  0.0483
 2261SOL    MW4 9119   3.830   1.298   3.633 -0.4513 -0.1242  0.0341
 2262SOL     OW 9120   1.063   4.615   3.765 -0.0651 -0.3891 -0.1425
 2262SOL    HW2 9121   1.089   4.527   3.739  2.6731  0.2836  0.2053
 2262SOL    HW3 9122   1.048   4.609   3.859  0.8433 -0.3130  0.0058
 2262SOL    MW4 9123   1.064   4.603   3.774  0.4159 -0.2909 -0.0768
 2263SOL     OW 9124   2.259   0.098   3.654 -0.1188  0.2077  0.1863
 2263SOL    HW2 9125   2.252   0.106   3.558  0.5280  0.0447  0.1217
 2263SOL    HW3 9126   2.180   0.050   3.680 -1.5203  2.3215  0.0128
 2263SOL    MW4 9127   2.247   0.093   3.644 -0.2182  0.4651  0.1547
 2264SOL     OW 9128   1.818   0.119   3.683  0.1970 -0.6060 -0.0205
 2264SOL    HW2 9129   1.896   0.069   3.709  0.4615  0.8602  2.1773
 2264SOL    HW3 9130   1.745   0.068   3.718  0.4559  0.3513  2.0089
 2264SOL    MW4 9131   1.819   0.106   3.691  0.2662 -0.2863  0.5372
 2265SOL     OW 9132   2.003   3.341   4.329 -0.1567  0.0964 -0.3887
 2265SOL    HW2 9133   1.949   3.414   4.357  1.5871  1.5871 -0.7772
 2265SOL    HW3 9134   1.993   3.275   4.398 -0.4041  1.4010  0.8488
 2265SOL    MW4 9135   1.995   3.342   4.342  0.0408  0.4654 -0.2766
 2266SOL     OW 9136   3.916   0.437   4.503  0.1975  0.4345  0.3072
 2266SOL    HW2 9137   3.936   0.417   4.412  0.1457  1.1969  0.1177
 2266SOL    HW3 9138   4.001   0.435   4.547  0.0203 -1.5534  0.5779
 2266SOL    MW4 9139   3.930   0.434   4.497  0.1674  0.2728  0.3176
 2267SOL     OW 9140   2.231   0.357   3.801  0.5249  0.6574  0.2453
 2267SOL    HW2 9141   2.318   0.395   3.791  0.6703  0.5472  1.0155
 2267SOL    HW3 9142   2.239   0.268   3.766  0.8333  0.5055  0.6976
 2267SOL    MW4 9143   2.243   0.350   3.795  0.5846  0.6228  0.4065
 2268SOL     OW 9144   1.565   2.278   4.210  0.4049 -0.9568  0.2719
 2268SOL    HW2 9145   1.622   2.268   4.133  0.5841  0.5761  0.1825
 2268SOL    HW3 9146   1.498   2.211   4.199  0.0363 -0.3111 -1.5928
 2268SOL    MW4 9147   1.564   2.268   4.198  0.3798 -0.6695  0.0138
 2269SOL     OW 9148   1.279   1.218   3.783 -0.6203 -0.0095  0.0635
 2269SOL    HW2 9149   1.364   1.237   3.743 -0.6813 -1.9012 -0.9879
 2269SOL    HW3 9150   1.300   1.201   3.875  0.2227 -1.0476 -0.3081
 2269SOL    MW4 9151   1.293   1.219   3.790 -0.5172 -0.3960 -0.1242
 2270SOL     OW 9152   4.467   4.499   4.120  0.0379 -0.4667  0.6683
 2270SOL    HW2 9153   4.554   4.538   4.107  0.1308 -0.7125  0.5542
 2270SOL    HW3 9154   4.456   4.496   4.215  0.8240 -1.9188  0.7302
 2270SOL    MW4 9155   4.477   4.504   4.131  0.1545 -0.6909  0.6614
 2271SOL     OW 9156   0.730   1.199   4.365 -0.5913 -0.1869  0.3799
 2271SOL    HW2 9157   0.810   1.213   4.415 -0.1621 -0.5961 -0.1952
 2271SOL    HW3 9158   0.682   1.282   4.372 -0.5742 -0.2722  1.5418
 2271SOL    MW4 9159   0.734   1.212   4.373 -0.5324 -0.2522  0.4573
 2272SOL     OW 9160   1.501   0.167   4.143 -0.0058 -0.3081 -0.1847
 2272SOL    HW2 9161   1.464   0.138   4.226  0.3480 -1.4897 -0.4287
 2272SOL    HW3 9162   1.498   0.089   4.087  2.3220 -0.3089 -0.3820
 2272SOL    MW4 9163   1.496   0.153   4.146  0.3481 -0.4641 -0.2432
 2273SOL     OW 9164   1.846   3.572   4.394  0.7056  0.3851 -0.0835
 2273SOL    HW2 9165   1.908   3.622   4.446  0.2501  0.9265 -0.0506
 2273SOL    HW3 9166   1.837   3.621   4.312 -1.3935  1.5763  0.8051
 2273SOL    MW4 9167   1.853   3.585   4.390  0.3686  0.6139  0.0377
 2274SOL     OW 9168   1.741   1.911   3.757 -0.6520 -0.1096  0.4016
 2274SOL    HW2 9169   1.677   1.973   3.722 -0.7963 -0.8260 -0.6204
 2274SOL    HW3 9170   1.822   1.931   3.710 -0.8286 -1.0297 -0.3038
 2274SOL    MW4 9171   1.743   1.922   3.747 -0.6944 -0.3254  0.1738
 2275SOL     OW 9172   3.860   2.104   3.873  0.1340  0.0349 -0.2909
 2275SOL    HW2 9173   3.805   2.167   3.826  0.5113  0.1939 -0.5245
 2275SOL    HW3 9174   3.869   2.140   3.961 -1.1431 -0.6089  0.1196
 2275SOL    MW4 9175   3.854   2.117   3.878  0.0153 -0.0291 -0.2673
 2276SOL     OW 9176   1.973   2.789   3.614 -1.0731 -0.2608 -0.2073
 2276SOL    HW2 9177   2.058   2.760   3.649 -1.0377 -0.4924 -0.4818
 2276SOL    HW3 9178   1.959   2.875   3.653  0.7739  1.1858 -2.5795
 2276SOL    MW4 9179   1.983   2.796   3.623 -0.8249 -0.1001 -0.5565
 2277SOL     OW 9180   0.875   4.270   4.043 -0.5415  0.6953  0.2888
 2277SOL    HW2 9181   0.878   4.265   3.947 -1.1839  0.7316  0.2645
 2277SOL    HW3 9182   0.956   4.228   4.072 -2.2007 -2.8986 -0.1312
 2277SOL    MW4 9183   0.886   4.264   4.034 -0.8451  0.2260  0.2298
 2278SOL     OW 9184   1.974   3.062   3.672  0.0951  0.0922  0.0942
 2278SOL    HW2 9185   2.054   3.114   3.683 -0.3789  0.4411  2.0477
 2278SOL    HW3 9186   1.911   3.124   3.636  0.3518  0.1196 -0.3192
 2278SOL    MW4 9187   1.977   3.077   3.669  0.0663  0.1419  0.2975
 2279SOL     OW 9188   1.984   3.063   3.946  0.2056  0.0185 -0.1888
 2279SOL    HW2 9189   2.071   3.025   3.961  1.1048  1.1289 -2.4110
 2279SOL    HW3 9190   1.969   3.052   3.852 -1.1887  1.6607 -0.1764
 2279SOL    MW4 9191   1.993   3.056   3.935  0.1403  0.3815 -0.4804
 2280SOL     OW 9192   1.774   3.230   3.600 -0.4303 -0.0058 -0.1657
 2280SOL    HW2 9193   1.704   3.184   3.646  1.8384 -1.4469  1.9903
 2280SOL    HW3 9194   1.777   3.316   3.641 -1.8055  0.5501 -1.2036
 2280SOL    MW4 9195   1.765   3.235   3.611 -0.3123 -0.1225 -0.0181
 2281SOL     OW 9196   1.759   2.628   4.017 -0.3225 -0.2836 -0.2383
 2281SOL    HW2 9197   1.730   2.613   3.927 -2.7858  1.7456  0.1373
 2281SOL    HW3 9198   1.775   2.722   4.022  1.9780 -0.7071  0.8650
 2281SOL    MW4 9199   1.757   2.639   4.006 -0.3439 -0.0715 -0.0434
 2282SOL     OW 9200   1.960   3.611   3.597  0.0681 -0.3569  0.0103
 2282SOL    HW2 9201   2.044   3.579   3.629  0.0969  0.5222  0.8145
 2282SOL    HW3 9202   1.967   3.605   3.502  1.5442  0.9792  0.0163
 2282SOL    MW4 9203   1.972   3.606   3.589  0.2666 -0.0646  0.1171
 2283SOL     OW 9204   1.994   3.861   3.733  0.0711 -0.0154  0.2341
 2283SOL    HW2 9205   2.068   3.904   3.689 -0.0064 -0.8910 -0.7629
 2283SOL    HW3 9206   1.987   3.776   3.690 -2.6337  0.7330 -0.9111
 2283SOL    MW4 9207   2.003   3.856   3.721 -0.2961 -0.0319 -0.0486
 2284SOL     OW 9208   1.775   3.976   3.630 -0.8417 -0.3569  0.2903
 2284SOL    HW2 9209   1.854   3.935   3.666 -0.7815 -0.3932  0.1170
 2284SOL    HW3 9210   1.702   3.931   3.673 -0.8109 -1.7270 -1.0524
 2284SOL    MW4 9211   1.776   3.965   3.640 -0.8298 -0.5424  0.0904
 2285SOL     OW 9212   2.028   4.384   3.647 -0.1041  0.0973 -0.1046
 2285SOL    HW2 9213   2.102   4.332   3.678  0.2744  0.4172 -0.4627
 2285SOL    HW3 9214   2.026   4.370   3.553 -1.0371 -0.5988  0.0103
 2285SOL    MW4 9215   2.037   4.375   3.639 -0.1771  0.0477 -0.1369
 2286SOL     OW 9216   2.031   4.632   3.760 -0.2503  0.1027 -0.2874
 2286SOL    HW2 9217   2.021   4.627   3.855  0.3331 -1.0222 -0.2804
 2286SOL    HW3 9218   2.042   4.541   3.732 -0.1454  0.4492 -1.4012
 2286SOL    MW4 9219   2.031   4.619   3.769 -0.1595  0.0000 -0.4332
 2287SOL     OW 9220   1.375   1.371   4.379 -0.2791  0.0513 -0.0476
 2287SOL    HW2 9221   1.332   1.399   4.297 -0.6113 -2.6593 -0.8596
 2287SOL    HW3 9222   1.468   1.378   4.361 -0.3537  0.9692 -0.1006
 2287SOL    MW4 9223   1.381   1.376   4.366 -0.3328 -0.1853 -0.1616
 2288SOL     OW 9224   2.497   4.641   3.735  0.0651  0.2691  0.2332
 2288SOL    HW2 9225   2.415   4.679   3.705  0.3598  0.8739  0.1847
 2288SOL    HW3 9226   2.565   4.692   3.690  0.4766  0.0851  0.6388
 2288SOL    MW4 9227   2.495   4.652   3.725  0.1583  0.3247  0.2804
 2289SOL     OW 9228   2.215   2.450   3.556 -0.0339 -0.1075 -0.4162
 2289SOL    HW2 9229   2.298   2.420   3.593 -0.3306 -1.1444 -0.5900
 2289SOL    HW3 9230   2.148   2.396   3.599 -0.4706 -0.5644 -1.6535
 2289SOL    MW4 9231   2.217   2.439   3.567 -0.1309 -0.3045 -0.6022
 2290SOL     OW 9232   1.633   3.450   4.533 -0.1029  0.4032 -0.6222
 2290SOL    HW2 9233   1.625   3.366   4.488 -1.1820  0.3183 -0.2898
 2290SOL    HW3 9234   1.694   3.501   4.479 -0.5769 -0.0694 -1.6153
 2290SOL    MW4 9235   1.640   3.446   4.520 -0.3077  0.3297 -0.7095
 2291SOL     OW 9236   2.224   1.177   3.719 -0.3937 -0.1588 -0.0618
 2291SOL    HW2 9237   2.224   1.087   3.688  2.3176  0.1228 -1.0633
 2291SOL    HW3 9238   2.259   1.172   3.808  0.5830 -0.0373 -0.4279
 2291SOL    MW4 9239   2.229   1.165   3.726  0.0930 -0.1056 -0.2422
 2292SOL     OW 9240   1.759   0.875   3.616 -0.4176 -0.3276  0.2863
 2292SOL    HW2 9241   1.838   0.829   3.643 -1.5258 -1.5529  1.5190
 2292SOL    HW3 9242   1.774   0.897   3.524  1.1797 -0.9120  0.4033
 2292SOL    MW4 9243   1.771   0.872   3.607 -0.3531 -0.5664  0.4642
 2293SOL     OW 9244   2.595   4.227   4.442 -0.0820  0.0307 -0.3046
 2293SOL    HW2 9245   2.517   4.254   4.491 -0.3114 -1.4507  0.1766
 2293SOL    HW3 9246   2.566   4.152   4.390  1.0618 -0.6524  0.0260
 2293SOL    MW4 9247   2.581   4.221   4.442  0.0386 -0.2551 -0.1979
 2294SOL     OW 9248   2.488   1.273   3.369  0.0509  0.1593 -0.1733
 2294SOL    HW2 9249   2.406   1.234   3.341 -0.3321  1.3133 -0.6923
 2294SOL    HW3 9250   2.491   1.259   3.464 -0.4662 -0.3948 -0.2397
 2294SOL    MW4 9251   2.478   1.266   3.378 -0.0679  0.2385 -0.2508
 2295SOL     OW 9252   2.311   3.794   4.718 -0.1528 -0.0163  0.4630
 2295SOL    HW2 9253   2.239   3.732   4.709  0.6560 -0.9469  0.4048
 2295SOL    HW3 9254   2.294   3.838   4.802 -1.6089  0.8493 -0.2626
 2295SOL    MW4 9255   2.299   3.792   4.728 -0.2384 -0.0248  0.3595
 2296SOL     OW 9256   2.090   0.993   4.102 -0.2327  0.4276  0.2732
 2296SOL    HW2 9257   1.997   0.996   4.079  0.3274 -1.2807 -2.3053
 2296SOL    HW3 9258   2.113   0.901   4.100  1.8312  0.9266 -0.4013
 2296SOL    MW4 9259   2.081   0.981   4.099  0.1135  0.2680 -0.1564
 2297SOL     OW 9260   2.244   1.465   4.547 -0.4016  0.0303  0.2047
 2297SOL    HW2 9261   2.279   1.535   4.603 -0.2107 -0.3661  0.5794
 2297SOL    HW3 9262   2.153   1.457   4.574 -0.7427  0.9206 -0.6293
 2297SOL    MW4 9263   2.237   1.473   4.558 -0.4213  0.0954  0.1445
 2298SOL     OW 9264   4.039   2.124   4.601 -0.6685  0.4684  0.1485
 2298SOL    HW2 9265   4.005   2.034   4.601 -0.8496  0.5370  0.4455
 2298SOL    HW3 9266   3.966   2.177   4.569 -1.3064  0.7909  2.1189
 2298SOL    MW4 9267   4.025   2.119   4.596 -0.7768  0.5200  0.4478
 2299SOL     OW 9268   4.433   1.108   3.982 -0.0952 -0.0719  0.1631
 2299SOL    HW2 9269   4.434   1.203   3.992 -1.4273  0.0475 -0.7075
 2299SOL    HW3 9270   4.342   1.083   3.998 -0.1222 -0.9948 -1.3268
 2299SOL    MW4 9271   4.421   1.117   3.986 -0.2742 -0.1779 -0.1481
 2300SOL     OW 9272   2.131   2.262   4.339 -0.2787  0.2517  0.5564
 2300SOL    HW2 9273   2.127   2.198   4.411  0.6387  0.1111  0.4884
 2300SOL    HW3 9274   2.220   2.296   4.343 -0.1540  0.0838 -0.6520
 2300SOL    MW4 9275   2.143   2.258   4.349 -0.1414  0.2110  0.3881
 2301SOL     OW 9276   4.261   1.844   4.041 -0.4404  0.1032  0.1380
 2301SOL    HW2 9277   4.307   1.813   4.120 -0.6704  0.3809  0.3841
 2301SOL    HW3 9278   4.191   1.900   4.075 -1.9777 -1.6103 -0.1397
 2301SOL    MW4 9279   4.258   1.847   4.056 -0.6738 -0.0862  0.1340
 2302SOL     OW 9280   0.151   0.096   4.628  0.1960  0.7756  0.6258
 2302SOL    HW2 9281   0.145   0.040   4.706  0.5033 -0.5733 -0.3080
 2302SOL    HW3 9282   0.063   0.091   4.589  0.1259  1.2252  0.7217
 2302SOL    MW4 9283   0.138   0.088   4.633  0.2273  0.6570  0.5159
 2303SOL     OW 9284   3.845   0.057   4.052 -0.1424 -0.7228  0.3184
 2303SOL    HW2 9285   3.803   0.036   3.969  0.3288  1.3270 -0.4855
 2303SOL    HW3 9286   3.775   0.048   4.117 -0.7850 -1.3244 -0.4419
 2303SOL    MW4 9287   3.830   0.053   4.050 -0.1647 -0.5317  0.1125
 2304SOL     OW 9288   2.196   3.227   3.647 -0.2788  0.0285 -0.0205
 2304SOL    HW2 9289   2.196   3.323   3.655  0.5914  0.1691 -1.4621
 2304SOL    HW3 9290   2.281   3.200   3.682  1.1624  0.1675 -3.1912
 2304SOL    MW4 9291   2.207   3.236   3.653  0.0265  0.0653 -0.6289
 2305SOL     OW 9292   1.774   3.458   4.009  0.0275  0.0945  0.0263
 2305SOL    HW2 9293   1.854   3.407   4.024  0.1311 -0.0365 -0.9105
 2305SOL    HW3 9294   1.795   3.546   4.041  0.5524  0.0629 -0.2204
 2305SOL    MW4 9295   1.787   3.463   4.015  0.1104  0.0730 -0.1297
 2306SOL     OW 9296   2.893   3.546   3.631  0.1098  0.0035  0.0011
 2306SOL    HW2 9297   2.969   3.490   3.640  0.2175  0.4651  2.2319
 2306SOL    HW3 9298   2.889   3.567   3.537  1.5050 -1.6730 -0.4441
 2306SOL    MW4 9299   2.903   3.542   3.619  0.3083 -0.1566  0.2367
 2307SOL     OW 9300   2.435   3.624   3.624 -0.6127 -0.3426  0.1168
 2307SOL    HW2 9301   2.503   3.568   3.662  0.8067  1.0328 -0.2958
 2307SOL    HW3 9302   2.460   3.713   3.653  0.1557  0.6709 -3.4656
 2307SOL    MW4 9303   2.447   3.629   3.633 -0.3242 -0.0274 -0.4101
 2308SOL     OW 9304   2.238   3.964   3.617 -0.4656 -0.3570 -0.4772
 2308SOL    HW2 9305   2.322   3.942   3.658 -0.1425  1.9216  0.1546
 2308SOL    HW3 9306   2.260   3.984   3.526 -0.3555 -0.0074 -0.3742
 2308SOL    MW4 9307   2.252   3.964   3.610 -0.4086 -0.0103 -0.3803
 2309SOL     OW 9308   2.243   4.229   3.726 -0.4554 -0.3763 -0.0092
 2309SOL    HW2 9309   2.224   4.226   3.819 -0.3139 -0.1029  0.0282
 2309SOL    HW3 9310   2.252   4.137   3.700  0.1040 -0.4258  0.3672
 2309SOL    MW4 9311   2.242   4.216   3.735 -0.3631 -0.3467  0.0455
 2310SOL     OW 9312   2.472   4.366   3.629 -0.3456 -0.4288 -0.2621
 2310SOL    HW2 9313   2.410   4.319   3.685  0.6308  0.7841  1.9100
 2310SOL    HW3 9314   2.471   4.456   3.662  2.4041 -0.3377 -0.3087
 2310SOL    MW4 9315   2.464   4.372   3.641  0.1457 -0.2565  0.0184
 2311SOL     OW 9316   2.942   4.633   3.709 -0.4294  0.1245 -0.2842
 2311SOL    HW2 9317   2.998   4.630   3.787  1.7815 -0.9525 -1.8558
 2311SOL    HW3 9318   2.998   4.669   3.641 -1.8889 -0.3384 -1.7489
 2311SOL    MW4 9319   2.957   4.637   3.711 -0.3302 -0.0787 -0.6847
 2312SOL     OW 9320   2.710   0.088   3.603  0.0303 -0.5683 -0.3447
 2312SOL    HW2 9321   2.782   0.029   3.625 -1.7033 -2.9692 -0.8717
 2312SOL    HW3 9322   2.706   0.087   3.508 -0.3324  0.0046 -0.3377
 2312SOL    MW4 9323   2.719   0.080   3.594 -0.2465 -0.8095 -0.4132
 2313SOL     OW 9324   2.723   0.340   3.726  0.1305 -0.8712 -0.1911
 2313SOL    HW2 9325   2.715   0.257   3.680  0.3179 -1.3226  0.5889
 2313SOL    HW3 9326   2.790   0.388   3.677  0.1591 -1.2554 -0.5276
 2313SOL    MW4 9327   2.731   0.336   3.713  0.1593 -0.9815 -0.1326
 2314SOL     OW 9328   2.377   0.756   3.727 -0.1710  0.2741  0.0890
 2314SOL    HW2 9329   2.378   0.788   3.818  0.6820 -0.3386  0.2919
 2314SOL    HW3 9330   2.410   0.667   3.732 -2.2285 -0.5619 -0.5298
 2314SOL    MW4 9331   2.381   0.748   3.740 -0.3297  0.0830  0.0339
 2315SOL     OW 9332   1.095   2.552   4.351 -0.3021  0.0315 -0.1544
 2315SOL    HW2 9333   1.184   2.582   4.367 -0.3990  0.7063 -0.8781
 2315SOL    HW3 9334   1.039   2.625   4.379 -0.6765 -0.7441  1.1790
 2315SOL    MW4 9335   1.099   2.565   4.357 -0.3642  0.0181 -0.0739
 2316SOL     OW 9336   3.553   3.942   4.461 -0.4140 -0.0297  0.2318
 2316SOL    HW2 9337   3.552   3.932   4.556  0.4956  0.7451  0.3304
 2316SOL    HW3 9338   3.637   3.983   4.442  0.4234 -2.2722 -1.1332
 2316SOL    MW4 9339   3.564   3.946   4.471 -0.1838 -0.2234  0.0653
 2317SOL     OW 9340   2.444   1.554   3.784  0.0741  0.4217  0.1387
 2317SOL    HW2 9341   2.470   1.558   3.876  0.9022 -0.6094 -0.0415
 2317SOL    HW3 9342   2.498   1.619   3.740  0.8294 -0.2135  0.1208
 2317SOL    MW4 9343   2.455   1.563   3.790  0.2828  0.2019  0.1125
 2318SOL     OW 9344   1.319   2.174   4.106  0.0048  0.4557  0.3568
 2318SOL    HW2 9345   1.299   2.188   4.199 -0.7185 -1.1862  0.4675
 2318SOL    HW3 9346   1.253   2.224   4.060 -1.4214 -1.0295  0.7420
 2318SOL    MW4 9347   1.308   2.182   4.112 -0.2787  0.0432  0.4225
 2319SOL     OW 9348   0.894   1.645   4.506 -0.0472  0.7754  0.1052
 2319SOL    HW2 9349   0.916   1.727   4.552  0.3968  0.6208  0.1766
 2319SOL    HW3 9350   0.979   1.601   4.495 -0.2970  0.2711  0.1732
 2319SOL    MW4 9351   0.908   1.650   4.511 -0.0215  0.6883  0.1235
 2320SOL     OW 9352   4.243   0.024   3.778 -0.3891 -0.3921 -0.1293
 2320SOL    HW2 9353   4.328   0.041   3.737 -0.6130  0.6749 -0.1839
 2320SOL    HW3 9354   4.261   0.027   3.872 -0.2414 -0.8552 -0.1417
 2320SOL    MW4 9355   4.257   0.027   3.785 -0.3991 -0.3125 -0.1380
 2321SOL     OW 9356   3.472   2.563   3.623 -0.0775  0.4932 -0.0211
 2321SOL    HW2 9357   3.530   2.543   3.549 -0.2691 -0.5116  0.0981
 2321SOL    HW3 9358   3.393   2.512   3.606 -0.9848  1.9271 -0.2251
 2321SOL    MW4 9359   3.469   2.554   3.611 -0.2224  0.5498 -0.0322
 2322SOL     OW 9360   4.378   0.731   4.411 -0.0805 -0.1466  0.2009
 2322SOL    HW2 9361   4.359   0.638   4.420  0.0592 -0.1486  0.4601
 2322SOL    HW3 9362   4.295   0.770   4.385 -0.3195 -0.2304  0.8441
 2322SOL    MW4 9363   4.365   0.724   4.408 -0.0935 -0.1580  0.3204
 2323SOL     OW 9364   1.657   0.001   4.540 -0.1633 -0.3801 -0.2826
 2323SOL    HW2 9365   1.594  -0.069   4.523 -0.5573 -0.0738 -0.1057
 2323SOL    HW3 9366   1.653   0.057   4.462 -0.0371 -0.4164 -0.3153
 2323SOL    MW4 9367   1.648  -0.001   4.528 -0.1985 -0.3445 -0.2637
 2324SOL     OW 9368   3.691   0.276   4.294  0.4195  0.6389 -0.3853
 2324SOL    HW2 9369   3.687   0.273   4.390 -1.0076  0.3212 -0.4427
 2324SOL    HW3 9370   3.673   0.186   4.266 -0.2030  0.9407 -0.9763
 2324SOL    MW4 9371   3.688   0.263   4.303  0.1490  0.6368 -0.4711
 2325SOL     OW 9372   1.580   3.831   4.057 -0.2029  0.5812 -0.0441
 2325SOL    HW2 9373   1.558   3.922   4.073 -1.7701  0.1691  0.2271
 2325SOL    HW3 9374   1.501   3.782   4.080  0.5055 -0.8189 -0.4795
 2325SOL    MW4 9375   1.566   3.836   4.062 -0.3163  0.3421 -0.0658
 2326SOL     OW 9376   1.259   1.923   3.985 -0.1041 -0.4841  0.0534
 2326SOL    HW2 9377   1.278   2.001   4.037 -0.4733 -0.2114 -0.2227
 2326SOL    HW3 9378   1.330   1.862   4.007  0.6440  0.2265 -0.3430
 2326SOL    MW4 9379   1.271   1.925   3.994 -0.0542 -0.3544 -0.0355
 2327SOL     OW 9380   2.641   2.699   3.247 -0.0602  0.0858 -0.1070
 2327SOL    HW2 9381   2.577   2.758   3.287 -0.0777 -0.2143  0.3120
 2327SOL    HW3 9382   2.637   2.619   3.300  0.9609  0.2176  0.1724
 2327SOL    MW4 9383   2.632   2.696   3.259  0.0722  0.0637 -0.0145
 2328SOL     OW 9384   1.114   2.294   3.977  0.0284  0.1673 -0.0895
 2328SOL    HW2 9385   1.110   2.382   4.015  1.8106  0.0994  0.2803
 2328SOL    HW3 9386   1.042   2.247   4.019 -0.0724  1.0471  0.7438
 2328SOL    MW4 9387   1.104   2.299   3.987  0.2503  0.2744  0.0694
 2329SOL     OW 9388   3.147   0.824   3.646  0.7516  0.0387 -0.3944
 2329SOL    HW2 9389   3.154   0.851   3.554 -0.3314  1.7974  0.0217
 2329SOL    HW3 9390   3.058   0.790   3.654  0.5995  0.5698  0.1798
 2329SOL    MW4 9391   3.136   0.823   3.635  0.5884  0.3408 -0.2639
 2330SOL     OW 9392   4.246   4.137   4.119  0.1121  0.4890 -0.0812
 2330SOL    HW2 9393   4.251   4.063   4.058  0.7431  0.3424  0.1465
 2330SOL    HW3 9394   4.329   4.184   4.107 -1.1507  2.3981 -1.7985
 2330SOL    MW4 9395   4.258   4.134   4.109  0.0286  0.7215 -0.2775
 2331SOL     OW 9396   0.924   3.706   4.081  0.6551 -0.2846 -0.3216
 2331SOL    HW2 9397   1.003   3.750   4.049  0.6503  0.5760  0.8154
 2331SOL    HW3 9398   0.853   3.767   4.062  0.6899  0.3842  1.5556
 2331SOL    MW4 9399   0.925   3.720   4.074  0.6590 -0.0825  0.0758
 2332SOL     OW 9400   2.672   4.221   3.723 -0.2078 -0.0608 -0.1211
 2332SOL    HW2 9401   2.604   4.267   3.673 -1.1206 -1.9334 -0.6517
 2332SOL    HW3 9402   2.752   4.271   3.705 -0.8970  0.4851 -1.8384
 2332SOL    MW4 9403   2.674   4.234   3.714 -0.4191 -0.2356 -0.4177
 2333SOL     OW 9404   2.890   4.375   3.661  0.0330  0.1896 -0.2717
 2333SOL    HW2 9405   2.980   4.347   3.680  0.6429  0.2906 -2.7348
 2333SOL    HW3 9406   2.886   4.466   3.692  0.9096  0.2928 -0.4396
 2333SOL    MW4 9407   2.902   4.383   3.667  0.2294  0.2165 -0.6189
 2334SOL     OW 9408   2.906   4.404   3.383 -0.1865  0.7491 -0.1869
 2334SOL    HW2 9409   2.983   4.351   3.362  0.2938  1.7989 -1.0994
 2334SOL    HW3 9410   2.903   4.403   3.479 -0.0585 -0.7371 -0.1799
 2334SOL    MW4 9411   2.916   4.397   3.393 -0.1063  0.6919 -0.3064
 2335SOL     OW 9412   3.368   4.647   3.667  0.0152 -0.4030 -0.1827
 2335SOL    HW2 9413   3.291   4.696   3.641  0.8418  1.0135 -0.0091
 2335SOL    HW3 9414   3.442   4.703   3.642  1.0356 -2.2950 -1.5462
 2335SOL    MW4 9415   3.368   4.661   3.660  0.2592 -0.4659 -0.3395
 2336SOL     OW 9416   3.141   0.087   3.563  0.2436 -0.4279 -0.5515
 2336SOL    HW2 9417   3.134   0.176   3.598  0.0447 -0.7065  0.1189
 2336SOL    HW3 9418   3.159   0.100   3.470  1.0519  0.3128 -0.3007
 2336SOL    MW4 9419   3.142   0.101   3.555  0.3240 -0.3669 -0.4299
 2337SOL     OW 9420   2.930   0.461   3.606  0.4631  0.6103 -0.3217
 2337SOL    HW2 9421   2.942   0.549   3.641  0.0167  0.3432  0.5196
 2337SOL    HW3 9422   3.000   0.409   3.646  0.9950  0.6801 -1.1611
 2337SOL    MW4 9423   2.941   0.466   3.616  0.4747  0.5842 -0.3216
 2338SOL     OW 9424   3.390   0.429   3.582  0.1773 -0.5512  0.3064
 2338SOL    HW2 9425   3.352   0.513   3.606 -0.3540 -1.2406  1.9404
 2338SOL    HW3 9426   3.458   0.414   3.649 -0.8950 -2.2033  1.0527
 2338SOL    MW4 9427   3.394   0.438   3.594 -0.0343 -0.8602  0.6204
 2339SOL     OW 9428   0.161   0.402   4.245  0.1962  0.1377  0.2026
 2339SOL    HW2 9429   0.212   0.446   4.313 -0.5364  1.4783 -0.0834
 2339SOL    HW3 9430   0.225   0.374   4.180  0.7201  0.4081  0.6015
 2339SOL    MW4 9431   0.176   0.404   4.246  0.1687  0.3502  0.2174
 2340SOL     OW 9432   2.889   1.268   3.654 -0.0454  0.5521 -0.0937
 2340SOL    HW2 9433   2.811   1.214   3.666  0.3479 -0.3128 -1.3509
 2340SOL    HW3 9434   2.962   1.208   3.670  0.3795  1.0035 -0.3429
 2340SOL    MW4 9435   2.888   1.253   3.658  0.0625  0.4973 -0.2923
 2341SOL     OW 9436   1.243   1.792   4.333 -0.3113  0.1746 -0.0133
 2341SOL    HW2 9437   1.312   1.826   4.276 -1.0439 -1.2861 -1.8330
 2341SOL    HW3 9438   1.167   1.848   4.314  0.1293  1.2577  1.3769
 2341SOL    MW4 9439   1.242   1.804   4.323 -0.3496  0.1248 -0.0701
 2342SOL     OW 9440   0.373   1.172   3.977 -0.2471  0.0304  0.1254
 2342SOL    HW2 9441   0.457   1.139   4.009 -0.6822 -0.7508  0.4978
 2342SOL    HW3 9442   0.308   1.123   4.028 -0.9243  1.5774  0.7814
 2342SOL    MW4 9443   0.375   1.161   3.988 -0.3939  0.1315  0.2611
 2343SOL     OW 9444   2.285   1.165   3.992  0.0545  0.2306 -0.2979
 2343SOL    HW2 9445   2.207   1.114   4.013  0.6861 -1.0714 -1.0716
 2343SOL    HW3 9446   2.358   1.113   4.027  0.6642  0.9110 -0.5276
 2343SOL    MW4 9447   2.285   1.151   4.000  0.2186  0.1485 -0.4303
 2344SOL     OW 9448   3.296   1.971   3.931  0.1080 -0.0427 -0.3997
 2344SOL    HW2 9449   3.270   2.039   3.993  1.7012 -0.5379  0.8536
 2344SOL    HW3 9450   3.230   1.974   3.862 -1.2355  1.0614  0.9200
 2344SOL    MW4 9451   3.284   1.980   3.930  0.1411  0.0377 -0.0601
 2345SOL     OW 9452   3.352   3.057   3.694 -0.3906 -0.3167  0.3731
 2345SOL    HW2 9453   3.359   2.970   3.654 -0.2914 -0.2972  0.3475
 2345SOL    HW3 9454   3.280   3.099   3.648  0.6471  0.2420 -0.7878
 2345SOL    MW4 9455   3.344   3.051   3.683 -0.2403 -0.2403  0.2165
 2346SOL     OW 9456   4.203   4.309   4.470 -0.5348  0.1979  0.3242
 2346SOL    HW2 9457   4.111   4.334   4.474 -0.8557 -1.0161  0.8110
 2346SOL    HW3 9458   4.202   4.220   4.435  0.5664  0.7499 -1.1446
 2346SOL    MW4 9459   4.191   4.301   4.466 -0.4315  0.1101  0.1950
 2347SOL     OW 9460   2.381   2.388   4.366  0.2472  0.1287 -0.1190
 2347SOL    HW2 9461   2.452   2.371   4.304  0.4725 -0.0000  0.1765
 2347SOL    HW3 9462   2.405   2.340   4.445 -0.5033 -0.4843 -0.2489
 2347SOL    MW4 9463   2.393   2.379   4.368  0.1779  0.0308 -0.0973
 2348SOL     OW 9464   0.076   0.407   4.605 -0.3244  0.2277 -0.3044
 2348SOL    HW2 9465   0.098   0.315   4.623  0.3707  0.2195 -1.1688
 2348SOL    HW3 9466   0.160   0.447   4.581 -0.5262  1.2277  0.6054
 2348SOL    MW4 9467   0.090   0.400   4.604 -0.2593  0.3586 -0.2990
 2349SOL     OW 9468   1.788   4.382   4.419 -0.3498  0.2744 -0.4622
 2349SOL    HW2 9469   1.814   4.462   4.463 -0.1408  0.2010 -0.4512
 2349SOL    HW3 9470   1.766   4.409   4.330 -1.9938  0.6292  0.0347
 2349SOL    MW4 9471   1.788   4.396   4.413 -0.5392  0.3114 -0.3948
 2350SOL     OW 9472   0.413   2.141   4.405 -0.1879  0.6420  0.3308
 2350SOL    HW2 9473   0.411   2.159   4.311 -0.8815 -0.7666  0.0576
 2350SOL    HW3 9474   0.502   2.110   4.422  0.1762  1.6450  0.2996
 2350SOL    MW4 9475   0.425   2.139   4.395 -0.2314  0.5884  0.2909
 2351SOL     OW 9476   2.008   2.519   4.097  0.0460 -0.2189  0.0361
 2351SOL    HW2 9477   2.006   2.503   4.191  0.4400  0.6511  0.1954
 2351SOL    HW3 9478   1.922   2.557   4.078  0.6374  1.3264  0.3679
 2351SOL    MW4 9479   1.996   2.522   4.107  0.1757  0.0997  0.1016
 2352SOL     OW 9480   2.234   2.939   4.022  0.3018 -0.4147  0.1536
 2352SOL    HW2 9481   2.203   2.956   4.111 -1.7535  2.6483 -1.0655
 2352SOL    HW3 9482   2.295   3.011   4.003 -0.8048  0.0882 -1.6034
 2352SOL    MW4 9483   2.238   2.950   4.031 -0.1154  0.0558 -0.2389
 2353SOL     OW 9484   1.748   3.996   4.627  0.1929 -0.3313  0.1234
 2353SOL    HW2 9485   1.746   3.937   4.702  0.5252  0.7783  1.0201
 2353SOL    HW3 9486   1.657   4.019   4.611  0.2350  0.4591  1.0125
 2353SOL    MW4 9487   1.736   3.991   4.635  0.2422 -0.0806  0.3591
 2354SOL     OW 9488   2.128   2.056   4.519  0.2042  0.1342 -0.3724
 2354SOL    HW2 9489   2.112   1.980   4.463 -0.4788 -1.5119  1.9864
 2354SOL    HW3 9490   2.209   2.034   4.565  0.7246  1.4571 -0.6197
 2354SOL    MW4 9491   2.137   2.043   4.517  0.1826  0.0916 -0.0944
 2355SOL     OW 9492   0.387   0.786   4.402 -0.3068  0.1229 -0.1318
 2355SOL    HW2 9493   0.307   0.829   4.431  0.2406  0.9691  0.1124
 2355SOL    HW3 9494   0.451   0.856   4.393  0.2086 -0.4546 -1.0330
 2355SOL    MW4 9495   0.385   0.801   4.405 -0.1666  0.1583 -0.2189
 2356SOL     OW 9496   3.129   3.953   3.641  0.0750 -0.3416  0.0086
 2356SOL    HW2 9497   3.130   4.046   3.666  0.8101 -0.3714  0.1125
 2356SOL    HW3 9498   3.213   3.920   3.673  0.8377 -0.4953 -2.1055
 2356SOL    MW4 9499   3.140   3.961   3.649  0.2725 -0.3657 -0.2568
 2357SOL     OW 9500   1.203   3.681   4.381 -0.1800  1.0721  0.4925
 2357SOL    HW2 9501   1.265   3.645   4.444 -0.2368  1.3056  0.6832
 2357SOL    HW3 9502   1.141   3.610   4.364  0.5932  0.5661 -0.3014
 2357SOL    MW4 9503   1.203   3.667   4.387 -0.0854  1.0362  0.4129
 2358SOL     OW 9504   3.345   4.366   3.632  0.3235  0.1588 -0.1449
 2358SOL    HW2 9505   3.422   4.344   3.685  1.2941  1.9786 -0.7501
 2358SOL    HW3 9506   3.323   4.456   3.657 -2.0834 -0.5751  0.5585
 2358SOL    MW4 9507   3.352   4.375   3.642  0.1340  0.3018 -0.1318
 2359SOL     OW 9508   4.075   2.957   4.177 -0.2244  0.3790  0.0036
 2359SOL    HW2 9509   4.035   3.042   4.196  0.7154  1.0199 -0.8271
 2359SOL    HW3 9510   4.105   2.925   4.262  1.2086  1.8107  0.0594
 2359SOL    MW4 9511   4.073   2.964   4.190  0.0887  0.6521 -0.0987
 2360SOL     OW 9512   4.010   3.718   4.082  0.3421 -0.0870 -0.1031
 2360SOL    HW2 9513   4.035   3.637   4.038  0.7310  0.0565 -0.1463
 2360SOL    HW3 9514   3.998   3.693   4.173  0.2712 -0.2321 -0.1520
 2360SOL    MW4 9515   4.012   3.704   4.088  0.3843 -0.0870 -0.1149
 2361SOL     OW 9516   3.596   0.124   3.618  0.1507 -0.5512 -0.7995
 2361SOL    HW2 9517   3.665   0.071   3.658  0.8898  0.8736 -0.1519
 2361SOL    HW3 9518   3.616   0.122   3.524  0.4076 -1.0917 -0.7368
 2361SOL    MW4 9519   3.608   0.117   3.611  0.2820 -0.4345 -0.7060
 2362SOL     OW 9520   3.594   0.363   3.765 -0.1715 -0.4318  0.2955
 2362SOL    HW2 9521   3.613   0.291   3.706  0.2813  0.1768 -0.3143
 2362SOL    HW3 9522   3.650   0.435   3.735 -1.8660  0.7260 -0.2167
 2362SOL    MW4 9523   3.604   0.363   3.753 -0.3357 -0.1987  0.1476
 2363SOL     OW 9524   0.455   3.477   4.026  0.6922  0.1638  0.2985
 2363SOL    HW2 9525   0.372   3.435   4.046  1.2551 -0.4105  1.4935
 2363SOL    HW3 9526   0.454   3.488   3.931 -0.8556  0.4063  0.3355
 2363SOL    MW4 9527   0.444   3.473   4.016  0.5623  0.1199  0.4611
 2364SOL     OW 9528   3.591   1.740   3.653  0.6656  0.1895 -0.0814
 2364SOL    HW2 9529   3.576   1.739   3.559 -0.3651 -0.2202  0.0779
 2364SOL    HW3 9530   3.604   1.832   3.674  2.8000  0.0881 -0.9001
 2364SOL    MW4 9531   3.591   1.752   3.643  0.8113  0.1220 -0.1683
 2365SOL     OW 9532   1.048   1.588   3.969  0.3434  0.1410 -0.1568
 2365SOL    HW2 9533   1.045   1.569   3.876  0.3687 -0.0031 -0.1283
 2365SOL    HW3 9534   1.015   1.678   3.976  0.7825  0.3178 -0.3498
 2365SOL    MW4 9535   1.043   1.597   3.958  0.4046  0.1456 -0.1783
 2366SOL     OW 9536   4.045   1.132   3.786 -0.5155 -0.1885 -0.6824
 2366SOL    HW2 9537   4.048   1.049   3.738  0.1506 -0.6726  0.1676
 2366SOL    HW3 9538   4.074   1.197   3.723 -1.6767 -0.5011 -1.5512
 2366SOL    MW4 9539   4.050   1.129   3.772 -0.5808 -0.2937 -0.6850
 2367SOL     OW 9540   3.867   0.064   4.614 -0.3812 -0.3815 -0.1193
 2367SOL    HW2 9541   3.944   0.069   4.557  0.5242  0.3481  1.1176
 2367SOL    HW3 9542   3.904   0.046   4.701 -1.6188 -0.0316  0.4848
 2367SOL    MW4 9543   3.882   0.062   4.618 -0.4251 -0.2391  0.1235
 2368SOL     OW 9544   1.166   0.677   4.406  0.3836  0.2048  1.1159
 2368SOL    HW2 9545   1.261   0.676   4.396  0.3205  2.4405  0.0784
 2368SOL    HW3 9546   1.150   0.727   4.486  0.1134 -1.4858  2.1480
 2368SOL    MW4 9547   1.177   0.683   4.415  0.3396  0.2767  1.1153
 2369SOL     OW 9548   2.257   3.743   4.098 -0.1207  0.0154 -0.0962
 2369SOL    HW2 9549   2.220   3.666   4.054 -0.1294 -0.6196  1.0200
 2369SOL    HW3 9550   2.329   3.771   4.041 -1.0341  0.0635 -1.2541
 2369SOL    MW4 9551   2.262   3.737   4.085 -0.2422 -0.0620 -0.1011
 2370SOL     OW 9552   3.372   0.696   3.694  0.3632  0.2264  0.0636
 2370SOL    HW2 9553   3.280   0.717   3.675 -0.0226 -1.1278  0.3465
 2370SOL    HW3 9554   3.377   0.696   3.790  0.2292 -1.3357  0.0968
 2370SOL    MW4 9555   3.360   0.698   3.704  0.2949 -0.1583  0.1056
 2371SOL     OW 9556   4.468   1.692   3.567 -0.5258  0.1358 -0.5084
 2371SOL    HW2 9557   4.476   1.767   3.627  0.9074 -0.4687  0.0796
 2371SOL    HW3 9558   4.393   1.643   3.600  0.1134 -0.0653  0.6626
 2371SOL    MW4 9559   4.459   1.695   3.579 -0.2518  0.0294 -0.2766
 2372SOL     OW 9560   4.181   2.347   3.934  0.2632 -0.1800 -0.0154
 2372SOL    HW2 9561   4.191   2.347   3.839 -0.6198 -1.8994 -0.1276
 2372SOL    HW3 9562   4.258   2.302   3.967 -0.2663 -1.1048 -0.0289
 2372SOL    MW4 9563   4.193   2.341   3.926  0.0768 -0.5288 -0.0317
 2373SOL     OW 9564   3.697   0.280   4.578 -0.3192  0.1111 -0.0380
 2373SOL    HW2 9565   3.755   0.353   4.557 -1.8363  1.1071 -0.8412
 2373SOL    HW3 9566   3.756   0.209   4.603  1.2283  1.2152 -0.4838
 2373SOL    MW4 9567   3.713   0.280   4.578 -0.3152  0.3882 -0.2031
 2374SOL     OW 9568   3.090   2.728   4.882 -0.2137 -0.0525  0.2314
 2374SOL    HW2 9569   3.056   2.660   4.823  0.8696 -0.1532 -0.2762
 2374SOL    HW3 9570   3.033   2.721   4.959  1.6248 -3.5143  1.3982
 2374SOL    MW4 9571   3.078   2.718   4.885  0.1717 -0.5226  0.3185
 2375SOL     OW 9572   1.297   1.956   4.558  0.3768  0.9270  0.0374
 2375SOL    HW2 9573   1.391   1.976   4.557  0.2434  1.6133 -2.4899
 2375SOL    HW3 9574   1.289   1.877   4.504 -0.4378  0.5805  0.6639
 2375SOL    MW4 9575   1.309   1.949   4.551  0.2517  0.9718 -0.2136
 2376SOL     OW 9576   0.841   4.527   4.126  0.1153  0.0899 -0.1075
 2376SOL    HW2 9577   0.841   4.435   4.101 -0.6959 -0.2595  1.1009
 2376SOL    HW3 9578   0.848   4.526   4.221  1.3415  1.3195 -0.1725
 2376SOL    MW4 9579   0.842   4.515   4.135  0.1700  0.2055  0.0434
 2377SOL     OW 9580   4.146   3.361   4.437 -0.3633  0.1449  0.3090
 2377SOL    HW2 9581   4.158   3.315   4.520 -1.4155  1.5049  1.2101
 2377SOL    HW3 9582   4.233   3.394   4.416  0.1718 -1.2517  0.2193
 2377SOL    MW4 9583   4.159   3.359   4.445 -0.4315  0.1400  0.4163
 2378SOL     OW 9584   1.001   1.891   4.636  0.2558 -0.3505  0.3905
 2378SOL    HW2 9585   1.093   1.913   4.645  0.2128  0.6080 -1.2910
 2378SOL    HW3 9586   0.955   1.959   4.686  0.4361 -0.6301  0.9410
 2378SOL    MW4 9587   1.007   1.903   4.644  0.2739 -0.2611  0.2413
 2379SOL     OW 9588   1.817   1.770   4.231 -0.1495  0.0007  0.0949
 2379SOL    HW2 9589   1.835   1.693   4.178 -0.1033  0.5824 -0.7505
 2379SOL    HW3 9590   1.777   1.832   4.170 -0.5755  0.4896  0.8578
 2379SOL    MW4 9591   1.814   1.768   4.216 -0.1997  0.1419  0.0839
 2380SOL     OW 9592   1.450   4.478   4.505 -0.2355 -0.6046  0.1011
 2380SOL    HW2 9593   1.386   4.434   4.561 -1.1173 -0.3458 -0.6911
 2380SOL    HW3 9594   1.483   4.409   4.447  0.0157 -0.6793  0.3288
 2380SOL    MW4 9595   1.446   4.463   4.504 -0.3186 -0.5798  0.0257
 2381SOL     OW 9596   2.782   3.600   4.394 -0.0969 -0.1214 -0.4473
 2381SOL    HW2 9597   2.759   3.630   4.306  0.7017  0.1796 -0.5516
 2381SOL    HW3 9598   2.807   3.509   4.383 -1.4341 -0.5198 -0.3008
 2381SOL    MW4 9599   2.782   3.592   4.381 -0.1678 -0.1345 -0.4416
 2382SOL     OW 9600   3.786   4.397   3.684 -0.0338 -0.4291 -0.5859
 2382SOL    HW2 9601   3.797   4.388   3.589  1.4693  0.1081 -0.4732
 2382SOL    HW3 9602   3.856   4.345   3.722  0.0085  0.2012  0.2210
 2382SOL    MW4 9603   3.797   4.389   3.676  0.1700 -0.2747 -0.4644
 2383SOL     OW 9604   3.324   2.653   4.689 -0.2123 -0.0448  0.1667
 2383SOL    HW2 9605   3.266   2.686   4.621  0.2675 -0.1668 -0.3111
 2383SOL    HW3 9606   3.281   2.676   4.771 -1.5566 -1.2345 -0.1808
 2383SOL    MW4 9607   3.311   2.660   4.691 -0.3266 -0.2179  0.0577
 2384SOL     OW 9608   3.780   4.663   3.782 -0.2115 -0.2295  0.3369
 2384SOL    HW2 9609   3.867   4.682   3.745  0.1530 -0.0920  1.2522
 2384SOL    HW3 9610   3.768   4.569   3.768  0.8975 -0.6288  1.8531
 2384SOL    MW4 9611   3.790   4.653   3.775 -0.0167 -0.2641  0.6578
 2385SOL     OW 9612   4.009   0.117   3.636 -0.8598  0.0385  0.1196
 2385SOL    HW2 9613   4.093   0.099   3.679 -2.0739 -0.9406  2.1189
 2385SOL    HW3 9614   4.029   0.112   3.542  1.7001  1.6366  0.5323
 2385SOL    MW4 9615   4.023   0.114   3.629 -0.6824  0.1202  0.4377
 2386SOL     OW 9616   4.254   0.471   3.611  0.1309 -0.1180  0.2852
 2386SOL    HW2 9617   4.252   0.557   3.654 -1.4972 -0.1217  0.2385
 2386SOL    HW3 9618   4.257   0.491   3.518  0.2609 -0.1195  0.2883
 2386SOL    MW4 9619   4.254   0.485   3.605 -0.0668 -0.1187  0.2794
 2387SOL     OW 9620   4.257   0.709   3.747 -0.0064  0.0018  0.0614
 2387SOL    HW2 9621   4.168   0.741   3.730  0.2883  0.4358 -0.6974
 2387SOL    HW3 9622   4.260   0.694   3.841 -1.1105 -0.6741 -0.0025
 2387SOL    MW4 9623   4.245   0.711   3.757 -0.1135 -0.0301 -0.0470
 2388SOL     OW 9624   4.035   0.868   3.669 -0.0427  0.4601 -0.0609
 2388SOL    HW2 9625   3.952   0.826   3.691  0.4567 -0.2258  0.5272
 2388SOL    HW3 9626   4.033   0.875   3.573 -0.5164 -0.0892 -0.0934
 2388SOL    MW4 9627   4.023   0.863   3.659 -0.0391  0.2971  0.0124
 2389SOL     OW 9628   0.153   2.144   4.468  0.4712 -0.8252 -0.2082
 2389SOL    HW2 9629   0.157   2.212   4.535 -0.8135  0.4229 -1.3615
 2389SOL    HW3 9630   0.245   2.125   4.447  0.8604 -0.7367  1.4023
 2389SOL    MW4 9631   0.166   2.151   4.474  0.3531 -0.6490 -0.1478
 2390SOL     OW 9632   0.873   2.162   4.688 -0.4423 -0.1022 -0.4620
 2390SOL    HW2 9633   0.925   2.223   4.636  0.5191  0.1124  0.7195
 2390SOL    HW3 9634   0.865   2.204   4.774 -1.5543 -0.6803 -0.2722
 2390SOL    MW4 9635   0.879   2.176   4.693 -0.4622 -0.1502 -0.2813
 2391SOL     OW 9636   3.937   2.437   3.654  0.0072 -0.3004 -0.1960
 2391SOL    HW2 9637   4.030   2.419   3.671  0.5292  0.7962 -1.7665
 2391SOL    HW3 9638   3.927   2.531   3.673 -0.8208 -0.4471  0.1118
 2391SOL    MW4 9639   3.948   2.447   3.659 -0.0331 -0.1750 -0.3626
 2392SOL     OW 9640   4.201   1.579   3.961  0.1821 -0.1621 -0.2708
 2392SOL    HW2 9641   4.213   1.574   3.866  0.7284 -0.6826 -0.1778
 2392SOL    HW3 9642   4.196   1.672   3.980  0.2686 -0.0523 -0.7870
 2392SOL    MW4 9643   4.201   1.590   3.951  0.2661 -0.2162 -0.3269
 2393SOL     OW 9644   1.764   2.653   3.730 -0.1632 -0.2311 -0.3636
 2393SOL    HW2 9645   1.846   2.693   3.700 -0.7213  2.3631  1.4638
 2393SOL    HW3 9646   1.695   2.709   3.693 -1.1078 -1.6177 -0.7646
 2393SOL    MW4 9647   1.766   2.666   3.721 -0.3614 -0.0718 -0.1757
 2394SOL     OW 9648   0.642   0.257   4.201 -0.1980 -0.3437 -0.5966
 2394SOL    HW2 9649   0.642   0.170   4.161  0.0490  0.4832 -2.4661
 2394SOL    HW3 9650   0.560   0.297   4.171  1.0911  1.1448 -2.2637
 2394SOL    MW4 9651   0.631   0.251   4.192  0.0046 -0.0382 -1.0633
 2395SOL     OW 9652   0.527   0.190   4.447 -0.4151  0.0744  0.1283
 2395SOL    HW2 9653   0.452   0.133   4.429 -0.5650  0.2185  0.2908
 2395SOL    HW3 9654   0.559   0.216   4.361 -1.7826  1.6161  0.0655
 2395SOL    MW4 9655   0.521   0.186   4.433 -0.6153  0.2968  0.1421
 2396SOL     OW 9656   3.022   1.710   3.630 -0.7227  0.3669 -0.2317
 2396SOL    HW2 9657   2.961   1.673   3.694 -1.7864  0.9671 -0.8812
 2396SOL    HW3 9658   3.074   1.773   3.680  0.8956 -1.7347  0.8138
 2396SOL    MW4 9659   3.021   1.713   3.645 -0.6495  0.1688 -0.1793
 2397SOL     OW 9660   2.113   0.760   4.384 -0.1608 -0.6083  0.6499
 2397SOL    HW2 9661   2.110   0.855   4.395 -0.9088 -0.4984 -0.5013
 2397SOL    HW3 9662   2.206   0.738   4.394 -0.0844  0.1427  1.6719
 2397SOL    MW4 9663   2.125   0.769   4.387 -0.2494 -0.4947  0.6328
 2398SOL     OW 9664   4.225   2.809   3.574  0.4134 -0.2321  0.5898
 2398SOL    HW2 9665   4.228   2.882   3.636 -0.3581  0.1383  0.2002
 2398SOL    HW3 9666   4.148   2.758   3.601 -0.1412  0.1297 -0.2736
 2398SOL    MW4 9667   4.215   2.812   3.586  0.2384 -0.1359  0.4244
 2399SOL     OW 9668   0.455   3.756   4.108  0.1220 -0.0052 -0.4348
 2399SOL    HW2 9669   0.458   3.666   4.076 -0.1046 -0.3072  0.3673
 2399SOL    HW3 9670   0.366   3.786   4.089  0.0452 -0.1205 -0.2581
 2399SOL    MW4 9671   0.443   3.748   4.101  0.0820 -0.0601 -0.3057
 2400SOL     OW 9672   4.065   3.194   3.608 -0.1568 -0.1714 -0.1871
 2400SOL    HW2 9673   4.075   3.166   3.517 -0.8141  0.5165 -0.4721
 2400SOL    HW3 9674   4.131   3.143   3.656  0.3686 -0.3428 -1.0823
 2400SOL    MW4 9675   4.075   3.183   3.602 -0.1745 -0.1035 -0.3426
 2401SOL     OW 9676   2.451   3.103   3.741  0.1291 -0.2553  0.0901
 2401SOL    HW2 9677   2.453   3.008   3.726 -1.4548 -0.0891 -1.4866
 2401SOL    HW3 9678   2.529   3.136   3.697  1.8013 -1.0276  2.4276
 2401SOL    MW4 9679   2.461   3.095   3.733  0.1407 -0.3355  0.1907
 2402SOL     OW 9680   4.261   3.554   3.607  0.0840 -0.1722  0.5357
 2402SOL    HW2 9681   4.179   3.527   3.648  1.0076 -1.0925  1.8048
 2402SOL    HW3 9682   4.329   3.531   3.670  1.3307  0.6317 -0.4715
 2402SOL    MW4 9683   4.259   3.548   3.620  0.3700 -0.1876  0.5698
 2403SOL     OW 9684   0.028   3.657   4.609  0.4712 -0.1134 -0.1521
 2403SOL    HW2 9685   0.042   3.563   4.599 -0.8383 -0.4256  0.8353
 2403SOL    HW3 9686   0.116   3.694   4.612  1.0293 -1.4687  0.9067
 2403SOL    MW4 9687   0.041   3.649   4.608  0.3721 -0.3331  0.1183
 2404SOL     OW 9688   4.057   3.994   3.636  0.4574  0.1655 -0.1753
 2404SOL    HW2 9689   4.049   4.088   3.653 -1.4706 -0.0188  0.0552
 2404SOL    HW3 9690   4.044   3.986   3.541 -0.2103  0.0419 -0.0715
 2404SOL    MW4 9691   4.054   4.005   3.625  0.1159  0.1249 -0.1311
 2405SOL     OW 9692   3.553   1.155   3.671  0.2570  0.4376  0.5707
 2405SOL    HW2 9693   3.480   1.206   3.635  0.1257 -0.7853 -0.9235
 2405SOL    HW3 9694   3.631   1.197   3.635  0.2081  0.3769  0.3957
 2405SOL    MW4 9695   3.553   1.167   3.662  0.2334  0.2682  0.3505
 2406SOL     OW 9696   4.239   4.413   3.674  0.2238 -0.7268  0.2483
 2406SOL    HW2 9697   4.236   4.497   3.720  2.0834 -0.5102  0.0368
 2406SOL    HW3 9698   4.311   4.366   3.717 -1.3771 -2.5883  0.9641
 2406SOL    MW4 9699   4.248   4.418   3.686  0.2580 -0.9441  0.3152
 2407SOL     OW 9700   1.919   1.558   4.094 -0.3884  0.7636 -0.4271
 2407SOL    HW2 9701   1.872   1.476   4.111 -1.5003  0.8808 -2.7701
 2407SOL    HW3 9702   1.945   1.552   4.002  2.1911  1.7189  0.2146
 2407SOL    MW4 9703   1.916   1.546   4.084 -0.1947  0.9050 -0.6523
 2408SOL     OW 9704   2.499   3.882   3.701  0.5374 -0.2055 -0.4244
 2408SOL    HW2 9705   2.588   3.887   3.666  0.0770  1.6844 -1.4287
 2408SOL    HW3 9706   2.510   3.884   3.796  1.5361  1.0283 -0.5509
 2408SOL    MW4 9707   2.512   3.883   3.709  0.6084  0.2065 -0.5736
 2409SOL     OW 9708   0.003   4.023   3.641  0.3982 -0.2778 -0.0783
 2409SOL    HW2 9709  -0.073   3.967   3.659 -0.5964  0.7374 -1.0117
 2409SOL    HW3 9710   0.074   3.985   3.693 -0.8116 -1.0984  1.0142
 2409SOL    MW4 9711   0.002   4.011   3.650  0.1078 -0.2518 -0.0572
 2410SOL     OW 9712   0.632   0.934   4.336 -0.0677 -0.2520  0.1900
 2410SOL    HW2 9713   0.707   0.875   4.330 -0.4093 -0.5099 -1.9663
 2410SOL    HW3 9714   0.670   1.019   4.360  0.6721 -0.8171  1.0679
 2410SOL    MW4 9715   0.647   0.937   4.338 -0.0151 -0.3605  0.0210
 2411SOL     OW 9716   2.522   2.766   4.591 -0.1518 -0.0601 -0.2316
 2411SOL    HW2 9717   2.594   2.817   4.554  0.3802 -0.0226  0.8307
 2411SOL    HW3 9718   2.483   2.721   4.517  0.7065  0.2511 -0.8699
 2411SOL    MW4 9719   2.526   2.767   4.577  0.0317 -0.0141 -0.1760
 2412SOL     OW 9720   4.437   1.924   3.698 -0.3489  0.0661  0.3257
 2412SOL    HW2 9721   4.352   1.947   3.659  0.5192 -1.5037 -2.6518
 2412SOL    HW3 9722   4.432   1.957   3.787 -3.7745  0.7842 -0.0578
 2412SOL    MW4 9723   4.425   1.931   3.704 -0.6866 -0.0463 -0.1175
 2413SOL     OW 9724   1.939   1.272   4.435 -0.4580 -0.3207 -0.5939
 2413SOL    HW2 9725   1.865   1.230   4.479 -1.2857  0.6095 -1.0696
 2413SOL    HW3 9726   2.003   1.202   4.422 -1.9090 -1.4925 -1.6162
 2413SOL    MW4 9727   1.938   1.257   4.439 -0.7586 -0.3525 -0.7911
 2414SOL     OW 9728   2.888   4.653   0.688  0.1449 -0.2716  0.0157
 2414SOL    HW2 9729   2.885   4.651   0.783 -0.2171 -0.8087 -0.0040
 2414SOL    HW3 9730   2.815   4.598   0.660 -0.9714  1.4800 -0.5893
 2414SOL    MW4 9731   2.878   4.645   0.697 -0.0503 -0.1116 -0.0666
 2415SOL     OW 9732   2.262   2.533   4.006  0.6384  0.3134 -0.2665
 2415SOL    HW2 9733   2.308   2.450   4.009  1.3222  0.6812 -0.5431
 2415SOL    HW3 9734   2.173   2.513   4.036  0.5553 -0.6797 -1.1615
 2415SOL    MW4 9735   2.256   2.520   4.011  0.7176  0.2310 -0.4210
 2416SOL     OW 9736   3.158   0.328   3.712 -0.4753  0.0582 -0.6487
 2416SOL    HW2 9737   3.177   0.305   3.804 -0.9546 -0.0091 -0.5666
 2416SOL    HW3 9738   3.241   0.361   3.679  0.4013 -2.3098 -0.9203
 2416SOL    MW4 9739   3.172   0.329   3.720 -0.4230 -0.2632 -0.6735
 2417SOL     OW 9740   4.245   2.574   4.088  0.3446  0.3379  0.2978
 2417SOL    HW2 9741   4.230   2.540   4.176  3.3654 -2.1871 -0.0598
 2417SOL    HW3 9742   4.216   2.505   4.030 -1.9013  2.1097 -0.7609
 2417SOL    MW4 9743   4.239   2.561   4.092  0.4473  0.2389  0.1111
 2418SOL     OW 9744   1.137   3.873   4.019  0.3394  0.0759 -0.3671
 2418SOL    HW2 9745   1.130   3.887   3.925 -0.4105  3.2163  0.0914
 2418SOL    HW3 9746   1.212   3.814   4.030 -1.3928 -2.7939 -3.0535
 2418SOL    MW4 9747   1.146   3.867   4.008  0.0119  0.1113 -0.6609
 2419SOL     OW 9748   0.011   0.659   4.177 -0.2973  0.1347 -0.4488
 2419SOL    HW2 9749   0.047   0.574   4.202 -0.6913 -0.0444 -0.4810
 2419SOL    HW3 9750  -0.027   0.693   4.257  0.1756  0.4416 -0.3534
 2419SOL    MW4 9751   0.011   0.652   4.191 -0.2868  0.1515 -0.4406
 2420SOL     OW 9752   3.985   0.969   4.568 -0.1925  0.4727 -0.0330
 2420SOL    HW2 9753   4.033   0.944   4.647  1.0796  1.7909 -0.3693
 2420SOL    HW3 9754   3.932   0.892   4.547 -0.2528 -0.0289  1.8682
 2420SOL    MW4 9755   3.984   0.956   4.576 -0.0324  0.5804  0.1736
 2421SOL     OW 9756   2.832   0.813   3.987  0.4784 -0.2098  0.0937
 2421SOL    HW2 9757   2.921   0.804   4.021  0.3368  1.4450  0.9788
 2421SOL    HW3 9758   2.781   0.747   4.033  0.9356 -0.0695  0.8052
 2421SOL    MW4 9759   2.837   0.803   3.998  0.5200  0.0271  0.3045
 2422SOL     OW 9760   4.162   1.306   3.612 -0.0886 -0.3025  0.1664
 2422SOL    HW2 9761   4.166   1.320   3.517 -2.4422 -1.9496 -0.2240
 2422SOL    HW3 9762   4.228   1.240   3.629  0.7886  0.4622 -0.2133
 2422SOL    MW4 9763   4.171   1.299   3.602 -0.2832 -0.4189  0.0648
 2423SOL     OW 9764   2.778   0.200   4.654  0.1844 -0.1731 -0.1467
 2423SOL    HW2 9765   2.757   0.182   4.746 -0.7584 -0.7326 -0.4728
 2423SOL    HW3 9766   2.801   0.114   4.618 -1.3507 -0.2614 -0.9330
 2423SOL    MW4 9767   2.779   0.186   4.661 -0.1426 -0.2586 -0.2933
 2424SOL     OW 9768   2.912   3.077   3.715  0.4468 -0.0971 -0.6869
 2424SOL    HW2 9769   2.908   2.998   3.661 -0.9200  0.2123 -1.0556
 2424SOL    HW3 9770   2.912   3.045   3.805  0.9954 -0.5541 -0.8455
 2424SOL    MW4 9771   2.912   3.062   3.719  0.3388 -0.1166 -0.7563
 2425SOL     OW 9772   0.631   2.538   4.348  0.0867 -0.2797  0.3990
 2425SOL    HW2 9773   0.560   2.522   4.410 -0.0682  0.3216  0.3743
 2425SOL    HW3 9774   0.676   2.453   4.341  0.4334 -0.2145  1.7339
 2425SOL    MW4 9775   0.627   2.524   4.355  0.1120 -0.1919  0.5717
 2426SOL     OW 9776   2.801   1.191   4.312 -0.6083  0.1282 -0.1684
 2426SOL    HW2 9777   2.894   1.183   4.331 -0.3103  0.3117 -1.5236
 2426SOL    HW3 9778   2.781   1.283   4.330 -0.7403 -0.1213  1.0040
 2426SOL    MW4 9779   2.810   1.202   4.317 -0.5865  0.1193 -0.1922
 2427SOL     OW 9780   2.593   1.017   4.362 -0.6818  0.0091 -0.3277
 2427SOL    HW2 9781   2.676   1.062   4.346 -0.2418 -0.2171  1.2624
 2427SOL    HW3 9782   2.538   1.083   4.404 -1.0112 -0.1031 -0.5838
 2427SOL    MW4 9783   2.597   1.032   4.365 -0.6669 -0.0354 -0.1521
 2428SOL     OW 9784   0.942   3.583   4.541 -0.1544  0.2350 -0.4846
 2428SOL    HW2 9785   0.865   3.525   4.540 -0.5713  0.7811 -0.4134
 2428SOL    HW3 9786   0.917   3.656   4.485  0.0236  0.7876  0.1519
 2428SOL    MW4 9787   0.928   3.585   4.534 -0.1858  0.3800 -0.3910
 2429SOL     OW 9788   1.999   3.098   4.494  0.3111  0.1310  0.3775
 2429SOL    HW2 9789   2.030   3.053   4.573  1.2169  0.3079  0.1345
 2429SOL    HW3 9790   2.055   3.064   4.424 -0.2922  0.1927 -0.1422
 2429SOL    MW4 9791   2.011   3.088   4.495  0.3510  0.1624  0.2766
 2430SOL     OW 9792   1.713   0.189   4.324  0.1244 -0.5220  0.6447
 2430SOL    HW2 9793   1.691   0.280   4.342 -1.8170 -0.6758 -0.7117
 2430SOL    HW3 9794   1.655   0.165   4.251  1.6000 -2.4115  0.0615
 2430SOL    MW4 9795   1.702   0.198   4.317  0.0629 -0.7916  0.3886
 2431SOL     OW 9796   3.866   1.223   4.463 -0.3595 -0.2645  0.5665
 2431SOL    HW2 9797   3.891   1.139   4.502 -0.9358 -0.7410 -0.0835
 2431SOL    HW3 9798   3.798   1.201   4.399 -1.2088  0.8144  1.0747
 2431SOL    MW4 9799   3.860   1.209   4.460 -0.5474 -0.1850  0.5479
 2432SOL     OW 9800   4.386   3.497   4.382  0.2554  0.9158 -0.2948
 2432SOL    HW2 9801   4.433   3.450   4.451 -0.4556 -0.1273 -0.5128
 2432SOL    HW3 9802   4.400   3.590   4.403  2.3385  0.6366 -0.3150
 2432SOL    MW4 9803   4.394   3.503   4.394  0.4363  0.7412 -0.3257
 2433SOL     OW 9804   1.024   1.960   4.235 -0.3988  0.7702 -0.1772
 2433SOL    HW2 9805   0.988   2.045   4.207 -1.7778  0.6073  1.0418
 2433SOL    HW3 9806   0.949   1.915   4.274  0.4043 -0.8980 -0.5481
 2433SOL    MW4 9807   1.009   1.965   4.236 -0.4747  0.5286 -0.0653
 2434SOL     OW 9808   1.042   0.436   4.471  0.4377  0.2698 -0.4869
 2434SOL    HW2 9809   1.091   0.510   4.434  0.4818  0.0779 -0.8151
 2434SOL    HW3 9810   0.950   0.461   4.463  0.3336 -0.7278 -2.8182
 2434SOL    MW4 9811   1.037   0.449   4.465  0.4297  0.1129 -0.8373
 2435SOL     OW 9812   1.525   4.081   4.110 -0.1341 -0.1049 -0.2069
 2435SOL    HW2 9813   1.597   4.128   4.067 -0.0855  0.1710  0.1720
 2435SOL    HW3 9814   1.538   4.099   4.203 -0.3872 -0.4896 -0.0979
 2435SOL    MW4 9815   1.536   4.090   4.116 -0.1611 -0.1183 -0.1431
 2436SOL     OW 9816   1.839   2.096   4.518  0.1383 -0.2315 -0.0134
 2436SOL    HW2 9817   1.820   2.184   4.487 -0.1156  0.4500  2.0170
 2436SOL    HW3 9818   1.932   2.099   4.543  0.1856 -0.5996 -0.1406
 2436SOL    MW4 9819   1.849   2.108   4.518  0.1110 -0.1898  0.2379
 2437SOL     OW 9820   2.163   4.255   3.997  0.3013  0.4692  0.1510
 2437SOL    HW2 9821   2.232   4.191   4.013  0.4401  0.6017  0.0854
 2437SOL    HW3 9822   2.197   4.336   4.035  0.4204  0.6674 -0.3800
 2437SOL    MW4 9823   2.177   4.257   4.004  0.3355  0.5126  0.0725
 2438SOL     OW 9824   3.813   3.868   3.688 -0.0076 -0.6706 -0.2668
 2438SOL    HW2 9825   3.812   3.863   3.784 -1.6688 -0.3093 -0.2520
 2438SOL    HW3 9826   3.900   3.904   3.668 -0.1154  0.4928  1.1793
 2438SOL    MW4 9827   3.825   3.872   3.698 -0.2410 -0.4694 -0.0739
 2439SOL     OW 9828   3.219   1.891   4.601  0.3681 -0.2967 -0.0364
 2439SOL    HW2 9829   3.278   1.963   4.623  0.9935 -0.8089 -0.0431
 2439SOL    HW3 9830   3.175   1.921   4.521  0.3357  0.2487  0.1810
 2439SOL    MW4 9831   3.221   1.905   4.593  0.4463 -0.2924 -0.0091
 2440SOL     OW 9832   2.606   1.678   3.612 -0.8238 -0.2518 -0.2750
 2440SOL    HW2 9833   2.631   1.762   3.649 -0.7890  0.2045 -1.3135
 2440SOL    HW3 9834   2.672   1.617   3.645  0.3138  0.5057 -1.1104
 2440SOL    MW4 9835   2.618   1.681   3.621 -0.6690 -0.0916 -0.5221
 2441SOL     OW 9836   2.497   1.011   4.089  0.2298  0.2772  0.1959
 2441SOL    HW2 9837   2.578   1.030   4.041  1.0344 -2.0530  0.5509
 2441SOL    HW3 9838   2.523   1.018   4.181 -0.7053  2.3607  0.3129
 2441SOL    MW4 9839   2.511   1.014   4.095  0.2127  0.2446  0.2584
 2442SOL     OW 9840   0.872   0.376   4.088  0.0996  0.2599 -0.0959
 2442SOL    HW2 9841   0.801   0.334   4.136  2.1542 -0.0876  2.8084
 2442SOL    HW3 9842   0.877   0.464   4.126  0.5605  0.6198 -0.9858
 2442SOL    MW4 9843   0.864   0.382   4.099  0.4315  0.2616  0.1693
 2443SOL     OW 9844   2.694   3.482   4.030 -0.0600  0.2839 -0.1577
 2443SOL    HW2 9845   2.623   3.441   4.081  0.2011  1.5692  1.2930
 2443SOL    HW3 9846   2.773   3.436   4.058  0.1464  1.2959  0.9928
 2443SOL    MW4 9847   2.695   3.471   4.041  0.0021  0.5870  0.1855
 2444SOL     OW 9848   1.797   4.241   3.748 -0.2962  0.3133 -0.0818
 2444SOL    HW2 9849   1.793   4.158   3.701  0.4381  0.5681 -0.6043
 2444SOL    HW3 9850   1.876   4.283   3.716 -0.6659  1.2229  0.1720
 2444SOL    MW4 9851   1.807   4.236   3.738 -0.2482  0.4668 -0.1173
 2445SOL     OW 9852   4.127   2.489   4.642  0.3291 -0.3004 -0.2174
 2445SOL    HW2 9853   4.144   2.476   4.549 -0.4318  0.2071 -0.4272
 2445SOL    HW3 9854   4.092   2.405   4.673  0.4873 -0.4352 -0.4078
 2445SOL    MW4 9855   4.125   2.476   4.634  0.2494 -0.2511 -0.2699
 2446SOL     OW 9856   0.917   3.467   3.716 -0.1156 -0.5440 -0.3702
 2446SOL    HW2 9857   0.839   3.509   3.680  0.8224  0.2374 -1.5445
 2446SOL    HW3 9858   0.903   3.465   3.810 -0.9171  0.8775 -0.4573
 2446SOL    MW4 9859   0.905   3.472   3.723 -0.0976 -0.2532 -0.5367
 2447SOL     OW 9860   1.376   4.224   3.748 -0.7889  0.2662  0.1101
 2447SOL    HW2 9861   1.451   4.281   3.731 -1.3315  0.7410 -0.6962
 2447SOL    HW3 9862   1.374   4.216   3.843  1.5910 -1.5206  0.0543
 2447SOL    MW4 9863   1.385   4.231   3.758 -0.5465  0.0935 -0.0036
 2448SOL     OW 9864   3.097   1.224   4.344  0.5716  0.5528 -0.2644
 2448SOL    HW2 9865   3.144   1.255   4.266  0.8143  1.0962  0.0943
 2448SOL    HW3 9866   3.089   1.302   4.399 -2.6596  1.0023 -1.2571
 2448SOL    MW4 9867   3.103   1.238   4.341  0.1771  0.6838 -0.3481
 2449SOL     OW 9868   2.811   1.540   3.722  0.3001  0.2430 -0.2441
 2449SOL    HW2 9869   2.842   1.449   3.718 -0.7549 -0.1454  0.0616
 2449SOL    HW3 9870   2.783   1.551   3.813  1.2306  1.1541 -0.0612
 2449SOL    MW4 9871   2.812   1.529   3.734  0.2837  0.3120 -0.1800
 2450SOL     OW 9872   3.218   0.169   4.408 -0.1732  0.0529  0.1374
 2450SOL    HW2 9873   3.294   0.224   4.427 -0.0643 -0.4627  1.2103
 2450SOL    HW3 9874   3.153   0.194   4.473 -0.5464 -0.2548 -0.1134
 2450SOL    MW4 9875   3.220   0.180   4.419 -0.2081 -0.0558  0.2456
 2451SOL     OW 9876   0.003   4.229   4.048 -0.4196 -0.0499  0.1709
 2451SOL    HW2 9877   0.011   4.322   4.072 -1.5156 -0.0715  0.6823
 2451SOL    HW3 9878   0.010   4.228   3.952  1.8753  0.2873  0.3150
 2451SOL    MW4 9879   0.005   4.241   4.038 -0.2618 -0.0076  0.2575
 2452SOL     OW 9880   3.267   3.570   4.439  0.0038 -0.0997  0.1456
 2452SOL    HW2 9881   3.290   3.479   4.416  0.5766 -0.0786  0.6144
 2452SOL    HW3 9882   3.334   3.623   4.396 -0.2748  0.0977 -0.0454
 2452SOL    MW4 9883   3.279   3.565   4.430  0.0427 -0.0708  0.1822
 2453SOL     OW 9884   0.573   1.768   4.149 -0.1026  0.1853 -0.3190
 2453SOL    HW2 9885   0.592   1.685   4.106 -1.1220 -0.8839  1.2366
 2453SOL    HW3 9886   0.530   1.821   4.082  0.5106 -0.5657 -1.3016
 2453SOL    MW4 9887   0.570   1.764   4.135 -0.1562 -0.0548 -0.2427
 2454SOL     OW 9888   0.696   3.417   4.550  0.1653 -0.3200  0.4568
 2454SOL    HW2 9889   0.612   3.458   4.570 -0.4189 -0.7668 -1.0118
 2454SOL    HW3 9890   0.673   3.334   4.507  1.3486 -0.6570  0.4495
 2454SOL    MW4 9891   0.682   3.412   4.547  0.2444 -0.4234  0.2618
 2455SOL     OW 9892   3.417   0.347   4.509  0.6509  0.2823 -0.2404
 2455SOL    HW2 9893   3.371   0.344   4.592  1.1512  1.8240  0.1023
 2455SOL    HW3 9894   3.507   0.322   4.531  0.3599 -1.2403 -0.6632
 2455SOL    MW4 9895   3.423   0.343   4.523  0.6785  0.2848 -0.2508
 2456SOL     OW 9896   2.671   3.136   4.374  0.1822 -0.0505  0.2334
 2456SOL    HW2 9897   2.699   3.072   4.440 -0.3391  0.1417  0.6406
 2456SOL    HW3 9898   2.578   3.150   4.392  0.4955  1.5107  0.7195
 2456SOL    MW4 9899   2.662   3.129   4.385  0.1547  0.1807  0.3514
 2457SOL     OW 9900   2.088   2.073   4.144  0.1994  0.5389 -0.1455
 2457SOL    HW2 9901   2.055   1.998   4.193  2.6588 -0.1228  0.5620
 2457SOL    HW3 9902   2.105   2.140   4.211  1.6368  0.3449 -0.2950
 2457SOL    MW4 9903   2.086   2.072   4.159  0.7133  0.4261 -0.0720
 2458SOL     OW 9904   3.142   3.191   3.578 -0.0789 -0.4028 -0.0752
 2458SOL    HW2 9905   3.076   3.152   3.635 -0.1522 -0.7075 -0.3712
 2458SOL    HW3 9906   3.163   3.275   3.619 -0.7101 -0.2708 -0.0291
 2458SOL    MW4 9907   3.136   3.197   3.591 -0.1719 -0.4258 -0.1082
 2459SOL     OW 9908   2.198   2.670   3.745  0.2119 -0.1319 -0.3220
 2459SOL    HW2 9909   2.207   2.584   3.703  2.8980  0.1285 -0.3585
 2459SOL    HW3 9910   2.212   2.652   3.838 -1.8157 -0.0921  0.0217
 2459SOL    MW4 9911   2.201   2.656   3.752  0.2987 -0.0923 -0.2813
 2460SOL     OW 9912   1.154   3.072   3.978 -0.1801  0.4402  0.5418
 2460SOL    HW2 9913   1.183   3.056   3.889  0.4385  2.1846  0.4124
 2460SOL    HW3 9914   1.076   3.018   3.988  0.1044 -0.2353 -0.8511
 2460SOL    MW4 9915   1.147   3.063   3.968 -0.0609  0.5810  0.3409
 2461SOL     OW 9916   3.171   0.959   4.442  0.2571  0.4147  0.3199
 2461SOL    HW2 9917   3.145   1.047   4.416  0.9907  0.1251 -1.4733
 2461SOL    HW3 9918   3.265   0.965   4.456  0.6688 -0.5304 -1.8352
 2461SOL    MW4 9919   3.180   0.971   4.441  0.4084  0.2518 -0.2007
 2462SOL     OW 9920   2.277   4.005   4.537 -0.1859 -0.6542 -0.4724
 2462SOL    HW2 9921   2.300   3.936   4.599 -0.7379  1.0561  1.6743
 2462SOL    HW3 9922   2.182   3.995   4.525 -0.1036 -0.8918 -0.9252
 2462SOL    MW4 9923   2.267   3.994   4.543 -0.2480 -0.4601 -0.2489
 2463SOL     OW 9924   2.011   3.983   4.500 -0.4783 -0.2129  0.5293
 2463SOL    HW2 9925   2.024   4.056   4.440 -0.8011  0.2247  0.9838
 2463SOL    HW3 9926   1.930   4.004   4.546  0.6382  0.2937  2.3053
 2463SOL    MW4 9927   2.002   3.996   4.498 -0.3738 -0.0882  0.8240
 2464SOL     OW 9928   2.336   4.638   4.356 -0.2293 -0.1880  0.1325
 2464SOL    HW2 9929   2.417   4.587   4.357 -0.1816 -0.1294 -0.5391
 2464SOL    HW3 9930   2.277   4.591   4.415  0.5210  0.1508  1.1701
 2464SOL    MW4 9931   2.339   4.625   4.364 -0.1242 -0.1354  0.1812
 2465SOL     OW 9932   1.816   1.060   4.045 -0.2247  0.1992 -0.2449
 2465SOL    HW2 9933   1.738   1.013   4.073 -0.7698 -0.3575 -2.5889
 2465SOL    HW3 9934   1.807   1.068   3.950  2.0263  1.1091 -0.4255
 2465SOL    MW4 9935   1.805   1.055   4.036  0.0002  0.2457 -0.5784
 2466SOL     OW 9936   2.137   1.581   4.285  0.3423  0.1429  0.1526
 2466SOL    HW2 9937   2.063   1.561   4.227  0.1403 -1.2048  0.8735
 2466SOL    HW3 9938   2.192   1.504   4.280  1.3921  0.8890  0.1299
 2466SOL    MW4 9939   2.134   1.568   4.277  0.4542  0.0637  0.2446
 2467SOL     OW 9940   0.665   0.757   4.028  0.2457 -0.0359  0.0064
 2467SOL    HW2 9941   0.659   0.736   3.935  0.2460 -1.3944  0.2987
 2467SOL    HW3 9942   0.646   0.850   4.033  0.0750  0.0108 -1.3348
 2467SOL    MW4 9943   0.662   0.766   4.016  0.2231 -0.2089 -0.1321
 2468SOL     OW 9944   3.984   1.461   4.112  0.3040  0.7089 -0.1084
 2468SOL    HW2 9945   4.022   1.453   4.200 -0.3782  0.4432  0.1606
 2468SOL    HW3 9946   4.060   1.472   4.055  0.8008  0.1096  0.4226
 2468SOL    MW4 9947   3.999   1.461   4.116  0.2797  0.5947 -0.0033
 2469SOL     OW 9948   3.955   1.974   3.637  0.0365 -0.2688 -0.0755
 2469SOL    HW2 9949   3.924   2.005   3.722 -0.8152 -0.6079 -0.2521
 2469SOL    HW3 9950   3.987   1.886   3.653 -1.1944 -0.7781 -0.3066
 2469SOL    MW4 9951   3.955   1.967   3.650 -0.2384 -0.3809 -0.1297
 2470SOL     OW 9952   0.879   3.446   3.994  0.3967  0.3152  0.1589
 2470SOL    HW2 9953   0.889   3.536   4.024  0.6599 -0.2461  1.8693
 2470SOL    HW3 9954   0.801   3.414   4.039  0.3750 -0.3384 -0.3375
 2470SOL    MW4 9955   0.870   3.453   4.004  0.4285  0.1550  0.3195
 2471SOL     OW 9956   2.947   3.340   4.082  0.1120  0.0447 -0.4463
 2471SOL    HW2 9957   2.931   3.257   4.038  1.9111 -1.4159  1.5393
 2471SOL    HW3 9958   2.919   3.325   4.173 -0.7853  2.0354 -0.3671
 2471SOL    MW4 9959   2.941   3.327   4.089  0.2313  0.1149 -0.1736
 2472SOL     OW 9960   1.710   1.647   4.449  0.6258  0.0390 -0.0131
 2472SOL    HW2 9961   1.745   1.703   4.379  0.9532  0.7349  0.7031
 2472SOL    HW3 9962   1.786   1.626   4.503  0.2874 -0.0809  0.4166
 2472SOL    MW4 9963   1.725   1.652   4.447  0.6243  0.1150  0.1378
 2473SOL     OW 9964   1.967   4.125   4.139 -0.0498  0.2329  0.3002
 2473SOL    HW2 9965   2.026   4.186   4.094 -1.6519  0.5399 -1.4265
 2473SOL    HW3 9966   1.998   4.038   4.114  0.3731  0.3705  0.3383
 2473SOL    MW4 9967   1.979   4.122   4.130 -0.2055  0.2918  0.0772
 2474SOL     OW 9968   3.844   3.088   3.738  0.1714  0.0997 -0.0751
 2474SOL    HW2 9969   3.768   3.133   3.702  0.5645  0.8263 -0.0171
 2474SOL    HW3 9970   3.918   3.123   3.687  0.4664 -0.5743 -0.1111
 2474SOL    MW4 9971   3.844   3.099   3.726  0.2623  0.1066 -0.0722
 2475SOL     OW 9972   3.314   4.190   4.125  0.4731  0.2447  0.4852
 2475SOL    HW2 9973   3.330   4.203   4.218 -0.0485 -0.8692  0.7379
 2475SOL    HW3 9974   3.386   4.235   4.081 -0.0295  1.9767  1.3827
 2475SOL    MW4 9975   3.325   4.198   4.131  0.3381  0.3262  0.6375
 2476SOL     OW 9976   0.217   2.601   4.096  0.8604 -0.2523 -0.2655
 2476SOL    HW2 9977   0.140   2.658   4.088 -0.4644 -1.9143  0.2476
 2476SOL    HW3 9978   0.291   2.656   4.071 -0.3924  1.6636  0.1465
 2476SOL    MW4 9979   0.216   2.616   4.092  0.5203 -0.2189 -0.1435
 2477SOL     OW 9980   2.436   3.119   4.010  0.2106  0.4825 -0.2145
 2477SOL    HW2 9981   2.451   3.113   3.915  0.6368 -0.3064 -0.1020
 2477SOL    HW3 9982   2.516   3.083   4.049  0.0068  0.7391  0.4465
 2477SOL    MW4 9983   2.448   3.114   4.003  0.2401  0.4120 -0.1125
 2478SOL     OW 9984   3.703   1.404   4.622 -0.2234  0.2684 -0.2981
 2478SOL    HW2 9985   3.774   1.353   4.585  1.3025  1.0738  1.4678
 2478SOL    HW3 9986   3.627   1.346   4.617  1.2027 -1.7403  0.5297
 2478SOL    MW4 9987   3.702   1.390   4.616  0.1659  0.1097  0.0443
 2479SOL     OW 9988   2.173   2.988   4.302 -0.3109 -0.1431 -0.5346
 2479SOL    HW2 9989   2.253   3.025   4.338  0.5328 -0.8472 -1.6099
 2479SOL    HW3 9990   2.175   2.896   4.328 -0.5790 -0.2509 -0.8794
 2479SOL    MW4 9991   2.184   2.980   4.310 -0.2348 -0.2501 -0.7219
 2480SOL     OW 9992   3.751   1.619   3.997 -0.1914 -0.3089  0.6786
 2480SOL    HW2 9993   3.669   1.573   4.015  0.3221 -1.7818 -0.5879
 2480SOL    HW3 9994   3.818   1.568   4.043  0.0424  0.7718  1.5469
 2480SOL    MW4 9995   3.749   1.606   4.005 -0.0930 -0.3606  0.6261
 2481SOL     OW 9996   1.534   2.570   4.165  0.7560 -0.2533 -0.2226
 2481SOL    HW2 9997   1.549   2.485   4.207  1.4399  0.0156  0.0873
 2481SOL    HW3 9998   1.610   2.582   4.109  0.1891 -0.2785 -0.9937
 2481SOL    MW4 9999   1.546   2.560   4.163  0.7715 -0.2213 -0.2842
 2482SOL     OW10000   2.736   0.579   4.332  0.3501  0.4266 -0.4059
 2482SOL    HW210001   2.715   0.598   4.241 -0.7462  0.2564 -0.1975
 2482SOL    HW310002   2.711   0.487   4.344 -0.5945  0.7709  0.3608
 2482SOL    MW410003   2.730   0.569   4.322  0.0808  0.4496 -0.2775
 2483SOL     OW10004   3.049   3.746   4.396  0.1087  0.1343 -0.3751
 2483SOL    HW210005   2.965   3.704   4.416  0.1127 -0.2928 -1.2113
 2483SOL    HW310006   3.115   3.685   4.426  0.1179  0.2772 -0.1056
 2483SOL    MW410007   3.046   3.733   4.403  0.1104  0.0966 -0.4492
 2484SOL     OW10008   0.031   2.902   4.641 -0.1766  0.6237  0.0053
 2484SOL    HW210009  -0.039   2.837   4.645  0.0786  0.4051  1.3503
 2484SOL    HW310010  -0.013   2.986   4.655 -0.0764  0.3951  1.9658
 2484SOL    MW410011   0.016   2.904   4.644 -0.1297  0.5648  0.4411
 2485SOL     OW10012   1.102   4.136   4.145  0.4423 -0.1315  0.0131
 2485SOL    HW210013   1.182   4.176   4.112  0.7563 -0.1395  0.7516
 2485SOL    HW310014   1.105   4.046   4.111 -0.4645  0.5604 -1.9743
 2485SOL    MW410015   1.113   4.129   4.136  0.3639 -0.0415 -0.1521
 2486SOL     OW10016   1.734   2.363   4.421 -0.0314  0.0308 -0.2607
 2486SOL    HW210017   1.682   2.436   4.453  1.4371  1.0923 -0.2661
 2486SOL    HW310018   1.688   2.333   4.342 -0.3017  1.3279 -0.6018
 2486SOL    MW410019   1.721   2.369   4.415  0.1267  0.3424 -0.3066
 2487SOL     OW10020   3.779   3.423   4.089  0.1517 -0.1533 -0.0332
 2487SOL    HW210021   3.763   3.329   4.088  1.9490 -0.5165  1.4722
 2487SOL    HW310022   3.758   3.450   4.178 -0.3858  0.8702 -0.4687
 2487SOL    MW410023   3.774   3.414   4.101  0.3178 -0.0663  0.1082
 2488SOL     OW10024   2.878   3.800   3.742 -0.3849  0.2654  0.1754
 2488SOL    HW210025   2.881   3.711   3.708 -1.2906 -0.0004  0.7878
 2488SOL    HW310026   2.967   3.834   3.727 -0.6607  0.0639 -2.1852
 2488SOL    MW410027   2.890   3.793   3.735 -0.5407  0.2038 -0.0551
 2489SOL     OW10028   3.093   2.024   4.368  0.2806  0.7568 -0.0455
 2489SOL    HW210029   3.176   2.059   4.338  0.8091 -0.0889  0.4105
 2489SOL    HW310030   3.038   2.101   4.383  0.2835  1.2359 -2.3030
 2489SOL    MW410031   3.097   2.039   4.366  0.3510  0.7086 -0.2837
 2490SOL     OW10032   2.903   1.241   4.050  0.1268  0.6470 -0.2651
 2490SOL    HW210033   2.861   1.227   4.135  2.3138 -0.6063  0.6507
 2490SOL    HW310034   2.974   1.177   4.048  0.9225  1.5713 -2.4813
 2490SOL    MW410035   2.907   1.231   4.061  0.5202  0.6037 -0.4368
 2491SOL     OW10036   3.719   1.635   4.311 -0.1853 -0.0775  0.0360
 2491SOL    HW210037   3.683   1.547   4.306 -0.7703  0.1822 -0.3053
 2491SOL    HW310038   3.719   1.656   4.405  1.3934 -1.0288  0.2713
 2491SOL    MW410039   3.714   1.626   4.323 -0.0541 -0.1687  0.0219
 2492SOL     OW10040   3.036   0.290   4.581 -0.0201 -0.1780 -0.1123
 2492SOL    HW210041   2.956   0.264   4.627  0.8481 -1.3877  0.7384
 2492SOL    HW310042   3.008   0.360   4.522 -1.5601 -0.0477  0.7423
 2492SOL    MW410043   3.022   0.296   4.580 -0.1087 -0.3204  0.1125
 2493SOL     OW10044   0.037   1.439   4.277 -0.1539  0.5775  0.1947
 2493SOL    HW210045   0.036   1.352   4.316 -1.6437  0.6420  0.3276
 2493SOL    HW310046   0.100   1.488   4.330 -0.6692  0.0931  1.2685
 2493SOL    MW410047   0.045   1.434   4.289 -0.4185  0.5221  0.3538
 2494SOL     OW10048   0.781   1.845   4.328 -0.0308 -0.4963  0.3216
 2494SOL    HW210049   0.809   1.762   4.367 -0.9950 -1.3454 -0.7430
 2494SOL    HW310050   0.723   1.819   4.256  1.8325  1.0287 -1.7786
 2494SOL    MW410051   0.777   1.831   4.324  0.0879 -0.4071 -0.0958
 2495SOL     OW10052   3.744   2.682   4.424  0.2499  0.3552  0.2365
 2495SOL    HW210053   3.660   2.643   4.450  0.5238 -0.0719  0.4748
 2495SOL    HW310054   3.719   2.758   4.371 -0.2867  0.0580  0.0547
 2495SOL    MW410055   3.729   2.687   4.420  0.2151  0.2594  0.2441
 2496SOL     OW10056   2.423   0.764   4.003  0.3361  0.3342 -0.1868
 2496SOL    HW210057   2.448   0.845   4.048  0.8130 -0.3945  0.8939
 2496SOL    HW310058   2.345   0.734   4.049  0.6362 -0.2460 -0.0467
 2496SOL    MW410059   2.416   0.770   4.015  0.4387  0.1614 -0.0257
 2497SOL     OW10060   4.246   4.653   4.065 -0.3604  0.0277  0.0056
 2497SOL    HW210061   4.246   4.695   4.152 -0.7217  1.3720 -0.6321
 2497SOL    HW310062   4.314   4.586   4.071  1.5425  1.9324  0.4814
 2497SOL    MW410063   4.255   4.650   4.078 -0.1564  0.4559 -0.0153
 2498SOL     OW10064   1.096   0.175   4.384 -0.0558  0.4528  0.3381
 2498SOL    HW210065   1.059   0.255   4.421  0.4248  0.1768  1.4389
 2498SOL    HW310066   1.188   0.176   4.412  0.2179  0.0416 -0.5330
 2498SOL    MW410067   1.103   0.186   4.392  0.0437  0.3622  0.3686
 2499SOL     OW10068   3.581   3.451   3.714  0.5389  0.4245 -0.1074
 2499SOL    HW210069   3.569   3.466   3.808  1.1337 -0.8378  0.1866
 2499SOL    HW310070   3.664   3.493   3.693 -0.0593  1.5316 -0.2723
 2499SOL    MW410071   3.590   3.458   3.723  0.5386  0.4041 -0.0906
 2500SOL     OW10072   2.685   3.716   4.154 -0.1744 -0.0754  0.0552
 2500SOL    HW210073   2.677   3.636   4.101  0.1182 -0.2303  0.2480
 2500SOL    HW310074   2.755   3.765   4.112  0.0893 -0.2187  0.3208
 2500SOL    MW410075   2.693   3.712   4.141 -0.1011 -0.1147  0.1154
 2501SOL     OW10076   1.452   0.644   4.383 -0.0826  0.0887 -0.5878
 2501SOL    HW210077   1.503   0.725   4.383 -1.2156  0.8287  0.6687
 2501SOL    HW310078   1.518   0.574   4.382  0.9227  1.0296 -0.4771
 2501SOL    MW410079   1.468   0.645   4.383 -0.0995  0.3105 -0.4072
 2502SOL     OW10080   2.816   2.320   3.751 -0.0094  0.3645 -0.1535
 2502SOL    HW210081   2.890   2.380   3.763  1.1373 -1.2276  1.0433
 2502SOL    HW310082   2.767   2.325   3.833 -0.2801  0.1530 -0.3006
 2502SOL    MW410083   2.820   2.329   3.763  0.1061  0.1264 -0.0153
 2503SOL     OW10084   2.652   3.462   3.747 -0.0536  0.2053  0.3895
 2503SOL    HW210085   2.737   3.489   3.715 -0.4385  0.2921 -0.5649
 2503SOL    HW310086   2.661   3.461   3.842  1.7073 -2.0411  0.2471
 2503SOL    MW410087   2.664   3.465   3.755  0.1283 -0.0799  0.2451
 2504SOL     OW10088   3.228   0.269   3.965  0.0597  0.2205 -0.1372
 2504SOL    HW210089   3.166   0.294   4.033  0.3775  0.7549 -0.0354
 2504SOL    HW310090   3.305   0.324   3.981  1.0839 -1.3858  0.5501
 2504SOL    MW410091   3.230   0.280   3.976  0.2367  0.0791 -0.0331
 2505SOL     OW10092   2.135   0.244   4.022  0.2464 -0.3781  0.3923
 2505SOL    HW210093   2.162   0.299   3.949  1.0966 -0.6776  0.4742
 2505SOL    HW310094   2.119   0.306   4.094 -0.7632 -0.0726 -0.0929
 2505SOL    MW410095   2.136   0.260   4.022  0.2253 -0.3773  0.3390
 2506SOL     OW10096   0.559   3.713   4.373 -0.4256 -0.2220 -0.6482
 2506SOL    HW210097   0.653   3.721   4.356 -0.1399 -2.1349 -0.0791
 2506SOL    HW310098   0.519   3.713   4.286  0.0636  0.9813 -0.8779
 2506SOL    MW410099   0.566   3.714   4.359 -0.3233 -0.3157 -0.6027
 2507SOL     OW10100   3.804   3.887   3.963  0.0891  0.0814  0.1943
 2507SOL    HW210101   3.725   3.846   3.997 -0.6026  0.4301 -0.9510
 2507SOL    HW310102   3.876   3.833   3.996 -0.7212 -1.1622 -0.0481
 2507SOL    MW410103   3.803   3.875   3.972 -0.1090 -0.0365  0.0110
 2508SOL     OW10104   3.904   4.337   4.423  0.0070 -0.4215  0.0905
 2508SOL    HW210105   3.865   4.254   4.450 -0.0023 -0.2468  0.6145
 2508SOL    HW310106   3.870   4.352   4.335  0.7096 -1.4137 -0.3662
 2508SOL    MW410107   3.895   4.328   4.415  0.0982 -0.5288  0.0992
 2509SOL     OW10108   2.417   2.053   3.613 -0.1714 -0.2371 -0.1608
 2509SOL    HW210109   2.342   2.006   3.650 -0.5349 -0.0285 -0.6313
 2509SOL    HW310110   2.405   2.143   3.641 -0.9510  0.1047 -1.5607
 2509SOL    MW410111   2.406   2.058   3.622 -0.3221 -0.1645 -0.4077
 2510SOL     OW10112   1.333   4.254   4.050  0.3294 -0.3505  0.1227
 2510SOL    HW210113   1.332   4.332   4.106  1.6057 -1.0726  1.1779
 2510SOL    HW310114   1.403   4.200   4.086 -0.6597 -2.0696 -0.4893
 2510SOL    MW410115   1.342   4.257   4.062  0.3673 -0.6728  0.1812
 2511SOL     OW10116   1.213   3.946   4.533  0.2075 -0.0574 -0.2627
 2511SOL    HW210117   1.148   3.933   4.602 -1.1910  1.2433 -1.2953
 2511SOL    HW310118   1.194   3.878   4.468 -0.2462  0.4271 -0.6438
 2511SOL    MW410119   1.202   3.935   4.533 -0.0367  0.1781 -0.4497
 2512SOL     OW10120   0.659   2.319   3.993  0.0019 -0.3409 -0.1660
 2512SOL    HW210121   0.643   2.323   3.899 -0.0906  2.9702 -0.0671
 2512SOL    HW310122   0.581   2.276   4.029 -1.2940  1.0039 -1.3152
 2512SOL    MW410123   0.646   2.314   3.985 -0.1813  0.2737 -0.3047
 2513SOL     OW10124   2.065   1.856   4.338  0.1654  0.1585 -0.0805
 2513SOL    HW210125   2.112   1.774   4.350 -1.8055 -0.7212  2.2529
 2513SOL    HW310126   1.979   1.830   4.306 -0.3022  1.3460  0.1754
 2513SOL    MW410127   2.060   1.842   4.336 -0.1564  0.1991  0.2608
 2514SOL     OW10128   3.137   1.893   3.263 -0.0787  0.0470 -0.1548
 2514SOL    HW210129   3.053   1.926   3.295  0.0368  0.7721 -0.5799
 2514SOL    HW310130   3.144   1.805   3.300 -0.8705  0.1094  0.1574
 2514SOL    MW410131   3.127   1.886   3.272 -0.1678  0.1509 -0.1698
 2515SOL     OW10132   1.326   2.685   3.997  0.0738  0.3093  0.2652
 2515SOL    HW210133   1.244   2.640   4.013 -0.0195  0.3781 -0.0142
 2515SOL    HW310134   1.391   2.636   4.048  0.1451 -0.7176 -0.7986
 2515SOL    MW410135   1.324   2.673   4.006  0.0709  0.1829  0.0873
 2516SOL     OW10136   2.653   2.452   3.981  0.3673 -0.0785  0.0431
 2516SOL    HW210137   2.637   2.410   4.066 -2.6553 -0.0329 -0.4589
 2516SOL    HW310138   2.684   2.539   4.004 -2.0740  0.5405  1.1567
 2516SOL    MW410139   2.655   2.458   3.996 -0.3538  0.0091  0.1237
 2517SOL     OW10140   3.288   4.567   4.431  0.6450 -0.7145 -0.1567
 2517SOL    HW210141   3.275   4.662   4.434  1.9821 -0.5295  0.4839
 2517SOL    HW310142   3.201   4.531   4.414 -0.1689  0.5382  1.1990
 2517SOL    MW410143   3.275   4.575   4.429  0.7141 -0.5250  0.1063
 2518SOL     OW10144   3.790   1.563   3.719 -0.1378  0.2918  0.3462
 2518SOL    HW210145   3.785   1.581   3.813 -1.5535  0.4129  0.2519
 2518SOL    HW310146   3.723   1.619   3.681  0.1347 -0.0914 -0.6988
 2518SOL    MW410147   3.781   1.573   3.727 -0.2885  0.2573  0.1962
 2519SOL     OW10148   4.178   2.482   4.339  0.2110  0.3006 -0.1215
 2519SOL    HW210149   4.093   2.491   4.297  0.7651  0.5020 -1.2217
 2519SOL    HW310150   4.186   2.388   4.357  0.1490  0.1452 -0.8802
 2519SOL    MW410151   4.168   2.470   4.336  0.2756  0.3068 -0.3667
 2520SOL     OW10152   2.161   2.739   4.424 -0.2597 -0.1637  0.4348
 2520SOL    HW210153   2.115   2.657   4.406 -0.2122 -0.3673  1.2577
 2520SOL    HW310154   2.254   2.717   4.411 -0.2799 -0.1254  0.2197
 2520SOL    MW410155   2.167   2.725   4.420 -0.2561 -0.1855  0.5145
 2521SOL     OW10156   0.655   4.604   4.484 -0.3966 -0.1400  0.0840
 2521SOL    HW210157   0.750   4.603   4.485 -0.3748  0.8229  0.3523
 2521SOL    HW310158   0.632   4.697   4.489 -1.3234 -0.1629 -2.8751
 2521SOL    MW410159   0.664   4.617   4.485 -0.5161 -0.0162 -0.2713
 2522SOL     OW10160   1.334   2.660   4.411  0.0411  0.1048  0.1024
 2522SOL    HW210161   1.325   2.755   4.419  0.0367 -0.0293  1.8231
 2522SOL    HW310162   1.428   2.646   4.400  0.2831  0.1933  1.8747
 2522SOL    MW410163   1.345   2.671   4.410  0.0725  0.0987  0.5627
 2523SOL     OW10164   2.893   2.821   3.575 -0.2629  0.4564 -0.1868
 2523SOL    HW210165   2.964   2.776   3.622  0.3127 -0.0866 -1.5421
 2523SOL    HW310166   2.814   2.797   3.622  0.1796 -0.9937 -0.1365
 2523SOL    MW410167   2.892   2.811   3.587 -0.1285  0.1936 -0.3588
 2524SOL     OW10168   0.433   3.939   4.479  0.0008 -0.0828  0.3007
 2524SOL    HW210169   0.477   3.874   4.425  2.0263  1.2357  0.3142
 2524SOL    HW310170   0.485   4.019   4.468 -1.5709  1.1368  1.4501
 2524SOL    MW410171   0.445   3.941   4.470  0.0607  0.2520  0.4539
 2525SOL     OW10172   3.337   2.797   3.578  0.0206 -0.7832 -0.1408
 2525SOL    HW210173   3.383   2.714   3.588 -1.1107 -1.6486 -1.8744
 2525SOL    HW310174   3.331   2.810   3.483  0.0058  1.1896  0.1028
 2525SOL    MW410175   3.342   2.788   3.566 -0.1307 -0.6371 -0.3376
 2526SOL     OW10176   0.257   2.629   4.380 -0.0116  0.0950 -0.1947
 2526SOL    HW210177   0.255   2.621   4.285 -1.2434 -2.4970  0.0199
 2526SOL    HW310178   0.319   2.562   4.408  1.1350  1.5340  0.7962
 2526SOL    MW410179   0.265   2.619   4.371 -0.0229 -0.0572 -0.0362
 2527SOL     OW10180   3.495   1.498   4.041  0.5832 -0.5418  0.1709
 2527SOL    HW210181   3.463   1.560   3.976  0.6242 -1.0344 -0.3187
 2527SOL    HW310182   3.511   1.418   3.992  0.6933 -0.8893  0.7740
 2527SOL    MW410183   3.493   1.496   4.026  0.6032 -0.6526  0.1860
 2528SOL     OW10184   2.878   0.704   3.720 -0.2146  0.0604 -0.1821
 2528SOL    HW210185   2.879   0.726   3.813 -0.3083 -1.3609  0.1745
 2528SOL    HW310186   2.809   0.758   3.683 -0.1562  0.6547  0.5687
 2528SOL    MW410187   2.869   0.714   3.727 -0.2196 -0.0487 -0.0362
 2529SOL     OW10188   1.554   0.950   4.099 -0.0425  0.1485  0.0074
 2529SOL    HW210189   1.541   0.869   4.050 -0.5127  0.7431 -0.8615
 2529SOL    HW310190   1.525   0.929   4.188 -3.7925  0.4204 -1.0550
 2529SOL    MW410191   1.549   0.937   4.104 -0.5994  0.2629 -0.2475
 2530SOL     OW10192   2.764   2.895   4.502 -0.0424  0.1365 -0.0172
 2530SOL    HW210193   2.844   2.898   4.555  0.3257  1.6143 -0.6270
 2530SOL    HW310194   2.792   2.858   4.419  0.0039  0.6508 -0.2295
 2530SOL    MW410195   2.778   2.891   4.498  0.0122  0.3991 -0.1259
 2531SOL     OW10196   1.965   0.758   3.746  0.4661 -0.2620  0.5309
 2531SOL    HW210197   2.037   0.806   3.705  1.1133  1.2149  3.2598
 2531SOL    HW310198   1.980   0.667   3.721  2.1978  0.2797 -0.5086
 2531SOL    MW410199   1.977   0.753   3.738  0.7799  0.0043  0.7536
 2532SOL     OW10200   1.164   3.194   4.390  0.3818 -0.1337  0.3734
 2532SOL    HW210201   1.160   3.231   4.302  0.7500  0.8770  0.7814
 2532SOL    HW310202   1.149   3.268   4.449 -0.4706 -0.9041  1.1487
 2532SOL    MW410203   1.162   3.209   4.386  0.3179 -0.1020  0.5293
 2533SOL     OW10204   1.740   3.036   4.329 -1.0600 -0.1312 -0.5915
 2533SOL    HW210205   1.682   3.112   4.335 -1.5910 -0.4529 -1.6181
 2533SOL    HW310206   1.814   3.059   4.385 -0.3251  1.9737 -2.3154
 2533SOL    MW410207   1.742   3.049   4.337 -1.0329  0.1040 -0.9542
 2534SOL     OW10208   1.301   2.943   4.363 -0.0070  0.1567 -0.0149
 2534SOL    HW210209   1.329   2.945   4.271 -0.7911 -0.8391 -0.2856
 2534SOL    HW310210   1.261   3.028   4.378  0.4358  0.4564 -0.4934
 2534SOL    MW410211   1.299   2.954   4.353 -0.0521  0.0646 -0.1135
 2535SOL     OW10212   3.572   3.298   4.478 -0.4953  0.0489 -0.3196
 2535SOL    HW210213   3.540   3.282   4.566 -0.2702  0.2315 -0.2043
 2535SOL    HW310214   3.495   3.291   4.422 -0.4707 -1.0015 -0.2202
 2535SOL    MW410215   3.558   3.295   4.482 -0.4628 -0.0656 -0.2909
 2536SOL     OW10216   0.610   4.191   4.431 -0.3596  0.3769  0.1880
 2536SOL    HW210217   0.637   4.160   4.345  0.5758  0.9831  0.2546
 2536SOL    HW310218   0.552   4.265   4.412 -0.1120  0.5444  0.0756
 2536SOL    MW410219   0.606   4.197   4.417 -0.2035  0.4787  0.1822
 2537SOL     OW10220   2.656   1.911   3.271 -0.2620  0.0257 -0.0563
 2537SOL    HW210221   2.654   1.819   3.296  2.4699  0.0478  0.3700
 2537SOL    HW310222   2.653   1.910   3.175 -1.7948 -0.4222 -0.0111
 2537SOL    MW410223   2.655   1.899   3.262 -0.1037 -0.0304  0.0060
 2538SOL     OW10224   0.201   3.353   4.118  0.2188  0.0953  0.7255
 2538SOL    HW210225   0.236   3.348   4.207 -1.2275  1.3948  1.3762
 2538SOL    HW310226   0.126   3.411   4.124 -1.5214 -1.8993 -0.8420
 2538SOL    MW410227   0.196   3.360   4.130 -0.2016  0.0033  0.6046
 2539SOL     OW10228   0.640   2.578   4.082 -0.0103 -0.1013  0.2487
 2539SOL    HW210229   0.634   2.578   4.177  0.1516  1.9936  0.2901
 2539SOL    HW310230   0.654   2.486   4.058 -1.2431 -0.7994  2.1449
 2539SOL    MW410231   0.641   2.566   4.091 -0.1516  0.0830  0.5050
 2540SOL     OW10232   2.875   4.144   4.088 -0.1578  0.6531  0.0766
 2540SOL    HW210233   2.880   4.168   4.180 -1.2553 -0.9000  0.5647
 2540SOL    HW310234   2.786   4.170   4.061 -0.5685 -0.7512  0.0234
 2540SOL    MW410235   2.864   4.151   4.096 -0.3564  0.2627  0.1335
 2541SOL     OW10236   2.356   4.264   4.562  0.1765 -0.2896  0.3589
 2541SOL    HW210237   2.314   4.178   4.560 -0.2455 -0.1075  1.1712
 2541SOL    HW310238   2.285   4.326   4.547  0.4636 -0.0720 -0.1137
 2541SOL    MW410239   2.341   4.261   4.560  0.1588 -0.2370  0.4039
 2542SOL     OW10240   1.547   2.877   4.519  0.0559 -0.4669 -0.1882
 2542SOL    HW210241   1.467   2.908   4.475  0.4132  2.2720  0.9416
 2542SOL    HW310242   1.618   2.914   4.467  0.5154  0.2414  0.9219
 2542SOL    MW410243   1.546   2.886   4.506  0.1637 -0.0122  0.1078
 2543SOL     OW10244   3.443   4.367   4.561  0.1336  0.2977 -0.3259
 2543SOL    HW210245   3.527   4.411   4.575 -0.5104  1.0737  1.1877
 2543SOL    HW310246   3.387   4.435   4.524 -0.8982  0.8224  2.1234
 2543SOL    MW410247   3.447   4.382   4.558 -0.0875  0.4697  0.1969
 2544SOL     OW10248   0.003   2.004   3.977  0.6338  0.1349 -0.0060
 2544SOL    HW210249  -0.073   1.951   4.001  0.9116  0.3579  1.4101
 2544SOL    HW310250   0.076   1.965   4.025  1.5327 -0.3736 -1.7369
 2544SOL    MW410251   0.003   1.992   3.986  0.7892  0.0972 -0.0477
 2545SOL     OW10252   3.811   0.711   4.162  0.4594  0.0386 -0.5572
 2545SOL    HW210253   3.750   0.638   4.176  1.4569 -0.4564  1.3569
 2545SOL    HW310254   3.755   0.785   4.140 -0.7599 -0.6668  0.1151
 2545SOL    MW410255   3.795   0.711   4.161  0.4301 -0.1198 -0.2160
 2546SOL     OW10256   1.656   0.459   4.330  0.0288  0.5236  0.0983
 2546SOL    HW210257   1.738   0.503   4.356  0.1754  0.2560  0.0904
 2546SOL    HW310258   1.664   0.447   4.236 -0.2638  0.9974  0.0115
 2546SOL    MW410259   1.668   0.463   4.321  0.0094  0.5508  0.0858
 2547SOL     OW10260   1.779   0.401   4.071 -0.4894  0.1567 -0.0607
 2547SOL    HW210261   1.832   0.341   4.123 -0.8621  0.7660  1.0223
 2547SOL    HW310262   1.831   0.481   4.065 -0.7452  0.3261 -0.0484
 2547SOL    MW410263   1.793   0.404   4.077 -0.5724  0.2594  0.0839
 2548SOL     OW10264   0.271   3.783   4.635 -0.3445  0.2918 -0.4015
 2548SOL    HW210265   0.335   3.824   4.577  1.3335 -0.7410  0.7015
 2548SOL    HW310266   0.279   3.831   4.717 -0.1161 -0.6227  0.1167
 2548SOL    MW410267   0.280   3.795   4.638 -0.0929  0.0348 -0.1869
 2549SOL     OW10268   1.072   1.063   4.406  0.4045 -0.0887  0.4047
 2549SOL    HW210269   1.031   1.149   4.415  0.9683  0.0606  1.6071
 2549SOL    HW310270   1.000   1.004   4.384 -0.1257  0.5257  0.4702
 2549SOL    MW410271   1.057   1.067   4.404  0.4090  0.0122  0.5722
 2550SOL     OW10272   4.215   1.172   4.274  0.1989 -0.1964  0.4119
 2550SOL    HW210273   4.205   1.164   4.179 -0.8690  0.6171  0.4487
 2550SOL    HW310274   4.186   1.087   4.308 -0.5624 -0.0631  0.0938
 2550SOL    MW410275   4.210   1.160   4.266 -0.0429 -0.0714  0.3748
 2551SOL     OW10276   3.462   1.231   4.579 -0.1149  0.0266  0.0304
 2551SOL    HW210277   3.408   1.304   4.548 -0.0480 -0.6072 -1.6294
 2551SOL    HW310278   3.427   1.210   4.665 -0.5004  1.6507  0.2870
 2551SOL    MW410279   3.450   1.238   4.586 -0.1569  0.1571 -0.1545
 2552SOL     OW10280   1.280   4.495   4.186  0.4474  0.0931  0.3581
 2552SOL    HW210281   1.203   4.522   4.137 -0.2014  0.6735  1.6744
 2552SOL    HW310282   1.354   4.525   4.133 -0.2260 -0.2930 -0.8136
 2552SOL    MW410283   1.280   4.503   4.172  0.2728  0.1187  0.3772
 2553SOL     OW10284   3.091   3.144   4.438  0.0955  0.4055 -0.3841
 2553SOL    HW210285   3.057   3.081   4.375 -2.6034  2.0245 -0.6049
 2553SOL    HW310286   3.071   3.106   4.524 -0.2913  0.3354 -0.5069
 2553SOL    MW410287   3.084   3.131   4.441 -0.3119  0.6099 -0.4296
 2554SOL     OW10288   4.307   2.717   4.573  0.2675  0.1767 -0.3988
 2554SOL    HW210289   4.235   2.675   4.620 -0.4578  2.4713  0.6074
 2554SOL    HW310290   4.353   2.644   4.529 -0.3260 -1.7546  2.0768
 2554SOL    MW410291   4.304   2.701   4.573  0.0935  0.2246  0.0606
 2555SOL     OW10292   2.882   3.323   4.353  0.3394 -0.2414  0.0429
 2555SOL    HW210293   2.958   3.273   4.384  1.1668 -0.1249 -1.7185
 2555SOL    HW310294   2.809   3.262   4.361  0.7113 -0.5575  1.1998
 2555SOL    MW410295   2.883   3.308   4.358  0.4978 -0.2680 -0.0367
 2556SOL     OW10296   2.685   3.032   4.115  0.1302  0.2049  0.1894
 2556SOL    HW210297   2.684   2.939   4.092 -0.0152  0.1485  0.4226
 2556SOL    HW310298   2.701   3.033   4.209  0.5739  0.4302  0.1135
 2556SOL    MW410299   2.687   3.020   4.124  0.1695  0.2272  0.2103
 2557SOL     OW10300   2.159   4.443   4.489  0.1196  0.7077  0.0892
 2557SOL    HW210301   2.106   4.505   4.539 -0.8653  0.0815 -0.1700
 2557SOL    HW310302   2.096   4.396   4.434  1.0118  0.3590 -0.6530
 2557SOL    MW410303   2.144   4.445   4.488  0.1075  0.5794 -0.0429
 2558SOL     OW10304   3.855   1.213   3.997  0.1312  0.5816  0.0664
 2558SOL    HW210305   3.889   1.288   4.047  2.1146 -0.5902  0.5632
 2558SOL    HW310306   3.929   1.186   3.943 -0.5675 -1.0041 -0.1111
 2558SOL    MW410307   3.869   1.220   3.997  0.3009  0.2178  0.1082
 2559SOL     OW10308   3.587   1.264   3.940  0.2240 -0.0051 -0.1076
 2559SOL    HW210309   3.559   1.241   3.852 -0.3784 -1.0659  0.3504
 2559SOL    HW310310   3.678   1.234   3.945 -0.1315 -1.0987  0.0328
 2559SOL    MW410311   3.596   1.257   3.929  0.0975 -0.2893 -0.0288
 2560SOL     OW10312   0.389   0.353   4.090  0.5070 -0.6887 -0.0229
 2560SOL    HW210313   0.419   0.444   4.096 -0.9369 -0.2466  0.6900
 2560SOL    HW310314   0.406   0.328   3.999  1.1658  0.2014 -0.1506
 2560SOL    MW410315   0.395   0.361   4.079  0.4034 -0.5130  0.0539
 2561SOL     OW10316   3.309   3.915   4.016 -0.0084  0.1671 -0.0385
 2561SOL    HW210317   3.229   3.886   4.060 -0.5645  0.5839 -0.7460
 2561SOL    HW310318   3.334   3.995   4.061 -0.1332  0.1731  0.0196
 2561SOL    MW410319   3.301   3.921   4.027 -0.0985  0.2227 -0.1240
 2562SOL     OW10320   1.596   1.913   4.477 -0.2895  0.5634 -0.2474
 2562SOL    HW210321   1.663   1.979   4.496  0.2510  0.0285 -0.2777
 2562SOL    HW310322   1.636   1.830   4.503 -1.5769  0.4247  1.2951
 2562SOL    MW410323   1.610   1.911   4.483 -0.3881  0.4745 -0.0477
 2563SOL     OW10324   1.782   2.911   4.068  0.6606  0.2699 -0.0168
 2563SOL    HW210325   1.779   2.938   4.160  1.2616  0.0659  0.0611
 2563SOL    HW310326   1.856   2.959   4.031  0.1772  0.6647 -0.5018
 2563SOL    MW410327   1.791   2.921   4.075  0.6762  0.2952 -0.0706
 2564SOL     OW10328   4.088   1.385   4.370  0.0273  0.2360  0.2997
 2564SOL    HW210329   4.130   1.305   4.339 -1.2684 -0.0862 -0.6918
 2564SOL    HW310330   4.016   1.355   4.425  0.1350  0.7353  0.7158
 2564SOL    MW410331   4.084   1.371   4.373 -0.1292  0.2593  0.2241
 2565SOL     OW10332   1.104   2.533   4.074  0.3161  0.0853 -0.5038
 2565SOL    HW210333   1.026   2.582   4.047 -0.7311 -2.0769 -1.4885
 2565SOL    HW310334   1.107   2.545   4.169  0.4992  2.6357 -0.7889
 2565SOL    MW410335   1.094   2.541   4.083  0.2019  0.1364 -0.6714
 2566SOL     OW10336   2.923   3.077   4.002  0.5067  0.1632  0.3165
 2566SOL    HW210337   2.836   3.058   4.038 -0.0934 -0.1799 -1.2983
 2566SOL    HW310338   2.983   3.038   4.065 -0.5484 -0.8202  0.7398
 2566SOL    MW410339   2.919   3.069   4.015  0.2882 -0.0119  0.1593
 2567SOL     OW10340   3.462   4.532   4.153  0.2196 -0.4420 -0.4302
 2567SOL    HW210341   3.400   4.531   4.226  0.5008  0.5746 -0.1724
 2567SOL    HW310342   3.411   4.563   4.078 -0.0894 -1.5664 -0.6929
 2567SOL    MW410343   3.447   4.536   4.153  0.2160 -0.4563 -0.4311
 2568SOL     OW10344   3.914   2.489   4.282 -0.2494  0.2977 -0.5396
 2568SOL    HW210345   3.891   2.407   4.326 -0.8583 -0.3507 -2.0620
 2568SOL    HW310346   3.860   2.555   4.326  0.0048 -0.1574  0.4764
 2568SOL    MW410347   3.904   2.487   4.294 -0.2961  0.1519 -0.6061
 2569SOL     OW10348   0.548   0.431   4.598 -0.1506  0.1050 -0.0272
 2569SOL    HW210349   0.558   0.414   4.692  1.1467  1.2786  0.0674
 2569SOL    HW310350   0.550   0.345   4.557 -1.0927 -0.4423  1.0546
 2569SOL    MW410351   0.550   0.417   4.605 -0.1037  0.1876  0.1283
 2570SOL     OW10352   2.852   4.658   4.484 -0.2850 -0.6043 -0.3662
 2570SOL    HW210353   2.771   4.617   4.456 -0.4416  0.6991 -1.8561
 2570SOL    HW310354   2.918   4.590   4.475 -0.6934 -0.7997 -2.0096
 2570SOL    MW410355   2.850   4.644   4.479 -0.3595 -0.4582 -0.7796
 2571SOL     OW10356   1.966   1.271   3.683 -0.0075 -0.0902 -0.1787
 2571SOL    HW210357   2.053   1.234   3.697  0.1717  0.4186  0.0495
 2571SOL    HW310358   1.964   1.349   3.737 -0.5561 -0.0211 -0.2981
 2571SOL    MW410359   1.977   1.276   3.692 -0.0563 -0.0139 -0.1643
 2572SOL     OW10360   0.075   1.875   4.464  0.2463 -0.3496  0.1271
 2572SOL    HW210361   0.092   1.967   4.445 -0.1894 -0.2791  0.0841
 2572SOL    HW310362   0.012   1.848   4.398  0.4407 -0.7049  0.0836
 2572SOL    MW410363   0.069   1.883   4.453  0.2145 -0.3871  0.1154
 2573SOL     OW10364   3.333   2.113   3.607 -0.2674  0.1827  0.3587
 2573SOL    HW210365   3.319   2.205   3.627  0.5634  0.1685  1.0400
 2573SOL    HW310366   3.400   2.085   3.669 -0.5709 -0.8996  0.2130
 2573SOL    MW410367   3.340   2.121   3.618 -0.1979  0.0379  0.4294
 2574SOL     OW10368   1.963   1.531   4.505  0.2762  0.2450  0.0520
 2574SOL    HW210369   2.023   1.564   4.439 -1.3224  1.6951 -0.7304
 2574SOL    HW310370   1.939   1.444   4.473 -0.1350  0.7526 -1.0753
 2574SOL    MW410371   1.967   1.524   4.492  0.0110  0.5034 -0.1998
 2575SOL     OW10372   3.572   4.014   3.615  0.0019 -0.5394 -0.3627
 2575SOL    HW210373   3.647   3.970   3.655  0.3738 -0.6193 -1.1393
 2575SOL    HW310374   3.576   4.103   3.650  1.4440 -0.0647 -1.6939
 2575SOL    MW410375   3.583   4.020   3.625  0.2413 -0.4873 -0.6409
 2576SOL     OW10376   1.583   0.707   3.973 -0.4661  0.3970 -0.1305
 2576SOL    HW210377   1.545   0.741   3.892 -0.9848  0.8086  0.2784
 2576SOL    HW310378   1.508   0.671   4.021 -0.5317  2.0867  1.1161
 2576SOL    MW410379   1.568   0.707   3.969 -0.5431  0.6742  0.0882
 2577SOL     OW10380   2.379   1.257   4.392  0.0019 -0.2677 -0.0300
 2577SOL    HW210381   2.357   1.310   4.316  0.5442 -0.0954 -0.0716
 2577SOL    HW310382   2.347   1.307   4.467  0.7753  0.2586 -0.0509
 2577SOL    MW410383   2.372   1.271   4.392  0.1755 -0.1755 -0.0377
 2578SOL     OW10384   2.418   0.247   4.341 -0.4409 -0.1011  0.0104
 2578SOL    HW210385   2.509   0.257   4.370 -0.0005 -0.8454 -1.0987
 2578SOL    HW310386   2.397   0.155   4.358 -1.4394  0.3890  1.5218
 2578SOL    MW410387   2.427   0.236   4.347 -0.5145 -0.1346  0.0634
 2579SOL     OW10388   1.200   2.137   4.387 -0.2322  0.3563 -0.0412
 2579SOL    HW210389   1.144   2.080   4.333 -1.0067  0.3407  0.7660
 2579SOL    HW310390   1.238   2.079   4.452  1.4347  0.2098 -1.1232
 2579SOL    MW410391   1.197   2.122   4.388 -0.1144  0.3350 -0.0768
 2580SOL     OW10392   4.368   0.052   4.538 -0.3889 -0.3553 -0.0730
 2580SOL    HW210393   4.277   0.064   4.512  0.0247  0.6331 -1.0949
 2580SOL    HW310394   4.395  -0.027   4.490 -0.4542 -0.1538 -0.4441
 2580SOL    MW410395   4.359   0.043   4.528 -0.3428 -0.1983 -0.2565
 2581SOL     OW10396   1.350   2.947   4.090 -0.0095  0.1661  0.0874
 2581SOL    HW210397   1.355   2.858   4.055  0.2532 -0.0431  0.6598
 2581SOL    HW310398   1.275   2.986   4.046  1.2233  0.4079 -1.8974
 2581SOL    MW410399   1.341   2.940   4.079  0.1879  0.1702 -0.0992
 2582SOL     OW10400   4.065   0.805   4.117  0.1656 -0.0653  0.2864
 2582SOL    HW210401   3.983   0.757   4.126 -0.2582 -0.5492 -4.7600
 2582SOL    HW310402   4.127   0.741   4.083  2.4271  0.5687  3.0173
 2582SOL    MW410403   4.062   0.790   4.114  0.4082 -0.0455 -0.0186
 2583SOL     OW10404   2.654   0.819   3.611 -0.5542 -0.3214 -0.1745
 2583SOL    HW210405   2.663   0.913   3.624 -0.0536 -0.4433  0.3524
 2583SOL    HW310406   2.569   0.798   3.649 -0.1733 -0.2705  0.7091
 2583SOL    MW410407   2.644   0.829   3.618 -0.4377 -0.3308  0.0117
 2584SOL     OW10408   3.516   2.549   4.492  0.1405  0.1273  0.1382
 2584SOL    HW210409   3.459   2.598   4.550 -0.6660 -2.0842  1.2922
 2584SOL    HW310410   3.462   2.531   4.415 -0.6313 -1.5872  1.0442
 2584SOL    MW410411   3.501   2.553   4.490 -0.0675 -0.3908  0.4096
 2585SOL     OW10412   3.398   1.697   3.874  0.0634 -0.3154  0.0353
 2585SOL    HW210413   3.360   1.778   3.907 -0.6158 -1.3006  1.7535
 2585SOL    HW310414   3.472   1.725   3.820  0.3678  1.4126  1.3185
 2585SOL    MW410415   3.403   1.711   3.871  0.0136 -0.2174  0.4315
 2586SOL     OW10416   1.518   4.577   4.044  0.2008  0.1465 -0.0263
 2586SOL    HW210417   1.545   4.585   3.952 -0.2402  0.9900 -0.0867
 2586SOL    HW310418   1.593   4.538   4.087 -0.0116 -1.3364 -0.9648
 2586SOL    MW410419   1.532   4.573   4.037  0.1147  0.0620 -0.1574
 2587SOL     OW10420   3.543   3.510   3.985  0.0058 -0.5386 -0.5223
 2587SOL    HW210421   3.630   3.481   4.012 -0.1410 -0.7797 -0.3073
 2587SOL    HW310422   3.487   3.434   4.002 -0.5459  0.1826  0.9179
 2587SOL    MW410423   3.547   3.496   3.991 -0.0861 -0.4752 -0.3040
 2588SOL     OW10424   3.320   3.303   4.331 -0.1560  0.0096  0.3963
 2588SOL    HW210425   3.330   3.316   4.237  2.0560 -0.9152  0.4640
 2588SOL    HW310426   3.241   3.250   4.341  0.4163 -1.1305 -1.0513
 2588SOL    MW410427   3.311   3.298   4.320  0.2115 -0.2627  0.2151
 2589SOL     OW10428   1.529   0.754   3.702 -0.0048 -0.0330 -0.1165
 2589SOL    HW210429   1.607   0.798   3.668  0.0570 -0.9158 -1.1528
 2589SOL    HW310430   1.461   0.822   3.703  0.4483  0.4306 -0.3902
 2589SOL    MW410431   1.530   0.769   3.698  0.0631 -0.0883 -0.2892
 2590SOL     OW10432   2.723   1.063   3.953  0.0736 -0.0225  0.0788
 2590SOL    HW210433   2.792   1.128   3.967  0.4546 -0.0249 -1.6324
 2590SOL    HW310434   2.769   0.979   3.956 -0.2417 -0.1695  1.1890
 2590SOL    MW410435   2.738   1.061   3.955  0.0825 -0.0422 -0.0005
 2591SOL     OW10436   3.592   2.779   3.846  0.1932  0.5865 -0.0827
 2591SOL    HW210437   3.509   2.736   3.825 -0.8658  1.4015  2.2362
 2591SOL    HW310438   3.645   2.710   3.886 -0.1788  0.5898  0.4150
 2591SOL    MW410439   3.588   2.764   3.848  0.0045  0.6943  0.2890
 2592SOL     OW10440   1.865   0.653   3.993 -0.4890  0.5507  0.0609
 2592SOL    HW210441   1.772   0.675   3.985 -1.1028 -1.9947 -0.3231
 2592SOL    HW310442   1.905   0.689   3.914 -1.3672  0.6592 -0.3485
 2592SOL    MW410443   1.858   0.660   3.982 -0.6859  0.2292 -0.0441
 2593SOL     OW10444   3.158   0.723   4.316  0.0540 -0.3791  0.1198
 2593SOL    HW210445   3.172   0.802   4.367  1.3550 -0.3680 -0.2412
 2593SOL    HW310446   3.134   0.754   4.229 -0.7149 -0.3973  0.3174
 2593SOL    MW410447   3.156   0.737   4.312  0.1242 -0.3800  0.0978
 2594SOL     OW10448   4.289   3.305   4.122 -0.3880  0.1341 -0.6722
 2594SOL    HW210449   4.300   3.272   4.211 -0.3417  0.8362 -0.4129
 2594SOL    HW310450   4.307   3.230   4.066 -1.1201 -0.5003 -0.0736
 2594SOL    MW410451   4.293   3.291   4.126 -0.4783  0.1433 -0.5589
 2595SOL     OW10452   0.457   2.996   4.070  0.0484  0.1496  0.3927
 2595SOL    HW210453   0.378   3.026   4.026  1.3494  1.2714 -1.2486
 2595SOL    HW310454   0.463   2.903   4.048 -0.6783  0.1084  0.3548
 2595SOL    MW410455   0.447   2.988   4.062  0.1241  0.2918  0.1712
 2596SOL     OW10456   4.478   2.740   4.028 -0.3010 -0.4204  0.1374
 2596SOL    HW210457   4.414   2.671   4.043  0.1744 -0.9354 -0.1827
 2596SOL    HW310458   4.477   2.754   3.934 -0.3821 -0.0036  0.2005
 2596SOL    MW410459   4.470   2.733   4.018 -0.2489 -0.4334  0.1030
 2597SOL     OW10460   4.186   2.223   4.376  0.3647  0.1060  0.5346
 2597SOL    HW210461   4.177   2.165   4.300  0.7452  0.5389  0.1571
 2597SOL    HW310462   4.126   2.187   4.442  0.6567 -0.7570  0.3257
 2597SOL    MW410463   4.177   2.211   4.375  0.4535  0.0494  0.4578
 2598SOL     OW10464   3.698   2.256   3.720 -0.3947  0.3787  0.3629
 2598SOL    HW210465   3.767   2.314   3.688 -0.3917 -0.0583 -0.4558
 2598SOL    HW310466   3.631   2.314   3.756  0.9870  0.7555  2.3713
 2598SOL    MW410467   3.698   2.271   3.720 -0.2122  0.3707  0.5198
 2599SOL     OW10468   4.446   3.893   4.427  0.0498  0.3127  0.3777
 2599SOL    HW210469   4.439   3.839   4.348 -1.9220  1.1149 -0.0506
 2599SOL    HW310470   4.449   3.831   4.499 -1.3765 -0.4074 -0.1568
 2599SOL    MW410471   4.445   3.878   4.426 -0.3986  0.3238  0.2503
 2600SOL     OW10472   1.372   1.186   4.055  0.1196  0.3055 -0.6660
 2600SOL    HW210473   1.442   1.123   4.075 -0.5539  0.6808  3.2298
 2600SOL    HW310474   1.292   1.142   4.082 -0.3430  2.7908  2.2745
 2600SOL    MW410475   1.371   1.172   4.061 -0.0302  0.6829  0.2360
 2601SOL     OW10476   0.997   1.851   3.969  0.3409 -0.8760 -0.2142
 2601SOL    HW210477   0.976   1.875   4.059  0.1478  1.9748 -0.9719
 2601SOL    HW310478   1.090   1.870   3.959  0.0541  0.1310 -1.0148
 2601SOL    MW410479   1.006   1.856   3.980  0.2778 -0.3669 -0.4196
 2602SOL     OW10480   4.346   0.461   4.450 -0.2157 -0.0840 -0.0417
 2602SOL    HW210481   4.339   0.392   4.384 -1.3176  0.5928 -0.6371
 2602SOL    HW310482   4.430   0.444   4.493 -0.8383 -2.2577  0.3561
 2602SOL    MW410483   4.356   0.450   4.447 -0.4435 -0.2815 -0.0672
 2603SOL     OW10484   0.696   3.873   4.022  0.0449  0.2467  0.4279
 2603SOL    HW210485   0.616   3.837   4.061  0.2224  0.4853  1.0127
 2603SOL    HW310486   0.713   3.953   4.071  0.6195  0.2232  0.2743
 2603SOL    MW410487   0.688   3.878   4.034  0.1441  0.2749  0.4845
 2604SOL     OW10488   1.138   4.368   3.649 -0.1080  0.4710 -0.2394
 2604SOL    HW210489   1.132   4.381   3.554 -0.5573 -0.2350 -0.3165
 2604SOL    HW310490   1.223   4.325   3.661  0.0610  0.7854 -0.2902
 2604SOL    MW410491   1.149   4.364   3.638 -0.1450  0.4196 -0.2565
 2605SOL     OW10492   3.122   3.719   4.121 -0.4271 -0.5634  0.0712
 2605SOL    HW210493   3.107   3.731   4.215  0.2979 -1.3062  0.2804
 2605SOL    HW310494   3.045   3.760   4.080  0.3120  1.7591  0.9025
 2605SOL    MW410495   3.110   3.726   4.128 -0.2341 -0.3550  0.2084
 2606SOL     OW10496   2.874   2.065   3.641 -0.5080 -0.1318  0.1620
 2606SOL    HW210497   2.859   2.157   3.662 -2.4241 -0.4235  0.1553
 2606SOL    HW310498   2.799   2.019   3.679  0.6431 -1.7407  0.5289
 2606SOL    MW410499   2.862   2.071   3.649 -0.6092 -0.3829  0.2096
 2607SOL     OW10500   3.776   4.101   4.412  0.4094  0.2166 -0.1898
 2607SOL    HW210501   3.766   4.122   4.319  1.1949  1.2680 -0.0459
 2607SOL    HW310502   3.832   4.024   4.413 -0.2548 -0.2833 -0.6130
 2607SOL    MW410503   3.782   4.094   4.400  0.4251  0.2894 -0.2270
 2608SOL     OW10504   0.928   4.590   4.384  0.1405 -0.1423  0.0605
 2608SOL    HW210505   0.986   4.662   4.358  0.2030 -0.2311 -0.0480
 2608SOL    HW310506   0.987   4.525   4.422 -0.0028  0.1683  0.8075
 2608SOL    MW410507   0.944   4.591   4.385  0.1298 -0.1125  0.1450
 2609SOL     OW10508   0.463   4.239   4.007  0.1857  0.2036  0.3448
 2609SOL    HW210509   0.456   4.254   3.913 -0.1529 -0.3860  0.2688
 2609SOL    HW310510   0.377   4.205   4.032  0.3338  0.1813  0.8315
 2609SOL    MW410511   0.450   4.236   3.998  0.1606  0.1230  0.3989
 2610SOL     OW10512   4.150   0.905   4.358  0.0954  0.1153 -0.1846
 2610SOL    HW210513   4.099   0.868   4.286 -0.4865 -0.4156  0.4917
 2610SOL    HW310514   4.085   0.935   4.421  0.6030  0.4602  0.1791
 2610SOL    MW410515   4.135   0.904   4.357  0.0858  0.0908 -0.0477
 2611SOL     OW10516   1.080   4.605   4.042  0.1298  0.2020 -0.1370
 2611SOL    HW210517   1.098   4.698   4.054  0.7720  0.1792 -0.8758
 2611SOL    HW310518   0.995   4.591   4.084 -1.1520  1.6319 -2.1764
 2611SOL    MW410519   1.071   4.615   4.049  0.0454  0.3877 -0.5035
 2612SOL     OW10520   1.169   1.555   4.455  0.5348 -0.1771  0.2331
 2612SOL    HW210521   1.243   1.494   4.454  0.7660 -0.0120  3.1229
 2612SOL    HW310522   1.202   1.633   4.411  2.2874  0.0701  1.8791
 2612SOL    MW410523   1.183   1.557   4.449  0.7966 -0.1227  0.8316
 2613SOL     OW10524   3.078   2.975   4.217  0.5334  0.0644  0.1845
 2613SOL    HW210525   3.171   2.999   4.222  0.7170 -0.3180 -1.1774
 2613SOL    HW310526   3.077   2.881   4.232  0.5930 -0.2742 -1.7953
 2613SOL    MW410527   3.090   2.966   4.220  0.5655 -0.0308 -0.2565
 2614SOL     OW10528   2.693   3.219   3.654 -0.1526  0.0606  0.2589
 2614SOL    HW210529   2.785   3.200   3.669 -0.3521 -0.3185  0.9875
 2614SOL    HW310530   2.679   3.305   3.695 -0.1660  0.0322  0.3138
 2614SOL    MW410531   2.703   3.228   3.661 -0.1810  0.0069  0.3619
 2615SOL     OW10532   3.130   2.397   3.418 -0.3593  0.2719  0.0073
 2615SOL    HW210533   3.051   2.349   3.393 -0.8114  0.4702  0.9962
 2615SOL    HW310534   3.196   2.371   3.355 -0.8833 -0.8604 -0.0762
 2615SOL    MW410535   3.128   2.388   3.407 -0.4880  0.1488  0.1268
 2616SOL     OW10536   3.317   1.462   4.466 -0.4769 -0.3590 -0.3002
 2616SOL    HW210537   3.225   1.488   4.458 -1.2722 -1.8340  3.0311
 2616SOL    HW310538   3.359   1.537   4.510 -0.7911 -0.8897  0.9444
 2616SOL    MW410539   3.310   1.475   4.471 -0.6235 -0.6236  0.3037
 2617SOL     OW10540   3.082   4.305   3.989 -0.0862  0.1676 -0.8181
 2617SOL    HW210541   3.000   4.260   4.010 -0.5365  1.4572  0.2299
 2617SOL    HW310542   3.149   4.257   4.038 -0.3264 -0.3923 -1.0373
 2617SOL    MW410543   3.080   4.293   3.998 -0.1771  0.2642 -0.7086
 2618SOL     OW10544   3.321   1.258   3.581 -0.0858 -0.4273  0.0574
 2618SOL    HW210545   3.328   1.284   3.489  1.5228  0.0455  0.3047
 2618SOL    HW310546   3.290   1.337   3.625  1.8695  0.2052  0.3407
 2618SOL    MW410547   3.318   1.272   3.574  0.3843 -0.2813  0.1273
 2619SOL     OW10548   3.594   0.531   4.223 -0.2573 -0.0047 -0.1658
 2619SOL    HW210549   3.527   0.551   4.288  0.1230 -0.9813  0.5409
 2619SOL    HW310550   3.631   0.447   4.252  0.3302 -0.1451 -1.3020
 2619SOL    MW410551   3.590   0.522   4.236 -0.1295 -0.1520 -0.2222
 2620SOL     OW10552   1.338   3.728   4.126 -0.2560  0.3047  0.2705
 2620SOL    HW210553   1.343   3.634   4.110 -0.9216  0.4976 -1.1166
 2620SOL    HW310554   1.296   3.736   4.212  0.2788 -0.6678  0.6250
 2620SOL    MW410555   1.333   3.717   4.135 -0.2732  0.2022  0.1345
 2621SOL     OW10556   1.542   3.307   4.117 -0.0566 -0.1422 -0.2748
 2621SOL    HW210557   1.613   3.360   4.081 -0.2181  0.4540  0.2845
 2621SOL    HW310558   1.534   3.234   4.056  2.0627 -1.0465  0.4808
 2621SOL    MW410559   1.551   3.304   4.104  0.2016 -0.1829 -0.1016
 2622SOL     OW10560   3.387   0.597   4.412  0.5933  0.3472  0.2211
 2622SOL    HW210561   3.379   0.513   4.457 -1.5271 -0.4655 -1.5836
 2622SOL    HW310562   3.299   0.615   4.378  1.4558  2.3590 -1.0722
 2622SOL    MW410563   3.375   0.589   4.414  0.4275  0.5054 -0.1879
 2623SOL     OW10564   0.708   3.076   4.002  0.3520  0.1990 -0.4906
 2623SOL    HW210565   0.694   3.083   3.908 -0.5446  2.3810 -0.2243
 2623SOL    HW310566   0.626   3.041   4.036  0.9190 -1.2555 -0.5719
 2623SOL    MW410567   0.696   3.072   3.994  0.3085  0.2947 -0.4663
 2624SOL     OW10568   2.762   3.996   3.595 -0.3490 -0.2125  0.0039
 2624SOL    HW210569   2.738   4.074   3.646 -1.8346 -0.0449 -0.9262
 2624SOL    HW310570   2.812   3.942   3.657 -1.4275  0.3566  1.4166
 2624SOL    MW410571   2.766   3.999   3.610 -0.6871 -0.1152  0.0677
 2625SOL     OW10572   1.500   1.890   4.207 -0.4149 -0.1544  0.1067
 2625SOL    HW210573   1.545   1.905   4.290  0.8146 -1.1959 -0.3609
 2625SOL    HW310574   1.553   1.935   4.142 -1.4949  0.8405 -0.1052
 2625SOL    MW410575   1.513   1.898   4.210 -0.3952 -0.1606  0.0172
 2626SOL     OW10576   0.903   3.023   4.347 -0.1024  0.2551 -0.1977
 2626SOL    HW210577   0.830   3.083   4.362  0.2130  0.7165 -0.4748
 2626SOL    HW310578   0.980   3.071   4.379  0.0479 -0.3170  0.2972
 2626SOL    MW410579   0.903   3.037   4.353 -0.0409  0.2403 -0.1693
 2627SOL     OW10580   4.307   3.035   4.010 -0.7151  0.3690  0.2460
 2627SOL    HW210581   4.253   2.998   4.080 -1.9529 -0.5494 -1.1765
 2627SOL    HW310582   4.395   3.002   4.028 -0.9458  0.4443  1.5696
 2627SOL    MW410583   4.312   3.026   4.022 -0.9093  0.2575  0.2322
 2628SOL     OW10584   0.451   4.293   3.740 -0.1809 -0.7349  0.1769
 2628SOL    HW210585   0.517   4.345   3.694 -0.2735 -1.3921 -0.7135
 2628SOL    HW310586   0.462   4.205   3.705 -2.0505 -0.6988 -0.5540
 2628SOL    MW410587   0.461   4.288   3.729 -0.4398 -0.8168 -0.0372
 2629SOL     OW10588   0.399   1.937   4.011  0.2400 -0.1550 -0.0349
 2629SOL    HW210589   0.330   1.884   4.050 -0.5165  0.3332 -0.6963
 2629SOL    HW310590   0.384   1.931   3.917  1.0731 -0.0166 -0.1802
 2629SOL    MW410591   0.388   1.929   4.004  0.2501 -0.0724 -0.1416
 2630SOL     OW10592   3.071   0.329   4.217 -0.0984  0.6107  0.0512
 2630SOL    HW210593   3.128   0.275   4.271 -0.3291 -0.0407 -0.3538
 2630SOL    HW310594   3.061   0.411   4.266  2.2053  1.2386 -0.4330
 2630SOL    MW410595   3.078   0.333   4.230  0.1752  0.6076 -0.0663
 2631SOL     OW10596   4.267   3.036   3.737  0.0250 -0.4133 -0.2307
 2631SOL    HW210597   4.335   3.100   3.714 -0.5286  0.6128  0.9455
 2631SOL    HW310598   4.270   3.030   3.832 -0.0650 -2.0225 -0.3094
 2631SOL    MW410599   4.276   3.044   3.746 -0.0601 -0.4900 -0.0861
 2632SOL     OW10600   3.320   4.099   4.411 -0.1037 -0.1948 -0.4128
 2632SOL    HW210601   3.392   4.037   4.429 -0.1211  0.0336  0.4295
 2632SOL    HW310602   3.341   4.176   4.464 -0.2160  0.4302 -1.2736
 2632SOL    MW410603   3.333   4.101   4.420 -0.1206 -0.0820 -0.4148
 2633SOL     OW10604   4.131   1.680   4.407 -0.3105 -0.3079  0.0016
 2633SOL    HW210605   4.073   1.698   4.334 -0.2020 -1.3950 -0.3668
 2633SOL    HW310606   4.122   1.586   4.422  0.2746 -0.2332  0.8625
 2633SOL    MW410607   4.122   1.670   4.399 -0.2189 -0.4414  0.0668
 2634SOL     OW10608   4.445   2.493   3.615 -0.0981 -0.1733  0.0009
 2634SOL    HW210609   4.452   2.579   3.657  1.1368  0.1839 -0.8991
 2634SOL    HW310610   4.516   2.442   3.652 -0.1752 -0.4694 -0.2568
 2634SOL    MW410611   4.455   2.498   3.625  0.0539 -0.1652 -0.1519
 2635SOL     OW10612   0.125   1.251   3.588 -0.8447 -0.0786  0.1440
 2635SOL    HW210613   0.128   1.346   3.600  0.0758  0.0718 -1.1186
 2635SOL    HW310614   0.154   1.237   3.498  1.5583 -1.7197  1.1057
 2635SOL    MW410615   0.129   1.262   3.578 -0.4062 -0.2753  0.1042
 2636SOL     OW10616   2.668   4.439   4.128 -0.0285 -0.3212  0.1722
 2636SOL    HW210617   2.605   4.498   4.087  0.1810 -1.2260 -1.4844
 2636SOL    HW310618   2.748   4.490   4.136 -0.5924  0.4229  1.0973
 2636SOL    MW410619   2.670   4.453   4.124 -0.0753 -0.3428  0.0763
 2637SOL     OW10620   1.393   3.589   4.571 -0.0785  0.2838 -0.6032
 2637SOL    HW210621   1.428   3.669   4.611 -1.0644  0.0222  0.8118
 2637SOL    HW310622   1.465   3.527   4.574 -0.0336  0.3732  0.4943
 2637SOL    MW410623   1.407   3.591   4.577 -0.2025  0.2608 -0.2723
 2638SOL     OW10624   1.404   0.075   4.399  0.3615 -0.2689  0.3228
 2638SOL    HW210625   1.384  -0.018   4.405  1.6663 -0.5256  0.9527
 2638SOL    HW310626   1.450   0.095   4.481  0.3703  0.8556  0.0568
 2638SOL    MW410627   1.407   0.065   4.410  0.5349 -0.1544  0.3705
 2639SOL     OW10628   0.299   3.345   4.383  0.3689 -0.2429 -0.0154
 2639SOL    HW210629   0.352   3.396   4.444 -0.0294  0.8567 -0.5866
 2639SOL    HW310630   0.339   3.258   4.384  0.2030 -0.3193  2.0275
 2639SOL    MW410631   0.311   3.340   4.391  0.2944 -0.1078  0.1788
 2640SOL     OW10632   2.477   4.587   4.009  0.2881 -0.6208 -0.3812
 2640SOL    HW210633   2.493   4.603   3.916 -0.6601 -0.5374 -0.5334
 2640SOL    HW310634   2.458   4.674   4.046  0.8668 -0.6243 -0.0699
 2640SOL    MW410635   2.476   4.601   4.002  0.2391 -0.6104 -0.3605
 2641SOL     OW10636   3.352   3.297   4.046 -0.0620  0.0165 -0.0804
 2641SOL    HW210637   3.306   3.218   4.017 -0.0680 -0.2433  0.6082
 2641SOL    HW310638   3.285   3.365   4.047 -0.0522  0.0344 -0.6994
 2641SOL    MW410639   3.337   3.296   4.043 -0.0615 -0.0155 -0.0715
 2642SOL     OW10640   0.408   2.421   4.489 -0.3176 -0.0352 -0.7473
 2642SOL    HW210641   0.412   2.327   4.472  0.5275 -0.3009  0.8446
 2642SOL    HW310642   0.367   2.429   4.575  1.0104  0.9663 -0.1889
 2642SOL    MW410643   0.403   2.409   4.498 -0.0308  0.0618 -0.4635
 2643SOL     OW10644   4.050   3.463   4.007  0.1798 -0.5702 -0.1958
 2643SOL    HW210645   3.960   3.447   4.034  0.4297 -0.8429  0.4726
 2643SOL    HW310646   4.104   3.419   4.072  0.8451  1.7150  0.8741
 2643SOL    MW410647   4.045   3.455   4.019  0.3009 -0.3045  0.0334
 2644SOL     OW10648   3.531   1.401   4.289 -0.4316  0.4351 -0.0737
 2644SOL    HW210649   3.447   1.411   4.334 -0.7137 -0.9864 -0.2653
 2644SOL    HW310650   3.515   1.435   4.201 -1.1581 -0.9239 -0.4841
 2644SOL    MW410651   3.517   1.407   4.284 -0.5646  0.0682 -0.1526
 2645SOL     OW10652   3.384   2.116   4.616  0.1267  0.4875  0.0755
 2645SOL    HW210653   3.322   2.188   4.628 -0.6691 -0.2805  0.6701
 2645SOL    HW310654   3.400   2.114   4.521 -0.5271  0.8844 -0.0466
 2645SOL    MW410655   3.378   2.125   4.605 -0.0646  0.4385  0.1373
 2646SOL     OW10656   4.198   2.348   3.662  0.7744  0.3993  0.1155
 2646SOL    HW210657   4.212   2.261   3.626 -0.5026 -0.3761  1.4081
 2646SOL    HW310658   4.284   2.390   3.657  1.3942 -0.9091 -0.5862
 2646SOL    MW410659   4.211   2.342   3.657  0.6876  0.1245  0.1938
 2647SOL     OW10660   2.448   4.020   4.310 -0.0725  0.2801  0.3199
 2647SOL    HW210661   2.380   4.026   4.377 -0.2810  1.0474  0.0497
 2647SOL    HW310662   2.501   3.944   4.335 -0.9788 -0.2638  0.5776
 2647SOL    MW410663   2.446   4.011   4.322 -0.2196  0.3099  0.3185
 2648SOL     OW10664   0.672   4.118   4.164 -0.4426 -0.2207 -0.2091
 2648SOL    HW210665   0.740   4.170   4.120 -0.0948 -1.9107 -1.7192
 2648SOL    HW310666   0.592   4.139   4.117 -0.7740  0.8062  0.7731
 2648SOL    MW410667   0.671   4.128   4.152 -0.4404 -0.3090 -0.2789
 2649SOL     OW10668   3.761   0.792   3.753 -0.1175 -0.3848  0.4578
 2649SOL    HW210669   3.747   0.839   3.835  0.8890  0.2957  0.2414
 2649SOL    HW310670   3.684   0.815   3.699 -0.1404  0.1881  0.7348
 2649SOL    MW410671   3.749   0.802   3.756  0.0122 -0.2194  0.4656
 2650SOL     OW10672   1.836   1.301   4.164  0.0789  0.3846  0.5021
 2650SOL    HW210673   1.871   1.287   4.252  0.7289 -2.5242 -0.1834
 2650SOL    HW310674   1.848   1.217   4.120 -3.5605  0.6789 -1.2160
 2650SOL    MW410675   1.842   1.288   4.170 -0.3154  0.0398  0.1845
 2651SOL     OW10676   0.429   3.542   4.536 -0.1723  0.4488 -0.4258
 2651SOL    HW210677   0.383   3.597   4.599  0.0664  1.2113 -0.9220
 2651SOL    HW310678   0.473   3.603   4.477 -1.4435 -0.2298 -2.1395
 2651SOL    MW410679   0.429   3.557   4.537 -0.3085  0.4599 -0.7181
 2652SOL     OW10680   1.776   2.408   3.595  0.3428 -0.0387  0.5000
 2652SOL    HW210681   1.773   2.488   3.647 -0.9170  0.5156 -0.4100
 2652SOL    HW310682   1.784   2.437   3.505 -1.3639 -0.8685  0.0448
 2652SOL    MW410683   1.776   2.422   3.590 -0.0485 -0.0749  0.3195
 2653SOL     OW10684   0.306   0.527   4.497 -0.1890 -0.2270  0.4777
 2653SOL    HW210685   0.314   0.622   4.499 -0.0542 -0.2401  0.5937
 2653SOL    HW310686   0.386   0.495   4.540  0.7033 -0.4386 -1.2553
 2653SOL    MW410687   0.318   0.535   4.503 -0.0535 -0.2567  0.2646
 2654SOL     OW10688   2.889   4.600   4.162  0.2958 -0.2936  0.0733
 2654SOL    HW210689   2.968   4.611   4.108 -0.0395  0.0858 -0.3380
 2654SOL    HW310690   2.867   4.688   4.191 -0.8091 -0.2109 -0.9925
 2654SOL    MW410691   2.897   4.613   4.158  0.1059 -0.2327 -0.1216
 2655SOL     OW10692   3.844   2.259   4.439 -0.2002 -0.0432  0.0372
 2655SOL    HW210693   3.833   2.175   4.394  0.4091  0.7340 -1.6142
 2655SOL    HW310694   3.759   2.276   4.480  0.1962 -2.2777  1.8493
 2655SOL    MW410695   3.831   2.250   4.438 -0.0675 -0.2356  0.0582
 2656SOL     OW10696   1.056   1.538   3.696 -0.4150  0.0743 -0.0934
 2656SOL    HW210697   1.071   1.447   3.670 -0.3855 -0.4207  1.6010
 2656SOL    HW310698   1.137   1.583   3.671 -0.2571 -0.4483 -0.5384
 2656SOL    MW410699   1.069   1.532   3.689 -0.3903 -0.0600  0.0718
 2657SOL     OW10700   2.427   2.824   3.683  0.0403  0.4046 -0.0776
 2657SOL    HW210701   2.431   2.829   3.588  0.6700  0.3418 -0.0531
 2657SOL    HW310702   2.359   2.759   3.701 -1.0970  1.4671 -0.4680
 2657SOL    MW410703   2.418   2.816   3.673 -0.0265  0.5362 -0.1256
 2658SOL     OW10704   1.259   1.914   3.690  0.2081 -0.4986  0.3411
 2658SOL    HW210705   1.273   1.920   3.784 -0.3448  0.8518  0.3489
 2658SOL    HW310706   1.183   1.969   3.673 -0.6769 -1.9828 -0.6899
 2658SOL    MW410707   1.251   1.922   3.700  0.0184 -0.5162  0.2060
 2659SOL     OW10708   3.112   2.716   3.726 -0.3773 -0.1844  0.3973
 2659SOL    HW210709   3.119   2.753   3.814 -0.1175 -0.4644  0.4967
 2659SOL    HW310710   3.196   2.736   3.684 -0.0271 -1.1123  0.6340
 2659SOL    MW410711   3.124   2.723   3.732 -0.2966 -0.3438  0.4416
 2660SOL     OW10712   0.147   1.543   3.950  0.0943  0.0621  0.0128
 2660SOL    HW210713   0.230   1.497   3.966 -0.0439 -0.5471 -0.9748
 2660SOL    HW310714   0.081   1.486   3.990  0.0959  0.3306  0.4094
 2660SOL    MW410715   0.149   1.529   3.958  0.0762  0.0173 -0.0653
 2661SOL     OW10716   3.577   2.971   4.050 -0.0307 -0.0994  0.1825
 2661SOL    HW210717   3.649   3.035   4.052 -1.0609  1.0987 -0.1150
 2661SOL    HW310718   3.598   2.914   3.976  0.0119  0.9802 -0.6521
 2661SOL    MW410719   3.589   2.972   4.040 -0.1607  0.2010  0.0334
 2662SOL     OW10720   0.429   4.482   4.139  0.6519 -0.2908  0.1794
 2662SOL    HW210721   0.485   4.548   4.097 -0.0997  0.0541 -0.2880
 2662SOL    HW310722   0.433   4.407   4.081 -0.7235  0.3332 -0.7499
 2662SOL    MW410723   0.437   4.481   4.126  0.3713 -0.1631 -0.0052
 2663SOL     OW10724   3.690   0.939   4.008  0.1711 -0.1370  0.5575
 2663SOL    HW210725   3.721   1.017   4.055 -1.2296 -0.3571  1.9001
 2663SOL    HW310726   3.603   0.922   4.046 -0.6080 -0.8582 -1.5122
 2663SOL    MW410727   3.682   0.947   4.019 -0.1166 -0.2612  0.4616
 2664SOL     OW10728   0.897   2.679   3.971 -0.0329 -0.1551 -0.0022
 2664SOL    HW210729   0.904   2.763   4.016  0.8808 -0.3859  0.2993
 2664SOL    HW310730   0.810   2.646   3.995 -0.6280  0.9556 -0.5833
 2664SOL    MW410731   0.886   2.686   3.980  0.0092 -0.0391 -0.0389
 2665SOL     OW10732   0.203   2.899   4.421 -0.0019 -0.2155  0.0036
 2665SOL    HW210733   0.150   2.915   4.498  1.7130  1.0816  0.9404
 2665SOL    HW310734   0.227   2.806   4.428 -1.8165 -0.7306 -0.2598
 2665SOL    MW410735   0.199   2.889   4.432 -0.0151 -0.1121  0.0925
 2666SOL     OW10736   2.474   0.496   3.712  0.4255 -0.0861 -0.0038
 2666SOL    HW210737   2.464   0.499   3.617  1.5297  0.2008 -0.1198
 2666SOL    HW310738   2.551   0.441   3.726 -0.9427 -1.8421  0.8214
 2666SOL    MW410739   2.483   0.489   3.702  0.3905 -0.2799  0.0901
 2667SOL     OW10740   0.185   1.635   4.398  0.1420 -0.2531 -0.4082
 2667SOL    HW210741   0.160   1.714   4.447 -0.1281  0.5671 -1.8575
 2667SOL    HW310742   0.278   1.622   4.420 -0.3281 -0.7029  1.4123
 2667SOL    MW410743   0.194   1.644   4.407  0.0443 -0.2042 -0.3591
 2668SOL     OW10744   0.164   2.336   3.717  0.0395 -0.2233 -0.2234
 2668SOL    HW210745   0.238   2.385   3.682  1.1907 -1.4431  0.4558
 2668SOL    HW310746   0.177   2.335   3.812  0.2328 -2.0871 -0.2386
 2668SOL    MW410747   0.175   2.342   3.725  0.2169 -0.6299 -0.1354
 2669SOL     OW10748   4.046   3.459   3.738 -0.5628  0.1190  0.2556
 2669SOL    HW210749   4.073   3.452   3.830  0.4131 -1.9281 -0.1561
 2669SOL    HW310750   4.041   3.368   3.708 -0.1487  0.8017 -1.9116
 2669SOL    MW410751   4.049   3.446   3.746 -0.3796 -0.0613 -0.0846
 2670SOL     OW10752   3.605   2.309   4.571 -0.3745 -0.3549  0.1995
 2670SOL    HW210753   3.535   2.256   4.610 -1.0269 -0.8449 -1.6060
 2670SOL    HW310754   3.563   2.393   4.553 -1.1850 -1.3777 -2.9878
 2670SOL    MW410755   3.590   2.313   4.574 -0.5674 -0.5546 -0.4592
 2671SOL     OW10756   3.438   1.689   4.551 -0.0907  0.0236  0.2299
 2671SOL    HW210757   3.425   1.717   4.460  2.0302  0.2694 -0.0100
 2671SOL    HW310758   3.375   1.742   4.601 -0.3715  0.8101 -0.9312
 2671SOL    MW410759   3.428   1.700   4.546  0.1519  0.1600  0.0453
 2672SOL     OW10760   1.613   2.632   4.426 -0.1278  0.9274  0.6528
 2672SOL    HW210761   1.602   2.636   4.331 -0.8976  0.0150  0.6923
 2672SOL    HW310762   1.598   2.722   4.456 -1.5665  0.9028  0.0735
 2672SOL    MW410763   1.609   2.644   4.418 -0.4193  0.8039  0.5822
 2673SOL     OW10764   1.437   1.685   4.015  0.2241  0.5756 -0.1962
 2673SOL    HW210765   1.477   1.734   4.087  0.8822 -0.4689  0.1672
 2673SOL    HW310766   1.389   1.614   4.058  0.2940  0.1781 -0.7587
 2673SOL    MW410767   1.436   1.682   4.030  0.3201  0.3853 -0.2227
 2674SOL     OW10768   2.200   1.943   3.734 -0.1955  0.0128 -0.1917
 2674SOL    HW210769   2.115   1.952   3.691 -0.9723  0.3271  1.3806
 2674SOL    HW310770   2.214   1.848   3.739  0.1667 -0.0201 -1.6225
 2674SOL    MW410771   2.191   1.932   3.729 -0.2501  0.0499 -0.1731
 2675SOL     OW10772   0.671   3.174   4.387 -0.1244  0.0510 -0.3900
 2675SOL    HW210773   0.590   3.125   4.381 -0.0715 -0.1019  0.1167
 2675SOL    HW310774   0.666   3.238   4.316 -0.8614  0.3018 -0.1146
 2675SOL    MW410775   0.660   3.176   4.377 -0.2147  0.0639 -0.2866
 2676SOL     OW10776   2.065   2.892   4.687  0.2793  0.3128 -0.1425
 2676SOL    HW210777   1.999   2.887   4.757  1.0761 -0.5912  0.5619
 2676SOL    HW310778   2.034   2.831   4.621  0.1033  0.3254 -0.0722
 2676SOL    MW410779   2.052   2.883   4.688  0.3612  0.1953 -0.0405
 2677SOL     OW10780   0.794   2.306   4.350  0.3877 -0.3345  0.2177
 2677SOL    HW210781   0.754   2.233   4.397  0.1244 -0.8168 -0.7376
 2677SOL    HW310782   0.867   2.334   4.405 -0.7454  0.0081  1.5759
 2677SOL    MW410783   0.799   2.300   4.363  0.2034 -0.3531  0.2713
 2678SOL     OW10784   3.055   4.019   4.482 -0.1666  0.0097  0.0180
 2678SOL    HW210785   3.144   4.047   4.460  0.0387  0.4590  1.3723
 2678SOL    HW310786   3.048   3.931   4.445  1.2829 -0.5220  0.9831
 2678SOL    MW410787   3.066   4.011   4.474  0.0520 -0.0014  0.3242
 2679SOL     OW10788   0.779   0.514   4.444  0.0737 -0.0909 -0.5094
 2679SOL    HW210789   0.754   0.592   4.394  0.8188  1.1007  0.9583
 2679SOL    HW310790   0.705   0.499   4.503  0.4242  0.1843  0.0017
 2679SOL    MW410791   0.766   0.522   4.445  0.2183  0.1026 -0.2484
 2680SOL     OW10792   0.073   3.376   4.562 -0.2141  0.0557  0.3040
 2680SOL    HW210793   0.139   3.357   4.495  0.9460  0.2193  1.3889
 2680SOL    HW310794   0.037   3.290   4.585  0.1527 -0.1175  0.2414
 2680SOL    MW410795   0.077   3.362   4.556 -0.0126  0.0548  0.4387
 2681SOL     OW10796   2.819   2.520   4.398 -0.7843 -0.1198 -0.3316
 2681SOL    HW210797   2.914   2.517   4.405 -0.9942 -0.6030  2.6990
 2681SOL    HW310798   2.795   2.433   4.364 -0.2372 -0.4623  0.1429
 2681SOL    MW410799   2.828   2.508   4.394 -0.7396 -0.2289  0.1302
 2682SOL     OW10800   3.956   1.848   4.554 -0.2840  0.3711  0.2033
 2682SOL    HW210801   3.877   1.796   4.572 -1.0492  0.7903 -1.8240
 2682SOL    HW310802   4.028   1.786   4.563 -1.0413 -0.6058 -0.3600
 2682SOL    MW410803   3.955   1.833   4.558 -0.4849  0.2975 -0.1388
 2683SOL     OW10804   1.349   1.084   4.392 -0.4142 -0.7077  0.2463
 2683SOL    HW210805   1.365   1.176   4.368  1.4751 -0.9282  0.5917
 2683SOL    HW310806   1.255   1.079   4.405 -0.4637  1.3737  0.9384
 2683SOL    MW410807   1.339   1.096   4.391 -0.1714 -0.4623  0.3839
 2684SOL     OW10808   2.976   2.286   4.748  0.0946 -0.4400  0.0156
 2684SOL    HW210809   3.062   2.285   4.706  1.0133 -2.0879  1.8336
 2684SOL    HW310810   2.961   2.378   4.770  2.1236 -0.3202  1.0530
 2684SOL    MW410811   2.985   2.298   4.746  0.4838 -0.6418  0.3920
 2685SOL     OW10812   1.564   3.074   3.968 -0.2692  0.2279  0.3537
 2685SOL    HW210813   1.480   3.034   3.993 -0.1835 -0.1582  0.0271
 2685SOL    HW310814   1.630   3.020   4.013 -0.1861  0.4448  0.4950
 2685SOL    MW410815   1.562   3.062   3.978 -0.2470  0.2058  0.3293
 2686SOL     OW10816   1.535   3.222   4.383 -0.6901 -0.2309  0.5384
 2686SOL    HW210817   1.454   3.250   4.425  0.1484  1.7662  0.8948
 2686SOL    HW310818   1.530   3.259   4.295 -0.2105 -0.1627  0.5367
 2686SOL    MW410819   1.524   3.231   4.377 -0.5162  0.0415  0.5856
 2687SOL     OW10820   2.335   0.537   4.360  0.1666  0.1587 -0.2690
 2687SOL    HW210821   2.400   0.607   4.348  0.9575 -0.6920 -1.0480
 2687SOL    HW310822   2.387   0.459   4.377 -0.6792 -0.4356 -0.3829
 2687SOL    MW410823   2.350   0.536   4.360  0.1593 -0.0319 -0.3867
 2688SOL     OW10824   3.774   2.848   3.626 -0.4225  0.1146 -0.2331
 2688SOL    HW210825   3.791   2.939   3.650 -1.5691  0.1164  0.6196
 2688SOL    HW310826   3.698   2.823   3.679  0.5550 -1.6699  0.3555
 2688SOL    MW410827   3.766   2.857   3.636 -0.4449 -0.1206 -0.0429
 2689SOL     OW10828   0.170   2.330   4.012 -0.3616 -0.4292 -0.3095
 2689SOL    HW210829   0.076   2.310   4.021 -0.0761 -1.7181 -0.1057
 2689SOL    HW310830   0.178   2.421   4.041 -1.2468 -0.9076  1.4908
 2689SOL    MW410831   0.158   2.340   4.017 -0.4407 -0.6623 -0.0448
 2690SOL     OW10832   0.845   3.752   4.355  0.2798 -0.0257 -0.0945
 2690SOL    HW210833   0.848   3.843   4.385  2.1479 -0.3498  0.7741
 2690SOL    HW310834   0.883   3.754   4.267 -0.2657  0.1253 -0.3276
 2690SOL    MW410835   0.851   3.765   4.348  0.4544 -0.0484 -0.0100
 2691SOL     OW10836   2.365   4.070   4.065  0.2198  0.0338 -0.1538
 2691SOL    HW210837   2.440   4.127   4.047  0.5474  0.1749  1.5439
 2691SOL    HW310838   2.377   4.043   4.156 -1.0601 -1.0664 -0.2949
 2691SOL    MW410839   2.377   4.074   4.075  0.0937 -0.0925  0.0515
 2692SOL     OW10840   2.615   4.197   3.996  0.4358 -0.0195 -0.1732
 2692SOL    HW210841   2.638   4.208   3.904 -1.0594 -1.3867 -0.7349
 2692SOL    HW310842   2.636   4.281   4.036  1.5810  0.4260 -1.6608
 2692SOL    MW410843   2.621   4.209   3.989  0.3893 -0.1416 -0.4435
 2693SOL     OW10844   1.124   0.809   4.016  0.4051  0.0776  0.0310
 2693SOL    HW210845   1.133   0.886   4.071 -0.6397 -0.0036  0.3344
 2693SOL    HW310846   1.191   0.748   4.047 -1.5706 -0.8322  2.7140
 2693SOL    MW410847   1.134   0.811   4.027  0.0066 -0.0531  0.4249
 2694SOL     OW10848   2.686   2.737   3.740  0.2206  0.1769 -0.7289
 2694SOL    HW210849   2.601   2.777   3.721 -0.2635 -0.3967  0.2075
 2694SOL    HW310850   2.706   2.765   3.829  0.3353 -0.8954 -0.4197
 2694SOL    MW410851   2.678   2.746   3.749  0.1719 -0.0405 -0.5643
 2695SOL     OW10852   0.189   4.046   4.393  0.6492  0.0152  0.2201
 2695SOL    HW210853   0.106   4.003   4.416  1.6973 -2.2855 -0.1711
 2695SOL    HW310854   0.255   3.997   4.441  1.8856  1.2996 -0.1503
 2695SOL    MW410855   0.186   4.034   4.403  0.9506 -0.1192  0.1197
 2696SOL     OW10856   4.452   3.774   4.167  0.2750  0.0618 -0.1827
 2696SOL    HW210857   4.381   3.802   4.109 -0.3090 -2.5525 -0.7725
 2696SOL    HW310858   4.532   3.804   4.123 -0.3127  0.6703 -0.8507
 2696SOL    MW410859   4.453   3.782   4.153  0.1206 -0.2031 -0.3486
 2697SOL     OW10860   3.478   3.692   4.293 -0.2345 -0.0795 -0.1672
 2697SOL    HW210861   3.502   3.774   4.337  0.4891 -1.0242  1.2283
 2697SOL    HW310862   3.492   3.710   4.200  0.4251  1.2120  0.1729
 2697SOL    MW410863   3.483   3.705   4.287 -0.0520 -0.0336  0.0615
 2698SOL     OW10864   3.995   4.239   4.009  0.0348  0.0634 -0.0349
 2698SOL    HW210865   3.973   4.325   4.045  1.5427  0.4504 -0.0358
 2698SOL    HW310866   4.067   4.208   4.063 -0.2976 -1.0822 -0.2332
 2698SOL    MW410867   4.001   4.247   4.021  0.1898 -0.0362 -0.0615
 2699SOL     OW10868   4.475   3.515   4.048  0.2461 -0.1449  0.3512
 2699SOL    HW210869   4.409   3.456   4.083 -0.4342  0.5043  0.1719
 2699SOL    HW310870   4.473   3.591   4.106  0.1376  0.3045 -0.2431
 2699SOL    MW410871   4.466   3.517   4.060  0.1416  0.0000  0.2494
 2700SOL     OW10872   3.936   3.887   4.394  0.0329  0.1080  0.2275
 2700SOL    HW210873   3.967   3.798   4.377  1.8058  0.8606 -0.5422
 2700SOL    HW310874   4.014   3.942   4.388 -1.0491  1.7382  0.6548
 2700SOL    MW410875   3.950   3.883   4.391  0.1240  0.4222  0.1822
 2701SOL     OW10876   0.173   1.025   4.107  0.0581 -0.1420 -0.1702
 2701SOL    HW210877   0.201   0.935   4.089 -1.6487 -1.0489  1.5317
 2701SOL    HW310878   0.097   1.038   4.051 -0.8104 -0.4205  0.9239
 2701SOL    MW410879   0.167   1.015   4.097 -0.2817 -0.2985  0.1988
 2702SOL     OW10880   3.155   3.430   3.711 -0.4583 -0.3845  0.4748
 2702SOL    HW210881   3.210   3.504   3.688 -0.4898 -0.4811  0.0870
 2702SOL    HW310882   3.151   3.431   3.806 -2.8695  1.8981  0.4167
 2702SOL    MW410883   3.162   3.440   3.720 -0.7806 -0.0958  0.4158
 2703SOL     OW10884   1.999   3.315   4.055  0.2808 -0.2736  0.0038
 2703SOL    HW210885   2.010   3.227   4.018 -0.3603 -0.3899  0.0778
 2703SOL    HW310886   1.993   3.300   4.149 -0.1122 -0.1773 -0.0059
 2703SOL    MW410887   2.000   3.301   4.063  0.1446 -0.2761  0.0119
 2704SOL     OW10888   3.366   3.870   3.736 -0.1273  0.3934  0.1046
 2704SOL    HW210889   3.439   3.921   3.699 -0.9546  0.3409 -1.6330
 2704SOL    HW310890   3.361   3.899   3.827  1.2242  1.3520 -0.1013
 2704SOL    MW410891   3.375   3.880   3.743 -0.0579  0.5133 -0.1519
 2705SOL     OW10892   3.466   0.999   4.434  0.1250 -0.1367  0.3203
 2705SOL    HW210893   3.504   0.932   4.490  1.0630 -0.3358 -0.5517
 2705SOL    HW310894   3.474   1.080   4.485 -0.8416 -0.6304  1.2924
 2705SOL    MW410895   3.472   1.001   4.448  0.1209 -0.2280  0.3333
 2706SOL     OW10896   0.107   0.895   4.499  0.2349 -0.1697 -0.0071
 2706SOL    HW210897   0.032   0.846   4.464  0.6673  0.1083 -1.3810
 2706SOL    HW310898   0.082   0.987   4.487  1.2899 -0.0788 -1.5983
 2706SOL    MW410899   0.093   0.901   4.492  0.4311 -0.1209 -0.3982
 2707SOL     OW10900   3.232   2.376   4.613  0.2067  0.0993 -0.0200
 2707SOL    HW210901   3.168   2.419   4.556 -2.4038  0.0117  2.7167
 2707SOL    HW310902   3.287   2.447   4.646 -1.7855  0.9191  1.6264
 2707SOL    MW410903   3.231   2.391   4.610 -0.4008  0.1960  0.5584
 2708SOL     OW10904   2.034   4.637   4.046 -0.4143 -0.0323  0.1715
 2708SOL    HW210905   2.065   4.727   4.034 -0.8385  0.0127 -0.5846
 2708SOL    HW310906   2.111   4.590   4.079 -0.2336  0.6345  0.7197
 2708SOL    MW410907   2.048   4.643   4.049 -0.4466  0.0610  0.1440
 2709SOL     OW10908   3.952   2.280   4.100 -0.5948  0.6305 -0.4453
 2709SOL    HW210909   4.025   2.306   4.044  0.8020  0.2382  1.1446
 2709SOL    HW310910   3.919   2.363   4.135 -1.5558  0.8882 -1.9111
 2709SOL    MW410911   3.958   2.295   4.097 -0.5374  0.6130 -0.4287
 2710SOL     OW10912   1.744   3.459   3.740 -0.0561 -0.1164  0.7070
 2710SOL    HW210913   1.813   3.514   3.703 -0.1399  0.1178  0.8986
 2710SOL    HW310914   1.756   3.465   3.834 -0.3189 -0.1007  0.7402
 2710SOL    MW410915   1.755   3.467   3.747 -0.1018 -0.0834  0.7365
 2711SOL     OW10916   0.202   4.317   4.455  0.2552  0.4475 -0.5422
 2711SOL    HW210917   0.292   4.338   4.431  0.7227  0.4290  1.1197
 2711SOL    HW310918   0.201   4.222   4.465  0.2088  0.5031  0.0159
 2711SOL    MW410919   0.214   4.307   4.453  0.3107  0.4525 -0.2489
 2712SOL     OW10920   4.460   4.460   4.403 -0.2487  0.5104  0.0668
 2712SOL    HW210921   4.391   4.398   4.425 -0.3430  0.9243  0.9233
 2712SOL    HW310922   4.541   4.415   4.429  0.0604 -1.0275 -3.1808
 2712SOL    MW410923   4.462   4.446   4.409 -0.2198  0.3624 -0.2484
 2713SOL     OW10924   1.272   1.454   4.139 -0.2344 -0.0374 -0.3497
 2713SOL    HW210925   1.302   1.370   4.104  1.2933  0.2536  0.2214
 2713SOL    HW310926   1.210   1.486   4.073  1.0754 -0.4483 -1.8296
 2713SOL    MW410927   1.268   1.447   4.126  0.1400 -0.0533 -0.4697
 2714SOL     OW10928   1.958   2.021   3.626 -0.0934  0.3311 -0.5062
 2714SOL    HW210929   1.987   2.107   3.656  0.9908 -0.0270 -0.5064
 2714SOL    HW310930   1.952   2.028   3.531  0.0616  0.3915 -0.5114
 2714SOL    MW410931   1.961   2.033   3.618  0.0701  0.2918 -0.5069
 2715SOL     OW10932   3.782   0.536   3.652 -0.3466 -0.0923  0.2795
 2715SOL    HW210933   3.777   0.620   3.697  0.5259  1.0237 -1.5971
 2715SOL    HW310934   3.870   0.504   3.672 -0.1753  0.1198 -0.1182
 2715SOL    MW410935   3.793   0.543   3.660 -0.2089  0.0829 -0.0205
 2716SOL     OW10936   0.215   0.769   4.032 -0.0806  0.0962  0.1559
 2716SOL    HW210937   0.295   0.728   4.065  0.4687  1.6364  0.7980
 2716SOL    HW310938   0.144   0.731   4.083  0.4659  0.2526  1.0337
 2716SOL    MW410939   0.216   0.759   4.043  0.0640  0.3200  0.3562
 2717SOL     OW10940   2.018   2.286   3.674 -0.3765  0.2949  0.0610
 2717SOL    HW210941   1.934   2.317   3.641 -0.2435  0.1033 -0.4669
 2717SOL    HW310942   2.010   2.291   3.769 -0.5083  1.5208 -0.0103
 2717SOL    MW410943   2.006   2.291   3.682 -0.3762  0.4315 -0.0179
 2718SOL     OW10944   1.357   0.641   4.124  0.6888 -0.1465  0.2610
 2718SOL    HW210945   1.353   0.546   4.110  0.3208  0.0392 -0.9457
 2718SOL    HW310946   1.376   0.651   4.217 -1.0369 -1.4045  0.7677
 2718SOL    MW410947   1.359   0.630   4.135  0.4125 -0.2879  0.1688
 2719SOL     OW10948   4.457   0.362   3.768  0.1524  0.6977  0.1064
 2719SOL    HW210949   4.535   0.407   3.736 -0.8071  2.2188 -0.1511
 2719SOL    HW310950   4.388   0.385   3.705 -1.0608  1.3280  1.6294
 2719SOL    MW410951   4.458   0.371   3.755 -0.1335  0.9815  0.2735
 2720SOL     OW10952   0.426   2.732   3.997 -0.0769  0.7480 -0.3594
 2720SOL    HW210953   0.416   2.715   3.903 -0.8671 -0.8619  0.0067
 2720SOL    HW310954   0.501   2.678   4.023 -0.1987  0.7748  0.0468
 2720SOL    MW410955   0.435   2.723   3.988 -0.1974  0.5391 -0.2575
 2721SOL     OW10956   0.996   3.853   4.669 -0.1019 -0.0802 -0.0755
 2721SOL    HW210957   0.930   3.899   4.617  0.0778  0.8961  0.5407
 2721SOL    HW310958   0.988   3.761   4.643 -0.2728  0.3411 -1.5508
 2721SOL    MW410959   0.986   3.847   4.659 -0.1007  0.1042 -0.1884
 2722SOL     OW10960   1.905   0.546   4.397 -0.5414 -0.6229 -0.3193
 2722SOL    HW210961   1.961   0.619   4.425 -0.6824 -1.0086  0.9833
 2722SOL    HW310962   1.953   0.506   4.325  0.3354 -0.2686  0.0566
 2722SOL    MW410963   1.919   0.551   4.391 -0.4444 -0.6271 -0.0982
 2723SOL     OW10964   4.015   0.383   3.712  0.3205  0.7787 -0.5331
 2723SOL    HW210965   3.993   0.295   3.681  1.1492  0.7046 -0.9388
 2723SOL    HW310966   4.102   0.400   3.674  0.2150  1.7197 -0.3583
 2723SOL    MW410967   4.024   0.374   3.703  0.4158  0.8931 -0.5634
 2724SOL     OW10968   1.957   1.529   3.808 -0.5488 -0.2696  0.0373
 2724SOL    HW210969   1.877   1.562   3.766 -0.1040  0.4405 -0.2582
 2724SOL    HW310970   2.028   1.576   3.765 -0.0206 -0.2657  0.8960
 2724SOL    MW410971   1.956   1.539   3.797 -0.4205 -0.1754  0.1118
 2725SOL     OW10972   3.453   0.898   4.144  0.5241 -0.2216 -0.2627
 2725SOL    HW210973   3.410   0.978   4.112  0.4894  0.0161  0.3641
 2725SOL    HW310974   3.440   0.901   4.238  0.9797 -0.7049 -0.1854
 2725SOL    MW410975   3.446   0.909   4.152  0.5798 -0.2540 -0.1698
 2726SOL     OW10976   1.260   4.316   4.657  0.5377  0.2155  0.4480
 2726SOL    HW210977   1.224   4.359   4.735  0.4541 -1.1416  1.1863
 2726SOL    HW310978   1.201   4.342   4.586 -1.1156 -0.8184  1.3783
 2726SOL    MW410979   1.247   4.325   4.658  0.3086 -0.0997  0.6680
 2727SOL     OW10980   3.600   2.918   4.318 -0.2582 -0.7751 -0.1826
 2727SOL    HW210981   3.596   2.943   4.225 -1.4901  1.2287  0.3805
 2727SOL    HW310982   3.510   2.927   4.349  0.2745 -0.8032  1.3800
 2727SOL    MW410983   3.587   2.922   4.310 -0.3502 -0.5145  0.0982
 2728SOL     OW10984   0.098   0.120   4.270 -0.3135  0.1295 -0.3396
 2728SOL    HW210985   0.130   0.210   4.270 -1.6844  0.6316 -0.7818
 2728SOL    HW310986   0.160   0.072   4.326  0.9864  1.1270 -0.9076
 2728SOL    MW410987   0.111   0.125   4.277 -0.3228  0.3274 -0.4725
 2729SOL     OW10988   4.166   0.398   4.630  0.4947  0.1107  0.2364
 2729SOL    HW210989   4.196   0.360   4.713  0.1642  0.1743  0.3870
 2729SOL    HW310990   4.243   0.441   4.594  0.4758  0.6536  0.8316
 2729SOL    MW410991   4.180   0.399   4.637  0.4487  0.1907  0.3347
 2730SOL     OW10992   2.674   0.305   4.404  0.2402  0.1734 -0.2115
 2730SOL    HW210993   2.708   0.281   4.491  0.9155  3.2368  0.4237
 2730SOL    HW310994   2.735   0.265   4.342  0.4132 -1.0690  0.7334
 2730SOL    MW410995   2.686   0.297   4.408  0.3521  0.4136 -0.0029
 2731SOL     OW10996   0.889   0.648   4.166 -0.4120  0.0634  0.0222
 2731SOL    HW210997   0.813   0.671   4.113  0.1144  2.0542  0.0953
 2731SOL    HW310998   0.964   0.673   4.112  0.2486 -3.1599 -0.6200
 2731SOL    MW410999   0.889   0.655   4.152 -0.2553 -0.0992 -0.0525
 2732SOL     OW11000   3.564   4.302   4.027 -0.2979  0.0381 -0.4657
 2732SOL    HW211001   3.630   4.253   4.077 -1.6814 -1.4653 -0.0763
 2732SOL    HW311002   3.546   4.379   4.080  0.8573  0.2800 -0.3966
 2732SOL    MW411003   3.571   4.306   4.040 -0.3281 -0.1283 -0.4053
 2733SOL     OW11004   2.142   1.090   4.365 -0.0923 -0.2280  0.4035
 2733SOL    HW211005   2.209   1.155   4.390  1.8537 -2.1795  0.4056
 2733SOL    HW311006   2.156   1.076   4.271 -1.4824  0.4202  0.0829
 2733SOL    MW411007   2.153   1.097   4.356 -0.0191 -0.4001  0.3619
 2734SOL     OW11008   3.964   3.205   4.239  0.4703  0.0501 -0.0645
 2734SOL    HW211009   4.019   3.264   4.291  0.4581  0.0229 -0.0203
 2734SOL    HW311010   3.896   3.176   4.300 -0.2930  1.0274 -0.4423
 2734SOL    MW411011   3.963   3.209   4.254  0.3679  0.1755 -0.1082
 2735SOL     OW11012   2.427   2.074   3.343  0.2964  0.1871 -0.4402
 2735SOL    HW211013   2.509   2.031   3.320  0.7095  0.7741 -0.0795
 2735SOL    HW311014   2.420   2.063   3.438  0.9327  1.8261 -0.1956
 2735SOL    MW411015   2.437   2.067   3.353  0.4346  0.4807 -0.3603
 2736SOL     OW11016   2.190   1.651   3.689 -0.0386 -0.6476  0.1473
 2736SOL    HW211017   2.274   1.610   3.712  0.4792  0.4472  0.2211
 2736SOL    HW311018   2.193   1.660   3.594  0.0161 -0.4004  0.1739
 2736SOL    MW411019   2.201   1.647   3.680  0.0370 -0.4704  0.1605
 2737SOL     OW11020   2.510   2.322   4.612 -0.0432  0.4306  0.1479
 2737SOL    HW211021   2.545   2.410   4.627 -1.4235  0.7874  1.4347
 2737SOL    HW311022   2.583   2.264   4.633  0.4750  1.2285  0.6016
 2737SOL    MW411023   2.524   2.326   4.617 -0.1571  0.5827  0.3772
 2738SOL     OW11024   4.004   2.715   3.730 -0.6067  0.8603  0.0095
 2738SOL    HW211025   4.009   2.717   3.825 -0.4058 -2.3576  0.1220
 2738SOL    HW311026   3.919   2.753   3.709 -1.0714  0.6760  1.5287
 2738SOL    MW411027   3.994   2.720   3.740 -0.6416  0.4115  0.2248
 2739SOL     OW11028   3.158   3.482   3.990 -0.1689 -0.1054  0.0683
 2739SOL    HW211029   3.158   3.570   4.029 -0.3857 -0.3001  0.5079
 2739SOL    HW311030   3.082   3.439   4.029 -0.3068 -0.3453 -0.4696
 2739SOL    MW411031   3.148   3.488   4.000 -0.2158 -0.1626  0.0553
 2740SOL     OW11032   3.329   2.961   4.359 -0.7146 -0.4292  0.1170
 2740SOL    HW211033   3.287   2.885   4.400 -0.3859  0.1871  1.6400
 2740SOL    HW311034   3.295   3.036   4.408 -0.9007  0.3891 -1.2668
 2740SOL    MW411035   3.319   2.961   4.371 -0.6959 -0.2398  0.1354
 2741SOL     OW11036   0.028   1.138   4.359 -0.0983 -0.2396  0.0682
 2741SOL    HW211037   0.080   1.107   4.285  0.5573  0.7004  0.1188
 2741SOL    HW311038  -0.062   1.138   4.327  0.2004  0.3289 -0.7926
 2741SOL    MW411039   0.023   1.134   4.345  0.0276 -0.0405 -0.0381
 2742SOL     OW11040   0.622   1.523   4.037 -0.2815 -0.3618 -0.9762
 2742SOL    HW211041   0.637   1.525   3.942  0.3197  1.0188 -0.8691
 2742SOL    HW311042   0.531   1.496   4.047 -0.7878  0.9177 -2.0070
 2742SOL    MW411043   0.612   1.520   4.026 -0.2690 -0.0108 -1.0982
 2743SOL     OW11044   4.202   2.087   3.587 -0.3883 -0.7433 -0.1997
 2743SOL    HW211045   4.120   2.041   3.605 -1.1710  0.3514 -0.9127
 2743SOL    HW311046   4.217   2.072   3.493  0.3546 -1.1307 -0.0236
 2743SOL    MW411047   4.193   2.079   3.577 -0.3939 -0.6502 -0.2706
 2744SOL     OW11048   3.450   0.421   4.013 -0.2491  0.2921  0.1382
 2744SOL    HW211049   3.515   0.396   3.947 -1.1216  0.3100 -0.7453
 2744SOL    HW311050   3.502   0.455   4.086  0.7586 -0.2670 -0.3043
 2744SOL    MW411051   3.466   0.422   4.014 -0.2313  0.2207 -0.0367
 2745SOL     OW11052   4.337   3.131   4.327  0.5377  0.4051 -0.1198
 2745SOL    HW211053   4.270   3.069   4.356  0.3214  0.4935 -0.4245
 2745SOL    HW311054   4.403   3.077   4.284 -0.0512  0.4650 -1.1193
 2745SOL    MW411055   4.337   3.116   4.325  0.4315  0.4246 -0.2913
 2746SOL     OW11056   0.829   4.015   4.464  0.2692  0.1622  0.0609
 2746SOL    HW211057   0.748   4.060   4.488  0.9307  0.9446  0.8548
 2746SOL    HW311058   0.895   4.085   4.459  0.8367 -0.4239 -0.8686
 2746SOL    MW411059   0.827   4.031   4.466  0.4315  0.1884  0.0429
 2747SOL     OW11060   3.791   3.137   4.019  0.1404 -0.4962 -0.2308
 2747SOL    HW211061   3.824   3.114   3.932 -0.5620 -1.4201 -0.2637
 2747SOL    HW311062   3.869   3.137   4.075  0.6288  0.3305 -0.9063
 2747SOL    MW411063   3.806   3.134   4.015  0.1123 -0.5090 -0.3242
 2748SOL     OW11064   0.938   2.923   4.078  0.3356  0.0993  0.2830
 2748SOL    HW211065   0.878   2.992   4.050  2.1424  0.7701 -2.1495
 2748SOL    HW311066   0.953   2.941   4.171 -0.7166  1.8386  0.1410
 2748SOL    MW411067   0.932   2.935   4.087  0.4351  0.4172 -0.0563
 2749SOL     OW11068   3.684   0.001   4.256  0.0423 -0.1874  0.0331
 2749SOL    HW211069   3.605  -0.043   4.224  1.3123 -2.1586 -0.4512
 2749SOL    HW311070   3.705  -0.044   4.338  0.8684  0.0974 -0.0175
 2749SOL    MW411071   3.676  -0.011   4.263  0.3188 -0.4101 -0.0377
 2750SOL     OW11072   4.380   1.756   4.290  0.0752 -0.1472  0.2074
 2750SOL    HW211073   4.306   1.735   4.346 -1.4747 -0.4584 -1.8675
 2750SOL    HW311074   4.424   1.672   4.275 -0.3512 -0.3078 -0.1684
 2750SOL    MW411075   4.376   1.742   4.295 -0.1850 -0.2093 -0.1159
 2751SOL     OW11076   0.671   1.491   4.434  0.3569  0.2844  0.0270
 2751SOL    HW211077   0.611   1.564   4.447  1.0011  0.6033  1.2711
 2751SOL    HW311078   0.754   1.520   4.472  0.7220 -0.9552  0.2171
 2751SOL    MW411079   0.674   1.504   4.441  0.4900  0.1630  0.2165
 2752SOL     OW11080   1.744   1.111   3.764  0.0275 -0.5570 -0.4398
 2752SOL    HW211081   1.752   1.027   3.719  1.1875 -0.6891 -0.0007
 2752SOL    HW311082   1.823   1.159   3.739  0.7322 -0.6593  1.4686
 2752SOL    MW411083   1.756   1.106   3.755  0.2735 -0.5878 -0.1302
 2753SOL     OW11084   3.592   0.765   4.536 -0.1157  0.1386  0.2519
 2753SOL    HW211085   3.533   0.703   4.492 -1.3648  1.1286  0.5134
 2753SOL    HW311086   3.679   0.725   4.527 -0.8051 -1.3071 -0.1980
 2753SOL    MW411087   3.596   0.751   4.529 -0.3712  0.0784  0.2270
 2754SOL     OW11088   2.974   2.565   4.691 -0.2218  0.5662 -0.1939
 2754SOL    HW211089   3.019   2.575   4.607 -0.9801 -0.7941 -0.7892
 2754SOL    HW311090   2.884   2.542   4.667 -0.3241 -0.3083  0.9970
 2754SOL    MW411091   2.968   2.563   4.677 -0.3355  0.2713 -0.1149
 2755SOL     OW11092   0.181   2.343   4.670  0.2048 -0.1927  0.2034
 2755SOL    HW211093   0.116   2.317   4.735 -0.4278  0.1780 -0.2741
 2755SOL    HW311094   0.136   2.407   4.615  0.5001 -1.0716 -1.0708
 2755SOL    MW411095   0.167   2.348   4.672  0.1603 -0.2596 -0.0281
 2756SOL     OW11096   3.648   1.138   4.295  0.8856 -0.4715  0.2666
 2756SOL    HW211097   3.595   1.070   4.337  0.8001 -1.3199 -1.1783
 2756SOL    HW311098   3.588   1.211   4.282  0.1722 -1.2579 -0.9413
 2756SOL    MW411099   3.633   1.139   4.299  0.7806 -0.6871 -0.0830
 2757SOL     OW11100   0.319   0.017   4.422 -0.4067 -0.0649  0.2092
 2757SOL    HW211101   0.274   0.040   4.503 -0.1166  0.3594  0.2523
 2757SOL    HW311102   0.328  -0.078   4.426 -1.4913 -0.1798  0.0907
 2757SOL    MW411103   0.314   0.007   4.433 -0.5115 -0.0241  0.1993
 2758SOL     OW11104   3.981   3.621   4.338 -0.0317  0.1270  0.1981
 2758SOL    HW211105   3.889   3.593   4.343  0.3011 -1.5982 -2.5828
 2758SOL    HW311106   4.027   3.558   4.393 -0.2741 -0.1741  0.0589
 2758SOL    MW411107   3.975   3.609   4.346 -0.0198 -0.1402 -0.1874
 2759SOL     OW11108   0.008   2.522   4.483 -0.1559  0.1580 -0.0424
 2759SOL    HW211109  -0.016   2.447   4.429 -0.6946 -0.4077  0.9647
 2759SOL    HW311110   0.092   2.552   4.448 -0.6615  0.0028 -1.3919
 2759SOL    MW411111   0.016   2.516   4.472 -0.2937  0.0629 -0.0882
 2760SOL     OW11112   1.921   4.633   4.570  0.2821 -0.3174 -0.2711
 2760SOL    HW211113   1.962   4.719   4.557  0.5866  0.0758  2.7878
 2760SOL    HW311114   1.828   4.651   4.575  0.5113  0.2221  2.7743
 2760SOL    MW411115   1.914   4.647   4.569  0.3526 -0.1941  0.5341
 2761SOL     OW11116   3.101   1.057   3.993 -0.0009  0.0237  0.3975
 2761SOL    HW211117   3.183   1.098   4.019  1.2094 -1.5454 -0.8371
 2761SOL    HW311118   3.099   1.065   3.897 -2.2922  1.8720  0.5567
 2761SOL    MW411119   3.112   1.063   3.983 -0.1435  0.0604  0.2558
 2762SOL     OW11120   3.964   4.482   4.127 -0.4170  0.2227 -0.1397
 2762SOL    HW211121   4.056   4.511   4.132  0.0393 -1.4348  3.0679
 2762SOL    HW311122   3.914   4.562   4.114  1.2459  1.7025  2.1140
 2762SOL    MW411123   3.970   4.496   4.126 -0.1373  0.1993  0.5813
 2763SOL     OW11124   3.258   0.349   4.734 -0.4378  0.4792  0.0446
 2763SOL    HW211125   3.171   0.349   4.695 -0.4093  1.2042 -0.0359
 2763SOL    HW311126   3.249   0.300   4.815 -0.9198  0.5613  0.0390
 2763SOL    MW411127   3.245   0.343   4.739 -0.4976  0.5857  0.0329
 2764SOL     OW11128   1.059   4.157   4.417 -0.4122 -0.2987  0.1205
 2764SOL    HW211129   1.076   4.151   4.323 -0.3897  1.1644  0.0138
 2764SOL    HW311130   1.105   4.083   4.455  0.6335 -0.1819 -0.8923
 2764SOL    MW411131   1.067   4.147   4.410 -0.2713 -0.0901 -0.0272
 2765SOL     OW11132   0.203   3.865   4.050 -0.0004 -0.1294  0.4229
 2765SOL    HW211133   0.214   3.859   3.955  0.8088 -0.6087  0.5409
 2765SOL    HW311134   0.204   3.959   4.068 -2.9592  0.1049 -0.3420
 2765SOL    MW411135   0.205   3.876   4.040 -0.2841 -0.1616  0.3386
 2766SOL     OW11136   2.404   2.747   4.100 -0.3349 -0.1182  0.0316
 2766SOL    HW211137   2.332   2.808   4.084 -0.6829 -0.9033 -1.5577
 2766SOL    HW311138   2.368   2.661   4.078  0.5152 -0.7627  1.0837
 2766SOL    MW411139   2.390   2.744   4.095 -0.2685 -0.3066 -0.0396
 2767SOL     OW11140   4.104   0.168   4.459  0.1683  0.0665  0.1904
 2767SOL    HW211141   4.129   0.210   4.376  1.5812 -1.0954  0.0262
 2767SOL    HW311142   4.117   0.237   4.525  0.9823  0.3789 -0.2862
 2767SOL    MW411143   4.109   0.183   4.457  0.4616 -0.0456  0.1059
 2768SOL     OW11144   1.121   1.070   4.131 -0.1189 -0.1272 -0.2399
 2768SOL    HW211145   1.033   1.088   4.100 -0.0842  0.6785  0.1308
 2768SOL    HW311146   1.112   1.061   4.226  0.0266 -1.0699 -0.3105
 2768SOL    MW411147   1.109   1.071   4.139 -0.0950 -0.1453 -0.1998
 2769SOL     OW11148   4.300   0.220   4.237  0.4570  0.0728  0.6217
 2769SOL    HW211149   4.379   0.165   4.245  0.0010 -0.4840  1.3497
 2769SOL    HW311150   4.306   0.258   4.150  0.9823 -0.8372  0.2568
 2769SOL    MW411151   4.312   0.218   4.227  0.4659 -0.1208  0.6690
 2770SOL     OW11152   3.108   1.088   3.722  0.1687 -0.3821  0.1628
 2770SOL    HW211153   3.128   0.997   3.699 -0.1667 -0.9472  2.0181
 2770SOL    HW311154   3.176   1.140   3.679  0.6958 -1.5702 -0.4356
 2770SOL    MW411155   3.120   1.083   3.714  0.1943 -0.6135  0.3285
 2771SOL     OW11156   4.291   3.829   3.704 -0.2182 -0.3404  0.5882
 2771SOL    HW211157   4.279   3.745   3.660 -1.0448 -0.9367  1.9366
 2771SOL    HW311158   4.217   3.882   3.674 -0.0955 -0.3306  0.2997
 2771SOL    MW411159   4.280   3.825   3.694 -0.3109 -0.4177  0.7284
 2772SOL     OW11160   1.558   0.898   4.392 -0.0366 -0.1951  0.0871
 2772SOL    HW211161   1.630   0.936   4.442 -1.5533  2.0215  0.6784
 2772SOL    HW311162   1.483   0.954   4.413 -1.7417 -1.9847 -1.1187
 2772SOL    MW411163   1.557   0.910   4.401 -0.4616 -0.1388  0.0067
 2773SOL     OW11164   2.547   3.780   4.434  0.1109 -0.4808 -0.3088
 2773SOL    HW211165   2.620   3.718   4.429  0.9024  0.4260 -0.1454
 2773SOL    HW311166   2.541   3.801   4.527 -0.4254 -0.6140 -0.3089
 2773SOL    MW411167   2.556   3.774   4.446  0.1447 -0.3786 -0.2866
 2774SOL     OW11168   2.414   2.331   3.710 -0.0820  0.4964  0.5458
 2774SOL    HW211169   2.496   2.379   3.701 -0.2029  0.3885 -1.3436
 2774SOL    HW311170   2.399   2.326   3.804  0.9530  2.4108  0.8312
 2774SOL    MW411171   2.423   2.337   3.721  0.0384  0.7348  0.3340
 2775SOL     OW11172   3.770   4.138   4.124  1.0436  0.3926 -0.0052
 2775SOL    HW211173   3.849   4.169   4.080  2.5961  0.3664  2.6614
 2775SOL    HW311174   3.752   4.054   4.083  0.8552  1.5652 -2.4418
 2775SOL    MW411175   3.778   4.131   4.112  1.2233  0.5441  0.0253
 2776SOL     OW11176   2.276   3.375   4.336 -0.4843 -0.6016  0.1842
 2776SOL    HW211177   2.183   3.351   4.338 -0.9345  1.0922  0.4901
 2776SOL    HW311178   2.280   3.460   4.380  1.3663 -1.1344  1.0871
 2776SOL    MW411179   2.264   3.383   4.342 -0.2995 -0.4482  0.3433
 2777SOL     OW11180   2.542   1.862   3.968 -0.2296 -0.0960  0.1826
 2777SOL    HW211181   2.585   1.877   4.052  1.1599 -0.8966 -0.3768
 2777SOL    HW311182   2.470   1.925   3.967  0.9369  1.2810  1.1192
 2777SOL    MW411183   2.538   1.872   3.979  0.1078 -0.0200  0.2325
 2778SOL     OW11184   0.244   4.129   4.140  0.0008 -0.2981  0.4922
 2778SOL    HW211185   0.227   4.118   4.234 -1.1382  0.6182  0.4095
 2778SOL    HW311186   0.162   4.165   4.105 -0.1070 -2.0715 -1.1381
 2778SOL    MW411187   0.231   4.133   4.148 -0.1637 -0.4110  0.2661
 2779SOL     OW11188   4.404   2.253   4.051 -0.1656  0.0854  0.0869
 2779SOL    HW211189   4.421   2.159   4.042 -0.2642  0.0215  0.5346
 2779SOL    HW311190   4.402   2.268   4.146  2.0886  0.9344  0.0273
 2779SOL    MW411191   4.406   2.242   4.063  0.1187  0.1888  0.1378
 2780SOL     OW11192   0.917   2.757   4.413  0.4577 -0.0373 -0.2227
 2780SOL    HW211193   0.829   2.722   4.401  0.1722  0.0633  1.4613
 2780SOL    HW311194   0.908   2.851   4.397  0.1828  0.0265  0.3037
 2780SOL    MW411195   0.905   2.765   4.410  0.3838 -0.0155  0.0691
 2781SOL     OW11196   3.131   4.218   3.724 -0.4637 -0.0040 -0.0522
 2781SOL    HW211197   3.205   4.275   3.703 -0.1738 -0.0234  0.9122
 2781SOL    HW311198   3.109   4.238   3.814 -1.2192 -0.4662 -0.1296
 2781SOL    MW411199   3.138   4.228   3.733 -0.5252 -0.0672  0.0651
 2782SOL     OW11200   3.219   1.498   3.743 -0.0123  0.1373  0.1727
 2782SOL    HW211201   3.153   1.556   3.705 -0.0045  0.2482  0.3284
 2782SOL    HW311202   3.286   1.557   3.778 -0.0241  0.0329  0.3668
 2782SOL    MW411203   3.219   1.514   3.742 -0.0131  0.1379  0.2186
 2783SOL     OW11204   0.618   4.658   4.018 -0.2590  0.0713  0.2577
 2783SOL    HW211205   0.692   4.610   4.056 -0.6181 -1.2371 -0.6436
 2783SOL    HW311206   0.642   4.668   3.926 -1.2180 -0.4154 -0.0491
 2783SOL    MW411207   0.631   4.653   4.011 -0.4329 -0.1656  0.0982
 2784SOL     OW11208   1.165   3.423   4.565 -0.1841  0.6384 -0.2154
 2784SOL    HW211209   1.235   3.479   4.599  1.1330 -0.4819 -1.0109
 2784SOL    HW311210   1.088   3.479   4.562  0.7840  2.0162  0.2692
 2784SOL    MW411211   1.164   3.437   4.569  0.1174  0.6723 -0.2565
 2785SOL     OW11212   2.003   2.271   3.957  0.5990  0.3969  0.1516
 2785SOL    HW211213   2.027   2.351   4.003  2.4747 -0.9712  1.6437
 2785SOL    HW311214   2.038   2.201   4.011 -1.1627 -1.4648 -1.0339
 2785SOL    MW411215   2.010   2.272   3.970  0.6139 -0.0296  0.1922
 2786SOL     OW11216   0.679   3.861   3.719 -0.0628 -0.2797 -0.0484
 2786SOL    HW211217   0.687   3.858   3.814 -1.1960  0.2156  0.0662
 2786SOL    HW311218   0.743   3.926   3.691  2.3917 -2.5213  0.0940
 2786SOL    MW411219   0.688   3.869   3.728  0.1115 -0.5100 -0.0145
 2787SOL     OW11220   3.035   4.463   4.386 -0.4984  0.1108  0.4373
 2787SOL    HW211221   2.989   4.488   4.307  0.2666  0.7919  0.2079
 2787SOL    HW311222   3.008   4.372   4.401 -0.9114  0.0882 -0.4033
 2787SOL    MW411223   3.025   4.454   4.378 -0.4520  0.1979  0.2961
 2788SOL     OW11224   2.297   3.680   4.362  0.4689  0.0609 -0.3608
 2788SOL    HW211225   2.385   3.714   4.377  0.6940 -0.7235  0.0859
 2788SOL    HW311226   2.282   3.693   4.268  1.1237  0.0404 -0.4680
 2788SOL    MW411227   2.307   3.686   4.352  0.5848 -0.0455 -0.3157
 2789SOL     OW11228   1.096   0.199   4.106 -0.0227  0.1664  0.5310
 2789SOL    HW211229   1.014   0.246   4.090 -0.0043  0.1014  0.2382
 2789SOL    HW311230   1.110   0.205   4.200  0.5613  1.7420  0.3590
 2789SOL    MW411231   1.087   0.206   4.116  0.0569  0.3657  0.4702
 2790SOL     OW11232   4.005   4.248   3.730 -0.4507  0.3689 -0.0542
 2790SOL    HW211233   4.005   4.223   3.823  0.8584 -0.3538 -0.2237
 2790SOL    HW311234   4.090   4.290   3.717 -0.9031  1.0661 -0.7776
 2790SOL    MW411235   4.017   4.250   3.741 -0.3376  0.3653 -0.1719
 2791SOL     OW11236   4.228   3.859   4.006  0.0412  0.0383 -0.6919
 2791SOL    HW211237   4.243   3.824   3.918  2.2947 -0.9428  0.0330
 2791SOL    HW311238   4.159   3.805   4.043 -0.4059 -0.0155 -1.5928
 2791SOL    MW411239   4.221   3.848   3.999  0.2799 -0.0980 -0.7155
 2792SOL     OW11240   3.807   3.601   3.613  0.4644  0.1002 -0.2453
 2792SOL    HW211241   3.885   3.567   3.657 -1.4817 -0.6696  2.8015
 2792SOL    HW311242   3.802   3.692   3.642  0.4785  0.2933 -0.8398
 2792SOL    MW411243   3.817   3.609   3.623  0.2096  0.0243  0.0782
 2793SOL     OW11244   0.992   1.328   4.366 -0.1856 -0.4744 -0.3524
 2793SOL    HW211245   1.048   1.404   4.375 -0.0620 -0.4581 -1.1837
 2793SOL    HW311246   0.932   1.351   4.295 -1.0358 -0.6128  0.3200
 2793SOL    MW411247   0.991   1.341   4.357 -0.2815 -0.4905 -0.3734
 2794SOL     OW11248   3.088   4.590   3.965 -0.1909 -0.8095  0.4132
 2794SOL    HW211249   3.093   4.495   3.960 -0.7972 -0.7554 -1.1610
 2794SOL    HW311250   3.180   4.619   3.963 -0.0796 -1.1396 -3.9528
 2794SOL    MW411251   3.101   4.582   3.964 -0.2563 -0.8459 -0.3705
 2795SOL     OW11252   1.332   3.470   4.063 -0.0094 -0.2057 -0.2086
 2795SOL    HW211253   1.402   3.412   4.093  0.1937  0.3552  0.4183
 2795SOL    HW311254   1.252   3.423   4.083  0.1044  0.2697  1.5321
 2795SOL    MW411255   1.331   3.457   4.070  0.0323 -0.0691  0.1035
 2796SOL     OW11256   1.681   1.992   4.026 -0.1273  0.1486  0.4471
 2796SOL    HW211257   1.700   1.960   3.938 -0.6059  2.2020 -0.4138
 2796SOL    HW311258   1.703   2.085   4.024 -2.7730  0.8530  1.6643
 2796SOL    MW411259   1.686   2.000   4.014 -0.5395  0.5126  0.4945
 2797SOL     OW11260   2.375   2.279   4.011  0.4018 -0.0092  0.1811
 2797SOL    HW211261   2.436   2.279   4.085 -0.9755  1.0090  1.3769
 2797SOL    HW311262   2.337   2.191   4.011  2.1382 -0.7798 -0.8328
 2797SOL    MW411263   2.378   2.268   4.021  0.4492  0.0236  0.2050
 2798SOL     OW11264   1.342   0.373   4.048 -0.0093  0.0820  0.8526
 2798SOL    HW211265   1.259   0.325   4.055  0.3019 -0.6761 -0.6033
 2798SOL    HW311266   1.407   0.315   4.088  0.1117 -0.0474  0.4630
 2798SOL    MW411267   1.339   0.359   4.054  0.0477 -0.0351  0.6089
 2799SOL     OW11268   3.155   2.814   3.972  0.2570 -0.3883 -0.2682
 2799SOL    HW211269   3.119   2.790   4.057  1.2618 -1.9183 -0.2625
 2799SOL    HW311270   3.210   2.891   3.989  0.5779 -0.7806  0.4852
 2799SOL    MW411271   3.157   2.821   3.985  0.4315 -0.6418 -0.1676
 2800SOL     OW11272   2.831   0.198   4.199  0.1554  0.3590 -0.2989
 2800SOL    HW211273   2.915   0.243   4.197  0.1909  0.1998 -2.7602
 2800SOL    HW311274   2.776   0.246   4.138 -1.1940 -0.2609  0.4032
 2800SOL    MW411275   2.835   0.210   4.191 -0.0181  0.2562 -0.5312
 2801SOL     OW11276   2.202   3.486   3.988 -0.6914  0.0487  0.1990
 2801SOL    HW211277   2.140   3.420   4.019  0.0834 -1.0485 -0.5650
 2801SOL    HW311278   2.285   3.462   4.029 -0.6838  1.3045  0.9392
 2801SOL    MW411279   2.205   3.474   3.998 -0.5884  0.0696  0.1955
 2802SOL     OW11280   2.391   3.134   4.390 -0.3470  0.4793 -0.4628
 2802SOL    HW211281   2.353   3.221   4.396  0.5345  0.8206  0.1853
 2802SOL    HW311282   2.374   3.094   4.476 -0.5927  0.0739 -0.6964
 2802SOL    MW411283   2.384   3.140   4.402 -0.2632  0.4711 -0.4086
 2803SOL     OW11284   2.687   2.763   4.035  0.0278  0.2021 -0.5104
 2803SOL    HW211285   2.735   2.741   4.116  1.1677  1.6809 -0.7598
 2803SOL    HW311286   2.595   2.753   4.058  0.3644 -0.0202  0.7893
 2803SOL    MW411287   2.681   2.759   4.049  0.2227  0.3679 -0.3719
 2804SOL     OW11288   4.041   1.697   3.628 -0.1555  0.3200 -0.2152
 2804SOL    HW211289   4.023   1.692   3.534 -0.4551 -0.9337 -0.1020
 2804SOL    HW311290   3.967   1.653   3.670  1.0917 -1.2199  0.4623
 2804SOL    MW411291   4.029   1.690   3.621 -0.0305 -0.0486 -0.1106
 2805SOL     OW11292   3.781   3.099   4.416  0.3409  0.2566  0.4289
 2805SOL    HW211293   3.727   3.171   4.448  2.1087  1.8687 -0.0654
 2805SOL    HW311294   3.719   3.037   4.378 -1.3856  0.5662  2.6144
 2805SOL    MW411295   3.766   3.100   4.415  0.3462  0.5102  0.6528
 2806SOL     OW11296   0.025   2.959   4.223 -0.2074  0.1101  0.4879
 2806SOL    HW211297  -0.002   2.880   4.176  0.1432 -0.1092  0.6502
 2806SOL    HW311298   0.080   2.926   4.295 -1.3051  0.3805  1.4694
 2806SOL    MW411299   0.029   2.944   4.227 -0.3060  0.1171  0.6385
 2807SOL     OW11300   2.060   3.708   4.512 -0.4707  0.4681  0.2722
 2807SOL    HW211301   2.141   3.697   4.464  0.2219  0.4597  1.4217
 2807SOL    HW311302   2.030   3.796   4.490  0.1430  0.6782  0.2796
 2807SOL    MW411303   2.067   3.718   4.503 -0.2983  0.4947  0.4249
 2808SOL     OW11304   3.342   0.013   3.952 -0.3162  0.0821  0.2222
 2808SOL    HW211305   3.313   0.104   3.943 -0.0389  0.0806 -0.8389
 2808SOL    HW311306   3.366  -0.012   3.863  1.2094 -0.4967  0.7920
 2808SOL    MW411307   3.341   0.022   3.939 -0.0782  0.0056  0.1576
 2809SOL     OW11308   3.555   0.894   3.592 -1.1166 -0.0713  0.1998
 2809SOL    HW211309   3.543   0.985   3.621 -2.5636  0.9392 -3.3324
 2809SOL    HW311310   3.486   0.846   3.638 -1.3153  0.8765  0.9235
 2809SOL    MW411311   3.544   0.900   3.602 -1.3337  0.1870 -0.1709
 2810SOL     OW11312   1.833   3.703   4.150 -0.1608  0.1116  0.1780
 2810SOL    HW211313   1.904   3.760   4.119  0.3892 -0.0851  1.0456
 2810SOL    HW311314   1.754   3.744   4.116  0.4227 -0.2369 -1.6833
 2810SOL    MW411315   1.832   3.716   4.141 -0.0113  0.0396  0.0467
 2811SOL     OW11316   0.221   3.106   3.725  0.1646 -0.2971  0.0381
 2811SOL    HW211317   0.203   3.016   3.699  0.3003 -0.4314  0.3944
 2811SOL    HW311318   0.220   3.104   3.821 -1.6538  0.4584  0.0526
 2811SOL    MW411319   0.218   3.094   3.734 -0.0574 -0.2151  0.0870
 2812SOL     OW11320   3.094   0.790   4.044 -0.5374  0.2929 -0.4184
 2812SOL    HW211321   3.098   0.884   4.029 -0.2836  0.4423  0.5639
 2812SOL    HW311322   3.172   0.755   4.000  0.1157  0.7028  0.4076
 2812SOL    MW411323   3.105   0.798   4.036 -0.4175  0.3666 -0.1807
 2813SOL     OW11324   1.993   2.487   4.375  0.2695  0.1242 -0.1168
 2813SOL    HW211325   2.040   2.404   4.361  0.2302  0.3379 -1.5690
 2813SOL    HW311326   1.905   2.460   4.403  0.0222 -0.3559 -1.3015
 2813SOL    MW411327   1.988   2.473   4.377  0.2315  0.0892 -0.4649
 2814SOL     OW11328   2.432   3.377   4.109 -0.1723 -0.1028  0.0685
 2814SOL    HW211329   2.387   3.385   4.193 -1.3277 -0.7424 -0.4720
 2814SOL    HW311330   2.452   3.284   4.102 -1.2144 -0.2680 -0.9246
 2814SOL    MW411331   2.428   3.366   4.119 -0.4623 -0.2091 -0.1335
 2815SOL     OW11332   2.535   0.751   4.341 -0.1349 -0.6112  0.1837
 2815SOL    HW211333   2.564   0.842   4.335 -0.1047 -0.6975 -1.0570
 2815SOL    HW311334   2.616   0.700   4.347 -0.0743 -0.7060 -1.2854
 2815SOL    MW411335   2.549   0.756   4.341 -0.1233 -0.6351 -0.1731
 2816SOL     OW11336   0.184   3.083   4.009 -0.4899 -0.4166  0.0534
 2816SOL    HW211337   0.134   3.026   4.067  0.1328  0.0875  1.0861
 2816SOL    HW311338   0.174   3.171   4.046 -0.2219 -0.0673 -0.6867
 2816SOL    MW411339   0.176   3.087   4.021 -0.3724 -0.3040  0.0916
 2817SOL     OW11340   2.658   2.450   3.361 -0.1195 -0.3790 -0.0041
 2817SOL    HW211341   2.649   2.447   3.456  0.0481 -0.1401  0.0204
 2817SOL    HW311342   2.733   2.393   3.342  0.5068  0.4001  0.1011
 2817SOL    MW411343   2.667   2.442   3.371 -0.0148 -0.2449  0.0131
 2818SOL     OW11344   0.383   2.201   4.126  0.0238 -0.3565 -0.1359
 2818SOL    HW211345   0.389   2.114   4.087  0.1383 -0.4452  0.0781
 2818SOL    HW311346   0.307   2.241   4.084 -1.2039 -1.2789  1.1822
 2818SOL    MW411347   0.374   2.195   4.116 -0.1231 -0.4900  0.0658
 2819SOL     OW11348   0.472   1.697   4.423 -0.1142 -0.3976 -0.3302
 2819SOL    HW211349   0.483   1.710   4.329 -0.6330 -0.8534 -0.4518
 2819SOL    HW311350   0.476   1.786   4.459  1.1760 -0.2982 -0.6581
 2819SOL    MW411351   0.474   1.711   4.415 -0.0124 -0.4447 -0.3891
 2820SOL     OW11352   4.052   2.741   3.989 -0.1419 -0.1270  0.4453
 2820SOL    HW211353   4.120   2.684   4.024  0.3972  0.5202  0.4438
 2820SOL    HW311354   4.043   2.811   4.053 -2.2884 -1.3209  1.4915
 2820SOL    MW411355   4.060   2.743   4.002 -0.3543 -0.1993  0.5832
 2821SOL     OW11356   3.051   2.334   4.288  0.3461 -0.7284 -0.1701
 2821SOL    HW211357   3.080   2.410   4.339  1.0241 -0.3930 -1.0536
 2821SOL    HW311358   2.960   2.321   4.316 -0.0752  0.9698 -0.6672
 2821SOL    MW411359   3.043   2.343   4.298  0.3800 -0.4601 -0.3524
 2822SOL     OW11360   2.819   2.746   4.279 -0.3624  0.2323 -0.1457
 2822SOL    HW211361   2.797   2.659   4.312 -2.5681 -0.0935 -2.3831
 2822SOL    HW311362   2.915   2.748   4.279 -0.3014 -1.7082  1.1220
 2822SOL    MW411363   2.829   2.735   4.283 -0.6449 -0.0670 -0.2732
 2823SOL     OW11364   3.954   2.712   4.597  0.1381  0.2085 -0.2223
 2823SOL    HW211365   3.881   2.689   4.539 -0.6824 -1.1312  1.2764
 2823SOL    HW311366   3.989   2.627   4.625  0.6166  0.8222  1.0949
 2823SOL    MW411367   3.949   2.697   4.593  0.0930  0.1125  0.1497
 2824SOL     OW11368   2.008   4.228   4.386  0.0772 -0.7638  0.0422
 2824SOL    HW211369   1.984   4.178   4.308 -1.3146 -1.2642  0.7871
 2824SOL    HW311370   1.936   4.289   4.400  2.1412  2.1290 -1.3638
 2824SOL    MW411371   1.995   4.229   4.378  0.1659 -0.4478 -0.0453
 2825SOL     OW11372   3.733   1.673   4.575  0.1898  0.1480  0.3940
 2825SOL    HW211373   3.642   1.699   4.588 -0.2392 -0.3397 -1.5599
 2825SOL    HW311374   3.736   1.581   4.602 -0.3980 -0.4699 -1.5761
 2825SOL    MW411375   3.721   1.665   4.580  0.0556  0.0023 -0.1235
 2826SOL     OW11376   1.643   1.390   4.355 -0.3245 -0.3478  0.3468
 2826SOL    HW211377   1.661   1.482   4.370 -1.4841 -0.2573  1.1869
 2826SOL    HW311378   1.699   1.367   4.280 -2.0649  1.7225 -1.6409
 2826SOL    MW411379   1.653   1.399   4.347 -0.7071 -0.0627  0.1950
 2827SOL     OW11380   3.044   2.900   4.629 -0.6622 -0.4859  0.4320
 2827SOL    HW211381   3.063   2.854   4.711 -0.2510  0.3602  0.8251
 2827SOL    HW311382   3.093   2.851   4.563  0.4798 -0.1130  0.9794
 2827SOL    MW411383   3.053   2.887   4.631 -0.4573 -0.3250  0.5560
 2828SOL     OW11384   3.559   4.268   3.744 -0.0005 -0.1062  0.2953
 2828SOL    HW211385   3.567   4.283   3.838 -0.5488 -1.0047  0.4915
 2828SOL    HW311386   3.637   4.309   3.706 -0.0106  0.6577  1.0897
 2828SOL    MW411387   3.571   4.275   3.751 -0.0739 -0.1240  0.4263
 2829SOL     OW11388   4.407   3.153   4.599 -0.3348 -0.0810 -0.4411
 2829SOL    HW211389   4.330   3.171   4.653 -0.5090 -0.3465 -0.6044
 2829SOL    HW311390   4.374   3.153   4.509 -0.1114 -0.0145 -0.5231
 2829SOL    MW411391   4.393   3.155   4.594 -0.3281 -0.1073 -0.4730
 2830SOL     OW11392   2.653   1.925   3.725  0.0492  0.1442 -0.2907
 2830SOL    HW211393   2.572   1.954   3.683  0.5326  0.2926 -1.1395
 2830SOL    HW311394   2.630   1.915   3.818 -1.0236 -0.1504 -0.5792
 2830SOL    MW411395   2.639   1.927   3.732 -0.0284  0.1249 -0.4408
 2831SOL     OW11396   4.270   1.557   3.695 -0.1408  0.3712  0.0994
 2831SOL    HW211397   4.250   1.464   3.695 -1.1445  0.5797 -0.7930
 2831SOL    HW311398   4.190   1.599   3.662  0.2827  1.5452  0.5298
 2831SOL    MW411399   4.257   1.550   3.691 -0.2179  0.5537  0.0384
 2832SOL     OW11400   2.161   0.719   4.093 -0.0772 -0.7498  0.2408
 2832SOL    HW211401   2.140   0.689   4.181 -0.5672 -2.2449 -0.3555
 2832SOL    HW311402   2.102   0.668   4.036  1.2000 -0.8316 -1.0403
 2832SOL    MW411403   2.150   0.708   4.097  0.0269 -0.9579 -0.0072
 2833SOL     OW11404   1.728   2.244   3.995  0.2351  0.1943  0.3185
 2833SOL    HW211405   1.817   2.274   3.974  0.4406 -1.1103 -0.7872
 2833SOL    HW311406   1.675   2.272   3.921 -0.1317  0.3539  0.6406
 2833SOL    MW411407   1.733   2.251   3.982  0.2137  0.0432  0.2151
 2834SOL     OW11408   3.707   3.540   4.352 -0.4599 -0.1679  0.6221
 2834SOL    HW211409   3.672   3.471   4.409  1.9542  0.0847  2.5060
 2834SOL    HW311410   3.636   3.603   4.344 -0.9578 -0.3354  3.1848
 2834SOL    MW411411   3.693   3.539   4.359 -0.2069 -0.1566  1.2088
 2835SOL     OW11412   0.867   1.419   4.115  0.6643  0.8265  0.2249
 2835SOL    HW211413   0.924   1.479   4.068  0.0429  2.1455  1.1320
 2835SOL    HW311414   0.780   1.459   4.111  0.1305 -0.2795  0.3628
 2835SOL    MW411415   0.863   1.432   4.109  0.5118  0.8546  0.3624
 2836SOL     OW11416   3.891   0.722   4.431 -0.1629  0.1194 -0.1189
 2836SOL    HW211417   3.914   0.629   4.442  2.4164  0.5234 -1.6757
 2836SOL    HW311418   3.855   0.728   4.343 -0.3381  0.6024 -0.0149
 2836SOL    MW411419   3.889   0.710   4.421  0.1543  0.2365 -0.3104
 2837SOL     OW11420   4.001   0.273   3.958  0.3391  0.2393  0.0130
 2837SOL    HW211421   3.938   0.203   3.971  0.0321  0.1683 -1.6865
 2837SOL    HW311422   3.981   0.307   3.870  1.0881  1.8225  0.4371
 2837SOL    MW411423   3.990   0.268   3.948  0.3972  0.4388 -0.1554
 2838SOL     OW11424   4.167   1.046   4.030 -0.0437  0.6330  0.4600
 2838SOL    HW211425   4.124   1.049   3.944 -1.4732 -0.0972  1.1386
 2838SOL    HW311426   4.138   0.964   4.069  0.7213  0.8889  1.5982
 2838SOL    MW411427   4.158   1.036   4.024 -0.1311  0.5705  0.6995
 2839SOL     OW11428   3.141   1.935   3.711  0.3481  0.4017  0.2401
 2839SOL    HW211429   3.054   1.964   3.686  0.0572  1.3602  2.2285
 2839SOL    HW311430   3.200   1.980   3.651 -0.5274 -0.4059 -1.2396
 2839SOL    MW411431   3.138   1.945   3.700  0.1941  0.4216  0.3068
 2840SOL     OW11432   1.105   3.312   4.133  0.5538 -0.1512 -0.1030
 2840SOL    HW211433   1.102   3.234   4.078  0.1938  0.7787 -1.4551
 2840SOL    HW311434   1.036   3.369   4.096  0.1560  0.3957  1.4616
 2840SOL    MW411435   1.095   3.309   4.121  0.4539  0.0439 -0.0749
 2841SOL     OW11436   0.885   1.158   4.028 -0.1667 -0.1617 -0.6192
 2841SOL    HW211437   0.888   1.175   3.934 -0.5443 -0.6249 -0.7135
 2841SOL    HW311438   0.893   1.245   4.068  0.3446  0.0036 -1.0674
 2841SOL    MW411439   0.887   1.172   4.021 -0.1491 -0.2011 -0.6905
 2842SOL     OW11440   1.431   4.109   4.562 -0.1383  0.0669 -0.4692
 2842SOL    HW211441   1.371   4.172   4.602 -1.1668 -0.4422 -1.1851
 2842SOL    HW311442   1.377   4.032   4.544  0.4468  0.0405 -2.2268
 2842SOL    MW411443   1.416   4.107   4.565 -0.1968 -0.0038 -0.7949
 2843SOL     OW11444   2.668   0.328   4.012  0.1713 -0.6834 -0.1096
 2843SOL    HW211445   2.592   0.271   4.010 -0.4200  0.1204 -1.6080
 2843SOL    HW311446   2.698   0.332   3.921  0.5324  0.9399  0.0530
 2843SOL    MW411447   2.662   0.321   3.999  0.1409 -0.3632 -0.2856
 2844SOL     OW11448   0.872   0.799   4.379 -0.1471 -0.2792 -0.4478
 2844SOL    HW211449   0.923   0.750   4.445  0.2933  0.2206 -0.4058
 2844SOL    HW311450   0.889   0.753   4.297  1.2819  0.5235 -0.6296
 2844SOL    MW411451   0.881   0.786   4.377  0.0995 -0.1073 -0.4663
 2845SOL     OW11452   2.339   1.395   4.142 -0.0115  0.1939 -0.3250
 2845SOL    HW211453   2.387   1.452   4.083 -0.7974  0.8807 -0.3094
 2845SOL    HW311454   2.304   1.326   4.085  0.2861  0.1584 -0.4651
 2845SOL    MW411455   2.341   1.393   4.127 -0.0758  0.2799 -0.3414
 2846SOL     OW11456   0.443   0.661   4.153  0.3538 -0.0012 -0.1873
 2846SOL    HW211457   0.424   0.710   4.233 -0.5153  2.1677 -1.6605
 2846SOL    HW311458   0.528   0.693   4.124  0.8104 -1.0065  0.0262
 2846SOL    MW411459   0.451   0.671   4.160  0.2994  0.1523 -0.3529
 2847SOL     OW11460   0.207   4.638   4.065 -0.1787  0.6795 -0.1176
 2847SOL    HW211461   0.173   4.697   4.132  1.6369 -0.2151  1.6277
 2847SOL    HW311462   0.287   4.602   4.103 -1.0216 -2.6068 -1.2939
 2847SOL    MW411463   0.213   4.641   4.079 -0.0504  0.1278 -0.0424
 2848SOL     OW11464   1.761   4.467   4.154 -0.4625 -0.0233 -0.0606
 2848SOL    HW211465   1.841   4.510   4.122 -0.4272  0.3997  0.5875
 2848SOL    HW311466   1.760   4.383   4.108  0.8455 -0.4191  0.5815
 2848SOL    MW411467   1.772   4.461   4.144 -0.2853 -0.0200  0.1101
 2849SOL     OW11468   3.961   2.989   4.637 -0.2213  0.2995  0.1363
 2849SOL    HW211469   3.894   3.001   4.569  0.5965 -0.6646 -0.8554
 2849SOL    HW311470   3.956   2.895   4.658  0.5303  0.3144  0.3731
 2849SOL    MW411471   3.951   2.978   4.631 -0.0143  0.1743  0.0367
 2850SOL     OW11472   2.999   0.534   4.412 -0.4151  0.1258  0.0741
 2850SOL    HW211473   2.911   0.553   4.380 -0.5498 -0.6143  0.0059
 2850SOL    HW311474   3.051   0.610   4.386 -0.7044 -0.1031 -1.1821
 2850SOL    MW411475   2.995   0.547   4.405 -0.4709 -0.0021 -0.1006
 2851SOL     OW11476   1.700   1.173   4.527  0.5666  0.0328 -0.2330
 2851SOL    HW211477   1.675   1.167   4.619  0.8207  0.5195 -0.1308
 2851SOL    HW311478   1.648   1.246   4.493  2.1243  1.3274  0.0803
 2851SOL    MW411479   1.690   1.182   4.535  0.8055  0.2679 -0.1779
 2852SOL     OW11480   3.274   2.377   3.652 -0.0262  0.6194 -0.6340
 2852SOL    HW211481   3.223   2.390   3.572  0.6855  0.4864 -1.1178
 2852SOL    HW311482   3.219   2.412   3.722 -0.5033  1.0693 -1.2282
 2852SOL    MW411483   3.260   2.383   3.651  0.0048  0.6609 -0.7763
 2853SOL     OW11484   2.711   2.526   4.641  0.5352  0.4020 -0.3316
 2853SOL    HW211485   2.667   2.611   4.652 -0.7236  0.0237 -2.1510
 2853SOL    HW311486   2.744   2.528   4.551  0.5094 -1.0306 -0.3792
 2853SOL    MW411487   2.709   2.538   4.630  0.3660  0.1631 -0.5779
 2854SOL     OW11488   3.716   4.530   4.509  0.2345  0.2689 -0.0506
 2854SOL    HW211489   3.776   4.456   4.498  0.6641  0.4964  0.7096
 2854SOL    HW311490   3.771   4.599   4.547 -0.0353  1.1655 -1.2930
 2854SOL    MW411491   3.731   4.529   4.513  0.2551  0.4172 -0.1144
 2855SOL     OW11492   1.603   4.404   3.644  0.0517  0.1704 -0.4433
 2855SOL    HW211493   1.682   4.353   3.663  0.6024  0.9468 -0.5755
 2855SOL    HW311494   1.589   4.391   3.550  0.5313  0.7221 -0.5943
 2855SOL    MW411495   1.612   4.396   3.634  0.1876  0.3457 -0.4807
 2856SOL     OW11496   3.359   1.169   4.054  0.4773 -0.2826 -0.3727
 2856SOL    HW211497   3.311   1.251   4.046  1.0730 -0.1146 -2.5160
 2856SOL    HW311498   3.447   1.189   4.023  0.7483 -1.6336 -0.5231
 2856SOL    MW411499   3.364   1.183   4.049  0.5920 -0.4386 -0.6752
 2857SOL     OW11500   2.422   0.195   4.069  0.0621  0.4230 -0.2803
 2857SOL    HW211501   2.423   0.215   4.162 -0.9287 -0.7491  0.0041
 2857SOL    HW311502   2.331   0.212   4.042  0.0886 -0.2316 -0.7963
 2857SOL    MW411503   2.410   0.200   4.078 -0.0653  0.1820 -0.3109
 2858SOL     OW11504   2.671   1.096   3.683  0.0430  0.0019  0.2626
 2858SOL    HW211505   2.599   1.158   3.671  1.4167  1.8427  1.1470
 2858SOL    HW311506   2.676   1.085   3.778  0.6163 -0.4810  0.1760
 2858SOL    MW411507   2.662   1.103   3.694  0.2999  0.1808  0.3676
 2859SOL     OW11508   2.014   0.484   3.677  0.3368 -0.6196  0.2088
 2859SOL    HW211509   2.084   0.457   3.737  1.4209  0.3793 -0.5802
 2859SOL    HW311510   1.936   0.438   3.708  1.4151 -2.0014  0.9198
 2859SOL    MW411511   2.013   0.474   3.689  0.6220 -0.6701  0.1988
 2860SOL     OW11512   4.407   1.377   4.043  0.4847 -0.1953  0.2891
 2860SOL    HW211513   4.344   1.445   4.021  0.9299 -0.0593 -0.6294
 2860SOL    HW311514   4.441   1.402   4.129 -0.4402 -0.0733  0.6210
 2860SOL    MW411515   4.403   1.389   4.051  0.4210 -0.1613  0.2122
 2861SOL     OW11516   2.080   0.400   4.239 -0.4675  0.2176 -0.5764
 2861SOL    HW211517   2.165   0.428   4.273 -0.1901  0.7482 -1.6796
 2861SOL    HW311518   2.052   0.330   4.298  0.5900  0.2513 -0.0274
 2861SOL    MW411519   2.087   0.394   4.251 -0.2911  0.2921 -0.6490
 2862SOL     OW11520   4.175   2.927   4.429  0.3527  0.3178 -0.2542
 2862SOL    HW211521   4.096   2.923   4.482  0.9041  0.3361  0.5773
 2862SOL    HW311522   4.233   2.861   4.467  0.5488 -0.0471 -1.1739
 2862SOL    MW411523   4.172   2.918   4.441  0.4516  0.2718 -0.2661
 2863SOL     OW11524   4.290   0.359   3.992  0.1814  0.2240  0.1709
 2863SOL    HW211525   4.204   0.318   3.977 -0.8738  2.4046  0.0871
 2863SOL    HW311526   4.344   0.327   3.921 -0.4498 -1.4329  0.3958
 2863SOL    MW411527   4.286   0.349   3.981 -0.0410  0.2931  0.1893
 2864SOL     OW11528   4.277   0.641   4.033 -0.3787  0.7628  0.5890
 2864SOL    HW211529   4.272   0.549   4.008  0.3903  1.1900 -1.2628
 2864SOL    HW311530   4.358   0.648   4.084 -0.3005  0.4655  0.5031
 2864SOL    MW411531   4.287   0.630   4.036 -0.2666  0.7799  0.3328
 2865SOL     OW11532   0.404   3.089   4.323  0.3043 -0.2518 -0.0528
 2865SOL    HW211533   0.417   3.056   4.234  0.3349 -2.4585  0.7452
 2865SOL    HW311534   0.344   3.027   4.364 -1.5999  2.0201  0.7749
 2865SOL    MW411535   0.398   3.077   4.317  0.0571 -0.2434  0.1621
 2866SOL     OW11536   1.486   1.565   3.774  0.0717  0.1502  0.1693
 2866SOL    HW211537   1.561   1.599   3.725  1.5830 -0.7448  1.8055
 2866SOL    HW311538   1.495   1.603   3.862 -2.0323  0.9270  0.0826
 2866SOL    MW411539   1.497   1.575   3.779 -0.0066  0.1346  0.3738
 2867SOL     OW11540   2.421   2.670   4.364  0.1348  0.4497 -0.0379
 2867SOL    HW211541   2.391   2.579   4.358  2.4062 -0.4498  1.6817
 2867SOL    HW311542   2.422   2.700   4.273 -2.2195 -0.6948 -0.4833
 2867SOL    MW411543   2.417   2.662   4.351  0.1240  0.1800  0.1302
 2868SOL     OW11544   0.462   4.425   4.397  0.5249 -0.1687 -0.2269
 2868SOL    HW211545   0.529   4.482   4.435  0.1509  0.2193 -0.1463
 2868SOL    HW311546   0.467   4.442   4.303 -1.0988  1.6730 -0.0153
 2868SOL    MW411547   0.471   4.435   4.390  0.2613  0.1259 -0.1884
 2869SOL     OW11548   2.293   2.011   3.989 -0.3401  0.1725  0.2672
 2869SOL    HW211549   2.221   2.031   4.049 -0.1330 -0.2777  0.6645
 2869SOL    HW311550   2.250   1.987   3.907 -0.6718 -1.0842  0.8008
 2869SOL    MW411551   2.278   2.010   3.986 -0.3564 -0.0529  0.3903
 2870SOL     OW11552   4.200   4.042   4.370  0.4490  0.2053 -0.5309
 2870SOL    HW211553   4.221   4.064   4.279  0.8856  0.1758 -0.4377
 2870SOL    HW311554   4.273   3.987   4.398  0.8063  1.0154  0.1451
 2870SOL    MW411555   4.212   4.038   4.362  0.5536  0.3080 -0.4296
 2871SOL     OW11556   3.876   1.989   4.342  0.5800 -0.3110 -0.7505
 2871SOL    HW211557   3.901   1.951   4.426 -1.5197  0.6234  0.3425
 2871SOL    HW311558   3.851   1.914   4.288  1.1131 -0.8456 -0.2661
 2871SOL    MW411559   3.876   1.974   4.346  0.3734 -0.2583 -0.5426
 2872SOL     OW11560   3.314   3.035   3.966  0.1571 -0.0264  0.3065
 2872SOL    HW211561   3.405   3.019   3.993  0.1212 -1.6705 -0.5015
 2872SOL    HW311562   3.320   3.052   3.871 -0.5875 -2.1461 -0.1369
 2872SOL    MW411563   3.327   3.035   3.957  0.0541 -0.5233  0.1411
 2873SOL     OW11564   2.885   4.212   4.354  0.1182  0.1783 -0.3664
 2873SOL    HW211565   2.940   4.154   4.406 -0.1414  1.4323  1.3560
 2873SOL    HW311566   2.807   4.226   4.408 -0.1637  1.5039 -1.0877
 2873SOL    MW411567   2.882   4.207   4.368  0.0470  0.5188 -0.2346
 2874SOL     OW11568   2.020   3.879   4.014 -0.0788  0.5748  0.1505
 2874SOL    HW211569   2.010   3.883   3.919 -0.1758  2.0362  0.2125
 2874SOL    HW311570   2.110   3.849   4.027 -0.1117  0.2271 -0.4069
 2874SOL    MW411571   2.031   3.876   4.003 -0.0958  0.7215  0.0844
 2875SOL     OW11572   0.183   1.765   4.112 -0.2425 -0.1746 -0.0475
 2875SOL    HW211573   0.172   1.693   4.050  1.0927 -1.1902  0.8726
 2875SOL    HW311574   0.166   1.727   4.198 -0.6600  0.8797  0.3507
 2875SOL    MW411575   0.179   1.751   4.115 -0.1214 -0.1695  0.1268
 2876SOL     OW11576   0.357   1.421   4.101  0.4757  0.3874  0.0500
 2876SOL    HW211577   0.370   1.335   4.061  2.0522  0.3201  0.6669
 2876SOL    HW311578   0.373   1.407   4.194 -0.6662  1.0709  0.3690
 2876SOL    MW411579   0.361   1.408   4.108  0.5331  0.4687  0.1736
 2877SOL     OW11580   2.350   2.987   4.619  0.0500 -0.1336  0.4533
 2877SOL    HW211581   2.414   2.916   4.625  1.0147  0.8722  3.0238
 2877SOL    HW311582   2.267   2.947   4.644  0.3989 -0.6037  0.8692
 2877SOL    MW411583   2.347   2.973   4.623  0.2234 -0.0629  0.8473
 2878SOL     OW11584   4.459   2.296   4.331 -0.2508 -0.1262  0.2272
 2878SOL    HW211585   4.371   2.275   4.362 -0.7969  2.0507  0.1663
 2878SOL    HW311586   4.515   2.230   4.373 -2.0480 -2.4041 -0.8402
 2878SOL    MW411587   4.455   2.284   4.340 -0.5603 -0.1395  0.0777
 2879SOL     OW11588   2.603   4.517   4.388 -0.1189  0.1297 -0.4006
 2879SOL    HW211589   2.646   4.507   4.303 -0.1706  1.9701 -0.6680
 2879SOL    HW311590   2.610   4.431   4.429  1.0942 -0.4129 -1.7134
 2879SOL    MW411591   2.609   4.505   4.382  0.0341  0.3009 -0.6094
 2880SOL     OW11592   1.749   4.235   4.016  0.2414 -0.4118 -0.5225
 2880SOL    HW211593   1.763   4.241   3.921  1.0237 -0.2059 -0.3996
 2880SOL    HW311594   1.826   4.187   4.048 -0.3864 -1.1226 -0.0852
 2880SOL    MW411595   1.761   4.229   4.008  0.2617 -0.4787 -0.4487
 2881SOL     OW11596   3.039   2.463   3.826  0.0574  0.7010  0.3566
 2881SOL    HW211597   3.060   2.545   3.782  0.2284  1.3189  1.5626
 2881SOL    HW311598   3.022   2.488   3.917  1.6079 -0.7965  1.0975
 2881SOL    MW411599   3.039   2.477   3.833  0.2847  0.5851  0.6135
 2882SOL     OW11600   2.951   2.523   4.100 -0.2601 -0.3448 -0.1832
 2882SOL    HW211601   2.995   2.594   4.146  0.5529 -1.0191  0.0831
 2882SOL    HW311602   2.951   2.450   4.162  0.7228 -1.2127 -1.1875
 2882SOL    MW411603   2.957   2.523   4.114 -0.0231 -0.5484 -0.2809
 2883SOL     OW11604   2.663   0.609   4.059 -0.2871 -0.1855  0.3241
 2883SOL    HW211605   2.651   0.519   4.031  1.1484 -0.3172  0.0867
 2883SOL    HW311606   2.576   0.648   4.053 -1.1936 -1.9145  1.7505
 2883SOL    MW411607   2.650   0.603   4.054 -0.2172 -0.4309  0.4811
 2884SOL     OW11608   4.104   2.053   4.165  0.0969 -0.5843  0.0792
 2884SOL    HW211609   4.053   2.009   4.233 -0.5835 -0.1141 -0.1220
 2884SOL    HW311610   4.046   2.121   4.131  0.4601 -0.7661 -0.9254
 2884SOL    MW411611   4.090   2.056   4.169  0.0548 -0.5465 -0.0801
 2885SOL     OW11612   3.554   3.777   4.044 -0.6002 -0.3320  0.1709
 2885SOL    HW211613   3.551   3.688   4.008 -1.2554 -0.4358  0.4679
 2885SOL    HW311614   3.467   3.813   4.026  0.0227  0.6635 -0.9802
 2885SOL    MW411615   3.542   3.770   4.037 -0.6044 -0.2143  0.0587
 2886SOL     OW11616   4.140   3.214   4.678  0.0801  0.1023 -0.4590
 2886SOL    HW211617   4.079   3.253   4.742  0.4606 -0.5815  0.3380
 2886SOL    HW311618   4.094   3.137   4.646  1.0919 -1.2364  1.2259
 2886SOL    MW411619   4.126   3.209   4.682  0.2642 -0.1645 -0.1321
 2887NA      NA11620   4.151   4.287   0.706 -0.1638 -0.1850 -0.0645
 2888NA      NA11621   2.832   2.046   0.540  0.2923 -0.2066  0.2393
 2889NA      NA11622   3.444   1.955   0.680 -0.0338 -0.1445 -0.3190
   4.49070   4.66690  10.00000
